# vtk DataFile Version 2.0
track0
ASCII
DATASET POLYDATA
POINTS 12 double
2.01419e-18 0.210526 1e-06
1.61136e-18 0.210526 1e-06
1.20852e-18 0.210526 1e-06
8.05678e-19 0.210526 1e-06
4.02839e-19 0.210526 1e-06
0 0.210526 1e-06
4.34675e-19 0.631579 1e-06
3.4774e-19 0.631579 1e-06
2.60805e-19 0.631579 1e-06
1.7387e-19 0.631579 1e-06
8.6935e-20 0.631579 1e-06
0 0.631579 1e-06
LINES 2 14
6 0 1 2 3 4 5
6 6 7 8 9 10 11
POINT_DATA 12
 FIELD attributes 1
U 3 12 float
-3.30335e-14 	-6.09275e-14 	2.57642e-35 -2.64268e-14 	-4.8742e-14 	2.06114e-35 -1.98201e-14 	-3.65565e-14 	1.54585e-35 -1.32134e-14 	-2.4371e-14 	1.03057e-35 -6.6067e-15 	-1.21855e-14 	5.15284e-36 0 	0 	0
-5.42899e-15 	1.84882e-14 	0 -4.34319e-15 	1.47906e-14 	0 -3.25739e-15 	1.10929e-14 	0 -2.1716e-15 	7.3953e-15 	0 -1.0858e-15 	3.69765e-15 	0 0 	0 	0
