/*--------------------------------*- C++ -*----------------------------------*\
| =========                 |                                                 |
| \\      /  F ield         | OpenFOAM: The Open Source CFD Toolbox           |
|  \\    /   O peration     | Version:  v1912                                 |
|   \\  /    A nd           | Website:  www.openfoam.com                      |
|    \\/     M anipulation  |                                                 |
\*---------------------------------------------------------------------------*/
FoamFile
{
    version     2.0;
    format      ascii;
    class       volScalarField;
    location    "0.26";
    object      epsilon;
}
// * * * * * * * * * * * * * * * * * * * * * * * * * * * * * * * * * * * * * //

dimensions      [0 2 -3 0 0 0 0];


internalField   nonuniform List<scalar> 
5794
(
17.4639
0.840822
4.12803
0.933113
11.5518
4.25594
23.7022
49.9913
147.181
12.653
37.8265
1.389
5.44711
7.26492
7.93789
0.470993
165.871
3.07694
5.87672
0.994153
69.9423
12.0558
6.45585
3.63027
44.7435
122.947
117.857
12.0924
96.1279
2.91073
5.82337
6.26175
10.9837
1.29212
60.1981
25.7748
4.42945
1.53312
11.2172
7.0287
25.6968
5.25787
9.64745
9.154
8.97764
49.4827
6.2531
23.6899
6.86701
18.1995
0.965854
83.2925
15.1505
4.83821
0.110609
46.5799
9.31041
24.8784
5.61388
254.312
56.2224
1.63036
11.5505
8.58358
20.3991
0.885374
15.3025
11.9223
2.82402
2.6537
91.0633
27.0507
105.052
3.45401
2.4754
23.9674
1.08512
81.2325
9.22148
0.253587
7.62764
1.41956
16.8375
7.382
1.21397
36.051
12.3401
57.2933
5.7283
7.64039
81.006
18.5085
40.6662
66.8395
69.8925
100.263
55.7703
35.3578
12.7539
61.7797
52.4176
2.2402
7.32128
8.17784
5.46906
74.0716
1.22178
7.49526
67.7811
9.61699
0.907041
11.8155
58.8088
0.382901
49.1195
44.8942
3.47156
39.1097
51.2215
22.1338
83.8719
9.01316
0.704055
17.4698
15.0383
53.3731
6.52429
2.95493
94.9194
16.1515
1.88612
9.84734
6.32508
68.0598
76.4738
9.81396
121.722
1.57353
0.359329
0.76901
4.28872
14.1674
18.1691
15.3586
0.7289
164.386
4.62591
41.8174
5.9359
23.7503
13.0513
3.48694
77.6932
1.27631
150.49
5.4257
3.47253
7.611
78.4495
1.37355
8.0867
18.5716
1.35851
41.9048
70.5784
92.9702
40.9557
4.79248
0.822086
16.7708
3.44991
32.7539
14.9899
39.7
1.91756
9.2143
4.93134
42.726
1.53573
136.735
1.63149
14.0517
2.0034
16.0902
7.76397
103.329
3.46869
7.63927
9.85883
2.11268
48.2689
8.27578
11.0609
3.17769
8.42293
2.47687
51.8124
0.799193
5.5971
6.94445
19.1395
96.6873
20.1541
9.04974
6.20983
57.9304
0.953877
19.2853
6.67261
75.9373
12.7146
10.4258
37.0499
17.1279
1.41027
35.5801
10.2038
4.91437
32.4032
56.7752
9.9499
34.376
126.08
47.0072
133.918
30.6483
1.81893
20.0537
6.26202
5.28523
13.5398
54.4872
1.16628
60.673
1.67574
16.2474
12.5244
30.6072
3.52176
5.40719
1.4597
54.3834
54.7994
1.04762
1.24984
1.74396
11.8427
3.79519
94.2338
46.9843
13.9917
0.643221
162.094
0.400879
4.93816
14.4556
6.87576
15.7224
13.3592
12.2229
71.2584
37.6004
11.7586
0.295984
16.1878
9.9144
23.9912
75.0579
10.4275
58.1533
5.78383
19.3457
44.3413
98.3783
16.5052
4.39541
4.80907
4.01785
0.634685
6.09499
3.69589
60.8515
28.8537
4.64312
9.4272
84.1996
25.7652
41.8448
78.2815
98.0979
17.5202
47.6543
1.27724
7.52357
4.8545
109.177
40.7418
2.50656
11.3016
0.276689
1.95939
55.5242
4.60286
64.2154
7.73996
78.5368
0.467825
2.21901
64.9845
5.09295
16.7964
39.0409
87.2968
0.303181
9.82496
34.7167
11.7523
8.11273
61.8752
159.297
28.7617
21.0236
9.96097
6.85316
0.48301
13.1183
5.94648
1.71708
5.92872
36.4511
119.43
8.85418
1.87664
10.5567
5.68458
12.1234
12.9923
1.1401
7.77287
4.43309
3.00855
48.7337
138.789
9.67877
4.70179
1.61642
23.8356
20.7071
107.739
2.04004
23.6557
113.528
12.6844
10.9897
2.60834
73.6109
5.74543
107.415
22.5246
47.9086
15.7028
1.3181
94.7333
21.6955
37.3104
4.18901
79.7999
58.251
9.04461
31.7439
2.77851
0.645049
4.05892
1.10046
27.2634
60.8506
44.3297
10.6043
35.1127
0.163749
4.4844
2.49139
12.4913
35.0705
36.3647
1.25344
63.4868
38.8279
26.0742
38.8743
7.21708
71.9548
2.35273
4.23117
12.3752
44.6428
1.60864
6.90178
7.45831
8.37775
2.41743
37.9012
35.8763
1.36535
13.9834
41.5067
13.0791
5.19464
1.16089
52.1729
43.2658
8.78334
35.4632
32.5492
75.3934
6.74582
19.0471
3.30595
59.8686
53.732
11.525
36.015
19.7125
2.94471
26.5864
34.3607
1.80283
0.472089
0.723395
11.6898
84.9113
5.75938
21.1164
85.5966
7.26343
4.80361
1.07283
6.67341
32.1854
28.746
1.43988
8.11634
8.9536
1.86258
3.29153
50.9815
56.6817
0.155176
8.6485
77.8763
13.8665
0.90345
103.348
15.2461
50.345
0.29936
53.1596
120.284
47.2126
98.5529
13.1857
0.97613
21.4424
2.77113
68.2438
15.8573
25.1926
16.0453
18.9472
8.90893
0.270205
9.89051
54.3965
5.1327
15.5912
84.5446
32.6527
8.66863
4.75434
1.04722
31.0996
12.8992
7.10923
4.8465
14.5154
34.1156
10.3574
3.94231
86.0898
9.36154
1.12274
1.83032
8.47259
3.99953
20.2548
0.885353
3.3058
2.31266
0.365707
36.0719
10.3762
22.7598
8.51346
12.6201
21.3615
1.15322
6.85653
26.1801
41.4781
0.695992
95.4958
0.358421
5.49635
0.191828
0.204338
32.616
40.8763
0.168137
5.59625
33.5735
5.88154
0.851369
13.436
121.648
16.0398
1.29529
6.74485
41.1954
0.953228
11.7781
24.5784
0.346862
23.8726
1.88223
3.83757
19.8214
6.60761
148.548
14.6784
56.1541
11.8955
104.105
0.867263
6.90641
7.19233
0.469954
5.58537
13.3272
0.278687
2.69033
9.89452
0.331075
6.04738
6.73081
1.72693
17.0674
21.4665
10.2165
1.05658
7.23256
239.24
2.63089
58.029
4.96744
6.15485
3.59145
0.49273
10.833
3.39789
0.497806
76.1847
43.4339
50.0179
81.6185
95.158
9.14805
15.0081
8.81737
2.67289
35.826
54.4358
24.4539
85.7567
22.3262
105.971
46.3207
0.54313
42.8498
10.8827
61.6984
0.630378
1.39272
1.49078
64.2345
31.4334
31.6381
0.132654
9.33408
0.316178
12.0334
2.69702
86.3974
40.1686
65.2557
0.243281
8.67161
169.73
11.967
0.15656
6.21246
14.7091
19.0212
3.75014
10.8772
1.02332
6.97045
32.0843
36.3072
7.55082
1.02037
1.6455
45.7066
64.4474
13.5632
1.54746
1.38306
3.22473
14.7728
65.8546
0.44034
10.897
0.795172
0.888254
4.9746
0.90203
6.49309
91.3032
26.4038
5.30901
7.84402
5.6384
8.1683
32.4603
13.9691
123.063
94.8984
37.8928
49.3063
0.660019
0.858428
2.72055
6.20471
1.71354
4.53617
3.83207
79.1153
46.1204
0.75903
55.0738
5.95761
0.202915
8.39821
14.2259
47.0515
1.1045
39.1568
85.6392
84.8493
28.2329
34.4719
32.263
7.26698
35.2702
19.8432
33.7806
44.7317
69.1745
7.67843
3.6683
5.09636
1.49136
23.4428
3.30619
0.266325
6.30242
134.131
127.131
2.03444
0.985886
0.142138
3.73484
127.942
84.2117
55.6675
7.46329
39.7179
20.5333
1.78986
1.84539
9.81962
5.67894
3.3016
0.400699
16.147
8.6226
133.931
7.11398
5.58948
1.33922
101.338
18.5473
113.04
44.7684
97.5647
44.4693
16.2146
8.68879
76.3227
48.4211
48.9504
42.3753
104.076
149.143
1.87493
11.7535
7.82216
12.4243
28.2111
86.1446
37.862
71.8221
47.1108
88.4941
29.2714
7.58383
5.21711
103.517
13.4983
16.2777
37.9927
68.6663
1.71739
3.42919
11.4793
9.34302
77.4443
21.6611
95.7812
15.3707
8.98791
2.11032
5.50209
2.48916
0.236888
41.1439
58.0314
5.16342
72.9946
71.5117
7.49547
3.34476
19.8171
54.7455
37.6851
88.7996
82.8046
28.3053
39.9503
7.67311
39.834
9.95481
57.6474
13.5078
1.33252
5.56228
1.53638
1.26707
6.77394
5.65286
3.29131
31.4261
57.6435
18.1281
11.5571
0.92169
57.5117
23.1936
24.7744
60.1903
27.0592
0.430419
58.1325
36.3609
24.0739
4.03771
26.8775
0.901026
151.654
12.498
88.8676
9.83031
13.7279
3.25715
0.177729
1.87768
5.78117
31.593
40.6091
82.1991
138.659
46.6832
4.31443
8.87395
29.3169
159.982
0.912276
1.37237
11.531
64.9522
1.18289
6.96131
21.1759
41.2292
27.9848
0.348688
17.4142
3.94152
5.31078
6.3657
12.2078
47.1041
57.9675
9.3222
1.83391
6.42601
5.5006
6.85841
109.783
8.86357
2.06722
5.67916
1.19615
21.694
2.12392
25.7186
0.196354
4.60325
5.58605
10.743
22.8076
41.3715
70.6451
58.2742
30.819
72.6758
41.4678
32.8796
34.5257
0.180439
1.29789
5.24467
6.25106
8.61919
3.93985
109.533
41.9678
110.765
18.4377
1.78697
4.84719
0.651068
14.1358
52.1691
4.00177
281.15
3.00405
2.14503
65.2647
14.369
6.49608
1.64688
2.50477
15.04
6.80487
1.03709
2.00107
49.8531
76.446
10.4695
10.0865
36.7033
5.42922
39.5179
80.0353
106.739
65.732
9.90319
7.98061
0.934188
13.7792
0.46582
0.251126
0.970297
4.93134
26.5453
1.56383
7.36122
0.560418
5.43981
111.717
7.09946
8.3069
9.14091
19.7691
34.0011
28.8311
40.7657
6.29561
0.596384
33.2887
11.9217
43.2387
7.81988
79.8914
26.267
55.8901
3.12261
51.8044
49.6442
13.0959
11.3043
10.8814
7.20838
2.21518
74.2992
15.0283
22.2212
51.8223
10.7274
38.9154
17.657
10.4913
1.14834
5.85416
4.96154
0.395264
11.462
31.1906
151.334
6.9482
12.3796
73.6335
0.961128
15.8057
18.0956
31.9288
10.044
7.73288
23.2045
54.1664
7.25153
15.7278
1.48828
5.66995
0.917383
1.13803
1.29702
2.78155
0.182775
0.563568
1.13889
1.98815
7.96398
3.24782
5.3489
1.06645
0.522801
65.0623
9.71908
53.7374
1.55545
19.3732
0.739577
45.809
4.81124
6.66009
2.00504
20.3389
47.2956
1.91081
9.99616
3.58994
0.16013
9.23115
70.3072
21.4826
17.3521
221.818
0.162948
11.0596
29.2965
15.9822
22.2105
27.7102
80.6058
65.4338
1.52755
7.43973
0.578603
0.578648
17.5776
11.6667
122.834
61.1021
85.6955
0.424416
49.5973
91.6017
34.254
30.0408
42.2012
1.41053
16.6427
0.829562
35.9605
11.012
18.2479
4.58075
6.83354
4.4087
4.81474
10.0072
18.331
0.798122
10.0088
8.9681
13.1893
13.2246
1.4545
8.2023
36.4517
0.23753
5.7104
1.46941
7.02056
13.7363
0.209118
27.7443
1.30154
10.3656
19.4093
2.50252
16.0761
8.7883
0.509044
7.49915
11.3561
0.138813
116.682
22.406
4.69511
0.987982
19.9054
0.138683
0.772819
10.3674
2.1183
0.140032
1.50129
36.7931
16.8729
43.1645
24.0707
8.18771
69.8078
34.3752
0.150373
1.74569
9.10404
6.48555
23.8871
67.4685
0.166293
26.857
0.304199
9.48699
1.38344
59.3862
2.23905
13.7376
75.569
0.617255
36.7809
4.74852
0.266646
6.28476
5.2091
31.2037
34.4289
0.475417
38.7157
0.501504
0.622611
18.1894
1.02618
8.62851
7.37531
5.49788
30.1474
5.93394
89.11
0.646057
3.23769
0.948825
4.49963
4.1459
17.2978
4.78278
29.1919
7.93108
21.215
18.8611
4.3353
1.01229
6.95595
12.5143
12.2212
5.38751
7.27006
160.21
62.8266
63.6683
19.4856
135.067
8.255
8.31275
14.905
1.21174
5.18961
0.151373
701.214
41.0399
0.183342
5.84932
59.0006
54.9827
8.87951
1.7126
5.47882
48.9085
12.8418
1.13205
14.036
7.07046
28.8749
3.44084
6.09668
1.86214
0.246986
7.68205
7.62564
5.24226
32.1797
0.856417
47.6462
16.6839
17.1535
12.0087
2.15559
4.32018
20.686
9.25081
17.7844
11.6159
4.37357
4.10565
4.99978
25.3736
9.34775
5.75346
0.86498
7.5556
20.5581
5.38291
21.6396
61.6586
30.0801
8.17636
5.9781
6.89463
6.54235
4.22099
17.2493
11.1122
22.2447
0.131993
2.26843
0.985201
183.315
0.203503
0.18575
8.42681
2.76583
1.08664
35.6397
6.01909
5.92145
2.40077
5.12727
22.8614
140.245
59.0922
1.59973
1.82955
1.69934
6.43496
60.5591
27.8117
5.3106
8.61671
0.564476
2.44081
11.003
10.9884
37.8666
2.19119
7.8193
35.3642
5.0735
0.56993
14.1861
92.9167
32.779
24.1866
23.5344
5.29048
0.530537
3.04691
17.461
5.83422
65.5758
0.823633
0.58239
37.9379
9.98697
7.74479
0.128576
13.0812
62.962
0.32895
0.265447
8.53307
1.89851
1.59192
7.07043
4.87075
15.3766
0.179865
2.67466
21.6783
65.6023
10.5029
10.7527
30.5466
4.43395
4.71317
0.842667
4.1621
79.8207
15.1488
44.8393
3.9116
14.1023
35.9237
29.0035
5.61128
15.6055
0.548785
9.4935
0.158267
3.43355
3.30515
5.99306
7.69352
12.9497
6.85934
3.92492
12.177
0.167925
1.28359
7.39349
4.90951
0.196748
3.70144
66.5559
9.35889
53.3851
46.7913
3.69783
1.34188
144.873
0.713654
35.7969
14.9668
3.74322
1.55893
1.51377
25.5862
0.614499
15.3021
0.348861
7.26961
0.173244
1.33182
4.46503
37.7039
6.82546
34.6311
25.2449
5.25214
8.84324
0.496602
19.8533
8.04051
9.61061
24.4682
5.81861
0.408166
8.31514
26.9572
19.5783
109.135
71.0499
43.5212
45.471
8.2712
0.17369
2.63662
24.3215
2.99069
88.0777
0.357188
0.234035
2.31281
17.447
0.44791
5.57224
16.0355
1.25053
5.95276
10.773
5.2489
1.0891
7.60485
3.95153
36.8564
22.3444
0.236533
23.8875
37.5868
2.33883
18.3517
1.91935
69.4235
0.258723
1.53616
0.723171
10.4233
368.258
11.3837
57.6374
10.4096
46.3043
108.792
18.8201
12.9654
0.359179
0.683827
0.393849
0.200546
6.56797
10.5604
0.462887
14.7352
0.210556
0.59609
4.65516
17.3464
0.564095
1.3118
0.187302
4.1963
11.0505
0.893275
13.565
5.53611
0.557716
1.5296
0.179071
0.656504
16.8552
6.52546
8.27457
0.329679
1.42351
15.5022
4.36018
0.856553
0.348502
0.574667
0.368727
0.320811
10.3005
0.623586
0.146458
4.66734
0.340208
4.16059
14.0156
1.50021
5.53909
16.4671
0.200505
5.30167
28.0791
81.3104
6.44952
1.07402
0.140989
16.3139
1.73467
29.9244
2.54011
182.455
11.8122
103.599
32.8754
0.169075
0.161972
0.18258
3.08766
4.57941
23.7828
0.195011
4.21177
6.37417
10.7839
19.1105
5.01368
4.06922
28.9975
16.2688
252.371
2.34387
34.2621
25.7594
11.5958
7.21794
5.35636
83.2232
5.90699
32.2752
4.72901
9.90576
8.84627
1.64862
11.4948
13.9057
622.612
1.66066
6.01823
0.949234
6.03064
7.97355
5.06198
71.3276
5.63735
0.641579
0.234138
13.7429
7.9282
0.433314
12.9566
0.187146
0.592389
2.76676
0.169128
13.8132
4.17624
0.200592
14.5026
5.75193
15.8284
5.02948
1.4813
0.990425
0.38371
0.345561
14.6762
0.641992
33.4831
86.4777
2.44059
18.0544
3.55609
13.9162
3.54095
0.156757
60.9454
6.14143
6.37772
44.019
11.5784
4.64958
0.209667
13.315
35.787
5.95855
26.6803
84.4644
24.4493
0.133388
4.89535
27.0051
2.17237
4.65352
13.1022
52.779
1.21778
7.13884
0.333301
1.82243
1.86031
7.41074
6.54999
0.353984
124.512
0.214942
113.703
1.39848
0.245439
0.135515
1.61591
0.287684
0.366063
7.58776
1.45235
109.988
10.7394
11.6103
19.5405
3.43932
5.18656
21.8462
0.934866
9.10876
7.97949
3.6858
42.1824
11.9219
0.892952
33.7699
8.37088
5.38354
10.2525
1.4364
0.219731
5.27156
13.1867
0.443645
7.8043
1.8797
0.136747
8.6429
107.826
82.8905
13.2383
4.5223
49.0028
0.149696
5.69429
9.85518
5.28983
6.05177
18.095
1.56793
45.1113
0.134441
12.4332
6.13114
6.28578
7.95167
1.68788
6.82057
4.96058
1.46387
1.13945
0.767394
1.99571
21.9036
6.6264
6.5551
145.576
43.4613
41.3256
12.7029
22.005
28.0173
26.4882
60.81
11.3429
5.34945
28.5608
7.27438
32.9104
113.009
107.688
10.3973
72.2196
26.1644
17.2884
5.80253
1.39417
42.0522
57.0706
14.6706
51.6422
20.2299
109.579
22.1344
28.3445
68.6419
5.04491
13.0328
21.7998
0.691817
1.87462
11.6597
46.1848
0.743257
0.383933
9.05299
47.5705
51.1979
27.775
22.4281
52.181
27.1119
49.6462
2.1586
46.4744
33.7772
27.2237
23.2579
40.855
22.6217
14.9754
25.5527
10.1581
7.31328
6.64241
1.3096
36.7657
4.92624
1.20793
1.25309
4.24951
0.239159
4.99448
21.1017
24.6759
4.49013
1.01774
2.25427
48.8997
20.9979
39.246
20.567
2.18798
4.19946
1.696
5.24849
8.09614
5.7053
106.455
7.30955
5.33225
7.68465
4.94097
0.287576
39.0616
0.527625
20.0309
5.99893
0.267785
4.99622
4.135
5.86844
4.84176
2.51802
3.23915
57.2621
4.46511
4.33684
5.17895
4.62973
40.6571
165.629
3.81738
72.9534
25.7326
4.67167
168.986
0.936053
9.57396
142.637
21.0077
78.1434
5.08779
7.34514
121.216
158.825
69.0895
7.44975
6.31594
11.335
7.43717
12.612
108.797
4.08831
4.12593
41.6791
3.46
5.94792
1.04963
8.87292
53.8123
30.8511
19.8037
102.256
127.911
10.9572
138.993
4.72871
43.4192
20.5207
1.22154
122.884
14.532
98.4573
22.5566
44.0322
1.11428
101.349
96.1459
14.6577
103.265
87.6469
4.50456
19.6748
49.4082
16.7235
17.4221
61.2546
13.0791
72.1809
37.742
31.5035
7.41988
25.1059
9.9193
88.6303
5.52609
1.27838
2.09354
160.191
1.1156
8.56614
0.363683
35.9931
15.0036
4.68595
5.02882
3.82554
5.38874
2.07516
2.9739
4.30301
7.9368
3.69375
2.52599
3.79098
1.26158
17.7489
46.1623
19.6643
4.92009
5.64005
5.32036
9.42614
10.3451
9.64233
19.116
16.9876
8.53399
0.238165
16.578
14.5382
66.3094
4.51079
4.41548
10.1986
9.90587
4.43723
12.2629
12.8954
3.83271
7.01707
5.75155
32.5259
5.73719
4.54052
40.3372
8.55112
6.2974
5.02835
1.91461
6.11897
6.99336
37.132
4.33784
3.22121
6.10858
5.65788
4.69825
8.45458
9.61002
2.05236
4.33364
7.7165
3.46887
2.28349
3.27237
8.31353
6.41357
6.03926
9.35142
6.16594
5.11025
13.2771
7.35451
10.84
2.56826
0.515343
9.59302
0.937084
0.585878
14.8067
12.8128
59.7762
6.6156
4.95238
3.08851
7.19788
5.52247
35.8408
81.8771
30.5299
29.1152
3.61891
3.42696
37.5395
1.88511
11.3507
0.995691
11.3036
0.765125
48.735
22.8845
3.98092
39.6439
8.58112
14.7138
10.5535
1.17907
0.653028
40.1921
31.6578
24.7807
34.6688
22.1217
11.5127
1.33501
0.770181
65.0634
17.2202
10.2136
41.981
73.1775
30.8864
22.6444
37.6767
54.4554
9.99677
2.18773
11.2342
18.0364
34.6605
24.136
1.31497
38.6231
11.9415
44.4388
31.6714
9.0351
1.57806
0.676253
0.898968
34.9371
72.2156
39.4507
71.0789
0.50511
52.908
33.8615
3.94629
5.63205
7.36114
1.57538
22.9673
34.512
16.2903
32.1303
1.50958
8.18269
25.7088
1.54979
25.6244
53.371
6.40172
60.9374
43.2483
22.6961
96.7889
10.8159
5.32052
19.4763
25.1402
23.1921
19.1184
2.89645
13.7503
27.7274
46.0118
17.0773
28.1241
8.29789
1.50101
0.687796
26.0546
39.4952
4.4441
41.0526
94.105
108.31
125.526
38.6869
21.7374
11.3729
7.3297
0.352794
38.2946
3.7134
64.9369
79.2381
4.85389
9.41203
173.652
5.58
4.83807
37.0102
35.2782
10.4864
5.94271
6.03617
133.978
33.3028
1.59272
27.1427
6.03588
3.32231
3.39175
24.0326
16.2411
3.64795
14.3115
15.2812
32.2745
12.0696
1.20489
0.561977
8.31608
42.1282
8.88907
5.48356
155.12
165.414
24.636
1.98179
121.784
35.6777
21.1058
6.20136
0.220121
51.2749
3.58282
1.63032
5.83501
132.774
52.9282
45.1895
5.96244
188.712
43.2347
45.9718
1.10596
7.00557
3.50916
11.3716
8.21355
9.25574
11.218
6.7086
20.0421
55.3023
7.53433
4.32556
14.3104
28.7694
16.0074
41.2565
24.0338
26.9512
9.43001
46.3441
5.31439
1.31538
93.3419
41.2535
28.6454
34.9605
75.011
17.0198
5.2073
4.27041
4.04214
12.8885
11.3927
8.57027
0.942539
0.542241
4.23676
3.91868
2.91534
51.4439
50.2645
14.1359
4.4118
4.02773
7.08607
5.58397
2.50507
3.24079
2.98289
3.13067
2.34395
13.6975
6.55558
51.5128
23.4424
11.3169
0.338047
66.3697
5.39183
5.98114
2.59512
44.9242
130.068
31.0394
21.2025
2.72446
62.6229
3.7038
13.9245
0.340089
0.207439
12.0791
13.1013
36.1986
7.30864
0.97965
0.846144
27.722
5.20631
3.61672
133.992
1.56119
8.76608
10.3581
10.6146
5.30292
47.2076
137.917
32.5718
2.76745
3.79911
43.3088
43.275
6.07193
2.59945
11.4437
3.3748
18.6891
5.74552
0.243704
9.61664
6.24484
0.26676
10.3154
3.59178
9.08394
9.02053
2.98778
4.86553
6.31447
2.91087
17.8916
4.94774
3.09218
6.76362
1.29538
6.85816
7.84799
5.74973
11.9312
29.3453
46.0803
17.1391
59.9977
4.24078
141.131
30.0757
87.0373
0.873708
1.03804
5.60661
33.2944
8.2447
0.403731
102.38
4.69998
6.27987
5.55586
17.4097
18.0117
5.33922
68.4739
29.0948
1.59243
3.04022
3.36812
6.33574
12.8328
0.632753
0.532251
7.28806
9.26187
17.5682
9.93657
0.607038
131.777
83.6958
150.035
151.752
5.26711
5.10252
6.5717
3.00654
31.9787
2.9266
2.83963
24.7572
29.4683
1.82128
18.8963
28.1497
58.8626
75.7351
7.56104
18.1733
1.5104
9.43234
10.2341
1.35311
4.7902
42.6518
9.19531
22.9853
44.0439
55.615
22.82
1.73917
5.32471
53.1017
17.7183
8.8204
26.1411
18.6549
32.748
4.45501
21.3764
31.1592
112.477
6.81923
6.26429
1.5922
0.335941
43.625
8.50628
5.11605
188.292
73.913
352.102
2.72505
26.0444
22.2609
26.1323
8.71412
141.78
45.0781
0.325364
0.223175
7.17969
0.246694
1.84287
40.3622
7.64778
37.6177
43.9873
40.9427
59.4857
5.47856
17.4185
109.433
17.5429
21.3016
557.482
4.78704
6.16027
32.7008
139.77
5.03771
34.2216
58.2377
4.45338
2.08435
41.4982
5.19239
11.3672
26.8149
0.283998
5.2425
2.31989
2.81553
11.0958
67.679
4.54471
5.12742
13.8593
49.8472
21.6391
121.629
0.99138
126.052
9.39073
9.49227
7.31794
1.42845
4.88095
79.6233
8.07542
44.3924
5.96954
75.0249
111.56
4.77308
28.5166
7.51075
4.91776
12.7775
0.160187
16.8581
54.7125
10.5413
7.37104
18.3201
14.8005
23.1104
49.5811
3.59101
59.0248
5.62571
77.8186
8.62211
3.33273
0.271648
8.43363
12.7193
39.8506
5.31927
33.1398
109.342
5.91123
8.12335
98.3403
5.29103
1.86385
47.8135
2.36949
1.4901
7.64522
12.3728
37.4935
3.6548
28.5924
55.8103
0.338172
9.60124
17.4426
43.2983
35.2405
4.40246
35.7268
13.5857
7.09042
13.7243
11.0325
9.74058
7.46924
0.432817
0.517122
10.2616
70.9552
3.88082
9.41748
66.6425
8.36411
32.2353
43.499
5.38951
4.93181
5.37106
106.713
5.4454
1.25295
1.49711
4.67437
24.164
5.17931
5.714
3.79008
85.1927
34.5455
5.32161
47.9726
76.5189
53.8321
20.1257
50.7827
0.38138
26.1931
59.3543
9.29941
0.524554
0.501638
1.53158
2.28893
6.17686
43.4361
1.42206
27.2793
5.49458
3.58717
4.87994
1.3095
7.28451
76.3475
1.58549
18.5209
62.2648
7.78353
4.40463
13.2785
0.414769
0.502234
45.9102
14.2511
5.14973
109.477
14.4687
27.1364
153.108
41.266
4.77956
0.382944
86.5856
0.211966
5.14239
75.2569
30.5339
9.12526
2.82139
4.96946
16.2853
36.866
0.2362
0.602567
6.66395
32.5706
5.30897
5.13435
5.01351
16.3937
38.5707
13.2361
1.78449
49.2808
93.8765
148.544
16.8476
6.92796
4.97663
25.743
22.7233
16.5722
2.43898
11.2263
6.93118
14.7561
0.909406
4.81074
4.96035
13.3771
30.4757
0.149318
5.05447
47.421
35.0927
1.75145
7.29598
4.72022
5.04346
55.7569
29.4384
10.4016
4.23703
0.327321
0.509548
11.6686
6.17148
99.6269
0.354525
23.6284
6.63991
22.6435
0.963728
12.4951
9.5891
71.2846
13.9156
0.324504
0.480244
8.30152
28.2538
1.34358
5.80029
0.137949
8.80457
2.07203
0.435565
2.61764
5.46773
5.91405
26.6759
17.918
6.49103
26.9876
5.64366
5.10926
4.82932
0.375497
1.47201
7.28392
1.7602
15.2117
1.82547
22.2349
6.65892
34.6688
2.96261
1.50282
6.35139
6.60018
35.1883
3.65418
2.76899
10.1966
0.3593
0.476827
4.63437
0.496667
31.5857
195.251
5.00074
3.96964
0.747923
11.3255
0.165275
29.8356
5.05306
94.0046
35.1772
8.57678
117.162
0.351253
5.52953
6.64913
47.7047
6.99098
169.797
4.2464
8.78864
0.530108
6.81729
1.891
3.35449
8.69156
23.349
24.6111
9.04358
1.55081
4.01588
0.274272
10.0815
4.99678
8.15882
14.6343
37.1167
11.8723
14.9188
19.4059
5.96565
11.3927
5.51595
27.0773
1.93247
4.06959
4.3164
38.1983
11.8733
0.538634
6.06472
0.358796
2.75316
11.0049
1.40558
4.17326
3.08834
75.0603
6.83246
18.0702
7.18213
8.82283
35.1039
6.24385
12.0091
12.9104
5.98603
2.60577
3.65256
7.23465
11.8065
6.6421
5.49891
21.9904
0.137617
2.85353
5.49202
0.512451
4.90896
0.543997
0.398536
0.897415
0.134327
14.1494
0.360266
5.46037
4.96355
8.69439
7.02605
0.895503
1.50849
14.1653
8.93998
13.6837
8.17806
15.0041
4.17859
2.65894
70.1662
51.4335
4.07334
137.921
7.34367
1.37705
129.216
111.96
39.1713
0.287813
0.467178
0.380279
0.314189
0.479779
7.6503
12.9404
61.139
0.246214
0.35191
4.92809
6.72322
10.0133
1.70924
0.234534
0.149553
48.7864
10.0354
17.3098
43.6966
2.90555
13.79
29.3676
26.3984
42.0742
0.171901
14.0052
20.7001
9.59684
33.5746
7.6605
0.301996
2.94254
20.0625
9.80666
0.925096
9.85016
0.567663
5.60218
5.15068
5.33936
8.82603
0.218195
3.00642
1.27087
107.489
0.764728
2.43404
0.135256
4.77925
22.8661
1.56881
20.1508
3.64972
0.281034
56.7273
5.39487
4.16834
72.0191
70.2665
46.8962
29.2471
1.51884
5.10159
8.88514
33.1332
8.95865
0.382345
37.3602
1.64372
14.5451
3.53558
0.958353
10.2797
8.53625
4.96033
0.854533
10.1807
35.2605
2.09913
7.19788
1.93287
2.83581
7.26723
159.43
9.13201
4.45752
10.958
0.300518
0.465624
0.348808
14.2331
0.489649
3.31946
6.6128
5.25077
39.315
20.8586
23.7136
20.4026
8.10925
4.82076
100.124
5.60845
22.7294
29.6809
6.10419
155.341
12.7042
0.34376
0.500601
4.2562
4.1026
11.8194
10.5402
1.26791
2.30458
17.31
90.9405
37.8452
16.4321
14.5682
193.459
32.9623
32.9041
7.06547
4.56739
13.9292
124.554
13.99
149.151
25.1165
0.628428
1.95162
1.98796
38.209
4.05917
47.8605
29.7952
23.3514
23.8274
21.9858
17.8723
3.28905
0.708007
13.1959
0.595409
1.73588
11.4578
5.77863
4.88591
1.62875
7.30851
8.20906
4.43545
25.15
50.6171
17.9035
0.161057
2.12388
1.98323
6.85028
6.23876
37.6692
3.92419
6.74341
7.42473
4.82547
150.515
5.0533
6.69365
16.8285
32.2344
6.3114
1.30842
0.497457
23.8917
52.9871
13.3205
10.2106
39.553
5.4654
12.6427
9.62006
5.33912
13.3889
44.3097
4.4369
19.1275
3.98112
0.219755
5.92008
0.205633
26.2673
49.6283
17.3322
7.48763
6.52366
1.17398
31.8833
23.4822
0.236827
30.0012
9.27267
0.187449
1.32961
19.0972
153.428
22.0455
6.09498
3.20275
1.22953
7.82086
0.263042
0.218539
1.26149
9.42073
28.9796
2.03836
29.0072
7.07423
1.60408
5.68247
34.5822
6.7949
0.184082
2.03101
4.1837
87.8367
76.5173
42.4347
4.96441
0.498166
1.37837
15.235
19.3186
10.4258
5.55776
14.1491
144.544
5.78008
26.7829
7.84986
41.1382
8.47821
3.98977
105.24
0.514719
5.27546
4.92435
6.07546
1.98147
0.377586
0.995581
1.87688
1.996
16.9082
4.46315
13.3709
6.8291
17.346
7.36651
12.287
4.49551
13.711
157.008
1.332
18.0655
0.855624
16.1463
55.6589
0.747471
20.197
6.36839
6.86501
5.60446
0.879854
4.87599
40.2811
1.46158
44.4101
181.727
22.2181
56.0776
0.489516
28.8827
64.7286
5.513
50.7745
18.6679
9.68886
23.5651
10.2462
7.54712
36.1858
8.4826
10.6182
0.880424
0.903138
11.087
6.04949
4.33212
7.63126
29.5562
32.1036
1.21374
0.586759
5.06071
22.141
31.9106
5.48343
0.331249
13.0553
6.5152
29.0223
18.4504
3.38014
99.839
48.4838
8.18637
7.86278
37.3657
0.212751
48.1992
28.1879
5.60607
47.3834
47.4755
16.0066
0.947086
0.151645
1.8134
3.15795
1.66954
7.11963
9.9749
32.6455
5.0714
48.1142
104.202
27.0693
43.1127
58.5192
26.6015
10.0765
5.74866
38.2035
3.10102
56.587
107.552
2.72793
21.6964
1.07585
3.91661
49.5856
42.712
14.0712
0.246897
1.5846
103.762
30.5985
9.08858
1.36014
1.11642
1.36076
50.4364
15.7402
43.8309
26.9547
132.284
0.250964
117.579
0.358035
20.8727
0.54457
62.1993
7.62318
59.9851
0.228878
11.6448
123.764
4.25508
1.89687
30.6252
3.70702
38.0217
52.7835
103.153
53.0928
0.847961
1.28884
56.3176
16.5493
144.094
101.094
178.068
5.55598
1.05126
47.9321
140.887
0.656571
0.443715
11.9508
1.14919
4.63266
8.32419
6.88475
16.8697
5.11409
20.5243
29.4962
2.783
160.552
34.8167
129.522
12.329
33.762
10.1598
5.77156
17.5312
10.5174
76.3752
85.0086
39.4752
2.01947
9.80658
49.1159
0.481124
0.173458
180.219
64.5764
3.843
8.66434
1.0519
8.39735
21.1413
62.6381
4.41483
11.4473
1.73124
74.1118
0.523847
20.9592
0.636326
6.24991
0.376228
4.42838
117.767
44.1457
1.26618
108.4
1.16101
5.05983
61.433
3.6596
51.4216
8.98655
15.4743
37.7159
7.53261
9.90173
1.63939
43.9691
14.8446
4.27008
36.3022
81.8183
33.5164
48.0909
10.306
3.75042
11.8715
51.2966
0.28667
13.4634
46.948
7.27735
13.9624
172.612
10.3415
147.919
8.30718
0.470026
0.299732
0.492941
20.5398
2.55977
61.0856
119.706
5.25537
29.2083
5.92814
6.9425
7.70085
4.9255
5.42872
5.59045
17.313
14.7769
0.350507
0.400342
0.525641
138.35
7.49526
5.73744
4.55426
163.843
58.0055
84.6687
41.0265
6.37011
59.4768
2.48946
8.21829
45.3002
85.5028
13.8508
11.0106
1.31412
6.34177
10.0364
112.23
3.12366
5.47753
13.4028
12.9454
0.7097
13.5684
0.341228
3.48994
8.55688
79.7631
20.3896
6.14946
81.4526
23.4682
8.19977
2.24086
31.5136
2.58241
5.30837
32.9099
12.4875
10.2555
33.5314
0.305968
0.502513
47.817
4.84776
6.31575
1.6644
83.9042
31.1904
37.1645
1.04088
40.545
1.30723
46.5964
35.1004
27.8132
31.8619
34.8125
3.98236
0.771551
1.85371
5.12406
35.7391
0.147519
6.38286
0.160154
3.47534
3.12042
17.1829
8.84095
1.15953
7.01306
5.89355
0.600649
4.87402
0.609082
0.542383
171.524
37.8554
16.6588
0.291832
0.531821
16.2339
0.253049
0.603701
18.4015
0.785815
0.389296
12.7735
1.00524
47.9058
7.97595
0.819143
28.9803
4.45852
5.50925
31.0028
9.391
6.01463
9.34307
42.7195
37.0555
1.39105
6.88045
102.625
53.6087
45.6138
14.577
10.2984
0.152797
0.146166
39.2764
89.7455
27.0165
4.34882
32.3281
7.21882
5.45084
28.7585
37.4548
4.12561
6.08845
100.289
0.141242
8.43974
84.1878
35.2239
6.31051
34.6888
16.0855
86.0944
43.7645
20.8762
18.0141
2.03703
2.88564
3.37872
6.06924
18.0323
6.4081
7.73877
18.6912
107.274
18.9441
32.4822
1.81457
3.83774
13.1978
47.0423
53.1362
102.978
4.85542
143.782
13.289
9.2727
39.885
0.430249
1.75155
1.67946
61.4012
40.703
29.4245
46.4138
22.1467
37.1146
2.96039
4.83467
0.277995
6.18388
3.99564
668.786
183.16
4.54454
76.272
31.6627
5.45689
0.312924
24.2282
0.644766
0.341013
0.314527
6.64288
35.2901
50.8926
5.15494
32.8329
1.31135
4.63513
0.507059
4.83697
31.1092
11.7495
398.456
15.1683
11.0457
0.151404
3.32324
87.5637
75.4398
3.75399
4.90952
3.561
12.4429
5.66232
5.02097
11.4184
30.0906
0.602022
19.3927
0.408351
21.7361
29.4637
5.47987
4.9663
12.1888
122.437
33.8367
75.3037
57.4006
0.724298
16.9217
1.44222
6.18462
0.546464
5.24949
5.00197
38.4704
48.3861
1.83131
1.15117
6.11816
92.4519
2.45904
6.11143
12.6217
16.5406
96.4169
98.0065
0.262864
18.5083
0.543597
4.98346
10.0231
6.23998
50.8756
4.50506
24.4077
63.9077
2.8824
53.1734
4.47501
49.7948
44.7365
8.42896
0.91465
0.836569
36.0675
0.324714
1.48009
7.79687
24.7577
20.7751
11.2967
50.4811
7.71871
91.4898
9.64634
16.2807
46.0615
1.4306
46.4281
40.7074
0.314031
0.189668
1.05232
5.12001
16.6199
35.2393
77.4824
7.06781
6.75685
162.597
6.76093
5.49004
91.1147
58.6872
5.98359
13.7805
6.7827
50.8095
1.18749
2.40454
15.1224
0.40755
6.87595
10.292
65.4522
5.62294
7.10256
0.593035
0.714297
44.9559
24.1362
6.41525
4.73681
69.3216
39.0901
13.4813
10.3426
19.8794
0.791039
11.9316
21.8708
11.9461
207.099
0.401614
4.80895
94.1633
71.7328
3.06267
30.5284
28.1025
8.99343
16.4946
49.7151
9.07237
47.5822
76.6005
11.2752
17.628
6.58739
5.24332
87.8747
43.7213
165.455
13.9343
41.4159
1.40413
28.5192
10.2745
20.6913
35.6473
3.14663
7.89874
7.93462
0.184093
0.21592
3.95255
0.56272
9.67448
16.0808
28.1726
33.0914
48.9949
5.81996
48.4796
91.7294
108.065
1.81032
0.855204
20.6182
0.749855
35.755
19.4174
1.91792
4.20697
4.58454
190.144
11.6907
4.01733
3.86655
5.35477
77.5459
0.186697
5.80584
3.27668
0.279214
62.0611
34.8035
5.31226
2.47563
51.9955
72.84
25.4048
0.939724
10.1191
1.1595
0.853495
0.44494
0.319834
1.88137
5.15131
2.92544
0.206213
37.5064
4.40493
0.262355
6.68223
0.796461
69.4564
3.99239
176.951
4.48771
0.418922
5.56567
59.2203
7.92431
98.5539
30.5308
29.6558
11.6164
4.84678
5.78594
16.5333
5.95289
2.43979
5.79419
0.150742
27.4577
10.3657
24.978
9.94941
6.44983
6.47101
74.1207
20.1063
581.415
13.375
1.91146
0.587697
0.897814
5.91585
0.886922
7.62488
25.374
2.01265
17.3417
1.95195
0.976899
5.35903
6.36852
5.53867
27.164
3.59767
10.7766
3.46913
4.90705
1.22025
5.37761
62.6777
5.79005
13.1078
6.01288
81.7116
145.701
58.0047
5.07234
9.41872
0.527163
6.69441
0.17151
16.0963
7.56283
109.858
0.609194
103.2
256.899
1.31554
1.29973
5.99862
31.2552
43.7217
1.01226
2.8075
17.8611
34.6514
0.22126
34.0589
41.1596
6.88639
0.360783
1.05367
95.4711
3.74529
15.9245
34.7781
5.26223
70.9956
18.1399
0.326859
14.8509
1.33165
183.549
4.51112
86.6256
463.489
6.72776
144.936
0.522992
157.357
15.7575
4.21576
8.36667
78.882
0.751721
0.772476