/*--------------------------------*- C++ -*----------------------------------*\
| =========                 |                                                 |
| \\      /  F ield         | OpenFOAM: The Open Source CFD Toolbox           |
|  \\    /   O peration     | Version:  v1912                                 |
|   \\  /    A nd           | Website:  www.openfoam.com                      |
|    \\/     M anipulation  |                                                 |
\*---------------------------------------------------------------------------*/
FoamFile
{
    version     2.0;
    format      ascii;
    class       surfaceScalarField;
    location    "0.26";
    object      phi;
}
// * * * * * * * * * * * * * * * * * * * * * * * * * * * * * * * * * * * * * //

dimensions      [0 3 -1 0 0 0 0];
oriented        oriented;


internalField   nonuniform List<scalar> 
11117
(
-0.00011976
1.35376e-05
5.63764e-05
4.98457e-05
1.24753e-05
0.000205879
-6.16304e-06
-0.000212191
-9.32908e-05
0.000119955
1.92427e-05
-4.59066e-05
-6.52329e-05
-0.000117621
0.000150838
3.20167e-05
6.72299e-05
0.000352635
-0.000328497
-9.13682e-05
-1.3704e-05
-5.91777e-06
-0.00026151
0.000281132
0.000240469
0.000117638
-0.000322454
-3.56539e-05
0.00114268
0.000243068
-0.00107557
-0.00031018
0.00123153
0.000250098
-0.000752598
-0.000729033
0.000209
-0.000189427
-3.58286e-06
-1.59901e-05
-0.000864524
0.000952621
0.000290322
-0.000378418
-0.000419868
-0.000154606
0.00029143
0.000283044
-4.63606e-05
-0.000174444
4.01279e-05
0.000180677
0.00057359
-0.000237751
-1.48294e-05
-0.00032101
0.000376718
-0.000253067
0.000139701
-0.000263351
-6.2034e-05
4.83117e-05
-5.84319e-05
7.21542e-05
-9.22277e-05
0.00023146
-4.45783e-05
-9.46545e-05
-0.000111464
0.000138739
1.63533e-05
-4.36286e-05
0.000208989
0.000662587
-0.000494858
-2.78627e-05
1.55597e-05
0.000180391
-0.000168088
-0.000313409
0.00016726
5.03005e-05
9.58486e-05
-3.43576e-05
2.64197e-05
0.000241844
-0.000233906
0.000309741
0.000272158
-0.000176016
-0.000405883
0.000145446
0.000157836
-8.52575e-05
-0.000218024
-0.000707992
-0.000657846
0.00080326
0.000562577
0.000917985
-0.000949643
0.000276111
-0.000244453
0.000253688
-0.000342534
0.000865056
-0.00077621
-0.000607696
0.000491903
-0.000613574
0.000729367
5.04761e-05
4.85915e-05
0.00108812
-0.00118719
-3.32715e-05
2.62088e-05
-2.98275e-05
3.68902e-05
2.71637e-05
0.000534099
-0.000285437
-0.000275826
-2.18943e-05
-0.000205124
0.000149254
7.77644e-05
-0.000116399
-0.000617338
0.000432319
0.000301418
-0.000116083
0.000191876
-9.40495e-05
1.82562e-05
-1.34478e-05
-0.000202074
-5.64371e-05
0.000271959
0.00021282
4.04855e-06
-4.80643e-05
-0.000168804
0.000595357
-0.000829172
0.00100954
-0.000775721
0.000140318
-0.000209748
-4.98473e-05
0.000119278
0.000101693
2.28217e-05
-0.000245545
0.00012103
0.000111854
0.000214476
-0.000261104
-6.52259e-05
-0.000618723
6.24138e-06
6.67986e-05
0.000545683
-0.000127638
2.67557e-05
-1.54943e-05
0.000116377
0.00103328
0.000907503
-0.000912252
-0.00102853
-0.000289802
4.60013e-05
-3.80665e-05
0.000281867
0.000437696
8.43905e-05
-0.000313098
-0.00126621
0.00100243
-0.000338923
0.000602699
-0.00075165
0.000639253
-0.000219414
0.000331811
0.000729781
-0.000747451
0.000349665
-0.000331995
-0.000127818
0.000100614
-1.72114e-05
4.44158e-05
-5.35524e-05
4.86724e-05
4.88006e-06
5.82663e-06
5.72754e-05
-6.3102e-05
-0.000490023
-0.00132616
0.000619058
0.00119713
-0.000180981
0.000228923
-6.66769e-05
1.87348e-05
0.000430053
-0.00039286
0.000125673
-0.000162866
1.13835e-05
-1.13835e-05
0.000570539
0.000276204
-0.000775778
-7.0965e-05
0.000401272
0.000100845
-0.000484624
-1.74927e-05
-0.000292963
-0.000196039
0.000428052
6.09505e-05
0.000897595
0.000115633
-0.00138701
0.000373778
-0.000374609
0.000769785
0.00052281
0.000868774
-0.000879463
3.33565e-05
-2.26678e-05
0.000252666
-0.000131749
-0.000119538
-1.37801e-06
-9.2753e-05
-0.000198343
0.00031826
1.85582e-05
2.50685e-05
-6.5521e-05
0.000217589
7.53879e-06
-0.000341527
-8.45746e-06
-0.000225638
0.000184867
4.92288e-05
7.78215e-05
-9.3905e-06
1.58785e-05
-8.43095e-05
4.52055e-05
-6.63981e-05
2.11927e-05
-1.70526e-05
-3.671e-05
2.00397e-05
3.37229e-05
9.19369e-06
8.52744e-05
-2.39146e-06
-9.20766e-05
0.000628661
-0.000266805
-0.00085188
-5.0911e-05
8.19805e-05
4.67521e-05
-0.000275789
-0.00132416
0.00135824
0.000241703
0.000149301
-0.000323531
0.000190513
-1.62825e-05
-1.91167e-05
-0.0001094
-0.000565072
0.000364934
0.000869546
-0.000669408
-1.39699e-06
8.682e-06
-7.28501e-06
-0.000919693
-0.000161121
0.000131171
-0.00028422
1.06493e-05
-1.62311e-05
-4.05806e-05
-3.26568e-06
4.38463e-05
-1.21244e-05
6.49553e-05
-1.14435e-05
-4.13873e-05
0.000129307
5.31289e-05
-2.96106e-06
-0.000179475
-0.000414902
0.000345508
0.00020956
-0.000140166
-0.00010555
-0.000104156
0.000204044
5.66189e-06
-0.000137044
1.58598e-05
0.000166759
-4.55742e-05
6.86119e-05
-0.000310554
0.000241942
-2.67091e-05
-0.000487597
0.000514306
1.63656e-05
-0.000475398
0.000459033
0.000107091
5.6628e-06
0.000121047
-0.000233801
2.62474e-06
4.37995e-05
0.000192048
-0.000238472
0.000528888
-0.000154505
7.95218e-05
-0.000453905
0.000459502
4.83733e-05
-7.70849e-05
-0.000430791
0.000816668
-4.66322e-05
5.23995e-05
-0.000822435
-0.000780073
3.95011e-05
-3.11572e-05
0.000771729
-0.000415841
3.62379e-05
-5.54867e-06
0.000385152
-2.4236e-06
0.000239156
-0.000349062
0.00011233
0.000585226
3.07905e-05
-2.98523e-05
-0.000586164
0.000769581
7.62733e-05
-5.05486e-05
-0.000795306
0.000477919
9.07256e-06
-2.66293e-06
-0.000484328
0.000843976
4.96357e-05
-2.48384e-05
0.000383401
6.96546e-05
-0.000407388
-4.56678e-05
-5.01392e-05
4.31405e-05
3.43771e-06
3.56104e-06
0.000316824
-0.000388584
-0.00119845
0.00127021
0.000579117
-1.36892e-05
-0.000766759
0.000201332
-0.000103605
0.000458938
-0.000345353
-9.97941e-06
-0.000987956
-0.000166492
0.00081761
0.000336839
5.37729e-05
-7.90158e-05
0.000200284
-0.000175041
6.51723e-05
-4.75762e-05
9.90733e-05
-0.000116669
-0.000225629
3.06254e-05
6.02163e-05
0.000134788
-0.000265765
7.18085e-06
-2.56358e-05
-0.000103269
7.23606e-05
0.000111914
-8.10056e-05
0.000355325
-0.000317999
-0.00021431
0.000176984
-0.000408133
0.000334727
-0.000168151
0.000241558
3.88373e-05
-2.34776e-05
4.33666e-05
-5.87262e-05
7.5929e-05
0.000339858
-0.000402595
-1.31916e-05
0.00014395
0.000729286
-0.000825731
-4.75043e-05
-0.000135307
-0.000178236
0.000238658
7.48845e-05
-0.000116454
6.27135e-05
0.00034194
-0.000288199
2.75675e-05
-1.54129e-05
-0.000891617
-0.00103687
8.53219e-05
0.000956957
-5.4112e-06
0.000736643
-0.000467581
-0.000385517
0.000302634
-0.000256349
-4.62847e-05
1.10384e-06
-3.12351e-05
2.03572e-05
9.77413e-06
-0.000536515
-0.000636254
0.000126727
2.8811e-05
-4.33775e-05
-0.000112161
-0.000374736
0.000432656
0.000635491
-0.000693412
-0.00034585
0.000207313
-0.000152025
0.000290563
1.31294e-05
0.000223739
-0.000209835
-2.70338e-05
0.000664034
-0.00110346
-0.000108719
0.000548144
9.18972e-05
8.4897e-07
2.96645e-08
-9.27758e-05
0.000231012
-0.000175694
-0.000155614
0.000100297
-0.000200428
0.000428999
-4.47525e-05
-0.000183818
0.000172034
-0.000208969
-5.3735e-05
9.06704e-05
-0.000863889
0.000107152
-0.000162956
-0.000663193
0.000769885
-0.00069532
0.000588628
6.55248e-06
-0.000103568
-0.000156052
-0.000472817
4.74396e-05
7.99188e-06
0.000417386
8.04634e-05
0.00020584
-3.36377e-05
1.30855e-05
-1.29146e-05
-2.03104e-05
2.01394e-05
8.84036e-05
-6.85021e-05
-8.36094e-05
6.37078e-05
0.000317604
-0.000354367
-6.92537e-05
0.000106016
-0.000175132
-0.00032396
0.000395698
0.000103394
-0.000118882
4.4802e-05
0.000156953
-8.28732e-05
0.000338265
-0.000283164
-0.000150102
9.50013e-05
4.56195e-05
-2.17412e-05
1.02513e-07
-2.39808e-05
-8.93053e-06
0.000269131
-0.000132905
-0.000127296
3.71483e-05
-2.93159e-05
-6.72857e-06
-0.000458432
0.00103196
-0.000593896
2.03635e-05
4.91717e-05
0.000418058
-4.84253e-05
-0.000418805
-0.000214394
0.000152352
0.000169584
-0.000107543
0.000953614
0.000463936
-0.00063194
-0.000785611
-4.34398e-05
3.44485e-05
-0.000164677
0.000173668
-0.000488417
0.000289456
-0.000788995
0.000162748
-0.000194582
-9.84165e-05
0.00013025
-0.000486874
-0.00038393
0.000568928
0.000301876
0.000694411
-0.000196136
-0.000498275
-3.85642e-06
-0.000164163
0.00012513
3.90327e-05
0.00118084
-0.000314555
-0.000866287
3.27378e-06
-0.000335166
0.000182628
0.000152538
0.000124193
-8.30028e-05
-4.11905e-05
-3.09899e-05
0.000106814
-7.5824e-05
-4.80233e-05
-0.000649834
0.000697857
-0.000522641
0.000589421
-6.67792e-05
-0.000548689
0.000525065
2.36237e-05
0.00081022
-3.81178e-05
-0.000772102
-2.30392e-05
-4.13272e-05
6.43665e-05
-3.17102e-05
-7.15587e-05
0.000204905
0.00015042
2.86216e-05
-5.22983e-05
2.36767e-05
0.000240623
0.000201821
-0.000442444
-0.000141801
0.000189974
-4.81732e-05
-0.000414078
0.000431746
-1.76681e-05
0.00027449
-0.000258624
-1.58654e-05
-0.000303337
0.000301837
1.49998e-06
-0.000419619
0.000273501
0.000146118
0.00082902
-0.001161
0.000331984
-0.000114151
6.97447e-05
4.44065e-05
0.000986324
-0.00103882
5.24958e-05
6.99531e-05
4.51489e-06
-7.4468e-05
-0.000124969
0.000154338
-2.93688e-05
0.000344529
-0.000431677
8.71482e-05
-0.000484248
0.000511641
-2.73928e-05
-0.000387009
0.000365552
2.14575e-05
-0.000118021
0.000141463
-2.34418e-05
-7.93932e-05
2.9254e-05
-0.000193881
6.31414e-05
0.000130739
-0.000200582
0.000156645
4.39372e-05
3.00404e-06
4.01364e-05
-0.000213651
-0.000650874
-0.000176856
-2.82687e-05
-0.000533955
-8.33834e-05
0.00048935
4.47492e-05
-0.000100922
-9.9506e-05
0.000293979
-6.29671e-05
-0.000946413
9.16865e-05
0.000854726
-0.0001101
6.17519e-05
4.8348e-05
0.000479664
0.000182923
-0.00111611
0.00143294
-6.02877e-05
0.000157722
-9.74348e-05
-0.00104393
-0.000282234
0.000378215
0.000351566
0.000168613
-0.000349592
0.000180978
-0.000615774
-0.000135876
-0.00104794
-0.000218265
9.10075e-05
-0.000149131
5.81237e-05
5.32648e-05
3.79147e-05
-2.94039e-05
-6.17756e-05
-0.000105723
5.84407e-05
0.000601844
-0.000554562
-0.00081021
0.00090361
0.00047711
-0.000570511
-0.000107359
2.64878e-05
0.000278712
-0.000197841
-0.00118453
0.00114111
-5.32923e-05
9.67126e-05
0.000491241
-0.000386063
-0.000153202
-7.80081e-05
0.000107888
9.43131e-05
-4.05191e-05
2.12302e-05
-8.99144e-05
0.000109203
-0.000542313
0.000775777
0.000837948
-0.00107141
-7.12051e-06
-2.2188e-05
-0.000145296
0.000174605
-0.000285354
0.000307446
0.000149942
-0.000226641
6.56626e-05
0.00060912
-0.000448142
0.000863808
-0.00077627
-0.000216849
0.000129311
-0.00139893
-3.59386e-05
0.000250335
0.000170529
-0.000196015
0.000164049
-0.000138563
0.000157199
4.20332e-05
-3.46486e-05
-0.000164583
0.000882013
-0.000193639
-0.000120274
-0.0005681
-0.000406419
-0.000285919
5.20456e-05
0.000640292
-8.82468e-05
5.67211e-05
0.00125762
-0.0012261
-5.02003e-05
-4.83935e-06
5.50396e-05
4.04354e-05
6.89526e-05
-5.16522e-05
-5.77359e-05
0.000397248
-8.07517e-08
-3.79719e-07
-0.000396788
0.000170012
-0.000109917
-0.000175233
0.000115139
8.03029e-05
-6.3803e-05
0.000155833
-0.000172333
0.000112787
-0.000169361
6.25447e-05
-5.97127e-06
1.67901e-05
-2.42809e-05
-0.000232035
0.000239526
8.17129e-05
2.86009e-05
-0.000226047
0.000115734
7.31198e-05
-8.52093e-05
2.42593e-06
9.66364e-06
2.10459e-05
2.47402e-05
-0.000954595
0.000908809
-7.41452e-05
2.29604e-05
-0.000755881
0.000807066
0.000912897
-0.000917795
6.88016e-05
-6.39034e-05
0.000101359
-0.00020249
-0.000172185
0.000273317
1.07669e-05
-0.000295451
6.7281e-06
0.000277956
-0.000239854
-2.15156e-05
0.000166386
9.49836e-05
0.000128618
-0.000118326
5.88484e-05
-6.91403e-05
3.86472e-05
0.00055779
-0.000299721
-0.000296716
-7.70404e-05
0.000164878
7.49099e-05
0.000172814
-0.000201143
-4.8712e-05
1.82442e-05
-8.78023e-05
0.000141919
-0.000114902
0.000129952
-0.000224809
0.000209759
0.000435878
-0.000423418
3.67109e-05
6.08684e-05
-0.000541825
0.000480957
7.19748e-05
-0.000514352
0.000442377
1.45343e-05
-0.000365432
0.000350897
0.000152541
-0.000159619
-1.37859e-06
-0.000351207
-1.47019e-05
5.98947e-05
-6.78066e-05
2.26138e-05
-3.21588e-05
4.09453e-05
-0.000984479
0.000975693
-0.000184179
-0.000451872
0.000502425
0.000133627
0.00108074
-0.000462225
-0.00082731
0.000208799
-0.000664808
0.00118442
-0.000881064
0.000361453
5.5898e-05
-8.68737e-05
8.42406e-05
0.00019858
0.000155643
-0.000227496
-0.000681759
-8.23912e-05
0.000334274
0.000429876
-0.000160098
0.000577094
7.42452e-05
2.18946e-05
-7.67268e-05
-2.3176e-05
2.12547e-05
8.65176e-05
-6.2397e-05
-4.53753e-05
-0.000321569
0.000304346
1.72228e-05
-0.000312155
0.000237537
7.46176e-05
0.000404425
-0.000306243
-0.000312575
0.000117175
-0.000413879
0.000362248
-6.55436e-05
-0.000349604
0.000213019
-0.000756098
6.31165e-05
-0.000140403
0.000833384
-0.000461499
3.39536e-05
-7.47222e-05
0.000502268
0.000191663
-0.000144253
0.00040514
-0.00045255
-0.000429283
-0.000469141
0.000594836
0.000303588
-0.000452018
0.000639562
0.000431514
2.99663e-05
-0.00108119
0.00110769
-5.64653e-05
7.19941e-05
0.000276547
-0.00017853
-5.60139e-05
0.00042559
6.04768e-05
-0.000357632
-6.90447e-05
0.000362434
6.42424e-05
-8.31257e-05
0.000119611
-3.80293e-06
-3.26824e-05
5.33023e-05
9.57099e-05
-9.3306e-05
-5.57062e-05
-0.000144002
-6.8338e-05
0.00010224
-0.000270368
-5.61091e-05
0.000229532
9.69454e-05
4.87056e-05
-3.82792e-05
-0.00062915
-5.60662e-05
6.93865e-06
-7.85106e-05
-0.000230144
0.000144104
0.000197894
-0.000590375
1.86087e-05
0.000589179
-1.74125e-05
-0.000564767
-2.87485e-05
0.000567381
2.6134e-05
1.66067e-05
0.000756289
-0.000731942
-4.09546e-05
-5.54161e-05
0.000649152
-0.000633191
3.94548e-05
-0.000735056
0.000718421
-0.000646558
6.33974e-05
-9.15796e-05
8.34369e-05
-5.52546e-05
-0.00039869
0.000210615
8.24027e-05
0.000105672
-0.000137778
8.63745e-05
4.9162e-05
2.24197e-06
0.000400854
-0.000342225
-2.08119e-06
-5.65481e-05
-0.000989016
9.21663e-05
0.000977264
-8.04145e-05
-0.000134174
0.000638151
-0.000691167
0.00018719
0.000441807
-0.000198509
-0.000505804
0.000262506
0.000169516
-0.000190806
-4.18291e-05
6.31191e-05
-0.000166893
0.000107962
0.000324919
-0.000265988
2.64486e-05
8.92443e-05
1.0387e-05
-0.00012608
6.91713e-05
-0.000126276
0.000186412
-0.000569929
0.000545196
2.14767e-05
5.83956e-05
-9.19968e-05
0.000203609
-0.000165838
8.75853e-07
-0.000154456
-0.000152857
0.000187466
0.000119848
4.63661e-05
-1.91149e-05
0.000352156
-0.000379407
-6.17783e-05
-2.65373e-06
-1.86937e-05
6.74445e-05
-7.40428e-05
-3.01117e-05
0.000984826
-0.000560082
0.000581821
-0.000348908
-0.000233962
0.000261462
4.68184e-05
-1.77712e-05
4.4105e-05
-7.31522e-05
0.000327911
-0.00063525
-0.00050287
3.59304e-05
5.08436e-05
-4.79367e-05
-0.000426826
0.000472473
0.00101143
-0.00105708
0.000851514
-0.00017068
-4.9405e-05
-0.000631429
4.97428e-05
-2.8776e-05
4.42054e-05
-0.000601959
0.000206607
0.000887255
-0.000244601
7.283e-05
-5.38584e-05
0.000175344
-0.00078362
0.000658752
0.00025498
-0.000648802
0.000751441
-0.000357618
-7.97612e-06
-0.000111416
0.000204358
-8.49653e-05
-0.000182333
0.000168678
7.63684e-05
5.14016e-05
0.000433886
5.48533e-05
-6.92813e-05
2.01442e-05
-5.7162e-06
8.31507e-05
-0.000196761
0.000136432
-8.75808e-06
1.41848e-05
0.000259385
-0.000264812
-0.00012589
-0.000147283
0.000827433
0.000125189
-5.76027e-05
-8.28304e-05
-0.000154571
-0.000130866
0.000238438
6.98609e-05
8.41784e-06
-0.000125491
0.000165926
-6.27001e-05
2.88265e-05
1.85058e-05
4.46357e-05
3.12952e-05
0.000121028
0.000192714
6.40423e-06
-0.000347625
4.47884e-05
0.000299741
-4.0216e-05
-0.000444032
-2.71582e-05
-9.78105e-05
-0.000604375
5.56862e-05
-4.25469e-05
-0.000167201
5.23113e-05
-0.000297856
5.54029e-05
-6.43335e-05
-2.2314e-05
-2.25181e-05
5.76731e-05
-1.36127e-05
0.000155075
0.000349799
0.000129865
0.000415238
0.000781887
0.000180182
0.000196268
5.18391e-05
-3.68361e-05
2.29117e-05
-3.36883e-05
-7.35829e-05
5.74239e-05
0.000575864
-0.000609894
2.68034e-05
7.22642e-06
0.000118601
0.00014196
-0.000142923
2.18214e-05
0.000907054
-0.000685807
-0.000198436
0.000366813
5.76488e-05
-0.000226026
0.000392352
0.000610081
0.000200905
0.000438348
-0.00019315
-0.000554301
-8.959e-05
0.000125574
-0.000139606
0.000103622
-0.000112918
2.09319e-05
9.81901e-05
-6.20427e-06
-0.000522743
-0.000100396
0.000424703
4.18405e-05
2.23404e-05
-2.36471e-05
-4.05338e-05
1.25288e-06
-4.06049e-05
-4.8342e-06
4.41862e-05
0.000460873
-0.000116054
0.000230348
-0.000539116
0.000879307
6.64854e-05
-0.000420855
0.000755642
-0.000292638
0.000493351
-0.000493676
-1.38245e-05
7.5865e-05
-6.9907e-05
7.86653e-06
-8.71126e-05
1.05607e-05
1.13771e-05
6.51748e-05
-9.98255e-05
-6.47283e-05
7.49638e-05
-0.000624163
0.00102866
-0.000734853
0.000330357
3.43065e-06
0.000254907
-4.55175e-05
-0.000145403
1.91275e-05
0.000112828
9.14022e-05
-5.76681e-05
-0.000149817
-0.00116958
0.00106396
0.00015421
-0.000400283
-5.21245e-05
0.000218991
0.000233417
0.000319586
3.11469e-05
-0.000260634
-9.00995e-05
-9.70752e-05
0.000907295
-2.4224e-05
1.18479e-06
0.000341698
-0.000187037
2.03555e-06
-5.75018e-07
9.64488e-05
-9.79094e-05
0.000135356
-0.000141324
4.91323e-05
-4.31644e-05
-6.14983e-05
-0.000301291
0.00029128
-0.000244866
8.43521e-05
0.0002485
-8.79863e-05
-0.000175255
0.000175088
0.000182795
0.000271442
0.000148612
-0.00107913
0.00127972
9.6251e-05
-0.0012409
-0.00013507
0.000130158
-0.000174986
-0.000143013
-0.000715859
0.000188619
0.000639525
-0.000112284
0.000168542
0.00015508
-0.000119051
-0.000204571
0.000117648
-0.000332503
0.00018718
2.76752e-05
9.72953e-05
-0.000205805
0.000107863
6.47043e-07
-0.000195122
0.000690624
4.18948e-05
-0.000537397
-0.000295686
0.000963317
2.75208e-05
-0.000695152
0.000511934
3.48211e-05
3.81115e-05
-0.000584866
-5.81e-05
7.69458e-06
7.58696e-05
-2.54641e-05
8.49271e-05
0.000155695
3.44774e-05
-4.41704e-05
2.97326e-05
0.000533703
0.000121054
0.000525041
6.2025e-05
0.000430428
0.000177811
0.000663746
5.67774e-06
-7.62122e-05
2.52296e-06
6.80115e-05
0.000186987
-0.000198604
0.00013719
0.00038855
-0.00038512
0.000211548
-0.000356952
-0.000174084
0.000265486
-6.0539e-06
4.97213e-05
-6.7145e-05
-1.83581e-05
-0.000214541
0.000242843
-9.94342e-06
-8.9488e-05
-0.00023192
0.000295081
2.63266e-05
7.10494e-05
0.000941553
-0.000762505
0.00096671
6.55796e-05
-0.00101469
-1.76049e-05
-0.00025449
0.000361496
0.000297419
0.000136469
-0.000265953
-7.25351e-05
0.000202019
0.000505716
-0.000199021
0.00025209
-0.000188377
9.42813e-05
0.000164757
-6.37662e-06
0.000147673
-0.000124938
-0.000953351
0.0009257
-0.000399176
4.19896e-05
-0.000105741
1.29518e-05
-0.000352745
-1.51118e-06
0.000341304
-8.96122e-05
0.000818485
1.89521e-05
-0.000747825
-5.9968e-05
0.000397939
1.3824e-05
-0.000351795
1.07202e-05
-1.21559e-05
-3.5498e-05
3.69336e-05
0.000194941
-0.000265014
0.000231677
-0.000161604
-6.808e-07
-9.32258e-05
0.000140656
-4.67492e-05
-4.50825e-05
-8.04085e-05
-0.000187762
0.000230046
-8.50438e-05
4.27605e-05
-0.000263337
-5.91945e-05
0.00019617
0.000126362
-0.000149227
0.00019491
-9.97991e-05
5.4116e-05
0.000757145
3.21737e-05
-3.40493e-05
-0.00075527
5.41135e-06
7.54738e-05
-5.96305e-05
0.000487281
-2.14949e-05
2.48748e-05
-0.000490661
0.000249778
-0.000248867
-0.000121613
0.000120701
-0.000557148
1.52408e-05
-7.41887e-05
0.000616096
-0.000624321
-0.000119977
3.87663e-05
0.000705532
-9.88993e-05
2.76544e-06
0.000148702
-5.25682e-05
-0.000219325
8.63061e-05
0.000210905
-7.78857e-05
-0.000148697
3.35449e-05
0.000107317
7.83528e-06
-3.52789e-05
8.23763e-05
-0.0001349
0.000809493
6.8391e-05
-3.39072e-05
9.59546e-05
-3.20548e-06
-8.51998e-07
-0.001215
-0.000149621
0.0011894
0.000175224
0.000260043
0.000415132
-0.000332354
-0.000342821
8.07884e-05
-4.10669e-05
-1.05984e-05
-2.91232e-05
6.02821e-05
-9.45345e-05
0.000247842
-0.00021359
5.34071e-05
-4.79958e-05
-9.85016e-05
5.63492e-05
-0.000668595
0.000710747
0.000132298
-0.00011447
3.23888e-05
-5.02163e-05
-0.000439084
0.000424388
2.88829e-05
-1.41865e-05
-8.43253e-06
-0.000187249
0.000327497
-0.000131815
0.00016082
-0.000108318
-5.68426e-06
0.000979521
-0.000853279
0.000143994
-0.000270236
-0.000535347
-0.000423467
0.00034524
-0.000195193
-0.000151958
0.000123219
0.000223933
-0.000220404
-4.16378e-05
4.27162e-05
-0.000287085
0.000183618
-4.52293e-05
-5.31759e-05
-1.45024e-05
-3.1221e-05
0.000457574
-0.000415143
-0.000230624
0.000188194
1.30433e-05
-0.000458373
0.000453244
-7.91436e-06
7.49769e-05
-2.39812e-05
0.000218823
-0.000436623
0.000508121
0.00112791
-1.8874e-05
3.20757e-05
2.7478e-05
-2.57754e-05
0.000276919
-0.000278621
-4.31936e-05
9.85966e-05
0.000113482
-0.000127341
3.53356e-05
0.000129667
-0.000243429
0.000182933
-8.48172e-05
0.000144939
-0.000125354
-0.000183483
-8.36672e-05
0.000444023
4.32567e-05
0.000205035
7.4957e-05
-0.00011145
2.99413e-07
1.65454e-05
5.31411e-05
5.73692e-05
-8.18887e-05
-0.000120792
-5.36655e-05
7.46318e-05
-1.77999e-05
3.47044e-05
-6.20418e-05
4.51373e-05
-0.000853502
-0.000101609
0.000239252
0.000466729
-0.000482643
-4.28074e-05
5.87215e-05
-8.57579e-05
-0.000872987
2.47185e-05
0.000934027
-5.90921e-05
-0.00100306
0.00103099
3.11599e-05
0.000100241
-0.000123614
0.000106524
-0.000227304
-0.000582132
0.000554946
0.000157419
0.000126282
-0.000172537
-0.000111164
0.000113692
1.85145e-05
-8.51639e-05
-4.70427e-05
-0.000827508
-0.000295731
-0.000170171
-3.47064e-05
-2.70788e-05
0.000231956
0.000145352
4.10891e-05
-0.000162422
-2.40197e-05
0.000235393
-6.30162e-05
-8.74466e-06
-4.07504e-05
-1.22833e-05
-7.70247e-05
-0.000115969
0.000105881
9.8795e-05
-8.63413e-05
-2.836e-05
1.59062e-05
2.92606e-05
6.10025e-05
-6.04338e-05
-2.98292e-05
2.347e-05
0.000402794
-8.58829e-06
-0.000417675
0.000109488
0.000768108
-6.4485e-05
-0.00081311
2.49388e-05
5.8526e-05
1.53301e-05
2.7541e-05
-0.00108584
0.00108585
-2.75515e-05
0.000296819
-0.00159172
7.5212e-06
0.00128738
0.000236235
8.62088e-05
-9.39722e-05
-0.000228471
0.000254295
2.8805e-05
-5.82413e-05
-0.000224859
0.000419853
-0.000154298
8.7081e-05
0.000308803
-0.000508199
-0.00053566
2.20184e-05
4.31095e-05
-1.35777e-06
-6.37702e-05
-0.000229701
0.000224311
1.08749e-05
-5.48462e-06
5.96253e-05
-4.51637e-05
-0.000187428
0.000172967
-0.000815729
0.000274519
0.000527494
1.37165e-05
0.000188715
-4.47616e-05
8.10299e-05
-0.000224984
0.000268126
-7.1943e-05
6.94116e-05
-0.000265595
0.000187436
-2.72029e-05
7.73921e-05
-0.000237625
-1.89557e-05
-2.80886e-05
4.70443e-05
0.000318997
-0.00123718
-2.53986e-05
3.68871e-05
9.79508e-05
-0.000109439
-5.92167e-05
-0.000456118
-7.40859e-06
-0.000311158
0.000247758
6.98744e-06
5.64128e-05
0.00103947
-0.00146356
0.000185406
0.000238682
0.00053576
1.17486e-05
1.11e-05
-0.000558609
4.92759e-06
-1.75504e-05
0.000108577
9.0809e-05
9.60269e-05
-0.00102659
0.000839758
-7.34734e-05
-0.000188392
0.000274714
-1.28489e-05
1.08042e-05
0.000173834
-0.00022955
4.49117e-05
-4.49143e-05
-0.000142861
0.0002034
-1.56246e-05
0.000266466
-3.87266e-05
-1.58525e-06
0.000215592
-0.000222764
3.61969e-05
3.7929e-05
-1.92726e-05
0.000845867
-0.000581545
4.26474e-05
-0.000306969
-9.29937e-05
0.000334383
9.68756e-05
-2.70843e-05
4.4059e-05
-2.63363e-05
-0.000262374
3.33626e-05
0.000255347
0.000418202
0.000181945
-0.000409597
-0.00019055
9.97747e-06
-1.79946e-05
-8.43907e-05
9.24079e-05
-0.000221357
0.000158667
-0.000142597
-0.000170526
-1.43668e-05
0.000253785
1.39241e-05
-0.000253343
-0.000150059
-0.000183132
0.000110526
-6.93401e-05
0.00014625
3.18131e-05
-3.58362e-05
0.000272149
3.65436e-05
-2.2301e-05
0.000174473
8.5304e-05
-0.000163392
0.000112561
-3.4473e-05
0.0011853
-0.00118363
-0.000277466
1.98696e-05
-0.000658809
0.000206623
0.000569361
0.000227181
-0.000210623
-5.9998e-05
0.000151909
-0.000307914
0.000422471
0.000189641
0.000140891
-0.000181231
1.03382e-05
-3.83382e-05
-8.487e-05
0.00011287
3.21491e-05
5.14259e-05
-6.21537e-05
-2.14213e-05
0.000191071
-0.000217407
6.12267e-05
-0.000113107
9.21819e-05
-4.03015e-05
0.000761263
9.03232e-05
-4.20933e-05
0.000133164
0.00015037
-0.000240408
0.000184992
-0.000697347
0.000713954
-0.000258026
0.000123851
-0.00113608
0.00113756
9.27013e-05
-9.41837e-05
8.72404e-05
0.000592655
-0.000244358
-0.000152678
0.00025319
-0.000139741
0.0005675
-7.6987e-05
0.000561795
-0.000834718
-0.000181847
0.00045477
-0.000680576
0.00031637
-6.55145e-05
0.000429721
4.8698e-06
7.82292e-05
-0.000369521
0.000286422
-3.88532e-05
-4.96893e-05
-0.00104205
0.00113059
0.000137476
-0.000492072
0.000809
0.00017
-0.00085264
-0.00012636
5.18747e-05
-6.63219e-05
8.3933e-06
0.000837247
-0.000783459
0.000124022
0.000524472
-0.000571632
0.000109185
0.00052233
-0.0004887
8.7423e-05
5.40201e-05
0.000129575
-3.82432e-05
-0.000260934
-3.8507e-06
0.000250418
0.000135854
-0.00016455
0.000133409
-0.000104713
0.000716643
-0.000602715
-7.92188e-05
-3.47083e-05
0.000593939
-0.000520663
-1.61132e-05
-5.71627e-05
0.000102097
0.00157997
-0.00127564
-0.000406429
-5.2927e-06
4.10136e-06
-6.57428e-05
6.69341e-05
-0.000992946
-0.000637305
0.00105483
0.00057542
2.93226e-06
-1.10108e-05
-1.87489e-05
2.68274e-05
0.000120685
-0.000218068
-9.83303e-05
0.000195713
-2.84888e-05
7.38341e-05
0.000113451
-0.000158796
0.000109904
-4.2419e-05
0.000693778
0.000470854
-0.000743702
0.000348778
0.000673375
-0.000921551
0.000392126
2.24024e-05
9.05639e-05
-6.00497e-06
1.88258e-05
3.92076e-05
-5.20285e-05
0.000557322
-6.3262e-05
0.000144091
-2.35003e-05
1.88027e-05
-7.41918e-06
2.57632e-05
-1.03173e-05
-1.29255e-05
-2.52037e-06
0.000265503
0.000649551
-0.000499921
-0.000312371
-0.000276181
0.000404373
0.000497008
-0.000488436
1.35932e-05
-2.21656e-05
0.000345534
-7.57063e-06
-0.000182883
3.61485e-05
-3.87796e-05
7.14592e-06
0.000206629
3.38371e-05
0.000125086
-4.41522e-05
0.000103547
0.000571315
-0.000693591
0.000122276
-0.000414747
0.000295055
-0.00131028
0.00142998
-1.81939e-05
-7.04011e-05
-3.23726e-05
0.000120968
0.000221853
6.75914e-05
-0.000120194
-0.000169251
-0.000447371
-1.80412e-05
0.000615616
-0.000150204
0.000222634
-0.000197423
-0.000399946
-4.34332e-06
1.62619e-05
3.99205e-05
0.000226629
-0.000170747
0.000165972
2.64668e-05
-0.000242583
-1.3585e-05
-6.94566e-06
5.34634e-05
-2.05814e-05
-2.59363e-05
0.000149959
-7.35145e-05
-6.28452e-05
-1.35995e-05
-6.17791e-06
5.15132e-05
8.32829e-05
6.83758e-06
2.67721e-05
1.61116e-05
0.000117608
-6.37215e-05
8.68152e-05
-0.000140702
-3.6749e-06
-0.000140041
0.000180831
-3.71143e-05
9.40366e-05
-2.64452e-05
0.000164731
-8.72883e-05
0.000158792
0.000108432
-4.4635e-05
0.000190498
-0.000120238
0.000462555
0.000115257
-0.000578498
-0.000416047
0.000732551
0.000261994
0.000822384
-0.00104087
0.000356476
-0.000137986
-9.3871e-06
0.000409211
-0.000398045
-1.77981e-06
-1.60366e-05
0.000641597
-0.000717073
9.15118e-05
0.000185917
-0.000171229
-1.30754e-05
-1.61271e-06
-0.00134813
0.00118804
-0.000258817
0.000418908
0.000391809
-0.000334458
-0.000146986
8.96338e-05
-2.62781e-05
0.000565253
-0.000560305
2.13305e-05
-0.000404373
2.2365e-05
0.000146222
-0.000597268
0.000554814
-0.000103769
0.00015386
-0.000773061
0.000835473
-0.000216272
-0.000102467
-0.000754055
0.000856522
1.42362e-07
-1.88808e-07
4.82248e-06
-4.77605e-06
1.12175e-05
-2.0815e-05
1.03779e-05
-7.80365e-07
-0.000183414
0.000194897
-7.39643e-06
-4.08702e-06
6.87349e-05
0.000185185
-0.000194295
-1.35173e-05
6.25442e-05
-7.44254e-05
-0.00019031
4.70902e-05
0.000101646
4.15735e-05
-6.11766e-05
-6.65963e-05
8.49311e-05
4.28418e-05
-2.53991e-05
-1.25439e-06
0.000389936
-0.000363283
0.00117888
-0.00120205
-8.14622e-05
0.000104635
-4.72904e-05
-8.85248e-05
3.08261e-05
2.26907e-05
-5.35168e-05
0.00041113
4.10045e-05
-0.000351682
-0.000100452
-2.42475e-05
-5.90608e-05
2.82839e-05
5.50244e-05
-8.50602e-05
0.000135632
-0.000465716
-3.99495e-05
7.71888e-06
-2.09453e-05
-4.87831e-05
3.17792e-05
-0.000270081
1.38813e-05
6.77378e-06
-0.000241059
0.000762954
6.98442e-05
-7.65086e-05
0.000664962
2.79977e-05
-4.38071e-05
-0.000578955
2.84757e-05
-3.98958e-05
-0.000503719
-5.90056e-05
-2.04206e-06
-0.00031323
-0.000159609
0.000202471
-0.00104003
-0.000173269
0.000295508
-0.000237454
4.00871e-05
-4.74987e-05
-0.000111192
-0.00121157
0.00123452
-0.00011536
-2.42123e-05
-0.000181996
-0.000133793
5.88587e-05
-0.000237221
0.000597449
-0.000184577
-0.00047284
0.000772758
-0.000199833
-0.000662537
-1.11654e-06
4.35433e-05
-0.000271205
0.000228778
9.66398e-05
0.000500182
-9.98134e-05
0.000245006
-0.000245438
3.17939e-05
-3.13616e-05
1.71033e-05
1.58314e-05
-0.000155577
0.000122643
7.14587e-05
-7.05382e-05
-3.03245e-05
-0.000311629
0.000168929
0.000329687
-3.58018e-05
1.34891e-05
2.32035e-05
-8.90753e-07
0.000247965
-0.000152461
0.00022494
-0.000320444
-0.000378629
-9.6258e-05
7.0514e-05
-0.000349225
0.000220654
0.000303915
-0.000135283
-4.36304e-05
5.81217e-05
0.000112577
-8.70271e-06
1.57364e-05
2.97293e-05
-8.59193e-05
8.53411e-05
-2.91511e-05
4.35448e-05
0.000102153
-4.75583e-05
-9.81399e-05
0.000301178
0.000405386
-0.000638388
-6.81759e-05
0.000223219
-0.000562291
-0.000239426
0.000489421
0.000243859
-0.000600011
-0.000133269
-0.000513769
0.000434463
3.58216e-05
4.34847e-05
0.000123927
0.000161973
-0.00110163
-1.57755e-05
3.41665e-05
-2.27342e-05
0.000161968
-4.32424e-06
-0.000143762
-1.78958e-05
-0.000103292
8.12387e-05
0.000898802
-2.35428e-05
-0.000766189
-0.00010907
4.93671e-05
5.12467e-05
-8.46227e-05
-0.000117868
-2.31198e-05
-4.96881e-06
-0.000106354
0.00113668
0.000154097
1.76146e-06
3.10869e-05
5.24557e-05
-0.000461799
0.000384711
0.000606077
-0.00052899
0.000219979
-0.000245196
0.000322451
-0.000297235
-1.01458e-05
0.000471016
8.98882e-06
-0.000469859
3.99583e-05
-4.20993e-05
-1.35773e-05
1.57182e-05
-0.000241467
6.67561e-05
2.50067e-05
0.000149704
-0.0011386
0.00113847
9.61576e-05
-0.000827833
0.00050469
-0.000723532
0.000655805
-0.000323743
-0.00013305
0.000107569
0.000107763
-3.35657e-05
0.000859871
-0.0010277
-0.000262828
0.00043066
-0.00023175
-0.000987392
0.00118906
3.00852e-05
-0.00116109
0.00117921
-0.000129316
-0.000510719
0.000453395
0.000381339
-0.000324014
-0.000496546
0.000491633
0.00017985
-0.000174937
-0.000100957
-9.46501e-05
7.72809e-05
-0.00052271
0.000680618
-0.000573955
0.000174576
-1.74446e-05
-8.1674e-05
-0.00017371
8.87731e-05
0.000166611
-6.95204e-05
8.43771e-05
-5.76924e-06
1.6657e-06
-0.00023335
-0.000926313
0.000894932
-0.000270107
0.000301488
0.00127028