/*--------------------------------*- C++ -*----------------------------------*\
| =========                 |                                                 |
| \\      /  F ield         | OpenFOAM: The Open Source CFD Toolbox           |
|  \\    /   O peration     | Version:  v1912                                 |
|   \\  /    A nd           | Website:  www.openfoam.com                      |
|    \\/     M anipulation  |                                                 |
\*---------------------------------------------------------------------------*/
FoamFile
{
    version     2.0;
    format      ascii;
    class       volVectorField;
    location    "0.26";
    object      U;
}
// * * * * * * * * * * * * * * * * * * * * * * * * * * * * * * * * * * * * * //

dimensions      [0 1 -1 0 0 0 0];


internalField   nonuniform List<vector> 
5794
(
(-1.00156 -0.326587 -2.65328e-17)
(0.0312376 2.20133 0)
(1.09996 0.043614 -1.53096e-16)
(-0.92293 0.669423 1.53328e-16)
(2.84567 0.660903 3.20378e-17)
(0.0615921 2.9685 -9.75532e-17)
(-1.73083 -0.445882 -1.65878e-16)
(-6.23759 0.113243 0)
(5.6928 1.24914 9.95256e-17)
(-0.950616 0.079678 1.92756e-16)
(4.7196 -0.0570006 4.67368e-19)
(-2.02541 -0.0006114 0)
(-0.814803 -0.623665 5.91421e-16)
(2.21563 2.28856 2.82101e-16)
(2.77665 0.346692 3.71208e-16)
(0.657299 -0.229736 -1.54938e-16)
(1.39454 0.215094 5.64477e-17)
(-0.518941 0.712192 2.65569e-16)
(3.38135 0.0501158 3.36841e-16)
(0.0826067 2.04858 1.28843e-16)
(-2.84513 1.56793 -4.47576e-17)
(0.106199 2.78284 -1.09582e-16)
(2.39673 -0.128512 2.75576e-16)
(1.11578 -0.0178694 -5.65478e-16)
(-6.02388 -0.593671 -2.1987e-16)
(2.75351 10.4463 2.06809e-17)
(6.73564 -0.185595 0)
(-0.499786 5.53169 -1.27542e-16)
(-0.586104 9.98289 -3.42162e-17)
(-0.244818 -0.132635 3.07436e-16)
(2.02281 -0.792184 -5.26015e-16)
(-0.878619 0.107323 -6.21331e-16)
(-2.82112 0.393779 -8.00806e-16)
(-1.01524 -0.587636 3.96919e-16)
(-0.350891 0.768019 -1.56179e-16)
(0.861378 -0.956305 1.8818e-16)
(9.7661 0.52829 -2.12866e-16)
(1.03707 -0.189678 0)
(0.753933 -0.449328 1.62235e-16)
(-0.0134491 2.20399 0)
(-4.09736 -1.95783 -1.01672e-16)
(-0.970917 -0.187048 1.45828e-16)
(7.57701 0.118331 -9.12387e-19)
(0.468009 -3.06615 0)
(2.59303 0.195539 -3.30725e-16)
(6.70662 -0.206893 1.04944e-16)
(3.9876 -0.0187142 -2.52808e-16)
(-4.6347 -0.266623 0)
(-0.667093 0.247842 7.32632e-16)
(0.542025 -0.27227 7.13705e-17)
(-0.0404997 -0.362914 -1.73365e-16)
(7.23717 0.000579063 -1.50992e-16)
(1.77666 -0.261657 0)
(2.59533 2.63261 1.02682e-16)
(-0.0905886 -0.0608048 1.0525e-17)
(7.09564 -0.874224 0)
(4.55287 0.0172248 -1.96796e-16)
(-3.71932 0.549868 1.04677e-16)
(8.53593 0.0677275 0)
(4.13777 9.79044 -7.09487e-19)
(9.30184 0.417127 1.84219e-18)
(0.669465 1.86419 -1.02828e-16)
(1.34872 -1.52598 -1.23852e-16)
(-0.235934 0.186857 2.54679e-16)
(-1.8786 0.680728 0)
(1.81248 0.0952726 -2.33799e-18)
(0.481274 0.261464 -2.80728e-16)
(0.27008 0.358463 0)
(-0.0788588 0.223 -2.931e-16)
(0.0508149 0.990689 -4.42137e-21)
(6.32308 -0.154143 1.13784e-16)
(0.3892 0.745266 -4.09786e-16)
(12.0698 2.1462 -3.79364e-18)
(-2.4199 0.232613 0)
(-0.529297 0.534208 2.71637e-16)
(-0.312728 6.26641 5.71823e-19)
(-0.0338071 -0.0360711 1.52638e-16)
(1.53518 10.2559 -2.13296e-17)
(0.248807 -3.07841 3.53344e-17)
(0.539742 0.00801604 7.09346e-17)
(-0.281308 0.20193 -1.98158e-17)
(0.0228519 1.79839 -1.31105e-16)
(-3.53162 -0.254039 -1.32533e-18)
(0.0762704 -1.01227 -1.02916e-16)
(0.813779 -0.870048 -4.05346e-16)
(-0.20729 3.13024 -5.13328e-17)
(0.23692 5.45275 3.4016e-17)
(0.147371 5.24994 -2.51166e-17)
(1.42827 -0.23531 -1.45507e-16)
(1.7252 0.524579 -4.87245e-17)
(0.937761 5.65498 -8.07349e-17)
(0.303222 4.68484 -1.04359e-16)
(-0.170173 8.46986 1.21977e-16)
(0.126091 8.53039 5.34481e-17)
(0.0798065 4.37587 4.03378e-17)
(-2.30487 0.0682245 4.90648e-18)
(-0.0698758 6.16476 -5.58999e-17)
(-0.358734 8.20821 -1.301e-17)
(0.245383 5.07752 0)
(9.06454 0.46334 -2.97396e-17)
(1.76643 3.22881 -1.20127e-16)
(-0.132481 0.014094 -5.2424e-16)
(8.4675 0.150009 7.02471e-17)
(2.92773 3.51909 -3.34648e-16)
(3.2147 -0.210863 0)
(-3.22116 5.71421 0)
(0.0870867 1.86412 0)
(-1.1352 -0.0906586 -2.50115e-16)
(-1.12884 0.553928 -1.16532e-16)
(0.0683532 -3.06529 -9.73448e-17)
(0.652119 -0.212434 -3.11348e-19)
(-2.12427 -0.487796 0)
(-1.33552 4.70307 1.09219e-16)
(0.373908 -0.376012 1.50517e-16)
(-0.00331739 4.19063 0)
(-0.154221 8.76735 0)
(1.97069 0.548863 -2.89845e-16)
(-0.776857 2.58391 7.81682e-19)
(9.51655 0.373481 -2.32322e-20)
(10.831 0.606243 5.88845e-18)
(-1.83203 4.39143 1.61471e-16)
(2.77772 0.0795827 0)
(-0.135519 -0.153573 0)
(-0.340489 5.96728 -1.50189e-16)
(-1.05825 0.00108553 1.84732e-16)
(4.86801 2.53558 4.86962e-17)
(1.66548 2.13309 0)
(0.0145468 2.63908 6.07983e-17)
(8.13227 -0.239735 9.48954e-17)
(-0.922775 0.0328066 1.50513e-16)
(-1.15723 -0.578104 2.9529e-16)
(1.73811 -0.639617 1.70225e-16)
(1.22276 1.31704 2.43462e-17)
(1.12407 9.87901 -6.56709e-17)
(-3.39711 7.48595 1.31666e-16)
(1.49743 0.647721 0)
(4.85802 -0.178162 8.65248e-17)
(0.832808 1.79886 -1.56155e-16)
(0.198902 -0.103131 2.03682e-16)
(0.0646738 -0.771812 0)
(-2.84019 -0.694313 -3.6694e-16)
(1.94305 2.05815 0)
(-1.08308 -0.436214 0)
(1.32522 2.40708 3.70021e-16)
(0.326742 0.109779 2.21374e-16)
(1.76754 0.0159694 1.81895e-17)
(-0.0719585 0.046676 3.01992e-16)
(8.19173 0.280871 2.21795e-16)
(3.5219 0.469418 -1.96759e-18)
(-0.831181 1.28288 4.48607e-16)
(7.43484 -0.182149 -1.6697e-16)
(1.79283 0.58845 2.44345e-16)
(-3.55974 6.62475 0)
(-1.33234 0.270697 1.88564e-16)
(4.49115 -0.404549 0)
(3.72309 0.105306 0)
(0.536839 -0.184384 -2.91992e-16)
(-0.630002 -0.38688 4.15089e-16)
(6.38948 0.237615 -2.3036e-16)
(0.644133 -0.394888 -1.45642e-16)
(-1.49335 0.419029 3.58648e-16)
(0.320828 0.675669 -3.40841e-16)
(-0.532571 -0.145527 0)
(3.60939 -0.558636 -1.0701e-16)
(-3.22545 0.0166921 -2.73778e-16)
(-3.43316 0.0318187 1.46309e-16)
(5.14936 -0.141956 7.9956e-19)
(-0.415955 -0.184384 -3.85145e-18)
(0.477392 -0.0976894 0)
(-1.95926 -0.188644 7.78436e-19)
(-0.0304953 -0.0829272 0)
(-2.14719 0.51418 -1.05721e-16)
(1.25559 -0.217118 0)
(3.22237 0.00818714 7.01513e-17)
(-1.67426 -0.192359 3.82361e-16)
(1.77549 -0.132882 0)
(2.68022 0.129735 -1.92076e-16)
(-6.2441 -0.389226 -1.47366e-16)
(0.530822 -0.282067 -8.86191e-17)
(6.34753 0.25048 6.44643e-18)
(-0.129767 -0.254071 -5.89767e-18)
(-0.926927 -0.176158 0)
(2.7299 0.185424 0)
(-3.15839 -0.412654 1.08182e-16)
(2.27917 0.156697 0)
(-0.378704 -0.665548 7.23829e-17)
(-0.327663 0.136221 -1.7417e-16)
(-0.721963 0.432189 -9.92541e-17)
(-1.19497 0.0698122 1.17724e-16)
(-0.409353 -0.0950175 3.96061e-16)
(4.59348 -0.0423378 -3.34418e-16)
(-1.09869 -0.0474472 4.37012e-16)
(-3.15736 -0.0167263 5.2805e-16)
(2.75121 -0.368503 5.03269e-16)
(1.19859 -0.167585 -9.06897e-17)
(-1.55707 -0.28917 -4.8093e-16)
(-5.8919 -0.0970924 -1.37407e-17)
(-0.509287 -0.140262 -1.83054e-16)
(3.29053 -0.193952 -2.34197e-16)
(6.58964 -0.0438183 1.17009e-16)
(-0.00512214 -0.591863 -2.01928e-17)
(6.68212 0.145218 0)
(-3.59696 -0.676076 0)
(-1.74433 -0.582987 9.04344e-18)
(3.77855 0.0382471 -6.18987e-17)
(6.36952 0.104528 0)
(-0.863459 -0.139852 1.15993e-17)
(0.169137 -0.579417 2.39288e-19)
(5.88477 0.636662 -6.62748e-18)
(2.48428 7.56787 1.306e-16)
(-0.389457 -2.5369 8.84941e-17)
(9.73058 -0.019128 0)
(2.68824 -1.30512 -7.61321e-17)
(-0.129512 1.03805 1.51891e-16)
(0.598933 -0.476223 0)
(-7.32678 -0.803479 3.35942e-16)
(1.199 -0.384171 -1.76081e-16)
(1.98125 1.77634 1.03149e-16)
(4.17992 -0.0596053 1.24383e-16)
(1.42106 6.35052 -1.69779e-16)
(9.65095 -0.0118127 0)
(1.93369 -0.472513 1.97867e-16)
(-0.304562 1.28244 0)
(-0.623159 6.5641 2.33994e-17)
(5.76932 0.114904 1.22152e-16)
(11.7013 0.771067 2.14218e-18)
(0.428887 0.0473995 -7.92454e-17)
(0.35619 -0.348581 -1.06801e-16)
(3.7832 -0.0897445 0)
(1.4176 0.534025 -2.71478e-16)
(1.17717 -0.556673 0)
(0.302862 -1.0171 -5.36958e-17)
(-1.70638 -0.0686242 -9.48369e-17)
(-0.764655 0.573542 1.43878e-16)
(0.79903 0.264089 2.03601e-16)
(9.31748 0.152833 6.78085e-18)
(7.66513 0.591723 2.32092e-18)
(7.66531 0.580043 2.74288e-17)
(-1.90406 -0.640556 -1.51964e-16)
(-2.41476 0.311589 -3.49956e-16)
(0.105812 1.58733 0)
(1.35662 0.296722 1.20874e-15)
(1.17906 3.74479 2.29999e-16)
(-1.41603 0.506133 -2.64186e-16)
(-1.54975 0.547422 2.64438e-16)
(0.960225 -0.281855 2.86066e-16)
(1.96883 -0.0112941 -1.15652e-16)
(3.9593 0.407365 8.44264e-18)
(-0.181527 5.90237 0)
(-0.187929 5.47944 0)
(0.0646493 4.15059 0)
(1.47916 0.0655673 2.5618e-17)
(3.01134 -0.297346 -7.97114e-17)
(-0.622735 0.152921 -4.83776e-20)
(7.53606 1.1148 -5.45698e-17)
(4.94914 1.29452 -1.36156e-17)
(8.39132 0.22863 -1.4388e-16)
(9.12178 0.481451 1.53541e-16)
(-0.130744 -0.892038 2.75435e-16)
(-2.03102 0.268692 0)
(6.53405 -0.0200102 -1.05083e-16)
(3.35186 -0.920281 6.44566e-17)
(-0.659334 0.25404 -9.50946e-17)
(0.99675 -0.09656 0)
(-2.24724 0.189944 0)
(-1.88468 -0.202498 -5.83879e-19)
(0.0863102 2.83405 1.6188e-16)
(4.02716 0.870322 0)
(-2.15061 0.333318 -5.67062e-16)
(5.82542 0.243466 -1.01742e-16)
(3.55025 0.0975326 0)
(-3.43066 -1.52494 -1.9564e-16)
(-4.87311 -1.71646 -3.11837e-16)
(6.48365 -0.0094931 -1.33645e-16)
(9.49445 0.0902929 3.55822e-17)
(2.40568 0.257239 2.55193e-16)
(3.03017 2.33491 -1.17487e-16)
(-2.90028 -0.416537 -7.04844e-17)
(0.809592 0.330812 -1.83717e-16)
(-0.820055 -0.156922 -2.70472e-16)
(-0.708112 -0.30378 3.50701e-16)
(0.755387 2.58579 2.78608e-16)
(-4.48903 -2.40936 9.78243e-17)
(-0.924866 -0.249874 -4.09546e-16)
(0.387967 2.13295 7.03068e-17)
(-0.168877 5.62354 1.08221e-16)
(0.396015 5.52943 1.38815e-17)
(-0.113335 7.11357 0)
(0.894496 6.47628 3.80469e-17)
(-2.64882 6.99542 0)
(0.771007 -0.370849 -1.61356e-17)
(-1.89986 -0.582313 -8.30308e-17)
(-0.856872 -0.334293 2.30871e-18)
(3.18965 1.12596 0)
(8.27104 1.56568 0)
(1.49804 7.25166 6.70875e-18)
(-3.23929 -2.59293 4.68805e-17)
(-1.28913 -0.175248 1.48712e-19)
(1.07701 2.55441 -2.4273e-16)
(0.920807 -0.190126 -1.72301e-16)
(0.0325375 1.50418 9.4944e-17)
(-0.42518 6.36339 0)
(0.0119348 -0.493906 -8.1011e-16)
(0.446217 1.17335 0)
(-0.855851 -1.49351 -1.42468e-16)
(3.88184 0.311301 1.56e-18)
(0.700056 0.27944 -2.6286e-16)
(-0.0740077 0.410488 4.55833e-16)
(6.36747 0.318463 2.04427e-16)
(3.84385 0.14022 0)
(-1.45725 -0.750821 -5.38234e-16)
(0.0789671 0.030126 -3.11512e-16)
(1.53314 6.32696 -1.47945e-16)
(0.471409 -0.301008 -8.46652e-17)
(10.5886 0.117249 0)
(10.0585 0.278722 -1.76679e-17)
(-0.830315 -0.0745737 -9.28514e-17)
(-0.66125 4.98758 -2.72813e-16)
(-2.07081 0.356471 -2.06885e-16)
(-0.27428 6.8147 -4.01801e-17)
(-5.352 1.17295 2.80858e-16)
(-1.0968 0.435484 -1.56544e-16)
(-0.646135 1.6319 -1.83092e-16)
(3.58813 0.607611 -9.45489e-19)
(-0.128534 -0.504656 0)
(0.725971 -1.06173 0)
(-2.09674 0.18746 0)
(-1.85072 -0.143974 6.50294e-17)
(-0.0596657 -0.444728 -3.63749e-16)
(4.59678 -0.0832469 2.90174e-16)
(6.82572 0.0898731 -6.49216e-18)
(6.75449 -0.122729 2.9309e-16)
(1.35606 -0.289687 8.75403e-17)
(-1.93538 0.538674 4.62593e-16)
(-0.695561 0.183594 0)
(-1.29452 0.0399747 -2.14231e-16)
(-0.940622 -0.166576 0)
(0.0112401 -0.202835 0)
(-0.979521 -0.011849 -2.8821e-16)
(0.0171206 -0.242845 0)
(0.932958 -0.260224 4.09913e-16)
(-4.56156 -0.102375 2.62845e-16)
(5.98246 0.577654 0)
(2.19572 -0.0667849 0)
(2.47343 0.247229 3.4619e-16)
(2.00616 0.00324355 3.20825e-16)
(-2.313 -0.786145 2.856e-16)
(-0.376109 -0.277325 -2.56435e-17)
(-3.51022 0.0527631 -1.08193e-16)
(1.11265 0.042542 8.06033e-17)
(1.36783 -0.383224 7.00145e-17)
(0.130494 0.178731 2.58401e-16)
(-3.57119 -0.11523 -1.95518e-17)
(-1.18436 -0.0912167 1.72051e-16)
(2.951 -0.0664192 0)
(-1.09611 -0.26317 0)
(2.71986 -0.284125 1.45354e-16)
(6.56024 -0.30531 1.45937e-16)
(-1.21245 -0.718854 6.45178e-17)
(-5.85849 -0.0429981 0)
(-0.135824 -0.489102 -2.81872e-16)
(0.578918 -0.122833 5.61489e-16)
(5.24421 -0.0624395 3.43468e-17)
(-1.22202 -0.69914 -2.83706e-17)
(-6.09092 0.212347 -1.40624e-16)
(3.85385 0.0308124 3.29526e-16)
(-3.49424 0.040054 -3.41878e-17)
(5.67724 -0.499134 0)
(3.72356 -0.126851 3.40143e-16)
(-4.33809 0.259529 -6.48122e-17)
(0.767583 1.3675 -1.134e-16)
(1.27542 -0.140881 0)
(3.76568 -0.00436951 -7.7467e-17)
(0.275839 -0.297471 3.23419e-16)
(0.194286 0.0421606 9.4035e-17)
(-2.97688 0.152182 1.27067e-16)
(5.00044 -0.153955 0)
(3.89221 0.284444 8.2434e-17)
(-3.41812 1.11669 0)
(0.836486 0.10349 1.41263e-17)
(-0.678518 -0.0265028 1.86098e-16)
(0.566546 0.993356 0)
(10.7743 0.0787168 0)
(1.46533 -1.122 1.25822e-16)
(0.954653 1.09847 -5.12062e-16)
(-1.07157 -0.656336 -3.10476e-16)
(-0.945191 10.1364 -2.5282e-17)
(2.51364 -0.258381 1.6552e-16)
(-1.89061 0.0360684 -7.45306e-16)
(5.071 0.0350485 0)
(0.116623 -0.226539 -7.19281e-16)
(-0.880039 0.72136 -7.3323e-20)
(0.0409418 1.09259 -2.31774e-18)
(-0.684666 -0.87499 1.53414e-16)
(0.395519 -0.508386 8.61738e-17)
(2.36507 -0.752926 -6.71856e-17)
(-1.9319 -0.0713506 9.5535e-17)
(0.76948 -2.42363 0)
(-1.7285 0.828626 0)
(2.08527 -0.294346 -2.83336e-16)
(1.1581 -0.318039 1.29742e-16)
(-8.10449 -0.807452 -1.87746e-16)
(9.91039 0.0135397 3.50467e-17)
(0.794156 0.0815901 1.94067e-16)
(-1.5558 -0.570701 0)
(6.79787 1.06057 4.39579e-17)
(1.69165 -1.9438 4.75233e-19)
(0.0717302 2.88557 1.50867e-16)
(0.19534 1.751 -3.1205e-17)
(-0.302206 5.62354 -6.31056e-17)
(-0.553796 7.70161 2.21786e-17)
(0.309272 5.55971 0)
(0.791384 0.450933 1.72298e-16)
(-1.1431 0.523976 2.5408e-16)
(6.60037 0.0823453 1.68596e-17)
(3.86358 0.0203236 7.75199e-17)
(-1.57628 -0.380687 0)
(0.441611 -0.00655707 2.92731e-16)
(-2.67095 0.145583 0)
(-0.262293 6.28936 3.87901e-17)
(0.201459 5.18655 -8.12173e-17)
(-0.441951 8.15346 2.74769e-17)
(-0.637282 0.0469635 -1.47761e-17)
(1.03282 1.77044 -3.23185e-17)
(2.48705 -0.1242 0)
(1.84316 0.381633 0)
(-1.18497 -0.278041 -1.79851e-16)
(0.249627 -0.442254 -1.97128e-16)
(0.037323 2.17057 -1.1494e-17)
(-0.52947 2.35862 4.02896e-17)
(5.74657 1.56466 2.56301e-16)
(9.99691 0.138541 1.26144e-17)
(0.626774 2.82687 -3.50436e-16)
(1.03788 -3.04335 -2.03988e-17)
(3.45687 -0.164749 2.31702e-16)
(1.53328 0.625808 0)
(-0.232472 -0.332358 1.73864e-16)
(-0.406294 -0.531409 -9.54207e-18)
(2.62668 -0.678322 -7.39099e-17)
(0.8045 0.679472 1.77745e-16)
(-0.906496 -0.458018 2.26647e-16)
(9.94671 0.096405 -2.46414e-16)
(2.42406 -0.0907143 0)
(-0.812467 -0.238226 7.75142e-17)
(-2.71021 -0.0908911 -1.87937e-18)
(-0.0756108 8.77791 -5.14842e-17)
(0.0157173 4.21957 1.19552e-19)
(0.225138 -0.131951 0)
(1.26225 -2.61254 1.51599e-16)
(0.780629 0.0912386 -8.63275e-17)
(-0.637203 -0.229437 -2.10503e-16)
(0.0853585 2.19671 -5.29315e-17)
(-2.60464 1.19692 4.54413e-17)
(0.0661419 2.09111 -4.04907e-16)
(-0.233531 7.45275 -2.47342e-17)
(0.874229 -0.032455 -5.25258e-16)
(0.33336 4.96133 -2.31701e-18)
(-2.25841 0.0302214 -1.86286e-16)
(-0.314528 6.3981 -3.31385e-17)
(1.34751 7.24312 8.3349e-17)
(-0.085228 1.11159 -1.01754e-16)
(0.166888 2.04473 -1.80688e-16)
(-0.173584 1.06502 1.73853e-16)
(0.644808 -0.59186 -3.82606e-16)
(8.76319 0.506689 8.90895e-17)
(-0.890118 0.0611173 -2.60932e-16)
(10.5197 0.489095 -2.22986e-18)
(2.77976 1.81776 7.67686e-17)
(0.566784 0.275468 -4.37144e-16)
(-0.187405 -2.64925 -4.51172e-17)
(0.573692 0.0436114 3.90741e-17)
(6.76503 0.677909 -5.57687e-18)
(1.5344 0.70986 -6.77456e-17)
(3.72733 -0.268341 1.94599e-17)
(1.59451 0.312893 -1.66611e-16)
(-0.884264 -1.46042 1.12287e-15)
(7.96201 1.57685 -3.48713e-18)
(-0.795822 4.75567 1.63239e-16)
(-2.35544 0.112694 1.49871e-16)
(0.142647 1.97643 4.46041e-17)
(-1.264 1.15716 2.50235e-16)
(-0.104102 0.598444 0)
(4.51243 -0.0598603 -1.06517e-16)
(4.17127 -0.21832 8.07726e-18)
(-0.686971 0.00694627 1.74948e-16)
(3.44194 -0.00460957 9.02099e-20)
(9.79042 0.0180605 0)
(-2.17121 0.216752 1.96196e-18)
(0.368796 -0.0208542 -5.20936e-17)
(-0.262843 0.874101 1.32487e-19)
(0.0359564 1.97375 1.62122e-16)
(-0.647195 0.800498 -2.24268e-16)
(-0.443909 1.07908 8.34118e-16)
(4.06213 0.511373 8.18274e-18)
(1.65814 -1.19388 -2.06934e-19)
(0.300482 -0.545432 2.50673e-16)
(-0.333001 0.107753 0)
(0.471459 1.17368 0)
(0.39816 -0.20462 -3.59517e-17)
(7.24819 0.913617 -1.47251e-19)
(4.21536 1.06711 2.93752e-17)
(8.13286 0.882349 -7.45975e-18)
(10.3781 0.46366 3.21032e-18)
(0.319629 -1.14636 0)
(1.58779 4.00676 0)
(0.224123 1.83317 1.82634e-16)
(-0.297149 0.850999 2.11964e-16)
(9.20756 0.462026 -4.28565e-16)
(1.49352 0.712695 0)
(1.63631 -0.290103 0)
(-2.1532 0.191163 1.94677e-16)
(0.632879 0.221601 1.63594e-18)
(-1.07033 0.056643 -1.80458e-16)
(0.807688 -0.0413132 1.92331e-16)
(0.592791 -0.1824 -9.57257e-17)
(0.120907 4.22263 -3.80866e-17)
(-0.271143 8.58941 -1.25496e-17)
(0.780993 -0.0498725 -2.54912e-16)
(9.89636 0.142368 -6.55448e-17)
(9.91453 0.266808 3.74438e-18)
(-0.0384988 1.93876 1.29067e-16)
(0.30944 1.90388 -3.38992e-17)
(2.92253 0.906776 -1.31488e-17)
(-1.87388 6.22923 -1.61005e-16)
(-0.445956 0.184831 1.01331e-15)
(0.165724 2.08777 5.78566e-18)
(-1.54689 -0.680425 0)
(6.07745 4.27729 5.72408e-17)
(0.148794 2.08008 9.31438e-17)
(0.142418 2.74633 -4.38872e-20)
(-0.293562 2.01383 1.75348e-16)
(0.337997 -0.0779607 0)
(10.5625 0.283522 0)
(0.211561 1.0026 -6.2705e-17)
(3.85739 -0.0883036 0)
(2.603 0.291589 6.54115e-17)
(10.0256 0.0545495 -1.02959e-16)
(5.45074 -0.00363775 7.08447e-17)
(-0.83147 0.145696 1.15262e-16)
(7.54447 0.065751 9.02858e-17)
(-0.067668 2.77835 5.67455e-17)
(-0.603767 -2.64631 1.7391e-16)
(0.0860495 2.14638 1.69844e-16)
(1.97755 2.11962 -1.60526e-16)
(-1.78244 0.152765 -6.59712e-17)
(-0.260563 -0.332187 0)
(9.7171 0.728379 0)
(1.38018 2.1292 -3.36718e-16)
(0.366317 -0.191248 -2.09319e-16)
(0.119341 2.34167 5.47966e-16)
(2.69567 3.62519 -3.52064e-17)
(0.996021 0.163082 0)
(2.72706 0.0524262 -3.53446e-16)
(-0.920292 -1.51142 -1.38286e-16)
(0.165096 2.27406 1.3362e-16)
(-1.65821 -0.634495 0)
(0.62578 1.90706 0)
(0.185628 2.97059 0)
(0.169178 1.95921 -1.47528e-16)
(0.58766 1.02262 9.85611e-18)
(10.4308 2.75389 -2.7406e-18)
(-0.184905 0.0430034 0)
(5.65597 1.42723 0)
(1.93571 0.93277 -7.45919e-17)
(2.36257 2.65061 1.09116e-16)
(-2.38766 0.216504 0)
(0.788465 0.108886 3.96545e-16)
(0.239182 -0.466615 -6.39131e-19)
(-0.0220896 1.64915 -1.45081e-16)
(1.27338 -0.328214 0)
(8.3771 0.531119 -6.0882e-17)
(-1.34646 0.728049 -1.46298e-16)
(0.625852 2.71115 6.82803e-17)
(-0.141757 6.24751 0)
(0.952593 2.90263 -1.06231e-17)
(9.89989 0.22982 -1.979e-17)
(3.20616 1.32394 -5.04005e-18)
(0.782259 2.61906 -1.66041e-16)
(-1.4489 -0.311092 -2.31523e-16)
(-3.10643 -2.38131 -4.21172e-16)
(-0.255419 7.66896 9.18937e-19)
(0.128085 5.42077 5.52534e-17)
(3.01009 2.4241 0)
(10.2612 -0.136839 2.29033e-17)
(-3.34287 0.016657 1.17634e-16)
(9.24186 0.746512 -1.13028e-16)
(0.103864 -0.461025 1.80396e-16)
(-0.407691 7.73737 0)
(0.224105 5.52912 -6.37743e-17)
(-0.335837 4.67807 1.92311e-16)
(1.49682 -0.363767 -6.53368e-18)
(0.0951723 2.52627 4.5486e-17)
(1.23819 1.3102 5.48793e-18)
(-0.214389 7.37646 -2.61827e-17)
(-0.101607 5.74282 -3.25336e-17)
(2.25846 9.05276 5.64878e-17)
(0.750694 0.0647384 1.94467e-17)
(10.1265 0.168446 0)
(0.195815 -0.0625502 5.31065e-16)
(1.93337 0.681543 -7.8763e-17)
(-1.29139 0.310932 -3.08602e-16)
(7.9175 0.531045 1.59741e-17)
(-0.0499616 5.77281 -4.90816e-17)
(-0.151303 7.60617 1.73712e-16)
(0.929637 -0.101505 -1.84038e-20)
(-0.443727 0.102918 -1.18826e-16)
(1.12576 6.16003 0)
(-1.20752 0.0552692 0)
(-0.0810619 -0.159893 -2.10419e-17)
(-0.271034 -0.0822847 0)
(3.41188 2.67961 -7.15703e-17)
(4.7151 1.78311 0)
(1.63055 3.68819 -2.3863e-16)
(2.25303 -2.19685 4.66675e-17)
(0.257812 -0.253531 4.27594e-16)
(2.15459 0.441123 3.41743e-17)
(7.56513 0.746146 -1.42565e-17)
(4.15709 -0.00420057 -2.1899e-16)
(7.9066 0.153026 -2.76596e-16)
(-0.533785 0.333832 0)
(0.297726 1.88234 -7.17398e-17)
(5.15667 3.14029 1.56511e-16)
(3.71414 1.7737 -7.13987e-17)
(-0.384198 -0.381571 -3.86311e-16)
(0.428093 1.97194 4.95337e-16)
(0.171684 2.16931 2.86259e-17)
(0.34713 0.182499 -4.73075e-16)
(1.11829 0.429541 -5.77311e-19)
(1.04239 0.704336 -2.61831e-16)
(0.0504192 -0.283126 1.97354e-16)
(-1.68159 0.854718 6.95399e-17)
(0.0511245 2.12065 0)
(0.172309 0.739001 -7.49673e-17)
(-0.0686402 1.64825 -6.77723e-17)
(0.306509 1.71698 2.69504e-16)
(4.50439 -0.0760875 -6.09649e-17)
(1.62577 8.10857 -3.80678e-17)
(10.6492 0.424075 -7.1357e-17)
(3.67577 -0.0635737 7.15493e-17)
(-0.232522 5.63917 -4.96092e-17)
(-1.37637 0.161021 -1.29864e-16)
(8.78474 0.184644 3.4356e-16)
(4.11352 -0.0110108 -2.23737e-17)
(0.318781 5.56796 4.0762e-18)
(4.85404 -0.127177 2.31611e-16)
(-0.113032 5.11934 -1.66827e-16)
(-0.0791256 7.09477 7.90731e-17)
(7.23285 0.297496 0)
(0.0134913 -0.0600754 -1.36924e-16)
(0.0552743 0.146198 2.9069e-17)
(0.0925646 1.61141 0)
(-1.42974 -0.875685 -1.49531e-16)
(0.140653 0.628758 6.3811e-17)
(0.979494 0.559158 2.49368e-16)
(1.04663 -0.560568 2.79146e-16)
(4.2007 0.226985 -3.94366e-17)
(9.70971 0.675555 -1.20125e-18)
(-0.808613 0.492021 -1.96139e-16)
(-0.442624 0.152228 3.50476e-16)
(1.98613 2.67471 -2.23811e-16)
(0.562491 0.0979565 1.21667e-16)
(4.22712 -0.102665 0)
(-0.0118091 0.23123 -1.1564e-17)
(-2.01472 1.40697 -2.62899e-16)
(0.0850479 1.93678 -6.49741e-21)
(-0.0613053 7.11236 2.53033e-17)
(0.344289 6.133 -2.27375e-18)
(-0.17769 5.51031 -1.07488e-16)
(0.432026 5.57379 3.49871e-17)
(1.80047 3.97401 -1.53404e-16)
(7.53337 0.402077 6.74944e-17)
(0.40732 -2.26928 0)
(10.9221 1.10804 0)
(-1.57255 0.370143 3.36734e-16)
(-2.03326 -0.324985 4.94192e-16)
(-0.0139943 5.7593 1.49281e-16)
(-0.0704298 7.76275 -1.17485e-16)
(-1.7942 0.0381792 1.10733e-16)
(1.59649 3.94742 -5.62712e-17)
(-2.2944 0.0675425 3.86261e-17)
(0.299897 1.12911 2.19936e-17)
(0.300332 -0.687058 5.20307e-19)
(1.35052 2.1866 -4.86192e-17)
(0.0654077 -0.22412 -1.12774e-17)
(1.84017 2.11177 -5.98544e-17)
(4.07286 -0.0581725 -3.72962e-16)
(0.203058 3.46909 6.47482e-18)
(0.370157 1.30101 1.43964e-16)
(0.949424 0.406648 0)
(0.739648 -0.0574583 0)
(0.773437 -0.507106 0)
(1.03143 6.63168 2.29861e-16)
(1.32483 7.81995 2.59312e-16)
(-0.446815 6.23916 2.37131e-16)
(3.67781 0.659644 2.48799e-17)
(6.41203 3.62294 -3.36626e-17)
(-0.0697804 -0.247577 0)
(0.102855 1.29617 8.66651e-17)
(-0.786767 -0.352923 3.38705e-17)
(10.5342 0.053017 -7.43097e-18)
(-0.523496 0.431512 -9.88941e-17)
(-1.13508 0.0564126 3.32324e-18)
(0.182803 -0.110423 -1.73546e-16)
(9.14367 0.359279 -1.97442e-17)
(0.139306 0.444104 0)
(3.97675 1.40106 -3.33031e-16)
(2.35589 0.645281 2.69651e-16)
(4.34746 -0.175951 0)
(0.0673143 0.339392 7.71962e-17)
(1.506 2.03599 -2.76248e-16)
(8.91501 0.177661 0)
(2.34592 6.45373 -4.46555e-16)
(-0.547412 6.76259 -1.21441e-16)
(0.0183331 2.66025 0)
(1.12925 0.529495 0)
(11.389 0.282507 4.31338e-17)
(10.3632 0.310347 3.32751e-17)
(9.71067 1.31821 2.09802e-18)
(5.56289 2.34421 1.65855e-21)
(1.71313 3.82195 0)
(1.49633 0.137088 2.11306e-16)
(2.85119 6.66781 -3.0433e-17)
(5.24166 -0.0282766 0)
(0.21434 1.66747 -4.01904e-16)
(4.57754 1.15247 3.03663e-17)
(0.144787 -2.21835 -1.05745e-16)
(9.42824 0.823849 -5.10448e-17)
(10.8723 0.042218 7.73828e-17)
(1.94177 1.50986 -2.02903e-16)
(9.98388 0.390451 -1.53021e-17)
(-0.173299 4.80208 1.90282e-16)
(0.906045 8.39882 4.39854e-17)
(0.777339 7.54013 -9.72449e-17)
(6.87603 3.86445 0)
(3.45139 0.853103 1.00094e-16)
(2.67958 0.44854 -1.34936e-16)
(2.71089 0.102695 3.22405e-17)
(-0.166088 0.276839 1.31006e-16)
(0.314479 4.87546 2.20108e-21)
(-0.185011 8.36555 4.63543e-19)
(0.525292 6.01788 7.5486e-17)
(0.498454 0.73252 0)
(-0.327462 0.456887 0)
(1.19899 -1.24435 8.4804e-17)
(-0.837981 -0.519965 1.60238e-16)
(-0.192447 5.81597 -9.91306e-17)
(0.279282 5.25176 -3.93946e-18)
(-0.266191 1.8784 0)
(2.52715 -1.85195 -2.90909e-17)
(10.0916 0.109251 8.50769e-17)
(0.223415 1.58946 0)
(-1.30227 -0.901711 -3.52282e-16)
(1.0872 2.49227 5.59942e-17)
(0.842446 -0.036013 2.51237e-16)
(-0.0300308 5.13608 7.19984e-17)
(-0.210733 8.17745 1.27807e-16)
(9.61773 0.820554 0)
(0.316942 8.21935 -3.33657e-17)
(0.00737733 4.5374 -3.83069e-17)
(9.51485 1.00246 -9.49616e-17)
(-2.39261 0.231817 -7.72576e-21)
(7.16126 1.08568 8.57423e-18)
(-0.225729 7.37067 1.17935e-19)
(-0.0319474 7.06646 0)
(0.0411431 6.10578 2.6842e-18)
(-0.202014 5.32579 -9.47169e-17)
(0.377202 5.54771 -4.31844e-17)
(3.69221 3.81494 1.49862e-16)
(0.213172 -2.6979 3.30842e-17)
(-0.501786 8.02491 1.86423e-16)
(0.27421 5.5537 0)
(-0.395811 5.24263 -1.47079e-16)
(0.804268 0.0498195 3.72994e-17)
(0.0690418 0.272031 -1.5595e-16)
(3.43618 -0.126753 5.90253e-17)
(0.22171 0.346479 4.34182e-18)
(0.15566 1.96774 1.10663e-16)
(-1.75238 -0.354453 0)
(1.84149 2.81932 1.60237e-17)
(0.123565 2.67611 -1.74363e-17)
(0.235398 0.0866729 -1.29666e-16)
(9.66653 0.956986 -8.00675e-19)
(1.27122 1.02876 -3.54552e-17)
(0.032108 2.16417 -1.74537e-16)
(0.200315 2.13523 -1.46165e-16)
(-0.201148 7.13123 -1.98956e-16)
(0.274501 5.64151 0)
(0.360781 -0.289081 2.69303e-16)
(-0.223344 7.21199 8.46097e-17)
(0.0318705 5.65598 2.62935e-17)
(0.162196 0.0934417 -9.35774e-17)
(3.97341 3.3749 -1.5702e-16)
(-1.33216 -2.00486 4.74398e-16)
(-0.458507 -0.749598 6.374e-16)
(1.12977 1.22041 -2.3261e-16)
(0.177084 5.7155 2.66465e-16)
(0.0706312 2.1939 -3.06505e-16)
(-0.719365 -0.549167 -1.8587e-16)
(-0.152429 2.01855 -9.91349e-17)
(1.36859 8.65153 0)
(9.84137 0.0849586 0)
(-0.596884 -0.218669 -3.00236e-16)
(-0.966122 1.47693 1.72902e-16)
(0.0823896 -0.227982 -8.11206e-17)
(0.257859 1.57525 0)
(2.26155 0.923542 8.44946e-17)
(0.286019 0.0905768 -1.27506e-20)
(0.755894 -0.188606 -6.34055e-16)
(4.53334 0.127307 2.09593e-16)
(1.45203 5.26425 1.21007e-16)
(-0.754789 7.01808 -2.75363e-16)
(-2.93262 -0.56147 3.13296e-16)
(-1.08005 -1.37016 -1.33659e-16)
(9.94662 0.803795 -1.31569e-17)
(-0.00907575 3.09864 2.2711e-16)
(0.419736 -0.580235 1.89502e-16)
(0.164128 0.132861 0)
(-1.01374 0.976751 5.30519e-17)
(2.40194 1.01719 -7.42462e-16)
(0.201649 1.80501 -2.1714e-17)
(0.202165 2.96047 2.20295e-16)
(0.91437 0.350895 3.22724e-17)
(8.96595 0.52579 -1.09738e-16)
(9.55798 0.360035 -2.79994e-19)
(0.226467 -0.240263 1.93087e-16)
(11.0655 0.0428606 0)
(1.58273 0.863301 -4.09418e-18)
(3.8012 -0.284078 1.86003e-18)
(4.17988 0.238349 -1.1172e-17)
(0.287943 5.55097 4.89656e-17)
(-0.300237 7.52165 3.58088e-17)
(-0.035552 4.794 1.8315e-17)
(10.5181 0.0327539 1.40894e-17)
(0.283396 1.38842 -4.22829e-20)
(-1.01209 2.3354 -7.55004e-17)
(3.87975 -0.277631 -3.6867e-20)
(1.18623 1.06486 0)
(9.8261 1.76598 -5.00441e-18)
(-2.21555 0.0891603 0)
(0.244 0.47752 9.49616e-17)
(-0.378415 0.175446 8.57712e-17)
(0.140624 1.57959 4.17784e-18)
(0.529594 0.342892 2.42231e-16)
(0.339071 0.260992 3.67573e-16)
(9.34857 0.62737 -1.74866e-17)
(0.54829 -0.121764 2.61053e-16)
(-2.94754 -0.75354 2.48864e-16)
(9.53514 0.941728 9.71815e-17)
(9.74542 0.306639 4.04453e-17)
(5.96975 1.7242 3.50637e-17)
(-0.0439004 6.05486 -4.82402e-17)
(-0.0811138 7.33213 2.24382e-17)
(-0.187475 4.31567 1.02881e-16)
(0.16273 1.45841 0)
(4.46271 0.813194 4.49193e-17)
(5.79093 3.31554 8.26686e-17)
(9.91589 0.0737505 -2.15177e-17)
(-0.0363135 -0.239589 1.23229e-16)
(0.625471 -0.14871 2.4966e-16)
(0.163872 0.271436 0)
(8.9998 1.51933 0)
(1.20098 1.64466 0)
(-0.589365 -2.16363 2.63509e-16)
(3.92713 -0.150448 6.42795e-17)
(3.17463 4.75438 2.03184e-16)
(-0.723734 6.93339 2.57828e-17)
(1.66244 6.56332 -6.20077e-17)
(0.0778312 0.199323 0)
(0.614911 2.54955 6.99995e-17)
(-0.351948 2.55198 -1.95543e-16)
(0.1866 -0.0808938 -8.54197e-16)
(11.2537 0.115046 9.44261e-17)
(6.10179 1.31257 0)
(0.0743215 2.74076 1.45148e-16)
(0.946247 5.10125 0)
(1.27765 0.74261 1.41724e-16)
(0.340407 0.789412 -2.22988e-17)
(1.03319 9.42657 6.18263e-17)
(9.97917 0.956611 -1.32046e-17)
(9.86066 0.604854 1.00852e-16)
(-1.08578 0.101371 0)
(0.423024 0.267333 -7.40403e-17)
(-0.982297 0.0178051 0)
(8.78778 0.355388 0)
(1.76804 0.345698 -1.18933e-16)
(0.270526 0.910534 2.17658e-17)
(-2.69788 4.73723 -1.27642e-16)
(3.05638 0.882329 -1.1879e-16)
(-0.0681064 -3.04466 1.30266e-16)
(10.2776 0.104977 -1.77425e-20)
(6.01429 3.81006 -7.56096e-17)
(-1.42812 -0.441965 -2.28201e-18)
(-0.00667538 6.58254 5.49885e-17)
(-0.0453938 6.87221 -4.9164e-17)
(0.32937 0.966855 -1.39193e-16)
(1.26543 6.51327 -2.54751e-16)
(2.80128 0.491311 -1.46598e-17)
(-0.609171 1.5295 -3.04777e-16)
(0.0270564 2.08188 -1.71113e-16)
(1.15105 -0.0883584 6.71274e-17)
(1.09066 -0.404806 1.96964e-16)
(0.499586 0.0757291 -3.09289e-16)
(0.245273 1.84336 -4.52882e-16)
(0.0238994 2.39505 -3.00859e-16)
(7.01591 4.5041 3.6834e-18)
(0.615221 1.79936 4.9305e-16)
(10.0703 0.0377939 -6.22083e-17)
(1.27341 -0.472848 0)
(0.722493 2.76677 -2.31885e-19)
(6.11847 0.231711 -6.75362e-17)
(-0.18036 -0.222532 0)
(10.0427 0.367263 3.94572e-17)
(-0.670459 0.185269 2.95217e-16)
(0.389162 0.237443 -2.67117e-16)
(8.56949 1.35614 0)
(0.159233 4.14302 5.6662e-20)
(-0.334332 8.70464 0)
(10.0267 0.0710168 0)
(1.45363 -0.206638 -4.66575e-17)
(9.13922 1.06628 -6.57016e-17)
(9.32356 4.26697 -1.67908e-16)
(1.30837 5.61392 2.56063e-17)
(7.60252 1.97689 -1.02475e-16)
(-0.0270252 3.78555 -7.02761e-17)
(0.104989 3.27328 -1.08567e-20)
(-0.130191 6.56216 -5.93474e-17)
(0.00309549 1.6356 0)
(-0.171383 2.16367 1.07434e-16)
(-0.0210567 -0.96322 0)
(-0.411256 -1.48931 0)
(-0.0493842 -1.28743 0)
(0.316523 -1.88297 -1.55476e-16)
(-0.11665 1.57007 0)
(0.0797218 1.29986 1.14403e-16)
(2.85474 2.6335 -2.73798e-16)
(2.29411 4.68701 0)
(-1.45957 3.42257 2.62623e-16)
(-0.288222 6.38045 -2.4684e-17)
(0.189841 5.1955 1.04583e-16)
(-0.443477 7.83981 -3.54018e-17)
(2.25533 1.40935 2.47414e-16)
(9.40975 0.906691 -2.66902e-17)
(0.2163 1.84383 1.88258e-17)
(0.106828 2.85823 -6.1962e-17)
(3.5322 0.19555 0)
(1.03609 -0.312413 1.26641e-19)
(5.66576 1.01795 0)
(0.376459 0.0608435 2.54718e-20)
(4.38723 0.126386 -4.17415e-16)
(10.0457 0.0447721 3.42107e-17)
(-1.06275 2.4884 1.97405e-16)
(-2.23867 2.40199 -2.8744e-16)
(0.0679327 2.12958 0)
(-0.0428119 1.21651 8.20569e-16)
(5.37851 1.50138 -4.34622e-17)
(11.2453 0.512802 0)
(9.79061 0.218122 2.43067e-17)
(1.16253 -2.69947 1.11198e-17)
(9.24637 0.256516 0)
(4.91862 4.53458 8.23326e-18)
(3.88508 0.505097 -3.15169e-17)
(2.09591 0.745812 -3.45883e-17)
(1.43383 0.916633 -1.14824e-17)
(1.30134 0.440061 -2.66535e-16)
(0.0739145 -0.154528 -2.47745e-16)
(1.38909 1.07185 -1.09836e-17)