/*--------------------------------*- C++ -*----------------------------------*\
| =========                 |                                                 |
| \\      /  F ield         | OpenFOAM: The Open Source CFD Toolbox           |
|  \\    /   O peration     | Version:  v1912                                 |
|   \\  /    A nd           | Website:  www.openfoam.com                      |
|    \\/     M anipulation  |                                                 |
\*---------------------------------------------------------------------------*/
FoamFile
{
    version     2.0;
    format      ascii;
    class       volVectorField;
    location    "0.64";
    object      U;
}
// * * * * * * * * * * * * * * * * * * * * * * * * * * * * * * * * * * * * * //

dimensions      [0 1 -1 0 0 0 0];


internalField   nonuniform List<vector> 
1431
(
(0.0831886 2.60806 1.20134e-16)
(1.44262 2.05257 2.79761e-17)
(0.0529528 -0.217352 0)
(1.14214 -0.121672 2.13438e-16)
(-2.72649 0.0625269 0)
(0.813501 6.47327 1.87273e-16)
(0.980282 0.141447 5.0397e-16)
(0.619875 0.0530856 4.69462e-17)
(0.398572 6.48598 1.33663e-16)
(0.877524 0.0855824 4.78445e-16)
(2.75651 10.9728 2.08721e-17)
(5.40914 -0.586788 0)
(0.0517114 1.6562 -1.63456e-16)
(-1.94306 0.0731775 -5.20664e-16)
(3.43077 -0.324669 0)
(1.03305 0.129115 -4.46615e-16)
(4.42078 -0.151233 -2.38253e-16)
(-0.478791 -0.584018 0)
(4.68991 -0.366412 -1.89052e-16)
(-2.05238 -0.47505 1.59908e-16)
(4.2006 10.3336 -7.19138e-19)
(-1.00068 0.0643583 2.16751e-16)
(0.550772 5.04716 -1.52515e-16)
(11.555 2.04129 -3.62805e-18)
(0.478762 6.12018 1.36143e-16)
(0.231497 0.67845 1.37239e-19)
(1.50234 10.8216 -2.14836e-17)
(2.96021 -1.42525 -3.30398e-16)
(-0.117159 4.61133 -4.75325e-17)
(0.214813 6.4106 3.11979e-17)
(0.133597 6.95619 -8.67408e-17)
(0.00788864 5.81489 3.86674e-17)
(-0.0254388 6.99626 0)
(-1.04236 0.156449 -4.39346e-16)
(0.814826 5.29288 -2.61771e-16)
(1.32593 0.377331 0)
(-0.6302 5.82917 0)
(0.436047 -0.0295112 -2.26096e-19)
(0.59912 0.0627654 0)
(0.1063 5.86012 0)
(-0.482497 7.90975 -6.85101e-20)
(-0.678201 7.77886 1.16209e-16)
(0.0686845 1.07686 -2.1805e-16)
(0.928135 0.07138 2.32297e-16)
(1.09037 6.1783 0)
(-1.45613 -1.00845 2.9448e-16)
(0.381897 1.32908 2.32628e-17)
(1.06233 10.5087 -6.47116e-17)
(1.02286 0.183343 0)
(0.842972 -0.0800405 0)
(0.904269 2.40695 0)
(0.92652 0.134145 0)
(0.762227 2.84449 2.91201e-16)
(1.465 -0.197459 1.55697e-17)
(0.81093 1.29633 -1.97903e-18)
(0.373257 0.595535 5.00208e-16)
(-1.01467 0.438664 2.04554e-16)
(3.39163 -0.745438 0)
(4.79321 0.144647 0)
(2.24829 0.0114329 3.95731e-16)
(2.58888 -0.634596 -1.28931e-16)
(0.589594 -0.0113174 4.27812e-16)
(0.14024 -0.00371285 0)
(0.342056 -0.0472549 0)
(0.422035 0.0298031 1.03626e-18)
(0.517428 0.0441807 -2.59553e-16)
(2.40413 0.0662515 -2.32769e-16)
(0.722083 -0.0448015 -9.71209e-17)
(0.197591 -0.456583 -6.26314e-18)
(-1.45688 -0.317246 0)
(-0.99712 -0.753056 6.21551e-17)
(-1.26949 0.196313 -1.54068e-16)
(0.797472 -0.174023 1.38285e-16)
(-1.08718 -0.0100553 3.5581e-16)
(-2.07008 -0.100642 3.84843e-16)
(-2.09661 -0.56409 -4.78235e-16)
(1.22503 -0.476599 -2.28715e-17)
(0.508623 -0.0161495 -2.00545e-16)
(0.854588 0.0411122 -3.12668e-16)
(-0.0183603 -0.483595 0)
(4.34349 0.0167797 -5.75642e-17)
(-0.158539 -0.174665 1.28694e-17)
(4.4139 1.17788 -6.35566e-18)
(1.40676 1.85669 9.45354e-17)
(11.673 0.698194 2.13086e-18)
(0.966764 -0.0319155 -1.14673e-16)
(-1.023 -0.0505633 0)
(2.45909 0.577699 1.60602e-16)
(10.2805 0.207167 5.47989e-18)
(7.72405 1.06196 1.98575e-18)
(-0.535196 0.698696 -2.78609e-16)
(-1.47856 1.16731 2.70043e-16)
(0.515733 0.037247 3.41028e-16)
(1.05418 0.133348 -1.54483e-16)
(0.491326 0.892621 9.23727e-18)
(-0.0511021 5.75263 0)
(1.96397 -0.645628 -7.37759e-17)
(4.21148 2.56169 -1.03265e-17)
(0.870553 0.0383923 0)
(-0.55761 0.126376 -7.03238e-19)
(0.342466 1.45465 1.71343e-16)
(0.72885 2.9254e-05 -7.41969e-16)
(4.02289 0.00446043 0)
(1.3494 -0.869755 -2.75129e-16)
(0.558688 0.0137843 4.04742e-16)
(0.155648 5.79935 1.33025e-17)
(0.00885973 5.38016 0)
(1.2388 7.70393 6.73496e-18)
(0.649996 3.56458 2.87935e-16)
(4.58143 0.0854918 0)
(1.83587 -0.298163 -5.87943e-16)
(0.0313163 2.40007 -2.99e-16)
(-0.250994 -0.425009 5.16696e-16)
(-0.385985 6.72565 -8.96633e-17)
(1.21845 1.56669 -8.86973e-19)
(-2.58768 -0.292922 6.43093e-17)
(-1.75138 0.203927 0)
(1.05662 -0.129492 -2.43701e-16)
(1.36647 -0.0680291 0)
(0.279497 0.0079676 0)
(-0.52545 -0.440767 -2.42787e-17)
(3.50509 0.13966 6.78029e-17)
(-0.334797 0.12444 2.53594e-16)
(-2.03283 -0.18683 1.54972e-16)
(-1.83381 -0.572794 0)
(0.933778 0.0479055 1.86276e-16)
(0.389835 -0.337396 0)
(2.11625 -0.132474 4.39082e-16)
(0.770625 -0.899718 -2.91014e-16)
(-0.571444 0.207967 4.63042e-16)
(3.89147 -0.285397 3.28176e-16)
(-0.925068 -0.389639 -1.05328e-16)
(-0.276817 0.279254 -1.13083e-16)
(3.60123 0.133948 8.51835e-17)
(-1.89095 0.282963 0)
(0.527731 -0.331431 -3.81861e-16)
(0.784376 0.0599178 1.7413e-16)
(0.941688 0.0470219 0)
(9.43649 -0.349908 3.0844e-17)
(0.328591 0.0504469 2.25278e-16)
(0.383589 0.0161169 0)
(0.115139 7.06632 0)
(4.60528 -0.0332875 7.11592e-17)
(1.0191 -0.539619 0)
(0.612107 3.74989 1.84629e-16)
(-0.0660785 7.08044 -6.64839e-17)
(-0.293916 -0.182342 -2.28857e-16)
(0.494628 2.1195 -3.3263e-16)
(1.06651 0.112461 3.30276e-16)
(1.02923 -0.576734 1.68935e-16)
(0.170153 -0.196003 2.83063e-16)
(-0.990515 -0.396465 8.30212e-17)
(0.0786599 5.79112 -3.61982e-20)
(1.37289 -0.0444779 -2.15392e-16)
(-0.0757979 5.83821 -3.73716e-17)
(0.78618 0.105989 -4.25374e-16)
(10.5648 0.26743 -2.12653e-18)
(2.52602 3.58184 6.32721e-17)
(6.12281 1.22709 -5.08051e-18)
(-0.25262 0.00271699 2.78628e-17)
(8.7014 2.60053 -2.77049e-18)
(-0.0759446 2.1931 1.75109e-16)
(-0.768426 -0.316954 -1.91142e-16)
(-0.6477 -0.0547559 1.1737e-17)
(0.160618 -0.204731 -5.15991e-17)
(-0.166138 3.74991 -1.59094e-16)
(-0.338644 5.19979 4.89787e-16)
(0.902753 1.07956 8.38802e-18)
(0.692935 -0.0236972 2.62631e-16)
(2.86598 2.25054 2.30409e-17)
(8.89541 1.49384 -5.88768e-18)
(0.561668 2.84959 0)
(0.204868 6.20584 -3.36922e-17)
(9.4361 -0.073608 3.47107e-18)
(1.89525 2.45325 -1.09441e-17)
(10.8275 0.0972965 0)
(-0.442133 0.161597 0)
(0.919991 6.80984 -1.06203e-16)
(0.82356 2.846 -2.84485e-16)
(0.918785 4.91766 -2.81099e-17)
(0.602551 0.0527171 -4.89167e-16)
(0.777291 0.135573 0)
(0.955734 2.15785 7.88586e-18)
(9.90247 2.8027 -2.53644e-18)
(1.08468 6.71524 7.55352e-17)
(0.0226267 3.90825 0)
(0.984306 3.71703 -1.02004e-17)
(2.49908 2.91114 -4.11335e-18)
(0.376505 6.27579 5.23838e-17)
(11.1025 -0.237584 2.01324e-17)
(-0.0562 6.7349 -5.46918e-17)
(0.269036 5.98841 -3.35215e-17)
(0.148087 5.9689 -5.32014e-17)
(0.991508 6.78978 0)
(1.26162 -0.0941487 0)
(3.07988 4.40209 -5.98398e-17)
(4.32777 3.28186 0)
(1.09613 5.6282 -1.64772e-16)
(0.700177 -0.260708 4.1624e-16)
(1.77876 0.427702 0)
(1.12273 2.1307 6.72277e-20)
(-0.774222 -0.275776 -1.04784e-16)
(1.43155 8.90388 -3.61489e-17)
(-0.936107 0.0199415 9.71571e-17)
(0.256924 2.22007 -5.3989e-17)
(0.0288713 6.66464 3.64531e-18)
(0.117291 5.19174 9.89838e-17)
(0.911661 0.118396 3.11924e-16)
(8.9592 0.342673 -1.12191e-18)
(0.765995 1.49566 -1.76793e-16)
(-1.78827 0.225275 2.62011e-16)
(-0.69301 -0.282989 0)
(0.00535085 5.42259 3.15069e-17)
(0.450321 5.76873 3.32236e-17)
(10.5795 0.898942 0)
(-0.449829 0.371119 6.218e-16)
(0.0933646 5.90435 1.62325e-16)
(1.18389 5.87966 -4.31677e-17)
(1.12803 2.40207 -5.87252e-17)
(1.19493 8.75483 2.41089e-16)
(-0.153276 6.26044 2.58433e-16)
(0.880009 1.81175 0)
(3.55848 0.980146 2.15945e-16)
(-0.685515 -0.144652 0)
(-0.163342 5.64367 -1.45842e-16)
(8.879 1.04892 1.92913e-18)
(2.44053 7.25646 -2.95501e-17)
(3.49941 2.37362 2.25385e-17)
(-0.0369919 5.92592 1.83064e-16)
(0.803235 9.26332 4.10961e-17)
(1.45417 0.108952 2.96117e-17)
(0.0907122 6.97643 1.19833e-20)
(-0.0236169 5.61987 -3.72377e-18)
(0.165612 6.07376 7.27208e-17)
(-0.00338844 5.85664 -3.72095e-17)
(7.36653 1.93339 6.71952e-18)
(0.0247581 5.49345 0)
(0.729286 5.50095 -4.06497e-17)
(0.00258019 6.9285 0)
(0.843093 1.40009 3.24883e-17)
(-0.0539917 0.241518 8.35679e-17)
(1.31219 3.65174 1.28153e-17)
(8.85141 0.648306 -7.51591e-19)
(0.45982 6.25959 0)
(0.423616 5.98895 2.59077e-17)
(-0.770872 -1.14402 5.94924e-16)
(0.541154 5.75795 2.62183e-16)
(1.18722 9.25683 0)
(-0.238499 6.07797 -3.21277e-16)
(0.768723 0.0332216 1.99312e-16)
(1.20618 0.511793 0)
(10.4632 0.358977 -2.61008e-19)
(-0.271187 -0.0429868 2.7058e-18)
(-0.478807 -0.52076 -1.90573e-17)
(0.00368615 6.65931 4.22578e-17)
(-0.502019 7.51055 -4.96972e-17)
(-0.289273 -0.0880455 1.27014e-20)
(9.02455 1.55875 -4.59113e-18)
(5.90991 3.0064 2.75601e-17)
(0.162109 5.86193 -5.26959e-17)
(0.128186 2.40011 1.38747e-16)
(9.53195 -0.26148 -1.96204e-17)
(1.07547 2.384 0)
(-0.533093 0.078982 8.98392e-17)
(-0.186966 5.07301 3.1393e-17)
(1.48255 7.39198 -5.79855e-17)
(0.264151 5.27685 -1.38355e-16)
(0.970511 5.79992 0)
(0.940723 10.1403 6.05082e-17)
(-0.9262 0.314234 0)
(1.19641 2.7266 -5.67494e-17)
(0.046772 5.70894 6.58361e-17)
(1.06103 1.70469 -1.33871e-17)
(0.698637 0.818548 6.83076e-17)
(9.47027 2.15505 0)
(0.173105 6.38155 -1.57161e-20)
(9.95793 1.53531 -5.2822e-17)
(1.17184 6.67454 2.40521e-17)
(0.0269347 3.28751 3.6728e-20)
(0.00151971 4.12609 -8.14134e-17)
(0.592076 3.37318 0)
(-0.547724 5.15973 1.66219e-16)
(-0.0369196 7.03308 8.58548e-17)
(0.956865 1.49806 2.74033e-16)
(0.208587 0.744672 0)
(4.76349 1.94068 0)
(-0.522508 7.61645 1.24062e-16)
(5.00328 2.79747 -3.35003e-17)
(11.4455 0.44171 0)
(1.53514 2.44608 -2.89526e-17)
(0.544399 -0.0126078 -2.59765e-16)
(0.180996 6.10507 1.39584e-16)
(3.73682 3.07629 -2.65201e-17)
(0.519629 2.78175 -6.39891e-17)
(0.743929 8.82838 -1.34233e-16)
(-0.0290623 5.95031 -4.31583e-17)
(2.30255 5.27839 0)
(0.0463761 3.89052 0)
(-0.0595767 1.15131 2.2144e-16)
(0.0953184 3.34788 9.27246e-18)
(0.639876 2.75139 -1.96983e-16)
(0.671868 0.0267697 -2.42917e-16)
(0.748171 1.3489 -3.94116e-18)
(0.521652 1.7606 8.17692e-17)
(0.210748 4.87109 -4.9578e-17)
(-0.314153 -0.1428 -6.3713e-17)
(1.92132 2.97274 1.91888e-17)
(0.19031 5.78023 -3.05012e-16)
(-0.663167 7.24382 -2.37735e-16)
(2.26447 2.10213 -1.70858e-17)
(3.57334 5.43566 2.0442e-16)
(1.1514 0.151751 0)
(0.67096 0.0520929 -1.02791e-16)
(0.16127 0.898861 0)
(0.351689 6.30619 -2.483e-16)
(4.1002 3.77185 0)
(1.09335 5.3129 -1.04974e-18)
(0.477916 1.01888 1.74104e-17)
(0.719956 -0.644939 -2.4082e-17)
(6.3286 6.12006 1.14703e-18)
(1.85797 3.40859 1.8551e-17)
(3.55665 4.04432 0)
(-0.238966 -0.111199 0)
(0.493331 2.34525 0)
(1.09731 5.72035 3.06972e-16)
(-0.167474 -0.0539176 -2.8353e-16)
(-0.447911 -0.0478716 0)
(0.105898 6.80327 2.76659e-16)
(2.07632 0.210198 2.80697e-17)
(-0.562202 -0.477676 8.84055e-17)
(0.648027 3.92925 2.08946e-16)
(0.358779 -1.02715 1.79265e-16)
(0.220852 6.63606 -2.77327e-16)
(-0.568451 -0.105605 -3.51932e-16)
(-0.163002 0.134406 -1.98086e-17)
(0.384882 1.61144 -3.681e-17)
(-0.126508 7.05919 0)
(6.50976 2.03656 4.91914e-18)
(1.13154 5.99106 -1.46539e-16)
(0.456309 1.66482 0)
(0.516663 -0.000488094 0)
(0.280284 1.49552 2.89879e-17)
(3.12484 6.80107 7.59479e-17)
(-0.461095 7.10971 0)
(0.393645 6.40215 1.38023e-16)
(-0.10976 6.12811 0)
(1.22653 2.06126 1.87472e-17)
(10.253 0.979717 4.98892e-17)
(3.00467 5.78563 -1.41558e-16)
(0.558282 2.59611 0)
(0.67028 6.68423 1.5776e-16)
(1.06757 -1.52452 -3.34775e-16)
(0.427562 2.21237 2.07453e-16)
(2.01177 4.4187 -6.33189e-19)
(1.74166 -2.00218 2.45723e-16)
(1.32053 1.99577 -1.81668e-16)
(7.41401 2.62778 1.62737e-18)
(-1.30338 0.688846 -6.36955e-17)
(10.4859 -0.0463803 -2.93795e-20)
(-0.528001 7.87562 -2.68161e-19)
(-0.362484 0.116957 -4.35988e-16)
(-0.0114969 3.96867 -3.40232e-17)
(0.26948 3.7131 -6.96823e-17)
(0.507286 0.985924 4.15146e-18)
(0.640249 -0.515752 -4.29257e-17)
(6.74139 7.00897 1.44103e-17)
(0.361069 6.64349 1.34472e-16)
(11.2189 4.14079 -5.04614e-19)
(-0.24234 6.36583 3.50085e-17)
(0.456913 7.22772 1.11993e-17)
(1.129 9.31173 -8.12263e-17)
(-1.26598 -0.102484 -1.86482e-16)
(9.74659 0.47422 7.99004e-17)
(1.20911 3.1672 0)
(-0.41945 7.24415 7.2682e-17)
(6.61393 1.08817 -1.06479e-18)
(2.26777 4.06029 -1.87576e-17)
(0.576639 0.0232091 -8.48837e-17)
(-0.232572 0.279366 0)
(6.72828 1.83545 -2.12437e-18)
(-0.191585 2.80342 3.36696e-16)
(1.12362 6.34024 7.31666e-17)
(0.795996 1.20299 0)
(2.03758 -1.47865 1.32325e-16)
(9.92056 5.79048 -1.18907e-17)
(0.416298 6.30416 3.54148e-17)
(0.990283 3.91723 -4.68905e-16)
(0.350723 6.32945 2.0032e-18)
(0.944001 6.0571 0)
(1.14341 3.27489 -2.48416e-17)
(0.101174 0.40054 1.61336e-16)
(0.852023 3.96028 -1.39058e-16)
(0.800232 3.93165 1.49104e-16)
(-0.361291 -0.216214 2.15833e-16)
(6.89395 2.98355 -3.50426e-18)
(0.46028 2.41558 9.0009e-20)
(0.129908 3.9271 5.2027e-19)
(0.0859352 4.16256 -9.41346e-17)
(0.242961 6.80403 -2.73494e-16)
(0.614573 6.20306 -3.76328e-17)
(2.24742 5.17995 -7.50223e-17)
(-0.337969 7.27222 2.10902e-17)
(5.05144 3.69163 9.56225e-17)
(-0.413241 7.37237 -2.11545e-17)
(0.61142 0.31018 -9.53657e-17)
(0.272053 4.04817 4.18514e-21)
(0.64692 6.59881 6.76528e-17)
(-0.165015 -0.276519 1.07796e-16)
(-0.0249143 0.491565 4.16622e-17)
(0.32379 4.05137 1.22448e-17)
(2.67088 4.86472 0)
(1.06464 5.40314 0)
(0.365031 4.06784 5.97451e-18)
(-0.233374 1.21086 1.32619e-16)
(0.391076 6.37651 -1.2938e-17)
(0.243216 -0.465857 2.30599e-16)
(1.51617 4.76281 -6.18705e-20)
(0.00813983 -0.289047 0)
(0.99977 6.08105 -1.38331e-16)
(0.400946 4.07956 0)
(-0.234502 5.19752 -7.27296e-17)
(-0.0748838 1.55129 -4.06073e-16)
(1.01984 1.83563 -1.09869e-16)
(1.74758 4.64737 3.18343e-17)
(0.451753 4.07151 1.27566e-17)
(0.241391 -0.71418 3.85866e-16)
(-1.01758 -0.330325 -2.52107e-19)
(2.82246 -0.38789 9.48463e-17)
(-0.00314914 -0.577869 -2.91567e-16)
(11.1687 1.64136 2.17505e-18)
(-0.469595 2.92608 1.18128e-16)
(-0.519671 3.20949 1.8746e-16)
(-0.544809 3.74218 -4.26534e-20)
(-0.541122 3.48416 0)
(-0.572004 4.00723 -1.0643e-16)
(-0.526156 3.71937 -8.57824e-17)
(-0.499962 3.18523 -8.60624e-17)
(-0.437314 4.0865 -1.57824e-16)
(-0.464144 3.27072 2.70518e-16)
(-0.389203 3.97985 6.99036e-17)
(0.891568 -1.89289 0)
(9.8266 0.133545 6.29071e-19)
(0.984414 -2.16911 -9.46641e-17)
(0.788462 -1.73023 2.76606e-16)
(0.569355 -0.796335 -4.42078e-16)
(0.662832 -0.803009 1.71651e-19)
(0.399219 0.192179 0)
(0.661353 0.00848845 -1.06865e-16)
(2.61924 0.986443 4.49972e-17)
(0.511665 0.447286 6.65896e-17)
(0.630982 0.605279 6.16136e-17)
(0.844254 -0.200743 -2.68221e-16)
(1.1816 0.183503 -1.78855e-16)
(-0.26388 -0.0158865 0)
(1.25514 0.205363 -9.48769e-17)
(1.11772 0.164807 3.04498e-16)
(0.542756 0.127376 9.40222e-17)
(6.998 -0.0739912 -2.21685e-18)
(0.218675 0.327979 0)
(0.641439 -0.741401 2.94461e-16)
(0.366147 0.317056 -1.27166e-16)
(0.87078 -0.147525 2.34921e-16)
(7.08349 -0.291432 -2.92643e-17)
(1.11498 0.114367 -2.857e-16)
(0.442734 -0.525236 -1.78204e-16)
(0.940322 -0.237738 2.85533e-16)
(-0.0743466 -1.16117 3.5001e-16)
(7.04228 -0.454491 1.28502e-19)
(0.936967 -0.269238 -2.69177e-16)
(7.23794 -0.529456 -2.49963e-17)
(1.02648 0.0892702 -7.6205e-16)
(0.981623 0.103796 0)
(-0.130453 -1.78029 9.10721e-19)
(0.839615 -0.141296 0)
(9.49604 -0.252898 3.31418e-17)
(10.4087 0.0717763 9.83656e-17)
(0.915651 -0.404296 1.45363e-16)
(0.850803 0.0292951 -1.31428e-16)
(0.370247 -0.300776 7.35136e-16)
(1.02141 0.147871 0)
(0.234947 -0.198637 0)
(0.229648 0.185356 0)
(9.16791 -0.194351 2.23288e-17)
(1.13961 0.339172 2.49722e-16)
(-0.117562 -0.0385028 2.07769e-17)
(1.03446 -0.314333 2.36307e-16)
(-0.289533 -1.70638 0)
(0.114721 -0.279588 0)
(0.572481 -1.28223 2.23277e-17)
(0.809932 0.222258 1.94618e-16)
(8.28488 -0.176243 -6.70012e-17)
(1.04977 0.245083 2.35558e-16)
(0.380934 -0.961547 1.84946e-16)
(0.769516 0.329562 3.70223e-16)
(1.69653 -0.437633 -2.84376e-16)
(-0.564083 -1.35255 -1.7184e-16)
(0.175928 -0.634751 1.76482e-16)
(8.00966 0.113379 1.4748e-17)
(0.952618 0.300718 -3.06526e-16)
(-0.517744 1.69567 -4.48824e-16)
(-0.273738 0.244311 1.49495e-16)
(0.455346 0.321922 -4.57863e-16)
(-0.472431 1.6335 8.61427e-16)
(-0.205618 -0.246874 -2.0647e-16)
(8.30756 0.527411 -3.13838e-17)
(10.325 0.41799 -8.03278e-17)
(-0.0836605 -1.87243 -2.99237e-16)
(1.06194 0.377095 2.44743e-16)
(0.786054 0.26373 2.29255e-16)
(-0.274175 1.52517 0)
(0.6786 0.278381 2.75167e-16)
(0.938394 -0.943364 2.89093e-16)
(-0.304146 -0.0199704 0)
(0.17084 -0.764116 0)
(-0.372793 -0.546519 2.16949e-16)
(-0.0284503 -0.527268 -2.24596e-16)
(-0.341663 0.116071 -7.54554e-17)
(0.709419 0.421027 1.57926e-16)
(-0.51178 -1.45491 1.71253e-16)
(9.84895 0.67147 -2.46974e-17)
(0.840017 2.9684 0)
(0.808118 0.368512 -4.44382e-16)
(0.417546 2.17636 -1.76931e-16)
(-0.449613 -0.303948 -8.47247e-17)
(0.52806 0.586744 -1.09627e-16)
(0.078861 -0.133371 -1.17145e-16)
(8.69776 1.13088 5.15895e-17)
(0.117558 5.82677 -3.78391e-19)
(1.80527 -1.70252 0)
(0.139751 -0.50583 2.81561e-17)
(1.3779 2.47659 1.22962e-16)
(0.545806 1.0337 -2.78544e-16)
(0.3875 0.977122 0)
(-0.282558 -0.772493 0)
(-0.250511 4.42591 0)
(0.0383053 -0.47419 4.02408e-16)
(0.319287 0.71573 2.89429e-18)
(0.272217 6.17829 2.42432e-17)
(0.692522 0.781767 6.97188e-17)
(2.34763 -0.826617 1.92653e-16)
(0.278292 3.3833 1.3073e-16)
(-0.114344 0.0827834 -3.51019e-16)
(-0.271513 6.17019 -5.24876e-17)
(0.753297 0.683465 5.09035e-16)
(0.155042 3.2922 3.45864e-16)
(-0.0343744 0.228207 6.88974e-17)
(1.11975 2.70557 -7.10704e-18)
(0.707884 7.75125 -4.25676e-17)
(0.201237 3.61243 0)
(-0.358002 4.97107 0)
(1.12559 4.2117 2.00007e-16)
(-0.170285 -0.0789509 4.04268e-16)
(-0.232995 7.22987 0)
(0.610038 4.30626 -2.87162e-16)
(0.545287 -0.141343 -4.31086e-16)
(-0.463309 0.28139 -6.46905e-16)
(0.108763 -0.0774393 1.9408e-17)
(-0.226482 0.380252 -1.45918e-16)
(0.395827 6.99413 2.87961e-18)
(2.54529 7.78804 0)
(-0.403598 4.92532 3.05446e-17)
(9.66894 1.80247 -4.83434e-18)
(4.2204 5.02118 5.99525e-17)
(0.651898 2.33691 0)
(5.32236 8.56894 0)
(0.763018 2.06077 8.51742e-17)
(1.138 2.0422 0)
(-0.667564 -0.0945705 -1.18178e-17)
(-0.310647 0.897668 -9.14508e-17)
(-0.265987 7.11048 1.28651e-16)
(0.457076 3.5725 -2.8553e-17)
(3.85298 7.71485 -3.12926e-17)
(-0.41686 3.09432 -5.23216e-17)
(1.03536 0.641448 -1.25559e-16)
(0.229207 0.350992 1.07532e-16)
(0.945675 6.38916 3.89694e-17)
(-0.0805763 -0.299581 1.57588e-16)
(0.0184792 4.74257 0)
(-0.436439 2.37034 1.11429e-17)
(-0.452861 2.68826 -5.91503e-19)
(0.418647 3.54191 0)
(2.05158 8.07791 2.09801e-18)
(1.3671 5.25334 1.43846e-16)
(1.53016 5.40459 -1.05898e-16)
(1.85325 5.36522 1.46426e-16)
(0.0146207 5.83871 -1.76003e-20)
(0.259468 6.57298 -1.15889e-16)
(0.789482 1.17598 -6.71042e-16)
(0.673729 1.33415 0)
(0.861236 1.34981 1.10284e-16)
(-0.385472 1.55141 -2.69312e-17)
(-0.502208 4.67828 3.275e-17)
(0.795967 2.09964 -4.36378e-19)
(1.06172 2.83744 -1.24196e-16)
(-0.279429 5.72664 -5.44885e-20)
(-0.0559016 3.76043 0)
(-0.681832 -1.149 -1.83394e-16)
(1.03764 4.22921 3.73194e-16)
(3.166 3.09441 0)
(9.15614 0.117577 2.1313e-18)
(1.07975 9.02687 2.7264e-17)
(0.528937 1.14049 8.03128e-18)
(0.450126 4.64927 3.69955e-17)
(0.475815 0.680096 0)
(1.65669 6.94364 9.79918e-17)
(1.31437 6.31181 -1.85159e-16)
(2.53101 12.8792 4.6159e-18)
(2.3672 6.06547 5.31084e-17)
(1.0458 0.18283 -5.55214e-17)
(0.708356 -1.41229 -2.5161e-16)
(0.0204285 -0.208344 7.86279e-17)
(0.988283 1.85264 -1.05482e-16)
(0.736398 3.74195 2.49445e-16)
(-0.397271 2.29577 -1.4374e-17)
(0.193153 6.05433 -5.6333e-17)
(-0.0107505 6.91592 1.37313e-16)
(11.5837 0.0602003 -9.71629e-18)
(-0.222457 0.0593736 -4.54504e-17)
(-0.349015 0.525021 -1.12206e-16)
(0.981275 4.88305 -2.09202e-17)
(1.69721 1.84504 -1.24915e-17)
(1.53032 2.92021 -2.38708e-16)
(-0.0130269 0.00477246 -1.11067e-16)
(0.732839 4.26427 1.40554e-16)
(0.738261 2.14943 1.00074e-16)
(0.865353 7.17941 -6.63859e-17)
(-0.116888 4.4219 -1.55617e-16)
(0.402185 1.09198 0)
(2.33072 7.04601 -5.1755e-17)
(0.552898 0.866245 0)
(0.547015 2.06766 1.14969e-16)
(0.501977 1.55434 0)
(0.489607 0.0240931 5.17172e-16)
(-0.369369 2.92768 -1.58186e-16)
(0.487165 3.57786 3.5354e-17)
(1.43357 6.07376 7.91682e-17)
(4.01928 -0.0573926 -5.96225e-17)
(0.294955 0.648199 1.47059e-16)
(0.290328 4.84459 -1.5605e-16)
(1.05441 2.02503 7.79771e-17)
(0.103663 6.91738 -1.35287e-16)
(4.76996 4.46187 -1.8786e-16)
(0.283421 0.300247 6.716e-17)
(0.514435 4.55931 0)
(-0.256662 4.65529 -3.07382e-17)
(0.748578 1.8545 8.1327e-17)
(1.1973 6.70869 -1.89993e-17)
(1.09155 5.73952 1.11581e-16)
(-0.737599 -0.849949 1.63871e-16)
(1.74569 3.79484 1.73302e-17)
(-0.350368 0.789946 1.17668e-16)
(-0.549634 6.58688 -4.90022e-18)
(0.111934 4.91264 1.23944e-16)
(1.83892 6.15535 -9.29441e-17)
(-0.0521716 -1.47121 6.19421e-17)
(1.14856 6.05049 -6.53804e-17)
(0.422532 6.06632 -1.48051e-16)
(1.27504 7.63148 -4.46199e-17)
(-0.099246 -0.0270395 0)
(9.7627 0.759294 -1.28148e-16)
(7.84549 2.81387 9.19141e-18)
(0.0103488 4.46864 1.01011e-16)
(0.209073 1.13567 5.60045e-16)
(0.534055 2.72118 3.1728e-17)
(-0.198212 0.530613 0)
(2.55951 0.0623684 -1.5559e-16)
(-1.06277 0.650001 6.40396e-17)
(-0.138206 -0.29611 -2.91798e-16)
(0.651477 2.22944 4.20967e-19)
(0.777689 -0.969314 -1.55222e-17)
(0.516461 4.05412 4.63457e-17)
(1.38774 1.26075 -7.71519e-18)
(9.63202 0.482163 0)
(-0.339093 3.91888 0)
(-0.368268 0.676516 -5.76796e-17)
(-0.0584978 -0.762184 2.35383e-16)
(10.2306 0.555471 0)
(0.0124861 -0.0059925 2.99653e-19)
(1.32844 6.64556 -2.51608e-16)
(0.744533 1.23677 0)
(0.965242 1.71131 0)
(1.49704 1.59264 -1.40914e-16)
(1.58281 4.03129 1.89414e-17)
(9.04216 0.414343 0)
(0.734258 -0.0874811 2.07782e-16)
(2.06995 -0.564006 -1.25207e-16)
(-0.345259 1.61806 0)
(0.463115 5.04338 0)
(-0.369918 -1.47844 1.6961e-16)
(-0.0387283 0.316418 -8.68341e-18)
(0.023862 1.10083 1.43869e-16)
(-0.217116 2.73525 -2.62102e-16)
(-0.0703634 6.22634 5.01628e-17)
(-0.427639 0.264066 0)
(-1.00939 0.156542 0)
(-0.59688 4.42553 -1.14645e-16)
(3.03446 0.508145 -2.78883e-18)
(1.45296 3.70164 -1.85593e-16)
(-1.20132 0.103357 1.7376e-17)
(3.90647 6.6174 -3.09636e-18)
(1.59459 0.443005 0)
(1.31059 5.32535 0)
(0.383484 3.47489 -6.2541e-18)
(-0.752869 0.210939 0)
(-0.0988565 4.45994 0)
(11.1059 0.643496 -1.35467e-18)
(0.171693 5.11807 -2.43979e-16)
(2.27987 0.475152 0)
(1.27055 3.01384 -3.49353e-18)
(0.441966 5.84553 2.25432e-17)
(0.149893 5.95026 6.64082e-17)
(1.34961 1.73847 -1.9992e-16)
(0.638533 6.49141 -3.44913e-18)
(-0.265708 6.28132 3.02644e-17)
(-0.311843 -0.166724 7.12335e-20)
(-0.392961 5.81633 -2.93379e-16)
(-0.274186 1.02933 -5.25324e-19)
(-0.00031197 2.65577 2.07569e-16)
(0.688471 0.481259 -2.96408e-16)
(0.243438 6.25122 1.42122e-16)
(-0.485928 5.9237 0)
(0.0690679 6.70428 1.79566e-18)
(10.6063 0.249761 -7.07159e-18)
(0.453299 2.97392 0)
(0.82629 0.253266 5.76461e-16)
(0.993571 0.754311 1.69945e-17)
(-0.123653 2.5987 0)
(-0.088715 1.06267 3.55739e-16)
(1.89814 8.00542 0)
(1.68283 8.92943 2.58712e-17)
(0.883527 -0.00349368 0)
(3.21586 1.66952 1.56941e-17)
(-0.230109 0.783573 -2.63775e-16)
(0.425929 0.482465 -1.16896e-16)
(0.831464 0.430567 -2.24288e-17)
(-0.40121 2.2004 2.16225e-16)
(0.0143458 6.26036 -4.63739e-17)
(3.82729 0.544138 9.73581e-18)
(8.60838 0.34624 0)
(0.120408 -0.0307256 -2.24194e-17)
(0.0828744 5.32827 0)
(0.315277 6.16122 0)
(0.556033 0.773634 -1.38038e-16)
(1.57841 5.69127 0)
(-0.430655 2.15495 0)
(0.806199 6.28791 -2.95191e-17)
(1.86077 -0.0214791 0)
(0.527011 -1.40665 1.76844e-16)
(0.289341 6.19404 5.12878e-17)
(0.977936 0.0543848 2.54633e-16)
(0.917758 0.914633 1.53555e-16)
(0.854165 1.54145 1.71736e-17)
(0.149223 0.700744 -6.18207e-17)
(1.01579 0.0667286 -4.41745e-16)
(12.6004 2.79965 0)
(0.384561 6.32942 0)
(-0.118629 7.1208 -1.36419e-16)
(0.424201 0.617668 -3.65523e-19)
(0.522323 6.53107 1.03068e-17)
(1.25788 0.921853 2.2017e-17)
(9.3852 2.17012 3.10305e-18)
(2.24241 1.16733 4.96111e-17)
(-0.555752 1.95169 -7.79651e-17)
(1.16941 0.1488 4.23051e-16)
(-0.445737 0.857131 -2.92882e-16)
(-0.0237955 5.39572 0)
(1.06172 0.121248 4.91982e-16)
(1.07658 0.145331 -2.58031e-16)
(0.394699 4.67223 -2.38936e-17)
(0.682936 0.785874 -1.77818e-17)
(-0.133356 0.719865 -3.98621e-16)
(0.0181758 5.70182 -5.56861e-18)
(0.489478 6.69226 1.46138e-16)
(0.00581695 6.39164 7.50528e-17)
(0.0110945 6.82686 0)
(0.990532 2.73557 8.3532e-17)
(-1.34033 0.0236387 6.4368e-17)
(0.345456 1.46002 0)
(0.168112 5.34923 -1.27002e-16)
(0.0246907 1.80477 -5.84358e-16)
(1.3493 4.78553 0)
(0.686597 0.0811758 -1.79269e-16)
(0.468516 3.08632 0)
(0.79428 -0.340492 -4.58228e-19)
(0.427312 0.365003 -4.1842e-18)
(9.54673 2.80989 1.58965e-18)
(1.49998 6.35028 0)
(1.00428 3.34021 1.58779e-16)
(0.189418 6.10093 -1.02834e-16)
(1.09375 3.41731 0)
(0.897008 -0.629005 -1.20443e-16)
(-0.53438 0.93237 -1.43061e-16)
(0.0837447 5.46784 -1.02801e-16)
(0.106128 4.90335 9.12623e-17)
(0.213824 5.25564 2.31937e-16)
(-1.30687 0.05585 -3.5206e-17)
(0.531038 -0.0205626 0)
(0.0620032 5.79002 0)
(0.489817 -0.12113 3.54181e-17)
(0.356522 2.2506 1.40775e-16)
(0.0928186 5.81355 -3.67371e-17)
(0.564272 0.0343442 1.29022e-16)
(0.268271 1.08624 -2.37898e-16)
(-0.449745 2.42255 0)
(-0.438314 2.3447 8.37795e-17)
(9.90218 8.35872 -1.30834e-18)
(0.294763 5.1903 3.07585e-17)
(0.45052 6.29384 -1.12926e-17)
(0.532241 1.79164 -9.26262e-17)
(1.31504 6.57946 1.46545e-16)
(4.24633 2.14962 2.40667e-18)
(-0.87709 0.0644928 -1.48336e-16)
(1.10382 2.26872 0)
(10.4587 0.624135 2.32144e-18)
(-0.422296 6.67692 4.75905e-17)
(6.82834 0.193255 1.13679e-18)
(-0.416691 1.47993 -1.02114e-16)
(-0.310969 -1.23637 -1.57471e-16)
(-0.611753 4.91772 -2.09797e-16)
(0.384391 6.2166 9.05439e-19)
(0.789572 -0.122821 4.40895e-16)
(1.09539 5 -1.21957e-16)
(0.536279 3.02215 -3.19845e-16)
(-0.177627 3.60467 1.4589e-19)
(0.979517 0.410556 1.53414e-17)
(0.0898772 5.17617 -5.32391e-17)
(-0.323229 7.2372 2.47762e-17)
(0.182964 7.0581 -2.08347e-18)
(-1.73602 -0.590298 0)
(0.879504 0.220646 0)
(-0.502539 4.44114 -5.90173e-17)
(4.68576 0.573619 2.12422e-18)
(8.22941 0.223072 -1.41151e-17)
(0.158813 5.94128 1.45763e-16)
(1.41709 3.49777 -2.55017e-17)
(2.00087 -0.318547 6.35888e-17)
(4.14771 0.395975 9.52702e-18)
(-0.619067 4.56894 4.26908e-17)
(0.336167 3.37539 -9.93257e-17)
(1.02088 1.05393 4.76105e-16)
(0.428624 2.78699 -9.77581e-17)
(0.725598 0.173858 0)
(0.843047 0.130878 -1.31111e-16)
(0.221975 3.6224 -1.08431e-16)
(0.652821 3.80283 0)
(8.17126 1.76444 -8.12004e-18)
(0.758753 0.146017 1.04567e-16)
(4.47982 0.0149549 0)
(0.210364 1.20674 0)
(6.09553 4.18376 -2.45593e-17)
(-0.220215 6.44893 1.5751e-17)
(0.281263 7.08623 -5.83244e-18)
(0.665358 1.35872 0)
(0.553851 1.3238 7.75749e-17)
(2.40161 -0.131767 6.62173e-16)
(0.72174 -0.0676591 -6.71754e-16)
(-0.361098 0.34789 -4.90902e-17)
(1.97051 2.63894 6.76451e-17)
(1.18623 -0.953592 2.27878e-16)
(0.741139 0.00384815 0)
(0.858978 1.78403 -7.22035e-17)
(1.4257 4.18162 -1.54287e-18)
(1.46197 4.98049 6.90756e-17)
(1.10581 2.81515 -2.61399e-17)
(-0.196345 2.08373 0)
(0.360713 5.45367 7.15243e-17)
(-0.297026 2.00077 7.34087e-17)
(1.10331 0.150083 0)
(10.3906 0.62678 1.13585e-16)
(0.412043 5.29052 0)
(-0.291023 3.4826 0)
(3.60309 5.75492 -2.57887e-18)
(0.0787636 5.65434 1.52866e-16)
(0.257617 5.60368 1.30124e-16)
(3.08587 0.0330279 -2.05873e-16)
(1.3507 -0.833183 2.28073e-16)
(0.857363 0.169967 2.72376e-16)
(-0.0810461 4.82389 0)
(0.41083 5.89652 1.24834e-22)
(0.205026 4.63551 -1.74013e-16)
(6.48627 -0.618173 -6.35999e-17)
(0.956553 0.00485783 6.06387e-17)
(0.103115 6.24179 2.68367e-16)
(-1.0654 0.455178 -1.04538e-16)
(2.24583 2.91559 1.3313e-17)
(5.11821 -0.63045 3.91423e-17)
(1.89998 0.0566954 -6.41858e-17)
(0.129837 9.48188 8.10691e-17)
(0.0876137 4.39825 3.44907e-19)
(0.0816575 4.31681 1.00894e-16)
(0.0242903 4.14595 9.22513e-19)
(0.0561619 4.22123 0)
(0.108914 10.235 -7.19932e-17)
(0.0869472 4.423 -1.91718e-16)
(0.0289074 5.40684 -7.98783e-19)
(0.0510311 5.36925 -2.2142e-17)
(0.0235491 5.32628 0)
(0.056042 5.56551 4.4991e-17)
(0.154187 8.91968 0)
(0.210274 10.9764 0)
(0.0603271 5.79859 -5.95167e-17)
(0.293379 7.77493 -4.0947e-18)
(0.227606 8.37936 -3.81749e-18)
(0.0507811 5.9382 1.89563e-17)
(0.0714483 4.37978 9.99183e-17)
(0.0563699 4.37435 0)
(0.0157516 5.95575 -2.62627e-17)
(0.0552403 4.40801 0)
(0.0595399 4.48911 0)
(-0.0312233 5.89897 1.95575e-17)
(0.0668765 4.59228 0)
(-0.31288 1.70218 7.9014e-17)
(5.1026 6.03767 -5.1588e-17)
(0.891775 -0.134393 2.80174e-16)
(-0.319859 -0.115796 0)
(1.27012 6.14848 -1.01488e-16)
(-1.46388 -0.0979908 1.00359e-16)
(-0.372442 0.466904 5.58539e-16)
(6.29013 1.37551 -1.62156e-17)
(-0.214074 6.26582 -2.00499e-17)
(0.646445 7.51037 0)
(-1.07654 0.221111 5.09253e-16)
(1.74246 0.428769 2.75792e-16)
(1.34951 0.720155 0)
(4.4238 -0.463287 3.03561e-17)
(0.476519 -0.650967 -2.58959e-16)
(-0.0255827 -0.999269 -1.81809e-16)
(5.97311 5.10288 8.53747e-17)
(1.70917 4.62112 -4.6052e-17)
(-0.357117 2.25369 7.42556e-17)
(1.07299 0.937046 -5.15224e-17)
(-0.983974 -0.0199076 -9.99202e-17)
(6.66997 0.564103 -2.84212e-19)
(-2.25339 0.868364 -2.69562e-16)
(0.0710633 4.7156 0)
(0.953606 5.52178 2.80178e-16)
(1.22443 3.77631 1.43973e-20)
(1.13709 -0.130455 6.98067e-17)
(0.513488 0.140111 0)
(10.6882 -0.168511 2.66167e-17)
(0.127087 1.95111 -1.4925e-16)
(1.93081 0.0802141 3.84187e-18)
(-0.203692 1.55197 1.2071e-16)
(-0.156152 7.15121 0)
(0.567227 2.39352 8.85797e-18)
(0.570344 2.38419 -6.66291e-17)
(8.68333 4.26898 2.06397e-17)
(1.036 -0.319996 3.19637e-16)
(0.872678 0.0826793 -3.14844e-16)
(-1.61133 -0.850992 1.77972e-16)
(0.671674 -0.220229 -7.02401e-17)
(0.486459 3.15938 3.16948e-17)
(-0.0874267 4.90401 -7.48192e-21)
(0.14878 6.16007 -1.82761e-17)
(-0.418828 0.0203241 0)
(0.915091 3.07457 3.04244e-19)
(0.817013 0.485211 6.60473e-17)
(1.8808 0.29057 1.16125e-16)
(0.950177 0.013047 0)
(0.941292 0.568039 -4.12738e-16)
(0.0452271 -0.0634857 0)
(10.4642 0.422179 2.08959e-18)
(0.111388 3.04143 0)
(0.862323 3.47565 -5.81008e-17)
(0.0759751 2.15507 1.45344e-16)
(0.209842 -1.52341 2.55498e-16)
(1.9096 -0.16935 0)
(0.175164 0.177698 -3.57039e-17)
(0.0741092 4.83745 3.94625e-19)
(0.675663 -0.44236 0)
(-1.36433 -0.0150028 0)
(0.728966 3.22924 -1.88319e-16)
(-0.1753 5.46892 -1.0608e-17)
(7.75636 0.0193209 0)
(0.736876 0.339061 -1.34871e-16)
(3.18338 -0.311566 -1.94054e-16)
(-0.12328 -1.2179 0)
(-0.406012 1.37648 2.65093e-16)