/*--------------------------------*- C++ -*----------------------------------*\
| =========                 |                                                 |
| \\      /  F ield         | OpenFOAM: The Open Source CFD Toolbox           |
|  \\    /   O peration     | Version:  v1912                                 |
|   \\  /    A nd           | Website:  www.openfoam.com                      |
|    \\/     M anipulation  |                                                 |
\*---------------------------------------------------------------------------*/
FoamFile
{
    version     2.0;
    format      ascii;
    class       volScalarField;
    location    "0.97";
    object      k;
}
// * * * * * * * * * * * * * * * * * * * * * * * * * * * * * * * * * * * * * //

dimensions      [0 2 -2 0 0 0 0];


internalField   nonuniform List<scalar> 
1431
(
0.0590478
0.470581
1.5374
1.02007
0.0984626
0.680291
0.17238
0.196674
2.80022
1.37901
0.451509
0.112157
0.0787239
0.938444
1.85996
0.467066
1.854
0.159529
0.0583156
0.401023
0.0797389
1.08834
1.006
1.02614
0.901659
0.351354
0.922141
0.859578
0.497551
0.138291
0.917733
0.31427
0.813829
0.147416
0.0934271
0.999623
0.291466
0.312793
0.435182
0.305867
1.97991
0.240064
0.135828
0.0940637
1.15172
0.113983
0.975705
0.21149
0.43166
0.397576
0.136417
1.16734
2.02097
0.202683
0.118485
0.203513
0.892177
1.31718
0.775146
0.0811502
1.24246
0.231036
1.10568
0.292439
0.594323
0.158326
1.41732
0.588879
0.211696
0.322986
0.109385
0.0730485
0.185797
0.606018
0.505226
0.606595
0.105923
1.40699
0.224183
1.36408
0.269584
0.136835
0.0551068
1.30925
1.41265
0.0981149
0.113572
0.379905
1.12598
0.33812
0.238037
0.666061
0.108499
0.311774
0.157297
0.0912304
0.470547
0.265592
0.119887
0.628629
0.287729
0.22279
0.303013
0.112333
0.534066
0.0925278
0.24026
2.31922
1.24668
0.102329
1.59134
0.212757
0.214768
0.245847
0.508289
0.113287
0.157042
1.23154
1.24345
0.909166
0.291917
1.74137
1.12131
0.926621
0.293632
0.089772
1.38706
0.215036
0.110647
0.487488
0.228636
2.00391
0.737994
0.259477
0.105123
0.881843
0.213662
0.221193
0.181942
2.07901
1.72103
0.111997
0.28998
0.452102
0.520483
0.373871
0.267254
2.35241
0.258084
0.368093
0.50709
0.640034
0.200801
0.0265952
0.136349
0.16187
0.283243
0.218022
0.206862
0.261263
0.152486
0.427408
0.277877
0.412155
0.128065
2.05917
0.099844
0.30368
0.136818
0.283534
0.641636
0.527918
0.876441
0.386084
0.28286
0.068236
0.121504
0.498193
0.147108
0.219384
0.316554
1.39831
0.206818
0.281449
0.34858
0.393421
0.230723
0.797372
0.315309
0.299377
0.13935
1.93145
0.0934053
0.254318
3.15177
0.275719
0.23442
0.26198
0.146127
0.083496
0.0496676
0.732463
0.325298
2.05293
0.246432
1.11899
0.0933876
0.305138
0.48974
0.474213
0.264388
0.215899
1.19457
0.299687
0.522874
0.632412
0.200164
0.124113
0.49538
0.304326
0.291839
1.24114
0.431036
1.85384
0.318554
0.531526
0.544476
0.24854
0.418658
0.96402
0.101921
0.732618
0.302621
0.200858
0.196757
0.20489
0.287374
0.121467
0.274543
0.120964
0.31144
0.289483
2.62192
1.58743
0.172356
0.187029
0.309297
0.113444
0.188681
0.549127
0.268914
2.79396
1.30136
0.49666
1.12837
0.662963
0.046086
0.125929
0.62044
0.644179
0.676451
0.261308
0.132478
1.82561
0.198761
0.405997
0.573042
0.249805
0.419783
2.08937
0.239156
0.498883
0.266582
0.265075
0.692922
0.271098
0.303594
0.145202
0.172598
1.42799
2.61003
0.115738
0.364556
0.238826
0.601072
0.798907
0.0982475
0.191168
0.486078
0.292552
0.39181
0.333151
0.193685
0.136961
0.292936
0.214248
0.0996717
0.252638
0.181533
0.240084
0.322864
0.561494
0.049053
0.231531
0.204167
0.248935
0.281682
0.652265
0.630876
0.0426456
0.304625
0.337561
1.2113
0.108349
0.11041
0.285582
1.47104
0.134024
0.197787
0.086664
0.205122
0.0533703
1.53648
0.14076
1.28892
0.163924
0.257473
0.244799
1.26281
0.293965
0.693646
0.0569633
0.0999962
0.138065
0.278005
2.36983
0.133652
0.0431289
0.137216
0.0531968
0.0509206
0.263654
0.274868
0.436967
0.955955
0.0377287
0.323289
0.0189622
0.0388135
0.0276933
0.0891574
0.107684
0.109666
0.0623879
0.0501613
0.105024
0.107204
0.0418039
0.0784949
0.0485262
0.0431808
0.0572216
0.0571649
0.0625891
0.0257484
0.0389356
0.0493572
0.0525959
0.769592
0.906735
0.390977
0.100922
0.0836016
0.337829
0.122862
1.03013
0.693936
0.327959
0.362151
0.0941824
0.124268
0.0660475
0.0223727
0.109167
0.0557104
0.0530046
0.0530978
0.0456223
0.0698717
0.0521216
0.0186251
1.40419
0.465763
0.362255
0.146805
0.253327
0.0435878
0.315593
0.660934
0.279749
0.041922
0.617375
0.308
0.141901
0.615715
0.327516
0.131259
0.251575
0.0399975
0.786842
0.618158
0.266853
0.20637
1.22253
0.482569
0.697916
0.702327
2.24913
0.0927041
0.0443326
0.136358
0.148924
0.693371
0.201308
0.116229
0.79695
0.224872
0.778743
1.70182
0.808626
1.77336
0.201034
0.215396
0.329816
0.120976
0.922643
0.189112
0.351833
0.136383
0.285714
0.170519
1.37961
0.245517
0.198084
0.0710991
0.353511
0.657099
0.168056
0.0909633
0.650734
0.420695
0.504563
0.560038
0.704949
0.167316
0.648392
0.446982
0.373256
0.552369
0.124847
1.29068
0.0828413
0.311909
0.476038
0.123882
0.112962
0.0360177
1.61938
0.243602
0.103839
1.51621
0.128974
0.22542
0.737828
0.255465
0.0907216
1.35077
1.27484
1.88976
0.0512782
0.120447
0.123381
0.76071
0.206992
0.316527
0.337629
0.526187
0.664284
0.268106
0.044193
0.0527333
0.0663573
0.0788955
1.47531
0.0554647
0.119274
1.16323
0.125388
0.32524
0.116291
0.648541
1.4803
0.867271
1.03009
0.619175
0.108131
0.0766131
0.68062
0.136991
1.18585
1.03504
0.119793
0.227473
0.61986
0.315725
0.145777
1.63834
1.3253
0.127137
0.12491
0.0968054
0.136177
0.102257
0.0406012
0.139746
0.223359
0.413995
0.197516
0.112766
0.191848
0.318176
0.238168
0.125334
0.102203
0.363513
0.182981
1.65678
0.190855
0.31385
1.00819
1.07569
1.47417
0.639657
0.667602
0.113202
0.898683
0.390777
0.217374
0.499214
0.0696354
0.115488
0.0581614
0.613974
0.248696
0.108236
0.522602
2.30743
0.775612
0.610172
0.193382
0.387128
0.191924
2.79275
1.79979
1.03449
0.0519093
0.208552
0.20228
1.13295
0.544534
0.0427934
0.901658
1.15943
0.896422
1.39962
0.192922
0.16677
0.126516
0.331237
0.444865
0.116624
0.223388
0.441589
1.01804
0.151938
0.194652
0.461619
0.315445
0.136195
0.400881
0.79566
1.28772
0.359642
0.295321
0.275414
0.199518
0.0485241
0.141352
0.205184
0.0291914
0.545645
0.426466
0.0661961
0.429768
0.948791
0.651262
0.451693
0.062041
1.19567
1.36321
0.987399
0.39505
0.0494538
0.966342
1.19243
0.205721
1.45673
1.30663
1.56231
0.477985
0.0560327
0.157303
0.162505
0.0525101
0.116563
0.307497
0.0473832
0.0501897
0.28046
0.229957
1.23464
0.156901
0.0561075
0.238439
0.158679
0.341973
0.0574327
0.198727
0.541234
0.168267
0.462682
1.58591
0.247207
0.529499
0.106073
1.67172
0.478065
2.29606
1.18966
0.167607
0.187566
0.223023
0.261562
0.619622
2.32304
0.312583
0.25683
0.332175
0.159968
0.448102
1.23654
0.0776814
0.188996
0.22514
0.282762
0.0333771
0.359094
0.903192
0.454455
1.00371
0.0482592
0.264342
0.175867
1.4671
0.323985
0.318114
0.59119
0.481052
0.0483729
0.490923
1.53098
0.0751865
0.42419
0.223171
0.123742
0.205549
0.135169
1.62431
0.869976
0.0513549
1.1994
1.48824
1.04535
0.205214
0.238624
0.0511446
0.0708693
0.0277553
0.272571
0.203684
1.00303
0.0561777
0.18828
0.0487719
0.0958724
0.664598
0.587751
0.788617
0.36277
2.12998
0.126792
0.0441095
0.066423
0.919495
1.38732
0.421396
0.601423
3.31265
0.210122
0.172016
0.413617
0.299461
0.2181
1.74112
0.0464068
0.427517
1.07887
2.02956
0.478129
0.0403541
0.0910912
0.053428
0.470487
0.474162
1.75658
0.190107
0.182116
0.111185
0.698692
0.185695
1.53781
2.34363
0.316159
0.113554
0.591944
0.404719
0.210779
0.444764
0.760192
0.0456376
1.94432
0.190717
0.485128
0.515052
0.236495
0.200663
0.350119
0.522078
0.42128
1.56422
0.797326
0.795967
0.802755
0.854041
0.306003
1.17532
0.19138
0.908113
0.613942
0.499227
0.125925
1.56159
0.0527907
0.0542895
0.244504
0.570737
0.0953198
1.11102
0.196996
0.0527074
0.0957543
0.104839
0.532369
1.63903
0.0581921
2.47812
0.047643
0.0675417
0.245985
1.78556
0.301038
0.192215
0.893322
0.60853
0.362674
0.309661
0.0584542
0.0424302
1.77392
0.22959
0.202699
1.93998
0.220047
0.0450547
0.0788584
0.169604
0.967717
0.14692
1.25633
0.103922
0.280725
0.234315
1.7291
0.0477611
1.2498
0.537592
0.527264
0.518338
0.528194
0.503123
0.508779
0.509213
0.550909
0.391221
0.178097
0.385129
0.192126
2.12569
0.0443728
0.0664298
0.111111
0.0426247
0.0765741
0.0897091
0.0500435
0.574313
0.156439
0.617459
0.039907
0.158902
0.194336
0.261986
0.263787
0.505871
1.53815
0.235613
0.0771607
0.295395
0.312335
0.237184
0.556702
0.37059
0.192682
0.0331115
0.886189
0.170696
0.967753
1.76912
0.320647
0.344473
0.225162
0.229807
0.0629723
0.146979
0.13621
0.0963656
0.215487
0.20397
0.0786279
0.0451349
0.321103
0.915725
0.14972
0.621035
0.0413289
0.247849
0.159932
0.111995
0.123718
0.24829
0.103736
0.0530291
0.201012
0.0446176
0.293398
0.0635317
0.168711
1.27177
1.32582
0.29237
0.447191
1.6759
0.60234
0.269746
0.279185
1.40722
0.043754
0.0779725
0.138686
0.0644788
0.115783
0.115263
0.331052
0.211215
0.794849
0.753186
0.490314
0.28341
0.0379018
0.049881
0.18159
0.223017
2.50313
0.147276
0.369833
1.10249
0.732096
0.356622
0.446179
0.0706169
0.144255
0.21976
0.173792
0.23318
0.211611
0.712317
0.0735374
0.530133
1.51629
0.530236
2.34253
0.19054
0.294797
0.375117
0.335734
0.355559
0.395323
0.314023
0.28882
0.371718
0.0898234
0.066972
0.250616
0.257543
0.0795559
0.0557076
1.62464
0.10391
0.139989
0.060072
1.1664
0.0827391
0.498385
0.259272
2.06606
0.0702303
0.217847
0.136449
0.245327
0.163642
1.61328
1.77223
0.0928041
0.138066
0.369759
0.0628418
0.169879
0.799858
0.0497066
0.951651
0.876553
0.348494
0.324999
0.583708
1.54635
0.481485
0.239939
0.068753
0.115412
0.257653
0.664709
0.404817
0.183868
1.31698
1.12963
0.643451
0.0933762
1.47225
0.0160821
0.65303
0.0620215
0.2527
0.160233
0.450831
0.328086
0.077646
2.95941
0.66022
1.77167
0.101455
0.901119
0.993796
0.456458
0.194216
0.202451
0.198438
0.794206
1.97142
0.350444
0.297163
1.26252
0.907912
0.228255
0.264875
0.775848
1.57552
1.02255
1.42955
0.160333
1.55759
1.04664
1.25773
0.113486
0.96375
0.728289
0.0846046
0.187787
0.124105
0.440556
2.13649
1.03791
0.944954
0.281262
1.61227
0.0822596
1.63093
1.35576
0.316484
0.145769
0.210082
0.723842
0.0977537
0.0710694
0.0351547
0.148037
0.10187
1.45455
1.65641
0.189885
1.8654
0.0925551
0.46116
1.93196
1.16609
0.161686
0.100961
0.164634
0.3997
0.0404955
0.206076
0.140277
2.08553
0.349511
0.588746
0.214414
0.209585
0.546129
0.309447
0.327449
1.78634
0.175629
0.202081
0.535769
0.89652
0.244191
0.117804
0.0746618
0.778004
0.353134
0.355113
0.0760772
0.0657118
0.111285
0.0460274
0.248114
0.0692514
0.581726
0.800861
0.449193
2.51588
0.0626733
0.385007
0.116894
0.208378
0.507821
0.038739
0.132377
0.334496
0.112949
1.23464
1.34431
0.0271598
0.543699
0.880375
0.0919122
0.374933
1.18216
0.0629191
0.0403633
0.636781
0.0568752
2.28801
0.13715
0.678545
0.241947
0.889251
0.564063
0.0620302
0.458646
0.249547
0.0608351
0.115247
0.366739
0.0342304
1.02683
0.021601
0.137862
0.0926127
0.20234
0.134957
0.356025
0.0436005
0.096732
3.00079
0.147164
0.302734
0.231769
0.57076
0.0686008
0.0495499
0.0645707
0.186052
3.28909
1.44192
0.304431
0.207027
0.732084
0.0847914
1.07525
0.259512
1.33413
0.0623579
0.0328483
2.23581
0.107205
0.152555
2.4307
0.788831
0.513458
0.28753
1.30819
0.0296581
0.0388925
0.0862548
1.42123
1.05318
0.978369
0.0555277
0.0460153
0.0196757
0.336467
0.368647
2.94912
0.928201
0.603572
0.366324
0.20508
0.0381605
0.123369
0.284185
0.856539
1.28267
0.192941
0.109797
0.218058
0.634615
1.58837
2.38536
0.432431
0.039432
0.0930433
1.20493
0.544502
0.0310633
2.35573
2.01266
0.781259
0.461683
0.227475
0.30092
1.83298
0.982488
1.24021
0.112994
2.64303
0.677101
0.346161
0.0530585
1.3257
0.351677
0.359985
0.88704
1.67646
0.388738
0.11759
0.0472206
1.6265
0.206486
0.145233
1.12633
0.190839
1.48357
0.430771
0.0715387
1.90287
0.197399
0.467162
0.269716
0.412551
0.344115
0.611188
1.45335
0.0969292
0.958294
0.0284469
1.16393
0.808819
0.104931
0.103846
0.103923
0.142735
1.62788
0.853168
0.201201
0.200041
0.653206
0.108057
0.0814588
0.987976
0.270366
0.120091
0.38106
0.201911
0.161618
1.94386
1.02255
1.20139
0.462316
1.65001
0.145907
0.0496886
0.120529
1.59014
1.6482
0.395993
0.34086
0.924923
1.14935
0.117134
2.49927
0.754143
0.166149
0.0426355
0.265103
0.493608
0.226181
0.390283
0.306163
0.567251
0.680386
0.417047
0.275579
0.230224
0.391318
0.269417
1.55066
1.41032
2.73129
1.22773
0.152903
1.61436
0.76955
1.64575
0.0582953
0.193924
0.350873
0.16198
1.97811
0.0488012
0.0560349
1.98844
0.229095
1.7118
1.7547
1.01476
0.733389
0.792369
0.328528
0.261978
1.14256
0.3338
0.420366
0.0772854
0.139581
0.374285
0.0819298
0.917026
2.13713
0.120717
0.154535
0.099415
0.023975
0.0856479
1.12576
0.087919
1.37063
0.778273
0.355928
0.53812
0.309923
0.164997
0.296253
0.12134
0.0860995
0.213162
0.0754958
1.24476
0.231531
0.61614
0.108593
0.240325
0.356607
0.116426
1.05172
0.0372279
0.0856962
0.130987
0.212523
0.205092
0.0668373
0.0816801
0.522021
0.113205
0.454564
0.13182
0.0899966
0.159628
0.536729
0.299045
0.419173
0.220905
0.0904852
0.243737
0.114963
1.41852
0.106878
0.302406
0.20496
0.0510964
0.394975
0.626296
0.269532
0.514329
0.122262
0.451245
0.154391
1.42738
0.0507787
0.243756
1.36608
0.522385
1.01934
0.104108
2.22892
0.234699
0.711418
1.30782
0.33657
0.325236
0.114399
0.509527
0.300859
0.898349
0.0708859
1.62349
0.0527312
0.77119
0.0515792
0.0707098
0.539908
0.262998
0.342468
0.276137
0.917372
0.145782
0.937202
0.635881
0.587525
0.649071
0.206394
0.119561
0.400692
2.52688
1.20074
0.313016
0.297188
2.85894
1.30027
3.07248
1.34762
1.39947
0.461024
0.206589
0.751023
0.387205
0.135721
0.73854
1.58117
0.128255
0.642128
0.995928
)
;

boundaryField
{
    frontAndBack
    {
        type            empty;
    }
    wallOuter
    {
        type            kqRWallFunction;
        value           nonuniform List<scalar> 
90
(
0.467066
0.421396
0.413617
0.427517
0.478129
0.470487
0.474162
0.591944
0.404719
0.485128
0.515052
0.613942
0.499227
0.570737
0.532369
0.893322
0.537592
0.527264
0.518338
0.528194
0.503123
0.508779
0.509213
0.550909
0.505871
0.794849
0.753186
0.530133
0.530236
0.375117
0.335734
0.355559
0.395323
0.314023
0.28882
0.257543
0.060072
0.0827391
0.498385
0.217847
0.0628418
0.169879
0.799858
0.0497066
0.068753
0.115412
0.0160821
0.65303
0.0620215
0.66022
0.775848
0.440556
0.46116
0.588746
0.535769
0.0760772
0.0692514
0.581726
0.800861
0.385007
0.507821
0.038739
0.0271598
0.880375
0.636781
0.678545
0.889251
0.0342304
1.02683
0.021601
0.513458
0.0296581
0.978369
0.0196757
0.928201
0.856539
0.432431
0.544502
0.0310633
0.781259
0.430771
0.958294
0.0284469
0.462316
0.417047
0.023975
1.05172
0.0372279
0.522021
0.394975
)
;
    }
    inlet
    {
        type            fixedValue;
        value           uniform 0.375;
    }
    outlet
    {
        type            zeroGradient;
    }
    wallInner
    {
        type            kqRWallFunction;
        value           nonuniform List<scalar> 
138
(
0.112157
0.0583156
0.813829
0.147416
0.0934271
0.240064
1.41732
0.588879
0.109385
0.0730485
0.606595
0.737994
0.0265952
0.136349
0.068236
0.121504
0.146127
0.083496
0.0496676
0.732463
1.85384
0.662963
0.046086
0.62044
0.644179
0.676451
0.573042
0.692922
0.601072
0.652265
0.630876
0.0509206
0.0377287
0.0189622
0.0388135
0.0276933
0.0891574
0.107684
0.109666
0.0623879
0.0501613
0.105024
0.107204
0.0418039
0.0784949
0.0485262
0.0431808
0.0572216
0.0571649
0.0625891
0.0257484
0.0389356
0.0493572
0.0525959
0.0941824
0.124268
0.0660475
0.0223727
0.109167
0.0557104
0.0530046
0.0530978
0.0456223
0.0698717
0.0521216
0.0186251
0.041922
0.266853
0.697916
0.215396
1.37961
0.0710991
0.0909633
0.0828413
0.737828
0.0512782
0.76071
0.044193
0.0527333
0.0663573
0.0554647
1.16323
1.4803
1.18585
1.03504
1.3253
0.113202
0.0581614
0.613974
0.610172
0.0427934
0.0291914
0.0561075
0.0333771
0.0751865
0.0708693
0.0277553
0.0403541
0.053428
0.316159
0.797326
0.19138
0.244504
0.104839
0.60853
0.0788584
0.111111
0.617459
0.039907
0.0331115
0.049881
0.712317
0.0898234
0.066972
0.0557076
0.583708
0.643451
0.0933762
0.901119
0.993796
0.0404955
0.0746618
0.778004
0.0919122
0.0436005
0.147164
0.732084
0.0847914
0.0381605
0.123369
0.0715387
0.297188
0.751023
0.387205
0.135721
1.58117
0.128255
0.995928
)
;
    }
    procBoundary0to1
    {
        type            processor;
        value           nonuniform List<scalar> 
29
(
0.152161
0.253819
0.293704
0.293704
1.57326
1.57326
2.02133
0.520335
1.29702
0.492887
0.55698
1.07932
0.198736
0.118287
1.3357
0.622985
2.21768
2.10418
0.421293
0.244156
0.332879
0.225094
1.46075
0.29351
0.29193
2.10418
0.258751
0.819793
0.29351
)
;
    }
    procBoundary0to2
    {
        type            processor;
        value           nonuniform List<scalar> 
42
(
1.18932
0.931116
0.136216
0.119838
0.0385306
1.18932
0.136216
0.131369
0.039404
0.0399167
0.0511343
0.10441
0.0511343
0.19105
0.321575
1.14382
0.321575
0.0373927
0.0406727
0.206851
0.206851
0.0373927
0.0352594
0.231179
0.231179
0.0369211
0.551169
0.0411316
0.853153
0.788824
0.788824
0.0449244
0.0446103
0.0409992
0.0385552
0.136216
0.597549
0.0883345
0.853153
0.131369
0.0808494
0.049362
)
;
    }
}


// ************************************************************************* //
