/*--------------------------------*- C++ -*----------------------------------*\
| =========                 |                                                 |
| \\      /  F ield         | OpenFOAM: The Open Source CFD Toolbox           |
|  \\    /   O peration     | Version:  v1912                                 |
|   \\  /    A nd           | Website:  www.openfoam.com                      |
|    \\/     M anipulation  |                                                 |
\*---------------------------------------------------------------------------*/
FoamFile
{
    version     2.0;
    format      ascii;
    class       volVectorField;
    location    "0.83";
    object      U;
}
// * * * * * * * * * * * * * * * * * * * * * * * * * * * * * * * * * * * * * //

dimensions      [0 1 -1 0 0 0 0];


internalField   nonuniform List<vector> 
5794
(
(0.0862382 -0.322951 -3.32553e-17)
(-0.25024 -0.0296507 0)
(-0.154309 -1.32716 -1.31863e-16)
(0.303633 3.15732 1.04358e-16)
(1.91361 1.79638 2.46512e-17)
(0.0691503 -1.96676 -1.07728e-16)
(2.15726 -0.27174 -1.91166e-16)
(0.246121 -0.122198 0)
(5.81603 0.838042 9.80288e-17)
(0.158465 -0.038847 2.47731e-16)
(4.74687 -0.11023 -3.31942e-19)
(-1.83946 -0.303117 0)
(-2.62628 -0.196461 4.86683e-16)
(0.52588 6.65395 1.80377e-16)
(0.231049 0.0479815 5.33646e-16)
(-0.873209 -0.0967852 -1.49492e-16)
(1.53151 0.00169719 4.6943e-17)
(-0.120483 7.00606 1.20052e-16)
(0.0922374 0.0340664 5.01608e-16)
(-0.0144672 0.446678 1.74327e-16)
(-2.97084 1.77156 -4.55112e-17)
(-0.0294319 -0.946326 -1.56581e-16)
(3.2324 -0.0685853 2.38774e-16)
(0.778571 -0.0670793 -6.35044e-16)
(2.17446 0.149275 -3.86536e-16)
(2.93285 10.5647 2.12924e-17)
(6.08016 -0.520039 0)
(-0.10281 2.13558 -1.4102e-16)
(0.069646 9.37911 -3.67347e-17)
(0.065817 -0.0474729 3.19696e-16)
(-0.103041 -0.89159 -6.29613e-16)
(-1.75056 0.0254661 -5.0628e-16)
(-2.1396 0.115046 -8.86135e-16)
(-0.358551 -0.31453 4.53008e-16)
(-0.856061 0.170321 -2.1176e-16)
(-0.74927 0.19697 2.14511e-16)
(9.77177 0.595464 -2.14495e-16)
(2.14234 -0.458977 0)
(3.18281 -0.370245 1.29417e-16)
(0.0611947 3.34292 0)
(0.142602 2.47404 -1.02514e-16)
(-0.811955 1.59323 1.40281e-16)
(7.39878 0.111318 -8.85762e-19)
(0.294357 2.71308 0)
(0.274693 0.0350632 -4.65411e-16)
(4.85863 -0.169492 1.32007e-16)
(3.61206 -0.177561 -2.47746e-16)
(-1.88792 -0.341074 0)
(0.137122 0.0309754 8.89217e-16)
(0.745121 -0.155003 6.77197e-17)
(-0.0855551 -0.0260067 -1.72742e-16)
(5.97214 -0.220096 -1.77802e-16)
(-0.236525 -0.127915 0)
(0.459198 0.228817 1.73363e-16)
(-0.065641 -0.0576935 1.0551e-17)
(5.0957 -0.511144 0)
(3.67985 -0.370826 -1.99689e-16)
(-1.93434 0.104689 1.43786e-16)
(8.39903 0.0640315 0)
(4.40768 9.93367 -7.17293e-19)
(9.14239 0.475772 1.8805e-18)
(0.345186 0.942039 -1.25623e-16)
(0.104544 -1.39114 -1.44763e-16)
(-0.878894 -0.0500444 2.07766e-16)
(-1.22195 0.140783 0)
(1.00635 0.198202 -2.56219e-18)
(0.239713 0.827872 -2.32324e-16)
(-0.15849 3.63513 0)
(0.0949544 5.03157 -1.41389e-16)
(0.0917691 0.557108 -2.34811e-21)
(4.61568 -0.486571 1.37632e-16)
(0.362947 2.36074 -2.90472e-16)
(11.448 2.05805 -3.43162e-18)
(1.8187 0.117147 0)
(-0.0235923 6.38127 1.23656e-16)
(0.0804715 1.11767 3.37768e-20)
(0.261689 -0.153514 1.39191e-16)
(1.60472 10.3635 -2.2085e-17)
(0.44162 2.81649 3.62441e-17)
(-0.415005 0.139197 7.29236e-17)
(0.111448 -1.02665 -1.84921e-17)
(-0.0389919 -0.083296 -1.90036e-16)
(0.179865 1.45781 -2.51142e-19)
(2.31327 -1.50564 -8.59874e-17)
(1.15667 -1.27419 -3.78093e-16)
(-0.117781 5.36393 -4.03383e-17)
(0.216148 5.82095 3.11497e-17)
(0.0318347 5.27343 -2.47197e-17)
(0.787535 0.087454 -1.681e-16)
(2.27015 1.18352 -4.49618e-17)
(0.917136 5.61129 -7.88593e-17)
(0.0428209 6.71259 -8.41697e-17)
(-0.0754243 7.57521 1.29573e-16)
(0.110939 7.60035 5.73775e-17)
(-0.0468629 6.70262 3.22608e-17)
(-2.14363 0.046107 5.2439e-18)
(0.0149755 6.21761 -5.49941e-17)
(-0.119104 7.32483 -1.40306e-17)
(-0.021607 6.65307 0)
(8.86555 0.525657 -3.04422e-17)
(1.7204 3.22271 -1.21878e-16)
(-1.14801 0.177501 -4.11676e-16)
(8.28831 0.14224 7.24187e-17)
(0.453591 5.77456 -2.37444e-16)
(0.225055 0.0719507 0)
(-0.343304 5.70655 0)
(0.156413 0.881705 0)
(-0.304843 0.0655623 -2.75127e-16)
(-1.39547 0.57509 -1.20273e-16)
(0.626443 2.87072 -9.82381e-17)
(0.42472 -0.103875 7.64423e-20)
(0.14953 -0.0922078 0)
(-1.46829 4.69225 1.13043e-16)
(-0.111314 -0.0456715 1.56526e-16)
(-0.0185441 6.54124 0)
(-0.0988002 7.73347 0)
(0.131269 -0.00519666 -3.85088e-16)
(-0.307707 8.37411 -9.80756e-20)
(9.39001 0.426943 -2.38979e-20)
(10.8461 0.600125 5.96866e-18)
(-0.458801 7.76407 1.05944e-16)
(0.794642 0.0285331 0)
(-1.67612 -0.111809 0)
(-0.0141835 1.55933 -1.87452e-16)
(0.328659 -0.0273871 2.42651e-16)
(4.78661 2.38021 5.00486e-17)
(0.746051 5.22398 0)
(-0.155061 -1.7818 6.88372e-17)
(6.13857 -0.609464 1.17841e-16)
(-0.466096 -0.0445584 1.66018e-16)
(-0.0712638 -0.799214 3.36752e-16)
(-0.565543 -0.985131 2.15523e-16)
(0.213163 1.0881 2.32275e-17)
(1.10975 10.0135 -6.69828e-17)
(-0.409534 6.5328 1.34416e-16)
(0.314071 0.0345265 0)
(4.32845 -0.202335 9.17517e-17)
(0.418088 0.935761 -1.83834e-16)
(-1.09478 -0.0307606 1.53509e-16)
(0.171401 -0.321407 0)
(1.76511 -0.279053 -4.63289e-16)
(0.415568 2.63706 0)
(0.324086 -0.100826 0)
(0.337905 3.05157 2.4714e-16)
(-1.07664 0.0253048 1.57145e-16)
(2.20853 -0.0970356 1.55537e-17)
(-0.906171 0.94929 2.25481e-16)
(7.75425 0.282824 2.32072e-16)
(1.49299 1.11653 -1.80929e-18)
(0.12982 1.28938 3.91687e-16)
(7.24408 -0.175627 -1.72745e-16)
(0.542317 0.198158 3.20498e-16)
(-0.347216 5.897 0)
(-1.31162 0.312336 1.85441e-16)
(4.26637 -0.696801 0)
(4.1305 0.116057 0)
(2.18433 -0.652797 -2.49996e-16)
(0.700837 -0.330048 4.12888e-16)
(5.24227 0.180931 -2.61404e-16)
(1.19015 -0.565906 -1.35921e-16)
(0.0201354 -0.013426 4.3262e-16)
(-1.10625 -0.142459 -3.74527e-16)
(-0.124439 -0.0811036 0)
(-1.35949 -0.0417812 -1.43868e-16)
(-2.96214 0.0210192 -2.97039e-16)
(-3.09544 -0.0925261 1.62027e-16)
(-1.05663 -0.190539 1.31442e-18)
(-0.117691 -0.290415 -4.33481e-18)
(0.302237 -0.0547693 0)
(0.0312739 -0.0145881 1.04428e-18)
(0.0859424 0.0707337 0)
(-1.84489 0.411722 -1.13605e-16)
(-0.95908 0.152948 0)
(-0.975959 0.239499 1.03025e-16)
(-0.608819 -0.0557711 4.38366e-16)
(3.05903 -0.0345143 0)
(-0.0969574 0.0499167 -2.6021e-16)
(1.99922 -0.00991158 -2.31195e-16)
(0.290496 -0.181847 -9.28703e-17)
(6.19462 0.110936 6.71085e-18)
(0.815644 -0.167682 -5.57792e-18)
(-1.11492 -0.314304 0)
(1.74124 -0.0537626 0)
(-1.88796 -0.328979 1.23514e-16)
(0.767047 -0.250674 0)
(0.128541 -0.837177 6.95423e-17)
(-1.31889 0.135251 -1.46125e-16)
(-1.233 0.300118 -9.97255e-17)
(0.0694723 0.00850259 1.46161e-16)
(-1.03496 0.103434 3.36804e-16)
(4.64857 -0.0694684 -3.39231e-16)
(-1.82359 -0.108449 3.74358e-16)
(-2.28376 -0.0869624 5.90567e-16)
(0.480227 -0.504187 6.0331e-16)
(-1.07779 -0.525481 -9.62903e-17)
(-0.519137 -0.412125 -5.2176e-16)
(0.951168 -0.338094 -2.23327e-17)
(-0.207024 -0.107453 -1.88937e-16)
(0.0410175 -0.0189852 -3.21027e-16)
(6.42167 -0.0463295 1.20768e-16)
(2.75921 -0.177448 -1.89438e-17)
(5.86983 0.0119767 0)
(-1.05008 -0.45036 0)
(-0.117528 -0.152683 1.1323e-17)
(3.61152 -0.00915775 -5.82856e-17)
(4.79595 0.0242313 0)
(-0.249528 -0.26934 1.18563e-17)
(0.344264 -0.0236551 2.12019e-19)
(4.82642 1.04747 -5.74404e-18)
(1.936 8.67304 1.22615e-16)
(0.718878 1.23808 1.08e-16)
(9.74812 -0.010253 0)
(-0.937394 -0.0726654 -1.15412e-16)
(-0.692773 -0.549138 1.8184e-16)
(0.325132 -0.427748 0)
(0.974986 0.209671 7.67712e-16)
(0.935827 0.147399 -1.76562e-16)
(1.05049 1.41062 9.56135e-17)
(4.13411 -0.199467 1.31697e-16)
(1.39844 5.64059 -1.71595e-16)
(9.66562 -0.00597888 0)
(2.01371 0.51329 2.13561e-16)
(-0.354399 1.99259 0)
(-0.0571898 5.35655 2.63471e-17)
(5.1773 0.122921 1.30264e-16)
(11.2314 0.717959 2.11229e-18)
(-0.827491 -0.256971 -7.2191e-17)
(0.373115 -0.170687 -1.26045e-16)
(0.377591 -0.118823 0)
(0.279121 0.00111669 -3.37446e-16)
(-0.900274 0.299247 0)
(-0.983023 0.399184 -6.89511e-17)
(-0.687095 0.0496889 -1.09389e-16)
(-1.05869 0.733401 1.50364e-16)
(1.79898 0.280411 1.65071e-16)
(9.71951 0.151407 5.67618e-18)
(7.67337 0.896731 1.88768e-18)
(7.31773 0.518944 2.84418e-17)
(-2.11853 0.0532266 -1.54896e-16)
(0.758395 -0.865733 -3.87211e-16)
(-0.424156 -0.127594 0)
(1.19859 0.837573 1.16355e-15)
(1.45014 4.61452 2.14271e-16)
(-0.754975 0.698327 -2.58144e-16)
(-1.38778 0.878626 2.62974e-16)
(0.420261 -0.0750658 2.95136e-16)
(0.328225 0.0020214 -1.60942e-16)
(1.31937 0.751786 8.53227e-18)
(-0.118255 6.00171 0)
(-0.0375639 5.96495 0)
(-0.00966693 5.04537 0)
(0.658379 0.183992 2.78446e-17)
(3.04076 -0.639317 -7.12319e-17)
(-0.358512 0.11062 -2.98168e-20)
(7.29286 1.18942 -5.70248e-17)
(4.57263 2.27275 -9.07623e-18)
(8.20004 0.213839 -1.48949e-16)
(9.0096 0.521085 1.57079e-16)
(0.071358 -0.336278 2.90387e-16)
(0.254549 -0.00330608 0)
(6.00406 -0.0558416 -1.1095e-16)
(-0.894223 -0.148646 9.94309e-17)
(-0.377239 -0.70205 -1.04699e-16)
(0.956309 -0.0487448 0)
(-1.41083 -0.149081 0)
(-1.7156 -0.218801 -5.88423e-19)
(0.11739 1.89023 1.40918e-16)
(3.80683 0.791419 0)
(0.104045 -0.00977507 -7.70826e-16)
(4.37492 0.0161244 -1.2279e-16)
(3.38068 -0.0475744 0)
(-0.220936 -0.831252 -2.90994e-16)
(0.821408 1.6285 -4.78386e-16)
(4.85097 -0.350716 -1.67252e-16)
(9.50785 0.0892114 3.59128e-17)
(0.132966 -0.00618227 3.43938e-16)
(0.47223 0.201169 -1.85714e-16)
(1.79328 -0.0880809 -8.35552e-17)
(0.463306 0.120356 -1.98387e-16)
(-1.64114 1.11561 -2.44121e-16)
(-0.348253 -0.12317 3.78635e-16)
(0.927907 3.32845 2.53852e-16)
(0.182548 3.2096 9.8675e-17)
(-0.528726 1.09123 -4.3221e-16)
(0.31415 4.69344 4.71294e-17)
(-0.124435 5.35198 1.11e-16)
(0.023332 6.03133 1.23857e-17)
(-0.00303681 5.97428 0)
(0.599583 5.84285 4.10142e-17)
(-0.478808 7.79506 0)
(-0.541772 0.304834 -1.79947e-17)
(-0.621238 0.450426 -1.43502e-16)
(-0.423164 -0.18697 2.51687e-18)
(0.627137 0.163685 0)
(8.07369 1.7056 0)
(1.19961 7.44785 7.15549e-18)
(0.211604 3.32496 5.92932e-17)
(-0.421349 0.665597 -1.54217e-19)
(0.286976 4.51374 -2.02449e-16)
(0.797578 -0.0744447 -1.72592e-16)
(0.00359658 -0.23552 1.31894e-16)
(-0.473172 6.31078 0)
(0.0158232 -0.967193 -7.38192e-16)
(0.712589 1.99652 0)
(0.698973 0.898905 -1.61337e-16)
(3.59938 0.269928 1.62593e-18)
(0.516295 0.0500313 -2.76257e-16)
(0.222068 3.31681 2.73956e-16)
(5.01874 0.105252 2.42649e-16)
(3.89401 0.0400096 0)
(0.182514 -0.411846 -6.675e-16)
(-0.176375 0.484651 -3.02475e-16)
(1.34617 7.5371 -1.36398e-16)
(-0.0756024 -0.0634435 -8.81857e-17)
(10.592 0.119464 0)
(10.0195 0.299014 -1.79308e-17)
(-0.0758563 0.0584395 -9.81578e-17)
(-0.178694 2.87087 -2.61964e-16)
(-2.06364 0.37757 -2.153e-16)
(0.189189 7.19342 -4.05606e-17)
(0.0632876 -0.130474 4.8532e-16)
(1.24305 -0.605171 -2.06101e-16)
(-0.204537 7.51477 -7.64886e-17)
(1.8602 1.35891 -7.97782e-19)
(-0.842846 -0.16119 0)
(1.67582 -0.486182 0)
(2.03078 -0.0338453 0)
(-1.35255 -0.320645 6.7637e-17)
(-1.9448 -0.321798 -3.23703e-16)
(4.52289 -0.130672 2.97258e-16)
(6.24792 -0.0287656 -6.96512e-18)
(6.59049 -0.125271 3.01942e-16)
(-0.603047 -0.394125 9.33208e-17)
(-1.83982 0.256091 4.89322e-16)
(-1.67374 0.143419 0)
(0.112236 -0.0535939 -2.6296e-16)
(0.298392 -0.0307775 0)
(0.132691 -0.092569 0)
(0.0939681 0.0392279 -3.54272e-16)
(-0.607512 0.0195013 0)
(0.589788 -0.179375 4.37194e-16)
(2.12933 0.0128675 3.94906e-16)
(6.34809 0.385077 0)
(3.22743 -0.124898 0)
(-0.0748079 -0.038952 4.44402e-16)
(1.61724 -0.0108084 3.54662e-16)
(-1.07711 -0.528764 3.21715e-16)
(-0.190565 -0.32935 -2.41557e-17)
(-3.02101 -0.145208 -1.21167e-16)
(2.49812 -0.0123502 6.97172e-17)
(3.56082 0.157417 5.99925e-17)
(0.638192 0.0920264 2.41629e-16)
(-2.36647 -0.166258 -2.23124e-17)
(-1.69733 -0.214298 1.51804e-16)
(1.26142 -0.300166 0)
(-0.834468 -0.574853 0)
(0.0714689 -0.0317377 1.92175e-16)
(5.30441 -0.418726 1.69477e-16)
(2.27528 -0.111354 6.84684e-17)
(0.359081 -0.217965 0)
(0.202166 0.00465353 -2.73584e-16)
(1.26287 -0.52829 4.74083e-16)
(4.75139 -0.0848192 3.62442e-17)
(1.92536 -0.583791 -3.39736e-17)
(0.660495 -0.572817 -2.94457e-16)
(0.414313 0.121136 5.29564e-16)
(-3.21642 -0.00699544 -3.73842e-17)
(4.28604 -0.340139 0)
(3.10353 -0.272732 3.36321e-16)
(-2.02196 0.0541817 -8.61071e-17)
(0.403449 0.117251 -1.40443e-16)
(1.06341 -0.0349245 0)
(0.563563 0.169942 -1.19846e-16)
(-0.286488 0.498916 2.83983e-16)
(0.51993 0.0608182 8.89366e-17)
(-2.78303 0.164877 1.37972e-16)
(3.82202 -0.0212499 0)
(2.75996 0.130243 9.00509e-17)
(-1.83466 0.527831 0)
(0.150493 0.0343884 1.60469e-17)
(0.473135 -0.564655 1.54148e-16)
(0.38563 0.0692716 0)
(10.7759 0.0867595 0)
(-1.05538 0.0966765 1.54796e-16)
(-1.1255 -0.046947 -6.20284e-16)
(-0.312467 -0.295424 -3.6347e-16)
(-0.230487 9.09434 -2.86442e-17)
(-0.0896597 -0.552396 3.19924e-16)
(0.310411 -0.759898 -1.09613e-15)
(-0.730017 -0.244354 0)
(0.398166 -0.122925 -8.13272e-16)
(-1.17929 1.04989 -6.79695e-19)
(0.138119 0.750664 -2.50068e-18)
(-0.218012 -0.295419 1.67223e-16)
(-0.678346 0.202075 9.13941e-17)
(-0.562458 0.24713 -9.8753e-17)
(-0.690557 0.0336657 1.1063e-16)
(-0.0528299 0.791365 0)
(0.280177 0.00967469 0)
(2.76829 -0.00656457 -2.60514e-16)
(0.723733 -0.269528 1.40493e-16)
(1.92725 0.0276595 -4.01101e-16)
(9.04831 -0.236293 3.1929e-17)
(0.474105 -0.0599474 2.00168e-16)
(0.226452 -0.114638 0)
(6.4626 0.968222 4.585e-17)
(-0.138761 1.16977 2.70808e-20)
(0.236223 -1.84735 1.78325e-16)
(-0.00403921 0.779417 -3.88411e-17)
(-0.249925 5.82748 -6.02024e-17)
(-0.0916412 7.16589 2.21831e-17)
(0.135417 6.68983 0)
(0.867161 0.477686 1.7382e-16)
(-0.963079 0.314283 2.75204e-16)
(5.07714 -0.029755 1.9986e-17)
(3.88936 -0.0618988 7.19384e-17)
(-0.0447852 -0.283464 0)
(0.218375 3.55448 1.72704e-16)
(-2.41675 0.181383 0)
(-0.153696 6.34716 3.79874e-17)
(-0.0338704 6.66921 -6.5227e-17)
(-0.152832 7.37755 2.93825e-17)
(-0.00926604 -0.0340762 -1.58828e-17)
(0.406524 0.168989 -4.23403e-17)
(-1.20499 0.0348115 0)
(-1.25624 -0.029921 0)
(-0.385421 -0.118749 -2.04258e-16)
(-0.151664 -0.0192423 -2.04916e-16)
(0.0020999 0.379735 -1.51122e-17)
(0.0732863 -0.912591 5.40695e-17)
(3.67429 0.688355 3.14026e-16)
(10.0014 0.162361 1.27534e-17)
(0.173678 2.36891 -2.77411e-16)
(0.959936 -3.04563 -2.08927e-17)
(0.228219 0.00925818 3.42329e-16)
(0.0111854 -0.00980475 0)
(0.0769059 -0.349047 1.72966e-16)
(0.654676 -0.518338 -9.91647e-18)
(-1.34302 0.0218621 -9.80073e-17)
(-1.31076 -0.119518 2.02134e-16)
(-0.226086 -0.193105 2.60058e-16)
(9.95045 0.0977884 -2.48858e-16)
(-0.0247588 -0.362966 0)
(0.333819 -0.360006 7.96315e-17)
(1.8406 -0.0270575 -2.08651e-18)
(-0.0407746 7.73908 -5.62446e-17)
(-0.00701938 6.57427 1.22284e-20)
(-1.0385 -0.149277 0)
(-0.229439 0.370594 2.43846e-16)
(1.26375 0.367819 -8.10433e-17)
(0.434118 -0.0806153 -2.33514e-16)
(0.0176294 0.335681 -7.82552e-17)
(-2.76803 1.33663 4.60232e-17)
(-0.0329874 -0.978196 -5.29662e-16)
(-0.112295 6.62188 -2.62658e-17)
(0.931208 -0.0317542 -5.13945e-16)
(0.361359 5.28318 -2.18834e-18)
(-1.5903 -0.484322 -2.16036e-16)
(-0.0646949 6.5574 -3.15709e-17)
(0.958881 6.53779 8.64597e-17)
(0.300603 -1.14493 -1.09298e-16)
(-0.133192 0.140891 -2.64095e-16)
(-0.304066 0.397335 1.87829e-16)
(0.307392 -0.163086 -3.8596e-16)
(8.51561 0.569637 9.15006e-17)
(-0.467475 -0.0501427 -2.85022e-16)
(10.0471 0.352112 -2.12962e-18)
(2.74097 3.23918 5.60741e-17)
(0.549215 0.0682526 -4.42387e-16)
(0.916022 2.39518 -4.80996e-17)
(0.773739 0.00704595 3.76706e-17)
(6.32077 1.07228 -4.67938e-18)
(1.55149 0.712897 -6.86199e-17)
(0.576885 -0.258244 3.11907e-17)
(0.341411 0.0238639 -2.18962e-16)
(-1.01449 -1.0517 1.12549e-15)
(8.35121 2.11037 -2.61516e-18)
(-0.16507 2.64979 1.54022e-16)
(1.58062 0.154205 1.78469e-16)
(-0.092611 0.0313635 6.25171e-17)
(-0.990508 0.530345 2.7585e-16)
(0.168442 -1.03233 0)
(0.923757 -0.112352 -1.96175e-16)
(0.591956 -0.193656 1.36713e-17)
(0.0260851 0.0346862 1.83207e-16)
(3.41175 -0.128652 -5.45886e-20)
(9.81079 0.0305902 0)
(1.43974 -0.00823077 2.17836e-18)
(0.994983 -0.00152015 -4.95799e-17)
(0.0488083 -1.07483 2.40362e-20)
(0.00529388 0.0642006 2.37449e-16)
(0.0123989 4.61359 -1.3693e-16)
(-0.165791 6.17158 4.13271e-16)
(1.68455 0.92669 7.60932e-18)
(-0.147534 1.00303 4.97005e-22)
(0.255721 -0.231241 2.56237e-16)
(0.135969 0.0160588 0)
(0.25702 0.0610323 0)
(-1.03546 -0.124785 -3.18392e-17)
(6.90806 0.831304 -1.39003e-19)
(3.35722 1.99483 2.0472e-17)
(8.56586 1.2234 -5.6489e-18)
(10.3793 0.52648 3.23593e-18)
(0.736473 0.0778073 0)
(0.130829 2.9046 0)
(-0.250028 0.158487 2.57159e-16)
(0.478984 -1.09505 2.15049e-16)
(8.94725 0.488385 -4.42196e-16)
(1.59609 0.703621 0)
(0.98616 0.00322765 0)
(-2.0842 0.136679 2.03731e-16)
(0.554936 -0.0251504 1.70418e-18)
(0.453321 -0.406516 -1.57736e-16)
(0.884131 -0.0708023 1.88591e-16)
(0.0074963 -0.100021 -1.01197e-16)
(-0.0161644 6.54519 -2.96141e-17)
(-0.193341 7.61792 -1.36437e-17)
(0.859188 -0.114677 -2.4831e-16)
(9.91232 0.163822 -6.59431e-17)
(9.0818 0.0727612 3.53103e-18)
(0.362811 -1.4319 1.36857e-16)
(-0.126133 0.521697 -4.0395e-17)
(2.31925 2.16861 -9.7146e-18)
(-0.491321 8.56732 -1.2761e-16)
(-0.196304 0.0063068 1.0714e-15)
(-0.620374 -0.478138 6.74756e-18)
(0.888831 0.419515 0)
(5.48913 3.74388 6.52506e-17)
(-0.0693703 0.486475 1.26207e-16)
(0.159849 -1.19528 4.16096e-20)
(-0.765922 2.05178 1.81781e-16)
(-0.590285 -0.0532698 0)
(10.2306 0.173969 0)
(0.0723616 0.0624125 -7.18673e-17)
(0.455893 0.0212261 0)
(-0.55827 0.442846 8.45856e-17)
(10.0298 0.0641084 -1.03959e-16)
(4.85359 -0.0299225 7.48679e-17)
(-0.451967 -0.00864278 1.25508e-16)
(7.02841 0.0277128 9.44234e-17)
(-0.0113925 -0.915879 8.45407e-17)
(-0.755926 -2.5768 1.81996e-16)
(0.0396219 0.456916 2.38844e-16)
(0.630684 6.48483 -1.04638e-16)
(1.37933 -0.0769309 -7.23314e-17)
(-0.786999 -0.125721 0)
(9.71826 0.816145 0)
(0.390982 3.05513 -2.34813e-16)
(-0.368392 -0.0356738 -2.07653e-16)
(-0.483248 -1.57773 5.93584e-16)
(0.56628 5.3028 -2.53989e-17)
(0.23536 0.0894416 0)
(-0.028368 0.0484523 -5.02843e-16)
(1.35098 1.59492 -1.42591e-16)
(-0.763306 -0.965573 1.42935e-16)
(0.280865 -0.174022 0)
(-0.274066 2.21555 0)
(0.221627 -1.31695 0)
(-0.0629761 0.565988 -1.9416e-16)
(0.666175 1.93482 6.67341e-18)
(10.0491 2.82867 -2.36223e-18)
(-0.00906578 0.00660802 0)
(5.38258 1.30479 0)
(0.565231 0.242846 -1.00289e-16)
(0.829602 6.63079 7.41317e-17)
(1.45999 0.126577 0)
(-0.776067 -0.0626646 3.99273e-16)
(0.315633 -0.10221 1.53301e-20)
(-0.217153 -0.608344 -1.64587e-16)
(0.954728 -0.0874895 0)
(8.07103 0.589906 -6.28092e-17)
(-1.59685 0.684327 -1.51383e-16)
(0.577988 3.04977 7.19848e-17)
(0.0473317 4.27435 0)
(0.90115 3.71871 -1.05025e-17)
(9.93687 0.256465 -1.98714e-17)
(2.87272 2.60003 -3.67748e-18)
(0.256884 5.25896 -1.28246e-16)
(-0.524115 1.07077 -2.69544e-16)
(0.176592 3.53305 -4.33471e-16)
(-0.163272 6.88623 5.01689e-19)
(0.0380232 6.64679 4.65497e-17)
(2.59181 2.63994 0)
(10.436 -0.207239 2.10755e-17)
(-2.6817 -0.222637 1.36044e-16)
(8.91564 0.815317 -1.16522e-16)
(-0.198091 0.023436 1.86373e-16)
(-0.0977777 6.68537 0)
(-0.0483706 6.74631 -5.22133e-17)
(-0.208611 4.93026 1.84213e-16)
(0.972705 -0.0527401 -7.30932e-18)
(-0.510753 -1.01998 5.12491e-17)
(0.625239 0.767041 6.42504e-18)
(-0.135115 6.64171 -2.77225e-17)
(-0.0158039 6.56279 -2.93128e-17)
(2.02646 8.85137 5.52869e-17)
(0.141301 -0.0167363 2.17508e-17)
(10.1292 0.167894 0)
(0.201506 -0.208425 5.25247e-16)
(0.304014 0.141883 -1.12261e-16)
(0.811099 -0.130704 -3.36209e-16)
(7.54605 0.580767 1.65694e-17)
(-0.0228396 6.66331 -4.50497e-17)
(-0.0954347 6.80873 1.87197e-16)
(0.908744 -0.0585327 -6.63816e-20)
(-0.408181 0.0771509 -1.20153e-16)
(1.03957 6.5772 0)
(0.186106 0.00257086 0)
(-0.0610808 -0.146523 -2.11475e-17)
(-0.441834 2.13703 0)
(3.27222 4.02318 -5.29316e-17)
(4.61904 2.92344 0)
(1.02633 5.6264 -1.54086e-16)
(-0.182471 0.603066 7.16097e-17)
(1.07721 0.0213009 3.61027e-16)
(1.17037 -0.0771005 4.5164e-17)
(7.22467 0.674855 -1.48497e-17)
(3.8783 -0.00665165 -2.32446e-16)
(7.70095 0.140272 -2.87145e-16)
(2.19686 0.201275 0)
(0.202298 0.87901 -8.41032e-17)
(5.13655 2.95211 1.59756e-16)
(3.63873 1.66615 -7.3084e-17)
(0.0643297 0.0295691 -3.70937e-16)
(0.262354 0.960927 5.95351e-16)
(-0.647839 -0.615628 3.29829e-17)
(-0.229405 0.501763 -4.00259e-16)
(1.27043 1.90343 -1.04017e-19)
(0.930601 1.16275 -2.42613e-16)
(-0.434984 0.0178819 1.94831e-16)
(0.322384 -0.75964 9.62119e-17)
(-0.232623 0.107819 0)
(0.0720774 0.367247 -7.9592e-17)
(0.244966 -1.08859 -7.40998e-17)
(-0.0975747 0.483584 3.25139e-16)
(0.882639 -0.136231 -1.15577e-16)
(1.34048 8.6631 -3.61913e-17)
(10.6516 0.424072 -7.20911e-17)
(0.245479 -0.0882754 1.19008e-16)
(-0.173819 2.63867 -4.70763e-17)
(0.58033 -0.0569469 -1.42284e-16)
(8.65855 0.164588 3.53068e-16)
(3.97287 -0.137034 -2.40079e-17)
(-0.0176802 6.73601 3.45189e-18)
(4.29698 -0.150976 2.45082e-16)
(-0.0679517 4.8378 -1.74443e-16)
(-0.0156995 5.84336 8.52366e-17)
(7.24981 0.297139 0)
(0.0161184 0.209914 -1.27595e-16)
(0.0112203 0.033442 3.03683e-17)
(-1.38315 -0.824934 0)
(1.53391 1.04976 -1.58002e-16)
(0.0563238 0.101448 6.90131e-17)
(1.04838 0.313019 2.74407e-16)
(0.969146 0.112292 2.82557e-16)
(3.86646 0.1866 -4.11548e-17)
(8.79205 0.522231 -1.09653e-18)
(1.08369 1.40027 -1.61719e-16)
(-1.13207 0.106768 2.95465e-16)
(-0.580063 1.14928 -2.84629e-16)
(0.588065 -0.216121 1.25832e-16)
(0.894481 -0.0944742 0)
(0.0150615 -0.995055 -1.11654e-17)
(-1.99843 1.05609 -2.8328e-16)
(-0.0164782 -0.0237974 -1.78183e-20)
(-0.0363666 6.02407 2.68719e-17)
(0.200618 5.55951 -2.76795e-18)
(-0.124192 5.27243 -1.09497e-16)
(0.144922 5.99379 3.08203e-17)
(2.01597 4.61735 -1.40283e-16)
(7.16397 0.346236 7.02782e-17)
(0.0103733 0.802213 0)
(10.284 0.981589 0)
(-1.45394 -0.040514 3.77599e-16)
(-1.31902 0.0659712 5.20615e-16)
(-0.0181548 6.65617 1.37993e-16)
(-0.0432645 6.92806 -1.25912e-16)
(1.13111 -0.139666 1.24266e-16)
(1.16151 5.7611 -4.04962e-17)
(1.03336 -0.246897 4.80498e-17)
(-0.683978 -0.22756 2.37379e-17)
(0.383073 -0.0737607 1.62325e-19)
(0.395422 0.214887 -6.79106e-17)
(-0.691263 -0.152448 -9.61209e-18)
(0.503134 2.21589 -5.07341e-17)
(3.52 -0.0725474 -4.01269e-16)
(0.613423 4.167 6.51082e-18)
(0.147546 0.0507344 1.73534e-16)
(0.440735 0.171026 0)
(0.78341 -0.185664 0)
(0.144031 2.79746 0)
(0.782608 6.18619 2.25243e-16)
(1.12816 8.50186 2.41672e-16)
(-0.136355 7.04638 2.18523e-16)
(0.710885 0.0815845 3.85148e-17)
(5.87023 3.27498 -3.85666e-17)
(0.327761 0.105885 0)
(-0.161036 -0.206747 1.01856e-16)
(-0.0886566 -0.824808 3.37959e-17)
(10.5377 0.0566878 -7.5049e-18)
(0.0934807 0.0155366 -1.15332e-16)
(-1.51866 0.213944 3.21455e-18)
(-0.63849 -0.0396753 -1.64178e-16)
(8.97628 0.374867 -2.02343e-17)
(0.764584 1.73756 0)
(3.47193 1.19572 -3.49598e-16)
(3.27009 0.807982 2.13287e-16)
(0.76759 -0.175265 0)
(0.0449589 0.168619 7.89232e-17)
(1.30101 2.32096 -2.57034e-16)
(8.66833 0.159043 0)
(1.71233 5.89057 -4.56528e-16)
(-0.100655 6.28174 -1.23475e-16)
(0.393785 3.20511 0)
(1.17609 0.559118 0)
(11.3914 0.282593 4.35984e-17)
(10.3648 0.351423 3.36796e-17)
(8.88798 1.22849 1.82378e-18)
(5.3878 2.18026 -5.47627e-21)
(0.377854 2.34132 0)
(1.36374 0.618511 2.03986e-16)
(2.15016 7.19863 -2.96765e-17)
(4.63748 -0.0579133 0)
(0.154211 0.0390649 -4.8575e-16)
(3.9367 2.10766 1.98407e-17)
(0.114401 0.878061 -1.27747e-16)
(9.36432 0.917358 -5.19253e-17)
(10.8739 0.0435397 7.81704e-17)
(1.66342 1.86396 -1.83233e-16)
(9.93469 0.416445 -1.55438e-17)
(-0.0300635 6.8008 1.52373e-16)
(0.757131 8.75444 4.18019e-17)
(0.591278 6.90509 -1.01102e-16)
(6.77716 3.61917 0)
(0.670759 0.118108 1.53316e-16)
(-0.118 -1.00018 -1.84095e-16)
(2.30559 0.093249 2.71696e-17)
(-0.042506 0.0786814 1.36745e-16)
(0.0373759 6.70462 3.37284e-21)
(-0.0587673 7.46535 2.23402e-19)
(0.549198 6.02145 7.36294e-17)
(0.035508 0.215302 0)
(-0.0390052 -0.145581 0)
(-0.273663 0.0374343 1.09552e-16)
(0.348919 0.220272 1.72784e-16)
(-0.0801437 5.40955 -1.04182e-16)
(-0.0378 5.98026 -3.44721e-18)
(-0.239151 2.40675 0)
(-0.238051 0.387818 -4.64711e-17)
(10.095 0.11008 8.59253e-17)
(-0.85867 -0.565442 0)
(1.79003 1.41379 -3.44133e-16)
(0.268683 0.189446 7.65871e-17)
(0.914916 -0.0454563 2.45749e-16)
(-0.0335206 6.71542 6.18774e-17)
(-0.14321 7.23785 1.37247e-16)
(9.6132 0.921747 0)
(0.2558 7.38101 -3.55366e-17)
(-0.0401932 6.74225 -3.11296e-17)
(9.50255 1.14027 -9.58714e-17)
(1.9159 0.0715115 -3.745e-20)
(7.34468 1.63397 6.24041e-18)
(-0.147134 6.64168 2.70655e-19)
(-0.0392323 6.12677 0)
(0.00629908 5.56728 2.87878e-18)
(-0.117951 5.1025 -9.61376e-17)
(0.251577 5.87288 -3.79178e-17)
(3.60405 4.15755 1.41616e-16)
(0.261039 1.71662 3.76645e-17)
(-0.123131 7.02315 2.02865e-16)
(0.0195607 6.80461 0)
(-0.276023 5.46093 -1.39434e-16)
(0.971891 1.35619 2.78875e-17)
(0.0341057 0.148248 -1.58079e-16)
(0.608002 0.0657117 8.9706e-17)
(0.081903 0.165764 4.64524e-18)
(-0.60608 -0.350207 1.29747e-16)
(0.514148 -0.063238 0)
(1.11533 3.46457 1.1198e-17)
(-0.14749 -1.83567 -2.0082e-17)
(0.562463 0.00739842 -1.24197e-16)
(8.77577 0.835306 -7.32408e-19)
(-0.104379 0.852657 -4.50973e-17)
(0.385587 -1.44585 -2.16267e-16)
(-0.127418 0.401246 -2.21969e-16)
(-0.122762 6.44793 -2.05642e-16)
(0.0802195 6.54352 0)
(0.577932 0.155859 2.47011e-16)
(-0.137789 6.51543 8.84449e-17)
(0.0661333 6.49933 2.32006e-17)
(-0.577318 -0.0359287 -7.36701e-17)
(3.53039 3.6317 -1.49325e-16)
(-0.863383 -1.37799 4.84245e-16)
(-0.558643 -0.982068 5.9173e-16)
(0.821627 0.746181 -2.60468e-16)
(0.120838 6.16402 2.35071e-16)
(0.00789469 0.321207 -4.31789e-16)
(-0.921683 -0.379298 -1.88573e-16)
(0.0158168 -1.01306 -1.22158e-16)
(1.16431 8.95018 0)
(9.8678 0.102753 0)
(0.0272456 0.0730573 -2.99685e-16)
(0.260839 -0.837862 1.8066e-16)
(0.033896 0.188209 -7.93465e-17)
(-0.770705 -0.482088 0)
(0.596179 0.217266 1.19705e-16)
(0.529635 -0.0280215 -3.46573e-20)
(0.689185 0.375379 -6.19431e-16)
(4.15163 0.0898388 2.21481e-16)
(1.01931 5.05373 1.12639e-16)
(-0.180929 6.72389 -2.75092e-16)
(1.75173 -0.167444 3.82515e-16)
(1.11797 1.02643 -1.5179e-16)
(9.76688 0.904904 -1.34236e-17)
(0.529911 3.28824 2.01164e-16)
(0.318583 -0.249419 1.90824e-16)
(0.593977 -0.000992059 0)
(-0.932516 0.781452 5.40831e-17)
(2.08536 1.37043 -7.34514e-16)
(-0.0420734 0.677701 -2.55527e-17)
(0.318556 -1.72172 2.49169e-16)
(0.0789894 2.29196 2.68084e-17)
(8.61111 0.556373 -1.14266e-16)
(9.80772 0.277227 -1.99107e-19)
(-0.400964 -0.0115633 1.89622e-16)
(11.0667 0.0491008 0)
(0.535822 0.254691 -5.16206e-18)
(0.62157 -0.270236 3.00242e-18)
(0.774623 -0.0217804 -1.91602e-17)
(-0.0171518 6.7181 4.00745e-17)
(-0.102663 6.62067 3.85477e-17)
(0.0185867 5.0765 1.7508e-17)
(10.5215 0.0376226 1.42344e-17)
(0.0809338 0.0413329 -2.89431e-20)
(-0.422839 7.66118 -4.5207e-17)
(0.670842 -0.255868 -6.50156e-21)
(-0.232856 0.869977 0)
(9.11352 1.71289 -4.33086e-18)
(0.780233 -0.634408 0)
(-0.201511 -0.058915 1.02034e-16)
(0.809897 0.0956929 9.57504e-17)
(0.14247 0.881288 4.90908e-18)
(0.622484 0.270493 2.44206e-16)
(-1.13025 0.0744718 2.76174e-16)
(9.3657 0.621918 -1.76557e-17)
(-0.25998 -0.0992555 2.67797e-16)
(1.54131 -0.350933 2.96557e-16)
(9.52841 1.07476 9.8148e-17)
(9.74893 0.303919 4.0866e-17)
(6.0709 2.6313 2.48984e-17)
(0.0149564 6.57646 -4.54416e-17)
(-0.0412369 6.59589 2.39244e-17)
(0.0347977 2.7674 1.20277e-16)
(0.211117 1.84919 0)
(4.20417 0.73421 4.66435e-17)
(5.7247 3.11087 8.50241e-17)
(9.1317 -0.131912 -2.01206e-17)
(0.507798 0.774467 1.10905e-16)
(0.054189 -0.127886 2.64248e-16)
(0.0784224 0.0808406 0)
(8.88423 1.69845 0)
(0.582463 2.10047 0)
(1.29975 2.14841 2.76984e-16)
(0.437554 -0.0982866 1.06064e-16)
(2.33471 4.38565 2.06567e-16)
(-0.0656313 5.54318 2.72311e-17)
(1.36841 7.40748 -5.68365e-17)
(0.148713 0.200185 0)
(0.135078 0.161283 9.8074e-17)
(-0.214225 6.01207 -1.22857e-16)
(-1.15455 0.00150884 -6.15794e-16)
(11.2563 0.115394 9.5388e-17)
(5.8022 1.1981 0)
(0.102534 -1.90254 1.61724e-16)
(1.09215 5.56716 0)
(0.520461 0.245401 1.68489e-16)
(0.228569 0.0483387 -2.51714e-17)
(0.934893 9.63485 6.29271e-17)
(9.90824 1.08218 -1.33849e-17)
(9.86964 0.68259 1.01596e-16)
(-1.13582 0.0834496 0)
(0.740813 2.34854 -5.49525e-17)
(-0.425266 -0.0299659 0)
(8.5966 0.334946 0)
(0.960381 0.308501 -1.32562e-16)
(0.128907 0.0566053 2.4853e-17)
(-2.76044 4.49662 -1.31111e-16)
(2.91898 0.812055 -1.22492e-16)
(0.771498 2.71855 1.36887e-16)
(10.2807 0.105457 -2.1536e-20)
(5.98458 3.57516 -7.7196e-17)
(1.06604 -1.33066 -3.76313e-19)
(-0.0372631 6.41298 5.52462e-17)
(-0.0430455 6.2063 -5.22804e-17)
(0.617368 2.32588 -1.13648e-16)
(1.19614 6.07943 -2.44182e-16)
(1.56645 1.48936 -1.19663e-17)
(0.117639 -1.06044 -3.42302e-16)
(-0.0509827 0.167375 -2.36607e-16)
(0.813766 0.847859 6.17478e-17)
(0.736034 -0.103259 2.10637e-16)
(0.510633 -0.182738 -3.13692e-16)
(-0.0093647 0.683552 -5.53249e-16)
(0.248887 -1.63785 -3.47161e-16)
(6.96319 4.21898 3.36041e-18)
(0.311621 0.903549 5.75045e-16)
(10.0743 0.0423293 -6.28374e-17)
(0.675363 -0.0690236 0)
(-0.26867 2.44057 3.77575e-20)
(3.77809 -0.826281 -1.04843e-16)
(-0.328939 2.53938 0)
(10.081 0.41468 3.94628e-17)
(-0.487326 0.0441009 3.06264e-16)
(0.380161 0.00489244 -2.75866e-16)
(8.95088 1.71525 0)
(-0.0429691 6.57518 3.2225e-20)
(-0.2499 7.75973 0)
(10.0311 0.0843293 0)
(0.656707 0.0724873 -5.23596e-17)
(9.37141 1.21304 -5.29912e-17)
(8.97313 3.96914 -1.80965e-16)
(1.12738 6.80924 2.32522e-17)
(7.34899 2.11296 -1.05235e-16)
(-0.0293025 3.909 -7.14915e-17)
(-0.0051717 4.28447 1.1615e-20)
(-0.0295211 4.53174 -7.03955e-17)
(-0.866865 -1.01201 0)
(-0.0912567 2.42943 1.11207e-16)
(-0.00562146 -0.566919 0)
(0.17655 0.386074 0)
(0.0401953 0.2682 0)
(-0.0724632 0.34232 -2.08132e-16)
(0.341069 -0.24076 0)
(0.0103108 0.368461 1.38809e-16)
(2.85658 2.62535 -2.76735e-16)
(0.0937906 3.49466 0)
(-0.383956 5.22924 1.5381e-16)
(-0.197389 6.45535 -2.40893e-17)
(0.00551089 6.53541 8.4755e-17)
(-0.141482 7.34012 -3.74231e-17)
(0.354827 1.87344 2.15653e-16)
(9.36987 1.02058 -2.7089e-17)
(-0.0441362 0.711031 2.16873e-17)
(0.303538 -1.85919 -6.89981e-17)
(0.939945 0.621473 0)
(0.794361 -0.0958641 4.45709e-20)
(5.11034 1.71755 0)
(0.559686 -0.0661142 1.58015e-21)
(3.81213 0.13144 -4.52358e-16)
(10.0498 0.0515568 3.45454e-17)
(-0.375061 7.75766 1.11767e-16)
(-2.40753 2.46223 -2.93503e-16)
(0.0113083 0.177385 0)