/*--------------------------------*- C++ -*----------------------------------*\
| =========                 |                                                 |
| \\      /  F ield         | OpenFOAM: The Open Source CFD Toolbox           |
|  \\    /   O peration     | Version:  v1912                                 |
|   \\  /    A nd           | Website:  www.openfoam.com                      |
|    \\/     M anipulation  |                                                 |
\*---------------------------------------------------------------------------*/
FoamFile
{
    version     2.0;
    format      ascii;
    class       volScalarField;
    location    "0.43";
    object      nut;
}
// * * * * * * * * * * * * * * * * * * * * * * * * * * * * * * * * * * * * * //

dimensions      [0 2 -1 0 0 0 0];


internalField   nonuniform List<scalar> 
5794
(
0.00166091
0.000667904
0.00242191
0.00565064
0.0104156
0.000742596
0.0016772
0.00147332
0.00232106
0.00165334
0.00201688
0.00108091
0.00156847
0.00527867
0.00128191
0.000785231
0.00585296
0.00546432
0.000911856
0.00079915
0.00170105
0.000842333
0.00221549
0.00130214
0.00145436
0.0031218
0.00660643
0.00759479
0.00465491
0.000675411
0.00157494
0.00119383
0.00242281
0.00248894
0.00326117
0.00349869
0.000787672
0.00109861
0.00218992
0.00457332
0.00688213
0.00306623
0.000739504
0.00073013
0.00149567
0.00230745
0.000958594
0.00113482
0.00142011
0.000960755
0.000199967
0.00294845
0.00136812
0.00174133
0.000151021
0.00230205
0.000911374
0.00157055
0.000733023
0.00387689
0.00132762
0.000535504
0.00131741
0.00278004
0.00574012
0.000919723
0.00417516
0.000683229
0.00497284
0.000729082
0.0060008
0.00437343
0.00727634
0.00256803
0.00498099
0.00502763
0.000442001
0.00278175
0.000852147
0.000235329
0.000747693
0.00112298
0.00422452
0.0020526
0.000986617
0.000971897
0.000764446
0.00101794
0.00132177
0.00376869
0.00501866
0.00223381
0.00368307
0.00549265
0.00276003
0.00808676
0.00396436
0.00339642
0.00214949
0.00142548
0.00148058
0.000775417
0.000752437
0.00707418
0.0045529
0.011465
0.000534157
0.00429018
0.00509085
0.000986683
0.00127664
0.00160264
0.0015357
0.00142404
0.00247305
0.00420853
0.00159836
0.00689122
0.00123716
0.00100213
0.00940281
0.000405415
0.000855137
0.00613237
0.00179107
0.00344412
0.00328194
0.000688443
0.00339328
0.00390946
0.00107849
0.00200959
0.00222613
0.00260874
0.0116161
0.00161093
0.00287459
0.000583481
0.000895063
0.0032248
0.00174392
0.00874145
0.00223038
0.00906494
0.00143825
0.00689444
0.00238021
0.00144723
0.0102298
0.00499102
0.000724355
0.00219332
0.011573
0.000538366
0.00710315
0.00109425
0.00202037
0.00123769
0.00210353
0.000815261
0.000815349
0.00120514
0.00118916
0.00151143
0.00195574
0.00189241
0.00132599
0.00101785
0.00123316
0.000625834
0.000455684
0.00194796
0.00101489
0.000867322
0.000851328
0.00160866
0.000428109
0.000783516
0.000992364
0.00192428
0.000714456
0.000724176
0.000725545
0.00154741
0.000849552
0.00258172
0.0006796
0.00112229
0.0010025
0.00052401
0.00162895
0.000858794
0.00171928
0.00100018
0.00113599
0.00061786
0.000689929
0.00114083
0.00120517
0.00100071
0.00135949
0.00211189
0.00103373
0.00116952
0.000817509
0.00199073
0.000968451
0.00602462
0.00880187
0.00206743
0.00138757
0.000859045
0.00514618
0.0030189
0.00176787
0.00316293
0.00292201
0.00276474
0.00358314
0.00565522
0.000858303
0.00286198
0.00848612
0.00393421
0.00232627
0.0032876
0.000505642
0.00375941
0.00220494
0.00161779
0.0015267
0.00229455
0.00211737
0.00365941
0.00205085
0.00611555
0.00805995
0.00192861
0.00113374
0.00187159
0.00115396
0.00784709
0.00249361
0.00139528
0.000789962
0.0012208
0.00230209
0.00981282
0.00113982
0.00100824
0.000732454
0.00101098
0.00672342
0.000592777
0.000814501
0.0121508
0.000899013
0.000883498
0.00386522
0.00176501
0.00242653
0.00501483
0.00306405
0.000564293
0.000796005
0.0014854
0.00742461
0.00353578
0.001273
0.00289332
0.00124639
0.00115113
0.00439115
0.00497106
0.000870151
0.00142953
0.00210799
0.00205854
0.00252448
0.00155082
0.00160466
0.00326469
0.00648008
0.00279899
0.00411743
0.005341
0.00265353
0.0033115
0.00532001
0.0101015
0.00211995
0.00310486
0.00219745
0.0027957
0.000773197
0.00260971
0.00520961
0.00225457
0.00286878
0.000676078
0.000716469
0.00102269
0.000550186
0.00357129
0.000803914
0.00299736
0.00252577
0.00421036
0.00248237
0.00110728
0.00108275
0.00280388
0.00241447
0.00131948
0.000783632
0.000905361
0.00528075
0.00856941
0.00457427
0.00452698
0.0040358
0.0020459
0.00560878
0.0106965
0.000689616
0.00253164
0.00183601
0.000781701
0.00141183
0.00184823
0.00181981
0.00081529
0.000786744
0.0015079
0.000794839
0.0011643
0.00104496
0.00104721
0.000852706
0.00091895
0.000683987
0.000752708
0.00235982
0.0013961
0.000533292
0.000673132
0.00171947
0.000774942
0.00221361
0.00133351
0.0022782
0.00176943
0.0014892
0.000726106
0.000792983
0.00178084
0.0012286
0.00187969
0.00152332
0.000947827
0.00605129
0.00145763
0.00285441
0.0028189
0.00292489
0.00669867
0.0017499
0.00154572
0.000620646
0.00104835
0.00193365
0.000490445
0.00727911
0.00146974
0.00686062
0.00300969
0.00166401
0.00082233
0.00177996
0.0013686
0.003509
0.00236937
0.000751222
0.0029711
0.00303709
0.00271874
0.00750782
0.0052603
0.00361796
0.00141186
0.00102901
0.00202429
0.000604097
0.0034164
0.000902274
0.000796485
0.000830372
0.00110163
0.00131664
0.00235921
0.00151004
0.00178966
0.00683176
0.000849622
0.000904864
0.00243806
0.000909817
0.00113656
0.000716623
0.00411635
0.00357754
0.00215031
0.00433103
0.00117654
0.00172927
0.000748476
0.000656823
0.00507665
0.00194551
0.00349282
0.00205007
0.00309534
0.00552566
0.00166956
0.00136772
0.00107346
0.00114651
0.00149008
0.000552747
0.00110807
0.00301854
0.000786059
0.00859625
0.00224196
0.00222422
0.0011245
0.000843385
0.00157789
0.00207345
0.00184251
0.00167652
0.000806264
0.00117888
0.000851039
0.00278286
0.00468919
0.00262962
0.000455171
0.00121864
0.00304229
0.00115502
0.000766017
0.00237062
0.000964034
0.00523309
0.000504458
0.00456947
0.00828566
0.00373215
0.00722782
0.00121418
0.000782599
0.000827927
0.00230393
0.00153095
0.00392796
0.00507302
0.0100478
0.00525214
0.00145766
0.00016936
0.00866385
0.00435258
0.0042996
0.00352546
0.00311277
0.00997842
0.0081549
0.00195974
0.000776204
0.000835825
0.00116043
0.00125243
0.00290853
0.00559105
0.00345748
0.000862261
0.0025664
0.00190779
0.000948886
0.00083622
0.00525068
0.00472315
0.0102807
0.000867619
0.00240582
0.000793885
0.00230758
0.000442672
0.00222128
0.011838
0.0100597
0.000730212
0.00231301
0.00977451
0.000645653
0.00129034
0.00109864
0.00475997
0.00103581
0.00804607
0.00244204
0.00353209
0.000600412
0.00105773
0.00239118
0.00397654
0.000578999
0.00080788
0.00673061
0.0012916
0.00070404
0.0107036
0.00816906
0.00441203
0.00102647
0.00222217
0.00207818
0.00080075
0.000897526
0.00108752
0.000385037
0.00486063
0.0029672
0.00630729
0.00193149
0.000786801
0.00292569
0.00387887
0.0020237
0.000880301
0.00264591
0.000652648
0.00422593
0.00140886
0.00071375
0.000757235
0.00906876
0.00127876
0.000774713
0.0075562
0.00173606
0.000441449
0.00159514
0.000926448
0.00221854
0.00103508
0.000862455
0.000793581
0.00885595
0.00892242
0.000431432
0.00313886
0.00213428
0.00428976
0.00247821
0.000881611
0.00352369
0.0003216
0.000883571
0.00164634
0.00282525
0.00145057
0.00142164
0.00138583
0.000859645
0.0108847
0.00377123
0.0025273
0.00634595
0.00519404
0.00262003
0.00797357
0.00416631
0.00332222
0.00137189
0.00149044
0.00477769
0.00242759
0.00491828
0.00103789
0.000950792
0.000704332
0.00555592
0.0027138
0.00309231
0.000844512
0.000831438
0.000561431
0.00249668
0.00149798
0.00177868
0.00287676
0.00569723
0.000607269
0.00273748
0.00280345
0.00102143
0.000175041
0.00160126
0.00949009
0.0115706
0.00610249
0.000983869
0.00072756
0.000990307
0.00204309
0.00104342
0.000856649
0.00230006
0.000305722
0.00312863
0.0039408
0.00585006
0.000431837
0.00100932
0.00170011
0.00941535
0.00624426
0.00124739
0.00190929
0.000897121
0.000270177
0.00107391
0.000702702
0.00149693
0.00294416
0.000811072
0.00349461
0.00881872
0.000916176
0.000829528
0.00406334
0.00255158
0.00276182
0.00541398
0.00268262
0.00100943
0.00209951
0.000891325
0.000409027
0.00210147
0.00308512
0.000644544
0.000629525
0.00291562
0.00714885
0.00377046
0.00158399
0.00208128
0.00189419
0.000887393
0.00104294
0.000897474
0.000766999
0.00331478
0.00562314
0.0055335
0.00268503
0.00278281
0.00191997
0.0010143
0.00589018
0.00138809
0.001521
0.00308531
0.00592432
0.00205468
0.00603592
0.00204492
0.000869789
0.00524851
0.0015544
0.000662494
0.00886006
0.00273047
0.00445564
0.00245476
0.00245778
0.000696055
0.00459019
0.00826655
0.00279597
0.00353484
0.00294942
0.0018758
0.00662631
0.000418579
0.000607141
0.000770423
0.000905025
0.000779902
0.00036843
0.000937052
0.00872633
0.00320099
0.00188792
0.00200908
0.00290895
0.00704362
0.00108336
0.00777817
0.00388777
0.00354936
0.00432214
0.000776072
0.000734982
0.00786994
0.0029268
0.00651851
0.00792072
0.00322241
0.00302629
0.00301091
0.0120958
0.00108126
0.000803774
0.000820537
0.00827716
0.00095702
0.00306397
0.0023759
0.00650152
0.00209258
0.00289644
0.00287848
0.00398497
0.00440377
0.00223654
0.00366099
0.00460621
0.000306287
0.000272977
0.000633315
0.000308967
0.00505506
0.00260845
0.00466164
0.000902056
0.000803639
0.000634158
0.00184517
0.00118216
0.000545751
0.00276423
0.00532492
0.000758013
0.00599809
0.00291864
0.000711677
0.00250007
0.0110462
0.00525129
0.00331863
0.00589836
0.00594136
0.00291184
0.00344478
0.0011862
0.0043642
0.002347
0.00464164
0.0085398
0.00286111
0.00659226
0.0010526
0.0010488
0.00224931
0.00886423
0.000934196
0.00677398
0.00747412
0.00088277
0.00121141
0.000785685
0.0054339
0.00273457
0.00702435
0.00553721
0.00269702
0.000716058
0.00581295
0.00699934
0.00209045
0.00108008
0.00288803
0.000716447
0.0032673
0.000984825
0.00285434
0.000863671
0.00588053
0.00291991
0.000803314
0.000691807
0.00227136
0.00673494
0.00576973
0.00295857
0.00887769
0.00374141
0.00178255
0.00219678
0.00107439
0.0102538
0.00241227
0.0014904
0.00299934
0.00832522
0.000756717
0.00104389
0.000878618
0.00135427
0.00759562
0.0012759
0.00077012
0.00210925
0.00367513
0.00258895
0.00250863
0.00510919
0.00482959
0.000772253
0.00260826
0.00853778
0.00318404
0.00241662
0.00825881
0.000434712
0.000380722
0.000580012
0.00064293
0.00448954
0.00153688
0.000874332
0.0011793
0.00160204
0.000714367
0.000840068
0.0115432
0.00295971
0.00586819
0.00176548
0.00240086
0.0033958
0.00279856
0.00662976
0.0044845
0.000966195
0.00092633
0.000754745
0.00891735
0.00177989
0.00524183
0.00757123
0.00413784
0.00311507
0.00385664
0.00127773
0.00746732
0.00105534
0.000773746
0.00289219
0.000994331
0.00320778
0.00219177
0.0027543
0.00256086
0.000814011
0.000754871
0.000416359
0.00440664
0.00387921
0.000886138
0.000862133
0.00285165
0.00124204
0.00378623
0.00106791
0.000799911
0.00254388
0.00576145
0.00327904
0.00599271
0.00447724
0.00616263
0.010033
0.00104228
0.000859392
0.00726072
0.00106227
0.00206697
0.000694005
0.0010962
0.00195436
0.000464665
0.000791323
0.00123727
0.00500851
0.003369
0.00214494
0.000846487
0.00294158
0.0055528
0.00925273
0.00221147
0.00349187
0.000786356
0.00113066
0.00876106
0.00101378
0.00249628
0.000840529
0.00136202
0.0011443
0.00166138
0.000270665
0.00193204
0.00126623
0.000335627
0.000323696
0.000518858
0.000270444
0.000270981
0.000663375
0.009957
0.0104988
0.00322967
0.00204617
0.00294875
0.00787039
0.00075475
0.000742654
0.00114996
0.00894247
0.000893769
0.0117392
0.00651264
0.00227051
0.000786946
0.00849706
0.00200659
0.000747632
0.00099277
0.0119703
0.00299369
0.00083462
0.00105364
0.000879503
0.00346805
0.00289036
0.0100455
0.000814662
0.000566426
0.000535942
0.000706049
0.000607423
0.00183985
0.000795277
0.000984361
0.000654742
0.00103483
0.000790385
0.00702437
0.000784655
0.00267057
0.00118512
0.00163046
0.000831828
0.00212874
0.00209442
0.00131903
0.000882468
0.000935745
0.000758741
0.00502247
0.000952558
0.00168448
0.00463781
0.00100866
0.000833884
0.00182831
0.000851122
0.00083058
0.00235021
0.000778318
0.0116731
0.00215224
0.000715974
0.000825271
0.000872556
0.0099105
0.000971424
0.00223404
0.00278178
0.0054409
0.000975708
0.00200722
0.00121558
0.000714825
0.000832467
0.00116216
0.00163097
0.00165575
0.00158555
0.000211696
0.0021432
0.00143766
0.00119077
0.00109345
0.00156976
0.000504598
0.00109513
0.000808823
0.00111895
0.000747937
0.00919497
0.000798286
0.00097177
0.000791616
0.000785099
0.000737836
0.00105298
0.00104859
0.00221078
0.00953647
0.00810227
0.00419393
0.000652949
0.00082742
0.00245161
0.000681171
0.00283771
0.00140918
0.00223669
0.00528822
0.000703604
0.00721821
0.000549817
0.000844079
0.00646951
0.000847894
0.0101387
0.000727048
0.000825874
0.00287045
0.00437047
0.000774668
0.00373233
0.000917208
0.00137946
0.000667863
0.00096521
0.00109993
0.000987891
0.000830178
0.000962692
0.00114514
0.00184057
0.00222618
0.0015989
0.0041833
0.000977252
0.000725445
0.00560592
0.00274122
0.0013315
0.000690114
0.00435855
0.00307756
0.00606138
0.00999775
0.0014788
0.00114604
0.000406503
0.0114706
0.00233881
0.00418774
0.00235875
0.00837894
0.0027203
0.000294539
0.00108777
0.000604698
0.000247356
0.00245461
0.00126103
0.0011219
0.00109639
0.000349415
0.00107649
0.000244794
0.000312834
0.000979306
0.00068687
0.00133895
0.00440399
0.00244053
0.00613405
0.000603289
0.00114294
0.00263427
0.00117015
0.000665525
0.000791371
0.00602614
0.000812223
0.0025643
0.00102249
0.000746463
0.000980427
0.0108179
0.00638244
0.000688407
0.00214745
0.00471433
0.0028159
0.00967217
0.000744897
0.00687407
0.00502265
0.00296122
0.000939213
0.00978651
0.000728228
0.000728158
0.00286295
0.0012021
0.00138816
0.00073792
0.00785912
0.0010664
0.000679305
0.0024449
0.00457287
0.00467288
0.000765613
0.000737104
0.00204492
0.000936207
0.0031915
0.000900065
0.00957437
0.0025054
0.0069603
0.00266449
0.00486883
0.00185625
0.000725132
0.00232119
0.00175325
0.0018885
0.00101951
0.000789857
0.00134517
0.0010386
0.0102339
0.000991022
0.00105472
0.00075656
0.000909996
0.000833544
0.000777096
0.000869831
0.000749667
0.00239363
0.00411835
0.00890181
0.000733931
0.000745935
0.00085342
0.00120945
0.00161869
0.00543803
0.00162034
0.00100922
0.00132007
0.000765974
0.00215431
0.000780123
0.000707337
0.00109829
0.000425654
0.000845597
0.0010101
0.00074083
0.00640357
0.000696502
0.00660322
0.000657667
0.00193749
0.00115346
0.000808875
0.000676563
0.00325476
0.0023607
0.00074412
0.000544013
0.00134364
0.00102841
0.00158323
0.0013059
0.00255081
0.000862137
0.00117612
0.00183272
0.00430266
0.00634528
0.00191573
0.000829034
0.000272514
0.0061298
0.00132576
0.00313617
0.00668176
0.000529898
0.000844317
0.00109467
0.00585569
0.00033117
0.00767038
0.00741876
0.00110426
0.0025581
0.00432591
0.00199715
0.000683904
0.00779434
0.0113764
0.00521918
0.00122488
0.00143509
0.000778862
0.00270259
0.000837015
0.00101678
0.000581274
0.000783948
0.00300202
0.00120992
0.000461952
0.00137342
0.000967621
0.000493288
0.00109387
0.00190837
0.00727056
0.000716955
0.00172216
0.00638668
0.00975627
0.0065227
0.00211572
0.00208005
0.000796605
0.00625692
0.00162283
0.00563656
0.00565599
0.0024533
0.0042853
0.00290356
0.00979628
0.00441426
0.00847928
0.00174598
0.0024931
0.00255747
0.00758171
0.00115612
0.00229963
0.00366104
0.00194278
0.00183841
0.00660721
0.0021071
0.00337641
0.00942188
0.000987642
0.000422561
0.000807497
0.00347355
0.000662675
0.00227101
0.00174685
0.000831387
0.0040801
0.00332122
0.00475653
0.00073098
0.00987877
0.00162739
0.00260706
0.00289576
0.00181818
0.00105088
0.000964703
0.00905797
0.000960087
0.00112513
0.000787785
0.00859537
0.00172441
0.00099519
0.00817542
0.00417764
0.00274402
0.00140428
0.00646846
0.00554466
0.000786877
0.000216253
0.00471781
0.00296806
0.00472477
0.00784163
0.00141452
0.00071578
0.00280414
0.00585094
0.000964128
0.00151065
0.00143172
0.00149332
0.00123649
0.00879013
0.000848995
0.00206418
0.00601335
0.00102039
0.00835342
0.00238051
0.000689117
0.00167843
0.00144319
0.000723604
0.00152868
0.00184308
0.00113652
0.00150727
0.00036072
0.00347348
0.000912198
0.000823127
0.00356224
0.00258896
0.00555473
0.000774687
0.00288861
0.00544243
0.00530379
0.000932761
0.00197991
0.00184546
0.00202524
0.000286134
0.000262463
0.000422383
0.00890197
0.000825937
0.00281935
0.00211002
0.00399437
0.00296175
0.00152027
0.000714538
0.000215343
0.000310152
0.000490338
0.000248194
0.000850478
0.000596795
0.000345141
0.000788061
0.000208715
0.000388599
0.00066493
0.000452775
0.00032099
0.000285428
0.000232475
0.000822226
0.000689077
0.000428601
0.000376752
0.000609345
0.000277751
0.000281615
0.000141233
0.000346328
0.000498327
0.000580052
0.000324509
0.00031194
0.000437297
0.000670125
0.000662658
0.000362352
0.000223536
0.000260629
0.000255256
0.000253126
0.000696069
0.00038715
0.000193719
0.000446365
0.0002908
0.000625394
0.000661041
0.00107064
0.00227446
0.00689655
0.000639721
0.0017698
0.00287735
0.00546291
0.00914313
0.00275797
0.000765531
0.000829527
0.00267244
0.00232349
0.00656439
0.0091389
0.00924469
0.00558247
0.00291828
0.00171019
0.00163587
0.000723235
0.00163629
0.000318291
0.00510122
0.00136635
0.0021342
0.00266585
0.00138577
0.00471623
0.00492953
0.00279411
0.0029616
0.00333149
0.00937045
0.00178491
0.00404917
0.00221748
0.000763458
0.0086925
0.00374383
0.00165037
0.00490553
0.00221943
0.00592663
0.00323277
0.00195838
0.000964888
0.000842522
0.000848864
0.00913544
0.00214788
0.000627477
0.000450235
0.00565974
0.0086962
0.000404853
0.00339544
0.0054586
0.000412166
0.00025294
0.000583014
0.000713007
0.000424992
0.000744311
0.000215116
0.000372675
0.000534304
0.000222433
0.00075604
0.00064556
0.000258578
0.000701755
0.00044891
0.000381784
0.000650537
0.000277947
0.000313398
0.000293327
0.000216994
0.000753012
0.000284079
0.00338463
0.00287797
0.000478562
0.000888347
0.00364424
0.000848695
0.00541007
0.000752042
0.00280929
0.00901287
0.00719056
0.00268271
0.00903027
0.00324198
0.000302237
0.00911989
0.00198291
0.00262065
0.0111763
0.00496141
0.00950687
0.000636456
0.00910581
0.00165928
0.000964012
0.00905133
0.000879688
0.00373919
0.00214005
0.000902194
0.000739285
0.00520192
0.00100967
0.00588854
0.0078256
0.00136721
0.00757989
0.00100274
0.0109363
0.00199184
0.000726854
0.000915289
0.00669229
0.000717561
0.00123835
0.00201266
0.00134645
0.00743402
0.000834669
0.00343503
0.000629261
0.00302353
0.00687753
0.0111136
0.000241523
0.000772852
0.000994929
0.00851341
0.00270528
0.000590477
0.000769923
0.00381574
0.00283825
0.00867839
0.000832759
0.00173688
0.000484775
0.00184266
0.00234288
0.000780019
0.00516037
0.000998126
0.000139016
0.000343004
0.00993601
0.0066279
0.000785465
0.00815154
0.00500513
0.000630422
0.00874595
0.00854502
0.00602532
0.00885484
0.00544578
0.00133535
0.00892816
0.000775029
0.00223377
0.00310893
0.00530567
0.000725533
0.00101262
0.00172793
0.00783621
0.0010663
0.001281
0.000890845
0.00318336
0.00323942
0.00572193
0.0089776
0.0095633
0.00404775
0.000832234
0.00699852
0.000572376
0.00198105
0.00189956
0.00118542
0.0083151
0.00813424
0.00317775
0.00912602
0.00270953
0.00812664
0.00138783
0.00241695
0.00221707
0.0026683
0.00100135
0.00220157
0.00103255
0.011982
0.00103458
0.00164064
0.00382444
0.001563
0.00138562
0.00408812
0.00349289
0.00678912
0.00311787
0.0043212
0.00387932
0.00113397
0.00103734
0.00230735
0.00354886
0.00170035
0.000757839
0.00194305
0.00876103
0.00951409
0.0114639
0.00832664
0.0100606
0.0117441
0.0101829
0.00100728
0.0102388
0.00970883
0.0116912
0.00812796
0.00920487
0.00831485
0.00977338
0.00912265
0.00967237
0.00202871
0.0021409
0.00102621
0.00718098
0.00210006
0.00102256
0.00110368
0.00180628
0.000312454
0.000468355
0.00252975
0.00468787
0.00382479
0.00247386
0.00315616
0.0101124
0.00454104
0.00867901
0.00478452
0.00120207
0.00135323
0.00127971
0.00417893
0.00514343
0.0025861
0.00142489
0.00273957
0.00316401
0.00194357
0.00259204
0.0011142
0.0076765
0.00185054
0.000903704
0.00210062
0.000321195
0.00446473
0.00132196
0.0011757
0.00130159
0.00108837
0.00177592
0.00266864
0.00138797
0.00268941
0.00209766
0.00135891
0.00283244
0.0111195
0.00162698
0.00261797
0.00305173
0.00193196
0.00919596
0.00327568
0.00158677
0.00930938
0.00481801
0.00292481
0.00163174
0.00142156
0.00310067
0.0104167
0.0032739
0.00129834
0.00138944
0.00163007
0.00261375
0.00127243
0.0079028
0.00161138
0.00160922
0.00231455
0.00128815
0.00235288
0.00324019
0.00129837
0.00303793
0.00571114
0.00446748
0.00758159
0.0094461
0.00165658
0.0102665
0.00130373
0.00245507
0.0047787
0.00277585
0.00285811
0.00125116
0.0073068
0.00567971
0.00285366
0.00293087
0.00777191
0.00702755
0.00164135
0.0014229
0.00601889
0.0027201
0.00510256
0.00317335
0.0020758
0.00121116
0.00669233
0.0031413
0.00519236
0.00693203
0.00714459
0.00204597
0.00610919
0.000479683
0.0016641
0.00589418
0.00231637
0.0034369
0.001665
0.00172607
0.00247658
0.000735606
0.00495981
0.000713908
0.0030029
0.00513873
0.0013391
0.00484697
0.00307884
0.00373428
0.0007218
0.00221138
0.00124035
0.00395062
0.00385834
0.00213644
0.00373986
0.00338185
0.00246964
0.00112213
0.00552747
0.00499419
0.00119053
0.00191415
0.000546918
0.000847332
0.000448688
0.00702271
0.00072308
0.00137751
0.00323524
0.00699929
0.00280829
0.00137114
0.00121079
0.00705886
0.000963338
0.00140485
0.0015648
0.00349386
0.00245907
0.002585
0.000831698
0.0055322
0.00281417
0.00702672
0.00166838
0.00256753
0.00356331
0.000797408
0.00619608
0.00449531
0.000631596
0.00250076
0.00362226
0.000846899
0.00277769
0.00310146
0.00695218
0.00452064
0.000255471
0.00407602
0.00142654
0.00309513
0.00295684
0.0026356
0.00377712
0.00382854
0.00418348
0.00435241
0.00184345
0.00273714
0.000295362
0.00382619
0.00136013
0.00398599
0.000724427
0.00262935
0.00151093
0.000387589
0.00293818
0.00145353
0.00658852
0.00113506
0.0012772
0.003761
0.000980365
0.0015729
0.0057493
0.00311773
0.00500986
0.00361684
0.000788207
0.00059442
0.00359698
0.00190811
0.00323352
0.000248207
0.00325182
0.000329472
0.00693414
0.00125603
0.00160732
0.00435074
0.0024223
0.00376455
0.00264971
0.00135079
0.000754735
0.00539752
0.00429081
0.00402693
0.00384634
0.0029917
0.00238196
0.00117283
0.00110073
0.00535208
0.0022301
0.00168453
0.00569082
0.00300568
0.00338832
0.0042196
0.000548355
0.00667168
0.000860817
0.00185099
0.00235419
0.00350786
0.000628257
0.00364816
0.00226339
0.00254102
0.00206755
0.00196617
0.00306257
0.00264414
0.00118288
0.00112939
0.002513
0.000568857
0.0006825
0.00609114
0.00264773
0.000583059
0.00654205
0.00736908
0.00242014
0.000743447
0.00225423
0.00118088
0.00234444
0.00379201
0.00445524
0.00342113
0.0013247
0.00185218
0.00248761
0.00307873
0.00206329
0.00526931
0.00145129
0.00108159
0.00417137
0.00398656
0.000682386
0.00401897
0.00343602
0.00454208
0.00206068
0.00107931
0.00444107
0.00190145
0.00228768
0.00138655
0.00266761
0.00225057
0.00321529
0.00220031
0.000868709
0.00128494
0.00213804
0.00646257
0.00132073
0.0065738
0.0027492
0.00274909
0.00420387
0.00431636
0.00342075
0.000567967
0.00284025
0.000533015
0.00720666
0.00266851
0.00109306
0.00872887
0.000802119
0.000823665
0.0120726
0.000457034
0.0018484
0.00351475
0.00475245
0.00228545
0.00634639
0.00285898
0.00739633
0.00414542
0.00301148
0.00306964
0.00250538
0.00314823
0.00411945
0.000721347
0.000625136
0.000587978
0.000376722
0.000429587
0.00419317
0.00182791
0.00087025
0.00120254
0.00419452
0.00546025
0.00350184
0.000388459
0.0116345
0.0103906
0.00185282
0.000985364
0.00331998
0.00413887
0.0030254
0.000577748
0.000509532
0.00610481
0.00283675
0.0019256
0.00387179
0.009133
0.00538939
0.00128376
0.00422649
0.0112707
0.00405509
0.00244023
0.00101068
0.0021151
0.000924978
0.000837179
0.0011369
0.00160538
0.00115559
0.0020676
0.00480754
0.00585756
0.00325986
0.00205222
0.00199791
0.00641777
0.00970551
0.0107682
0.00797995
0.00667829
0.0017506
0.00350722
0.00123368
0.000801516
0.00153079
0.0110485
0.0114657
0.0127909
0.00277149
0.00615923
0.00367915
0.00277138
0.00260262
0.00188962
0.00142229
0.00183835
0.000758666
0.00129468
0.0022232
0.00194163
0.00231238
0.00321293
0.00765243
0.00124332
0.00961902
0.0037089
0.00583813
0.00205049
0.00285805
0.00108552
0.000574924
0.00100724
0.000488946
0.00159281
0.000744249
0.00996848
0.00203089
0.000792808
0.000781065
0.00317887
0.00255066
0.00140707
0.00296443
0.00650019
0.00369424
0.00373533
0.00334306
0.00556212
0.00140577
0.00284267
0.00214331
0.000341025
0.000553815
0.00252768
0.00202409
0.00886406
0.00373112
0.00115159
0.000952205
0.00573404
0.00257735
0.00478376
0.0095212
0.00223594
0.00162418
0.00131587
0.00152147
0.00222557
0.00759934
0.00161337
0.0050183
0.00105423
0.00241795
0.0107117
0.0100501
0.00207248
0.00372625
0.00226858
0.00360165
0.00200197
0.00418806
0.00118827
0.000809032
0.000745957
0.000653818
0.00225197
0.00308417
0.0028236
0.000848233
0.00391456
0.00455765
0.00261961
0.00388741
0.00126024
0.00314607
0.00364821
0.00215935
0.00104104
0.0032699
0.00697725
0.00932926
0.00129164
0.0110415
0.000842719
0.00139314
0.00232324
0.00261528
0.0114129
0.00213287
0.00391823
0.000924803
0.00576619
0.0030963
0.00500397
0.000611604
0.000249752
0.00891388
0.00284294
0.00699092
0.00394239
0.00211692
0.00130348
0.000797431
0.00454035
0.00589062
0.00366802
0.00519193
0.00393937
0.00510444
0.00167882
0.000825599
0.00119807
0.00921053
0.00143015
0.0024166
0.00257229
0.000786803
0.0112341
0.00158423
0.00166583
0.00942716
0.00919552
0.0101084
0.00828131
0.000485834
0.00107081
0.00442709
0.00393847
0.00591082
0.00819345
0.00317718
0.00146139
0.00240586
0.000681746
0.00333333
0.00292308
0.00275631
0.00672549
0.00877814
0.0022159
0.00227159
0.00328136
0.00442491
0.00333455
0.00175532
0.00251869
0.00819615
0.00130465
0.00272335
0.00282826
0.00869002
0.00300266
0.00372953
0.00243883
0.0038515
0.00103185
0.000759691
0.00174451
0.00283187
0.00944122
0.0067793
0.00229898
0.00167978
0.000695634
0.00693154
0.00151045
0.00407652
0.00809818
0.00426042
0.00425396
0.00300811
0.00392649
0.00270497
0.00799138
0.0023266
0.00165099
0.00249559
0.00143504
0.000812175
0.00655197
0.000949535
0.00306027
0.00982882
0.0101825
0.00914483
0.0110746
0.00631909
0.0019072
0.00224594
0.00142947
0.0109989
0.00923188
0.00858456
0.00569898
0.00074204
0.00369421
0.00598367
0.011265
0.00812927
0.00615434
0.0029708
0.00241813
0.00274859
0.00262308
0.00240898
0.000747654
0.00413126
0.000845025
0.00711325
0.000995158
0.00849061
0.00143395
0.00275244
0.00239914
0.00711944
0.0011219
0.00902289
0.00529761
0.00313398
0.000592594
0.0114158
0.00162186
0.00151383
0.00258511
0.000559013
0.0016136
0.00342692
0.00977641
0.0125083
0.00547803
0.00849246
0.0114016
0.00291978
0.00447573
0.0016364
0.00242436
0.000607149
0.000490443
0.00537975
0.00395321
0.00146301
0.00157651
0.00886033
0.00575836
0.000991872
0.00107533
0.00286095
0.0033867
0.000799367
0.00697253
0.00206714
0.00538729
0.00142321
0.00336854
0.000901804
0.0119743
0.00304647
0.00851874
0.00388627
0.00119811
0.00258508
0.00631346
0.00249144
0.000948265
0.0123894
0.00306104
0.00185646
0.00172172
0.000784901
0.0106042
0.00247641
0.00753716
0.00939491
0.000689162
0.00315899
0.000798185
0.00883978
0.0119976
0.00231467
0.00522188
0.00293087
0.00964504
0.000848233
0.000775367
0.000765967
0.00226333
0.000785106
0.00114137
0.00480682
0.00576874
0.00260941
0.00216117
0.00733377
0.000988783
0.0068426
0.0101073
0.00519414
0.000740585
0.00349958
0.00991397
0.000633716
0.000237723
0.000307277
0.00699256
0.00204561
0.00731417
0.00270089
0.00219701
0.00989329
0.0105052
0.00348599
0.00352204
0.00666219
0.00526451
0.00261116
0.00461281
0.000916654
0.00714068
0.00119777
0.00165948
0.000765548
0.00122525
0.00225867
0.00141325
0.00312506
0.00299241
0.0028161
0.00552557
0.00303824
0.00341527
0.00667801
0.00186237
0.00098885
0.00370456
0.00238781
0.00844332
0.00575552
0.00904719
0.00263143
0.00155303
0.000846162
0.0011373
0.00329268
0.00122862
0.00725731
0.00209676
0.00111207
0.00248994
0.00963867
0.00400567
0.00922389
0.000808119
0.0101974
0.000631554
0.00219455
0.00172664
0.00592424
0.00693628
0.00297524
0.00147088
0.00197323
0.00612066
0.000757408
0.00197055
0.00837276
0.0128265
0.00373064
0.00469896
0.00181907
0.0113397
0.00690605
0.00143741
0.00299817
0.00381682
0.00195178
0.00407904
0.00651834
0.00823312
0.000745635
0.00549376
0.0017893
0.00295036
0.00102881
0.00368619
0.00230643
0.00303011
0.000674521
0.00356133
0.00563982
0.00149129
0.00224901
0.000488912
0.00333155
0.0038035
0.00248768
0.000609841
0.00147834
0.00556901
0.00460716
0.00376504
0.00208847
0.000891732
0.00229437
0.00085449
0.000971032
0.00110789
0.00479417
0.00151645
0.00101373
0.00172725
0.00689331
0.000466894
0.00272577
0.00236739
0.000934077
0.00712291
0.00135895
0.000875462
0.00096238
0.00186214
0.00231255
0.00119106
0.00178042
0.00128575
0.00340512
0.00105328
0.00123495
0.0037761
0.00595101
0.000805788
0.00590316
0.00137435
0.00237327
0.00703041
0.00183021
0.00700658
0.00203191
0.000924586
0.000372597
0.000581986
0.0015897
0.00918625
0.00290995
0.00751728
0.00408873
0.00176043
0.00715516
0.0017404
0.0008065
0.00178302
0.00269569
0.00498646
0.00398575
0.00149808
0.000833114
0.00108978
0.00073411
0.00137998
0.0106064
0.00187435
0.00504672
0.0018016
0.000523639
0.00203447
0.000629775
0.00107369
0.00193307
0.0106346
0.00328093
0.00754031
0.0113561
0.000860482
0.00179354
0.00253554
0.0119552
0.00192931
0.00890268
0.0015631
0.00674862
0.00144114
0.000807503
0.00100388
0.00308435
0.00691562
0.00176476
0.00180094
0.00426475
0.00283253
0.00286198
0.00109018
0.00201133
0.00288618
0.0111126
0.00960708
0.00101489
0.00866091
0.00117753
0.00843347
0.00227597
0.0042715
0.00290785
0.00603324
0.00174767
0.00459714
0.0093588
0.0120152
0.00119071
0.00139821
0.00168875
0.000828975
0.000775867
0.00258833
0.00135998
0.00148929
0.0038341
0.00674354
0.0023175
0.000607256
0.00596586
0.000762998
0.00111681
0.00740961
0.00858378
0.00430797
0.00277779
0.00398829
0.00544612
0.000821093
0.000841194
0.00207041
0.00580719
0.00804831
0.000929481
0.00347362
0.00653285
0.00245594
0.00301928
0.00128007
0.00100447
0.000739189
0.000480008
0.000588734
0.000731601
0.00166112
0.00184452
0.000828044
0.000548067
0.000242445
0.000293791
0.00863242
0.00989401
0.000848219
0.00666994
0.00193912
0.00610009
0.00389615
0.00636757
0.00466118