/*--------------------------------*- C++ -*----------------------------------*\
| =========                 |                                                 |
| \\      /  F ield         | OpenFOAM: The Open Source CFD Toolbox           |
|  \\    /   O peration     | Version:  v1912                                 |
|   \\  /    A nd           | Website:  www.openfoam.com                      |
|    \\/     M anipulation  |                                                 |
\*---------------------------------------------------------------------------*/
FoamFile
{
    version     2.0;
    format      ascii;
    class       volVectorField;
    location    "0.43";
    object      U;
}
// * * * * * * * * * * * * * * * * * * * * * * * * * * * * * * * * * * * * * //

dimensions      [0 1 -1 0 0 0 0];


internalField   nonuniform List<vector> 
5794
(
(-0.214548 0.396429 -2.80373e-17)
(0.135171 1.65944 0)
(0.767503 -0.202711 -1.5394e-16)
(0.581357 3.89665 8.89903e-17)
(1.22043 2.86711 2.65172e-17)
(-0.109824 1.43081 -1.06743e-16)
(4.47238 -0.221522 -1.29894e-16)
(-0.34348 -0.101374 0)
(5.73909 0.851448 9.43469e-17)
(-2.01129 -0.284813 1.69738e-16)
(4.73077 -0.105896 -3.18683e-19)
(-0.557967 -0.588268 0)
(-3.38613 0.00299352 4.14849e-16)
(0.102664 7.698 1.52034e-16)
(0.561642 -0.516774 4.48992e-16)
(0.578576 -0.108725 -1.43308e-16)
(1.54312 -0.182988 5.31718e-17)
(-0.427401 7.95573 1.00047e-16)
(0.277358 -0.401557 4.2156e-16)
(-0.0321119 0.900802 1.41019e-16)
(-3.08074 1.82413 -3.96012e-17)
(0.0318963 1.12216 -1.36687e-16)
(4.14747 0.504755 1.90703e-16)
(0.393313 -0.216568 -6.3422e-16)
(1.52315 0.147935 -3.86517e-16)
(2.95338 10.0695 2.06902e-17)
(6.26957 -0.491548 0)
(0.214086 2.91265 -1.29292e-16)
(0.462633 9.19866 -3.48844e-17)
(0.105812 -0.00879924 2.88839e-16)
(0.260838 -0.902389 -5.71749e-16)
(-1.08882 0.00346571 -4.97057e-16)
(-2.1614 0.11889 -8.50163e-16)
(0.843731 -1.34445 3.28654e-16)
(1.42199 -0.614404 -1.75012e-16)
(-1.19406 0.642121 1.73388e-16)
(9.68761 0.611033 -2.04003e-16)
(0.465624 -0.405954 0)
(4.3004 -0.303145 1.08501e-16)
(0.474505 2.91139 0)
(0.701532 0.931306 -1.11259e-16)
(0.299772 -0.982294 1.4119e-16)
(7.2173 0.107654 -8.60765e-19)
(0.159633 -0.0288508 0)
(0.172503 -0.923908 -3.67898e-16)
(4.86205 -0.168093 1.26922e-16)
(1.85485 -0.0933041 -2.69753e-16)
(-1.75773 -0.32395 0)
(-2.65206 0.123533 5.37655e-16)
(-0.249543 -0.792202 6.30339e-17)
(0.60507 -0.0559453 -1.55935e-16)
(5.93299 -0.215627 -1.7096e-16)
(-0.528642 1.06595 0)
(-2.02214 0.191713 1.21105e-16)
(-0.0971601 -0.0873997 9.54363e-18)
(5.10401 -0.519991 0)
(1.84906 -0.278841 -2.2216e-16)
(-1.70357 0.206018 1.31789e-16)
(8.24083 0.0619698 0)
(4.44874 9.51448 -6.85954e-19)
(9.06106 0.480461 1.79405e-18)
(0.344048 1.08324 -1.11449e-16)
(0.381414 -1.41642 -1.29605e-16)
(-0.443756 -0.0423568 2.10485e-16)
(-1.24656 0.145828 0)
(1.12369 0.351899 -2.23921e-18)
(0.174247 0.619586 -2.39162e-16)
(0.393543 2.60362 0)
(-0.223045 5.51134 -1.20653e-16)
(-0.00202068 0.358123 -6.74853e-21)
(4.65534 -0.488646 1.31748e-16)
(0.318079 2.11345 -2.94334e-16)
(11.7649 2.0874 -3.64465e-18)
(-0.00689668 0.695065 0)
(-0.292413 7.16155 1.04049e-16)
(0.494476 1.40029 3.1827e-19)
(-0.827376 -0.279442 1.13923e-16)
(1.59779 9.85644 -2.15457e-17)
(0.10597 -0.113221 5.46593e-17)
(0.914242 -0.0563871 6.06172e-17)
(-0.159949 0.74016 -1.81386e-17)
(0.218428 1.01729 -1.36674e-16)
(0.12436 -0.66603 -6.41511e-19)
(3.58863 -1.56675 -6.98448e-17)
(-0.605702 -0.993065 -3.33633e-16)
(-0.110741 6.25408 -3.32751e-17)
(0.168185 6.0217 2.6567e-17)
(0.0332503 5.14136 -2.41817e-17)
(0.730153 -0.174789 -1.53026e-16)
(2.89243 1.89027 -3.98434e-17)
(0.910608 5.49507 -7.66778e-17)
(0.0246677 7.24608 -7.0561e-17)
(0.00648565 8.05221 1.13881e-16)
(0.122441 7.42837 5.61744e-17)
(-0.0884819 7.83068 2.56023e-17)
(-2.12336 0.0301386 5.03213e-18)
(0.00538086 6.07125 -5.35171e-17)
(-0.0948618 7.87804 -1.22714e-17)
(-0.00331713 7.14368 0)
(8.77921 0.529325 -2.90834e-17)
(1.80222 3.44635 -1.06966e-16)
(-0.863506 0.0311951 -3.7801e-16)
(8.10281 0.138284 7.03585e-17)
(0.117535 7.55523 -1.91876e-16)
(-1.10886 0.272484 0)
(0.107995 5.64783 0)
(0.0333222 1.06133 0)
(-0.401293 0.0736477 -2.5758e-16)
(-1.39633 0.570252 -1.15008e-16)
(0.0491471 -0.135599 -1.53232e-16)
(2.03806 0.576775 -1.8904e-18)
(1.02268 -0.319449 0)
(-1.30535 4.90897 9.69998e-17)
(-0.253415 -0.312652 1.35325e-16)
(-0.106069 7.55325 0)
(-0.0310482 7.62004 0)
(0.186261 0.149918 -3.38576e-16)
(0.0351171 8.43926 -6.19277e-21)
(9.3134 0.432092 -2.44678e-20)
(10.823 0.665323 5.41539e-18)
(-0.0668527 7.47305 9.75396e-17)
(0.559097 0.0456578 0)
(-1.84791 -0.418166 0)
(0.301506 2.11681 -1.78357e-16)
(0.590336 -1.15868 1.71128e-16)
(4.73574 2.38575 4.83703e-17)
(0.275028 4.74044 0)
(-0.0405473 1.5721 6.53163e-17)
(6.10778 -0.595192 1.13624e-16)
(-0.542872 -0.0402344 1.57766e-16)
(1.23085 -0.482136 2.63617e-16)
(-1.45065 -1.13003 1.74066e-16)
(-0.109343 0.534584 2.36137e-17)
(1.0503 9.5228 -6.5269e-17)
(-0.00634056 6.24735 1.27317e-16)
(0.507077 -0.220626 0)
(4.28491 -0.206119 8.8398e-17)
(0.445815 1.07875 -1.6462e-16)
(-0.212369 -0.15516 1.80307e-16)
(1.4185 0.234961 0)
(-0.111743 -1.26218 -4.41859e-16)
(0.119008 4.13246 0)
(0.866362 -0.780482 0)
(0.210251 4.6326 2.12319e-16)
(-0.294582 -0.289852 1.94175e-16)
(2.17462 -0.0140081 1.80637e-17)
(-0.812733 1.23117 1.93241e-16)
(7.66172 0.274071 2.23391e-16)
(0.639082 2.02034 -1.84715e-18)
(0.419289 2.06324 3.40127e-16)
(7.05276 -0.164274 -1.68185e-16)
(-0.120178 0.368138 2.87513e-16)
(0.0916988 5.75623 0)
(-1.21355 -0.0070689 1.68454e-16)
(4.51044 -0.594566 0)
(2.13886 0.016168 0)
(3.35295 -0.722825 -2.12098e-16)
(0.589039 -0.360167 3.76271e-16)
(5.21928 0.184082 -2.51533e-16)
(0.200143 -0.217433 -1.32295e-16)
(-0.759002 -0.0107472 3.5508e-16)
(1.68829 -0.302998 -3.1998e-16)
(2.95431 -0.100754 0)
(-2.87175 -0.0744985 -1.10706e-16)
(-2.94924 0.0166811 -2.83949e-16)
(-3.04766 -0.104681 1.55942e-16)
(-2.70742 -0.216788 1.0115e-18)
(2.63214 -0.0124222 -3.21897e-18)
(2.36186 0.311848 0)
(0.454166 -0.190047 8.51931e-19)
(-0.0417834 0.0251167 0)
(-1.84876 0.412175 -1.08423e-16)
(-1.52313 0.482836 0)
(0.281294 -0.615541 9.62185e-17)
(1.15376 -0.142315 3.76896e-16)
(4.42172 0.173182 0)
(0.650473 0.0562976 -2.13262e-16)
(1.29562 -0.134066 -2.30392e-16)
(-0.41054 -0.419172 -7.78918e-17)
(6.12326 0.110678 6.43534e-18)
(1.80228 -0.0102016 -4.36636e-18)
(-0.693236 -0.218609 0)
(2.16551 -0.0323345 0)
(-1.91815 -0.32914 1.18702e-16)
(0.361048 -0.414464 0)
(0.11642 -0.735287 7.45385e-17)
(-0.887762 0.0684882 -1.34553e-16)
(-1.23766 0.302765 -9.58569e-17)
(-2.56386 0.0173465 1.06343e-16)
(-0.856868 -0.0188289 2.98869e-16)
(4.6388 -0.0648509 -3.2614e-16)
(-1.14334 -0.0642487 3.55689e-16)
(-2.30368 -0.0858293 5.66865e-16)
(0.94227 -0.576586 5.29273e-16)
(-2.13457 -0.6556 -8.33758e-17)
(0.851098 -0.0930971 -4.66523e-16)
(0.268232 -0.239411 -2.16915e-17)
(-1.96134 -0.18238 -1.34747e-16)
(-0.365533 -0.329785 -2.60966e-16)
(6.25881 -0.0461624 1.17154e-16)
(4.78062 -0.0881473 -1.44216e-17)
(5.80976 0.0156984 0)
(-0.938682 -0.473117 0)
(0.182264 -0.266254 1.02876e-17)
(1.81999 0.0227387 -6.04824e-17)
(4.79561 0.0273628 0)
(-1.33106 -0.452117 9.12359e-18)
(0.327492 -0.0916571 2.17728e-19)
(5.33347 1.14515 -6.13548e-18)
(1.89025 8.4876 1.18778e-16)
(-0.0627711 -0.096725 1.32237e-16)
(9.60789 -0.0113688 0)
(-1.76459 0.0623321 -8.62283e-17)
(1.86409 -0.69325 1.37775e-16)
(-0.146881 -1.12426 0)
(1.66281 0.0212268 6.40085e-16)
(2.56464 0.648183 -1.21118e-16)
(0.561974 0.751474 9.53572e-17)
(4.10203 -0.195168 1.2675e-16)
(1.35601 5.57616 -1.65806e-16)
(9.52354 -0.00955878 0)
(2.63977 0.741162 1.82206e-16)
(-0.365002 1.86253 0)
(0.0890517 5.6549 2.29452e-17)
(5.09273 0.119622 1.25151e-16)
(11.5016 0.7717 2.15748e-18)
(0.675451 0.182694 -7.15458e-17)
(-1.20033 -0.75143 -9.62369e-17)
(-1.65519 -0.347826 0)
(0.334978 0.462318 -2.89781e-16)
(-1.35828 0.638756 0)
(1.13957 0.0900597 -5.85324e-17)
(0.298572 -0.765788 -9.38941e-17)
(-1.06343 0.733213 1.43457e-16)
(1.32559 -0.210382 1.56084e-16)
(9.81939 0.0306334 6.11156e-18)
(8.20811 0.780822 1.99981e-18)
(7.25485 0.521636 2.74973e-17)
(-2.10054 0.117042 -1.45947e-16)
(-0.610662 0.487528 -3.74239e-16)
(0.249093 0.734776 0)
(1.20861 0.741716 1.114e-15)
(1.382 4.58039 2.03921e-16)
(-0.613451 0.463353 -2.31286e-16)
(-0.762764 0.136528 2.58204e-16)
(1.65839 0.792731 2.19509e-16)
(-0.0513881 -1.2482 -1.20658e-16)
(0.442089 1.42645 8.56261e-18)
(-0.119581 5.88776 0)
(-0.0532901 6.73757 0)
(0.0151913 5.30965 0)
(0.704097 0.365257 2.42577e-17)
(3.21207 -0.550232 -7.88616e-17)
(-0.62592 0.302905 -1.41185e-19)
(7.13775 1.19126 -5.53539e-17)
(4.73346 2.68129 -1.09411e-17)
(8.00934 0.210131 -1.45058e-16)
(8.90995 0.512188 1.51312e-16)
(0.045487 -0.434421 2.7184e-16)
(0.327712 -0.897693 0)
(5.95526 -0.0609068 -1.06988e-16)
(-1.80107 -0.069235 7.57124e-17)
(2.18932 -0.547551 -7.73482e-17)
(0.890572 -0.623942 0)
(-0.503657 -0.138614 0)
(-2.59968 -0.0303735 -4.6839e-19)
(0.296541 2.86889 1.19124e-16)
(3.76071 0.80059 0)
(-0.351712 -0.369348 -6.3212e-16)
(4.36687 0.0266611 -1.18035e-16)
(1.78108 -0.0459744 0)
(-0.148551 -0.833751 -2.66302e-16)
(1.00427 0.7022 -4.56387e-16)
(4.8559 -0.354244 -1.60803e-16)
(9.35366 0.0824062 3.42702e-17)
(0.584968 0.147301 2.81804e-16)
(-1.90888 0.295389 -1.29561e-16)
(0.613388 -0.794012 -7.81988e-17)
(-0.559782 0.132357 -1.63379e-16)
(-1.81413 1.42953 -2.1838e-16)
(-1.99173 0.091418 2.50268e-16)
(0.884507 3.15852 2.48326e-16)
(1.0368 1.31005 1.0872e-16)
(0.369865 -0.953372 -3.86289e-16)
(0.842056 4.00934 4.84828e-17)
(-0.0911067 5.68414 9.85723e-17)
(-0.00483235 6.73532 1.02029e-17)
(0.00930146 6.74601 0)
(0.61466 5.69392 4.01103e-17)
(-0.102466 7.41428 0)
(-0.775896 0.892767 -1.51494e-17)
(1.82914 -0.154692 -1.04708e-16)
(0.451912 -1.0926 2.00259e-18)
(-0.342329 0.244067 0)
(7.9219 1.70384 0)
(0.961595 7.19226 7.32251e-18)
(1.73522 2.18375 5.10289e-17)
(0.137446 -0.931411 -1.18321e-19)
(1.03861 5.08401 -1.776e-16)
(1.15307 -0.867663 -1.40577e-16)
(0.156196 0.857284 1.00924e-16)
(-0.401056 6.61018 0)
(0.0227371 0.37083 -7.96158e-16)
(0.588935 1.91672 0)
(0.0777973 0.276118 -1.87259e-16)
(3.56283 0.277832 1.57205e-18)
(-0.553185 -0.0262142 -2.26893e-16)
(-0.0419611 3.332 2.44436e-16)
(5.00338 0.113966 2.33395e-16)
(1.99106 -0.0159624 0)
(0.325796 -0.377367 -6.14465e-16)
(-0.187477 0.480819 -2.91189e-16)
(1.29242 7.40616 -1.3169e-16)
(-0.0513432 -0.491034 -7.59246e-17)
(10.5592 0.121294 0)
(9.95936 0.300869 -1.70432e-17)
(-0.150376 0.073229 -9.18349e-17)
(0.106813 3.79892 -2.32863e-16)
(-2.06632 0.370513 -2.0565e-16)
(0.609075 7.58645 -3.73321e-17)
(0.625621 0.884637 3.9435e-16)
(3.24044 -0.714996 -1.4551e-16)
(0.131484 8.00274 -6.62217e-17)
(1.18246 2.23412 -8.46655e-19)
(-0.162034 -0.327917 0)
(2.41773 -0.292602 0)
(-0.931569 1.08285 0)
(-0.0664545 -0.334648 6.68142e-17)
(-2.85309 -0.348802 -2.75967e-16)
(4.52265 -0.127534 2.85621e-16)
(6.18461 -0.0296805 -6.67913e-18)
(6.42409 -0.124746 2.92851e-16)
(-0.156136 -0.237684 8.8549e-17)
(-1.85345 0.259745 4.69908e-16)
(-1.0664 0.0585047 0)
(-2.323 -0.135086 -1.96641e-16)
(-1.00971 -0.343908 0)
(2.8793 0.191149 0)
(-2.40948 0.0766665 -2.48698e-16)
(-0.601095 0.0221554 0)
(0.314658 -0.0883674 4.03341e-16)
(1.46755 -0.00970864 3.93077e-16)
(6.25545 0.387982 0)
(4.18829 0.212596 0)
(0.50909 0.12515 3.6959e-16)
(1.92341 -0.012527 3.11405e-16)
(-1.11906 -0.528416 3.09148e-16)
(0.0274692 -0.187054 -2.2255e-17)
(-2.95273 -0.152982 -1.1678e-16)
(1.02129 -0.323732 7.24363e-17)
(4.58111 0.28 5.13949e-17)
(0.713091 0.123905 2.52005e-16)
(-2.39055 -0.165631 -2.14344e-17)
(-1.07902 -0.149336 1.42643e-16)
(1.70035 -0.332803 0)
(-0.718252 -0.255885 0)
(-1.41559 -0.221882 1.46072e-16)
(5.24601 -0.413279 1.62927e-16)
(4.36899 -0.000483964 5.0957e-17)
(-0.278168 -0.24005 0)
(0.168166 -0.0407668 -2.59996e-16)
(0.469257 -0.832977 4.71245e-16)
(4.71584 -0.0888502 3.49281e-17)
(3.80582 -0.483354 -2.35085e-17)
(0.352898 -0.342178 -2.62706e-16)
(-1.35084 0.506367 3.82337e-16)
(-3.18752 -0.0170477 -3.58545e-17)
(4.28638 -0.343589 0)
(1.51903 -0.174218 3.46595e-16)
(-1.86989 0.076741 -7.87235e-17)
(-0.916624 -0.38776 -1.1707e-16)
(1.48888 -0.287451 0)
(-1.16778 0.65788 -9.32306e-17)
(0.522802 -1.59915 2.39898e-16)
(0.465978 0.0726637 8.48716e-17)
(-2.77974 0.159415 1.31924e-16)
(3.81762 -0.0291546 0)
(1.21299 0.115533 9.87284e-17)
(-1.52778 0.571872 0)
(-0.616891 0.00451005 1.30066e-17)
(-0.474562 -1.27648 1.34088e-16)
(-0.726507 -0.449279 0)
(10.7365 0.0877689 0)
(-1.95506 0.329519 1.16299e-16)
(1.37001 -0.626526 -5.28396e-16)
(1.44236 -1.07189 -2.52855e-16)
(0.159242 8.53892 -2.81838e-17)
(-0.379818 -0.533539 2.53003e-16)
(2.18775 -0.0917615 -7.05726e-16)
(-2.44714 -0.2926 0)
(2.50849 0.0362927 -5.83998e-16)
(-1.01861 1.24995 -6.70551e-19)
(0.0372639 0.415151 -2.42238e-18)
(-0.930773 0.576943 1.22445e-16)
(-0.833909 0.386298 8.12797e-17)
(-1.27726 -0.0487304 -9.08313e-17)
(0.213952 -0.502363 1.00693e-16)
(0.609909 -0.00376925 0)
(-0.57653 -0.0826645 0)
(4.0719 0.364028 -2.03209e-16)
(-0.122124 -0.656532 1.2164e-16)
(1.65247 -0.0597366 -3.81226e-16)
(9.1309 -0.192024 3.56244e-17)
(1.29128 0.432714 1.58935e-16)
(0.994683 -0.0506148 0)
(6.41556 0.978095 4.43146e-17)
(1.70973 1.68327 6.58022e-20)
(-0.166881 1.08121 1.90378e-16)
(0.173389 0.953737 -3.32514e-17)
(-0.260581 5.65057 -5.89632e-17)
(-0.0384977 7.84431 1.88911e-17)
(0.120509 7.16687 0)
(0.787314 0.470163 1.69417e-16)
(-0.959248 0.3144 2.62793e-16)
(5.07099 -0.0253334 1.92118e-17)
(1.94137 -0.0208827 7.55348e-17)
(0.113326 -0.246935 0)
(-0.158855 3.71535 1.49928e-16)
(-2.41775 0.176836 0)
(-0.163918 6.19545 3.70452e-17)
(-0.0110507 7.14096 -5.41959e-17)
(-0.135991 7.99471 2.54905e-17)
(-0.100138 -0.0275429 -1.49549e-17)
(-1.2311 -0.377611 -3.46589e-17)
(-2.34731 0.110631 0)
(0.811703 -0.371027 0)
(2.35869 -0.250077 -1.51618e-16)
(-0.380265 -0.152707 -1.77711e-16)
(0.257563 1.37815 -1.1773e-17)
(-0.124949 1.04248 4.78185e-17)
(3.73565 0.728986 2.97602e-16)
(9.95303 0.16779 1.20973e-17)
(0.257267 3.64096 -2.29432e-16)
(1.08692 -2.9871 -1.85911e-17)
(-0.474628 -0.878582 2.59489e-16)
(0.24274 0.0697926 0)
(-0.548734 -0.430326 1.46694e-16)
(1.54762 -0.728422 -8.64272e-18)
(-2.68111 0.0795536 -7.01303e-17)
(1.32011 -0.46282 1.77121e-16)
(2.61897 -0.414544 1.50287e-16)
(9.90514 0.101612 -2.36019e-16)
(-0.774765 -0.318797 0)
(1.74155 -0.180263 6.215e-17)
(0.814107 -0.151114 -2.01537e-18)
(-0.00806361 7.6013 -5.47261e-17)
(-0.0667673 7.6441 3.09029e-20)
(0.115419 -0.248499 0)
(1.70108 -0.700635 1.84627e-16)
(1.04347 0.338408 -7.88983e-17)
(-0.261358 -0.359079 -2.07854e-16)
(0.037747 1.24959 -5.72483e-17)
(-2.68586 1.32375 4.0986e-17)
(0.0183706 1.00536 -4.78486e-16)
(-0.0633899 6.98748 -2.33354e-17)
(0.346058 -0.34409 -5.14646e-16)
(0.343754 5.10632 -2.13596e-18)
(-1.56515 -0.476908 -2.08092e-16)
(-0.00982717 7.46053 -2.53392e-17)
(0.963688 6.38041 8.44164e-17)
(0.113119 0.540256 -1.07497e-16)
(0.00227496 1.2671 -1.92017e-16)
(-1.13131 1.76103 1.41245e-16)
(1.52017 1.18482 -2.71566e-16)
(8.42431 0.571682 8.74955e-17)
(-0.543437 -0.0418001 -2.71228e-16)
(10.2076 0.43109 -2.26174e-18)
(2.46255 4.39962 6.09918e-17)
(0.474466 0.0817616 -4.31199e-16)
(0.00768926 -0.0634056 -7.20474e-17)
(-0.185794 0.00909941 3.84143e-17)
(6.90879 1.04561 -4.99619e-18)
(1.47219 0.700707 -6.68705e-17)
(-1.39237 -0.682733 2.20696e-17)
(-1.9699 -0.054255 -1.55281e-16)
(-1.00493 -1.02657 1.08464e-15)
(8.50718 1.87391 -2.99181e-18)
(0.186201 3.55364 1.40148e-16)
(-0.549112 0.365155 1.98603e-16)
(0.0270041 1.28424 4.6126e-17)
(-1.71246 1.52558 2.13852e-16)
(0.133351 0.517827 0)
(-0.112341 -0.37798 -1.8992e-16)
(-1.28205 -0.551937 1.01842e-17)
(-0.049065 0.0513346 1.71299e-16)
(3.36705 -0.120772 -6.8358e-20)
(9.67153 0.0304967 0)
(1.25578 0.279138 1.88856e-18)
(1.00595 0.038644 -5.12767e-17)
(-0.0669388 0.81642 1.8842e-19)
(0.228427 1.34194 1.67684e-16)
(0.340043 5.51566 -1.18089e-16)
(0.183221 6.98699 3.51502e-16)
(1.02654 1.57492 7.95543e-18)
(1.57237 2.05187 -3.50388e-19)
(2.7118 0.487044 1.58327e-16)
(-0.0452489 0.180773 0)
(-0.639332 -0.594747 0)
(0.4658 -0.404168 -3.17501e-17)
(6.85339 0.839105 -1.39328e-19)
(3.2514 2.64449 2.3621e-17)
(8.85077 1.03202 -6.33626e-18)
(10.3322 0.537308 3.07244e-18)
(1.29996 0.406462 0)
(0.132975 4.26431 0)
(0.0509467 1.11614 1.9387e-16)
(0.0538756 0.305146 2.24284e-16)
(8.8493 0.477544 -4.2586e-16)
(1.51844 0.7002 0)
(1.17859 0.114638 0)
(-2.07642 0.119406 1.95063e-16)
(-0.518626 -0.16483 1.37638e-18)
(-0.476844 -1.43208 -1.48758e-16)
(-0.00632863 -0.250329 1.93937e-16)
(0.471749 -0.783699 -8.38432e-17)
(-0.133656 7.34608 -2.40321e-17)
(-0.05262 7.69868 -1.28912e-17)
(-0.128302 -0.193357 -2.58817e-16)
(9.79767 0.170286 -6.26841e-17)
(9.23289 0.164222 3.86064e-18)
(-0.259022 0.676546 1.41132e-16)
(0.221662 1.12395 -3.4705e-17)
(1.79642 3.20809 -1.04544e-17)
(-0.192316 8.29641 -1.1754e-16)
(-0.2677 0.0182448 1.02695e-15)
(0.0132962 0.934554 6.14863e-18)
(-0.355704 0.17981 0)
(5.40129 3.70946 6.32236e-17)
(-0.0354968 1.04399 1.01072e-16)
(0.0505197 1.02121 1.19757e-20)
(-1.04214 2.6936 1.53664e-16)
(-0.724378 -0.228133 0)
(10.3527 0.210884 0)
(-0.451054 -0.83715 -5.47364e-17)
(-1.47233 0.271417 0)
(1.6094 -0.566834 6.55539e-17)
(9.98337 0.0666185 -9.85576e-17)
(4.78625 -0.03533 7.20105e-17)
(-0.525043 -0.000812343 1.19476e-16)
(6.95473 0.0185454 9.09229e-17)
(-0.0206814 1.14817 7.28922e-17)
(-0.547578 -2.5895 1.56163e-16)
(0.118119 1.04152 1.91712e-16)
(0.191799 6.87891 -9.05661e-17)
(-1.48228 0.998589 -6.05537e-17)
(-0.50165 -0.227568 0)
(9.61651 0.836641 0)
(0.211835 4.68489 -1.98113e-16)
(-0.479276 -0.325983 -1.7873e-16)
(-0.0560995 0.995761 6.05798e-16)
(0.256464 7.20496 -2.16999e-17)
(-0.499938 0.134936 0)
(0.459174 -0.0776494 -4.21637e-16)
(-0.0306273 0.0943122 -1.91795e-16)
(-0.0232748 0.868624 1.49805e-16)
(1.12564 -0.28716 0)
(-0.255634 2.92004 0)
(0.0355562 1.06008 0)
(-0.0052064 0.96698 -1.60341e-16)
(0.151969 3.16264 6.32742e-18)
(10.293 2.7853 -2.54306e-18)
(0.0315549 0.0458778 0)
(5.34033 1.31837 0)
(-0.407338 0.448105 -8.79169e-17)
(0.383907 7.33503 6.38389e-17)
(-0.0346535 0.493036 0)
(0.697629 0.0745896 3.66708e-16)
(0.248422 -0.324189 -4.37075e-19)
(-0.0887205 0.436115 -1.56864e-16)
(1.29524 -0.369028 0)
(7.97547 0.589857 -6.01041e-17)
(-1.60414 0.692456 -1.44379e-16)
(0.572854 2.91462 7.0603e-17)
(0.0972799 4.76172 0)
(0.706551 3.99155 -1.00022e-17)
(9.80335 0.258176 -1.89e-17)
(2.54755 3.57482 -4.04621e-18)
(0.910412 4.87974 -1.23448e-16)
(-0.0621829 -1.02678 -2.43634e-16)
(1.20368 1.8041 -4.25728e-16)
(0.0746576 7.02386 -1.91939e-19)
(-0.122695 7.42293 3.79308e-17)
(2.59832 2.5438 0)
(10.498 -0.280746 2.2279e-17)
(-2.61617 -0.222887 1.31532e-16)
(8.8135 0.810373 -1.11801e-16)
(-0.451067 -0.0121932 1.63091e-16)
(-0.0195831 7.08613 0)
(-0.0399496 7.36667 -4.31403e-17)
(-0.225232 4.75494 1.79635e-16)
(1.21262 -0.0272106 -6.39109e-18)
(-0.0363233 1.32191 4.89491e-17)
(0.694382 0.897967 5.71183e-18)
(0.0476922 6.61171 -2.65469e-17)
(-0.185682 7.4341 -2.37716e-17)
(1.97929 8.70701 5.37547e-17)
(-0.604219 -0.0706659 1.78741e-17)
(10.0974 0.178498 0)
(0.444973 -0.312059 4.57583e-16)
(-0.984908 0.208585 -8.92802e-17)
(0.746906 0.224877 -3.03428e-16)
(7.44756 0.578657 1.58796e-17)
(-0.13067 7.61908 -3.59714e-17)
(-0.0159002 6.68637 1.82686e-16)
(0.780686 -0.684639 -3.10368e-19)
(-0.45945 0.0827121 -1.1491e-16)
(0.973216 6.53075 0)
(-1.63259 -0.189125 0)
(-0.0998467 -0.230834 -1.88877e-17)
(-0.906447 -1.49539 0)
(3.11733 5.09198 -5.9889e-17)
(4.69665 3.43763 0)
(0.840136 7.28148 -1.3303e-16)
(2.15086 0.872867 5.26087e-17)
(1.89655 0.24024 2.66482e-16)
(0.792889 -0.283826 4.64924e-17)
(7.16306 0.680212 -1.43446e-17)
(3.87415 -0.00812862 -2.23417e-16)
(7.51467 0.139124 -2.79716e-16)
(2.7127 0.249636 0)
(0.145825 1.04575 -7.53227e-17)
(5.08464 2.95251 1.54664e-16)
(3.58104 1.66839 -7.07979e-17)
(0.0146939 0.00196161 -3.49944e-16)
(0.208251 1.11418 5.31607e-16)
(-0.008884 0.908821 3.15697e-17)
(0.538313 -1.6849 -3.36233e-16)
(0.489473 3.20656 1.10612e-18)
(0.941362 1.05687 -2.3418e-16)
(-0.845403 -0.0595335 1.66229e-16)
(-0.365288 0.647981 8.31075e-17)
(0.266675 1.44685 0)
(0.0549592 0.398427 -7.3077e-17)
(-0.407027 0.683331 -7.31417e-17)
(0.28343 1.01578 2.79816e-16)
(-0.341403 -0.450319 -1.08151e-16)
(1.00613 8.53865 -3.3511e-17)
(10.614 0.427357 -6.81961e-17)
(-1.88437 -0.179483 7.97963e-17)
(0.0317196 3.56257 -4.35454e-17)
(-1.08207 0.591815 -1.23468e-16)
(8.51377 0.157975 3.42041e-16)
(3.93837 -0.137334 -2.30951e-17)
(-0.0235575 7.39605 2.86124e-18)
(4.2475 -0.15578 2.35829e-16)
(-0.0130776 4.67513 -1.70592e-16)
(-0.0891061 6.6197 6.9501e-17)
(7.06358 0.414078 0)
(-0.229193 -1.6402 -8.6834e-17)
(-0.00945982 0.0249654 2.73373e-17)
(0.0372144 0.318622 0)
(-0.287895 0.123833 -1.86646e-16)
(-0.393709 -1.11697 5.12528e-17)
(0.94685 0.206112 2.683e-16)
(1.27319 0.363316 2.30974e-16)
(3.83613 0.193271 -3.97973e-17)
(9.07197 0.656739 -1.2109e-18)
(1.53072 1.70488 -1.33093e-16)
(-1.05248 -0.0605597 3.12759e-16)
(0.784703 -0.888845 -2.79649e-16)
(-0.35085 -0.424806 1.06487e-16)
(-0.0234418 -0.273526 0)
(0.0937747 0.571365 -1.08871e-17)
(-2.11287 1.59827 -2.37091e-16)
(0.0462575 1.29699 1.73115e-20)
(-0.0648536 6.78891 2.1813e-17)
(0.218638 5.41017 -2.71009e-18)
(0.0370859 5.63477 -9.81926e-17)
(0.0582281 6.68014 2.55513e-17)
(1.95643 4.44614 -1.37321e-16)
(7.10626 0.347819 6.78717e-17)
(0.364457 0.105886 0)
(10.5566 1.0844 0)
(-0.646838 -0.332329 4.21327e-16)
(-1.93622 0.254176 4.12342e-16)
(-0.089339 7.63587 1.10723e-16)
(-0.00568275 6.77903 -1.22895e-16)
(-1.79297 0.546793 1.02904e-16)
(1.02129 7.23598 -3.66657e-17)
(-0.577146 0.312607 4.46446e-17)
(0.161886 0.558604 2.19427e-17)
(0.37764 -0.169624 2.01924e-19)
(-1.63662 -0.301749 -5.38315e-17)
(-0.196218 -0.511985 -9.78403e-18)
(0.0849221 3.43492 -4.5797e-17)
(3.46803 -0.0753093 -3.86683e-16)
(1.06042 4.70314 6.02025e-18)
(-0.539377 -0.622564 1.3875e-16)
(-0.52595 0.260072 0)
(-0.00429654 -0.15701 0)
(0.0822879 2.19869 0)
(0.789075 6.00888 2.20356e-16)
(0.841917 8.46667 2.20778e-16)
(-0.0805142 8.00049 1.76959e-16)
(0.0323391 0.039228 3.65366e-17)
(5.76957 3.24273 -3.73245e-17)
(0.288486 0.0923079 0)
(0.0671118 0.860706 8.53259e-17)
(0.180549 0.265483 3.4086e-17)
(10.5019 0.0584549 -7.10834e-18)
(-2.11911 0.104287 -8.02213e-17)
(-1.49648 0.372629 2.96762e-18)
(-0.97183 -0.187454 -1.41541e-16)
(8.87323 0.363335 -1.94926e-17)
(0.164939 3.00255 0)
(3.43816 1.18132 -3.38183e-16)
(2.5707 0.337157 2.09121e-16)
(-0.785187 -0.502076 0)
(-0.292314 -1.44271 5.74838e-17)
(1.31021 2.2165 -2.48718e-16)
(8.56594 0.144627 0)
(1.71381 5.74248 -4.47543e-16)
(0.035564 7.08809 -9.97545e-17)
(0.848327 3.80532 0)
(1.09723 0.548735 0)
(11.3591 0.287444 4.1175e-17)
(10.3211 0.358917 3.19553e-17)
(9.22964 1.35932 2.01591e-18)
(5.33893 2.18934 2.08813e-22)
(0.392661 2.51428 0)
(1.35996 0.553109 1.93723e-16)
(1.46795 7.24986 -2.80657e-17)
(4.57874 -0.0626652 0)
(-0.276865 -0.514124 -4.00523e-16)
(3.98567 2.62458 2.35569e-17)
(0.128002 0.0737026 -1.42733e-16)
(9.276 0.912799 -4.99318e-17)
(10.827 0.0436547 7.40977e-17)
(1.67275 1.76595 -1.77651e-16)
(9.87204 0.418774 -1.47865e-17)
(0.00612845 7.87639 1.21145e-16)
(0.564308 8.5122 3.86863e-17)
(0.592425 6.71908 -9.90321e-17)
(6.68982 3.60164 0)
(-0.151772 0.143651 1.43577e-16)
(0.423996 0.320853 -1.78147e-16)
(2.2444 -0.0303937 2.84763e-17)
(-0.110901 0.0905246 1.30553e-16)
(0.0372315 7.22832 1.50907e-22)
(-0.0109782 7.97029 1.51722e-19)
(0.541094 5.89143 7.16407e-17)
(0.537738 0.449332 0)
(-0.514643 0.252964 0)
(2.24472 -0.870068 7.95866e-17)
(0.229745 0.122177 1.78388e-16)
(-0.0517757 5.64551 -9.33282e-17)
(-0.0287156 6.70522 -2.83801e-18)
(-0.252022 2.2796 0)
(2.00744 1.00325 -3.36562e-17)
(10.0555 0.114211 8.14617e-17)
(-0.0733289 0.434997 0)
(-0.18783 0.0914812 -4.51006e-16)
(-1.22905 -0.747199 6.13545e-17)
(0.143422 -0.302945 2.47801e-16)
(-0.160089 7.67635 4.93072e-17)
(-0.0345565 7.14078 1.32634e-16)
(9.51012 0.942668 0)
(0.263594 7.20587 -3.47231e-17)
(-0.0599621 7.85448 -2.48011e-17)
(9.42825 1.14699 -9.17932e-17)
(0.115774 0.826845 -5.22983e-20)
(7.76211 1.55036 7.06086e-18)
(0.0807588 6.91237 7.42848e-19)
(-0.0830277 6.91683 0)
(0.0218456 5.4165 2.82043e-18)
(0.231308 5.36264 -8.89967e-17)
(0.102061 6.58423 -3.12477e-17)
(3.56639 4.03257 1.37985e-16)
(0.135656 -0.032783 4.8618e-17)
(-0.0607077 7.53851 1.75793e-16)
(0.0153844 7.38169 0)
(-0.290752 5.28313 -1.36562e-16)
(0.150259 2.64651 2.67474e-17)
(-0.315721 -1.38693 -1.19065e-16)
(-1.18554 0.493903 6.65606e-17)
(0.0844749 0.229056 4.13916e-18)
(0.0550458 0.925417 1.14666e-16)
(-0.425294 0.266757 0)
(0.725753 5.25285 1.11076e-17)
(-0.0654127 1.20193 -2.10807e-17)
(0.493068 0.0146584 -1.19154e-16)
(9.0945 0.974148 -8.0664e-19)
(-0.156335 2.10266 -3.19473e-17)
(0.0268437 0.743988 -2.21725e-16)
(0.0155323 1.21501 -1.62069e-16)
(0.152859 6.62186 -1.87371e-16)
(-0.0581902 7.27985 0)
(0.554476 0.125969 2.33978e-16)
(0.118794 6.55556 8.15901e-17)
(-0.115844 7.32454 1.91213e-17)
(0.328403 -0.307455 -7.93761e-17)
(3.52451 3.51691 -1.44878e-16)
(-0.892557 -1.36963 4.66927e-16)
(-0.216235 -0.890763 5.53688e-16)
(1.06545 0.957781 -2.27303e-16)
(-0.0572027 6.91284 1.9276e-16)
(0.164787 1.35281 -3.21825e-16)
(-0.674465 -0.472909 -1.67112e-16)
(-0.0337325 1.01849 -1.11655e-16)
(0.947931 8.65741 0)
(9.73022 0.10347 0)
(-0.0340366 0.0699994 -2.83264e-16)
(-0.0554038 -0.622078 1.78908e-16)
(-0.0716746 -1.57545 -5.56806e-17)
(-0.0743159 0.553218 0)
(-0.265263 0.403424 1.07293e-16)
(0.455884 -0.0231642 -3.53182e-20)
(0.701564 0.280371 -5.92041e-16)
(4.1237 0.093109 2.13851e-16)
(1.02465 4.89278 1.10273e-16)
(-0.0687128 7.50141 -2.27186e-16)
(0.375744 -0.943436 3.57478e-16)
(-0.209891 0.0765624 -1.72021e-16)
(9.67579 0.906277 -1.2847e-17)
(0.482384 3.24717 1.92978e-16)
(1.99561 0.968031 1.33742e-16)
(0.131729 -0.776597 0)
(-0.937728 0.79642 5.1974e-17)
(2.08417 1.29303 -6.9926e-16)
(0.0796609 0.944213 -2.24448e-17)
(-0.0114452 1.03979 2.60344e-16)
(0.839863 3.0165 2.12857e-17)
(8.51063 0.547491 -1.10042e-16)
(9.76312 0.113355 -1.60964e-19)
(-0.700403 -0.190383 1.62259e-16)
(11.0245 0.0495919 0)
(-0.495011 0.447921 -4.50179e-18)
(-1.21944 -0.774754 2.21151e-18)
(0.0235477 -0.314715 -1.77079e-17)
(-0.0154085 7.36327 3.31145e-17)
(-0.0424852 6.99273 3.41995e-17)
(0.00405859 4.89874 1.70596e-17)
(10.4849 0.0390735 1.34866e-17)
(-0.479894 -0.59394 -4.69838e-19)
(-0.151099 7.59317 -4.13415e-17)
(-1.01373 -0.763468 -4.87553e-20)
(0.948146 -0.829323 0)
(9.4574 1.81858 -4.77578e-18)
(-0.758322 0.202606 0)
(0.708639 0.180324 8.46634e-17)
(-1.10586 0.306112 7.35278e-17)
(0.140869 0.838956 4.45807e-18)
(0.547779 0.272679 2.37994e-16)
(-0.409243 -0.356477 3.269e-16)
(9.21462 0.740554 -1.67428e-17)
(0.144859 -0.550177 2.3751e-16)
(-0.299392 -1.4382 2.54333e-16)
(9.45773 1.0873 9.37923e-17)
(9.69724 0.351768 3.86751e-17)
(6.35712 2.78099 2.85506e-17)
(-0.0699693 7.51933 -3.68487e-17)
(0.0174496 6.45594 2.32141e-17)
(0.0218073 3.20287 9.78906e-17)
(0.297121 1.72807 0)
(4.16372 0.745988 4.51274e-17)
(5.66375 3.107 8.22946e-17)
(9.24016 -0.0721713 -2.19713e-17)
(0.289416 0.497717 1.12294e-16)
(0.694723 -0.83476 2.15151e-16)
(0.102876 0.0843533 0)
(8.73237 1.70558 0)
(0.12969 3.31547 0)
(-0.0597041 -0.0134964 3.9323e-16)
(-1.62644 -0.112522 7.26588e-17)
(2.3346 4.26727 2.01799e-16)
(0.15446 6.1411 2.27121e-17)
(0.97789 7.59968 -5.08542e-17)
(0.0806027 0.200766 0)
(-0.366934 -0.924688 8.07191e-17)
(-0.328867 7.07681 -1.04554e-16)
(-0.313384 -0.17058 -7.47081e-16)
(11.2249 0.12003 9.03143e-17)
(5.7591 1.21181 0)
(-0.168854 1.18852 1.64526e-16)
(1.21363 5.6496 0)
(-0.575352 0.400581 1.41455e-16)
(-0.548391 -0.727869 -1.96965e-17)
(0.800409 9.20767 6.13435e-17)
(9.82788 1.08487 -1.28176e-17)
(9.76171 0.704297 9.6829e-17)
(-0.939335 -0.0954789 0)
(0.370479 2.07208 -5.0056e-17)
(-0.508577 -0.0303258 0)
(8.40561 0.330556 0)
(1.05028 0.43555 -1.17201e-16)
(-0.496777 -0.800237 1.91292e-17)
(-2.82373 5.04203 -1.16217e-16)
(2.85889 0.812949 -1.18782e-16)
(0.0167596 -0.148139 2.13611e-16)
(10.2473 0.110088 -7.92458e-21)
(5.91529 3.56101 -7.48597e-17)
(-0.0805081 -1.0664 1.28492e-19)
(-0.0930077 7.29554 4.40105e-17)
(-0.0214757 6.05052 -5.12849e-17)
(0.500772 2.17588 -1.11619e-16)
(1.15684 5.99341 -2.3641e-16)
(0.74937 2.58452 -1.22945e-17)
(-0.167576 0.959605 -3.1899e-16)
(0.292206 1.39555 -1.73387e-16)
(-0.089302 2.11168 5.50564e-17)
(1.00356 -0.397849 1.78743e-16)
(-0.324125 -0.583641 -2.64979e-16)
(0.23948 1.05005 -4.80775e-16)
(-0.282966 0.948876 -3.52501e-16)
(6.85744 4.18406 3.29442e-18)
(0.285613 1.00391 5.17424e-16)
(10.0283 0.0439763 -5.95833e-17)
(0.852478 -0.0187484 0)
(0.0184591 2.4308 -1.78658e-20)
(3.80596 -0.718817 -9.90853e-17)
(-0.344208 -0.511368 0)
(9.95012 0.423167 3.74605e-17)
(-0.548036 0.0530058 2.92772e-16)
(0.310883 0.0193732 -2.68128e-16)
(9.00707 1.41422 0)
(-0.146952 7.29385 4.38474e-20)
(-0.116156 7.94787 0)
(9.98403 0.0875533 0)
(0.757966 0.259926 -4.51098e-17)
(9.33532 0.900345 -5.88912e-17)
(8.78562 3.91866 -1.76211e-16)
(0.814052 7.29514 2.00715e-17)
(7.16941 2.10303 -1.01673e-16)
(0.0855261 3.92761 -6.51947e-17)
(-0.0338812 5.07137 -1.09864e-20)
(-0.044353 5.00381 -5.82307e-17)
(-0.0414132 0.376792 0)
(-0.0832347 2.30114 1.09452e-16)
(-0.00607004 -0.576567 0)
(-0.0574857 0.351804 0)
(0.110209 0.359083 0)
(0.253346 -0.632768 -1.9242e-16)
(-0.184347 0.740225 0)
(0.152348 0.691499 1.18945e-16)
(2.87905 2.86933 -2.58496e-16)
(0.0416817 4.95481 0)
(0.0349465 5.51123 1.4344e-16)
(-0.205785 6.30197 -2.3515e-17)
(0.0250135 6.97951 7.0111e-17)
(-0.132581 8.03474 -3.21736e-17)
(-0.038933 3.10005 1.89939e-16)
(9.2871 1.02006 -2.60158e-17)
(0.15396 0.996979 1.95736e-17)
(-0.138066 1.00578 -7.21591e-17)
(-0.282303 1.48937 0)
(1.14981 -0.667979 1.36066e-19)
(5.47099 1.91402 0)
(0.478818 -0.0664718 7.54934e-22)
(3.73448 0.130053 -4.3552e-16)
(10.0025 0.0533435 3.27507e-17)
(-0.0577259 7.62376 1.00688e-16)
(-2.24763 2.57302 -2.58231e-16)
(0.0989512 1.39251 0)
(0.00290885 0.851355 8.75983e-16)
(5.51599 2.76273 -3.4988e-17)
(11.0851 0.519339 0)
(9.74802 0.247276 2.32556e-17)