/*--------------------------------*- C++ -*----------------------------------*\
| =========                 |                                                 |
| \\      /  F ield         | OpenFOAM: The Open Source CFD Toolbox           |
|  \\    /   O peration     | Version:  v1912                                 |
|   \\  /    A nd           | Website:  www.openfoam.com                      |
|    \\/     M anipulation  |                                                 |
\*---------------------------------------------------------------------------*/
FoamFile
{
    version     2.0;
    format      ascii;
    class       surfaceScalarField;
    location    "0.86";
    object      phi;
}
// * * * * * * * * * * * * * * * * * * * * * * * * * * * * * * * * * * * * * //

dimensions      [0 3 -1 0 0 0 0];
oriented        oriented;


internalField   nonuniform List<scalar> 
2776
(
-3.12806e-05
1.34405e-06
1.5272e-05
1.46646e-05
2.33717e-05
-1.91519e-06
0.000180669
-0.000202126
0.000100986
-1.65823e-06
2.12005e-05
-0.000120528
-4.15132e-06
3.98318e-06
2.41975e-05
-2.40293e-05
9.81154e-05
0.000106029
-5.70988e-05
-0.000147045
0.000312948
0.000202173
-0.000364085
-0.000151036
6.54446e-06
-9.22522e-06
9.17606e-06
-6.4953e-06
7.11784e-05
-7.90554e-06
-2.92225e-05
0.000218936
-0.000259893
7.01794e-05
4.581e-06
-1.40353e-05
1.33171e-05
-3.86278e-06
-3.88802e-07
-1.167e-05
1.20588e-05
5.56303e-05
-5.7337e-05
1.1404e-06
5.66302e-07
1.06805e-05
-1.06805e-05
0.000115599
-5.71209e-05
-5.51222e-05
-3.35545e-06
-2.81794e-05
-0.000111695
9.13811e-05
4.84935e-05
1.56806e-05
4.59901e-05
-5.21115e-06
-5.64596e-05
9.93102e-06
1.53024e-05
-2.52335e-05
-1.98686e-05
-5.98482e-07
5.76658e-07
1.98905e-05
2.27889e-05
1.42361e-05
7.68378e-05
-0.000113863
1.48205e-05
-4.70777e-05
8.82e-05
-5.59428e-05
-1.86131e-05
2.23989e-05
5.78403e-06
-9.56989e-06
-1.19098e-05
-9.09622e-06
2.24012e-05
-1.39515e-06
7.01204e-05
-6.00466e-05
-1.00738e-05
6.45259e-07
-0.000157619
0.000154484
2.49013e-06
3.40608e-05
9.74101e-05
-1.58723e-05
-0.000111802
9.26938e-07
0.000119732
-8.85685e-06
-9.95907e-05
9.49885e-05
-4.56337e-05
5.02359e-05
-1.18923e-05
1.16012e-05
-3.98697e-05
4.01607e-05
-1.19186e-05
4.07309e-06
8.44401e-05
-8.03812e-05
-4.05892e-06
-3.21722e-05
1.81139e-05
-5.08681e-05
0.000103555
-0.000111926
-0.000144331
0.000152701
9.61838e-06
-1.11603e-05
-2.89024e-05
-8.89694e-06
3.62297e-06
-7.70089e-05
8.22829e-05
3.44121e-05
-3.54466e-05
-2.52972e-05
2.63317e-05
5.71297e-05
-5.91583e-05
-2.61508e-05
-1.23147e-05
2.92083e-05
-3.9907e-05
2.30133e-05
2.10471e-05
8.11114e-05
-5.81248e-05
-4.40337e-05
-1.33201e-05
0.000223627
-0.000292822
8.25151e-05
-3.95265e-06
-7.73426e-06
6.25088e-06
5.18164e-05
-2.43702e-06
-4.44121e-05
5.22074e-05
1.74398e-05
-2.52351e-05
-0.000197231
0.000114978
5.30304e-05
-5.26676e-05
3.35806e-05
1.84801e-05
6.06904e-07
6.64624e-05
-5.96402e-05
-1.77462e-06
-5.04757e-06
3.93505e-05
-5.87684e-05
9.4622e-05
-7.52041e-05
2.67339e-05
7.27364e-05
2.75549e-07
-9.97458e-05
-8.94578e-06
3.28603e-05
-4.37831e-05
-4.05858e-05
2.34414e-05
-2.72677e-05
8.02791e-06
-1.41487e-05
-1.24922e-05
2.59071e-05
-3.21324e-05
0.000103959
-9.77334e-05
3.4613e-06
2.02187e-05
-2.66752e-05
4.32661e-06
-4.41916e-05
4.83402e-05
4.65144e-06
-8.79999e-06
-9.36314e-05
9.57858e-06
8.69942e-05
-2.94135e-06
-7.75882e-05
4.07448e-07
4.65322e-05
3.06485e-05
-1.26546e-06
1.00845e-05
-9.75114e-06
9.32081e-07
7.3737e-06
-3.92147e-05
-1.23506e-05
1.12604e-05
-7.66374e-06
6.34664e-05
-6.7063e-05
7.55432e-05
-6.4303e-05
0.000236183
-0.000130063
-4.18167e-05
2.16998e-05
-7.1971e-05
4.1979e-05
8.29226e-06
5.33739e-05
-2.56955e-06
-2.46413e-06
2.56244e-05
1.51573e-06
-4.74124e-06
-4.20138e-06
-2.44678e-05
3.01011e-05
-1.43193e-06
-5.14943e-06
2.16579e-07
-6.97698e-06
3.94331e-05
-4.57275e-05
0.00013177
-0.000125475
-6.18365e-06
1.51596e-05
-1.29234e-05
3.94744e-06
3.10636e-06
7.88981e-05
-6.09574e-05
-1.53511e-06
-1.90269e-05
1.57622e-05
4.79983e-06
6.52277e-05
-6.21213e-05
9.72388e-06
-3.63628e-05
-1.98112e-05
1.1463e-05
5.35235e-06
-1.83504e-05
1.137e-06
1.83589e-06
-1.19187e-05
-1.36556e-05
-2.27971e-05
2.45341e-05
3.28828e-06
-2.58231e-05
2.99085e-05
-1.01584e-05
2.00052e-05
0.000134584
-0.000144431
2.71851e-05
-1.42965e-05
-2.44717e-05
1.15831e-05
8.41712e-05
-5.85908e-06
-8.53488e-05
7.03664e-06
1.90381e-05
-3.56369e-05
-2.3987e-05
0.000104332
-9.11589e-05
-2.73615e-05
1.41882e-05
8.8646e-06
-3.3117e-06
8.95307e-06
-1.4506e-05
3.10823e-05
6.01042e-05
1.31457e-05
-0.000169732
-0.000105699
9.22351e-05
0.000183196
5.37397e-05
3.54376e-05
-4.4754e-05
-4.44234e-05
5.87535e-05
-4.5192e-05
-6.5677e-05
5.21155e-05
3.55968e-05
-8.26147e-07
-3.20929e-06
-3.15613e-05
-4.45e-06
7.68029e-05
-7.23529e-05
-8.36752e-06
9.93134e-06
1.94471e-06
-3.50852e-06
-3.39004e-06
-2.06757e-05
2.93599e-05
-5.29408e-06
2.03206e-05
9.00735e-05
-8.4487e-05
4.96717e-05
-4.60938e-05
-2.37132e-05
0.000205971
9.83695e-06
-0.000192094
4.23878e-06
-6.81469e-06
-1.21388e-05
1.47147e-05
6.46851e-05
-0.000102296
-9.39697e-05
0.00013158
-6.52629e-06
2.00814e-06
4.01149e-05
-7.11113e-06
5.25919e-05
-5.56788e-05
-8.80528e-06
-1.54589e-05
3.85273e-05
7.4658e-05
-9.77264e-05
-9.02147e-05
6.65015e-05
2.76346e-05
-8.02024e-05
7.19645e-05
-1.93967e-05
3.36084e-06
-0.000161242
-4.26926e-06
2.42007e-06
2.74736e-05
6.33895e-06
8.30769e-05
-5.24459e-06
0.000123057
3.9592e-05
-9.79641e-05
5.85333e-05
-8.70077e-05
7.42051e-05
-4.57308e-05
5.11712e-06
-2.1264e-06
-1.38574e-05
1.08667e-05
-9.68518e-06
7.77551e-06
-1.70363e-05
1.89459e-05
1.99199e-05
-5.2939e-05
-6.52033e-05
9.82223e-05
2.2089e-05
8.57564e-05
1.8294e-05
-7.61346e-06
-0.000119794
-0.000172782
4.07377e-05
0.000251839
8.7278e-05
3.39058e-05
-5.9676e-05
-6.15079e-05
0.000103292
-8.36327e-05
6.76184e-05
-7.4281e-05
7.74396e-05
5.55949e-05
-4.61352e-05
1.31616e-05
7.06282e-05
-3.76545e-05
-5.22732e-05
5.84235e-08
5.37305e-05
1.42758e-05
-1.7425e-06
2.55137e-06
-1.50847e-05
4.20849e-05
-8.17909e-06
-0.000133563
5.90726e-05
-9.52415e-05
4.89567e-05
-3.88764e-05
4.36594e-05
-1.12642e-05
5.14992e-06
-1.41805e-05
2.02948e-05
2.59121e-06
-4.19912e-06
-1.34587e-07
1.7425e-06
0.000161685
-0.000109047
0.000125123
-0.000177762
-5.68311e-06
7.04434e-06
-9.72875e-06
2.22026e-06
0.000178463
-1.66132e-05
-0.00016407
8.33663e-06
-6.25585e-05
-5.09124e-06
5.93131e-05
-7.29293e-06
-1.50165e-07
1.89061e-05
5.57345e-05
-6.28862e-05
3.51817e-05
-2.80299e-05
-1.43406e-05
3.6149e-06
6.40995e-05
-2.05182e-05
-7.24996e-05
1.46512e-05
7.83666e-05
1.1653e-06
-1.54099e-05
1.75329e-05
4.00038e-05
8.1163e-06
4.08724e-06
4.03506e-05
-8.34136e-05
8.30015e-05
-3.99385e-05
-8.54835e-05
7.1906e-05
7.60454e-06
5.97299e-06
-2.06992e-05
-1.77218e-05
3.11281e-05
-1.36195e-05
-4.1584e-07
-3.18257e-06
7.99854e-05
1.85589e-05
-1.55987e-05
-1.16924e-05
8.73223e-06
-2.47929e-05
1.23924e-05
1.58179e-05
-3.41742e-06
-2.17895e-05
2.76833e-06
-2.86098e-05
3.32996e-06
2.52798e-05
4.76957e-05
-2.16527e-05
-2.6043e-05
-6.51706e-05
8.54352e-05
8.24506e-05
-0.000102715
-1.1447e-05
3.0611e-05
-3.35046e-05
9.82822e-06
1.25638e-05
3.11943e-07
-2.13486e-05
1.23954e-05
1.15445e-05
5.18252e-05
-3.44825e-05
-6.25347e-05
-1.49205e-05
0.000159947
-0.00012028
-2.47462e-05
-2.56226e-06
2.0172e-05
-2.4136e-05
-4.7128e-05
-2.19806e-05
6.05385e-06
6.30548e-05
1.18513e-05
-1.41043e-05
-3.88669e-05
7.67158e-05
3.77879e-05
-7.56368e-05
1.41764e-05
-2.05479e-05
-5.56998e-06
1.19414e-05
-5.17473e-05
-8.77043e-05
-7.18488e-06
5.41357e-05
5.64105e-06
6.84515e-05
7.29264e-06
-2.66815e-05
-4.90626e-05
-0.000244426
-3.3865e-05
9.16763e-05
-6.61657e-05
-9.45383e-06
1.99407e-05
1.04205e-05
6.76101e-07
0.000100044
-7.53631e-05
-5.94913e-05
3.48108e-05
-1.71945e-05
1.5382e-05
1.81249e-06
-7.74936e-05
5.30065e-05
-7.97459e-06
3.24617e-05
-7.29317e-05
7.49929e-05
-0.000101652
4.26264e-07
4.1596e-05
-3.31576e-05
-1.12733e-05
9.37487e-06
-1.4133e-06
9.57812e-06
-9.78395e-06
-3.9933e-06
-8.03441e-06
1.39948e-05
-1.74074e-05
0.000119352
-0.000136165
-0.000250033
0.000168002
0.000105403
-7.77322e-06
-5.7439e-05
-9.53444e-07
1.26751e-06
-6.22011e-06
-2.08705e-05
-3.59319e-05
9.41713e-06
-8.51804e-05
-1.21977e-05
-2.96397e-06
6.36363e-05
-6.08064e-05
2.48047e-05
-4.81103e-05
6.40875e-05
-7.64057e-06
2.01213e-05
5.05352e-05
-7.08705e-05
-0.000126996
-8.6946e-06
5.48661e-05
5.83865e-05
-5.63777e-05
4.33019e-06
7.47892e-05
-0.000267041
-6.49976e-05
0.000257249
5.58798e-05
1.81868e-05
-1.69369e-05
7.14707e-05
-2.45256e-05
-1.03285e-05
3.48541e-05
-4.18889e-05
3.18353e-05
1.00535e-05
3.19181e-05
-0.000113942
-4.88348e-05
6.78511e-05
4.462e-05
5.56601e-06
1.016e-07
3.23836e-06
6.03383e-07
6.80643e-05
-6.61705e-05
5.36278e-05
-6.2117e-05
7.46598e-05
-6.81048e-05
6.04676e-05
-8.87466e-05
-4.14426e-05
4.31814e-05
1.17086e-05
-5.09892e-05
-4.02627e-05
-1.90163e-05
3.08583e-05
-1.1569e-05
-2.72991e-07
1.66518e-05
-1.37774e-05
-2.88462e-07
-5.77432e-05
-1.94619e-05
2.14746e-05
-3.32451e-05
-5.4269e-05
5.67834e-05
2.0927e-05
1.42319e-05
4.34113e-05
-7.29976e-05
-2.91821e-05
-5.94517e-05
-3.56386e-05
-4.48932e-05
4.78348e-05
-1.34725e-05
1.05309e-05
-5.65941e-05
6.53287e-05
0.000107518
-5.24969e-05
-4.33125e-05
-4.08898e-05
1.51363e-05
6.7372e-06
6.48126e-05
-4.76627e-05
-1.61037e-05
-1.0462e-06
6.05793e-05
-6.35703e-06
-7.90774e-05
1.88357e-05
8.16228e-05
-2.1381e-05
-2.11516e-05
7.23312e-06
1.39185e-05
6.77726e-05
-5.17408e-05
-7.57078e-05
-1.08581e-05
4.28408e-06
1.19264e-05
4.30129e-05
-3.44613e-05
-4.36859e-05
3.51343e-05
2.5178e-05
-5.56641e-05
-7.9445e-07
-5.85161e-05
8.90172e-05
4.55191e-05
2.07162e-05
6.501e-06
5.7136e-06
-5.63887e-06
-8.10913e-06
2.19291e-05
5.84502e-05
-3.48603e-05
2.4951e-05
-7.96368e-05
3.58625e-05
3.47493e-05
-6.11398e-05
-9.47199e-06
-1.47867e-05
-5.38128e-05
1.99821e-05
4.86174e-05
-0.000198658
3.51645e-05
-4.21602e-05
0.000205654
-3.36864e-05
6.00783e-05
1.39587e-05
-0.000104411
0.000156822
-0.00011523
6.28196e-05
2.63403e-05
-3.83813e-05
4.18496e-05
-2.98086e-05
-8.81728e-06
5.64657e-05
-5.09486e-06
-4.25536e-05
2.42191e-05
4.21177e-05
-6.24891e-05
4.1846e-05
1.16398e-05
6.57e-05
-8.61571e-05
6.25877e-05
1.366e-05
-6.45787e-05
8.18304e-05
-2.58629e-05
-3.85549e-05
5.88328e-05
-3.38894e-05
-5.60933e-07
-6.79985e-05
-4.35434e-06
2.98663e-05
2.36429e-06
-5.79706e-05
8.64791e-06
-6.33035e-05
4.85168e-05
-0.000153269
0.000144429
8.83947e-06
8.00438e-05
-3.34663e-05
-7.44577e-05
1.11543e-05
2.42277e-05
3.95134e-07
2.68694e-05
7.7304e-06
-2.94704e-05
-5.12937e-06
-5.51928e-05
1.9962e-05
-0.000100687
8.85113e-05
4.17489e-05
-6.01626e-05
1.21565e-05
-1.11004e-05
2.58133e-05
-5.78758e-05
3.29525e-05
-2.39163e-06
5.17625e-05
5.06727e-05
-0.000267594
0.000126264
0.000295698
-0.000154368
4.03298e-05
-9.20368e-06
-7.9111e-05
5.33775e-05
-2.31474e-05
2.22503e-05
1.30535e-05
-7.62593e-05
-4.11649e-05
-0.000259727
-0.000104358
9.26833e-05
6.33604e-05
-0.00010755
-0.000406992
0.00015046
-3.94252e-05
-5.20746e-05
-1.71067e-05
1.81691e-05
2.97959e-05
1.12175e-05
-2.68726e-05
2.57121e-05
-1.0057e-05
7.53988e-06
-3.78465e-06
-6.7192e-06
-2.46658e-05
2.36656e-05
6.10785e-05
-4.05424e-05
7.61754e-06
1.5781e-05
-2.40177e-05
6.97117e-06
6.08121e-06
-2.57373e-05
-0.000120566
1.62526e-05
5.42059e-05
1.50505e-05
5.5861e-06
-2.08905e-06
-8.13598e-06
1.00904e-05
4.23307e-05
-4.57247e-05
-4.38355e-05
4.72295e-05
-6.64362e-05
2.51604e-05
6.16631e-05
-2.03873e-05
-2.3642e-05
4.84617e-06
-3.67432e-05
5.5539e-05
-6.75722e-05
-7.43198e-05
7.59029e-05
5.545e-05
-5.70331e-05
-4.88325e-05
9.78281e-06
4.35981e-05
-1.25149e-06
3.31069e-05
-0.000294309
-0.000145791
4.7289e-05
3.25021e-05
-2.09383e-05
-5.88529e-05
-1.09492e-05
-2.92764e-05
-1.30557e-05
5.76062e-05
1.9537e-05
2.24392e-05
6.65494e-05
-7.37021e-05
-1.52865e-05
3.38047e-05
-0.000272122
0.000313106
-7.07928e-05
9.5382e-05
9.66931e-05
-0.000121282
-3.98946e-05
2.14439e-05
3.66063e-05
-3.21606e-06
-1.75932e-05
9.39117e-06
-7.60097e-06
1.5803e-05
-5.79488e-05
-3.96689e-06
-3.27296e-06
7.50681e-06
-2.66959e-07
3.99452e-05
-1.62982e-05
-7.70912e-05
9.45324e-06
7.70551e-05
-4.13308e-05
9.61613e-06
3.32842e-06
2.83862e-05
-2.31166e-05
2.30966e-06
-9.35688e-07
2.17426e-05
7.65569e-06
5.29531e-05
-2.15608e-05
1.94718e-05
0.000155674
0.000200188
6.58101e-05
-0.000240866
0.00021022
-7.3324e-05
1.14398e-05
8.22048e-05
5.24217e-05
2.55869e-06
-1.80937e-05
1.67699e-05
3.19348e-05
-8.93553e-06
-1.63479e-05
1.10838e-05
-1.18427e-05
6.23976e-05
-7.15004e-05
-3.03224e-05
-3.17986e-05
0.000152077
4.53192e-05
1.77565e-05
-5.98374e-05
5.63187e-06
-1.3725e-06
-5.07597e-05
2.24004e-05
-2.09212e-06
1.21387e-06
1.84112e-05
2.66996e-05
-4.58412e-07
-3.38818e-05
6.15331e-05
-4.76591e-05
-1.38739e-05
-1.22292e-05
2.6693e-05
-1.44638e-05
-0.000108912
9.33295e-05
1.55826e-05
-3.5909e-05
4.32652e-05
-7.35622e-06
9.94475e-05
-6.86052e-05
-3.08423e-05
2.23821e-05
-6.53504e-06
-1.5847e-05
-0.000103749
-6.09527e-06
0.000109844
5.08626e-05
-2.66582e-05
-2.42044e-05
7.42453e-05
-7.23969e-05
-1.8484e-06
-2.98715e-05
-6.03753e-06
8.11787e-05
-7.09033e-05
-1.02754e-05
5.95301e-06
-1.81822e-05
6.96898e-05
-8.15675e-06
-9.59826e-06
4.46012e-06
5.13814e-06
-0.000185067
5.15045e-05
-6.13057e-05
9.80119e-06
-0.000113907
0.000100822
-4.99595e-05
8.30544e-05
-8.80913e-06
-7.39016e-05
5.02551e-05
2.36466e-05
-5.25665e-05
-1.02557e-05
6.28223e-05
-0.00014072
3.18082e-05
0.000129204
1.52255e-05
-0.000101706
9.3267e-05
8.43861e-06
-4.57266e-05
2.02942e-05
2.54324e-05
5.90436e-06
-1.71904e-05
-6.30721e-06
4.52353e-05
-7.3058e-05
-4.64972e-05
5.87577e-05
1.88104e-05
5.82847e-05
-3.9961e-06
6.16758e-05
1.80089e-05
-2.20433e-05
-1.8514e-05
3.54165e-05
5.1407e-06
4.20781e-05
-1.4846e-06
-3.0362e-05
4.19759e-05
0.000270251
0.000299759
-4.05623e-05
-2.82936e-05
7.57037e-05
-7.32315e-05
7.34307e-05
3.24678e-05
1.73347e-06
9.90094e-06
4.94298e-05
3.1749e-05
-3.74839e-06
1.17095e-05
-7.96111e-06
-4.12729e-05
-9.30134e-06
-7.4894e-06
3.73278e-05
-8.83576e-07
1.52966e-05
7.68182e-06
1.26124e-05
0.000102075
-8.80807e-06
-2.7071e-06
-7.11164e-05
2.13146e-07
-2.07051e-05
1.94279e-05
-4.58064e-05
-2.58902e-05
2.05698e-05
-1.46654e-05
-8.10055e-06
-1.36899e-05
9.59098e-06
1.44839e-05
3.51627e-05
-2.60899e-05
-2.35567e-05
-6.49318e-05
-1.8648e-05
-1.17247e-05
-4.48034e-05
-4.05188e-05
-2.95373e-05
2.48382e-06
4.81439e-05
2.24469e-05
2.75797e-05
-1.93199e-05
-7.28385e-05
-4.83789e-06
3.7081e-06
-1.73548e-05
1.84846e-05
-2.15103e-05
1.88279e-05
-2.1555e-06
-3.1772e-05
1.09544e-05
6.43355e-07
2.01743e-05
-5.10254e-06
-2.85378e-06
2.31745e-06
-1.09318e-05
-9.64069e-05
0.000117388
-1.00489e-05
-1.5929e-05
-4.88366e-05
4.98525e-05
-7.57451e-06
1.66119e-06
8.10778e-07
-2.84301e-05
0.000189347
-1.8652e-05
4.17817e-05
-1.22157e-05
2.61745e-06
3.86665e-05
1.28381e-05
-5.12141e-05
6.73793e-05
-2.36546e-05
4.7061e-06
-2.22383e-06
-5.33604e-06
3.6376e-05
4.55743e-05
5.55148e-05
-6.54795e-06
-5.9916e-05
-2.97028e-05
2.08046e-05
5.12289e-05
-1.13916e-05
-1.77051e-05
4.30384e-06
-0.000192593
-0.000293304
0.000218303
2.4511e-06
1.2355e-05
7.22702e-08
-1.48784e-05
2.01122e-05
-4.21645e-05
-3.2718e-05
5.47703e-05
-3.67954e-05
3.92147e-05
2.56074e-06
8.74001e-06
-6.59464e-06
2.99609e-05
2.13005e-05
0.000108095
-0.000114615
7.35953e-05
-6.70745e-05
-6.28293e-06
1.03114e-05
1.83912e-05
-2.24197e-05
-1.49598e-05
-1.96895e-05
2.32577e-05
5.41142e-05
-1.8956e-05
-6.29237e-05
2.77655e-05
8.59219e-07
5.1146e-06
-2.74841e-05
2.09014e-05
-2.63251e-05
-1.42628e-05
4.93258e-05
1.90511e-05
1.40416e-05
-1.03335e-05
-1.42123e-05
3.62634e-05
-3.11474e-05
-4.0005e-05
1.92879e-05
-2.62728e-05
4.69898e-05
-1.9962e-05
-3.42552e-05
3.40006e-05
-2.93928e-05
-2.45698e-05
-4.4464e-05
-1.86024e-05
5.19061e-05
1.10874e-05
-2.66205e-05
3.43483e-05
-2.33122e-05
2.09442e-05
-2.42525e-05
-4.69659e-05
-2.24897e-05
2.69306e-05
-3.39301e-05
-2.2068e-05
1.66248e-05
-9.51666e-06
3.37298e-05
-3.74587e-05
-4.4017e-05
4.77459e-05
0.000304768
-0.000270963
-1.43012e-05
1.70397e-05
3.09914e-05
0.000130805
5.96248e-05
-8.23355e-05
-4.4116e-05
-0.000141378
8.95067e-05
4.27197e-05
9.15188e-06
0.000148881
-8.07371e-05
-0.000180956
0.000112812
8.17236e-06
-9.41092e-05
8.59368e-05
6.20005e-07
-1.28602e-05
-6.82752e-05
-1.29752e-05
4.37917e-05
4.09061e-05
-5.61882e-05
-4.57894e-05
6.10715e-05
8.5424e-05
-7.79213e-05
-4.6806e-05
5.24471e-05
0.000125164
-0.000156289
7.5683e-05
-8.62503e-05
0.000166856
-0.000106969
5.11414e-05
-0.000100461
-2.40233e-05
6.88386e-05
-3.47925e-05
-1.00228e-05
1.14146e-05
6.73141e-05
-9.76847e-05
-9.03995e-05
5.89692e-05
7.40691e-06
0.000187659
-0.000219883
-1.4582e-05
-4.17548e-05
2.75296e-05
5.51313e-05
3.50258e-05
-1.49873e-05
-3.67213e-05
1.66828e-05
5.72947e-05
4.70404e-05
-4.47102e-05
1.45224e-05
5.66666e-05
1.83177e-05
0.000155875
-3.24616e-05
-0.000230382
3.54585e-05
0.000163248
-1.10473e-05
-3.34343e-05
2.08295e-05
1.26048e-05
6.51398e-05
2.484e-05
-7.85652e-05
4.44195e-05
6.53223e-05
4.10981e-06
-2.6225e-06
-2.35553e-05
-1.31936e-05
1.55691e-05
3.26503e-05
-4.71608e-06
5.77674e-05
1.0947e-05
-7.10498e-05
7.62601e-05
-2.04113e-05
-5.58488e-05
-1.27558e-05
1.02864e-06
-2.57403e-06
2.60988e-05
-4.30037e-05
-3.88836e-05
-4.01737e-06
-6.9076e-05
-1.68178e-05
8.58938e-05
-4.58259e-05
6.06666e-05
-7.41351e-05
1.42885e-05
-1.4693e-05
7.58105e-06
-3.35832e-05
4.83591e-05
-2.07169e-05
1.62299e-05
-6.83651e-05
7.4924e-05
2.90593e-05
-0.000226784
0.000184405
1.84213e-05
4.2069e-05
-4.56731e-05
-0.000108354
0.000122721
1.21683e-07
6.2752e-05
-1.9347e-05
5.69064e-06
2.98863e-05
-5.17418e-05
8.43491e-05
3.18702e-05
-2.92974e-05
-0.00011004
0.000109489
-2.95009e-05
3.00512e-05
5.89082e-05
-2.83404e-05
1.73886e-06
1.11527e-05
2.52512e-06
-3.30248e-05
-2.23071e-05
3.19844e-05
1.22409e-05
-0.000108821
2.43168e-05
-2.55351e-05
8.62833e-06
-6.0676e-06
-3.11433e-05
-2.60691e-05
0.000110953
3.97863e-05
-7.70256e-06
1.49566e-05
9.01843e-05
-1.39242e-05
-3.92489e-06
-5.98654e-05
-2.15956e-05
4.87429e-05
2.32068e-06
1.8205e-06
-4.06891e-06
6.67225e-07
2.36267e-05
-0.000101509
-3.09385e-05
-6.98952e-06
1.09354e-05
-6.16968e-06
-5.13641e-05
-7.44249e-05
6.91435e-05
-4.0508e-05
4.58561e-05
-7.09594e-05
-3.88108e-05
6.39141e-05
-6.3136e-05
0.000210476
3.01689e-05
-0.000164962
-4.47638e-05
1.61456e-05
0.000135684
-5.9457e-06
3.24796e-05
6.15039e-05
-3.00071e-05
6.44215e-05
0.000100526
-4.27631e-05
-1.93144e-05
3.38878e-05
4.1727e-07
-1.35074e-05
4.78459e-05
5.74216e-05
-9.50286e-06
4.41552e-05
6.55004e-05
-0.000105519
-7.45967e-05
6.53514e-05
-5.45101e-05
-2.47655e-05
0.00018243
0.000122338
7.2566e-05
0.000109864
1.52885e-05
1.07831e-05
-7.58703e-06
-9.62324e-06
-3.19085e-05
-6.23835e-07
8.8652e-05
1.44352e-05
-7.94604e-05
-6.2262e-05
6.02965e-05
5.31944e-05
-9.18804e-06
3.347e-06
-3.28013e-05
-8.62719e-05
-8.46299e-05
6.35439e-05
2.50264e-05
-1.71486e-05
-6.37325e-05
6.08145e-05
-5.88733e-06
-3.26365e-05
-2.28126e-05
8.85216e-06
-1.40478e-05
-2.52571e-06
-3.23756e-05
3.56333e-05
-4.59091e-05
-3.44344e-05
8.87017e-05
-1.9077e-05
-4.44492e-06
-4.88817e-05
-2.40936e-05
7.16973e-05
7.42621e-05
-5.26992e-05
-0.000141522
4.82487e-05
0.000145972
-6.27442e-05
-5.26231e-05
-1.46426e-05
4.56702e-05
-9.78169e-06
6.30772e-06
5.29446e-06
-9.00506e-06
8.99564e-05
-9.47287e-05
-1.6929e-05
-1.03286e-05
-1.24779e-05
-1.2258e-05
1.05188e-05
1.42171e-05
-9.86764e-06
1.3557e-06
1.14394e-05
0.000152624
-0.000196525
-8.12337e-05
-1.27564e-05
5.75006e-06
-2.85964e-05
1.41701e-05
-2.97497e-05
-0.000114539
0.000100439
-2.71284e-05
-5.79897e-05
6.13305e-05
2.37876e-05
-2.25823e-06
-1.34595e-05
8.11674e-06
-9.52223e-06
-3.85393e-06
-0.000180071
-4.00152e-05
0.000167387
-1.56605e-05
-3.225e-05
-1.31848e-05
-6.74531e-05
1.6969e-05
2.63894e-05
-1.33857e-05
-4.62488e-05
-4.8131e-05
-8.53806e-05
-2.75689e-05
-0.000124885
2.28658e-06
-5.61079e-06
0.000100317
-9.69924e-05
7.2013e-05
-8.7596e-05
9.12866e-05
-4.71231e-05
-7.19673e-05
-5.79718e-05
3.77944e-06
-5.44784e-06
-0.00010753
-4.46544e-05
4.9469e-05
-6.1166e-05
3.49386e-05
-1.25834e-05
-1.85973e-05
2.51413e-05
-6.54397e-06
-9.20966e-05
3.00203e-05
-8.52431e-05
-4.29007e-05
-7.24231e-05
-3.58659e-05
8.83973e-06
-5.74667e-06
-1.93554e-06
-1.15753e-06
1.47372e-05
-2.75693e-05
6.06669e-05
-1.70922e-05
1.47737e-05
2.55761e-05
-1.06644e-05
-9.00195e-05
3.87247e-05
0.000109694
-4.2822e-05
6.15941e-05
7.58499e-05
1.41412e-05
7.16962e-05
-6.73724e-05
-1.8465e-05
-3.35198e-05
2.62816e-05
-8.91687e-05
-1.89048e-05
1.89288e-05
-1.08117e-05
1.07877e-05
-3.3321e-05
1.16683e-05
2.89931e-05
-2.56631e-05
-6.78933e-05
4.24225e-06
8.12845e-05
-2.13875e-05
3.82473e-05
-3.60639e-06
8.31261e-06
-3.51409e-06
7.7653e-06
6.01172e-05
5.28793e-06
-1.26053e-05
6.64834e-05
-5.52756e-05
5.76308e-05
-4.31409e-05
-1.29626e-05
4.14609e-05
-2.50432e-05
1.39714e-05
1.73795e-05
-8.66953e-06
-5.92999e-05
-1.1108e-05
-1.95582e-06
9.32577e-05
-2.82634e-05
2.55966e-05
1.38843e-05
2.11037e-05
-2.40258e-05
-6.56817e-05
6.10001e-05
-0.000132874
-1.34141e-05
0.000186732
1.3982e-05
-0.00011716
-8.35543e-05
3.15923e-06
8.19579e-05
0.000242844
-0.000252236
-6.13785e-05
4.0082e-05
0.000118577
-0.000259354
6.81045e-06
-7.83975e-06
-2.93759e-06
3.6958e-05
-4.22197e-05
-8.68349e-05
0.000181784
-0.000110409
-3.17105e-05
1.58504e-05
-4.59201e-05
5.5332e-05
4.60381e-05
-2.09194e-05
1.27628e-05
-1.49601e-05
-5.14436e-05
-2.45159e-05
3.46287e-05
-4.26205e-05
1.97875e-05
-4.16187e-05
-1.21629e-05
5.37816e-05
1.06541e-05
-3.65666e-05
4.54496e-05
3.16981e-05
7.64928e-05
-3.64947e-05
-3.76925e-05
3.86829e-05
-3.02842e-05
1.68874e-05
2.64223e-05
-2.88105e-05
-3.38265e-05
1.60107e-05
1.15267e-05
8.13062e-06
-1.86286e-05
1.15748e-05
-2.69918e-05
-2.0908e-05
9.02342e-05
1.97237e-05
-0.000105716
-3.26208e-05
1.54262e-05
-2.60259e-06
-2.36016e-06
-1.53511e-05
-2.20061e-05
-2.93573e-05
-2.63395e-05
4.49022e-05
-2.86906e-05
9.09596e-06
-3.39075e-05
-1.77024e-05
-9.81396e-05
-4.49687e-06
0.000154793
-0.00013264
9.06592e-05
-4.52012e-05
-1.25479e-05
-6.71758e-05
-6.01051e-06
-6.42723e-05
0.000109904
4.46023e-05
-0.000107617
0.000102913
-5.23289e-05
0.000259046
-3.59627e-05
2.09728e-05
-0.000244056
-2.51607e-05
8.00369e-07
1.12847e-05
-1.05325e-05
2.567e-05
5.72846e-05
-2.43211e-05
-2.39561e-05
4.43401e-05
0.000116283
-1.92895e-05
3.4934e-05
1.27672e-05
-1.97897e-05
0.000124744
-4.83206e-05
-5.9908e-06
1.03315e-05
-2.25971e-05
-8.92063e-06
-9.88471e-05
5.42984e-05
-4.35618e-06
1.69176e-05
3.34287e-05
-2.46331e-05
-4.34214e-06
-1.64775e-05
0.000121044
-3.84602e-05
-1.37595e-06
1.399e-05
3.31367e-05
-4.71174e-05
-9.3263e-09
1.26035e-05
4.01202e-05
-4.39908e-05
-8.73291e-06
5.53663e-05
-1.63029e-05
6.43597e-06
-2.09639e-05
-1.85702e-05
6.24207e-05
-7.78048e-05
-1.24885e-05
2.78726e-05
-3.4035e-06
-3.30353e-05
1.60089e-05
2.04298e-05
9.9504e-05
1.73062e-06
-6.62802e-06
-1.8666e-05
1.87659e-05
-1.2e-05
4.83314e-05
7.7224e-05
-4.90626e-05
1.48919e-05
-6.63455e-06
3.1371e-05
-3.81157e-05
-5.23905e-05
-5.56706e-05
5.66175e-05
7.50559e-05
4.33408e-05
-5.80384e-05
-2.64718e-05
3.46207e-05
5.6869e-05
4.47282e-06
-4.41744e-05
8.89545e-06
-7.20184e-05
0.00010839
-9.57809e-05
-1.26095e-05
-0.000159642
2.92553e-05
1.51445e-05
-2.06857e-05
-2.64289e-05
7.7675e-05
8.62701e-05
-2.29729e-05
9.66519e-06
7.02863e-05
-6.14073e-05
2.38127e-05
-3.96967e-05
6.41592e-05
1.37691e-05
-1.5737e-05
2.69417e-05
2.51713e-05
2.297e-06
-1.90584e-05
-1.77652e-05
3.77178e-05
-0.000128907
-3.43074e-05
6.65402e-05
5.10752e-05
2.54686e-05
-4.56537e-06
4.1108e-05
3.58951e-05
-1.33383e-05
-2.59101e-05
-7.71502e-05
3.39883e-05
4.0843e-05
2.84092e-05
2.18459e-05
-7.78143e-05
2.83161e-07
7.81346e-05
3.37885e-05
3.02986e-05
9.35693e-06
-1.57096e-05
5.67335e-05
-8.46211e-05
-3.25117e-05
-9.55035e-05
8.20868e-05
-3.2217e-05
-1.66336e-05
-7.07863e-06
7.06871e-06
1.66436e-05
4.92304e-06
-1.91037e-05
-1.27667e-06
-6.56785e-05
-1.81639e-05
3.49679e-05
-5.73498e-07
1.05325e-05
-4.43707e-05
-6.04657e-05
-5.63938e-06
4.43156e-05
9.17885e-06
1.63908e-05
-2.94752e-06
3.8933e-07
2.55819e-06
-6.35101e-06
0.000268682
5.83175e-05
-7.58765e-05
-0.000251123
-1.73707e-06
-1.59107e-05
9.55972e-06
-5.6494e-05
-0.000128573
8.17745e-06
1.6809e-05
8.73988e-07
-2.61106e-06
-1.41007e-05
-1.81e-06
-5.77331e-05
3.12736e-05
2.64595e-05
0.00014214
-7.49368e-05
-6.7203e-05
7.33711e-05
-2.93109e-05
-7.23538e-05
3.25398e-06
8.03075e-06
-6.52571e-05
2.57394e-05
6.68512e-05
-2.73334e-05
-2.11033e-05
-6.65595e-05
-1.56972e-06
-2.31129e-05
2.72461e-05
-0.000111663
-1.81574e-05
2.56102e-05
-7.45281e-06
1.79713e-05
1.84701e-05
1.04402e-05
1.40857e-06
-1.53628e-05
1.4667e-05
0.000179693
7.701e-05
0.000220701
-0.000143043
0.000117252
1.30388e-05
-9.52267e-05
-3.71321e-05
-1.18356e-05
-2.04947e-05
-8.21212e-06
1.10256e-05
-5.21591e-06
-5.80974e-06
2.54231e-05
4.80945e-05
-5.80914e-05
1.54375e-05
-4.30081e-06
-1.5033e-05
3.27825e-05
-1.16559e-06
-5.02348e-05
1.74457e-07
-1.49142e-05
-1.76233e-05
-7.13178e-06
-9.51476e-05
1.03219e-05
0.000107359
-2.25333e-05
-2.03936e-05
1.85944e-05
2.61518e-05
-2.43526e-05
9.25993e-05
-0.0001287
0.000106947
-9.27112e-05
8.92441e-05
-2.0826e-06
2.16261e-05
5.80655e-06
-1.48292e-05
-1.63592e-05
6.24761e-06
1.2675e-05
-2.45799e-05
-5.40911e-05
-2.96871e-05
5.77091e-05
-0.000375416
0.000193548
-3.66045e-05
8.79125e-06
-9.66838e-06
8.38067e-06
-9.63822e-05
0.000101314
-2.33966e-05
2.25587e-05
4.90156e-05
-1.37038e-05
-3.53118e-05
6.71906e-05
3.37158e-05
-3.84857e-05
3.55993e-05
1.6931e-05
-4.29142e-05
5.81221e-06
-1.34073e-06
-2.16182e-06
2.70503e-05
-4.1834e-05
-7.94504e-05
3.03238e-05
2.85242e-05
-0.000170669
1.7124e-05
1.48193e-05
-6.39136e-05
-6.11325e-06
-3.01836e-05
-5.04405e-05
1.40272e-05
-8.83961e-05
-9.26276e-06
-2.41397e-05
1.11969e-05
-3.17687e-05
-2.40722e-05
0.000132463
7.24725e-05
-9.83096e-05
-8.01382e-05
-7.39044e-07
6.22253e-05
0.000101433
-3.66142e-05
1.25874e-05
-1.86005e-05
-0.00031174
0.000318195
1.18731e-05
1.65361e-05
5.50473e-05
7.16937e-05
-0.000119764
0.000120543
-9.17826e-05
-1.38112e-05
2.36485e-05
-2.09218e-05
3.99392e-06
-8.5459e-05
-0.000102669
0.000129724
-8.05597e-05
6.5748e-05
-4.90947e-05
7.06482e-05
-1.75012e-05
-2.65504e-05
3.29513e-05
-2.27121e-05
-8.39139e-06
-7.3825e-05
7.61116e-05
-7.24225e-05
-1.40253e-06
2.09132e-05
-4.53852e-05
-0.000111192
0.000135664
3.05561e-05
4.15709e-07
-1.57471e-05
2.80206e-05
-1.34746e-07
-1.21387e-05
5.56112e-05
-0.000111463
7.02379e-05
-1.43863e-05
-2.53752e-06
-2.95417e-05
-3.28396e-05
-9.40599e-05
-3.78823e-06
-8.33777e-05
1.25285e-06
0.000113933
-6.25067e-05
1.18571e-06
-1.44391e-05
9.35665e-06
1.76698e-05
-3.52901e-06
8.39795e-06
3.02685e-05
-3.80449e-06
-8.41122e-06
-4.29623e-06
-9.84169e-06
-1.60922e-06
-7.1673e-05
4.7305e-05
-0.000150506
0.000105421
-5.04666e-05
2.6991e-05
3.09864e-05
-2.05464e-05
-1.30625e-05
6.17026e-05
6.54861e-05
-4.50521e-05
3.57085e-05
2.33336e-05
-1.24234e-06
-1.15339e-05
-3.78318e-05
-6.55306e-05
3.40925e-06
9.24506e-05
3.51395e-05
-2.6682e-05
-4.19232e-05
-0.000116396
4.52992e-05
-9.77129e-07
2.76904e-05
-3.96418e-05
-3.85151e-05
-4.51797e-05
-4.91491e-05
-1.13724e-05
-7.87144e-05
1.4506e-05
1.91209e-05
3.79508e-06
2.90577e-05
-1.63012e-05
-1.04608e-05
5.84015e-06
1.23888e-05
1.63427e-05
1.9766e-05
-8.34732e-05
6.49818e-05
-4.74495e-05
-0.00010091
1.576e-06
-4.20948e-05
0.000101375
5.10821e-05
-1.38786e-05
0.000113222
-1.84725e-05
-3.04929e-05
1.79682e-05
-4.34783e-05
5.49215e-06
-5.10886e-05
0.000246106
0.000265637
3.69484e-05
2.24633e-05
-3.16463e-05
9.41574e-06
-3.0706e-05
9.66397e-05
-6.75049e-05
4.29356e-05
-6.13043e-05
4.62718e-05
1.0374e-05
1.11095e-05
-2.01395e-05
-1.6978e-05
1.13817e-05
-6.02287e-06
2.22154e-05
1.41777e-05
-3.03703e-05
-3.67398e-05
5.4565e-05
6.32224e-07
-2.25985e-05
-5.73937e-06
2.02283e-05
-2.21614e-05
0.000179086
0.000190322
-5.63018e-05
-0.00010388
7.44373e-05
2.74873e-05
-0.000129558
1.68209e-05
-9.64222e-05
8.6714e-06
-3.13219e-05
3.42517e-05
5.82222e-05
3.50013e-05
7.5599e-05
-4.87474e-06
-3.81379e-05
-2.67412e-05
2.37583e-05
1.93256e-05
3.31623e-06
6.61479e-06
-1.96774e-05
9.59927e-05
-9.45669e-05
6.75313e-05
-6.17734e-05
-3.77911e-05
-5.82746e-05
-1.38372e-05
0.000158845
1.84851e-05
3.2569e-06
-8.51215e-05
4.5689e-05
3.94325e-05
-1.50001e-05
4.2285e-06
-7.28159e-06
3.05309e-06
6.64997e-06
-4.73262e-05
4.69272e-05
6.51078e-05
-9.32669e-06
3.27302e-05
-2.48474e-05
4.12545e-08
-3.53564e-05
7.97254e-05
-8.31733e-05
0.00010194
0.000136855
-2.75157e-05
1.5866e-06
1.63384e-06
1.92109e-05
-1.83149e-05
-5.24387e-06
-0.000117666
-4.91638e-05
7.68389e-05
-4.7806e-05
0.000290247
1.90538e-06
-1.23822e-05
6.36019e-06
-2.1521e-07
2.03605e-05
-2.84795e-05
2.81011e-05
-3.42028e-05
2.69745e-05
7.22835e-06
-3.81322e-05
3.92936e-06
3.81665e-05
-3.32274e-05
-4.93911e-06
3.43381e-08
0.000128721
-0.000150161
2.14404e-05
9.5206e-05
3.35148e-05
-0.000152076
-0.000140037
-1.20389e-05
1.93108e-05
-0.000136623
-3.41496e-06
-0.000141043
4.42042e-06
1.25063e-05
6.80444e-06
7.29516e-06
2.93898e-06
3.76709e-05
7.61462e-05
-1.03395e-06
3.97293e-06
3.19455e-06
-6.99263e-06
3.51347e-05
2.36744e-05
4.03164e-06
2.73091e-06
6.67268e-05
1.4306e-07
-6.68698e-05
-0.000140398
-3.07181e-05
3.80438e-05
-3.32159e-05
2.96125e-05
-5.97769e-06
1.15047e-05
-9.75927e-06
1.73242e-05
2.82975e-05
8.34865e-06
3.52372e-05
-4.67897e-06
0.000132968
-4.09608e-06
5.88636e-06
-3.7921e-05
5.60863e-05
-1.81653e-05
1.49262e-05
-4.42437e-05
-6.19676e-06
-0.000130541
0.000125012
-6.72417e-05
2.71187e-06
4.35915e-05
-2.10067e-05
-1.69143e-05
2.24387e-05
9.44682e-06
1.16984e-05
3.35576e-05
-0.000131206
-9.19124e-06
-5.41941e-05
-1.39005e-05
3.6384e-05
3.62354e-05
0.000205056
0.000175879
0.000158613
5.94131e-06
-2.55943e-05
1.90067e-05
-2.59762e-05
1.08279e-05
-0.000101876
9.01644e-05
4.57553e-05
-4.61123e-05
3.76848e-05
1.93229e-05
5.17127e-05
1.30964e-05
0.000176624
-0.000179883
1.10009e-05
2.70695e-05
7.56178e-05
-1.95316e-05
-0.000115388
-1.58185e-05
8.83412e-05
-2.97102e-05
2.94153e-05
-2.54321e-05
-6.70992e-05
-0.000130433
-0.000248313
9.44748e-05
-1.88569e-05
-1.07794e-05
-2.95891e-05
-1.13829e-05
6.55524e-05
4.72455e-05
-7.37181e-05
0.000170771
-6.12142e-05
-1.29326e-05
3.44262e-05
-3.29811e-06
-1.11903e-05
2.22998e-05
-1.36464e-05
4.30617e-05
5.27931e-05
-6.14767e-05