/*--------------------------------*- C++ -*----------------------------------*\
| =========                 |                                                 |
| \\      /  F ield         | OpenFOAM: The Open Source CFD Toolbox           |
|  \\    /   O peration     | Version:  v1912                                 |
|   \\  /    A nd           | Website:  www.openfoam.com                      |
|    \\/     M anipulation  |                                                 |
\*---------------------------------------------------------------------------*/
FoamFile
{
    version     2.0;
    format      ascii;
    class       volScalarField;
    location    "0.28";
    object      k;
}
// * * * * * * * * * * * * * * * * * * * * * * * * * * * * * * * * * * * * * //

dimensions      [0 2 -2 0 0 0 0];


internalField   nonuniform List<scalar> 
5794
(
0.601113
0.0959061
0.362023
0.177752
0.82494
0.241367
0.40605
0.977643
2.11233
0.494616
0.933637
0.117853
0.270176
0.36773
0.453446
0.0610567
2.97833
0.173788
0.303258
0.0759928
1.14026
0.460116
0.390082
0.237115
0.798952
2.43731
2.56335
0.906384
1.754
0.148165
0.475509
0.288484
0.591592
0.122347
1.17113
0.573199
0.196647
0.102502
0.739218
0.468316
1.01532
0.324581
0.279202
0.391405
0.491024
1.17254
0.285745
0.502163
0.298541
0.420398
0.0487858
1.63916
0.48156
0.34269
0.0123098
1.17233
0.405202
0.573736
0.209217
3.94087
0.900998
0.10816
0.518856
0.532352
1.02121
0.088488
0.985673
0.274615
0.190457
0.149098
2.40061
1.40101
2.61933
0.241759
0.141394
1.05768
0.108754
1.8805
0.424877
0.0198602
0.235673
0.110737
0.817519
0.338911
0.115848
0.657152
0.402213
0.870133
0.430924
0.550151
2.28733
1.03995
1.30107
2.38055
1.3901
2.96024
1.68764
1.11138
0.884463
0.976364
0.926588
0.136623
0.243021
0.312021
0.389843
1.59765
0.0847336
0.554849
1.93572
0.456535
0.0828786
0.636967
0.988796
0.0690654
1.46834
1.6526
0.249586
2.09377
0.831836
0.497207
2.01509
0.229369
0.0802164
1.07486
0.747378
1.4236
0.41334
0.209131
1.94466
0.885344
0.151363
0.381047
0.336454
1.68423
1.52542
0.527142
1.90067
0.111629
0.0423227
0.0970416
0.351709
1.0017
0.925379
0.812679
0.0817662
3.5727
0.339853
0.769267
0.505071
0.90233
0.320577
0.30874
1.54094
0.101007
3.17195
0.239802
0.349868
0.299279
1.36
0.0848576
0.333756
0.334358
0.0857131
0.60681
1.35503
1.54517
0.704776
0.247745
0.068336
0.487367
0.13204
0.944607
0.317358
0.797044
0.106114
0.301796
0.192091
0.738133
0.09186
1.72935
0.0976754
0.367855
0.255242
0.907874
0.302914
1.77314
0.153305
0.309209
0.322605
0.105166
0.948183
0.291076
0.6047
0.392889
0.269878
0.129233
0.857912
0.219994
0.281121
0.276977
0.285349
1.51904
0.476194
0.269489
0.253208
1.17809
0.230633
1.11344
0.480002
1.45234
0.556265
0.31478
0.798194
0.671829
0.149795
1.22318
0.474149
0.296736
1.16337
1.73349
0.307372
1.02371
3.53725
1.41172
1.77881
1.01483
0.103219
0.970766
0.301483
0.350625
0.480311
1.62943
0.128248
1.49395
0.136698
0.895988
0.755832
0.767809
0.201976
0.279506
0.133749
2.24022
1.36865
0.101316
0.110894
0.119918
0.661671
0.327211
1.2856
0.775393
0.424714
0.0713463
3.25273
0.0541879
0.208711
0.922345
0.258772
0.378153
0.776694
0.593595
1.29786
0.889179
0.612475
0.0480409
0.487673
0.845546
0.660161
1.70041
0.419288
1.37888
0.29238
0.503947
1.00435
2.32322
0.398853
0.280401
0.333407
0.292719
0.0894479
0.280316
0.406021
1.52895
1.06801
0.312266
0.528609
2.32548
0.90833
1.11091
2.16399
1.70384
0.537366
1.58233
0.154074
0.535232
0.202747
1.96803
1.62014
0.237469
0.590827
0.0500124
0.104365
0.790529
0.171948
1.76471
0.319627
1.60016
0.0716892
0.157052
1.341
0.250053
0.488718
1.13293
1.69958
0.0603984
0.292443
0.589311
0.757285
0.706947
1.82001
2.53324
1.13166
0.841173
1.33916
0.562421
0.0544976
0.693751
0.373043
0.122341
0.24283
0.863288
1.57315
0.282377
0.286825
0.458436
0.220808
0.400933
0.423871
0.0728038
0.254673
0.199069
0.145924
0.691472
1.91928
0.336144
0.208276
0.190644
1.1951
0.477301
1.83739
0.10731
0.998459
1.52432
0.717353
0.316964
0.323785
1.2267
0.25451
1.51505
0.318812
0.921371
0.965511
0.117922
1.6621
0.499116
0.967578
0.291339
1.35962
1.08228
0.277797
0.56255
0.307959
0.0662303
0.351306
0.092475
1.40839
1.51885
0.98282
0.376245
0.730313
0.0273861
0.490263
0.28252
0.322788
0.619978
0.738666
0.112415
2.00214
0.894613
0.865446
0.745041
0.244309
1.19372
0.12991
0.371479
0.275383
0.976457
0.101837
0.364844
0.358723
0.373078
0.168269
0.901296
1.34895
0.0775315
0.521746
1.01542
0.465209
0.35505
0.0846651
1.56176
1.18372
0.66432
1.33671
0.718105
1.23618
0.243513
0.413224
0.233543
1.26196
1.5531
0.825723
1.05348
1.11884
0.322801
0.426989
0.615209
0.103496
0.0762955
0.0715592
0.366545
1.75756
0.224178
0.633376
1.4355
0.423008
0.315923
0.106078
0.216105
0.570175
0.558632
0.110754
0.269587
0.338989
0.115713
0.256639
1.88232
1.49114
0.030928
0.296077
1.75313
0.463242
0.0749503
1.62175
0.538442
1.70521
0.0454406
1.71077
3.48359
1.14782
2.89407
0.49706
0.0796261
0.486453
0.170478
1.06051
0.85293
1.067
0.957292
1.02534
0.490505
0.0218066
0.638799
1.64822
0.433069
0.641174
1.71173
1.45225
0.920394
0.30674
0.0830702
0.56275
0.446985
0.402632
0.346436
0.901274
1.16847
0.314333
0.279565
1.41513
0.345434
0.0905357
0.474945
1.10092
0.349062
0.617304
0.0978319
0.181178
0.27262
0.043901
0.899276
0.745917
1.17981
0.262966
0.60459
0.429773
0.0830426
0.304452
0.536612
1.52593
0.0779221
2.87221
0.0588917
0.571094
0.0353926
0.0460265
1.30156
1.46141
0.0322804
0.223511
1.31549
0.347821
0.0756493
0.900144
1.92734
0.826754
0.13307
0.444382
1.06605
0.0728703
0.510244
0.577734
0.031991
1.02767
0.229176
0.323687
0.782819
0.240245
2.09948
0.775665
1.04487
0.378334
1.70935
0.0711201
0.39836
0.415095
0.0578507
0.215905
0.886838
0.0553049
0.238446
0.35567
0.0470632
0.231505
0.443722
0.179673
0.928368
0.514332
0.463917
0.0756173
0.502516
4.7034
0.117404
1.38247
0.415248
0.377687
0.240038
0.0703264
0.681689
0.168683
0.0663511
1.15826
1.19211
0.868402
1.14211
1.20117
0.295138
0.954824
0.534863
0.202718
1.62927
1.81071
1.092
2.88765
0.947861
2.26391
0.805395
0.0783816
1.49267
0.747051
1.8999
0.0744849
0.154094
0.118024
2.10467
1.12656
1.02062
0.0216229
0.293639
0.0415744
0.634017
0.186849
1.27746
1.17862
2.25169
0.0435698
0.504669
2.6741
0.398022
0.0161463
0.3361
0.869401
1.09517
0.425775
0.43939
0.104741
0.287933
0.810454
0.668756
0.266086
0.0737141
0.079324
1.26274
1.68181
0.866495
0.0923543
0.145652
0.207277
0.917786
2.3194
0.0735616
0.439747
0.0893806
0.0579654
0.300053
0.0815007
0.397804
2.0674
0.487481
0.281113
0.572089
0.350395
0.265427
1.2572
0.856415
1.86642
2.73501
0.966155
0.743668
0.109409
0.0927175
0.141549
0.433617
0.211528
0.224022
0.19024
1.57191
1.59856
0.0776991
0.943018
0.45868
0.0403365
0.403322
0.495337
0.695469
0.0850967
1.0677
2.48084
2.37447
0.973922
1.05725
0.785864
0.375367
1.32865
0.653713
1.09421
1.14835
2.36312
0.433804
0.406907
0.31382
0.133631
1.20648
0.347395
0.0506148
0.532038
1.93846
2.64019
0.249278
0.123445
0.0295261
0.269871
3.95288
1.97497
1.14951
0.531354
0.985624
1.14013
0.0885615
0.0973016
0.2899
0.227549
0.178008
0.035516
0.39189
0.579271
2.14675
0.313829
0.374814
0.168228
3.07376
0.446746
3.1892
1.16021
2.01841
1.49108
0.373856
0.266347
2.22979
1.22862
1.9396
1.92044
2.1952
2.14282
0.234093
0.811824
0.384509
0.32475
0.506828
2.9773
0.632129
1.29217
1.34055
2.97394
0.803765
0.538059
0.381372
1.8786
0.753881
0.989476
1.23541
2.01415
0.0809494
0.119209
0.252216
0.201793
2.12584
0.788639
2.25731
0.539937
0.28325
0.140284
0.400043
0.292694
0.0397902
1.28187
2.04366
0.207741
2.59012
1.35945
0.243249
0.2374
1.08191
1.78723
1.03854
2.62644
2.39047
1.03141
1.20721
0.432261
1.34958
0.715129
1.78039
0.85797
0.174178
0.482281
0.14069
0.124895
0.424897
0.480815
0.282919
1.51223
1.84888
0.480233
0.534376
0.0750774
1.87036
1.02987
1.31851
1.98295
1.10008
0.0563751
2.01423
1.92161
1.06086
0.263501
1.04231
0.0779346
2.30579
0.427154
1.96524
0.306584
0.862025
0.25971
0.0379301
0.135965
0.458933
1.54417
1.76332
1.60227
4.19618
1.12443
0.314826
0.538109
0.574714
3.85128
0.108476
0.129765
0.497525
2.51092
0.0828527
0.394754
0.518703
0.746741
1.25477
0.0645252
0.385777
0.355455
0.436536
0.467388
0.800206
1.62561
1.84178
0.282794
0.230072
1.30298
0.44033
0.520508
2.82789
0.192181
0.104092
0.216459
0.0889887
1.05078
0.161299
0.499744
0.0425937
0.357744
0.211712
0.316562
1.18862
1.12565
2.3951
1.12738
0.877856
1.63171
1.12531
1.28818
1.38008
0.0418329
0.121084
0.20826
0.479199
0.523678
0.31849
2.86461
1.22915
2.40561
0.8973
0.233801
0.265618
0.0619606
0.348567
1.25124
0.305334
3.87387
0.294544
0.255835
1.64607
0.353513
0.232441
0.0911923
0.184036
0.876247
0.254847
0.09712
0.243807
0.815491
1.7928
0.486322
0.299387
1.00983
0.443597
1.05529
2.51891
2.50977
1.83167
0.749541
0.285088
0.0893091
0.881956
0.0660322
0.0459678
0.0809006
0.33054
0.741975
0.0964623
0.254313
0.0687878
0.483085
2.48636
0.363482
0.2791
0.493255
1.06213
1.46651
1.22924
1.35178
0.234429
0.0685597
1.43151
0.365071
1.20734
0.268008
1.15077
0.770865
0.99945
0.146954
1.28256
1.05683
0.287289
0.248369
0.26346
0.215977
0.0845431
0.739436
0.332768
1.74206
1.46386
0.781644
1.03962
1.32258
0.291957
0.083419
0.373218
0.430163
0.0614303
0.762674
1.5333
1.88961
0.246394
1.74548
1.26278
0.0795003
0.54357
1.05136
0.998454
0.305143
0.368092
0.475685
1.63033
0.518905
0.99222
0.123939
0.241429
0.0812026
0.098133
0.101041
0.213911
0.0397926
0.0706211
0.0862914
0.163151
0.264383
0.217035
0.215854
0.135038
0.068321
1.03522
0.299689
2.08972
0.190058
0.559398
0.0763801
0.682623
0.200716
0.500629
0.16129
0.650308
1.59967
0.159014
0.304332
0.265243
0.0368306
0.291842
1.34772
0.430798
1.0524
2.41285
0.0360819
0.318557
0.533236
0.398322
0.470872
0.987685
1.28693
2.30466
0.161425
0.493546
0.0683222
0.0778887
0.399367
0.376772
1.51082
1.06534
1.25991
0.0326694
1.30351
1.29456
0.857971
0.741184
0.799733
0.0925479
0.626943
0.0717777
0.682336
0.30242
0.592038
0.201121
0.250119
0.196715
0.204828
0.286348
0.716417
0.0960594
0.491181
0.696973
0.620255
0.748726
0.102595
0.274549
1.10948
0.0463938
0.444382
0.206235
0.452438
0.870037
0.0440265
1.44666
0.0953079
0.311507
1.10894
0.164958
0.982964
0.264516
0.0680224
0.50233
0.698408
0.0312705
2.43056
0.647006
0.254239
0.0816125
0.549403
0.0298085
0.0821372
0.309301
0.165136
0.0316554
0.113663
0.875736
0.450546
1.51264
0.499684
0.256994
2.25095
1.1009
0.0337375
0.128486
0.563276
0.407526
0.895318
2.05582
0.0351763
0.614724
0.0296817
0.700113
0.158983
1.68025
0.238387
0.782726
1.687
0.0429862
0.666996
0.147062
0.0226595
0.427463
0.22455
0.623972
0.647889
0.0404118
0.680735
0.036939
0.0445851
0.502049
0.0790198
0.408687
0.474863
0.403991
1.44336
0.226503
1.14852
0.0913591
0.191675
0.0836017
0.198747
0.219229
0.392284
0.385225
0.576333
0.254961
0.497268
1.06306
0.450315
0.0884902
0.509846
0.751901
0.569122
0.464718
0.243775
4.16327
2.05131
1.40637
0.433268
4.00922
0.25865
0.259556
0.608176
0.156996
0.259388
0.034674
8.9864
0.69754
0.0381153
0.46743
1.7643
1.73551
0.274036
0.131353
0.378578
0.746579
0.709218
0.113612
0.846353
0.484182
1.40367
0.216021
0.467326
0.167435
0.0457564
0.473585
0.396104
0.375703
0.604102
0.0729263
0.83228
0.605684
0.984071
0.322828
0.462812
0.190458
0.449395
0.292558
0.391802
0.33447
0.191474
0.367162
0.448905
0.493992
0.275179
0.216891
0.0881896
0.267356
0.588798
0.387086
0.595413
1.05939
0.41653
0.262987
0.424473
0.237599
0.227482
0.60876
0.380121
0.322912
0.47756
0.0300151
0.206079
0.0857133
4.05383
0.039798
0.0351637
0.308034
0.167924
0.0945179
1.23331
0.442374
0.216957
0.142013
0.345247
0.560854
1.74693
1.0533
0.184707
0.144924
0.145031
0.279661
1.72128
1.43694
0.407214
0.281689
0.0399998
0.172661
0.43789
0.658232
1.49648
0.173426
0.262866
0.656108
0.446404
0.0439883
0.711472
2.15021
0.634447
0.924908
0.990812
0.235192
0.0655227
0.243134
0.99546
0.372335
0.91695
0.076442
0.0719966
1.10813
0.304634
0.526099
0.0270092
0.337563
1.55332
0.0528906
0.0289145
0.26954
0.112631
0.0914386
0.318874
0.389801
0.799146
0.0402791
0.1459
1.35213
2.50255
0.621705
0.601753
0.805429
0.197834
1.06716
0.0855435
0.250285
2.21958
0.673099
1.44758
0.337466
0.937852
1.37587
1.3237
0.424767
0.573572
0.0804694
0.602838
0.0377434
0.27901
0.25949
0.305891
0.507617
0.732512
0.369933
0.400496
0.448717
0.0382014
0.0833584
0.25747
0.505694
0.0233382
0.286899
1.07621
0.293968
1.59454
1.33015
0.432687
0.113665
4.04669
0.0808295
1.03106
0.743248
0.225822
0.247232
0.138003
0.477231
0.0787905
0.536404
0.0459368
0.536359
0.0362369
0.157114
0.37957
1.177
0.449539
0.715457
1.12785
0.450483
0.278004
0.0342245
0.864887
0.550207
0.653778
2.04624
0.297597
0.0566455
0.481019
1.16198
0.551513
1.4745
1.05571
0.836268
0.952382
0.652252
0.0397775
0.212842
1.32682
0.254965
1.71225
0.0585512
0.0417137
0.191688
0.520022
0.0414751
0.305172
0.571034
0.140432
0.27169
0.246063
0.398666
0.109928
0.263652
0.482302
1.04857
1.20069
0.0488192
0.823076
1.60942
0.131087
0.436272
0.242571
1.30083
0.0463176
0.0725067
0.0354106
0.250357
6.11321
0.32329
1.05539
0.613645
1.49372
2.20142
0.549346
0.404507
0.0358028
0.0485731
0.0318672
0.0206218
0.31044
0.226326
0.0450188
0.318497
0.0215758
0.048986
0.148905
0.367234
0.0678453
0.0672403
0.0199425
0.244362
0.251231
0.0604405
0.299607
0.152741
0.0300663
0.0715919
0.0139193
0.0410411
0.387826
0.185541
0.180136
0.035432
0.114495
0.404301
0.146603
0.0619078
0.0301619
0.0403072
0.0419749
0.0289579
0.359261
0.0531718
0.0177587
0.160566
0.036391
0.135635
0.40836
0.135621
0.273889
0.910248
0.0271297
0.251782
0.997473
2.47324
0.511942
0.138023
0.0331516
0.39756
0.202386
0.937682
0.751762
4.09835
0.742817
2.82669
1.16719
0.0341654
0.0338247
0.0379344
0.230827
0.195236
0.921464
0.0409728
0.359071
0.4321
0.3169
1.00228
0.423312
0.351655
1.03588
0.909726
5.08207
0.277382
0.934463
0.621758
0.310299
0.922939
0.469087
1.29047
0.35068
0.867923
0.280922
0.615112
0.304393
0.163756
0.327966
0.362153
8.67046
0.21984
0.167101
0.0649407
0.30945
0.691742
0.230315
1.70357
0.305444
0.0587868
0.0231401
0.267554
0.315146
0.0412903
0.284287
0.0199949
0.0539313
0.141684
0.0226017
0.438175
0.142071
0.0207783
0.416083
0.179435
0.335446
0.150216
0.0700736
0.0545855
0.0363929
0.0320482
0.431616
0.0445977
1.03711
1.73237
0.170314
0.409882
0.460818
0.362256
0.393788
0.0332516
1.33571
0.523697
0.535419
1.18171
0.516636
0.423133
0.0180627
0.449581
0.839971
0.448001
1.30341
2.43588
0.457365
0.0279203
0.36696
0.764426
0.211626
0.376129
0.362923
1.30625
0.121607
0.355705
0.05512
0.140197
0.202439
0.342941
0.494057
0.0526685
3.47134
0.0295363
3.74029
0.142718
0.0483953
0.0318221
0.454035
0.047422
0.0679644
0.510536
0.204572
3.21329
0.315596
0.923092
0.397586
0.246233
0.357435
1.16501
0.0533578
0.279655
0.29019
0.854041
1.16691
0.337605
0.0845965
1.56619
0.522681
0.314498
0.308005
0.203829
0.0288754
0.312203
0.616774
0.0625572
0.38339
0.0957729
0.0133089
0.199797
3.6632
2.60026
0.339677
0.393222
1.70931
0.0323423
0.313259
0.642502
0.410452
0.31344
1.3814
0.212248
2.14424
0.0318724
0.642604
0.348493
0.317219
0.248326
0.387336
0.284766
0.449193
0.0884794
0.0805919
0.0775748
0.228579
0.961215
0.340949
0.311902
4.25609
1.36483
0.617693
1.12457
0.370313
0.758924
0.719057
1.11357
0.983549
0.452459
1.04429
0.308404
1.02959
3.1144
1.33678
0.519799
1.45288
0.905338
0.416693
0.283193
0.111413
1.4088
0.827989
0.430962
1.65989
0.88109
1.35286
0.939022
0.954224
1.99898
0.423398
0.765471
1.01878
0.0703896
0.120051
0.610099
1.50259
0.0936748
0.0607014
0.553048
1.38877
1.30998
1.13815
0.977723
1.43434
1.21826
1.32015
0.233493
1.52892
1.56823
1.27886
1.09345
1.46183
1.03981
1.50773
1.51413
1.31276
0.286718
0.271274
0.105272
1.36964
0.223548
0.120679
0.158621
0.224294
0.0205174
0.212203
0.874347
1.04032
0.460308
0.130437
0.246523
1.89505
1.01547
1.12287
0.618511
0.43117
0.238257
0.261236
0.289554
0.812676
0.315827
1.35862
0.297325
0.442036
0.50941
0.301776
0.055568
1.24543
0.0837657
0.345684
0.42536
0.027867
0.337505
0.245663
0.323025
0.256385
0.173789
0.247857
1.38188
0.288825
0.284779
0.324339
0.304654
1.11548
4.30106
0.265467
1.57066
0.845503
0.301238
4.13349
0.0858154
0.447422
3.59762
0.872586
1.72892
0.308767
0.372337
2.0844
4.0291
1.56266
0.362704
0.381213
0.5364
0.43277
0.473952
2.7387
0.289695
0.245017
1.41955
0.225511
0.358227
0.0958887
0.4346
1.2999
1.23835
0.472454
2.57258
3.31827
0.494704
3.70348
0.236532
1.53584
0.475109
0.0988792
2.08945
0.49044
2.45659
0.53725
1.73881
0.0979321
2.6671
2.36205
0.768838
1.32071
2.177
0.388017
0.562076
1.56734
0.875857
0.484694
1.98337
0.687378
1.86578
1.3831
1.2794
0.326831
0.981673
0.227408
1.63136
0.412491
0.117441
0.240209
1.77265
0.124813
0.495256
0.0540394
1.43624
0.481298
0.413598
0.294848
0.246555
0.379134
0.216039
0.224963
0.186196
0.350938
0.402734
0.242429
0.355432
0.135129
0.546492
1.55093
0.981537
0.217214
0.411403
0.386319
0.430811
0.414919
0.205388
0.660481
0.279969
0.689046
0.0429829
0.558244
0.769404
2.03019
0.25727
0.285916
0.586957
0.799383
0.295656
0.506121
0.376797
0.332647
0.354322
0.42488
0.489235
0.413934
0.366273
1.43255
0.511586
0.450154
0.467729
0.16314
0.472652
0.72
0.525815
0.354854
0.236432
0.317537
0.434415
0.396002
0.711984
0.812704
0.0930134
0.265859
0.448608
0.242081
0.226067
0.285172
0.756987
0.701436
0.630541
0.692186
0.394881
0.246289
0.245189
0.768953
0.75805
0.208038
0.0617285
0.511133
0.0987063
0.0339627
0.762476
0.405856
2.07079
0.358155
0.622352
0.204627
0.395295
0.323984
1.54223
1.7474
0.590391
1.09538
0.245145
0.191127
1.39422
0.180114
0.519396
0.0526024
0.523405
0.0415961
1.5681
0.531619
0.397656
1.03548
0.545624
0.939466
0.51223
0.0925713
0.0669647
1.59809
0.698217
0.988123
1.16103
0.818156
0.51737
0.0908816
0.0728824
2.09582
0.814235
0.364182
1.69356
1.69417
0.779049
0.970114
0.45943
1.63688
0.29791
0.30208
0.530825
0.943844
0.495749
1.41048
0.107112
2.05965
0.47269
1.05025
1.08828
0.486004
0.108427
0.067034
0.101893
0.463652
1.48885
1.68538
1.55503
0.0560089
1.59192
1.33303
0.285664
0.2113
0.282853
0.132021
0.871729
1.28261
1.18117
1.61718
0.139349
0.340548
0.93638
0.275302
1.16675
1.89446
0.29709
0.874539
0.995763
0.871241
1.58838
0.541211
0.389986
0.97092
0.852528
0.843222
0.920116
0.371659
0.550119
0.849234
2.06299
0.716815
0.909767
0.430981
0.109242
0.0708395
1.21128
1.72021
0.293266
1.76826
1.80403
2.00041
2.71161
1.06292
0.727675
0.181306
0.268947
0.0496756
1.39245
0.286087
0.908027
2.84445
0.207458
0.283937
4.92204
0.294931
0.477825
1.39911
1.07113
0.609028
0.553174
0.345335
3.94302
1.80017
0.13853
0.976866
0.444066
0.203275
0.443493
0.374349
0.274892
0.1567
0.252155
0.262597
0.972026
0.609506
0.110959
0.069556
1.00058
2.06277
0.602593
0.259687
4.58653
4.67674
0.700286
0.216405
2.35244
1.07672
0.764836
0.15434
0.0403533
1.53586
0.290667
0.217077
0.387023
3.44236
1.73673
1.00769
0.408199
5.08206
1.58161
1.43649
0.110193
0.312963
0.144188
0.325241
0.443711
0.509806
0.519146
0.357753
1.01562
2.0441
0.409904
0.421708
0.593631
1.11895
0.978948
1.31597
1.122
1.30348
0.410689
1.37687
0.328282
0.113478
1.54623
2.01731
1.32107
1.60983
1.59997
0.825136
0.32555
0.366598
0.331372
0.420588
0.499853
0.432553
0.0984978
0.0662548
0.317282
0.26201
0.232537
1.87034
2.2666
0.38702
0.63354
0.409522
0.708241
0.244076
0.306568
0.155991
0.121354
0.157617
0.0872116
0.409483
0.231298
2.34463
0.775495
0.315733
0.0520391
1.60681
0.243043
0.247803
0.371072
1.86099
2.62412
1.08344
0.863103
0.236067
1.24259
0.262186
0.678933
0.0291987
0.0419048
0.480138
0.425011
1.22921
0.439782
0.0781223
0.0935745
1.32985
0.376794
0.284491
4.05087
0.210949
0.40718
0.539685
0.568112
0.366162
2.03904
1.56706
0.915153
0.207726
0.21525
1.30496
2.17313
0.480023
0.37675
0.434956
0.201335
0.891406
0.384892
0.0523166
0.285057
0.223329
0.0381834
0.390832
0.206831
0.423014
0.281298
0.220522
0.514073
0.34987
0.303368
0.474274
0.29539
0.192281
0.553576
0.100008
0.383169
0.684248
0.361033
0.559413
1.29266
1.3417
0.831832
1.364
0.311252
4.24723
0.850116
2.14039
0.073154
0.141926
0.438978
1.13604
0.226589
0.0322879
3.3751
0.431497
0.632991
0.356834
0.870664
0.84658
0.217345
2.12659
1.6948
0.107959
0.254817
0.304792
0.601788
0.608311
0.0835721
0.0731774
0.534245
0.390135
0.911592
0.421277
0.0724399
4.12858
1.56945
1.69737
3.89646
0.363426
0.879921
0.611011
0.157596
0.617106
0.348397
0.187214
1.08754
1.17912
0.205617
0.863214
0.940054
1.40902
1.75264
0.474754
0.924103
0.277709
0.304026
0.523774
0.119403
0.325373
1.95245
0.596322
0.664294
1.49311
2.58456
0.514363
0.220688
0.397883
2.03662
0.953632
0.617866
0.88877
0.989019
0.612994
0.193453
0.678549
1.93023
3.07267
0.582288
0.312944
0.154983
0.0485063
1.86291
0.385928
0.420009
4.32981
2.18828
4.97418
0.274941
1.03772
0.851283
1.15105
0.353893
1.62176
1.21504
0.0469279
0.0494882
0.599443
0.0322207
0.220867
1.26347
1.17853
1.24769
1.73458
1.40916
1.2233
0.434988
0.529174
3.67315
0.945838
0.540938
7.0387
0.1994
0.378105
0.665075
4.1033
0.354413
1.56087
1.52009
0.285618
0.244229
1.12733
0.360372
0.366583
1.60887
0.0543637
0.374697
0.175745
0.44773
0.539127
1.57497
0.342345
0.472261
0.39579
1.5868
1.05354
2.2831
0.0830326
4.02781
0.338745
0.475876
0.532391
0.111713
0.353285
1.81557
0.316105
1.52944
0.407154
1.74848
3.79458
0.429887
1.21577
0.434434
0.292886
0.443192
0.0341784
0.813362
1.57564
0.482623
0.411436
1.40807
1.28412
0.520752
0.716949
0.298973
1.81336
0.223373
2.28096
0.462544
0.386083
0.038866
0.539883
0.363835
1.42914
0.451476
1.20598
2.29578
0.445314
0.373665
3.09778
0.383633
0.156818
1.49097
0.26998
0.20787
0.168126
0.328635
1.30643
0.274069
1.41626
2.33313
0.0548292
0.678104
0.391187
1.26024
1.5071
0.357806
1.34236
0.600112
0.322839
0.359646
0.308382
0.287714
0.332285
0.0668482
0.0685408
0.62838
2.4243
0.238829
0.62045
2.09621
0.293205
1.15261
1.41817
0.408941
0.202247
0.366597
1.8724
0.168594
0.0600799
0.0751525
0.437103
0.772559
0.440463
0.412852
0.313366
3.2311
1.29588
0.399913
1.13568
2.47574
1.77286
1.01229
1.64323
0.0609412
1.54787
0.788495
0.450243
0.0737917
0.0694694
0.141728
0.276
0.347929
1.12538
0.185256
1.42921
0.314907
0.319713
0.423375
0.0941229
0.406852
2.25724
0.212854
1.15511
1.56557
0.639976
0.306668
0.576072
0.057244
0.0758914
1.34375
0.436716
0.495928
1.69922
0.436934
0.897409
4.47288
1.20141
0.503896
0.063605
3.29643
0.0318254
0.4233
1.29278
1.41698
0.525667
0.297335
0.32776
0.873203
1.52073
0.0506246
0.0884112
0.64167
1.62231
0.510856
0.344463
0.319311
1.01681
1.42925
0.452475
0.223095
1.68965
1.52776
2.3
0.747191
0.313663
0.203638
1.20482
0.683077
0.974777
0.125019
0.412052
0.523122
0.608487
0.0877831
0.301189
0.471514
0.502024
0.962444
0.0326508
0.480551
1.77124
0.984766
0.114885
0.511731
0.419756
0.385616
1.5376
0.838282
0.266382
0.281515
0.0441085
0.0746412
0.458384
0.46192
1.49903
0.0607947
0.642739
0.485312
0.5278
0.126424
0.773835
0.31236
2.18696
0.50943
0.0522362
0.0689921
0.49522
0.880371
0.132824
0.261928
0.0280407
0.578657
0.169564
0.0667974
0.225232
0.307754
0.229955
1.30056
0.548126
0.479792
0.691779
0.392174
0.379247
0.312326
0.0568982
0.081286
0.196164
0.232951
0.406745
0.22389
1.37604
0.28766
0.772246
0.221644
0.210199
0.238436
0.466635
0.999513
0.403046
0.201584
0.45628
0.0536352
0.072323
0.195182
0.0689851
1.2906
2.18378
0.433771
0.222532
0.0712209
0.422719
0.0335845
0.612931
0.432738
3.41009
1.20393
0.402771
3.80056
0.0556823
0.34909
0.328917
1.40009
0.279779
4.67641
0.234321
0.784611
0.0686661
0.247204
0.160516
0.248573
0.375788
0.65365
0.670154
0.550644
0.190163
0.301286
0.0484379
0.665499
0.294683
0.633946
0.877645
0.647467
0.322303
0.464774
0.573178
0.297543
0.607787
0.374474
0.954522
0.235623
0.436971
0.471434
1.46303
0.382937
0.0673712
0.375063
0.0530674
0.156904
0.571319
0.139374
0.368926
0.253861
2.15423
0.51316
0.55231
0.505082
0.272997
0.671495
0.480711
0.548488
0.712418
0.428707
0.197142
0.318808
0.256826
0.332178
0.447602
0.430237
0.962466
0.0312727
0.213078
0.319148
0.0756535
0.432552
0.0667067
0.0523047
0.0916949
0.0203232
0.417322
0.0580738
0.353098
0.328329
0.282763
0.190769
0.0430819
0.0731408
1.29787
0.313334
0.359103
0.816286
0.7972
0.366501
0.197925
1.7748
1.68661
0.403431
2.66528
0.595838
0.0943288
1.86111
3.21058
1.31797
0.0454435
0.0688783
0.055071
0.0434882
0.0718763
0.264337
0.824444
1.51591
0.0224268
0.0607349
0.319614
0.567742
0.289765
0.171557
0.0433356
0.0332219
1.18649
0.285506
0.548484
1.61461
0.30779
0.484328
1.44519
0.567121
1.86313
0.0408006
0.438206
1.08684
0.711927
1.34628
0.309208
0.0255114
0.179721
0.515332
0.490576
0.0753384
0.47838
0.067246
0.46794
0.345096
0.338514
0.383365
0.0445107
0.249425
0.0623722
3.61204
0.076316
0.263148
0.0321448
0.307548
1.00394
0.150745
0.635403
0.388039
0.0479079
1.01774
0.480252
0.396883
2.95202
1.33274
1.15088
0.860477
0.174178
0.28983
0.611799
1.61845
0.408584
0.0659837
1.51823
0.197483
1.63723
0.214593
0.131408
0.316331
0.184357
0.424326
0.105128
0.53691
1.27053
0.167433
0.288105
0.209472
0.264173
0.443444
4.50666
0.432772
0.394603
0.451583
0.0442698
0.0722209
0.0293536
0.427179
0.035319
0.223268
0.461749
0.47063
1.92135
0.997701
0.92285
1.09136
0.272568
0.197917
1.62884
0.300325
1.1845
1.39417
0.244572
4.38954
0.51717
0.0454298
0.0764621
0.384043
0.186999
0.451883
0.411826
0.0906837
0.259071
0.913092
1.71309
0.791912
0.831706
0.441895
5.12181
1.20674
0.650069
0.354005
0.268599
0.362796
1.92342
0.420647
1.91888
1.73731
0.0697643
0.165008
0.242656
1.46534
0.387138
1.51415
1.19462
0.603362
0.986691
1.00445
0.896665
0.306725
0.087544
0.50153
0.0693905
0.205699
0.926141
0.517405
0.317986
0.239318
0.269659
0.305856
0.38338
0.421385
0.814694
0.973881
0.0374898
0.253578
0.149362
1.05309
0.248011
1.47576
0.358638
0.498416
0.514128
0.398172
3.80979
0.20177
0.32274
0.773308
1.77079
0.372318
0.12311
0.0801492
0.413611
0.83966
0.454288
0.602251
1.54458
0.383966
0.864218
0.299531
0.218256
0.904012
1.70458
0.481924
0.65064
0.373959
0.0167321
0.482173
0.0167219
0.4275
0.803178
0.832806
0.532163
0.464055
0.10678
0.83299
0.339739
0.0171678
0.476294
0.229083
0.0170842
0.0635385
0.55158
2.18288
1.38991
0.526999
0.326342
0.0704742
0.198051
0.0181521
0.0175538
0.0511903
0.260042
0.476186
0.118863
0.483038
0.281449
0.127764
0.183623
1.65444
0.472748
0.0399549
0.0848961
0.189062
3.43379
2.1336
1.0404
0.344121
0.0762819
0.109745
0.620861
0.367505
0.560277
0.180625
0.262666
3.80769
0.17897
0.460609
0.205042
1.64373
0.242548
0.376432
3.10072
0.0637467
0.355399
0.324184
0.178538
0.0702249
0.0477218
0.132204
0.220525
0.199733
0.82925
0.351465
0.268585
0.20514
0.922298
0.551288
0.804099
0.457057
0.323038
4.36718
0.116043
0.52531
0.0776723
0.484095
1.30109
0.0350755
0.392963
0.33217
0.189365
0.179892
0.104704
0.258237
0.592777
0.0649287
1.16324
4.30955
0.404717
0.878849
0.0685456
0.474914
2.5018
0.212826
2.0461
0.417854
0.20744
0.436117
0.234165
0.22124
0.670342
0.586946
0.355531
0.0779386
0.0847959
0.704027
0.463718
0.190355
0.280842
0.494587
0.522499
0.0492607
0.0739426
0.344067
1.20284
1.6259
0.356028
0.0481264
0.350119
0.314387
0.520721
0.422609
0.320645
1.42547
0.911961
0.234676
0.335779
2.02067
0.022637
0.802955
1.25246
0.287144
1.04043
1.1145
0.826786
0.123086
0.031307
0.150124
0.319775
0.149062
0.191873
0.307189
1.58899
0.290527
1.88307
3.06803
0.893133
1.14008
1.15846
0.53447
0.657948
0.501277
1.00544
0.14581
1.32009
3.24213
0.720184
1.5082
0.0944652
0.225889
1.10536
0.613339
0.895985
0.0216813
0.0758236
2.14004
0.507995
0.617152
0.118443
0.223282
0.171994
1.06957
0.913325
2.31102
1.22485
4.03822
0.0458505
2.55317
0.0624128
0.717042
0.0704584
1.66709
0.380234
1.12536
0.047841
0.23538
3.20581
0.146393
0.0772068
1.04177
0.277225
0.573168
1.4942
3.58405
1.30236
0.0712034
0.0994944
1.53475
1.29656
1.89348
1.90803
3.04962
0.447267
0.14886
1.68457
1.92583
0.0745661
0.0533041
0.440223
0.0906031
0.241812
0.340295
0.539335
0.841712
0.194615
0.892106
1.06783
0.174794
4.12651
1.32852
3.84336
0.589086
0.538186
0.682546
0.428859
0.576709
0.761632
2.79805
2.47413
0.999383
0.113181
0.272847
0.791823
0.0667691
0.0401277
3.28781
2.3948
0.307331
0.625552
0.0544656
0.278728
0.5419
1.05951
0.293813
0.810303
0.224667
1.94379
0.0790057
0.740404
0.0750168
0.350001
0.0527763
0.349402
1.61332
1.32627
0.120991
2.86161
0.113335
0.34848
1.42149
0.422477
1.66067
0.461592
0.473857
1.61123
0.316563
0.459192
0.208605
1.74404
0.534432
0.191539
0.912372
0.881843
0.521089
0.72163
0.69636
0.314119
0.386386
2.0448
0.0245191
0.635724
1.13406
0.330495
0.362673
3.5625
0.309664
2.03559
0.361528
0.0620496
0.0520639
0.0671843
0.69564
0.189847
2.06984
2.67908
0.443895
0.977061
0.230328
0.622841
0.542185
0.420915
0.208375
0.288305
0.561396
0.525274
0.0294322
0.0306585
0.0769263
2.13451
0.360101
0.45378
0.204542
3.64937
1.90935
2.37517
1.07241
0.321029
1.30997
0.183174
0.317968
1.1514
2.26408
0.708046
0.570244
0.0957646
0.314271
0.69298
1.82228
0.231936
0.466125
0.647735
0.396841
0.0738354
0.404068
0.0282198
0.256129
0.280727
1.91685
1.50342
0.23489
2.2328
0.846146
0.400873
0.134155
1.21622
0.169153
0.436278
0.990619
0.67391
0.801283
1.61348
0.0452594
0.0710356
1.55894
0.399339
0.19078
0.17773
1.30756
0.53749
0.527423
0.0612467
0.51876
0.0711345
0.528053
0.503052
0.508693
0.509138
0.63093
0.26666
0.0912283
0.168162
0.480181
0.555022
0.0351554
0.456117
0.0304801
0.275052
0.25768
0.38513
0.360505
0.105279
0.362019
0.188266
0.0584753
0.365682
0.0672102
0.0944724
4.18282
1.41723
0.575162
0.0466977
0.0688638
0.360077
0.0274185
0.0803666
0.840012
0.0886405
0.0494135
0.552285
0.0914165
1.24427
0.551949
0.10627
0.581431
0.36931
0.466834
0.620819
0.318503
0.544418
0.764903
1.58787
1.36339
0.0925413
0.593106
2.02293
1.95361
1.75188
0.378762
0.239351
0.0179462
0.0304311
0.992003
2.76047
1.28122
0.193997
1.56272
0.239678
0.401212
1.01065
0.774108
0.315451
0.474309
2.85502
0.0204511
0.262284
2.51908
1.03037
0.180945
0.50581
0.912376
1.60131
1.38361
0.770239
0.943858
0.191049
0.308228
0.346761
0.219593
0.336373
0.411984
0.53028
0.877328
1.82168
0.948405
0.979211
0.180674
0.24396
0.508639
1.77057
1.5
1.55853
0.387508
4.25165
0.507661
0.526989
1.51223
0.0570768
0.222078
0.124921
1.39933
2.22789
1.01096
1.27186
0.923075
1.40737
0.283707
0.281603
0.0215744
0.237267
0.353435
8.2064
4.93789
0.373397
2.32354
1.03016
0.400092
0.0504041
1.08555
0.0790229
0.0266582
0.0328434
0.327999
0.638514
1.07108
0.356288
1.28269
0.0916643
0.30741
0.0273017
0.367481