/*--------------------------------*- C++ -*----------------------------------*\
| =========                 |                                                 |
| \\      /  F ield         | OpenFOAM: The Open Source CFD Toolbox           |
|  \\    /   O peration     | Version:  v1912                                 |
|   \\  /    A nd           | Website:  www.openfoam.com                      |
|    \\/     M anipulation  |                                                 |
\*---------------------------------------------------------------------------*/
FoamFile
{
    version     2.0;
    format      ascii;
    class       surfaceScalarField;
    location    "0.28";
    object      phi;
}
// * * * * * * * * * * * * * * * * * * * * * * * * * * * * * * * * * * * * * //

dimensions      [0 3 -1 0 0 0 0];
oriented        oriented;


internalField   nonuniform List<scalar> 
11117
(
-9.28708e-05
1.71881e-05
4.39527e-05
3.17299e-05
1.56524e-05
0.00020418
-5.6769e-06
-0.000214155
-8.62659e-05
0.000107814
1.41036e-05
-3.56516e-05
-8.50081e-05
-2.38286e-05
6.07423e-05
4.80944e-05
6.5431e-05
0.000340161
-0.00031412
-9.14713e-05
-1.77884e-05
-7.87225e-06
-0.000280042
0.000305702
-0.000263116
4.74614e-05
9.43509e-05
0.000121303
0.00115341
0.000254099
-0.00111692
-0.000290591
0.00126234
0.000247666
-0.000815951
-0.000694058
0.000218456
-0.000208319
8.95037e-06
-1.90879e-05
-0.00087081
0.000949088
0.000294341
-0.000372618
-0.00034391
-0.000168537
0.000255878
0.000256569
-0.000110983
-0.000175637
5.68664e-05
0.000229754
0.000303562
-0.000186603
5.74477e-05
-0.000174406
0.000311271
-0.000203926
8.35929e-05
-0.000190938
-6.84499e-05
3.40188e-05
-4.93256e-05
8.37566e-05
-9.01072e-05
0.000235984
-4.49302e-05
-0.000100947
-0.000205341
0.000232839
7.55394e-05
-0.000103037
0.000153809
0.00057014
-0.000412678
-2.89397e-05
1.57728e-05
0.00018218
-0.000169013
-0.000316229
0.000168642
5.06788e-05
9.69088e-05
-3.78489e-05
2.99706e-05
0.000200651
-0.000192773
0.000440875
0.000352759
-0.000290765
-0.000502868
4.26261e-05
6.58667e-05
-2.60395e-05
-8.24533e-05
-0.000612901
-0.00058633
0.000755173
0.000444058
0.000921331
-0.000952168
0.000281303
-0.000250466
0.000254433
-0.000342694
0.0008663
-0.000778038
-0.000597016
0.000478661
-0.000674331
0.000792686
0.00010937
-2.68199e-05
0.00111159
-0.00119414
-3.04546e-05
2.88001e-05
-3.19257e-05
3.35802e-05
3.39434e-06
0.000597201
-0.000289234
-0.000311362
-2.0827e-05
-0.000195008
0.000144701
7.11347e-05
-0.000108409
-0.000610826
0.000433748
0.000285487
-0.000117981
0.000218719
-0.00011227
1.15323e-05
-6.79439e-05
-0.000147849
-4.37561e-05
0.000259549
0.000177312
-2.77607e-05
8.56195e-05
-0.000235171
0.000595392
-0.000827399
0.00100758
-0.000775573
2.86379e-05
-0.000130799
-7.92481e-06
0.000110085
0.0001684
1.95944e-05
-0.000379616
0.000191622
0.000239005
0.000206036
-0.000260891
-0.000184149
-0.000641308
-0.000107509
0.000129242
0.000619575
-0.000164159
3.07867e-05
-2.14958e-05
0.000154868
0.00102037
0.000896295
-0.000900999
-0.00101566
-0.000270834
3.82229e-05
-3.36464e-05
0.000266257
0.000349729
4.90158e-05
-0.000244936
-0.00118788
0.000984728
-0.000332272
0.000535423
-0.000693351
0.00059567
-0.000206703
0.000304384
0.000626073
-0.000607607
0.000266779
-0.000285245
-0.000121989
0.000104913
-2.41431e-05
4.1219e-05
-5.77711e-05
6.13508e-05
-3.57965e-06
1.62102e-05
6.63016e-05
-8.25118e-05
-0.000432742
-0.00126435
0.000582201
0.0011149
-0.000166487
0.000218366
-5.60428e-05
4.16373e-06
0.000398799
-0.000362601
0.000125602
-0.0001618
1.26089e-05
-1.26089e-05
0.000585922
0.000225918
-0.000757786
-5.40541e-05
0.000375979
8.86219e-05
-0.000449586
-1.50152e-05
-0.000204111
-0.000173724
0.000315419
6.24156e-05
0.000886328
0.000114217
-0.00136967
0.000369124
-0.0003796
0.000773248
0.000527683
0.000866812
-0.000877776
3.3832e-05
-2.28679e-05
0.000248089
-0.00012593
-0.000117935
-4.22424e-06
-0.000107791
-0.000227782
0.000338967
1.6944e-05
2.3043e-05
-6.0814e-05
0.000211984
1.80698e-05
-0.000338462
-2.30249e-05
-0.000228109
0.000188533
6.26007e-05
6.1953e-05
-2.23723e-05
1.17819e-05
-5.13626e-05
4.88735e-05
-7.34833e-05
2.46098e-05
-8.86228e-05
-0.000118367
7.31699e-05
0.00013382
1.00398e-05
8.607e-05
-2.83334e-06
-9.32764e-05
0.000575252
-0.000211495
-0.000796499
-7.9783e-05
8.9101e-05
5.26349e-05
-0.000275749
-0.00131854
0.00135256
0.000241735
0.000123366
-0.00027892
0.000168811
-1.32571e-05
-9.5013e-05
-0.000198951
-0.000654423
0.000470952
0.000849192
-0.000665722
3.36552e-05
4.61414e-06
-3.82693e-05
-0.000919875
-0.000167577
0.000135284
-0.000263369
2.67517e-06
-1.01395e-05
-4.95409e-05
-3.32745e-06
5.28683e-05
-9.79854e-06
5.47397e-05
-9.73827e-06
-3.52029e-05
0.000134041
5.78849e-05
-4.47573e-06
-0.00018745
-0.000623603
0.000562096
4.63929e-05
1.51141e-05
-0.000135824
-4.5777e-05
0.000205112
-2.35102e-05
-0.000102214
-0.00011171
0.000166766
4.71585e-05
7.4347e-05
-0.000442606
0.000368259
-3.39794e-05
-0.000437536
0.000471515
1.88343e-05
-0.000415154
0.00039632
0.000128356
-1.11109e-05
7.30239e-05
-0.000190269
2.75686e-05
5.46472e-05
0.000254654
-0.000336869
0.000539034
-0.0001655
8.56361e-05
-0.000459171
0.000413834
3.56787e-05
-5.52552e-05
-0.000394257
0.000788699
-4.32583e-05
5.3822e-05
-0.000799263
-0.000751825
2.38484e-05
-2.09811e-05
0.000748958
-0.000538239
6.57366e-05
-2.0925e-05
0.000493428
8.01494e-07
0.000228993
-0.000331747
0.000101952
0.000598822
3.41358e-05
-3.28127e-05
-0.000600145
0.000745316
5.39191e-05
-3.42694e-05
-0.000764966
0.000421097
7.97881e-06
9.55684e-07
-0.000430031
0.000841709
5.01592e-05
-2.50558e-05
0.00038699
7.01952e-05
-0.000410022
-4.7163e-05
-6.75282e-05
8.0066e-05
1.90554e-06
-1.44434e-05
0.0003129
-0.000383768
-0.00118366
0.00125453
0.000537791
5.33423e-05
-0.000660035
6.89012e-05
-8.71258e-05
0.000367436
-0.000285222
4.91103e-06
-0.00126031
-0.000194405
0.00115475
0.000299962
5.19789e-05
-7.79248e-05
0.000194651
-0.000168705
5.9855e-05
-3.09796e-05
8.24667e-05
-0.000111342
-0.000233277
1.71025e-05
7.76661e-05
0.000138509
-0.000242155
1.22789e-05
-3.34933e-05
-0.00010121
7.0434e-05
0.000109144
-7.8367e-05
0.000299952
-0.000195111
-0.000243549
0.000138708
-0.000409411
0.000335658
-0.000172506
0.000246259
2.48856e-05
-6.97825e-06
4.9805e-05
-6.77124e-05
0.000100173
0.000385993
-0.000465385
-2.07804e-05
0.000139192
0.000721392
-0.000813501
-4.70831e-05
-8.70811e-05
-0.000134636
0.000160191
6.15264e-05
-0.00020578
0.000138427
0.000615627
-0.000548274
2.79782e-05
-1.56032e-05
-0.000890151
-0.00103677
8.64848e-05
0.000957116
-6.82998e-06
0.00116567
-0.000751649
-0.000619804
0.00028625
-0.000242211
-4.40384e-05
1.68306e-06
-6.25667e-05
0.000101801
-4.09173e-05
-0.000638998
-0.000612441
0.000148767
3.40345e-05
-7.1701e-05
-0.000111101
-0.000373715
0.00042983
0.000641884
-0.000697999
-0.000154297
6.64819e-05
-2.56613e-05
0.000113476
8.75833e-06
0.000248768
-0.000234629
-2.28973e-05
0.000615277
-0.000999813
-0.000106909
0.000491445
7.11438e-05
-1.13732e-06
1.33815e-06
-7.13447e-05
0.000136294
-3.26015e-05
-0.00012875
2.50579e-05
-0.000144633
0.00038135
-7.31065e-05
-0.00016361
6.57032e-05
-0.000149044
-4.99954e-06
8.834e-05
-0.000860928
0.000110674
-0.000169621
-0.000706654
0.000743739
-0.000808886
0.000771801
-2.82517e-05
-5.342e-05
-0.000122254
-0.000470824
4.71958e-05
7.93035e-06
0.000415698
8.13531e-05
0.00020184
-3.5104e-05
1.34999e-05
-1.17512e-05
-2.02961e-05
1.85474e-05
8.97421e-05
-9.85927e-05
-7.18396e-05
8.06903e-05
0.000297589
-0.000338484
-6.3458e-05
0.000104353
-0.000111543
-0.000420068
0.000458811
7.28003e-05
-0.000125759
6.97225e-05
0.000193593
-0.000137557
0.000609856
-0.000507156
-0.000252295
0.000149594
4.13959e-05
-1.70039e-05
-5.57312e-06
-1.88189e-05
-7.31279e-06
0.000275576
-0.000136765
-0.000131498
5.39119e-05
-2.45527e-05
-2.76761e-05
-0.000455927
0.00102617
-0.000590783
2.05378e-05
4.71474e-05
0.00040689
-4.65041e-05
-0.000407533
-0.000347119
0.000442661
0.000200665
-0.000296208
0.000941809
0.000457288
-0.000623512
-0.000775586
-4.1953e-05
3.2901e-05
-0.000153302
0.000162354
-0.000586648
0.000234415
-0.000908075
0.000162665
-0.000169503
-7.48693e-05
8.17076e-05
-0.000489412
-0.00038577
0.000569688
0.000305494
0.000613341
-0.000180796
-0.000432545
3.25753e-05
-0.000104242
0.000127658
-2.34157e-05
0.00109716
-0.000283107
-0.000814051
-7.35766e-05
-0.000312616
0.000175818
0.000136797
7.34576e-06
-3.54238e-05
2.80781e-05
-3.12325e-05
0.000108162
-7.6929e-05
-4.23892e-05
-0.000323576
0.000365965
-0.000492633
0.000561842
-6.92086e-05
-0.000509951
0.000491832
1.81197e-05
0.000577665
-0.000106602
-0.000471063
8.45549e-05
-2.91868e-05
-5.53681e-05
-3.04175e-05
-7.0793e-05
0.000179582
0.00012037
1.97258e-05
-4.05615e-05
2.08357e-05
0.00021576
0.000206483
-0.000422243
2.43512e-05
5.02598e-05
-7.4611e-05
-0.00031595
0.000261276
5.4674e-05
0.000316005
-0.000286447
-2.95579e-05
-0.000471651
0.000563563
-9.19121e-05
-0.000333306
0.000227038
0.000106268
0.000691829
-0.000963336
0.000271506
-7.80223e-06
-5.36798e-05
6.14821e-05
0.000978371
-0.00105107
7.26948e-05
-3.37788e-05
9.47425e-05
-6.09637e-05
-0.000116154
0.000147199
-3.10452e-05
0.000324516
-0.000455659
0.000131143
-0.000506344
0.00052576
-1.94157e-05
-0.000392981
0.000408112
-1.51313e-05
-0.000119797
0.000137088
-1.72913e-05
-8.42406e-05
1.67125e-05
-0.000213432
9.00625e-05
0.00012337
-0.000195085
0.00014751
4.75749e-05
-4.47981e-06
8.45458e-05
-0.000211694
-0.000659117
-0.000168944
-2.60646e-05
-0.000538545
-7.22802e-05
0.00054672
5.0481e-05
-3.99925e-05
-0.000104641
0.000209697
-7.34033e-05
-0.000908244
0.000157488
0.000750755
-0.000260621
0.000123993
0.000136628
0.000428624
0.000141516
-0.00110213
0.00141503
0.000328564
3.35954e-05
-0.000362159
-0.0010158
-0.000248558
0.000327895
0.000298178
0.000108441
-0.000266659
0.000158218
-0.000562925
-0.000130426
-0.000974216
-0.000213662
0.000135643
-0.000209478
7.38351e-05
4.92291e-05
2.73205e-05
-2.5033e-05
-5.15166e-05
-0.000104793
5.79508e-05
0.000591871
-0.000545029
-0.000814554
0.00088461
0.000522151
-0.000592207
-0.000105334
2.80114e-05
0.000241373
-0.00016405
-0.00118221
0.00113894
-5.31106e-05
9.6383e-05
0.000304942
-0.000240158
-0.000107172
7.37118e-06
2.52605e-05
-2.5286e-05
-6.13649e-05
6.94545e-05
-3.11046e-05
2.3015e-05
-0.00041093
0.000538073
0.000749375
-0.000876519
0.000114913
-0.000167761
-0.000349696
0.000402543
-0.000228605
0.000286821
7.48794e-06
-0.000214687
5.9553e-05
0.000595596
-0.000440462
0.000891898
-0.000783071
-0.000226204
0.000117377
-0.00139616
-3.58035e-05
0.000249755
0.00020658
-0.000247932
0.000139899
-9.85467e-05
0.000116177
0.000128151
-7.33201e-05
-0.000171008
0.000762069
-0.000205516
-7.12102e-05
-0.000485343
-0.00040366
-0.000284209
5.11641e-05
0.000636706
-8.77297e-05
5.65563e-05
0.00125141
-0.00122024
-4.30499e-05
-3.38523e-06
4.64352e-05
3.21363e-05
3.0332e-05
-4.17247e-05
-2.07435e-05
0.000395858
-4.67893e-07
-5.42376e-07
-0.000394847
0.000131578
-8.47526e-05
-0.000104022
5.71961e-05
1.50013e-05
1.69081e-05
0.000163957
-0.000195866
1.18632e-05
-2.90289e-05
6.15133e-05
-4.43476e-05
4.20765e-05
-5.65867e-05
-0.000258787
0.000273297
0.000105776
-2.94202e-06
-0.000231264
0.00012843
5.13388e-05
-5.98624e-05
-1.99722e-06
1.05208e-05
1.89511e-05
2.54555e-05
-0.000949692
0.000905286
-7.51863e-05
2.35294e-05
-0.000745819
0.000797476
0.000907842
-0.000912763
6.79845e-05
-6.30639e-05
0.000141826
-0.000244225
-0.000178887
0.000281286
-5.78492e-07
-0.000226325
1.35505e-05
0.000213353
-0.000260903
-1.66959e-05
0.000181486
9.61128e-05
0.000129014
-0.00012612
5.60606e-05
-5.89544e-05
4.69618e-05
0.000572378
-0.000310976
-0.000308363
-4.25619e-05
0.000185926
1.93004e-05
0.000206935
-0.000211577
-3.792e-05
8.01761e-06
-5.28333e-05
0.00011525
-8.0675e-05
8.36458e-05
-0.000141937
0.000138966
0.000429104
-0.0004174
3.54443e-05
6.79838e-05
-0.000552638
0.000484655
5.63018e-05
-0.000541667
0.000485365
7.05682e-06
-0.000289363
0.000282307
0.000148162
-0.000152876
-1.8311e-05
-0.000354776
-2.07432e-05
5.98818e-05
-7.09581e-05
3.18195e-05
-2.67006e-05
3.67266e-05
-0.000973597
0.000963571
-0.000183818
-0.000444849
0.000496103
0.000132563
0.00106745
-0.000456633
-0.00081707
0.000206251
-0.000659711
0.00117449
-0.000873291
0.000358514
5.75695e-05
-9.69289e-05
8.85885e-05
0.000200351
0.000150819
-0.000202403
-0.000679287
-8.20009e-05
0.000333207
0.000428081
-0.000187558
0.000387402
0.000105098
-2.63452e-05
6.4263e-06
2.72901e-05
2.17552e-05
9.50942e-05
-6.70325e-05
-4.98169e-05
-0.000306189
0.000257016
4.91728e-05
-0.000517478
0.000412151
0.000105327
0.000775421
-0.000507356
-0.000615183
0.000115778
-0.000412335
0.00036109
-6.45338e-05
-0.000318749
0.000206484
-0.000684643
6.42067e-05
-0.000126483
0.00074692
-0.000414969
3.54896e-05
-8.04867e-05
0.000459966
0.000154468
-0.000131662
0.000369935
-0.000392741
-0.000480094
-0.000461178
0.000589527
0.000351746
-0.00038747
0.00057626
0.000393411
3.00901e-05
-0.00107875
0.00110526
-5.66007e-05
6.74272e-05
0.000191693
-0.000127542
-5.95996e-05
0.000395435
6.29637e-05
-0.000329028
-5.02609e-05
0.000332217
4.70729e-05
-7.49141e-05
0.000108963
-5.29226e-06
-2.87566e-05
3.69357e-05
0.000131552
-6.92096e-05
-9.92779e-05
-0.000284904
-0.000161663
0.000185945
-0.00027639
-5.82897e-05
0.000232191
0.000102488
6.60446e-05
-8.39237e-05
-0.000623429
-7.26966e-05
1.22375e-05
-0.0001037
-0.000206004
0.000137199
0.000307809
-0.000567957
2.01706e-05
0.000565129
-1.7343e-05
-0.000633573
-1.48676e-05
0.000644227
4.21436e-06
2.97855e-05
0.000745225
-0.000717237
-5.77735e-05
-7.82257e-05
0.000614337
-0.00060155
6.54386e-05
-0.000913221
0.00101584
-0.000809269
0.000254942
-0.000216608
8.8572e-05
-0.000126906
-0.000254073
0.000162341
-6.78324e-05
0.000159565
-0.000169807
0.000101821
7.92616e-05
-1.12763e-05
0.000376784
-0.000320716
-4.0243e-07
-5.5665e-05
-0.000981415
9.77724e-05
0.000967988
-8.43456e-05
-0.000139051
0.000636715
-0.000692411
0.000194747
0.000318332
-0.000124193
-0.000328403
0.000134264
0.000214759
-0.000229246
-7.63621e-05
9.085e-05
-0.000303008
0.000225048
0.000425674
-0.000347713
2.70983e-05
9.90175e-05
1.80943e-05
-0.00014421
7.38956e-05
-0.000132794
0.000192939
-0.00057322
0.000550799
1.76116e-05
4.6077e-05
-7.34872e-05
0.000228988
-0.00018809
6.06404e-06
-0.000136873
-0.000180011
0.000179862
0.000137021
4.63872e-05
-1.91188e-05
0.000348835
-0.000376103
-5.50775e-05
-3.45649e-06
-1.63801e-05
0.000110482
-0.000138673
-9.01764e-05
0.00091001
-0.000497495
0.000527436
-0.000329064
-0.000196233
0.000246458
5.38207e-05
-3.55218e-05
6.85048e-05
-8.68037e-05
0.000355061
-0.000648427
-0.000521189
4.31652e-05
3.98773e-05
-5.81569e-05
-0.000426519
0.000472189
0.00101093
-0.0010566
0.00085063
-0.000170558
-4.92617e-05
-0.00063081
3.874e-05
-9.72658e-06
3.08416e-05
-0.000602454
0.000211396
0.000869719
-0.000239443
7.16765e-05
-6.55106e-05
0.000225979
-0.00086366
0.000747051
0.000244078
-0.000523876
0.000719066
-0.000439268
-2.40404e-05
4.94316e-05
-4.92261e-05
2.38349e-05
-0.000249194
0.000238991
0.00014863
4.96467e-05
0.000422674
4.82496e-05
-5.82126e-05
2.03279e-05
-1.03648e-05
8.05083e-05
-0.000247398
0.000186484
4.94448e-06
3.95906e-07
0.000234414
-0.000239755
-0.000134212
-0.000150976
0.00081875
0.000130338
-3.74253e-05
-8.17595e-05
-0.000143538
-0.000145696
0.000220315
6.046e-05
2.33713e-05
-0.000156412
0.000188548
-6.165e-05
2.5521e-05
2.06758e-05
6.93867e-05
3.48238e-05
7.89283e-05
0.000211276
-3.07764e-05
-0.000265879
5.911e-05
0.000265406
-3.634e-05
-0.000470004
-2.95635e-05
-8.659e-05
-0.000559253
4.93017e-05
-2.29955e-05
-0.000107803
3.0891e-05
-0.000410507
6.34146e-05
-7.07274e-05
-1.27858e-05
-2.1745e-05
9.10613e-05
-1.37466e-05
0.000150835
0.000324849
0.000103775
0.000396505
0.000718391
6.54484e-05
0.000245165
3.79463e-05
-2.67458e-05
1.612e-05
-1.11305e-05
-5.9315e-05
6.25207e-05
0.000573787
-0.00060773
2.653e-05
7.41311e-06
0.000174242
-0.000243942
0.000117162
3.86314e-05
0.000852836
-0.000637369
-0.000193401
0.00036376
5.58856e-05
-0.000226245
0.000349389
0.000635338
0.0001847
0.00041097
-0.000171836
-0.000435771
-6.84576e-05
0.000101621
-0.000131585
9.84207e-05
-0.000124347
2.81071e-05
0.000106864
-1.06242e-05
-0.000513343
-9.53525e-05
0.000415294
6.82489e-05
2.89842e-05
-3.82251e-05
-5.9008e-05
-1.26759e-05
-6.14886e-05
3.60196e-06
7.05625e-05
0.000443322
-0.000120923
0.000211322
-0.000581284
0.000955884
5.04101e-05
-0.000395955
0.000721524
-0.000226774
0.000373355
-0.000350692
-1.32595e-05
7.03895e-05
-6.47838e-05
7.65373e-06
-0.000185442
4.76755e-05
-1.37977e-05
0.000151564
-9.15858e-05
-4.61571e-05
6.92853e-05
-0.000623812
0.00102811
-0.000734417
0.000330116
-8.34237e-06
0.000149408
3.62467e-05
-8.08171e-05
-1.9533e-05
3.24062e-05
9.74361e-05
-5.77865e-05
-0.00015763
-0.00112531
0.00102719
7.13002e-05
-0.000444698
3.83359e-05
0.000136949
0.000269413
0.000247992
-6.52058e-06
-0.000165955
-7.55159e-05
-0.000134554
0.000712219
2.06814e-07
8.4348e-05
0.000387522
-0.000208761
1.66714e-06
-1.39287e-07
9.77253e-05
-9.92531e-05
0.000173984
-0.000189246
0.00012305
-0.000107788
3.93525e-05
-0.000304086
0.000358082
-0.000223322
7.89245e-05
0.000225712
-8.13152e-05
-0.000179383
0.000179829
0.000175373
0.000436896
3.93256e-05
-0.000918332
0.00128045
9.7872e-05
-0.00124263
-0.000135696
0.000117161
-0.00016859
-2.65206e-05
-0.000712755
0.00018726
0.000637232
-0.000111737
0.000152484
0.000157415
-0.000119548
-0.000190351
9.87294e-05
-0.000311066
0.000178268
3.40688e-05
9.64607e-05
-0.000205444
0.000107707
1.2762e-06
-0.000159129
0.000676984
2.49642e-05
-0.00054282
-0.000328786
0.000963138
5.36581e-05
-0.00068801
0.000466275
3.69798e-05
2.17555e-05
-0.00052501
-5.93667e-05
6.59536e-06
7.73725e-05
-2.46012e-05
7.54784e-05
0.000140281
-3.86327e-05
6.37977e-05
4.8005e-05
0.000514998
0.000132299
0.000534507
5.22756e-05
0.000375878
0.000146078
0.00065554
7.44003e-06
-5.14851e-05
-9.58575e-07
4.50036e-05
0.00015883
-0.000188861
0.000131653
0.000192074
-0.000200417
8.09642e-05
-0.000161781
-0.000179375
0.000276812
1.14356e-05
5.24411e-05
-7.0855e-05
-2.3215e-05
-0.000208029
0.000237918
-6.67479e-06
-7.92637e-05
-0.00018866
0.000243213
2.47101e-05
4.99384e-05
0.000851443
-0.000653715
0.000965978
6.53138e-05
-0.00101394
-1.73476e-05
-0.000427742
0.000612174
0.000590988
0.000135786
-0.000265507
-7.33883e-05
0.000203109
0.000410571
-0.000161242
0.000179728
-0.000105566
6.20663e-05
0.000141017
1.79062e-05
2.60074e-05
-0.000129
-0.000952777
0.000925059
-0.000398801
-1.16309e-05
-6.63803e-05
5.14789e-06
-0.000324957
1.82722e-06
0.000317982
-9.22957e-05
0.000803529
2.08827e-05
-0.000732116
-5.489e-05
0.000471014
1.15247e-05
-0.000427649
1.51934e-05
-1.3204e-05
-4.01878e-05
3.81984e-05
0.000182878
-0.000230424
0.000202154
-0.000154609
8.89899e-06
-0.000103297
0.000144187
-4.97895e-05
-3.48869e-05
-0.000121525
-0.00018966
0.000228713
-8.30175e-05
4.39639e-05
-0.00026407
-5.80202e-05
0.000195767
0.000126323
-0.000122299
0.000145752
-7.36934e-05
5.02405e-05
0.000718262
2.56418e-05
-2.11638e-05
-0.00072274
5.82372e-06
7.77708e-05
-6.18393e-05
0.000491808
-2.14591e-05
2.71767e-05
-0.000497526
0.000228349
-0.0002011
-0.000119833
9.25845e-05
-0.000593896
1.86853e-05
-0.000104489
0.0006797
-0.000615694
-0.000144974
7.01336e-05
0.000690534
-7.26836e-05
-1.9154e-05
0.000117532
-2.56945e-05
-0.000219097
8.73115e-05
0.00021028
-7.8495e-05
-0.000159274
2.87822e-05
0.000119498
1.09937e-05
-5.10096e-05
8.24249e-05
-8.42486e-05
0.000806894
6.89376e-05
-3.41229e-05
7.53236e-05
-1.09087e-06
-3.08892e-06
-0.00121242
-0.000148063
0.00118641
0.00017407
0.000263607
0.000421574
-0.000332015
-0.000353165
8.12634e-05
-4.09264e-05
-1.90703e-05
-2.12667e-05
6.55248e-05
-0.000103337
0.000225373
-0.000187561
4.5735e-05
-3.99112e-05
-9.83424e-05
5.60753e-05
-0.000658109
0.000700376
0.000134226
-0.000115418
3.18801e-05
-5.06885e-05
-0.000422548
0.000408892
2.65527e-05
-1.28969e-05
-1.66085e-05
-0.000157799
0.000288771
-0.000114364
0.000174511
-0.000128748
8.05782e-06
0.00097672
-0.000849084
0.000145958
-0.000273594
-0.00059844
-0.000442154
0.000366262
-0.000162378
-0.000125508
0.000105088
0.000182798
-0.000221068
-4.08721e-05
4.28432e-05
-0.000298815
0.000188835
-4.92935e-05
-3.23076e-05
3.59977e-06
-4.39758e-05
0.000440444
-0.000397851
-0.000227953
0.00018536
1.01276e-05
-0.000447768
0.000443816
-6.17534e-06
5.17688e-05
-2.57047e-05
0.00022053
-0.000423134
0.000496945
0.00112583
-1.8708e-05
3.18143e-05
2.51631e-05
-2.5223e-05
0.000229908
-0.000229848
-4.64562e-05
0.000109871
9.71339e-05
-0.000100545
2.10232e-05
0.000133771
-0.000244292
0.000184417
-0.000170001
8.48595e-05
1.33163e-07
-0.000246182
-0.000173013
0.00043658
4.21704e-05
0.000205133
5.94868e-05
-0.000112136
-2.07734e-06
2.10265e-05
4.34463e-05
4.89318e-05
-7.26523e-05
-0.000110033
-3.24227e-05
5.08697e-05
-2.39191e-05
4.44636e-05
-7.61701e-05
5.56255e-05
-0.000849116
-0.000101312
0.000237673
0.000458371
-0.000472944
-4.33926e-05
5.79664e-05
-8.9011e-05
-0.00086627
2.66151e-05
0.000928665
-5.95942e-05
-0.00100212
0.00102989
3.18192e-05
0.000116032
-0.000127928
9.24045e-05
-0.000363552
-0.000763266
0.000699076
0.000155769
0.00012831
-0.000171623
-0.000112455
9.6295e-05
-5.08714e-06
-7.34737e-05
-1.77341e-05
-0.000821765
-0.000293873
-0.000172647
-3.78513e-05
-2.30874e-05
0.000233585
0.000157381
3.30784e-05
-0.000170624
-1.9835e-05
0.000231417
-7.16326e-05
-7.83151e-06
-3.62575e-05
-1.09885e-05
-0.000107218
-0.000238372
0.000160148
0.000101735
-8.89245e-05
-2.95754e-05
1.6765e-05
3.41235e-05
5.54306e-05
-5.24913e-05
-3.70628e-05
5.50089e-05
0.000411183
-2.44894e-05
-0.000441702
0.000114907
0.000756516
-6.83056e-05
-0.000803117
2.6765e-05
5.90998e-05
1.58701e-05
2.77857e-05
-0.00108405
0.00108407
-2.78108e-05
0.00029534
-0.00159148
1.00019e-05
0.00128614
0.000198746
9.89079e-05
-0.000104986
-0.000192668
0.000249796
2.74108e-05
-5.4425e-05
-0.000222782
0.00041012
-0.000155887
8.59284e-05
0.000492953
-0.000691117
-0.000715057
1.84265e-05
3.08887e-05
-2.48845e-07
-4.90664e-05
-0.000243665
0.000240186
1.61496e-05
-1.26705e-05
4.45318e-05
-3.17619e-05
-0.000162474
0.000149704
-0.000770886
0.00024236
0.000505353
2.31725e-05
0.000190622
-4.66028e-05
8.24959e-05
-0.000226515
0.000238305
-5.36192e-05
4.16901e-05
-0.000226376
0.000194975
-2.2468e-05
7.3385e-05
-0.000245892
-2.26988e-05
-1.06041e-05
3.33029e-05
0.000317668
-0.00123475
-1.84423e-06
1.03135e-05
8.24278e-05
-9.08971e-05
-5.55883e-05
-0.000447754
-1.00001e-05
-0.000341581
0.000277324
5.46236e-06
5.87949e-05
0.00103874
-0.00146253
0.000185203
0.000238589
0.000533491
1.12818e-05
1.12109e-05
-0.000555983
3.23933e-06
-1.40005e-05
8.60848e-05
9.07624e-05
9.48031e-05
-0.00102183
0.000836268
-6.63747e-05
-0.000155927
0.000225186
-2.88499e-06
1.22425e-05
0.000173997
-0.0002304
4.41608e-05
-4.73404e-05
-0.000140619
0.000202068
-1.41091e-05
0.000166202
-1.69371e-05
9.21262e-06
0.000200886
-0.000205154
3.39061e-05
4.45099e-05
-3.01665e-05
0.00084427
-0.000580192
4.36064e-05
-0.000307685
-6.4619e-05
0.000528261
0.000146214
-9.63697e-06
3.01034e-05
-2.1459e-05
-0.000252588
2.93045e-05
0.000244742
0.000464652
0.000177414
-0.000430548
-0.000211519
9.83381e-06
-1.75159e-05
-7.84847e-05
8.61668e-05
-0.00018564
0.000164014
-0.000118951
-0.000181937
-1.90117e-05
0.000259146
1.1286e-05
-0.00025142
-0.000207231
-0.000162076
0.00010661
-6.8091e-05
0.000156456
1.4909e-05
-2.46436e-05
0.000248039
3.79962e-05
-2.36713e-05
0.000176297
0.000128023
-0.000216422
0.000144654
-5.62545e-05
0.00118146
-0.0011785
-0.000278713
1.29917e-05
-0.00065734
0.000204211
0.000568907
0.000211311
-0.000194484
-5.87805e-05
0.000101877
-0.000232361
0.000296686
0.000156214
0.000112517
-0.000145365
9.63567e-06
-3.74514e-05
-8.72539e-05
0.00011507
3.35912e-05
5.08451e-05
-5.45995e-05
-2.98367e-05
0.000163541
-0.000185
7.36146e-05
-0.000127298
0.000103782
-5.00991e-05
0.000758373
9.08137e-05
-4.22926e-05
0.000157712
0.000154547
-0.000170482
9.22562e-05
-0.000580526
0.000610312
-0.000256539
0.000117488
-0.00113407
0.00113564
9.28867e-05
-9.4459e-05
8.73054e-05
0.000586421
-0.000388238
-0.000120774
0.000324871
-0.000182809
0.000445674
-6.12974e-05
0.000554516
-0.000813753
-0.00018518
0.000444418
-0.000699234
0.00037019
-9.51915e-05
0.000424235
7.99265e-07
8.27792e-05
-0.000373721
0.000290142
-3.92068e-05
-4.86813e-05
-0.00103965
0.00112754
0.000118686
-0.00044959
0.000805041
0.000170212
-0.000848834
-0.000126419
4.83468e-05
-6.10491e-05
2.41379e-05
0.000796153
-0.000736846
8.67711e-05
0.000512959
-0.000569446
0.000108763
0.000520195
-0.000491878
0.000103981
5.43378e-05
0.000143761
-4.07184e-05
-0.000279883
-9.60695e-06
0.000270478
0.000132679
-0.000165942
0.000135735
-0.000102473
0.000702719
-0.000588245
-8.30923e-05
-3.13809e-05
0.000626994
-0.000543661
-4.79598e-05
-3.53738e-05
0.000129297
0.00164164
-0.00130498
-0.000465955
-4.82088e-06
3.86363e-06
-6.10638e-05
6.20211e-05
-0.000992236
-0.000637201
0.00105437
0.00057507
-3.3311e-06
-2.81987e-06
-2.23369e-05
2.84879e-05
0.000111406
-0.000194919
-6.6685e-05
0.000150198
-2.20856e-05
7.03124e-05
0.000109133
-0.000157359
0.000110276
-4.26134e-05
0.00069071
0.000505817
-0.000803952
0.000398308
0.000661063
-0.000899322
0.000377451
2.32978e-05
9.88948e-05
-4.42906e-06
1.38778e-05
3.64981e-05
-4.59469e-05
0.000552591
-6.5873e-05
0.000149997
-1.97705e-05
2.12075e-05
-8.59854e-06
7.91658e-05
7.98519e-05
-2.19883e-05
-0.000137029
0.000276173
0.000657993
-0.000512593
-0.000309452
-0.000275896
0.000401531
0.0005498
-0.000583806
0.000125654
-9.16477e-05
0.000319287
6.54099e-06
-0.000168413
8.44659e-05
-3.22383e-05
4.25149e-05
0.000263269
1.31236e-05
0.000131719
-4.43046e-05
0.000103031
0.000572287
-0.000688234
0.000115946
-0.000409731
0.00029142
-0.00129402
0.00141233
-5.15986e-05
-8.51706e-06
4.28916e-05
1.72241e-05
0.000213774
6.86847e-05
-0.000119194
-0.000163264
-0.000451734
-2.25425e-05
0.000621602
-0.000147325
0.000226372
-0.000196801
-0.000403286
1.28747e-06
7.036e-06
2.96228e-05
0.000224755
-0.000169381
0.0001584
3.00031e-05
-0.000253451
-2.0217e-05
2.2775e-05
4.79491e-05
-6.36161e-05
-7.10797e-06
0.000147448
-8.03389e-05
-4.54024e-05
-2.17067e-05
-4.69827e-06
5.64341e-05
7.72782e-05
-1.3588e-05
2.85138e-05
3.75154e-05
8.80134e-05
-5.36543e-05
7.30346e-05
-0.000107394
-3.68307e-06
-0.000142641
0.000182711
-3.63865e-05
9.34093e-05
-2.47246e-05
0.000163551
-0.000101825
0.00013702
0.00010597
-4.07973e-05
0.000184624
-0.000122117
0.000446917
0.000115644
-0.000576997
-0.000423022
0.00073329
0.000266728
0.000822114
-0.00104042
0.000356193
-0.000137888
-7.5822e-06
0.000407931
-0.00039694
-3.40839e-06
2.10085e-05
0.000588438
-0.000674788
6.5342e-05
0.000185562
-0.000168923
-2.51571e-05
8.51771e-06
-0.00133138
0.00117402
-0.000256457
0.000413817
0.000380483
-0.000326144
-0.000139602
8.52627e-05
-2.01252e-05
0.000565734
-0.000560939
1.53303e-05
-0.000402126
2.20642e-05
0.000148458
-0.00054544
0.000504705
-0.000107723
0.000133311
-0.000792082
0.000854771
-0.000196
-0.000103242
-0.000751219
0.000854461
6.84443e-06
4.99076e-06
2.10828e-05
-3.2918e-05
9.85143e-06
-1.70183e-05
7.18276e-06
-1.58859e-08
-0.000158838
0.000179898
-5.88129e-06
-1.51789e-05
5.30966e-05
0.000168711
-0.000177276
6.08136e-06
4.41496e-05
-5.20752e-05
-0.000264041
3.59416e-05
0.000139641
8.84583e-05
-0.000105476
-4.00124e-05
0.000102142
4.33465e-05
-2.46978e-05
-1.63505e-06
0.000386757
-0.000360424
0.00117556
-0.00119971
-7.89981e-05
0.000103147
-4.62544e-05
-2.91728e-05
2.00238e-05
2.60664e-05
-4.60902e-05
0.000318888
2.18605e-05
-0.000263403
-7.73458e-05
-1.91338e-05
-5.3812e-05
2.40815e-05
4.88643e-05
-8.12712e-05
0.000132529
-0.000449109
-4.70311e-05
1.88966e-05
-4.17313e-06
-5.28872e-05
2.98751e-05
-0.000275803
1.26265e-05
9.12677e-06
-0.000242821
0.000765991
8.21242e-05
-0.00010289
0.000627107
1.24051e-05
-2.51759e-05
-0.000558261
3.61257e-05
-4.58212e-05
-0.000560107
-4.38706e-05
-2.95961e-05
-0.000324848
-0.000165912
0.00021437
-0.00103471
-0.000171506
0.000293455
-0.000219322
3.56522e-05
-3.96515e-05
-0.000110112
-0.00120745
0.00122984
-9.27298e-05
6.55426e-06
-0.000220013
-0.000218423
1.56947e-05
-0.00031475
0.000663109
-0.000177356
-0.000540642
0.000752644
-0.000196856
-0.000648084
-1.07823e-05
4.82034e-05
-0.000245481
0.00020806
0.000189862
0.00052587
-0.000165932
0.000194067
-0.000197109
2.26728e-05
-1.96315e-05
1.25583e-05
2.49016e-05
-0.000176657
0.000139197
7.43783e-05
-6.54367e-05
-3.39747e-05
-0.000300146
0.000163494
0.000295481
-4.62265e-05
7.47724e-06
2.95621e-05
9.18716e-06
0.000307845
-0.000180533
0.000247441
-0.000374753
-0.000377026
-9.50652e-05
6.99658e-05
-0.000417268
0.000269781
0.000373466
-0.000122858
-1.97084e-05
3.25333e-05
0.000103301
-1.0185e-05
1.5847e-05
3.2833e-05
-8.78811e-05
8.51363e-05
-3.00881e-05
-3.01843e-05
0.000111202
2.38033e-05
-0.000104821
0.000251639
0.000395364
-0.000606366
-4.06372e-05
0.000226074
-0.000572409
-0.000230661
0.000539361
0.000295806
-0.000665009
-0.000170158
-0.000483911
0.000410066
3.13708e-05
4.24745e-05
0.000110683
0.000169187
-0.00105076
4.98611e-06
1.43484e-05
-1.80471e-05
0.000163539
-6.22819e-06
-0.000144684
-1.37665e-05
-0.000100068
6.6803e-05
0.000898316
-2.35069e-05
-0.000765752
-0.000109056
5.6846e-05
4.80669e-05
-0.000100434
-0.000143791
-2.658e-05
1.59759e-05
-0.000104986
0.00112705
0.000152428
-4.97293e-06
5.99442e-05
7.30514e-05
-0.000430434
0.000363529
0.000578863
-0.000511958
0.000218668
-0.00016483
0.000297556
-0.000351394
-1.54029e-05
0.000458606
1.25454e-05
-0.000455749
1.37918e-05
-1.82274e-05
9.53311e-06
-5.09751e-06
-0.000241957
7.03819e-05
2.3457e-05
0.000148118
-0.00112904
0.00112918
9.46634e-05
-0.000831451
0.000467397
-0.000709358
0.000654823
-0.000377085
-0.000199133
0.000158951
0.000108813
-3.39532e-05
0.000859537
-0.00102725
-0.000262638
0.000430348
-0.000231114
-0.000986716
0.00118811
2.97166e-05
-0.00115698
0.00117439
-0.000127523
-0.000512482
0.000456019
0.000378786
-0.000322323
-0.000434468
0.000397822
8.0213e-05
-4.35673e-05
-0.000114783
-7.62969e-05
6.49597e-05
-0.000529947
0.000684122
-0.000577197
0.000173408
-1.69433e-05
-4.54664e-05
-0.000170951
6.23519e-05
0.000154066
-6.9956e-05
8.34778e-05
2.69282e-06
-4.33864e-06
-0.000217676
-0.000920108
0.000888502
-0.000269097
0.000300703
0.0012695
7.67158e-05