/*--------------------------------*- C++ -*----------------------------------*\
| =========                 |                                                 |
| \\      /  F ield         | OpenFOAM: The Open Source CFD Toolbox           |
|  \\    /   O peration     | Version:  v1912                                 |
|   \\  /    A nd           | Website:  www.openfoam.com                      |
|    \\/     M anipulation  |                                                 |
\*---------------------------------------------------------------------------*/
FoamFile
{
    version     2.0;
    format      ascii;
    class       volVectorField;
    location    "0.28";
    object      U;
}
// * * * * * * * * * * * * * * * * * * * * * * * * * * * * * * * * * * * * * //

dimensions      [0 1 -1 0 0 0 0];


internalField   nonuniform List<vector> 
5794
(
(-0.775507 -0.179278 -2.72787e-17)
(0.0432001 2.20384 0)
(0.983667 -0.00425129 -1.53886e-16)
(-0.13336 0.587311 1.61468e-16)
(2.73354 0.648403 3.20898e-17)
(0.0591977 3.18542 -9.24567e-17)
(0.880499 -0.717666 -1.99881e-16)
(-6.36282 -0.0166109 0)
(5.81787 1.17479 9.71829e-17)
(-1.0601 0.0883284 1.92842e-16)
(4.72607 -0.0855746 3.18176e-19)
(-1.76734 -0.139598 0)
(-1.03254 -0.616415 5.7376e-16)
(0.991523 1.74086 3.07083e-16)
(2.10871 0.418488 4.03928e-16)
(0.672361 -0.12364 -1.53594e-16)
(1.43039 0.236959 5.67169e-17)
(-0.771592 1.49124 2.4316e-16)
(2.80074 0.101958 3.60171e-16)
(0.0758423 2.06555 1.27849e-16)
(-2.87044 1.58572 -4.37478e-17)
(-0.0150327 2.31846 -1.13439e-16)
(3.0275 0.211064 2.33667e-16)
(0.311122 -0.00833815 -6.65674e-16)
(-5.4215 -0.26172 -2.32409e-16)
(2.8 10.4935 2.05781e-17)
(6.74876 -0.185195 0)
(-0.8375 5.72673 -1.2693e-16)
(-0.114232 10.2544 -3.32119e-17)
(-0.258968 -0.149203 3.10133e-16)
(2.08223 -1.0367 -5.00626e-16)
(-0.835489 0.101214 -6.20699e-16)
(-2.76671 0.311296 -8.139e-16)
(-1.06501 -0.743381 4.01242e-16)
(-0.307928 0.828891 -1.65773e-16)
(1.34532 -0.471591 1.82983e-16)
(9.75243 0.536813 -2.10886e-16)
(0.586593 -0.275476 0)
(1.34555 -0.766537 1.52841e-16)
(0.887751 2.54108 0)
(-4.16837 -2.76198 -8.55572e-17)
(-1.26867 -0.222554 1.43042e-16)
(7.48247 0.117065 -9.00691e-19)
(0.399277 -2.88263 0)
(1.98504 0.259395 -3.5844e-16)
(6.30137 -0.0570034 1.08212e-16)
(3.69408 0.00321887 -2.58238e-16)
(-3.83755 -0.106695 0)
(-0.643089 0.219634 7.41931e-16)
(0.552647 -0.280664 6.99684e-17)
(0.258856 -0.405145 -1.68288e-16)
(6.78274 -0.090805 -1.58452e-16)
(1.67914 -0.180131 0)
(2.36827 2.54103 1.06073e-16)
(-0.0951015 -0.0672963 1.04628e-17)
(7.01845 -0.566989 0)
(4.23992 0.0444522 -2.0201e-16)
(-2.69768 0.583361 1.1871e-16)
(8.42867 0.0677887 0)
(4.18285 9.83691 -7.04678e-19)
(9.28282 0.419859 1.8284e-18)
(0.687567 1.81524 -1.03105e-16)
(1.36092 -1.78967 -1.16901e-16)
(-0.217103 0.174197 2.54788e-16)
(-1.76944 0.780603 0)
(1.83319 0.21008 -2.28527e-18)
(0.265897 0.138178 -2.77124e-16)
(0.294568 0.423361 0)
(-0.370071 0.959998 -2.61403e-16)
(0.0581267 1.00207 -5.55423e-21)
(5.74047 -0.331656 1.20312e-16)
(0.277955 0.884191 -3.84626e-16)
(12.0161 2.14737 -3.79551e-18)
(-2.06427 0.16663 0)
(-0.717881 1.33452 2.43106e-16)
(-0.987593 6.54521 3.45827e-19)
(-0.376504 0.0400986 1.42598e-16)
(1.58122 10.2873 -2.1221e-17)
(0.16377 -2.86793 3.5912e-17)
(0.649199 -0.00543957 6.95147e-17)
(-0.237277 0.158641 -2.02374e-17)
(-0.00787826 1.87515 -1.28521e-16)
(-4.37586 -2.10467 -7.8473e-19)
(0.372295 -1.06944 -1.04545e-16)
(0.00662564 -0.917766 -4.06044e-16)
(-0.243578 4.63455 -4.30567e-17)
(0.277741 4.94352 3.511e-17)
(0.10212 4.53545 -2.69951e-17)
(1.12169 -0.476509 -1.5132e-16)
(2.43791 0.63098 -4.29391e-17)
(1.03325 5.7647 -7.72354e-17)
(0.169765 4.23182 -1.05779e-16)
(-0.153755 8.20071 1.23076e-16)
(0.251144 8.27249 5.36069e-17)
(-0.138445 5.6103 3.51059e-17)
(-2.18637 0.0290932 4.96968e-18)
(-0.0892827 6.31074 -5.32774e-17)
(-0.165801 7.90857 -1.33624e-17)
(0.235985 4.49735 0)
(9.04275 0.466224 -2.95391e-17)
(1.77764 3.2608 -1.17453e-16)
(-0.303877 -0.0857842 -5.03346e-16)
(8.36362 0.148251 7.07152e-17)
(2.04943 3.50157 -3.3383e-16)
(2.64357 -0.0641513 0)
(-3.84431 7.79505 0)
(0.0929136 1.81153 0)
(-1.00555 0.00599916 -2.46676e-16)
(-1.25049 0.535203 -1.1495e-16)
(-0.0230596 -2.83288 -9.76528e-17)
(0.649535 -0.193174 -1.08743e-19)
(-1.71607 -0.71399 0)
(-1.3176 4.73618 1.06522e-16)
(0.258694 -0.439801 1.51145e-16)
(-0.115186 4.79884 0)
(-0.134878 8.6526 0)
(1.38855 0.495184 -3.15116e-16)
(-1.45858 4.73854 -6.56894e-19)
(9.4999 0.375986 -2.3968e-20)
(10.8282 0.615127 5.78955e-18)
(-2.59632 7.05668 1.21626e-16)
(2.62646 0.0789815 0)
(-0.499114 -0.273203 0)
(-0.994378 6.30082 -1.45982e-16)
(-1.30846 -0.150214 1.79598e-16)
(4.91207 2.52039 4.87042e-17)
(0.801691 0.653957 0)
(0.0954007 2.92528 5.76822e-17)
(7.39535 -0.336649 1.01732e-16)
(-0.716851 0.0110357 1.54259e-16)
(-0.417609 -0.674623 3.30965e-16)
(1.38244 -0.799044 1.7803e-16)
(1.14776 0.498021 2.64402e-17)
(1.17299 9.88396 -6.55102e-17)
(-3.10456 8.69352 1.14984e-16)
(1.02221 0.704323 0)
(4.83898 -0.179322 8.66275e-17)
(0.840269 1.75879 -1.56004e-16)
(0.199167 -0.108238 2.03308e-16)
(-0.0748983 -0.848842 0)
(-2.69002 -0.710815 -3.61892e-16)
(1.73419 2.73991 0)
(-1.41488 -0.667092 0)
(2.21697 4.33813 2.87976e-16)
(0.268472 0.111014 2.21841e-16)
(1.81536 3.91737e-05 1.80568e-17)
(-0.155456 -0.148684 2.85992e-16)
(8.1466 0.277536 2.21834e-16)
(3.42686 0.447294 -1.97841e-18)
(-0.340185 3.13414 3.71318e-16)
(7.33417 -0.174154 -1.67981e-16)
(1.67424 0.56055 2.48893e-16)
(-3.56933 8.20698 0)
(-1.09602 0.345016 1.96473e-16)
(4.51116 -0.416506 0)
(3.25081 0.12809 0)
(0.685653 -0.402646 -2.87397e-16)
(-0.322037 -0.43607 4.2003e-16)
(5.98119 0.226372 -2.39456e-16)
(0.0668756 -0.377456 -1.50023e-16)
(-1.3725 0.398742 3.67211e-16)
(0.342531 0.128698 -3.61763e-16)
(-0.538877 -0.141149 0)
(1.78107 -0.276893 -1.25489e-16)
(-3.04371 0.0186591 -2.78989e-16)
(-3.20679 0.0266719 1.50961e-16)
(3.39053 -0.337682 9.53353e-19)
(0.481784 -0.141241 -3.63363e-18)
(0.462416 -0.122738 0)
(-1.57144 -0.272636 8.1604e-19)
(0.0363747 -0.0907742 0)
(-1.98023 0.478743 -1.07277e-16)
(0.477753 -0.485145 0)
(2.25509 -0.131719 7.65434e-17)
(-1.84747 -0.302306 3.8176e-16)
(2.97792 0.0262751 0)
(2.19364 0.134474 -2.04879e-16)
(-5.08257 -0.270601 -1.56023e-16)
(-0.1393 -0.244295 -9.44119e-17)
(6.40098 0.197858 6.39027e-18)
(0.441812 -0.205357 -5.81356e-18)
(-0.88132 -0.181001 0)
(2.80763 0.432844 0)
(-3.29915 -0.388711 1.06682e-16)
(2.40486 -0.0312382 0)
(-0.341086 -0.666685 7.27187e-17)
(-0.385739 0.104368 -1.71058e-16)
(-0.863905 0.40249 -9.91297e-17)
(-1.13947 0.119746 1.19915e-16)
(-0.519569 -0.166835 3.79868e-16)
(4.6385 -0.048492 -3.34677e-16)
(-1.03979 -0.029917 4.35194e-16)
(-3.20566 -0.0620303 5.34487e-16)
(3.10507 -0.407451 4.77934e-16)
(0.863841 -0.188311 -9.60767e-17)
(-0.954615 -0.356409 -5.07463e-16)
(-5.47888 -0.378571 -1.33489e-17)
(-1.10702 -0.319219 -1.73547e-16)
(2.87929 -0.126984 -2.46002e-16)
(6.50687 -0.0429387 1.1776e-16)
(2.32622 -0.221166 -1.83725e-17)
(6.41953 0.0882624 0)
(-3.16396 -0.552314 0)
(-1.2445 -0.521198 9.55188e-18)
(3.48426 0.0574244 -6.26628e-17)
(5.99392 0.138484 0)
(-0.959373 -0.237855 1.11032e-17)
(0.169195 -0.471374 1.50237e-19)
(5.78455 0.632048 -6.68763e-18)
(2.2964 7.7672 1.2808e-16)
(-0.434027 -2.14138 9.07955e-17)
(9.7119 -0.0188065 0)
(1.60669 -0.904214 -8.95228e-17)
(0.0187259 -0.0169837 1.66513e-16)
(0.128612 -0.618624 0)
(-5.99181 -0.324024 3.90797e-16)
(2.6058 0.191246 -1.33718e-16)
(1.90898 0.734354 1.11133e-16)
(4.10952 -0.112877 1.27019e-16)
(1.47409 6.47806 -1.58812e-16)
(9.63172 -0.0120436 0)
(2.11961 -0.0315809 1.95855e-16)
(-0.85731 1.06185 0)
(-0.153403 5.66061 2.51525e-17)
(5.73462 0.115342 1.21914e-16)
(11.6441 0.768027 2.15053e-18)
(0.357415 0.0460944 -7.88878e-17)
(0.114879 -0.279817 -1.10601e-16)
(3.76811 -0.0905357 0)
(0.840902 0.508604 -2.96455e-16)
(1.22956 -0.0944762 0)
(0.416274 -0.0240247 -5.67408e-17)
(-1.92271 -0.233917 -9.22076e-17)
(-0.941852 0.699351 1.44783e-16)
(0.555423 0.216483 2.12879e-16)
(9.27546 0.165316 6.81684e-18)
(7.56687 0.596506 2.34385e-18)
(7.62194 0.580467 2.75423e-17)
(-2.1366 -0.496829 -1.48577e-16)
(-1.82083 0.318245 -3.67483e-16)
(0.178319 1.73219 0)
(1.34545 0.360883 1.14387e-15)
(1.17099 3.88889 2.25212e-16)
(-1.19972 0.719181 -2.75659e-16)
(-1.5665 0.721996 2.66869e-16)
(0.820636 -0.109776 3.0216e-16)
(1.30489 0.0125907 -1.2758e-16)
(3.89997 0.390519 8.50463e-18)
(-0.21984 5.99729 0)
(-0.0423108 5.88687 0)
(0.105274 3.31032 0)
(1.4063 0.198674 2.51488e-17)
(3.03634 -0.301336 -7.97364e-17)
(-0.660364 0.207298 -1.1222e-19)
(7.44018 1.14008 -5.48974e-17)
(4.87921 1.29012 -1.35989e-17)
(8.28785 0.226622 -1.45087e-16)
(9.04448 0.478023 1.53909e-16)
(-0.160651 -0.933737 2.65221e-16)
(-2.00645 0.15821 0)
(6.51432 -0.0187119 -1.05267e-16)
(2.08702 -1.08406 7.2576e-17)
(0.0241197 -0.24866 -9.50101e-17)
(1.08798 -0.121299 0)
(-2.11907 0.0199382 0)
(-3.26953 -0.426274 -5.04525e-19)
(0.527462 5.34495 1.28912e-16)
(4.01209 0.858799 0)
(-2.04827 0.290539 -5.81775e-16)
(5.2456 0.253947 -1.0764e-16)
(3.25391 0.155122 0)
(-3.03041 -1.39277 -2.01853e-16)
(-5.29004 -1.40417 -2.94316e-16)
(5.87934 -0.157128 -1.43668e-16)
(9.4738 0.0894324 3.52461e-17)
(1.74828 0.284025 2.75856e-16)
(2.77717 2.24122 -1.20791e-16)
(-2.65124 -0.29077 -7.06832e-17)
(0.729831 0.311902 -1.86314e-16)
(-0.885779 0.169097 -2.64578e-16)
(-1.80261 -0.468744 3.06882e-16)
(0.75953 2.62057 2.67454e-16)
(-4.38392 -2.6686 8.40653e-17)
(-1.20953 -0.276631 -3.98167e-16)
(1.35673 2.49768 6.23635e-17)
(-0.169267 5.38381 1.0968e-16)
(0.219319 6.21545 1.28681e-17)
(-0.294528 6.92966 0)
(1.2285 6.18642 3.73698e-17)
(-2.72487 8.98114 0)
(1.92539 -0.366263 -1.3426e-17)
(-1.58413 0.339949 -9.16693e-17)
(-0.991743 -0.515788 2.2622e-18)
(2.99065 1.07564 0)
(8.19462 1.59813 0)
(1.56121 7.2705 6.69236e-18)
(-2.23582 -1.5055 4.95205e-17)
(-1.59594 -0.372191 2.56141e-19)
(2.17692 3.20124 -1.95665e-16)
(1.02484 -0.243339 -1.68775e-16)
(0.0092043 1.56554 9.31621e-17)
(-0.416501 6.40655 0)
(0.01072 -0.378888 -8.31413e-16)
(0.460258 1.35935 0)
(-1.10542 -1.41088 -1.40313e-16)
(3.84721 0.311553 1.56735e-18)
(0.623877 0.257872 -2.66884e-16)
(-0.267836 0.906113 4.22553e-16)
(5.85379 0.274082 2.15667e-16)
(3.45169 0.194842 0)
(-1.16802 -0.755822 -5.54928e-16)
(-0.172283 0.0460053 -3.00491e-16)
(1.43781 6.53004 -1.44598e-16)
(0.386093 -0.37374 -8.46719e-17)
(10.5834 0.117549 0)
(10.0483 0.279662 -1.7504e-17)
(-0.647326 0.057414 -9.19215e-17)
(-0.669851 4.96388 -2.79683e-16)
(-2.07342 0.335972 -2.04362e-16)
(-0.0128125 7.77908 -3.79729e-17)
(-4.96866 0.682588 2.54892e-16)
(0.291982 -0.101897 -1.80614e-16)
(-0.562648 2.63548 -1.47629e-16)
(3.49312 0.585336 -9.49631e-19)
(-0.144311 -0.436744 0)
(1.16104 -1.28202 0)
(-1.90455 0.0648272 0)
(-1.47548 -0.241754 6.75854e-17)
(-0.41771 -0.415952 -3.65373e-16)
(4.57168 -0.104484 2.91746e-16)
(6.68716 0.0342932 -6.54412e-18)
(6.66942 -0.122248 2.94607e-16)
(1.41345 -0.389437 8.45971e-17)
(-1.94507 0.44323 4.67527e-16)
(-0.68222 0.150129 0)
(-1.31676 0.0994684 -2.15915e-16)
(-1.11786 -0.157183 0)
(0.0144001 -0.209935 0)
(-0.884843 0.0276819 -2.94223e-16)
(-0.133786 -0.154683 0)
(0.253534 -0.281392 4.4907e-16)
(-3.89877 0.0391816 2.80034e-16)
(6.23484 0.538507 0)
(2.98035 0.072696 0)
(1.88295 0.234131 3.64929e-16)
(1.66924 0.0737303 3.26787e-16)
(-2.38295 -0.784403 2.75557e-16)
(-0.308616 -0.276564 -2.56046e-17)
(-3.26932 0.0291147 -1.11746e-16)
(0.720536 0.0264141 8.5511e-17)
(2.19898 -0.412769 6.64795e-17)
(0.160635 0.173627 2.57844e-16)
(-3.70135 -0.122508 -1.94904e-17)
(-1.13205 -0.0865944 1.71465e-16)
(3.3524 0.10108 0)
(-1.05667 -0.268989 0)
(2.47543 -0.230997 1.50761e-16)
(6.11071 -0.337746 1.52324e-16)
(1.37708 -0.583919 6.68704e-17)
(-5.94018 -0.27071 0)
(-0.108619 -0.34491 -2.73691e-16)
(0.371775 -0.267119 5.90365e-16)
(5.2265 -0.0617309 3.44038e-17)
(1.0827 -1.18736 -3.13174e-17)
(-5.67633 0.0220207 -1.32003e-16)
(3.82453 0.00768352 3.32048e-16)
(-3.27679 0.0390577 -3.51376e-17)
(5.69122 -0.371918 0)
(3.47519 -0.11248 3.44989e-16)
(-3.4953 0.274549 -7.0215e-17)
(0.594169 1.25117 -1.15539e-16)
(1.38756 -0.201742 0)
(3.69026 -0.0233358 -7.82945e-17)
(0.435052 -0.447786 3.12018e-16)
(0.337758 0.170802 8.84778e-17)
(-2.86378 0.141644 1.29115e-16)
(5.35507 -0.0602248 0)
(3.66187 0.312227 8.42015e-17)
(-2.51097 0.896022 0)
(0.776259 0.100618 1.43191e-17)
(-1.49164 -0.322039 1.60958e-16)
(0.411412 0.881188 0)
(10.768 0.0791037 0)
(1.20918 -0.447112 1.36913e-16)
(0.0978155 0.780904 -5.65971e-16)
(-1.1093 -0.70109 -3.16385e-16)
(-0.303701 9.78835 -2.63935e-17)
(2.48281 -1.2605 1.83831e-16)
(-1.31402 0.295571 -7.48624e-16)
(3.95926 -0.146886 0)
(0.591453 -0.0249536 -6.67652e-16)
(-0.94929 1.02376 -4.79196e-19)
(0.0352013 1.10747 -2.3121e-18)
(-1.42883 -0.928881 1.39052e-16)
(-0.872913 -0.224215 8.66021e-17)
(2.29127 -0.373678 -7.17626e-17)
(-2.27877 -0.203639 9.35735e-17)
(0.711084 -2.19926 0)
(-1.6944 0.817358 0)
(3.0374 0.122057 -2.40708e-16)
(0.428307 -0.290043 1.42803e-16)
(-6.87157 -0.442594 -2.12544e-16)
(9.921 0.0057324 3.50639e-17)
(0.774982 0.131169 2.00222e-16)
(-0.80358 -0.821561 0)
(6.77064 1.05344 4.41559e-17)
(1.69491 -1.7867 4.73475e-19)
(-0.0389713 2.71013 1.50333e-16)
(0.192294 1.74736 -3.11762e-17)
(-0.553141 5.54224 -6.33954e-17)
(-0.208096 7.6557 2.14357e-17)
(0.405193 5.01848 0)
(0.811073 0.443333 1.72788e-16)
(-0.974061 0.424871 2.60385e-16)
(6.11874 0.102414 1.76377e-17)
(3.50354 0.0489551 7.86893e-17)
(-1.40283 -0.338226 0)
(-0.0251774 0.548538 2.89994e-16)
(-2.55409 0.145853 0)
(-0.341781 6.42961 3.70581e-17)
(0.239017 4.53823 -8.36931e-17)
(-0.206699 7.92297 2.80167e-17)
(-0.40895 0.0719182 -1.47302e-17)
(0.846552 1.64896 -3.2997e-17)
(1.17754 -0.218479 0)
(0.634623 0.333374 0)
(-1.23966 -0.293721 -1.83132e-16)
(0.109452 -0.473529 -1.96862e-16)
(-0.00588512 2.1054 -1.14746e-17)
(-0.488884 1.91499 4.24887e-17)
(5.07764 1.30683 2.67426e-16)
(9.98917 0.140594 1.24917e-17)
(1.18163 5.19086 -2.70295e-16)
(1.0538 -3.04027 -1.99959e-17)
(2.77309 -0.0583134 2.50463e-16)
(1.0619 0.517596 0)
(-0.678254 -0.230594 1.71119e-16)
(-0.141145 -0.436559 -9.81905e-18)
(1.33768 -0.308832 -8.75958e-17)
(0.208467 0.278371 2.04069e-16)
(-0.924739 -0.477541 2.31342e-16)
(9.93986 0.0969792 -2.43912e-16)
(2.18406 -0.322246 0)
(-0.182269 -0.199581 8.19067e-17)
(-2.50887 -0.0327429 -1.87466e-18)
(-0.0281981 8.61939 -5.06139e-17)
(-0.0837083 5.03497 1.06404e-19)
(0.245094 -0.152701 0)
(1.24748 -2.31154 1.56185e-16)
(0.826101 0.171842 -8.47537e-17)
(-0.87268 -0.195402 -2.08261e-16)
(0.0607425 2.18737 -5.26748e-17)
(-2.60588 1.20442 4.45348e-17)
(-0.0385684 1.6427 -4.29777e-16)
(-0.152656 7.10997 -2.53647e-17)
(0.898361 -0.0384678 -5.19974e-16)
(0.355724 5.01851 -2.21353e-18)
(-1.91225 -0.113492 -1.91239e-16)
(-0.449657 6.99566 -3.05544e-17)
(1.69363 7.09468 8.04565e-17)
(-0.280513 0.786373 -1.05728e-16)
(0.174495 2.04188 -1.79896e-16)
(-0.265766 1.16215 1.6899e-16)
(0.659296 -0.335915 -3.97744e-16)
(8.73825 0.509649 8.85316e-17)
(-0.694796 0.0335977 -2.68131e-16)
(10.4955 0.479348 -2.23295e-18)
(2.80463 1.86651 7.62951e-17)
(0.54591 0.192806 -4.3914e-16)
(-0.311777 -2.40389 -4.54253e-17)
(0.493161 0.0645029 3.95502e-17)
(6.66199 0.675807 -5.62681e-18)
(1.55182 0.712184 -6.7843e-17)
(3.58983 -0.250474 1.96804e-17)
(1.34743 0.280304 -1.72459e-16)
(-0.956901 -1.33634 1.10288e-15)
(7.92952 1.6014 -3.51097e-18)
(-1.02102 5.19659 1.57988e-16)
(-1.95339 0.0769137 1.59245e-16)
(0.137815 1.97619 4.44305e-17)
(-1.32599 1.23604 2.42979e-16)
(-0.27235 0.38305 0)
(4.356 -0.0144157 -1.08778e-16)
(4.08003 -0.192816 8.17369e-18)
(-0.483607 0.105166 1.69912e-16)
(3.38138 -0.065107 6.14384e-20)
(9.77217 0.0187987 0)
(-1.80334 0.183645 2.00884e-18)
(0.427337 -0.0249412 -5.18711e-17)
(-0.241399 0.675284 1.15277e-19)
(-0.00434396 1.99525 1.60439e-16)
(0.069331 0.741095 -2.22961e-16)
(-0.184195 1.60206 7.23064e-16)
(3.99633 0.495896 8.2366e-18)
(1.65036 -1.0386 -2.06121e-19)
(0.279536 -0.561352 2.5668e-16)
(-0.293166 0.08338 0)
(0.294389 1.03381 0)
(0.500978 -0.27538 -3.48561e-17)
(7.21343 0.90946 -1.50685e-19)
(4.13495 1.05191 2.93648e-17)
(8.07556 0.900294 -7.50306e-18)
(10.3677 0.469037 3.18134e-18)
(0.483786 -1.19016 0)
(1.57236 5.55795 0)
(0.243813 1.82791 1.81886e-16)
(-0.452066 0.617842 2.216e-16)
(9.14703 0.457175 -4.2915e-16)
(1.52208 0.702162 0)
(1.74606 -0.236654 0)
(-2.1044 0.120312 1.93949e-16)
(0.561475 0.198885 1.66846e-18)
(-1.9833 -0.436366 -1.5164e-16)
(0.834195 -0.040938 1.91213e-16)
(0.55081 -0.240882 -9.56385e-17)
(-0.107431 4.39524 -3.55921e-17)
(-0.322205 8.47985 -1.23755e-17)
(0.800613 -0.0505278 -2.53608e-16)
(9.88037 0.144874 -6.49032e-17)
(9.91034 0.252103 3.74403e-18)
(-0.226061 1.66415 1.29322e-16)
(0.319863 1.87822 -3.39734e-17)
(2.8355 0.904399 -1.31538e-17)
(-2.1626 8.64151 -1.29935e-16)
(-0.323869 0.131228 1.03684e-15)
(0.251478 2.22946 5.56789e-18)
(-1.35179 -0.525274 0)
(5.78147 3.90756 6.0633e-17)
(0.160621 2.1032 9.24314e-17)
(-0.0098144 2.342 -3.67766e-20)
(-0.355282 2.07195 1.72032e-16)
(0.22065 -0.103939 0)
(10.541 0.277751 0)
(0.0223635 0.804504 -6.49175e-17)
(3.79136 -0.10431 0)
(2.87081 0.330376 6.2893e-17)
(10.0184 0.0552365 -1.01928e-16)
(5.42516 -0.00710324 7.07858e-17)
(-0.656451 0.110656 1.18799e-16)
(7.51075 0.063582 9.03681e-17)
(-0.1449 2.26485 6.07929e-17)
(-0.586317 -2.64946 1.69632e-16)
(0.0561828 2.11647 1.69076e-16)
(0.903153 1.15499 -1.80668e-16)
(-1.66356 0.0525666 -6.65474e-17)
(-0.329465 -0.3054 0)
(9.70038 0.740963 0)
(2.13776 3.76111 -2.92621e-16)
(0.251301 -0.235222 -2.10741e-16)
(0.142022 2.22196 5.42782e-16)
(2.84529 3.93756 -3.18081e-17)
(0.929149 0.158605 0)
(2.30754 0.0669277 -3.75448e-16)
(-1.06132 -1.36292 -1.38948e-16)
(0.186213 2.28265 1.30351e-16)
(-1.7849 -0.929793 0)
(0.584483 1.99096 0)
(0.0491294 2.65541 0)
(0.184025 1.98405 -1.46386e-16)
(0.8182 1.41306 9.2301e-18)
(10.3839 2.75613 -2.74218e-18)
(-0.162843 0.0386721 0)
(5.64724 1.41055 0)
(1.79318 0.886035 -7.59024e-17)
(1.75574 1.81778 1.16967e-16)
(-1.93336 0.176531 0)
(0.797896 0.114352 3.92575e-16)
(0.203562 -0.473458 -6.14198e-19)
(-0.0340433 1.38973 -1.47042e-16)
(1.44723 -0.414042 0)
(8.34891 0.53401 -6.05222e-17)
(-1.51178 0.769632 -1.4522e-16)
(0.572845 1.75876 7.36893e-17)
(-0.1157 5.25493 0)
(0.948363 2.85422 -1.06789e-17)
(9.88364 0.232087 -1.95936e-17)
(3.15645 1.33081 -5.03695e-18)
(1.68803 3.04805 -1.47696e-16)
(-1.87276 -0.446638 -2.18831e-16)
(-2.31747 -1.82929 -4.05088e-16)
(-0.337322 7.51494 1.10747e-18)
(-0.207885 5.54633 5.15878e-17)
(3.02073 2.48941 0)
(10.2324 -0.128493 2.30026e-17)
(-3.05929 -0.0412704 1.22425e-16)
(9.20026 0.749513 -1.12667e-16)
(-0.0468055 -0.435045 1.78371e-16)
(-0.158683 7.2134 0)
(0.274294 5.46897 -6.23409e-17)
(-0.449538 4.70319 1.83607e-16)
(1.64557 -0.372131 -6.36093e-18)
(0.156243 2.7137 4.3296e-17)
(1.21369 1.32502 5.46387e-18)
(-0.249768 7.2273 -2.56153e-17)
(-0.401393 6.0561 -3.06332e-17)
(2.0898 9.44728 5.26896e-17)
(0.696065 0.0600486 1.9675e-17)
(10.1215 0.170062 0)
(0.173804 -0.136666 5.32237e-16)
(1.54235 0.75925 -8.10623e-17)
(-1.25056 0.32786 -3.04495e-16)
(7.88628 0.533751 1.58948e-17)
(-0.258796 6.26756 -4.56059e-17)
(-0.123788 7.43792 1.71085e-16)
(1.01665 -0.121086 -3.30687e-20)
(-0.40932 0.0689149 -1.19471e-16)
(1.1727 6.14036 0)
(-1.33537 0.0147397 0)
(-0.0895012 -0.178398 -2.08652e-17)
(0.0928931 -1.16785 0)
(3.48989 2.72537 -7.10986e-17)
(4.67621 1.78899 0)
(2.5256 3.82802 -2.121e-16)
(2.24794 -1.99415 4.73312e-17)
(0.796289 -0.0903559 3.82367e-16)
(2.52538 0.309616 3.27696e-17)
(7.52401 0.74461 -1.43191e-17)
(4.18996 0.00470671 -2.19095e-16)
(7.80934 0.151855 -2.79009e-16)
(0.172769 0.307935 0)
(0.313245 1.83007 -7.20014e-17)
(5.22165 3.12567 1.56174e-16)
(3.74446 1.7626 -7.14251e-17)
(-0.337482 -0.225998 -3.71888e-16)
(0.450429 1.91559 4.97643e-16)
(0.236292 2.28908 2.75633e-17)
(0.489748 -0.128305 -4.65932e-16)
(1.04437 0.52128 -6.47592e-19)
(1.04403 0.680287 -2.49821e-16)
(-0.123346 -0.301349 1.93161e-16)
(-1.25725 0.736668 7.40973e-17)
(0.0683973 2.14787 0)
(0.173557 0.733473 -7.48231e-17)
(-0.260027 1.43707 -6.80268e-17)
(0.31211 1.67322 2.70715e-16)
(4.35541 -0.0219027 -6.2015e-17)
(1.69492 8.15915 -3.76603e-17)
(10.6436 0.424601 -7.05975e-17)
(3.66916 -0.0816656 7.20228e-17)
(-0.417211 5.19975 -5.33128e-17)
(-1.38113 0.0729655 -1.27546e-16)
(8.67778 0.183911 3.45796e-16)
(3.99554 -0.0394816 -2.28262e-17)
(0.242608 5.58485 3.93203e-18)
(4.83285 -0.129688 2.3178e-16)
(-0.0475442 4.66338 -1.67989e-16)
(-0.294381 7.15082 7.76695e-17)
(7.20779 0.314203 0)
(-0.104276 -0.266672 -1.29129e-16)
(0.040847 0.111544 2.91232e-17)
(0.0443584 1.42805 0)
(-1.33596 -0.715496 -1.53502e-16)
(-0.0224445 0.428671 6.57717e-17)
(1.41494 0.648866 2.34685e-16)
(1.15114 -0.33649 2.71011e-16)
(4.16766 0.230242 -3.96227e-17)
(9.68618 0.658571 -1.20059e-18)
(-0.0415301 0.439968 -2.06157e-16)
(-0.377892 0.164882 3.57675e-16)
(1.5426 2.0324 -2.41353e-16)
(0.501892 0.0682253 1.23652e-16)
(4.07896 -0.0722087 0)
(-0.14445 0.112506 -1.16245e-17)
(-2.03596 1.46344 -2.56658e-16)
(0.0660737 1.94437 -1.53711e-20)
(-0.27993 7.05253 2.45225e-17)
(0.572294 5.78769 -2.2025e-18)
(-0.240952 5.28025 -1.07992e-16)
(0.190197 6.1919 3.19385e-17)
(1.87682 4.12085 -1.46311e-16)
(7.49296 0.405183 6.77668e-17)
(0.338055 -2.08167 0)
(10.8827 1.09983 0)
(-1.73373 0.205731 3.3612e-16)
(-2.95861 0.251526 4.30043e-16)
(-0.20493 6.41244 1.40647e-16)
(-0.0278056 7.59093 -1.15725e-16)
(-1.62792 -0.0385039 1.11101e-16)
(2.27865 3.98523 -5.24855e-17)
(-1.81984 0.086825 4.07873e-17)
(0.371788 1.2926 2.12845e-17)
(0.293395 -0.675176 3.28595e-19)
(1.14888 2.06659 -4.96923e-17)
(-0.00536708 -0.290022 -1.10783e-17)
(2.07988 2.58071 -5.65968e-17)
(4.04716 -0.0597734 -3.73343e-16)
(0.431479 4.31744 6.27581e-18)
(0.174469 1.13909 1.48002e-16)
(0.864594 0.384614 0)
(0.750244 -0.0736569 0)
(0.824413 0.160861 0)
(1.24975 6.1922 2.33356e-16)
(1.40311 7.84751 2.56365e-16)
(-0.536621 7.23905 2.15594e-16)
(3.46629 0.635881 2.55353e-17)
(6.11023 3.37572 -3.60145e-17)
(0.0214879 -0.0656324 0)
(0.08682 1.30308 8.60458e-17)
(-0.772102 -0.274878 3.38292e-17)
(10.5285 0.0533812 -7.35465e-18)
(-0.561013 0.358858 -9.99054e-17)
(-1.35605 0.0557828 3.23217e-18)
(0.0348058 -0.137398 -1.73615e-16)
(9.06585 0.35307 -1.97929e-17)
(0.269272 0.751051 0)
(3.81872 1.30571 -3.32099e-16)
(2.44585 0.326822 2.67198e-16)
(4.22689 -0.126796 0)
(-0.0658634 0.11894 7.93209e-17)
(1.53166 2.01228 -2.6196e-16)
(8.84011 0.171596 0)
(2.77805 6.24317 -4.51562e-16)
(-0.574849 6.96102 -1.16365e-16)
(0.408564 3.29036 0)
(1.14816 0.533708 0)
(11.384 0.283277 4.2661e-17)
(10.3549 0.313761 3.29614e-17)
(9.67335 1.30339 2.09434e-18)
(5.58244 2.31817 -8.11382e-21)
(0.837541 3.47427 0)
(1.47814 0.292069 2.00298e-16)
(2.88824 6.75873 -3.01125e-17)
(5.22113 -0.0312168 0)
(0.0210335 1.47497 -4.09969e-16)
(4.49993 1.14112 3.02836e-17)
(0.0532428 -2.0808 -1.06987e-16)
(9.36503 0.82724 -5.10687e-17)
(10.8653 0.0422672 7.65923e-17)
(1.93913 1.54429 -1.91387e-16)
(9.97296 0.391667 -1.51646e-17)
(-0.313511 6.1906 1.6408e-16)
(0.968039 8.30263 4.36992e-17)
(0.949018 7.00027 -9.91178e-17)
(6.9082 3.80186 0)
(3.24674 0.815268 1.02621e-16)
(2.52355 0.520239 -1.34838e-16)
(2.78488 0.140652 3.27405e-17)
(-0.111259 0.19936 1.33372e-16)
(0.212407 4.36864 -1.29889e-21)
(-0.111956 8.07985 4.13112e-19)
(0.593517 6.16003 7.18863e-17)
(0.504237 0.693967 0)
(-0.47638 0.442708 0)
(1.17482 -1.12939 8.53768e-17)
(-1.14862 -0.454214 1.54412e-16)
(-0.110911 5.51783 -1.02212e-16)
(0.255245 6.10953 -3.58506e-18)
(-0.330038 1.87358 0)
(2.5107 -1.66635 -2.93592e-17)
(10.0855 0.109878 8.42081e-17)
(0.165208 1.60759 0)
(-1.32647 -0.773682 -3.57556e-16)
(0.886403 2.38812 5.72826e-17)
(0.867926 -0.0362822 2.49351e-16)
(-0.252611 5.58461 6.66641e-17)
(-0.216683 8.04421 1.24746e-16)
(9.59929 0.835956 0)
(0.468013 7.91604 -3.29478e-17)
(-0.216048 5.85856 -3.31546e-17)
(9.47255 1.01688 -9.45988e-17)
(-2.10764 0.16856 -1.13634e-21)
(7.08629 1.09136 8.6295e-18)
(-0.308892 7.16012 -3.93812e-20)
(-0.267577 7.19341 0)
(0.113341 5.74728 2.67199e-18)
(-0.328006 5.13649 -9.29355e-17)
(0.0864452 6.11315 -3.92128e-17)
(3.9004 3.95121 1.42517e-16)
(0.119558 -2.51569 3.36173e-17)
(-0.199645 7.60015 1.9276e-16)
(0.364324 5.28877 0)
(-0.56918 5.27674 -1.41294e-16)
(0.647091 0.13961 3.75046e-17)
(-0.063162 0.0786224 -1.58088e-16)
(3.29748 -0.140224 5.97772e-17)
(0.200195 0.32185 4.33492e-18)
(0.253714 2.11865 1.06805e-16)
(-1.44677 -0.244122 0)
(2.16281 3.0112 1.53411e-17)
(0.126184 2.60385 -1.70714e-17)
(0.395723 0.152914 -1.23715e-16)
(9.63536 0.940504 -8.00739e-19)
(1.20267 1.11354 -3.46806e-17)
(-0.148189 1.74812 -1.84876e-16)
(0.217797 2.13931 -1.45532e-16)
(-0.302721 6.95946 -1.97107e-16)
(-0.0549316 5.86245 0)
(0.408065 -0.0911645 2.57227e-16)
(-0.3026 7.07042 8.35986e-17)
(-0.309644 5.92344 2.51963e-17)
(0.148603 -0.029154 -9.3463e-17)
(4.03926 3.49569 -1.48635e-16)
(-1.86863 -2.0757 4.40545e-16)
(-0.542764 -0.783908 6.35484e-16)
(1.05466 1.21616 -2.33224e-16)
(-0.175433 6.10779 2.47067e-16)
(0.0270018 2.17011 -3.05245e-16)
(-0.694767 -0.554064 -1.8203e-16)
(-0.190109 1.63187 -1.04229e-16)
(1.44441 8.70319 0)
(9.82385 0.0862913 0)
(-0.464875 -0.0618763 -2.91526e-16)
(-0.764575 1.61856 1.70724e-16)
(0.0589651 -0.382466 -7.81713e-17)
(0.234637 1.67776 0)
(2.10825 0.879518 8.60652e-17)
(0.422588 0.143825 8.61344e-21)
(0.753845 -0.180245 -5.97108e-16)
(4.50448 0.129983 2.10451e-16)
(1.61799 4.80242 1.24611e-16)
(-0.665908 7.38283 -2.6093e-16)
(-2.71184 -0.469117 3.12583e-16)
(-1.02168 -1.11299 -1.37317e-16)
(9.91271 0.809517 -1.30924e-17)
(0.173354 3.44519 2.03436e-16)
(0.425385 -0.618443 1.91883e-16)
(0.10039 0.0230901 0)
(-1.12854 0.924137 5.28862e-17)
(2.36684 1.11755 -7.04865e-16)
(0.211279 1.8166 -2.16425e-17)
(0.105598 2.75966 2.19367e-16)
(0.957244 0.486344 3.122e-17)
(8.91449 0.52472 -1.09734e-16)
(9.56261 0.383371 -2.94967e-19)
(0.0798804 -0.279058 1.92739e-16)
(11.059 0.0430414 0)
(1.45368 0.818733 -4.16142e-18)
(3.65511 -0.249143 1.88649e-18)
(3.97255 0.269716 -1.14236e-17)
(0.274307 5.56357 4.73838e-17)
(-0.149303 7.12324 3.70818e-17)
(-0.0599979 4.82067 1.75013e-17)
(10.5123 0.0331139 1.39459e-17)
(0.0737612 1.20965 -2.00909e-19)
(-1.14917 3.27092 -6.5471e-17)
(3.72302 -0.225128 -3.75171e-20)
(0.792785 0.736151 0)
(9.78349 1.75414 -4.99825e-18)
(-1.66954 0.0997133 0)
(0.339926 0.509091 9.32473e-17)
(-0.492223 0.161504 8.33394e-17)
(0.129165 1.56828 4.19337e-18)
(0.536548 0.284388 2.43923e-16)
(0.307555 0.301697 3.62686e-16)
(9.32833 0.644312 -1.73025e-17)
(0.487743 -0.162498 2.62096e-16)
(-2.59981 -0.913482 2.49453e-16)
(9.50569 0.958025 9.66303e-17)
(9.738 0.313727 4.00123e-17)
(5.92095 1.72453 3.52246e-17)
(-0.238426 6.55844 -4.60676e-17)
(-0.0329163 7.13128 2.20802e-17)
(-0.166745 4.22613 1.01047e-16)
(0.394772 1.37768 0)
(4.44478 0.805575 4.51003e-17)
(5.84195 3.28426 8.26673e-17)
(9.91923 0.062404 -2.15432e-17)
(0.0651644 -0.0282146 1.23511e-16)
(0.595283 -0.203917 2.49685e-16)
(0.157094 0.230721 0)
(8.94776 1.55665 0)
(1.49135 2.12016 0)
(-0.703491 -1.91867 2.67342e-16)
(3.85561 -0.16001 6.49319e-17)
(3.6237 4.45286 1.99546e-16)
(-0.560417 6.43307 2.54685e-17)
(1.735 6.70052 -6.10942e-17)
(0.0931852 0.169997 0)
(0.442326 2.48827 7.11948e-17)
(-0.710226 2.62597 -2.00805e-16)
(0.174097 -0.0581725 -8.49486e-16)
(11.2488 0.115768 9.34382e-17)
(6.08601 1.29982 0)
(0.00731872 2.64713 1.42613e-16)
(0.968644 5.05227 0)
(1.16182 0.704075 1.43753e-16)
(0.184166 0.649738 -2.28283e-17)
(1.08358 9.40205 6.17453e-17)
(9.93901 0.965398 -1.31541e-17)
(9.84466 0.615645 9.99295e-17)
(-0.947482 0.106365 0)
(0.137676 0.604208 -7.5538e-17)
(-0.74311 0.000323409 0)
(8.68047 0.351637 0)
(1.76311 0.441964 -1.17928e-16)
(0.094857 0.741198 2.24184e-17)
(-2.709 4.80155 -1.25205e-16)
(3.04843 0.86413 -1.1932e-16)
(-0.157697 -2.75844 1.3168e-16)
(10.2723 0.105682 -1.35123e-20)
(6.07774 3.77284 -7.54118e-17)
(-1.10789 -0.648025 -1.94096e-18)
(-0.236847 7.01398 5.19954e-17)
(-0.0220603 6.58044 -4.91158e-17)
(0.414168 1.23908 -1.31e-16)
(1.2323 6.85573 -2.34744e-16)
(2.66869 0.474505 -1.46966e-17)
(-0.532643 1.24478 -3.17121e-16)
(-0.0133086 2.09422 -1.69257e-16)
(0.910998 -0.0389466 6.84816e-17)
(1.21341 -0.494483 1.91055e-16)
(0.434918 0.0338851 -3.14581e-16)
(0.23973 1.81702 -4.54265e-16)
(-0.123592 2.15846 -3.00773e-16)
(7.0666 4.42894 3.60657e-18)
(0.63497 1.77372 4.94127e-16)
(10.0633 0.0381225 -6.1582e-17)
(1.34294 -0.459165 0)
(0.919459 2.87137 -1.88567e-19)
(5.28322 -0.0152459 -7.48325e-17)
(0.0345078 -0.838526 0)
(10.027 0.372438 3.90422e-17)
(-0.568183 0.131493 3.01372e-16)
(0.396989 0.162874 -2.692e-16)
(8.55368 1.39202 0)
(-0.0606844 4.16863 3.06046e-20)
(-0.385617 8.5717 0)
(10.0194 0.0720301 0)
(1.41354 -0.0748338 -4.73734e-17)
(9.14477 1.10886 -6.62049e-17)
(9.18176 4.09892 -1.72425e-16)
(1.45339 5.80916 2.48779e-17)
(7.51373 2.01454 -1.02202e-16)
(-0.0522713 3.63891 -7.19939e-17)
(0.128674 4.65537 -1.07158e-20)
(-0.212944 5.94801 -6.04904e-17)
(0.00237831 1.42371 0)
(-0.263599 1.52423 1.16697e-16)
(-0.0208024 -0.878846 0)
(-0.539072 -1.44526 0)
(-0.0826619 -1.10133 0)
(0.328477 -1.61569 -1.59633e-16)
(-0.170063 1.41357 0)
(0.0855444 1.23045 1.15474e-16)
(2.85931 2.66939 -2.70433e-16)
(1.41209 5.24381 0)
(-2.63866 5.34425 1.98962e-16)
(-0.40339 6.49877 -2.34788e-17)
(0.250408 4.47108 1.07757e-16)
(-0.200747 7.80727 -3.57128e-17)
(1.56444 1.95573 2.5656e-16)
(9.353 0.914831 -2.6661e-17)
(0.220985 1.84311 1.879e-17)
(-0.0151983 2.63355 -6.09175e-17)
(3.43752 0.175582 0)
(1.16905 -0.403594 2.0385e-19)
(5.57777 1.01125 0)
(0.488264 0.0724385 2.63946e-20)
(4.35129 0.128851 -4.16882e-16)
(10.0385 0.0452158 3.38655e-17)
(-1.56323 4.12706 1.64837e-16)
(-2.22662 2.42236 -2.81262e-16)
(0.0329018 2.12459 0)
(-0.0996904 0.918387 8.57019e-16)
(5.32007 1.50125 -4.35325e-17)
(11.1975 0.508812 0)
(9.78397 0.222788 2.40514e-17)
(1.13646 -2.52241 1.12279e-17)
(9.22133 0.264773 0)
(4.67994 4.06169 8.90714e-18)
(3.67048 0.500671 -3.23456e-17)
(2.01925 0.781294 -3.44743e-17)
(1.40778 0.968315 -1.13639e-17)
(1.79244 0.379789 -2.55526e-16)
(0.436992 0.00856731 -2.36367e-16)