/*--------------------------------*- C++ -*----------------------------------*\
| =========                 |                                                 |
| \\      /  F ield         | OpenFOAM: The Open Source CFD Toolbox           |
|  \\    /   O peration     | Version:  v1912                                 |
|   \\  /    A nd           | Website:  www.openfoam.com                      |
|    \\/     M anipulation  |                                                 |
\*---------------------------------------------------------------------------*/
FoamFile
{
    version     2.0;
    format      ascii;
    class       surfaceScalarField;
    location    "0.28";
    object      phi;
}
// * * * * * * * * * * * * * * * * * * * * * * * * * * * * * * * * * * * * * //

dimensions      [0 3 -1 0 0 0 0];
oriented        oriented;


internalField   nonuniform List<scalar> 
2708
(
-9.28708e-05
1.71881e-05
4.39527e-05
3.17299e-05
-8.62659e-05
0.000107814
1.41036e-05
-3.56516e-05
0.00126234
0.000247666
-0.000815951
-0.000694058
-0.000316229
0.000168642
5.06788e-05
9.69088e-05
-3.78489e-05
2.99706e-05
0.000200651
-0.000192773
0.000440875
0.000352759
-0.000290765
-0.000502868
-0.000147849
0.000259549
0.000595392
-0.000827399
0.00100758
-0.000775573
0.000239005
0.000206036
-0.000260891
-0.000184149
-0.000641308
-0.000107509
0.000129242
0.000619575
-0.000270834
3.82229e-05
-3.36464e-05
0.000266257
-5.77711e-05
6.13508e-05
-3.57965e-06
-0.000166487
0.000218366
-5.60428e-05
4.16373e-06
0.000866812
-0.000877776
3.3832e-05
-2.28679e-05
6.1953e-05
-2.23723e-05
1.17819e-05
-5.13626e-05
4.88735e-05
-7.34833e-05
2.46098e-05
-7.9783e-05
8.9101e-05
5.26349e-05
0.000123366
-0.00027892
0.000168811
-1.32571e-05
3.36552e-05
4.61414e-06
-3.82693e-05
-0.000263369
2.67517e-06
-1.01395e-05
-9.79854e-06
5.47397e-05
-9.73827e-06
-3.52029e-05
0.000562096
1.51141e-05
2.75686e-05
5.46472e-05
0.000254654
-0.000336869
0.000841709
5.01592e-05
-2.50558e-05
0.00038699
7.01952e-05
-0.000410022
-4.7163e-05
-0.000242155
1.22789e-05
-3.34933e-05
-0.000409411
0.000335658
-0.000172506
0.000246259
2.79782e-05
-1.56032e-05
-0.000890151
-0.00103677
8.64848e-05
0.000957116
-6.82998e-06
0.000297589
-0.000338484
-6.3458e-05
0.000104353
-0.000455927
0.00102617
-0.000590783
2.05378e-05
0.000941809
0.000457288
-0.000623512
-0.000775586
0.00021576
0.000206483
-0.000422243
2.43512e-05
5.02598e-05
-7.4611e-05
-0.00031595
0.000261276
5.4674e-05
-0.000814554
0.00088461
0.000522151
-0.000592207
-0.000105334
2.80114e-05
0.000241373
-0.00016405
-0.00118221
0.00113894
-5.31106e-05
9.6383e-05
0.000114913
-0.000167761
-0.000349696
-0.00139616
-3.58035e-05
0.000249755
-0.00040366
-0.000284209
5.11641e-05
0.000636706
-4.30499e-05
-3.38523e-06
4.64352e-05
1.50013e-05
1.69081e-05
0.000163957
-0.000195866
1.18632e-05
-2.90289e-05
6.15133e-05
-4.43476e-05
0.000105776
-2.94202e-06
-0.000231264
0.00012843
-5.78492e-07
-0.000226325
1.35505e-05
0.000213353
4.69618e-05
0.000572378
-0.000310976
-0.000308363
-2.67006e-05
3.67266e-05
-0.000973597
0.000963571
-0.000659711
0.00117449
-0.000873291
0.000358514
3.00901e-05
-0.00107875
0.00110526
-5.66007e-05
-0.000329028
-5.02609e-05
0.000332217
4.70729e-05
6.60446e-05
-8.39237e-05
-0.000623429
-0.000206004
0.000137199
0.000307809
0.000254942
-0.000216608
8.8572e-05
-0.000126906
-0.000254073
0.000162341
-6.78324e-05
0.000159565
-0.000981415
9.77724e-05
0.000967988
-8.43456e-05
0.000318332
-0.000124193
-0.000328403
0.000134264
-0.000303008
0.000225048
0.000425674
-0.000347713
-0.00057322
0.000550799
1.76116e-05
4.6077e-05
-7.34872e-05
0.000228988
-0.00018809
6.06404e-06
-0.000136873
-0.000180011
0.000179862
0.000137021
0.000355061
-0.000648427
-0.000521189
-0.000426519
0.000472189
0.00101093
-0.0010566
0.00085063
-0.000170558
-4.92617e-05
-0.00063081
4.94448e-06
3.95906e-07
0.000234414
-0.000239755
0.000211276
-3.07764e-05
-0.000185442
4.76755e-05
-1.37977e-05
0.000151564
-0.000623812
0.00102811
-0.000734417
0.000330116
3.93525e-05
-0.000304086
-0.000223322
7.89245e-05
0.000225712
-8.13152e-05
0.000152484
0.000157415
-0.000119548
-0.000190351
7.54784e-05
0.000140281
-7.92637e-05
-0.00018866
0.000243213
2.47101e-05
4.99384e-05
0.000851443
-0.000653715
0.000965978
6.53138e-05
-0.00101394
-1.73476e-05
0.000135786
-0.000265507
-7.33883e-05
0.000203109
-0.000952777
0.000925059
-0.000398801
5.14789e-06
-0.000324957
1.82722e-06
0.000317982
0.000182878
-0.000230424
0.000202154
-0.000154609
8.89899e-06
-0.000103297
0.000144187
-4.97895e-05
-0.00026407
-5.80202e-05
0.000195767
0.000126323
-0.000122299
0.000145752
-7.36934e-05
5.02405e-05
-7.26836e-05
-1.9154e-05
0.000117532
-2.56945e-05
-0.000159274
2.87822e-05
0.000119498
1.09937e-05
0.000806894
6.89376e-05
-3.41229e-05
6.55248e-05
-0.000103337
0.000225373
-0.000187561
-0.000162378
-0.000125508
0.000105088
0.000182798
-0.000298815
0.000188835
-4.92935e-05
-3.23076e-05
3.59977e-06
-4.39758e-05
0.00112583
-1.8708e-05
3.18143e-05
2.51631e-05
-2.5223e-05
0.000229908
-0.000229848
9.71339e-05
-0.000100545
2.10232e-05
0.000205133
5.94868e-05
-0.000112136
-5.95942e-05
-0.00100212
0.00102989
3.18192e-05
9.6295e-05
-5.08714e-06
-7.34737e-05
-1.77341e-05
-0.000821765
-0.000293873
-0.000107218
-0.000238372
0.000160148
2.77857e-05
-0.00108405
0.00108407
-2.78108e-05
4.45318e-05
-3.17619e-05
-0.000162474
0.000149704
0.000238305
-5.36192e-05
4.16901e-05
-0.000226376
0.000194975
-2.2468e-05
7.3385e-05
-0.000245892
-0.000341581
0.000277324
5.46236e-06
5.87949e-05
0.00103874
-0.00146253
0.000185203
0.000238589
0.000533491
1.12818e-05
1.12109e-05
-0.000555983
9.07624e-05
9.48031e-05
-0.00102183
-6.63747e-05
-0.000155927
0.000225186
-2.88499e-06
1.22425e-05
0.000173997
-0.0002304
4.41608e-05
9.21262e-06
0.000200886
-0.000205154
0.00084427
-0.000580192
4.36064e-05
-0.000307685
0.000164014
-0.000118951
-0.000181937
0.00010661
-6.8091e-05
0.000156456
1.4909e-05
-2.46436e-05
0.000248039
0.000156214
0.000112517
-0.000145365
3.35912e-05
5.08451e-05
-5.45995e-05
-2.98367e-05
0.000758373
9.08137e-05
-4.22926e-05
0.000157712
0.000154547
-0.00113407
0.00113564
9.28867e-05
-9.4459e-05
-0.000388238
-0.000120774
0.000445674
-6.12974e-05
0.000805041
0.000170212
-0.000848834
-0.000126419
-0.000992236
-0.000637201
0.00105437
0.00057507
0.000111406
-0.000194919
-6.6685e-05
0.000150198
0.000110276
-4.26134e-05
0.00069071
0.000319287
6.54099e-06
-0.000168413
8.80134e-05
-5.36543e-05
7.30346e-05
-0.000107394
0.000822114
-0.00104042
0.000356193
-0.000137888
0.000185562
-0.000168923
-2.51571e-05
8.51771e-06
-0.000402126
2.20642e-05
-0.000103242
-0.000751219
0.000854461
5.30966e-05
0.000168711
-0.000177276
-4.70311e-05
1.88966e-05
-4.17313e-06
-5.28872e-05
2.98751e-05
-0.000275803
-0.000219322
3.56522e-05
-3.96515e-05
-1.07823e-05
4.82034e-05
-0.000245481
0.00020806
0.000194067
-0.000197109
2.26728e-05
-1.96315e-05
-0.000377026
-9.50652e-05
6.99658e-05
-3.01843e-05
0.000111202
2.38033e-05
-0.000104821
-1.37665e-05
-0.000100068
6.6803e-05
0.000898316
-2.35069e-05
-0.000765752
-0.000109056
-0.000104986
0.00112705
0.000152428
-0.00112904
9.46634e-05
0.000859537
-0.00102725
-0.000262638
0.000430348
-0.000231114
-0.000986716
0.00118811
2.97166e-05
0.000173408
-1.69433e-05
2.69282e-06
-4.33864e-06
-0.000217676
-0.000920108
0.000888502
-0.000269097
0.000300703
0.0012695
7.67158e-05
-0.000315709
-0.00103051
-4.81129e-05
0.000910682
-1.19398e-05
0.000157194
-0.000204315
0.000264219
-0.000217099
0.000141446
4.14323e-05
-5.41997e-05
-0.000125811
0.000149012
0.000375408
-0.000929426
-0.000377662
0.00035431
0.000186064
5.77471e-05
-0.000190714
0.000908687
0.000105961
-0.000170379
-0.000175217
0.000900378
-0.000885646
0.000160485
-0.000275633
-5.15005e-06
1.8629e-06
0.000250024
-0.000244656
0.000145099
-9.86408e-06
-0.000166997
8.35872e-05
9.51389e-05
-7.21156e-05
3.74241e-05
-0.000141488
-5.52529e-05
-5.68963e-06
7.3185e-05
0.000112133
-8.13735e-05
1.95502e-05
-0.000129034
9.75945e-05
9.38518e-05
-9.91087e-05
0.000173968
-0.000962468
0.000170979
0.000901765
0.000130163
9.98276e-06
-9.12719e-05
0.00037209
-0.000601037
-0.000576697
0.000805644
1.36795e-05
0.000238711
-0.000876202
-3.43189e-05
0.000917735
1.48991e-05
-0.000206646
7.74988e-06
0.000198896
5.83387e-05
-0.000111226
0.00107938
-0.00125537
-0.000155668
0.000331662
-6.26773e-05
-0.000271642
-4.16468e-06
-0.000826458
-0.000335321
0.000855289
0.00030649
-8.28033e-05
0.00104512
-0.000948923
-1.33969e-05
-8.82123e-06
-1.3203e-06
-1.36618e-05
2.38034e-05
0.000107581
-0.000984368
0.000954451
-7.76634e-05
-0.000188515
0.000177091
0.000175438
-0.000333345
0.000247469
0.000945413
-0.000929688
0.000921321
-0.00016685
0.000623058
-0.000607857
-1.63347e-05
0.000567465
-0.000521255
2.63382e-05
-0.000202968
-0.000332559
-0.000908549
0.000311683
0.000177264
4.47243e-06
-6.09253e-05
-0.000120811
-0.000211273
0.000221598
-3.62773e-05
2.59526e-05
-0.000125069
0.00101627
-0.000891824
-0.000158769
0.000316412
0.000124015
-0.00015752
-0.000282907
-0.000147126
0.000162111
0.00112066
6.74438e-06
2.46095e-05
0.00100739
0.000109246
0.000957238
-0.00101958
-4.6909e-05
0.000120186
5.96765e-05
0.000115847
-0.000151499
-0.000212347
0.00028288
-7.05334e-05
-0.000190037
-0.000917935
0.000187864
-0.0003684
-8.83082e-05
5.30474e-05
-0.000196998
-0.000249259
-2.21738e-05
1.20079e-05
4.1651e-05
0.0010221
-8.73711e-05
-0.00097638
0.00012944
-0.000240078
0.000216117
-0.000105478
-7.6592e-05
0.00105273
-0.000650051
-0.00026528
0.00067189
-1.49302e-05
-0.000888074
0.000126573
0.000878924
-0.000200456
0.000976443
0.00014941
-0.000159641
-0.000966211
-0.000165405
1.02153e-05
3.09963e-05
0.000401338
0.000295929
-0.000472219
0.000192578
0.000900533
-0.000184424
7.49438e-05
0.000118639
-1.63189e-05
-5.7496e-05
9.91044e-05
2.24076e-05
-6.4016e-05
0.000369048
-9.20159e-05
0.000583412
-0.000860444
0.000353254
-0.000108
0.000514823
0.00122687
-0.000436693
-0.000379258
0.000810272
-0.000883646
-1.86423e-05
-0.00102136
-0.000827766
0.000593758
0.000852116
-0.00091558
0.000160965
-0.00101427
4.05319e-05
0.00100757
0.000932468
-0.000126799
2.05288e-05
0.00010987
-0.000193216
0.00018832
0.00019373
0.00101148
0.000201831
-0.000525752
0.000953183
-0.00125483
-0.000412351
-0.000922633
0.000809232
-0.000616176
0.000875715
-8.48782e-05
-0.00099022
8.8383e-05
1.85723e-05
-0.000183625
7.21818e-05
-0.000936718
0.000663549
-5.93905e-05
0.000217455
-0.000256973
4.48068e-05
-5.28888e-06
-0.00110684
-3.70626e-05
0.00106731
-0.000175953
0.000158396
-0.000156802
-5.0656e-05
0.000110355
9.71032e-05
-0.000368226
0.000512015
4.41255e-05
-0.000224641
0.000329527
-3.78675e-05
-0.000196002
0.000277995
0.000756483
-4.83549e-05
-0.000177918
-0.00101351
0.000141859
-0.000972356
-7.47662e-05
0.00117291
-0.000125787
0.000160082
-0.000110848
-0.000694935
0.000660841
0.000796845
0.000457682
-0.00114528
0.000148059
-0.000224109
-0.000960892
0.000984456
-2.35635e-05
-2.73941e-05
2.29756e-05
4.41856e-06
0.000209395
-0.000155545
0.000163605
-0.00104462
-2.36295e-05
0.00106825
-0.00100191
0.00101304
-1.11233e-05
-0.000930802
-0.000120768
-9.16567e-05
0.000210486
-0.000149014
0.000240744
-0.00087185
-0.00102659
4.02987e-05
-0.000980176
0.00107306
0.000905095
-0.00023843
-0.000922819
-9.35235e-05
0.000934109
8.22337e-05
-2.69693e-05
7.83426e-05
1.91869e-05
-7.05602e-05
0.000997588
1.34679e-05
0.000438826
-0.000978943
4.49716e-05
-3.83847e-05
7.91627e-05
-0.00101757
-3.45427e-05
-0.00089626
0.00101926
-0.00067393
4.38067e-06
-0.000154043
-1.28121e-05
-0.000132061
-6.03649e-05
0.000134655
2.4755e-05
-2.6374e-05
0.000204022
-0.000202403
0.000163863
0.000411053
-0.000220867
-0.000428262
-5.38057e-05
9.57146e-05
-0.000298882
3.65476e-05
-5.84082e-05
-3.56354e-05
2.20656e-06
-0.000175102
-0.000960626
-0.000401983
-0.000851591
0.000536032
0.000717542
-0.00101934
-0.00104971
-9.32014e-05
5.59575e-05
0.00108696
0.000551351
3.1583e-05
0.00115511
-1.31791e-05
-0.00117351
-0.000679204
-0.000549237
0.000218017
0.000221411
-0.000345408
-9.402e-05
0.000979448
-0.00103876
-0.000367068
0.000185596
0.00122023
9.68068e-05
-0.000117907
-0.000103969
0.000167568
-0.00106773
0.00100774
0.000115987
-7.87647e-05
0.000172172
-0.000220739
0.000190382
-0.00134531
-1.80179e-05
0.000281941
-0.000382399
0.000241904
0.000306403
0.00102136
-6.4399e-05
-0.00126337
-0.000178389
0.000171605
-0.000196608
0.00014099
0.00037811
-0.000260462
-1.7456e-05
3.51322e-05
-4.43853e-05
-3.30757e-05
0.000863783
-3.74703e-05
-1.28472e-05
5.24607e-05
-2.14318e-06
-9.97507e-05
4.20084e-05
-2.60331e-05
3.50782e-05
0.000102372
-1.31031e-05
8.23365e-05
0.000198419
5.56721e-05
-9.02278e-05
-0.0002821
0.000275141
9.12828e-05
-8.43245e-05
0.000299495
-0.000981385
-0.00020658
-7.139e-05
-0.000237931
-3.74425e-05
0.000139995
-0.000165189
-6.11376e-05
6.85998e-05
-4.46794e-05
8.72819e-05
-0.000252603
0.000227858
-2.90605e-05
6.13254e-05
-6.27485e-05
-1.03983e-05
1.18214e-05
-0.000232884
-5.67401e-05
0.000404877
0.000922138
-0.000401956
2.99245e-05
0.000224881
-0.000285016
3.02099e-05
0.00107831
-1.60431e-06
-8.38332e-05
2.96083e-05
5.58292e-05
0.000187425
-0.000315902
0.000222007
-9.35296e-05
0.000250464
-0.000292359
0.00013761
0.00028521
-0.000179952
-0.000100785
9.12059e-06
-0.000153789
9.40122e-05
0.000277822
-5.68592e-05
-0.000349997
7.67147e-05
-5.86699e-05
-2.61548e-05
0.000253716
0.000122574
4.79205e-05
-0.00010247
-6.80241e-05
0.00117658
-0.000890688
-0.000261138
-6.23293e-05
0.00013667
0.000126137
-0.000242101
-0.00051897
0.000634934
-9.43599e-05
6.31032e-05
3.12567e-05
0.000105487
-0.000916004
-7.31291e-05
9.12069e-05
-5.34579e-05
-3.7749e-05
-3.01454e-05
5.27143e-05
-2.25689e-05
-1.9179e-05
1.35016e-05
5.67743e-06
0.000144443
-0.000122285
-2.21574e-05
-0.000104632
-8.14608e-07
0.000105447
8.1272e-05
-3.24865e-05
-4.87854e-05
-7.66431e-05
0.000102345
-2.57019e-05
-0.000187542
0.000172071
1.5471e-05
7.07893e-05
7.36535e-05
-9.93228e-05
-5.30944e-06
-0.000137289
4.29293e-05
0.000144419
-0.00012471
-1.97087e-05
0.000106365
-7.79437e-05
-2.84214e-05
-5.35489e-05
-0.000178353
-9.18892e-06
-5.148e-05
-6.9481e-05
8.12876e-05
-1.18066e-05
3.60407e-06
-3.37495e-05
0.000111441
-2.02345e-05
3.15792e-05
-8.60366e-06
0.000101887
-4.09254e-05
-6.09619e-05
5.41458e-05
-4.57845e-05
-2.43269e-05
1.59656e-05
-3.62214e-05
4.35161e-05
-0.000145009
0.000128514
-6.9771e-05
0.000139726
-0.000191718
-4.48613e-05
9.41112e-06
-4.29106e-05
0.000251516
-8.18937e-05
1.98874e-05
0.000161111
9.03046e-07
9.92969e-06
-9.46659e-05
1.66962e-05
-0.00032855
-0.000637069
-0.000339015
0.000387997
0.00106213
0.000194913
-5.04944e-05
0.000118366
-5.22647e-06
-0.000113139
-1.0844e-05
-1.55749e-05
-1.80508e-05
-7.64659e-05
-1.99007e-05
3.1423e-05
-7.23484e-05
3.47818e-05
-2.2365e-05
-1.67667e-05
-1.09578e-06
-5.23621e-05
-0.00030619
-0.000722244
0.000307798
0.000720636
0.00103925
-0.000267153
-2.35766e-05
4.50234e-06
0.000162968
-0.00015311
-1.43603e-05
5.60686e-05
-4.6942e-05
0.000914598
-0.000924121
9.30936e-05
-8.35703e-05
-3.01121e-05
-0.000150441
9.73999e-05
8.3153e-05
0.000162895
-5.65295e-05
-9.16885e-05
4.41473e-05
7.71495e-05
1.78014e-05
0.000240333
7.26076e-05
-6.57897e-05
-5.24528e-05
4.56349e-05
0.00108069
-0.000299868
2.85154e-05
-0.000241119
-6.94956e-05
0.000428968
-0.00109756
0.000974996
2.62933e-05
-4.30521e-06
5.27811e-06
-4.05965e-05
0.000156959
-0.000369797
0.000727661
-5.94861e-05
-0.000143002
0.000149706
0.000805132
0.000523109
-0.000443631
8.20468e-05
-8.40413e-05
0.000660418
-0.000372446
-0.000287972
-6.38062e-05
8.29801e-05
1.51636e-05
-3.43374e-05
-9.8195e-05
-6.86815e-05
0.000139907
0.000217466
-4.0417e-05
-0.000250245
7.3196e-05
-4.28244e-05
8.22346e-05
-5.96966e-05
6.64289e-05
-0.000119687
-0.000192645
0.000245903
0.000409128
-0.00021585
0.000173076
-0.000366355
0.000280498
-0.000232733
0.000212065
-0.00025983
-0.000179207
9.35458e-05
0.00015209
-5.8988e-05
3.24441e-05
-3.72624e-05
0.000139899
0.000220747
-8.01472e-05
-5.76671e-05
-0.000122788
0.000132926
4.75293e-05
3.37278e-05
0.000120619
-1.88595e-05
0.000132583
-0.000234342
-0.000337463
5.10267e-05
-0.000158205
-0.000125554
-2.29385e-05
-2.24517e-05
-5.24517e-05
-8.21914e-06
8.31226e-05
-0.000334619
0.000117972
7.61859e-05
-0.000124171
8.02738e-05
-3.22887e-05
-0.000198197
0.000201897
-0.000123388
4.41613e-05
-2.47105e-05
-7.71179e-05
-5.55112e-05
8.67217e-05
0.000180854
-0.000229964
0.000109692
-4.10923e-05
-2.03572e-05
4.20667e-05
-2.7997e-05
-1.70706e-05
4.2982e-05
-2.59639e-05
-1.70181e-05
-0.000133359
9.08994e-05
0.000174927
-0.000132467
8.28266e-05
-0.000105151
-0.000111035
-3.96594e-05
0.000133668
0.000117544
5.66533e-05
-0.000174197
7.23481e-05
-0.000144508
1.97077e-05
0.000105218
-4.10891e-05
4.31835e-05
0.000253346
0.000112599
0.000136099
8.95456e-05
-0.000142818
2.26942e-05
0.000289051
-0.000527595
6.36625e-05
-8.27164e-05
-0.000173591
0.000221301
-0.000373271
0.000174664
-0.00033673
0.000249184
0.000130729
0.000101136
1.11573e-05
0.000141052
0.000173622
-0.000362161
0.000118824
0.000380981
-0.000395323
0.000407745
-0.000393403
8.48443e-05
-6.36081e-05
-2.12362e-05
-0.000261941
-0.000135783
0.000101341
-0.000427336
0.000353564
-0.000501451
0.000167805
-9.93596e-05
0.000121859
-0.000523951
5.0185e-05
-0.000643585
-9.52377e-05
0.000432633
-0.00045778
0.000219092
0.000340029
-0.000297157
0.000415263
0.00043179
-0.000270243
-0.000287035
0.000273579
1.35915e-05
-1.34997e-07
-4.36673e-05
1.73446e-05
0.000863306
-0.000202888
-3.23809e-05
-0.000266097
-0.000159303
-0.000381674
4.40997e-05
-0.000797109
0.000506655
0.000445925
-0.000719926
0.000414616
-0.00031424
0.000121222
-4.90985e-05
-0.000167291
0.00021639
-0.000164643
-0.000300041
-6.70716e-07
1.36759e-05
-0.000137272
0.00100058
-0.00110246
-0.00113602
0.00029255
0.000245457
-3.53698e-06
-0.000255492
-0.000204225
-0.000174129
-0.000160875
0.000171082
0.000163922
0.000124222
-0.000156882
0.000147043
-0.000114383
6.42253e-05
5.33183e-05
3.82613e-05
0.000127357
-4.25126e-05
3.87771e-06
-0.000264376
1.02535e-05
-0.000624187
0.000591747
0.000539095
-3.99342e-05
2.93417e-06
-0.000309217
6.24211e-06
-0.000368961
-3.71221e-05
0.000406083
2.1255e-05
-7.0526e-05
8.12856e-05
-3.20146e-05
9.54803e-05
-8.96927e-05
-0.000929909
-0.000115914
0.000134429
2.7397e-06
-0.000309561
-0.000212028
0.000361598
6.87398e-05
-0.000430338
-0.000109015
-0.000138701
0.000124928
-0.000179371
0.000138939
0.000161051
5.81041e-05
-0.000256335
9.52628e-05
-0.000133199
9.12547e-05
-0.000396259
1.84625e-05
0.000246683
-0.000247736
-9.56266e-05
0.000137957
-8.48429e-05
0.000148164
-3.84718e-05
-2.52486e-05
0.000173412
9.38648e-05
0.000151405
-5.30635e-05
4.31933e-05
-0.000120215
-3.90199e-05
0.000236355
-7.36352e-06
-6.66202e-05
0.000150932
-0.000270192
6.64317e-05
-0.000142978
-2.36054e-05
0.000101762
8.42255e-05
-8.83198e-05
3.82262e-07
-9.38256e-06
4.69509e-06
0.000262797
5.381e-06
-0.000265244
-0.000177412
-0.000103501
3.7736e-05
-4.19224e-05
-1.65527e-05
2.07392e-05
0.000146632
-0.000107253
-5.95665e-05
0.000129826
-4.10034e-05
9.42919e-05
-0.00111837
-5.60517e-06
-0.000925993
-0.00033177
3.05968e-05
0.000157887
-0.000203512
0.000147766
-9.35791e-05
-0.000175914
0.000178696
-0.000182122
0.000179339
-5.84893e-05
0.000151915
0.000135044
9.19538e-05
-0.00020998
0.00028624
0.000364948
-0.000441209
-0.000285058
0.000127848
0.000296149
1.22126e-06
0.000499137
0.000122868
0.000176956
-0.000187575
-0.000150256
-9.18409e-05
-0.000960106
-2.4601e-05
0.000991451
0.00015577
5.44397e-05
-0.000290479
-2.83366e-05
0.000163162
-0.000170708
5.06619e-05
0.000120046
0.000979334
-0.00103244
-0.000123948
-0.000373318
0.000198931
7.37357e-05
-4.69126e-05
0.000174842
-0.000203063
-0.000185838
0.00021406
1.51146e-05
-9.46169e-05
-0.000318126
9.98898e-05
0.000118088
-0.000128432
0.000107092
0.000213661
0.000247129
-0.000205893
0.000133605
0.00030945
-0.000152878
2.70255e-05
-2.03805e-05
6.11427e-06
-1.27592e-05
-0.000125383
5.6072e-05
0.000244238
-0.000857639
5.26474e-05
0.00012286
4.16755e-05
-0.000121019
-0.000356403
0.000129449
-5.46987e-05
-4.48844e-05
9.95831e-05
-0.000155924
6.26116e-06
0.000119551
0.000197054
-0.000284174
9.1058e-05
-7.00258e-05
-0.000190674
2.16635e-06
-0.000190011
0.00010084
0.000291069
-3.49246e-05
0.000265746
-2.85647e-05
0.000230128
-0.000985379
-0.000315443
1.13736e-05
-0.000740632
1.9115e-05
0.000116506
9.22622e-05
6.45714e-05
6.392e-05
-0.000122864
-5.62708e-06
-9.36084e-05
0.000198281
-5.5863e-05
-3.2972e-05
0.00108993
4.23287e-06
2.5061e-05
-0.00105533
-3.08559e-05
-0.000256505
0.000427239
0.00026489
0.000333652
-0.000172869
0.000250799
0.00124831
0.00109441
0.000146924
0.00017969
0.00110032
0.00027794
7.64263e-05
-5.86867e-05
5.83669e-05
6.80973e-06
-5.58949e-05
-0.000919625
0.000106959
-2.87499e-05
7.01822e-05
-7.75054e-05
1.33526e-06
-2.71095e-05
-7.19782e-06
-0.000406437
6.46182e-05
0.000166108
-0.000106034
-0.000148507
0.0001117
0.000248595
0.000123182
-0.000327411
-8.62507e-05
0.000145981
-0.00017023
-4.57765e-05
0.000784117
-0.00014544
-0.000605035
-3.36418e-05
-0.000709804
0.000661457
0.000278475
-0.000150324
0.000106788
-8.89307e-05
-4.65625e-05
2.6646e-05
-9.05898e-05
7.90083e-05
-0.000213485
0.000287798
0.000143902
-0.000984364
-7.52294e-05
0.000441375
-0.000403268
4.41016e-06
6.37228e-05
-9.33816e-05
0.000159311
0.000144313
0.000150364
0.000169329
-0.000385499
-0.000126168
0.000412918
9.87489e-05
0.000204085
-0.000199211
-0.000165175
0.00016789
0.000166096
0.000388256
0.000335452
-0.000536283
-6.56629e-06
6.90767e-05
0.000861461
-0.000187622
0.0001265
-0.000324377
8.82223e-05
3.78311e-05
-0.00018951
-0.000142485
0.000208607
-0.00100611
0.00103888
-0.000282021
2.74219e-05
0.00012482
0.000124371
-1.77107e-05
-0.000271835
-0.00025356
4.6914e-05
-0.000965448
-0.000199435
-1.53614e-05
0.000174182
-0.000409423
0.000791806
5.07155e-05
0.001024
-0.000989752
-0.00013493
0.000151934
0.000107368
-0.000127545
0.000219793
-0.000134561
-6.30653e-05
0.000110799
8.68272e-05
-0.000308591
-0.000117115
-9.25743e-05
5.93647e-05
-3.09045e-05
-0.00016659
-0.000218595
0.000279844
0.000176692
0.000120589
-0.000568834
-0.000205754
5.31124e-05
-0.000134547
-4.09407e-05
9.76245e-05
-0.000135059
-8.17792e-09
0.000174862
-0.000142274
0.000976948
-0.00122698
0.000254267
0.000188852
-0.000118829
0.000721368
5.64068e-05
0.000945345
0.00027787
-0.000100077
-0.00112314
-7.47535e-05
-0.000162199
0.000121853
0.000155704
7.56227e-05
-9.26151e-05
1.03619e-05
6.63055e-06
0.000154753
-0.000153493
0.000162298
-0.000163558
0.000149987
-0.000157612
0.00133295
9.86177e-05
3.43533e-05
3.55343e-05
0.00132638
-0.000206969
-0.000228343
-2.37825e-05
7.07362e-05
9.48559e-05
2.2764e-05
-0.0010306
8.05183e-05
0.000166331
6.7081e-06
0.000106021
9.12435e-06
-0.000971549
-0.00116157
0.000727107
0.000356666
-0.000176452
0.00030674
0.000256737
-0.00039041
-0.000173067
-4.00648e-06
-3.60639e-05
-0.000134644
3.49913e-05
-0.000135854
0.000151278
-6.88167e-06
0.00022598
9.60067e-05
-0.000198642
-5.41253e-06
0.000170081
8.1234e-05
-0.000260383
-0.000116466
0.000210259
-4.92645e-05
-2.76241e-05
-7.76083e-05
1.58471e-05
0.000146565
0.000147309
7.71022e-05
8.65694e-05
-0.000203979
-0.000393066
8.98917e-05
-8.60413e-06
-5.57945e-05
4.18862e-05
0.000862649
0.000119539
-0.000143133
-0.000814716
0.000249126
7.06359e-06
-8.21423e-06
0.000466384
0.000399538
0.00013412
0.000110129
0.00108432
-0.00054066
-2.81953e-05
-0.00028392
0.00020609
1.43721e-05
7.85298e-05
-3.52545e-05
5.73515e-05
0.000420185
-0.000349344
-0.00022398
0.000116251
-0.000726849
0.000677265
4.9584e-05
4.04367e-05
-1.05415e-05
-6.42327e-05
-0.000174116
0.000310256
0.000180273
0.000892428
0.000130707
-0.000789044
6.21953e-05
5.1931e-05
0.00107133
-9.05206e-05
-0.000948147
0.00101407
-0.000170193
0.000315903
1.97127e-05
-0.000165422
0.000168836
0.00013589
-0.000182152
5.81298e-05
0.000619135
0.000513852
4.09007e-05
-0.000597364
4.26111e-05
0.000159792
-2.46098e-05
5.34759e-05
-0.000188658
-0.000236658
4.53334e-05
0.000191325
-0.000110408
0.000110493
3.74249e-06
-0.000159097
-0.000187289
-6.62716e-05
-0.000281613
4.4955e-05
-0.000324227
0.000150133
-0.000179897
-0.00014043
-0.000892181
-0.000179081
5.90162e-05
-7.06091e-05
-0.000143751
4.00426e-05
-6.96085e-05
0.000118403
-0.000135186
0.00019553
3.53285e-05
-6.90678e-06
0.000398046
0.000543763
-0.000259391
6.80982e-05
0.000238207
-0.000488597
0.000473368
1.52294e-05
8.28423e-05
-0.000871887
9.35903e-05
-0.00011392
0.000170492
0.000181631
0.000126593
0.000861848
-0.000366519
0.000400642
-0.000425698
0.000161663
0.000106727
0.000213677
-6.41785e-05
0.000878261
-0.000195012
0.000356
-0.000959797
0.00065778
0.000632132
-0.00106286
-5.04376e-05
0.000621746
0.000330866
-0.000276219
-0.000631904
0.000530684
0.000502274
-0.000575276
0.000307
0.000509925
-0.000264686
-0.000296354
-0.000167169
0.000259298
-4.37807e-05
7.30757e-07
-0.00061384
0.000717952
-0.000508251
1.96536e-05
-4.98317e-05
-2.78018e-05
0.000316434
0.000303115
-5.20959e-05
7.36554e-05
3.68074e-05
0.000325119
-0.000296124
6.9754e-05
-8.1082e-06
-1.48303e-05
0.000464169
9.1987e-06
9.17481e-05
5.06193e-05
-6.67447e-05
7.97004e-05
0.000100784
-9.24149e-05
-0.000131497
-0.000382413
0.000198008
-0.000173704
-3.25784e-06
0.000126126
-0.000448566
4.19264e-05
0.00012388
-1.02072e-05
-3.77975e-05
-0.000447829
0.00010183
-9.06937e-05
-2.26322e-05
4.90661e-05
0.000341317
4.11542e-05
-4.55774e-05
-0.000105897
-2.56867e-06
-0.000918658
0.000179033
-0.000127869
9.39373e-05
-0.000169538
0.0010135
-0.000960489
8.69733e-05
2.45132e-05
-0.000258728
8.91032e-05
9.03075e-05
0.000191341
-0.00108462
3.23873e-05
0.000230388
-3.92717e-05
0.000129946
9.82132e-05
-3.26292e-05
0.000927797
0.000123027
-0.000164971
8.97192e-05
-8.78261e-06
9.86743e-05
0.000155283
1.97418e-05
-0.000915915
0.000622965
6.88404e-05
-1.06778e-05
-0.000284718
1.97631e-05
-0.00017473
-0.00014397
5.21176e-05
0.00111536
7.02174e-05
-0.00107876
-0.000255529
0.000269651
7.70973e-06
9.16866e-05
7.47188e-05
-0.000105183
0.00016625
0.000505861
-0.000729661
0.0002238
0.00043915
6.67111e-05
0.00045083
-1.16801e-05
-0.00030962
0.000466579
-0.000679417
-0.000602701
-0.000504158
-9.85432e-05
2.30044e-05
-3.82218e-05
-3.74877e-05
5.7627e-05
-0.000937913
-0.000121149
0.000200543
0.000154367
0.000260602
8.93773e-06
-9.38431e-05
-5.23651e-05
-1.86265e-05
-3.92154e-05
2.40924e-05
-1.73266e-05
-0.000226716
0.000233198
-9.0782e-05
1.39319e-06
1.02447e-05
1.16427e-05
0.000426768
0.000808406
-0.00019998
0.000248975
-8.60805e-05
0.000359733
-8.34828e-05
-4.58625e-05
-0.000218763
-0.000996751
0.000135883
-2.33207e-05
0.000209314
-0.000476411
-2.77475e-05
0.000401764
-0.0001598
-0.000685595
0.00011891
1.75912e-05
0.000421056
-0.000114163
7.15259e-05
0.000126558
-6.22874e-05
3.33538e-05
9.8322e-05
-0.00114962
0.00103812
-3.58474e-05
3.42915e-05
7.79423e-06
0.000239906
-0.000281992
-0.00021638
0.000184238
1.34221e-05
7.95067e-08
-0.000181988
5.76521e-06
8.03365e-05
-0.00118667
2.03247e-06
0.000681293
-0.000383049
0.000153371
-7.44973e-05
0.000251344
0.000211664
-0.000130227
-9.32214e-05
-0.000105329
5.45805e-05
-0.000112849
9.26203e-05
-0.000119584
-9.06269e-05
0.00010125
-2.31546e-06
-0.000610719
-0.000335234
-0.000177235
-0.000207663
-0.000176909
-9.13663e-06
6.18744e-05
-1.3111e-05
-4.00535e-05
3.45379e-05
0.00100684
-0.000369454
0.000169754
0.000267337
-0.000134025
-0.000227388
-4.24692e-05
0.000209492
-0.00080167
0.00112108
-0.000132129
0.000248025
-1.49724e-05
0.000190701
-1.20807e-05
-2.06126e-05
-2.67526e-06
0.00103877
5.54872e-05
4.55997e-05
-8.38988e-05
-0.000201935
0.000297895
-0.000235421
-0.000335205
0.000126172
-0.000870246
4.17987e-05
0.000374699
9.94374e-06
-8.26515e-05
0.000145451
0.00108616
7.10788e-05
-0.000132885
0.000119798
-0.000432875
-7.49585e-05
-0.000381522
0.000208351
0.000408961
0.000308245
-0.000265606
5.49547e-05
0.000315594
3.9724e-05
0.000153123
-0.000179793
0.000190701
-1.1668e-05
-0.000212492
0.000195549
-0.000964913
0.00103288
-0.000248404
0.00018044
0.000127698
7.48978e-07
2.28869e-05
1.07683e-05
-0.000168516
-0.000247739
0.000373912
-0.000325127
0.000233556
6.25073e-05
-0.00017015
8.15698e-05
-4.43866e-05
-1.27736e-05
-4.97602e-05
-0.00115436
0.000123504
0.000414374
-8.64594e-05
-6.97462e-06
-0.000123444
-0.00106949
0.000968379
1.96894e-05
-1.98874e-05
0.000991649
0.000345456
0.000559341
-0.000482463
-7.68785e-05
-0.00017245
0.000236308
0.00016313
0.000164053
-0.000217894
0.000198154
-0.000903723
0.000914845
-0.000210776
5.27757e-05
-0.000170014
0.000108542
6.14725e-05
0.000224918
-0.000258564
5.49035e-05
4.89664e-05
5.95752e-05
-0.000268704
-0.000256425
0.000319376
-0.00106464
-0.000230087
5.02791e-05
-1.83255e-05
5.91288e-06
-0.000308031
0.000296484
0.000128421
-2.31878e-05
-0.000105233
-0.000136159
-0.000184327
-0.000261153
-1.98617e-06
-0.000144153
7.06701e-05
0.000112693
-0.000463823
0.000332428
0.000115495
-4.8374e-05
-0.000213501
-1.65852e-05
0.000263297
0.00017077
1.36885e-05
0.000229076
0.000105795
6.31179e-05
1.58331e-06
-0.000142805
6.47558e-05
1.61927e-05
-2.7631e-05
-4.40183e-05
4.45399e-05
0.000148601
-2.01793e-05
-0.000203805
-9.69613e-06
3.68819e-05
0.00013176
0.000260436
-0.000230465
8.46083e-06
-3.78295e-06
-0.000176657
-4.58513e-05
8.58241e-05
0.000446655
-2.98301e-06
-0.000250897
6.92377e-05
-0.000257
0.000175794
-2.71934e-05
-0.000110133
3.82845e-05
0.00105413
-9.2393e-06
-0.00101517
-4.67312e-06
-0.000125923
0.000571971
1.2623e-05
-3.9128e-05
-0.000232725
-4.30785e-05
6.64236e-05
3.79457e-07
0.00038307
8.81039e-06
3.67893e-05
-0.000197831
0.000234712
-7.89796e-05
0.000339416
0.00140459
-0.00113497
0.000299216
-0.000924713
-7.48613e-05
0.000102268
-1.51103e-05
0.000265115
-0.000175505
0.000556364
-0.000726921
-0.000125812
9.11796e-05
-1.2311e-07
0.000151616
0.000186035
0.00040141
-8.06567e-05
-0.000886932
-0.00017209
8.7348e-05
-0.000364868
0.000398527
-5.40289e-05
0.00058883
0.00092521
-0.000265731
0.000105918
-0.000153885
0.000148983
-6.10375e-05
4.7294e-05
0.000681084
5.27384e-06
5.26196e-05
0.000201282
-1.05804e-05
-3.59326e-05
0.000133673
-4.45715e-05
-2.53573e-05
0.000229564
6.93515e-05
6.94388e-05
-0.000111368
1.18955e-05
1.37787e-05
-0.000179753
0.000102182
5.58446e-05
-0.000310338
0.0001039
0.000126126
2.45178e-05
0.000911808
-0.000921097
8.00586e-05
3.24634e-05