/*--------------------------------*- C++ -*----------------------------------*\
| =========                 |                                                 |
| \\      /  F ield         | OpenFOAM: The Open Source CFD Toolbox           |
|  \\    /   O peration     | Version:  v1912                                 |
|   \\  /    A nd           | Website:  www.openfoam.com                      |
|    \\/     M anipulation  |                                                 |
\*---------------------------------------------------------------------------*/
FoamFile
{
    version     2.0;
    format      ascii;
    class       volScalarField;
    location    "0.81";
    object      nut;
}
// * * * * * * * * * * * * * * * * * * * * * * * * * * * * * * * * * * * * * //

dimensions      [0 2 -1 0 0 0 0];


internalField   nonuniform List<scalar> 
1431
(
0.000493442
0.00475189
0.00225883
0.00144976
0.000403013
0.00159604
0.00156279
0.000786065
0.00711312
0.00650845
0.00101584
0.000420211
0.000744548
0.00132345
0.00494291
0.000677805
0.0045325
0.00086583
0.000391751
0.000914094
0.000415782
0.00805175
0.00300961
0.00142096
0.00141168
0.000806472
0.00133142
0.00123337
0.00101046
0.00105597
0.00144863
0.000726076
0.00196051
0.000534207
0.000500919
0.00196019
0.000746812
0.000857721
0.00194818
0.00085646
0.00232885
0.00067924
0.000860969
0.000735238
0.00368381
0.000584518
0.00229112
0.000810125
0.000881195
0.000868381
0.00104502
0.00444965
0.00504221
0.00168269
0.00110858
0.000771264
0.00232678
0.00265012
0.000983337
0.00034762
0.00312243
0.000830421
0.00226291
0.000782886
0.000903273
0.000968118
0.00232489
0.001147
0.00465868
0.000750045
0.000499284
0.000463314
0.000906448
0.00161318
0.00102249
0.00118342
0.000619129
0.0029622
0.000784179
0.00199526
0.000805413
0.00100362
0.000617665
0.00267332
0.00188849
0.000589644
0.000622019
0.000648011
0.00152618
0.00089252
0.000979299
0.000943339
0.000727486
0.000861247
0.00100978
0.000644213
0.000945275
0.000728606
0.000597712
0.00109718
0.00606689
0.000805022
0.00109992
0.000467986
0.001029
0.000955251
0.000785342
0.00294873
0.00205051
0.000517832
0.00222881
0.00116036
0.000754921
0.000841404
0.00104036
0.000450263
0.000773219
0.00551
0.0016415
0.00283091
0.000858968
0.00400298
0.00378711
0.00136431
0.00083114
0.00192126
0.00177402
0.000718352
0.000689673
0.00080911
0.00112264
0.00279507
0.00100988
0.000992883
0.00076534
0.00110185
0.00102449
0.00138132
0.000858726
0.00275489
0.00649644
0.000773223
0.000769564
0.000937689
0.00109394
0.000775207
0.000733389
0.00305395
0.00108393
0.000799608
0.000818589
0.000954609
0.00209609
0.000183083
0.00047316
0.000679207
0.000802878
0.000827715
0.000755777
0.000708569
0.000891076
0.00115797
0.000917056
0.000803268
0.000516879
0.00266782
0.00063934
0.000862917
0.0010556
0.000983547
0.00106721
0.00110713
0.00135074
0.000768596
0.000771339
0.000264909
0.000414318
0.000874967
0.00103777
0.000712741
0.000839236
0.00474642
0.000753749
0.000860175
0.000773033
0.000809073
0.000752716
0.00112008
0.000727187
0.000799262
0.00146102
0.00415557
0.000656497
0.000790101
0.00764297
0.000845815
0.000784744
0.000840528
0.000506837
0.000373996
0.000322103
0.000659487
0.000750519
0.00227194
0.000785652
0.00162521
0.00063476
0.000834191
0.00111854
0.000878099
0.000789328
0.000782581
0.0016247
0.000831609
0.000897366
0.00106453
0.000756651
0.00110199
0.0018987
0.000833697
0.000830242
0.00206439
0.000776753
0.00211635
0.000825686
0.00087471
0.000965906
0.000857562
0.000828318
0.00157733
0.000559461
0.00113777
0.000746752
0.000796232
0.000789993
0.000783255
0.000736342
0.000763646
0.000826729
0.0022774
0.000841616
0.000723249
0.00787187
0.00335849
0.000645516
0.000598394
0.000830344
0.000790954
0.000915995
0.000970767
0.000723162
0.00768411
0.00683185
0.00115465
0.0025177
0.00109254
0.000386045
0.00207032
0.0011287
0.00110226
0.00108054
0.000580901
0.000539502
0.00656328
0.000789604
0.000808676
0.00103011
0.000746523
0.000992736
0.00726421
0.000744718
0.000935875
0.000726325
0.000726415
0.0010696
0.000764949
0.00114235
0.00118954
0.00141868
0.00617761
0.00616879
0.00244917
0.00264658
0.000993015
0.00102692
0.00119757
0.000593618
0.000754848
0.000904297
0.000832338
0.000776298
0.000868265
0.000748366
0.00108991
0.000730888
0.000744896
0.000667949
0.000768807
0.00250936
0.000704961
0.000843798
0.0010049
0.000574303
0.000738801
0.000749469
0.00317197
0.000828468
0.00110005
0.00111053
0.00147281
0.00083596
0.000783556
0.00295885
0.000958691
0.000507315
0.00363459
0.00599269
0.00227958
0.000794872
0.00424447
0.0030151
0.00288916
0.00504832
0.00274907
0.00661681
0.00562842
0.00080651
0.00634983
0.00174234
0.000830877
0.00339596
0.001221
0.00224189
0.0012659
0.000786016
0.00814955
0.00104888
0.00182944
0.00110311
0.00101743
0.000307149
0.000822424
0.00693037
0.000936074
0.00180672
0.000226977
0.000826246
0.000240017
0.00023261
0.000403107
0.000423241
0.000257123
0.000311757
0.000365527
0.00030888
0.000512385
0.000267186
0.000251667
0.000345974
0.000286192
0.000387014
0.000418943
0.000373341
0.000179544
0.00037227
0.000229061
0.000383917
0.000396711
0.002716
0.00256969
0.00419879
0.00198911
0.00400606
0.000759374
0.00108445
0.0015592
0.00446584
0.000841945
0.000848844
0.000377185
0.000271662
0.00026468
0.000435574
0.000283744
0.000486163
0.000379229
0.000400695
0.000275449
0.000357385
0.000175208
0.00025919
0.00274861
0.000882859
0.000848691
0.00516133
0.00123939
0.00150812
0.000834637
0.00644731
0.000771886
0.000296944
0.0044767
0.000832671
0.0011013
0.00376395
0.00079036
0.00194889
0.000722996
0.00143657
0.00330857
0.000830557
0.000542025
0.00122138
0.00213222
0.00100623
0.00103765
0.00543292
0.00707838
0.0019014
0.00146356
0.00260049
0.00243086
0.00814126
0.00178387
0.00158858
0.00559034
0.00270603
0.00570987
0.00612752
0.00558243
0.00533636
0.00122762
0.000551843
0.00384939
0.00252088
0.00586526
0.00334231
0.00395872
0.00163312
0.00230547
0.00171889
0.00130037
0.00319211
0.00271213
0.000337962
0.00450288
0.00550215
0.000973883
0.000343393
0.00539494
0.0045581
0.00734935
0.00526531
0.00842918
0.00288052
0.00848791
0.00741808
0.00612414
0.00809044
0.00236962
0.00298617
0.000554362
0.00198945
0.00184421
0.00209028
0.00168385
0.00131958
0.00293927
0.00150726
0.00187744
0.00258116
0.000903691
0.000738878
0.00108009
0.00124595
0.0016046
0.00259111
0.00254326
0.00385929
0.000362084
0.00190006
0.000925845
0.00108908
0.000799745
0.000824051
0.000962121
0.00170905
0.00727264
0.00434366
0.000275343
0.000259644
0.000469507
0.00192348
0.00305407
0.0003816
0.000953717
0.00124473
0.0016597
0.000837182
0.00165526
0.00163049
0.00149597
0.00595183
0.00611557
0.00508656
0.0006106
0.00169756
0.00769527
0.00173421
0.0012626
0.00116339
0.000730475
0.000743716
0.00231338
0.000792327
0.00203521
0.003378
0.00137257
0.00175353
0.0015219
0.00061168
0.00114797
0.000934444
0.00135086
0.00119472
0.00387592
0.00424967
0.00306649
0.000976495
0.00273113
0.000807402
0.000739956
0.00186537
0.000905743
0.00570001
0.00290158
0.00753856
0.00282657
0.00420291
0.0021629
0.00624108
0.00347156
0.00518762
0.00195666
0.000333182
0.00765486
0.00419951
0.00079573
0.00690205
0.00194312
0.00173323
0.000403236
0.00107796
0.00407912
0.00241393
0.00375467
0.00808405
0.00496729
0.00103901
0.000757792
0.00458031
0.00271932
0.00802994
0.00399435
0.00251705
0.0015134
0.00326533
0.000740564
0.00257266
0.00478081
0.000295001
0.00681316
0.00247656
0.00723534
0.0028631
0.000807844
0.00252587
0.00106429
0.00360407
0.00100577
0.00098288
0.00079772
0.00341898
0.00608319
0.00100576
0.0029267
0.00473993
0.000790166
0.00102512
0.000795105
0.00218892
0.00281144
0.000848179
0.000780256
0.000770113
0.00295614
0.000682032
0.00177003
0.000739365
0.00018595
0.00496208
0.00486669
0.00182902
0.0043889
0.00610738
0.00684376
0.00120028
0.00188052
0.00738163
0.00205792
0.00171044
0.00489706
0.00174801
0.00625825
0.00192215
0.000744387
0.0026582
0.00411377
0.0074757
0.00648043
0.00175887
0.00242694
0.000885712
0.00139487
0.00106724
0.000933345
0.00173804
0.000857938
0.00461302
0.000804344
0.00701953
0.000882808
0.000333502
0.000805193
0.00282552
0.00534339
0.00187084
0.000732919
0.00109
0.000886371
0.00450175
0.00721657
0.000806336
0.00572735
0.000831736
0.00743539
0.00451527
0.00620051
0.00509645
0.000901416
0.00122616
0.00342863
0.00076648
0.00113048
0.00678742
0.00502521
0.000820324
0.000841082
0.00201568
0.00572888
0.00643194
0.00104623
0.000921114
0.0010191
0.000827498
0.00020074
0.000848082
0.00802391
0.00609889
0.00279274
0.00112352
0.00082189
0.000910442
0.00628049
0.000796742
0.000756874
0.00131669
0.000983112
0.00137787
0.00104805
0.00488819
0.000459235
0.000834712
0.00120067
0.0010919
0.0018558
0.00148728
0.00725004
0.00396776
0.00214568
0.00190289
0.00679792
0.00619237
0.000766844
0.00388822
0.0017627
0.000216411
0.000268264
0.000824398
0.000722027
0.00616248
0.00169569
0.000763081
0.00153428
0.000640471
0.00136579
0.00112117
0.00633063
0.000850268
0.00237906
0.00104816
0.000736842
0.00161173
0.00831396
0.0071796
0.000635528
0.00535381
0.00822674
0.000714751
0.00081471
0.000644491
0.000838462
0.000803211
0.003501
0.00130829
0.000626355
0.00837906
0.0081361
0.000686348
0.000382655
0.00377096
0.000303158
0.000703819
0.000720692
0.00418986
0.000765629
0.000820883
0.000738047
0.00574463
0.000874911
0.00702012
0.00774874
0.000691766
0.000628703
0.000785543
0.000663519
0.00074868
0.000859155
0.00119208
0.000473426
0.00659193
0.000753997
0.000740829
0.000762344
0.00105027
0.000972731
0.000845058
0.000840885
0.000871845
0.00192759
0.0011304
0.00119537
0.00170256
0.00189002
0.000852931
0.00314156
0.000511943
0.00187455
0.000793671
0.000755259
0.00112901
0.00330104
0.000567006
0.00153408
0.000710957
0.000777363
0.000788838
0.00268553
0.00265509
0.000910446
0.000688927
0.000384826
0.00077005
0.00564097
0.00186678
0.00367264
0.000608317
0.001308
0.00120765
0.00211308
0.00116411
0.000771154
0.000879572
0.000940928
0.000847847
0.000834472
0.000729765
0.00159216
0.00406485
0.000806928
0.00311564
0.00724635
0.000710297
0.0016126
0.000270196
0.00280625
0.00208642
0.000912875
0.00298985
0.000588033
0.000828554
0.000808703
0.00511268
0.00115158
0.00169945
0.000833843
0.000673828
0.000597474
0.000538639
0.00064898
0.000837369
0.000732202
0.000774626
0.00447076
0.000898408
0.000776404
0.000837001
0.00767981
0.0014727
0.00115541
0.000357307
0.000514459
0.000725698
0.00122582
0.000762496
0.00105341
0.00182549
0.00112495
0.000330405
0.00198009
0.00077798
0.000721822
0.000731594
0.000663782
0.0022896
0.000709748
0.00139929
0.00344518
0.00414942
0.000818868
0.00529557
0.0038513
0.00230436
0.000408698
0.0017545
0.000732899
0.0034391
0.00471442
0.000837698
0.000865908
0.000805547
0.00101641
0.00151186
0.00111552
0.00162962
0.000553821
0.00080259
0.000760846
0.00106505
0.00120566
0.000778055
0.00198351
0.000738
0.00516417
0.00100059
0.000777991
0.00134613
0.000957691
0.00122534
0.000817735
0.000615551
0.0010078
0.00103848
0.00147223
0.000745747
0.000498693
0.000778781
0.00297793
0.00389808
0.000708151
0.000875711
0.00295884
0.00176138
0.000825007
0.000854746
0.00302315
0.000780342
0.00106004
0.00103875
0.000700946
0.00103442
0.00102521
0.00624093
0.00370158
0.000957378
0.00095324
0.000844372
0.000988739
0.00122505
0.000466552
0.000892297
0.000805062
0.0053489
0.00107973
0.00713543
0.00545168
0.00325026
0.000862902
0.000878488
0.000778434
0.00127706
0.000783311
0.000830953
0.000813678
0.000793881
0.00106104
0.000802522
0.000730014
0.00731897
0.00069114
0.00856611
0.000748447
0.0010781
0.000594989
0.000579005
0.000590211
0.000606006
0.000555219
0.00051118
0.00328297
0.000334232
0.000282872
0.000818758
0.000448477
0.00051869
0.000384911
0.00233836
0.000593824
0.000958407
0.00014811
0.00772497
0.000217789
0.000712464
0.00353204
0.00370826
0.00174639
0.000382684
0.000888864
0.00367003
0.000927389
0.00514149
0.00762938
0.00197315
0.000981215
0.00458224
0.000171572
0.000330588
0.000874426
0.000149425
0.00288137
0.00603588
0.00724613
0.00414086
0.000965368
0.00631856
0.00839056
0.00081565
0.000198256
0.000247596
0.00123728
0.00541066
0.000779769
0.00252044
0.0023854
0.00298919
0.000748788
0.000299553
0.00305611
0.000132023
0.00102733
0.000201726
0.000823034
0.00210576
0.00444005
0.000830254
0.00188732
0.00853385
0.000896588
0.00221043
0.000489838
0.000932924
0.000988654
0.000809654
0.00113298
0.001035
0.000776398
0.00162407
0.0044973
0.000845974
0.00113431
0.00695371
0.00857448
0.000812067
0.000727176
0.00098459
0.00280442
0.00231775
0.00469791
0.000960455
0.00725738
0.00591529
0.00345297
0.00239972
0.00261964
0.00107331
0.00195523
0.00314378
0.00127019
0.000655037
0.00256919
0.00640805
0.00854523
0.00320428
0.00273
0.000825555
0.00642654
0.00262335
0.000837436
0.00110688
0.00142117
0.00120584
0.000421192
0.00083128
0.00124218
0.00137
0.00217359
0.00304254
0.0071925
0.000751403
0.00584257
0.00200334
0.000624154
0.00718272
0.00451494
0.000911961
0.000748933
0.000829461
0.000785118
0.000370898
0.000749528
0.00150097
0.00478911
0.000846303
0.000771779
0.000775196
0.000892212
0.00113624
0.000776982
0.000840443
0.00711267
0.000873859
0.000797272
0.000799076
0.00205146
0.000820543
0.00113831
0.00021827
0.000777459
0.000791375
0.000802759
0.000202597
0.00061889
0.0011393
0.00131789
0.00074372
0.000225118
0.00100674
0.0010348
0.000794128
0.00746803
0.00294516
0.000743931
0.00103968
0.000767289
0.000534262
0.000113091
0.000950249
0.000833589
0.000719072
0.00239182
0.00193607
0.000158181
0.00113731
0.000867241
0.000418955
0.000864424
0.00599691
0.00102861
0.00152281
0.000809109
0.000739871
0.00607961
0.00114617
0.000698828
0.00118277
0.00090837
0.00479482
0.00111229
0.00107649
0.000799842
0.0011543
0.00100799
0.000790604
0.000150111
0.000893482
0.00012234
0.00131179
0.00280161
0.00172453
0.00115089
0.000788521
0.000458755
0.000497523
0.00893577
0.000452844
0.000976728
0.00282078
0.00103971
0.00106432
0.000447873
0.000880023
0.000933468
0.0086072
0.00746488
0.00102606
0.000799294
0.00080725
0.000309943
0.00168777
0.00082163
0.00300809
0.000562752
0.00120034
0.00692446
0.000965904
0.00104963
0.00538962
0.0011494
0.000513944
0.000834941
0.00133479
0.000127971
0.00101018
0.000688696
0.0076109
0.00155623
0.000770969
0.000427635
0.00108137
0.000141051
0.000840555
0.00160267
0.00714187
0.00078561
0.000838326
0.000839724
0.00078576
0.000432225
0.00047409
0.00482308
0.000619369
0.00322771
0.000746625
0.000683292
0.00561853
0.000827272
0.00309119
0.00840986
0.000592136
0.00099683
0.00132136
0.00219174
0.000870453
0.000160064
0.00504414
0.00744103
0.000854677
0.00785354
0.000777196
0.000738877
0.00666399
0.00244926
0.00225124
0.00119975
0.00661872
0.000880808
0.000851229
0.000900986
0.00677871
0.000842454
0.000819749
0.00162012
0.00713988
0.0010411
0.00124807
0.00156589
0.00276807
0.0022649
0.00195032
0.00156685
0.00143042
0.00741257
0.000473788
0.000245055
0.00454509
0.00074613
0.00117218
0.000738196
0.00077259
0.000844366
0.000905751
0.00193859
0.000408588
0.000884606
0.00013655
0.00648609
0.00104792
0.000661284
0.00226513
0.000556484
0.000935139
0.00298759
0.00157267
0.000935652
0.0009905
0.00865846
0.000745827
0.000565256
0.0026517
0.000726247
0.000553238
0.000735288
0.000790542
0.000906121
0.00309569
0.00635372
0.00206424
0.000622035
0.00699763
0.000882109
0.00106951
0.00175288
0.00356815
0.00522771
0.000769289
0.0008441
0.0052216
0.00242308
0.000901099
0.00525425
0.00556878
0.00121482
0.00116067
0.000827951
0.00108828
0.000813914
0.000876055
0.000815338
0.000838712
0.00100959
0.000626869
0.00372297
0.000815764
0.00095896
0.00267277
0.00258328
0.0070459
0.0085127
0.00784008
0.00103445
0.00265416
0.00116543
0.00465691
0.000863752
0.000538821
0.000845883
0.000847792
0.00527313
0.00119266
0.000972976
0.00766137
0.000784582
0.00458853
0.00783432
0.0084022
0.00579611
0.00866651
0.000774519
0.00299402
0.00801565
0.000845189
0.000782061
0.000338349
0.00459
0.00430889
0.000474961
0.00576776
0.00838863
0.00055119
0.00137776
0.000572507
0.000149747
0.00188704
0.00821244
0.00163317
0.00240693
0.00103768
0.000854818
0.00833275
0.00108658
0.00130894
0.00317482
0.000678462
0.00170486
0.000758336
0.00132833
0.00190352
0.000817759
0.00105589
0.000504954
0.000724124
0.00440265
0.00109018
0.000785506
0.000130682
0.00165595
0.00105198
0.000801221
0.00087509
0.00108911
0.00148181
0.000683416
0.00110328
0.00500497
0.00125165
0.00183381
0.000786181
0.000855916
0.000724777
0.00415496
0.0012846
0.00203561
0.00072162
0.00221923
0.00293824
0.00178082
0.000689537
0.000752895
0.000661771
0.000696426
0.000945372
0.000728556
0.00107614
0.00096949
0.00485621
0.000723996
0.00566718
0.000666538
0.000792959
0.00781661
0.0011205
0.0020245
0.00222366
0.00274527
0.000810824
0.00102579
0.00183916
0.000842905
0.003146
0.000439613
0.00106457
0.000921568
0.00132719
0.00239273
0.00710831
0.000813285
0.00117344
0.00106958
0.000319069
0.00113629
0.000747865
0.000837296
0.000831497
0.00133
0.00343357
0.00156809
0.000876785
0.000909378
0.000912459
0.000792071
0.00147228
0.00783554
0.00875598
0.00818993
0.000740831
0.000669193
0.0090276
0.00800749
0.00870333
0.00763952
0.00534718
0.000802094
0.000758978
0.00115426
0.000744761
0.000603813
0.000918478
0.00163439
0.000589787
0.00085298
0.00117567
)
;

boundaryField
{
    frontAndBack
    {
        type            empty;
    }
    wallOuter
    {
        type            nutkWallFunction;
        Cmu             0.09;
        kappa           0.41;
        E               9.8;
        value           nonuniform List<scalar> 
90
(
8.15926e-05
7.67517e-05
7.78072e-05
7.56697e-05
8.27185e-05
8.47593e-05
8.67235e-05
9.42167e-05
8.00426e-05
8.90597e-05
9.15465e-05
9.51504e-05
9.07289e-05
9.32759e-05
9.24349e-05
0.000104977
9.97539e-05
8.12517e-05
7.22515e-05
6.52244e-05
7.83354e-05
0.000100156
8.80524e-05
9.29615e-05
8.00733e-05
0.000113785
0.000113308
8.77993e-05
8.32731e-05
7.1859e-05
6.99357e-05
7.12829e-05
7.31679e-05
6.70746e-05
6.17468e-05
5.40612e-05
1.4676e-05
2.38747e-05
8.56178e-05
4.5819e-05
1.81945e-05
3.90689e-05
0.000104221
1.52219e-05
2.19273e-05
2.81648e-05
1.29826e-05
0.000121335
2.22619e-05
0.000106895
0.000116838
7.89376e-05
7.5409e-05
9.26061e-05
9.55938e-05
2.20855e-05
2.51983e-05
0.00011906
0.000122449
8.94116e-05
6.46977e-05
1.01026e-05
1.68415e-05
0.000103494
9.69219e-05
8.41837e-05
0.000108247
1.57145e-05
0.000106463
1.16113e-05
6.22502e-05
1.23464e-05
9.25445e-05
1.42969e-05
9.41217e-05
7.48497e-05
7.16168e-05
0.000103928
1.71358e-05
0.000102075
5.73753e-05
0.000105459
1.3689e-05
7.51589e-05
7.56312e-05
1.55921e-05
9.41199e-05
1.26437e-05
8.23729e-05
8.38914e-05
)
;
    }
    inlet
    {
        type            calculated;
        value           uniform 0.000851986;
    }
    outlet
    {
        type            calculated;
        value           nonuniform 0();
    }
    wallInner
    {
        type            nutkWallFunction;
        Cmu             0.09;
        kappa           0.41;
        E               9.8;
        value           nonuniform List<scalar> 
138
(
5.09096e-05
4.85148e-05
0.000222047
6.49277e-05
6.14072e-05
8.179e-05
0.00025954
0.00013381
6.07031e-05
5.67547e-05
0.000138964
0.000119667
2.11335e-05
5.76475e-05
3.08532e-05
4.92682e-05
6.19662e-05
4.57371e-05
3.93108e-05
7.95694e-05
0.000238012
0.000128883
4.73141e-05
0.000132888
0.000129961
0.000127549
0.000121932
0.000126332
0.000121576
0.000129716
0.000130877
3.71237e-05
2.58176e-05
2.84169e-05
2.79758e-05
4.94584e-05
5.01454e-05
2.84954e-05
3.72575e-05
4.512e-05
3.68389e-05
6.13134e-05
3.05887e-05
2.917e-05
4.20636e-05
3.42798e-05
4.72164e-05
5.09283e-05
4.62099e-05
1.90864e-05
4.56119e-05
2.69316e-05
4.73146e-05
4.83973e-05
4.56065e-05
3.0397e-05
3.076e-05
5.34677e-05
3.33145e-05
5.94075e-05
4.69056e-05
4.89447e-05
3.23483e-05
4.38531e-05
1.93261e-05
3.09997e-05
3.56036e-05
6.54162e-05
0.000122725
6.66361e-05
0.000151024
4.11399e-05
4.1245e-05
6.87189e-05
0.000127436
4.38866e-05
0.000128429
3.25371e-05
3.09447e-05
5.82352e-05
4.70425e-05
0.000145343
0.000172601
0.000146976
0.000136175
0.000159287
3.84317e-05
4.83287e-05
0.000127263
0.000122926
3.53077e-05
2.10508e-05
3.95722e-05
2.24317e-05
5.48493e-05
2.37969e-05
3.21765e-05
4.64414e-05
3.59286e-05
8.33504e-05
0.000132265
6.18677e-05
8.54881e-05
4.53353e-05
0.000111901
3.10161e-05
4.31172e-05
0.000132473
3.99489e-05
5.02859e-05
5.80178e-05
0.000125379
3.97751e-05
3.29184e-05
4.71174e-05
0.000114641
8.98598e-05
3.54736e-05
0.000110588
0.00011698
4.46881e-05
2.49286e-05
9.32812e-05
4.99019e-05
5.69091e-05
5.4692e-05
9.66753e-05
3.69296e-05
5.3389e-05
5.70832e-05
2.84341e-05
8.07105e-05
0.000135701
8.95098e-05
7.30826e-05
0.000187463
7.14024e-05
0.000137343
)
;
    }
    procBoundary0to1
    {
        type            processor;
        value           nonuniform List<scalar> 
29
(
0.00129283
0.00202165
0.00205192
0.00205192
0.00516163
0.00516163
0.00291311
0.00127724
0.00189873
0.00228368
0.00163518
0.00196049
0.000671209
0.000633792
0.00222992
0.00127537
0.00794576
0.00582545
0.00269237
0.00205588
0.000864993
0.000729564
0.00319445
0.000741082
0.000728848
0.00582545
0.000726562
0.000916813
0.000741082
)
;
    }
    procBoundary0to2
    {
        type            processor;
        value           nonuniform List<scalar> 
42
(
0.00712734
0.00825225
0.000497164
0.000443272
0.00140254
0.00712734
0.000497164
0.000537087
0.00120886
0.0013392
0.00291421
0.00473838
0.00291421
0.006099
0.00756692
0.00552999
0.00756692
0.00137314
0.00127087
0.00161477
0.00161477
0.00137314
0.0011477
0.000958554
0.000958554
0.00104002
0.0017399
0.000843595
0.00306228
0.00867755
0.00867755
0.000794011
0.000939798
0.00111173
0.00102509
0.000497164
0.00870132
0.000257643
0.00306228
0.000537087
0.000600653
0.000768186
)
;
    }
}


// ************************************************************************* //
