/*--------------------------------*- C++ -*----------------------------------*\
| =========                 |                                                 |
| \\      /  F ield         | OpenFOAM: The Open Source CFD Toolbox           |
|  \\    /   O peration     | Version:  v1912                                 |
|   \\  /    A nd           | Website:  www.openfoam.com                      |
|    \\/     M anipulation  |                                                 |
\*---------------------------------------------------------------------------*/
FoamFile
{
    version     2.0;
    format      ascii;
    class       volScalarField;
    location    "0.21";
    object      epsilon;
}
// * * * * * * * * * * * * * * * * * * * * * * * * * * * * * * * * * * * * * //

dimensions      [0 2 -3 0 0 0 0];


internalField   nonuniform List<scalar> 
1431
(
2.1304
6.26657
96.6763
12.0071
0.994255
0.905595
4.6675
165.528
2.12811
4.05279
129.332
112.28
21.5506
8.00194
1.84647
5.07534
7.74227
3.81753
11.3012
10.3066
281.826
11.2209
1.95065
73.0534
2.17859
27.3337
83.0926
1.43778
9.82024
7.19308
3.81048
6.19223
3.61166
2.9901
1.30772
3.1327
3.58985
0.562295
5.57616
3.23588
2.29779
2.43316
31.8667
12.5606
2.29163
1.32773
5.97944
69.3987
6.02222
1.15553
6.68899
12.9187
4.77663
160.942
3.14263
6.33615
0.886284
146.129
5.92014
0.439329
1.69714
6.72663
1.35633
0.593823
8.14057
4.33057
11.6777
1.52682
0.836066
17.0908
92.9458
4.56275
6.20762
2.59147
10.1983
1.79195
52.7654
0.540818
3.3975
1.27704
7.59787
1.09191
3.7772
4.67771
23.5781
13.6874
3.49749
1.48933
10.1769
7.32559
2.29342
1.25663
1.27269
6.11351
2.11246
6.75099
161.328
8.33107
10.5367
0.551804
3.23744
7.48826
7.27155
0.669733
0.349431
11.3691
7.47179
105.405
1.94425
5.97785
0.434937
14.8237
76.6515
2.20238
3.64021
1.23207
7.2566
9.55074
5.81724
0.970476
23.2474
2.4588
105.689
13.4994
64.9827
3.49994
69.1378
1.41969
64.2875
2.31515
10.8999
5.55968
2.11317
12.2147
14.4006
1.37055
0.56943
7.49375
30.2303
0.477268
4.77004
4.12203
8.15318
0.672803
2.3445
3.72953
1.83075
3.52618
3.94856
1.61369
1.4293
1.14314
3.94476
6.16444
7.30947
0.787113
19.163
10.4545
5.68006
2.53262
23.8817
18.368
4.14782
2.58835
77.896
1.54747
1.62866
2.21939
0.883624
5.71497
15.0298
2.27575
2.75638
27.27
7.60704
18.1449
1.98442
1.14181
5.4051
1.79526
4.50024
10.6071
5.30733
177.409
1.07362
14.7596
77.2463
8.94161
5.17177
15.7388
5.50621
4.68778
3.47323
182.509
5.98512
10.1105
11.8954
2.03635
0.478335
1.71054
9.35379
3.72286
91.0922
2.93685
8.48248
6.26607
5.87216
0.668684
36.4762
1.52342
50.6762
4.97755
6.29961
11.6156
25.7579
2.03803
3.8663
2.37605
3.34566
84.2788
9.43076
6.10888
6.03313
3.09557
8.58523
58.2806
100.692
6.49895
9.56621
45.9813
95.9419
3.71156
12.9143
3.17996
7.07154
12.4825
5.28349
11.3463
5.06323
8.63259
2.74547
3.30989
44.8706
8.82346
5.48245
25.6934
10.2268
87.4052
10.782
0.609637
1.26528
21.9991
2.68363
3.96166
5.9002
4.029
2.85498
82.5703
15.0641
3.82584
9.59023
27.104
3.87147
2.04593
10.0538
110.587
2.75471
307.492
66.5095
0.91522
2.13138
4.64945
5.19886
8.46832
25.8919
2.78988
25.8601
36.8897
11.4489
8.03152
2.12452
6.65289
3.81841
6.78488
2.63401
6.54615
3.3887
11.0923
24.4834
9.30365
0.372396
3.81431
10.3132
2.3999
24.3702
11.7117
107.936
16.73
3.35723
12.7959
3.42333
0.477193
4.7155
7.48894
24.8437
3.04814
9.91949
4.48743
3.06882
5.22139
10.2658
3.0979
6.16826
106.494
2.06152
12.406
1.9841
2.8625
1.19781
670.309
9.4881
11.4812
0.82754
1.94576
1.22326
128.096
0.631705
4.2966
170.699
3.63028
18.3582
1.58069
3.55882
15.7604
2.4576
10.5095
4.935
10.7558
1.11814
55.2388
0.361789
14.4833
9.14101
2.62289
1.71974
9.16087
7.97581
21.9622
7.32646
3.35748
1.68347
1.42982
1.80677
4.9581
1.34206
2.61738
34.3689
35.4424
20.2573
2.86762
12.2896
11.65
15.4007
4.3802
0.916462
22.9286
2.68505
288.9
20.1051
5.73318
110.924
1.19549
10.2663
3.88213
2.94304
152.816
8.23806
2.65398
32.785
208.255
14.6846
0.950736
3.96167
1.47944
539.834
1.24847
3.49884
1.51019
1.39614
3.34219
3.2407
2.65457
2.42147
3.25647
18.1656
2.07457
5.9853
7.35136
3.28401
0.91105
4.6169
3.518
14.5404
4.51706
12.4804
3.14769
0.936624
1.76614
2.37987
2.50677
7.02066
1.45235
2.07871
24.4785
1.32377
1.68306
3.05355
1.43328
0.892217
1.83735
17.7719
24.2321
4.93229
3.42267
1.74121
1.45585
10.9445
25.9242
67.916
48.3134
9.01983
7.51402
6.85017
7.38838
7.29704
8.79413
9.10149
10.3037
11.0544
10.9962
1.73238
31.4969
1.49135
1.47236
1.47148
1.39203
0.863952
0.802573
4.12247
6.92009
5.73757
1.46671
9.91217
0.544628
9.73108
8.61405
10.8103
95.2777
0.724233
27.0446
8.1619
1.27502
90.9596
10.679
25.831
1.24961
0.390036
89.1067
1.29775
88.6831
10.3269
11.5801
0.873325
19.525
32.2228
26.3691
1.4518
0.693544
1.13095
9.26314
22.2656
0.899367
34.6956
3.98141
0.75048
21.303
2.58174
1.05378
31.698
0.747247
42.852
5.91714
36.6683
4.23127
24.46
5.48721
60.9403
48.9015
8.14282
2.20877
46.7843
16.7927
0.772373
183.473
47.8447
28.4314
1.63038
5.80907
10.3414
1.40607
9.55919
36.791
11.0845
66.9924
247.988
7.10913
44.3075
6.29586
37.939
32.9018
5.52743
9.68022
1.89911
3.39997
11.1925
4.40509
46.6339
3.07979
1.42276
1.91281
10.0199
11.1322
15.0392
63.4177
10.0927
70.5998
2.51595
5.85112
7.83222
1.61437
3.97482
91.5041
3.45487
9.46993
2.51775
2.34195
4.67512
7.50845
4.90673
9.64943
3.50015
136.942
3.89204
1.67885
1.49806
35.7324
4.22543
46.0435
6.24137
388.201
9.62685
36.1427
12.6842
2.87912
596.807
2.87593
3.37012
2.83002
25.5753
5.41254
2.10244
16.4095
12.1989
5.33504
2.56065
1.74077
4.59105
4.14344
12.7735
9.67885
2.22999
9.68668
3.33341
3.18143
3.59992
5.27638
7.23638
9.19506
4.59936
1.46201
17.7811
4.43051
8.26687
3.97686
12.7878
10.1993
25.3411
3.21583
9.71719
30.935
12.0276
11.0608
1.42013
9.93389
3.83977
1.15656
107.094
5.21529
8.20525
1.76153
4.57359
3.47446
2.26116
14.1385
1.82356
4.76756
26.3146
2.42321
26.7437
1.94657
4.39352
9.3915
1.40242
1.83658
3.6598
2.42624
9.16434
1.15102
6.31103
3.61769
5.58601
6.30118
8.79193
13.1213
2.09519
2.97965
133.522
3.82912
2.89492
8.28093
3.79271
14.4999
4.80669
1.4292
4.14842
4.6591
2.49019
1.31936
66.1906
6.1522
24.8167
5.16115
3.98861
3.85082
1.86586
1.14921
1.85031
4.03421
47.4253
13.3499
20.6316
7.89805
19.9269
2.76857
42.2753
36.3592
17.5584
57.2801
5.53873
1.59772
1.78962
2.44768
36.2909
11.3572
24.7038
15.5649
37.9929
15.1348
1.62597
7.23479
7.60519
2.45633
3.76057
35.3667
1.37121
39.7522
18.242
2.32562
1.67022
3.89446
76.5477
20.4329
3.71677
3.82253
3.97499
6.92134
5.33441
4.43887
4.18786
14.8737
4.54436
2.93528
2.51277
3.84773
3.89712
39.9387
3.82439
4.89396
5.7301
1.15152
1.91799
3.30233
19.5433
17.141
149.508
2.3545
25.3562
3.13829
8.38914
3.15289
3.06395
6.53669
21.1848
3.01581
0.967117
2.21436
37.9168
30.7173
94.2707
191.368
0.837703
3.75942
22.6916
5.56718
104.841
19.8655
3.92931
5.94486
34.7039
4.04527
4.66707
1.76302
6.29566
2.80384
10.8424
1.32214
12.4786
0.481873
1.66057
9.68502
5.83516
6.95963
2.08509
12.8166
124.187
1.4956
4.56805
1.79038
1.03252
2.90869
122.861
92.6864
20.5938
7.58167
0.706436
8.59822
8.1556
6.80342
1.52373
7.11189
37.1862
12.1604
1.41386
3.98115
4.07874
5.07267
4.20073
1.94883
4.09126
1.06601
3.06715
0.337715
2.63739
1.4337
4.01461
32.4346
1.20547
4.62355
2.84289
3.61021
61.8406
20.9324
5.05013
5.83675
5.50141
4.32506
8.74051
12.8391
9.59265
6.63389
3.52846
13.8323
0.801921
10.3778
11.418
673.843
6.85154
1.08348
2.26467
1.26312
354.617
2.74945
7.51831
22.4544
6.18519
105.842
17.0428
1.41734
5.80165
2.69023
0.572289
86.1013
2.19037
11.6427
4.22679
4.62916
5.04557
4.06376
1.19734
12.8971
8.44221
6.65939
35.2568
2.98984
4.61666
158.525
4.96156
5.57424
3.04169
5.11028
3.66837
2.9445
0.627599
8.8892
1.99783
14.1754
0.39364
195.572
1.92881
20.7795
24.1297
4.61818
8.47674
4.41592
28.7636
1.55841
2.17893
4.50775
53.8639
0.666161
4.22729
3.03034
2.73152
3.69522
18.2756
1.72604
16.7305
3.44223
20.7728
1.27
12.008
587.428
5.26101
4.23984
7.29572
0.414078
4.28312
3.51846
1.35371
3.25896
88.9936
12.1328
3.56458
84.6142
433.986
137.29
147.32
50.8455
6.08575
6.85555
7.76445
7.4116
64.4685
5.53218
6.23047
5.05656
5.6936
6.38613
31.3415
75.8204
6.12368
13.5833
18.4652
5.96664
5.28521
5.17284
6.06211
5.16357
5.11814
6.32008
4.9333
18.2379
22.188
1.23928
47.6755
1.19048
11.342
5.46047
62.6026
17.0886
7.20729
7.22374
1.16911
2.91095
173.972
26.1303
6.43524
23.0426
3.32577
14.9752
4.60262
3.22054
123.507
0.932679
4.74603
1.27256
3.11287
3.29024
10.478
18.1861
8.41772
9.20782
21.8083
4.25751
2.31945
4.26171
34.9156
1.24353
10.115
1.35442
16.1662
2.42849
11.3158
6.81298
44.1467
5.28091
3.42812
6.91339
0.663799
2.60147
1.27725
20.2799
8.2651
3.92004
3.04099
0.825369
14.7032
3.99653
4.9589
1.25885
4.42029
3.25994
11.5714
37.0362
0.479908
11.1915
2.62303
16.9001
10.2081
675.353
1.75353
8.83628
7.63866
174.027
2.71265
8.78619
9.88106
3.27026
3.89894
1.12679
89.2762
1.93321
12.8204
428.865
33.4568
4.79296
2.13416
14.198
15.0993
19.2842
20.0729
12.5495
1.43224
15.1677
48.0538
13.1224
91.1469
3.69512
8.15204
1.59093
19.1496
3.0551
18.5879
1.1481
1.71452
7.44959
4.01194
3.92355
2.55103
3.34317
26.7101
451.849
3.93371
8.71605
8.01216
2.37523
4.02886
167.676
6.65937
1.16521
3.60052
25.3945
21.405
8.38672
5.3224
8.2042
1.95239
7.59174
15.6745
5.65293
3.19345
4.8058
14.7012
5.68122
5.61206
6.5523
49.2042
4.02968
131.574
31.8645
4.83324
119.518
1.15186
2.18779
5.72604
4.47255
3.82547
3.39209
2.2253
5.84359
0.967788
17.7432
7.73535
27.2477
1.00467
43.4775
14.5919
15.8138
1.45433
16.2728
4.3507
13.6733
15.3017
4.86894
10.4691
11.6975
13.2038
16.5726
18.8331
19.7665
14.8475
19.889
6.24224
7.32456
8.9128
6.57888
8.2087
8.6597
4.8115
8.17846
9.09352
11.5926
5.91013
6.73224
3.4777
16.9195
1.43182
6.79981
2.32525
11.2652
4.02207
2.27745
4.11515
1.06747
1.06186
2.42389
13.0595
14.5703
0.999952
36.9655
7.32053
3.02027
518.853
4.61493
0.990146
1.59172
2.8146
1.55374
3.73587
24.2664
0.500125
2.87015
4.00733
1.37682
9.31158
7.09817
8.3735
0.452719
3.92549
16.0977
4.42404
67.3256
3.18474
4.41019
0.538788
15.0919
9.45456
193.178
1.15444
23.9156
49.2442
2.11052
15.7675
5.37512
0.628702
4.30341
29.5516
4.10334
1.37217
12.9559
72.7515
7.84011
7.05853
9.8322
1.18019
5.10616
6.41857
2.49827
2.18601
25.2095
53.4531
33.8488
4.84663
4.77489
8.64645
8.15424
7.39552
1.2537
31.9826
8.24571
1.20979
76.0747
5.17624
12.2577
25.5071
3.66383
6.7366
8.37882
6.00942
12.8758
166.098
61.0023
1.07941
0.956607
1.61896
2.08923
25.1815
7.12287
26.5492
8.12698
7.98984
19.4892
115.264
4.75355
2.7824
7.02514
2.76991
3.6071
183.119
0.956582
3.69289
23.7031
11.4514
6.47107
7.0752
7.75797
13.9813
12.8936
10.177
4.58014
10.2457
45.4581
17.0579
4.42393
1.50021
3.99714
3.09981
17.5853
8.18808
16.5169
1.28033
11.1257
3.8018
2.94868
15.687
11.4917
8.07375
1.03544
8.53795
2.89845
364.63
6.77354
2.49202
3.16244
35.138
2.75062
6.06357
2.67873
65.7569
3.21913
3.65625
2.73995
3.35453
3.47611
6.40558
7.99301
5.45191
9.25753
1.37455
98.9874
5.84938
188.32
1.45846
5.65777
1.47353
2.02033
5.1221
0.866807
147.606
5.38126
8.59203
3.23553
239.064
2.23971
2.574
1.36383
31.663
9.22382
2.67379
4.471
9.44393
6.41058
5.40372
19.0308
3.82052
2.51497
1.17355
2.337
130.565
17.3206
7.88016
9.53415
16.8472
1.49224
19.8906
6.82165
6.18324
172.266
2.23704
1.70603
17.8597
3.73617
87.1524
8.33417
12.4358
1.59691
163.477
35.1291
32.1508
0.976793
305.956
0.901157
7.0655
1.13969
19.6209
28.1546
2.36947
136.639
8.83564
11.1708
2.77012
255.329
6.35855
183.061
6.58396
1.54513
15.3398
140.194
144.437
4.99235
43.3775
2.6285
2.12882
2.2225
9.49831
0.954231
31.4792
3.79838
2.29109
42.028
237.804
13.0185
12.8412
5.17887
15.7534
7.66913
4.74614
0.974237
160.07
5.36103
2.79635
24.2457
2.67732
9.76121
8.00211
1.08302
5.72352
10.1149
7.83316
213.421
10.4334
0.938838
1.03916
1.16922
6.36616
4.42962
5.8329
1.66249
9.82288
3.00916
3.66457
5.50287
7.62008
4.96344
5.4775
12.9684
20.6617
4.15815
7.75838
2.07433
12.5746
15.4955
4.2797
4.38483
4.2141
4.89524
6.64626
7.78598
10.3243
3.71022
4.14876
16.2271
33.5587
0.84564
13.0154
1.33329
1.31498
23.8544
14.148
1.01108
10.7505
14.4077
15.4269
8.23861
6.51124
5.84419
15.0432
1.95946
7.11738
4.17171
8.39638
1.33638
86.0864
1.69955
38.3392
127.186
1.66083
4.2143
1.84339
2.67657
2.79994
6.07588
20.1558
93.7882
30.4551
4.74502
2.33375
5.28417
11.9626
6.85727
3.20332
1.10033
2.8275
14.3265
2.80716
34.8236
1.22456
6.93317
3.16281
0.740923
1.25799
)
;

boundaryField
{
    frontAndBack
    {
        type            empty;
    }
    wallOuter
    {
        lowReCorrection 0;
        type            epsilonWallFunction;
        value           nonuniform List<scalar> 
96
(
9.82024
7.19308
6.75099
36.2909
37.9929
35.3667
3.89446
3.82253
3.97499
5.33441
4.18786
4.54436
3.84773
39.9387
4.89396
5.94486
34.7039
4.66707
4.20073
4.01461
4.32506
4.22679
4.62916
6.65939
35.2568
50.8455
6.08575
6.85555
7.76445
7.4116
64.4685
5.53218
6.23047
5.05656
5.6936
6.38613
31.3415
75.8204
6.12368
13.5833
18.4652
5.96664
5.28521
5.17284
6.06211
5.16357
5.11814
6.32008
4.9333
4.74603
11.3158
6.81298
4.9589
4.42029
37.0362
4.79296
91.1469
8.71605
8.01216
6.65937
7.59174
4.8058
5.68122
49.2042
15.8138
16.2728
15.3017
4.86894
10.4691
11.6975
13.2038
16.5726
18.8331
19.7665
14.8475
19.889
6.24224
7.32456
8.9128
6.57888
8.2087
8.6597
6.73224
4.11515
7.09817
7.05853
26.5492
3.99714
8.53795
9.44393
7.88016
9.53415
6.35855
43.3775
42.028
5.17887
)
;
    }
    inlet
    {
        type            fixedValue;
        value           nonuniform 0();
    }
    outlet
    {
        type            zeroGradient;
    }
    wallInner
    {
        lowReCorrection 0;
        type            epsilonWallFunction;
        value           nonuniform List<scalar> 
126
(
5.92014
0.439329
1.69714
6.72663
1.35633
0.593823
8.14057
4.33057
11.6777
1.52682
0.836066
17.0908
92.9458
4.56275
6.20762
2.59147
10.1983
1.79195
52.7654
0.540818
3.3975
1.27704
7.59787
1.09191
0.551804
1.23207
7.2566
9.55074
5.81724
0.970476
23.2474
2.4588
105.689
13.4994
64.9827
3.49994
69.1378
10.8999
5.55968
0.477268
4.77004
8.15318
0.672803
1.83075
1.61369
1.14314
6.16444
77.896
4.50024
14.7596
77.2463
5.98512
50.6762
0.91522
11.4489
8.03152
0.372396
107.936
16.73
12.7959
0.477193
3.0979
6.16826
106.494
128.096
0.631705
18.3582
55.2388
0.361789
35.4424
11.65
15.4007
1.76614
1.43328
183.473
247.988
1.91281
5.85112
91.5041
7.50845
136.942
6.24137
2.56065
4.14344
4.59936
4.43051
12.0276
1.40242
8.79193
4.14842
3.98861
3.89712
3.82439
2.90869
4.23984
3.51846
1.27725
53.4531
13.0185
12.8412
8.39638
1.33638
1.69955
127.186
1.66083
4.2143
2.67657
6.07588
20.1558
93.7882
30.4551
4.74502
2.33375
11.9626
6.85727
3.20332
1.10033
2.8275
14.3265
2.80716
34.8236
1.22456
6.93317
3.16281
0.740923
1.25799
)
;
    }
    procBoundary3to1
    {
        type            processor;
        value           nonuniform List<scalar> 
48
(
3.04218
1.64417
1.73202
2.41292
20.3799
0.778209
1.64417
42.2709
10.4377
0.609502
0.609502
0.434992
0.434992
27.5363
19.699
0.35503
1.57524
0.545419
1.57524
3.71751
13.6142
23.8528
3.71751
0.694624
0.664925
9.97023
79.9707
23.8528
90.0442
27.1964
27.1964
61.7872
61.7872
10.4377
3.90855
21.9861
27.9596
0.664925
4.1505
28.9497
27.5363
21.9615
17.7351
3.71751
15.7852
13.4295
22.926
17.095
)
;
    }
    procBoundary3to2
    {
        type            processor;
        value           nonuniform List<scalar> 
29
(
1.32843
1.32843
4.93588
3.83562
5.8705
2.11912
4.27188
1.29507
4.04669
3.42311
1.48778
9.02201
1.49363
11.2947
4.33075
12.2318
6.42203
7.59503
1.24821
3.8592
3.77038
6.42203
6.23602
7.59503
3.9792
5.65646
7.59503
11.8676
11.8676
)
;
    }
}


// ************************************************************************* //
