/*--------------------------------*- C++ -*----------------------------------*\
| =========                 |                                                 |
| \\      /  F ield         | OpenFOAM: The Open Source CFD Toolbox           |
|  \\    /   O peration     | Version:  v1912                                 |
|   \\  /    A nd           | Website:  www.openfoam.com                      |
|    \\/     M anipulation  |                                                 |
\*---------------------------------------------------------------------------*/
FoamFile
{
    version     2.0;
    format      ascii;
    class       volScalarField;
    location    "0.33";
    object      k;
}
// * * * * * * * * * * * * * * * * * * * * * * * * * * * * * * * * * * * * * //

dimensions      [0 2 -2 0 0 0 0];


internalField   nonuniform List<scalar> 
1466
(
0.162253
0.234105
0.0710501
0.090935
0.300986
0.624271
0.118695
0.296107
0.370344
0.304445
0.0308723
0.322972
0.0159713
0.0945931
0.0955461
0.131129
0.0246762
0.157946
0.191984
0.0719396
0.093092
0.258195
0.22997
0.215013
0.100972
0.0348573
0.069707
0.347982
0.117802
0.133059
0.407307
0.996417
0.343145
0.169696
0.202199
0.0845389
0.0548157
0.0801381
0.736086
0.298567
0.312303
0.110975
0.352541
0.211096
0.490574
0.342494
0.0754514
0.138373
0.0797232
0.0882678
0.049338
0.257855
0.336516
0.513722
0.207168
0.422532
0.0971435
0.0442611
0.0218746
0.366555
0.115428
0.124278
0.450185
0.745651
0.294806
0.0743528
0.455349
0.09333
0.127529
0.326212
0.034091
0.096062
0.0851912
0.0806157
0.0256713
0.640701
0.0870401
0.121709
0.164023
0.376817
0.0465552
0.0790081
0.0879727
0.0581382
0.0621829
0.0677125
0.0542149
0.183676
0.0668967
0.240192
0.0751711
0.0418563
0.302195
0.108515
0.0494373
0.0798827
0.24374
0.0448919
0.274342
0.074104
0.0860737
0.447496
0.0834793
0.131965
0.0827906
0.343809
0.0901634
0.0861064
0.244532
0.114903
0.0176992
0.0490966
0.215996
0.0725208
0.0195422
0.273028
0.0670649
0.0776872
0.258099
0.0731863
0.084794
0.158816
0.0512321
0.151398
0.0717612
0.130481
0.0984626
0.117843
0.254528
0.41306
0.0375299
0.0938455
0.161041
0.448907
0.0529877
0.365868
0.156734
0.0416695
0.479865
0.0930731
0.233935
0.0460691
0.183988
0.300571
0.489822
0.0741812
0.0583795
0.14614
0.399484
0.0740607
0.198915
0.147867
0.220984
0.2532
0.0722956
0.0430968
0.11001
0.360386
0.0561178
0.163784
0.478511
0.0743933
0.299699
0.0849573
0.398999
0.346253
0.467075
0.137691
0.0758757
0.135859
0.0594381
0.0587083
0.122124
0.347742
0.0566195
0.241218
0.346959
0.322507
0.101526
0.320788
0.130411
0.0816989
0.0458191
0.0707672
0.204527
0.0818128
0.0845061
0.405553
0.0854053
0.123553
0.134918
0.0771379
0.0736957
0.287483
0.0801857
0.102129
0.463537
0.125606
0.0989135
0.095894
0.429064
0.0410328
0.0843641
0.0746686
0.163892
0.162485
0.083017
0.284671
0.0851903
0.18674
0.169113
0.410983
0.0452273
0.054366
0.271015
0.0854228
0.0626169
0.0310309
0.0770894
0.0820516
0.171317
0.173647
0.0851276
0.0734064
0.327347
0.0702479
0.0879623
0.141248
0.0680858
0.427329
0.0403385
0.114475
0.0740358
0.0250264
0.0913751
0.165375
0.0282751
0.207052
0.0319957
0.120865
0.385216
0.03467
0.0365865
0.203425
0.289001
0.0430546
0.0177617
0.0479475
0.03631
0.0457063
0.0737622
0.344167
0.0993992
0.0873625
0.0750949
0.337736
0.0905475
0.478426
0.563516
0.521817
0.0490526
0.0611376
0.397908
0.169406
0.534283
0.13204
0.357429
0.344297
0.0444462
0.0873884
0.378326
0.139941
0.035113
0.0888134
0.0655999
0.0292656
0.076064
0.0850512
0.128302
0.226433
0.145364
0.0400508
0.0477482
0.0754009
0.0658102
0.0295819
0.0476398
0.0344769
0.178979
0.0916178
0.0633831
0.254765
0.050258
0.461445
0.0847756
0.0421085
0.363371
0.396732
0.0480002
0.0758306
0.025819
0.439324
0.110938
0.0546381
0.14963
0.0775658
0.068297
0.0318037
0.0457042
0.864405
0.460654
0.0500779
0.0422767
0.278374
0.0561216
0.0391919
0.313937
0.0320035
0.374852
0.121313
0.0758133
0.395206
0.0467692
0.0667665
0.031613
0.0527068
0.0224925
0.0600936
0.0195793
0.0492253
0.0950187
0.0630907
0.0196222
0.0713895
0.047674
0.0659341
0.0109452
0.0344744
0.150221
0.0381309
0.11098
0.0613248
0.0406699
0.0304383
0.0583309
0.0164061
0.133857
0.0478
0.0235648
0.244436
0.162229
0.0416185
0.248685
0.0282335
0.0287059
0.0385067
0.389089
0.136468
0.866541
0.0421842
0.160504
0.417453
0.370969
0.0820604
0.285395
0.0642297
0.0273882
0.0186825
0.0573305
0.120821
0.025216
0.0304206
0.154956
0.0647225
0.0602738
0.0723412
0.0470351
0.334314
0.0513269
0.01728
0.0347258
0.275481
0.0781981
0.0536563
0.289355
0.0442489
0.0380076
0.04967
0.0308309
0.0434575
0.0794491
0.424257
0.326052
0.589039
0.0672389
0.0895088
0.349045
0.0242895
0.0821189
0.0126115
0.195231
0.0306131
0.331183
0.0363792
0.387652
0.0676599
0.237206
0.904471
0.0727707
0.0912465
0.0591913
0.337642
0.0243661
0.253434
0.635342
0.132011
0.219033
0.322077
0.0727768
0.104167
0.202121
0.0269299
0.253375
0.246299
0.260611
0.309935
0.303781
0.285029
0.210496
0.228171
0.236798
0.0538264
0.164853
0.379732
0.283049
0.411042
0.687057
0.279936
0.325605
0.25703
0.211851
0.0454289
0.310012
0.207088
0.340462
0.606893
0.310631
0.424369
0.385279
0.298247
0.394702
0.601551
0.117279
0.17957
0.613183
0.260469
0.455846
0.545204
0.0829131
0.235602
0.508597
0.154131
0.144222
0.16289
0.272591
0.119806
0.460442
0.0632197
0.152023
0.0297299
0.374566
0.306775
0.123883
0.190493
1.24213
0.310104
0.0510048
0.0295428
0.222166
0.82144
0.10602
0.0658873
0.965502
0.0655896
0.246084
0.0879464
0.0669086
0.0520183
1.16245
0.392663
0.23672
0.0807346
0.0730132
0.0500138
0.385808
0.247164
0.903881
0.416584
0.133224
0.165067
0.0916382
0.0756585
0.332439
0.312983
0.0448345
0.327482
0.430923
0.302277
0.385272
0.381254
0.308724
0.269115
0.267683
0.169163
0.0628985
0.336488
0.0818187
0.0724631
0.134217
0.0995413
0.102448
0.662834
0.203944
0.18652
0.137975
0.0391991
0.229796
0.188089
0.0228175
0.045238
0.07843
0.348231
0.376894
0.411168
0.105953
0.248521
0.496356
0.329056
0.0783611
0.028179
0.283565
0.655788
0.357717
0.459178
0.402992
0.0389097
0.0306647
0.502096
0.714791
0.0908838
0.0797973
0.093559
0.514913
0.203971
0.325455
0.459979
0.221472
0.0503908
0.200986
0.248183
0.0695232
0.0307167
0.277589
0.348756
0.424631
0.295135
0.0795309
0.171393
0.388369
0.456246
0.106118
0.167709
0.346601
0.503829
0.0713861
0.347827
0.354484
0.0363561
0.328378
0.32341
0.0394139
0.182696
0.278062
0.338537
0.0788718
0.600206
0.320918
0.0722338
0.502053
0.531228
0.0345099
0.0698555
0.37231
0.0727579
0.0838311
0.0772108
0.4298
0.201656
0.654808
0.328496
0.427168
0.0888507
0.0815427
0.0602575
0.0256761
0.415021
0.258199
0.0598069
0.596368
0.323061
0.267696
0.284743
0.503943
0.625385
0.085057
0.0305375
0.543468
0.0952253
0.141678
0.065462
0.0767328
0.0826435
0.33059
0.140074
0.0704506
0.371978
0.0226681
0.179141
0.0856332
0.519814
0.393288
0.312677
0.0625628
0.112375
0.393445
0.25596
0.36709
0.675101
0.0831077
0.0768469
0.0866363
0.226427
0.0977427
0.243865
0.0305394
0.477319
0.0543029
0.245568
0.255647
0.0878081
0.177798
0.503615
0.211043
0.488347
0.0502485
0.505791
0.361122
0.342922
0.0879276
0.0526702
0.13669
0.705124
0.504087
0.384619
0.390542
0.531447
0.365769
0.0320633
0.59868
0.082566
0.0860882
0.0844082
0.0179908
0.0528277
0.0275232
0.0676943
0.534439
0.664075
0.0685028
0.0391679
0.0625243
0.0729214
0.0290684
0.0657011
0.0399125
0.0349631
0.273107
0.0481845
0.0240294
0.276712
0.0702427
0.0828314
0.277553
0.0632461
0.356065
0.0837845
0.324169
0.0346648
0.0494562
0.164053
0.274928
0.0691618
0.237334
0.357646
0.147274
0.187478
0.182244
0.444346
0.299899
0.075316
0.0752285
0.0334175
0.434154
0.0810335
0.0808616
0.114094
0.322845
0.428436
0.0808977
0.101941
0.311038
0.189327
0.0716167
0.229499
0.565981
0.0546819
0.295179
0.145177
0.18081
0.493999
0.450187
0.202558
0.0792354
0.0129415
0.0132045
0.476055
0.0131171
0.0138819
0.0610581
0.377256
0.0959365
0.0137761
0.014754
0.0453698
0.202129
0.0418366
0.100699
0.0880227
0.112339
0.442663
0.0458262
0.0754216
0.0489274
0.128309
0.25468
0.272408
0.848678
0.479832
0.0864463
0.0807903
0.0315119
0.125356
0.0667567
0.0455432
0.0779356
0.45324
0.260979
0.0489891
0.0539753
0.0408515
0.365731
0.628438
0.15391
0.029708
0.129292
0.032579
0.147036
0.389059
0.164626
0.269866
0.787689
0.261382
0.0296558
0.0904293
0.176812
0.0407508
0.0668916
0.0692503
0.0889753
0.0689478
0.0956079
0.0702265
0.0521862
0.083288
0.117136
0.461817
0.592171
0.054771
0.321671
0.049205
0.210211
0.317093
0.0706209
0.0453535
0.0994191
0.0220363
0.290227
0.0890298
0.0634083
0.402545
0.839168
0.0272165
0.0807044
0.243968
0.0799548
0.298288
0.141364
0.0265864
0.1786
0.329828
0.861093
0.0687857
0.320778
0.142745
0.0859413
0.0943369
0.193389
0.0453251
0.0375008
0.0581427
0.0753154
0.120267
0.0635508
0.0241126
0.0739443
0.0869365
0.474597
0.0978795
0.0825356
0.243283
0.0223183
0.0349412
0.370135
0.427813
0.0189873
0.116768
0.39309
0.446264
0.34406
0.122758
0.365235
0.0483924
0.309268
0.350286
0.026328
0.0505846
0.0612117
0.0504816
0.0562067
0.0223844
0.332571
0.0205273
0.360169
0.244658
0.0825132
0.0871318
0.153051
0.0746495
0.31481
0.0544031
0.0798223
0.0313904
0.196762
0.189781
0.0374319
0.0648002
0.0766483
0.113175
0.760084
0.331946
0.0864338
0.0459306
0.0645014
0.078873
0.160979
0.0370604
0.225767
0.495107
0.355572
0.235371
0.0359647
0.0731589
0.0607093
0.153973
0.0751803
0.266241
0.027106
0.0327687
0.169941
0.245299
0.202457
0.0693137
0.0340079
0.0563169
0.31688
0.0263894
0.0813415
0.107414
0.47684
0.0805916
0.165535
0.0287953
0.502976
0.108335
0.0651043
0.0426854
0.30026
0.0676951
0.224207
0.174481
0.0583515
0.0794667
0.312559
0.397874
0.433378
0.0765301
0.0895457
0.0536047
0.076735
0.0927173
0.0782267
0.0696688
0.0372554
0.347567
0.0280452
0.25574
0.0872285
0.379934
0.0798744
0.0337451
0.0325476
0.0343555
0.0327987
0.193894
0.194629
0.189036
0.183478
0.0371044
0.178104
0.175228
0.0379554
0.0394639
0.0415327
0.217241
0.042717
0.0433302
0.316259
0.0293249
0.376895
0.0443699
0.171807
0.330309
0.0718179
0.157513
0.159235
0.0280372
0.365629
0.118244
0.0543668
0.0839752
0.124136
0.321747
0.0523145
0.0492018
0.0640699
0.114026
0.083389
0.0959968
0.16654
0.115708
0.31927
0.33821
0.88778
0.509316
0.0909418
0.0482606
0.338506
0.129208
0.0675132
0.0533052
0.248843
0.24491
0.13409
0.159641
0.217772
0.0439304
0.0589463
0.403167
0.416008
0.281093
0.143396
0.151945
0.336278
0.0869966
0.468182
0.104443
0.0994389
0.232919
0.150293
0.102832
0.0854245
0.0871805
0.0629493
0.140943
0.0231444
0.443488
0.0801966
0.10112
0.0220814
0.554656
0.0901284
0.102543
0.173867
0.320169
0.208593
0.49614
0.172924
0.0799862
0.218226
0.754213
0.0905681
0.0735875
0.539338
0.177172
0.0638776
0.485411
0.204211
0.0214502
0.0320648
0.231921
0.641893
0.0177531
0.0648777
0.15709
0.0433409
0.32285
0.260671
0.0192796
0.331128
0.0770328
0.109886
0.0505259
0.032526
0.498118
0.0175805
0.0873765
0.362511
0.0469534
0.0303774
0.243204
0.305839
0.0869981
0.052462
0.0396737
0.0648289
0.119815
0.100905
0.314652
0.369992
0.428739
0.0220016
0.245094
0.0711969
0.121865
0.39877
0.0309296
0.503476
0.178412
0.0745561
0.110243
0.26665
0.117565
0.148359
0.191779
0.112742
0.423076
0.31218
0.374111
0.0441814
0.0743971
0.126881
0.445304
0.039045
0.262043
0.144459
0.055889
0.174748
0.0510919
0.257167
0.0867608
0.0594958
0.196346
0.0514251
0.307727
0.0431664
0.0269763
0.0347422
0.107587
0.378747
0.104398
0.0505635
0.320861
0.0390706
0.165817
0.20887
0.0726523
0.0746685
0.240492
0.0607064
0.38833
0.0333717
0.0289033
0.292694
0.0609491
0.0676622
0.0241529
0.197449
0.0438315
0.2427
0.208669
0.0220371
0.302678
0.0315062
0.344289
0.0221316
0.254768
0.0934463
0.0636216
0.353002
0.0291342
0.09539
0.0289036
0.0320379
0.0466283
0.0789054
0.23765
0.0284775
0.209925
0.308498
0.0302862
0.165227
0.0657486
0.0971281
0.138136
0.119033
0.0740167
0.124909
0.0290191
0.342863
0.0666475
0.0443858
0.342647
0.379737
0.244792
0.24808
0.166317
0.120381
0.123461
0.0553467
0.0394537
0.0575373
0.0912378
0.393518
0.0600221
0.0802202
0.314635
0.811525
0.251562
0.107478
0.0882758
0.0372597
0.287236
0.150243
0.101256
0.103401
0.0613882
0.0467756
0.219463
0.414337
0.244281
0.0737035
0.0332628
0.131476
0.0675784
0.0620746
0.537753
0.491629
0.341326
0.0463049
0.404004
0.0290697
0.0321877
0.263156
0.0419363
0.0826654
0.0543443
0.0888933
0.371481
0.0285872
0.272876
0.025291
0.0722841
0.0371803
0.184584
0.257169
0.0996162
0.336082
0.345246
0.376322
0.17353
0.266401
0.153077
0.244526
0.0328296
0.0304389
0.0967062
0.0603036
0.480104
0.467805
0.102955
0.0662393
0.157527
0.0414524
0.163984
0.0687299
0.122206
0.052615
0.205096
0.0857891
0.0580515
0.255069
0.0750622
0.400862
0.419562
0.3661
0.365136
0.0713992
0.0532858
0.0579431
0.0330086
0.34067
0.766907
0.0612428
0.387557
0.244207
0.166377
0.0495688
0.377195
0.22597
0.0356567
0.230966
0.0175818
0.0979225
0.180276
0.397927
0.163541
0.0730953
0.284591
0.194632
0.0379157
0.0301764
0.387076
0.403416
0.0325391
0.649455
0.490331
0.42471
0.0189616
0.0847968
0.155341
0.0511049
0.267442
0.304435
0.507622
0.0807274
0.0651408
0.395145
0.371252
0.17056
0.0759122
0.440325
0.763038
0.4813
0.0648846
0.528517
0.53044
0.343608
0.0193702
0.331634
0.215713
0.361454
0.349393
0.0244123
0.166528
0.031802
0.382651
0.0425551
0.382568
0.0140566
0.0560235
0.445726
0.240849
0.173064
0.0747625
0.025697
0.306801
0.0897823
0.359168
0.0365614
0.502802
0.0307901
0.301797
0.420053
0.116704
0.243038
0.0876529
0.106174
0.139872
0.0399293
0.342178
0.172601
0.430334
0.0591751
0.181727
0.373254
0.0151086
0.0345173
0.0797963
0.101777
0.0802033
0.252935
0.122057
0.0574021
0.0722429
0.109919
0.0773176
0.0274618
0.0519895
0.0824158
0.0891754
0.34055
0.093402
0.433411
0.075106
0.103647
0.256295
0.0668073
0.324933
0.0376004
0.0485623
0.0676986
0.153937
0.0706266
0.0711622
0.0412017
0.203094
0.053025
0.112076
0.389089
0.0226814
0.0378641
0.235169
0.0678125
0.12062
0.0564394
0.0347979
0.118646
0.362735
0.0765403
0.0471757
0.094659
0.11117
0.11816
0.0450364
0.264748
0.141183
0.0757833
0.384553
0.0314067
0.188394
0.11355
0.267885
0.103108
0.175078
0.0480375
0.0333912
0.0758835
0.0473642
0.419282
0.0239217
0.342404
0.443106
0.287474
0.0684296
0.136601
0.462011
0.0205028
0.227824
0.0755319
0.0709706
0.137607
0.0715512
0.232561
0.0550825
0.226419
0.125907
0.0460757
0.4359
0.510358
0.46995
1.20356
0.0779001
0.0507856
0.0715668
0.122538
0.422213
0.431979
0.142844
0.0691732
0.0533752
0.222831
0.167375
0.0671223
0.0842162
0.2433
0.176481
0.189384
0.0730775
0.0378999
0.142414
0.238591
0.421643
0.127374
0.413296
0.414761
0.0631649
0.176602
0.290413
0.156952
0.0471029
0.346602
0.0216747
0.0833953
0.456591
0.438451
0.0733308
0.113039
0.40134
0.0560687
0.455066
0.143247
0.192305
0.138445
0.123832
0.304469
0.207509
)
;

boundaryField
{
    frontAndBack
    {
        type            empty;
    }
    wallOuter
    {
        type            kqRWallFunction;
        value           nonuniform List<scalar> 
102
(
0.0159713
0.0159713
0.22997
0.0256713
0.0195422
0.0457042
0.0672389
0.0290684
0.0129415
0.0132045
0.0131171
0.0138819
0.0137761
0.014754
0.0453698
0.202129
0.100699
0.0754216
0.0315119
0.0489891
0.029708
0.0296558
0.0904293
0.049205
0.210211
0.0859413
0.0943369
0.026328
0.0223844
0.108335
0.0426854
0.0337451
0.0325476
0.0343555
0.0327987
0.193894
0.194629
0.189036
0.183478
0.0371044
0.178104
0.175228
0.0379554
0.0394639
0.0415327
0.042717
0.0433302
0.0443699
0.171807
0.124136
0.0523145
0.114026
0.16654
0.13409
0.159641
0.0589463
0.143396
0.151945
0.0871805
0.0629493
0.177172
0.0214502
0.0177531
0.0192796
0.0175805
0.0396737
0.245094
0.117565
0.148359
0.055889
0.0594958
0.196346
0.0347422
0.107587
0.104398
0.0726523
0.0333717
0.0676622
0.2427
0.0636216
0.09539
0.0284775
0.119033
0.124909
0.244792
0.0575373
0.0802202
0.103401
0.0675784
0.0603036
0.194632
0.0379157
0.0193702
0.0244123
0.0140566
0.0747625
0.0151086
0.0574021
0.0773176
0.0226814
0.0564394
0.118646
)
;
    }
    inlet
    {
        type            fixedValue;
        value           nonuniform 0();
    }
    outlet
    {
        type            zeroGradient;
    }
    wallInner
    {
        type            kqRWallFunction;
        value           nonuniform List<scalar> 
138
(
0.0308723
0.0246762
0.117802
0.133059
0.257855
0.336516
0.513722
0.207168
0.124278
0.0418563
0.0860737
0.131965
0.0512321
0.233935
0.0460691
0.0741812
0.0583795
0.137691
0.123553
0.134918
0.0771379
0.0310309
0.0365865
0.0430546
0.0177617
0.0479475
0.03631
0.0457063
0.534283
0.0400508
0.0477482
0.0344769
0.0667665
0.031613
0.0527068
0.0224925
0.0600936
0.0195793
0.0492253
0.0950187
0.0630907
0.0196222
0.0713895
0.047674
0.0659341
0.0109452
0.0344744
0.150221
0.0381309
0.11098
0.0613248
0.0406699
0.0304383
0.0583309
0.0164061
0.133857
0.0478
0.136468
0.0820604
0.285395
0.0642297
0.0273882
0.0186825
0.0573305
0.120821
0.025216
0.0304206
0.154956
0.0647225
0.0602738
0.0723412
0.0470351
0.01728
0.0126115
0.195231
0.0243661
0.253434
0.0269299
0.283049
0.211851
0.0829131
0.119806
0.0297299
0.0510048
0.0295428
0.385808
0.133224
0.165067
0.332439
0.18652
0.137975
0.0228175
0.0306647
0.354484
0.0345099
0.0698555
0.33059
0.112375
0.384619
0.0275232
0.0676943
0.0240294
0.0334175
0.0610581
0.0959365
0.15391
0.0689478
0.0220363
0.0272165
0.0265864
0.0241126
0.243283
0.0223183
0.0504816
0.0313904
0.0263894
0.0280452
0.0293249
0.0280372
0.102832
0.173867
0.320169
0.0638776
0.110243
0.144459
0.0289033
0.0302862
0.0657486
0.120381
0.0372597
0.17353
0.227824
0.455066
0.143247
0.138445
0.123832
0.304469
0.207509
)
;
    }
    procBoundary2to0
    {
        type            processor;
        value           nonuniform List<scalar> 
42
(
0.824807
0.824807
0.307645
0.320629
0.472658
0.936337
0.195015
0.195015
0.381933
0.151474
0.419492
0.419492
0.492976
0.390836
0.368421
0.966722
0.374274
0.0976623
0.255869
1.56054
1.50937
0.0811552
0.0811552
1.45841
1.50937
0.0691493
1.0909
0.0756423
1.0909
0.789121
0.590062
0.0799055
0.079051
0.0709239
0.0602694
0.320629
0.374274
0.206181
1.06358
0.0685224
0.0685224
0.0526015
)
;
    }
    procBoundary2to1
    {
        type            processor;
        value           uniform 1.57189;
    }
    procBoundary2to3
    {
        type            processor;
        value           nonuniform List<scalar> 
29
(
0.343218
0.419054
0.236586
0.18434
0.58142
0.546661
0.324542
0.499316
0.375988
0.378821
0.559561
0.779712
0.144154
0.578541
0.424809
0.613477
0.300709
0.300709
0.419054
0.578541
0.401733
0.306594
0.23798
0.37021
0.406259
0.302485
0.375988
1.32079
0.779712
)
;
    }
}


// ************************************************************************* //
