/*--------------------------------*- C++ -*----------------------------------*\
| =========                 |                                                 |
| \\      /  F ield         | OpenFOAM: The Open Source CFD Toolbox           |
|  \\    /   O peration     | Version:  v1912                                 |
|   \\  /    A nd           | Website:  www.openfoam.com                      |
|    \\/     M anipulation  |                                                 |
\*---------------------------------------------------------------------------*/
FoamFile
{
    version     2.0;
    format      ascii;
    class       volScalarField;
    location    "0.44";
    object      p;
}
// * * * * * * * * * * * * * * * * * * * * * * * * * * * * * * * * * * * * * //

dimensions      [0 2 -2 0 0 0 0];


internalField   nonuniform List<scalar> 
1466
(
81.7066
119.694
79.8673
89.2409
84.1175
101.031
79.3979
81.3869
111.211
102.286
79.9302
104.61
111.371
83.4757
100.564
79.0031
81.4625
106.768
109.271
83.5973
90.2794
78.7496
105.244
84.1646
111.396
120.917
78.1076
88.4927
82.0153
117.92
81.9275
119.507
86.8288
84.9297
111.239
82.6382
84.4603
84.1679
101.856
83.8769
79.0141
78.1523
79.9794
80.6092
83.436
80.3763
81.7402
82.4352
102.939
88.8235
101.926
119.466
101.031
84.4747
85.9045
109.729
79.9967
79.0316
87.2294
101.899
121.226
78.744
83.5237
120.086
93.8107
80.9424
108.275
82.6122
114.024
83.4456
121.466
106.32
84.5471
110.424
121.299
111.722
79.2091
83.3914
87.2601
117.495
101.335
78.41
82.411
100.781
83.1291
86.306
84.9615
115.97
100.659
101.405
120.879
78.0114
90.6804
83.927
78.2969
81.9672
119.949
79.7971
112.454
84.2175
101.459
102.19
82.4436
105.089
80.7847
81.5786
101.51
83.3935
81.1421
80.4858
121.117
112.327
80.0243
79.0221
103.129
120.831
78.0833
105.03
79.1045
83.1559
89.0249
80.0658
82.4135
81.7369
83.2334
85.2118
115.355
106.12
82.62
118.996
101.573
78.3368
105.502
84.068
120.458
79.5449
83.297
86.2109
79.0729
83.4113
88.6881
88.5121
84.0397
103.735
82.2777
90.7195
119.373
119.209
118.991
103.068
120.85
119.217
114.761
77.7901
118.985
77.9425
86.5077
84.947
119.149
92.2777
119.208
116.703
81.4785
86.256
119.084
81.5201
83.9979
104.884
86.7002
97.4241
88.5046
118.935
88.5632
114.34
119.767
108.691
118.919
118.32
121.045
122.29
111.864
120.312
88.8608
88.5587
115.122
88.3295
83.0748
100.861
114.09
87.3408
88.3751
121.521
93.7012
97.2593
91.315
121.009
82.037
112.932
120.866
91.5312
84.7091
118.949
117.183
87.2039
121.219
120.741
95.3103
115.546
119.01
83.7693
106.67
84.6275
102.955
88.0498
91.4927
85.0474
89.053
84.7692
107.489
83.8238
105.889
120.873
86.0798
121.067
86.3818
115.442
104.515
82.4578
120.966
120.443
121.864
114.054
101.631
92.8161
102.221
120.863
84.2533
104.198
118.976
88.2135
88.2848
117.188
117.44
99.0596
118.955
116.499
119.803
110.016
117.943
117.385
89.0787
94.1697
114.946
87.2335
118.995
119.16
86.2766
100.296
84.8294
88.5823
101.783
106.197
84.0106
120.505
91.2362
88.6515
119.861
118.902
98.5558
102.391
78.73
83.9529
100.371
118.994
120.784
121.16
120.906
93.4731
87.5793
118.813
119.906
91.1713
91.1446
115.71
89.4952
87.8077
118.965
119.19
87.1738
111.606
113.633
83.0932
111.898
87.3585
95.229
97.6433
81.913
88.4651
118.778
120.13
82.4347
100.748
121.63
111.142
84.0501
83.7801
87.3736
86.7943
110.567
88.1299
114.671
106.048
83.4968
120.333
120.136
119.609
89.128
120.946
87.6231
100.479
99.8147
82.2751
86.2705
120.144
86.6894
109.056
88.2213
125.707
119.754
120.485
107.113
110.342
78.4702
98.5795
89.6631
91.5151
87.9064
119.088
88.3566
82.4195
82.9909
115.311
85.5202
134.882
96.956
121.445
115.255
124.834
113.545
89.1529
95.0164
94.8503
90.5261
88.6215
88.7505
89.6442
82.0555
84.2038
103.179
117.955
88.1346
90.9574
92.9457
87.7256
87.4555
109.609
114.528
113.929
88.5571
96.2782
104.185
91.3807
137.252
101.089
78.4257
85.349
104.988
127.403
83.0871
92.4138
89.0252
88.2936
88.4929
87.7522
86.2379
87.2217
83.5504
83.2913
86.7631
87.7002
84.1557
85.5176
87.8634
85.1174
86.8802
86.2143
87.5339
116.551
86.3976
86.7825
87.4254
87.7351
104.188
80.5865
101.966
78.3543
103.956
102.401
79.4727
77.93
100.609
106.378
104.187
77.9817
103.155
82.5737
82.163
102.154
100.709
78.996
77.52
77.7171
78.5692
103.889
78.677
83.3253
77.6438
141.615
78.9748
82.9889
100.624
86.1285
88.0519
82.0891
119.636
86.4358
87.5412
86.3443
81.7501
100.8
87.3267
83.45
100.872
87.4896
119.886
79.3787
111.903
120.119
80.3248
101.852
120.357
81.8571
83.6254
111.784
84.3671
83.6405
79.0455
82.6355
83.6605
120.184
87.0924
83.7026
80.1933
81.3186
104.15
81.7311
85.1418
83.5009
83.666
86.0129
83.4586
80.8256
104.022
81.4688
120.378
82.4051
82.2645
88.4333
92.1574
91.5027
96.7337
80.8611
83.8859
91.375
91.8816
114.844
83.6212
82.565
92.1484
93.4684
92.4413
88.2963
79.5826
84.7567
87.5083
85.2826
85.1782
85.5166
121.16
88.1024
86.9471
87.3122
82.4823
106.144
81.9334
87.7963
114.295
120.519
84.5206
85.1016
119.335
90.8355
87.2831
89.6609
84.7468
88.0068
83.5052
112.052
113.138
78.8207
86.116
84.527
91.0079
120.218
89.5251
84.3336
83.9342
87.8099
83.9781
90.2791
86.3526
79.2315
90.1789
85.0774
85.2028
83.5159
98.5124
123.263
83.7667
82.7619
114.973
105.556
82.8883
87.3243
84.0584
102.272
84.5023
102.935
90.5921
120.639
83.8989
85.9038
82.9986
85.2227
86.2217
84.3927
84.6744
88.5349
88.187
106.899
89.1836
89.9248
120.039
127.724
113.15
87.0574
84.8014
89.8254
131.741
85.8148
87.0686
88.8138
119.002
119.562
87.5254
87.4614
96.9001
85.5562
85.2287
83.3758
90.1098
85.4974
85.2703
87.704
88.9292
88.5637
87.8243
108.49
85.1074
87.6876
83.7527
107.195
86.9856
85.3713
89.6106
83.5054
105.942
91.5389
89.1897
91.7868
127.851
103.908
97.0514
104.892
105.313
87.8475
119.714
81.0634
102.571
88.0161
86.5719
85.8262
111.827
95.3898
82.6105
119.003
119.163
120.085
114.673
86.1642
110.654
87.9406
119.333
99.5798
113.018
85.5982
86.3702
88.0907
89.4122
85.0348
92.1848
113.016
114.769
97.1798
85.9841
106.536
87.5259
89.1701
119.527
87.9944
89.0348
111.025
90.1164
120.97
87.7743
102.505
88.4973
88.0111
88.8305
116.603
86.703
112.498
121.418
88.2317
91.9966
88.1771
86.9484
86.1461
119.496
106.4
91.9791
113.718
86.1786
106.094
92.5852
118.89
84.2434
119.393
107.39
85.4503
87.3198
118.989
89.0523
83.8944
104.191
82.8925
100.521
121.276
79.2744
111.366
86.8751
84.0723
120.792
107.886
118.379
88.3274
117.761
118.853
91.0206
118.717
90.9215
111.573
108.561
102.892
118.232
118.896
100.419
85.6841
117.434
87.8577
88.084
118.037
118.796
119.948
88.5129
88.8318
119.16
86.1339
118.929
88.8773
86.5673
107.952
84.3867
91.5853
88.4431
84.0896
88.8508
88.5883
90.2119
118.704
111.564
78.9175
107.286
82.958
86.559
86.5155
87.4961
85.2392
89.031
121.234
88.003
82.8264
84.8833
83.4137
108.92
119.829
87.3559
88.4974
79.6331
92.203
84.8773
100.485
86.8876
82.099
83.1766
79.4014
116.255
121.492
86.8413
116.061
87.0613
84.0218
120.877
87.71
83.6629
109.378
85.4423
88.9607
112.662
101.529
84.1588
86.0785
121.024
120.469
92.8075
117.591
86.7146
109.394
106.957
88.7168
119.515
86.02
82.566
79.4861
77.4841
87.6251
123.066
118.506
87.228
104.562
85.1126
86.2641
88.3809
86.6274
90.9033
83.2312
100.499
84.6989
88.5315
96.7643
89.132
92.4641
87.7028
85.9756
119.314
111.96
88.0337
79.5255
77.184
84.4064
86.389
87.618
85.7503
80.6896
90.8987
88.2447
121.494
112.504
77.5544
90.0385
86.8937
94.6896
107.307
82.629
121.074
81.0126
87.5608
87.2313
120.532
89.1599
104.844
88.2836
87.3571
118.691
83.3184
78.6298
87.7051
110.655
112.66
107.679
117.837
88.3039
86.144
78.5857
79.556
101.904
101.467
118.617
86.0114
86.1128
86.5187
88.1244
88.4106
79.6322
83.207
102.717
115.817
85.3769
120.013
87.8686
82.7033
114.766
86.9087
84.5945
88.2793
119.059
117.35
119.749
101.087
88.1801
92.5779
85.2042
112.105
88.8081
121.113
85.7555
84.4561
87.5065
119.602
84.6667
88.197
120.91
87.6629
119.077
92.5662
86.3507
88.0607
83.901
83.1829
84.7672
85.6572
83.3445
87.0754
84.2516
92.1167
106.682
107.881
93.5858
91.1696
90.2583
95.5674
106.431
110.561
100.799
98.229
114.452
118.407
122.291
121.15
89.3552
88.6293
88.287
85.0295
112.873
111.663
121.079
86.9671
86.6726
102.355
86.4553
83.2101
100.813
88.3576
105.615
86.9631
100.503
116.673
109.285
102.402
86.8477
87.6946
119.572
84.7594
120.008
101.825
88.3174
80.1665
88.4663
80.3726
82.8905
99.3761
118.997
110.979
87.8951
100.946
86.119
86.041
81.0113
83.2787
78.8903
84.1885
118.947
118.244
86.7595
78.5106
83.3823
119.466
107.378
113.557
111.085
120.982
101.509
118.359
77.9665
88.3663
90.7493
121.185
100.794
78.6469
128.689
88.1435
105.93
87.9775
115.324
83.7631
104.887
88.0757
101.183
88.3461
84.4173
82.0053
86.1364
79.2511
87.133
120.234
120.135
120.902
86.1216
79.3574
120.161
82.0321
84.6707
104.605
86.2012
112.403
88.5647
88.7129
120.685
105.776
83.3549
120.544
81.0284
101.545
106.601
108.486
108.45
118.427
87.5116
83.2051
101.81
89.2232
91.6051
91.1298
112.506
122.499
78.6555
83.2196
81.6937
103.012
110.862
83.9758
104.686
87.5339
121.025
84.2274
88.4181
80.7043
119.371
119.384
87.447
105.296
89.1695
78.1764
105.2
87.5351
106.853
83.0606
105.573
84.1313
83.0179
79.0657
93.4916
120.702
118.917
88.2306
84.0041
119.722
121.206
92.1214
111.307
120.706
114.112
81.9705
83.3125
114.824
77.1241
121.579
120.684
82.5794
88.142
81.3274
82.4199
120.04
84.0167
113.983
84.4483
119.134
119.061
119.27
119.868
86.3698
100.056
117.069
114.391
121.14
88.7459
122.722
80.4182
81.9829
121.648
92.2542
89.4281
120.608
86.0942
119.752
79.579
103.81
119.875
119.616
83.0843
82.8399
112.674
87.0243
120.254
119.987
120.373
120.124
113.696
113.357
119.171
119.236
119.337
119.472
111.144
91.8976
87.9077
119.27
119.615
85.5342
88.1873
120.397
105.876
82.3881
88.9809
78.4455
83.3433
79.1393
88.6343
117.232
88.1698
88.7236
118.957
105.775
119.832
118.77
121.962
111.515
112.428
89.4914
87.3408
111.218
121.383
110.139
83.5914
106.003
110.562
77.5869
119.742
118.022
100.709
114.166
116.449
101.11
80.8007
84.3183
88.0607
118.843
82.537
85.656
78.1798
87.3914
77.0395
81.6607
102.026
115.726
96.9562
101.236
84.8131
86.0499
101.32
86.554
112.921
112.531
86.4185
118.958
81.2475
119.665
102.136
123.401
87.7728
111.557
98.1978
105.685
82.7185
87.5238
92.4091
115.949
82.0423
94.0628
83.3043
78.7167
87.5309
85.2127
83.3398
84.123
82.7466
116.196
91.7563
80.6283
80.0554
92.5994
111.21
120.311
85.6885
78.8965
88.7101
87.1688
85.9558
84.9959
90.4487
87.0316
87.2823
81.5905
120.945
78.7086
101.516
102
113.006
118.831
121.018
117.959
119.042
100.849
115.924
116.269
119.475
104.571
110.389
86.3521
118.933
83.9858
121.02
120.916
80.8898
82.669
107.989
102.365
111.689
86.4773
86.1309
88.4522
78.3353
107.807
109.449
92.2889
87.354
80.7454
101.364
101.099
81.1018
92.3775
118.623
103.364
85.1497
85.4263
84.1971
80.0465
102.512
81.6877
101.24
87.4216
80.5896
86.1651
91.3483
119.098
119.709
104.227
83.0038
88.6194
86.9574
110.941
84.1095
85.9636
117.674
85.815
113.24
80.0947
101.868
86.3265
85.9838
90.1672
120.25
88.1866
120.906
79.0473
92.556
87.0649
86.3796
89.9355
91.381
111.456
119.649
102.209
119.075
88.26
84.6668
116.71
88.1112
79.2037
107.295
82.1241
104.517
87.6439
119.469
121.386
112.558
79.2275
85.5205
86.5744
109.037
88.4858
85.7315
105.635
84.3637
85.9295
103.304
84.1158
104.098
112.19
103.908
83.4678
89.9311
100.647
88.0998
78.0847
108.478
82.7169
106.834
86.968
77.832
85.0322
83.4422
79.8141
83.0715
78.9781
119.763
88.7702
107.9
120.884
88.7645
79.1832
115.49
88.6939
78.1353
121.602
114.118
121.7
108.736
83.4058
77.8538
121.262
108.509
120.825
88.7362
85.0656
87.1671
78.3819
80.6968
93.8075
88.1005
119.958
88.6972
119.672
82.4943
81.1062
108.606
118.374
118.594
87.4189
118.752
103.676
119.486
118.68
89.7441
81.3092
117.934
103.166
118.951
117.696
118.485
88.9035
119.985
99.017
121.284
117.174
93.2589
89.0148
121.423
121.58
120.486
118.885
88.3063
114.747
120.341
96.3126
122.868
120.198
81.384
120.362
79.0941
79.5162
79.9562
78.3089
79.1377
77.1197
87.6002
88.8961
100.991
117.198
121.964
85.4177
113.368
84.396
89.8247
89.5086
113.347
100.659
83.4985
84.2709
120.185
82.3864
101.304
119.198
85.3521
119.681
106.137
83.3825
116.222
85.3476
89.4768
120.462
88.4793
79.9519
78.7671
80.3129
103.256
87.8836
79.5827
80.4191
116.917
119.623
119.129
119.295
119.929
120.306
111.963
117.835
103.735
85.8632
120.27
108.765
83.1494
119.983
83.7071
103.013
85.0759
83.9704
85.0026
84.2788
84.3959
80.375
84.1444
88.8688
103.555
81.5358
88.5002
104.339
132.367
99.0256
104.744
115.63
121.667
112.118
110.19
108.901
79.5374
79.8788
83.7589
83.5033
82.9918
82.2225
104.326
80.76
119.191
119.521
120.081
)
;

boundaryField
{
    frontAndBack
    {
        type            empty;
    }
    wallOuter
    {
        type            zeroGradient;
    }
    inlet
    {
        type            zeroGradient;
    }
    outlet
    {
        type            fixedValue;
        value           nonuniform 0();
    }
    wallInner
    {
        type            zeroGradient;
    }
    procBoundary1to0
    {
        type            processor;
        value           nonuniform List<scalar> 
29
(
82.4777
82.4777
80.161
79.7602
78.3083
78.8726
110.366
82.0657
83.9159
80.3133
81.2091
78.8726
80.161
82.1281
111.062
111.492
78.3083
78.5433
79.7602
82.8611
111.708
111.76
79.3201
110.509
110.509
79.3201
112.408
110.482
112.408
)
;
    }
    procBoundary1to2
    {
        type            processor;
        value           uniform 83.4203;
    }
    procBoundary1to3
    {
        type            processor;
        value           nonuniform List<scalar> 
48
(
83.83
83.9962
83.9761
83.9761
82.8318
82.7565
82.7565
82.8251
83.9964
81.35
79.1629
81.35
83.2438
83.4562
83.4787
83.2438
82.4638
82.4638
81.1757
81.1757
82.3502
81.8391
80.6966
80.0282
80.0282
81.0098
81.8416
81.8416
82.1706
82.2916
81.662
82.1706
82.8251
84.2591
80.6902
82.2916
83.6411
79.1629
84.3736
82.7306
83.1205
84.0291
84.2591
80.6902
83.4491
83.6304
82.6456
83.1205
)
;
    }
}


// ************************************************************************* //
