/*--------------------------------*- C++ -*----------------------------------*\
| =========                 |                                                 |
| \\      /  F ield         | OpenFOAM: The Open Source CFD Toolbox           |
|  \\    /   O peration     | Version:  v1912                                 |
|   \\  /    A nd           | Website:  www.openfoam.com                      |
|    \\/     M anipulation  |                                                 |
\*---------------------------------------------------------------------------*/
FoamFile
{
    version     2.0;
    format      ascii;
    class       volScalarField;
    location    "0.79";
    object      p;
}
// * * * * * * * * * * * * * * * * * * * * * * * * * * * * * * * * * * * * * //

dimensions      [0 2 -2 0 0 0 0];


internalField   nonuniform List<scalar> 
5794
(
90.9168
92.4882
89.2494
91.5401
92.3297
90.5976
88.517
89.7159
87.8454
93.3672
123.519
87.7779
85.9923
89.9807
93.5735
92.1808
38.5589
90.8258
93.6366
92.7385
90.9222
90.7832
86.7289
91.6847
88.9159
44.7684
44.3338
91.5998
90.2801
93.1852
90.3144
85.014
103.757
91.7453
88.1277
86.7423
96.6055
88.4999
86.3218
90.3677
89.9043
91.9071
114.745
88.9426
93.6609
105.065
86.5587
88.893
93.1685
89.0907
92.0056
82.1183
88.9596
93.136
93.0823
107.339
88.3468
87.9312
114.908
39.849
102.271
92.8746
89.6532
84.8592
103.311
92.727
88.9806
89.2994
90.7469
92.9076
81.2776
89.3244
19.5733
89.5473
90.4423
91.5892
90.795
50.8202
89.2572
92.546
90.5306
92.4722
89.7427
87.3822
89.6213
90.429
84.6819
109.189
91.4355
88.4987
112.313
87.5857
88.9241
91.2289
90.5148
81.0111
108.059
89.725
87.8189
103.186
79.0903
85.6731
114.918
91.8483
94.0362
89.2556
92.8735
124.787
80.4556
89.7456
91.7751
93.6525
72.6496
92.7075
90.0894
89.5944
93.3741
89.6302
101.412
90.4663
89.5052
93.211
89.4002
91.5486
93.648
121.539
87.6082
91.0692
84.0243
123.327
90.5121
89.5631
86.2034
55.0126
89.6519
93.5236
114.851
92.9184
92.1225
91.892
89.9389
93.4889
93.7144
93.5486
92.1015
51.8802
89.9432
112.803
92.9091
93.9534
119.55
93.2219
89.6323
88.9917
47.3613
85.4125
88.3612
90.1766
104.614
89.7397
93.5278
89.1771
91.973
87.1152
80.4339
82.1083
87.9803
89.9565
91.8601
93.6406
93.3795
81.7296
86.9395
88.7899
91.7812
86.8162
93.5091
88.7375
91.8792
84.2615
90.0827
86.9731
88.4331
105.667
89.2842
46.1667
85.4089
104.619
93.2373
85.7826
123.259
85.3252
103.77
90.6137
89.8544
90.8236
89.6319
91.9689
93.7294
113.155
87.6317
81.304
89.938
89.7537
86.0709
104.694
90.4072
125.074
85.4006
87.3072
90.8682
95.6694
87.1052
89.0377
91.5077
88.3506
86.6967
86.7359
123.907
96.3763
95.7599
84.5487
110.951
89.0353
109.676
39.2259
89.4137
93.4541
93.2817
93.4314
87.0476
89.1006
91.5453
81.0951
87.6411
51.7641
69.0758
117.47
86.6639
90.5561
92.3955
125.168
90.6551
89.6511
88.3677
91.7161
93.7385
93.032
109.099
90.1335
87.7738
92.6156
43.9817
92.6138
117.863
85.4995
113.853
113.806
125.121
93.6129
115.31
87.4039
89.5331
92.821
88.4575
89.3506
93.9025
121
93.5824
104.129
85.4832
90.3253
90.4103
80.5055
97.0742
93.4514
93.1309
89.764
93.1725
85.7338
91.9557
103.418
90.0234
91.7782
89.8405
89.3662
87.501
90.8759
86.9197
89.711
86.7657
88.4294
91.5004
93.1625
110.774
54.6618
89.7998
91.8487
87.7329
92.8072
92.525
79.239
90.509
89.4906
88.7759
119.42
93.1632
89.1349
103.426
84.937
90.5178
104.041
90.2303
92.7312
96.5026
98.5358
124.734
91.5612
80.3474
91.3686
89.2319
88.7978
89.3241
92.5699
92.1544
83.7027
89.3513
89.2315
87.77
123.771
82.2
116.036
90.5638
104.167
85.148
93.3117
93.496
91.9354
93.1924
104.874
91.7782
88.9025
86.4991
86.5588
93.4639
88.3072
107.798
88.1442
82.8387
88.0073
85.6711
53.7556
104.253
85.9796
89.4183
42.8061
93.8027
83.2809
88.0979
89.7587
124.978
86.6859
115.869
88.0502
89.7814
93.17
81.2419
105.867
87.1618
88.4993
93.2413
92.7873
93.169
93.1617
124.675
80.3979
107.622
87.9633
89.2321
93.1674
90.0846
93.2515
96.9117
86.8243
88.3219
91.8764
89.995
87.9698
89.5704
88.4558
89.8339
87.9478
92.8801
91.862
87.04
89.0163
91.7304
88.6259
93.5214
87.0464
91.6684
88.5998
48.926
91.725
93.6826
118.808
88.7741
90.6983
92.8342
108.712
89.0972
86.7624
122.668
81.9094
104.379
85.659
90.3516
92.2754
80.6579
108.272
87.7211
89.7235
124.304
93.2238
86.8621
88.5883
91.9079
92.6908
92.5059
90.6794
81.7907
96.921
93.8793
73.7361
93.7419
93.3607
90.3434
89.4767
86.932
88.6634
91.9176
96.5277
90.0621
90.7915
89.6182
89.3905
90.0014
92.1401
88.6533
89.6538
93.5281
92.6852
81.4983
90.7191
89.6177
92.8635
106.539
84.2896
90.0537
91.7551
90.8578
92.7979
88.9538
91.7372
104.129
123.184
47.6925
90.0799
122.979
89.6429
92.8902
77.9498
122.639
93.2775
93.1747
105.767
62.4517
91.3855
90.1002
92.7815
89.3712
90.8294
93.2996
93.3336
124.683
123.028
95.4011
89.5856
53.1606
90.6161
92.5532
90.2221
89.0384
92.7973
88.8354
91.8761
93.3428
93.2509
92.1623
118.202
89.6209
61.7799
98.7134
83.2046
93.6743
92.8081
90.9079
112.77
122.684
92.7262
80.2331
93.1635
90.0269
92.9282
92.816
89.3016
89.1081
92.9705
95.5601
49.4499
90.7058
92.7967
91.6084
90.2369
122.92
92.3302
90.9842
94.7795
92.7858
90.8415
89.4619
92.7992
47.2345
93.24
93.1567
88.8821
96.6418
113.033
123.006
114.708
90.6847
75.7595
92.6075
88.7942
89.2473
92.1461
97.1305
93.6592
92.7355
90.434
92.2667
93.223
93.6003
89.3271
91.8171
93.7209
89.1886
90.8559
92.8119
93.5082
22.8622
93.289
120.19
93.1986
89.5571
89.5669
92.2044
89.121
90.0991
92.7691
105.035
82.1522
81.6544
90.4902
49.948
94.037
90.1907
88.8129
91.8889
89.8452
89.7598
89.2895
122.516
50.2725
83.5245
107.899
92.6822
89.6198
87.7319
107.644
92.7452
92.0054
92.9254
88.5472
89.3864
100.062
93.1235
96.2305
92.9289
88.5953
90.3262
105.871
90.0286
89.4598
92.8468
122.625
56.9539
93.4467
93.0729
90.7788
86.9469
84.2535
90.8707
88.6816
89.889
88.836
117.781
123.489
112.03
89.429
92.7699
122.595
121.932
124.91
92.8611
92.2298
93.1724
93.1391
125.856
92.6707
90.7686
92.4369
92.6315
90.5483
92.7789
93.3452
66.2728
96.3721
93.1734
91.8457
89.0283
115.387
124.122
87.7489
113.988
89.5547
90.3442
103.267
93.2102
93.0522
91.12
90.788
93.2328
89.17
90.1816
118.57
48.9528
88.8314
37.5899
92.6349
93.1827
93.2815
90.7683
90.2302
92.7447
90.6007
89.0899
89.48
87.7066
103.6
117.556
88.6301
41.092
88.8637
90.1756
89.9409
89.1409
89.2994
89.9561
90.6004
92.3612
125.329
93.1967
92.1613
93.3276
113.547
93.1453
93.2481
93.1956
92.9917
91.1213
98.8322
70.5882
90.2079
93.1751
93.7807
124.878
92.7258
90.7905
95.6436
93.1564
85.9939
92.7463
113.904
93.5822
116.4
91.2867
93.3893
93.2286
124.24
115.128
92.6565
90.1253
86.776
122.606
94.5075
98.1789
44.4826
120.745
89.3744
125.011
67.147
113.476
93.2452
87.8553
88.6652
112.298
97.2076
124.251
99.6496
90.0579
68.6348
96.7187
119.101
93.1709
88.6405
35.9971
122.745
87.7019
89.3031
109.607
92.8877
90.4982
88.7283
88.6301
89.8032
87.763
105.666
88.7188
96.5339
92.0002
89.958
93.219
92.8919
90.0377
89.3495
97.9097
92.5592
90.443
107.144
89.4711
70.7834
90.0198
90.4617
89.8597
89.8681
88.4008
110.562
88.8294
89.6365
88.0059
108.614
93.4711
93.2246
93.2007
93.0672
92.3868
90.9724
92.3788
90.3665
124.699
47.3195
89.0051
90.8744
92.8119
90.1499
88.5368
124.933
88.9801
89.4493
91.9881
118.778
107.212
87.2985
88.218
88.6806
92.601
72.0449
90.6601
60.5151
94.8023
124.834
90.1694
93.1898
92.1665
93.1904
124.28
125.609
117.506
103.576
90.4823
89.8717
90.9432
105.756
95.3854
91.8073
86.3198
104.907
124.499
92.8279
90.8444
88.8409
111.655
50.3787
92.6911
97.4097
93.2059
93.3273
93.2274
87.7492
89.7057
106.985
96.1509
93.2462
90.1156
93.3605
92.2616
39.7628
89.1853
92.3428
88.5899
92.8719
122.687
92.1926
98.1023
92.8511
90.1547
103.77
96.5636
77.8413
89.905
89.0154
90.1399
88.9075
120.676
121.071
50.1179
89.4009
92.8643
93.0505
103.947
93.4204
89.9382
93.1766
100.826
90.2176
74.6559
122.633
93.2405
91.5619
92.1086
95.9234
119.981
90.4503
57.9385
93.2005
93.249
59.9788
106.815
95.6054
88.4564
89.5569
123.641
113.408
92.7795
93.2424
86.5179
121.494
90.2799
96.5033
121.019
89.9355
90.2381
89.8421
89.3556
96.7319
92.8381
90.6258
92.4997
93.5692
92.7532
93.2251
92.8116
90.5379
118.491
92.8275
96.3302
92.7226
89.8059
89.3463
91.1116
93.7415
122.723
122.947
57.6411
89.2381
89.5487
96.6514
92.6445
53.5546
103.202
83.7843
116.288
90.0577
87.7736
90.4791
89.6987
89.3253
104.428
88.71
88.6702
88.6423
90.0449
92.8872
116.224
93.3685
90.146
108.925
87.6036
89.7687
93.6057
110.726
92.8114
90.8256
93.1601
92.7684
83.699
124.337
108.375
96.5618
89.854
75.9199
92.6512
90.68
82.1776
45.6655
96.9688
88.683
100.496
93.6933
93.188
92.0752
92.963
88.9486
89.9605
92.7909
92.8043
90.2706
93.1521
92.759
92.8582
93.0575
96.3272
91.1453
97.2063
93.1879
92.7413
108.594
96.8728
89.875
91.7178
87.3723
92.6253
123.654
98.8328
89.4704
93.1386
89.2686
122.569
93.0926
96.572
90.3043
93.1905
96.5673
69.2946
95.8094
86.6157
100.936
92.9131
97.2498
91.3599
93.1646
109.644
72.0627
89.8226
100.221
92.0626
90.325
92.6884
92.1992
101.496
105.379
48.9145
78.8151
91.109
92.6295
89.8578
89.7771
87.2922
102.961
113.133
92.878
90.8069
92.7719
90.1286
96.799
93.6411
94.9937
91.5835
96.2801
96.9307
97.9456
91.8758
92.44
90.9427
93.1034
91.9102
122.716
92.9069
96.4799
89.104
92.8365
93.3649
93.2503
88.4776
124.613
92.8471
125.011
92.7343
98.3687
124.766
92.9796
91.6207
109.01
92.6539
92.0081
90.7491
92.9894
89.2472
88.8306
90.8485
92.7868
88.9471
93.1049
92.7122
95.8243
93.0684
93.128
91.7331
88.5255
86.837
96.0077
104.638
102.486
88.8524
89.6971
93.1709
92.9824
90.6853
91.9
89.8691
89.7267
93.2051
116.559
92.863
91.0352
93.2168
122.443
93.1945
83.3433
90.1817
92.6595
97.4235
89.9314
92.1929
88.4863
93.9159
96.2678
96.7774
92.7104
97.265
92.6277
92.6761
89.0741
92.8121
90.881
90.9975
93.1126
123.75
93.4495
56.3264
93.1928
90.7208
92.779
96.5071
90.9766
100.596
93.154
91.6868
95.4594
102.576
85.0906
91.4679
92.6524
92.4946
90.8171
90.4975
93.0859
96.6528
93.5063
93.6143
119.159
112.722
91.7946
101.46
100.464
93.191
89.298
87.8793
92.9455
31.3748
96.8689
92.892
93.1209
122.627
122.894
93.6295
92.2693
90.7647
89.5694
89.1523
92.7871
91.3733
89.1766
89.9323
92.0201
89.9094
90.2255
93.0658
88.4662
89.5119
90.4903
93.6431
92.7465
88.537
90.7862
86.7189
89.6074
90.2592
102.399
103.456
97.6756
94.421
96.4769
102.274
93.2181
90.1016
93.3446
103.988
99.1124
92.4462
90.6414
115.008
91.9103
117.055
89.5739
88.7801
101.89
88.594
115.425
105.374
89.7803
89.2002
96.6995
111.3
93.0473
90.3501
92.6133
55.7778
92.8788
93.1548
88.6998
90.5792
92.7884
97.8128
93.2563
115.651
91.7527
88.9274
100.16
89.6667
86.6556
93.1876
93.0383
89.864
88.8876
122.417
123.984
88.8098
96.6451
92.6387
90.73
88.5918
85.2223
103.506
125.339
114.572
97.1308
93.2078
92.6902
91.7583
89.7811
96.4926
89.2135
88.8324
89.1874
93.0549
90.882
75.4863
91.3257
54.7508
90.1853
92.7455
113.763
97.4737
91.899
93.0999
95.9849
89.5114
93.2126
92.917
91.9062
90.9078
92.777
88.8829
89.005
91.5431
92.8709
91.9895
90.3134
88.9846
78.2064
88.6363
118.121
95.8804
89.2184
93.1875
90.4566
108.706
88.4159
89.471
90.0761
92.8598
124.14
51.6348
88.7645
93.1537
93.2385
83.8427
93.2011
90.2509
91.5249
91.4898
88.5531
90.7159
89.843
89.9488
92.6669
93.2237
92.7058
96.4253
89.898
93.2102
90.2052
110.168
97.1789
123.888
123.314
90.4269
93.0417
91.5743
93.2028
124.672
89.4976
88.6118
89.7692
92.9308
93.5083
92.6971
88.8356
90.6887
89.9493
93.1441
90.0232
93.3556
41.5373
88.4361
36.6273
49.4425
90.065
96.261
93.0778
89.805
92.0906
90.7834
89.6538
90.1503
92.1389
84.7027
103.225
102.396
89.4759
90.3046
86.8495
86.4788
93.212
93.1498
90.2378
123.987
93.1862
89.9856
93.1933
93.0838
90.2809
112.335
92.1316
89.977
88.9677
89.6185
88.3891
88.6434
93.1836
93.0772
96.5197
89.8432
129.599
123.572
92.805
40.3353
124.279
90.5383
89.2165
93.2513
101.385
93.2589
92.7023
90.6896
88.851
10.8159
97.208
90.009
85.1071
109.532
55.8365
113.693
88.8408
90.6773
92.6648
90.35
92.1771
88.9383
89.2824
92.7388
89.1679
92.0815
92.1588
89.555
88.9297
90.5757
92.551
92.1607
88.9374
89.2352
92.2181
88.8681
89.6072
90.6906
92.628
93.0003
92.1425
88.5777
90.0832
90.3914
92.146
90.4536
88.9358
89.6193
92.5774
90.8108
92.7042
90.5636
92.1595
88.8604
92.6316
92.1579
90.346
92.7938
89.8046
88.8458
87.5026
85.513
55.5453
93.2021
91.7473
101.285
92.0855
92.908
93.2297
92.9934
94.0278
93.2183
89.5925
90.0816
48.934
89.8896
90.2376
89.5242
93.1286
93.1217
93.159
90.3076
90.0186
90.0849
93.2005
89.0601
88.4356
92.0155
122.82
93.9399
90.1574
89.1745
88.8418
45.0895
93.2482
88.5226
89.501
105.397
91.1148
89.648
89.2976
90.5966
118.831
93.3437
89.3864
89.4787
90.4549
95.9551
95.2088
11.5396
93.2513
89.6937
92.2444
91.2939
92.8861
93.2234
139.015
90.377
92.6527
92.1749
89.2588
88.9006
90.4475
89.1958
92.129
92.6754
90.3638
92.1362
88.9174
89.7037
92.8921
88.7297
90.3451
88.8997
89.5398
92.5685
92.2191
90.6547
90.7471
88.845
92.6877
99.566
88.2888
125.196
108.307
89.8008
95.9523
91.1166
92.938
118.7
92.9524
93.2176
128.645
92.8822
90.0026
93.1895
92.8937
117.013
93.3443
72.6782
91.5495
93.7454
93.055
91.7028
97.6337
93.2277
91.9773
97.4953
93.1576
93.213
89.2416
92.1569
90.2858
93.2392
90.9437
87.8333
93.2025
91.0251
92.9544
91.1628
90.2072
93.023
93.1558
90.1615
93.1734
93.1906
92.8233
93.2542
92.0995
96.9135
89.5167
86.4216
90.2617
90.5365
80.6966
93.1021
96.5877
106.231
90.2689
121.483
88.5271
92.6828
93.9745
89.5046
92.2141
96.8341
93.2525
92.1598
89.8513
89.6077
92.7796
90.0008
93.3604
93.0552
90.4479
90.5325
93.4506
93.3815
93.1738
95.477
92.1003
92.254
87.4361
92.1254
92.4096
90.8386
93.2529
89.2319
93.0562
88.7278
93.1495
90.7982
115.414
89.988
89.334
90.7134
93.0766
90.2127
92.6334
93.2486
89.3755
90.642
92.6041
112.261
89.682
93.731
91.3586
89.4017
118.026
117.387
90.9542
93.5675
90.2447
98.889
92.7665
107.068
93.9115
141.495
89.1806
86.0795
103.884
114.521
85.5106
87.6603
89.3445
129.496
87.3867
107.769
89.0418
131.338
89.2726
88.6581
29.2289
89.3149
90.807
90.4659
92.4972
90.3779
88.8658
94.9036
90.1854
92.8873
88.5636
89.5845
89.4594
88.8013
88.7063
89.6272
88.7741
89.1442
93.2494
89.473
89.9961
88.7918
88.7866
89.6803
88.7143
90.5356
90.4168
90.6016
88.5667
88.1059
89.3283
47.3322
88.7739
89.7437
89.4584
88.2628
93.1887
93.2128
89.075
89.3234
91.2253
93.2181
93.2392
88.8761
89.2421
88.7327
88.426
89.4423
87.6423
89.1427
90.4717
90.036
88.6629
119.991
90.4264
89.2655
93.1232
88.7967
93.1874
88.6813
93.2036
88.0535
93.162
93.1592
90.0612
87.5226
89.0607
87.7917
89.237
93.3587
107.106
93.3441
86.4939
85.0728
87.8215
104.81
80.6074
93.3294
106.787
105.056
85.4372
81.6263
91.9055
93.5059
80.2842
103.345
109.35
93.2911
88.1475
106.972
80.2913
105.95
93.4573
93.4051
93.5494
84.8924
88.937
51.6145
93.3817
87.5686
88.6518
93.2996
84.7744
91.9341
88.7788
104.853
103.449
86.9401
51.7168
79.865
93.5645
80.0331
93.2407
88.1957
86.6228
91.892
106.616
89.3389
51.4403
86.7951
88.1226
91.8774
80.0063
48.5917
93.6599
145.905
80.6778
89.0919
86.7104
87.9568
93.6999
88.5691
103.399
85.119
80.9256
48.2896
48.2156
88.5975
88.5804
89.6157
90.4577
90.3408
91.6802
91.8439
84.3896
90.1949
88.507
92.9331
123.457
88.1721
89.0949
90.4648
87.8864
90.0834
93.2298
90.1901
91.7195
88.7512
88.9365
90.0503
91.2375
91.5673
86.6978
88.0703
93.7483
92.44
90.0715
89.819
92.9464
92.7689
88.3993
88.4295
90.7471
90.6481
93.162
87.8747
85.369
103.567
90.375
87.621
89.0063
90.6802
93.2168
92.9979
88.4722
91.468
92.5714
92.4514
88.2115
90.5325
89.7376
47.704
93.1406
89.6484
91.6945
93.3285
90.5162
90.1105
88.7152
93.1915
91.1532
93.0175
92.3523
91.8769
90.7108
89.9155
93.6398
90.375
93.1527
91.3847
93.2145
93.1997
89.7806
89.9584
90.164
93.9487
93.1635
90.5675
91.6001
89.8763
89.1681
90.2163
92.7829
88.6071
90.1866
93.2827
85.5776
87.2803
103.646
88.2279
89.1678
90.3895
93.1826
93.1644
123.722
83.6687
87.7138
89.6327
93.3728
89.7682
88.4062
91.4608
86.7571
93.4647
91.7282
93.4316
46.4316
115.512
91.3354
89.4382
87.1252
93.8689
88.7238
90.2029
92.6302
123.955
88.0652
89.5627
88.8956
91.69
88.8127
90.2477
92.5455
104.629
86.5617
86.887
124.182
84.6851
88.4193
89.4257
88.6083
44.8476
115.377
91.2879
86.9217
89.0945
88.7044
93.8791
88.6037
90.2256
83.6161
85.6982
91.6516
88.8262
90.2808
92.5111
87.8209
88.6526
90.5774
124.022
85.3658
92.1654
45.1257
49.1455
89.4225
115.365
89.0594
90.0527
88.8189
89.0726
93.9458
93.8675
87.0743
84.252
91.6539
88.7949
88.5289
106.907
87.2131
112.793
88.3764
89.3438
90.3666
93.1987
93.1915
88.7248
88.6668
88.6614
88.656
91.2991
87.0352
88.6029
89.8493
84.4514
91.6567
88.8319
90.3637
92.4502
87.959
106.749
87.5076
124.208
88.2849
87.9657
89.2776
88.4682
89.3252
90.1735
90.2986
92.1637
47.5913
89.4336
99.1151
90.6009
94.8623
115.324
94.6661
93.1895
91.3587
89.2666
89.5552
87.1148
90.3366
86.5528
93.9299
93.9097
87.7233
99.3722
93.3096
91.1289
90.2577
88.3657
88.3335
90.09
91.3011
90.9992
91.643
88.844
90.4793
92.4649
88.0587
89.8383
93.3581
93.2092
93.7888
94.3656
118.369
93.2465
92.603
88.6102
89.2396
90.2086
92.1542
44.1538
89.4403
93.2441
93.1866
94.7152
96.0279
87.8497
89.3386
94.9994
89.6491
89.9309
89.3464
86.3174
93.4014
96.9896
93.162
93.0529
93.1246
92.7618
88.8377
89.6959
89.082
91.3849
87.0896
89.2573
92.79
89.5117
88.8224
93.9921
92.8394
124.937
93.1754
93.293
83.4786
88.6725
88.946
88.848
85.458
91.8871
89.821
89.0006
89.0536
88.4332
92.9813
88.8267
90.4918
92.4476
93.1823
93.1757
93.1911
89.7075
108.859
87.9495
90.9857
90.935
90.1977
91.0835
90.2106
91.3282
91.8877
90.9782
92.0643
88.3467
97.6894
89.3792
89.4678
96.5827
93.1891
117.642
90.7997
91.3696
90.1139
124.339
90.1078
88.7501
89.1828
93.4897
84.2128
90.2664
88.8267
93.1793
92.152
88.59
88.6323
89.305
89.0047
90.2505
92.6062
123.138
89.3547
90.4031
93.1932
93.2501
91.9353
93.1266
93.0989
89.4862
89.232
92.7705
91.7177
93.2139
91.1948
89.3472
89.0173
93.1756
90.2616
88.6409
90.6182
88.7011
89.5721
92.7666
115.31
116.163
93.1922
88.8503
90.9247
88.7495
115.608
90.8565
90.2516
92.4213
90.329
116.62
89.576
90.8595
85.0448
87.831
89.3098
90.6867
92.017
93.0836
88.8626
91.0952
88.6709
94.7867
88.9591
93.359
123.933
89.0634
93.233
89.3918
89.4036
89.6398
89.2278
92.1374
91.7589
90.7429
90.341
89.7413
88.6307
88.6162
96.4391
90.1646
94.0019
88.7766
93.6251
90.8708
90.2304
88.8276
90.5965
92.4866
93.2678
81.4058
88.7122
88.9195
92.7716
92.583
88.4859
81.4387
92.6788
91.8584
90.439
92.4211
88.847
95.8176
90.35
90.583
89.1727
89.1587
93.2394
88.6216
101.225
90.8529
127.015
88.4967
88.8539
90.0166
92.7741
89.5865
91.9384
89.3246
89.163
89.3016
118.484
88.644
108.243
88.7122
93.2465
92.2081
88.9008
88.8466
93.3648
105.127
89.0383
94.8165
100.214
105.862
90.5339
92.8949
90.644
88.8811
90.2421
92.9612
124.461
87.1401
89.3706
85.8464
90.3716
53.2461
93.2253
88.7853
89.1764
88.989
92.6254
88.8644
81.2074
90.3035
92.869
90.6409
93.2294
93.2417
89.2355
90.3938
89.1129
88.9931
47.3201
90.5417
90.9416
110.05
91.3922
82.2245
92.8122
37.5657
101.586
93.1666
92.9963
92.4088
93.4215
123.881
89.7629
88.9924
93.2565
131.66
93.3766
88.853
90.2748
92.7722
90.5364
93.0453
90.9021
93.0427
90.8757
90.4206
90.4585
116.625
88.7698
89.0043
88.4359
92.7812
92.0786
92.1014
92.9871
93.1653
92.03
89.6264
135.796
92.9406
89.3593
90.5877
89.4456
90.9686
89.823
122.695
92.9918
88.9352
92.9859
92.1374
70.0228
123.268
92.9645
92.9233
90.5777
93.989
98.3267
93.4242
89.4327
89.7378
96.5019
88.6986
89.5365
89.7497
93.2462
93.2942
99.646
89.2299
89.1301
89.2568
85.4096
88.7689
89.1106
92.3864
89.4909
93.0768
89.4456
93.2475
93.2501
89.5179
94.802
89.2878
89.6867
90.0738
89.6284
92.7932
89.6826
99.7311
89.2543
88.8559
91.6244
89.7231
87.8715
92.7223
94.2176
95.3281
96.3685
88.9776
90.6629
92.495
76.9633
90.7399
90.0608
92.6575
88.9366
111.778
89.2567
88.7912
89.6471
100.549
87.4509
89.0734
88.8009
90.6027
92.8254
89.5652
110.274
88.5729
89.5049
89.4517
89.2137
89.1673
93.1678
90.5962
90.4916
89.2181
88.3327
108.93
92.1902
93.909
93.2559
88.8131
90.6232
92.477
87.1801
93.2373
89.445
93.9588
93.2306
90.1245
89.5279
90.6013
90.4456
87.289
88.7203
91.416
93.2482
93.5824
94.177
93.1091
89.7813
88.8226
90.6765
92.5438
131.803
106.957
90.5043
90.0072
99.7815
107.853
107.556
90.3935
91.457
92.1861
90.2082
92.1379
93.1969
94.1796
123.527
90.5809
93.2315
87.1887
86.9712
105.316
92.948
90.2421
92.6247
88.8638
91.5038
90.2677
90.3371
88.3333
49.4658
71.2896
93.2361
88.9003
91.9115
87.8465
91.8188
92.4555
99.576
93.7658
115.149
89.6572
92.0815
90.3558
92.3534
90.9592
93.0483
89.8925
90.3444
88.809
97.9929
92.118
91.0986
89.5252
122.698
92.9135
88.6597
84.3684
90.8393
122.829
123.756
91.855
89.5549
90.7414
92.7045
88.8382
89.3391
20.6965
92.7587
118.128
84.9117
92.8637
93.2524
93.6796
121.916
87.4056
88.8278
90.7517
92.5748
93.0996
113.87
89.6019
88.4771
93.1214
93.3307
93.1108
92.7357
90.1537
90.48
96.3623
123.131
102.391
93.0693
92.6331
90.6098
90.6404
89.3598
92.1674
92.3123
89.6547
93.2487
93.3375
93.2461
90.4348
90.0295
116.548
89.9893
93.253
96.3529
88.5998
44.5663
90.3496
90.6173
88.8113
90.7153
92.5467
103.898
92.7243
89.0306
88.6051
93.2333
91.4015
92.7834
92.6457
92.0564
92.9526
93.1868
90.4235
89.3416
92.2811
91.8298
92.1634
89.2422
89.2242
89.3337
92.0252
94.7006
91.5473
90.42
92.7069
96.3971
93.1614
89.9709
90.5657
116.465
118.229
88.9779
93.258
91.693
93.2293
93.0182
89.2958
91.9725
92.3411
93.5259
92.8545
99.909
92.4636
89.0802
90.5349
91.7991
90.0934
93.2366
86.55
91.2098
89.2114
109.726
92.6712
89.188
92.1473
92.9245
89.1426
86.4019
88.8749
90.5649
89.6149
93.1679
92.8428
81.3555
98.751
93.622
93.8336
92.3455
90.7301
91.8962
90.2932
90.4211
96.6687
96.3616
92.964
90.0003
94.0412
93.178
90.1983
90.5201
93.261
88.9163
92.6163
90.9761
92.7803
93.1098
93.6096
92.1415
89.5603
89.9153
96.9447
88.8404
90.6226
92.7671
90.7167
93.1671
92.8032
90.1927
92.7207
90.4377
90.3356
91.4719
123.274
88.4016
41.1001
93.2316
89.4876
89.9651
91.237
89.3663
90.8081
92.6708
93.2024
90.8174
92.7214
96.5768
93.0635
114.37
92.9304
92.1922
89.5486
88.983
115.18
89.9848
93.1438
92.1331
92.6244
114.492
87.1417
89.69
91.477
88.8741
124.831
95.3198
89.0214
93.0584
105.478
80.8293
93.2894
89.0378
92.2265
92.0176
88.8291
88.9878
90.8832
92.8089
89.2297
92.5631
89.542
88.6029
90.4233
92.7932
93.1889
90.1668
88.2477
90.7938
92.5672
93.2089
93.0856
89.0744
89.329
90.2996
92.3191
87.2872
93.2509
113.499
88.8877
91.7236
89.7461
35.3905
91.1824
120.09
93.2301
89.0894
91.3648
89.9399
92.8845
92.2238
89.3369
93.2497
89.3549
91.3629
93.2148
115.974
89.4109
86.5775
92.4422
91.0183
125.238
90.0424
89.1483
93.2393
89.944
90.5778
94.5901
92.8944
91.8483
88.8245
90.7687
92.6416
90.882
88.9372
92.7131
90.7261
93.1985
82.0642
88.9456
88.8008
89.1149
55.937
96.6828
105.459
90.2266
89.2767
123.305
67.3427
109.644
94.4131
88.8274
90.7181
92.6282
91.3602
100.637
88.8477
90.6005
92.6114
93.2416
91.606
117.206
127.898
88.2937
109.254
95.1759
122.54
92.6171
90.5749
90.2311
91.1188
87.0006
92.9699
108.37
90.8298
92.5404
92.069
93.2486
123.137
89.8019
110.149
90.5272
88.3576
89.1379
88.8117
93.8356
93.2103
90.5306
88.8096
92.4624
93.236
90.0087
91.3458
90.1632
90.297
89.8209
93.0175
92.3504
97.3011
38.8372
122.732
92.9128
93.2497
93.0302
90.9396
91.6571
89.5748
89.3109
93.1905
92.7104
90.1458
91.2193
107.557
89.2337
86.7575
106.884
90.8654
92.407
93.1994
97.1343
33.6695
89.0293
84.9453
103.284
88.5121
93.3056
98.1132
96.269
93.2127
88.7302
93.4402
88.9144
125.072
93.1169
91.4585
93.1087
97.7326
42.6518
89.8259
91.9875
90.6501
91.9625
89.0784
87.0772
93.1331
106.66
90.2216
93.1048
91.9961
114.749
91.6024
90.4205
89.6699
90.2714
92.2847
89.6139
93.1581
93.1061
92.8352
90.8003
106.095
89.5018
105.463
88.5593
89.7167
93.5465
89.5136
124.626
93.1488
93.1868
99.6573
110.577
90.973
88.5196
89.5341
92.2761
89.7029
88.8278
121.97
90.6769
93.5218
91.7507
90.6735
93.3583
121.291
122.519
89.895
89.6089
93.1951
93.3884
92.0623
89.5613
87.1492
93.282
93.286
92.6206
93.2269
93.2448
91.4193
77.9337
88.9552
122.352
92.4667
90.0549
92.2291
90.7308
90.5018
116.705
93.4654
92.1431
114.955
92.6483
111.827
105.678
93.2805
121.806
92.5303
122.578
93.4459
92.3243
89.9599
98.9294
90.2894
103.16
87.6882
97.7952
26.9073
93.2549
120.942
89.9574
101.353
89.2294
102.424
89.5139
121.589
122.445
91.3257
106.818
92.8822
88.7847
90.6135
92.7881
90.6885
92.0672
102.961
93.1691
104.781
103.192
93.2896
92.1364
90.0326
123.804
88.8303
88.8467
92.0864
96.4325
91.7454
96.715
97.0846
93.25
106.639
90.5019
91.5191
89.1881
88.9451
92.9772
104.903
122.897
89.9619
109.739
101.373
88.3943
93.2584
93.2451
93.0481
93.2016
93.115
122.629
96.1696
88.8742
93.252
88.9398
110.407
86.705
90.1221
89.4972
88.9584
89.3679
91.5711
90.2172
89.0907
94.3722
90.5532
90.5984
90.5778
89.5868
91.4941
108.206
98.4875
93.5257
93.0728
93.1398
89.7895
104.015
89.1715
89.9129
89.4066
93.2436
91.2153
87.6584
89.5185
49.3539
92.6439
93.1583
96.974
90.6991
88.8136
92.5581
122.317
92.5701
115.185
92.7906
91.8656
81.1189
89.7323
92.9596
91.9974
92.8607
100.359
90.229
109.976
88.9477
90.9626
92.8188
89.3574
91.3099
89.6941
56.3408
54.6677
90.3477
91.8559
89.3451
90.5509
92.7463
90.6894
88.8309
92.8258
90.4507
88.6661
88.8384
88.6299
89.129
88.8076
89.2113
125.033
90.1452
89.9303
86.909
89.6556
102.36
92.258
91.4726
91.2582
93.32
111.621
91.443
89.0097
90.5093
87.2202
44.5214
90.3984
92.8999
104.895
123.435
93.3456
93.345
92.858
90.7755
89.6577
90.1052
89.993
93.3523
93.2462
90.7285
90.5924
88.818
92.5106
89.1605
92.116
88.7204
107.362
89.8006
87.5395
94.5983
92.2258
90.4946
89.6081
92.484
103.252
84.8488
90.0077
89.0614
90.0202
93.573
88.9581
87.9017
86.6764
98.7243
91.8552
109.729
119.716
139.592
93.5681
93.141
125.283
88.9175
91.9123
93.6144
119.533
92.4488
95.7667
9.62035
96.7989
91.0532
89.6407
92.789
90.7712
92.6346
88.8343
90.8835
91.5658
86.0146
93.1608
90.2915
95.9405
90.6628
124.717
88.9619
109.795
88.0649
89.3299
88.8554
90.9402
92.7203
92.6657
86.3771
90.253
88.6983
92.7455
32.9577
112.062
90.8004
90.7075
93.4792
92.9513
87.2029
92.3139
91.0439
86.042
93.6718
93.5989
92.8861
92.4123
93.7798
89.7881
89.471
91.5438
88.3905
116.088
92.4702
90.7116
92.0726
90.0089
97.1973
104.182
91.1371
96.0488
89.6473
87.6531
89.251
90.9922
88.4014
90.5607
91.7267
90.1026
89.9751
93.4043
124.881
90.8584
92.7431
124.269
93.1733
93.189
93.2291
78.8518
97.9155
97.6838
92.7812
95.1058
92.7587
95.2387
95.3714
98.6306
96.7782
93.4763
91.4048
88.1796
91.9288
91.1693
101.505
92.9849
91.8504
93.0861
89.4384
88.8504
97.3991
92.8354
91.8716
88.6248
93.4437
92.1721
89.0806
92.5535
93.2057
95.3475
50.5171
88.8782
90.8888
92.7535
89.1561
92.0315
90.5108
88.8734
92.5264
91.0115
89.0069
92.7612
121.193
93.1343
93.243
90.8159
90.0928
90.3113
96.1739
88.5266
90.5811
93.0464
88.736
89.2459
92.7404
93.0192
112.617
109.697
90.5274
87.8068
90.3838
93.1133
93.1347
90.2014
89.3991
123.314
97.905
88.564
113.674
93.1552
89.5598
87.6664
91.154
92.6388
79.8286
93.1141
98.3638
88.4773
89.4267
93.2233
95.1113
93.39
84.9644
126.916
88.1137
93.3787
93.2111
93.2284
93.2123
111.897
122.112
93.0329
91.8583
88.6606
107.309
89.3671
88.6555
93.221
91.5697
88.8251
89.3347
90.011
88.6796
88.9679
93.4228
89.3692
84.8332
103.258
93.2399
93.2458
87.2692
89.6136
89.0967
99.3791
89.4426
88.7306
90.0303
89.0588
91.8739
92.8557
96.4415
89.415
17.1098
95.0558
89.0074
89.1215
89.8508
88.6083
92.1607
88.4344
93.2101
90.3113
92.8292
91.2212
93.27
120.42
89.7254
123.132
91.9048
88.7879
93.2578
91.7132
89.8831
89.2091
51.6975
115.351
96.6014
93.1191
89.9279
89.9964
81.9621
83.9194
93.1589
90.3381
96.6958
96.3465
90.2229
93.2445
44.4106
92.6247
88.8342
90.6834
89.3039
88.7344
89.3626
90.4555
88.7825
51.5508
89.8795
89.9679
89.6789
92.459
90.7626
88.6299
87.1646
92.6657
95.1031
107.144
93.3573
90.024
89.8999
89.6445
88.4333
87.1523
93.243
125.255
115.952
93.468
79.8716
90.7151
90.9129
88.9042
92.7372
91.2014
115.045
93.1246
97.6039
89.8881
89.4265
89.1451
90.5202
97.2051
89.1607
109.877
89.3269
86.5399
90.394
92.5017
124.913
93.0073
88.88
87.4642
93.8073
90.1784
84.1308
43.6834
105.785
89.8766
92.1519
86.9252
88.9776
91.3899
88.95
89.7441
92.0463
92.8518
92.8032
90.883
124.358
90.8279
91.403
92.3032
93.1366
52.6703
89.2194
87.2206
107.778
89.3731
92.4412
93.9771
96.6007
89.4444
92.8001
90.9285
88.9366
92.1319
89.149
88.3563
122.304
91.9403
92.3205
92.7143
90.2167
88.7
86.9961
91.6345
91.7686
88.5829
89.741
93.1797
96.9113
90.8782
92.4758
114.021
66.1961
91.8099
53.6712
91.9845
88.7497
83.1079
81.7279
90.431
93.7887
74.9908
93.095
116.064
89.8379
86.1462
110.2
121.365
114.031
92.0401
93.117
93.6559
90.6521
88.6239
80.827
87.0761
88.9632
91.9743
104.598
104.17
98.3673
87.2494
91.415
87.0242
96.8234
93.247
92.808
93.1746
92.6726
90.6079
122.238
88.5064
88.571
88.7225
94.3362
88.7713
90.5291
86.751
93.1534
90.4736
88.8467
92.4959
89.7811
87.7558
91.9131
90.0656
91.6233
85.1781
88.7361
89.558
89.4773
93.5405
105.394
92.1026
90.0477
90.1872
92.0888
110.89
119.27
92.1665
93.2501
113.138
89.7485
98.52
92.3988
91.0174
90.3005
92.5067
90.6565
93.2139
93.1902
91.6574
93.2455
92.8887
123.82
92.8959
92.7612
93.209
92.7573
90.2369
93.1945
84.6542
89.7772
92.2363
96.2689
118.214
90.0052
88.5083
89.2235
88.7747
91.0669
89.7473
91.9727
90.7714
93.8303
93.0331
89.8977
92.1609
51.5676
89.2887
122.821
92.7775
92.1561
90.7617
120.843
89.5774
51.3786
96.9883
92.8718
93.2222
92.9816
93.1169
92.8057
90.8394
88.9162
93.0955
88.8049
90.7948
92.7677
90.3416
92.8099
97.0589
123.515
91.094
89.3251
90.1818
92.0317
92.8842
88.9047
103.849
85.0843
89.8755
96.422
90.3734
95.1568
89.5147
96.4548
115.599
92.6954
93.4858
93.2077
88.7522
124.962
87.6643
93.2106
86.5184
88.5448
91.9079
92.1502
91.6518
123.403
98.2679
92.7928
90.8523
88.8905
96.8179
93.1414
89.2182
88.7522
93.0475
92.6862
89.7379
46.9591
91.6929
90.2507
107.486
124.764
90.0059
93.4518
92.7369
122.829
90.2304
95.1385
89.9614
37.2499
56.7851
93.0094
49.2276
92.646
36.5158
88.6689
107.599
88.782
90.032
92.8673
92.8702
92.8482
92.8665
90.8324
90.8383
90.7726
90.7652
92.8707
90.8575
62.2909
90.2786
89.9035
89.3901
89.5908
56.1913
90.664
89.399
88.1359
89.6172
88.9053
87.7007
67.5119
49.0808
87.5337
76.1256
71.8758
87.8203
90.7139
88.9713
89.4929
89.1575
88.9353
88.5427
91.0256
89.8999
90.2315
92.8815
89.3589
88.2867
90.2838
88.5411
90.2905
93.2233
109.552
110.813
90.4128
94.8236
92.1927
88.1875
91.211
96.9759
109.256
113.572
102.664
99.8653
117.542
121.584
125.636