/*--------------------------------*- C++ -*----------------------------------*\
| =========                 |                                                 |
| \\      /  F ield         | OpenFOAM: The Open Source CFD Toolbox           |
|  \\    /   O peration     | Version:  v1912                                 |
|   \\  /    A nd           | Website:  www.openfoam.com                      |
|    \\/     M anipulation  |                                                 |
\*---------------------------------------------------------------------------*/
FoamFile
{
    version     2.0;
    format      ascii;
    class       volScalarField;
    location    "0.03";
    object      k;
}
// * * * * * * * * * * * * * * * * * * * * * * * * * * * * * * * * * * * * * //

dimensions      [0 2 -2 0 0 0 0];


internalField   nonuniform List<scalar> 
1431
(
0.236579
0.428492
0.226792
3.80411
0.213035
0.198163
0.189485
0.233248
0.188873
0.18529
0.877868
0.175088
0.681607
0.478666
0.238381
1.16292
0.231879
0.205399
0.134056
0.694772
0.297738
0.181263
0.264432
0.472386
0.818882
0.568131
1.30578
0.481923
0.425599
0.223535
0.216426
0.24037
0.222189
0.188326
0.181697
0.259764
0.358714
0.358382
0.202652
0.392479
0.272791
0.206867
0.24124
0.238989
0.244431
0.365133
0.291769
0.269708
0.215104
0.758878
0.185059
0.19501
0.198923
0.224405
0.224038
0.27532
0.207151
0.212115
0.888653
0.280931
0.331035
0.5659
0.262889
0.322403
0.493357
0.185904
0.210046
0.181768
0.223619
0.36657
0.195823
0.188604
1.02602
0.189046
1.54885
0.204976
0.214542
0.225291
0.273762
3.10836
0.300037
0.179354
1.2623
0.469469
4.28081
0.214141
0.208702
1.16846
0.462053
0.501634
0.354714
1.23893
0.212059
0.328636
0.177475
0.252977
1.4971
0.272958
0.215733
0.22393
0.205744
0.263248
0.298488
0.206845
2.54506
0.18523
0.293705
0.203332
0.18523
0.213275
4.35015
0.188126
0.240665
0.466804
2.82164
0.206637
0.215507
0.33673
0.446648
0.264966
0.287457
0.201897
0.197783
0.286546
0.303808
0.182637
0.426659
1.09276
0.253584
0.536139
0.209255
0.181045
0.875131
0.317602
0.222586
1.2955
0.872515
0.178776
0.375438
0.191573
0.194239
0.239559
0.328246
0.200298
0.185003
0.405035
0.28829
0.190119
0.728483
0.245691
0.589041
0.496315
0.286573
0.934537
0.288052
0.969076
0.309358
0.351124
0.242958
0.261401
0.190044
0.725255
0.294159
1.23274
0.208984
4.13094
0.226368
0.304167
0.195022
0.335458
0.300458
2.8418
0.243657
0.439688
0.322013
0.339504
0.37332
0.59122
0.244976
0.25516
0.334397
0.332104
0.28058
0.426237
0.377499
0.267881
0.245468
1.43878
0.481322
0.321884
0.22873
0.264394
0.258022
0.302379
0.186167
0.276373
0.287879
0.293275
0.635783
0.766506
1.06611
1.00622
0.254039
0.32595
0.298268
2.49324
0.224035
0.314441
1.31566
0.733308
0.306614
0.258106
0.273147
0.304783
0.206496
0.218033
0.248607
0.260448
0.580771
0.311152
0.299961
1.72005
0.496772
0.243179
0.324514
0.505081
0.257282
0.3878
0.305683
0.201634
0.203488
1.73547
0.345074
0.235813
0.236681
0.247576
0.307656
0.267913
0.293632
0.228579
0.390039
0.259725
0.185016
0.265565
0.867673
0.857807
0.316028
0.19688
0.205705
0.301064
0.259001
0.187101
0.184162
0.314613
0.268501
0.687479
0.172229
0.282786
0.517763
0.596867
0.735262
0.923154
0.218215
0.196873
0.246108
0.312606
0.409564
0.249947
0.336011
0.184658
0.25714
0.236138
0.25945
0.261425
0.779996
0.264645
0.29232
0.208012
0.179309
0.186354
0.190234
0.196464
0.487595
0.290559
0.432683
2.04292
0.206304
0.254899
0.301046
0.321329
0.420337
0.513154
0.247607
0.244193
0.26305
0.271427
0.259321
0.307054
0.338107
0.259422
0.37397
0.250036
0.90611
0.189518
0.381995
0.391468
0.29702
0.640435
0.555714
0.179795
0.328469
0.356996
0.450357
0.224551
0.673165
0.430702
0.186573
0.182203
0.23912
0.221707
0.349835
0.225831
0.232692
0.203512
0.180505
0.212503
0.295069
0.206434
0.255469
0.305437
0.46005
0.623035
0.199416
0.226325
0.312572
0.182554
0.20404
0.214397
0.18607
0.464189
0.907337
0.285264
0.198254
0.412335
0.35228
0.532835
0.327446
0.191288
0.157251
0.164849
0.180801
0.146974
0.155008
0.168093
0.172957
0.179369
0.149609
0.350754
0.172079
0.156865
0.177002
0.174254
0.168461
0.16049
0.170722
0.173824
0.169984
0.170988
0.640944
0.474395
0.404546
0.229159
0.223041
0.266945
0.254846
1.1699
0.463235
0.341135
0.362442
0.185418
0.146436
0.173042
0.17599
0.153208
0.179631
0.16899
0.170306
0.221879
0.168433
0.155434
0.236876
0.319066
0.264605
0.362352
0.222116
0.181155
0.192007
0.31779
0.182227
0.318972
0.17057
0.42911
0.312102
0.180437
0.484117
0.277611
0.181818
0.190044
0.178837
0.469981
0.683032
0.371872
0.17474
0.267464
0.190571
0.274447
0.445446
0.187899
0.194694
0.182384
0.186761
0.25553
0.183098
0.272948
0.288064
0.431603
0.262913
0.184792
0.227972
0.274296
0.237214
0.309672
0.40109
0.19409
0.186145
0.344435
0.210777
0.189234
0.259266
0.204579
0.200913
0.247844
0.195383
0.203328
0.228463
0.185999
0.183506
0.289429
0.220068
0.184282
0.188664
0.188337
0.185532
0.182781
0.254032
0.184521
0.191973
0.197607
0.188235
0.184091
0.289014
0.188552
0.215468
0.250856
0.182794
0.18314
0.178439
0.306224
0.250822
0.18546
0.281514
0.180406
0.184105
0.269054
0.259693
0.193359
0.300767
0.27703
0.25693
0.231163
0.256967
0.17916
0.266908
0.241112
0.183882
0.245801
0.269898
0.182425
0.216587
0.192986
0.186769
0.177131
0.221548
0.298359
0.195819
0.179019
0.238289
0.231755
0.326255
0.239169
0.259772
0.266413
0.18552
0.242836
0.246689
0.325489
0.212558
0.182556
0.271784
0.232748
0.222456
0.298217
0.265578
0.794022
0.335531
0.272908
0.265615
0.250331
0.253245
0.183547
0.320021
0.275438
0.249385
0.178628
0.178945
0.21872
0.667614
0.23428
0.271444
0.204176
0.188872
0.198882
0.247612
0.259355
0.198308
0.243868
0.186005
0.206369
0.189305
0.343502
0.217782
0.286439
0.43638
0.245713
0.155753
0.180335
0.190105
0.278172
0.187601
0.281569
0.245792
0.211841
0.470296
0.219594
0.186924
0.612871
0.187194
0.453775
0.451668
0.254353
0.189838
0.239537
0.186366
0.247414
0.22751
0.179024
0.192079
0.245247
0.446826
0.222105
0.294754
0.180659
0.395577
0.18052
0.263999
0.296557
0.203962
0.258604
0.24831
0.350413
0.179473
0.28579
0.678729
0.297566
0.182327
0.210453
0.569498
0.290502
0.181009
0.322649
0.225373
0.228904
0.360553
0.301911
0.307999
0.218829
0.181996
0.223708
0.242286
0.81784
0.443083
0.495006
0.262889
0.192225
0.187704
0.182424
0.888486
0.392377
0.179888
0.413159
0.399653
0.184416
0.187164
0.18406
0.423183
0.240635
0.205849
0.205335
0.183997
0.187236
0.322965
0.18632
0.232707
0.570997
0.249289
0.302836
0.415024
0.19213
0.192696
0.288822
0.18009
0.220085
0.264202
0.291602
0.256184
0.198384
0.355912
0.256683
0.3667
0.252988
0.197093
0.181904
0.293646
0.182581
0.308903
0.190404
0.20633
0.194339
0.190831
0.225647
0.177061
0.372404
0.309399
0.318031
0.191181
0.196394
0.282765
0.3341
0.214703
0.18524
0.259964
0.231242
0.286563
0.319762
0.2959
0.695654
0.361709
0.180341
0.18656
0.433765
0.216566
0.283993
0.2719
0.250813
0.197076
0.228835
0.236207
0.225288
0.480639
0.364666
0.309689
0.210841
1.24777
0.172498
0.258542
0.282991
0.241223
0.198714
0.439826
0.205505
0.190009
0.235669
0.201719
0.287567
0.19105
0.46689
0.173078
0.286749
0.288937
0.259379
0.192548
0.516218
0.245262
0.517961
0.249299
0.319575
0.346036
0.180948
0.371381
0.34459
0.24388
0.179163
0.244616
0.180493
0.183494
0.418323
0.449937
0.184777
0.260675
0.30551
0.41219
0.398847
0.276983
0.247568
0.473157
0.421849
0.18111
0.182681
0.242054
0.186657
0.222289
0.205794
0.254765
0.266772
0.23382
0.240197
0.264546
0.28306
0.181555
0.269643
0.213211
0.183263
0.213281
0.392431
0.411367
0.404191
0.279385
0.301999
0.295954
0.822815
0.195998
0.259782
0.279345
0.309584
0.293122
0.242253
0.350322
0.546757
0.794793
0.402049
0.177164
0.994409
0.319638
0.310161
0.432821
0.275538
0.153549
0.304646
0.447004
0.293286
0.261229
0.306354
0.183117
0.293668
0.455196
0.379779
0.246201
0.377353
0.204902
0.652407
1.1414
0.163386
0.329151
0.246573
0.184051
0.373117
0.179412
0.228951
0.190281
0.371705
0.292126
0.23622
0.213118
0.288894
0.362637
0.313192
0.19473
0.375615
0.241279
0.278204
0.19418
0.201892
0.258731
0.49374
0.178994
0.206736
0.284141
0.182521
0.246177
0.211763
0.313162
0.294272
0.205748
0.248805
1.5901
0.507663
0.480956
0.457679
0.548042
0.517718
0.531132
0.534741
0.352476
0.517504
0.175533
0.408177
1.12434
0.192589
0.473711
0.228374
0.160538
0.177786
0.188939
0.210124
0.411159
0.373854
0.212264
0.490339
0.198534
0.20153
0.23391
0.241259
0.279354
0.528839
0.279996
0.252786
0.205757
0.383089
0.47198
0.347194
0.445803
0.338181
0.308443
0.155631
0.316368
0.279507
0.203364
0.20357
0.323195
0.575963
0.2893
0.278225
0.548248
0.179299
0.183181
0.209155
0.250956
0.278588
0.211767
0.428562
0.209124
0.289584
0.338055
0.357934
0.178307
0.301747
0.237512
0.236685
0.219426
0.288136
0.234826
0.46055
0.205725
0.178898
0.333628
0.22004
0.226426
0.283649
0.27141
0.187508
0.797761
0.234182
0.221466
0.30686
0.371108
0.26937
0.178566
0.200736
0.254431
0.77437
0.191906
0.183965
0.204402
0.225261
0.203446
0.19359
0.46138
0.305194
0.178321
0.144887
0.303171
0.286844
0.193574
0.178344
0.195843
0.377079
0.441138
0.637665
1.36549
0.652198
0.218459
0.265358
0.245065
0.295174
0.269326
0.822805
0.634915
0.528236
0.181377
0.230174
0.183071
0.264331
0.610662
0.45546
0.375497
0.397255
0.583474
0.350279
0.319417
0.548308
0.178099
0.29534
0.298113
0.291814
0.209881
0.211906
3.85904
0.211977
0.178812
0.224288
0.17962
0.197383
1.40593
0.196315
0.377465
0.410612
0.276367
0.184753
0.194378
0.199343
0.219905
0.182184
0.185435
0.178762
0.503227
0.233964
0.268756
2.40533
0.206197
0.492111
0.181607
0.192428
0.462374
0.389097
0.187869
0.18465
0.296228
0.244345
0.255737
0.17617
0.432755
0.352803
0.202179
0.201334
0.199679
0.968427
0.238938
0.319671
0.219796
2.44668
0.20742
0.361836
0.201071
0.382428
0.330228
0.289442
0.183998
0.527998
4.26781
0.211853
0.219212
0.234349
0.456792
0.245487
0.243259
0.236547
0.202758
0.250998
0.352123
0.320545
0.1831
0.181459
0.291839
0.266122
0.197688
0.218127
0.324808
0.21743
0.178124
0.18073
0.352629
0.335258
0.183834
0.343498
0.484834
0.229856
0.274695
0.180321
0.955093
0.243249
0.183386
0.181454
0.288233
0.454911
0.273237
0.190784
0.446979
0.323511
0.243556
0.178056
3.31725
0.214896
0.207215
0.407096
0.217032
0.183513
0.203718
0.180748
0.263087
0.22208
0.195417
0.47758
0.184122
0.386788
0.221052
0.214929
0.254771
0.335386
0.212583
0.24684
0.220712
0.21654
0.357338
0.846202
0.231228
0.378314
2.22673
0.337088
0.332734
0.18354
0.265644
0.245803
1.59874
0.294924
0.355336
0.252848
0.298092
0.968577
0.356464
0.356506
0.202464
0.241704
0.216491
0.176398
0.211427
0.206485
1.77057
0.19496
0.406865
0.191067
0.213174
0.384993
0.213423
0.238889
0.535114
0.247314
0.180833
0.335238
0.254517
0.402511
0.386558
0.208223
2.58864
1.73834
0.179239
0.702562
0.309609
0.214237
0.444627
0.486355
0.174005
0.201629
0.250599
0.189008
0.169136
0.179643
0.317644
0.189267
0.32429
0.296435
0.203086
0.180744
0.380191
0.210382
2.11339
0.231052
0.189618
0.203844
0.232811
0.236204
0.363306
0.148056
0.257086
0.183002
0.153286
0.511965
0.311858
0.307858
0.238426
0.17783
0.206181
0.237242
0.184336
0.181289
0.31594
0.255115
0.902308
0.25907
0.675843
0.301397
0.294847
0.194836
0.335744
0.199466
0.182018
0.177584
0.190819
0.483093
0.214003
0.398427
1.0232
0.209548
0.178662
0.181508
0.17998
0.230733
0.182748
0.182419
0.257298
0.21249
0.336988
0.227321
0.189085
2.2339
0.686567
0.366568
0.271529
0.151096
0.161893
0.213871
0.222772
0.260619
0.262467
0.25706
0.214688
0.705208
0.296757
0.18437
0.422967
0.178429
0.19066
0.39722
0.531639
0.209327
0.207026
0.181599
1.4313
0.189911
1.15373
0.323123
0.213662
0.200031
0.202576
0.190509
0.193702
0.564389
0.376525
0.469612
0.180226
0.351544
0.360544
0.373177
0.182817
0.598641
0.183342
0.180472
0.277413
0.200965
0.181775
0.699524
0.178326
0.180477
0.417
0.34021
0.225058
0.257171
1.09374
0.221722
0.474537
0.345681
0.642368
4.05654
0.213527
1.95204
0.210642
0.181355
1.13288
0.23497
0.182622
0.491648
0.179711
0.45299
0.266688
0.240275
0.236916
0.183308
0.215063
0.718482
0.456919
0.203809
0.208703
1.24388
0.252152
0.179968
0.432019
0.180424
0.527499
0.477145
0.180709
0.196247
0.480964
0.275768
0.274984
0.262402
0.453668
0.348115
0.420357
0.310778
0.184847
0.199071
0.39464
0.18414
0.177
0.385041
1.14146
0.308605
0.320289
0.436098
0.65418
0.490038
0.758772
0.460491
0.277887
0.332858
0.287575
0.436007
0.182081
0.183422
0.181472
0.180866
0.285944
0.258957
0.268056
0.641305
0.323558
0.351508
0.184525
0.214418
0.460412
0.26018
0.181714
0.28187
0.272975
0.183043
0.180447
0.184783
0.182389
0.356055
0.335195
0.179583
0.355412
0.375385
0.377812
0.235561
0.476453
0.30586
0.395713
0.182742
0.208133
0.18214
0.314339
0.208882
0.201924
0.179839
0.233994
0.43152
0.591128
0.377226
0.186073
0.324688
0.305965
0.318377
0.298135
0.183775
0.250034
0.365036
2.19763
0.336875
2.05227
0.207067
0.214553
0.554893
0.248857
2.28051
0.207785
0.207165
0.264086
0.265809
0.161588
0.519138
0.255032
0.529255
0.302289
0.482069
0.179264
0.183332
0.194443
0.476547
0.397151
0.278929
0.181273
0.18805
0.184478
0.184078
0.310345
0.239129
0.432321
0.240737
0.727374
0.394841
0.579253
0.341285
1.48726
0.251843
0.451862
0.270444
0.274735
0.667041
0.278266
0.179789
1.47413
0.354954
0.181919
0.221459
0.307971
0.6236
0.410511
0.342003
0.50972
0.204997
2.8867
0.341768
0.759291
0.193403
0.180875
0.51882
0.740909
0.563194
0.267828
1.84993
0.329104
0.342522
0.393818
0.899294
0.256099
0.251692
0.69807
0.573152
0.696949
0.260305
0.277823
0.18833
0.18291
0.180542
0.338221
0.19585
0.182831
0.180047
0.184035
0.181379
0.297124
0.478718
0.243259
0.235379
0.241981
0.197368
0.225491
0.255931
0.189271
0.211971
0.201281
)
;

boundaryField
{
    frontAndBack
    {
        type            empty;
    }
    wallOuter
    {
        type            kqRWallFunction;
        value           nonuniform List<scalar> 
90
(
1.16292
0.418323
0.41219
0.421849
0.242054
0.254765
0.266772
0.411367
0.404191
0.279345
0.309584
0.447004
0.293286
0.379779
0.329151
0.213118
0.507663
0.480956
0.457679
0.548042
0.517718
0.531132
0.534741
0.352476
0.528839
0.203446
0.19359
0.528236
0.230174
0.45546
0.375497
0.397255
0.583474
0.350279
0.319417
0.291814
0.224288
0.197383
1.40593
0.276367
0.233964
0.268756
2.40533
0.206197
0.244345
0.255737
0.219796
2.44668
0.20742
0.527998
0.197688
0.955093
0.47758
0.846202
1.59874
0.202464
0.206485
1.77057
0.19496
0.384993
0.535114
0.247314
0.208223
1.73834
0.486355
0.189008
0.179643
0.210382
2.11339
0.231052
0.214003
0.209548
0.182748
0.21249
2.2339
0.222772
0.422967
0.531639
0.209327
1.4313
0.417
1.95204
0.210642
0.477145
0.758772
0.208882
2.28051
0.207785
0.529255
0.394841
)
;
    }
    inlet
    {
        type            fixedValue;
        value           uniform 0.375;
    }
    outlet
    {
        type            zeroGradient;
    }
    wallInner
    {
        type            kqRWallFunction;
        value           nonuniform List<scalar> 
138
(
0.175088
0.134056
0.222189
0.188326
0.181697
0.206867
0.210046
0.181768
0.195823
0.188604
0.204976
0.875131
0.934537
0.288052
0.339504
0.37332
0.635783
0.766506
1.06611
1.00622
0.243179
0.687479
0.172229
0.517763
0.596867
0.735262
0.409564
0.779996
0.432683
0.640435
0.555714
0.907337
0.532835
0.191288
0.157251
0.164849
0.180801
0.146974
0.155008
0.168093
0.172957
0.179369
0.149609
0.350754
0.172079
0.156865
0.177002
0.174254
0.168461
0.16049
0.170722
0.173824
0.169984
0.170988
0.185418
0.146436
0.173042
0.17599
0.153208
0.179631
0.16899
0.170306
0.221879
0.168433
0.155434
0.236876
0.17057
0.371872
0.274447
0.40109
0.247844
0.228463
0.220068
0.188552
0.269054
0.231163
0.266908
0.192986
0.186769
0.177131
0.195819
0.238289
0.266413
0.232748
0.222456
0.250331
0.155753
0.211841
0.470296
0.451668
0.294754
0.81784
0.264202
0.695654
0.210841
0.173078
0.286749
0.186657
0.205794
0.213281
0.177164
0.153549
0.455196
0.163386
0.288894
0.178994
0.160538
0.490339
0.198534
0.155631
0.144887
0.822805
0.178099
0.29534
0.211906
0.389097
0.968427
0.238938
0.219212
0.234349
0.212583
0.298092
0.968577
0.179239
0.148056
0.153286
0.902308
0.25907
0.151096
0.161893
0.34021
0.19585
0.235379
0.241981
0.197368
0.255931
0.189271
0.201281
)
;
    }
    procBoundary0to1
    {
        type            processor;
        value           nonuniform List<scalar> 
29
(
0.185832
0.183845
0.194228
0.194228
0.215367
0.215367
0.176283
0.18707
0.202292
0.188219
0.182963
0.206339
0.189025
0.186341
0.181581
0.181506
0.207137
0.211945
0.192348
0.188962
0.180845
0.180229
0.192426
0.183329
0.185861
0.211945
0.179994
0.178657
0.183329
)
;
    }
    procBoundary0to2
    {
        type            processor;
        value           nonuniform List<scalar> 
42
(
0.182901
0.180796
0.212212
0.200681
0.212314
0.182901
0.212212
0.230197
0.191932
0.180193
0.230193
0.217647
0.230193
0.207148
0.191657
0.18851
0.191657
0.179093
0.182848
0.212353
0.212353
0.179093
0.1783
0.253938
0.253938
0.178316
0.253322
0.178757
0.213213
0.181552
0.181552
0.180575
0.187316
0.206698
0.241241
0.212212
0.182209
0.194805
0.213213
0.230197
0.262788
0.273617
)
;
    }
}


// ************************************************************************* //
