/*--------------------------------*- C++ -*----------------------------------*\
| =========                 |                                                 |
| \\      /  F ield         | OpenFOAM: The Open Source CFD Toolbox           |
|  \\    /   O peration     | Version:  v1912                                 |
|   \\  /    A nd           | Website:  www.openfoam.com                      |
|    \\/     M anipulation  |                                                 |
\*---------------------------------------------------------------------------*/
FoamFile
{
    version     2.0;
    format      ascii;
    class       volScalarField;
    location    "0.28";
    object      p;
}
// * * * * * * * * * * * * * * * * * * * * * * * * * * * * * * * * * * * * * //

dimensions      [0 2 -2 0 0 0 0];


internalField   nonuniform List<scalar> 
1431
(
94.0836
89.2092
89.1341
87.7919
91.479
83.2663
77.0915
94.7081
87.38
84.3934
90.1748
89.7997
85.7397
99.9076
91.1686
92.7141
91.4115
90.5756
92.4151
89.7902
91.1148
85.9704
85.1607
100.811
76.6093
89.8208
69.0154
99.0695
87.7332
88.0142
110.719
117.218
77.9463
80.6056
76.2481
86.9592
91.5676
93.7524
82.4101
93.8088
107.398
88.3939
79.8623
74.1675
76.743
92.3708
90.2555
114.991
111.701
95.0262
88.2872
82.3111
87.1263
81.5015
74.5348
108.053
79.9767
84.1452
76.052
90.9815
89.6128
88.8034
90.0145
94.4483
96.3429
90.2065
87.3676
82.96
92.5352
94.8583
79.9589
75.8039
89.0485
82.4835
91.9406
78.3488
91.676
80.1468
94.9054
71.0722
94.4771
88.9177
87.2153
89.1666
76.8515
91.311
91.3905
85.4352
101.758
89.9387
91.3507
85.7295
91.4886
93.5317
89.4047
91.0216
92.1794
96.5962
91.279
110.659
92.3514
93.696
92.311
91.0993
88.8687
87.8583
94.6192
111.097
112.607
91.3686
71.5707
90.2332
95.2599
90.1077
90.0974
91.2008
90.7405
90.2282
102.687
78.524
92.3093
85.4805
81.3007
105.61
94.1382
88.2786
103.559
90.2381
93.2982
94.2561
90.3384
111.837
101.413
91.6924
91.5544
87.2534
88.8915
90.0166
92.1884
111.422
86.9532
91.3602
93.5955
111.785
113.014
92.4204
96.1012
111.483
88.7065
109.914
95.1362
97.4351
88.6169
84.1812
89.8749
90.0783
94.4745
90.9642
96.0385
104.806
90.3824
89.3068
92.6744
88.4019
91.2423
68.4263
91.2354
92.9996
87.9618
92.0214
103.435
92.7049
109.482
95.3518
94.107
91.5216
85.6802
95.9536
87.756
101.572
94.3839
90.1998
101.66
90.3234
93.8435
104.5
93.7732
82.3839
90.1697
94.4355
86.7929
90.5634
91.2095
94.2982
87.8456
92.1097
94.6326
113.236
87.4324
87.9742
88.1667
113.971
108.329
106.056
94.5358
71.6475
91.1711
94.8296
90.4679
98.4654
94.2885
95.2032
106.351
94.75
78.3634
81.0346
96.9253
87.0199
88.0491
94.4563
94.4662
66.5392
93.7485
100.728
95.1291
89.1466
107.347
91.1268
99.2181
111.122
91.4654
87.2497
94.7528
93.1873
94.3784
94.9641
95.8712
93.4128
94.4141
88.4235
96.276
106.625
88.8406
90.2481
89.7445
88.3747
93.7214
76.9526
81.0295
102.311
100.267
88.2136
84.8583
113.14
89.8538
95.3974
87.8883
88.5821
94.3145
94.7814
95.2228
86.5552
91.1773
87.8282
94.556
98.342
90.0998
93.6919
100.066
88.9155
94.9047
110.481
99.2708
98.3015
94.8598
91.9058
91.8982
89.5468
89.6613
83.8395
86.3409
88.3785
88.3788
91.4184
91.9011
84.6192
91.6004
100.26
101.137
95.5999
92.3171
94.4829
100.141
88.2911
101.737
97.2095
91.6958
99.6614
88.5831
103.104
94.5192
108.986
86.1308
113.361
90.2611
88.7497
94.5674
95.1226
94.5121
91.2524
95.3559
93.8915
88.783
91.4374
85.0949
88.8212
84.432
88.0511
93.9963
91.5837
88.479
91.9692
87.0801
88.3296
89.906
91.3503
94.3828
91.791
107.962
95.0751
89.141
85.0689
88.4981
87.5914
94.2141
88.8982
87.2409
91.8568
87.792
85.4421
88.4526
94.4637
90.809
86.2237
98.771
84.6719
95.0689
88.2067
91.5637
91.4576
88.1898
90.0004
90.0206
89.9023
84.4092
88.1389
90.0128
84.2512
90.5265
89.4082
87.4388
85.2107
89.4483
91.4492
91.5414
88.204
88.368
87.4437
88.4705
89.1937
89.1174
88.5392
92.0798
103.109
88.2175
87.9653
89.2055
93.7218
92.9263
90.7188
90.1592
88.1515
91.446
90.0404
86.162
88.9113
88.3235
84.0638
90.2531
91.52
88.0049
88.7808
105.985
93.7051
92.0492
90.1473
91.7105
94.7568
89.5948
94.5441
89.0544
88.9801
94.7011
88.1099
88.7657
91.7414
87.7135
113.104
91.0287
89.2271
91.6699
88.2651
89.8575
84.9215
112.382
125.523
89.2258
88.8509
84.5556
91.5111
88.2298
89.2216
90.226
88.6053
88.7676
89.5092
88.6374
85.9521
76.5881
89.9127
77.1852
88.565
88.4098
86.2632
88.2852
89.9656
89.6667
85.7862
88.3658
81.9157
75.8288
88.0014
85.9549
85.8025
87.9484
89.7269
89.5344
88.4114
87.0184
86.4695
87.0439
91.0741
89.0012
90.0118
89.9943
89.7711
91.4014
91.6409
91.0381
87.9553
82.1765
92.5211
82.3271
84.52
87.3883
87.0463
90.8586
82.9706
83.1149
85.8686
83.6459
89.9692
113.154
108.91
83.3926
85.6458
88.8491
89.0562
90.8683
89.3192
89.7849
89.7473
96.0101
93.0785
113.143
76.7037
85.2034
89.6443
91.5528
87.3376
87.9597
91.7409
84.0683
93.1819
90.6569
89.5178
86.1258
86.1953
94.8088
86.731
85.1204
85.9339
86.2451
90.0525
89.6976
87.5017
85.2038
89.9041
91.7177
86.485
85.1697
88.1491
95.9167
88.182
94.5025
92.3709
91.4117
85.5559
90.7645
87.6048
87.1133
88.1854
86.6212
91.126
89.7318
90.1962
88.5286
91.6593
87.8712
85.9806
113.08
113.811
87.9642
87.1428
91.2564
90.8304
87.2643
86.5616
89.0912
93.158
89.6055
89.6349
89.0523
79.1794
90.1545
88.8124
86.0047
94.4479
90.7002
83.9266
87.5169
90.3104
93.9329
90.8343
88.4169
88.6112
88.6805
89.3601
92.989
98.2161
88.1997
88.3682
88.9589
91.762
77.1557
91.7637
89.4797
99.4465
89.3544
89.1175
86.8716
89.1732
90.1073
88.8999
89.7221
90.8444
89.2963
88.3445
88.8608
96.3557
89.2953
94.4984
88.4538
90.211
88.2088
87.3368
88.6591
93.1973
88.6026
97.509
78.8627
85.6788
91.8814
93.7671
94.687
87.9922
91.4152
86.0308
98.4525
85.1488
88.7805
88.6308
85.0711
86.6274
86.8906
89.5529
89.5026
84.2523
88.1126
89.1503
92.7231
89.9016
91.757
86.3036
90.887
97.5135
87.2033
85.0975
86.561
90.312
86.6065
88.2045
90.6188
85.3805
86.4703
118.81
86.5663
91.3357
89.9748
94.3533
88.6908
90.5125
91.3273
94.3313
88.452
90.7091
85.2689
101.691
91.6392
90.5767
87.4233
85.8426
94.3636
90.0518
87.3959
88.2346
88.2473
87.8462
83.1407
90.4564
89.7937
88.5322
96.8262
92.2911
88.3836
90.2552
94.625
94.1514
86.1928
89.9348
90.5531
91.2688
90.765
91.0492
94.8632
84.9082
90.3722
88.9381
90.0427
89.2086
91.2554
94.5141
90.7137
90.9377
112.939
112.154
83.7467
77.136
86.0516
93.7476
90.123
90.3689
90.1018
89.9034
87.782
88.6992
88.8743
89.266
89.3884
91.9443
111.443
90.5226
88.7002
93.2643
89.7991
85.5421
91.3876
87.539
94.6112
103.167
87.7626
84.7978
98.5795
85.7418
91.0891
124.358
91.3693
89.7775
88.4993
106.172
88.3032
91.3973
86.5833
89.2406
86.2815
95.1428
89.0742
87.1119
105.16
92.7892
94.9631
96.0709
94.3064
90.4341
85.9609
95.5861
87.3661
87.9686
104.425
86.3449
92.4278
91.3111
103.847
103.182
91.2082
97.6482
90.7785
88.2747
90.0705
90.7637
90.1541
89.2864
114.371
91.4625
96.6027
95.6114
99.2678
100.124
104.506
85.3847
88.2554
100.783
102.467
100.83
91.1317
90.4153
94.2027
94.6322
95.0511
104.364
84.8701
102.759
106.146
98.6012
94.198
86.7157
88.3685
104.562
96.1924
101.671
88.5941
95.1533
91.474
87.5483
88.4122
98.0153
91.2743
89.1354
86.6257
85.5294
87.969
90.2236
99.9952
87.4947
91.965
101.234
91.4871
87.6288
90.2429
105.11
91.6035
96.749
107.469
136.258
93.5418
94.6464
91.3992
87.3734
92.0524
94.0356
88.9307
90.4762
107.315
86.3002
91.3481
88.3452
91.2469
90.1375
86.5345
92.476
95.1359
94.1123
87.5983
91.1972
76.254
95.8064
95.5622
92.96
93.1704
93.3043
96.5528
94.7005
99.1489
88.5206
88.2721
95.2732
89.09
89.7522
86.1682
91.2818
89.8327
91.4845
88.0504
91.3788
85.5791
89.3713
87.1998
94.2506
88.7152
88.3776
95.9505
111.185
96.2757
93.0337
81.7665
109.381
86.6883
88.9615
88.6309
94.4411
88.8761
89.2536
88.6676
91.5465
116.346
90.3351
80.98
86.9032
94.4177
94.6882
94.3485
91.2352
84.417
89.9015
87.9934
93.3406
93.2809
104.628
91.3465
86.3225
112.821
95.1061
91.1347
89.684
91.3086
103.204
81.2168
74.6446
89.2552
94.5647
91.163
85.7541
90.3479
91.3142
94.8625
94.1188
90.4079
79.6544
78.1346
111.709
96.3668
89.1071
83.7932
94.7634
91.35
87.5581
91.387
87.7001
88.1684
87.5763
88.656
88.8334
91.9252
92.2697
108.796
111.179
96.406
92.8522
91.0299
92.1243
90.9311
94.2904
87.5324
88.47
91.5676
89.977
88.9332
94.968
91.698
87.8025
88.0804
95.0486
90.4876
94.4089
94.4762
96.3717
87.0584
94.7372
85.305
105.287
86.9059
105.137
88.6946
92.1141
90.9811
91.5759
92.5071
90.4529
90.2164
88.4221
91.329
86.268
94.7339
90.4273
93.9073
90.1675
69.4846
91.5717
89.5707
93.7604
87.8506
91.185
92.2779
87.348
102.287
83.7506
90.9106
90.1701
88.4943
90.3466
87.8396
88.6678
85.4624
89.2356
88.7092
93.3051
91.4245
92.7896
91.4672
88.6976
90.0171
91.1591
88.6722
84.4351
85.2849
88.8429
94.512
92.6767
92.0101
90.0631
89.3675
97.2835
87.8246
85.5354
84.1683
83.5057
90.8377
95.4595
94.6585
92.8233
91.3362
94.8531
88.9937
89.2798
95.1902
83.4121
87.8733
100.477
75.6418
91.4586
84.421
84.6726
95.2285
81.4353
75.1891
95.1068
83.9194
91.0326
92.5909
91.4767
87.2951
88.7339
94.3487
97.3819
109.889
88.2887
90.3909
85.9886
89.8011
87.925
90.1431
86.6172
87.844
79.0075
97.1959
83.7038
88.4237
89.4194
92.8171
108.723
88.5784
87.2742
89.0329
89.2457
88.2742
85.99
89.6411
94.294
88.3125
89.8702
89.6728
91.5292
91.3748
87.0679
88.5657
85.9851
79.8039
88.7346
102.672
91.2692
84.4177
93.4615
88.396
89.6292
80.9041
73.9648
90.8332
97.1237
84.5876
113.13
88.8199
91.4013
90.5502
78.5876
115.641
91.7282
92.7746
94.7083
93.876
87.2868
90.5714
93.9626
91.6958
93.4304
94.6095
88.7066
91.0756
92.5091
95.3445
95.2959
91.3987
87.4732
88.9485
91.5633
114.327
91.3836
91.7354
110.663
94.5093
90.113
92.1584
98.5327
88.5676
114.683
92.0932
94.3023
88.181
95.3973
93.4421
91.5151
89.3195
93.2954
92.9512
75.0833
90.307
95.1349
90.5422
91.3287
87.027
98.2523
88.7078
91.2754
88.2925
111.036
89.9742
111.961
89.5774
88.8784
104.972
107.606
88.9086
89.0683
95.2864
92.1795
77.0068
94.5618
89.464
92.3566
82.0856
75.4812
95.3524
91.8889
93.8589
87.1495
88.1578
89.391
88.3916
90.5128
88.7271
91.5358
88.0525
90.455
86.9722
85.1949
92.1773
94.0979
77.4624
90.9129
88.9338
94.7105
78.8711
91.4355
87.6826
90.9007
87.9101
88.9376
86.593
98.1024
105.353
95.2176
79.3572
91.6942
91.3392
87.9326
86.793
109.254
111.582
91.5049
87.9718
94.496
94.7218
83.1361
88.9916
89.2609
92.9251
93.0121
111.735
91.7035
88.1417
92.1802
106.266
80.4061
107.843
92.6125
92.2739
90.2737
96.5136
87.6366
95.7804
91.2023
86.9089
92.9388
97.029
92.5729
90.4245
89.511
77.9401
90.9768
89.5921
95.0033
90.7863
82.0882
83.9741
89.1511
90.3122
95.9501
90.014
86.4002
89.2918
94.736
94.4632
95.6849
86.442
89.4432
89.2716
91.5443
81.7184
88.287
88.1547
88.342
89.7662
87.2334
93.0361
91.0332
91.2824
110.528
89.9126
113.535
93.5299
93.6668
96.2083
83.2553
91.3882
74.3375
91.8985
89.734
77.372
91.4875
87.9167
91.9039
89.8767
88.8238
90.0249
78.2616
75.726
88.5005
91.3755
85.1807
89.0739
112.352
91.2891
86.6489
94.471
90.1179
89.2102
89.8241
89.0194
89.6211
89.5932
90.3664
86.2766
88.5982
93.5297
87.565
94.4428
92.3768
89.6235
78.81
88.1382
88.8662
89.6253
89.7014
91.4065
94.9176
90.8507
94.1461
91.8969
90.543
94.8682
97.1256
92.7167
88.466
117.292
122.827
88.8761
88.995
89.3561
88.2155
86.1589
90.0581
92.7396
89.3222
87.5216
84.8713
93.3048
93.3455
90.3736
91.4603
85.9828
91.1817
89.4334
94.8569
90.6948
86.8036
88.3476
87.8757
88.656
94.5259
88.86
87.727
93.0875
96.785
91.6425
92.4281
88.8893
91.2496
89.8099
86.6294
90.8847
89.5576
92.018
94.0327
88.6762
87.6051
88.6602
90.4392
83.5775
88.5922
89.8829
91.7977
88.5601
88.9207
92.917
87.7184
95.6444
83.5217
70.0887
94.289
87.6034
91.3073
113.954
88.5799
88.5874
83.0184
91.5277
83.9106
87.5014
94.2482
90.0435
84.1727
83.3774
92.8006
88.2838
88.7895
89.5741
86.829
90.5684
94.2965
90.9856
89.354
90.1221
88.5379
113.846
86.8536
91.3612
92.5592
90.5933
96.6536
85.2517
97.0692
95.7904
92.2967
91.234
86.6097
88.9431
91.0441
90.7669
86.0522
118.179
86.4816
91.6375
97.9314
87.0053
110.344
94.0013
97.8157
89.2979
93.505
88.4598
91.1309
91.6071
92.2707
79.5593
92.1784
89.772
86.5298
92.1349
85.9488
93.6998
92.3376
92.8146
95.4488
94.9004
94.4538
92.5805
81.9217
92.8674
94.129
94.9987
94.4754
88.5393
90.191
87.2936
87.0923
95.3564
110.58
86.9489
86.4525
87.5089
85.8731
90.6194
94.3897
96.0404
74.7187
120.361
76.619
79.5761
106.338
76.5385
80.2685
86.6793
)
;

boundaryField
{
    frontAndBack
    {
        type            empty;
    }
    wallOuter
    {
        type            zeroGradient;
    }
    inlet
    {
        type            zeroGradient;
    }
    outlet
    {
        type            fixedValue;
        value           nonuniform 0();
    }
    wallInner
    {
        type            zeroGradient;
    }
    procBoundary0to1
    {
        type            processor;
        value           nonuniform List<scalar> 
29
(
78.0472
78.4075
81.3782
81.3782
76.3791
76.3791
112.83
81.7367
82.3374
81.5989
81.6929
76.6064
81.8313
77.9635
113.19
113.441
75.9135
77.0659
81.4674
77.6957
113.283
113.125
78.9924
113.37
113.549
77.0659
114.213
112.697
113.37
)
;
    }
    procBoundary0to2
    {
        type            processor;
        value           nonuniform List<scalar> 
42
(
85.018
85.446
91.0638
90.8985
91.7159
85.018
91.0638
91.0784
91.6553
91.2362
91.6603
91.0097
91.6603
90.5797
89.6751
84.2958
89.6751
90.9856
91.4872
76.8343
76.8343
90.9856
90.8121
76.6463
76.6463
91.0616
79.86
91.3181
82.1667
86.8623
86.8623
91.3602
91.2662
91.1633
91.0747
91.0638
86.9783
91.1448
82.1667
91.0784
91.0318
91.0374
)
;
    }
}


// ************************************************************************* //
