/*--------------------------------*- C++ -*----------------------------------*\
| =========                 |                                                 |
| \\      /  F ield         | OpenFOAM: The Open Source CFD Toolbox           |
|  \\    /   O peration     | Version:  v1912                                 |
|   \\  /    A nd           | Website:  www.openfoam.com                      |
|    \\/     M anipulation  |                                                 |
\*---------------------------------------------------------------------------*/
FoamFile
{
    version     2.0;
    format      ascii;
    class       volVectorField;
    location    "0.28";
    object      U;
}
// * * * * * * * * * * * * * * * * * * * * * * * * * * * * * * * * * * * * * //

dimensions      [0 1 -1 0 0 0 0];


internalField   nonuniform List<vector> 
1431
(
(-0.775507 -0.179278 -2.72787e-17)
(0.983667 -0.00425129 -1.53886e-16)
(5.81787 1.17479 9.71829e-17)
(-2.87044 1.58572 -4.37478e-17)
(-0.0150327 2.31846 -1.13439e-16)
(3.0275 0.211064 2.33667e-16)
(-0.307928 0.828891 -1.65773e-16)
(9.75243 0.536813 -2.10886e-16)
(0.887751 2.54108 0)
(-4.16837 -2.76198 -8.55572e-17)
(0.399277 -2.88263 0)
(0.552647 -0.280664 6.99684e-17)
(1.67914 -0.180131 0)
(9.28282 0.419859 1.8284e-18)
(0.265897 0.138178 -2.77124e-16)
(0.294568 0.423361 0)
(0.277955 0.884191 -3.84626e-16)
(-2.06427 0.16663 0)
(-0.376504 0.0400986 1.42598e-16)
(0.16377 -2.86793 3.5912e-17)
(-0.237277 0.158641 -2.02374e-17)
(-4.37586 -2.10467 -7.8473e-19)
(2.43791 0.63098 -4.29391e-17)
(9.04275 0.466224 -2.95391e-17)
(1.77764 3.2608 -1.17453e-16)
(-0.0230596 -2.83288 -9.76528e-17)
(-1.3176 4.73618 1.06522e-16)
(9.4999 0.375986 -2.3968e-20)
(10.8282 0.615127 5.78955e-18)
(-2.69002 -0.710815 -3.61892e-16)
(8.1466 0.277536 2.21834e-16)
(7.33417 -0.174154 -1.67981e-16)
(-1.98023 0.478743 -1.07277e-16)
(0.477753 -0.485145 0)
(2.25509 -0.131719 7.65434e-17)
(2.2964 7.7672 1.2808e-16)
(-0.434027 -2.14138 9.07955e-17)
(9.7119 -0.0188065 0)
(2.6058 0.191246 -1.33718e-16)
(9.63172 -0.0120436 0)
(5.73462 0.115342 1.21914e-16)
(0.357415 0.0460944 -7.88878e-17)
(1.22956 -0.0944762 0)
(0.416274 -0.0240247 -5.67408e-17)
(-0.941852 0.699351 1.44783e-16)
(-1.82083 0.318245 -3.67483e-16)
(1.17099 3.88889 2.25212e-16)
(7.44018 1.14008 -5.48974e-17)
(9.04448 0.478023 1.53909e-16)
(9.4738 0.0894324 3.52461e-17)
(-2.65124 -0.29077 -7.06832e-17)
(-4.38392 -2.6686 8.40653e-17)
(1.35673 2.49768 6.23635e-17)
(1.92539 -0.366263 -1.3426e-17)
(-1.58413 0.339949 -9.16693e-17)
(8.19462 1.59813 0)
(-2.23582 -1.5055 4.95205e-17)
(2.17692 3.20124 -1.95665e-16)
(-0.416501 6.40655 0)
(0.01072 -0.378888 -8.31413e-16)
(0.460258 1.35935 0)
(-1.10542 -1.41088 -1.40313e-16)
(1.43781 6.53004 -1.44598e-16)
(10.5834 0.117549 0)
(10.0483 0.279662 -1.7504e-17)
(-1.90455 0.0648272 0)
(6.23484 0.538507 0)
(2.98035 0.072696 0)
(-1.49164 -0.322039 1.60958e-16)
(10.768 0.0791037 0)
(-0.872913 -0.224215 8.66021e-17)
(2.29127 -0.373678 -7.17626e-17)
(0.711084 -2.19926 0)
(3.0374 0.122057 -2.40708e-16)
(1.69491 -1.7867 4.73475e-19)
(-0.974061 0.424871 2.60385e-16)
(-0.488884 1.91499 4.24887e-17)
(5.07764 1.30683 2.67426e-16)
(9.98917 0.140594 1.24917e-17)
(1.0538 -3.04027 -1.99959e-17)
(9.93986 0.0969792 -2.43912e-16)
(-2.50887 -0.0327429 -1.87466e-18)
(1.24748 -2.31154 1.56185e-16)
(0.826101 0.171842 -8.47537e-17)
(-2.60588 1.20442 4.45348e-17)
(-0.0385684 1.6427 -4.29777e-16)
(-0.280513 0.786373 -1.05728e-16)
(-0.265766 1.16215 1.6899e-16)
(8.73825 0.509649 8.85316e-17)
(-0.311777 -2.40389 -4.54253e-17)
(-1.95339 0.0769137 1.59245e-16)
(-1.32599 1.23604 2.42979e-16)
(-0.27235 0.38305 0)
(9.77217 0.0187987 0)
(-1.80334 0.183645 2.00884e-18)
(-0.241399 0.675284 1.15277e-19)
(1.65036 -1.0386 -2.06121e-19)
(10.3677 0.469037 3.18134e-18)
(-0.452066 0.617842 2.216e-16)
(9.14703 0.457175 -4.2915e-16)
(-1.9833 -0.436366 -1.5164e-16)
(9.88037 0.144874 -6.49032e-17)
(-1.35179 -0.525274 0)
(-0.0098144 2.342 -3.67766e-20)
(-0.355282 2.07195 1.72032e-16)
(2.87081 0.330376 6.2893e-17)
(10.0184 0.0552365 -1.01928e-16)
(5.42516 -0.00710324 7.07858e-17)
(7.51075 0.063582 9.03681e-17)
(-0.1449 2.26485 6.07929e-17)
(-0.586317 -2.64946 1.69632e-16)
(-1.66356 0.0525666 -6.65474e-17)
(9.70038 0.740963 0)
(-1.06132 -1.36292 -1.38948e-16)
(0.584483 1.99096 0)
(0.0491294 2.65541 0)
(-1.93336 0.176531 0)
(0.203562 -0.473458 -6.14198e-19)
(8.34891 0.53401 -6.05222e-17)
(-1.51178 0.769632 -1.4522e-16)
(9.88364 0.232087 -1.95936e-17)
(1.68803 3.04805 -1.47696e-16)
(-2.31747 -1.82929 -4.05088e-16)
(9.20026 0.749513 -1.12667e-16)
(10.1215 0.170062 0)
(1.54235 0.75925 -8.10623e-17)
(7.88628 0.533751 1.58948e-17)
(2.24794 -1.99415 4.73312e-17)
(-1.25725 0.736668 7.40973e-17)
(10.6436 0.424601 -7.05975e-17)
(-1.38113 0.0729655 -1.27546e-16)
(4.83285 -0.129688 2.3178e-16)
(7.20779 0.314203 0)
(-1.33596 -0.715496 -1.53502e-16)
(-0.14445 0.112506 -1.16245e-17)
(-2.03596 1.46344 -2.56658e-16)
(0.338055 -2.08167 0)
(-1.62792 -0.0385039 1.11101e-16)
(-1.81984 0.086825 4.07873e-17)
(4.04716 -0.0597734 -3.73343e-16)
(0.824413 0.160861 0)
(-0.772102 -0.274878 3.38292e-17)
(10.5285 0.0533812 -7.35465e-18)
(9.06585 0.35307 -1.97929e-17)
(8.84011 0.171596 0)
(11.384 0.283277 4.2661e-17)
(10.3549 0.313761 3.29614e-17)
(5.22113 -0.0312168 0)
(0.0532428 -2.0808 -1.06987e-16)
(9.36503 0.82724 -5.10687e-17)
(10.8653 0.0422672 7.65923e-17)
(9.97296 0.391667 -1.51646e-17)
(2.52355 0.520239 -1.34838e-16)
(1.17482 -1.12939 8.53768e-17)
(-1.14862 -0.454214 1.54412e-16)
(2.5107 -1.66635 -2.93592e-17)
(10.0855 0.109878 8.42081e-17)
(-1.32647 -0.773682 -3.57556e-16)
(9.59929 0.835956 0)
(9.47255 1.01688 -9.45988e-17)
(-2.10764 0.16856 -1.13634e-21)
(0.119558 -2.51569 3.36173e-17)
(-1.44677 -0.244122 0)
(1.20267 1.11354 -3.46806e-17)
(-0.148189 1.74812 -1.84876e-16)
(-0.694767 -0.554064 -1.8203e-16)
(-0.190109 1.63187 -1.04229e-16)
(9.82385 0.0862913 0)
(-2.71184 -0.469117 3.12583e-16)
(-1.02168 -1.11299 -1.37317e-16)
(9.91271 0.809517 -1.30924e-17)
(0.957244 0.486344 3.122e-17)
(8.91449 0.52472 -1.09734e-16)
(11.059 0.0430414 0)
(10.5123 0.0331139 1.39459e-17)
(-1.66954 0.0997133 0)
(-0.492223 0.161504 8.33394e-17)
(9.32833 0.644312 -1.73025e-17)
(-2.59981 -0.913482 2.49453e-16)
(9.50569 0.958025 9.66303e-17)
(9.738 0.313727 4.00123e-17)
(0.0651644 -0.0282146 1.23511e-16)
(8.94776 1.55665 0)
(-0.703491 -1.91867 2.67342e-16)
(11.2488 0.115768 9.34382e-17)
(9.93901 0.965398 -1.31541e-17)
(9.84466 0.615645 9.99295e-17)
(-2.709 4.80155 -1.25205e-16)
(-0.157697 -2.75844 1.3168e-16)
(10.2723 0.105682 -1.35123e-20)
(-1.10789 -0.648025 -1.94096e-18)
(0.414168 1.23908 -1.31e-16)
(-0.532643 1.24478 -3.17121e-16)
(10.0633 0.0381225 -6.1582e-17)
(0.919459 2.87137 -1.88567e-19)
(10.027 0.372438 3.90422e-17)
(10.0194 0.0720301 0)
(7.51373 2.01454 -1.02202e-16)
(-0.539072 -1.44526 0)
(-0.0826619 -1.10133 0)
(0.328477 -1.61569 -1.59633e-16)
(2.85931 2.66939 -2.70433e-16)
(9.353 0.914831 -2.6661e-17)
(4.35129 0.128851 -4.16882e-16)
(10.0385 0.0452158 3.38655e-17)
(-2.22662 2.42236 -2.81262e-16)
(-0.0996904 0.918387 8.57019e-16)
(9.78397 0.222788 2.40514e-17)
(1.13646 -2.52241 1.12279e-17)
(9.22133 0.264773 0)
(10.1287 0.063317 7.63791e-18)
(9.93257 0.289641 6.04942e-17)
(8.50145 0.626184 1.30175e-17)
(9.86177 0.201354 2.30989e-17)
(-0.608847 -0.884476 0)
(2.5834 3.18137 2.45991e-16)
(9.49466 0.919387 0)
(-0.849909 -0.883841 0)
(-0.507471 -0.534464 0)
(10.1157 0.237742 -6.03741e-17)
(9.88344 0.17084 0)
(0.306347 1.17006 1.37363e-16)
(11.1268 0.0270301 -1.22896e-16)
(3.5905 1.11606 -7.61546e-17)
(10.7225 0.353596 0)
(9.35875 0.956367 0)
(9.60437 0.842479 -7.03688e-17)
(-1.06253 -1.26828 0)
(10.613 0.539692 0)
(8.20881 0.236434 -6.82844e-17)
(-0.0829214 1.28655 0)
(-2.52972 2.29158 3.11864e-16)
(10.6269 0.0758118 7.64658e-20)
(9.88431 0.425953 -1.82458e-16)
(9.78149 0.370664 8.38376e-17)
(9.81303 0.329139 4.71416e-17)
(10.4903 0.214117 -2.53436e-17)
(-1.22909 -0.00259133 1.85523e-16)
(9.85105 0.108806 0)
(2.28712 0.486718 1.60825e-16)
(9.52422 0.206189 -3.07388e-17)
(9.41924 0.990795 8.01973e-17)
(0.288329 1.2703 -2.83933e-16)
(0.877251 3.22109 -3.10402e-16)
(2.51125 -0.897414 -1.75944e-19)
(2.27064 -0.085958 6.2185e-20)
(10.5348 0.274594 -1.70926e-16)
(1.13227 0.267092 0)
(0.869105 -0.555192 0)
(10.1691 0.775647 0)
(10.0933 0.834709 -9.04427e-17)
(0.594432 1.91372 0)
(-4.72119 -2.87567 8.63429e-17)
(6.42784 2.99521 2.02497e-17)
(1.17384 4.57068 -1.66347e-16)
(8.16704 0.0548362 -4.30015e-17)
(-0.111171 0.0428302 1.94104e-17)
(2.38654 0.492326 1.18944e-19)
(8.30368 0.00347306 5.50629e-20)
(8.258 0.0199349 8.34733e-17)
(8.13038 0.0734873 8.26803e-17)
(1.32076 0.543683 2.51132e-17)
(-0.292472 1.14747 3.91048e-16)
(1.1518 0.371823 -5.6245e-17)
(9.77133 0.271434 -7.3599e-17)
(10.7158 0.455901 6.5166e-18)
(8.13027 0.00181155 -7.8007e-17)
(9.911 0.782872 0)
(8.43147 2.42991 2.71531e-17)
(0.631162 0.328919 -2.04294e-17)
(9.81438 0.906912 0)
(9.26227 0.66018 2.92912e-16)
(10.2351 0.722911 2.65069e-17)
(10.2813 0.634033 0)
(8.08158 0.0858194 -5.1197e-17)
(9.98914 0.560744 8.92991e-19)
(-1.59014 -0.291401 -9.80561e-17)
(-0.852169 -0.630652 -3.08896e-20)
(-1.63018 -0.259715 -3.23307e-17)
(-2.33518 -2.05946 1.57606e-16)
(1.06097 3.09984 0)
(2.4487 0.617974 -3.16311e-17)
(-0.480595 -0.548876 0)
(-1.54602 -0.399864 2.56987e-16)
(8.20394 -0.0139278 -4.24813e-17)
(-3.30538 3.40635 5.30435e-17)
(-0.077371 1.33125 9.71422e-17)
(9.21978 1.03866 4.96102e-17)
(10.3541 0.710904 1.97456e-19)
(9.6505 0.186786 6.41501e-17)
(11.1603 0.435466 1.46297e-16)
(9.54547 0.00558629 -5.76433e-17)
(9.43456 0.905463 0)
(-2.40015 -0.962726 0)
(10.0568 0.900775 -4.23762e-17)
(9.48611 1.20815 4.55859e-18)
(-0.972027 1.32645 0)
(9.16267 1.83676 1.4377e-18)
(2.1036 0.36814 -1.53646e-16)
(9.51707 1.00574 2.7292e-17)
(9.64955 0.372839 2.7404e-17)
(9.45828 0.744254 7.02465e-17)
(2.45077 -1.97923 0)
(8.04613 0.138559 0)
(-1.27421 -0.6805 -2.13332e-16)
(1.64282 0.232932 1.37659e-16)
(9.92561 0.125241 7.7784e-17)
(8.21557 0.0354135 -8.43669e-17)
(8.26604 0.0102115 -8.12404e-17)
(-0.221005 0.321673 1.88339e-16)
(9.66149 0.254833 -1.28044e-17)
(10.8058 0.208949 5.17127e-17)
(0.25122 -0.149937 -1.65864e-17)
(-0.659468 -0.0335609 -1.8557e-17)
(-0.322526 0.394643 -2.69074e-19)
(1.34969 0.12787 -1.59139e-16)
(-0.980667 -0.938628 -5.12872e-17)
(2.41333 0.668204 -6.18863e-17)
(9.80385 0.278731 -4.42095e-17)
(-1.26364 1.1209 -1.45932e-16)
(1.57917 0.22788 -2.41238e-16)
(-0.829448 0.755152 2.34659e-16)
(0.710897 0.481771 4.80462e-19)
(1.92096 0.41771 -1.18868e-20)
(-0.107444 -0.492959 -1.92046e-16)
(-1.61819 1.02715 -7.59109e-17)
(9.84673 0.0721356 1.66764e-16)
(-1.99354 0.407264 -6.98524e-17)
(8.30879 0.452547 0)
(9.77097 0.180666 -6.44431e-17)
(-0.327293 -0.62082 -9.18998e-17)
(2.03486 -0.990623 0)
(2.63871 0.755152 0)
(-1.74156 -0.823137 1.68687e-16)
(10.2918 0.111509 0)
(-0.152074 1.1087 -1.54276e-16)
(-2.32359 -0.501152 -4.77005e-17)
(-0.613104 0.601934 0)
(-2.02962 -0.261536 -1.44532e-17)
(1.02192 -0.466505 1.42452e-16)
(0.202433 -1.17157 0)
(9.82758 0.090761 -7.52013e-17)
(-2.07013 0.767226 7.7842e-17)
(10.0695 0.222781 3.12082e-17)
(6.29429 3.13741 -2.51632e-16)
(-0.827593 -0.155296 1.61313e-16)
(10.521 0.243303 1.37707e-17)
(0.702138 -0.183444 1.56965e-16)
(-0.351373 -0.0929464 -8.3753e-17)
(0.143853 -0.0049246 -8.04971e-17)
(0.964533 0.146513 -1.14579e-16)
(-0.935952 -0.0683903 -3.93516e-16)
(-0.545166 -0.223081 0)
(-0.729818 0.221846 -1.50348e-16)
(-1.49887 0.316408 0)
(0.684676 0.124134 0)
(-0.923666 -0.0652299 0)
(-1.18529 -0.0818724 -3.09093e-16)
(-1.14428 0.183597 0)
(0.662037 0.15345 4.29921e-16)
(-0.173661 -0.121973 -1.84337e-17)
(-1.27395 0.532374 1.14167e-16)
(-0.527386 0.224232 2.37854e-18)
(-0.657799 -0.0312177 -8.54558e-17)
(-0.113446 -0.122285 2.74379e-16)
(0.89883 -0.0621628 -1.51554e-16)
(-0.200693 0.138835 0)
(-0.432575 0.532928 0)
(-0.366857 -0.248286 -2.3646e-17)
(0.0720189 -0.240525 0)
(1.30836 0.136369 5.0623e-16)
(2.57854 0.621675 9.21226e-17)
(-1.11213 0.770107 -1.37069e-16)
(10.0222 0.948645 4.92385e-17)
(-2.05205 -0.946413 0)
(-0.751535 -1.60897 1.78564e-16)
(-0.329683 -0.751156 9.04512e-17)
(9.815 0.300795 2.97183e-17)
(10.0045 0.0341147 7.75864e-17)
(-1.27697 0.190868 5.50166e-16)
(-1.01357 0.0168802 2.42724e-17)
(0.939009 0.0185038 3.57721e-17)
(0.103807 -0.0797034 -2.58913e-16)
(-0.743682 -0.131522 0)
(-0.65507 0.57177 1.12696e-16)
(-0.354059 0.19875 0)
(0.149407 0.528453 0)
(-1.46821 0.0996162 1.48322e-16)
(-0.936284 0.208294 1.38808e-16)
(-0.534969 -0.0568807 1.59521e-16)
(0.375922 -0.303591 0)
(3.59624 5.38098 1.64717e-16)
(9.82943 0.938156 -2.66184e-17)
(9.98787 0.00229897 0)
(-1.49963 0.667004 2.28835e-19)
(-1.34901 0.0200288 -1.47494e-16)
(-0.418953 0.428305 -1.59449e-16)
(9.95481 0.195243 0)
(-0.443977 -1.6833 0)
(10.4466 0.0693161 0)
(1.18089 0.15248 -5.07876e-17)
(-0.476938 -0.664865 1.61133e-16)
(10.0144 0.211861 2.61559e-17)
(-1.90431 -0.105167 2.69949e-17)
(-0.570037 -0.547025 1.07056e-17)
(9.97763 0.756896 0)
(2.66951 0.714361 8.02634e-17)
(8.8898 0.0121584 1.57109e-16)
(-0.250344 0.158751 -3.26475e-17)
(-0.110125 -0.485008 -1.29249e-16)
(9.71826 0.0759112 6.12789e-17)
(-0.16589 -0.829475 0)
(-1.20171 -0.219688 -2.33554e-20)
(2.76777 7.30343 -3.77344e-16)
(8.97302 0.22522 -2.08949e-17)
(1.78503 4.60741 6.15767e-17)
(-0.0514105 -0.632643 -1.55364e-16)
(0.513051 0.822422 2.85194e-16)
(2.31244 0.602371 -1.67909e-17)
(-0.296904 0.37297 4.28719e-19)
(2.14054 0.539075 3.70442e-17)
(-1.07278 -1.70425 1.28855e-16)
(-2.72979 -1.90869 4.53827e-17)
(2.37599 0.561294 -2.09944e-16)
(-1.11571 -1.76535 0)
(0.17155 -0.541699 1.57321e-16)
(2.53866 0.659479 3.79535e-17)
(0.40929 1.17012 1.08101e-17)
(0.223856 0.552361 -1.12746e-16)
(1.67977 0.510612 -3.25714e-16)
(2.20034 0.827934 0)
(1.94185 0.447578 -1.66994e-16)
(-0.246698 -0.388337 0)
(-0.617727 0.406642 2.67173e-16)
(2.62198 0.758874 -7.00716e-18)
(0.956282 0.0114421 0)
(-0.950506 -1.72307 -2.01731e-16)
(0.345945 0.756035 2.86404e-18)
(1.90818 0.508338 5.38711e-16)
(1.87704 -0.314631 1.47707e-16)
(-2.49598 0.521849 1.76059e-18)
(0.668853 0.351853 -4.93828e-17)
(-0.163842 0.32067 0)
(0.268475 0.19531 5.67381e-17)
(0.160173 0.141649 0)
(-1.35004 -0.854487 8.23827e-18)
(-1.182 -0.492094 -4.60912e-18)
(0.791317 0.179316 -1.18369e-16)
(0.54708 -1.35117 0)
(-0.31131 0.929754 1.63226e-16)
(-0.868608 0.346231 -1.05608e-16)
(-2.30201 -1.59561 3.62209e-16)
(-1.38847 -0.171796 -1.38839e-16)
(-3.31715 -1.73914 -1.17974e-16)
(-0.67046 -1.75616 7.47578e-17)
(-3.37578 -1.10985 -1.7328e-16)
(-2.60301 -1.06735 -2.70395e-16)
(-1.80052 -1.36305 -6.52869e-18)
(-3.02285 -1.13912 0)
(2.84543 0.890723 0)
(4.06836 3.08251 2.21139e-16)
(-0.320631 -0.524852 0)
(2.3546 -0.0374102 0)
(2.63784 0.819581 -1.73509e-16)
(3.11899 0.918476 1.43518e-16)
(3.30373 0.780319 -3.15261e-16)
(-0.481332 -0.164227 -1.67629e-16)
(3.19144 4.2215 8.83748e-17)
(2.88317 0.656587 -1.69744e-16)
(2.901 0.808809 -3.96686e-16)
(2.71324 5.7251 1.48379e-16)
(-2.16755 0.0693549 0)
(8.07579 0.0937584 -1.47215e-17)
(1.05019 7.05375 -5.4534e-17)
(2.90989 1.13841 2.23365e-16)
(3.45383 0.480143 -1.26537e-16)
(3.13712 6.49065 -2.71121e-16)
(2.54172 6.47208 2.60656e-16)
(0.919728 2.60904 1.88702e-16)
(-0.123421 -1.93098 0)
(-0.618187 -1.73697 -4.19556e-17)
(-2.24797 0.0289417 0)
(0.669027 8.3548 -4.51075e-17)
(9.92876 0.315273 -1.74309e-17)
(8.74071 0.145631 -3.07001e-17)
(-3.9109 -1.23941 -9.35294e-17)
(2.51695 1.20791 -1.08549e-16)
(-1.26424 -1.96379 1.24189e-16)
(-1.15153 -1.40264 -1.01235e-16)
(0.412078 -0.930925 0)
(0.213407 -0.399813 -1.17565e-17)
(-0.165202 -1.03621 0)
(2.4228 0.154035 1.74692e-17)
(2.36928 4.91566 6.24782e-17)
(-0.200544 -1.38237 0)
(-2.33666 -0.0274117 0)
(0.0829979 3.60411 0)
(0.599552 -0.31874 4.27509e-17)
(9.92536 0.158353 -1.28923e-17)
(1.04544 -0.229509 0)
(2.57598 1.88143 -8.13341e-19)
(-0.84945 3.82816 1.58821e-17)
(0.985275 1.36692 7.03267e-20)
(1.79659 0.806968 0)
(2.09485 0.795849 1.86534e-16)
(0.573017 -1.16925 0)
(3.50935 0.0976268 -2.79674e-19)
(-1.90433 -2.00645 -6.28292e-17)
(-0.503858 -1.14157 -4.23205e-17)
(0.396995 1.13212 -8.86926e-17)
(0.329018 1.48383 0)
(0.564277 -0.679884 3.27824e-17)
(9.68884 1.06096 0)
(-0.506126 -0.331554 3.89909e-17)
(10.5145 0.119225 -8.96587e-17)
(-0.718481 -0.691066 0)
(1.53965 3.95363 -4.2327e-16)
(-0.286608 3.74021 8.41322e-18)
(-0.449651 -1.47256 4.18927e-17)
(2.71156 0.595197 0)
(0.403133 -1.31321 8.43509e-20)
(1.00587 0.116965 -1.22316e-16)
(0.47351 -0.856663 5.97991e-17)
(0.037925 -0.0477074 -1.84672e-16)
(-1.98957 -0.0942764 9.34863e-19)
(-0.700947 -1.79211 0)
(-0.309727 -0.373417 1.63717e-16)
(-0.853832 -1.26642 0)
(0.951797 -0.493585 3.96176e-17)
(0.775945 0.250952 -1.0876e-16)
(8.70111 0.172499 4.233e-17)
(8.01675 0.151109 -1.22054e-16)
(1.42679 0.343476 4.97458e-17)
(0.812028 -0.772768 -1.53157e-17)
(-1.41258 -1.58975 1.96358e-17)
(-0.652666 -1.5737 -3.90479e-17)
(1.38565 1.95442 3.40512e-17)
(1.22658 0.332165 0)
(-1.654 -0.560797 3.01711e-16)
(2.59198 3.42237 0)
(2.05363 1.1371 -1.11878e-16)
(0.55351 1.71902 1.84204e-16)
(-0.282871 -0.675472 1.60339e-16)
(-5.16854 -1.93777 0)
(-1.0543 0.0427461 4.06082e-17)
(-1.24518 -1.98523 5.30843e-17)
(0.898269 0.805021 2.60324e-17)
(9.78415 0.0857016 0)
(-1.69849 -1.80126 0)
(2.49024 -0.259047 -6.36557e-20)
(1.2716 -0.0588969 -4.50267e-17)
(-0.876193 0.00885136 2.03253e-16)
(8.15817 -0.0510133 4.09372e-17)
(-0.838065 -1.66019 7.58836e-17)
(2.66437 0.913806 2.43676e-17)
(-0.613988 -0.535066 -5.31061e-17)
(1.44182 2.20439 -6.62824e-17)
(-0.244198 -0.781613 -1.65755e-16)
(8.05909 -0.0485885 -4.64184e-19)
(9.32233 1.05661 4.43748e-17)
(-1.43802 -0.0632306 -3.1611e-16)
(2.36643 0.784334 0)
(1.13414 2.37406 0)
(0.7176 1.9578 8.04346e-16)
(-2.32828 0.447999 -1.07504e-16)
(-0.0530614 0.134648 -5.32694e-16)
(-1.65234 -1.05258 0)
(9.68556 0.821734 1.25153e-16)
(0.747869 0.528632 0)
(2.3364 0.999025 1.15062e-16)
(-0.421689 -0.320238 -5.55207e-16)
(-0.224083 -1.52868 2.13287e-16)
(1.53608 1.84536 0)
(-0.700594 -1.77924 1.03212e-17)
(1.6871 5.27413 0)
(-1.48492 -0.392956 2.19596e-16)
(-1.45818 -1.49128 1.02587e-16)
(-2.41063 -0.917205 9.01715e-17)
(2.43635 0.798448 -1.13135e-16)
(8.74857 2.10015 -2.81815e-17)
(-2.41851 -0.101906 -3.73978e-18)
(9.78475 0.0688856 2.11664e-16)
(-0.584444 -0.544905 0)
(1.17191 0.243977 -9.50833e-19)
(0.960663 0.109971 -2.21603e-17)
(1.55643 0.453851 0)
(-0.319012 -0.426223 3.14864e-16)
(9.87045 0.864285 0)
(-2.58007 -0.155436 3.63778e-18)
(10.8045 0.373999 -3.14088e-18)
(-3.8774 -1.96286 0)
(2.14534 2.4402 -8.63919e-17)
(10.0002 0.0739723 -1.05643e-16)
(9.81642 1.07824 0)
(9.70319 1.34232 -5.0026e-18)
(1.94357 0.710929 0)
(-0.685207 -0.516902 -8.39795e-17)
(-0.0400621 -0.323889 -1.9008e-17)
(9.73716 0.740768 6.83354e-18)
(-0.326422 0.137649 -1.95066e-16)
(-0.403919 -0.53865 -2.02629e-16)
(0.0935183 -0.276622 -4.18882e-16)
(3.6176 -0.384769 -2.79793e-17)
(1.3484 0.892499 -5.24194e-18)
(1.40938 1.44019 5.55652e-19)
(-0.778591 -1.84937 -9.24567e-17)
(0.37508 -2.51328 0)
(2.66398 -0.712636 -4.91297e-20)
(-0.509192 -1.56326 5.86545e-17)
(5.43402 1.07249 -4.42865e-17)
(6.70404 2.05996 6.18342e-18)
(-0.797621 -1.22935 -1.47325e-16)
(-0.193317 0.251533 0)
(0.155878 1.27074 -1.59547e-16)
(6.05285 1.50759 0)
(9.78847 0.642606 -1.26614e-17)
(0.668817 3.66915 0)
(0.180693 0.8796 5.81069e-17)
(1.02607 1.89273 -9.54167e-17)
(-1.17345 -1.85666 2.12791e-19)
(3.74382 -0.7865 6.75026e-17)
(1.50351 0.294242 0)
(-2.08879 0.142693 2.51011e-16)
(3.48209 -1.54087 -4.15035e-17)
(-0.0373707 -0.829143 -6.9151e-20)
(6.88855 1.60498 -5.82538e-17)
(3.61274 -1.12551 5.63668e-17)
(-0.795701 -0.328192 8.51281e-17)
(-0.650807 -1.73589 -1.32577e-17)
(9.79004 0.0471304 0)
(0.000540275 -1.26921 5.92325e-17)
(-2.02724 0.129223 -7.92249e-17)
(-1.59996 0.0568153 -1.11098e-16)
(9.79613 0.0418666 -4.42163e-17)
(1.83528 0.346102 5.96546e-17)
(-1.01362 -1.74559 3.65743e-17)
(3.7041 -0.876135 -5.26209e-17)
(9.14701 1.07516 3.54566e-17)
(8.83169 1.45294 2.01273e-17)
(-1.93763 0.112645 1.90032e-16)
(1.7326 0.982865 -1.69347e-17)
(-0.650794 -0.984549 0)
(9.80857 0.0548957 1.74891e-16)
(-0.355058 -1.43885 3.63343e-16)
(-0.000538415 -1.05003 -1.91231e-17)
(1.65947 1.89093 0)
(2.1044 1.10101 2.72976e-17)
(1.04545 1.93755 -7.96671e-17)
(-4.94889 -2.91866 4.17057e-17)
(-1.88563 0.103133 2.50279e-16)
(-1.10298 -0.344384 0)
(1.12464 0.125585 2.45665e-17)
(9.48124 1.59902 4.17569e-17)
(8.5727 0.889746 0)
(0.790462 1.3027 1.10393e-16)
(-0.710978 -1.8159 -6.7543e-17)
(9.78505 0.0685062 7.8593e-17)
(9.91417 0.165107 -2.15582e-17)
(-0.624782 -0.292811 -2.78088e-16)
(-0.511305 -1.6775 -4.12131e-16)
(1.36443 0.568136 1.74701e-17)
(-0.806616 0.0896968 9.49301e-17)
(-1.90308 0.0704019 -2.71826e-16)
(-1.96951 0.071046 -2.53361e-19)
(9.79094 0.134447 0)
(-0.399658 -0.0842966 1.71041e-16)
(10.0123 0.0771409 3.71926e-17)
(-1.93298 -2.15023 -4.83492e-17)
(-0.753356 -1.83973 1.48002e-16)
(0.237387 0.074973 -5.08251e-17)
(-0.858065 -0.18613 -8.41842e-17)
(9.80967 0.0869784 -2.46048e-17)
(-2.01877 0.118308 -1.40853e-16)
(0.943292 0.472409 -2.27939e-17)
(8.64152 0.256517 0)
(8.77999 0.659614 7.68456e-17)
(2.74977 2.40733 4.6653e-17)
(-2.5448 -1.22738 1.11257e-16)
(3.45362 -1.47538 0)
(8.84846 1.76083 -3.04025e-17)
(0.0873404 -0.115404 -1.73937e-16)
(-0.982008 0.057902 1.70327e-18)
(1.72464 0.741267 -2.61402e-17)
(-1.26804 -0.130112 1.82877e-17)
(-1.3232 -0.950087 -1.7974e-16)
(2.58161 0.580677 -2.04929e-19)
(-1.60785 -1.55476 3.35509e-16)
(1.79774 1.67168 -3.35439e-17)
(-0.122054 -0.506569 0)
(-0.38186 0.326082 1.5715e-16)
(7.67931 0.141574 2.07572e-17)
(1.32377 0.85411 0)
(2.02822 1.4209 -1.50997e-17)
(-1.05435 -0.468289 -5.9162e-17)
(-1.0765 -1.42086 1.06659e-16)
(3.79968 -1.28859 -2.54087e-17)
(-0.738057 -0.0133198 -7.21646e-17)
(-0.079251 -0.36365 3.199e-16)
(9.80332 0.113226 0)
(9.0396 1.10806 -5.74556e-17)
(1.76617 1.47348 0)
(3.01459 -1.15227 1.03365e-16)
(9.42549 0.901965 -6.32604e-17)
(3.79595 -1.5293 4.74834e-17)
(-0.0322898 -0.0544339 3.18693e-16)
(4.89639 2.79109 9.14733e-17)
(8.73788 1.15401 -3.17808e-19)
(-0.174318 -1.38279 -2.0043e-16)
(10.0073 0.0881701 -1.07626e-17)
(6.11106 0.331551 2.24372e-16)
(-2.62769 -0.810033 1.91431e-16)
(-0.534183 -0.707981 3.90951e-18)
(3.76684 -0.350307 -6.85328e-17)
(-2.75898 -2.23968 -2.72975e-17)
(0.584715 1.73818 -9.22712e-17)
(8.11442 0.300415 5.25967e-21)
(0.272461 -0.371242 3.03815e-16)
(0.980506 2.99873 -1.06632e-16)
(8.9005 1.10795 -8.61461e-19)
(-1.60801 0.128254 7.25598e-17)
(8.4955 0.332661 0)
(9.53857 0.120268 2.14322e-17)
(9.7865 0.0899716 1.2021e-17)
(-0.807193 2.97527 1.77814e-16)
(1.82572 -0.85651 -3.51546e-16)
(7.68671 0.296757 -2.23201e-17)
(-4.13839 -2.37627 0)
(-0.23789 1.37619 1.23071e-16)
(2.45466 0.166311 -2.40008e-16)
(-0.751584 -0.449162 0)
(-0.84016 0.373973 0)
(-1.42462 0.0548926 1.29983e-16)
(2.95274 0.171385 2.24254e-16)
(3.33789 0.193398 0)
(-0.138012 2.12508 -2.36173e-16)
(9.51797 0.804776 -6.85123e-18)
(-1.61558 -0.139418 1.36376e-16)
(0.257392 -1.14728 1.11561e-16)
(-0.442143 -0.999174 0)
(-1.74798 -0.00387004 -2.6233e-16)
(1.71774 1.27407 1.3147e-16)
(0.0802407 0.666736 1.55467e-16)
(6.11265 -0.273118 0)
(-2.0002 0.105605 0)
(5.39165 0.0864864 0)
(8.9249 0.354371 7.4752e-18)
(9.24175 1.40752 1.03379e-17)
(10.4955 0.623701 -1.29048e-17)
(9.58246 0.809687 6.92053e-17)
(1.73063 -1.16706 1.70878e-16)
(0.917113 0.679753 5.54731e-17)
(9.0769 1.19018 -1.26447e-16)
(3.74709 0.190889 0)
(4.43418 0.14943 4.5375e-17)
(-1.82918 -0.0270259 0)
(-1.41437 0.0804573 -1.00494e-16)
(9.94484 0.0395141 5.65995e-18)
(10.9415 0.0438585 0)
(9.4505 0.1084 5.15925e-18)
(7.35644 0.502283 -1.51904e-16)
(2.45924 -0.0744673 -3.05946e-16)
(6.94307 0.800617 1.17858e-16)
(4.34905 4.15684 0)
(2.76265 4.88534 1.70337e-18)
(9.57055 0.00480506 9.80878e-17)
(1.87449 1.10909 -1.63634e-16)
(0.338911 0.0484531 -6.59297e-18)
(2.09027 6.26454 -3.52808e-17)
(5.53671 0.149795 6.47323e-19)
(4.12417 0.175292 7.32666e-19)
(-0.987516 -0.899883 -7.72279e-19)
(0.8956 3.83569 0)
(-0.61483 -0.347009 1.5925e-16)
(2.93421 -0.567892 1.16377e-16)
(0.00874628 -0.100502 -1.74226e-16)
(5.15917 0.0756705 0)
(-0.698635 0.205356 8.08788e-17)
(0.664317 1.30323 3.19232e-17)
(-1.07429 -0.155632 -1.5506e-16)
(2.70901 -1.39631 -1.32445e-17)
(2.16172 -2.32971 -8.25695e-17)
(-1.03808 0.0501561 5.62101e-17)
(4.6994 0.119676 -4.71865e-17)
(1.3155 0.422234 0)
(-0.18725 0.115294 1.80443e-16)
(2.84054 2.06568 -4.45753e-16)
(-0.412963 -0.493562 -9.0975e-17)
(3.01773 -0.246713 -1.01256e-16)
(-1.36594 0.0485009 -1.521e-20)
(6.68294 0.438748 -1.19075e-18)
(-1.73715 -0.133553 1.33233e-16)
(9.58721 0.720757 0)
(2.01299 0.033958 0)
(3.43355 1.74011 -9.28424e-17)
(9.99392 -0.0107056 2.69445e-18)
(9.85882 0.216123 0)
(-0.748193 -0.215501 -8.25576e-17)
(2.73347 -0.822633 0)
(0.205373 2.20375 -1.38114e-16)
(9.84407 0.0974417 2.41025e-17)
(-1.88786 -0.753926 1.9732e-16)
(1.34745 1.38927 0)
(8.75969 1.06189 2.72154e-17)
(3.36314 -1.29233 -7.61295e-17)
(-0.783385 -0.0182128 7.94978e-17)
(1.30828 0.202676 -1.79671e-16)
(1.64942 7.166 9.87108e-17)
(-2.16639 0.174325 -3.12648e-17)
(1.94776 1.76883 3.848e-16)
(-0.713924 1.69873 0)
(9.69056 0.146887 -8.06817e-17)
(9.8162 0.0662689 -2.61376e-18)
(1.30389 1.52483 -8.7437e-17)
(-0.877978 -0.0304529 9.05018e-17)
(2.42396 -1.73066 -1.15425e-16)
(6.16905 0.0442025 3.14002e-17)
(5.68664 0.214885 -4.33942e-17)
(4.65495 -0.293858 -1.9556e-16)
(5.23728 0.170968 0)
(5.60523 0.0555904 -1.44511e-16)
(7.24299 -0.0473617 0)
(6.10383 -0.0798001 3.60377e-17)
(4.93622 0.0927271 5.44084e-18)
(0.0961158 -0.227538 -8.10068e-16)
(0.501462 -0.0155796 -4.05507e-16)
(11.1042 0.439361 4.9683e-17)
(1.30268 -2.33499 -2.14763e-17)
(1.46095 1.83447 1.82629e-17)
(2.70903 -1.21289 4.10101e-16)
(-0.849195 -0.0219426 2.77152e-20)
(-0.289886 -0.336855 0)
(-0.0844896 -0.267867 -2.00783e-16)
(1.97706 0.026598 -3.16293e-17)
(-0.745092 0.00595484 0)
(-0.113802 -0.101321 2.98512e-16)
(8.95279 0.516629 2.9181e-16)
(-1.5827 -0.563909 -2.03722e-16)
(8.30388 -0.0224857 3.95779e-17)
(1.80024 0.242523 -5.57348e-17)
(-2.09603 -0.843527 -1.12843e-16)
(9.65855 0.631567 0)
(8.59092 0.806697 -3.92787e-17)
(10.3612 0.396131 0)
(5.91992 0.116392 0)
(1.56439 4.36652 3.04094e-18)
(8.65121 0.962329 1.18875e-19)
(3.69403 0.0977882 2.79913e-17)
(1.66611 0.263069 -3.46573e-16)
(0.821099 0.0469878 3.13861e-16)
(9.70536 0.0222674 1.03846e-17)
(-0.0414979 -0.430973 1.32635e-16)
(1.89605 0.404296 2.32815e-16)
(2.38628 0.482695 1.20821e-16)
(0.0980545 0.0590417 -3.54448e-16)
(3.16174 4.71825 3.43268e-17)
(-1.31964 -0.275755 2.0142e-16)
(-4.91227 -2.58857 -2.99688e-17)
(1.52156 2.15356 0)
(9.8835 0.20582 0)
(9.52341 0.017559 5.65367e-17)
(9.77135 0.0497742 -8.27335e-17)
(-1.69434 -0.175247 -1.7221e-16)
(1.39082 -0.688088 -3.12512e-17)
(-1.948 -0.032877 3.01774e-17)
(2.21262 0.524049 0)
(-0.839197 1.24606 0)
(9.91473 0.220306 6.19422e-17)
(8.59572 1.61991 0)
(-0.792117 -0.0380505 -8.00371e-17)
(0.632201 -0.435911 -2.42073e-16)
(8.54128 0.375826 1.55349e-17)
(1.65308 6.89591 0)
(-1.99105 0.112806 2.25805e-16)
(1.25451 0.189815 0)
(0.0700407 -0.327177 1.93438e-16)
(8.7349 2.03003 -9.62902e-17)
(2.39986 0.19246 0)
(-1.89134 -0.233365 -8.36984e-17)
(-1.64777 -0.669902 -6.45964e-17)
(9.77434 0.0571225 -7.42593e-17)
(-0.561851 0.399654 1.79421e-16)
(2.25367 -0.809777 0)
(-1.67201 0.0812235 6.89184e-17)
(0.0464929 0.185486 -9.06559e-17)
(10.5289 0.0788301 0)
(-0.793725 0.283757 0)
(-1.41863 -0.0470648 2.03053e-16)
(0.458967 1.11893 -1.03333e-16)
(1.72583 1.39605 0)
(7.02294 0.0784347 1.73227e-16)
(9.34663 0.128848 0)
(-0.345642 3.51425 -1.69381e-17)
(2.72802 0.557831 -1.0791e-16)
(9.72311 0.12224 6.07509e-17)
(-0.68785 -1.78638 -1.44881e-16)
(5.32253 2.48721 -2.41974e-16)
(-0.206604 -0.522272 -1.19557e-16)
(2.95614 0.0649461 0)
(-2.64643 -0.952777 -1.8374e-16)
(3.13608 -1.88124 2.1553e-17)
(-2.57135 -0.461708 0)
(-2.54208 -0.309549 -1.50931e-17)
(-2.00745 -0.941507 1.87113e-16)
(-1.18783 -0.835218 7.32671e-17)
(2.01456 0.061167 0)
(2.25892 0.00214199 3.67169e-19)
(11.2101 0.162439 -4.64322e-17)
(-0.974382 -0.859317 3.17642e-17)
(-0.0975587 -0.381535 5.90439e-16)
(-0.228041 0.0729691 1.06088e-16)
(-2.05925 0.125996 2.69908e-16)
(9.78101 0.0717113 5.78855e-17)
(0.68925 3.12996 0)
(-1.85196 0.0195007 1.9996e-18)
(-2.48038 -0.370636 -1.82793e-16)
(-0.000966127 -0.582638 -3.03518e-16)
(-0.425661 -0.541957 -9.38487e-17)
(9.49961 0.034151 8.85553e-20)
(1.72608 -0.127732 0)
(3.18239 -1.43964 3.59081e-18)
(-2.2439 -0.956392 -8.54304e-17)
(9.95752 0.197333 2.72847e-17)
(-1.5852 0.045022 1.96702e-16)
(9.77193 0.0319479 -2.19828e-21)
(9.78203 0.114929 0)
(7.83471 0.127136 4.69215e-17)
(2.79342 -0.795084 0)
(5.83817 -0.0466442 -1.92718e-16)
(-1.47776 -1.69591 -1.66272e-16)
(2.4208 0.081115 0)
(1.01344 2.36416 -7.00903e-17)
(8.60253 1.27417 -1.91342e-17)
(-0.29555 -2.12043 8.11199e-17)
(0.41243 -1.60638 -8.16251e-18)
(0.209399 -2.71335 0)
(0.336776 -2.24184 7.3303e-18)
(0.37767 -0.889753 2.08297e-17)
(0.0780942 -2.98688 2.67707e-17)
(-0.0198933 -3.04546 -5.49892e-17)
(-0.194457 -0.280014 2.01273e-16)
(-0.820294 0.016772 0)
(-1.01529 -0.245329 2.9647e-16)
(9.74677 0.0692229 1.06337e-17)
(-0.0783561 -2.96539 8.10265e-21)
(-0.832515 0.75364 0)
(-0.81242 -0.152722 7.01713e-17)
(0.338045 -2.70818 1.33585e-18)
(-0.322091 2.21023 -1.65028e-16)
(-2.33743 0.128485 -3.79907e-18)
(-0.280323 -1.27139 -1.6441e-16)
(-1.12182 -1.85575 -8.73951e-17)
(0.0575508 2.61563 -8.98757e-17)
(0.406298 1.21779 6.63101e-17)
(-1.34592 -0.125674 3.16072e-16)
(2.02106 3.31539 0)
(1.04303 -0.421671 -1.47066e-16)
(-0.122826 -2.84268 -8.04229e-18)
(-2.10371 0.0981956 3.16484e-17)
(-1.76689 -0.481978 -1.03628e-16)
(-1.893 0.0942839 -3.44732e-17)
(1.2288 0.94456 1.48734e-16)
(-0.513313 0.887969 8.09787e-17)
(0.5295 0.540355 1.14925e-16)
(-2.42966 0.0646419 1.89305e-18)
(0.486819 -0.0653614 -2.46654e-17)
(-0.247453 -1.6562 1.48911e-16)
(-0.171651 -2.65127 -1.6349e-17)
(-1.63543 0.321121 -6.27092e-17)
(-0.0301454 2.82434 0)
(-0.0532503 -0.24063 3.91688e-17)
(-0.665318 -0.667464 1.97257e-16)
(-2.48025 0.0313451 9.42211e-17)
(0.830257 0.00701631 4.41955e-19)