/*--------------------------------*- C++ -*----------------------------------*\
| =========                 |                                                 |
| \\      /  F ield         | OpenFOAM: The Open Source CFD Toolbox           |
|  \\    /   O peration     | Version:  v1912                                 |
|   \\  /    A nd           | Website:  www.openfoam.com                      |
|    \\/     M anipulation  |                                                 |
\*---------------------------------------------------------------------------*/
FoamFile
{
    version     2.0;
    format      ascii;
    class       surfaceScalarField;
    location    "0.44";
    object      phi;
}
// * * * * * * * * * * * * * * * * * * * * * * * * * * * * * * * * * * * * * //

dimensions      [0 3 -1 0 0 0 0];
oriented        oriented;


internalField   nonuniform List<scalar> 
2776
(
1.5583e-05
0.000150109
-1.27526e-05
-0.00015294
-2.76276e-05
5.03883e-06
-0.000124191
0.000146779
-5.97817e-05
2.34312e-05
-4.28725e-05
7.9223e-05
-1.74935e-05
9.392e-06
7.91952e-05
-7.10936e-05
5.62648e-05
5.56423e-05
-4.23138e-05
-6.95933e-05
0.00021071
0.000152536
-0.000216357
-0.000146889
2.07206e-05
-1.12908e-05
1.54034e-05
-2.48332e-05
4.83853e-05
-0.000167759
3.54881e-05
-0.000113213
0.000114995
-3.72702e-05
-0.000377053
0.000453689
-0.000264536
0.0001879
6.92564e-05
1.28726e-05
-8.2129e-05
-0.000228828
0.000265546
0.000116271
-0.000152988
1.58693e-05
-1.58693e-05
0.000139959
-7.74103e-05
-6.3639e-05
1.09053e-06
-4.42687e-05
-0.000134324
0.000111607
6.69854e-05
2.65133e-06
2.74399e-05
5.87412e-07
-3.06786e-05
-4.80035e-05
-1.92993e-05
6.73028e-05
7.676e-05
1.04726e-05
1.03812e-05
-9.76137e-05
8.29209e-05
-9.78766e-07
5.78193e-05
-0.000139761
2.88106e-05
-4.14097e-05
0.000108115
-9.5516e-05
-3.08914e-05
4.23394e-05
3.38674e-05
-4.53154e-05
-2.05648e-05
-2.89563e-05
3.2746e-05
1.67752e-05
5.03437e-05
-4.72097e-05
-3.13401e-06
1.01888e-05
0.000132786
-0.000122851
-2.01243e-05
3.47377e-05
0.000121288
-1.60666e-05
-3.22665e-05
-6.763e-06
1.77765e-05
2.1253e-05
-5.18612e-05
4.96911e-06
1.11227e-05
3.57694e-05
-3.95886e-05
2.46027e-05
2.08754e-05
-5.88956e-06
5.67067e-06
2.78436e-05
-7.46823e-05
0.000129088
-5.44053e-05
-8.81954e-05
0.000109264
-4.01179e-05
0.000113576
-0.000215151
-0.000207401
0.000308976
6.99466e-05
-7.36885e-05
-3.26288e-05
7.0448e-05
-7.2399e-05
6.58335e-05
-6.38825e-05
-0.000116443
1.20323e-05
7.14181e-05
3.29922e-05
7.58913e-05
-7.27961e-05
-4.7364e-05
-2.80051e-05
4.97603e-05
-7.27737e-05
5.10186e-05
-1.40917e-05
0.000101358
-1.19101e-05
-7.53564e-05
6.99869e-05
0.000131018
-0.000171935
-2.90691e-05
2.67399e-05
-3.97355e-05
-0.000160233
-0.000180114
0.000111519
4.87487e-05
-5.57292e-05
-4.99458e-05
5.69263e-05
0.000131448
-8.58516e-05
-1.01084e-05
2.69596e-05
-5.76622e-05
0.000122765
-9.2062e-05
-3.99617e-05
5.02346e-05
1.7545e-05
-2.7818e-05
-2.19118e-05
6.03486e-05
-0.000103626
6.51896e-05
-3.95226e-05
0.000126153
0.000107589
-0.00019422
2.50895e-05
-5.42303e-05
0.000105901
4.54766e-05
-2.8421e-05
3.16931e-05
5.46246e-05
-1.1857e-05
-7.36589e-05
3.4718e-05
-4.49664e-05
2.07411e-05
-1.04928e-05
1.01344e-05
3.02407e-05
-2.14445e-05
-8.20763e-05
0.000127761
-0.000173569
4.58666e-05
-5.84771e-08
-0.00012566
3.48247e-05
0.000111842
-2.10068e-05
0.000234119
-1.8307e-05
-0.000148423
-6.73895e-05
-5.09318e-06
-4.92443e-05
5.11779e-05
3.15962e-06
5.04063e-05
9.64523e-05
-1.90975e-05
3.18974e-06
-1.68736e-06
3.3297e-05
-3.47994e-05
-4.23428e-06
2.54256e-05
-0.000125617
7.41176e-05
2.60735e-05
5.76013e-05
-0.00010563
5.49032e-05
-6.87478e-06
-0.000238671
4.59347e-05
1.91666e-05
4.81156e-05
1.45455e-05
-2.03216e-05
1.98001e-05
-0.000140184
0.000138834
-1.84497e-05
-1.96145e-05
4.7477e-05
-4.84273e-05
3.69293e-05
-2.36213e-05
-3.22591e-05
1.89511e-05
-0.000109392
0.000133358
-4.42814e-05
2.0315e-05
-1.27746e-05
3.46e-05
-3.59172e-05
-0.000138882
4.73231e-05
0.000128259
-3.66998e-05
-2.06354e-05
7.86076e-06
-0.000144276
0.000292249
9.63293e-05
-0.000143877
-2.05585e-05
2.55534e-05
6.66369e-05
-0.000169249
0.000127702
-1.39409e-05
3.29757e-05
-1.33642e-05
7.07063e-05
8.10339e-05
-0.000101334
-3.54356e-05
6.50414e-05
-7.47117e-05
4.51059e-05
9.65408e-05
7.02225e-05
-0.000107758
-5.90052e-05
0.000108317
-1.52937e-05
-0.000107119
1.40958e-05
-1.15538e-06
3.32767e-05
1.33553e-05
-9.19847e-06
-1.51734e-05
4.34631e-05
-1.90912e-05
8.87175e-05
3.94204e-05
-1.71938e-05
-0.000110944
3.4631e-05
-2.63232e-05
-1.75063e-05
7.90965e-05
5.8901e-05
-6.29109e-05
-7.50865e-05
0.00014716
9.64036e-06
-2.97588e-05
-0.000127042
-9.9638e-05
0.000102299
-5.13894e-06
2.47746e-06
9.33394e-05
-1.01446e-05
3.56647e-05
-0.000118859
-3.13979e-05
0.000114539
-8.31414e-05
5.44126e-05
-5.71649e-05
-8.84639e-05
9.12161e-05
-1.34131e-05
-7.24328e-05
9.41926e-05
-8.34677e-06
2.39438e-05
6.36202e-05
-5.2846e-05
8.09613e-05
-5.77345e-05
-2.00317e-05
-0.00011127
2.49792e-05
0.000106322
1.17872e-05
-2.11965e-05
4.55255e-05
-3.61163e-05
1.42507e-06
0.000100114
-2.28882e-06
-9.92505e-05
1.22236e-05
-3.36291e-06
8.44786e-05
6.77975e-06
-3.40976e-05
5.40322e-05
-5.95231e-05
7.3789e-06
-3.31928e-05
-7.84424e-05
0.000104256
5.23178e-05
-7.23495e-05
6.20081e-05
-0.000105982
9.17921e-05
-4.78183e-05
3.65354e-05
7.30009e-05
-3.16529e-06
8.16627e-07
5.04642e-05
6.22117e-06
0.000108956
-6.86076e-06
-0.000133556
2.72874e-06
0.000132253
6.83579e-05
-0.00010414
9.21852e-05
-5.64029e-05
3.16241e-06
-2.64087e-06
5.16199e-05
-5.21414e-05
-2.68089e-06
-1.66416e-05
-5.64336e-05
7.57561e-05
3.98047e-05
-6.74618e-05
-4.59447e-05
7.36018e-05
-3.2776e-05
9.46116e-05
2.80228e-05
-1.21535e-05
0.000163816
7.13891e-05
-0.000117699
-0.000117506
0.00012157
3.24154e-05
-6.23914e-05
-9.1594e-05
0.000117465
-8.81221e-05
9.22276e-05
-3.84006e-07
-9.98295e-05
5.7549e-07
0.000144828
-4.27577e-05
-0.000224468
0.000122398
-9.46937e-05
8.00995e-06
0.000101229
-1.91144e-05
-8.92853e-05
0.000120394
-1.1994e-05
4.18093e-05
-9.39397e-06
0.00010166
-8.90261e-05
6.64625e-05
4.94624e-05
-1.15824e-05
0.00010928
0.000106548
-3.57425e-05
0.000118911
-0.000189716
2.51885e-06
-5.32091e-06
-5.75075e-07
3.37714e-06
-4.32078e-05
4.10983e-05
1.16016e-06
9.49357e-07
4.31782e-05
-0.000118275
0.00012951
2.75957e-05
-0.000169533
9.69105e-06
0.000132246
5.25757e-05
2.44288e-05
-3.99677e-05
-3.70368e-05
1.2175e-05
5.18304e-06
-0.000161235
4.49561e-06
7.99203e-06
-7.39645e-05
6.14769e-05
4.64293e-05
4.96862e-05
-0.000334786
-7.49098e-05
-1.285e-05
5.41782e-05
3.35816e-05
7.22979e-05
6.4968e-05
-6.65597e-05
-3.97614e-05
-6.19256e-05
4.59578e-05
2.58552e-05
1.69402e-06
-2.23607e-05
-5.18851e-06
2.42488e-05
-1.28001e-05
-8.59192e-08
-1.13628e-05
0.0001053
4.8189e-06
-9.79442e-05
0.000346922
0.000106767
-2.0135e-05
0.000134674
-0.00018923
0.000158033
7.94038e-05
-4.82067e-05
6.52067e-05
3.7974e-05
-4.72333e-05
-5.59474e-05
5.72038e-06
-2.14332e-05
-6.87553e-05
7.7765e-05
-9.00965e-06
-3.3975e-05
-6.11411e-05
9.51161e-05
6.05736e-05
1.02617e-07
-4.80563e-05
-1.26199e-05
9.93045e-05
-0.000233078
0.000180203
-1.33493e-05
-0.000151302
5.25023e-06
-3.0163e-05
1.8278e-05
1.44038e-05
2.24782e-06
0.000105917
-5.86495e-06
-1.18946e-08
-9.92526e-05
6.97394e-05
2.95251e-05
4.26715e-05
7.44707e-05
-0.000104919
5.90975e-05
-4.51382e-05
2.25274e-05
-3.64866e-05
0.000134969
-8.17451e-05
-3.81824e-05
8.02157e-05
-9.93602e-06
-3.20973e-05
-0.000116212
0.00015867
3.08555e-05
-7.3313e-05
7.02056e-05
-1.0016e-05
-4.62697e-05
-1.62964e-05
2.84684e-05
0.000111676
-4.50138e-06
-1.63094e-05
-9.08651e-05
0.000129588
6.44374e-06
-3.08108e-05
6.9613e-05
-6.84083e-05
5.28275e-05
-5.02317e-05
6.53647e-05
-0.000108212
1.49712e-05
0.000185003
-9.17622e-05
8.15725e-05
-3.75239e-05
-4.40486e-05
-8.80486e-05
5.56189e-05
-7.54759e-06
3.99773e-05
1.61579e-05
-2.41046e-06
-6.56087e-05
5.15123e-05
2.54529e-05
1.17522e-05
-7.97784e-05
0.000116365
2.83352e-06
1.32575e-05
-1.26463e-05
-5.93213e-06
9.34316e-05
-5.68572e-05
6.273e-05
2.05174e-05
-4.78149e-05
0.00015442
-9.75773e-05
-8.44708e-05
7.73597e-05
6.55597e-05
-7.33064e-05
8.05273e-05
-6.45238e-05
6.50304e-05
-4.96958e-05
1.58992e-05
-0.000100527
5.70314e-05
-0.000138977
8.02324e-05
-8.38958e-05
6.56715e-05
1.084e-05
-4.14029e-05
8.31386e-05
1.06015e-05
9.64622e-05
5.12021e-05
7.58835e-05
-1.58668e-05
5.59211e-05
8.25883e-05
-7.99787e-05
3.61159e-06
-4.33746e-05
2.36456e-05
7.45952e-05
-5.48662e-05
7.78133e-05
3.28917e-05
-3.48137e-05
9.10999e-06
5.68309e-05
8.03005e-06
-6.4861e-05
-8.26602e-05
7.11726e-05
1.14876e-05
1.56866e-05
6.28725e-05
-0.000107533
4.53108e-05
0.000142454
-4.10147e-05
6.65916e-05
2.10262e-05
-2.18341e-05
-1.19921e-05
-7.95217e-05
6.69222e-05
-7.60076e-05
8.8607e-05
-7.85842e-05
6.74205e-05
-0.000101874
-4.83728e-05
4.61062e-05
-2.81356e-05
-1.01798e-05
-5.4288e-05
-1.61847e-05
-1.72349e-05
4.74824e-05
-1.40628e-05
3.08684e-05
-2.78939e-05
-7.59766e-06
-7.3858e-05
-6.59293e-06
2.82646e-05
-4.51701e-05
6.17163e-05
-6.77537e-05
-2.23836e-05
2.95608e-05
-7.35226e-05
5.3663e-05
8.02083e-05
-6.75147e-05
-5.49772e-05
-5.73476e-05
5.98397e-05
-1.60222e-05
1.35301e-05
-7.0983e-05
8.05575e-05
7.42166e-05
-3.84362e-05
-6.3916e-05
7.19834e-05
-1.66486e-05
-7.15195e-05
7.4672e-05
-6.14397e-05
2.80525e-05
-4.12849e-05
3.87398e-07
-1.74591e-05
3.63612e-06
-6.6632e-05
5.22407e-06
5.77718e-05
-2.87075e-05
1.54019e-05
1.33057e-05
9.10235e-05
-3.92208e-05
-0.000114194
-0.000121048
1.37714e-05
8.6718e-05
2.27451e-05
6.95186e-05
5.84233e-06
-9.8106e-05
-0.000138647
6.03045e-06
0.0001482
-5.7447e-05
8.89089e-05
9.48526e-05
-4.23372e-05
7.3638e-05
1.55317e-05
7.15883e-05
6.31162e-06
-2.93379e-05
0.000146292
-2.21014e-05
2.09992e-05
-8.81351e-05
4.10005e-05
3.09841e-05
-6.63995e-05
-5.58521e-06
-2.93766e-05
-0.000100554
3.91735e-05
9.07566e-05
0.000121937
-7.18996e-05
0.000124027
-0.000174065
-1.40729e-06
4.2905e-06
2.29719e-05
2.65257e-05
-4.27998e-05
3.9275e-05
-2.30009e-05
0.000100219
-0.000111673
3.62308e-05
-2.47766e-05
4.35066e-05
-3.59618e-05
-2.21795e-05
1.46346e-05
3.73799e-05
5.34813e-05
-8.15874e-05
5.63707e-05
3.89758e-05
-2.79673e-05
3.24982e-05
-0.000134193
4.54139e-05
1.79907e-05
0.000104071
-3.11561e-05
7.5077e-05
-6.63534e-05
1.11659e-05
4.5088e-05
-4.24677e-05
-4.06737e-05
4.25067e-06
3.33476e-05
6.97372e-05
-6.61031e-05
-0.000119278
8.99011e-05
7.54117e-07
1.30576e-06
-2.05988e-06
0.000142684
-5.67126e-05
-0.000138312
1.90347e-05
3.9119e-05
0.000100093
-2.85966e-05
6.07494e-05
2.74607e-05
-5.96135e-05
5.20005e-05
8.56043e-06
2.70414e-05
-6.34266e-05
0.000121558
-5.10981e-05
4.40105e-05
-4.92701e-05
-2.33369e-05
-6.49384e-05
3.24604e-05
0.000121402
-8.3075e-05
-0.000146539
2.63857e-05
-2.65968e-05
-9.10896e-05
9.13007e-05
4.56896e-05
2.75751e-05
-9.57375e-05
4.95987e-06
5.2758e-06
5.21517e-06
3.35195e-05
-8.57208e-06
7.36388e-05
-0.000137724
-7.86322e-05
0.000115757
8.49469e-05
-0.000133718
0.000168777
-1.7246e-05
-4.06075e-05
-5.89025e-06
-2.81594e-05
4.79026e-05
-3.69782e-05
-8.43501e-06
-3.53969e-06
9.17046e-06
2.80424e-06
-1.50117e-05
-0.00013112
7.15503e-06
-5.98029e-06
1.59752e-05
-5.7044e-06
-4.58457e-05
1.90643e-06
-3.62955e-05
5.49407e-05
-2.37384e-05
-9.59596e-05
4.12205e-05
-9.24679e-06
-4.79623e-05
6.96589e-05
3.31885e-05
4.37178e-06
-3.28332e-06
-1.41924e-05
1.69006e-05
-2.74588e-05
3.18589e-05
-8.67601e-05
8.23601e-05
2.21059e-05
7.48642e-07
-2.5513e-05
2.65849e-06
2.72989e-05
7.44833e-05
0.00014363
-0.000245412
9.04465e-06
6.4225e-05
-5.93854e-05
-2.16989e-05
1.68592e-05
5.92083e-06
0.000124933
0.000106334
6.80105e-05
0.000117526
0.000139436
-8.81855e-05
-0.000206685
-5.13774e-05
2.94721e-05
0.00022859
0.000140057
0.000340092
-3.96887e-05
-6.51119e-05
6.33977e-05
-0.000167583
-2.76127e-05
0.000110563
8.46326e-05
-1.18578e-05
-8.85204e-06
-2.26647e-05
0.000160548
-9.20668e-05
-0.000173652
0.000105171
6.13559e-05
-0.000156955
3.66771e-05
-1.07345e-05
0.000153506
-4.09995e-05
3.58696e-05
-0.000148376
-8.24552e-05
-8.37646e-06
-4.75402e-06
1.0428e-05
2.70249e-06
-0.00020827
2.88838e-05
-9.49515e-05
1.32916e-05
9.7559e-05
-5.47421e-05
-3.99944e-05
5.97351e-05
3.50014e-05
1.6946e-05
6.92447e-05
-7.23945e-05
-1.37963e-05
-3.64797e-05
-3.14553e-05
-3.3039e-05
2.97557e-05
5.88128e-05
-5.42555e-05
-6.81358e-05
0.00012082
-0.000124584
-7.92987e-05
1.10182e-05
9.22243e-05
-2.09793e-05
4.08489e-05
8.53973e-05
-0.000147058
-0.000171418
-2.4725e-05
2.14837e-05
-4.21127e-05
-7.53035e-06
4.22822e-05
-4.9312e-05
-3.35777e-05
-7.23932e-07
1.44784e-05
-4.24494e-05
-6.45084e-06
6.99264e-05
8.52947e-06
-4.44386e-06
-9.7905e-05
0.000149442
-7.68643e-05
7.52915e-05
-6.49868e-05
3.30761e-05
5.78456e-05
-7.78312e-06
0.000151161
-0.000134827
-1.6334e-05
-8.3295e-05
6.93248e-05
1.39702e-05
-0.000124463
9.8039e-05
2.64236e-05
-9.26917e-06
3.77716e-05
-2.85025e-05
0.000113249
-6.97525e-05
-4.34963e-05
-3.38909e-05
-1.63644e-05
5.02552e-05
5.23553e-05
5.29132e-05
-0.000105269
-4.99098e-05
7.03742e-05
-2.04644e-05
0.00016776
-0.000164054
-3.70607e-06
1.57363e-05
-2.50055e-05
-0.000174882
0.000117395
5.74862e-05
-8.3155e-05
-1.39943e-07
0.000161451
-1.02898e-05
2.25088e-05
-2.09445e-05
-1.56431e-06
3.0184e-08
7.60001e-05
-8.13772e-05
5.37701e-06
1.69197e-05
-1.71011e-05
-3.28087e-05
0.000195621
-2.78609e-05
-6.46504e-05
2.95027e-05
3.51477e-05
-6.67055e-05
-2.26141e-05
8.93196e-05
-0.000162642
3.81797e-05
-8.38462e-07
2.14422e-06
-4.3209e-05
7.55325e-05
-3.23235e-05
-0.00011386
6.34623e-05
5.0398e-05
-5.54899e-06
0.000152078
6.9765e-06
-3.18616e-05
6.16251e-05
3.44615e-05
-7.97485e-05
2.3197e-05
4.05286e-05
2.8133e-05
-9.40859e-05
-8.04622e-06
4.44897e-05
1.5111e-05
-4.00766e-05
-1.95242e-05
-2.79517e-05
-9.2277e-06
-5.04419e-05
-1.55186e-05
-1.29124e-05
0.000144315
6.88832e-05
0.000116163
-4.94937e-05
-7.80306e-06
-2.08865e-06
-0.000132332
5.75079e-05
-3.24482e-05
-0.000136485
-3.83966e-05
-1.67917e-05
-6.74844e-06
2.35402e-05
-4.93935e-05
-2.89338e-05
-1.81545e-05
8.17606e-05
-6.03101e-05
1.60813e-05
4.63164e-05
1.71459e-05
0.000107173
-3.16406e-05
-2.60309e-06
9.58313e-05
2.1564e-05
-1.27809e-05
3.33886e-05
1.87679e-05
-0.000188527
-0.000102254
9.67053e-05
-6.23506e-06
6.51661e-05
-3.66259e-05
-4.28331e-05
-0.000220652
0.000142389
0.000121096
-5.61322e-05
-4.57806e-05
6.39061e-05
0.000161136
6.46051e-05
1.96739e-05
-7.52343e-05
-2.96578e-05
5.65811e-05
4.1444e-05
-2.65785e-05
3.12523e-06
4.46434e-05
-2.74009e-05
0.000169763
-0.000187005
0.000179461
-0.000165566
3.07485e-05
6.59037e-05
4.50533e-05
-8.56536e-05
-2.53034e-05
8.24903e-06
4.64263e-05
1.6913e-05
-9.66543e-05
0.000115524
-0.00013506
0.000116191
-2.45095e-05
-6.17974e-05
6.17033e-05
3.39564e-05
3.97054e-05
-6.54128e-05
8.26814e-06
4.15037e-06
-5.05622e-05
3.48215e-05
2.94588e-05
-6.95003e-06
5.95567e-05
1.64434e-05
3.41139e-05
-1.8534e-05
-3.37344e-05
-1.10364e-06
3.02101e-05
1.73198e-05
4.79514e-05
8.55232e-06
-0.000195738
6.84708e-05
0.000267325
-5.69173e-05
-3.62404e-05
6.5699e-05
0.000133774
3.26944e-05
-0.000101262
-1.72403e-05
-5.87024e-07
4.4213e-05
8.48826e-05
2.28757e-05
-7.62805e-05
-3.14778e-05
-6.85128e-05
-6.78219e-05
3.96678e-05
9.66669e-05
-7.73074e-05
7.95085e-05
9.95526e-06
-5.4216e-05
4.31571e-05
-0.000143254
-4.33744e-05
-4.12577e-05
8.00924e-05
-5.00273e-05
1.11926e-05
7.09954e-06
-3.08325e-05
-0.000164065
0.000187798
3.94719e-06
0.000125099
4.72812e-06
-0.000185623
-6.9629e-06
0.000207821
-1.52344e-05
3.15066e-05
-6.37803e-05
0.000211735
-0.000171546
0.000210153
8.04609e-06
-0.000185555
-8.11442e-06
-0.000139992
0.000112591
-2.34074e-05
2.39242e-06
-7.94137e-06
1.2779e-05
5.18906e-05
-2.66943e-05
-3.79753e-05
-1.08288e-05
2.00485e-07
-1.54364e-06
-2.37153e-06
-6.91365e-06
3.15941e-06
-9.33366e-05
1.64886e-05
5.74424e-05
-1.42158e-05
-1.40221e-05
-1.25968e-05
3.93822e-06
-5.55723e-06
4.54015e-06
1.35043e-05
-4.90076e-05
-6.52779e-05
0.0001512
-0.000152957
5.70483e-06
-1.65154e-05
8.57775e-07
-4.58843e-05
6.1542e-05
3.47352e-05
-4.65931e-05
-8.16485e-05
-5.48331e-05
0.000119966
-7.90424e-05
-3.05778e-05
6.83625e-05
-0.000202611
3.48772e-05
-2.27189e-05
-0.000159646
0.000147487
-0.000211956
-2.61241e-05
0.000165116
7.29641e-05
-6.97313e-06
1.53347e-05
-8.36157e-06
-5.09365e-06
0.000111076
-1.10113e-05
-3.33797e-06
1.5207e-05
-4.25086e-05
0.000179676
5.4527e-05
-0.000191694
-0.000188643
1.15642e-05
3.64408e-05
-4.32479e-05
-7.22352e-05
8.76196e-05
-9.47258e-05
6.56803e-05
-5.85741e-05
6.08645e-05
-3.86625e-05
6.54176e-05
6.43821e-05
-0.000217996
0.000137009
1.6605e-05
-4.24298e-05
-0.000200914
0.000236381
0.000248281
-0.00014159
-4.23087e-05
-9.38471e-05
0.000109318
2.09694e-05
0.000125208
-1.72108e-05
-0.000150505
-0.000160573
1.95199e-05
0.000152979
-1.19266e-05
-5.14135e-05
-3.34567e-05
5.42924e-05
-9.39768e-05
1.70334e-05
5.42245e-05
-7.74707e-05
1.2308e-05
0.000126027
-3.73673e-05
-8.20667e-05
2.55869e-05
-7.67799e-06
-1.15493e-05
1.92273e-05
-0.000188968
-5.48396e-05
0.000201378
-4.1765e-05
-5.28965e-05
4.37664e-05
-7.03635e-06
0.00011447
3.96425e-05
-2.24957e-05
-0.00017772
2.30255e-06
-0.00019517
-9.65602e-06
-8.32838e-06
-3.24284e-06
3.35006e-05
-3.02577e-05
1.11909e-05
-2.64265e-05
-6.6413e-05
-4.68286e-05
-8.89391e-05
1.43592e-05
6.96371e-05
6.90011e-05
5.41023e-05
-0.000123103
-4.43494e-05
-2.35527e-05
4.35831e-05
-4.18376e-05
-0.000195659
-5.60548e-06
-8.77418e-05
-2.87601e-05
4.0241e-05
8.36952e-05
-9.10491e-05
9.02748e-05
0.000130788
-0.000231994
0.000171193
0.000120339
-8.81946e-06
-9.49265e-05
-0.000263402
0.000198531
-9.6009e-05
5.09491e-05
-9.37222e-05
0.0001204
5.70172e-05
-1.3414e-05
9.6592e-05
-3.00228e-05
1.88964e-05
3.89783e-05
-4.05981e-05
-7.61858e-05
7.78056e-05
-0.000105112
6.73517e-05
-3.78861e-05
-8.43175e-05
-8.24436e-05
7.30389e-05
3.13552e-05
-3.57837e-05
2.86366e-05
3.66785e-05
8.3983e-05
-8.16832e-05
-5.01433e-05
6.00985e-05
9.13016e-06
-0.000184497
-5.99341e-05
-3.80475e-05
4.02231e-05
-3.56323e-05
-1.59428e-05
1.26999e-05
-6.08075e-07
-6.89153e-05
4.74336e-05
6.11495e-05
3.99915e-06
-7.12429e-05
-9.03672e-06
-2.66031e-05
6.77442e-05
3.18536e-05
-6.29192e-05
-7.33971e-06
-6.65173e-06
4.42016e-05
0.000134045
0.000193875
-0.000196159
5.68116e-05
-0.000137753
0.000120611
0.000119226
-0.000102085
4.88145e-05
-0.000169396
-4.32418e-05
0.000117912
6.20697e-05
-0.000135383
-0.000167352
-2.81674e-05
-6.55016e-05
-0.000185497
6.07481e-05
-0.000171012
-0.000177448
2.16601e-05
3.07386e-05
-2.87422e-05
-3.04241e-06
3.00686e-05
-0.000196104
-0.000207859
4.01556e-05
-0.000196617
-1.69788e-06
9.66168e-05
-1.48265e-05
7.94703e-06
-1.38461e-05
1.85989e-05
3.42561e-06
3.13096e-05
5.0962e-05
-4.75364e-05
-0.000119396
-0.000111985
4.43759e-05
-9.89426e-07
4.23996e-05
-4.32866e-05
-1.1341e-05
6.3824e-05
1.52611e-05
-2.23023e-06
3.99092e-06
6.39383e-05
5.02654e-05
4.1199e-05
6.86226e-05
0.000189567
0.000167251
-0.000196448
2.75496e-05
-2.31976e-05
0.000112154
-8.94669e-05
-8.22107e-05
-3.00622e-05
-1.52766e-05
7.29553e-05
-0.000102006
-1.06047e-05
1.60864e-05
-9.49415e-06
6.39316e-06
5.73934e-05
-3.1426e-05
1.96356e-05
4.68153e-05
6.09331e-05
6.72658e-05
-0.000184176
0.000100338
-7.24471e-05
0.00013245
5.34044e-05
-0.000113407
7.30578e-05
-4.81976e-05
5.28205e-05
4.28107e-05
-2.01654e-05
-6.08081e-05
9.73063e-06
-2.36775e-05
0.000121153
-0.00012537
-2.38248e-05
5.53634e-05
4.03555e-05
0.000142226
-0.00013328
-4.93016e-05
5.46469e-05
6.09832e-05
-1.21768e-05
-7.52017e-05
9.96864e-05
-5.37708e-05
1.79631e-05
-7.07545e-05
-3.66362e-05
2.05419e-05
0.000148323
8.41822e-05
2.23601e-05
-5.16883e-05
1.77172e-05
2.6836e-06
3.12875e-05
1.78828e-05
0.000149637
-0.00013165
5.1977e-05
9.3886e-05
0.000139466
-9.95392e-05
-0.000112374
3.46366e-05
7.37372e-05
-4.18087e-05
-0.000109397
0.000119081
3.39194e-05
-1.83674e-05
-6.07221e-05
8.84755e-05
0.000139708
-9.87294e-05
0.000134525
2.96696e-06
-9.76689e-06
0.000134477
-0.000127677
-3.42971e-05
-3.65071e-05
2.13105e-05
0.000102115
0.000106972
6.64275e-05
3.18185e-05
-4.80114e-05
-3.12977e-05
6.20526e-05
-4.33749e-05
9.03978e-05
-3.98084e-05
6.86366e-05
-4.20896e-05
2.63091e-05
1.57805e-05
2.53993e-05
4.33835e-05
0.00010803
5.33379e-05
9.28072e-05
9.97055e-05
1.83997e-06
0.000124052
-9.46838e-05
-3.1208e-05
1.90095e-05
-3.53892e-05
7.62195e-05
9.48953e-05
-6.24332e-05
-2.7734e-05
4.96855e-05
-0.000160819
-0.000116813
-0.000156724
0.000103129
-6.22707e-05
-0.000144485
3.08108e-05
3.28435e-05
-2.29555e-05
-4.06988e-05
0.000142734
-0.000129435
0.000102225
9.48805e-05
5.83822e-05
-8.00022e-05
-7.32605e-05
-5.62689e-05
-4.87221e-06
0.000114081
-3.63164e-05
0.000104477
-1.37909e-05
-3.86119e-05
2.72214e-05
-1.80968e-05
9.38061e-05
-4.28547e-05
2.06911e-05
-0.000129138
1.4961e-05
3.92428e-05
5.16416e-05
-0.000120928
7.4977e-05
-0.000172045
-2.40759e-05
5.21768e-05
2.47195e-05
-4.64352e-05
-4.44678e-05
3.00948e-05
-5.22709e-05
2.24976e-05
3.34094e-05
1.36331e-05
1.24116e-05
-1.9485e-05
1.62344e-05
-5.18446e-06
3.0104e-05
8.53332e-05
2.27113e-05
-1.78185e-05
6.20466e-05
-2.75543e-06
-0.00019865
6.79892e-05
-7.63987e-06
0.0001383
-0.000104099
9.42342e-05
-0.000125609
8.23373e-05
0.000125864
9.04181e-05
2.33156e-07
-3.1844e-06
1.02674e-05
-1.38795e-05
-4.76439e-06
3.038e-05
-2.49845e-05
2.00038e-05
-0.000106813
-2.14211e-05
-2.4763e-05
2.76643e-05
9.15946e-05
-3.92352e-05
-7.40583e-05
2.18973e-05
-4.77694e-05
4.28181e-05
-6.94122e-05
2.54394e-05
-1.07693e-05
-6.1239e-05
9.42966e-05
-6.67749e-05
-3.58518e-05
0.000102627
6.60126e-05
7.13479e-05
-7.39628e-05
6.04258e-05
3.96623e-05
-6.72446e-05
0.000135871
-3.01354e-05
5.35211e-05
-3.52477e-05
3.53253e-05
-3.66493e-05
-5.21829e-05
5.66154e-05
-4.28329e-05
-7.92903e-05
9.56967e-05
5.19607e-05
1.40645e-05
-0.000157913
-1.83806e-05
-1.83204e-05
2.29101e-05
0.000109938
-2.83654e-05
9.15493e-05
-8.66253e-05
4.7557e-05
-1.06449e-05
4.42135e-05
2.21877e-05
-4.10616e-06
-4.80819e-05
2.54599e-05
4.06718e-05
5.64924e-06
-0.000133128
-1.62094e-05
-8.94539e-05
8.79141e-05
7.45038e-05
4.49098e-05
-2.71603e-05
0.000124145
-8.03989e-05
-2.72953e-05
-1.61936e-05
2.51083e-05
5.94598e-05
-5.39455e-05
1.1345e-05
-0.000117053
-0.000124809
0.000124761
0.000117101
-4.54439e-05
9.73548e-07
1.51194e-05
-1.19971e-05
3.2203e-05
-0.000104606
0.000126411
5.31245e-05
-4.32277e-05
-6.63749e-05
3.26926e-05
-0.000216749
8.84291e-06
1.02814e-06
-9.58187e-05
8.50441e-05
2.29338e-05
1.35715e-05
-4.31496e-05
-1.97534e-05
-2.25218e-05
-2.30939e-05
3.98884e-07
5.58227e-06
2.14587e-05
7.73739e-05
-6.93091e-05
-4.04658e-05
-0.000117472
0.000145681
-5.38824e-05
-0.000127135
-2.02045e-05
5.97146e-05
8.76253e-05
5.71731e-05
-1.60906e-05
-4.29689e-05
1.88628e-06
-6.77049e-05
2.2804e-05
8.16199e-05
-3.92409e-05
-3.87223e-05
2.99744e-05
-3.57907e-05
-2.4057e-05
2.98732e-05
7.7192e-07
4.8399e-05
1.80719e-06
-5.09781e-05
1.27685e-05
-8.1233e-05
1.30559e-05
-2.07455e-05
9.49746e-05
-7.24442e-05
7.74444e-05
3.77925e-05
-7.55746e-05
-0.000146423
2.38334e-05
-1.60075e-05
1.08639e-05
-7.67363e-06
-7.40669e-05
1.23284e-05
-3.39847e-05
9.75411e-07
4.66305e-05
3.75e-05
-4.58835e-05
7.98408e-06
-5.15236e-05
9.1676e-05
3.48491e-05
2.87111e-05
4.22287e-05
-7.27914e-05
3.05627e-05
6.66224e-05
0.000107121
6.46914e-06
-3.28815e-05
-5.37234e-05
8.20303e-05
-2.3997e-05
0.000179683
-8.41604e-05
3.75806e-05
-1.4221e-05
2.78212e-05
-5.71582e-05
-0.000108089
-3.39595e-05
-2.62004e-05
9.48753e-06
6.46643e-05
8.9746e-05
-9.09642e-06
0.000167556
-5.27143e-05
0.000132577
4.29232e-05
-8.53833e-06
-9.25745e-05
-3.67254e-05
2.18869e-05
-0.000132527
-3.87257e-06
2.19633e-05
0.000167275
0.000107595
-9.98099e-07
6.56646e-05
2.82023e-06
2.66824e-05
-3.1797e-05
-1.31193e-05
2.30823e-05
3.40939e-06
4.66361e-05
-1.41892e-05
0.000100876
-0.000119718
7.30795e-05
-6.00375e-05
-4.2936e-05
1.64422e-05
3.76164e-05
4.30093e-05
-1.34757e-05
-2.9728e-05
1.94395e-07
3.19629e-05
9.38646e-05
-1.06417e-05
-1.53562e-05
-3.35735e-05
9.82515e-05
3.56576e-05
1.85501e-05
6.55753e-05
-8.76343e-06
-2.24668e-06
1.67305e-05
-9.71735e-05
-0.000156933
5.2515e-05
-5.44273e-05
1.91236e-06
5.32869e-05
-0.000120628
-5.00399e-05
6.06052e-05
0.000110062
-5.70682e-05
5.66015e-05
-3.31465e-06
4.78411e-06
-4.75392e-06
-0.000121669
-2.65471e-05
7.94713e-07
-5.78629e-05
3.76764e-05
1.89251e-05
-3.62362e-05
2.64881e-05
9.74812e-06
-0.000112403
5.89688e-05
5.34337e-05
-6.24222e-05
7.64766e-05
0.000102108
6.82529e-06
8.29414e-06
2.55618e-05
-5.03265e-05
-2.04832e-05
4.52478e-05
-5.91073e-05
0.000120422
-6.95835e-05
7.21573e-05
-5.72912e-05
-4.61638e-05
6.94962e-06
7.83733e-06
-1.4787e-05
2.87123e-05
3.64498e-05
-0.000142997
6.75102e-07
0.000163013
-5.66774e-05
-0.00010304
4.94992e-06
-5.91495e-05
2.89968e-05
-0.000105744
-5.33494e-05
-1.82938e-05
7.03304e-05
-4.46303e-06
-2.18894e-05
-1.94932e-05
-2.15584e-05
3.52252e-05
-1.36667e-05
-4.72075e-05
-3.59853e-05
5.48274e-05
-2.68057e-05
0.000118392
-8.30183e-05
-1.78135e-05
6.20126e-05
-5.71085e-05
0.000193395
-1.85262e-06
-2.2035e-05
-1.46088e-05
-9.81861e-05
-2.24712e-05
9.06094e-05
3.00479e-05
1.03991e-05
-1.28491e-05
2.51073e-06
-6.07365e-08
6.31985e-05
-6.99052e-05
3.46555e-05
-3.56343e-05
-5.30759e-05
0.000107939
2.9956e-05
9.7889e-05
-7.06719e-05
-2.07462e-05
-5.37697e-05
1.76842e-05
-3.41252e-05
4.14039e-05
-0.000177123
-4.87774e-05
-0.000214724
-1.71455e-05
3.44991e-05
1.38863e-05
2.63577e-05
-2.29037e-05
-7.67808e-05
8.17929e-05
-4.57109e-05
-8.54699e-05
9.7673e-05
-1.81613e-05
-7.95116e-05
8.36619e-05
-6.44979e-05
1.08105e-05
3.83377e-05
-2.89887e-05
-4.93434e-05
-1.54961e-05
6.30022e-05
2.17386e-05
1.76106e-05
5.52693e-05
0.000106309
0.000138922
4.64708e-05
-1.44275e-05
5.80857e-06
2.09094e-05
3.16569e-05
-1.15373e-05
-1.60186e-05
-4.07376e-05
-2.14661e-05
-6.65239e-05
-2.08987e-05
-8.86613e-07
-5.07518e-06
6.69824e-05
2.73077e-05
1.4921e-05
9.06561e-07
5.18496e-05
-0.00010816
-3.32216e-05
9.0819e-05
7.60063e-05
-6.14579e-05
1.45905e-05
-2.88603e-05
1.34247e-05
0.000130303
1.04912e-05
-7.67098e-06
0.000102436
1.08981e-05
5.90684e-05
-6.906e-05
-9.5737e-05
-3.11973e-06
-0.00015625
-0.000139139
-1.60569e-05
-9.52626e-05
7.24376e-05
-8.79681e-05
6.9549e-05
-8.01178e-05
-6.30425e-05
2.6768e-05
-3.6395e-05
6.14238e-05
-7.4299e-05
0.000182077
7.44183e-06
-0.000100735
0.000103701
-9.6292e-05
-4.44248e-06
1.60036e-06
-3.42001e-06
0.000148142
-0.000146323
0.000113785
1.25999e-05
4.11794e-05
-5.68205e-05
-9.43237e-05
0.000109965
4.42758e-05
8.00095e-05
-9.21618e-05
-3.21236e-05
-4.9798e-06
-5.02719e-05
-3.9609e-05
-5.92242e-05
-3.18738e-05
-7.75426e-05
3.98675e-07
0.000115324
-2.09882e-05
2.85208e-06
-2.28106e-05
1.21006e-05
2.53006e-05
1.75232e-06
3.1236e-05
2.83208e-05
2.08454e-07
2.92504e-05
0.000141623
-0.000104565
4.12133e-06
0.000151515
-1.34583e-05
0.00016022
-0.000119166
4.57753e-05
-6.9099e-07
-0.000205195
0.000118248
7.99105e-05
-0.000153736
-0.000188339
1.76651e-05
-2.70856e-05
-0.000117715
-1.74128e-05
0.000143687
2.75464e-05
-1.34146e-05
2.12753e-05
-2.26773e-06
-0.00021841
-4.01046e-05
-2.96479e-05
-3.67513e-05
-1.58703e-05
4.70123e-05
-3.29361e-06
2.36216e-05
2.54473e-05
-8.59347e-05
-1.50289e-05
-8.19232e-06
6.33602e-05
7.89776e-05
2.73937e-05
-7.23995e-05
3.41444e-06
-0.000135224
1.23762e-05
-1.6291e-05
2.09168e-05
2.11619e-05
-3.03458e-05
-5.0106e-05
4.56141e-05
-4.77093e-05
-7.54473e-05
-4.04058e-05
0.000105011
-5.08505e-05
-0.000107328
-2.27327e-05
6.67348e-05
5.44373e-05
-9.66509e-05
8.4883e-05
-7.39919e-05
6.2412e-05
7.08843e-06
8.08298e-06
0.000105075
-0.000144202
-9.71426e-07
0.000129939
7.98925e-05
-3.27189e-06
6.60055e-05
9.19091e-06
-3.55633e-05
6.79375e-06
7.33361e-05
0.000139243
-1.45089e-05
2.53756e-05
3.09071e-05
1.95518e-05
8.3532e-05
-3.0897e-05
-7.05465e-05
1.79115e-05
-2.28815e-05
7.08426e-05
-7.38242e-05
-5.81534e-05
-3.91168e-06
2.44749e-05
-2.05111e-05
-6.67109e-05
-4.14762e-05
8.55224e-05
-4.67979e-06
-6.37822e-06
2.46911e-05
-1.46846e-05
3.12578e-05
-6.10752e-05
1.32633e-05
3.51701e-06
7.82238e-06
-0.000132551
2.50189e-06
7.23073e-06
1.01907e-05
0.000104937
3.28277e-05
-1.31286e-05
1.46284e-06
-2.2549e-05
-2.54545e-05
-4.10788e-05
0.000124367
-0.000120038
-0.000208237
2.51742e-05
4.33109e-05
-7.43241e-05
-1.75541e-05
-1.73267e-05
3.20965e-05
-6.03037e-05
-0.000110366
6.02544e-05
5.0112e-05
0.000154553
1.48532e-05
-1.57282e-05
8.75022e-07
-0.000206931
0.000303869
-0.000257171
5.1599e-07
-3.90575e-05
-2.48851e-05
-7.98908e-05
4.4556e-05
-1.57633e-05
-8.0197e-05
-4.77963e-05
4.55568e-05
-6.6697e-05
-3.69283e-05
4.0029e-06
-2.21273e-06
-5.55779e-05
5.72926e-05
2.1453e-05
-4.54412e-05
-4.22555e-05
-1.53965e-05
0.000113728
-8.93729e-05
8.98464e-05
-2.04411e-05
7.77671e-05
-8.39071e-05
4.11564e-05
-5.00225e-05
4.80396e-05
9.25114e-06
-1.325e-05
3.99884e-06
4.14079e-06
5.11035e-06
1.88878e-06
-7.45182e-06
5.56304e-06
6.02957e-06
-8.87588e-05
0.0001049
-1.61416e-05
-6.93096e-05
-1.94491e-05
0.000109939
0.000104919
5.02043e-06
-1.49373e-05
0.000106185
-1.26662e-06
0.000115769
-9.58374e-06
-1.54387e-05
5.01378e-07
-1.48513e-05
-1.44524e-05
-8.53129e-07
-0.000131123
-1.48894e-05
4.36949e-07
-3.62001e-08
7.68843e-05
-3.73418e-05
-0.000219657
9.71377e-05
-0.000166378
3.72332e-05
2.27381e-05
-5.99713e-05
0.000125958
-0.000118851
-0.000126468
5.67913e-05
-0.000209103
3.14657e-05
-4.07725e-05
-8.42603e-06
1.58925e-05
3.35341e-05
-1.50955e-05
-3.71642e-06
-1.53444e-05
-4.12887e-05
6.07589e-07
1.82646e-06
0.000141195
-0.000142147
9.51639e-07
-6.99256e-06
-4.06549e-05
-8.26467e-08
5.13179e-05
-6.79597e-05
0.000260132
-3.34607e-05
-0.000197199
0.000141748
-5.53117e-07
9.484e-05
1.42324e-05
-6.94555e-05
2.17756e-05
0.000133709
-7.75119e-06
-5.52704e-05
-5.75382e-06
3.62612e-05
-6.38462e-05
4.91116e-05
-0.000105865
-8.2898e-05
9.14116e-06
-5.05259e-06
-0.000237356
0.000377347
-9.22785e-05
-4.88303e-06
3.68514e-05
0.00012586
-0.000159494
0.000115395
-9.24281e-05
-0.000150346
1.64681e-05
-0.000121767
0.000130278
4.18992e-05
-0.000232331
-0.000142923
7.759e-07
0.000139533
-5.82411e-06
4.12143e-05
-4.38605e-05
3.00371e-05
-2.06451e-05
9.39347e-05
8.89402e-05
0.000108861
-0.000141134
-1.78927e-06
-4.91716e-06
-6.4197e-06
-2.13585e-05
-0.000191498
5.95727e-05
-5.91692e-05
-0.000154626
-7.65558e-05
-1.38349e-05
-9.17116e-05
-6.23261e-06
-0.000125606
0.000111097
-2.41254e-05
5.41625e-05
-5.03376e-05
3.39468e-05