/*--------------------------------*- C++ -*----------------------------------*\
| =========                 |                                                 |
| \\      /  F ield         | OpenFOAM: The Open Source CFD Toolbox           |
|  \\    /   O peration     | Version:  v1912                                 |
|   \\  /    A nd           | Website:  www.openfoam.com                      |
|    \\/     M anipulation  |                                                 |
\*---------------------------------------------------------------------------*/
FoamFile
{
    version     2.0;
    format      ascii;
    class       volScalarField;
    location    "0.23";
    object      nut;
}
// * * * * * * * * * * * * * * * * * * * * * * * * * * * * * * * * * * * * * //

dimensions      [0 2 -1 0 0 0 0];


internalField   nonuniform List<scalar> 
1431
(
0.00307214
0.00253089
0.00362951
0.00160533
0.00113494
0.00182622
0.00243576
0.00078594
0.00280079
0.000668479
0.0015438
0.00114691
0.00137411
0.00131017
0.00282538
0.000515645
0.00286811
0.00346665
0.000204168
0.00178624
0.00106421
0.00100588
0.00170784
0.0014038
0.0014801
0.00198795
0.0014631
0.00122319
0.00101153
0.0017439
0.00135776
0.000728633
0.00169931
0.000939445
0.00093503
0.00342187
0.00246242
0.000860686
0.00244998
0.000859046
0.00222386
0.000394833
0.00241057
0.00132818
0.0038069
0.00186026
0.00348082
0.000797144
0.000849657
0.000871138
0.00171429
0.000632411
0.00236708
0.00374005
0.00207934
0.000762995
0.000704204
0.00229341
0.00101556
0.000931666
0.00481843
0.0017062
0.00386719
0.000782781
0.000900808
0.00402314
0.00291027
0.000912889
0.002045
0.00074987
0.000935025
0.000872801
0.00163211
0.00218126
0.00146439
0.00109482
0.00176232
0.0041561
0.000784135
0.00212715
0.000805279
0.00217408
0.000902502
0.00400835
0.00217416
0.00143191
0.00140012
0.000955536
0.00150414
0.00248407
0.00316336
0.000890636
0.00151854
0.000864534
0.00210222
0.0014311
0.00161566
0.000729276
0.00119845
0.00104125
0.00196576
0.000804711
0.00316922
0.00101068
0.00119251
0.00258788
0.000785234
0.0028147
0.00191044
0.00134516
0.00244059
0.00344823
0.000753258
0.00300847
0.0010826
0.000881507
0.00292937
0.00313132
0.00161339
0.0031109
0.000863109
0.00219946
0.000607258
0.00130647
0.000831092
0.00180368
0.00173838
0.0015426
0.00250706
0.000808705
0.00216596
0.00267633
0.00102161
0.00331175
0.00154927
0.000915136
0.00170851
0.00386018
0.00250232
0.00263769
0.00144989
0.000649629
0.000769518
0.000898477
0.00103933
0.000775027
0.000733616
0.00291878
0.00179981
0.000779044
0.000818104
0.000951002
0.00169175
0.000503941
0.00068716
0.00163524
0.000802759
0.00328146
0.000754018
0.000708365
0.00349172
0.00214663
0.00295313
0.00112601
0.00113811
0.00300725
0.0015426
0.000866728
0.00163901
0.00324975
0.00103521
0.00117597
0.00127995
0.000768197
0.000771307
0.000764143
0.000441509
0.00087863
0.00164311
0.000717364
0.000839104
0.00422126
0.000747232
0.00294332
0.000772892
0.00079193
0.000751542
0.00116955
0.00210905
0.00079916
0.00369544
0.00456395
0.00139598
0.00078995
0.0029801
0.000849854
0.000784638
0.000837905
0.000818604
0.000690691
0.000655712
0.000667324
0.000738557
0.00219965
0.000785551
0.00187717
0.00160113
0.000834124
0.00156953
0.000881124
0.000789189
0.00078261
0.00154954
0.000831576
0.000835344
0.00177698
0.000754945
0.0040066
0.00246541
0.000833666
0.000830188
0.00228691
0.000776371
0.00239581
0.000825759
0.000879078
0.000926467
0.00320511
0.000819794
0.00147123
0.00141328
0.00114703
0.000746631
0.000795648
0.000789817
0.000783268
0.000736381
0.00296134
0.000826614
0.00219523
0.000841313
0.000718107
0.00239324
0.00546491
0.00171578
0.00144239
0.000830375
0.00188654
0.00198266
0.000947384
0.000723069
0.00269899
0.000721865
0.00134484
0.0040568
0.00110357
0.000641171
0.00209296
0.00113891
0.00111277
0.00109179
0.0012295
0.00118581
0.00133831
0.000789526
0.000802566
0.00103846
0.000744248
0.00110823
0.00164737
0.000741703
0.000898764
0.000726881
0.00072716
0.00108113
0.00076628
0.00321394
0.00392178
0.00400736
0.000620318
0.00280448
0.00217215
0.00250822
0.00344503
0.00103519
0.0012747
0.0014417
0.000754904
0.00088738
0.000832154
0.000776132
0.000871346
0.000751342
0.00260928
0.000727918
0.000739932
0.00146911
0.000773599
0.00221435
0.000707832
0.000843559
0.000957119
0.000941557
0.000727365
0.00288525
0.00233428
0.000828375
0.00111084
0.00112079
0.000710567
0.000835796
0.000783487
0.00404198
0.000947925
0.000925472
0.00243292
0.000594568
0.00219128
0.000794582
0.00217206
0.00236098
0.00170919
0.0012105
0.00218383
0.00162268
0.00210791
0.00080636
0.00205479
0.00165072
0.000830796
0.00361305
0.0014075
0.00193315
0.00332771
0.000785897
0.00264071
0.00116756
0.00129677
0.00122748
0.00171736
0.00064495
0.000822308
0.00181555
0.00093567
0.00241661
0.000602329
0.000826296
0.000654072
0.000231659
0.000268563
0.000706072
0.000588618
0.000913723
0.000697379
0.000743131
0.000591683
0.000714941
0.000653876
0.000722505
0.000543626
0.000687491
0.000962151
0.000671272
0.000226556
0.000296922
0.000608671
0.000631073
0.00071756
0.00336046
0.00394449
0.00237071
0.00196498
0.00201914
0.000750349
0.0030439
0.00216535
0.00367187
0.00084185
0.000848841
0.000810836
0.000620416
0.0005945
0.000326514
0.000820265
0.000890885
0.000645876
0.000740161
0.000696488
0.000717193
0.000223793
0.000707197
0.00485849
0.000855286
0.000848691
0.00225015
0.00209543
0.000873418
0.000834633
0.00135188
0.000771903
0.000587621
0.00336177
0.000832659
0.00137308
0.00321963
0.000799429
0.0022475
0.000713903
0.000708023
0.00397359
0.000830064
0.000722233
0.0036466
0.00321999
0.000959494
0.00113889
0.00325143
0.00188814
0.00160951
0.000738063
0.00215018
0.00151164
0.00175523
0.00108675
0.00168691
0.0030622
0.00111212
0.00384017
0.00486331
0.00180551
0.00389717
0.00095592
0.000649045
0.00369385
0.0021673
0.00235833
0.00141141
0.00403172
0.00156106
0.00372514
0.0021937
0.00045404
0.00405634
0.00422058
0.000765675
0.00180982
0.00188936
0.00176978
0.00112933
0.00369291
0.00346998
0.00172354
0.00252319
0.00147322
0.00172906
0.00137825
0.00181445
0.00168618
0.00157571
0.00218379
0.00450376
0.000463202
0.00280856
0.0021844
0.00220085
0.00220493
0.000669509
0.00334965
0.00263263
0.00171277
0.00320172
0.00372186
0.000727598
0.0011895
0.00274395
0.00175953
0.00489894
0.0050785
0.00506153
0.000647866
0.00191187
0.0035066
0.00120904
0.000799209
0.000802235
0.00126844
0.00225232
0.00155076
0.00168109
0.00100076
0.000897242
0.000493344
0.00154319
0.00566068
0.000559626
0.00322592
0.000852498
0.0042515
0.000837184
0.00353929
0.00264672
0.00112284
0.00361349
0.00160473
0.0014563
0.00224552
0.00170209
0.00175294
0.00160692
0.000456735
0.000410853
0.0018671
0.000739738
0.00299079
0.000792252
0.00166084
0.00540815
0.000962374
0.00175166
0.00227024
0.00312309
0.00207519
0.00402873
0.000704495
0.00390298
0.00155477
0.00294212
0.00173362
0.002436
0.00417681
0.000786666
0.000728389
0.00204273
0.00312291
0.0016242
0.00175599
0.00301769
0.0035354
0.00243725
0.00306824
0.0014969
0.00532197
0.0034115
0.00100718
0.000540621
0.0016742
0.00388203
0.000795644
0.0016246
0.00150114
0.00269895
0.000828513
0.00108706
0.00165588
0.00190328
0.00310341
0.00250884
0.00366018
0.00104739
0.000756558
0.00299377
0.00146677
0.00256232
0.003471
0.00200685
0.00073597
0.00187849
0.000743896
0.00391372
0.00136432
0.000676451
0.00136796
0.0036549
0.00149662
0.00529279
0.00338661
0.00149585
0.00264445
0.00127266
0.00111666
0.00290078
0.000797609
0.00295693
0.00209207
0.00136975
0.00265543
0.0031201
0.00080103
0.00189702
0.000790676
0.000835238
0.00263202
0.000848173
0.000790531
0.000778615
0.00188623
0.000716873
0.00423729
0.000742781
0.000456637
0.00320346
0.00267761
0.00164732
0.00335893
0.00316996
0.00141701
0.0019606
0.00146713
0.0016017
0.00266515
0.00221855
0.00146634
0.000811335
0.00377928
0.00249939
0.000747036
0.0023645
0.000703107
0.003395
0.00151743
0.00207414
0.00180651
0.0037864
0.00140358
0.00427325
0.000928682
0.00197707
0.00071303
0.00137577
0.000804177
0.00141837
0.00401605
0.000974955
0.000805029
0.00227296
0.00156731
0.00160409
0.00073654
0.00119765
0.0040078
0.00260332
0.00132913
0.000806177
0.00140468
0.00414315
0.00252369
0.001918
0.00249885
0.000654839
0.00400527
0.00371789
0.00222295
0.000773246
0.00121298
0.00223314
0.0014541
0.000820196
0.000841067
0.00390437
0.00136532
0.00184395
0.000945196
0.00385106
0.00369781
0.000827409
0.000524317
0.000848068
0.00183197
0.0014128
0.00413034
0.000782132
0.000821783
0.00391045
0.00206796
0.000776786
0.000743259
0.00302073
0.00110292
0.00166095
0.00116017
0.00365575
0.000763674
0.00122344
0.00344613
0.00355446
0.00127568
0.00150987
0.00202706
0.00411588
0.000853381
0.00177828
0.0018903
0.0019563
0.00319552
0.00146153
0.00158387
0.000229764
0.000730289
0.000824298
0.000726819
0.00255729
0.00143477
0.00076512
0.00159361
0.00147288
0.0015694
0.00121732
0.00138976
0.000850251
0.00230699
0.00202528
0.000675882
0.00219522
0.0015099
0.00363136
0.000635548
0.00285598
0.00313929
0.000719906
0.00255399
0.000644501
0.00083815
0.000802943
0.00294078
0.00201527
0.00062639
0.00097106
0.00318052
0.000687356
0.000759881
0.00156869
0.000912407
0.000707609
0.000725634
0.00296796
0.000767388
0.00350191
0.0037998
0.00152457
0.00362917
0.00164009
0.00202475
0.000703601
0.00206325
0.000786316
0.000663523
0.000742878
0.000847094
0.00114903
0.00100556
0.00161233
0.000752865
0.000745893
0.000766278
0.00365361
0.00266235
0.000845058
0.000839922
0.000874618
0.00188264
0.000617603
0.00121876
0.00222153
0.00255051
0.000855237
0.00195758
0.000353521
0.00236378
0.000793783
0.000759898
0.00388679
0.00494143
0.000826189
0.00252182
0.000617324
0.000778872
0.00104341
0.00411956
0.00352501
0.00127404
0.00118935
0.000472671
0.00077318
0.00114081
0.000635026
0.00435194
0.000805991
0.00259889
0.00205807
0.00205617
0.00332304
0.000772306
0.00088318
0.00102384
0.000847849
0.000834449
0.000825711
0.00239939
0.00348847
0.000806623
0.00252871
0.00179643
0.000714836
0.00191328
0.000239186
0.00189149
0.00295513
0.0033215
0.00241925
0.00197656
0.000828361
0.000808389
0.00224272
0.000921986
0.00180103
0.000833882
0.00067401
0.000597762
0.000538596
0.000648971
0.00083731
0.000732141
0.000776931
0.00235263
0.000827234
0.000776241
0.00158357
0.00209875
0.00195355
0.000923152
0.00100215
0.000752422
0.0021411
0.000745536
0.00167042
0.00106572
0.00329407
0.0011348
0.000652646
0.00271117
0.000778506
0.000718464
0.000732108
0.000663735
0.00238608
0.000711955
0.00230311
0.00232176
0.00205648
0.000818648
0.00302829
0.00196964
0.00200775
0.000241267
0.00215304
0.00289413
0.000698205
0.0026418
0.00083768
0.000868789
0.000805388
0.00357717
0.00160673
0.00402392
0.00208213
0.00232049
0.000802212
0.000753619
0.000756267
0.00207042
0.000760497
0.00265581
0.00267691
0.00223889
0.000750826
0.000780294
0.0032913
0.00172821
0.00347722
0.000817566
0.00113105
0.00156116
0.00341503
0.000723928
0.000745719
0.00297814
0.00305788
0.00320421
0.00364374
0.000712129
0.000878523
0.00264154
0.00217567
0.000824807
0.00301327
0.00512151
0.000723484
0.00261819
0.00192983
0.00135414
0.0020972
0.00228214
0.0018268
0.00184126
0.00097052
0.000951801
0.00084306
0.00323477
0.000674172
0.000213049
0.00359641
0.000804824
0.00296973
0.00158247
0.00188073
0.00337393
0.00345237
0.000865566
0.00158995
0.00159773
0.0026856
0.000783306
0.00323275
0.000813495
0.000793808
0.00107292
0.00154349
0.00073006
0.000833067
0.000685506
0.00326124
0.000749564
0.00194009
0.000478439
0.000557744
0.000523226
0.000431732
0.000578432
0.000578652
0.00235533
0.00026742
0.00055465
0.000818552
0.000559879
0.00276144
0.0007233
0.00250941
0.00157464
0.00281706
0.00068871
0.00171265
0.000467697
0.00062327
0.00327358
0.0055547
0.00179957
0.000542861
0.00386951
0.00283007
0.00400648
0.00166901
0.00288101
0.00193421
0.00249565
0.00215791
0.000655881
0.000572078
0.00090978
0.000520976
0.00371896
0.00171847
0.00179519
0.00227755
0.00100687
0.000973812
0.00142644
0.000815469
0.000617586
0.000607981
0.00216961
0.00268937
0.000777219
0.00304316
0.00174517
0.000496326
0.000764559
0.000455058
0.00598937
0.000785583
0.00103451
0.000635564
0.000822787
0.00199437
0.0022822
0.000830296
0.00192715
0.00289674
0.000895526
0.00243403
0.00121927
0.000385491
0.000681575
0.000808642
0.00313293
0.0013854
0.000776778
0.00161708
0.00329083
0.000845961
0.00334683
0.00338519
0.00114075
0.000811885
0.000727939
0.000991893
0.00252456
0.00338526
0.00107129
0.00233575
0.00158184
0.00267789
0.00151762
0.0018893
0.00307547
0.00106745
0.00189972
0.00206076
0.00344085
0.000410486
0.00244879
0.00268759
0.00110581
0.00148733
0.00382218
0.000707305
0.00128016
0.00382696
0.000837383
0.00189122
0.0039521
0.00130358
0.00109403
0.000776984
0.00238214
0.00197895
0.00176706
0.00389415
0.00137765
0.000751338
0.0022999
0.00188468
0.000624093
0.00139635
0.00435258
0.00301755
0.00174783
0.00333826
0.000781835
0.000829245
0.000751171
0.0015041
0.00279513
0.000846261
0.000783729
0.000760275
0.00271831
0.00119524
0.000776879
0.000840402
0.00160418
0.00377565
0.000796983
0.000755932
0.00290001
0.000820298
0.0032604
0.000448345
0.00078781
0.000791403
0.000802779
0.000511528
0.00111066
0.00279824
0.000766919
0.000735092
0.000630097
0.000991961
0.00103103
0.000792498
0.00224594
0.00124575
0.000743932
0.00204272
0.000762277
0.000534196
0.000679444
0.00149048
0.000833622
0.00277987
0.0034005
0.00241386
0.000772485
0.00132921
0.000892155
0.000517894
0.000867084
0.00243554
0.000865402
0.00223697
0.000808639
0.00110276
0.00248619
0.0015151
0.00070184
0.00319816
0.00091381
0.00187484
0.00137637
0.00126609
0.000799432
0.00143262
0.00256601
0.000790575
0.000666298
0.000920851
0.000764514
0.00365392
0.000760926
0.00314543
0.00183368
0.000788537
0.000218288
0.0030391
0.00319857
0.000309993
0.00243652
0.00141465
0.00109849
0.00146677
0.000777465
0.00227655
0.00358497
0.00318702
0.000736911
0.00290531
0.000799012
0.000822305
0.000487048
0.00215447
0.000821426
0.00330983
0.000780014
0.00240719
0.00205143
0.00224118
0.00183498
0.00268704
0.00114167
0.000511276
0.000834643
0.00137369
0.000527419
0.000772987
0.00204428
0.00161947
0.00146167
0.000769991
0.000780559
0.00237519
0.000785756
0.000840556
0.00248495
0.00275418
0.000809813
0.000837907
0.000839724
0.000775823
0.000228791
0.000403046
0.00175438
0.000618864
0.00445137
0.000748674
0.00177356
0.00215613
0.000826954
0.00568312
0.00291717
0.00059219
0.000608819
0.00233878
0.00302032
0.000870371
0.000742544
0.00284586
0.00170902
0.00087672
0.00162521
0.00155665
0.000738816
0.0020138
0.000616162
0.00183621
0.00292829
0.00256443
0.000878893
0.000851056
0.00156888
0.00137858
0.000842464
0.000819757
0.00211701
0.00151528
0.0022947
0.0031568
0.000757438
0.00277571
0.00122584
0.00192378
0.00185226
0.00405815
0.00163925
0.000473852
0.000520586
0.00286327
0.000748543
0.00175295
0.000729871
0.000772212
0.000844353
0.000904564
0.00212813
0.00117609
0.000911628
0.000588929
0.00204409
0.00111086
0.00152283
0.00184824
0.00179171
0.00309774
0.00426788
0.00218576
0.00208517
0.00102985
0.00129091
0.00113346
0.00123696
0.00383526
0.000720107
0.00124862
0.00112823
0.000790467
0.00251003
0.00434088
0.00141402
0.00290914
0.000621991
0.00154877
0.00396574
0.001574
0.00187412
0.00365087
0.00136209
0.000768886
0.000844053
0.00354456
0.00274484
0.00178711
0.00291917
0.00255909
0.00379034
0.000773548
0.000827686
0.00132397
0.000813733
0.000884182
0.00261384
0.000838242
0.00100506
0.000387747
0.00162104
0.000790775
0.000934089
0.0015243
0.00369367
0.00239869
0.00296449
0.000847445
0.00405614
0.00302276
0.00135485
0.00064719
0.00157347
0.00249356
0.000845877
0.00257113
0.00252519
0.00168613
0.00100033
0.00221533
0.000784505
0.00325593
0.00354215
0.00113652
0.00320189
0.00118076
0.000774403
0.00214373
0.00164763
0.000845052
0.000780258
0.000827811
0.00217655
0.00241736
0.000904287
0.00288619
0.00350563
0.00124098
0.00384409
0.00109575
0.000777137
0.001777
0.0012142
0.00179202
0.00333217
0.00105089
0.000854633
0.00142178
0.0030424
0.00113768
0.00205149
0.00207079
0.00183862
0.0007592
0.0022483
0.00203139
0.000817568
0.00123627
0.00120826
0.000710124
0.00164817
0.00271389
0.000810869
0.000502143
0.0021726
0.00152176
0.000800942
0.00179319
0.00207224
0.00222755
0.000683456
0.00157773
0.00253453
0.00370804
0.0019016
0.0025717
0.000854148
0.00233494
0.00144369
0.00364967
0.00179141
0.000712552
0.00187422
0.00545712
0.00075149
0.00220621
0.000754825
0.00116639
0.000696427
0.000943972
0.0024315
0.0014579
0.00121025
0.00259563
0.00212168
0.00265096
0.00124851
0.000769774
0.0012475
0.00119198
0.00277853
0.00183906
0.00261476
0.00081049
0.00102375
0.00225439
0.000842865
0.000856075
0.000814407
0.00103656
0.00297906
0.00138181
0.000621435
0.00186406
0.00148295
0.00120303
0.0014163
0.0017456
0.00114575
0.00244612
0.000837317
0.000831216
0.00136594
0.00192763
0.00190657
0.000876041
0.00090823
0.000911436
0.000792
0.00154282
0.00156274
0.00335142
0.000910961
0.000740684
0.00067838
0.00337566
0.000941157
0.00311648
0.000769845
0.00296201
0.000801196
0.00076033
0.00127889
0.000762672
0.000977152
0.00081378
0.00164792
0.000789312
0.000682148
0.000494933
)
;

boundaryField
{
    frontAndBack
    {
        type            empty;
    }
    wallOuter
    {
        type            nutkWallFunction;
        Cmu             0.09;
        kappa           0.41;
        E               9.8;
        value           nonuniform List<scalar> 
90
(
6.253e-05
7.67548e-05
7.78088e-05
7.56751e-05
8.28111e-05
8.51396e-05
8.72214e-05
9.4298e-05
8.00432e-05
8.95686e-05
9.19411e-05
9.51664e-05
9.11942e-05
9.343e-05
9.27493e-05
0.000105422
9.97607e-05
8.12733e-05
7.22842e-05
6.52212e-05
7.83366e-05
0.000100151
8.80469e-05
9.31942e-05
8.00691e-05
0.000115248
0.000113298
8.78067e-05
8.26715e-05
5.58586e-05
6.48703e-05
6.09132e-05
5.07044e-05
6.73212e-05
6.75013e-05
6.54598e-05
8.11737e-05
5.30081e-05
7.53389e-05
6.35456e-05
7.69103e-05
6.70123e-05
0.000108412
5.87892e-05
7.25061e-05
7.13428e-05
9.12935e-05
0.000122428
7.15917e-05
0.000106796
0.000117701
4.95906e-05
7.54016e-05
9.40895e-05
9.08184e-05
5.79422e-05
7.1139e-05
0.00011767
0.000122184
8.94117e-05
6.469e-05
7.9959e-05
8.85267e-05
0.000106479
9.68801e-05
8.46246e-05
0.00010894
7.57234e-05
0.000109714
8.98684e-05
6.1964e-05
5.96114e-05
9.25479e-05
9.07892e-05
9.70404e-05
7.48326e-05
7.16251e-05
0.000103922
8.46148e-05
0.000104736
5.73852e-05
0.000108676
6.6748e-05
7.51541e-05
4.60441e-05
8.94601e-05
9.71712e-05
5.66554e-05
8.23797e-05
8.38915e-05
)
;
    }
    inlet
    {
        type            calculated;
        value           uniform 0.000851986;
    }
    outlet
    {
        type            calculated;
        value           nonuniform 0();
    }
    wallInner
    {
        type            nutkWallFunction;
        Cmu             0.09;
        kappa           0.41;
        E               9.8;
        value           nonuniform List<scalar> 
138
(
0.000139355
2.37933e-05
0.000184637
0.000100174
9.41543e-05
4.8499e-05
0.000319269
0.00011393
0.000100753
8.36723e-05
0.000123688
0.000121122
5.90432e-05
8.34431e-05
9.37301e-05
5.17406e-05
9.68204e-05
8.14885e-05
7.62264e-05
8.05762e-05
0.000266187
0.000130232
7.97959e-05
0.00013413
0.000131244
0.00012893
0.000122957
0.00012775
0.0001226
0.000131034
0.000132129
7.52944e-05
7.09875e-05
7.53717e-05
2.66946e-05
3.16341e-05
7.97428e-05
6.72392e-05
0.000110354
8.8691e-05
8.76982e-05
6.74714e-05
8.36224e-05
7.71216e-05
9.11521e-05
6.42636e-05
8.38465e-05
0.000112833
8.55147e-05
2.61376e-05
3.53236e-05
6.99784e-05
7.96066e-05
8.41527e-05
0.000101293
6.87005e-05
6.79209e-05
3.86696e-05
9.7656e-05
0.000103582
8.20918e-05
8.65549e-05
8.22796e-05
9.08596e-05
2.57514e-05
8.15879e-05
6.97475e-05
8.84144e-05
0.000134291
8.01131e-05
5.49069e-05
9.50434e-05
0.000138225
5.89205e-05
0.000139986
7.73385e-05
0.000142352
0.000123141
0.00011087
6.18906e-05
6.79324e-05
0.000102068
0.000130568
5.73003e-05
5.16787e-05
0.000113856
5.88056e-05
0.000102229
0.000128383
0.000123968
7.78553e-05
5.39256e-05
0.000118945
6.18153e-05
9.42375e-05
2.65167e-05
8.42584e-05
9.07252e-05
0.000112155
8.46551e-05
8.13496e-05
4.21004e-05
7.62972e-05
5.46996e-05
0.000121317
2.77735e-05
0.000122156
0.000133675
7.73623e-05
2.84003e-05
2.49034e-05
0.000126843
3.2061e-05
6.38018e-05
8.86058e-05
0.000119753
9.18434e-05
5.25365e-05
4.11485e-05
8.23331e-05
9.75561e-05
5.2325e-05
9.45843e-05
6.39089e-05
2.56094e-05
3.62945e-05
9.85244e-05
5.62447e-05
2.69197e-05
4.68276e-05
6.45505e-05
8.17233e-05
0.000149144
9.15089e-05
0.000107491
0.000186861
7.72058e-05
6.45457e-05
)
;
    }
    procBoundary0to1
    {
        type            processor;
        value           nonuniform List<scalar> 
29
(
0.00245575
0.00251452
0.00425765
0.00425765
0.00386159
0.00386159
0.00279973
0.00139156
0.00234003
0.00263072
0.00212854
0.00174317
0.00135707
0.00153644
0.0020809
0.00120652
0.00532368
0.00402465
0.00329979
0.00225636
0.000839719
0.000718312
0.00380198
0.000740967
0.000736459
0.00402465
0.000721099
0.00092199
0.000740967
)
;
    }
    procBoundary0to2
    {
        type            processor;
        value           nonuniform List<scalar> 
42
(
0.00084739
0.00120715
0.00110537
0.000788821
0.00135547
0.00084739
0.00110537
0.00115233
0.000953234
0.000776609
0.00200413
0.00217006
0.00200413
0.00194352
0.00163435
0.000714914
0.00163435
0.000758262
0.000787057
0.00197164
0.00197164
0.000758262
0.00066834
0.00150953
0.00150953
0.000559892
0.0012065
0.00054226
0.00078223
0.00130172
0.00130172
0.00059075
0.000588129
0.000657489
0.00085798
0.00110537
0.00150145
0.000465295
0.00078223
0.00115233
0.00110139
0.00104399
)
;
    }
}


// ************************************************************************* //
