/*--------------------------------*- C++ -*----------------------------------*\
| =========                 |                                                 |
| \\      /  F ield         | OpenFOAM: The Open Source CFD Toolbox           |
|  \\    /   O peration     | Version:  v1912                                 |
|   \\  /    A nd           | Website:  www.openfoam.com                      |
|    \\/     M anipulation  |                                                 |
\*---------------------------------------------------------------------------*/
FoamFile
{
    version     2.0;
    format      ascii;
    class       volScalarField;
    location    "0.23";
    object      p;
}
// * * * * * * * * * * * * * * * * * * * * * * * * * * * * * * * * * * * * * //

dimensions      [0 2 -2 0 0 0 0];


internalField   nonuniform List<scalar> 
1431
(
98.7508
90.6268
89.7241
90.2671
93.324
86.2137
84.596
96.1274
91.7622
92.7867
92.4172
92.4669
88.2741
101.285
93.4112
94.8666
93.5553
91.896
95.2206
92.0308
91.6128
92.7983
88.7629
102.133
78.8592
91.9771
71.7899
100.49
90.1086
90.8559
111.155
117.412
74.0435
88.3364
92.296
88.98
93.5998
95.2538
85.6994
95.3113
108.078
89.954
89.6128
93.4193
72.8631
94.655
92.6039
115.919
112.09
96.5413
91.1043
92.5217
92.6201
88.1614
91.5892
109.222
92.2869
92.4031
78.4675
91.7327
92.3065
90.3033
92.5613
95.9701
97.85
91.8335
89.1892
85.1718
94.9962
96.3665
89.8225
93.4871
90.8743
85.1055
94.0303
74.0496
92.8301
81.0239
96.3937
73.6732
95.9964
91.5343
87.9542
90.4982
79.8929
92.9626
93.2907
87.8853
103.012
91.862
92.2537
88.1226
93.3862
95.0289
91.7985
91.9463
94.2974
98.0173
93.421
111.129
94.9173
95.1843
94.3768
93.1147
91.0822
89.5286
96.1231
111.397
112.726
92.72
74.5862
91.8422
96.657
91.3431
92.3987
93.3025
91.9936
92.8376
103.858
75.0467
93.7982
92.0737
92.4219
106.514
95.688
90.2712
104.64
92.1687
96.5287
95.8373
91.5824
111.962
102.468
93.1033
93.4031
89.3967
90.8188
92.1201
94.1754
111.611
91.7866
93.4078
95.1142
112.075
113.108
93.9666
97.569
111.694
90.7483
110.656
96.6726
98.9383
89.7842
83.4176
91.1971
91.9799
95.9996
91.9259
97.4017
105.832
91.8734
91.493
95.3541
90.8255
93.3813
71.3307
92.5258
94.4914
90.8559
94.0214
104.524
94.909
110.097
96.8654
95.6192
92.666
87.9052
97.5297
90.7553
102.731
96.0274
93.0013
102.888
91.9071
95.3853
105.509
95.1818
85.0511
92.2076
95.9659
87.8012
93.9876
92.0446
95.808
90.2225
93.6015
96.1322
114.543
89.4101
89.7434
89.3929
115.604
109.176
106.819
96.0416
74.6405
92.7059
96.4229
92.54
99.8506
95.8035
96.6688
107.14
96.3262
92.5966
91.6539
98.24
88.0077
89.4887
96.0288
96.0201
69.1476
95.2697
96.1943
96.7093
90.9746
108.164
92.5215
100.58
111.42
93.3921
89.5927
96.2605
94.6325
95.8292
96.4154
97.3541
97.3107
95.9405
89.9358
97.7846
107.569
91.8255
93.7592
91.9274
90.833
95.2813
88.2412
85.8006
103.485
101.504
91.8304
92.6817
114.81
92.3788
96.8859
90.9644
89.9468
95.8079
96.267
96.7313
89.049
93.4759
91.902
96.0254
99.7458
91.585
95.0911
101.502
91.997
96.2822
111.077
100.571
99.6511
96.3062
93.336
93.3563
91.9476
92.0514
92.6147
91.3548
90.0132
89.8129
92.3756
93.3894
87.294
93.4105
101.476
102.385
97.1032
93.884
95.9859
101.349
90.4399
102.902
98.486
92.7313
100.955
89.9456
104.201
96.1521
109.733
86.2597
113.519
91.235
89.9527
96.1032
96.6004
96.0068
94.53
96.9142
95.4471
90.0973
93.456
87.6426
90.053
92.0177
89.8582
95.4659
95.4242
89.8484
95.4225
91.5805
89.9856
91.6051
95.1416
95.8993
95.0609
108.651
96.6227
90.6954
84.4779
90.1038
89.2257
95.7335
91.2892
90.4386
95.2352
91.0293
87.9999
90.0518
95.9837
94.7516
88.6789
100.39
84.2502
96.67
89.3542
94.5052
94.8232
89.6558
92.117
92.2075
92.0514
86.721
89.7477
92.2371
84.6266
92.2679
90.9907
90.2996
88.135
91.8237
94.1505
94.6591
89.4588
91.2173
90.1351
89.8654
90.7865
90.3323
90.0624
95.4625
104.199
90.2127
89.4627
90.972
95.4328
94.7046
92.1858
92.1713
89.5418
94.7662
92.3005
89.2316
91.5108
90.4624
85.4829
92.1796
94.3345
89.1738
92.0594
106.903
95.4393
95.2918
91.989
94.9883
96.3775
92.4508
96.0518
90.4745
90.4853
96.2929
91.2795
90.1633
93.1597
89.6139
113.247
94.6075
91.0922
93.1825
89.7754
92.1872
85.9562
112.577
127.45
91.0091
92.0452
87.9437
94.6679
89.977
93.1896
94.6949
89.6144
93.1156
91.4476
89.3419
86.4429
72.5903
91.1157
74.9407
89.9844
89.9126
87.1365
90.0381
91.6521
93.1561
85.9446
89.0954
86.2886
87.7122
91.6463
86.3828
85.8042
89.3437
91.1071
91.0075
89.454
88.2549
87.5173
88.2642
94.6388
90.3423
94.4959
94.2957
94.2964
94.7413
94.6093
94.7947
89.8644
83.4776
95.1845
86.9153
88.5284
89.4928
89.5219
94.6572
83.9539
88.8685
89.0526
84.2851
91.9155
113.219
110.649
90.2935
88.6528
92.0545
92.5251
94.0755
94.6177
94.6058
91.9192
96.7275
94.5511
113.224
92.6224
89.9877
93.4397
94.5159
88.0237
88.8136
95.1901
87.1635
94.7715
95.1027
91.8778
91.7125
85.8427
96.4596
86.1306
91.3168
93.3542
86.3257
90.9268
90.4678
87.5868
88.1899
94.1813
94.9381
90.7481
90.2425
88.6288
97.2479
89.5878
96.0442
94.9982
94.0465
92.3653
94.8467
89.5537
87.5856
88.6851
86.4867
94.7559
92.0005
93.9764
89.9201
94.7204
87.7799
85.546
113.26
114.09
88.1482
86.74
94.3167
94.5824
87.5578
85.9283
90.472
94.9151
90.0397
92.8883
90.6881
92.2593
92.0137
93.3813
85.7317
95.9463
94.1792
86.2891
87.144
91.0018
95.425
94.3145
90.161
90.0066
89.2573
91.3678
94.4772
99.4761
89.5964
88.7916
90.0619
94.0254
73.2998
94.9535
91.1822
100.701
90.9272
89.4863
88.6019
92.0309
91.7817
92.5478
93.3077
91.4722
92.0316
90.6722
89.3043
97.6772
91.7996
96.0022
89.8541
91.8138
89.9147
86.9681
90.0537
94.5908
91.3185
98.9438
92.4265
92.6094
93.7266
95.1002
95.97
88.1239
94.3592
86.1974
99.7555
84.8611
90.2155
89.9861
87.743
86.1584
86.7514
92.7961
91.6637
85.7606
92.4464
90.3741
93.9969
91.7514
94.9672
87.2769
92.0669
98.8624
91.236
90.1384
87.1082
93.6443
88.5587
89.9276
91.6971
86.1674
86.8914
120.009
88.3681
94.1716
92.8781
95.8561
91.8881
91.6276
92.507
95.8402
89.9865
93.9781
87.4013
102.86
92.8903
91.4342
87.1602
92.5405
95.8784
92.2285
88.4385
88.4437
88.3089
92.2118
92.4111
91.5025
92.0959
89.9705
98.1003
93.735
92.1007
93.5722
96.1339
95.839
86.8035
92.7306
91.7505
93.656
91.3511
91.7395
96.3909
84.293
92.3326
94.2081
93.1584
91.1578
93.972
96.0393
91.5009
92.5324
113.215
112.723
91.9241
92.6876
87.9362
94.9982
93.2406
91.2823
92.5398
92.2073
89.5143
89.8596
92.1767
89.5009
91.5762
95.152
111.64
91.455
88.813
96.8298
92.0401
87.2452
93.9592
88.9191
96.1382
104.288
87.6989
85.6719
99.8434
87.3503
92.257
126.054
92.699
92.172
90.6537
106.965
90.8652
94.5247
88.7469
94.6239
87.1145
96.7675
90.6357
90.0292
106.221
95.7706
96.6025
97.5208
95.8018
93.7103
88.1895
97.1987
93.5293
90.1075
105.354
88.5953
95.3778
92.6886
104.852
104.27
93.622
98.9561
91.234
90.0777
91.7248
91.2204
90.6137
91.7844
114.569
92.4515
98.0857
97.2659
100.515
101.435
105.506
84.9551
92.0648
101.989
103.638
102.148
91.7765
91.2148
95.9153
96.1465
96.5317
105.352
87.6866
104.262
108.018
100.467
95.6981
90.8466
89.9689
106.437
97.6927
102.92
90.5773
95.1551
94.3533
89.0388
89.8894
99.4726
93.5748
91.2516
87.6682
85.1748
89.0234
91.8189
101.371
91.6766
95.0917
96.2154
94.5154
89.1809
91.8329
106.008
92.7048
98.1037
108.131
137.839
95.2482
96.2596
94.1738
88.9153
94.0865
95.5281
90.5258
91.0784
108.3
88.138
93.765
89.9859
92.5466
91.9078
91.8191
94.1608
96.6345
95.6029
92.1259
93.8106
78.7402
97.3264
97.0767
94.4623
94.6867
94.8283
98.0956
96.241
100.571
89.8963
89.9248
96.8615
90.8217
90.2199
88.1871
93.8038
92.0455
94.6599
89.4469
93.6294
88.0666
90.8706
88.5909
95.7445
90.1962
90.2542
97.3461
111.926
97.7214
94.5711
77.5419
110.264
88.9697
90.1532
89.9934
95.9345
90.3623
90.3039
89.9203
94.8579
118.319
90.991
92.4821
92.501
96.0713
96.1862
95.8515
91.9484
84.2948
92.015
89.786
96.0652
94.7621
105.837
93.7947
88.3865
113.2
96.7493
91.9876
91.1521
94.7289
104.531
89.7474
93.304
91.573
96.0741
93.5084
88.2237
91.6307
94.7327
96.3657
98.654
90.8466
76.3796
75.9625
111.763
97.7605
92.9748
86.9181
96.2782
93.1485
88.9984
94.6492
89.3252
90.8088
88.7111
91.2865
91.4538
94.7394
94.839
109.336
111.456
97.9173
95.7104
94.7473
95.1422
91.7463
95.786
90.8652
91.4025
94.7547
92.4666
90.3308
96.4646
93.9599
89.6887
90.0844
96.5274
90.9862
95.9155
95.9698
97.5883
89.3975
96.257
93.0607
106.136
88.0781
106.257
90.6937
94.2518
93.1923
93.7457
94.6303
92.6727
92.3753
89.8311
93.6018
88.3889
96.2426
92.4819
97.7921
91.0324
72.3362
92.7299
91.8113
97.7127
93.3311
93.37
94.4687
88.681
97.403
84.6778
92.9105
91.8551
89.9296
91.6883
91.775
90.5978
88.6393
91.688
90.0491
96.5846
93.4712
94.9138
93.2534
90.0671
91.456
94.7458
89.9637
85.8864
91.4956
93.7832
96.0223
95.279
94.2169
92.0615
90.9943
98.7613
89.3428
91.1076
90.6793
85.8518
92.6091
94.6642
99.7085
94.7741
93.432
96.3461
91.1151
90.5163
96.8146
85.3717
89.3794
102.004
78.6843
93.0115
89.4417
91.2058
96.7378
90.6491
92.697
96.539
87.4983
93.8314
94.3834
92.454
88.8913
94.1089
95.8516
98.7715
110.316
91.9817
92.3233
90.8378
91.9425
91.7869
92.2756
90.3162
89.9466
73.8871
98.6686
86.5585
89.9788
91.8883
94.9292
109.263
90.1354
93.2864
89.8713
90.4404
89.875
91.499
90.9807
95.9448
90.8313
92.0952
91.8523
93.5002
93.9769
88.6686
90.9109
88.918
80.4588
91.6622
103.839
92.8515
87.5395
95.0298
91.9461
92.1629
87.9969
91.6609
91.8899
98.582
87.2746
113.937
91.7039
93.1011
92.4736
81.1804
116.112
93.0173
94.8914
96.2374
95.5683
91.8824
91.2526
95.4435
93.8381
95.3195
96.1027
90.82
91.5915
94.5017
96.9895
96.96
93.4885
91.6729
91.348
94.8512
114.761
93.4821
93.7371
111.005
95.9993
90.9708
95.3024
100.203
91.1435
115.314
93.6305
98.9956
89.8807
97.0459
97.224
93.0107
90.6622
95.4865
95.0673
77.7374
91.5665
96.6405
92.6086
93.9806
88.7981
99.7668
90.4669
92.601
91.2098
111.286
92.2022
112.078
90.7183
90.4038
106.556
108.95
90.342
91.6679
96.8932
93.7034
79.8909
99.6451
91.863
95.2736
88.7046
91.9026
96.9777
95.0302
98.2404
89.0816
89.8651
91.0972
89.9593
92.0105
90.1533
94.5089
89.3433
91.3921
90.2924
93.2257
94.0696
95.5873
79.982
92.0816
90.3979
96.2287
78.0216
94.1661
88.9868
91.8351
89.5588
91.5952
90.8793
99.5533
106.173
96.6837
81.8598
93.1831
94.7908
89.4858
93.0934
109.778
111.764
94.3444
89.2027
98.9474
96.4028
87.2471
90.8416
91.7225
94.4683
94.6994
112.815
94.9253
89.8394
94.7063
107.016
80.9814
108.898
94.6046
95.0172
91.8117
94.9077
88.4672
97.3838
94.6753
89.1904
94.3739
98.5567
94.2159
92.3605
91.6554
80.5069
94.7407
91.354
96.4936
91.8445
91.8676
91.5801
91.6297
91.7175
97.4652
91.8826
88.5634
91.755
96.4296
96.1426
97.1192
92.0464
91.5547
91.7644
94.7891
77.4132
89.9402
89.8906
89.8604
92.1153
92.3022
94.6243
91.2308
93.6542
111.482
92.0351
114.06
95.0487
95.3855
97.7309
86.0623
93.1031
77.1438
93.3908
91.1411
80.0627
92.9807
90.1612
93.4687
91.8885
90.0731
89.8792
90.4564
93.1438
93.7162
93.4414
87.7478
90.4615
112.562
93.2541
89.0614
95.9493
92.0174
90.507
91.7638
90.4342
91.1594
91.7611
91.784
88.239
89.9553
94.5534
91.6474
95.9583
94.1798
91.8911
74.4026
89.8019
91.4778
91.3624
92.0498
94.8119
96.418
93.0467
95.6437
93.3976
92.3251
96.4106
98.616
94.8375
89.9447
117.98
123.744
89.877
90.3526
90.9658
91.077
93.0567
91.9524
94.5845
88.2844
91.3553
83.7732
96.6488
95.0899
92.0579
93.076
88.1949
93.6858
91.407
96.3521
93.6463
88.3965
94.1829
89.3196
93.8443
96.0609
89.9921
94.0744
94.8405
98.274
92.6206
95.2199
90.1449
91.5958
91.9062
88.1002
92.1822
91.9516
93.2913
97.3549
90.2087
94.2263
90.1266
91.6928
85.8096
90.6657
94.3251
93.1498
89.9102
89.9774
95.8242
90.0899
97.0847
84.4274
72.5477
95.7866
89.8726
93.3008
114.257
89.9734
90.9132
85.8015
93.1238
86.853
90.7396
95.7427
92.1667
83.7486
85.4953
94.3129
92.0505
90.1647
91.9712
89.6727
92.0768
95.7967
92.864
90.1323
92.0064
90.2028
113.919
89.2973
91.6808
95.243
92.5469
98.0427
84.3194
98.7351
97.3058
94.6963
93.2895
89.8003
90.3212
92.2083
92.8483
86.3279
118.553
93.707
93.7791
99.672
89.6229
110.751
95.4871
99.336
90.7176
95.2287
89.9511
93.3922
93.9216
94.5684
81.7379
95.2139
91.4288
87.9609
93.9938
86.9633
97.7283
94.4527
95.5881
97.1215
96.3947
96.4007
95.1353
79.158
94.3833
95.64
96.52
95.9626
89.9175
94.439
89.6097
93.7253
96.8558
110.677
89.1985
93.8405
90.7316
93.196
93.1896
95.8997
97.46
69.5186
120.318
89.3516
90.5451
98.6573
93.0653
92.0708
89.8667
)
;

boundaryField
{
    frontAndBack
    {
        type            empty;
    }
    wallOuter
    {
        type            zeroGradient;
    }
    inlet
    {
        type            zeroGradient;
    }
    outlet
    {
        type            fixedValue;
        value           nonuniform 0();
    }
    wallInner
    {
        type            zeroGradient;
    }
    procBoundary0to1
    {
        type            processor;
        value           nonuniform List<scalar> 
29
(
80.5622
79.6623
84.8015
84.8015
72.4297
72.4297
112.837
84.1828
81.6189
83.8774
83.8626
72.4314
83.3
84.4071
113.181
113.424
71.4466
75.0026
84.0879
83.3717
113.238
113.088
77.2013
113.4
113.513
75.0026
114.207
112.726
113.4
)
;
    }
    procBoundary0to2
    {
        type            processor;
        value           nonuniform List<scalar> 
42
(
92.3849
92.4988
93.4196
93.3196
95.2798
92.3849
93.4196
93.5371
94.9944
94.2549
95.4718
95.2096
95.4718
94.7118
94.0785
92.0133
94.0785
94.3805
94.5237
89.7041
89.7041
94.3805
94.7088
91.9244
91.9244
94.7075
91.5089
94.5416
91.9829
93.0451
93.0451
94.3688
94.159
93.9365
93.7841
93.4196
92.9707
93.3507
91.9829
93.5371
93.6144
93.691
)
;
    }
}


// ************************************************************************* //
