/*--------------------------------*- C++ -*----------------------------------*\
| =========                 |                                                 |
| \\      /  F ield         | OpenFOAM: The Open Source CFD Toolbox           |
|  \\    /   O peration     | Version:  v1912                                 |
|   \\  /    A nd           | Website:  www.openfoam.com                      |
|    \\/     M anipulation  |                                                 |
\*---------------------------------------------------------------------------*/
FoamFile
{
    version     2.0;
    format      ascii;
    class       surfaceScalarField;
    location    "0.23";
    object      phi;
}
// * * * * * * * * * * * * * * * * * * * * * * * * * * * * * * * * * * * * * //

dimensions      [0 3 -1 0 0 0 0];
oriented        oriented;


internalField   nonuniform List<scalar> 
2708
(
-0.000157189
3.11104e-05
7.31328e-05
5.29462e-05
-0.000121324
0.000167357
1.14562e-06
-4.71786e-05
0.00123793
0.000246786
-0.000712172
-0.000772543
-0.000308751
0.000165255
4.93292e-05
9.4167e-05
-2.86807e-05
2.0566e-05
0.000256293
-0.000248178
8.19211e-06
-0.000100512
8.76026e-05
4.71741e-06
0.000304005
-7.09336e-05
0.000598386
-0.000831087
0.00101175
-0.000779045
-5.13625e-05
0.000213438
-0.000258381
9.63054e-05
-0.000347244
6.01645e-05
-2.84951e-05
0.000315575
-0.000300815
4.35703e-05
-3.43251e-05
0.000291569
-3.74746e-05
-1.45752e-08
3.74892e-05
-0.000185504
0.000228155
-6.95781e-05
2.69279e-05
0.000865172
-0.000876982
3.58792e-05
-2.40699e-05
0.000184566
2.34778e-05
8.99614e-06
-0.00021704
4.37482e-05
-5.98844e-05
1.61362e-05
1.32295e-05
0.000134762
3.65742e-05
0.000202272
-0.000425394
0.000248618
-2.54959e-05
-2.22447e-05
2.09061e-05
1.33862e-06
-0.000296692
9.58215e-06
-1.37044e-05
1.82996e-05
6.83765e-05
-6.92667e-06
-7.97494e-05
0.000210424
-0.00010698
-4.58316e-05
-6.37395e-06
-2.67125e-05
7.8918e-05
0.000838955
5.24671e-05
-2.62498e-05
0.000376602
6.81842e-05
-0.00040221
-4.25762e-05
-0.000278422
7.26738e-06
-2.55381e-05
-0.000405101
0.000332388
-0.000160347
0.000233059
2.97531e-05
-1.67279e-05
-0.000890007
-0.00103691
8.33169e-05
0.000956441
-2.84698e-06
0.000329006
-0.000351344
-7.7887e-05
0.000100225
-0.000454948
0.00102032
-0.000586504
2.11368e-05
0.000953193
0.00046411
-0.000631752
-0.000785552
0.000229233
0.000151453
-0.000380686
-0.000262136
0.000319576
-5.74396e-05
5.45391e-05
4.8823e-05
-0.000103362
-0.000816876
0.000957724
0.0003643
-0.000505147
-0.00010736
2.48449e-05
0.00030258
-0.000220065
-0.00118883
0.00114514
-5.31819e-05
9.68774e-05
-0.000205481
0.000266037
0.000297327
-0.00140407
-3.5856e-05
0.000251097
-0.000393292
-0.000279693
5.01119e-05
0.000622874
-5.88918e-05
-4.94914e-07
5.93867e-05
9.61282e-05
-9.87146e-05
0.000134625
-0.000132039
0.000152239
-0.000218004
-0.000195563
0.000261328
-3.9793e-05
0.000137671
-0.000193979
9.6101e-05
6.17062e-05
-0.000388282
-1.30345e-05
0.00033961
4.31521e-05
0.000558162
-0.000304367
-0.000296947
-3.21611e-05
4.02433e-05
-0.000980534
0.000972452
-0.000663923
0.00118478
-0.000883311
0.000362459
2.97175e-05
-0.00108587
0.00111234
-5.61855e-05
-0.000362768
-3.63922e-05
0.000366875
3.22855e-05
-9.83221e-05
5.14489e-05
-0.000300371
-0.000213765
0.000128517
3.38859e-05
-0.000154639
2.4777e-05
0.000161061
-3.11993e-05
-0.000637525
0.00027928
0.000334231
2.40144e-05
-0.000987072
9.71754e-05
0.000973823
-8.3927e-05
0.000355494
-0.000305399
-0.000203804
0.000153709
-1.41563e-05
4.39373e-05
0.000110511
-0.000140292
-0.000563359
0.000534861
2.72682e-05
5.86264e-05
-6.7595e-05
0.00017772
-0.000154901
2.03327e-05
-0.000211082
-0.000145261
0.000236308
0.000120035
0.000259755
-0.000626109
-0.000450522
-0.000427373
0.00047292
0.00101243
-0.00105797
0.000851787
-0.000171106
-4.89637e-05
-0.000631717
-3.40995e-05
4.21124e-05
0.000277702
-0.000285715
0.000159134
3.93848e-05
-4.1572e-05
-4.93944e-05
4.36907e-05
4.72757e-05
-0.000624916
0.00102994
-0.000735573
0.000330549
-0.000166008
0.000206778
-0.000301687
9.20127e-05
0.000299819
-9.0145e-05
0.000185559
0.000156847
-0.000119866
-0.00022254
8.25452e-05
0.000146688
-6.88011e-05
-0.000267223
0.000326336
9.68767e-06
7.59387e-05
0.0010951
-0.000924252
0.000968414
6.50613e-05
-0.00101636
-1.71164e-05
0.000137528
-0.000266493
-7.11097e-05
0.000200075
-0.000954437
0.000926948
-0.000399885
-2.21003e-05
-0.000362848
1.91676e-05
0.000365781
0.000215226
-0.000313112
0.000275154
-0.000177268
-2.0208e-06
-0.000100851
0.000141811
-3.89387e-05
-0.000261565
-6.20297e-05
0.000197022
0.000126572
-0.000179323
0.000251604
-0.000123577
5.12962e-05
-0.000156228
4.64206e-05
0.000191268
-8.14614e-05
-0.000132283
3.28237e-05
9.35709e-05
5.88834e-06
0.000802753
7.13614e-05
-3.51589e-05
5.93884e-05
-9.65737e-05
0.000281312
-0.000244127
-0.000228336
-0.000221462
0.000172894
0.000276903
-0.000266123
0.000176558
-4.27169e-05
-0.000119888
-3.83934e-05
2.05413e-06
0.00113187
-1.86323e-05
3.19023e-05
3.03885e-05
-4.39525e-05
0.000360805
-0.000347241
0.000123834
-0.0001893
9.27339e-05
0.000209646
8.81324e-05
-0.000112219
-6.10874e-05
-0.00100491
0.00103318
3.28114e-05
0.000134531
7.04393e-05
-0.000113494
-9.14771e-05
-0.000825742
-0.000293129
-9.3278e-05
-5.22135e-05
0.00010392
2.80359e-05
-0.00108934
0.00108936
-2.80639e-05
0.000117797
-0.000100489
-0.000226718
0.00020941
0.000267406
-7.66544e-05
9.53885e-05
-0.00028614
0.00017849
-3.14771e-05
7.85063e-05
-0.00022552
-0.000247098
0.000200239
2.04255e-05
2.64327e-05
0.00104103
-0.00146568
0.000185335
0.000239307
0.000521602
1.00995e-05
1.20214e-05
-0.000543723
9.06662e-05
9.40308e-05
-0.00101158
-6.31057e-05
-0.000205461
0.000297787
-2.92195e-05
8.36687e-06
0.000173357
-0.00022803
4.63058e-05
-2.54651e-05
0.000202031
-0.000210665
0.000848671
-0.000583111
4.3892e-05
-0.000309452
0.000165175
-0.000206563
-0.000169693
0.000111752
-7.00248e-05
0.000136763
4.80773e-05
-4.10522e-05
0.00026038
0.000268207
0.000194296
-0.000260231
7.79838e-05
-6.229e-06
-0.000116134
4.4379e-05
0.000752657
9.30744e-05
-4.29789e-05
1.36422e-05
9.80177e-05
-0.00114012
0.00114172
9.33895e-05
-9.49923e-05
-4.64154e-05
-0.000181506
0.000457776
-0.000200605
0.000800867
0.00017234
-0.00084666
-0.000126547
-0.000994249
-0.000637466
0.00105567
0.000576042
0.000133696
-0.000243467
-0.000149257
0.000259028
0.000112092
-4.28507e-05
0.000683416
0.000386996
-2.1627e-05
-0.000208522
0.000134422
-7.49013e-05
0.000108112
-0.000167632
0.000822879
-0.00104169
0.000356992
-0.000138178
0.00013761
-0.000127851
1.26268e-05
-2.23857e-05
-0.000392472
2.22243e-05
-0.000100954
-0.000759313
0.000860268
0.000128291
0.000214094
-0.000224589
-1.83336e-05
-4.98399e-06
-9.65708e-05
-4.1911e-05
3.56465e-05
-0.000259859
-0.000294163
4.05709e-05
-4.80949e-05
3.07144e-05
2.109e-05
-0.000275517
0.000223712
0.00032134
-0.000316479
8.29652e-05
-8.7826e-05
-0.000368449
-9.28006e-05
6.87772e-05
9.91609e-05
4.45988e-05
-0.000131254
-1.25058e-05
1.23938e-05
-7.79262e-05
4.71988e-05
0.000899755
-2.35391e-05
-0.000766986
-0.00010923
-0.000104682
0.00113541
0.000154046
-0.0011359
9.55127e-05
0.000860471
-0.00102852
-0.000263171
0.000431224
-0.00023109
-0.000989074
0.00119119
2.89732e-05
0.000169234
-1.60798e-05
-4.28603e-06
-2.97339e-06
-0.000286903
-0.000928293
0.000895729
-0.000271519
0.000304083
0.00127176
7.68592e-05
-0.000316217
-0.0010324
-4.86567e-05
0.000911727
-1.12832e-05
0.000145825
-0.000184967
0.000318523
-0.000279381
0.000183864
3.13623e-05
-9.91837e-05
-4.60778e-05
0.000188835
0.000407806
-0.000930766
-0.000378661
0.00035499
0.00020857
0.000125551
-0.00020583
0.000913677
0.000106677
-0.000171683
-0.000178358
0.000907706
-0.000892162
0.000162814
-0.000393779
-3.72527e-05
5.63792e-06
0.000304759
-0.000299462
0.000224558
-7.04917e-05
-0.000254556
9.20822e-05
7.76743e-05
-5.80046e-05
8.61772e-05
-0.00019518
-6.30283e-05
-7.06684e-06
7.8462e-05
0.000203556
-0.000142827
1.97888e-05
-0.000124186
9.04245e-05
0.000181165
-0.000196087
0.000229016
-0.000963371
0.000174199
0.000901264
0.000123953
-1.09108e-05
-6.92943e-05
0.000373092
-0.000601292
-0.000573545
0.000801745
1.37894e-05
0.000238996
-0.000877702
-3.43433e-05
0.000919231
1.4867e-05
-0.00036997
5.85166e-05
0.000311453
4.0218e-05
-8.21289e-05
0.00108805
-0.00126407
-0.000150403
0.000326418
-0.000104314
-0.000280319
3.32889e-05
-0.000830591
-0.000339684
0.000860776
0.0003095
-8.59298e-05
0.00104806
-0.000950499
-1.16342e-05
5.56148e-06
4.17926e-06
-4.03301e-05
3.05894e-05
0.000109158
-0.000990677
0.0009602
-7.86806e-05
-0.000284094
0.000254324
0.000194945
-0.000334001
0.000247993
0.000946479
-0.000934503
0.000925772
-0.000169627
0.000626408
-0.000611133
-7.79544e-06
0.000551503
-0.000508061
2.12248e-05
-0.000240258
-0.000333399
-0.000909646
0.000312279
0.000288096
7.32914e-05
-0.000206342
-0.000155045
-0.000112131
0.000177471
-5.78746e-05
-7.46617e-06
-0.000189725
0.00101841
-0.000893586
-0.000159165
0.000270238
4.44326e-05
-6.47455e-05
-0.000249925
-0.000147764
0.000162834
0.00112665
6.92959e-06
2.44188e-05
0.00100968
0.000106277
0.000962456
-0.00102481
-4.39217e-05
0.000183502
5.28068e-05
0.000180528
-0.000221099
-0.000205239
0.00027728
-7.20412e-05
-0.000192488
-0.000925956
0.00019015
-0.000359505
-8.5301e-05
5.15136e-05
-0.000197447
-0.000249821
-3.79617e-05
6.21948e-05
3.99172e-05
0.00102456
-8.61992e-05
-0.000978276
0.000137665
-0.000285116
0.000252586
-0.000105135
-7.35109e-05
0.00106061
-0.000651203
-0.000265921
0.000674127
-1.47282e-05
-0.000890489
0.000127749
0.00087149
-0.000198372
0.000978344
0.000148579
-0.000159038
-0.000967885
-0.00018036
-0.000284255
0.000159216
-3.6618e-06
0.000143259
-9.56602e-05
0.000194051
0.000905656
-0.000186031
3.62396e-05
0.000175706
7.61498e-05
-5.6096e-05
9.90178e-05
2.49664e-05
-6.78882e-05
0.000368959
-9.16875e-05
0.000584236
-0.000861508
0.000353054
-9.92294e-05
0.000515814
0.00122887
-0.000366794
-0.000345378
0.00081067
-0.000884197
-1.81601e-05
-0.00101845
-0.000834097
0.000588476
0.000854559
-0.000919298
0.000183172
-0.00101671
4.2562e-05
0.00101003
0.000925733
-0.000217939
1.3335e-05
0.000166211
-0.000180722
0.000177897
0.000179382
0.00101329
0.00020198
-0.000528104
0.000957988
-0.00126097
-0.000414046
-0.000926104
0.000812047
-0.000618098
0.000878179
-8.46145e-05
-0.000992397
8.7938e-05
6.60014e-05
-0.000312554
8.93636e-05
-0.000938372
0.000664845
-5.98722e-05
0.000203678
-0.000244348
1.80975e-05
2.2573e-05
-0.0011118
-3.46074e-05
0.0010729
-0.000178815
0.000160565
-0.000179254
0.000177622
-0.000179408
0.00018104
-0.000292392
0.000440017
6.78358e-05
-0.00022517
0.000346169
-2.06503e-05
-0.000199822
0.000288308
0.00075744
-3.53059e-05
-0.000238246
-0.00101545
0.000145153
-0.000976988
-7.76405e-05
0.00117913
-0.000124506
-0.000106513
0.000140697
-0.000316688
0.000278363
0.000803242
0.000458153
-0.00115512
0.00010911
-0.000177058
-0.0009651
0.000988419
-2.33188e-05
-0.000192688
0.000201177
-8.48909e-06
0.0002361
-0.000174197
0.000141775
-0.00104867
-2.37163e-05
0.00107239
-0.00100577
0.00101688
-1.11041e-05
-0.000935382
-0.000114073
4.001e-05
-8.73654e-05
0.000146516
0.000241836
-0.000874662
-0.00102898
4.20234e-05
-0.000984506
0.0010779
0.000910391
-0.000240091
-0.000931342
-9.52683e-05
0.000942052
8.45587e-05
-0.000119713
-0.00021164
1.67392e-05
0.000314614
0.00100385
1.32145e-05
0.000443079
-0.000982965
4.67421e-05
-4.07652e-05
8.085e-05
-0.00102125
-3.40851e-05
-0.000901297
0.00102491
-0.000678052
5.01729e-05
-0.00021659
-6.03011e-05
-0.000213355
-3.14939e-05
0.000207374
-2.07741e-06
6.69738e-06
0.000255281
-0.000259901
7.97957e-05
0.000349486
4.10148e-05
-0.000345811
-1.58142e-05
4.97772e-05
-0.000278311
4.29252e-05
-6.84296e-05
-3.05915e-05
5.19807e-05
-0.000226397
-0.000964717
-0.000405115
-0.000856305
0.000539097
0.000722324
-0.00102173
-0.00105337
-9.20331e-05
5.45587e-05
0.00109085
0.000551794
3.17924e-05
0.00116192
-1.3142e-05
-0.00118058
-0.000683708
-0.000551999
0.000209159
0.00024369
-0.000413411
-3.94378e-05
0.000984603
-0.00104556
-0.000369993
0.00018733
0.00122822
0.000101865
-0.000172429
-0.000119161
0.00017053
-0.00107572
0.00101435
0.00013753
-6.53274e-05
0.000163898
-0.000224298
0.000192912
-0.00134813
-1.82514e-05
0.000324143
-0.000449375
0.000309096
0.000310461
0.00103686
-6.51192e-05
-0.00128221
-0.000143326
0.000202779
-0.00020863
0.00014338
0.000378981
-0.00026168
-1.73559e-05
-5.08089e-05
4.65819e-05
1.89066e-05
0.000864666
-4.56544e-05
-5.88552e-06
5.04166e-05
1.1233e-06
-6.80401e-05
8.2488e-05
-1.65324e-05
1.40334e-05
0.000109854
-1.13651e-05
0.00010429
0.000283521
0.000147729
-0.000351455
-0.000227514
0.000227251
3.31445e-05
-3.28808e-05
0.000300887
-0.000985155
-0.000190865
-0.000115109
-0.000237218
-3.67389e-05
8.96497e-05
-0.000137135
-0.000109424
4.50316e-05
7.89113e-05
-7.93441e-05
-0.000217704
0.000208673
-6.78404e-06
0.000236621
0.000220814
-0.000238765
-0.00021867
-0.000218067
-9.49845e-05
0.000405763
0.000924316
-0.000403132
9.64422e-05
0.000167423
-0.000207064
-5.68004e-05
0.0010811
-2.39957e-05
-9.44711e-05
5.00848e-05
6.8382e-05
0.000157128
-0.000411224
0.000334039
-7.99427e-05
0.000268196
-0.000319181
0.000100762
0.000386743
-0.000304298
-9.15409e-06
0.000201318
-0.000209334
0.000185637
0.000373709
-4.68983e-05
-0.000450997
1.23959e-05
-6.25792e-05
-1.4879e-05
0.000352196
0.000131627
3.93848e-05
-9.72271e-05
-7.3785e-05
0.00117936
-0.000893176
-0.000247945
-6.09928e-05
0.000135193
0.000128194
-0.000246949
-0.000527169
0.000645924
-0.000144687
0.000117421
2.72659e-05
0.000104951
-0.0009165
-7.26478e-05
3.11025e-05
-7.10839e-06
-2.39941e-05
-2.18179e-05
3.33621e-05
-1.15442e-05
-2.53807e-05
3.84e-05
-1.30193e-05
9.71239e-05
-6.66224e-05
-3.05015e-05
-9.7054e-05
5.86971e-06
9.11843e-05
9.82988e-05
-2.21897e-05
-7.61091e-05
-0.000278729
0.000309327
-3.05979e-05
-0.00010268
0.000132735
-3.00546e-05
7.05391e-05
2.65848e-05
-0.0001035
6.44589e-06
-0.000148869
4.18216e-06
0.000358087
-0.000335231
-2.28558e-05
0.000197855
-0.000175467
-2.23877e-05
-0.000207567
-2.7368e-05
-7.53121e-05
-0.00024834
-4.49604e-05
5.65093e-05
-1.15489e-05
-8.63795e-07
-2.09541e-05
4.92679e-05
-1.81654e-05
0.000220428
-1.92514e-05
-4.56831e-05
9.94911e-05
-5.3808e-05
6.04032e-05
-4.80711e-05
-3.1925e-05
1.95928e-05
-5.22124e-05
2.61959e-05
-0.000199275
0.000159161
-8.12094e-05
0.000112096
-0.000145987
-0.000106256
4.01502e-05
-0.00012529
0.000294299
-8.3764e-05
1.91702e-05
0.000163612
-1.76092e-05
1.71683e-05
-9.40302e-05
1.7848e-05
-0.000331166
-0.000637181
-0.000338826
0.000387708
0.00106223
0.000440862
-8.27751e-05
8.44183e-05
6.27962e-06
-9.06979e-05
-1.73545e-05
-2.62445e-05
-5.20113e-06
-7.30511e-05
-2.7912e-05
0.000180458
-8.09667e-05
-1.61342e-05
-2.59043e-05
-1.15983e-05
2.2731e-05
-2.98394e-05
-0.000182692
-0.000783311
0.000192197
0.000773806
0.00103932
-0.000267032
-7.35488e-05
-1.36588e-05
0.000134233
-0.00013614
1.55661e-05
-2.13814e-05
-3.5801e-05
0.000915595
-0.000924909
9.22629e-05
-8.29492e-05
-0.000130742
7.59923e-05
0.000185528
-0.000130778
0.000244027
-4.61723e-05
-9.36726e-05
5.69001e-05
8.68574e-05
1.27009e-06
0.000342437
8.97234e-05
-7.0119e-05
-7.08101e-05
5.12056e-05
0.00108749
-0.000302671
-1.73343e-05
-0.000181707
-2.84732e-05
0.000434355
-0.0011112
0.000987304
-4.45282e-05
5.01925e-05
-1.28685e-05
-5.69531e-05
0.000157321
-0.000370853
0.000729346
-5.87976e-05
-0.000189538
0.00018226
0.000982792
0.000341074
-0.000366142
8.2898e-05
-8.33847e-05
0.000654316
-0.000360148
-0.000294167
-3.67255e-05
7.15297e-05
2.36669e-05
-5.84711e-05
-0.000206573
0.000238087
-0.000151226
0.000306038
-4.48622e-05
-0.000373048
0.000111872
-1.76339e-05
2.9922e-05
-2.03747e-05
0.000212985
-0.000355726
-4.13425e-05
0.000184083
0.000106074
8.41446e-05
-9.12407e-06
-0.000181094
0.000356941
-0.000292526
0.000179548
-0.000243963
-7.79539e-05
0.000169109
0.00012183
-9.85729e-05
5.70575e-05
4.78997e-06
0.000115302
0.000254541
-1.29011e-05
0.000121775
-0.0001206
5.53377e-05
-5.65127e-05
-3.70261e-05
0.000141331
-6.93814e-05
0.000246382
-0.000318332
-0.000754326
9.00013e-07
-0.000185174
-0.000108253
-1.58724e-05
5.02714e-05
-0.000225669
-5.04008e-05
0.000225799
-0.000306988
5.85984e-05
0.000119768
-0.000210932
0.00015421
-6.30465e-05
3.54327e-05
-5.01753e-05
-0.000340983
0.000128971
6.80792e-05
-7.52749e-05
-0.000108716
6.43172e-05
0.000223946
1.09226e-05
-2.35729e-05
6.86045e-05
9.14707e-06
0.000170095
-1.74106e-05
9.46368e-05
6.20512e-05
-7.85266e-05
1.64754e-05
-0.000369755
6.53337e-06
0.000321483
4.17385e-05
3.26396e-05
-0.000125515
-0.000276879
-0.000103004
0.000165956
0.000203012
1.15749e-05
-0.000214586
0.000170644
-0.000267078
-0.000129235
0.000251106
-0.000130863
0.000107896
3.59466e-05
-3.77691e-05
0.000279288
9.81141e-05
-0.000344763
0.000111981
0.000186588
-0.000214425
0.000163602
-0.000214956
1.00113e-05
4.6697e-05
-0.000134002
0.000199287
-5.69869e-05
3.59679e-05
0.000128915
-3.95321e-05
4.63014e-05
2.91773e-05
0.000176298
-0.000328518
5.46746e-05
0.000458221
-0.000496951
0.000603812
-0.000565081
-4.78706e-05
-1.88849e-05
6.67555e-05
0.000241641
3.53184e-05
-9.0748e-05
0.000198107
-0.00015319
-0.000453843
0.000107991
-0.000143856
0.00013964
-0.000449627
8.57923e-05
-0.000912444
-2.14699e-05
0.000751221
0.00025937
-8.26335e-05
-0.000267485
-0.000330544
0.000492726
0.000274377
-0.000204028
-0.000357955
0.000351886
5.15485e-05
-4.54795e-05
-4.42129e-05
1.76929e-05
0.000868016
-0.0002137
8.02221e-05
0.000135307
4.38405e-05
-0.000426606
5.12e-05
-0.000770587
0.000261653
0.000217118
-0.00064663
0.000314774
-0.000157687
2.0384e-05
-0.00010432
-6.00075e-05
0.000164328
-1.86715e-05
-0.000361596
-4.66879e-05
5.03292e-05
-0.000154796
0.00102281
-0.00110785
-0.00115247
0.000279619
0.000237793
-6.58714e-08
4.79499e-05
0.000230379
-4.15931e-06
-3.09544e-05
-2.65826e-05
6.16963e-05
6.04826e-05
-5.05842e-05
-4.27689e-05
3.28705e-05
0.000149045
5.39663e-05
7.05186e-05
-1.20136e-05
-3.5857e-05
-3.26876e-05
-0.000395477
5.51164e-05
-0.000496195
0.000255404
0.000502444
-7.20211e-05
-4.0576e-05
-0.000359492
3.84721e-05
-0.000257829
-1.19057e-06
0.00025902
4.26742e-05
6.69867e-06
-1.67705e-06
-4.76958e-05
9.46326e-05
-8.90906e-05
-0.000930451
-8.48986e-05
9.72289e-05
3.03439e-05
1.11127e-05
0.000172145
0.000236534
-1.69986e-05
-0.000219536
-9.24593e-06
-0.000127372
1.6018e-05
-0.000246347
0.000112192
0.000275486
5.14099e-06
-0.000320869
0.000157431
-0.00017651
7.30457e-05
-0.000454699
-4.59498e-06
3.69916e-05
-5.02749e-05
3.58254e-05
-1.64298e-05
-5.52526e-05
3.87856e-05
-6.23585e-05
1.48062e-05
2.39794e-05
0.000124945
0.00015235
-5.33143e-05
4.58292e-05
-3.31917e-05
5.01323e-05
3.56969e-05
-2.12951e-05
-0.000107122
0.000123256
-0.000165323
-1.31172e-06
-0.000163624
-7.08394e-05
0.00012808
0.000110637
-0.00010525
5.98686e-05
-4.84038e-05
3.87277e-05
0.000318555
-3.62424e-05
-0.000322889
4.80106e-05
-0.000227534
3.40669e-05
-4.63079e-05
-1.22623e-05
2.45033e-05
-2.6317e-05
3.1547e-05
-9.8784e-05
0.00015289
-2.40387e-05
4.95107e-06
-0.00113469
-5.09143e-06
-0.000939643
-0.000337472
-4.07247e-06
0.000196469
-3.75485e-05
-5.25677e-05
-0.000123428
-0.000106732
0.000167954
-0.00015773
9.65083e-05
-3.37164e-05
0.000106907
0.000209803
7.6019e-05
-0.000212445
0.000294762
0.000365934
-0.000448251
-0.000330871
8.50089e-05
0.000358054
-4.9747e-06
0.00028209
7.07595e-05
3.4253e-05
-5.22123e-05
-1.2995e-05
-7.95698e-05
-0.000962966
-2.45365e-05
0.000994432
-3.8326e-05
-5.02641e-06
-0.000423742
3.32913e-05
0.000179161
-1.58166e-05
9.11957e-06
6.69708e-06
0.00098335
-0.00103653
-0.000118187
-0.000416708
0.000156126
8.7677e-05
-4.60247e-05
0.000141398
-0.000167949
-0.000162459
0.00018901
5.15918e-06
-7.55225e-05
-0.000320642
0.000136769
0.000253177
-0.000291831
0.000167912
0.000171336
0.00022078
-0.000192142
0.00011276
0.000223173
-0.000174246
1.44403e-05
3.69652e-05
-4.72752e-05
-4.13035e-06
5.12224e-05
-6.35211e-05
0.000333782
-0.000861985
5.37717e-05
0.000113682
3.15125e-05
-0.000118999
-0.000390168
6.4438e-05
-5.24959e-05
-2.36336e-05
7.61296e-05
4.96325e-06
-0.000190212
5.45069e-05
0.000190317
-0.000289079
8.77076e-05
-4.84913e-05
-0.000205647
5.17978e-05
-0.000376488
-5.86419e-05
0.000384955
-1.51326e-06
0.000285353
3.22848e-05
0.000234553
-0.000995366
-0.000355064
-2.65285e-05
-0.000742913
1.92545e-05
0.000171208
0.000194942
3.87913e-05
6.7601e-05
-0.000102621
-3.7714e-06
-5.8012e-05
0.000203457
-6.22136e-05
-3.01189e-05
0.00109776
2.93996e-06
5.297e-06
-0.0010577
-3.23711e-05
-0.000305957
0.000384243
-2.9641e-05
2.90815e-05
0.00011107
0.00025012
0.0012487
0.00110293
0.000147178
0.000181234
0.00110903
0.000309794
4.33639e-05
-3.26118e-05
3.61993e-05
0.000136897
-8.99559e-05
-0.000923705
0.000108462
-6.41882e-05
9.55505e-05
-7.54325e-05
-5.69307e-06
-2.81923e-05
3.7664e-06
-0.000472616
1.2891e-05
0.000109989
-8.26521e-05
-0.000124115
0.000137117
0.000300234
4.99164e-05
-0.000451933
-2.17256e-05
4.11963e-05
-8.89965e-05
-6.91116e-07
0.000795707
-0.00014532
-0.000610706
-3.96814e-05
-0.000721626
0.000671932
0.000284248
-9.81253e-05
0.000436456
-0.000296592
2.27445e-05
-4.41052e-05
-0.000134132
-7.76088e-05
-0.000216459
0.00029054
0.000145388
-0.000988242
-2.05043e-05
0.000290774
-0.00027146
7.04283e-05
-0.000129227
7.36045e-05
0.000163882
2.009e-05
9.44158e-05
-7.10455e-05
-0.000382544
-5.37057e-05
0.000394177
4.20723e-05
0.00017292
-0.000154504
-0.000245453
0.000235253
0.000258817
0.000494928
0.000286246
-0.000624045
6.78866e-05
6.26067e-05
0.000867688
-0.000113049
6.17879e-05
-0.000331282
5.42929e-05
3.5245e-05
0.00010926
-0.000339053
-0.00011119
-0.00100895
0.00104209
-0.000282957
-0.000107022
-4.19941e-05
0.000153601
-3.90678e-05
-0.000359986
-0.000505134
0.000135164
-0.000967988
-0.00020013
-5.97163e-06
-7.63385e-05
-0.000476405
0.00079699
5.16063e-05
0.00103433
-0.000998418
-0.000171518
0.000207449
0.000117671
-8.56113e-05
0.000206416
-0.000128402
-7.34445e-05
4.53432e-05
0.000156503
-0.000309593
0.000282065
-0.000191956
-0.000188235
7.99693e-05
-0.000134855
-0.000190824
0.00028862
0.000116216
-9.42128e-05
-0.000353052
-0.000246314
3.57285e-05
-0.000194876
-1.68522e-05
0.000104076
-0.000136287
-4.52824e-06
0.000177493
-0.000144186
0.000983904
-0.00123391
0.000252944
-0.000269765
-0.000194612
0.00072324
5.62355e-05
0.000946328
0.000277094
-9.92138e-05
-0.00112421
-0.000126203
0.00012854
0.000225092
0.000221602
3.89042e-05
-5.34323e-05
9.34685e-06
5.18119e-06
0.000203791
-0.000202515
0.000199368
-0.000200643
0.000215773
-0.000240317
0.00133627
9.78908e-05
5.32326e-05
3.48166e-05
0.00132641
-2.5249e-05
-7.72383e-05
-2.16524e-05
4.02965e-05
5.69372e-05
2.08944e-05
-0.00103329
8.02384e-05
0.000240187
-1.71088e-05
0.00023032
1.1881e-05
-0.000985736
-0.00117613
0.000735896
-2.21901e-05
-0.000248525
0.000359707
0.000221345
-0.000388334
-0.000192718
2.42884e-05
1.34743e-05
-2.92909e-05
1.30837e-05
-0.000135231
0.00016658
2.21259e-05
0.000337603
0.000168769
-0.000266907
-0.00015528
0.000133483
0.000205881
-0.000265106
-8.67728e-05
0.000217023
-7.34464e-05
-1.95029e-05
-2.03318e-05
-2.82955e-05
0.000232788
0.000108523
0.000163743
0.000126817
-0.000136993
-0.000452462
6.63815e-05
-9.87216e-06
-2.97649e-05
4.1301e-05
0.000868965
0.000120937
-9.39978e-05
-0.000818869
0.000193491
3.04343e-06
5.17288e-05
0.000471789
0.00039406
0.000132664
-0.000268228
0.00108493
-0.000530813
-2.70636e-05
-0.000282726
0.000212583
-7.74433e-06
3.61112e-05
-2.31068e-05
2.14818e-05
0.000385586
-8.30949e-05
-0.000123248
-2.67624e-05
-0.000727702
0.00067843
4.92714e-05
2.91251e-05
7.9037e-06
-9.54999e-05
-1.09218e-05
0.00027843
2.72908e-06
0.000899836
0.000131944
-0.000789589
6.18877e-05
5.05805e-05
0.00107687
-9.07977e-05
-0.000951576
0.00101784
-0.000131942
0.000192887
-6.2219e-05
1.27331e-06
0.000192234
9.54602e-05
-0.000156066
5.78806e-05
0.00062055
0.000198961
0.000142048
-0.000242491
-9.85173e-05
0.000226389
0.000214233
-0.000181951
-0.000258671
-0.000228525
4.43587e-05
0.000184167
-0.000254465
7.69629e-05
-8.06459e-05
-0.000102573
-0.000390551
-0.000114583
-0.000273133
4.46081e-05
-0.000315984
6.44195e-05
-0.000203969
7.60813e-06
-0.000896438
-0.000203365
3.90716e-05
-4.13532e-05
-0.000134632
-0.000269227
-0.0002156
0.000133687
-0.000137684
0.000242986
0.000192595
0.000226531
0.000402551
0.000550643
-0.000435456
0.000153029
0.000417591
-0.000487412
0.000471353
1.60591e-05
8.25751e-05
-0.000872164
9.33557e-05
-0.000115022
0.000204518
0.000215176
-0.000322856
0.000867286
-0.000358963
0.000394122
-0.000420372
0.000218729
0.000130731
0.000182666
-3.15825e-05
0.00087845
-0.000194665
0.000355532
-0.000961813
0.000658959
0.000633403
-0.00107016
-4.97977e-05
0.000613002
2.24221e-05
-2.87961e-05
-0.000638134
0.000534598
0.000512212
-0.000588656
0.000319135
0.000510225
-0.000265866
2.03803e-05
0.000231369
-2.13704e-05
-5.87297e-05
-1.621e-07
-0.000612105
0.00071754
-0.000507725
2.03125e-05
-1.03837e-05
-0.000119412
0.000296943
7.78727e-05
-3.0889e-05
4.32324e-05
2.38559e-05
0.00026055
-0.000253465
3.49876e-05
-1.15661e-05
-4.30629e-06
0.000461169
1.01835e-05
7.65378e-05
-1.54151e-05
-2.22185e-05
7.57127e-05
0.000237965
-0.000138369
-0.000144484
-0.000457363
0.000190622
-0.000195848
1.90828e-05
5.16766e-05
-0.000444442
-2.04414e-06
-6.40996e-06
-3.17887e-06
2.06411e-05
-0.000351446
0.000153682
-0.00016903
-1.88255e-05
2.40477e-05
0.00025783
2.42011e-05
-3.14034e-05
-0.000159194
-2.5992e-05
-0.000922733
0.000173427
-0.000123316
0.00011164
-0.000169452
0.00101353
-0.000961821
5.53812e-05
2.30962e-05
-0.000236934
4.52565e-05
-2.69646e-05
0.000130726
-0.00108984
3.24062e-05
0.000276935
-0.000130654
0.000119219
0.000144098
-2.03319e-05
0.000936632
0.000123769
-0.000183903
4.61117e-05
-9.61653e-06
7.5998e-05
0.000143686
2.24499e-05
-0.000913301
0.000639834
9.64086e-05
-4.58178e-05
-0.000384712
3.6751e-05
0.000221606
-0.000218476
5.31185e-05
0.00111922
6.95217e-05
-0.00108376
-5.07435e-05
2.58542e-06
1.47969e-06
4.62833e-05
8.09945e-05
-0.000105555
0.000162088
0.000506747
-0.000731227
0.000224479
0.000439721
6.70261e-05
0.00045131
-1.15891e-05
-0.000310575
0.000467896
-0.000681428
-0.000604569
-0.000505759
-9.881e-05
1.76543e-05
-3.56096e-05
-5.55601e-05
6.44314e-05
-0.000938685
-0.000121169
0.000260215
0.000173783
0.000229676
8.2088e-06
-6.01614e-05
-3.86199e-05
-1.88162e-05
-2.16166e-05
1.94786e-05
-1.97294e-05
-0.000130215
0.00013259
-6.06214e-05
1.92819e-06
1.6853e-05
5.99939e-06
0.000428081
0.000812648
-0.000221378
0.000300666
-5.66389e-05
0.000426459
-0.000226669
7.71449e-05
-0.000220439
-0.0010077
0.000135658
-2.44512e-05
0.000210735
-0.000477841
-2.7918e-05
0.000685647
-0.000178336
-0.000873453
0.000119077
8.99671e-06
0.000371995
-0.00014769
5.82693e-05
0.00014773
-7.29505e-05
2.92965e-05
9.88396e-05
-0.00115484
0.00104285
-5.12821e-05
9.32181e-05
-5.55743e-05
0.000316917
-0.000354561
-0.000260701
0.000239633
-2.85536e-06
4.12554e-05
-0.000130909
3.93807e-05
7.91398e-05
-0.00119388
2.20418e-06
0.000683659
-0.000384483
0.000271514
-3.14734e-05
0.000302582
0.000157317
-6.25338e-05
-0.000153679
-0.000133253
6.84567e-05
-0.000113477
9.34269e-05
-0.000120299
-6.20292e-05
8.86795e-05
-3.34843e-06
-0.000619928
-0.000350557
-0.00027197
-0.000384948
-0.000253524
-6.78483e-05
0.000110441
-4.20297e-06
-4.82438e-05
3.36306e-05
0.00101251
5.38705e-05
-0.000127808
0.000409121
-0.000347845
-0.000281102
-1.80524e-05
0.00026766
-0.000804295
0.0011244
-0.00012798
0.000258908
1.76704e-05
0.000196987
5.90453e-05
1.97299e-05
-2.97205e-06
0.00104069
9.54273e-05
7.57604e-05
-0.000140077
-0.000163143
0.000552637
-0.000560465
-0.000806908
0.000148682
-0.000881463
4.10298e-05
0.00024039
-6.45014e-05
-4.27073e-07
-6.51607e-05
0.0010899
7.06186e-05
-0.000208282
0.000171759
-0.000486081
-4.46451e-05
-0.000388553
0.000248885
0.000468017
0.000333073
-0.000283221
4.05728e-05
0.000346022
1.93363e-05
-1.10086e-05
-5.10392e-05
0.000184901
-1.14731e-05
-0.000207848
0.000191768
-0.000966741
0.00103461
-0.000249164
0.000181294
0.000177067
-1.08553e-05
-3.39462e-05
1.17015e-05
-0.0002721
-0.000248663
0.000290012
-0.000266084
0.000342353
0.000120735
-4.4033e-05
4.09894e-05
-8.75486e-05
-2.96071e-05
-4.97161e-05
-0.00116152
0.000143048
0.000452006
3.89406e-06
-6.68974e-06
-0.00011816
-0.00107307
0.000971778
1.95118e-05
-1.97812e-05
0.000994702
0.000361778
0.000560713
-0.000483754
-7.69597e-05
-5.1194e-05
0.000206313
0.000157103
1.90959e-05
-0.000202487
0.000203481
-0.000909543
0.000921187
-0.000277785
4.36884e-05
-0.00017605
0.000116713
5.93366e-05
0.000229561
-0.000263886
5.35115e-05
5.7825e-05
5.8888e-05
-0.000277591
-0.000270323
0.000320239
-0.0010683
-0.000249098
7.61697e-05
-1.46739e-05
-2.19524e-05
-0.000371452
0.000377829
0.000165415
-2.84213e-05
-0.000136994
-1.74818e-05
-8.45097e-05
-0.000199963
1.47284e-05
-0.000127647
6.77622e-05
0.000249505
-0.000225589
0.000171086
0.000240611
9.1775e-06
-0.000238645
-1.04538e-05
0.00034818
0.000198542
4.90587e-05
-8.89019e-05
0.000288172
0.000139535
7.1145e-05
-0.000361866
0.00021767
3.28004e-05
-2.94741e-05
-5.89408e-05
6.02226e-05
0.00018475
-1.93343e-05
-0.000235958
-2.68634e-06
4.21705e-05
0.000123084
0.000249433
-0.000228867
1.33951e-05
-0.000158122
-0.000145386
5.90566e-05
0.000106891
0.000447251
0.000144713
-0.000263753
-4.72102e-05
-0.000258259
0.000211113
-2.63637e-05
-0.000108771
7.66876e-05
0.00105641
-1.01644e-05
-0.00101727
-6.6198e-05
5.30696e-05
0.000303903
-0.000188467
-0.000292215
-0.000222768
-3.70914e-05
6.45516e-05
-1.73528e-05
0.000469052
-1.9518e-05
9.52783e-05
-0.000186978
0.000229148
-6.82374e-05
0.00031767
0.00141089
-0.00114037
0.000352285
-0.000925095
-7.43548e-05
0.000243201
3.07013e-05
0.000239066
-8.30312e-05
0.000556381
-0.000727488
-0.000122639
9.16311e-05
-1.92201e-05
0.000193429
-0.000164487
0.000192822
-8.10911e-05
-0.000888622
7.55209e-05
0.000160531
-0.000366436
0.000399438
-0.000130385
0.000589412
0.000924543
-0.000265257
0.000144431
-0.000252842
0.00033784
-0.000175249
0.000159785
0.000683629
5.19199e-06
5.39541e-05
0.000195826
-1.09257e-05
-5.23654e-05
0.00013728
-6.80981e-05
-4.46654e-05
0.000374873
4.07443e-05
-4.58795e-05
-0.000101887
7.93999e-05
-4.13235e-05
5.59061e-05
1.64147e-06
-9.373e-06
-0.000352661
7.88465e-05
0.000101716
2.57401e-05
0.000912194
-0.000921876
0.000191895
0.000106423
1.42805e-06