/*--------------------------------*- C++ -*----------------------------------*\
| =========                 |                                                 |
| \\      /  F ield         | OpenFOAM: The Open Source CFD Toolbox           |
|  \\    /   O peration     | Version:  v1912                                 |
|   \\  /    A nd           | Website:  www.openfoam.com                      |
|    \\/     M anipulation  |                                                 |
\*---------------------------------------------------------------------------*/
FoamFile
{
    version     2.0;
    format      ascii;
    class       surfaceScalarField;
    location    "0.05";
    object      phi;
}
// * * * * * * * * * * * * * * * * * * * * * * * * * * * * * * * * * * * * * //

dimensions      [0 3 -1 0 0 0 0];
oriented        oriented;


internalField   nonuniform List<scalar> 
2776
(
1.73964e-05
0.000186547
-4.42867e-06
-0.000199515
-4.3021e-05
9.89387e-06
-0.000232599
0.000265726
-5.00373e-05
2.76885e-05
-2.55021e-05
4.78509e-05
-1.71328e-05
1.07163e-05
0.000168718
-0.000162301
0.000154574
0.000141259
-0.000121794
-0.000174039
0.000114072
9.49749e-05
-0.000140785
-6.8262e-05
-2.0102e-05
-1.0605e-05
2.36088e-05
7.09828e-06
4.92396e-05
-0.00014613
0.000176917
0.000230822
-0.000261939
-0.0001458
0.00017454
-0.000202565
0.000167287
-0.000139261
3.47603e-05
4.6986e-05
-8.17464e-05
0.000347067
-0.000338391
-9.69827e-07
-7.70599e-06
-4.70012e-06
4.70012e-06
9.65361e-05
-1.97064e-05
-6.29032e-05
-1.39265e-05
-2.04925e-06
-6.51851e-05
5.35999e-05
1.36344e-05
9.43699e-06
9.4724e-05
-6.68039e-06
-9.74806e-05
-4.06927e-05
1.27229e-05
2.79699e-05
0.000144415
7.58347e-05
-1.17187e-05
-0.000208531
-5.92881e-06
3.30532e-05
0.000102903
-0.000130027
3.41415e-05
-5.00175e-05
0.000117347
-0.000101471
5.88919e-05
-5.77681e-05
1.07114e-06
-2.19499e-06
-0.00015307
-0.000140442
0.000254547
3.89658e-05
0.000255396
-0.00023314
-2.22559e-05
1.92193e-05
0.000235284
-0.000213824
-4.06788e-05
6.96364e-05
5.60987e-05
-2.91989e-05
4.65172e-05
1.22038e-05
-3.94551e-05
-1.92659e-05
5.8555e-05
1.43343e-05
-3.53623e-05
-3.7527e-05
-2.11921e-06
1.14054e-05
-0.000209053
0.000199767
-4.25564e-05
-1.71286e-05
0.000140991
-8.71449e-05
-5.38464e-05
2.02504e-05
-6.40301e-05
-0.000183611
3.0045e-05
-5.62259e-05
-0.000140854
0.000167035
0.000113663
-9.00963e-05
-0.000248265
1.61998e-05
9.01255e-06
1.405e-05
-3.92623e-05
-0.000226437
-4.68332e-05
0.000168805
0.000104465
5.52038e-05
-5.75083e-05
2.55238e-07
1.38182e-05
-5.48273e-05
5.37758e-05
-1.27667e-05
1.58173e-05
4.4107e-05
-4.01131e-05
-1.98112e-05
1.97057e-05
0.000137919
-0.0002044
4.67748e-05
1.13261e-05
-0.000156233
9.04349e-05
0.000310164
-5.35326e-05
-0.000145153
0.000195256
9.47731e-06
-5.95801e-05
-0.000247845
0.000163199
0.000261563
0.000123234
-0.000113355
7.9598e-05
-8.9477e-05
0.000301749
-0.000274639
-5.75062e-05
3.03967e-05
-0.000176269
8.22008e-05
0.000361437
-0.000267369
2.5819e-05
4.91958e-05
-1.81202e-05
-5.68946e-05
7.90241e-05
-0.00013027
0.000195661
-0.000113283
-4.36405e-06
-2.75066e-05
1.14137e-06
5.95292e-05
-1.7786e-06
1.60933e-05
-1.0665e-05
-4.70363e-05
4.1608e-05
-2.23728e-05
-1.56939e-06
1.1182e-06
-0.000245178
-0.000145133
0.000172054
-0.000101362
7.44414e-05
-4.25667e-05
6.02306e-07
4.14139e-05
5.50544e-07
-0.000247987
8.2766e-05
0.000157284
7.93695e-06
-2.25492e-05
0.000123143
-0.000111878
1.12846e-05
-9.49595e-05
-0.000127125
7.69512e-05
-3.62695e-06
2.43486e-06
9.71362e-05
-9.59441e-05
0.000157191
0.000128618
-0.000355588
0.000191894
3.50758e-05
4.65695e-05
-0.000130996
7.00663e-05
1.43598e-05
0.000220242
-0.000125857
7.76686e-05
-5.74416e-05
1.34251e-06
-1.66901e-06
-3.27906e-05
-0.000197408
0.000230782
-5.83323e-07
-0.000134414
0.000220016
-0.000238672
-9.84913e-06
1.30004e-05
-4.36247e-05
4.04734e-05
-0.000179741
0.000224713
-8.37894e-05
3.88173e-05
4.33105e-06
4.58191e-05
-3.43329e-05
-0.000192918
0.000121372
0.000160431
-8.8885e-05
4.92637e-05
-4.49326e-05
0.000211889
-0.000332865
-0.000226965
-0.00022031
-6.13835e-05
8.87763e-05
0.000138227
-0.000253621
0.000194419
3.90785e-06
-0.000127658
8.1194e-05
-0.000109647
-0.000114544
0.000129231
-1.14867e-06
1.62927e-06
-4.88372e-05
4.83566e-05
9.82802e-05
0.000142373
-0.000124866
-0.000115787
4.80809e-05
-8.81211e-07
-4.93312e-05
2.13155e-06
-2.86797e-05
-7.17875e-05
-1.28154e-05
7.01262e-05
-5.61894e-05
-2.80067e-05
1.40698e-05
4.50945e-06
5.44095e-05
-5.90263e-05
1.0736e-07
6.52728e-06
4.83139e-05
1.52851e-05
0.000368026
7.35863e-05
-8.18448e-05
-0.000359768
0.000132957
2.76205e-05
-3.01476e-05
-0.00013043
-0.000243842
0.000222884
6.21098e-05
-4.1152e-05
0.000147796
-4.76365e-05
8.16336e-05
-0.000181793
-1.98083e-07
-5.75392e-05
5.77373e-05
-0.000100475
0.000105604
0.000120651
-0.000125779
-4.6194e-05
-0.00013605
0.000196775
-1.45307e-05
1.6044e-05
-3.56663e-05
3.57156e-05
-5.87115e-05
5.96548e-05
-5.59497e-05
-0.00029502
5.5098e-05
0.000295872
1.10014e-05
-2.02714e-05
-0.000137153
0.000146423
-3.22725e-05
0.000300985
3.52483e-05
-0.000303961
3.77387e-05
-2.20955e-05
0.000132152
-1.61941e-05
0.000235386
-0.000241761
4.25615e-06
2.20053e-05
-1.77171e-05
-5.74295e-05
5.31413e-05
0.000205319
-0.000261269
8.29068e-06
-4.61761e-05
4.20978e-05
-4.21239e-06
-0.000264506
-0.000159607
1.27938e-06
-2.04735e-06
-5.66736e-05
1.33654e-06
4.74346e-05
-6.90202e-07
-0.000291415
-1.8865e-05
0.000278007
5.3396e-05
-2.81018e-05
2.00665e-05
-4.53606e-05
-1.36208e-05
6.86897e-06
-9.67603e-05
0.000103512
2.68351e-05
-4.01446e-05
-3.54613e-05
4.87708e-05
1.64168e-05
-2.14505e-05
-2.17268e-05
2.67606e-05
1.98219e-05
5.0104e-05
-1.02371e-05
5.53693e-06
-0.000193125
-0.000188909
0.000104373
0.00027766
9.99536e-05
8.14703e-05
-8.3144e-05
-9.828e-05
0.000139628
-0.000106181
6.65059e-05
8.20438e-05
-0.000274583
-5.13028e-05
-0.000128588
0.000127094
0.000182647
-0.000181153
5.77908e-05
6.16598e-07
-5.70649e-05
2.9031e-06
-0.00012843
0.0001652
-3.96735e-05
6.66106e-05
1.48597e-05
0.000206859
-8.73588e-05
0.000248526
7.98826e-05
-4.50081e-05
9.80827e-05
-5.2077e-05
-2.97967e-05
-0.000112989
0.000194862
2.06431e-05
-2.15633e-05
1.40641e-05
-1.3144e-05
-0.000182808
0.000224012
-2.54628e-06
-3.86579e-05
-9.1899e-05
0.000132667
-0.000141243
0.000202722
0.00014431
-0.000190023
-0.000157008
-8.34966e-05
-7.98011e-05
7.60368e-05
8.72609e-05
4.03488e-05
-1.21661e-05
-0.000248493
3.43603e-06
3.19865e-05
-0.000170733
0.000135311
-0.000185737
8.01484e-05
0.000325831
-5.05625e-06
3.51057e-05
5.80443e-06
-3.58539e-05
-0.000116887
-0.000106716
0.000113957
0.000170158
1.69853e-05
8.11261e-06
5.05151e-06
-7.04873e-05
7.86068e-05
-1.3171e-05
-0.000372116
0.000303113
8.26846e-05
-1.3682e-05
0.000195636
7.54522e-06
-0.000162833
-0.000155074
-4.7491e-05
-1.50424e-07
-5.73888e-05
0.000172816
-0.000136205
-0.000139892
0.000103282
-0.000170204
-8.01649e-05
0.000135054
0.000115314
-0.000140364
6.99964e-05
-5.91881e-05
-6.91326e-06
6.61014e-05
-0.000151196
1.60561e-05
0.00013514
0.00023617
-7.4706e-05
-0.000238464
7.69995e-05
-0.000184092
0.000164788
-0.000166432
9.4516e-06
0.000151828
-7.09115e-05
-2.0236e-05
1.22875e-05
2.85916e-05
-2.61997e-05
0.000210908
3.81762e-05
2.23828e-06
-0.000240795
0.000172339
6.62178e-05
7.09611e-05
9.30552e-05
-0.000126278
1.02885e-05
3.76739e-07
9.32405e-06
-1.99893e-05
0.000200988
-0.000108955
0.000137823
-0.000190705
-2.13974e-06
5.50222e-05
9.36516e-05
-0.000101931
2.25972e-05
-1.43183e-05
0.000218738
9.94762e-05
1.76451e-05
0.000239805
-2.2064e-05
0.000150669
-3.25575e-06
-1.47097e-05
-0.000132704
0.000392593
-1.17184e-05
-4.97804e-05
-0.00026407
-1.16929e-05
3.40018e-05
0.000106474
-0.000117757
0.000311854
-0.000245062
3.01416e-05
-9.69337e-05
-1.97639e-05
-8.90994e-05
0.000108863
-0.000117706
7.52271e-05
7.2258e-06
3.52527e-05
-8.2174e-05
4.32585e-05
9.74705e-05
7.32892e-06
-6.10246e-05
5.82052e-05
1.81308e-06
1.08559e-05
4.17405e-05
2.17688e-05
-3.02803e-05
-1.30518e-05
-0.000167707
9.97086e-05
-0.000116094
-3.1079e-05
9.19304e-05
0.00037444
-0.000245441
-0.00017202
-5.80624e-05
-0.000202294
-3.7139e-06
-0.000110723
9.77788e-05
-0.000101599
1.9332e-07
-1.30464e-05
-5.2332e-05
-9.67891e-05
-0.000210577
5.07708e-05
-5.04562e-05
7.97609e-06
-5.79979e-05
9.90013e-05
-0.0001245
3.19377e-05
9.45144e-05
9.31716e-05
0.000242306
3.24094e-05
8.75126e-05
5.05061e-05
-5.08452e-05
1.67563e-06
9.79128e-05
-0.000246785
-0.000103206
0.000252078
5.23394e-05
2.69878e-06
1.65578e-07
2.25107e-05
0.000205047
1.24905e-05
-0.000217537
-0.000104542
7.58975e-05
2.86449e-05
4.72941e-05
0.000110591
-2.08112e-05
5.29037e-05
1.86783e-05
-7.59763e-05
9.72228e-05
4.75163e-05
-2.28706e-05
0.000278467
-1.13341e-05
8.74834e-06
-4.81816e-05
5.07673e-05
-1.39321e-05
5.59939e-05
-3.85036e-05
-5.23981e-05
6.27999e-05
-2.21135e-06
1.29275e-07
1.14296e-05
4.52802e-05
-3.24207e-05
-4.03674e-05
2.75078e-05
3.64748e-06
-2.38899e-06
1.41859e-05
-8.87613e-05
-4.31303e-05
3.12511e-05
-2.97183e-05
-0.000128179
0.000154598
-3.07836e-05
3.69732e-06
0.000273132
9.12463e-05
-0.000282177
-5.71127e-05
-2.02289e-07
-1.40553e-05
3.90187e-05
-2.74119e-05
2.44848e-06
-4.99523e-05
4.46454e-05
-9.52201e-05
2.50825e-05
6.79263e-05
-1.66326e-05
-1.16868e-05
7.35996e-05
4.76155e-05
-3.11682e-05
-3.30206e-05
1.65733e-05
-4.83041e-05
6.13068e-07
8.81574e-05
-2.33299e-05
-0.000102532
3.77045e-05
3.07551e-05
-1.73415e-05
-1.34136e-05
8.75268e-05
-5.97956e-05
-0.000110875
-0.000195414
3.68667e-06
0.000130344
-0.000193423
-5.55766e-05
0.00024637
2.63008e-06
-0.000219789
1.20929e-05
0.000225092
-8.10304e-05
0.000124609
3.11158e-05
2.55014e-05
-7.42143e-06
7.55838e-05
-0.000151769
-9.15222e-05
3.09561e-05
4.40423e-05
-4.38827e-05
7.49485e-05
-4.38157e-05
6.49547e-05
4.77865e-05
-9.79099e-05
-1.48312e-05
3.00604e-06
5.55341e-05
-3.78176e-06
-5.47584e-05
-0.000230565
-0.000160347
0.000179008
0.000211903
-4.93169e-05
6.46247e-05
-1.02563e-05
0.000265616
-0.000304244
7.69142e-05
-3.82864e-05
9.9864e-05
-0.000112127
1.76252e-05
-5.3621e-06
-9.58471e-05
8.50303e-05
4.82458e-05
-3.7429e-05
6.96742e-06
4.10704e-05
-2.6815e-05
1.69957e-05
-7.06967e-05
7.84802e-05
-0.000103631
-3.98016e-05
-6.80882e-05
-8.24096e-05
3.87532e-05
-3.50527e-05
0.000151247
-0.00015099
-5.77221e-05
-6.8364e-05
5.84092e-05
-6.71906e-07
0.000126278
-1.41825e-05
-0.000179689
-5.61953e-06
5.46582e-05
-5.16522e-05
6.0591e-05
-5.32404e-05
-7.35061e-06
-5.67722e-05
4.45733e-05
5.61186e-05
-1.46045e-06
2.85507e-05
0.000140691
0.000261146
-2.17341e-05
-0.000234449
-4.96253e-06
-0.000104686
-5.21719e-05
0.000287995
-0.000104223
0.000106944
-3.72276e-05
1.08866e-05
-4.08324e-05
0.000291092
-1.42041e-05
6.30719e-05
5.14664e-05
0.000246698
1.36894e-05
-0.000246429
0.000142137
0.000317541
-0.000213249
3.37505e-05
-3.54519e-05
-4.75988e-05
4.73867e-05
-0.000308984
0.000327918
-8.04735e-06
8.84763e-05
0.000192371
-8.81728e-05
-5.26118e-05
4.63842e-05
2.71112e-05
-5.9861e-05
-0.000438801
-8.76439e-05
7.17452e-06
-1.5059e-05
2.76274e-05
-2.0655e-05
-3.93931e-05
-0.000124258
-0.000166817
0.000239897
5.11776e-05
3.2715e-05
-0.000190528
-5.27645e-05
1.3189e-05
-1.62131e-05
6.76489e-05
-1.0528e-05
7.12723e-05
9.27966e-05
-0.000125628
1.02821e-05
4.94393e-05
2.7479e-06
2.07967e-05
-1.56136e-05
1.29554e-05
-7.07886e-06
-6.53526e-07
6.94027e-06
1.97203e-05
-1.25964e-05
-4.02859e-05
4.03432e-05
8.96747e-06
-9.0248e-06
-6.5208e-05
-1.99709e-05
6.96065e-05
1.55723e-05
6.63666e-06
-5.9575e-05
-0.000107469
0.000160407
6.57381e-05
-0.000230242
0.000220711
-0.000145384
0.000154915
8.08491e-05
0.000203564
4.20767e-05
-3.10549e-05
-0.000171204
-0.000315363
4.77658e-05
0.000171042
1.8583e-05
3.60225e-05
-0.000225648
-0.000181519
-0.000290607
7.69918e-05
0.000118688
-9.66781e-05
0.000106065
-2.34845e-06
-6.63409e-05
-3.73761e-05
5.37254e-05
-0.000253239
0.000297426
-0.000169108
0.000199208
0.00019372
-0.00022382
-8.79118e-06
9.8224e-05
3.69455e-05
6.20745e-05
-4.65933e-05
4.86832e-06
6.84823e-06
3.48767e-05
0.000111985
3.70308e-05
-4.4692e-06
1.29696e-05
-4.55312e-05
0.000156892
2.07868e-05
-4.4018e-05
-3.52598e-06
3.44976e-05
-1.15079e-05
-4.89109e-05
5.19524e-05
8.46643e-06
4.55813e-05
-0.000116698
0.000105023
-3.39064e-05
8.22202e-05
7.22969e-05
1.86303e-05
-1.169e-05
0.00020279
0.00028535
-0.000131874
-0.000228829
0.000200357
2.97206e-05
1.03384e-05
-2.40151e-05
-2.50198e-05
-1.7696e-05
-0.000224563
0.000106306
0.000283044
5.95663e-05
3.60157e-05
-4.51766e-05
3.67883e-05
-1.31561e-07
-1.68253e-05
2.41314e-05
3.1617e-05
-5.04921e-05
0.000216549
0.000120049
-0.000289081
5.85349e-06
2.61543e-05
-5.47621e-05
3.45797e-06
0.00011781
-0.000122696
0.000118842
-1.41682e-05
-7.60074e-05
-3.43245e-05
4.88678e-05
-4.48932e-05
-3.97461e-06
8.31356e-05
-0.00010281
1.96745e-05
4.12021e-05
-3.34489e-05
-7.75323e-06
3.4931e-05
-3.098e-05
-3.95092e-06
-4.53037e-05
4.10438e-05
4.25985e-06
-4.37398e-05
-1.28381e-05
5.6578e-05
4.80918e-05
8.61576e-06
-5.67076e-05
4.56034e-05
-5.09647e-05
5.36136e-06
5.04421e-05
-4.76619e-05
-2.78019e-06
3.94493e-05
-4.51831e-06
-6.59985e-05
4.71252e-05
1.88732e-05
6.35848e-05
1.95508e-05
4.84406e-05
4.27253e-07
6.39074e-05
-5.46412e-05
-9.26622e-06
9.2208e-05
4.36005e-05
-3.43371e-05
-9.26342e-06
4.69432e-05
5.32777e-05
-7.67438e-06
6.89269e-05
-1.84848e-05
1.97865e-05
6.56174e-06
-2.63482e-05
2.7244e-05
-5.37256e-06
-2.18714e-05
5.53708e-05
-1.41687e-05
-4.88494e-05
-4.391e-06
-3.86584e-05
3.24181e-05
6.24029e-06
-5.74994e-05
5.27682e-05
4.73122e-06
-3.1095e-06
-6.03101e-05
1.68264e-05
-0.000188367
-0.000220796
0.000178921
0.000136218
-6.97024e-05
7.14986e-05
-4.80044e-05
0.000158905
-5.34704e-05
-0.000111741
-2.1223e-05
6.79875e-05
6.49769e-05
5.55091e-05
5.18368e-05
3.63805e-05
-5.62218e-05
0.000271582
0.000297175
-4.60015e-05
-7.99143e-05
0.000182974
0.000114849
-7.71111e-05
0.000145679
-0.000118809
0.000102586
-4.979e-05
-1.62085e-05
-5.07217e-05
0.000233643
-0.000182921
1.00671e-05
-3.73606e-06
-4.29058e-06
1.14275e-05
1.46193e-05
-1.90622e-06
6.43138e-05
-1.15455e-05
3.80057e-05
-5.58762e-06
7.78622e-07
4.27251e-05
4.40011e-06
1.26201e-05
-1.36624e-05
5.72158e-05
0.000370022
-2.25039e-05
1.93944e-05
2.65878e-05
-0.000198947
7.40929e-05
-1.57577e-05
0.000189803
-0.0001182
-5.58452e-05
3.26424e-05
-8.29439e-06
-0.000174085
-0.000134887
4.08706e-05
3.56979e-05
-1.08304e-05
-3.53127e-05
-1.03621e-05
-5.81301e-05
5.40053e-05
-7.82848e-05
4.49959e-05
-7.48203e-05
-0.000155195
0.00018502
-0.00015778
0.00015876
4.40155e-05
-0.00021532
4.31735e-05
4.57302e-06
0.000167574
-7.76579e-05
-0.000131335
5.72244e-05
7.16038e-05
-0.000247491
0.000320342
-0.000144454
2.44838e-05
-4.25298e-06
3.13422e-06
-0.000100095
-0.000110361
0.000132798
1.18328e-06
-5.9026e-05
-5.12979e-06
2.64164e-05
9.34038e-05
-2.94964e-05
7.90925e-05
-3.54919e-05
4.2304e-05
-4.66526e-05
5.8068e-08
3.90161e-05
-0.000108797
-6.15541e-05
-1.14072e-05
6.66927e-05
0.000389282
-0.000120232
-0.000450569
4.50783e-06
-2.99991e-05
-1.47946e-05
-0.00020322
-0.000108427
0.000141443
-0.00021847
-0.000224167
0.000196207
4.62304e-05
1.12363e-06
-4.81528e-05
7.98743e-07
4.03587e-05
1.51813e-05
-3.92094e-05
-1.63306e-05
1.36647e-05
-8.6342e-06
5.9023e-05
0.000153051
-0.000173058
-1.76355e-05
0.000307736
-2.30747e-05
-0.000260755
0.00024722
3.66098e-05
-7.55015e-05
9.35909e-05
0.000125117
-0.000143206
-8.72148e-05
-0.000199601
8.3595e-05
0.000180616
-0.000176992
-0.000176019
0.000172395
7.09215e-05
-4.28392e-05
-0.000185862
0.000135825
-0.000140405
-0.000132153
0.000170887
0.000141882
2.98155e-05
-0.000104636
-0.000173976
0.000232924
-0.00019939
-0.000220778
0.000185811
-0.000248527
0.000283494
-0.000218905
-0.000175849
0.000172383
-0.000115025
-0.000276263
-0.000282588
-0.000117611
0.000310103
0.000136147
-0.000287178
0.000211034
-0.000310244
0.000116994
-9.39276e-05
-2.38026e-05
1.94393e-06
-4.41769e-05
1.84485e-05
-0.000172188
0.000166802
-8.18285e-05
-1.07828e-05
-1.12844e-06
0.000260128
-0.000248217
0.000297479
-0.000243753
0.000271601
5.0357e-05
-0.000332741
0.000321017
-7.7956e-05
-0.000266136
-0.000184388
6.72186e-05
-3.48876e-05
0.000229645
-0.000261976
0.000302012
0.000209405
-0.000313666
-0.000197751
8.28952e-05
9.12022e-05
-0.000174097
-8.52439e-05
-0.000112791
0.000235488
-8.22584e-05
-0.000154358
-6.53116e-05
-0.00023411
6.58043e-05
0.000233617
0.000244165
0.000125066
0.000210404
-0.000136301
0.000246915
-4.19336e-05
0.000306946
-0.000230686
-3.43268e-05
-0.000270248
0.000172686
5.56286e-05
-0.000157992
0.000266455
-0.000170878
6.24156e-05
-8.7199e-05
0.000199046
-0.000288839
-0.00032088
0.000168207
-5.31944e-06
0.000227218
-0.00022362
0.000206806
-0.000188399
-4.80965e-05
0.000171184
0.000157737
-0.000131305
-0.000163777
0.000137344
0.000255503
-7.02716e-05
-0.000263187
0.000187945
-8.90747e-05
-0.000133758
6.27595e-05
-0.000217684
-0.000115323
-0.00019513
0.000206249
0.000216099
8.04276e-05
4.44334e-05
-0.000124861
0.000204214
-5.7096e-05
-0.000234317
-0.000106606
0.000225807
4.79482e-05
-5.22696e-05
-0.000167867
-0.000128376
0.00014685
0.000139263
-0.000105284
0.000172178
5.8457e-05
0.000259926
-3.86392e-06
-6.15841e-06
1.00223e-05
2.33843e-05
2.86607e-05
0.000219556
-4.28992e-05
7.68978e-06
-2.60901e-05
-4.72287e-06
1.73015e-05
-6.79229e-06
-1.05093e-05
0.000341969
-7.99738e-05
7.55092e-05
-2.96576e-05
-0.000149787
-0.000149001
-9.94177e-05
-3.66309e-06
1.36385e-05
6.35183e-05
-0.000250858
0.000181411
9.86324e-05
-0.000209187
0.000130261
-9.75852e-06
-4.16451e-05
3.25377e-06
-0.000150429
9.92744e-05
-4.36502e-05
-2.7994e-05
-0.000275746
0.000149082
0.000190182
-2.41429e-05
2.1501e-05
-4.49743e-05
4.75546e-05
4.24154e-05
-4.47019e-05
-3.33533e-06
5.62187e-06
-6.22792e-05
-0.000120487
-1.41536e-05
-4.86311e-06
-0.0001594
-0.000111483
-3.57333e-05
-4.94871e-05
5.63645e-06
4.08866e-05
3.46601e-06
-1.93728e-06
0.00014673
-8.77075e-05
-0.000174041
-8.168e-05
1.15353e-05
-4.33786e-05
-0.000268014
0.000241121
-3.34931e-05
2.96292e-05
5.77091e-05
2.75135e-05
-4.6118e-05
-2.06049e-05
2.76595e-06
-4.92522e-05
-1.66654e-06
-3.61905e-05
-1.03305e-07
3.77151e-05
3.27478e-06
3.33154e-05
2.89814e-05
-0.000171094
-0.000308413
-0.000237374
0.000233774
6.94044e-05
-2.17915e-05
-0.000230903
-3.2374e-05
0.000285068
8.23007e-05
0.000177118
0.000220332
-9.05044e-05
-0.000224258
-0.000109182
0.000208546
0.000177977
-4.14441e-05
0.000218122
3.50814e-05
0.000149741
0.000224964
0.000108648
-3.98793e-05
-5.08417e-05
4.12051e-06
-0.000127907
0.00016749
0.000171364
-0.000119065
0.000158179
-3.00216e-05
-0.000269683
3.89497e-05
-0.000243098
0.000215335
5.73924e-05
0.000236112
6.13666e-05
5.0161e-06
0.000231096
4.87373e-05
0.000108422
2.78603e-05
7.45365e-05
1.57535e-05
4.92099e-05
-3.7207e-05
3.82024e-06
3.32835e-05
4.34981e-05
-4.45419e-05
-1.37508e-05
-0.000109384
-0.000109519
7.04364e-05
-0.000235349
-0.000240195
0.000227254
-0.000274173
0.000246548
-0.000264843
0.000270226
-1.12635e-06
0.000291128
0.000125378
2.04173e-06
-1.5389e-06
3.7637e-05
7.43469e-05
-7.15099e-05
4.80276e-05
-0.000239705
-1.71607e-05
-0.000150765
-0.000265177
7.19152e-05
1.34222e-05
0.000129527
-1.1533e-05
4.54877e-05
-0.000269703
-4.24907e-05
0.000266706
-0.00024813
4.28927e-05
-5.91493e-05
-2.98615e-05
4.52222e-06
-5.1662e-05
-2.11239e-06
-9.77779e-07
4.32238e-05
-4.4635e-05
0.000106198
-0.000245997
-0.000102511
-0.000151179
0.000141868
0.000111822
-0.000108065
-0.000119076
-0.00019889
0.000135374
-0.000154168
-3.16921e-05
1.68107e-05
-5.91132e-05
3.23851e-05
7.4478e-05
-0.00022613
-0.000227392
-0.000120601
3.10064e-06
3.98758e-05
-4.28235e-05
-1.52988e-07
2.47822e-05
-0.000103195
8.52607e-05
-0.000103907
-0.000129938
-0.000263943
6.64898e-05
0.000242941
-0.000146096
-0.000112171
8.2825e-05
-7.25473e-05
-3.34995e-07
3.34224e-05
-2.24512e-05
-4.06895e-05
3.4307e-05
-0.000202586
4.2762e-05
-0.000240861
1.98459e-06
-2.23702e-06
4.32517e-05
-4.29993e-05
0.000131259
9.02954e-05
-3.85813e-05
8.75924e-06
-0.000205355
-0.000264692
-3.46931e-05
2.47462e-05
5.37095e-05
0.00013282
-0.00010953
-0.000213083
0.000165135
1.55739e-05
3.63376e-05
-0.00039706
0.000360722
3.33585e-05
-5.49253e-06
-0.000123658
2.97196e-05
-0.00021766
1.33363e-05
4.37985e-05
-0.000112616
9.76546e-05
-2.88376e-05
2.55732e-06
-2.19695e-06
3.86583e-05
-0.000246942
0.000189219
0.000141318
-0.000138599
-4.4104e-05
0.000253007
0.000249162
0.000140864
0.000278924
-5.83505e-05
-7.9955e-06
-5.33996e-05
4.93873e-05
1.20079e-05
-0.000144803
0.000109374
-0.000212062
-0.000240155
8.14119e-05
-5.23252e-05
0.000211068
9.54435e-05
-7.93874e-05
2.97805e-05
-3.66937e-05
-0.000352493
3.10825e-05
-5.91145e-05
-4.85274e-05
-5.4315e-05
-0.00014661
8.4811e-05
-6.74703e-05
0.000134487
8.16774e-06
-0.000128553
-0.000119566
0.000268134
-0.000173054
0.000171375
6.73388e-05
-7.86709e-05
-4.78171e-05
6.75404e-06
-5.55907e-05
-2.82535e-06
4.53847e-05
4.6139e-05
-3.36623e-06
-5.35796e-06
-3.29138e-05
-0.000381381
0.00030182
-4.4696e-05
5.1769e-05
-0.000224233
3.08225e-05
-3.8084e-05
-0.000155903
0.000179503
0.000302145
-1.79617e-05
-0.000119249
-0.000164934
0.000120689
-3.73042e-05
0.000336601
-0.000294281
-0.000325153
0.000136465
0.000105338
-0.000209985
1.32036e-05
2.93139e-05
-5.48676e-06
-9.74457e-06
1.42613e-05
2.88418e-05
0.000292782
1.28738e-05
-4.33032e-05
2.46494e-05
-0.000211755
-8.42373e-05
0.000150608
5.5783e-05
0.000101946
-0.000112148
-9.42567e-06
6.13548e-05
-6.3437e-05
-5.74807e-05
3.61176e-06
0.000259183
-5.68392e-05
-0.000202344
-8.75637e-05
-0.000129189
0.000120074
-1.43537e-05
-6.23782e-05
2.33323e-05
-0.000100293
0.000209343
-0.000113071
7.82274e-05
-6.70362e-08
-3.69299e-05
-5.40098e-05
4.50512e-06
0.000163208
0.000126627
-0.000261174
-4.73549e-05
-0.000283364
8.09632e-05
-4.51183e-05
2.29555e-05
5.32453e-05
2.88839e-05
-4.86478e-05
-0.000143862
0.000105574
-8.64848e-05
2.53608e-05
-0.000158868
-6.25383e-05
-6.19147e-05
-5.30855e-05
2.77302e-06
1.88218e-05
0.00017215
-4.2967e-05
-5.77529e-07
0.000164621
-0.000220096
-0.000142276
4.14555e-05
-1.19896e-05
-0.000250273
-2.62628e-05
7.48007e-05
-4.92501e-05
-7.06689e-05
-0.000223053
0.000222663
0.000155305
0.000262019
8.74003e-05
-9.36291e-05
-0.000255791
-5.3299e-05
1.8892e-06
1.57804e-06
-3.12057e-05
2.95606e-05
0.000254531
-0.0001312
-9.41604e-05
-0.000176746
0.000228531
1.50296e-05
0.000136586
0.00035683
-0.000367848
0.000247341
6.71055e-05
-0.000122149
-2.19279e-05
-5.43282e-05
1.64221e-06
5.3375e-05
4.43812e-05
-1.04628e-05
1.91351e-05
8.60516e-05
-0.000214602
2.31788e-05
-0.000137877
0.000339516
8.68333e-05
0.000136766
9.50999e-05
0.000252483
-0.000278554
-6.90288e-05
-5.52172e-05
0.000110237
2.55136e-06
-5.75708e-05
0.000236703
-5.45716e-05
-8.87852e-05
-5.60283e-05
1.86569e-06
-1.20362e-05
6.96786e-05
-0.00010912
5.14777e-05
3.60762e-06
-9.2187e-05
-5.74132e-06
9.43207e-05
-8.47587e-05
8.08933e-05
-7.36663e-06
-1.51127e-05
-0.000222498
0.000247071
-1.76602e-05
-7.55683e-05
3.08503e-05
0.000116151
2.99081e-05
7.73855e-05
-7.81751e-05
7.35229e-05
-3.54065e-06
-7.94079e-05
5.87153e-05
-4.70506e-05
2.25207e-05
-0.000102769
0.00014325
-3.67113e-05
-1.44596e-05
0.000189737
-1.74927e-06
1.48758e-05
9.50651e-05
-4.84352e-05
-4.66299e-05
0.000332634
0.000127515
-5.90881e-06
-5.81397e-05
2.36662e-06
-0.000149239
5.18835e-05
-8.70152e-05
-5.19545e-06
-0.000162286
5.18921e-05
6.05451e-05
-1.72615e-06
0.00018558
-4.22888e-05
-7.75612e-05
7.0398e-05
-4.24399e-06
-9.40173e-05
-3.65616e-05
-0.000145125
0.000152889
-9.85701e-05
2.19754e-05
-7.23923e-05
0.000133197
0.000153337
-6.68524e-05
-0.000224763
-2.12256e-05
-9.28038e-05
-0.000342017
-2.27465e-05
-8.60432e-05
-6.05206e-06
4.53739e-05
-3.88122e-05
-0.00029647
-1.43899e-05
0.00028799
-6.27682e-05
-2.88001e-07
-4.14501e-05
0.000159892
0.000156678
-0.000149449
2.2031e-06
3.91435e-05
-3.92063e-06
-7.05851e-05
-0.000160839
5.81316e-05
0.000126489
-2.3782e-05
4.14246e-05
-0.000120705
5.1009e-06
4.84069e-05
0.000173489
3.94234e-05
-3.27987e-05
-5.17846e-05
-0.000153752
-0.000252015
-4.701e-05
0.000158661
-2.09474e-05
0.000156824
-8.99374e-05
9.5375e-05
-5.43757e-06
-8.63298e-05
0.000298703
-0.000202693
0.000138828
-0.000234838
0.000102244
-8.22237e-05
-4.10602e-06
-2.59916e-05
0.0001182
0.000269363
-2.09062e-05
-9.2102e-06
0.000111454
-4.43355e-05
-3.78883e-05
-8.37268e-05
4.75366e-05
3.61902e-05
-0.00018053
0.000108329
7.22008e-05
1.46434e-05
-3.77359e-05
-5.68219e-05
-2.80897e-05
2.96678e-05
5.70118e-05
-4.30731e-05
-5.35861e-05
3.96475e-05
4.74127e-05
-0.000217746
-3.62416e-05
8.88363e-06
2.39133e-06
4.24345e-05
-0.000172764
0.000183773
-1.10092e-05
-5.95028e-05
-1.2666e-05
0.000141111
-4.77653e-05
-0.000160816
0.000123327
-0.000299016
-7.49099e-06
0.000259563
-0.00020645
0.000131582
-0.000164741
9.9205e-05
0.000133092
-8.06424e-05
-4.01786e-06
7.41323e-05
0.000158149
-0.000145791
-1.23579e-05
-7.94897e-05
6.21565e-07
3.02204e-05
6.69994e-05
-0.000117218
0.000100436
-0.000130384
2.97128e-05
-6.36586e-05
4.45043e-05
-1.33402e-05
-0.000307509
-1.46144e-05
1.35119e-05
3.7291e-05
7.4803e-06
-5.82832e-05
5.34952e-05
-4.62716e-05
0.000203115
-0.000210338
3.21922e-05
1.75542e-05
0.000104366
-7.13124e-05
7.27851e-05
-0.000115946
4.7211e-05
-8.97269e-05
-1.27013e-05
-3.95279e-05
-3.77852e-05
3.60596e-06
-8.65732e-06
-0.000240563
-3.64577e-05
0.00019534
-0.000287248
9.43838e-05
0.000171735
-6.9899e-06
-6.79436e-05
6.00757e-05
4.5574e-05
-4.87501e-05
1.51839e-05
1.01615e-05
9.18082e-05
-1.75555e-05
-7.42527e-05
8.20152e-05
-0.000200069
0.000106018
2.67163e-05
-4.15967e-05
-3.40306e-05
1.62414e-05
-0.000105599
-2.73402e-05
5.96417e-05
9.84943e-05
0.000285172
-0.000127519
4.14855e-05
-0.000141417
-6.48418e-06
1.51495e-06
3.66116e-05
-0.000149102
-0.000184702
-8.69826e-05
6.46329e-05
4.31613e-05
7.51361e-06
-3.31804e-05
2.26773e-05
0.000119036
-8.96411e-06
0.000104029
-0.000109448
-0.000135105
-3.96137e-05
3.73389e-06
3.075e-05
-5.57339e-05
3.03161e-05
-2.59603e-05
-2.75023e-05
-0.000173711
0.000246719
-9.22429e-06
5.45982e-05
-5.6439e-05
-0.000130353
-0.000196566
0.000217472
-0.000129142
-1.9058e-06
-7.08213e-05
-0.000178941
1.4248e-05
-1.11443e-05
0.000193995
-0.000247978
-0.000270318
0.00028633
6.61768e-06
-8.57266e-05
-0.000126524
-0.000211226
0.000296918
-0.000160691
-7.72381e-05
-3.87222e-05
4.07068e-05
-3.77777e-05
-9.44467e-07
-7.51636e-06
8.14313e-06
0.000260205
-0.000260832
3.11915e-05
-3.97725e-05
4.52716e-05
-4.34916e-05
-5.73993e-06
3.95991e-06
-3.39981e-06
4.36476e-05
-3.77541e-05
-2.49374e-06
6.53043e-05
4.24189e-06
9.34799e-06
6.69482e-05
-2.51684e-05
3.29294e-05
-4.59966e-06
-4.24984e-05
3.38724e-05
-6.21434e-05
-0.000360469
-2.71495e-05
0.000361659
-4.4051e-05
0.000172783
-9.36901e-05
0.000160957
-6.75532e-05
-2.77201e-05
-1.52443e-06
7.45162e-05
-0.000402728
0.00020433
-0.000200331
0.000198722
-9.21852e-05
-4.10783e-06
0.000176595
-9.18271e-05
-0.000137038
0.00018883
0.000228714
-0.00024123
0.000228285
0.000108045
-6.59241e-05
-0.000131884
0.000184399
-4.48662e-05
-6.63744e-08
-3.87973e-05
0.000156164
1.49378e-06
3.955e-05
-2.33624e-05
-6.53713e-05
-0.00013479
-9.03583e-06
-4.85822e-05
-3.45672e-05
0.000198865
9.14546e-05
-9.26231e-07
0.000134572
5.08636e-05
8.00813e-07
8.20104e-05
-3.97555e-05
-0.000164292
-2.61475e-05
1.14981e-05
-2.36536e-06
-9.73229e-05
0.000186857
3.39961e-05
-3.44559e-05
1.43869e-05
5.29985e-05
1.04779e-06
3.98228e-05
0.000207159
-0.000193739
8.9396e-05
2.99352e-05
-6.90848e-05
-6.22218e-05
3.29799e-05
-6.029e-05
8.88535e-05
0.000203319
0.000167799
0.000173304
0.000162136
0.0001445
-0.000134241
0.000164098
-2.85057e-05
-4.0341e-05
4.6061e-05
-2.56111e-05
4.18227e-05
-7.34936e-06
0.000168698
2.21227e-06
1.56372e-05
7.1313e-05
-1.16863e-05
-5.70882e-05
0.000152827
8.74082e-05
-0.000183147
-3.32293e-05
9.28461e-05
0.000108304
-5.86564e-05
-1.44615e-06
3.18165e-05
4.10573e-06
0.000225451
0.000184228
-0.000112252
2.81127e-05
-2.18208e-05
-1.16498e-05
2.07481e-05
-1.19014e-05
8.8229e-05
1.55221e-05
-0.000194015
0.000189898
-0.000242465
-2.345e-05
-5.8149e-05
2.97827e-05
-7.31096e-06
-0.000275542
0.000205069
-2.68502e-05
-4.0912e-05
2.19257e-07
-6.05303e-05
4.52271e-05
-4.53326e-05
0.00027262
5.43109e-05
2.46762e-05
-5.41504e-05
-2.15918e-05
-5.04166e-05
0.000134369
0.000119873
-4.65912e-05
2.48982e-05
2.1693e-05
-0.000149867
-4.83733e-05
4.2058e-05
6.3153e-06
0.000110214
-0.000394484
0.000374705
-0.000238134
0.000139558
-5.64713e-06
-9.76836e-05
5.8579e-05
1.87698e-06
0.000266072
7.73674e-05
-0.000156087
0.000191758
-5.7542e-05
5.5283e-05
-5.54412e-05
-1.23454e-05
8.63885e-06
3.6865e-05
0.000109197
-1.41922e-05
-7.31008e-05
-0.000176388
0.00022055
-0.000129734
-5.86972e-05
-9.41332e-05
6.32526e-05
-3.10484e-06
5.66989e-05
-5.73758e-05
-7.80062e-05
8.40911e-05
-6.08489e-06
-6.85861e-05
-9.42009e-06
5.78161e-05
-4.57145e-05
-1.21015e-05
-1.077e-05
-0.000111623
0.000133223
-2.16001e-05
-8.88975e-05
-2.27255e-05
0.000143117
0.000139759
3.35762e-06
8.65259e-05
0.000146544
-6.78499e-06
0.000165913
-1.93689e-05
8.42757e-05
2.25022e-06
7.75953e-05
6.71326e-05
-3.48302e-05
-0.000258937
5.70562e-05
1.00763e-05
8.68291e-06
-7.67297e-05
0.000153703
0.000233191
5.67042e-05
-6.92644e-05
4.30486e-05
-2.18218e-06
-4.08665e-05
0.000185133
0.000281886
0.000117997
-2.98604e-05
0.000142398
3.71436e-05
-2.33781e-05
-1.69282e-05
2.56978e-05
5.61851e-05
7.30902e-06
-0.000150496
-1.42228e-05
-5.87667e-05
5.61391e-05
-5.73782e-05
0.000145381
-0.000163602
1.8221e-05
2.00282e-05
-9.34427e-05
6.46006e-06
4.43161e-05
-4.46241e-05
-0.000216525
9.4016e-05
0.000158532
0.000134938
1.04431e-05
4.91137e-05
-1.07547e-06
6.27957e-05
-2.86025e-05
0.000198192
-1.30592e-05
-8.39484e-05
-1.91361e-05
5.97813e-05
0.000294376
0.000154021
8.43636e-06
0.000158392
5.6387e-05
-2.2167e-05
0.000180772
-0.000225632
2.95698e-05
-5.25778e-05
3.76273e-05
2.8658e-05
-7.1608e-05
5.43774e-05
0.000164226
0.000101187
3.05552e-05
-0.000260529
0.000285072
0.00016545
0.000248592
-0.000183457
1.98552e-05
0.000203815
-5.62318e-06
-0.000123225
3.96622e-06
0.000131104
-0.000120387
-0.000173955
-0.000107842
-0.000265267
-0.000196299
1.28417e-05
-0.000138864
-0.000186087
2.34009e-06
0.000303062
5.13891e-05
-3.00443e-05
0.000414411
-6.31604e-05
-2.0189e-05
-0.000154211
-8.62208e-06
-0.000124955
0.000127168
-3.20711e-05
0.000163175
0.000115873
-8.6108e-05