/*--------------------------------*- C++ -*----------------------------------*\
| =========                 |                                                 |
| \\      /  F ield         | OpenFOAM: The Open Source CFD Toolbox           |
|  \\    /   O peration     | Version:  v1912                                 |
|   \\  /    A nd           | Website:  www.openfoam.com                      |
|    \\/     M anipulation  |                                                 |
\*---------------------------------------------------------------------------*/
FoamFile
{
    version     2.0;
    format      ascii;
    class       volScalarField;
    location    "0.8";
    object      nut;
}
// * * * * * * * * * * * * * * * * * * * * * * * * * * * * * * * * * * * * * //

dimensions      [0 2 -1 0 0 0 0];


internalField   nonuniform List<scalar> 
1431
(
0.000485166
0.00487658
0.002257
0.00144175
0.000419512
0.00157367
0.00159369
0.000786044
0.00702529
0.00651861
0.000990873
0.000421707
0.000752824
0.00132323
0.00487664
0.000676043
0.00448044
0.0008725
0.000408998
0.000892398
0.000425904
0.00814302
0.0029629
0.0014207
0.00141035
0.000790222
0.00132504
0.00123319
0.00101065
0.00102512
0.00144771
0.000726058
0.00196216
0.000537299
0.000510927
0.0019549
0.00074553
0.000857709
0.00194218
0.000856426
0.00232784
0.00067796
0.000873076
0.000750256
0.00368638
0.000582033
0.00227833
0.000809988
0.000880845
0.000868327
0.00103312
0.00439595
0.00496797
0.00171013
0.00113218
0.00077119
0.00229768
0.00261979
0.000982528
0.000353537
0.00309168
0.000829163
0.00225507
0.000782873
0.000903208
0.000979867
0.00232362
0.00113145
0.00483661
0.000750024
0.000502249
0.000472239
0.000938329
0.0015845
0.000993962
0.00118437
0.000647509
0.00295905
0.000784152
0.00199232
0.000805398
0.00101111
0.00067977
0.00264604
0.0018752
0.000635863
0.00066707
0.000632296
0.00152587
0.000877968
0.000956857
0.000918981
0.000790857
0.000861246
0.00103955
0.000673812
0.000915966
0.00072859
0.000620053
0.00109658
0.00629466
0.000804968
0.00107725
0.000487628
0.00101425
0.00101047
0.00078532
0.00294778
0.00204957
0.000548817
0.00222278
0.0011603
0.00075488
0.000836211
0.00102491
0.000458356
0.000774934
0.00545288
0.00164113
0.0028342
0.000858981
0.0039437
0.00374258
0.00136358
0.000831135
0.00197699
0.00177357
0.000713316
0.000695705
0.000809065
0.00109941
0.0027944
0.00101006
0.000997454
0.000812586
0.00108202
0.00105165
0.00135559
0.000837312
0.00275409
0.00647648
0.00077179
0.000769552
0.000937314
0.0010936
0.000775189
0.000733369
0.00305307
0.00109968
0.000799329
0.000818543
0.000954527
0.00222097
0.000195479
0.000478007
0.000674946
0.000802864
0.000829388
0.000755737
0.000708522
0.000904658
0.00114356
0.00088354
0.000779501
0.00053217
0.00265148
0.000675841
0.000862926
0.00102981
0.000985916
0.00106676
0.00108628
0.00134995
0.000768564
0.000771326
0.000262449
0.000404494
0.000874953
0.000997785
0.000712769
0.00083922
0.00467751
0.000753698
0.000853783
0.000773019
0.000808816
0.00075268
0.00111555
0.000717642
0.00079925
0.00150395
0.00411412
0.000682361
0.000790081
0.00755284
0.000845828
0.00078472
0.000840356
0.000514859
0.000383341
0.000333581
0.000659482
0.00075033
0.00227127
0.000785633
0.00161223
0.000672505
0.000834183
0.00110473
0.000878044
0.000789311
0.000782553
0.00162382
0.000831605
0.000899123
0.00106591
0.000756615
0.0010862
0.00188014
0.000833694
0.000830236
0.00205719
0.000776718
0.00211433
0.000825697
0.000874729
0.000965404
0.000859772
0.000828161
0.00157637
0.000614303
0.00112171
0.000746733
0.000796196
0.000789972
0.000783233
0.000736321
0.00075223
0.000826716
0.00231365
0.000841568
0.000723139
0.00782728
0.00333651
0.000638351
0.000593862
0.000830349
0.000807522
0.000929497
0.00097042
0.000723126
0.00761265
0.00685195
0.00115373
0.00250571
0.00109281
0.000396989
0.0021175
0.00112898
0.00110253
0.00108079
0.000573979
0.000551245
0.00652232
0.000789583
0.000808554
0.00103035
0.000746503
0.000992299
0.00726064
0.000744695
0.00093544
0.000726303
0.000726397
0.00106984
0.000764954
0.00112461
0.00117589
0.00138278
0.00617197
0.0060777
0.00248361
0.0026287
0.000998585
0.00102716
0.00119112
0.000647773
0.000754836
0.000904029
0.000832316
0.000776281
0.000868229
0.000748385
0.00105691
0.00073081
0.000744858
0.000688497
0.000768739
0.00260679
0.000704959
0.000843763
0.00100432
0.000591204
0.000738674
0.000744647
0.00329571
0.000828457
0.00110033
0.0011108
0.00148636
0.00083594
0.000783549
0.00291651
0.00100986
0.000523437
0.00376806
0.00597772
0.00228784
0.000794847
0.00458243
0.00311027
0.00315474
0.00501227
0.00279695
0.00675974
0.00596043
0.000806493
0.00663034
0.00174132
0.000830867
0.00333998
0.00117132
0.00227213
0.00127178
0.000786002
0.00814381
0.00101204
0.00198998
0.00108157
0.00102864
0.000314573
0.000822411
0.00721913
0.000936165
0.00180185
0.000224061
0.000826254
0.000247975
0.000247987
0.000413972
0.000409489
0.000236701
0.000312928
0.000380708
0.000309835
0.0005024
0.000256055
0.000249722
0.000352566
0.000291884
0.000394913
0.000422929
0.000390399
0.000172739
0.000383168
0.000236596
0.000398482
0.000403756
0.00267826
0.00252494
0.00434322
0.0020141
0.00431046
0.000759216
0.00104618
0.00154714
0.00442008
0.000841934
0.000848843
0.000378395
0.000251637
0.000260501
0.000446433
0.000280254
0.00049348
0.000396024
0.000408428
0.000274204
0.000368915
0.00017852
0.000268013
0.00274026
0.000882483
0.000848691
0.00546566
0.00118348
0.00157947
0.000834636
0.00666287
0.000771873
0.000301786
0.00444244
0.00083267
0.00110159
0.00372507
0.00079031
0.00195372
0.000722915
0.00146624
0.00325292
0.000830517
0.000539038
0.00119144
0.00212681
0.00100586
0.00103719
0.00543409
0.00703161
0.00199214
0.00148896
0.00263022
0.00251641
0.00834654
0.00188361
0.00164471
0.00559733
0.00284187
0.00577614
0.00612899
0.00567185
0.00533018
0.00128932
0.00054946
0.00398294
0.00255178
0.00591634
0.00345685
0.00407115
0.00169931
0.00234703
0.00175367
0.00129015
0.00331314
0.00281564
0.000346592
0.00468382
0.00567295
0.00100679
0.000344327
0.00550473
0.00469902
0.00756327
0.0054228
0.00862103
0.00295521
0.0086726
0.00763892
0.00632592
0.00829868
0.00239411
0.00298064
0.000577252
0.00201102
0.0018459
0.00212144
0.00173363
0.00135801
0.00293496
0.00152632
0.00195313
0.00257486
0.000919671
0.000738766
0.00107943
0.00125715
0.00172403
0.00258233
0.00253471
0.00383185
0.000366339
0.00195048
0.000948573
0.00108833
0.000799701
0.000823887
0.0009689
0.00172005
0.00748479
0.00449398
0.000276727
0.000266974
0.000488676
0.00201066
0.00304159
0.00039559
0.000979664
0.00124049
0.00171454
0.000837182
0.00170392
0.00164016
0.00149239
0.00600009
0.00617362
0.00519733
0.000608144
0.00181918
0.00790737
0.00178545
0.00125347
0.00115559
0.000737191
0.000743686
0.00228407
0.000792319
0.00209816
0.00336167
0.00136879
0.00179615
0.00153319
0.0006072
0.00117675
0.000934337
0.0013959
0.00121875
0.00398763
0.00424744
0.00316781
0.000984831
0.00282776
0.000807203
0.000739817
0.00192915
0.000906329
0.00588909
0.00298429
0.00752073
0.00291734
0.00436976
0.00215217
0.00628975
0.00344144
0.00517567
0.00192922
0.00031464
0.00786688
0.00429607
0.000795707
0.00711104
0.00200324
0.00178503
0.000398235
0.00107822
0.00420743
0.00245147
0.00373004
0.00802475
0.00492332
0.00103926
0.000757765
0.00473244
0.00282851
0.00794867
0.00396174
0.0025194
0.00159144
0.00342087
0.000740582
0.00254599
0.00488936
0.000299275
0.00703038
0.00245988
0.00745095
0.00285018
0.000809002
0.00263714
0.00102502
0.00373538
0.00100534
0.00100463
0.000797697
0.00339905
0.00612838
0.00100291
0.00301804
0.0047465
0.000790118
0.00102419
0.000795007
0.00216986
0.00277936
0.000848178
0.000780214
0.000770071
0.0030578
0.000693005
0.00183722
0.000739386
0.000192125
0.0049578
0.00490727
0.00192298
0.00447415
0.00614389
0.00705536
0.00118986
0.00190067
0.00757265
0.00205206
0.00170665
0.00508681
0.00183796
0.00633053
0.00191724
0.0007444
0.00263005
0.00408829
0.00746985
0.00667893
0.00182461
0.00245116
0.000887089
0.00134161
0.00106545
0.000933114
0.00175426
0.000823087
0.00476711
0.000804322
0.00720405
0.000883765
0.000328874
0.000805172
0.00288921
0.00551384
0.00191706
0.00073295
0.00108945
0.000883475
0.00458579
0.00729001
0.000806317
0.00593885
0.000826937
0.00741762
0.00461163
0.0061221
0.00501508
0.000898907
0.00120256
0.0035037
0.000766429
0.0011298
0.00671797
0.00517859
0.00082031
0.00084108
0.00210343
0.00592162
0.00645295
0.0011156
0.000919345
0.00101243
0.000827487
0.00019938
0.000848079
0.00822959
0.00628786
0.00275146
0.00111115
0.000821878
0.000908535
0.00625397
0.00079652
0.000756679
0.001323
0.000982599
0.00133392
0.00104756
0.00481527
0.000449148
0.000807612
0.00116035
0.00106326
0.0019697
0.00153044
0.00723835
0.00390512
0.00230715
0.00190194
0.0067875
0.00623353
0.000738696
0.004055
0.00176026
0.000205953
0.000276816
0.000824387
0.000722066
0.00619769
0.00167521
0.000763093
0.00149353
0.000669994
0.00136472
0.00112054
0.00655551
0.000850262
0.00237836
0.00102091
0.000775674
0.00172386
0.00850906
0.00719884
0.000635532
0.00540429
0.00813668
0.000714786
0.000799746
0.000644493
0.000838409
0.000803176
0.00347198
0.00129145
0.000626361
0.00851818
0.00814339
0.000686397
0.000387499
0.00402149
0.000301142
0.000703906
0.000720796
0.0041521
0.000765638
0.000821539
0.000734183
0.00594705
0.00087478
0.00701522
0.00774028
0.000691809
0.000614143
0.000785578
0.00066352
0.000748636
0.00085895
0.0011915
0.000443658
0.0065376
0.000753981
0.000740937
0.000762436
0.00105017
0.000959803
0.000845058
0.000840828
0.000871783
0.00192707
0.00111893
0.00119543
0.00169746
0.00188254
0.000852884
0.00310443
0.00051006
0.0018691
0.000793692
0.000755362
0.00110808
0.00328785
0.000574217
0.00160966
0.000709646
0.000777413
0.000843655
0.00265943
0.00277752
0.0008445
0.000713009
0.000371375
0.000770129
0.00557968
0.00199351
0.00366441
0.000635935
0.00141639
0.00116602
0.00211247
0.00114779
0.000771154
0.000879748
0.000940826
0.000847847
0.000834469
0.000685793
0.00162145
0.00403348
0.000806871
0.00326451
0.00720325
0.000710315
0.00159654
0.000260672
0.0028458
0.00207967
0.000930365
0.00295728
0.000607409
0.000828531
0.000808645
0.00503285
0.00120632
0.00169626
0.000833854
0.000673844
0.000597492
0.00053864
0.000648984
0.00083737
0.000732201
0.000774691
0.00449105
0.000907081
0.000776387
0.000862963
0.00762811
0.00145058
0.00118719
0.000359573
0.000543431
0.000782567
0.001261
0.000800025
0.00105368
0.00190117
0.00112522
0.000336129
0.00206144
0.000777971
0.000721733
0.000731578
0.000663781
0.0022871
0.000709728
0.00152446
0.00360275
0.00422836
0.000818818
0.00532253
0.00401548
0.00242163
0.000421397
0.00175062
0.000729231
0.00338134
0.0046407
0.000837696
0.000865866
0.000805521
0.00102196
0.00147756
0.0011445
0.00161696
0.000563526
0.00080254
0.000760786
0.00106159
0.00120953
0.000777833
0.00197675
0.000721586
0.00527924
0.00103704
0.000777899
0.00136575
0.00097429
0.00119003
0.000817716
0.000641967
0.000987096
0.00103486
0.00150292
0.000745729
0.000494785
0.000772932
0.00298021
0.00389379
0.000708175
0.000875645
0.00293397
0.00174829
0.000824983
0.000856758
0.00301613
0.000817513
0.00115755
0.00100064
0.000698097
0.00102691
0.00102801
0.00645555
0.00382981
0.000957698
0.000953386
0.000844316
0.000955963
0.00126937
0.000487911
0.000884439
0.000805028
0.00527584
0.0010917
0.00737175
0.0053979
0.00319774
0.000862855
0.00084911
0.000762828
0.00127574
0.000783284
0.000824297
0.000813651
0.000793858
0.00106126
0.000789148
0.000730023
0.00739725
0.000691111
0.00851363
0.000748456
0.00108065
0.000593647
0.000577373
0.000588759
0.000604682
0.000553322
0.000508902
0.00327302
0.000331314
0.000275402
0.000818734
0.000445606
0.000520287
0.000394459
0.00233451
0.000625143
0.000975543
0.000141368
0.00791558
0.000206125
0.000710425
0.00368019
0.00369396
0.0017388
0.000378722
0.000898019
0.00382624
0.000929727
0.00505609
0.0076746
0.00201799
0.000994756
0.00465375
0.000167934
0.000324496
0.00087206
0.000147001
0.00283771
0.00621359
0.00750098
0.0042477
0.000965065
0.00632249
0.00858666
0.000815626
0.00019528
0.000239804
0.00117368
0.0054783
0.000779699
0.00264299
0.00236038
0.00296457
0.000747154
0.000298135
0.00304399
0.000132514
0.00102325
0.000196753
0.000822986
0.00219035
0.00458869
0.00083026
0.00190859
0.00844911
0.000896582
0.00220158
0.00051965
0.000926861
0.000984344
0.000809602
0.00114908
0.00105165
0.000776386
0.00160073
0.00444559
0.000845972
0.00111347
0.00701578
0.0087431
0.00081204
0.00072716
0.00098483
0.00277769
0.0023036
0.00467334
0.000994112
0.00737857
0.00591383
0.00340068
0.00244137
0.00262412
0.00107319
0.00199793
0.00320034
0.00126486
0.000653483
0.00256811
0.00652021
0.00867515
0.00336374
0.00271437
0.000874504
0.00642364
0.00260565
0.000837429
0.001077
0.00138719
0.00119339
0.000440446
0.000785246
0.00125536
0.00137707
0.00224488
0.00303948
0.0072947
0.0007514
0.00578405
0.00205373
0.000624148
0.00720084
0.00444615
0.000925869
0.000764063
0.000824692
0.000785037
0.000371988
0.000749515
0.00152969
0.00473962
0.000846298
0.000771438
0.00077505
0.00086601
0.001112
0.000776971
0.000840437
0.007154
0.000868921
0.000797244
0.000796508
0.00204221
0.000820493
0.00110264
0.000219027
0.00077742
0.00079138
0.000802762
0.000194066
0.000634949
0.00110892
0.00136909
0.000743586
0.000217319
0.00100309
0.00103492
0.00079407
0.00739412
0.00318
0.000743931
0.00102437
0.000767221
0.000534257
0.000111842
0.000943746
0.000833594
0.000715469
0.00238
0.0019305
0.000160523
0.00111438
0.000866212
0.000409346
0.000864373
0.00598947
0.000992226
0.00152344
0.000809117
0.000776567
0.00601228
0.0011212
0.000698994
0.00112565
0.000908603
0.00492707
0.00116666
0.0010757
0.00079971
0.00120042
0.00102153
0.000790603
0.000152386
0.000892254
0.000123063
0.00127479
0.0029735
0.00175357
0.00117277
0.000788526
0.000477869
0.000486649
0.00885646
0.000451264
0.00096846
0.00285792
0.00103909
0.00108932
0.000464961
0.000952405
0.000927194
0.00852272
0.00754854
0.000990453
0.000799263
0.000806757
0.000310294
0.00167976
0.000821606
0.00300695
0.000522848
0.00123315
0.00685999
0.000990415
0.00107149
0.00530661
0.00114926
0.000513955
0.000834888
0.00133458
0.000127674
0.00105927
0.000718507
0.00775287
0.00155524
0.000771093
0.000430057
0.0011496
0.000141881
0.000840555
0.0015928
0.0070583
0.000784106
0.000838281
0.000839724
0.000785664
0.000447631
0.000469764
0.00499261
0.000619446
0.00322194
0.000746639
0.000696644
0.00586853
0.000827236
0.003083
0.00834861
0.000592145
0.00104473
0.00142167
0.00218353
0.000870457
0.000162719
0.00498811
0.00747949
0.000853832
0.00807748
0.000782363
0.000738854
0.00662144
0.00242718
0.00222887
0.00117106
0.00654296
0.000880762
0.000851207
0.000858792
0.00694011
0.000842456
0.000819751
0.00161684
0.00720092
0.00102371
0.00122737
0.00161184
0.00276836
0.00228959
0.00194076
0.00156219
0.00139582
0.00754749
0.000473799
0.000245084
0.00449941
0.000746138
0.00116335
0.000738056
0.000772556
0.000844364
0.000905682
0.00193097
0.000426222
0.00088343
0.00013756
0.00661735
0.00104497
0.000691945
0.00232045
0.000549021
0.000953684
0.002961
0.00156949
0.000947836
0.00100897
0.00881908
0.000794347
0.000589311
0.00260704
0.000726188
0.000575952
0.00071733
0.00079052
0.000937667
0.00307516
0.00654812
0.00204961
0.000622033
0.00709384
0.000886277
0.0010016
0.00180456
0.00354679
0.00514394
0.000769256
0.000844094
0.00517157
0.00242763
0.000901953
0.00518999
0.00563843
0.00119737
0.00121464
0.000827898
0.00106187
0.000813875
0.000876182
0.000807952
0.000838664
0.0010095
0.000625473
0.00377733
0.000815569
0.000958724
0.00282387
0.0025649
0.00713706
0.00847052
0.00793396
0.00105744
0.00263969
0.00116436
0.00459816
0.00083589
0.000508325
0.000845882
0.000870618
0.00521044
0.00114855
0.0010499
0.00769952
0.000784557
0.00452138
0.0078432
0.00857731
0.00591772
0.0088251
0.000774507
0.00313754
0.0082009
0.000845173
0.000782002
0.000338644
0.00483828
0.00443198
0.000483965
0.0057743
0.00835901
0.000549872
0.0013404
0.000578957
0.000151343
0.00192802
0.0083896
0.00165454
0.00239611
0.0010378
0.000854805
0.00853165
0.00105465
0.00137907
0.00333785
0.000679732
0.00175036
0.000758325
0.00130668
0.00189993
0.000817707
0.00103975
0.000542469
0.000723998
0.00444522
0.00105723
0.000784146
0.000129367
0.00167519
0.00101977
0.000801187
0.00081496
0.00105474
0.00148367
0.000683425
0.00112239
0.00506865
0.00126405
0.00188247
0.000796887
0.000855854
0.000722821
0.00429764
0.00128004
0.00209118
0.000721545
0.00227001
0.00292814
0.00184431
0.000683916
0.000752899
0.000625022
0.000696426
0.000945315
0.000724053
0.0010525
0.000935131
0.00495346
0.000712364
0.00561715
0.000616979
0.000792767
0.00795968
0.00109428
0.00201685
0.00228254
0.00274422
0.000810768
0.00102572
0.00183339
0.0008429
0.00316242
0.000449942
0.0010468
0.000920476
0.00132628
0.00255847
0.00719617
0.000761782
0.00117328
0.00099675
0.000306669
0.00111065
0.000723985
0.0008373
0.000831444
0.00133
0.00356421
0.0015652
0.000876731
0.000909326
0.000912394
0.000792049
0.00153485
0.00807353
0.00871741
0.00833301
0.000740806
0.000669236
0.0089619
0.00815026
0.00863395
0.00772976
0.00528338
0.000802044
0.000758976
0.00115441
0.000744797
0.000604788
0.000915749
0.00163201
0.000590902
0.000852526
0.0011653
)
;

boundaryField
{
    frontAndBack
    {
        type            empty;
    }
    wallOuter
    {
        type            nutkWallFunction;
        Cmu             0.09;
        kappa           0.41;
        E               9.8;
        value           nonuniform List<scalar> 
90
(
8.13916e-05
7.67521e-05
7.78074e-05
7.56704e-05
8.27251e-05
8.47693e-05
8.6735e-05
9.42208e-05
8.00427e-05
8.90715e-05
9.15566e-05
9.5153e-05
9.074e-05
9.32816e-05
9.24436e-05
0.000104999
9.97553e-05
8.12537e-05
7.22537e-05
6.52247e-05
7.83361e-05
0.000100156
8.80524e-05
9.29687e-05
8.00733e-05
0.000113822
0.000113329
8.78006e-05
8.32724e-05
7.16985e-05
6.97351e-05
7.11067e-05
7.30115e-05
6.68383e-05
6.14581e-05
5.369e-05
1.3816e-05
2.23413e-05
8.53873e-05
4.52953e-05
1.77476e-05
3.82526e-05
0.000103968
1.49225e-05
2.15004e-05
2.71375e-05
1.30378e-05
0.000120894
2.1683e-05
0.000106895
0.000116867
7.87589e-05
7.54083e-05
9.25723e-05
9.53076e-05
2.09987e-05
2.42818e-05
0.000118664
0.000122466
8.94116e-05
6.46972e-05
9.99816e-06
1.71473e-05
0.000103393
9.6923e-05
8.42057e-05
0.000108275
1.60758e-05
0.000106345
1.17283e-05
6.22533e-05
1.23626e-05
9.25606e-05
1.43802e-05
9.3969e-05
7.48602e-05
7.16179e-05
0.000103928
1.75124e-05
0.000101991
5.73766e-05
0.000105344
1.38939e-05
7.51586e-05
7.54688e-05
1.57808e-05
9.39851e-05
1.24885e-05
8.2374e-05
8.38914e-05
)
;
    }
    inlet
    {
        type            calculated;
        value           uniform 0.000851986;
    }
    outlet
    {
        type            calculated;
        value           nonuniform 0();
    }
    wallInner
    {
        type            nutkWallFunction;
        Cmu             0.09;
        kappa           0.41;
        E               9.8;
        value           nonuniform List<scalar> 
138
(
5.11488e-05
5.06142e-05
0.0002222
6.53641e-05
6.26837e-05
8.16094e-05
0.000259398
0.000131875
6.11237e-05
5.78963e-05
0.00013906
0.00011969
2.30202e-05
5.82199e-05
3.04379e-05
4.77726e-05
6.29277e-05
4.69413e-05
4.06809e-05
7.95708e-05
0.000237788
0.000128913
4.8464e-05
0.000132918
0.000129991
0.000127579
0.000121957
0.000126361
0.000121602
0.000129747
0.000130907
3.8108e-05
2.54373e-05
2.94997e-05
2.99011e-05
5.07356e-05
4.84727e-05
2.62301e-05
3.76126e-05
4.71904e-05
3.69388e-05
6.00207e-05
2.96874e-05
2.89022e-05
4.32359e-05
3.50181e-05
4.80196e-05
5.14061e-05
4.83724e-05
1.83277e-05
4.68891e-05
2.79958e-05
4.89466e-05
4.92713e-05
4.61381e-05
2.80056e-05
3.04655e-05
5.47198e-05
3.32513e-05
6.02757e-05
4.89067e-05
4.99106e-05
3.21864e-05
4.55812e-05
1.9973e-05
3.21383e-05
3.62219e-05
6.50604e-05
0.000122666
6.63417e-05
0.000149869
4.22759e-05
4.13704e-05
7.14166e-05
0.000127353
4.45118e-05
0.000128335
3.27015e-05
3.19207e-05
6.05854e-05
4.88902e-05
0.000144842
0.000172184
0.000145949
0.000135289
0.000158841
3.60451e-05
4.77806e-05
0.000127291
0.000122952
3.58484e-05
2.2159e-05
3.89989e-05
2.23618e-05
5.36103e-05
2.24833e-05
3.33388e-05
4.68511e-05
3.58791e-05
8.33543e-05
0.000130857
6.16212e-05
8.53029e-05
4.34969e-05
0.000111882
2.98128e-05
4.35018e-05
0.000132502
4.0639e-05
5.17936e-05
6.05766e-05
0.000125406
3.93339e-05
3.2327e-05
4.835e-05
0.000114606
8.96632e-05
3.54048e-05
0.000109875
0.000116462
4.46296e-05
2.49697e-05
9.32793e-05
4.86384e-05
5.92078e-05
5.44794e-05
9.66234e-05
3.69971e-05
5.5233e-05
5.65034e-05
2.83447e-05
8.07148e-05
0.000135715
8.95124e-05
7.32543e-05
0.000187191
7.14712e-05
0.000136095
)
;
    }
    procBoundary0to1
    {
        type            processor;
        value           nonuniform List<scalar> 
29
(
0.00132237
0.00205985
0.00209586
0.00209586
0.00516493
0.00516493
0.00291259
0.00125577
0.00189812
0.00228111
0.00159807
0.00196292
0.000674909
0.000645707
0.00222909
0.00127507
0.00794809
0.00582198
0.0027222
0.00211654
0.00086488
0.000729471
0.00319201
0.000741089
0.000728909
0.00582198
0.000726522
0.00091704
0.000741089
)
;
    }
    procBoundary0to2
    {
        type            processor;
        value           nonuniform List<scalar> 
42
(
0.00715468
0.00833535
0.00051035
0.0004504
0.00154423
0.00715468
0.00051035
0.000546633
0.00125367
0.00134937
0.00319327
0.00510616
0.00319327
0.00643679
0.00783448
0.00545836
0.00783448
0.00139358
0.00128258
0.0016565
0.0016565
0.00139358
0.00118363
0.000988495
0.000988495
0.00108429
0.00169709
0.000878763
0.00301335
0.00879981
0.00879981
0.000804996
0.000922556
0.00112612
0.00109613
0.00051035
0.00883335
0.000245231
0.00301335
0.000546633
0.000626678
0.00083203
)
;
    }
}


// ************************************************************************* //
