/*--------------------------------*- C++ -*----------------------------------*\
| =========                 |                                                 |
| \\      /  F ield         | OpenFOAM: The Open Source CFD Toolbox           |
|  \\    /   O peration     | Version:  v1912                                 |
|   \\  /    A nd           | Website:  www.openfoam.com                      |
|    \\/     M anipulation  |                                                 |
\*---------------------------------------------------------------------------*/
FoamFile
{
    version     2.0;
    format      ascii;
    class       volScalarField;
    location    "0.7";
    object      epsilon;
}
// * * * * * * * * * * * * * * * * * * * * * * * * * * * * * * * * * * * * * //

dimensions      [0 2 -3 0 0 0 0];


internalField   nonuniform List<scalar> 
1431
(
0.269707
3.9504
88.6172
56.6633
0.303248
11.1577
3.8396
4.4329
69.5974
19.8891
8.57039
1.43176
1.01716
59.5744
36.1073
24.2732
47.9725
2.17934
17.3214
7.9789
0.281327
22.2275
15.7934
66.2811
49.6526
7.91098
51.8778
53.6776
22.22
0.619912
51.1388
12.1971
31.2129
4.49387
5.07609
43.523
7.02465
10.303
4.72551
9.86005
149.457
7.50678
2.79245
3.72312
34.1492
0.442531
33.8274
4.94797
18.7517
16.405
0.696652
19.3518
49.9497
3.06755
3.52807
4.82147
22.7737
46.9827
53.4953
0.341452
36.8112
4.98278
46.5358
9.82011
35.1384
1.37354
73.7831
10.6304
8.46096
12.4997
3.09005
3.54963
5.15833
8.01861
4.81136
28.8241
0.269134
58.5991
5.76023
75.5993
8.11287
0.904275
4.05381
47.407
78.4848
0.342022
0.275981
9.14806
74.2313
6.54308
3.25573
22.8313
0.288195
10.2006
1.39659
0.322464
4.18863
8.69678
0.306399
31.7663
10.2943
5.55976
3.59239
0.251453
16.4267
0.931338
6.60716
162.423
67.0528
0.312994
91.6539
1.04252
5.51793
5.07805
13.9958
0.249464
2.7468
10.5967
84.0861
27.7683
8.97491
48.2898
21.5905
55.5095
9.33142
1.72241
96.7286
1.75344
0.241917
26.3819
0.819689
128.325
48.4446
5.42614
0.328038
43.8329
5.77058
1.02112
1.60254
140.113
31.1688
0.372393
9.82095
19.3457
22.0884
16.2043
8.75413
161.496
6.19594
14.9961
28.2055
38.5384
2.4567
4.11846
4.94217
1.23954
8.98318
5.01155
5.11159
8.59324
1.76567
6.7226
1.40667
5.5401
0.306475
119.314
0.360491
9.66409
0.629134
5.71595
34.1411
11.7921
50.0843
17.4245
9.32348
0.719744
1.72356
25.5511
0.822737
6.0535
10.7409
21.6155
5.10793
6.34828
14.1278
16.9501
6.39266
47.4886
8.51911
10.0806
2.89432
66.374
0.290124
7.35868
75.6053
8.13393
6.29441
7.29187
5.26123
4.6382
2.76831
72.5012
12.509
165.626
6.94858
57.7155
0.373534
10.043
6.16103
23.0521
7.9609
5.35282
77.5297
9.71859
12.2203
23.9312
4.77845
1.29063
8.02733
9.99358
9.22994
59.2299
21.4828
134.928
11.0555
29.0879
27.0365
6.27133
18.8944
51.8766
0.276359
30.652
11.0226
4.56793
4.41154
4.81928
10.0809
0.361204
8.1997
2.10994
10.3555
10.3073
65.9459
62.2008
1.25444
1.61032
10.3641
4.33326
3.80288
27.547
8.93994
69.5102
19.2489
18.975
42.5279
36.2966
0.96785
2.09653
30.8289
34.0031
38.1817
2.44186
0.326899
34.6275
4.50154
18.2367
28.8647
7.52333
15.7845
48.817
6.91516
23.5031
8.76681
8.6776
40.4394
8.69874
4.10627
0.764539
1.02006
20.8012
66.7389
2.10416
3.28147
4.66444
31.8443
43.5111
0.312934
4.36105
23.2221
9.24905
17.7731
11.5348
4.50564
1.41173
10.4731
5.55152
0.260742
7.43552
2.40594
7.31216
11.104
27.5601
1.56203
6.48789
4.36522
2.84275
8.61395
34.915
32.3823
0.584838
9.98479
13.074
29.8993
0.336488
2.04686
3.02287
22.6636
1.94742
4.4324
7.42389
2.81209
5.65096
30.5236
2.6384
35.1346
8.79048
7.39135
9.48706
80.6335
9.35815
5.87997
1.021
1.63596
2.26981
8.83935
59.401
0.71148
4.29171
0.757101
0.808734
3.56568
7.60413
11.2347
18.4292
43.4378
0.651573
11.3808
1.26362
0.804993
1.85172
0.938668
0.695855
0.788964
2.0266
1.18561
0.926099
0.555834
0.539939
2.83814
3.28605
0.838166
1.5336
1.70792
0.194041
0.999822
1.21324
1.16373
2.79449
11.8663
18.7294
3.6183
1.6366
6.24074
13.362
0.896432
46.4733
4.08513
11.493
13.9055
3.13251
0.664987
1.10225
1.22077
0.600603
2.23799
1.41752
2.89085
0.753851
2.39216
0.440867
1.35953
60.4713
21.7031
13.9162
7.29483
0.746653
2.38808
10.7385
19.7735
9.11311
1.86285
3.37683
10.2508
0.866594
4.47653
12.1048
1.63683
7.85249
0.420692
8.28316
41.3602
8.10174
0.728654
58.0374
20.589
39.9943
3.8192
50.2486
1.13879
1.12751
2.3333
5.97521
21.2327
2.57514
5.84319
4.70783
3.56764
16.3072
45.152
7.06569
56.0353
2.51318
6.54712
10.0414
2.00857
6.32181
6.70663
9.50965
2.58743
3.46688
3.70633
78.7021
7.59456
6.00855
2.10014
12.5619
20.4588
2.29732
2.30353
16.3493
12.7966
16.8817
17.8338
20.966
6.91196
19.6907
15.148
13.1432
18.1992
1.80305
50.8803
19.6681
3.88729
5.77015
1.55371
1.29651
0.325688
79.382
3.13992
1.25794
74.0983
1.19401
6.16545
42.3667
3.62315
1.08165
58.1491
54.7585
74.9082
6.99141
7.00409
1.10882
44.3756
4.83134
10.8982
4.78298
8.14021
20.3038
10.1375
1.99686
1.68745
12.7451
1.00016
60.0473
9.0528
1.04386
78.6579
3.22022
11.3712
3.09752
13.7499
108.961
15.5677
8.80508
6.86124
1.70137
0.951685
20.8746
8.46098
58.3738
46.7328
2.06448
6.2668
9.48814
11.3105
9.35614
68.0864
94.3805
7.63667
1.34673
1.50137
2.01581
1.62998
0.50649
1.11905
8.03338
2.68703
8.43492
1.84198
5.6666
11.2031
6.83893
3.09549
1.71715
12.8445
7.68887
22.2642
5.44185
11.6911
38.6655
10.0165
48.6838
3.27393
9.49913
0.75099
25.4347
9.40324
5.34111
16.6104
0.895779
3.06628
0.448946
31.6305
9.20666
1.6975
3.69525
29.3547
4.58133
32.4196
4.45035
13.1304
4.02366
46.2334
61.6436
39.8139
2.3611
7.65654
4.96233
37.0256
7.03518
1.2788
25.8085
43.5304
25.5137
59.1777
4.00373
5.64794
0.806121
4.90495
17.4826
0.967926
5.62647
3.31319
7.49196
2.27415
5.17454
2.72538
11.2424
0.796776
18.1115
17.0003
42.8527
13.7238
9.99243
8.81568
4.74433
0.406283
3.54725
5.11338
2.41655
2.91836
2.88977
0.853002
9.02506
14.4957
19.7303
6.97389
0.867741
31.8631
76.5539
49.235
13.3138
2.19415
19.8541
63.3207
5.1081
56.7272
26.7072
24.1851
15.7375
0.767543
2.45927
2.12004
0.879853
1.51785
9.03433
0.773861
0.372445
9.58463
5.91373
33.4602
1.84069
1.71539
6.35056
2.75805
11.9256
0.816663
4.84453
23.7429
2.10511
8.35996
31.378
6.81592
16.5351
1.22043
19.492
7.38172
52.8614
17.3729
1.92671
0.736713
3.01857
7.99379
29.7585
51.0457
10.681
7.23423
11.8061
4.35645
14.4557
9.66377
0.291277
2.55368
3.07238
8.69386
1.45535
13.6826
25.367
14.7449
22.5411
0.312687
7.65064
2.30316
12.8889
11.7425
11.8889
15.5122
8.01109
0.748328
20.3852
24.3399
0.478579
4.45191
0.738522
1.00505
2.52557
4.87754
16.4544
8.31304
4.04872
66.8294
12.7351
11.4283
0.582785
8.53187
0.827558
0.159709
1.36567
8.10917
5.15857
13.0066
0.89651
4.17951
0.813219
0.340505
28.7569
27.1101
22.7699
13.9262
169.942
0.639643
0.413374
0.804492
25.5809
24.5711
25.1537
3.68249
80.3639
5.53657
0.747825
23.8935
9.61056
5.3316
65.723
0.827531
26.2737
24.9461
45.398
30.1378
0.763835
5.93575
2.05128
28.4833
28.2588
53.0676
4.24799
3.32964
1.09465
20.6571
2.88422
13.7799
60.149
12.9866
2.06306
40.2247
22.2188
5.34349
20.5119
42.8218
1.43399
38.9637
4.34625
28.7683
31.4741
3.45998
1.76317
13.0552
29.1233
18.3355
113.137
23.3774
47.4393
32.0884
32.0566
9.90554
28.8497
4.89188
37.1207
42.7953
29.8667
0.762804
62.6043
0.457949
0.761302
8.3132
37.8163
0.310697
34.3837
6.25853
0.983294
2.74383
0.751022
33.2653
32.0518
4.15849
141.964
0.504714
0.772102
0.692586
134.431
3.98201
4.31301
83.0183
34.4217
13.9625
10.3411
0.386205
0.788535
59.2685
5.8895
7.55498
19.9592
6.09821
0.799178
0.258739
2.95225
38.1139
1.47969
38.0058
0.246178
8.55582
6.1185
37.7384
0.26984
75.3314
31.2104
37.1674
40.5212
46.6225
35.1158
27.823
31.8703
35.3857
2.79445
3.02496
17.1717
3.78871
23.9832
0.80967
0.251193
1.10798
0.673164
0.819992
0.341933
0.945372
28.4165
4.00555
30.6454
1.27925
4.42775
4.3715
8.47118
8.54761
34.6963
88.3307
6.98242
0.902024
3.12335
3.15272
6.17909
3.15183
4.03997
2.3901
2.66345
38.428
3.653
17.8678
42.6415
11.0453
12.3621
5.6619
3.97439
0.934615
1.14019
1.53831
0.239542
5.2175
4.917
0.209486
0.9804
11.7945
35.461
2.87414
5.25557
0.586489
7.06829
2.6689
3.35774
0.701488
6.78308
0.313742
0.685312
1.40695
0.717349
10.3743
0.255027
2.87841
55.0951
44.2544
10.8787
20.558
71.1821
8.38825
7.9342
7.59793
56.9912
0.539837
0.824705
0.824982
0.755999
0.689193
0.766983
11.6563
8.88367
60.853
54.4378
25.5865
1.99306
0.392396
11.4318
2.82688
5.56036
75.6808
1.01349
12.862
8.75501
7.18696
13.2926
3.97975
0.657852
2.37795
5.5411
2.48297
6.01271
5.0739
43.0323
0.764439
34.6667
28.4124
36.6948
37.4799
4.36004
6.01662
17.6713
13.8077
15.69
19.4799
11.9216
9.89919
3.13132
0.457196
1.20669
6.90199
7.36742
0.244291
1.69609
91.6043
0.304207
1.12219
0.49262
30.3969
0.257481
26.1208
8.85595
94.8545
0.8682
4.15754
1.33922
9.32108
1.62475
33.2916
42.0042
1.49334
1.00895
3.01165
0.443238
1.6474
57.5113
0.394452
17.1253
25.1305
12.4663
3.1173
30.5855
25.2201
16.8365
6.35063
0.581208
0.920574
0.784778
4.36566
18.8662
5.65806
50.9571
26.1982
45.5586
0.644285
58.9769
0.395708
30.4726
0.304322
6.977
4.80054
4.18569
11.6665
0.913292
52.2858
43.7499
113.358
0.32836
41.7653
69.8941
23.1245
3.52972
4.19261
4.56378
15.8425
58.1581
13.0643
3.67028
28.5281
24.2198
5.77323
8.66232
56.13
64.6294
36.3315
28.259
1.64833
39.431
7.08889
25.6045
1.67193
34.6045
44.3427
1.04422
3.16333
1.02362
22.4481
157.771
28.0779
23.1828
3.76739
77.246
2.74368
28.0705
56.0775
10.7622
1.69277
1.07162
30.8471
0.266931
0.22128
0.915591
3.00817
1.44339
60.7265
42.9572
4.31897
25.0869
1.25105
30.6546
44.3964
15.1877
3.2354
3.93777
2.74113
18.254
0.830045
5.05808
4.00274
63.0799
12.988
38.6599
5.30072
2.65124
11.5973
11.079
11.48
39.6902
2.3206
4.61338
26.6808
32.3627
6.53592
0.685478
0.460996
69.2318
14.1778
14.1362
0.251304
3.13784
0.700037
1.47464
7.37543
0.26743
24.7134
56.5273
22.8313
37.9506
5.40583
17.9328
0.652853
5.05262
43.425
0.39866
1.61787
12.0798
0.27155
52.7551
78.4151
0.320408
11.6828
73.719
0.642698
14.6626
8.94238
0.299081
0.816315
45.1285
1.87594
46.4229
2.34975
60.5142
0.779559
79.7997
5.42933
1.55715
17.4043
6.9606
1.21786
0.871445
15.2965
0.351517
96.5426
0.387782
0.786599
8.07652
2.94373
3.33887
14.4589
6.48419
0.308559
56.4512
3.12895
5.52218
3.69314
27.3229
1.18069
0.618773
0.813
1.94775
80.0214
26.2807
2.66679
4.8293
57.6671
0.450358
54.6543
7.37432
57.0166
0.356792
0.898421
30.4169
1.05508
1.18899
67.5884
48.5453
46.454
8.89895
113.265
0.432248
0.70956
0.925506
33.2798
62.6874
113.202
0.50756
0.843447
0.381807
12.1213
4.05309
69.405
88.0874
39.0227
14.3822
4.79459
3.95815
1.26964
10.7197
107.832
46.7007
4.47344
0.243521
8.22566
43.7316
69.9732
34.104
28.4414
0.397925
1.06223
55.9805
30.6617
0.317643
76.1429
52.9143
59.4257
15.9298
2.58315
11.0155
19.3157
25.2784
48.5691
0.787522
58.9995
46.8105
12.657
0.595366
35.9499
13.2129
14.2268
42.2051
35.2909
6.2989
0.907827
1.18422
88.2963
3.21187
1.92479
66.2622
1.0865
36.217
35.2842
0.352028
54.3006
4.67488
6.76243
8.77737
19.7889
12.6207
37.0491
85.7808
0.322926
85.1243
0.383022
31.3212
53.1119
0.36722
1.77116
0.967164
1.269
65.8686
39.0551
4.20951
4.92107
19.7113
0.300475
1.45888
20.8473
9.03383
0.286116
7.2359
4.63959
1.94792
95.405
28.8257
53.1863
30.9201
43.6781
1.55608
0.651516
1.98472
56.5712
33.9066
18.3119
12.385
6.36187
53.6885
1.1807
79.9191
5.24177
0.734687
0.993669
7.63118
9.40725
5.65512
15.7646
7.84336
34.4481
41.1643
21.0469
3.39245
5.84543
14.2981
2.90152
70.8438
36.0987
67.3186
23.402
1.20908
76.8069
42.3483
37.1875
1.09609
0.510162
13.0983
2.30182
40.3177
0.704569
0.275763
51.1689
6.01264
35.242
34.6343
25.873
19.8837
22.1238
12.5263
2.801
29.0363
11.8581
20.2997
0.311054
6.51263
3.36305
0.242773
5.86471
38.0136
2.58852
0.904729
0.238422
0.35018
1.31098
28.0342
1.30388
64.9391
52.3771
13.3291
17.6005
3.36556
2.54048
3.14932
0.270559
1.94948
5.38634
0.777838
65.9453
5.89617
21.5194
0.253363
7.13434
2.99758
0.667978
113.951
0.422185
1.10723
1.48263
5.07617
0.560399
0.819266
0.911197
35.9056
4.26832
3.1664
1.09334
1.78714
2.61373
30.2486
8.98303
5.15812
0.986686
1.56193
7.39091
1.54183
57.6732
10.0439
8.5117
5.01501
1.34923
20.1611
37.2921
3.00954
5.5945
0.818853
3.49288
2.95916
14.0143
0.772604
6.73588
30.8243
10.3231
43.1458
1.62513
160.831
6.11905
44.3417
77.3154
12.0929
3.75155
0.272286
12.4942
5.18275
52.7294
6.07979
42.9348
0.554255
44.9774
0.750077
0.334908
11.0714
1.15083
12.607
8.24303
56.4606
7.69571
46.86
41.4449
34.1158
41.484
4.83815
2.16956
14.5181
53.0897
26.7642
11.8863
11.8793
56.8891
28.7262
74.8339
24.692
14.813
23.8104
5.0554
43.5025
18.0377
3.00854
40.5223
121.957
2.657
23.7732
40.1014
)
;

boundaryField
{
    frontAndBack
    {
        type            empty;
    }
    wallOuter
    {
        lowReCorrection 0;
        type            epsilonWallFunction;
        value           nonuniform List<scalar> 
90
(
24.2732
25.1537
23.8935
26.2737
30.1378
28.4833
28.2588
40.2247
22.2188
28.7683
31.4741
42.7953
29.8667
37.8163
33.2653
83.0183
31.2104
37.1674
40.5212
46.6225
35.1158
27.823
31.8703
35.3857
34.6963
60.853
54.4378
34.6667
36.6948
17.6713
13.8077
15.69
19.4799
11.9216
9.89919
7.36742
0.49262
0.257481
26.1208
4.15754
0.443238
1.6474
57.5113
0.394452
0.581208
0.920574
0.395708
30.4726
0.304322
43.7499
56.13
22.4481
30.6546
38.6599
26.6808
0.251304
0.26743
24.7134
56.5273
17.9328
43.425
0.39866
0.320408
73.719
45.1285
60.5142
79.7997
0.351517
96.5426
0.387782
46.454
0.432248
113.202
0.381807
88.0874
107.832
28.4414
30.6617
0.317643
59.4257
35.2842
85.1243
0.383022
30.9201
21.0469
0.35018
113.951
0.422185
35.9056
20.1611
)
;
    }
    inlet
    {
        type            fixedValue;
        value           uniform 14.855;
    }
    outlet
    {
        type            zeroGradient;
    }
    wallInner
    {
        lowReCorrection 0;
        type            epsilonWallFunction;
        value           nonuniform List<scalar> 
138
(
1.43176
17.3214
31.2129
4.49387
5.07609
7.50678
73.7831
10.6304
3.09005
3.54963
28.8241
48.4446
4.11846
4.94217
0.719744
1.72356
5.26123
4.6382
2.76831
72.5012
134.928
36.2966
0.96785
30.8289
34.0031
38.1817
28.8647
40.4394
31.8443
34.915
32.3823
3.56568
0.651573
1.26362
0.804993
1.85172
0.938668
0.695855
0.788964
2.0266
1.18561
0.926099
0.555834
0.539939
2.83814
3.28605
0.838166
1.5336
1.70792
0.194041
0.999822
1.21324
1.16373
2.79449
3.13251
0.664987
1.10225
1.22077
0.600603
2.23799
1.41752
2.89085
0.753851
2.39216
0.440867
1.35953
1.86285
8.10174
39.9943
6.54712
78.7021
2.10014
2.30353
19.6681
42.3667
6.99141
44.3756
1.99686
1.68745
12.7451
9.0528
78.6579
108.961
58.3738
46.7328
94.3805
0.75099
0.448946
31.6305
32.4196
1.2788
2.41655
1.71539
1.45535
0.478579
0.159709
1.36567
0.763835
2.05128
12.9866
23.3774
4.89188
8.3132
0.751022
34.4217
0.258739
1.10798
30.6454
1.27925
2.66345
11.4318
43.0323
0.457196
1.20669
1.69609
30.5855
45.5586
0.644285
41.7653
69.8941
0.830045
0.460996
69.2318
0.642698
6.48419
3.12895
57.6671
0.450358
3.95815
1.26964
0.352028
11.8793
43.5025
18.0377
3.00854
121.957
2.657
40.1014
)
;
    }
    procBoundary0to1
    {
        type            processor;
        value           nonuniform List<scalar> 
29
(
3.77894
4.42114
3.57255
3.57255
45.5445
45.5445
125.405
7.08347
76.8391
4.96144
6.21669
56.0795
5.00285
5.3925
70.9769
27.1923
59.8531
72.2065
4.42166
4.69764
11.5318
6.23802
59.0585
10.4824
10.5615
72.2065
8.29324
67.1573
10.4824
)
;
    }
    procBoundary0to2
    {
        type            processor;
        value           nonuniform List<scalar> 
42
(
18.7963
20.9244
0.335858
0.316382
4.8482
18.7963
0.335858
0.339619
2.64587
0.48018
6.58771
9.15104
6.58771
10.4742
13.2378
16.1631
13.2378
0.337988
1.07783
3.94569
3.94569
0.337988
0.284926
3.54879
3.54879
0.357263
5.57541
0.36079
13.8623
21.2399
21.2399
0.363079
0.338444
0.289412
0.253462
0.335858
18.6077
0.264215
13.8623
0.339619
0.297987
0.262039
)
;
    }
}


// ************************************************************************* //
