/*--------------------------------*- C++ -*----------------------------------*\
| =========                 |                                                 |
| \\      /  F ield         | OpenFOAM: The Open Source CFD Toolbox           |
|  \\    /   O peration     | Version:  v1912                                 |
|   \\  /    A nd           | Website:  www.openfoam.com                      |
|    \\/     M anipulation  |                                                 |
\*---------------------------------------------------------------------------*/
FoamFile
{
    version     2.0;
    format      ascii;
    class       volScalarField;
    location    "0.7";
    object      nut;
}
// * * * * * * * * * * * * * * * * * * * * * * * * * * * * * * * * * * * * * //

dimensions      [0 2 -1 0 0 0 0];


internalField   nonuniform List<scalar> 
1431
(
0.000544796
0.00524903
0.0022108
0.00140279
0.000696272
0.00123135
0.00201159
0.00078594
0.00588731
0.00502753
0.000751236
0.000428599
0.000775182
0.00132753
0.0038855
0.000662717
0.00372138
0.000916251
0.000493659
0.00069388
0.000418271
0.0076849
0.00207386
0.00142647
0.00140817
0.000659961
0.0013065
0.00123635
0.00101136
0.00101658
0.00148197
0.000725404
0.00195537
0.000638339
0.000649268
0.00183667
0.000759303
0.000857584
0.00280473
0.000856262
0.00236376
0.000660769
0.00103287
0.00093213
0.00365671
0.000520051
0.00203365
0.000808989
0.000892527
0.000868161
0.000890087
0.00333268
0.00388943
0.00206788
0.00148012
0.000770387
0.00210032
0.00225081
0.000980951
0.000337885
0.00261984
0.0007429
0.00208562
0.000782834
0.000903706
0.000881248
0.0022948
0.000858644
0.00663987
0.000749964
0.000599843
0.000591912
0.00117161
0.00143299
0.000804618
0.00118202
0.000595548
0.00286185
0.000784025
0.00198883
0.000805353
0.000828983
0.000898552
0.00221176
0.0018372
0.00083549
0.00108204
0.000564346
0.00153352
0.000739393
0.00112591
0.000736122
0.0010877
0.000861123
0.000829631
0.000653102
0.000736973
0.00072837
0.00115148
0.0011171
0.0081722
0.000804813
0.000970641
0.000738631
0.000900832
0.00218408
0.000785235
0.00300248
0.00212188
0.00063369
0.00220997
0.000967055
0.000754744
0.000775729
0.000895105
0.000656935
0.0010661
0.00454443
0.00165116
0.00282968
0.000858727
0.00316985
0.00295129
0.00138166
0.00083112
0.00244326
0.00178661
0.000724875
0.000589071
0.000808928
0.000843346
0.00285049
0.00101129
0.000994228
0.000867241
0.000898179
0.00117843
0.00117625
0.0009668
0.00279997
0.00518203
0.000645756
0.000769496
0.000954232
0.00112569
0.000775141
0.000733211
0.0031093
0.00110062
0.00080591
0.000818434
0.00095535
0.00265307
0.000363711
0.000503547
0.000669567
0.000802824
0.000832088
0.00075559
0.000708889
0.000862032
0.00090288
0.00088494
0.000619234
0.000974361
0.0026084
0.000721925
0.000862744
0.000944291
0.000987094
0.00107608
0.000913723
0.00137442
0.000768513
0.000771263
0.000271582
0.000337153
0.000875002
0.000955937
0.00071182
0.000839167
0.00371033
0.00075329
0.000808774
0.000772984
0.000813706
0.00075252
0.00108715
0.000660983
0.000799216
0.0030929
0.00350574
0.000630568
0.000790019
0.00649297
0.00084551
0.000784622
0.000836558
0.000575763
0.000490986
0.00041468
0.00065976
0.000754061
0.00229624
0.000785561
0.00157443
0.000746497
0.000834154
0.000957676
0.000877913
0.000789257
0.000782401
0.0016489
0.000831591
0.000981096
0.001113
0.000756425
0.00187337
0.00155125
0.000833686
0.000830215
0.00203979
0.00077664
0.00207635
0.000825743
0.000874935
0.000977333
0.000902096
0.000830456
0.00162128
0.000934953
0.000996241
0.000746665
0.000796132
0.000789908
0.000783117
0.000736209
0.00069654
0.000826676
0.00280502
0.000841411
0.000724855
0.0072838
0.00297611
0.000625037
0.000600043
0.000830373
0.00101629
0.00110907
0.000977079
0.000723304
0.00667532
0.0055184
0.00111417
0.00226397
0.00109405
0.000359049
0.00237928
0.00113004
0.00110368
0.00108206
0.00057343
0.00108199
0.00512549
0.000789504
0.000810146
0.00103116
0.000745965
0.000966256
0.00685507
0.000744235
0.000948024
0.000726257
0.000726241
0.00107114
0.000764693
0.00104262
0.0012758
0.0013133
0.00457561
0.00494868
0.00309059
0.00221061
0.00095223
0.00102802
0.00115409
0.000883821
0.000754371
0.000908768
0.000832244
0.000776236
0.00086808
0.000747679
0.00151327
0.000731768
0.000744634
0.000602027
0.00076526
0.00306051
0.000704497
0.000843644
0.00101918
0.000821706
0.000739961
0.000685062
0.00383358
0.000828424
0.00110152
0.0011119
0.00137993
0.000835874
0.000783533
0.00223263
0.00120143
0.000637819
0.00427385
0.00435589
0.00290288
0.00079479
0.00661567
0.0037303
0.00497186
0.00392539
0.00354789
0.00863855
0.00765793
0.000806445
0.00811636
0.00177311
0.000830835
0.00248007
0.000649514
0.00261948
0.00245698
0.000785958
0.00850147
0.000726556
0.00318898
0.000706603
0.0010188
0.000434607
0.000822372
0.00852366
0.000936502
0.0016654
0.000237028
0.000826288
0.000340315
0.000312249
0.00044846
0.000420067
0.000238371
0.000301797
0.000460124
0.000309795
0.000421016
0.000253495
0.000229166
0.000490589
0.000343057
0.000343855
0.000455154
0.000437285
0.000183811
0.000430578
0.000336914
0.00038314
0.000462557
0.00206693
0.00187448
0.00485267
0.0022326
0.00611236
0.000761804
0.00139782
0.00133012
0.00363879
0.000841895
0.000848842
0.000551892
0.000231764
0.000345764
0.000486309
0.000268567
0.000546538
0.000411049
0.000475323
0.000256771
0.00047942
0.000243712
0.000357891
0.00257959
0.000890545
0.000848691
0.00711216
0.000988321
0.00219523
0.000834636
0.00888884
0.000771795
0.000341263
0.00376276
0.000832667
0.00069583
0.00304473
0.000786543
0.00267598
0.000724348
0.0014111
0.00241525
0.000830445
0.000498329
0.000912579
0.00201058
0.00102943
0.00101887
0.00500243
0.00604237
0.00257039
0.00159433
0.00325293
0.0038923
0.00979438
0.00290992
0.00242173
0.00522012
0.00408299
0.00735355
0.00606614
0.00615025
0.0051427
0.00176263
0.00052774
0.00625996
0.00314207
0.00591639
0.00548867
0.00614112
0.00313532
0.00293839
0.00228198
0.00114349
0.00549956
0.0048642
0.000392263
0.00744421
0.0082485
0.00156887
0.000390204
0.00751688
0.0070239
0.00953315
0.00797948
0.0097738
0.00453924
0.00966157
0.00938301
0.00873863
0.00964276
0.00302037
0.00284911
0.000723207
0.00296494
0.00182421
0.00287272
0.00270266
0.0014611
0.00282317
0.00218109
0.0027571
0.0024441
0.000814361
0.000740762
0.00105808
0.00159023
0.0026293
0.0024157
0.00236589
0.0034045
0.000511029
0.00265858
0.000869482
0.00106561
0.000799609
0.000835391
0.00130941
0.00160847
0.0094869
0.00724085
0.000362935
0.00034954
0.000654482
0.00230564
0.00281715
0.000576374
0.000934297
0.00118775
0.00338377
0.000837184
0.00338815
0.00159429
0.00143494
0.00732883
0.00648437
0.00605555
0.000987453
0.00243494
0.00970624
0.00286758
0.00110837
0.001016
0.00119268
0.000743341
0.00179532
0.000792296
0.00319107
0.00308046
0.00131466
0.00277812
0.00242868
0.000962868
0.00238547
0.00187584
0.00143187
0.00114716
0.00628693
0.00381632
0.00539369
0.00212251
0.00481723
0.000816198
0.000740482
0.00359862
0.00192522
0.00856715
0.00499774
0.00788832
0.00483657
0.00708773
0.00193352
0.00669631
0.00297532
0.00463704
0.00166108
0.000278432
0.00937063
0.00618022
0.000795627
0.00940661
0.00196303
0.00348852
0.000394585
0.00107918
0.006843
0.00290021
0.00322546
0.0075656
0.00414894
0.00104017
0.000757477
0.00724154
0.00435956
0.0070441
0.00347282
0.00251283
0.00201598
0.00615213
0.000739854
0.00213322
0.00599921
0.000367584
0.00898868
0.00216289
0.0091854
0.00261651
0.000778195
0.00489162
0.00125966
0.00504033
0.000979413
0.000997425
0.000797623
0.00294824
0.00612408
0.00145078
0.00484288
0.00435202
0.000785872
0.000851131
0.000796107
0.00197313
0.00236652
0.000848174
0.000776077
0.000766262
0.00475541
0.000845692
0.00357078
0.000738669
0.000353522
0.00446203
0.00473112
0.00210848
0.00617271
0.00723381
0.00918646
0.000987224
0.00153245
0.00877335
0.00190699
0.00159316
0.00776784
0.00234856
0.00793119
0.00178404
0.000743813
0.00232711
0.00315664
0.00810185
0.00912662
0.00176136
0.00291895
0.000860158
0.000723913
0.00198904
0.000928643
0.00134086
0.000815394
0.00727564
0.000804262
0.00868817
0.000779174
0.000496888
0.000805115
0.00364343
0.00823967
0.00166903
0.000731926
0.00106201
0.000759668
0.00609888
0.00666569
0.000806264
0.00843226
0.00128364
0.00757226
0.00594887
0.00482152
0.00371444
0.000797709
0.0010229
0.00407017
0.000762826
0.00110516
0.00542723
0.00777783
0.000820269
0.000841071
0.004081
0.00840157
0.00631314
0.00125664
0.000785014
0.000961972
0.000827454
0.000305723
0.000848068
0.00948631
0.00875695
0.00213884
0.000900084
0.000821842
0.000817166
0.00558803
0.000803861
0.00076106
0.00134214
0.00121093
0.000854571
0.00102041
0.00379897
0.000402609
0.000638257
0.000888757
0.0015806
0.00265857
0.00269581
0.00721223
0.00296188
0.00334517
0.00196091
0.00637196
0.00686358
0.000714305
0.0067265
0.00117183
0.000174611
0.000374402
0.000824351
0.000720852
0.00706072
0.00102005
0.000762567
0.000863269
0.000640649
0.00132174
0.00109403
0.0087487
0.000850241
0.00240521
0.00115443
0.000991737
0.00214285
0.00951472
0.00818156
0.000635548
0.0052903
0.00711911
0.000713531
0.000770629
0.000644502
0.000838244
0.000803082
0.00308855
0.00108325
0.000626389
0.00856273
0.00887351
0.000687727
0.000335221
0.0054551
0.000491855
0.000704228
0.000720611
0.00362199
0.000765185
0.000756952
0.000869975
0.00844588
0.000762459
0.00683024
0.00773019
0.000690807
0.00105539
0.000785713
0.000663524
0.00074834
0.000862272
0.00120442
0.000648026
0.00509387
0.000753443
0.00074057
0.000762142
0.000928247
0.00075794
0.000845058
0.000840834
0.000871601
0.00194387
0.000898376
0.00119644
0.00157352
0.00172005
0.000852692
0.00241724
0.000469258
0.0017458
0.000793893
0.000754987
0.00139684
0.00304696
0.00069521
0.00175744
0.000708386
0.000777459
0.00127216
0.00224722
0.00505461
0.000642821
0.000924911
0.000302207
0.00076995
0.0041546
0.00275287
0.00350475
0.000787303
0.00202306
0.000933729
0.0021341
0.00105468
0.000770823
0.00088365
0.000928223
0.000847849
0.000834458
0.000684422
0.00145797
0.00356674
0.000806707
0.00595728
0.00656718
0.000709227
0.00108572
0.000214214
0.00345848
0.00192591
0.000833528
0.00247107
0.000549185
0.00082846
0.000808476
0.00359069
0.00111602
0.00168944
0.000833939
0.000673919
0.000597555
0.000538672
0.000649028
0.000837403
0.00073222
0.000774629
0.00422677
0.00120743
0.000776345
0.00105016
0.00705243
0.00107574
0.00102101
0.000355409
0.000662933
0.0016129
0.00116728
0.00101531
0.00105405
0.00389427
0.00112625
0.000361077
0.00423315
0.000777757
0.000722813
0.000731372
0.000663797
0.00221784
0.000709229
0.00241502
0.00419291
0.00454403
0.000818684
0.00502573
0.00486068
0.0028095
0.000460131
0.00165322
0.000669593
0.00285175
0.00344794
0.000837686
0.000865713
0.000805455
0.00092312
0.000903721
0.00105111
0.00222337
0.000531685
0.000802404
0.000760198
0.000826211
0.00119725
0.000783276
0.00182836
0.00116213
0.00574185
0.00117244
0.00077447
0.00162798
0.00121345
0.00135542
0.000817663
0.00119665
0.000903351
0.000857551
0.00150778
0.000745646
0.000548644
0.000657522
0.00294658
0.00375589
0.000708852
0.000875457
0.00263882
0.00166101
0.000824913
0.000921725
0.00287085
0.00097651
0.00218243
0.00111303
0.000826867
0.00114091
0.00109705
0.00853432
0.00597148
0.000961839
0.000960307
0.000844479
0.000768691
0.0014116
0.000586477
0.00100857
0.000804937
0.00445774
0.000715741
0.00895499
0.00452059
0.00237334
0.000862694
0.000673354
0.000799325
0.00234342
0.000783143
0.000694786
0.000813582
0.000793776
0.00106258
0.000782786
0.000730088
0.00661651
0.000694251
0.00842327
0.000747303
0.000966905
0.000580552
0.000557184
0.00057285
0.000593018
0.000526725
0.000472873
0.00283152
0.000270533
0.000336638
0.000818667
0.000395733
0.000532732
0.000446769
0.00233048
0.000632122
0.000816642
0.000144685
0.00884742
0.000164019
0.000695062
0.00611824
0.00344246
0.00134412
0.000307739
0.000783092
0.00643827
0.000832553
0.00356508
0.00887997
0.00230493
0.000819436
0.00473353
0.000144922
0.000232072
0.000860713
0.000155941
0.0021355
0.00857542
0.00887513
0.00461127
0.000956947
0.00490776
0.00925483
0.00081556
0.000159138
0.000192276
0.000990411
0.00550924
0.000780225
0.0049894
0.00208178
0.00244989
0.000738604
0.000253123
0.00282957
0.000155106
0.000994846
0.000196708
0.000822855
0.00438997
0.00520009
0.000830289
0.00166299
0.00763941
0.000896876
0.00217846
0.000683093
0.000803749
0.000936312
0.000809675
0.00147935
0.00127036
0.000776227
0.00118172
0.00370631
0.000845964
0.00108712
0.00853777
0.00935504
0.000811973
0.000726953
0.000990335
0.00248339
0.00204079
0.00364716
0.000895135
0.00805075
0.00548166
0.00250097
0.00298955
0.00264563
0.00107482
0.00189309
0.00388293
0.00128508
0.000641459
0.00261124
0.00859405
0.00878513
0.00443033
0.00241884
0.000875048
0.00514454
0.00228878
0.000837406
0.00148384
0.00124064
0.00110492
0.000719262
0.000557865
0.00124323
0.00250135
0.00281572
0.00295024
0.00807944
0.000750579
0.00476391
0.00221824
0.000624134
0.00694656
0.00343802
0.00109263
0.000960591
0.00106048
0.000785794
0.000343256
0.000747698
0.00276887
0.004096
0.000846279
0.000770769
0.00077396
0.00110729
0.00090483
0.000776939
0.000840419
0.00689625
0.00074072
0.000797177
0.000777399
0.00184936
0.00082036
0.00138026
0.000185218
0.00077766
0.000791404
0.000802779
0.000164173
0.000696222
0.00129957
0.00158624
0.000743937
0.000202849
0.00097639
0.00104226
0.000794339
0.00644637
0.00464108
0.000743932
0.00117998
0.000765653
0.000534248
0.000139855
0.0014205
0.000833617
0.000602536
0.00213602
0.00180381
0.000160559
0.000921755
0.000863537
0.000328981
0.00086421
0.00548476
0.000774554
0.0012531
0.000809362
0.00120788
0.00498852
0.00158739
0.000703588
0.000906636
0.000912598
0.00566977
0.00165988
0.00103785
0.000796204
0.00145758
0.00105322
0.000790611
0.000158998
0.000888971
0.00015407
0.00133645
0.00398152
0.00222653
0.00150836
0.000788548
0.000556942
0.000514065
0.00818038
0.000401608
0.000829873
0.00328572
0.00101968
0.00098253
0.00055522
0.00156556
0.00079326
0.00764181
0.00673676
0.00102762
0.000799184
0.000805386
0.000258542
0.00153513
0.000821537
0.0029268
0.000500572
0.00133447
0.00590851
0.00196898
0.0007623
0.00432873
0.00115154
0.000516386
0.000834727
0.00133536
0.000143998
0.0012219
0.00155461
0.007985
0.00158879
0.000774585
0.000512249
0.00146156
0.000153538
0.000840556
0.00229509
0.00600168
0.000778715
0.000838146
0.000839725
0.000784649
0.000501061
0.000365294
0.00757681
0.000621909
0.00307935
0.000745163
0.000584959
0.00750161
0.000827119
0.00292327
0.0080475
0.000592185
0.00126138
0.00257444
0.00198879
0.000870532
0.000164154
0.00431169
0.00807021
0.000851708
0.00935911
0.000864041
0.000738764
0.00581823
0.00216148
0.00199569
0.00130176
0.00549747
0.000881193
0.000851128
0.000829855
0.00853356
0.000842463
0.000819758
0.0015107
0.0067943
0.000796755
0.00130313
0.00177143
0.00272581
0.00266195
0.00244535
0.0014689
0.00129044
0.00801693
0.000473845
0.000203773
0.0038441
0.000744388
0.00100656
0.000739536
0.000772488
0.000844356
0.000905692
0.00190766
0.000648906
0.00088031
0.000149789
0.00870873
0.00103681
0.000651847
0.00285382
0.000754097
0.000819288
0.00252224
0.00149246
0.00117879
0.0011386
0.00940674
0.00122185
0.000727197
0.00192593
0.000726965
0.00102813
0.000596083
0.000790439
0.000941361
0.00271837
0.00867393
0.00179958
0.000622033
0.00825339
0.000773472
0.000749143
0.00185763
0.00320979
0.00364653
0.0007692
0.000844072
0.00432877
0.00246329
0.00142085
0.00445785
0.00572856
0.00114992
0.00134665
0.000827749
0.00081097
0.000813775
0.00087588
0.000772524
0.000838534
0.00101065
0.00061412
0.00409785
0.000814625
0.000954352
0.00350358
0.00224676
0.00883858
0.00830601
0.00731491
0.00095829
0.00242524
0.00113607
0.00348161
0.000555331
0.000389705
0.000845878
0.000989109
0.00426603
0.000864179
0.00127516
0.00861093
0.000784443
0.00358061
0.00868686
0.00917564
0.00809404
0.00940581
0.000774476
0.00365037
0.0089144
0.000845119
0.000782331
0.000280483
0.00632568
0.00482309
0.000430735
0.00540081
0.00864718
0.000917282
0.00132521
0.000456071
0.000154801
0.00212285
0.00894367
0.00160581
0.00216557
0.0010387
0.000854755
0.00949683
0.00110487
0.00150839
0.00400167
0.000525097
0.00219589
0.000758052
0.000994453
0.00189312
0.000817572
0.000923987
0.000853627
0.000724479
0.00441469
0.00128744
0.00078013
0.000143388
0.00141975
0.0010489
0.000801099
0.000573163
0.000754885
0.0011292
0.000683483
0.00157247
0.00503311
0.00123054
0.0022339
0.00103116
0.000856153
0.000747748
0.00536235
0.0010822
0.00252047
0.000723085
0.00293559
0.00274427
0.00226116
0.000659283
0.000752448
0.000562658
0.000696427
0.000945495
0.000610626
0.000877257
0.000733377
0.00513452
0.00119279
0.00470376
0.000759498
0.000792052
0.00800425
0.000854486
0.0018382
0.00280134
0.00279338
0.000810604
0.00102607
0.00171316
0.000842881
0.0031721
0.000674435
0.000894751
0.000846597
0.00132536
0.00352551
0.00865102
0.000835022
0.0011739
0.000689994
0.000280914
0.000886048
0.000498664
0.000837314
0.000831288
0.00133126
0.0047513
0.00150023
0.000876665
0.000909429
0.000912364
0.000791966
0.00158426
0.00913506
0.0087901
0.00831666
0.00074073
0.000668773
0.0085718
0.00810908
0.00803717
0.00698225
0.00430687
0.000802069
0.000758638
0.00114648
0.000742782
0.000646652
0.000939127
0.00158911
0.000565549
0.000824175
0.000979567
)
;

boundaryField
{
    frontAndBack
    {
        type            empty;
    }
    wallOuter
    {
        type            nutkWallFunction;
        Cmu             0.09;
        kappa           0.41;
        E               9.8;
        value           nonuniform List<scalar> 
90
(
7.98948e-05
7.67538e-05
7.78083e-05
7.56732e-05
8.28949e-05
8.47964e-05
8.66907e-05
9.42319e-05
8.0043e-05
8.90024e-05
9.15005e-05
9.51754e-05
9.06712e-05
9.32783e-05
9.24051e-05
0.000105465
9.97638e-05
8.12603e-05
7.22585e-05
6.52282e-05
7.83405e-05
0.00010016
8.80545e-05
9.29485e-05
8.0075e-05
0.000114283
0.000114182
8.78068e-05
8.37002e-05
7.01357e-05
6.72109e-05
6.91652e-05
7.1649e-05
6.3425e-05
5.67024e-05
4.69196e-05
1.50074e-05
1.76073e-05
8.36694e-05
3.54945e-05
1.49366e-05
2.58946e-05
0.000102799
1.66379e-05
1.66049e-05
2.10558e-05
1.67152e-05
0.000117869
2.2478e-05
0.000106934
0.00011752
7.73984e-05
7.54071e-05
9.25185e-05
9.32001e-05
1.78055e-05
2.31732e-05
0.000115799
0.000123377
8.94116e-05
6.46965e-05
1.43427e-05
1.73354e-05
0.00010315
9.69538e-05
8.47754e-05
0.000108738
1.67187e-05
0.000106041
1.64528e-05
6.25877e-05
1.45486e-05
9.29916e-05
1.6558e-05
9.34291e-05
7.51759e-05
7.16219e-05
0.000103937
1.76849e-05
0.000101802
5.73814e-05
0.000105058
1.52812e-05
7.51589e-05
7.41665e-05
1.66833e-05
9.35974e-05
1.45981e-05
8.23796e-05
8.38915e-05
)
;
    }
    inlet
    {
        type            calculated;
        value           uniform 0.000851986;
    }
    outlet
    {
        type            calculated;
        value           nonuniform 0();
    }
    wallInner
    {
        type            nutkWallFunction;
        Cmu             0.09;
        kappa           0.41;
        E               9.8;
        value           nonuniform List<scalar> 
138
(
5.33504e-05
5.951e-05
0.000221266
7.83463e-05
7.94414e-05
7.89584e-05
0.000256386
0.000101434
7.37557e-05
7.25682e-05
0.000138664
0.000119816
4.48486e-05
6.08193e-05
3.36467e-05
4.05758e-05
6.96936e-05
6.00069e-05
5.11175e-05
7.96045e-05
0.000233792
0.000129037
4.24902e-05
0.000133024
0.000130106
0.000127706
0.00012204
0.000126492
0.00012169
0.000129866
0.000131016
5.35454e-05
2.84071e-05
4.14862e-05
3.72745e-05
5.41141e-05
5.19451e-05
2.70654e-05
3.68674e-05
5.48006e-05
3.6703e-05
5.1892e-05
2.93594e-05
2.63969e-05
5.90295e-05
4.14367e-05
4.11387e-05
5.51179e-05
5.1827e-05
2.02886e-05
5.21433e-05
4.11526e-05
4.51039e-05
5.62748e-05
6.67326e-05
2.64857e-05
4.24905e-05
5.88825e-05
3.21169e-05
6.63266e-05
4.84666e-05
5.78916e-05
2.97475e-05
5.73864e-05
2.83135e-05
4.3781e-05
4.11151e-05
5.97856e-05
0.000120475
6.36326e-05
0.000133375
4.77535e-05
4.84783e-05
8.71395e-05
0.00012484
6.30942e-05
0.000125677
4.49912e-05
4.31416e-05
7.96047e-05
7.07763e-05
0.000139238
0.000166014
0.000129407
0.000119098
0.000153066
3.30098e-05
4.78941e-05
0.000127388
0.000123046
4.48767e-05
4.36549e-05
6.23618e-05
3.77724e-05
4.91581e-05
1.8998e-05
4.58167e-05
4.05165e-05
6.04679e-05
8.32239e-05
0.00010524
5.55824e-05
8.55466e-05
3.65743e-05
0.000110314
2.42531e-05
4.39603e-05
0.000132605
4.36783e-05
5.53726e-05
7.03903e-05
0.000125539
3.13688e-05
4.09358e-05
5.3416e-05
0.000113622
8.87835e-05
2.88205e-05
9.51739e-05
0.000111264
4.18349e-05
2.017e-05
9.33102e-05
3.99046e-05
6.67533e-05
4.71589e-05
9.6499e-05
2.97504e-05
6.01679e-05
4.32039e-05
2.26945e-05
8.06552e-05
0.000134729
8.92516e-05
7.86293e-05
0.000182569
6.89212e-05
0.000114599
)
;
    }
    procBoundary0to1
    {
        type            processor;
        value           nonuniform List<scalar> 
29
(
0.00165954
0.00272521
0.00251889
0.00251889
0.00515957
0.00515957
0.00297099
0.000946269
0.00188088
0.00324025
0.00166323
0.00196259
0.000792284
0.000815258
0.0023132
0.0013208
0.0078847
0.00566372
0.00359932
0.00292202
0.000881631
0.000732095
0.00310535
0.000742613
0.000729494
0.00566372
0.000728231
0.000921353
0.000742613
)
;
    }
    procBoundary0to2
    {
        type            processor;
        value           nonuniform List<scalar> 
42
(
0.00603493
0.00804329
0.000957657
0.000775672
0.00279891
0.00603493
0.000957657
0.00110556
0.00192049
0.00126487
0.00522916
0.00723431
0.00522916
0.00806598
0.0088268
0.00419032
0.0088268
0.00138477
0.00137458
0.00228685
0.00228685
0.00138477
0.00140154
0.00154368
0.00154368
0.00129767
0.00160924
0.00108116
0.00255457
0.00898722
0.00898722
0.000935239
0.000893374
0.000959538
0.00112899
0.000957657
0.00911505
0.000185369
0.00255457
0.00110556
0.00116717
0.00122561
)
;
    }
}


// ************************************************************************* //
