/*--------------------------------*- C++ -*----------------------------------*\
| =========                 |                                                 |
| \\      /  F ield         | OpenFOAM: The Open Source CFD Toolbox           |
|  \\    /   O peration     | Version:  v1912                                 |
|   \\  /    A nd           | Website:  www.openfoam.com                      |
|    \\/     M anipulation  |                                                 |
\*---------------------------------------------------------------------------*/
FoamFile
{
    version     2.0;
    format      ascii;
    class       volVectorField;
    location    "0.04";
    object      U;
}
// * * * * * * * * * * * * * * * * * * * * * * * * * * * * * * * * * * * * * //

dimensions      [0 1 -1 0 0 0 0];


internalField   nonuniform List<vector> 
5794
(
(0.106059 3.09634 -2.41657e-17)
(0.0116972 1.86112 0)
(-2.71224 3.11768 -8.15854e-17)
(-0.1943 1.21388 1.82232e-16)
(3.01234 1.36736 3.37402e-17)
(-0.218338 2.65813 -1.11077e-16)
(0.764837 0.124282 -3.08046e-16)
(0.780173 0.108854 0)
(1.89865 0.0293665 1.99641e-16)
(2.12249 -0.116129 1.98788e-16)
(0.587377 0.0153599 6.72801e-19)
(-0.14275 -0.356894 0)
(0.0970238 -0.0719381 9.49211e-16)
(1.17837 3.92842 2.69658e-16)
(1.89721 -0.0514425 4.87091e-16)
(0.390282 -0.0119326 -2.01483e-16)
(3.35404 -0.353288 5.24441e-17)
(0.381021 2.86652 2.35455e-16)
(1.71764 -0.00717798 4.69031e-16)
(0.158309 1.84146 1.53977e-16)
(-3.10739 1.33562 -2.69857e-17)
(0.0566005 3.47166 -1.14227e-16)
(0.774317 0.224043 4.71041e-16)
(0.983419 0.122483 -7.18961e-16)
(0.821383 0.0308777 -6.08255e-16)
(3.3725 9.54083 2.55875e-17)
(8.2678 -0.570307 0)
(0.145593 2.57461 -2.09915e-16)
(0.0963845 1.8108 -9.36827e-17)
(0.152902 -0.729028 3.42955e-16)
(0.0951789 -0.015465 -9.20361e-16)
(0.555537 -0.56763 -7.31128e-16)
(0.366146 0.012296 -1.38613e-15)
(0.915114 -0.492495 5.23402e-16)
(0.589945 -0.481537 -2.78703e-16)
(0.552702 -0.589407 2.89374e-16)
(8.74017 1.49776 -2.23666e-16)
(0.570183 -0.0728423 0)
(0.214117 0.0352908 2.62575e-16)
(0.327663 3.06133 0)
(0.482212 2.58097 -1.35577e-16)
(0.694412 2.30837 1.49412e-16)
(3.13477 0.0686583 -5.41481e-20)
(0.299448 3.43643 0)
(1.74028 0.0183281 -4.40499e-16)
(0.460887 0.0463593 2.71656e-16)
(1.69315 0.0330266 -3.65116e-16)
(0.208382 0.0221123 0)
(1.4481 -0.160989 7.47263e-16)
(0.512072 0.0739793 9.16301e-17)
(0.47348 0.0719924 -2.09586e-16)
(1.25315 0.0352753 -4.17011e-16)
(-2.99985 3.0784 0)
(2.46814 1.06607 1.46748e-16)
(0.0292126 0.0273359 1.29463e-17)
(0.671062 0.216736 0)
(2.09082 0.361108 -2.90682e-16)
(0.364723 0.152038 2.47478e-16)
(3.22936 0.0866463 0)
(4.83841 8.66881 -8.43116e-19)
(7.89346 0.672246 2.09416e-18)
(0.544557 0.596762 -1.54409e-16)
(0.157485 -0.0375601 -2.45712e-16)
(1.20957 -0.525263 2.69307e-16)
(0.370727 0.0390814 0)
(0.492616 0.025019 -3.36305e-18)
(-0.511821 4.76059 -2.06107e-16)
(0.120645 4.48355 0)
(0.354455 2.31134 -2.55044e-16)
(0.0788146 1.01886 -9.72381e-22)
(1.26577 -0.0753328 3.21781e-16)
(-0.235539 4.36126 -3.02256e-16)
(10.9346 2.11195 -3.9086e-18)
(0.915149 -0.655221 0)
(0.568158 2.68801 2.37335e-16)
(0.153402 1.31285 3.60176e-19)
(0.792889 -0.0651758 1.63664e-16)
(1.81568 9.19658 -2.70656e-17)
(-0.0435395 3.22147 3.72392e-17)
(0.331518 -0.0678293 8.75818e-17)
(-0.278282 3.73176 -1.31191e-17)
(-0.160626 2.11755 -1.40466e-16)
(0.344457 2.43361 -4.87367e-20)
(0.226859 0.0151433 -1.72201e-16)
(0.470997 -0.0780781 -5.51234e-16)
(0.0635819 1.92476 -7.83701e-17)
(0.121572 5.42284 3.54027e-17)
(0.064174 1.27474 -4.78561e-17)
(0.869927 0.465597 -2.09598e-16)
(0.806572 0.618868 -6.94931e-17)
(0.0485104 1.40495 -1.69986e-16)
(0.314965 4.24849 -1.19363e-16)
(0.168153 2.73512 2.69772e-16)
(-0.0404628 2.35371 1.40202e-16)
(0.0927685 3.3578 5.67439e-17)
(0.897715 -0.0870257 1.01558e-17)
(-0.0613673 1.31578 -1.1892e-16)
(-0.103537 2.87404 -2.81775e-17)
(0.215273 4.81351 0)
(7.41604 0.683036 -3.49942e-17)
(2.61671 5.47367 -7.43949e-17)
(-0.91705 -0.308111 -4.63507e-16)
(3.29411 0.0920289 1.23465e-16)
(1.22441 3.48603 -4.01119e-16)
(2.05732 0.428608 0)
(0.282694 2.51675 0)
(0.0851191 1.05477 0)
(0.420106 0.0829492 -3.33702e-16)
(0.566898 -1.11544 -2.07223e-16)
(-0.246266 3.06457 -1.05892e-16)
(0.675419 0.00383057 -1.14118e-19)
(1.35475 0.0563118 0)
(-0.378542 7.01674 5.95693e-17)
(0.483892 0.0211714 1.86304e-16)
(-0.110196 3.53007 0)
(-0.0414637 1.96996 0)
(1.72218 0.125181 -3.44564e-16)
(0.292183 2.37378 3.06872e-19)
(8.3332 0.634807 -4.29881e-20)
(10.742 1.12387 4.57029e-18)
(0.313807 2.45454 2.43315e-16)
(2.27006 -0.0514617 0)
(-0.770648 -0.52394 0)
(-0.0897026 2.18126 -2.71928e-16)
(1.48377 0.0347941 2.20148e-16)
(1.43519 0.795265 8.65687e-17)
(1.91388 4.26471 0)
(-0.0493453 2.774 6.67098e-17)
(1.56576 0.141434 2.9458e-16)
(0.664704 0.0346507 2.00537e-16)
(0.201814 -0.0698656 4.59107e-16)
(0.133667 0.000138726 3.30002e-16)
(2.93159 1.67541 2.09925e-17)
(1.20912 8.71765 -8.35247e-17)
(0.303355 2.58486 3.06168e-16)
(1.76047 -0.0829945 0)
(3.53454 -0.0679339 1.19394e-16)
(0.512601 0.457652 -2.21813e-16)
(0.389962 0.233488 2.28859e-16)
(0.869839 0.0102263 0)
(0.209727 0.384023 -7.20822e-16)
(1.68207 2.53584 0)
(1.53709 0.0997915 0)
(1.14782 2.77308 3.87053e-16)
(0.258317 0.532901 2.46096e-16)
(4.22069 -0.111361 1.8493e-17)
(0.27062 0.949795 3.11887e-16)
(4.2478 0.0493034 3.75828e-16)
(3.00047 0.886395 -2.23908e-18)
(0.713099 0.371553 6.01796e-16)
(2.25038 0.167978 -3.24019e-16)
(2.01897 0.270718 3.01981e-16)
(0.275859 2.52607 0)
(-1.09726 -0.193661 2.40562e-16)
(6.82595 -0.845287 0)
(1.66901 -0.00921279 0)
(0.191746 0.0139911 -4.38269e-16)
(0.224257 0.00196354 5.94398e-16)
(0.31093 0.00419481 -4.90403e-16)
(0.425268 -0.0526888 -1.90604e-16)
(1.12624 -0.110741 4.40928e-16)
(0.358385 0.0543841 -5.25135e-16)
(0.565164 0.0292934 0)
(0.287487 0.0764986 -2.15497e-16)
(0.397249 0.0500051 -5.67018e-16)
(0.593056 -0.0594938 3.00576e-16)
(0.313717 -0.0377067 1.9366e-18)
(0.390804 -0.0223478 -5.65151e-18)
(0.61255 -0.0357913 0)
(0.974749 0.0252354 1.04332e-18)
(0.55759 -0.0211269 0)
(-0.98397 -1.00593 -1.62337e-16)
(-0.482131 -0.709979 0)
(-0.269199 -0.584049 1.30695e-16)
(-0.0923292 -0.580144 5.33608e-16)
(0.753299 0.00219587 0)
(1.45639 0.0143866 -2.51842e-16)
(0.704713 0.0196463 -3.3886e-16)
(0.937542 0.0185146 -1.06471e-16)
(1.333 -0.0134396 1.38229e-17)
(0.231353 -0.0180966 -7.67014e-18)
(0.789305 0.0166225 0)
(0.141397 -0.00174225 0)
(0.239065 0.0148058 1.78258e-16)
(0.090397 0.0109479 0)
(1.71606 -0.646088 7.46498e-17)
(-1.29096 -0.239881 -1.76602e-16)
(0.398909 -0.00509768 -1.34476e-16)
(1.64354 -0.0843964 1.37478e-16)
(-1.51396 -0.695495 3.68059e-16)
(0.473366 0.0120426 -5.36395e-16)
(0.587023 -0.0556329 5.17243e-16)
(0.305724 0.026962 8.78467e-16)
(0.116042 0.0260231 8.65093e-16)
(0.110768 -0.0204663 -1.53775e-16)
(0.10132 -0.0655171 -7.3856e-16)
(0.687994 0.0183251 -2.98199e-17)
(0.914101 0.0297324 -2.1449e-16)
(1.56754 -0.0279738 -3.19349e-16)
(2.87682 -0.00414228 1.83496e-16)
(0.675092 0.0104049 -3.02763e-17)
(1.17415 0.0598283 0)
(0.211362 0.0273534 0)
(0.259762 0.0311271 1.56965e-17)
(1.52328 -0.0197081 -8.51397e-17)
(0.392268 0.0193672 0)
(0.368329 0.0574827 1.54115e-17)
(0.227634 0.313565 -4.87369e-21)
(5.93779 0.621195 -6.82972e-18)
(1.48274 6.16986 1.71059e-16)
(-0.289487 3.38225 9.77467e-17)
(8.07645 0.201027 0)
(0.51623 -0.0523477 -1.69411e-16)
(0.560479 -0.0390355 2.48273e-16)
(1.16613 -0.090035 0)
(0.953713 -0.11416 1.01854e-15)
(0.980532 -0.182335 -2.39584e-16)
(2.84249 1.4764 1.04491e-16)
(0.627189 0.0434716 2.29877e-16)
(0.497345 1.84544 -3.67624e-16)
(8.12755 0.141023 0)
(0.198547 0.261702 4.04103e-16)
(0.141748 1.01366 0)
(-0.281694 2.09034 5.33067e-17)
(3.73628 -0.147087 1.73166e-16)
(10.2669 0.803271 2.38357e-18)
(2.63393 -0.58376 -5.84225e-17)
(2.34645 0.0242459 -1.13883e-16)
(2.4202 0.0672533 0)
(1.89245 -0.0315149 -3.07558e-16)
(-0.204987 -0.251329 0)
(-0.11626 -0.265648 -9.62932e-17)
(0.55779 -0.115535 -1.29567e-16)
(0.856273 -1.21716 2.21369e-16)
(0.514967 0.173571 2.69995e-16)
(8.76585 -0.0431208 7.57006e-18)
(7.69987 0.468559 2.40199e-18)
(3.02883 0.187585 4.59375e-17)
(-0.610577 -0.557274 -2.61941e-16)
(0.529352 3.42039 -3.30794e-16)
(-0.158477 1.50311 0)
(0.26612 0.615972 1.67059e-15)
(1.12239 6.47671 2.04058e-16)
(0.0443021 0.932793 -3.12787e-16)
(0.478481 0.388795 3.6568e-16)
(0.700474 0.11065 3.70445e-16)
(1.65534 0.0861871 -1.51324e-16)
(3.18559 0.617694 9.86568e-18)
(-0.0525328 1.13654 0)
(-0.114153 2.34812 0)
(0.0305141 4.53997 0)
(0.501551 0.0228242 3.49951e-17)
(5.55222 -0.837226 -7.4324e-17)
(0.501063 -0.0769646 1.52642e-20)
(2.93566 2.22761 -8.03147e-17)
(5.42998 1.51916 -1.39578e-17)
(3.36628 0.0909788 -2.64299e-16)
(4.00921 0.474487 2.75291e-16)
(0.141483 0.269756 3.67117e-16)
(1.50146 -0.00415955 0)
(3.40418 -0.0171349 -1.71808e-16)
(0.541829 -0.012895 1.44671e-16)
(0.573643 -0.00840565 -1.41989e-16)
(0.52022 0.0215554 0)
(0.57109 -0.0126027 0)
(0.678225 0.0490015 -8.21987e-19)
(0.293345 1.4701 2.0793e-16)
(2.4312 0.329372 0)
(1.41973 -0.0670445 -7.26501e-16)
(0.382493 0.0241752 -2.37894e-16)
(1.78013 -0.103439 0)
(0.218767 -0.0143168 -4.32735e-16)
(0.591617 0.980856 -6.8698e-16)
(1.22535 0.0677077 -4.35752e-16)
(7.95118 -0.0576046 4.1781e-17)
(1.81715 -0.0887247 3.20626e-16)
(2.70871 0.74678 -1.4863e-16)
(0.345322 0.132739 -1.2315e-16)
(1.35977 0.460445 -1.959e-16)
(0.673996 0.184709 -3.95219e-16)
(1.01056 0.060438 4.10012e-16)
(-0.0911426 1.34129 4.41534e-16)
(0.710603 2.56289 1.36697e-16)
(0.911803 2.23971 -4.00108e-16)
(0.628818 3.06286 7.45496e-17)
(0.225715 2.6868 2.03467e-16)
(0.851438 3.72015 1.71937e-17)
(0.502624 3.14226 0)
(0.157964 2.24703 8.96165e-17)
(0.354598 2.6476 0)
(0.854871 -0.628379 -2.12298e-17)
(0.894296 -0.52036 -1.66611e-16)
(1.25135 -0.423307 2.57353e-18)
(2.43303 0.243038 0)
(4.10215 2.80771 0)
(1.47288 6.10446 9.74434e-18)
(1.01349 2.74737 7.46558e-17)
(1.27573 2.47311 3.3034e-19)
(0.973721 3.2757 -2.76677e-16)
(0.509392 0.0275291 -2.156e-16)
(0.0409486 1.51784 1.06485e-16)
(0.167174 8.92896 0)
(-0.123382 2.89023 -5.62235e-16)
(1.03723 6.85357 0)
(0.0228735 4.4278 -1.19056e-16)
(2.94668 0.13014 2.02698e-18)
(1.22763 0.503838 -2.78335e-16)
(0.856492 1.84455 4.53329e-16)
(0.36564 0.0185761 5.3909e-16)
(1.83478 -0.0692357 0)
(0.213323 -0.0186795 -9.23905e-16)
(0.666056 0.103677 -3.7872e-16)
(0.983615 6.46161 -1.7202e-16)
(0.478752 0.0281038 -1.05166e-16)
(10.6198 0.101772 0)
(9.58647 0.382663 -1.8094e-17)
(0.463855 0.0923202 -1.26412e-16)
(0.325372 2.76744 -4.08553e-16)
(0.464116 -0.664042 -4.13697e-16)
(-0.155732 1.62916 -9.41204e-17)
(0.822133 0.668973 6.03888e-16)
(0.75416 0.731235 -2.7598e-16)
(0.323728 2.18086 -1.91293e-16)
(3.27435 1.03889 -1.04472e-18)
(0.337126 -0.0499175 0)
(0.290904 0.0656694 0)
(0.218131 -0.421059 0)
(0.0323507 0.00637377 1.01257e-16)
(0.128525 0.0303574 -5.6111e-16)
(0.545034 0.0265508 4.53726e-16)
(1.27077 0.017576 -1.43993e-17)
(2.91381 -0.000290884 4.60711e-16)
(0.0451433 -0.00875877 1.33405e-16)
(0.35548 -0.0227346 7.01946e-16)
(-0.1045 -0.597517 0)
(1.83402 -0.133466 -2.41613e-16)
(2.04849 0.00291953 0)
(0.614143 0.00918139 0)
(1.30845 -0.0797934 -3.32799e-16)
(0.264917 -0.00633964 0)
(0.902751 0.0204997 5.1421e-16)
(0.736981 0.00642981 5.89762e-16)
(1.55655 -0.0286704 0)
(0.683632 0.030214 0)
(1.60034 0.00276308 4.45823e-16)
(0.0921438 0.00884101 5.52063e-16)
(0.142965 0.0155158 4.69397e-16)
(0.719436 -0.132507 -3.01009e-17)
(0.59866 -0.117483 -2.24056e-16)
(0.508704 -0.0338321 1.12296e-16)
(0.182539 0.0586832 1.20703e-16)
(2.71897 -0.0342693 2.50603e-16)
(0.260698 0.00129204 -3.28844e-17)
(0.741728 0.0690744 2.06414e-16)
(0.111941 -0.00408944 0)
(0.924616 0.0156707 0)
(1.53578 0.0150139 1.92162e-16)
(1.17795 -0.0364074 3.51332e-16)
(0.704123 0.0739759 1.06578e-16)
(0.711489 0.0583899 0)
(0.280466 0.23915 -3.73528e-16)
(0.698086 -0.0937499 7.11062e-16)
(3.40796 -0.012501 4.79829e-17)
(0.682499 0.0873651 -5.51963e-17)
(0.691585 0.0897872 -3.80958e-16)
(2.64715 0.185351 4.21504e-16)
(0.508898 0.0182372 -7.04187e-17)
(0.499671 0.0359796 0)
(1.59929 0.0450199 4.66291e-16)
(0.263799 0.0054493 -1.40395e-16)
(1.15814 1.11786 -1.3736e-16)
(0.504752 0.0101136 0)
(2.48027 0.271064 -1.0046e-16)
(-0.0297134 1.76706 3.06431e-16)
(0.531997 0.115636 1.1422e-16)
(0.268653 -0.259853 2.99703e-16)
(0.778444 0.240626 0)
(2.095 0.439277 1.12114e-16)
(0.441981 0.291173 0)
(1.3157 0.15712 1.45595e-17)
(-0.165472 2.70894 1.56707e-16)
(1.01872 1.05383 0)
(10.7948 0.10646 0)
(0.45955 -0.3387 2.2947e-16)
(0.506509 -0.276223 -8.93564e-16)
(0.802825 -0.319031 -4.16301e-16)
(0.116461 2.014 -7.61707e-17)
(0.481644 0.134384 4.20364e-16)
(0.514492 0.10845 -1.43885e-15)
(0.293429 -0.0666327 0)
(0.340658 -0.025212 -1.05532e-15)
(0.556689 0.860493 5.43813e-19)
(0.0157281 1.03472 -2.74581e-18)
(0.959681 0.113817 1.86018e-16)
(-1.57005 -0.367384 1.09149e-16)
(-1.31785 -0.267803 -1.19058e-16)
(-1.20601 -0.193493 1.30306e-16)
(1.28401 4.64386 0)
(1.40626 -0.240237 0)
(0.850069 -0.0513364 -4.45425e-16)
(1.0459 0.00105284 1.66418e-16)
(0.887789 -0.062329 -5.98654e-16)
(8.77932 -0.202114 4.19419e-17)
(0.547064 0.0866152 2.47858e-16)
(1.03347 0.0647292 0)
(2.80029 0.37647 7.61717e-17)
(1.3619 6.38271 6.918e-19)
(-0.0634153 2.71376 1.75056e-16)
(-0.0108518 1.02564 -4.17237e-17)
(0.0188742 1.20721 -1.2841e-16)
(-0.162965 2.66145 4.73328e-17)
(0.245457 5.49505 0)
(1.16277 0.327519 2.21185e-16)
(-1.97443 -0.0956647 3.47031e-16)
(0.370162 0.00801273 3.7176e-17)
(1.58699 -0.0597626 1.06941e-16)
(0.202037 -0.0133388 0)
(-0.200544 1.78258 2.86243e-16)
(-0.355841 -0.367164 0)
(-0.0555913 1.29057 8.64082e-17)
(0.176854 5.04206 -8.62403e-17)
(-0.162928 2.88435 6.00441e-17)
(0.572019 0.0404044 -1.88842e-17)
(1.33832 1.20663 -4.02329e-17)
(-0.132829 -0.199051 0)
(0.0305663 -0.173822 0)
(0.230002 -0.210083 -2.53164e-16)
(0.488112 0.0163394 -2.43049e-16)
(-0.0424872 1.96478 -1.34487e-17)
(-0.237131 3.16096 4.40089e-17)
(2.20942 -0.259191 5.2749e-16)
(9.91914 0.386988 1.259e-17)
(0.519485 2.38133 -4.00418e-16)
(1.63878 -2.81969 -1.57995e-17)
(1.85204 0.0386873 3.26625e-16)
(1.50634 0.200233 0)
(0.375926 -0.00899229 2.25378e-16)
(0.230974 0.0170511 -1.5029e-17)
(0.223349 -0.106405 -1.57428e-16)
(0.317046 -0.0809278 3.04273e-16)
(0.582758 -0.111469 2.92601e-16)
(9.80814 0.0616811 -2.50575e-16)
(0.128896 0.0285099 0)
(0.226159 0.0188531 1.05941e-16)
(0.371053 -0.00628091 -3.13265e-18)
(-0.110886 2.15838 -1.46754e-16)
(-0.078105 3.57776 2.77328e-20)
(0.352028 0.0607804 0)
(2.74781 2.97932 1.37178e-16)
(3.87475 7.23679 -4.49485e-17)
(1.98475 -0.0415288 -2.18342e-16)
(0.170428 2.02964 -6.15456e-17)
(-1.91469 1.16526 3.0664e-17)
(-0.0701137 3.66941 -3.62944e-16)
(-0.0174391 2.86791 -5.17911e-17)
(0.528249 0.020668 -6.49223e-16)
(-0.112391 1.36537 -4.4219e-18)
(0.654067 0.278319 -4.48873e-16)
(0.523927 3.17265 -5.49544e-17)
(0.392165 2.30503 2.05527e-16)
(0.413419 3.62212 -7.73519e-17)
(0.480817 1.60968 -2.16292e-16)
(-2.93655 5.23459 9.14586e-17)
(0.786287 0.164185 -4.7622e-16)
(6.86961 0.657482 1.08475e-16)
(0.679991 0.0358014 -3.41794e-16)
(9.11731 0.460342 -2.61808e-18)
(3.66897 2.55688 7.44759e-17)
(0.711331 0.130618 -5.42953e-16)
(-0.261551 4.2874 -4.30117e-17)
(0.50747 -0.0117636 4.66103e-17)
(6.87317 0.608832 -5.73032e-18)
(1.3797 0.384978 -9.15799e-17)
(2.32998 0.0457554 2.69956e-17)
(2.59416 -0.206835 -1.80719e-16)
(0.233156 -0.139607 1.47315e-15)
(8.09367 1.21016 -3.6861e-18)
(0.243703 2.92526 2.36705e-16)
(1.58153 0.86106 1.93613e-16)
(0.505829 1.79927 5.05903e-17)
(-2.88365 5.28491 1.46375e-16)
(0.188817 3.57639 0)
(2.69743 -0.0287649 -1.57366e-16)
(2.43496 0.0281843 1.14139e-17)
(0.498789 0.0718024 2.32474e-16)
(0.613821 0.0435583 2.3265e-19)
(8.10126 0.29445 0)
(0.477613 -0.0879946 3.02144e-18)
(3.11671 -0.0689092 -4.85492e-17)
(-0.218754 3.64049 2.80921e-19)
(0.0148154 2.0501 1.82468e-16)
(0.372825 1.58432 -2.5044e-16)
(0.640633 1.99582 8.65045e-16)
(3.45247 0.724553 9.30079e-18)
(0.652209 6.52532 -7.14563e-19)
(0.861451 0.0288823 2.87343e-16)
(0.66396 -0.276686 0)
(0.916109 1.15442 0)
(0.371776 0.0111204 -4.47142e-17)
(2.89776 0.327095 1.10958e-19)
(4.49375 1.41891 3.07888e-17)
(8.17518 0.661374 -7.97732e-18)
(9.89992 1.05026 3.26694e-18)
(0.385013 0.0416096 0)
(0.734848 3.15339 0)
(0.552004 1.28733 2.28146e-16)
(0.728556 3.11233 1.61938e-16)
(4.43845 0.266964 -7.43944e-16)
(0.970932 0.446755 0)
(0.491677 0.0120628 0)
(0.761099 -0.186639 4.25979e-16)
(1.1192 0.518071 1.6517e-18)
(-0.0660158 2.73196 -1.76339e-16)
(0.554864 0.0318398 2.33836e-16)
(0.46669 0.055499 -1.19156e-16)
(0.157179 3.39476 -5.05958e-17)
(0.169101 1.95772 -3.46665e-17)
(0.579632 0.0418398 -3.09537e-16)
(8.71658 0.473046 -6.72498e-17)
(8.64354 0.197888 4.53538e-18)
(0.255153 2.57268 1.43392e-16)
(0.0969293 0.955458 -4.5404e-17)
(3.35929 1.63857 -1.33241e-17)
(0.361562 2.75836 -2.97637e-16)
(0.716807 0.0662419 1.25362e-15)
(0.518774 1.86883 6.60594e-18)
(0.49769 4.53448 0)
(1.41648 2.42301 1.33673e-16)
(0.236653 1.56853 1.15712e-16)
(0.332688 3.56488 -1.78517e-19)
(-3.1859 5.0586 1.13374e-16)
(0.439459 0.0268511 0)
(9.21889 0.21686 0)
(0.74455 1.23009 -7.03401e-17)
(2.45171 0.173416 0)
(-0.83747 -0.311884 8.69e-17)
(9.99976 0.096859 -1.02883e-16)
(3.53733 -0.165742 1.01845e-16)
(0.701745 0.0346819 1.47303e-16)
(3.54956 -0.0315336 1.45927e-16)
(-0.0926515 3.31615 6.0378e-17)
(0.617244 -2.91034 1.01233e-16)
(0.0867771 2.01684 1.9497e-16)
(1.48822 4.17453 -1.44507e-16)
(0.0719236 -0.395889 -9.9859e-17)
(0.314635 -0.0644487 0)
(8.26332 2.02805 0)
(1.32762 2.74098 -3.69204e-16)
(0.471607 0.00475079 -2.53362e-16)
(0.030686 2.70516 6.00505e-16)
(1.30925 3.37956 -4.49569e-17)
(1.53784 0.18301 0)
(1.32424 0.00111963 -4.85244e-16)
(-0.173066 4.66897 -1.15347e-16)
(0.532296 2.55281 1.39964e-16)
(1.4914 0.121424 0)
(-2.02996 5.40244 0)
(0.332969 3.32129 0)
(0.188952 1.42158 -1.85501e-16)
(1.42183 2.11271 8.73421e-18)
(10.4094 2.9792 -2.59475e-18)
(-0.258767 -0.219357 0)
(2.39226 0.49558 0)
(2.04053 0.445567 -9.57592e-17)
(1.60348 3.74912 1.08321e-16)
(1.23575 -0.478334 0)
(0.402316 0.0291889 5.32064e-16)
(-0.76783 6.2731 -2.42866e-19)
(-0.164983 1.7042 -1.65792e-16)
(0.500879 0.0112767 0)
(6.25998 0.581471 -7.68168e-17)
(0.254683 -0.683391 -2.24761e-16)
(0.192865 1.15006 1.26775e-16)
(0.362684 1.49028 0)
(0.661693 2.18448 -1.5884e-17)
(8.43728 0.727669 -2.04103e-17)
(3.86344 2.00046 -5.04989e-18)
(0.696519 3.39119 -1.91648e-16)
(0.99819 2.48428 -2.62594e-16)
(0.782457 2.80718 -5.83758e-16)
(0.377312 2.09345 -9.88821e-19)
(0.368566 3.36295 8.18547e-17)
(0.447181 0.963134 0)
(9.34012 -0.289122 2.63392e-17)
(0.604124 0.0557212 2.75951e-16)
(6.13828 0.557867 -1.61954e-16)
(0.491904 0.011947 2.20484e-16)
(-0.186405 2.78072 0)
(0.288587 4.81424 -7.16793e-17)
(-0.0891074 1.2318 3.64265e-16)
(0.494917 0.00983311 -9.45509e-18)
(0.35441 2.60899 4.93029e-17)
(0.466039 0.181359 8.45868e-18)
(0.140343 1.81799 -6.70783e-17)
(-0.00516228 3.2221 -5.09997e-17)
(0.567401 1.73636 1.31927e-16)
(1.11499 0.129941 2.03734e-17)
(9.99718 0.184641 0)
(0.525051 0.100995 5.75499e-16)
(-1.11953 -0.248652 -1.08445e-16)
(0.388689 0.0981808 -4.50308e-16)
(5.63609 0.467707 2.11212e-17)
(-0.156392 3.43147 -7.5349e-17)
(-0.156478 1.89207 4.61287e-16)
(0.522614 0.023677 3.37443e-20)
(1.01856 0.114577 -1.31181e-16)
(1.23789 5.04926 0)
(1.98163 -0.0260696 0)
(0.0358352 0.0760437 -2.5749e-17)
(0.247237 2.44533 0)
(4.14955 3.11965 -6.9534e-17)
(5.39154 2.04209 0)
(1.54278 3.80284 -2.53352e-16)
(1.49201 5.51504 2.48912e-17)
(0.305144 -0.0548235 5.30292e-16)
(0.0959585 -0.00453165 7.83666e-17)
(2.96904 0.25848 -2.40454e-17)
(0.705992 -0.00693268 -3.51995e-16)
(3.35756 0.0917103 -4.89657e-16)
(-0.0593574 0.376544 0)
(0.390672 1.08351 -9.34384e-17)
(1.18184 0.93191 3.0138e-16)
(1.49776 0.631422 -1.1357e-16)
(0.321038 0.191541 -5.21573e-16)
(0.447073 0.915328 6.87544e-16)
(0.625298 2.10623 3.13093e-17)
(0.214925 1.85081 -4.19588e-16)
(1.76584 1.48757 -1.44019e-18)
(0.173538 0.775872 -3.43481e-16)
(0.481343 -0.00611945 2.36937e-16)
(0.11101 3.5694 6.84703e-17)
(-0.0731991 1.79935 0)
(0.407409 0.54619 -9.07856e-17)
(-0.000101772 2.32464 -7.4495e-17)
(-0.0384009 0.868321 3.57595e-16)
(2.62686 -0.00471352 -9.03048e-17)
(1.21678 7.11388 -4.6461e-17)
(10.437 0.437411 -7.32618e-17)
(2.46065 0.0621981 9.15636e-17)
(0.607467 2.54059 -7.70698e-17)
(-0.32653 -0.50757 -1.75383e-16)
(3.1806 0.0798447 6.1464e-16)
(0.630354 0.040412 -4.44004e-17)
(0.405487 4.56951 4.66859e-18)
(3.58526 -0.0774099 3.18463e-16)
(-0.331624 1.79861 -3.54227e-16)
(-0.0823939 2.65645 1.42551e-16)
(5.33922 1.32564 0)
(0.671869 1.36138 -1.22122e-16)
(0.18307 0.161456 3.40206e-17)
(0.244521 1.76727 0)
(0.195069 4.48565 -1.18339e-16)
(0.699278 1.23357 6.77831e-17)
(0.261463 -0.16958 4.27841e-16)
(0.468622 -0.204903 3.67962e-16)
(3.13749 0.119648 -5.14582e-17)
(8.63902 0.761264 -1.40288e-18)
(0.22595 0.720788 -2.4922e-16)
(0.0953064 -0.0254859 3.43712e-16)
(0.472241 1.97758 -3.18863e-16)
(0.896729 0.526116 1.24652e-16)
(2.59919 -0.0644736 0)
(-0.0640055 3.48669 -9.29696e-18)
(-2.3027 5.7074 -1.59739e-16)
(0.359522 1.91812 -6.50437e-20)
(0.286413 3.02427 4.63236e-17)
(-0.07634 2.12175 -6.7034e-18)
(0.592328 2.73464 -1.98221e-16)
(1.02053 3.69677 4.37349e-17)
(0.186391 1.43896 -2.68807e-16)
(3.08647 0.122036 1.13042e-16)
(0.442356 4.79205 0)
(9.54688 1.14981 0)
(0.584637 0.334805 5.48857e-16)
(0.510049 0.338034 6.87146e-16)
(-0.0509107 3.51562 2.35069e-16)
(-0.228705 2.13344 -3.1761e-16)
(0.184333 -0.142923 1.75559e-16)
(1.68252 4.08449 -5.7745e-17)
(1.13345 2.85651 4.14378e-17)
(0.263019 1.13835 2.60505e-17)
(0.176265 0.404307 -2.21103e-19)
(1.55508 1.33477 -6.19974e-17)
(0.307356 -0.0115456 -1.37826e-17)
(2.40431 2.92546 -5.63783e-17)
(3.34227 -0.0872308 -5.0306e-16)
(-0.252853 0.881191 1.3321e-17)
(0.830242 1.21715 1.69169e-16)
(1.4985 0.445083 0)
(0.604595 0.0858647 0)
(0.0779315 2.73867 0)
(0.317998 1.98767 5.50102e-16)
(0.932384 7.00859 3.15524e-16)
(0.313695 2.84838 4.43904e-16)
(2.507 0.0545426 3.41479e-17)
(1.74577 2.58096 -7.73314e-17)
(0.38883 0.203938 0)
(0.419862 1.58115 9.29203e-17)
(-0.0411832 2.00744 3.19756e-17)
(10.5799 0.042739 -7.39308e-18)
(0.829963 -0.0456116 -1.10544e-16)
(-0.358453 -0.0744941 5.5174e-18)
(0.455031 0.0211944 -2.02839e-16)
(3.75086 0.267157 -3.41348e-17)
(0.946301 1.25506 0)
(-0.0282146 0.285826 -6.94161e-16)
(1.4882 0.10586 3.4762e-16)
(2.50974 0.00588193 0)
(0.684629 1.2907 7.70518e-17)
(0.213711 0.995461 -4.73993e-16)
(3.39266 0.0818396 0)
(0.740907 2.16582 -1.07073e-15)
(0.790989 2.94992 -2.33285e-16)
(0.332027 0.90507 0)
(1.28837 0.348086 0)
(11.269 0.291932 4.37771e-17)
(10.1897 0.726041 3.41217e-17)
(8.97966 1.52377 2.2398e-18)
(1.83712 0.735598 9.96092e-20)
(0.339032 2.44376 0)
(0.361676 0.481076 3.15177e-16)
(2.00909 5.73485 -3.91211e-17)
(3.51799 -0.126172 0)
(0.803467 1.30317 -4.89445e-16)
(4.95679 1.43701 3.15089e-17)
(0.0182249 5.00938 -8.40252e-17)
(5.12935 0.911927 -8.18849e-17)
(10.6586 0.0311599 7.96451e-17)
(0.295366 0.864133 -2.93941e-16)
(9.43252 0.52237 -1.59726e-17)
(0.262134 2.9289 2.97245e-16)
(0.657194 7.47492 5.27752e-17)
(0.235903 2.06297 -2.62287e-16)
(1.50173 1.12405 0)
(2.48255 0.128071 1.3109e-16)
(-2.549 -0.214367 -1.66398e-16)
(4.15254 0.468214 2.6521e-17)
(0.816682 0.127089 1.54231e-16)
(0.29835 4.46954 1.16253e-20)
(0.0643119 2.82834 -2.07599e-19)
(-0.0174654 1.40164 1.64455e-16)
(-0.239028 0.302795 0)
(-0.642673 0.773453 0)
(4.17467 1.37977 6.38711e-17)
(-0.522656 0.963621 1.72716e-16)
(-0.158579 2.46003 -1.86476e-16)
(0.468645 3.22576 -5.10394e-18)
(-0.183289 1.23187 0)
(0.844198 5.24121 -2.06123e-17)
(9.99624 0.0771095 8.63455e-17)
(0.837902 1.98062 0)
(-0.149734 3.78439 -3.05365e-16)
(1.37219 1.53316 6.94731e-17)
(0.540739 0.0222402 3.08143e-16)
(-0.0835124 3.45118 1.08053e-16)
(-0.030178 1.8493 3.80412e-16)
(8.0042 2.25029 0)
(0.0451291 2.28904 -8.60056e-17)
(0.149562 3.21545 -5.54643e-17)
(6.58835 1.61362 -1.27546e-16)
(0.6878 -0.485671 -8.06859e-20)
(7.42732 0.957069 8.91119e-18)
(0.524266 2.49713 8.5079e-19)
(0.127351 3.03109 0)
(-0.203227 2.11141 6.01011e-18)
(1.01002 2.28736 -1.76666e-16)
(1.11046 3.19018 -5.58524e-17)
(0.573168 1.32365 2.70664e-16)
(0.212684 4.68978 2.89138e-17)
(-0.203406 2.78816 4.39132e-16)
(0.279786 5.15331 0)
(-0.0560591 1.21957 -3.2908e-16)
(1.42434 0.72585 3.7796e-17)
(0.654277 1.26558 -1.58394e-16)
(2.35143 0.216067 7.56236e-17)
(0.259977 0.144006 5.4113e-18)
(0.348239 1.67082 1.32032e-16)
(0.703003 4.28751 0)
(2.24162 3.45823 1.56487e-17)
(-0.0899731 2.87201 -1.92798e-17)
(0.562203 0.0767275 -1.60249e-16)
(8.75644 1.11235 -9.2182e-19)
(-1.96541 5.88353 -1.67616e-17)
(0.489183 3.48878 -1.57878e-16)
(0.293051 1.38101 -1.91115e-16)
(0.540844 2.21726 -4.74809e-16)
(0.698673 3.61729 0)
(0.356213 0.269684 3.61557e-16)
(0.383539 1.91139 1.88922e-16)
(0.270414 3.18349 3.83856e-17)
(-0.0194907 0.0421593 -1.13e-16)
(0.573576 1.15704 -2.98025e-16)
(0.0859266 0.215347 8.33632e-16)
(1.06487 0.223283 7.66965e-16)
(-0.0892384 -0.171685 -3.91805e-16)
(0.594189 3.24138 3.98394e-16)
(0.0594044 2.09215 -3.51919e-16)
(0.641577 -0.342017 -1.08138e-16)
(-0.193808 3.60744 -9.10089e-17)
(1.22549 7.50108 0)
(8.20424 0.438121 0)
(0.40673 0.14884 -3.86782e-16)
(0.288331 1.57904 2.1835e-16)
(0.666774 0.896447 -7.76873e-17)
(0.871256 1.81587 0)
(2.17842 0.360702 1.07939e-16)
(0.590654 0.0780581 2.11789e-20)
(0.159736 0.536239 -8.34799e-16)
(3.26892 0.141851 2.91364e-16)
(0.487998 1.70558 2.45404e-16)
(0.442505 2.5242 -5.87987e-16)
(0.355064 0.266067 5.54139e-16)
(-0.0118459 4.90693 -1.04828e-16)
(7.43231 0.924553 -1.70549e-17)
(0.438895 1.83321 3.90803e-16)
(0.823498 0.0833664 2.21925e-16)
(0.894047 -0.151561 0)
(0.535551 -0.0207448 7.54287e-17)
(0.432785 0.673045 -1.16816e-15)
(0.107678 1.17923 -2.81632e-17)
(0.218331 2.94911 2.59101e-16)
(-0.29115 6.10688 1.68929e-17)
(4.92447 0.271714 -1.82745e-16)
(8.83441 0.00346842 -1.47497e-19)
(0.477472 -0.00216637 2.31203e-16)
(11.0075 0.0683748 0)
(1.86994 0.505043 -5.05695e-18)
(2.33193 0.0186329 2.62992e-18)
(2.49546 -0.0529488 -1.69007e-17)
(0.359381 4.64591 5.55648e-17)
(-0.100271 2.82993 7.46157e-17)
(-0.109499 1.29302 3.40765e-17)
(10.5737 0.0288702 1.40178e-17)
(0.778655 1.24638 2.27322e-19)
(0.0288394 2.74338 -9.62344e-17)
(2.33634 -0.00301269 1.24798e-20)
(0.511656 1.94116 0)
(9.32334 1.98544 -5.19611e-18)
(0.185117 0.796209 0)
(-0.6733 0.433056 1.06637e-16)
(-1.43061 0.624328 7.95952e-17)
(-0.0311487 1.04025 5.44432e-18)
(0.930408 0.276176 2.94141e-16)
(0.39843 0.803349 3.9627e-16)
(7.9955 1.57274 -1.95597e-17)
(0.452599 0.0382928 3.20645e-16)
(0.22264 0.729502 3.79874e-16)
(7.41288 1.86456 1.21715e-16)
(9.33861 0.626055 4.34328e-17)
(6.52167 1.71668 3.53317e-17)
(-0.116371 3.40104 -7.53204e-17)
(-0.225049 1.97868 5.59234e-17)
(0.0848145 0.971848 1.95677e-16)
(-0.351254 1.20587 0)
(2.57399 0.304488 6.6024e-17)
(1.3618 0.978504 1.7259e-16)
(8.70588 -0.0582472 -2.55411e-17)
(0.22299 6.71866 7.29972e-17)
(0.456485 0.0836534 3.08411e-16)
(0.192478 0.23466 0)
(5.33102 3.07456 0)
(2.03598 2.71786 0)
(-0.498562 4.65894 2.31113e-16)
(2.41482 0.115319 8.52936e-17)
(0.96719 1.78202 4.42011e-16)
(0.973671 2.49421 4.62042e-17)
(1.09138 5.86906 -7.50121e-17)
(1.07939 0.205198 0)
(0.921014 1.6056 8.76519e-17)
(0.55125 3.02236 -2.33087e-16)
(0.481517 0.349465 -9.39234e-16)
(11.1714 0.118158 9.60468e-17)
(2.54279 0.462944 0)
(-0.242647 2.7341 1.61398e-16)
(0.976909 3.75948 0)
(1.69444 0.533651 1.64762e-16)
(0.82709 1.10556 -2.49583e-17)
(0.950379 8.27203 7.98747e-17)
(7.0708 1.2071 -1.79784e-17)
(8.40524 1.83853 1.09767e-16)
(-1.02287 -0.0649687 0)
(0.494496 1.37006 -7.88673e-17)
(0.639319 0.0306237 0)
(3.4021 0.153203 0)
(0.488218 0.0267981 -1.71621e-16)
(0.770919 1.17994 2.44017e-17)
(-2.6077 8.53021 -7.19719e-17)
(2.13117 0.354512 -1.71943e-16)
(-0.348681 2.94271 1.49011e-16)
(10.2128 0.0801478 -2.94047e-19)
(1.22569 1.10234 -1.6722e-16)
(-0.372539 2.46998 -5.27693e-19)
(0.0386454 3.29182 9.76154e-17)
(-0.228765 2.17667 -1.28278e-16)
(0.276705 5.74012 -1.05126e-16)
(0.469675 1.80156 -5.2555e-16)
(2.73806 1.13605 -1.60512e-17)
(-0.247554 3.72245 -2.61856e-16)
(-0.0802351 2.12551 -1.92004e-16)
(1.78347 0.394619 7.16924e-17)
(0.500474 0.0117252 2.67583e-16)
(0.821598 0.636046 -3.17797e-16)
(-0.0515073 0.974992 -6.00719e-16)
(-0.164233 2.62947 -3.34747e-16)
(1.34041 1.25675 6.64199e-19)
(0.647348 0.754277 6.57732e-16)
(9.99875 0.0160216 -6.24105e-17)
(0.496029 0.00621995 0)
(-0.16158 3.61142 1.16372e-20)
(1.3041 1.49099 -1.59391e-16)
(0.111255 2.42872 0)
(8.59647 1.25189 3.7432e-17)
(0.867171 0.0926623 3.45234e-16)
(0.695863 0.0985781 -3.20694e-16)
(8.49961 0.914314 0)
(0.225555 3.47359 -5.62288e-20)
(0.173304 2.09609 0)
(9.99418 0.167322 0)
(0.498405 0.0141151 -6.50261e-17)
(8.83797 0.554603 -7.17562e-17)
(2.17074 1.91746 -4.48295e-16)
(0.865745 5.29863 2.88554e-17)
(2.89977 3.21717 -1.35925e-16)
(-0.0498266 0.948146 -1.27905e-16)
(-0.290098 0.219095 -3.93982e-20)
(-0.0706502 1.09541 -1.29916e-16)
(-0.0242121 1.65011 0)
(-0.201511 1.16716 1.77375e-16)
(-0.142003 0.890073 0)
(0.149598 4.24339 0)
(0.330062 4.20985 0)
(1.56923 2.166 -1.49703e-16)
(-0.478171 2.29159 0)
(-0.192988 0.776024 1.47725e-16)
(2.61517 4.73433 -2.54701e-16)
(0.931262 3.40951 0)
(0.287688 2.7944 3.33073e-16)
(-0.0353611 1.26193 -6.15029e-17)
(0.151856 5.17546 1.09041e-16)
(-0.162934 2.82387 -8.13784e-17)
(1.76517 1.84374 2.88441e-16)
(5.58023 1.17721 -3.99321e-17)
(0.0303485 1.08491 2.40724e-17)
(0.0512713 2.83061 -7.26458e-17)
(2.63711 0.542331 0)
(0.498615 0.0186433 -3.99175e-20)
(5.93312 1.09535 0)
(0.591876 0.0422991 1.47832e-20)
(2.8976 -0.0652098 -5.94405e-16)
(9.98163 0.0477473 3.45163e-17)
(0.0860924 2.54804 2.35722e-16)
(-1.03123 3.55181 -1.62725e-16)
(0.153066 2.05757 0)
(-0.159589 3.70011 6.72324e-16)
(5.93914 1.63375 -4.38084e-17)
(9.78515 0.545681 0)
(9.45243 0.391005 2.5837e-17)
(1.64789 5.50693 8.26245e-18)
(7.58369 0.628158 0)
(0.986541 2.30669 2.54002e-17)
(2.51168 0.0010993 -4.4048e-17)
(2.66954 1.72527 -3.46676e-17)
(0.45777 0.0951569 -1.75201e-17)
(-0.0279496 -0.0590913 -4.61344e-16)
(0.209964 -0.0394207 -3.16197e-16)