# vtk DataFile Version 2.0
track0
ASCII
DATASET POLYDATA
POINTS 47 double
2.01419e-18 0.210526 1e-06
1.61136e-18 0.210526 1e-06
1.20852e-18 0.210526 1e-06
8.05678e-19 0.210526 1e-06
4.02839e-19 0.210526 1e-06
0 0.210526 1e-06
4.34675e-19 0.631579 1e-06
0.00097814 0.632533 1e-06
0.00234422 0.632527 1e-06
0.0037103 0.632521 1e-06
0.00507637 0.632515 1e-06
0.00886715 0.632497 1e-06
0.0107686 0.632426 1e-06
0.0124794 0.631593 1e-06
0.0136937 0.630128 1e-06
0.0143782 0.628353 1e-06
0.0146361 0.626541 1e-06
0.014593 0.624631 1e-06
0.0142536 0.622752 1e-06
0.0137321 0.620914 1e-06
0.013091 0.619115 1e-06
0.0123133 0.617217 1e-06
0.0116308 0.615764 1e-06
0.0110704 0.614259 1e-06
0.0105769 0.612731 1e-06
0.0100406 0.611217 1e-06
0.00890328 0.608316 1e-06
0.0088874 0.608284 1e-06
0.00887151 0.608251 1e-06
0.00885561 0.608219 1e-06
0.00883972 0.608187 1e-06
0.00882381 0.608155 1e-06
0.00796394 0.606411 1e-06
0.00697847 0.604736 1e-06
0.00582613 0.603171 1e-06
0.00447129 0.601777 1e-06
0.0016523 0.599795 1e-06
0.0016523 0.599795 1e-06
0.0016523 0.599795 1e-06
0.0016523 0.599795 1e-06
0.0016523 0.599795 1e-06
0.0016523 0.599795 1e-06
0.00132184 0.59987 1e-06
0.000988974 0.599935 1e-06
0.000653469 0.599983 1e-06
0.000315657 0.600011 1e-06
0 0.600009 1e-06
LINES 2 49
6 0 1 2 3 4 5
41 6 7 8 9 10 11 12 13 14 15 16 17 18 19 20 21 22 23 24 25 26 27 28 29 30 31 32 33 34 35 36 37 38 39 40 41 42 43 44 45 46
POINT_DATA 47
 FIELD attributes 1
U 3 47 float
-3.08752e-09 	4.59534e-09 	3.21989e-31 -2.47002e-09 	3.67627e-09 	2.57591e-31 -1.85251e-09 	2.75721e-09 	1.93193e-31 -1.23501e-09 	1.83814e-09 	1.28796e-31 -6.17504e-10 	9.19069e-10 	6.43978e-32 0 	0 	0
2.24625e-10 	2.19e-10 	0 373180 	-1403.93 	4.01434e-18 894198 	-3995.34 	9.62594e-18 1.41522e+06 	-6586.74 	1.52375e-17 1.93623e+06 	-9178.13 	2.08491e-17 2.48334e+06 	-92634.4 	6.36334e-17 2.07503e+06 	-1.01056e+06 	7.05017e-17 1.5317e+06 	-1.84791e+06 	8.21416e-17 946697 	-2.45525e+06 	9.66056e-17 400243 	-2.81173e+06 	1.115e-16 -66845.1 	-2.96309e+06 	1.25223e-16 -653103 	-3.6169e+06 	8.85467e-17 -1.17038e+06 	-4.12348e+06 	5.08883e-17 -1.5681e+06 	-4.40089e+06 	1.68849e-17 -1.75562e+06 	-4.28421e+06 	-7.58905e-18 -1.92208e+06 	-4.09387e+06 	-3.33893e-17 -1.52152e+06 	-4.08521e+06 	1.91636e-16 -1.30342e+06 	-4.03584e+06 	4.15126e-16 -1.35074e+06 	-3.81204e+06 	6.28945e-16 -1.39161e+06 	-3.5502e+06 	8.41083e-16 -1.45618e+06 	-2.95529e+06 	1.24875e-15 -1.45597e+06 	-2.95342e+06 	1.25114e-15 -1.45579e+06 	-2.95243e+06 	1.25353e-15 -1.4556e+06 	-2.95143e+06 	1.25592e-15 -1.45541e+06 	-2.95044e+06 	1.25831e-15 -1.45524e+06 	-2.95032e+06 	1.2607e-15 -1.37312e+06 	-2.33458e+06 	1.26808e-15 -1.26316e+06 	-1.71597e+06 	1.24252e-15 -1.10784e+06 	-1.13974e+06 	1.15399e-15 -894873 	-629113 	9.83392e-16 -389134 	88964.9 	4.91755e-16 -389134 	88964.9 	4.91755e-16 -389134 	88964.9 	4.91755e-16 -389134 	88964.9 	4.91755e-16 -389134 	88964.9 	4.91755e-16 -389134 	88964.9 	4.91755e-16 -309203 	59551.9 	3.88167e-16 -229261 	33116.8 	2.85706e-16 -149784 	12507.4 	1.84839e-16 -71158.7 	-551.913 	8.63452e-17 0 	0 	0
