/*--------------------------------*- C++ -*----------------------------------*\
| =========                 |                                                 |
| \\      /  F ield         | OpenFOAM: The Open Source CFD Toolbox           |
|  \\    /   O peration     | Version:  v1912                                 |
|   \\  /    A nd           | Website:  www.openfoam.com                      |
|    \\/     M anipulation  |                                                 |
\*---------------------------------------------------------------------------*/
FoamFile
{
    version     2.0;
    format      ascii;
    class       volScalarField;
    location    "0.36";
    object      nut;
}
// * * * * * * * * * * * * * * * * * * * * * * * * * * * * * * * * * * * * * //

dimensions      [0 2 -1 0 0 0 0];


internalField   nonuniform List<scalar> 
5794
(
0.00187383
0.000735235
0.00295196
0.00492005
0.00629277
0.000859976
0.00146272
0.00151622
0.00244119
0.00172043
0.00202085
0.000983646
0.00149024
0.00185626
0.00194696
0.000773063
0.00325073
0.00488927
0.00103727
0.000790795
0.00173605
0.00122775
0.00269701
0.00147887
0.00151579
0.00289417
0.00400789
0.00717029
0.00440597
0.000822046
0.00171505
0.0013935
0.00245281
0.00239055
0.00426116
0.00339468
0.000787591
0.00069919
0.00210974
0.00383344
0.00459175
0.00212909
0.000737503
0.00123408
0.00154534
0.00227272
0.000981373
0.00120886
0.00130915
0.00120967
0.000214443
0.00300416
0.00135534
0.00138371
0.000141006
0.00232072
0.00103797
0.00173369
0.000723229
0.00363492
0.00131428
0.000584125
0.00148023
0.00316906
0.00584993
0.000878137
0.00430462
0.000634266
0.00340104
0.000744921
0.00603045
0.00461993
0.00541018
0.00268281
0.00441895
0.00559848
0.000562494
0.00263056
0.0014628
0.000159997
0.000719572
0.00120251
0.00357311
0.00199089
0.00112384
0.000923231
0.000743822
0.0010533
0.00102348
0.00440262
0.00519322
0.00222348
0.00344751
0.00541305
0.00273187
0.00830928
0.00410826
0.00317683
0.00215797
0.00140807
0.00146859
0.000800571
0.000743799
0.00363889
0.00361564
0.00919839
0.000514721
0.00430111
0.00516031
0.00161501
0.000793599
0.00292156
0.00154914
0.0011159
0.00247412
0.00409391
0.00176694
0.00567482
0.00122707
0.0010014
0.00774015
0.000533529
0.000761096
0.00636718
0.00239216
0.00330499
0.00115067
0.000883956
0.00352496
0.00397669
0.00110293
0.00171847
0.00160121
0.00250725
0.00988657
0.00213472
0.0027672
0.000649549
0.000564494
0.00206912
0.00175132
0.00407243
0.00237849
0.00474411
0.000886929
0.00478858
0.0021162
0.0013652
0.00593391
0.0034368
0.000722244
0.00293944
0.00945046
0.000502077
0.00447208
0.000855546
0.00191702
0.000815764
0.00210927
0.000762948
0.00104359
0.00163058
0.00106702
0.00143487
0.00198915
0.00194157
0.001101
0.0011798
0.000861093
0.000922965
0.00049976
0.00195918
0.00111111
0.00128804
0.000887048
0.00172745
0.000530798
0.00110776
0.00143014
0.00197721
0.000736111
0.000879165
0.00081176
0.0015969
0.000759256
0.0019474
0.000757439
0.00114744
0.00101152
0.000508904
0.00163117
0.00101568
0.00179475
0.00109599
0.000992863
0.000631272
0.00108892
0.00161149
0.000847685
0.00100126
0.00133462
0.0021581
0.0010992
0.000981005
0.000867854
0.00196278
0.000944928
0.00620452
0.00483198
0.00228831
0.00199299
0.000859513
0.00358225
0.0029428
0.00195219
0.00322487
0.00257223
0.00179337
0.00358722
0.00576323
0.000858909
0.00258569
0.00857502
0.00388408
0.00222987
0.00277177
0.00052984
0.00455485
0.00133397
0.00206887
0.00204441
0.00488256
0.00180999
0.00370299
0.000783427
0.00417365
0.00474782
0.00181136
0.00103414
0.00160905
0.00138366
0.00814861
0.00274807
0.000947571
0.00065288
0.000963065
0.00146029
0.00479313
0.00117366
0.000975563
0.000706016
0.000868879
0.00426603
0.000597522
0.000807226
0.00615437
0.000891762
0.000854756
0.00385398
0.00221126
0.00227765
0.00352527
0.00277016
0.000583451
0.000995187
0.00129442
0.00504983
0.00343415
0.00116584
0.00278809
0.00129112
0.00124317
0.00195601
0.00510082
0.000871123
0.00176712
0.00142984
0.00186686
0.00195177
0.00140233
0.00196256
0.0033735
0.00446452
0.00171963
0.00381779
0.00510814
0.00264533
0.0033281
0.00530582
0.0087748
0.00244996
0.00547086
0.00209997
0.00258748
0.000769008
0.00243295
0.00519129
0.00132286
0.003322
0.000676348
0.00068707
0.00101663
0.000559086
0.0039411
0.000979165
0.00292707
0.00162298
0.00236789
0.00243291
0.00114282
0.00104668
0.00291421
0.00271354
0.00106888
0.00078363
0.000903208
0.00537927
0.00730087
0.00461521
0.0043956
0.00352384
0.0018787
0.00484548
0.00612972
0.000731485
0.00228017
0.00259586
0.00077855
0.00127819
0.00185585
0.00186701
0.0008163
0.000814768
0.00156057
0.000908829
0.00123345
0.00113899
0.000846298
0.000810665
0.000917095
0.0010703
0.000810451
0.00242887
0.00153192
0.000648674
0.00075261
0.00175902
0.000917091
0.00227978
0.000564482
0.00219854
0.00153126
0.00155003
0.000876027
0.000879269
0.00128358
0.000866122
0.0019207
0.00142691
0.00130611
0.00619944
0.000944015
0.00272935
0.00189203
0.00290143
0.00291017
0.00179029
0.00151723
0.000663221
0.00111352
0.00366311
0.000520878
0.00418035
0.000759453
0.00714169
0.00304502
0.00166577
0.00106758
0.00186481
0.000468396
0.00300696
0.00356054
0.000751192
0.00290408
0.00337544
0.0023342
0.00721166
0.00337564
0.00432682
0.00107287
0.00111336
0.00184231
0.000631472
0.00383337
0.00104333
0.00133986
0.000917718
0.00142842
0.00134326
0.00260094
0.00184635
0.00214978
0.00441409
0.000513765
0.00128939
0.00229779
0.0013711
0.00124176
0.000584041
0.00427408
0.00337179
0.00222019
0.00435322
0.0011912
0.00171457
0.000754564
0.000734633
0.00238856
0.00196268
0.00362643
0.0020783
0.00290341
0.0057978
0.00342822
0.00136561
0.0015665
0.00114629
0.00114503
0.0008602
0.00113355
0.00310869
0.000786079
0.00516342
0.00221016
0.00122934
0.00170852
0.00089069
0.00144542
0.00199398
0.00210519
0.00143563
0.000806253
0.000961892
0.000891556
0.00253489
0.00460027
0.00263159
0.000457406
0.000951622
0.00319782
0.00129494
0.000822762
0.00241565
0.00139901
0.00489337
0.000547396
0.00473461
0.00883982
0.00370288
0.00716296
0.00135807
0.000687972
0.00090483
0.00192538
0.00150843
0.00396321
0.00387373
0.00463499
0.00521631
0.00204975
0.000163158
0.00488965
0.00431618
0.00394182
0.00284653
0.00326243
0.00533391
0.00751506
0.00219678
0.000701696
0.000898076
0.00130408
0.00186341
0.00246889
0.00572932
0.00345602
0.000862776
0.00284099
0.00173258
0.00112266
0.000914377
0.00469796
0.00432368
0.00513534
0.00122223
0.00132811
0.000957758
0.00362003
0.000422452
0.00208774
0.00628609
0.00562343
0.000730794
0.00203276
0.00574609
0.000571476
0.00101882
0.00104793
0.00475514
0.000908179
0.00818544
0.00136404
0.00303929
0.000584755
0.000939777
0.00238142
0.0037955
0.000577035
0.000807849
0.00446179
0.00105174
0.000591132
0.00598554
0.00722478
0.00436093
0.00135973
0.00258162
0.00209417
0.000676701
0.00132054
0.00118201
0.000319046
0.00374751
0.00333801
0.00353681
0.00213048
0.000786772
0.00280383
0.00385869
0.00189255
0.00107943
0.00264006
0.000862467
0.00141812
0.00222737
0.000730914
0.000756353
0.00458966
0.00103623
0.00102042
0.00390234
0.00100656
0.000598847
0.00224179
0.00122567
0.00301651
0.00109206
0.0012769
0.00063638
0.00433774
0.00689613
0.000459279
0.00298932
0.00308596
0.00151754
0.00227388
0.00086158
0.00385173
0.00041564
0.000772788
0.00161754
0.0029124
0.00146824
0.00140284
0.00138068
0.000861031
0.0056295
0.00383774
0.00145951
0.00519272
0.00486172
0.00267007
0.00831827
0.00320834
0.00347885
0.00131702
0.00115373
0.00445329
0.00244175
0.00511088
0.000894587
0.00129754
0.000797488
0.00527046
0.00276508
0.00307949
0.000316089
0.000831443
0.000518091
0.0030887
0.00165929
0.00174219
0.00291691
0.00552244
0.00059724
0.00279295
0.00259871
0.00110406
0.000164833
0.00186373
0.00409274
0.0055087
0.00323861
0.00148226
0.000748072
0.000795041
0.00191782
0.00105499
0.000853169
0.00186696
0.000325836
0.00299165
0.00381554
0.00596102
0.000456827
0.00133881
0.000968587
0.00518364
0.00644359
0.00103061
0.00180523
0.00100882
0.000302433
0.000904539
0.000617348
0.00208868
0.00277989
0.000811345
0.00151031
0.00722739
0.00144711
0.000807714
0.00409583
0.00257178
0.00265179
0.005253
0.00268748
0.00100265
0.00171176
0.000944299
0.000469396
0.00260288
0.00303516
0.000625384
0.000610015
0.00283193
0.00469865
0.00295535
0.00113293
0.00355385
0.000932396
0.0014516
0.00133395
0.00093172
0.000718749
0.00332661
0.00557748
0.00528393
0.00267246
0.00287559
0.00180456
0.00139159
0.00436979
0.0013077
0.00136938
0.00311045
0.0058059
0.00251135
0.00321214
0.00200114
0.00106132
0.00541468
0.00265504
0.000704212
0.0041433
0.00262478
0.00430395
0.00355933
0.00227996
0.000565645
0.00424521
0.00817247
0.00268864
0.00343216
0.00276519
0.00188481
0.00684174
0.000417494
0.000508295
0.000770446
0.000801031
0.000726131
0.000314557
0.000901423
0.0045287
0.00320437
0.000984788
0.00230102
0.00250985
0.00728556
0.00103167
0.00771452
0.00384642
0.00343886
0.00431019
0.000776152
0.000735224
0.00532615
0.00278798
0.00696644
0.0082505
0.00300912
0.00290317
0.00289828
0.00631847
0.00132651
0.000784601
0.000820575
0.00859356
0.000953753
0.00296487
0.0023768
0.00641938
0.00198333
0.00271397
0.00265109
0.00224905
0.00436124
0.00223469
0.00342318
0.00476255
0.000326951
0.00027233
0.000458542
0.000408527
0.0048345
0.00260861
0.00482677
0.00142246
0.00080364
0.000723676
0.00243291
0.00223137
0.000579159
0.00280123
0.00514026
0.000757085
0.00591464
0.0028643
0.000710598
0.00281203
0.00581905
0.00489277
0.00332875
0.00582863
0.00563813
0.00290617
0.00359452
0.00180387
0.00406957
0.00236878
0.00482623
0.00537355
0.00250756
0.00523752
0.00114631
0.00136304
0.00244127
0.0036425
0.00110213
0.00708784
0.00495275
0.00101977
0.00142442
0.000648772
0.00506261
0.00276664
0.00728891
0.00520169
0.00275456
0.000597905
0.00609108
0.00713901
0.00307214
0.00130705
0.00291143
0.00087903
0.00329698
0.00123458
0.0026679
0.000864621
0.00600361
0.0021511
0.00101568
0.000835267
0.00306089
0.00705909
0.00597851
0.0028589
0.00879281
0.00362542
0.00167857
0.00274195
0.0010436
0.0106301
0.00141672
0.000926867
0.00269919
0.00867207
0.000593401
0.00125136
0.0009574
0.00128906
0.00484224
0.00104596
0.000770012
0.0031141
0.00374007
0.00273187
0.00252427
0.00476841
0.00501252
0.000772281
0.00343108
0.00644412
0.00357802
0.00385927
0.00579409
0.000410669
0.000461078
0.000615086
0.000595066
0.00451772
0.00121604
0.000875111
0.000933704
0.0017283
0.000718018
0.000840111
0.00562302
0.00299006
0.0057205
0.00163772
0.00214684
0.00328486
0.00266946
0.00440467
0.00476757
0.000884306
0.000997185
0.000751775
0.00421898
0.00247555
0.00307557
0.00753786
0.00411544
0.0029308
0.00391238
0.00208322
0.00560841
0.000813492
0.000773788
0.00274271
0.00107867
0.00300208
0.00311384
0.0033749
0.0024905
0.000797569
0.000754172
0.000359084
0.00169893
0.00400943
0.000876223
0.000869677
0.00341744
0.00125866
0.0037068
0.00169498
0.000799918
0.002422
0.00460004
0.00329896
0.00590215
0.00487495
0.00624678
0.00640843
0.00105877
0.00105144
0.00553426
0.000868836
0.00107369
0.000592756
0.0010234
0.00185604
0.000490987
0.000791278
0.000981418
0.00422732
0.003933
0.00249748
0.000848114
0.00289174
0.00551974
0.00518267
0.00218736
0.00331688
0.000786335
0.000937594
0.00511745
0.00098477
0.00238355
0.00083769
0.00134432
0.00107041
0.00161033
0.000359961
0.00195071
0.00129615
0.000495982
0.000416041
0.000491493
0.000307113
0.00028387
0.00065943
0.00550159
0.00799951
0.00335843
0.00209153
0.00276913
0.00419032
0.000743112
0.0005892
0.00123186
0.0052523
0.00077747
0.00600374
0.00683357
0.00220147
0.000786914
0.00652527
0.00204425
0.000825403
0.00140175
0.00586389
0.0024862
0.000834647
0.00131112
0.000880618
0.00356627
0.00276238
0.00572923
0.000912803
0.000551644
0.000536066
0.000749391
0.000662876
0.00237125
0.000686548
0.000845477
0.000588425
0.00114773
0.000790352
0.00552457
0.000784724
0.00232622
0.000942535
0.00155956
0.000831844
0.00475503
0.00134538
0.00143101
0.000800339
0.000942024
0.000757869
0.00414421
0.00108219
0.00176485
0.0046199
0.00114769
0.000833893
0.00239576
0.000828132
0.000830596
0.00234861
0.000778313
0.00591463
0.00221159
0.000638985
0.000825229
0.000872733
0.00656377
0.000935062
0.00227802
0.00267052
0.00537882
0.00128794
0.00264921
0.000978994
0.000773347
0.000824124
0.0011206
0.00162907
0.00167389
0.00158028
0.000220483
0.00189795
0.00141736
0.00111383
0.001118
0.00147354
0.000509617
0.0015518
0.00076013
0.00117274
0.000747923
0.00510173
0.000797958
0.00147246
0.000791399
0.000785052
0.000737924
0.00156058
0.00113427
0.0022869
0.00625371
0.00722689
0.00418809
0.000631309
0.000827433
0.00242977
0.000694461
0.00341605
0.0019855
0.00239009
0.00544458
0.000741114
0.00750328
0.000581397
0.000844198
0.00667679
0.000864968
0.00513524
0.000721465
0.000823463
0.00317784
0.00436216
0.000593866
0.00420701
0.00115938
0.000943766
0.000593979
0.00106998
0.000548058
0.000896802
0.000830151
0.00110241
0.000663147
0.00173383
0.00255228
0.00173294
0.00431226
0.000954574
0.000724905
0.0053597
0.00278575
0.000774398
0.000784224
0.00396768
0.0026192
0.00391079
0.00799228
0.000865793
0.00121602
0.00032261
0.00619619
0.002552
0.00411982
0.00301956
0.00364514
0.00304672
0.000271796
0.00108209
0.000684611
0.000241941
0.00251997
0.00121427
0.00111824
0.00109164
0.000305232
0.00107047
0.000242969
0.000282367
0.00103341
0.000584652
0.00116653
0.00446017
0.00256965
0.0063092
0.00074684
0.00112588
0.00180937
0.000814831
0.000613291
0.000791197
0.00518754
0.000806291
0.00257831
0.00102145
0.000746283
0.00102865
0.00481323
0.00335284
0.000686267
0.0038318
0.00471328
0.00279254
0.00561453
0.000744305
0.00820901
0.00522428
0.00283296
0.000905417
0.0109984
0.000728452
0.000728672
0.00239887
0.00125318
0.00111252
0.000644219
0.00754856
0.00106003
0.000628792
0.002869
0.00449525
0.00460583
0.000765867
0.000928072
0.00241585
0.000835689
0.00365474
0.000957265
0.0042398
0.0028934
0.00522011
0.00174229
0.00413757
0.00213759
0.000596057
0.00235868
0.00188154
0.00243252
0.00101786
0.000781511
0.00136915
0.00152629
0.00447232
0.000806854
0.00100183
0.000756975
0.000893478
0.00083358
0.000777192
0.000870578
0.00075213
0.00272448
0.00372581
0.0070397
0.000730606
0.000744081
0.00103617
0.00111162
0.00154126
0.00248852
0.00152721
0.00122927
0.00116987
0.000768638
0.00246936
0.000764399
0.000709192
0.000985969
0.000611569
0.000845711
0.000966624
0.000566823
0.00525682
0.00066669
0.00560369
0.000613553
0.000753386
0.00114386
0.000663487
0.000662062
0.0033349
0.00271824
0.000735112
0.000603004
0.00188036
0.00105676
0.00155506
0.0012255
0.0027455
0.000992526
0.00130398
0.00126737
0.0042136
0.00664383
0.0024297
0.000829049
0.000259447
0.00527478
0.00155479
0.00352671
0.00697909
0.000557268
0.000822889
0.00108942
0.00468831
0.000294752
0.00709356
0.00623481
0.00110007
0.00349571
0.00325444
0.00157462
0.000722463
0.00583064
0.00588505
0.0022667
0.00121512
0.0015519
0.000719039
0.00265411
0.000837059
0.00150345
0.000483188
0.000783969
0.00313509
0.00112522
0.00034897
0.00166776
0.000736454
0.000485514
0.00116444
0.00253436
0.00696281
0.000754248
0.00120387
0.00450082
0.00957338
0.0033525
0.00214782
0.00195897
0.000796347
0.00517802
0.00110787
0.00440085
0.00585045
0.00242489
0.00405783
0.00250228
0.00612598
0.0043673
0.00511431
0.00231332
0.0019331
0.00161536
0.00337384
0.00087501
0.00250608
0.00340837
0.0021041
0.00217008
0.00516462
0.00254554
0.00260409
0.0069278
0.001008
0.000441444
0.000807465
0.00280425
0.000414488
0.00245559
0.00166115
0.000831412
0.00396098
0.00318282
0.00235873
0.000799921
0.0104363
0.00125218
0.0024895
0.00318487
0.00110398
0.00125745
0.00107486
0.00663386
0.000904093
0.001554
0.000701281
0.00351224
0.000805607
0.00121243
0.0045283
0.00307624
0.00269676
0.00110216
0.00441227
0.00469181
0.000786861
0.000222925
0.00355694
0.00374358
0.00471995
0.00620203
0.00144041
0.000725228
0.00313098
0.00578825
0.000985259
0.00148633
0.0013996
0.00151567
0.0011575
0.0060091
0.00067655
0.00236229
0.00627876
0.00133323
0.00766306
0.00127507
0.000557612
0.00210572
0.00138451
0.000427056
0.00175929
0.00210714
0.0012239
0.00121173
0.000430656
0.00244909
0.000987666
0.000823129
0.00288403
0.00247859
0.00573358
0.000805691
0.00244355
0.00564994
0.00501064
0.000932182
0.00343516
0.0020339
0.00109244
0.000303288
0.000244381
0.000441823
0.00734773
0.000825913
0.00266464
0.00221137
0.00405039
0.00270542
0.00145263
0.000821981
0.000245393
0.000317618
0.000426137
0.00022522
0.000986645
0.000607926
0.000365041
0.000939399
0.000201131
0.000365205
0.000668013
0.000592773
0.000354525
0.00029845
0.00021214
0.000932776
0.000740585
0.000453097
0.000472629
0.000541286
0.000284794
0.000296396
0.00010941
0.00037821
0.000593018
0.000658057
0.000396152
0.000291575
0.000479399
0.000829291
0.000711126
0.000375646
0.000253789
0.000266413
0.000285711
0.000238247
0.000804589
0.000400736
0.000192242
0.000464697
0.000298323
0.000715052
0.000811874
0.00102385
0.00202923
0.00444628
0.000374722
0.00255697
0.00291451
0.00570087
0.00377806
0.0023322
0.00062604
0.000823663
0.00291697
0.00244395
0.00530754
0.00679812
0.00386753
0.00579394
0.00318455
0.000689962
0.000706623
0.000634891
0.00226612
0.000387978
0.00340482
0.000930555
0.00268861
0.0026534
0.00126136
0.00471613
0.00371391
0.00252771
0.00424369
0.00320349
0.00740673
0.00358188
0.00300327
0.00255128
0.000754472
0.00757972
0.00355242
0.00168657
0.00187564
0.00210212
0.00386734
0.00351671
0.00192189
0.00110394
0.000842561
0.000848867
0.00833049
0.00329454
0.000574587
0.000495355
0.00376495
0.00435481
0.000547849
0.00328414
0.0031563
0.000432688
0.000234678
0.00058978
0.000823487
0.000313241
0.000841575
0.000201853
0.000386191
0.000538817
0.000227834
0.000927873
0.00072644
0.000253533
0.000863934
0.000492665
0.000510357
0.000610006
0.000291779
0.000317398
0.000317298
0.000248051
0.000855189
0.000289233
0.00335973
0.00306532
0.000498972
0.000862477
0.00305748
0.000848695
0.00255785
0.000614665
0.00268161
0.00376037
0.00575348
0.00259559
0.00470363
0.00260091
0.000200679
0.00479941
0.00186354
0.00321872
0.0055736
0.0051456
0.00621543
0.00052554
0.00624786
0.00165549
0.0012567
0.0062927
0.000864569
0.00363335
0.00157701
0.00121678
0.000752106
0.00491663
0.00123367
0.00283654
0.00336026
0.00101944
0.00797766
0.000605143
0.0116847
0.00206972
0.00064065
0.000679674
0.00533779
0.000590095
0.00109383
0.00324005
0.00198688
0.00780551
0.000834674
0.00321508
0.000639999
0.00322872
0.0050878
0.00505226
0.000257846
0.000772913
0.000972955
0.00629654
0.00263803
0.000679159
0.000754945
0.00394622
0.00308516
0.00572327
0.000832767
0.00276528
0.000370302
0.00226103
0.00254394
0.000709987
0.00174965
0.00105119
0.000126438
0.000447478
0.0105278
0.00691391
0.00078932
0.00484678
0.00516252
0.000683178
0.00564943
0.00355362
0.00287332
0.00556406
0.00710702
0.00212954
0.00888958
0.000605736
0.00218809
0.00206319
0.00266422
0.000717243
0.00107699
0.00107957
0.00350316
0.00121692
0.00121192
0.000795218
0.00268661
0.0035569
0.0022524
0.00545791
0.00957019
0.0039865
0.000832265
0.0073074
0.000582923
0.00187655
0.00179494
0.00122731
0.00415371
0.00343819
0.00322511
0.00534472
0.002677
0.00846981
0.00137342
0.00286376
0.00235163
0.00266533
0.000958279
0.00202669
0.00111495
0.00997746
0.00106161
0.00197719
0.00397758
0.00197657
0.00137347
0.00406079
0.00250173
0.00497039
0.0034601
0.00440772
0.00311115
0.00103709
0.000891279
0.00276011
0.00365689
0.0018358
0.000680432
0.00212767
0.00663948
0.00671306
0.00917867
0.00691507
0.00736508
0.00968341
0.00715172
0.00151004
0.00757653
0.00749341
0.00982031
0.00651898
0.00707398
0.00684175
0.0076604
0.00747351
0.00763209
0.00197753
0.00196758
0.00127502
0.00448367
0.00147585
0.00129222
0.00135255
0.00108063
0.000222768
0.000483238
0.00308951
0.00304469
0.00395627
0.00207099
0.00240188
0.00881107
0.0026934
0.00569605
0.00279674
0.00141612
0.00108715
0.00132097
0.00421382
0.00433655
0.00205798
0.00141486
0.00329743
0.0035576
0.00180648
0.00212252
0.00115398
0.00563702
0.00171397
0.000537459
0.00147239
0.000222631
0.00383743
0.00121712
0.00120467
0.00111814
0.00115543
0.00201475
0.00266594
0.00168907
0.00222005
0.00259746
0.000854787
0.0028098
0.0112858
0.00195686
0.00262886
0.00290385
0.00237687
0.00943647
0.0025115
0.00172823
0.00921949
0.00438236
0.00294913
0.0020368
0.00086556
0.0031853
0.0104423
0.00327867
0.0015053
0.00179773
0.00209838
0.00302545
0.00114798
0.0051891
0.00194069
0.000886399
0.00537765
0.00165891
0.00279356
0.00306225
0.00118393
0.00297703
0.0054302
0.00265976
0.00486385
0.00929681
0.00193538
0.0103561
0.00146811
0.00514017
0.00273039
0.00279705
0.0029328
0.00127479
0.00460715
0.00329233
0.00528121
0.0027257
0.00770721
0.00436754
0.00224521
0.00140646
0.00598163
0.00296597
0.00333646
0.00498457
0.00200091
0.0013428
0.00678729
0.00324889
0.00490845
0.00441006
0.00458028
0.00164794
0.00411077
0.000496724
0.00172755
0.00465317
0.00242079
0.00349927
0.00167201
0.00187528
0.00235779
0.000635065
0.00496986
0.000536153
0.00342319
0.00458883
0.00112694
0.00402322
0.00220678
0.0023295
0.000773898
0.0019295
0.00130428
0.00357569
0.00438341
0.00218439
0.00273601
0.00530386
0.00163374
0.00101679
0.00435479
0.00399269
0.00221608
0.00220524
0.000481196
0.000869464
0.000377949
0.00521898
0.000657818
0.00168672
0.00345789
0.00725868
0.0011561
0.00134897
0.0013202
0.00524704
0.00128118
0.00246052
0.00129872
0.00452084
0.00288716
0.00368182
0.000957958
0.00465746
0.00326549
0.00441097
0.00161473
0.00306828
0.00447162
0.000873748
0.00487851
0.00406157
0.000715629
0.00164336
0.00438621
0.00162751
0.00394198
0.00437591
0.005237
0.00387191
0.000323311
0.00422421
0.00132675
0.00424773
0.00199966
0.00167321
0.00343214
0.00343547
0.00389083
0.00278882
0.00124394
0.00115905
0.000393992
0.00347795
0.00139133
0.00399671
0.000674808
0.00237696
0.00155681
0.000220996
0.00305884
0.00169623
0.00674938
0.0011874
0.00139039
0.00281446
0.00185672
0.00102253
0.00582182
0.00330924
0.00268326
0.00522536
0.00128693
0.00077534
0.00410127
0.00193674
0.00263901
0.000252343
0.00479685
0.000195659
0.0042663
0.00118853
0.00130448
0.00241793
0.00321894
0.00223249
0.00236991
0.00120936
0.000694279
0.00545383
0.0025171
0.00479695
0.00307308
0.0049369
0.00226282
0.000899512
0.000959545
0.00552682
0.00227487
0.0018622
0.00581301
0.00310225
0.00229151
0.00414112
0.000602025
0.00407522
0.000835787
0.00180681
0.00234889
0.00274527
0.000705618
0.00352675
0.00139664
0.00510213
0.00175577
0.00181079
0.00470013
0.002668
0.000862132
0.000998111
0.00193092
0.000637129
0.00101417
0.00624737
0.00271506
0.00062965
0.00400921
0.00461258
0.00278568
0.000734295
0.001539
0.00139935
0.00262811
0.00396028
0.00453592
0.00435662
0.000737976
0.00156574
0.00453724
0.00276651
0.00288508
0.00559171
0.00167218
0.00110737
0.00284256
0.004492
0.000907262
0.00324778
0.00258096
0.00372879
0.00166644
0.00102365
0.00401209
0.00169693
0.00231294
0.00112741
0.0050317
0.00198583
0.0054175
0.00237126
0.000774098
0.00111718
0.00309045
0.00669895
0.00153125
0.00682441
0.00299655
0.00312076
0.00472512
0.00305826
0.00380445
0.000838884
0.00346023
0.000573843
0.00444985
0.00272883
0.00111971
0.00936778
0.000801891
0.000803093
0.012874
0.000806479
0.00125172
0.00476199
0.00298114
0.00298929
0.00501319
0.00143933
0.00854362
0.0043408
0.00141271
0.00309107
0.00301908
0.00395547
0.00398752
0.000748283
0.000580954
0.000830203
0.000424412
0.000411268
0.00575516
0.0024027
0.00093482
0.00113148
0.00389853
0.00475852
0.00435496
0.000641006
0.0124197
0.0114211
0.00176505
0.00128553
0.00377804
0.00307501
0.00339633
0.000845992
0.000546082
0.00381616
0.00258123
0.00277123
0.00272933
0.0095002
0.00552968
0.00130635
0.00336019
0.0123352
0.00392954
0.00244045
0.00123345
0.00201777
0.0009125
0.000837181
0.00163639
0.00243198
0.00225162
0.0028674
0.00349501
0.00647616
0.00263948
0.00141309
0.00245322
0.0035538
0.00521429
0.00828487
0.00613833
0.00394165
0.00234141
0.00337687
0.0010796
0.00054929
0.00155736
0.0100612
0.00965617
0.0113244
0.00264965
0.00661852
0.00310795
0.00288205
0.0025926
0.00166816
0.00252203
0.00216467
0.000847986
0.0011559
0.00138931
0.00118166
0.00139049
0.00382155
0.00774877
0.00150538
0.00720354
0.003688
0.00479095
0.00183516
0.00336142
0.000956481
0.000650579
0.000857322
0.000470645
0.00139386
0.000743078
0.0102045
0.00212856
0.000792819
0.000520501
0.00311579
0.00165883
0.00176478
0.00315066
0.00672681
0.00425738
0.00279787
0.00362091
0.00371298
0.00142447
0.00347475
0.00220888
0.000222993
0.000600599
0.00224201
0.00161036
0.00578728
0.0030299
0.00102517
0.000874244
0.0057166
0.00261052
0.00446538
0.0104504
0.00317922
0.000680069
0.0019279
0.00218889
0.00248462
0.00783201
0.00162497
0.00632133
0.000827002
0.00300346
0.00804418
0.00960029
0.00278028
0.00381348
0.00188
0.00327377
0.00153616
0.00342127
0.00101022
0.000789977
0.00073708
0.000394727
0.00181085
0.00317971
0.00232841
0.000824555
0.00439087
0.00423837
0.00320703
0.00409189
0.00119468
0.00253284
0.00409954
0.00206616
0.00099138
0.00264588
0.00523689
0.00614921
0.0024561
0.00914649
0.00129954
0.00165459
0.00252522
0.00244776
0.011936
0.00204233
0.0043564
0.000447707
0.0050318
0.00337757
0.00389685
0.000574949
0.000238192
0.00970259
0.00260875
0.00514934
0.00330088
0.00222838
0.00141112
0.000797321
0.0046791
0.00431116
0.00265574
0.00355816
0.00421129
0.0044996
0.00215021
0.000948522
0.00115897
0.00400414
0.000750027
0.002063
0.00208813
0.000745643
0.0119524
0.00200533
0.00167481
0.00990244
0.00621139
0.00740725
0.00399616
0.000622484
0.00106816
0.0042778
0.00421597
0.0034114
0.00567365
0.00271946
0.00131718
0.00243223
0.00109774
0.0032538
0.00279916
0.00204464
0.00537458
0.00488853
0.00239529
0.00154892
0.00288074
0.0040728
0.00363832
0.00168102
0.00280579
0.00827447
0.00150173
0.00326614
0.00394382
0.00800484
0.00210559
0.00457117
0.00244971
0.00233051
0.0010296
0.00075916
0.00172437
0.00527053
0.0096426
0.00514045
0.00198804
0.0018352
0.000598394
0.00724231
0.000695455
0.00361868
0.00885651
0.00473803
0.0040351
0.00211898
0.00295418
0.00319864
0.00583284
0.00233132
0.00166151
0.00252271
0.00138284
0.000880936
0.00510909
0.000582615
0.00316821
0.00683859
0.00758773
0.00592613
0.00932549
0.00396801
0.00192956
0.0018549
0.00138157
0.0116171
0.00396389
0.00743544
0.00555068
0.000744821
0.00257226
0.00686775
0.0119537
0.00446848
0.00633447
0.003159
0.00213523
0.00317669
0.00252062
0.00238824
0.000846657
0.00656935
0.000820112
0.00505929
0.00110904
0.00621954
0.00255364
0.00296649
0.00236892
0.00509215
0.00106905
0.00734691
0.00338527
0.00358843
0.000612734
0.0119023
0.00115295
0.00256226
0.00261717
0.000603959
0.00225225
0.00332979
0.00559124
0.0109946
0.00469179
0.00788213
0.0118244
0.00283189
0.00451234
0.0025534
0.0020808
0.000854877
0.000514759
0.0034329
0.00382258
0.00252255
0.00263422
0.00751254
0.00476483
0.00103817
0.00145321
0.00234776
0.00408206
0.000799254
0.00687134
0.00222891
0.00271765
0.000830834
0.00365546
0.000885608
0.0100741
0.00344128
0.00568672
0.00412803
0.00168946
0.00208669
0.00727169
0.00275451
0.00108085
0.0107828
0.00257771
0.00279784
0.00106186
0.000789971
0.00821829
0.00219518
0.0069041
0.00977311
0.000666954
0.00327957
0.000793952
0.00591508
0.00998708
0.00131949
0.00495328
0.003448
0.00570533
0.000848241
0.000780698
0.000770777
0.00190146
0.000857157
0.00105238
0.00321629
0.00654966
0.00293039
0.0034959
0.0071002
0.000955212
0.00385374
0.00774978
0.00404089
0.000743449
0.00142013
0.00854797
0.000451939
0.000234575
0.000329852
0.00342028
0.00202411
0.00335056
0.00294697
0.00261677
0.0108215
0.00826042
0.00232396
0.00352387
0.00657562
0.00492013
0.00263854
0.00478879
0.000894159
0.00421595
0.00156887
0.00196705
0.000896292
0.00114835
0.000819349
0.00318716
0.00255206
0.00294621
0.00243058
0.00670267
0.00246984
0.00346291
0.00506833
0.00179413
0.00166595
0.0045274
0.00307672
0.00416124
0.00568944
0.00386986
0.00314134
0.00193974
0.000885755
0.00113158
0.00318405
0.00118458
0.00503082
0.00223965
0.00108588
0.00247713
0.00957524
0.00389997
0.00694793
0.000871639
0.0109336
0.000441089
0.00270093
0.00188425
0.00591959
0.00513186
0.00233619
0.00160742
0.00294994
0.00645468
0.000751774
0.00183025
0.0042013
0.0112608
0.00398524
0.00407141
0.00184334
0.00583285
0.0045433
0.000886887
0.00302746
0.00439731
0.00211031
0.00397209
0.00682583
0.00513889
0.000747856
0.0035456
0.00173729
0.00350436
0.000977649
0.00278889
0.00319681
0.00270119
0.000736889
0.00297362
0.00478197
0.00173176
0.00227382
0.000506623
0.0030059
0.00361563
0.00237025
0.000619931
0.00194186
0.00308565
0.00194592
0.00362658
0.00201336
0.0010427
0.00265894
0.00075735
0.00096921
0.00142972
0.00387335
0.00148257
0.000862337
0.0016264
0.00326362
0.00062023
0.00206478
0.00443021
0.000928523
0.00695986
0.00164602
0.00086025
0.000955646
0.00224535
0.00228073
0.00133742
0.00110282
0.000498519
0.00404387
0.00120098
0.000970471
0.00415788
0.0048618
0.00080568
0.00588422
0.00134748
0.00288081
0.00750689
0.00173013
0.00502825
0.00270085
0.000972587
0.000439331
0.000564824
0.00295916
0.00491263
0.00287566
0.00714273
0.00196701
0.00165143
0.00554221
0.00281903
0.000806419
0.00224702
0.00218781
0.00451509
0.00437515
0.00176982
0.000878701
0.00107828
0.000737285
0.00104769
0.00855451
0.00188583
0.00424662
0.00280915
0.00054235
0.0019495
0.000650082
0.00111342
0.00301155
0.0115232
0.00500412
0.00385767
0.0122195
0.00091783
0.0026141
0.00207124
0.00987481
0.00235355
0.0101623
0.00129702
0.00466531
0.00109704
0.000807446
0.00113397
0.00355849
0.00508429
0.00167521
0.00169481
0.00367811
0.00255887
0.00413174
0.00115195
0.00290957
0.00237394
0.00619322
0.00449984
0.00139998
0.00463299
0.00115176
0.00747315
0.00195121
0.00390039
0.00208115
0.00381095
0.00263682
0.0025659
0.0068487
0.0102367
0.00114692
0.00110417
0.00258831
0.00087242
0.000782099
0.00317481
0.000837089
0.00221427
0.00408365
0.00663927
0.00266287
0.000862137
0.0032492
0.000766932
0.0011386
0.00449239
0.00723258
0.0041591
0.00239824
0.00429952
0.00470792
0.000821087
0.000841207
0.00285394
0.00446903
0.00477429
0.000706522
0.0038891
0.00503901
0.00155782
0.00336174
0.00105536
0.000733134
0.000781698
0.00028728
0.00084669
0.000829625
0.0024832
0.00241586
0.000828062
0.00040624
0.000219372
0.000314044
0.00755376
0.00553635
0.000848235
0.00509011
0.00276262