/*--------------------------------*- C++ -*----------------------------------*\
| =========                 |                                                 |
| \\      /  F ield         | OpenFOAM: The Open Source CFD Toolbox           |
|  \\    /   O peration     | Version:  v1912                                 |
|   \\  /    A nd           | Website:  www.openfoam.com                      |
|    \\/     M anipulation  |                                                 |
\*---------------------------------------------------------------------------*/
FoamFile
{
    version     2.0;
    format      ascii;
    class       volScalarField;
    location    "0.39";
    object      p;
}
// * * * * * * * * * * * * * * * * * * * * * * * * * * * * * * * * * * * * * //

dimensions      [0 2 -2 0 0 0 0];


internalField   nonuniform List<scalar> 
1431
(
80.2558
80.0276
79.3996
76.989
79.3975
73.7459
73.681
86.0313
78.392
78.0875
81.0663
81.9317
74.4644
91.5774
81.365
80.7974
81.6288
79.6117
78.6104
80.84
79.4968
78.0287
80.0233
92.4979
66.5495
80.6802
58.1184
90.7164
77.2058
77.6535
102.344
108.978
72.1454
70.0211
75.4608
78.3195
80.441
85.0511
69.2712
85.1391
99.1464
79.1693
71.7403
75.3064
71.4683
79.8884
81.2451
107.032
103.351
86.4355
75.9219
77.6312
78.2625
69.1495
75.1683
100.058
77.0147
75.3351
65.8286
79.4286
80.2767
80.1985
81.1502
85.8433
87.8717
79.0209
77.8999
73.83
78.7429
86.2782
71.2861
75.3673
80.9124
71.1601
81.2342
72.3039
79.5849
72.5949
86.2913
60.2166
85.8743
75.8427
79.7495
79.9581
65.2516
79.3972
79.3774
74.9218
93.4535
80.4958
79.8973
75.844
79.3536
84.798
77.8368
79.4377
79.9696
88.0785
79.3702
102.303
78.5632
84.9622
80.1803
79.3559
77.6545
77.6595
86.0106
102.645
104.321
79.4643
60.0853
79.1772
86.5655
80.2235
77.818
79.3755
79.7312
80.7628
94.3792
72.4646
83.4741
77.3764
77.5867
97.3179
85.4922
77.561
95.2411
80.4546
79.9635
85.5419
79.4931
103.6
93.8964
80.1661
79.3535
77.7048
80.7338
77.9708
79.987
103.151
78.5837
79.2996
84.9893
103.472
104.74
83.7839
87.5338
103.101
80.57
101.712
86.5094
88.9698
80.181
77.0496
80.0205
78.7687
85.8658
80.1327
87.3623
96.5564
79.4167
80.7236
80.1404
76.2154
79.3775
57.2736
79.458
84.2207
76.8517
80.2775
95.1367
79.7492
101.138
86.7663
85.5126
79.8112
75.768
87.2841
77.8669
93.1949
85.5433
80.7113
93.4035
80.3497
85.2113
96.2254
85.0772
71.5705
80.5845
85.8213
78.6762
81.015
79.5325
85.6969
80.1082
83.1673
86.0212
105.343
80.2576
80.4686
80.6243
105.159
100.132
97.8265
85.9341
60.2909
79.399
86.0988
81.3692
90.2095
85.6823
86.5853
98.0481
86.0536
76.1132
73.1726
88.3167
79.1807
78.886
85.7666
85.8148
55.8527
85.1556
92.199
86.4226
79.895
99.0781
80.2482
90.8352
102.725
79.3644
76.8957
86.1563
84.432
85.6853
86.3199
87.3013
80.1398
85.8087
79.2001
87.7391
98.4151
78.1969
80.6849
76.7724
75.6093
85.0575
74.2484
68.8587
94.0038
91.8836
78.3501
77.8598
105.463
80.935
86.8569
76.7601
79.5115
85.6787
86.2143
86.6486
75.1634
79.3596
78.7191
85.8922
89.9321
81.2122
84.9589
92.062
78.1954
86.1545
102.195
90.8455
89.8414
86.4324
83.1207
80.0806
80.0929
76.3353
78.1778
78.2285
78.6261
79.1884
80.0608
83.1163
73.6669
79.3841
91.8604
92.8104
87.068
83.6336
85.8612
91.7238
78.1558
93.3924
88.6692
79.653
91.4151
79.6105
94.7924
85.7058
100.73
78.2955
105.202
80.091
79.7503
85.947
86.5912
85.9025
78.0323
86.7065
85.2307
79.6373
79.2932
74.7746
79.6571
78.3813
77.7302
85.2799
77.8157
79.5234
77.2778
78.8174
78.7852
77.8412
78.0341
85.7771
78.2676
99.6419
86.4422
79.9134
77.7402
78.6171
78.4568
85.6054
78.1662
77.548
77.0226
76.583
74.1794
80.6169
85.8659
78.1906
75.5707
90.8933
77.7732
86.3176
79.7739
78.7115
78.7516
78.7027
78.0176
78.9628
78.934
77.4539
78.5728
77.9089
77.8054
79.7002
78.6801
77.1049
77.1356
78.249
78.8139
78.7352
79.5461
76.8973
77.1466
79.3123
79.9555
80.0098
79.1547
77.7147
94.8035
78.6066
78.7678
79.9473
84.7279
83.7831
79.8274
78.7337
79.0539
78.7489
78.0589
76.9539
77.479
77.5024
77.6966
79.4173
78.7273
79.3803
79.3865
97.7244
84.6609
78.034
78.8783
77.0707
85.9636
78.1511
85.9595
79.36
79.7772
85.9706
76.1315
79.5927
82.911
77.3314
104.961
78.3811
79.9472
83.1071
79.0799
77.1877
76.8291
104.11
117.803
79.986
78.4184
76.6207
77.4881
78.2438
78.3298
78.9154
80.5346
78.4738
80.2391
80.4894
79.1076
71.2088
80.7479
71.4139
80.5686
79.2152
78.4921
77.9475
80.6603
78.217
79.1444
80.645
67.8344
74.4357
79.1213
78.8305
79.0905
80.5279
77.7403
77.6582
80.6521
80.1928
78.5833
78.2876
78.8341
77.8223
78.829
78.6133
78.6242
78.7363
78.7924
78.628
77.2792
74.3774
80.3523
69.1096
76.5191
76.8123
76.6439
78.5225
75.2085
72.3729
76.4954
75.8819
78.2727
104.953
101.717
72.4142
76.7796
79.495
79.4746
81.1704
78.9459
78.7863
77.365
88.7888
84.2806
104.919
76.3592
76.2092
78.6164
78.9071
80.327
80.4834
79.7712
77.1099
83.9391
79.2926
76.3649
77.3309
79.5615
85.9488
80.017
74.9922
74.7192
79.6304
80.8894
80.7226
80.3234
77.0785
78.8137
79.4239
78.13
77.7631
80.5608
87.2231
79.0267
85.8691
79.529
81.8844
74.7693
79.0829
77.2133
79.9587
80.6053
79.7391
78.5727
76.5824
78.4769
79.2976
79.12
80.4741
79.5195
104.876
105.655
80.5146
80.1746
78.789
78.8931
80.1582
79.9543
77.767
84.7206
80.8315
80.2081
79.8276
76.6557
78.9158
78.6104
79.56
85.8138
78.7821
77.5899
80.3568
79.7185
85.2306
78.7445
77.8422
79.4264
80.6755
80.0648
84.2586
89.7103
77.9635
80.5557
80.7339
82.3375
71.6783
77.891
77.8128
91.0158
80.1374
80.6557
76.863
78.0893
81.0931
78.3617
80.0419
80.0123
77.9977
78.0506
80.5422
88.0164
75.5764
85.8692
79.2665
80.8283
78.8619
80.3002
79.4269
84.376
75.5807
89.0689
77.0356
76.4924
82.5877
84.9827
86.055
80.4939
78.5106
79.0645
89.9649
77.6162
79.575
79.3873
77.4718
79.9795
80.057
78.3676
80.9173
77.7951
78.3592
80.0668
84.0875
77.7305
77.3347
78.8871
81.964
88.9811
79.3991
77.9772
79.7139
78.6099
77.8442
78.6405
79.6733
76.8693
79.3114
110.821
77.3646
78.5527
78.0641
85.7434
78.1398
79.5553
79.8608
85.7199
79.228
78.6418
77.6072
93.3323
82.8342
79.6458
80.3182
78.4716
85.7503
77.9441
79.583
80.5404
80.5356
78.3106
77.3846
79.5609
77.958
79.4195
88.3802
83.1834
78.2782
78.3865
86.0458
85.2085
78.7368
78.0791
81.058
79.1759
79.7735
79.8432
86.2672
77.9267
80.8202
78.7846
78.3574
79.9176
78.7093
85.908
79.7271
81.2169
104.712
103.934
73.9079
76.69
75.045
85.1476
80.6479
79.5867
76.7281
77.1945
78.9222
80.42
78.1997
80.8284
80.0497
77.1854
103.114
81.106
80.6492
80.2449
77.8768
77.1853
78.9512
78.2648
86.0088
94.8815
80.4043
77.5515
90.095
76.1794
79.3922
116.401
82.4149
78.0139
78.5144
97.8288
77.671
78.5554
77.7341
78.8047
79.2894
86.3403
79.8572
79.5671
96.9582
80.0482
86.1292
87.6578
85.6549
80.6034
74.6332
86.808
78.6065
78.3456
96.0813
77.7451
77.9098
79.9115
95.4939
94.8349
81.4945
89.1061
79.8967
80.2458
77.7871
79.8195
81.0341
78.09
106.22
79.8892
88.2452
86.7449
90.8647
91.7698
96.2151
77.7825
78.5759
92.4312
94.1284
92.5025
79.8927
79.6366
85.2055
86.0721
86.5504
96.0375
80.3097
94.2586
98.8072
90.9045
85.5632
79.8058
79.1547
97.3411
87.8082
93.3411
79.6316
87.5701
78.5755
78.4513
79.1774
89.6628
79.2592
79.8449
78.3405
77.3088
79.7819
79.2208
91.6617
79.3019
77.5484
94.9786
78.604
78.374
79.2812
96.7867
80.0012
88.151
99.2086
127.76
84.5594
85.8698
78.6385
77.8819
83.0908
85.3358
77.8302
81.1927
99.172
76.3624
79.0918
79.0135
83.2287
78.989
77.8426
79.738
86.604
85.4556
78.4176
78.9398
65.4703
87.253
87.0236
84.4797
84.6042
84.7117
87.9142
86.07
90.8039
79.2731
79.0788
86.5477
80.8326
81.0027
75.3789
78.9985
80.6292
78.7228
78.686
79.2038
74.6647
80.3597
78.2169
85.5778
79.974
77.9437
87.3122
103.054
87.7266
84.4135
75.2538
101.263
77.3447
79.9304
79.4677
85.8558
79.6554
80.3233
79.9251
78.6919
109.031
79.9449
77.0736
77.6915
85.5513
86.0949
85.7199
79.966
77.9743
77.5452
77.7549
79.9032
84.5186
96.5183
79.0495
75.3703
104.546
87.4274
79.8524
80.4673
78.7684
95.1709
71.314
75.6193
78.5491
85.9725
79.3077
74.0612
79.4505
78.3464
86.2708
80.1571
79.8011
73.3031
72.1372
103.65
88.0785
79.184
75.1573
86.1847
80.3598
78.0865
78.6661
78.0044
77.7815
77.727
76.3222
75.5746
78.7303
79.0568
100.422
102.751
87.8564
80.2973
78.6362
77.9193
79.8052
85.6603
79.8569
76.3205
78.5645
80.5896
79.7546
86.3942
78.0568
75.8872
78.1555
86.4306
79.7446
85.7942
85.8319
88.4689
74.8245
86.1678
78.5811
96.9316
79.7581
96.9868
80.4361
81.489
81.1478
81.3471
81.5754
80.9407
80.7679
79.191
79.2083
76.0076
86.1505
80.6514
80.047
79.8587
58.2974
79.5253
77.5052
80.4767
78.5907
79.3561
80.2384
78.134
97.1113
78.0197
80.5859
78.937
77.8956
79.3806
79.3057
78.1367
76.4999
76.5733
79.4569
80.4836
80.5406
82.7019
79.4051
79.5462
77.8245
78.4148
79.4936
75.2999
78.3364
78.265
85.9024
80.4993
80.5137
78.4257
80.1505
88.778
78.0615
78.1203
77.7681
73.4998
79.3553
87.0835
80.2677
82.8055
79.3709
86.2995
77.9214
80.2011
86.3883
77.7204
80.2584
91.9633
64.0337
79.4492
77.2305
77.4017
86.6645
72.0752
75.7072
86.462
76.3146
81.3058
83.413
79.9452
78.4082
78.7925
85.7299
88.8931
101.426
79.3839
81.5037
78.2659
78.5954
78.1909
80.7381
82.3586
77.055
72.8554
88.7912
77.2351
79.2543
75.5227
81.3303
100.361
77.8981
78.3555
80.4352
80.0941
80.3216
78.3855
80.5242
85.4353
78.0572
77.2395
79.262
79.3966
78.8805
76.9805
78.0567
76.4338
72.535
78.0217
94.4136
81.3956
76.6524
84.7759
78.2496
80.2319
70.0213
75.1108
79.7795
88.6516
77.8232
105.11
78.117
81.8036
81.0773
67.5861
107.5
79.9435
81.6434
86.0933
84.9241
78.3112
79.6928
85.254
80.2022
85.2036
86.0427
78.7374
79.4324
83.0376
86.4975
86.407
79.3966
78.4329
77.4382
78.3946
106.17
79.3852
81.0665
102.198
85.982
81.1036
77.4373
89.6317
77.1991
106.585
83.476
80.4341
78.574
86.542
80.0464
82.8254
80.1809
79.8492
81.0499
64.083
79.4281
86.5549
80.9766
78.7952
76.6483
89.8016
77.9375
81.5423
78.1721
102.723
77.7345
103.718
80.5312
78.4782
97.3446
99.7243
79.1302
75.2794
86.522
79.6296
65.6879
80.3525
77.7475
78.2889
70.2506
75.5913
86.5485
77.9561
80.3447
79.7282
78.7199
80.3625
79.1968
81.3511
79.736
78.6626
79.0844
79.5957
78.9494
78.5606
80.0555
85.4015
67.0966
79.4028
79.7278
86.1143
72.5315
78.7312
78.5747
81.3314
77.7312
76.9946
79.1919
89.7233
97.0969
86.7562
68.4772
79.4883
78.7494
78.3186
78.5498
100.889
103.307
78.6538
79.1678
80.1577
85.7937
71.8223
80.6339
78.6374
84.2907
84.0725
103.795
78.3971
78.7103
78.8677
98.029
72.9754
99.777
79.8229
78.389
81.6563
87.2719
80.2436
87.0198
78.6161
77.002
84.4354
88.4468
79.7161
81.4787
77.9812
67.015
78.5151
80.7744
86.4362
81.2499
77.3043
76.2038
76.6036
81.1423
87.4554
80.665
74.4795
77.974
85.7813
85.5408
87.3951
78.3675
80.584
75.8532
77.8549
75.0063
79.0475
78.2077
79.099
76.4761
78.3642
84.3076
79.4196
81.4455
102.504
81.161
105.334
84.935
84.6546
87.6192
71.9441
79.4106
63.1479
79.5525
77.8247
66.6348
79.3859
77.077
79.8927
78.3539
79.6537
82.3641
71.9528
74.8718
78.345
79.3445
74.4031
79.865
104.32
79.385
75.478
85.8111
79.1553
80.0911
77.8767
79.8495
81.004
77.9837
79.3542
74.8707
79.7687
85.9334
80.2271
85.854
83.1747
80.2848
72.6232
78.1708
80.5986
80.3602
79.2111
78.6652
86.3586
81.3317
85.5241
82.8599
80.4589
86.2314
88.6895
81.5457
79.2864
109.255
114.637
80.2337
79.8404
77.9455
78.3794
78.2953
78.4108
85.114
82.1917
80.998
77.9564
80.3998
84.276
79.4983
81.5816
74.3407
79.1674
77.9954
86.2432
81.0084
78.8076
78.8787
78.1337
78.5543
85.903
79.9457
78.772
83.9987
88.2574
79.6751
78.2374
79.7422
79.5516
80.4902
79.2557
79.8311
76.8233
79.7379
80.0107
78.8328
78.8629
79.3935
81.4878
73.3389
78.7837
78.4603
79.9915
80.4324
80.1834
79.9372
77.1562
87.0329
77.9553
59.4966
85.6773
76.9052
79.3734
105.864
79.3297
77.9304
71.8571
79.436
77.0441
78.3841
85.5705
78.552
78.0314
77.607
84.2492
78.2988
79.5517
75.7924
76.7482
79.6602
85.7985
80.4708
80.5749
78.6826
78.0287
105.608
76.5822
82.3778
78.9118
80.5304
88.0832
77.8505
88.1783
87.2466
80.4413
81.489
78.0205
79.7348
79.8609
81.0943
77.0903
110.01
78.7085
81.5583
90.064
76.6677
101.883
85.3871
89.256
80.1171
84.4824
79.2349
79.3468
78.4259
80.3787
69.4638
77.7251
77.8939
75.6099
82.8042
76.0103
80.398
81.7301
80.4142
86.5399
86.3648
84.9875
78.8455
75.1594
84.2946
85.5964
86.4117
85.8217
80.0851
78.3443
78.7331
78.7388
86.771
102.628
79.1724
78.7658
78.6316
78.4787
81.0397
85.8181
87.4508
69.3195
112.075
71.5343
73.0414
103.94
71.8215
74.7254
85.5843
)
;

boundaryField
{
    frontAndBack
    {
        type            empty;
    }
    wallOuter
    {
        type            zeroGradient;
    }
    inlet
    {
        type            zeroGradient;
    }
    outlet
    {
        type            fixedValue;
        value           nonuniform 0();
    }
    wallInner
    {
        type            zeroGradient;
    }
    procBoundary0to1
    {
        type            processor;
        value           nonuniform List<scalar> 
29
(
73.1562
73.0174
67.3853
67.3853
71.0432
71.0432
104.512
70.3442
75.1575
68.2208
69.5696
71.2522
68.0054
73.6904
104.849
105.15
70.639
71.2942
67.07
73.6466
105.016
104.876
72.7028
105.156
105.317
71.2942
105.902
104.403
105.156
)
;
    }
    procBoundary0to2
    {
        type            processor;
        value           nonuniform List<scalar> 
42
(
77.5442
77.7741
79.3286
79.2798
77.1247
77.5442
79.3286
79.3174
77.1059
77.9488
77.5187
78.0582
77.5187
78.075
78.1511
77.0978
78.1511
78.334
77.4396
75.0517
75.0517
78.334
78.6017
76.0364
76.0364
78.5744
76.2544
78.5452
76.7396
78.0894
78.0894
78.5024
78.5239
78.6562
78.8811
79.3286
78.1352
79.3338
76.7396
79.3174
79.2525
79.1152
)
;
    }
}


// ************************************************************************* //
