/*--------------------------------*- C++ -*----------------------------------*\
| =========                 |                                                 |
| \\      /  F ield         | OpenFOAM: The Open Source CFD Toolbox           |
|  \\    /   O peration     | Version:  v1912                                 |
|   \\  /    A nd           | Website:  www.openfoam.com                      |
|    \\/     M anipulation  |                                                 |
\*---------------------------------------------------------------------------*/
FoamFile
{
    version     2.0;
    format      ascii;
    class       volScalarField;
    location    "0.5";
    object      p;
}
// * * * * * * * * * * * * * * * * * * * * * * * * * * * * * * * * * * * * * //

dimensions      [0 2 -2 0 0 0 0];


internalField   nonuniform List<scalar> 
1466
(
94.2633
130.073
92.3225
99.9865
97.9923
111.676
92.106
93.7354
121.833
112.827
90.5013
114.926
122.002
98.0802
111.231
89.5567
94.3346
116.624
119.534
98.9979
101.539
89.3235
115.486
99.7048
121.986
131.139
88.8093
100.267
96.4285
128.353
92.4676
129.889
99.2948
99.4656
121.804
97.3337
99.2661
96.4138
112.533
97.0723
92.1168
88.7869
90.4997
93.4397
98.2029
92.3537
92.2227
99.1023
113.408
100.26
112.538
129.843
111.667
99.3489
98.6902
120.324
92.6855
89.645
99.2229
112.477
131.403
91.9631
97.2472
130.426
103.896
92.8476
118.078
98.8049
124.577
96.2636
131.592
116.471
100.039
121.027
131.472
122.24
92.324
97.6759
99.0251
127.903
112.001
88.9893
94.7326
111.198
99.2296
98.0638
99.293
126.418
111.417
112.015
131.105
88.6986
100.942
96.4224
90.5126
94.7232
130.304
90.4104
123.077
97.3373
112.092
112.787
98.8381
115.404
91.2743
93.612
112.099
99.4643
91.6683
93.363
131.307
122.903
92.9202
89.5987
113.591
131.062
88.7551
115.323
92.0623
95.628
99.9979
92.9434
98.1265
94.5258
98.5081
97.8869
125.867
116.053
98.6615
129.388
112.191
89.0313
115.679
99.6721
130.742
92.4104
95.2303
98.3854
92.126
96.2045
100.73
100.065
99.654
114.066
92.7611
101.885
129.765
129.616
129.375
113.637
131.082
129.608
125.287
89.7003
129.387
88.5655
99.6146
99.1247
129.551
102.983
129.606
127.149
93.568
100.008
129.214
92.0089
99.653
115.081
99.3069
107.527
100.202
129.334
99.9265
124.886
130.009
119.316
129.349
128.725
131.245
132.371
122.444
130.616
100.193
99.8858
125.606
99.8676
99.1651
111.289
124.651
99.469
99.8623
131.676
102.996
107.78
102.038
131.214
94.7197
122.696
130.946
102.679
96.1529
129.337
127.65
97.5228
131.376
130.848
106.001
126.068
129.416
99.3205
116.958
100.02
113.3
100.078
102.597
99.9251
100.482
99.6945
117.824
99.5808
115.962
131.115
100.205
131.26
99.5169
125.641
114.787
98.6562
131.18
130.713
131.991
124.585
111.834
102.671
112.834
130.992
99.7867
114.482
129.381
99.7788
99.665
127.607
127.916
109.509
129.349
126.971
130.161
120.63
128.346
127.854
100.408
104.106
125.471
97.6636
129.399
129.567
99.8637
110.942
100.228
100.084
112.14
116.289
99.6662
130.786
101.94
99.98
130.179
129.297
108.966
113.005
91.2205
99.7499
110.776
129.399
131.027
131.339
131.127
103.988
99.711
129.198
130.261
101.321
101.786
126.179
100.077
99.1932
129.357
129.587
99.31
122.183
124.206
95.5234
122.519
99.3058
105.778
108.096
99.0118
99.9131
129.17
130.444
98.554
111.385
131.779
121.732
98.6283
99.1599
98.2591
98.826
120.999
98.8324
125.206
116.042
99.3977
130.706
130.51
130.002
99.8852
131.294
99.145
111.177
110.246
99.0779
98.0318
130.468
99.599
119.615
99.576
136.003
130.104
130.722
116.93
120.919
90.9677
109.031
100.402
102.151
98.7034
129.493
99.0589
94.7996
98.6275
125.816
98.0394
145.055
106.985
131.611
125.738
135.182
124.102
99.9303
105.672
105.484
101.497
99.429
99.5102
100.354
96.8228
94.9
113.815
128.362
98.9538
101.538
103.36
98.0142
99.3031
119.33
125.075
124.498
99.243
106.678
114.601
101.84
147.454
111.482
91.0953
99.6351
115.262
137.823
95.2829
103.058
99.3937
99.1527
99.2696
99.1772
98.9672
98.989
96.405
96.058
98.7812
99.1266
98.9073
100.011
98.1842
99.7143
97.4755
96.9792
98.9538
127.071
97.0242
97.6856
98.9131
99.1476
114.479
92.1409
112
88.9241
114.429
113.018
89.9144
88.5771
111.334
116.786
114.742
88.6045
113.701
93.7979
93.621
112.775
111.415
91.9936
88.1871
88.3592
91.6433
114.47
91.7832
96.4399
88.3406
151.643
91.8475
95.34
111.29
96.832
98.7594
91.7514
130.007
97.3284
99.0185
97.2354
98.4497
111.429
98.9071
98.3629
111.498
99.1277
130.239
92.4552
122.489
130.455
93.115
112.39
130.656
94.2871
98.2211
122.378
99.1445
98.4428
90.9444
94.9396
98.3542
130.503
99.248
98.5462
92.1447
95.9235
114.492
94.2339
98.7079
98.3081
98.0557
98.6461
98.1449
92.8274
114.355
98.0404
130.672
94.6611
98.4706
98.4201
101.665
100.964
107.033
95.657
98.3427
100.881
101.329
125.341
95.5016
98.6093
102.401
103.72
101.991
100.3
92.4818
98.9078
97.7478
99.8759
99.8734
99.0291
131.514
98.359
99.2235
99.1832
94.6443
116.249
98.313
98.0399
124.761
130.791
96.1444
99.8
129.736
100.328
97.5962
100.938
99.5818
98.2832
98.333
122.699
123.714
91.4981
99.1158
98.1253
100.655
130.624
99.2458
98.3099
98.0887
98.54
98.4621
99.9174
97.2327
89.354
100.786
99.6097
99.5659
98.1637
109.055
133.676
98.6507
97.2535
125.446
115.66
99.0167
97.693
98.7487
112.74
99.2001
113.464
100.42
130.889
94.375
97.0901
98.7956
99.2687
96.9062
99.3793
99.517
98.8402
98.8641
117.438
99.0319
100.608
130.375
138.027
123.77
97.5256
99.2285
99.6298
142.023
99.5391
99.3713
98.7941
129.401
129.947
97.7851
98.0157
107.533
99.5149
99.7704
94.0026
99.7025
99.5784
99.7063
97.9194
99.191
98.5103
98.8326
119.142
99.8748
98.0977
98.2649
117.655
97.6838
99.5279
100.933
99.1392
116.283
101.204
98.9959
101.636
138.066
114.52
107.716
115.319
115.318
98.6313
130.099
97.9777
113.042
99.2659
97.098
97.2074
122.284
106.002
97.1612
129.439
129.561
130.484
125.247
97.1548
121.08
99.415
129.737
110.172
123.608
99.3117
98.2738
98.8295
100.098
99.5607
101.728
123.579
125.342
107.834
99.4878
117.152
98.434
99.2673
129.924
99.8346
99.0244
120.8
100.628
131.179
99.3613
113.106
99.1889
98.2403
98.8383
127.009
99.6241
123.131
131.73
99.9987
102.25
99.3093
98.0034
99.0613
129.867
117.015
101.567
124.236
97.0549
116.705
102.321
129.277
96.852
129.792
117.45
97.0986
99.3092
129.398
99.4007
99.4802
114.481
97.5515
111.197
131.457
92.1082
121.947
100.222
96.8413
131.032
117.785
128.768
99.1267
128.159
129.247
100.567
129.106
101.377
122.202
119.157
113.292
128.623
129.293
110.627
96.2148
127.84
98.005
99.5162
128.431
129.186
130.296
99.2702
99.0903
129.567
96.859
129.329
99.3034
97.0554
117.742
96.7818
102.883
98.6045
98.2606
99.5486
98.9322
100.789
129.088
122.114
89.4315
117.198
99.0834
99.019
99.4922
100.012
98.2901
99.4633
131.42
98.5856
97.2748
95.4597
95.9891
118.795
129.977
100.429
98.8033
92.9844
101.921
99.6147
111.205
99.3421
94.9187
95.1699
91.9419
126.693
131.652
97.2631
126.557
100.054
94.6126
131.107
99.1645
95.8534
119.235
97.3046
99.9242
123.288
111.92
99.7381
96.8606
131.22
130.844
102.512
128.06
99.4083
119.489
117.04
100.055
129.917
96.6759
97.8855
92.5119
88.1618
99.406
133.365
128.893
98.7632
115.105
99.6853
97.0309
100.033
97.522
101.483
96.5996
111.203
99.5684
98.8561
106.982
99.4055
102.431
99.9114
96.68
129.709
122.576
98.5678
90.1662
89.2783
99.3655
97.4488
98.3835
99.5891
93.5658
101.612
99.5947
131.653
123.087
88.2095
100.688
99.686
104.453
117.146
98.7034
131.253
93.8171
98.3146
99.6409
130.797
99.7305
115.229
98.5462
99.2413
129.078
97.1145
91.85
99.5517
121.27
123.259
117.48
128.237
99.0736
96.7492
89.1353
92.1761
112.556
112.122
129.005
96.6882
96.7558
97.0531
98.7449
98.4438
92.6013
93.6734
113.252
126.27
99.5049
130.392
98.5699
93.1491
125.273
98.0328
99.6238
98.7323
129.473
127.755
130.004
111.801
99.446
102.624
99.5527
122.71
99.2285
131.309
96.8975
96.0918
98.4947
129.996
99.6619
98.5631
131.136
98.4131
129.482
102.178
98.3889
98.2163
99.3673
98.6244
100.133
99.6483
98.4767
100.518
98.8388
103.197
116.92
118.132
104.461
102.375
101.552
106.213
116.63
120.787
110.972
108.626
124.619
128.505
132.336
131.204
100.738
100.125
99.9176
100.372
123.421
122.282
131.283
97.6418
97.2291
112.95
98.183
99.0106
111.449
98.8105
115.517
99.4637
111.197
127.098
119.938
112.888
98.5136
98.4271
129.952
97.0301
130.358
112.211
98.4554
90.6179
100.206
93.2189
98.1922
109.999
129.402
121.584
99.3923
111.652
96.7775
99.6246
95.2331
95.8414
91.7762
97.0026
129.35
128.491
99.4198
91.7328
96.6172
129.865
117.244
124.103
121.685
131.139
112.189
128.751
88.6388
98.626
101.137
131.373
111.468
89.2763
138.822
98.4123
116.297
100.067
125.8
99.568
115.031
99.4295
111.812
99.0009
95.028
94.0452
99.8811
89.7567
99.9587
130.525
130.469
131.119
100.001
91.5151
130.481
94.6292
100.166
114.863
99.451
122.962
100.421
99.5434
130.989
115.79
99.3299
130.813
98.158
112.099
117.052
118.236
118.242
128.826
98.3076
95.9034
112.433
99.4281
101.336
101.561
123.106
132.599
91.7618
96.0115
98.412
113.455
121.471
99.7687
114.828
99.3313
131.237
96.7415
99.7067
91.1379
129.768
129.741
97.9718
115.185
99.7867
88.7815
115.632
99.1401
116.761
98.9769
115.851
99.6581
97.6202
92.2083
104.363
130.933
129.311
98.3358
94.5893
130.12
131.389
102.067
121.899
130.916
124.63
94.5668
98.5799
125.324
89.3951
131.732
130.934
94.2914
98.4848
93.9353
98.4016
130.371
98.2862
124.493
97.5787
129.547
129.175
129.664
130.125
97.1873
110.668
127.483
124.907
131.335
100.174
132.799
93.2081
98.1506
131.794
101.812
99.5965
130.871
96.8474
130.114
92.4453
114.424
130.227
129.99
95.1881
98.6682
123.302
99.4767
130.56
130.325
130.665
130.447
124.207
123.88
129.571
129.634
129.73
129.856
121.724
102.147
98.5905
129.678
129.993
100.021
98.5665
130.709
115.843
98.4368
99.305
91.6964
96.8298
91.0032
100.075
127.658
98.5164
99.0108
129.36
115.706
130.222
129.154
132.092
122.07
122.965
100.84
99.0038
121.476
131.54
120.305
99.3497
116.099
121.185
89.9037
130.117
128.413
111.443
124.714
126.881
111.725
93.5743
99.3511
98.6883
129.228
92.9963
99.5589
88.7825
99.459
89.0711
98.6438
112.555
125.952
106.854
111.92
99.3469
97.0276
111.695
99.2943
123.466
123.089
99.5967
129.36
93.624
129.907
112.783
133.685
99.5262
122.14
108.934
115.717
98.7007
99.7305
102.428
126.462
92.4468
103.883
97.2771
91.9336
98.069
99.9214
95.5366
98.8917
93.2216
126.651
101.927
91.0088
90.4462
102.39
121.753
130.533
99.8502
89.5568
100.034
99.3171
97.0971
99.4675
100.381
97.4939
98.9948
91.9834
131.144
91.9196
112.137
111.883
123.59
129.219
131.225
128.387
129.446
111.543
126.416
126.774
129.863
114.628
120.997
97.1027
129.324
98.1539
131.229
131.28
93.614
98.3326
118.6
112.879
122.247
100.036
99.5895
99.1881
90.4413
117.875
120.093
102.009
97.9745
97.9937
111.937
111.744
91.5055
102.293
129.007
113.675
100.534
96.9121
99.065
90.4475
113.093
98.6163
111.83
98.9803
90.9733
96.835
102.77
129.501
129.801
114.561
98.9281
99.5654
97.6541
121.561
98.7954
99.6586
127.908
99.8577
123.791
90.4708
112.46
99.674
96.7023
99.9227
130.517
99.6714
131.088
89.534
102.168
97.9132
99.5837
101.452
101.322
122.035
130.016
112.856
129.478
98.5403
98.1433
127.148
98.4538
91.9975
117.105
98.3647
115.133
99.4663
129.871
131.556
123.188
91.2037
99.8935
97.3786
118.83
99.5988
96.3601
116.178
98.9526
97.1904
113.295
99.7993
114.259
122.744
114.262
99.2795
101.204
111.316
100.153
88.7109
119.093
98.8412
116.721
99.8838
90.3426
96.5039
98.951
92.769
97.9894
92.028
130.129
99.209
118.514
131.111
98.9693
91.8194
125.955
99.1417
88.8263
131.752
124.638
131.846
119.35
95.635
89.64
131.442
118.325
131.061
99.2061
99.7205
97.9251
90.296
93.1142
103.53
99.4651
130.303
99.9733
130.043
92.8234
91.7966
118.165
128.759
128.979
97.8489
129.138
114.104
129.889
129.064
100.761
94.8242
128.356
113.741
129.183
128.093
128.871
100.028
130.272
108.778
131.459
127.626
102.934
99.0642
131.589
131.732
130.763
129.275
99.896
125.255
130.538
106.113
132.916
130.517
91.7288
130.534
89.6908
90.1511
92.1564
89.0189
89.6366
88.967
99.2343
100.367
111.658
127.333
132.091
99.8571
123.57
99.3917
101.155
100.887
123.868
110.902
98.8743
96.0496
130.502
99.0627
111.896
129.599
95.9086
130.065
116.153
99.2162
126.389
99.9508
100.825
130.743
99.7776
90.3754
92.0009
92.6798
113.336
98.2559
92.1141
92.5775
127.334
130.009
128.772
129.696
130.197
130.605
122.609
128.246
113.76
96.5737
130.573
118.752
93.8968
130.317
94.2593
113.612
97.132
94.9126
96.0437
99.0489
97.4358
94.9123
99.696
101.741
110.612
94.5119
99.7594
114.689
141.221
109.622
114.985
125.908
131.837
122.752
120.813
119.517
92.5355
92.2865
97.6828
94.866
95.9179
95.8118
114.78
93.3116
129.543
129.816
130.386
)
;

boundaryField
{
    frontAndBack
    {
        type            empty;
    }
    wallOuter
    {
        type            zeroGradient;
    }
    inlet
    {
        type            zeroGradient;
    }
    outlet
    {
        type            fixedValue;
        value           nonuniform 0();
    }
    wallInner
    {
        type            zeroGradient;
    }
    procBoundary1to0
    {
        type            processor;
        value           nonuniform List<scalar> 
29
(
94.395
94.395
92.8135
92.1456
89.0143
89.5904
120.983
92.43
94.0627
92.439
92.9667
89.5904
92.8135
93.828
121.655
122.089
89.0143
89.2688
92.1456
94.088
122.337
122.405
89.904
121.176
121.176
89.904
123.059
121.094
123.059
)
;
    }
    procBoundary1to2
    {
        type            processor;
        value           uniform 95.8934;
    }
    procBoundary1to3
    {
        type            processor;
        value           nonuniform List<scalar> 
48
(
98.7164
98.6273
98.7256
98.7256
99.0284
97.094
97.094
98.5889
98.995
91.9662
91.8876
91.9662
95.0975
97.2449
96.7113
95.0975
97.974
97.974
98.2931
98.2931
97.8224
97.9963
97.91
94.0882
94.0882
97.7052
98.2438
98.2438
98.4752
98.6199
98.1226
98.4752
98.5889
99.3959
97.7209
98.6199
98.9591
91.8876
99.4166
98.7971
97.4243
99.2744
99.3959
97.7209
96.3189
99.4724
98.7998
97.4243
)
;
    }
}


// ************************************************************************* //
