/*--------------------------------*- C++ -*----------------------------------*\
| =========                 |                                                 |
| \\      /  F ield         | OpenFOAM: The Open Source CFD Toolbox           |
|  \\    /   O peration     | Version:  v1912                                 |
|   \\  /    A nd           | Website:  www.openfoam.com                      |
|    \\/     M anipulation  |                                                 |
\*---------------------------------------------------------------------------*/
FoamFile
{
    version     2.0;
    format      ascii;
    class       volScalarField;
    location    "0.02";
    object      epsilon;
}
// * * * * * * * * * * * * * * * * * * * * * * * * * * * * * * * * * * * * * //

dimensions      [0 2 -3 0 0 0 0];


internalField   nonuniform List<scalar> 
1466
(
5.37183
4.98714
5.12792
5.59418
4.97451
4.94896
5.11719
4.92525
6.03051
4.99274
5.31162
5.06945
4.91173
4.87769
4.86672
4.89914
4.87492
8.10468
5.08078
5.85746
5.46337
5.00838
5.05876
5.73162
5.12007
4.97065
5.10774
5.21758
5.94948
5.03182
5.29892
4.99463
5.05159
4.89001
5.84797
6.83345
4.87319
5.32447
5.53926
5.55546
5.59299
6.05583
6.59532
6.27392
6.16746
5.8115
6.65307
5.893
5.97167
5.79852
5.98746
5.67091
5.32541
5.35457
6.14222
5.81564
6.29453
5.97401
5.83865
5.48973
4.94111
4.94531
4.93279
4.87024
4.86733
5.29774
5.05696
5.76158
4.88868
5.86619
5.06649
7.75673
10.1978
5.14503
4.94536
5.04454
4.95788
4.9507
6.18663
5.02617
4.88964
5.06074
6.0771
5.16903
6.62988
5.87287
4.97666
5.31869
4.96911
5.45092
4.90758
5.15407
6.87416
6.01788
4.93217
5.31002
5.25358
6.77092
6.67433
5.6241
5.50105
6.13784
5.85018
5.94958
6.13383
5.43749
5.93944
5.90236
6.55658
5.82671
4.91706
5.14785
4.95798
6.70521
6.17574
4.87825
5.35192
5.83891
5.09847
5.0481
5.17594
4.93504
4.9546
6.04788
5.93941
6.46141
4.96122
4.99611
5.43988
4.96367
6.03436
6.06619
5.12848
5.92232
4.87325
5.95394
5.8713
5.76745
5.21317
5.1579
5.39186
5.25356
5.70852
4.91839
5.2061
6.04818
4.98107
4.88578
4.98094
5.98129
4.88594
4.86921
4.93079
4.97788
4.96031
5.08956
5.38757
5.15085
4.89307
5.495
4.94238
5.04073
8.35118
5.67054
5.26114
5.54871
5.36159
4.90152
5.33105
4.91178
5.08834
5.10574
5.14617
4.90617
6.56973
6.06977
5.0355
5.0155
4.91497
5.33865
4.87511
4.87659
5.23528
5.60142
5.43025
5.59721
7.28028
5.40125
4.88056
6.36404
5.06045
5.00989
6.76518
5.66499
5.8857
4.89667
6.82306
5.44908
5.29057
6.23843
5.81911
4.96473
5.04886
4.95307
4.98233
5.18239
5.47244
5.08742
4.89548
5.66979
5.02986
5.88631
4.99551
5.09932
5.39232
6.62575
5.31982
7.54493
5.53976
5.38644
4.92708
4.86652
6.30817
4.90994
5.56459
5.43837
5.0693
6.21791
4.9024
4.86462
5.12115
5.49255
5.66121
4.88441
4.9668
5.11814
5.482
4.89313
4.93582
5.0726
6.32856
5.00892
5.05438
6.37527
4.93544
5.02766
4.97642
5.04247
5.01754
5.04466
5.14979
4.88095
5.06247
6.46901
5.07264
4.87153
5.58393
5.84115
8.90673
6.74515
7.27633
5.16469
6.02196
4.8608
5.07246
6.16469
6.72975
4.98262
5.44292
5.56712
8.47979
8.98551
7.23879
4.90555
4.88458
4.92968
4.8856
4.8777
5.21994
5.0055
4.86288
5.13944
4.88756
4.96913
5.05521
4.95142
4.9748
4.96323
5.2372
5.17609
4.9556
6.43488
4.88423
7.12069
4.89308
7.27051
10.5161
4.97924
4.99354
4.86212
4.87665
4.86492
6.25979
4.90642
5.19175
5.80154
5.50359
4.86745
4.99384
4.88902
5.06969
4.93404
5.38808
4.97931
4.9741
5.02047
4.94506
5.02593
4.88122
4.86443
7.29206
9.49191
7.77397
4.86188
5.17704
5.07532
4.95936
5.02516
4.86731
4.87734
5.16745
5.12785
4.90348
4.89396
4.9556
7.53226
5.6541
4.91391
5.49275
5.30619
5.40938
5.10745
4.8792
5.17327
4.95712
6.51614
4.9891
5.01792
4.8834
5.2825
5.22926
6.90992
5.21734
5.04694
5.07632
4.89924
6.50506
10.5465
5.89166
5.00746
5.27016
4.8728
4.87053
4.8834
4.89954
5.1361
5.14652
5.12247
7.42604
4.88343
4.96625
4.87022
7.28407
4.90087
4.87012
4.87847
4.97963
7.43797
5.34282
4.92492
4.96828
5.10618
4.96833
4.96796
5.07364
5.09835
4.86251
4.86356
4.86849
4.88597
7.13637
5.2112
4.90022
5.3982
5.22906
6.50991
4.94464
7.50629
5.43536
7.94048
5.06834
5.07489
5.23928
5.03266
5.19317
4.88412
5.32054
5.1336
4.89701
4.88826
4.86935
5.35991
5.4134
4.87809
5.03733
4.8845
4.93407
5.04036
4.86388
4.87415
4.90987
4.89958
4.8817
5.69385
4.89196
4.88011
5.0816
7.17795
4.97743
4.94263
4.86323
6.01203
6.64294
9.19383
4.86241
8.60132
4.9658
7.69897
4.87205
4.86293
5.11457
8.47336
4.87064
5.11189
4.86017
4.9242
4.90877
4.85989
4.96973
4.88172
4.86125
5.18039
9.51017
4.88263
6.33015
8.25417
5.27489
6.02244
8.5185
4.86121
4.87699
7.49649
5.66576
6.79751
4.9517
5.13637
5.47112
7.51043
7.83747
5.51768
7.77109
5.50343
4.97309
5.48354
4.86121
5.22401
5.46207
4.94717
4.95587
5.04522
4.88156
6.38679
5.57638
4.97178
4.98504
5.03615
5.47842
5.96246
4.87043
4.8666
4.96969
5.21415
4.86275
5.34174
5.02731
5.0079
4.88
5.02846
5.02309
4.87668
4.95694
4.93289
5.79173
5.08961
6.86919
4.87418
5.2229
4.86683
5.54613
4.90849
4.86084
4.99383
4.9068
8.4087
4.88002
4.87626
7.20459
4.87349
4.87114
4.87695
4.93589
7.89403
4.98416
5.00573
4.98204
6.66279
8.03558
6.46118
6.38855
4.96526
7.49742
8.55974
4.88062
5.08404
4.94322
7.80803
4.92448
5.1732
6.72821
5.91184
5.01714
5.18716
7.5393
4.92222
6.03701
4.91488
5.68574
4.97177
5.02861
4.86284
5.32427
5.71702
6.23397
4.98077
8.30889
4.89308
4.90037
4.89346
6.8978
5.02509
4.93818
4.90895
4.86061
5.0206
4.8706
5.03831
5.19721
4.96501
5.17126
4.89322
5.26591
4.93321
4.94531
4.98736
5.42482
5.04191
6.64615
4.88375
4.92045
5.51275
5.09163
4.88705
4.88379
4.8848
4.91199
5.08986
5.06973
5.37079
4.96214
4.96834
4.97668
4.94841
5.78086
4.89436
5.43168
6.38368
5.08354
5.82409
5.39606
5.14698
5.12223
5.25449
5.56702
4.92081
5.55067
5.60651
4.86049
5.02989
4.91672
4.93642
5.2923
5.95741
4.98798
4.99078
6.09956
5.02373
5.00835
4.98945
5.00414
5.05047
4.94692
4.90396
4.86287
5.07475
4.8879
4.91295
9.36106
5.35129
4.99317
4.87716
4.99386
5.18337
5.04578
5.36387
4.89647
5.5249
5.05791
5.06863
4.9657
6.63644
4.99502
5.98272
5.29628
4.88078
4.95064
5.15966
5.16018
4.87607
5.51731
4.97181
4.91606
4.87316
5.09042
4.90635
4.88536
4.92541
5.58749
9.01475
4.87336
5.42778
4.97316
5.1104
6.92341
5.35139
4.95398
4.98837
6.0539
4.93734
5.10808
5.65028
4.89086
4.90072
5.2945
6.84453
5.32052
4.86586
4.85979
5.06675
4.96665
5.28503
5.54378
4.87389
5.24301
5.14361
7.9584
5.63031
8.21604
7.27896
5.24451
7.72832
4.88049
5.17965
5.33737
5.17651
7.81249
7.1496
5.13222
5.32313
8.50567
4.90953
4.97727
7.86669
7.48938
4.86654
4.92703
4.8804
4.93103
6.99206
7.05148
4.91625
5.08568
5.16643
6.33187
5.3207
4.96089
5.71693
6.57795
4.87022
4.96229
5.07147
5.02954
4.89646
5.11024
6.48149
9.25293
4.95909
6.04874
6.65903
5.19614
6.6042
5.20877
6.51113
5.34489
4.89119
5.199
5.2871
8.82912
5.01234
5.95687
5.03223
4.87451
4.862
4.93282
5.43524
5.00995
5.06308
8.89575
6.78124
4.97439
4.99665
5.69501
5.57401
5.00856
5.59249
5.88552
5.59961
6.30976
7.18497
4.90582
5.06326
6.28949
7.03352
4.90085
4.98095
4.90856
5.05799
5.22867
5.24422
5.01817
5.16435
4.86626
5.96346
4.90477
4.8981
4.97911
5.26541
5.03164
7.99091
5.45141
5.79507
5.88976
5.66859
5.19468
8.04514
4.90774
4.86718
4.86077
4.87475
4.87279
4.88415
5.12134
4.93927
5.48463
6.62696
4.86297
5.0436
4.95266
5.04167
4.90126
5.98444
5.62337
6.32936
4.92131
4.86493
6.38214
5.13273
6.74694
4.87909
4.99192
6.73136
8.50797
5.20527
4.99243
5.29298
4.93261
4.8911
6.31065
5.17533
4.90272
4.98846
5.06747
4.87021
5.48658
5.01915
4.87207
4.87378
5.69778
5.05428
4.92809
5.06115
5.02619
6.07891
5.50239
4.88286
5.22235
4.92969
4.90667
7.89692
6.19916
5.74901
5.1962
4.86999
4.90758
4.93348
5.16915
5.81692
8.96246
4.93343
4.89538
6.65681
5.23902
5.04231
5.47603
5.08305
5.04318
4.89572
5.43909
4.92651
4.8763
5.52414
4.87332
4.88687
4.87308
5.46323
4.93067
9.51154
5.61797
9.68607
4.87089
4.93894
4.94103
5.25886
6.29629
4.89209
4.92904
6.48951
4.88566
9.41574
9.78007
9.50436
10.7288
10.7156
9.66838
11.3211
8.52968
7.36388
7.35035
8.4108
8.9051
9.16279
8.61293
7.47176
7.46122
9.23594
8.95363
7.67063
8.02268
7.0668
8.17409
9.27337
9.01833
8.6602
9.71596
5.10633
4.93604
6.27876
5.34961
6.07901
5.06936
6.09935
4.90303
4.88932
4.88583
5.28711
4.98302
4.87412
8.85068
5.26585
4.89025
6.36306
6.06162
4.86046
5.82851
4.86106
5.0822
4.90907
4.97922
8.47869
4.98562
4.99965
6.44913
7.12164
4.90685
6.10433
4.86587
6.13699
4.98051
6.65579
4.91407
4.94361
4.92456
4.91895
5.47751
5.04064
4.93201
4.91364
4.90058
7.55004
4.87928
5.09538
5.02436
4.88397
5.02565
4.96737
5.96864
5.00381
4.93363
4.86268
4.90663
5.2895
4.89736
6.00886
8.99319
9.08612
5.58727
5.03686
5.231
4.87497
5.4466
5.60869
5.06328
7.08593
4.97349
5.95485
4.86652
4.98536
4.87524
5.39468
5.03729
4.90465
5.25086
5.52107
4.97236
4.90591
4.87493
8.70957
4.89262
4.8721
5.13421
6.02299
5.21195
4.93479
4.88634
5.24576
5.0305
5.43242
5.03685
5.98144
5.32035
4.97907
4.97849
5.18758
4.94135
4.89166
6.90919
4.936
4.91302
5.07015
4.94993
5.39925
7.74872
5.49277
5.00615
7.06676
6.37162
6.70071
4.97432
4.87199
5.12918
4.93429
8.69948
7.46542
4.91854
5.22165
5.40585
7.12605
8.58204
5.02501
5.63454
4.87489
4.87484
5.40847
4.87792
5.15516
5.95469
6.05818
4.94068
4.92678
5.04397
4.93001
4.90644
9.37873
5.34685
5.26378
9.52547
4.87852
5.18785
6.60287
5.46264
4.9029
5.08471
5.16729
5.04393
5.54898
8.73069
7.43095
4.88004
5.19822
4.87905
5.27197
7.3358
6.55786
8.66737
9.83553
5.06454
5.24883
7.22986
5.01552
5.06444
6.49517
5.08107
5.14956
6.61504
6.84603
6.80202
4.91756
6.07709
6.85087
6.85333
5.46035
5.93094
5.27563
8.75986
7.0287
7.09062
6.87102
7.19118
8.43347
8.41458
6.87064
6.63777
6.73229
6.84021
9.14472
4.9354
6.566
4.90067
4.86911
7.8505
4.8777
4.86274
7.22795
8.9066
5.00386
4.87947
4.87296
5.49559
5.08663
5.05085
4.94091
4.91858
7.0687
5.25174
4.94557
5.05534
7.34835
5.65787
5.28564
5.26062
5.22223
5.20702
4.96071
5.45506
10.5809
7.98838
4.98963
4.88781
4.87078
5.36468
4.87277
5.14079
5.38529
4.87912
5.10299
5.4125
5.25679
5.02629
5.17931
5.00482
4.87855
4.97783
4.90484
4.99902
4.9356
5.58557
5.02151
4.8853
6.51085
6.03947
5.02333
4.92398
8.27353
8.3926
4.9989
5.08609
5.43059
5.03068
4.90213
5.13665
5.05186
4.88308
6.14782
7.74232
9.98826
6.22913
4.89115
5.08138
5.08069
4.9085
4.87156
4.87467
5.10809
5.11659
5.55642
5.76828
5.1433
4.97508
4.97428
4.99674
4.89747
4.9049
4.91775
4.91718
5.85528
5.33171
6.18145
5.07732
5.89375
6.24582
5.4295
5.54433
5.26949
5.02535
4.90054
4.87907
4.88093
5.36484
4.87194
5.30131
4.93051
5.03968
5.06858
4.88025
5.08283
5.08453
4.8647
6.08343
5.42424
6.77399
4.96276
7.81695
5.03195
5.0209
5.01558
5.04755
5.15351
4.92473
9.36335
6.34952
4.93368
4.90526
4.98418
5.37967
5.10402
4.97148
7.45121
4.91414
4.8727
4.90938
4.9648
4.97791
5.0632
6.1787
7.89909
6.59097
7.26678
4.98573
5.31882
4.89533
4.87054
5.35264
4.92262
5.78368
6.23981
5.07443
5.288
5.05691
5.41203
4.91955
7.5372
4.93686
4.8987
5.19276
5.46588
5.81803
4.88344
4.94418
5.04322
5.15128
6.58463
5.59334
4.86846
5.4417
4.93813
4.88566
4.94263
7.22369
7.47026
7.39804
7.58271
4.98958
4.87239
4.92578
7.08982
4.87406
7.91273
4.99432
4.86867
4.88255
4.98694
5.41104
5.63794
5.95433
4.89403
5.03467
4.90059
5.10237
5.57286
5.44373
5.32403
4.93068
6.56731
6.19898
7.873
7.04558
9.20109
7.2761
5.71793
8.90894
4.98126
5.99552
5.69867
4.86763
7.60373
4.88221
5.1481
5.52124
4.99351
7.8529
4.87106
5.83505
6.45014
4.9769
4.97323
4.88192
4.86184
4.89234
5.21034
7.11887
5.8292
4.90735
5.3344
4.86762
4.96599
5.31578
5.22395
7.1776
5.16746
4.97759
5.12238
4.9415
5.65494
7.4019
4.87157
5.43294
5.31693
5.10088
5.28705
4.94747
6.03867
4.97325
6.20718
4.98506
5.07003
8.34263
6.46374
5.29235
5.39418
6.72713
5.37899
7.07517
4.87599
5.41188
5.33199
5.74252
5.04486
4.96168
5.03867
5.42963
5.32519
4.96517
4.91341
5.79603
5.03101
5.07095
4.99421
6.14892
5.07101
6.92987
7.60499
5.21773
5.54161
5.57941
4.95867
5.10785
7.65139
4.97413
5.00969
5.16935
4.91881
4.96157
4.97962
5.16165
4.89008
4.95882
5.82418
5.3638
4.91267
5.23081
5.61957
5.94452
5.1565
5.94812
5.50729
5.4963
5.06417
5.42949
6.68382
5.97025
5.07725
4.94814
4.92299
4.976
5.6643
4.94174
5.08125
5.71429
5.22511
5.94423
5.17438
5.01219
5.04988
4.90679
4.89803
5.3014
5.33027
6.88652
4.90467
4.96835
5.40913
4.87409
6.03776
4.86473
4.89451
5.01094
5.87086
5.04843
5.40742
7.02243
4.87541
6.41628
6.51528
7.20287
7.23733
7.08943
6.41745
7.19396
7.23847
6.46727
8.51989
7.15043
7.09233
8.15556
7.44391
7.04441
7.07164
6.19961
6.12462
6.73746
6.27839
7.22545
5.87534
7.29272
6.8562
6.20281
6.16681
6.83541
6.09136
5.52412
6.64878
6.85029
6.08662
6.38309
6.55585
6.05593
4.93817
)
;

boundaryField
{
    frontAndBack
    {
        type            empty;
    }
    wallOuter
    {
        lowReCorrection 0;
        type            epsilonWallFunction;
        value           nonuniform List<scalar> 
108
(
8.10468
7.75673
10.1978
6.25979
6.51614
7.9584
8.21604
7.27896
7.72832
7.81249
7.1496
8.50567
7.86669
7.48938
7.05148
6.6042
8.82912
8.89575
6.78124
7.99091
6.74694
8.50797
7.89692
8.96246
9.41574
9.78007
9.50436
10.7288
10.7156
9.66838
11.3211
8.52968
7.36388
7.35035
8.4108
8.9051
9.16279
8.61293
7.47176
7.46122
9.23594
8.95363
7.67063
8.02268
7.0668
8.17409
9.27337
9.01833
8.6602
9.71596
6.27876
8.85068
8.47869
7.12164
7.55004
8.99319
9.08612
8.70957
6.90919
7.06676
8.69948
7.12605
8.58204
9.37873
9.52547
6.60287
8.73069
8.66737
9.83553
7.22986
6.49517
6.49517
6.61504
6.80202
6.85087
6.85333
8.75986
7.0287
7.09062
6.87102
7.19118
8.43347
8.41458
6.87064
6.63777
6.73229
6.84021
9.14472
7.22795
8.9066
7.0687
7.34835
10.5809
7.98838
8.27353
8.3926
7.74232
9.98826
9.36335
7.08982
9.20109
8.90894
7.11887
7.1776
7.4019
6.92987
7.60499
7.65139
)
;
    }
    inlet
    {
        type            fixedValue;
        value           nonuniform 0();
    }
    outlet
    {
        type            zeroGradient;
    }
    wallInner
    {
        lowReCorrection 0;
        type            epsilonWallFunction;
        value           nonuniform List<scalar> 
126
(
5.32447
5.53926
5.55546
5.59299
6.05583
6.59532
6.27392
6.16746
5.8115
6.65307
5.893
5.97167
5.79852
5.98746
5.67091
5.32541
5.35457
6.14222
5.81564
6.29453
5.97401
5.83865
5.48973
6.18663
5.31002
5.25358
6.77092
6.67433
5.6241
5.50105
6.13784
5.85018
5.94958
6.13383
5.43749
5.93944
5.90236
6.55658
5.82671
6.70521
6.17574
6.04788
5.93941
6.03436
6.06619
5.95394
5.8713
5.76745
5.39186
8.35118
6.56973
6.82306
8.90673
6.74515
7.27633
6.16469
6.72975
8.47979
8.98551
7.23879
6.43488
7.12069
7.27051
10.5161
7.29206
9.49191
7.77397
10.5465
7.42604
7.28407
7.43797
7.50629
7.94048
7.17795
6.64294
9.19383
8.60132
7.69897
8.47336
9.51017
8.25417
8.5185
8.4087
8.55974
8.30889
9.36106
9.01475
9.25293
9.51154
9.68607
7.46542
8.34263
7.07517
6.41628
7.20287
7.23733
7.08943
6.41745
7.19396
6.46727
8.51989
7.15043
7.09233
8.15556
7.44391
7.04441
7.07164
6.19961
6.12462
6.73746
6.27839
7.22545
5.87534
7.29272
6.8562
6.20281
6.16681
6.83541
6.09136
5.52412
6.64878
6.85029
6.08662
6.38309
6.55585
6.05593
)
;
    }
    procBoundary1to0
    {
        type            processor;
        value           nonuniform List<scalar> 
29
(
5.05521
5.05521
5.67217
5.30622
5.4205
5.3297
6.2298
6.5005
5.66501
5.18323
5.11441
5.3297
5.67217
5.52102
5.05011
4.93659
5.4205
5.52695
5.30622
5.24169
4.90709
4.9181
5.16594
6.62889
6.62889
5.16594
5.15252
9.47232
5.15252
)
;
    }
    procBoundary1to2
    {
        type            processor;
        value           uniform 4.94024;
    }
    procBoundary1to3
    {
        type            processor;
        value           nonuniform List<scalar> 
48
(
4.87583
5.24915
4.97322
4.97322
5.73273
6.18603
6.18603
5.98482
4.89768
4.9204
5.35375
4.9204
4.8678
4.87094
4.87366
4.8678
4.86841
4.86841
4.88724
4.88724
4.93419
5.00012
4.93708
6.23877
6.23877
5.26455
5.27161
5.27161
5.99317
6.60017
6.05911
5.99317
5.98482
4.93108
4.98169
6.60017
5.34918
5.35375
4.88193
5.31841
4.88013
5.05671
4.93108
4.98169
4.89018
9.10211
5.37186
4.88013
)
;
    }
}


// ************************************************************************* //
