/*--------------------------------*- C++ -*----------------------------------*\
| =========                 |                                                 |
| \\      /  F ield         | OpenFOAM: The Open Source CFD Toolbox           |
|  \\    /   O peration     | Version:  v1912                                 |
|   \\  /    A nd           | Website:  www.openfoam.com                      |
|    \\/     M anipulation  |                                                 |
\*---------------------------------------------------------------------------*/
FoamFile
{
    version     2.0;
    format      ascii;
    class       volScalarField;
    location    "0.08";
    object      k;
}
// * * * * * * * * * * * * * * * * * * * * * * * * * * * * * * * * * * * * * //

dimensions      [0 2 -2 0 0 0 0];


internalField   nonuniform List<scalar> 
1466
(
0.13341
0.206858
0.111439
0.11168
0.181815
0.182623
0.346773
0.159718
0.114714
0.159143
0.0834402
0.189723
0.0408531
0.0939216
0.0943175
0.0824665
0.0586065
0.153073
0.289895
0.0895311
0.0938655
0.172451
0.107555
0.196363
0.101808
0.102308
0.144467
0.123974
0.112673
0.124398
0.153735
0.171135
0.159676
0.145661
0.177661
0.0970727
0.0929754
0.0888605
0.207298
0.142171
0.187804
0.119882
0.123882
0.144541
0.138336
0.137764
0.093751
0.148403
0.120491
0.0939203
0.105433
0.129378
0.148288
0.140708
0.133953
0.109604
0.0771538
0.172016
0.101661
0.106858
0.0855167
0.113961
0.157644
0.153364
0.193483
0.101228
0.116298
0.0939
0.117086
0.158313
0.0952678
0.112359
0.0823501
0.105851
0.0557642
0.17003
0.108474
0.12816
0.173629
0.102515
0.0881058
0.104019
0.0934887
0.120677
0.0870492
0.0942318
0.0873696
0.186083
0.119735
0.141862
0.105316
0.0689989
0.102165
0.113912
0.105016
0.0886418
0.17752
0.107622
0.163671
0.105688
0.155127
0.131633
0.132974
0.187908
0.0931069
0.128109
0.094123
0.093367
0.145326
0.107756
0.0948397
0.0908785
0.0924978
0.0909448
0.0473245
0.10687
0.0751498
0.0818085
0.14742
0.124579
0.0883067
0.125162
0.0725177
0.199691
0.132532
0.119488
0.0903955
0.170764
0.104576
0.103478
0.123262
0.113704
0.184441
0.133018
0.0957133
0.100654
0.120895
0.0923736
0.127432
0.117137
0.137555
0.068171
0.111895
0.10481
0.13135
0.113153
0.206781
0.163943
0.128693
0.084451
0.108037
0.0968317
0.141173
0.174775
0.1045
0.111422
0.118199
0.20837
0.149067
0.154922
0.131532
0.104956
0.219131
0.0883817
0.129537
0.10061
0.104175
0.185471
0.0982522
0.178212
0.0901726
0.0944247
0.0931606
0.117758
0.116411
0.183442
0.126538
0.102604
0.0956761
0.10154
0.128153
0.0946207
0.127369
0.115657
0.191653
0.0855408
0.0949462
0.12273
0.0959038
0.174883
0.207102
0.108475
0.103763
0.200692
0.0942701
0.116026
0.123412
0.101933
0.105655
0.107673
0.155409
0.106994
0.0932752
0.101256
0.100661
0.122313
0.0947776
0.160304
0.099146
0.0760198
0.0957901
0.190694
0.120679
0.0948476
0.155572
0.0952683
0.135229
0.0678268
0.0841469
0.106126
0.246036
0.125847
0.0898672
0.0941621
0.108827
0.0948043
0.100466
0.0883747
0.0905321
0.107442
0.0958935
0.19903
0.117324
0.108913
0.0937169
0.104107
0.111874
0.144188
0.119438
0.107416
0.110689
0.12782
0.070698
0.12228
0.124888
0.068518
0.0763298
0.067688
0.0697444
0.067784
0.105358
0.104019
0.1222
0.19374
0.136751
0.105983
0.106625
0.103457
0.11219
0.173736
0.0956328
0.0937428
0.11955
0.14951
0.212949
0.0851038
0.119365
0.118589
0.0995502
0.108224
0.13622
0.126731
0.0972122
0.100911
0.0923991
0.110995
0.235523
0.159983
0.168922
0.123372
0.104077
0.0694254
0.0675252
0.0828786
0.0952505
0.0955899
0.154708
0.074878
0.176192
0.11033
0.0952173
0.121231
0.151088
0.184945
0.122335
0.122076
0.159451
0.104182
0.136035
0.0777604
0.147553
0.186951
0.080202
0.149049
0.0904658
0.126289
0.173013
0.117648
0.0533029
0.107955
0.102644
0.100135
0.105592
0.176006
0.122677
0.100001
0.127351
0.0972498
0.141733
0.0875202
0.0949955
0.10107
0.127613
0.0740926
0.142137
0.0702302
0.0666852
0.073943
0.0734651
0.0746788
0.0658028
0.0632562
0.068944
0.0843728
0.109599
0.067601
0.0700509
0.083016
0.0627004
0.072986
0.0687952
0.0709969
0.0767182
0.0660651
0.0760659
0.074301
0.0676572
0.0727826
0.145089
0.171838
0.119886
0.0967731
0.119545
0.112386
0.113462
0.107764
0.167813
0.197815
0.116662
0.144612
0.171859
0.104337
0.10006
0.0960771
0.116742
0.0776235
0.065518
0.0708868
0.0745682
0.0726974
0.0729666
0.0726921
0.0675904
0.0639275
0.0726301
0.0805045
0.0715698
0.14044
0.0932989
0.0703377
0.093852
0.153154
0.124066
0.0936279
0.125218
0.167224
0.07763
0.0984318
0.11258
0.113137
0.130919
0.102731
0.106168
0.106014
0.0551517
0.102359
0.101332
0.0934087
0.092718
0.073862
0.0799257
0.0918449
0.105581
0.0987074
0.160931
0.0950845
0.105953
0.1185
0.0955048
0.100736
0.0959888
0.118543
0.0739635
0.126226
0.10366
0.12258
0.106873
0.105186
0.143252
0.134994
0.106419
0.093519
0.18888
0.165971
0.179102
0.159434
0.168431
0.176091
0.162137
0.177239
0.100942
0.096655
0.109859
0.189502
0.201292
0.145252
0.112182
0.144218
0.178321
0.133814
0.189537
0.128824
0.235281
0.16209
0.134746
0.114867
0.113075
0.108114
0.112805
0.11075
0.110455
0.10666
0.169624
0.105331
0.124552
0.200471
0.109298
0.112488
0.13252
0.119818
0.128608
0.110155
0.107751
0.111452
0.226949
0.0972207
0.143612
0.0956665
0.0968343
0.0859661
0.177366
0.168802
0.119205
0.171586
0.155957
0.150007
0.0948322
0.0766015
0.182235
0.173384
0.0956821
0.0952594
0.160578
0.0953024
0.148914
0.097495
0.0954659
0.0982315
0.145098
0.138932
0.140772
0.101345
0.0967417
0.0961189
0.124704
0.165611
0.147308
0.144804
0.109909
0.149472
0.112537
0.0975069
0.117065
0.118128
0.0955412
0.106089
0.146084
0.135934
0.105181
0.13598
0.109679
0.140918
0.118407
0.135646
0.190556
0.120799
0.11109
0.0992213
0.10844
0.114535
0.112234
0.10409
0.209177
0.190978
0.176959
0.116811
0.211739
0.230035
0.0772592
0.0955577
0.0943958
0.100715
0.120368
0.111313
0.163848
0.18192
0.142222
0.176605
0.0940422
0.145462
0.178471
0.122695
0.115942
0.141966
0.12097
0.217739
0.0690591
0.102437
0.111738
0.131093
0.101437
0.0883843
0.137804
0.108047
0.101608
0.113839
0.102254
0.0965801
0.106942
0.127663
0.0881524
0.152931
0.103477
0.101685
0.152536
0.106593
0.0949469
0.102867
0.112892
0.103366
0.0738302
0.17318
0.107559
0.142195
0.132264
0.102144
0.152226
0.0955938
0.113748
0.103077
0.135467
0.0764464
0.106763
0.102467
0.0928449
0.107022
0.131864
0.105037
0.10593
0.111549
0.188638
0.0990571
0.14821
0.134149
0.128698
0.104167
0.110253
0.106083
0.104748
0.102346
0.108956
0.151941
0.108733
0.139211
0.0970167
0.14602
0.106479
0.0953148
0.10209
0.103378
0.103275
0.152135
0.11348
0.127941
0.0794095
0.0961638
0.101572
0.0860699
0.189463
0.161008
0.128464
0.0949159
0.173958
0.11615
0.110736
0.102897
0.106099
0.0981181
0.095023
0.117394
0.112045
0.102434
0.127741
0.148018
0.104509
0.104102
0.10154
0.121091
0.146648
0.111369
0.0951234
0.184729
0.0762106
0.158012
0.094589
0.137307
0.137518
0.150727
0.110907
0.0953252
0.0854158
0.109732
0.108419
0.123299
0.153827
0.124586
0.119358
0.116053
0.0957876
0.13073
0.0803561
0.112237
0.143834
0.154673
0.115673
0.129011
0.101773
0.119568
0.110414
0.120008
0.0967524
0.0990005
0.0882879
0.129121
0.168345
0.0850811
0.136926
0.115086
0.113011
0.125513
0.148735
0.120387
0.0602603
0.147257
0.115827
0.0908466
0.142243
0.0988541
0.0897092
0.213137
0.10553
0.0984953
0.177659
0.148913
0.197371
0.10424
0.121142
0.101475
0.126444
0.113533
0.111866
0.154335
0.11355
0.147227
0.119125
0.128656
0.109072
0.117704
0.109187
0.154302
0.117892
0.0796918
0.113331
0.163664
0.118915
0.1265
0.113378
0.10408
0.101129
0.153573
0.107634
0.106045
0.100019
0.10665
0.101161
0.0955945
0.106995
0.107443
0.215484
0.122327
0.102731
0.149115
0.122012
0.0693813
0.0674916
0.101844
0.0716373
0.0660389
0.0927865
0.112189
0.116793
0.0744049
0.063761
0.073382
0.144459
0.124602
0.0523648
0.176367
0.193786
0.130462
0.112055
0.0928334
0.0893083
0.110808
0.104786
0.16875
0.110768
0.105044
0.133811
0.0893937
0.0864479
0.219898
0.121101
0.21798
0.150009
0.114928
0.196706
0.0898635
0.121464
0.124447
0.134234
0.264959
0.16102
0.065952
0.112751
0.132705
0.094536
0.124561
0.0881822
0.183575
0.150762
0.165581
0.0487361
0.0546271
0.10738
0.120088
0.104388
0.0891295
0.124759
0.0874354
0.109368
0.139506
0.176299
0.125119
0.228125
0.145292
0.172037
0.0887445
0.18939
0.0790895
0.152625
0.104488
0.0995745
0.112831
0.13767
0.0866733
0.125582
0.0887084
0.10914
0.133437
0.125666
0.0775961
0.088488
0.137785
0.093435
0.139992
0.119309
0.0866515
0.207723
0.128144
0.135766
0.110217
0.102564
0.114157
0.0512696
0.0514117
0.166828
0.0962289
0.0898982
0.0966833
0.101344
0.128341
0.101151
0.0804838
0.0924423
0.0937944
0.140169
0.113977
0.0867323
0.133095
0.0872361
0.102239
0.157374
0.102691
0.0857722
0.113359
0.115839
0.121361
0.10073
0.114093
0.141374
0.127948
0.103094
0.140568
0.0534729
0.0964948
0.147831
0.0696988
0.129175
0.0833944
0.124741
0.0838924
0.182155
0.178239
0.112201
0.167293
0.123205
0.0891823
0.109846
0.0969193
0.0938671
0.0716979
0.155702
0.135543
0.121152
0.0951958
0.108994
0.210637
0.148358
0.102785
0.107189
0.11661
0.110893
0.0939619
0.129802
0.110624
0.185313
0.131639
0.101434
0.180811
0.135537
0.0950657
0.0834093
0.0668114
0.096749
0.147233
0.0986764
0.10657
0.178695
0.116121
0.131894
0.0954768
0.137676
0.171749
0.111555
0.0618819
0.0949825
0.0873976
0.132398
0.164321
0.102979
0.0918667
0.110271
0.0539176
0.118906
0.0561755
0.173556
0.110515
0.19613
0.0991414
0.199875
0.132576
0.105874
0.196936
0.122967
0.0960289
0.0952545
0.143458
0.117285
0.147203
0.117543
0.199187
0.117319
0.100768
0.0631889
0.108076
0.0949453
0.106891
0.0957106
0.0648471
0.0643577
0.0636982
0.0637121
0.11764
0.125055
0.110797
0.106133
0.0650653
0.108405
0.117769
0.064722
0.0641023
0.0631383
0.135771
0.0614418
0.0589998
0.180017
0.0740413
0.176021
0.0521374
0.122975
0.139051
0.146039
0.0906804
0.127137
0.0852778
0.121178
0.114858
0.103744
0.0969446
0.114035
0.106107
0.0827026
0.094322
0.124234
0.110726
0.102284
0.149966
0.12418
0.0866943
0.131823
0.141113
0.136633
0.101723
0.0950214
0.116376
0.162699
0.0905519
0.0896201
0.138281
0.16525
0.13789
0.116744
0.123574
0.14444
0.0946409
0.0888333
0.106318
0.105612
0.128651
0.119414
0.121519
0.188792
0.0958175
0.150475
0.0883625
0.0881184
0.14555
0.0998007
0.123804
0.0946892
0.0961034
0.0927151
0.113289
0.10066
0.115727
0.0965983
0.126556
0.104891
0.127093
0.0886057
0.112395
0.163547
0.151084
0.155583
0.128868
0.240238
0.116143
0.20551
0.213498
0.0949489
0.154292
0.102792
0.102772
0.0751879
0.117936
0.155722
0.0655691
0.122558
0.273508
0.245268
0.0619594
0.0951097
0.0963821
0.11446
0.113612
0.171731
0.0487485
0.112659
0.0947285
0.110969
0.0867079
0.0953803
0.105026
0.0805484
0.141953
0.145364
0.0946259
0.0995481
0.239487
0.135667
0.112348
0.104617
0.053644
0.0934842
0.0937782
0.0752292
0.104154
0.119778
0.162989
0.101504
0.109456
0.0916009
0.0969604
0.110978
0.11776
0.125495
0.138722
0.149541
0.114982
0.19172
0.0569859
0.100713
0.162913
0.184162
0.162062
0.117801
0.165517
0.124451
0.100445
0.156442
0.150095
0.0828312
0.103885
0.162917
0.087324
0.158024
0.123969
0.185272
0.0886587
0.090982
0.104864
0.0915167
0.104387
0.104139
0.0822808
0.0516893
0.0962348
0.118221
0.106575
0.126262
0.113434
0.0978422
0.124146
0.176611
0.0901727
0.0913108
0.195972
0.0923793
0.116994
0.0531097
0.0770466
0.102686
0.10842
0.0508166
0.0764704
0.0765893
0.089832
0.11208
0.195615
0.0933597
0.133438
0.0989664
0.102237
0.0848478
0.0968999
0.124131
0.0885718
0.117923
0.0963013
0.101514
0.105208
0.143018
0.0909856
0.0986814
0.145784
0.0504274
0.185264
0.106999
0.0642905
0.139118
0.0792016
0.0785862
0.0795733
0.0550363
0.122008
0.0589965
0.110539
0.212074
0.0955121
0.128104
0.101043
0.104963
0.110934
0.105149
0.155449
0.136778
0.0843048
0.107672
0.0899938
0.0873351
0.0912653
0.105133
0.101311
0.0916347
0.162005
0.189191
0.151412
0.0866336
0.134517
0.0666148
0.123266
0.126294
0.0880414
0.0529798
0.0785511
0.157825
0.206222
0.101784
0.178258
0.096893
0.100838
0.0943398
0.0893316
0.0938858
0.10657
0.103255
0.100471
0.076824
0.145221
0.101776
0.106083
0.147973
0.094267
0.117018
0.192082
0.0811384
0.104279
0.0983273
0.113866
0.109661
0.0940687
0.0944232
0.160513
0.105094
0.0880299
0.120531
0.101693
0.134571
0.184079
0.256925
0.216277
0.172351
0.10562
0.0965949
0.11227
0.0880137
0.103778
0.103591
0.119603
0.0930069
0.0939173
0.0716756
0.256344
0.0844772
0.110283
0.0946801
0.185961
0.104614
0.0770322
0.182349
0.104473
0.101101
0.105406
0.100587
0.104545
0.117805
0.146243
0.112983
0.109842
0.17104
0.196731
0.150524
0.186272
0.103844
0.093443
0.128752
0.209027
0.103879
0.0991317
0.145518
0.0915829
0.0896948
0.121
0.149406
0.0948181
0.0968964
0.167648
0.133602
0.0653572
0.0805831
0.10097
0.187112
0.0768649
0.104396
0.103098
0.103155
0.0986262
0.0904425
0.0933275
0.0991575
0.197267
0.153881
0.224233
0.109957
0.175995
0.149276
0.1274
0.149447
0.10655
0.118094
0.105439
0.102699
0.0930568
0.10097
0.106325
0.122127
0.0492499
0.109541
0.204747
0.101894
0.18029
0.0651639
0.155269
0.101571
0.179265
0.174219
0.1962
0.0574896
0.152435
0.159972
0.20902
0.155395
0.0899182
0.0978192
0.1045
0.148224
0.193931
0.11059
0.100951
0.0990747
0.137512
0.167862
0.0865385
0.176581
0.114895
0.153197
0.316024
0.146585
0.2359
0.144518
0.10163
0.088087
0.0883451
0.146629
0.0774447
0.132909
0.0896756
0.130983
0.10747
0.157961
0.150022
0.0874522
0.0873277
0.0946521
0.0510772
0.106228
0.0907004
0.0966836
0.156887
0.101993
0.0890252
0.106181
0.0869795
0.107084
0.212876
0.125775
0.163354
0.0953434
0.116166
0.0881532
0.0878983
0.0938688
0.103293
0.0820211
0.174985
0.0985624
0.124291
0.11831
0.0497662
0.0939763
0.102457
0.0943382
0.0948936
0.0509826
0.09275
0.0540306
0.101496
0.129678
0.196616
0.0815054
0.0990933
0.112889
0.0920845
0.162158
0.0782182
0.102215
0.124036
0.104849
0.115197
0.0722862
0.187184
0.180376
0.205351
0.0949154
0.0691278
0.143839
0.190686
0.165232
0.0856899
0.170814
0.11967
0.103135
0.0926324
0.0924829
0.169792
0.075019
0.14557
0.107181
0.109686
0.0788163
0.0994385
0.139973
0.0950883
0.207565
0.0867606
0.0898266
0.148732
0.103956
0.102727
0.158004
0.130538
0.184831
0.112666
0.0698403
0.156025
0.142468
0.0787072
0.131679
0.154252
0.211416
0.144382
0.0968193
0.0899806
0.204703
0.154953
0.204379
0.0990299
0.182692
0.219978
0.188402
0.111386
0.079967
0.179428
0.164401
0.0996937
0.0764182
0.116704
0.0828608
0.133091
0.231482
0.0718608
0.117558
0.101713
0.102697
0.107051
0.117414
0.103894
0.088657
0.18828
0.108201
0.158375
0.176171
0.18015
0.140016
0.134811
)
;

boundaryField
{
    frontAndBack
    {
        type            empty;
    }
    wallOuter
    {
        type            kqRWallFunction;
        value           nonuniform List<scalar> 
102
(
0.0408531
0.0408531
0.107555
0.0557642
0.0473245
0.0533029
0.0551517
0.0602603
0.0693813
0.0674916
0.0716373
0.0660389
0.0744049
0.063761
0.073382
0.144459
0.0523648
0.0928334
0.0864479
0.0898635
0.065952
0.0487361
0.0546271
0.0790895
0.152625
0.0512696
0.0514117
0.0534729
0.0833944
0.0539176
0.0561755
0.0648471
0.0643577
0.0636982
0.0637121
0.11764
0.125055
0.110797
0.106133
0.0650653
0.108405
0.117769
0.064722
0.0641023
0.0631383
0.0614418
0.0589998
0.0521374
0.122975
0.114035
0.0827026
0.110726
0.12418
0.116744
0.123574
0.0888333
0.119414
0.121519
0.0961034
0.0927151
0.102772
0.0655691
0.0619594
0.0487485
0.0805484
0.053644
0.109456
0.0569859
0.100713
0.087324
0.090982
0.104864
0.0516893
0.0962348
0.106575
0.0901727
0.0531097
0.0508166
0.11208
0.0885718
0.101514
0.0504274
0.0550363
0.0589965
0.110934
0.0873351
0.0916347
0.0529798
0.0893316
0.0880137
0.133602
0.0653572
0.0492499
0.0651639
0.0574896
0.0899182
0.0774447
0.0874522
0.0510772
0.0497662
0.0509826
0.0540306
)
;
    }
    inlet
    {
        type            fixedValue;
        value           nonuniform 0();
    }
    outlet
    {
        type            zeroGradient;
    }
    wallInner
    {
        type            kqRWallFunction;
        value           nonuniform List<scalar> 
138
(
0.0834402
0.0586065
0.112673
0.124398
0.129378
0.148288
0.140708
0.133953
0.113961
0.0689989
0.155127
0.187908
0.0725177
0.137555
0.068171
0.113153
0.206781
0.185471
0.174883
0.207102
0.108475
0.0678268
0.070698
0.068518
0.0763298
0.067688
0.0697444
0.067784
0.212949
0.0694254
0.0675252
0.074878
0.0740926
0.142137
0.0702302
0.0666852
0.073943
0.0734651
0.0746788
0.0658028
0.0632562
0.068944
0.0843728
0.109599
0.067601
0.0700509
0.083016
0.0627004
0.072986
0.0687952
0.0709969
0.0767182
0.0660651
0.0760659
0.074301
0.0676572
0.0727826
0.197815
0.0960771
0.116742
0.0776235
0.065518
0.0708868
0.0745682
0.0726974
0.0729666
0.0726921
0.0675904
0.0639275
0.0726301
0.0805045
0.0715698
0.0703377
0.073862
0.0799257
0.0739635
0.126226
0.093519
0.201292
0.189537
0.13252
0.0972207
0.0859661
0.0948322
0.0766015
0.124704
0.109909
0.149472
0.117065
0.190978
0.176959
0.0772592
0.0690591
0.152226
0.188638
0.0990571
0.173958
0.148018
0.154673
0.168345
0.0850811
0.0897092
0.0796918
0.0927865
0.116793
0.16102
0.0874354
0.0866733
0.0775961
0.0866515
0.0804838
0.133095
0.0872361
0.0696988
0.0716979
0.0618819
0.0631889
0.0740413
0.0852778
0.123804
0.163547
0.151084
0.0751879
0.114982
0.162917
0.0770466
0.0642905
0.0792016
0.136778
0.0666148
0.184079
0.14557
0.18828
0.108201
0.176171
0.18015
0.140016
0.134811
)
;
    }
    procBoundary2to0
    {
        type            processor;
        value           nonuniform List<scalar> 
42
(
0.10432
0.10432
0.2227
0.234663
0.129245
0.112645
0.219871
0.219871
0.10939
0.0964807
0.198853
0.198853
0.164644
0.198573
0.156689
0.122664
0.118836
0.0957895
0.0997089
0.149701
0.145789
0.0962821
0.0962821
0.157037
0.145789
0.101038
0.150255
0.110659
0.150255
0.105046
0.1121
0.126269
0.141188
0.144601
0.140086
0.234663
0.118836
0.159926
0.135694
0.216922
0.216922
0.144272
)
;
    }
    procBoundary2to1
    {
        type            processor;
        value           uniform 0.153339;
    }
    procBoundary2to3
    {
        type            processor;
        value           nonuniform List<scalar> 
29
(
0.156286
0.142534
0.125001
0.123855
0.109742
0.122137
0.120718
0.148763
0.153164
0.136443
0.140145
0.136141
0.115835
0.15194
0.116828
0.174899
0.171272
0.171272
0.142534
0.15194
0.134779
0.189314
0.112769
0.153804
0.109876
0.221354
0.153164
0.140814
0.136141
)
;
    }
}


// ************************************************************************* //
