/*--------------------------------*- C++ -*----------------------------------*\
| =========                 |                                                 |
| \\      /  F ield         | OpenFOAM: The Open Source CFD Toolbox           |
|  \\    /   O peration     | Version:  v1912                                 |
|   \\  /    A nd           | Website:  www.openfoam.com                      |
|    \\/     M anipulation  |                                                 |
\*---------------------------------------------------------------------------*/
FoamFile
{
    version     2.0;
    format      ascii;
    class       volScalarField;
    location    "0.08";
    object      nut;
}
// * * * * * * * * * * * * * * * * * * * * * * * * * * * * * * * * * * * * * //

dimensions      [0 2 -1 0 0 0 0];


internalField   nonuniform List<scalar> 
1466
(
0.00064964
0.000712013
0.000872037
0.000649547
0.000919041
0.000728263
0.00112213
0.00104469
0.000929825
0.000786107
0.000386458
0.00113704
0.000194535
0.000653536
0.00084323
0.000575851
0.000207027
0.000752603
0.0014176
0.00058194
0.000845828
0.00101745
0.000362088
0.000793693
0.000736412
0.000901804
0.00107196
0.000992077
0.000499935
0.000527042
0.000966895
0.00105539
0.00101105
0.000917382
0.000991314
0.000871655
0.000733417
0.000772025
0.0011095
0.000792789
0.00114814
0.000983031
0.000831899
0.000906729
0.00106375
0.000714632
0.000846985
0.000532051
0.000983528
0.000846934
0.000909893
0.0005417
0.000584909
0.000537611
0.000569393
0.000935907
0.000601116
0.000924989
0.000777094
0.000919385
0.000584297
0.00052926
0.000874936
0.000714862
0.000843181
0.000665602
0.000968854
0.00084513
0.000691117
0.00084753
0.000860003
0.000658058
0.000663701
0.000657389
0.000227328
0.000995688
0.000646827
0.000671703
0.000859437
0.000899711
0.000718962
0.000617645
0.000840927
0.000981207
0.000736904
0.000850699
0.000740732
0.000836645
0.000805604
0.00077033
0.00061166
0.00035046
0.000896699
0.000655922
0.00090465
0.000752088
0.000814755
0.000810418
0.000753201
0.000582533
0.000668246
0.00104051
0.000945055
0.000618444
0.000838295
0.000774286
0.000845148
0.000840916
0.000787186
0.000875431
0.000733933
0.000770528
0.00077059
0.000804465
0.000227749
0.000894363
0.000368487
0.000507638
0.000758563
0.000899299
0.000745324
0.000759753
0.000371061
0.000900792
0.000901119
0.000927984
0.000717547
0.000557556
0.000901609
0.000895893
0.000978215
0.00063872
0.000950572
0.00103655
0.000858542
0.000891793
0.000988968
0.000808988
0.00100539
0.000457367
0.000592099
0.000340433
0.000930751
0.000913483
0.00102427
0.000424983
0.000575576
0.000649035
0.00101783
0.000695868
0.000903943
0.000797909
0.000799692
0.00086385
0.000644251
0.000924372
0.000675113
0.00119393
0.00107325
0.000675242
0.00103938
0.000606329
0.0008861
0.000747775
0.00103053
0.000892598
0.000908867
0.000507157
0.000729914
0.0011732
0.000774187
0.00085235
0.000731929
0.000972224
0.000958079
0.000858302
0.0010166
0.000894298
0.000849851
0.000891424
0.000764618
0.000859436
0.000986289
0.000812126
0.000876169
0.000557993
0.000862366
0.000930901
0.000867055
0.00052503
0.00047754
0.00034933
0.000650348
0.000854321
0.000854637
0.000658346
0.000979668
0.00088034
0.000886067
0.000831994
0.00109454
0.000924659
0.000840401
0.000732454
0.00081939
0.000990886
0.000861182
0.00060084
0.000878373
0.000532071
0.000822728
0.00117172
0.000978642
0.00085768
0.000755685
0.000864104
0.000844745
0.000321606
0.000558137
0.000665144
0.00106197
0.000755961
0.000659954
0.000852293
0.00093448
0.000860592
0.000736981
0.000638829
0.00075274
0.000917569
0.000861125
0.000843562
0.000753986
0.000921714
0.000840885
0.000862555
0.00093645
0.000877928
0.000958029
0.000813586
0.0009235
0.000975929
0.000371437
0.000994391
0.00100777
0.000327272
0.000420247
0.000333064
0.000328215
0.000326451
0.000650983
0.000906137
0.000986068
0.000870886
0.000891776
0.000916942
0.000857948
0.000907374
0.000881294
0.000946446
0.000864879
0.000844265
0.000937762
0.000711903
0.000686736
0.000709883
0.000936416
0.00098025
0.000889597
0.000660371
0.000982222
0.000781096
0.000869555
0.00077956
0.000825625
0.000920635
0.00100485
0.0010172
0.000612168
0.000998691
0.000879497
0.000329029
0.000329375
0.000630784
0.000863056
0.000833222
0.000955401
0.000430143
0.000971796
0.000511046
0.00086457
0.000934399
0.000940443
0.000981479
0.000976928
0.000925228
0.00100392
0.000901511
0.000998732
0.000469746
0.000884465
0.0011045
0.000541316
0.00096761
0.000778821
0.000955409
0.000967442
0.000961752
0.000220683
0.00089133
0.000904045
0.000828728
0.000909022
0.0011167
0.000982691
0.000888733
0.00100845
0.000824401
0.00104737
0.00068439
0.000864042
0.000896483
0.000976468
0.000327081
0.000462467
0.000348952
0.000344813
0.000377761
0.00038609
0.00041539
0.00030469
0.000297433
0.00036843
0.000443799
0.000399493
0.000303646
0.000262231
0.000482676
0.00024879
0.00038935
0.000391317
0.000398478
0.000353557
0.000330521
0.000436543
0.000409314
0.000338527
0.000353733
0.00078511
0.000956723
0.000973688
0.00087163
0.000977537
0.000940506
0.00094614
0.000927832
0.00114257
0.000591889
0.000838745
0.00092974
0.000997946
0.000911657
0.000891965
0.000496113
0.000416685
0.000457418
0.000331273
0.000381924
0.000431586
0.000424808
0.000394287
0.000352309
0.000338907
0.000290744
0.000311609
0.000334092
0.000341312
0.000953899
0.000833259
0.000320918
0.000817992
0.00104052
0.000945613
0.000789454
0.000953881
0.000940324
0.000515215
0.000880031
0.00093162
0.000685087
0.000923331
0.000906395
0.000922949
0.000909273
0.000222312
0.000886125
0.000899936
0.000807812
0.000832665
0.00030817
0.000328624
0.000794607
0.000921236
0.00088195
0.00100887
0.000861889
0.000915277
0.000864889
0.000859449
0.000862808
0.000867451
0.000953353
0.000311261
0.000416839
0.000903845
0.000970302
0.00091733
0.00090111
0.00101811
0.00100558
0.00090016
0.000441469
0.00118225
0.000919706
0.0010787
0.000916202
0.00102252
0.00107357
0.000763597
0.00068786
0.000900361
0.000873847
0.000921708
0.00115346
0.000653268
0.00100067
0.000920896
0.000952366
0.00116246
0.000971007
0.000527414
0.00081838
0.00128724
0.000958656
0.000994225
0.000917149
0.000896028
0.000892068
0.000918165
0.000913965
0.00091541
0.000901536
0.00078816
0.000898511
0.000940444
0.00106165
0.000890716
0.000900945
0.000426064
0.000923608
0.000937491
0.000914725
0.000900232
0.000906341
0.00113839
0.000392039
0.00101135
0.000867392
0.000874214
0.00032825
0.00112618
0.00105652
0.000910991
0.000841771
0.000987051
0.00094131
0.000365014
0.000323505
0.00102277
0.000964302
0.000864521
0.000863978
0.000946442
0.0008646
0.000855499
0.000868417
0.000864054
0.000873561
0.000800815
0.00101886
0.000753922
0.00088899
0.000872356
0.000866866
0.000524883
0.000898632
0.000785092
0.000971882
0.000421784
0.000484578
0.000898573
0.000870798
0.000441191
0.000934825
0.000866422
0.000923744
0.00101222
0.000960649
0.000903243
0.000991754
0.000896945
0.000701614
0.000928824
0.000925585
0.000835648
0.000946956
0.000923542
0.000882113
0.000896646
0.000896422
0.000892587
0.000905624
0.000956782
0.000646447
0.000521569
0.000714951
0.00100806
0.00099895
0.000395444
0.000867074
0.000847238
0.000895449
0.000940757
0.000921076
0.000914027
0.00101859
0.00108132
0.00109318
0.000848581
0.00070885
0.00104341
0.000946516
0.000890905
0.000984196
0.00095066
0.000920293
0.000343136
0.00089853
0.000925853
0.000935834
0.000884611
0.000770673
0.000991742
0.00092178
0.000898144
0.000888782
0.000898452
0.000867531
0.000914175
0.000927691
0.000736372
0.000922314
0.000904477
0.000895026
0.00101194
0.000911653
0.000863781
0.00081196
0.000926382
0.000900199
0.000543571
0.001054
0.000908251
0.00108351
0.000748886
0.000892805
0.000653581
0.000868162
0.000925216
0.000894075
0.000939541
0.000562212
0.000921392
0.000905485
0.000834088
0.00090678
0.000739278
0.000897476
0.000907372
0.000934251
0.000561334
0.000411676
0.00107188
0.000987259
0.00097384
0.000897818
0.000941441
0.000883967
0.000907095
0.000903511
0.000912088
0.00098434
0.000908493
0.000923177
0.000867526
0.000960772
0.000918218
0.000847712
0.000898603
0.000895533
0.000890443
0.000791598
0.000934414
0.00093075
0.000553623
0.000872281
0.000896472
0.00060577
0.000971377
0.000997947
0.000940346
0.0008636
0.000523145
0.000944935
0.000901132
0.000897369
0.00089473
0.000837833
0.000864892
0.000939307
0.000917588
0.000895429
0.000981565
0.000485267
0.000915083
0.000890197
0.000900944
0.000948482
0.00101843
0.00091384
0.000865598
0.00103003
0.000588094
0.00105427
0.000807702
0.00105973
0.000992334
0.000927229
0.000922434
0.000866556
0.000663233
0.000916207
0.000908633
0.000915284
0.000998877
0.000878997
0.000880726
0.000968381
0.000868385
0.000992003
0.000539475
0.000928441
0.00109017
0.000653421
0.000909112
0.000972477
0.000900348
0.000921396
0.000921366
0.000947112
0.000871527
0.000605286
0.000689999
0.000919703
0.000514536
0.000364935
0.000994634
0.000935036
0.000866982
0.000727848
0.00100502
0.000869352
0.000270877
0.00100213
0.000960895
0.000786894
0.000623071
0.000860245
0.000400371
0.000857338
0.000660603
0.000875657
0.00115533
0.00106254
0.00115005
0.00087525
0.000988544
0.000885043
0.000953028
0.000940807
0.000913577
0.000990107
0.000943451
0.000969047
0.000951744
0.000767482
0.000923819
0.000933505
0.000909658
0.00103164
0.000910826
0.00036211
0.000823552
0.00101149
0.000934179
0.000625779
0.000949131
0.000900438
0.000878576
0.00107223
0.000928589
0.000905438
0.000883675
0.000914777
0.000895433
0.000866407
0.000924417
0.000854759
0.0010316
0.000960007
0.00090533
0.000864781
0.000862129
0.000260384
0.000271102
0.000897257
0.000258075
0.000300533
0.000474606
0.000918374
0.000460272
0.000260952
0.000260658
0.000241166
0.000350999
0.000840373
0.000187829
0.00106324
0.000819594
0.00103376
0.000831923
0.000299016
0.000664394
0.000861394
0.000910855
0.000754447
0.000866112
0.000910508
0.000739339
0.000652229
0.000284948
0.00114235
0.000916193
0.00102811
0.00099952
0.000926529
0.000669334
0.000293141
0.000810878
0.000943433
0.00101735
0.00110582
0.000533813
0.000341698
0.000909116
0.000946486
0.000725451
0.00100666
0.000695895
0.00105284
0.000871749
0.000992617
0.000211469
0.000213716
0.000883968
0.00097496
0.000887991
0.0007592
0.000725024
0.000326291
0.000624999
0.000975513
0.000970392
0.000717533
0.00093796
0.00104562
0.00103252
0.000736724
0.00122435
0.000332017
0.000476083
0.000913627
0.000872113
0.000895321
0.000765322
0.000388942
0.00090438
0.000774789
0.000891087
0.000958094
0.000834236
0.000366365
0.000744913
0.000924887
0.000693387
0.000833953
0.000670772
0.000396374
0.000919088
0.000918341
0.000770087
0.000778877
0.000901664
0.000940905
0.00020026
0.000203676
0.000787488
0.000866862
0.000707828
0.000817646
0.000825343
0.000968876
0.000736999
0.000441487
0.000776502
0.000533322
0.000773992
0.000874562
0.000582649
0.000487532
0.000383691
0.000811829
0.001103
0.000898311
0.000664678
0.000919407
0.000964396
0.000991966
0.000893638
0.000933823
0.000944477
0.000876179
0.000905455
0.000908689
0.000216351
0.000871561
0.000998444
0.00034095
0.000712639
0.000280332
0.000866558
0.000634737
0.000999158
0.000860813
0.00090578
0.000945885
0.00065315
0.000747868
0.000938184
0.00071384
0.000824484
0.00031352
0.000962537
0.000799271
0.0009088
0.000865148
0.000684717
0.000850833
0.000932845
0.000896433
0.000655419
0.000953666
0.000867822
0.000841241
0.000635714
0.000814374
0.000882178
0.000826175
0.00089571
0.00100663
0.000973206
0.000864596
0.000556772
0.000381436
0.000858871
0.000979854
0.000887139
0.000930421
0.00112715
0.000849403
0.0007788
0.000862084
0.000805905
0.000919472
0.000945337
0.000267439
0.000863916
0.000752887
0.00103884
0.00106455
0.000782529
0.000793324
0.000932714
0.000195507
0.00081837
0.000214414
0.000944399
0.000716472
0.000834687
0.000833502
0.000900196
0.000862755
0.000896182
0.00113257
0.000891904
0.000692943
0.000864166
0.00104543
0.000817362
0.0010467
0.000755908
0.000868512
0.000965737
0.000891214
0.000314506
0.000917802
0.000863586
0.00091505
0.000844698
0.000238399
0.000229284
0.000197475
0.000216591
0.000308189
0.000290498
0.000303281
0.000277421
0.000243668
0.000263429
0.000287259
0.00024566
0.000242866
0.000236217
0.000784574
0.000226322
0.000218931
0.00113976
0.00036612
0.00109418
0.00020743
0.000315999
0.000956487
0.00102058
0.000651331
0.000639408
0.000387795
0.000890496
0.000678086
0.000893884
0.000866872
0.000333934
0.000922853
0.000315748
0.000836318
0.000905254
0.000331282
0.000864609
0.000900619
0.000337241
0.000638787
0.000899681
0.00100571
0.000932057
0.000897656
0.000863539
0.000949443
0.000715322
0.000743124
0.000753611
0.000896997
0.000807988
0.000553841
0.000340837
0.000347579
0.000970493
0.000849627
0.000285841
0.000906868
0.000893942
0.000945602
0.000346233
0.00034975
0.00119105
0.000865462
0.0010822
0.000600742
0.000657181
0.000702607
0.000730784
0.000423442
0.00084567
0.000305277
0.000373729
0.000888055
0.00086936
0.000875144
0.000838708
0.000848162
0.00089069
0.000961748
0.00077389
0.000641688
0.000425066
0.000469984
0.00077863
0.00101586
0.00100432
0.000951853
0.000908185
0.00107414
0.000863452
0.000940533
0.000895726
0.000367546
0.000253087
0.000943569
0.0008257
0.000248939
0.000949832
0.0013438
0.00119114
0.000232833
0.000855532
0.00086245
0.0009439
0.000958181
0.000768026
0.000227772
0.000950024
0.000836794
0.000839836
0.000679636
0.000864578
0.000894943
0.000275768
0.00102521
0.000980195
0.000852458
0.00052097
0.00113177
0.000956512
0.000658126
0.000806911
0.000213444
0.000830107
0.000822203
0.000572686
0.000892927
0.000912659
0.00113893
0.000872396
0.000390554
0.000800485
0.000797401
0.00088959
0.000779152
0.000987239
0.000910295
0.00103749
0.000362217
0.00101371
0.000248554
0.000344241
0.0010222
0.00102197
0.00113946
0.000927934
0.00112751
0.000932957
0.000853979
0.000949866
0.00110731
0.00061821
0.000899349
0.00042352
0.000329881
0.000689001
0.00098782
0.00094119
0.000740046
0.000388724
0.000343752
0.000797254
0.000895343
0.000852191
0.000601691
0.000213641
0.000308458
0.000884297
0.000330495
0.00101338
0.000954959
0.000862924
0.000743682
0.00111408
0.000311004
0.000429698
0.000598469
0.000754115
0.000862972
0.000215949
0.000371136
0.000898169
0.000846103
0.000199163
0.000467971
0.000508135
0.000767495
0.000381641
0.00122003
0.000725474
0.000924561
0.000879886
0.000899945
0.000621459
0.000725575
0.000963293
0.000292186
0.000923257
0.000870581
0.000320839
0.000799488
0.000938256
0.000640817
0.000865361
0.000880591
0.000216455
0.000794598
0.000925537
0.000301597
0.000682434
0.000279063
0.000619284
0.000501135
0.000203444
0.00088731
0.000194267
0.000850105
0.00124355
0.000792753
0.000991787
0.000893379
0.000911777
0.000392614
0.000909329
0.000791559
0.000498037
0.00059128
0.000844113
0.000759654
0.000254711
0.00077516
0.000909518
0.000821008
0.000296005
0.000952167
0.00106088
0.000789865
0.000570295
0.000907601
0.000321203
0.000989896
0.000783483
0.000546943
0.000163799
0.000561496
0.000929224
0.000783444
0.000896739
0.000793682
0.000871976
0.000892605
0.000667849
0.000312332
0.000739068
0.000882609
0.000903319
0.000891671
0.000555582
0.000735075
0.000894147
0.000924051
0.000684113
0.000828794
0.000738139
0.00088644
0.000651411
0.000897695
0.000885515
0.000924946
0.000916025
0.000841501
0.000851676
0.000784481
0.000897765
0.000764663
0.000981463
0.00089744
0.00104143
0.000513558
0.00125915
0.000933394
0.000811859
0.000905821
0.000868792
0.000643132
0.000270403
0.00090059
0.000895728
0.000632753
0.00081736
0.000813591
0.000506002
0.00118333
0.000491918
0.000905754
0.000823523
0.00091304
0.000562114
0.00046183
0.000940524
0.000651167
0.000894381
0.000904941
0.000893984
0.000891423
0.000787252
0.000955856
0.000922817
0.000871509
0.00112879
0.00108061
0.00104639
0.00106934
0.000897748
0.000680152
0.00101215
0.00123945
0.000900897
0.000818443
0.000681997
0.000712513
0.000748614
0.000978396
0.0010312
0.000707517
0.000835686
0.0010284
0.000242109
0.000161907
0.000462503
0.000894513
0.000912447
0.000493829
0.000899422
0.000896212
0.000906078
0.000757241
0.000799181
0.000807051
0.000883712
0.00115995
0.000495508
0.000982668
0.000831854
0.000850272
0.00108233
0.00101791
0.000741975
0.000670651
0.000892133
0.000896295
0.000901707
0.00066334
0.000895294
0.000895388
0.000973864
0.000224357
0.000934825
0.000935589
0.000895887
0.0010213
0.000242198
0.000784929
0.000892781
0.0011091
0.000914049
0.00107223
0.000162122
0.00102855
0.00112064
0.000684678
0.000881751
0.000298526
0.000849053
0.000912456
0.000974928
0.00122976
0.000927308
0.000895182
0.000859069
0.00102527
0.00104717
0.000736099
0.000907648
0.000902085
0.000859032
0.00111105
0.00102776
0.00131487
0.000857668
0.000896656
0.000712571
0.000690042
0.00079025
0.000268191
0.000981933
0.000708928
0.00071559
0.000663123
0.000797661
0.00101121
0.00025793
0.000722682
0.000689704
0.00020157
0.000912681
0.000770818
0.000750688
0.000783016
0.000896082
0.00050988
0.000919561
0.000701074
0.000665678
0.00122975
0.000926117
0.00102188
0.000866022
0.00096267
0.000712438
0.000692706
0.000530756
0.000734899
0.000633274
0.000791062
0.000873678
0.000973922
0.000928246
0.000221618
0.00081409
0.000863965
0.000846344
0.000847083
0.000200083
0.000475947
0.000210999
0.000894523
0.000926156
0.000951389
0.000660943
0.00087204
0.000838643
0.00080332
0.000524129
0.000486814
0.000711978
0.000989306
0.000908214
0.000852043
0.000501266
0.000843752
0.00105794
0.00121022
0.000852185
0.000416827
0.000944844
0.000929158
0.00115457
0.00066372
0.00100741
0.00095244
0.000899816
0.000811671
0.000799689
0.00117028
0.000482088
0.000551641
0.000587564
0.000819315
0.00050632
0.000646981
0.000787613
0.000861098
0.000721898
0.000628349
0.0007196
0.00107207
0.000898351
0.000898837
0.00102027
0.000840792
0.000895163
0.000768104
0.000426681
0.000980416
0.000733049
0.000488091
0.000897631
0.000953378
0.000759639
0.000713094
0.00080473
0.00046956
0.00064529
0.000770466
0.000917201
0.000414444
0.000851034
0.000931573
0.000776428
0.000772247
0.000518448
0.00117412
0.00110226
0.000798594
0.000572246
0.000843527
0.000670225
0.00100253
0.00132584
0.000399931
0.000920594
0.000899119
0.000902098
0.000626933
0.000954671
0.000909061
0.00068207
0.000548192
0.000543953
0.000517356
0.000534366
0.000511289
0.000633216
0.000526025
)
;

boundaryField
{
    frontAndBack
    {
        type            empty;
    }
    wallOuter
    {
        type            nutkWallFunction;
        Cmu             0.09;
        kappa           0.41;
        E               9.8;
        value           nonuniform List<scalar> 
102
(
2.29832e-05
2.29832e-05
4.42422e-05
2.72442e-05
2.75558e-05
2.62501e-05
2.63823e-05
3.31729e-05
3.15955e-05
3.30942e-05
3.12195e-05
3.70604e-05
3.15344e-05
3.17116e-05
2.87844e-05
4.19383e-05
2.15321e-05
3.62542e-05
3.44935e-05
3.55229e-05
4.25992e-05
2.51327e-05
2.51551e-05
4.07426e-05
5.7353e-05
2.3436e-05
2.38753e-05
2.57368e-05
3.39328e-05
2.27132e-05
2.53327e-05
2.84682e-05
2.72144e-05
2.28264e-05
2.54708e-05
3.70259e-05
3.43195e-05
3.65593e-05
3.32929e-05
2.91927e-05
3.14565e-05
3.42397e-05
2.94745e-05
2.91328e-05
2.82463e-05
2.69038e-05
2.5909e-05
2.44967e-05
3.77499e-05
4.02235e-05
3.84796e-05
3.98642e-05
4.04074e-05
4.10688e-05
4.17336e-05
3.45156e-05
4.16459e-05
4.20608e-05
3.65475e-05
4.57957e-05
4.50059e-05
3.01547e-05
2.79361e-05
2.75092e-05
3.33809e-05
2.52697e-05
4.7846e-05
3.00502e-05
4.20181e-05
4.02465e-05
4.77546e-05
4.19366e-05
2.53703e-05
3.74445e-05
3.97217e-05
3.77762e-05
2.56895e-05
2.33133e-05
4.67029e-05
3.55121e-05
3.84759e-05
2.58208e-05
2.36832e-05
2.23704e-05
4.81034e-05
3.05649e-05
3.55355e-05
1.81776e-05
3.80653e-05
3.26647e-05
2.78698e-05
1.78055e-05
2.70002e-05
2.92725e-05
1.79932e-05
3.60649e-05
3.24357e-05
3.09108e-05
2.36353e-05
2.65838e-05
2.34588e-05
2.48083e-05
)
;
    }
    inlet
    {
        type            calculated;
        value           nonuniform 0();
    }
    outlet
    {
        type            calculated;
        value           nonuniform 0();
    }
    wallInner
    {
        type            nutkWallFunction;
        Cmu             0.09;
        kappa           0.41;
        E               9.8;
        value           nonuniform List<scalar> 
138
(
4.83031e-05
2.42166e-05
6.07322e-05
6.44728e-05
6.61624e-05
6.96941e-05
6.41144e-05
6.84726e-05
6.51284e-05
4.37482e-05
8.07813e-05
7.52099e-05
4.6365e-05
7.21421e-05
4.24322e-05
5.13002e-05
7.12153e-05
6.1395e-05
6.37426e-05
5.85173e-05
4.20373e-05
3.99223e-05
4.64804e-05
4.05515e-05
5.29975e-05
4.145e-05
4.06613e-05
4.04977e-05
8.30931e-05
4.07465e-05
4.09339e-05
5.4033e-05
3.96229e-05
5.55489e-05
4.33512e-05
4.30774e-05
4.73367e-05
4.83873e-05
5.20625e-05
3.74638e-05
3.66753e-05
4.61525e-05
5.43859e-05
4.76868e-05
3.69584e-05
3.20511e-05
6.08796e-05
3.01962e-05
4.88782e-05
4.9243e-05
5.0046e-05
4.35295e-05
4.11326e-05
5.47283e-05
5.15674e-05
4.25913e-05
4.42523e-05
7.22352e-05
5.97811e-05
5.09653e-05
5.75615e-05
4.12886e-05
4.78978e-05
5.43562e-05
5.36599e-05
4.95884e-05
4.40393e-05
4.23974e-05
3.55584e-05
3.80834e-05
4.02446e-05
4.21597e-05
3.94349e-05
3.81998e-05
4.01133e-05
3.80549e-05
5.10089e-05
5.49909e-05
8.00253e-05
6.33268e-05
5.19957e-05
4.80252e-05
4.0383e-05
4.45465e-05
3.97575e-05
6.39937e-05
5.0285e-05
5.82055e-05
5.39016e-05
7.87134e-05
6.34539e-05
4.94094e-05
4.25444e-05
7.95359e-05
6.90685e-05
4.96955e-05
6.39735e-05
5.76703e-05
7.95968e-05
6.25514e-05
4.41107e-05
4.96811e-05
4.48405e-05
5.96441e-05
5.45411e-05
6.33461e-05
3.94968e-05
4.83183e-05
4.54962e-05
4.89707e-05
5.55019e-05
6.02801e-05
4.79187e-05
4.24779e-05
3.86845e-05
3.25502e-05
3.90838e-05
4.54928e-05
4.81519e-05
5.10959e-05
5.16066e-05
5.7382e-05
3.02681e-05
4.45427e-05
5.10163e-05
4.57783e-05
3.7185e-05
3.34955e-05
6.02033e-05
3.98383e-05
6.23391e-05
6.62208e-05
6.68663e-05
6.70754e-05
6.389e-05
6.10178e-05
7.647e-05
6.44935e-05
)
;
    }
    procBoundary2to0
    {
        type            processor;
        value           nonuniform List<scalar> 
42
(
0.000892631
0.000892631
0.00088635
0.000915762
0.00100228
0.000884305
0.000837182
0.000837182
0.000940295
0.000873615
0.00106188
0.00106188
0.00103992
0.00102306
0.00098634
0.00080392
0.000932493
0.00086883
0.00089263
0.00100779
0.000870322
0.000870115
0.000870115
0.000796949
0.000870322
0.000893774
0.000738046
0.000935355
0.000738046
0.000896685
0.000919886
0.000991192
0.00103393
0.0010338
0.00100858
0.000915762
0.000932493
0.000451579
0.000747506
0.000884931
0.000884931
0.000959441
)
;
    }
    procBoundary2to1
    {
        type            processor;
        value           uniform 0.00104445;
    }
    procBoundary2to3
    {
        type            processor;
        value           nonuniform List<scalar> 
29
(
0.00105406
0.00099011
0.00058467
0.000479842
0.000579436
0.000621842
0.000585909
0.00097275
0.000997505
0.000834517
0.000862328
0.000753059
0.000584301
0.000983346
0.00092959
0.000980786
0.00101923
0.00101923
0.00099011
0.000983346
0.00100438
0.0010611
0.000370922
0.00100349
0.00071005
0.00119218
0.000997505
0.000977514
0.000753059
)
;
    }
}


// ************************************************************************* //
