/*--------------------------------*- C++ -*----------------------------------*\
| =========                 |                                                 |
| \\      /  F ield         | OpenFOAM: The Open Source CFD Toolbox           |
|  \\    /   O peration     | Version:  v1912                                 |
|   \\  /    A nd           | Website:  www.openfoam.com                      |
|    \\/     M anipulation  |                                                 |
\*---------------------------------------------------------------------------*/
FoamFile
{
    version     2.0;
    format      ascii;
    class       volScalarField;
    location    "0.08";
    object      p;
}
// * * * * * * * * * * * * * * * * * * * * * * * * * * * * * * * * * * * * * //

dimensions      [0 2 -2 0 0 0 0];


internalField   nonuniform List<scalar> 
1466
(
93.3157
92.3211
93.2413
93.6873
93.4187
93.8458
87.4846
92.3304
93.0114
86.9354
93.6777
89.4057
94.4104
94.0927
93.9927
94.1018
93.5153
93.8984
94.1362
93.9917
93.8266
91.8778
89.2597
92.7566
94.1594
93.6388
93.6589
91.1101
88.7572
91.9559
92.6926
93.232
90.6373
90.5117
93.8931
93.9723
93.8002
93.807
94.5003
90.9233
88.7838
92.8354
92.7966
90.9306
89.4928
91.6741
93.799
93.6975
93.0668
93.8042
93.2375
87.1097
93.3524
93.8698
91.5228
92.5562
93.8693
93.3783
93.0075
92.8733
94.133
91.3073
93.0702
93.6669
91.8663
94.1803
92.0952
93.8477
93.6795
92.745
93.5109
93.6412
93.8012
93.3968
93.7945
87.1918
93.3071
93.6006
88.1897
92.9067
93.4324
93.4824
93.9311
93.2262
93.7671
93.7591
93.7504
91.3163
94.2326
92.5558
93.7198
93.7783
93.2119
93.6737
93.2101
93.7962
92.7796
92.5353
92.5403
93.856
87.433
91.0168
93.1605
92.94
93.8635
92.4905
93.8663
93.9067
92.7743
94.19
93.3398
93.7829
93.2346
93.7921
94.4039
93.8732
93.6642
93.9038
92.2897
93.3543
93.8416
93.6207
93.2848
91.8157
94.3582
93.4621
94.3915
93.0511
93.2974
93.4611
93.5003
93.3866
93.4966
91.3786
93.361
92.9957
92.5546
93.7262
88.7506
93.1366
87.1101
93.805
93.4038
93.2768
89.1037
94.7969
93.4504
91.9593
91.4752
93.7865
93.3613
94.3586
92.9811
92.8867
93.8559
93.4947
93.5627
93.7957
93.7947
91.7956
90.5385
93.9962
91.4948
93.82
91.5392
93.1081
93.492
94.8842
94.152
93.7667
93.7451
93.7396
94.3828
92.1052
93.7203
92.517
92.02
93.1013
94.0356
93.1441
93.7545
93.8548
93.5072
94.2096
91.9602
93.8247
93.8979
94.0226
93.9443
93.1616
93.9938
94.0155
94.0969
91.4871
93.8334
93.6069
88.5038
94.1506
94.1071
94.129
93.2134
93.7199
93.8841
94.198
94.3487
93.0043
93.876
90.9466
94.0042
94.1867
94.1796
93.2746
93.7858
93.7458
92.2744
93.9204
91.863
93.6571
93.9114
93.5777
93.8169
93.386
94.0509
93.7815
92.6339
93.7653
94.015
94.1931
93.8815
93.3551
93.7224
90.5643
94.0905
93.5146
93.9579
94.2956
93.5599
92.0188
93.5945
94.2314
93.206
93.5891
93.7496
92.2229
92.4354
93.8852
93.6061
93.8294
93.8313
93.8704
93.8489
92.6362
93.2104
90.7907
94.3378
92.4995
94.0362
93.4828
94.0597
87.0425
93.7328
93.7569
92.1164
92.1041
94.3133
93.9899
92.9179
93.2576
93.7292
93.5785
92.228
93.7998
93.7107
93.9157
93.7736
93.0329
91.7658
94.6135
92.5134
92.7521
94.2242
93.8851
93.8516
94.3983
93.7237
93.6862
93.4547
93.7129
93.3942
92.8818
93.7507
93.2648
93.3381
86.9921
93.3763
93.5992
94.0168
93.9713
93.7005
93.5221
93.4596
93.1541
94.3565
93.4802
94.0663
93.9422
90.4492
93.4731
94.4061
93.9029
93.3943
93.2042
93.6765
90.0883
93.3763
93.7674
93.34
93.6751
88.2924
94.3667
93.778
92.7913
93.5759
94.0275
91.4931
93.658
93.4116
93.7009
93.56
93.3884
92.4658
93.8272
93.4623
93.3431
92.014
93.9197
93.794
93.6981
93.4836
93.4256
92.6415
93.8038
93.4374
93.2904
93.6876
93.5362
93.019
93.7841
93.2621
93.5018
93.1811
93.7241
92.9489
93.3079
93.4047
93.7777
93.3552
93.1398
93.916
93.458
93.3779
92.6273
92.9809
93.3257
92.2316
93.6971
93.3554
93.51
93.7883
92.8189
93.4772
93.7804
93.2051
93.8631
93.3474
92.2947
93.5863
93.7558
93.742
93.2525
93.7064
91.4963
93.6043
93.2908
92.3647
93.3457
93.6867
93.6982
93.6657
93.3224
93.5148
93.0726
93.0763
93.9305
94.3752
94.0454
93.0961
93.5981
93.8465
93.7941
93.7474
93.503
93.3033
93.7194
87.9818
93.7312
93.3396
94.1379
93.7775
92.5628
93.7125
93.5851
93.2788
90.5119
93.6849
93.5645
93.2985
93.1819
93.6459
93.6542
93.2096
93.0798
91.5796
89.5657
90.9714
90.2943
89.8686
90.6097
88.4997
87.8429
93.154
93.736
93.3927
94.1589
93.8171
94.153
93.7572
91.8857
93.6801
93.6409
94.2145
93.5725
94.2278
93.5159
93.6859
93.6465
93.5566
93.5151
93.9526
93.2785
93.9525
93.5713
93.4703
93.1909
93.8663
93.6333
93.5241
93.5597
93.154
93.3535
93.7699
93.3447
93.2654
93.2819
94.3012
94.0044
94.1762
93.7415
93.0374
93.2187
94.2744
93.5954
93.3412
93.4668
92.5038
91.8873
93.4266
93.3648
93.1094
93.1103
92.8826
93.7439
92.3273
93.7422
91.6241
92.6815
93.7595
93.3444
91.2977
88.1968
91.0992
92.5045
93.7484
93.3957
94.1554
92.6999
92.282
93.973
94.1965
94.2185
92.3837
93.7864
93.4292
93.1168
93.4405
93.3216
88.0312
93.4775
93.2712
93.5886
93.5475
91.5873
93.5169
93.4047
93.3861
93.5507
92.3075
93.7499
93.254
93.3012
93.312
93.7872
94.179
93.3929
93.4556
93.5005
94.3099
93.9676
93.3248
93.4225
93.7188
93.1467
93.4132
93.3465
93.4178
94.0103
90.7349
94.228
93.7814
93.3306
94.1451
93.946
93.5511
94.0527
93.5052
93.4413
93.2107
93.8079
93.8573
92.1363
93.7951
93.8876
94.0912
93.3939
93.208
93.5475
93.2332
93.7616
93.2337
93.6383
93.6617
93.4223
93.2778
93.7481
87.9696
93.1024
93.7987
94.3314
93.4344
93.8782
93.9391
93.468
93.3706
89.8255
91.6947
93.2333
91.8903
93.4797
93.4764
93.3236
93.5634
94.135
93.2212
93.2395
93.8172
93.9652
91.8086
93.6739
93.9481
93.4498
91.7964
94.5241
88.4413
93.0896
92.0219
93.7391
92.1892
93.3246
93.8749
93.2453
94.0051
91.7042
93.7899
92.1769
93.588
91.6689
93.0987
93.6698
93.582
93.8871
93.2522
93.5087
93.7567
94.1879
94.3783
93.5106
93.7054
94.0053
93.5146
90.0111
93.7417
93.8221
93.5065
93.3343
93.5637
93.1589
93.3403
94.2434
93.8451
94.1219
92.3918
93.8336
92.9449
93.9466
92.5015
93.2369
92.8234
93.9771
91.5441
93.6861
93.8666
93.9143
93.8901
93.8028
93.5354
91.3456
92.6414
93.4277
93.6189
93.8874
94.2711
94.0099
93.2688
93.5714
93.6769
91.9907
93.1169
93.5053
93.9075
92.8549
94.1111
93.9021
90.208
92.4736
93.3616
94.1106
92.8778
93.6754
94.0118
93.4434
93.9273
92.6087
93.5503
92.1207
91.1149
94.228
93.5216
93.986
93.3246
93.3506
89.9478
93.4251
93.7791
92.6366
93.1676
93.4609
90.6482
93.6295
92.6339
91.2494
93.9795
93.9459
93.8706
93.7406
94.1368
93.9854
92.669
93.7195
93.5409
93.4716
93.4668
92.4912
93.1397
93.9115
93.4894
93.1195
93.4198
94.0823
93.419
90.7809
93.5588
93.1596
88.6531
90.9441
93.7578
93.5387
92.8975
93.9094
93.9623
93.5573
93.2651
93.1938
93.7113
93.3445
93.6141
93.7366
93.2858
94.2736
93.7294
89.4665
93.3278
93.4944
93.4717
93.4785
93.5674
93.4101
93.3427
93.6055
93.8097
93.9527
93.4119
93.1779
93.6445
93.9541
91.5886
93.4622
94.2769
92.9462
93.8628
91.8894
91.7459
91.3476
93.6664
93.3558
93.3241
92.9054
94.0099
93.484
91.5369
93.7383
92.1292
93.7979
93.4844
90.991
94.4881
93.6228
87.9254
91.7541
91.6233
92.8031
92.7151
94.9741
93.7439
93.7628
93.3888
93.6908
94.3683
92.3209
94.3217
93.9078
93.7323
93.8575
94.4178
94.3304
93.3323
93.356
93.6141
93.7714
93.5379
94.0055
92.9314
94.0933
89.9651
94.344
92.5638
93.9367
94.3317
93.6224
92.5349
93.9565
91.8272
93.2494
93.6757
93.0597
91.8349
92.4443
93.5796
93.8505
93.4646
91.8485
93.9603
92.895
93.8601
93.5727
94.0675
92.7482
93.6536
92.8945
92.8602
93.2514
93.2262
93.0613
92.7865
93.5074
93.9281
93.9356
92.9417
93.7239
93.6687
93.3307
93.8929
93.5366
92.7976
93.6141
93.6885
92.6047
90.594
93.3962
93.8218
94.2087
93.7542
93.6873
88.6999
93.4369
93.6112
93.4595
92.5924
92.2026
92.9533
93.5022
93.6665
93.4187
93.2654
93.4698
93.8094
93.3741
93.6445
93.6916
92.1307
92.4582
92.669
93.6568
93.5718
92.7937
93.8833
91.3437
93.5788
93.8739
93.1678
92.7561
93.7002
93.626
93.4774
90.4206
92.4222
93.7517
93.9483
90.4555
94.5448
93.0746
93.4781
93.0604
93.4237
93.7099
93.4246
92.0982
92.7264
91.4203
92.9092
93.1737
93.6333
93.7702
93.5721
94.2243
93.7009
93.6784
93.5693
93.6042
93.6218
91.0964
92.8939
93.7238
93.286
93.4193
93.0191
93.5999
93.792
93.9342
91.6983
92.8979
94.3004
93.535
93.0366
94.0105
93.3393
94.2358
87.1651
94.0567
91.1281
94.3095
89.9652
94.1695
93.4627
93.5089
93.5318
94.1182
93.8767
93.7877
93.38
93.8381
93.9848
90.0746
93.3085
93.0996
93.5729
93.4643
93.8141
92.6374
93.8911
94.1642
94.1577
94.038
94.113
91.9289
91.6651
92.1688
92.293
94.1543
92.4352
92.6073
94.1473
94.152
94.1625
92.7401
94.1782
94.2026
88.8097
92.8059
90.5756
93.8418
92.7615
93.8393
93.7177
94.2535
93.4945
92.5374
93.5569
93.6211
93.2766
93.9087
93.1013
93.3054
93.8968
93.4201
93.3861
93.1558
93.8579
91.9777
92.8778
94.0854
93.5198
93.913
94.4179
93.4381
93.8573
93.1021
85.9352
92.7616
93.7839
93.3387
92.8378
87.6862
93.0618
92.9637
93.6835
93.4635
93.7246
93.9792
93.5116
93.556
93.0392
93.0111
92.0003
93.8939
91.0763
94.121
94.0333
93.1653
94.2563
93.4509
93.8812
93.33
93.8094
93.3784
93.6048
88.911
93.8341
92.2854
93.4415
92.8606
93.8674
93.6593
93.2848
91.1114
90.3344
90.1236
87.8386
92.5692
93.3985
93.8421
93.8361
92.366
93.4948
89.996
93.7845
92.4185
93.5577
93.7149
93.6604
95.0944
95.5798
93.6713
93.7604
93.097
92.7969
93.4302
92.9793
94.3954
92.4764
93.8116
92.4488
93.3862
93.4853
93.478
92.74
93.7024
93.9693
93.4136
93.5956
94.3853
93.6662
93.6835
93.11
94.2715
93.7677
92.7936
93.9141
93.9132
90.309
89.6142
93.5363
88.9289
93.7935
92.6207
93.9718
93.6556
89.7927
91.0997
92.9519
94.0034
88.9858
94.0601
90.4386
93.5975
93.2022
89.3337
93.8282
89.1267
92.219
93.9072
93.369
93.3534
93.6826
93.6867
93.5579
93.8768
93.7071
93.5112
89.1095
93.6867
93.8339
89.6665
93.7221
93.385
93.5534
93.6958
94.3066
90.9264
90.0699
93.2203
93.6097
93.2675
93.7148
93.5893
93.7523
93.5985
93.9697
91.3707
93.869
89.7063
93.8243
93.0869
92.9909
93.1574
93.8832
93.7835
93.3465
93.4111
88.6635
93.8947
93.8081
93.6741
93.6935
92.8011
93.7923
93.4791
93.6037
93.7093
93.9021
93.547
93.2746
92.7881
93.6265
93.4683
93.9162
90.9875
94.3385
92.8435
92.8792
93.6448
93.1879
93.9104
93.8493
94.2845
94.1526
93.3204
94.2038
93.8306
93.9854
93.6566
92.736
93.2948
93.2259
88.7754
93.0162
92.7325
93.684
94.1129
93.4278
93.4801
93.6848
93.7055
93.3938
93.5834
93.4011
92.4621
93.2941
92.8893
94.1551
93.3678
93.6732
91.5569
93.7356
94.17
93.9687
94.394
93.3748
92.6359
93.3946
92.7016
93.7259
93.7087
94.2089
93.6761
93.7645
93.9939
93.446
93.1809
94.404
89.7047
93.6645
93.548
92.4338
93.7014
93.6807
89.6592
93.8158
93.9277
93.5345
93.7223
93.1812
93.6945
93.4579
92.9335
93.7813
93.9101
93.0761
92.8022
93.2055
94.0222
88.6116
93.0989
92.7798
93.7099
93.5103
93.6969
93.7078
93.9671
93.4887
93.4956
93.7727
93.1017
94.411
94.2882
93.9089
93.3897
93.3743
90.4896
93.0087
93.3758
88.6361
93.6313
93.6432
93.96
93.0916
93.9546
93.4148
89.5469
93.1786
93.718
94.3354
94.8319
93.7861
93.9839
93.1169
94.3073
93.8146
93.5717
93.1067
93.5458
91.5661
93.4628
93.7004
91.9081
92.1996
94.3447
93.8858
91.2435
91.5667
93.9848
93.5706
93.2893
86.9478
93.7105
93.9905
93.4863
93.3109
93.1878
93.8336
94.1164
93.3153
94.6641
89.1254
94.8437
94.0439
91.1034
92.7948
93.5305
92.9503
93.0066
89.3046
93.9784
93.4591
93.3534
93.4928
93.5348
92.6962
94.3826
92.4392
94.1956
93.3712
93.6945
93.7454
93.9643
93.5279
91.5117
93.3642
93.4358
93.668
93.77
90.2405
92.0969
93.9154
93.4962
93.6559
92.8103
93.1963
93.5636
93.8117
93.5149
93.7955
93.4766
91.3809
93.9601
86.7167
93.4005
92.4606
87.0916
93.7424
94.2084
93.7028
93.5378
93.7844
93.1015
89.8369
92.9781
93.6469
93.8909
92.2019
93.6127
92.9217
93.429
93.6935
93.8174
92.5401
93.9088
93.6284
93.3562
93.9428
91.7873
92.9642
94.145
92.7875
93.853
92.3976
93.8917
93.4918
90.045
93.4596
92.996
93.7851
92.9407
94.0561
93.2848
93.7255
92.9157
93.2967
93.6011
93.9806
94.3638
93.7825
93.3299
93.7591
92.9062
93.8606
93.4246
94.0995
93.0284
94.2301
90.6824
93.8306
94.0869
91.8818
93.707
87.7761
94.1936
94.183
90.7021
93.6785
91.5092
93.9608
92.1999
93.3677
94.0015
93.7175
93.761
94.3182
90.1209
92.9784
93.6829
87.9127
88.3474
93.5911
93.7724
92.9337
93.2977
93.6808
92.3626
93.9421
92.2277
94.1458
94.144
92.7047
93.7344
92.3305
94.1598
93.5549
93.9136
93.9861
93.4701
93.6735
93.9665
89.5342
94.2219
93.9789
91.4038
89.8041
94.2402
93.8131
89.5384
92.4908
93.0571
93.8417
94.0764
91.7698
92.9121
92.7243
94.0382
93.4688
93.5485
92.4463
88.4801
94.3248
92.2027
92.2085
93.3358
94.0869
90.6832
94.0412
93.8023
93.9423
93.673
93.4788
93.379
93.4009
94.1477
92.2798
93.2337
93.3548
96.5188
91.4183
92.0978
96.153
87.4533
94.1056
81.3507
)
;

boundaryField
{
    frontAndBack
    {
        type            empty;
    }
    wallOuter
    {
        type            zeroGradient;
    }
    inlet
    {
        type            zeroGradient;
    }
    outlet
    {
        type            fixedValue;
        value           nonuniform 0();
    }
    wallInner
    {
        type            zeroGradient;
    }
    procBoundary2to0
    {
        type            processor;
        value           nonuniform List<scalar> 
42
(
93.9466
93.9466
91.2024
91.5883
93.184
93.7816
90.7968
90.7968
93.2029
92.9869
93.171
93.171
93.0708
93.3341
93.6427
93.642
93.8858
92.856
93.1062
92.8915
91.4712
92.7445
92.7445
91.189
91.4712
92.4882
91.9461
92.2611
91.9461
93.976
93.9523
91.9696
91.5208
90.8837
90.2448
91.5883
93.8858
91.7169
92.931
90.1491
90.1491
90.016
)
;
    }
    procBoundary2to1
    {
        type            processor;
        value           uniform 93.4846;
    }
    procBoundary2to3
    {
        type            processor;
        value           nonuniform List<scalar> 
29
(
92.9974
92.527
89.776
91.0267
94.0201
93.2212
87.2278
92.9208
90.4873
90.6597
93.1202
93.9363
92.9623
87.5364
88.1684
87.2665
89.7532
89.7532
92.527
87.5364
87.9741
89.8056
88.5014
90.5059
88.2746
89.6151
90.4873
94.0138
93.9363
)
;
    }
}


// ************************************************************************* //
