/*--------------------------------*- C++ -*----------------------------------*\
| =========                 |                                                 |
| \\      /  F ield         | OpenFOAM: The Open Source CFD Toolbox           |
|  \\    /   O peration     | Version:  v1912                                 |
|   \\  /    A nd           | Website:  www.openfoam.com                      |
|    \\/     M anipulation  |                                                 |
\*---------------------------------------------------------------------------*/
FoamFile
{
    version     2.0;
    format      ascii;
    class       volVectorField;
    location    "0.4";
    object      U;
}
// * * * * * * * * * * * * * * * * * * * * * * * * * * * * * * * * * * * * * //

dimensions      [0 1 -1 0 0 0 0];


internalField   nonuniform List<vector> 
1431
(
(-0.260683 0.302631 -2.67737e-17)
(0.794707 -0.167366 -1.45238e-16)
(5.80576 0.905869 8.92167e-17)
(-3.06453 1.78562 -3.72078e-17)
(0.0165233 1.04678 -1.30382e-16)
(4.51163 0.707898 1.67697e-16)
(1.72909 -0.804237 -1.52633e-16)
(9.67729 0.590138 -1.95162e-16)
(0.832953 2.77104 0)
(0.529584 0.624396 -1.15456e-16)
(0.236609 -0.514131 0)
(-0.398799 -0.899818 5.84212e-17)
(-0.20968 0.83061 0)
(9.10109 0.463426 1.7138e-18)
(0.173345 0.450394 -2.35003e-16)
(0.46303 2.09353 0)
(0.317296 1.77742 -2.96282e-16)
(-0.294924 0.546615 0)
(-1.20008 -0.237522 1.01354e-16)
(0.120383 -0.56122 4.72235e-17)
(-0.127859 0.494361 -1.81927e-17)
(0.233824 -0.856342 -7.45799e-19)
(3.09554 1.91585 -3.64402e-17)
(8.831 0.511625 -2.77758e-17)
(1.81735 3.47043 -9.97986e-17)
(0.0305192 -0.561564 -1.32504e-16)
(-1.26543 4.93716 9.00283e-17)
(9.34351 0.416275 -2.43311e-20)
(10.818 0.675283 5.10721e-18)
(-0.232014 -1.60065 -3.90005e-16)
(7.7769 0.273895 2.12979e-16)
(7.08805 -0.16564 -1.61461e-16)
(-1.83876 0.399059 -1.02197e-16)
(-1.59811 0.558822 0)
(1.17274 -0.221837 8.28296e-17)
(1.95885 8.34122 1.14059e-16)
(-0.133599 -0.377597 1.15826e-16)
(9.59108 -0.0145505 0)
(3.41433 0.945105 -9.91372e-17)
(9.50722 -0.0120348 0)
(5.24961 0.118295 1.18501e-16)
(0.559056 0.160005 -6.92837e-17)
(-1.39027 0.700223 0)
(1.57865 -0.411173 -5.12802e-17)
(-1.01559 0.679264 1.35878e-16)
(-0.623423 0.344251 -3.65632e-16)
(1.32526 4.41646 1.97442e-16)
(7.18233 1.17862 -5.29762e-17)
(8.92691 0.501901 1.45269e-16)
(9.33473 0.0822731 3.27785e-17)
(0.613167 -0.755985 -7.33931e-17)
(0.773383 0.957953 1.14058e-16)
(1.16881 3.58646 4.7208e-17)
(-0.5729 1.06722 -1.35141e-17)
(1.47582 -0.543691 -9.92835e-17)
(7.962 1.67561 0)
(1.34323 1.59371 5.39802e-17)
(1.50442 4.89365 -1.62054e-16)
(-0.38567 6.65203 0)
(-0.00332677 0.204224 -7.93941e-16)
(0.547128 1.77812 0)
(-0.187901 -0.150177 -1.76659e-16)
(1.30736 7.21805 -1.27005e-16)
(10.5538 0.121099 0)
(9.96293 0.294521 -1.62766e-17)
(-1.00252 0.999147 0)
(6.29783 0.411788 0)
(4.53472 0.286877 0)
(-0.64901 -1.54453 1.20589e-16)
(10.7304 0.0855099 0)
(-0.923361 0.455494 7.4503e-17)
(0.568218 -0.259811 -8.08286e-17)
(0.657837 -0.510413 0)
(4.65502 0.487607 -1.7631e-16)
(1.54085 0.978824 5.55819e-20)
(-0.977841 0.320846 2.4701e-16)
(-0.124784 0.940994 4.62101e-17)
(3.97897 0.784343 2.7434e-16)
(9.94487 0.160808 1.156e-17)
(1.11097 -2.97688 -1.73986e-17)
(9.89822 0.101985 -2.25545e-16)
(0.73183 0.136647 -1.93886e-18)
(1.4827 -1.09227 1.73266e-16)
(0.978855 0.277069 -7.62265e-17)
(-2.64469 1.29032 3.85457e-17)
(6.58811e-05 0.879109 -4.62903e-16)
(0.0417694 0.422691 -1.05072e-16)
(-1.03831 1.74434 1.35409e-16)
(8.4903 0.554319 8.35015e-17)
(-0.0768812 -0.467158 -6.11743e-17)
(-0.673833 0.209499 1.81016e-16)
(-1.70361 1.5901 2.01885e-16)
(0.0872647 0.354539 0)
(9.6541 0.0261045 0)
(0.993988 0.466329 1.7928e-18)
(-0.0812789 0.623811 1.76301e-19)
(1.7546 1.59312 -3.25519e-19)
(10.3258 0.518386 2.94185e-18)
(-0.0781821 0.281909 2.17098e-16)
(8.91297 0.470799 -4.0772e-16)
(-0.608077 -1.73413 -1.35806e-16)
(9.78127 0.16443 -5.99725e-17)
(-0.476057 0.0163503 0)
(0.0213153 0.951605 3.24419e-21)
(-0.99042 2.6498 1.4624e-16)
(2.11714 -0.458908 5.9855e-17)
(9.97571 0.0641744 -9.4203e-17)
(4.94449 -0.0287295 6.84577e-17)
(7.09173 0.0284942 8.67554e-17)
(-0.0366186 1.05769 7.01902e-17)
(-0.505925 -2.60522 1.44074e-16)
(-1.37957 0.835151 -5.8749e-17)
(9.60838 0.809082 0)
(-0.26807 -0.221112 -1.70303e-16)
(-0.130573 2.8391 0)
(0.00859498 1.02283 0)
(-0.294115 0.367458 0)
(0.205535 -0.385332 -5.28508e-19)
(8.05817 0.574259 -5.72932e-17)
(-1.57306 0.649491 -1.3626e-16)
(9.78092 0.249057 -1.80861e-17)
(1.26149 4.39006 -1.18439e-16)
(0.917758 1.33238 -4.4325e-16)
(8.90025 0.793525 -1.06764e-16)
(10.0925 0.18022 0)
(-0.715029 0.359191 -8.91153e-17)
(7.54854 0.566143 1.5122e-17)
(2.04403 0.322852 5.41181e-17)
(-0.376673 0.54956 8.09816e-17)
(10.6083 0.427897 -6.51293e-17)
(-1.02369 0.389204 -1.20402e-16)
(4.39385 -0.149928 2.24299e-16)
(7.03852 0.428457 0)
(-0.444307 -0.0609776 -1.734e-16)
(0.078836 0.370389 -1.06304e-17)
(-2.13718 1.70626 -2.23081e-16)
(0.309724 -0.410318 0)
(-1.92249 0.80275 9.43935e-17)
(-0.656629 0.18396 4.29492e-17)
(3.61252 -0.0719701 -3.66041e-16)
(0.128523 1.91324 0)
(0.0868447 0.0952501 3.35727e-17)
(10.496 0.0578242 -6.79065e-18)
(8.90621 0.358729 -1.87054e-17)
(8.62088 0.149005 0)
(11.354 0.288226 3.92295e-17)
(10.3144 0.346355 3.05321e-17)
(4.7388 -0.0555213 0)
(0.0644879 -0.36907 -1.28414e-16)
(9.28216 0.889238 -4.79781e-17)
(10.82 0.0434138 7.08128e-17)
(9.87861 0.410672 -1.41282e-17)
(0.853061 0.469092 -1.56757e-16)
(1.86756 -0.993686 7.76502e-17)
(-0.149939 -0.0128094 1.69582e-16)
(2.27724 0.589122 -3.22008e-17)
(10.0494 0.114765 7.78448e-17)
(-0.39966 -0.0940802 -4.1188e-16)
(9.50462 0.91193 0)
(9.42245 1.11151 -8.81625e-17)
(-0.200114 0.706285 -3.20962e-20)
(0.118848 -0.491346 4.23837e-17)
(-0.521059 0.124063 0)
(0.049028 2.00008 -3.06994e-17)
(-0.0377741 0.691838 -2.13368e-16)
(-0.603153 -0.512233 -1.55711e-16)
(-0.0520271 0.879731 -1.08444e-16)
(9.71103 0.0972285 0)
(0.406497 -1.07672 3.28553e-16)
(-0.334457 -0.136799 -1.58381e-16)
(9.72146 0.879492 -1.22929e-17)
(1.01777 2.66383 2.08916e-17)
(8.60276 0.54083 -1.0502e-16)
(11.0181 0.0477865 0)
(10.4788 0.0380074 1.28849e-17)
(-0.639167 0.124181 0)
(-1.03795 0.275612 7.02249e-17)
(9.19486 0.756586 -1.59967e-17)
(-0.422826 -1.88572 2.21054e-16)
(9.4525 1.0518 8.99468e-17)
(9.69027 0.358599 3.6927e-17)
(0.231587 0.361062 1.08861e-16)
(8.75839 1.66451 0)
(-0.19381 -0.345601 3.39844e-16)
(11.22 0.120734 8.62659e-17)
(9.84095 1.05201 -1.22946e-17)
(9.75023 0.679297 9.26158e-17)
(-2.80718 5.13543 -1.09903e-16)
(-0.0292698 -0.547727 1.81701e-16)
(10.242 0.110787 -3.62962e-21)
(0.0596757 -1.10938 4.83111e-19)
(0.475083 1.94972 -1.09523e-16)
(-0.164149 0.778958 -3.13359e-16)
(10.021 0.0430926 -5.69376e-17)
(0.270521 2.32848 -5.27921e-20)
(9.92624 0.407282 3.58746e-17)
(9.97619 0.0838811 0)
(7.22382 2.08104 -9.74025e-17)
(-0.147414 -0.101765 0)
(0.0120672 0.0603875 0)
(0.307789 -0.776913 -1.74404e-16)
(2.88151 2.90107 -2.47753e-16)
(9.2869 0.991287 -2.49985e-17)
(3.88607 0.129563 -4.10446e-16)
(9.99495 0.0517836 3.12992e-17)
(-2.19492 2.57389 -2.41298e-16)
(-0.0181278 0.683399 8.53738e-16)
(9.74172 0.251905 2.22226e-17)
(0.768299 -0.168556 1.5355e-17)
(9.05404 0.318182 0)
(10.0889 0.0676509 7.05893e-18)
(9.88816 0.322972 5.59808e-17)
(8.13178 0.648264 1.24198e-17)
(9.82683 0.218927 2.13044e-17)
(1.83295 1.60299 0)
(1.45063 3.32142 2.48884e-16)
(9.39408 1.00511 0)
(-0.0434675 -1.37891 0)
(-0.522747 -0.509584 0)
(10.0922 0.250148 -5.56693e-17)
(9.84593 0.183605 0)
(0.365763 1.34805 1.16136e-16)
(11.086 0.0289966 -1.13527e-16)
(4.22996 1.21391 -6.80838e-17)
(10.7089 0.362956 0)
(9.28689 1.07901 0)
(9.42745 0.902816 -6.62634e-17)
(-0.317426 -0.195787 0)
(10.5215 0.603926 0)
(7.83338 0.219195 -6.53302e-17)
(0.0555168 0.69869 0)
(-2.84114 2.60769 2.60822e-16)
(10.5912 0.0847807 6.57106e-20)
(9.79865 0.475076 -1.68489e-16)
(9.71663 0.411149 7.74018e-17)
(9.76031 0.366117 4.36044e-17)
(10.4522 0.239641 -2.34764e-17)
(-0.427783 0.285699 1.87312e-16)
(9.80949 0.116167 0)
(1.37816 0.887365 1.51309e-16)
(9.42162 0.249246 -2.84851e-17)
(9.36498 1.07877 7.48665e-17)
(0.768808 2.02272 -2.16948e-16)
(0.827576 4.06999 -2.64087e-16)
(1.61932 0.981238 -3.3117e-19)
(0.719745 1.20013 2.51403e-20)
(10.5172 0.28433 -1.57486e-16)
(1.90884 -0.432527 0)
(-2.19639 0.440323 0)
(10.0184 0.850989 0)
(10.0459 0.920226 -8.42706e-17)
(0.851967 2.36747 0)
(0.56054 0.269819 1.23871e-16)
(6.28008 3.13533 1.90748e-17)
(1.20322 5.19538 -1.461e-16)
(8.09034 0.0769288 -3.99067e-17)
(1.70031 -0.0871516 1.4486e-17)
(1.15628 0.833586 3.06638e-19)
(8.23119 0.0165403 7.06782e-20)
(8.18205 0.0357121 7.73962e-17)
(8.05525 0.0999655 7.67779e-17)
(-0.0123248 1.51415 2.39396e-17)
(-0.10934 0.475601 4.17622e-16)
(0.374363 2.0041 -4.38395e-17)
(9.71302 0.303114 -6.81087e-17)
(10.6342 0.512561 6.04835e-18)
(8.10748 0.00996392 -7.13122e-17)
(9.80493 0.859195 0)
(8.31118 2.62748 2.53471e-17)
(0.462982 1.65742 -1.46538e-17)
(9.7025 0.992515 0)
(9.12092 0.697144 2.76883e-16)
(10.19 0.799497 2.45252e-17)
(10.2378 0.70182 0)
(7.99154 0.121817 -4.77757e-17)
(9.89377 0.620782 1.11714e-18)
(-0.561951 0.0586944 -1.05602e-16)
(-1.08153 -1.35181 -8.02361e-19)
(-1.9368 -0.396595 -2.7655e-17)
(0.441428 1.11397 1.78852e-16)
(0.693981 3.30733 0)
(1.31977 0.869108 -3.10726e-17)
(-0.458003 -0.551095 0)
(-0.523708 0.0152491 2.76302e-16)
(8.17026 -0.00277693 -3.90869e-17)
(-3.476 3.70721 4.4397e-17)
(0.03165 0.769766 1.00662e-16)
(9.119 1.13324 4.63679e-17)
(10.231 0.786042 1.84211e-19)
(9.57544 0.213088 5.94066e-17)
(11.1334 0.43987 1.34838e-16)
(9.41218 -0.00226505 -5.35364e-17)
(9.36756 0.994482 0)
(-0.64028 -2.26574 0)
(10.0036 0.991671 -3.94064e-17)
(9.34729 1.3118 4.21456e-18)
(-0.267693 0.75779 0)
(8.96418 1.97875 1.54531e-18)
(1.34463 0.735763 -1.55221e-16)
(9.46825 1.10228 2.54887e-17)
(9.57255 0.435748 2.53271e-17)
(9.25201 0.786745 6.6419e-17)
(2.62857 -0.632144 0)
(7.91472 0.135373 0)
(-0.314505 -0.106737 -2.44037e-16)
(1.38058 0.586968 1.33447e-16)
(9.88854 0.133451 7.18886e-17)
(8.13728 0.0537966 -7.82843e-17)
(8.19213 0.0239415 -7.52698e-17)
(-0.522794 0.928734 1.36971e-16)
(9.59628 0.293002 -1.18121e-17)
(10.781 0.21538 4.76904e-17)
(0.320009 -0.1196 -1.54366e-17)
(0.0629452 0.058295 -1.7705e-17)
(-1.30394 0.860177 -6.22276e-19)
(1.23093 0.318162 -1.50256e-16)
(0.296849 1.53291 -4.77783e-17)
(1.86731 0.524079 -6.04918e-17)
(9.73458 0.31179 -4.08145e-17)
(-0.178236 -1.30048 -1.29357e-16)
(1.48825 0.663893 -2.16306e-16)
(-0.373206 -0.907514 2.08222e-16)
(0.0419943 2.49186 1.33716e-19)
(1.81573 0.879238 -1.08572e-19)
(0.0409009 0.462237 -1.49661e-16)
(-0.29105 -1.50296 -6.78967e-17)
(9.79833 0.0767962 1.5428e-16)
(-0.493376 -1.70015 -6.02409e-17)
(7.88387 0.460727 0)
(9.72022 0.202302 -5.95339e-17)
(-0.180643 -0.591585 -8.6625e-17)
(2.06274 -1.31289 0)
(0.692491 0.772688 0)
(-0.299643 -1.59182 1.45283e-16)
(10.2568 0.115645 0)
(0.642861 1.59074 -1.18558e-16)
(0.836772 -0.799982 -4.97606e-17)
(-0.369385 -0.479048 0)
(1.24215 -0.58908 -1.36111e-17)
(-0.648264 0.323503 1.35298e-16)
(0.250864 -0.153829 0)
(9.77658 0.0979263 -6.95999e-17)
(-0.42372 -1.7143 6.57783e-17)
(10.0737 0.244094 2.76733e-17)
(6.4549 3.42109 -2.34167e-16)
(-0.0152505 0.0661035 1.65683e-16)
(10.5093 0.25541 1.26821e-17)
(0.605727 -0.469075 1.43653e-16)
(0.389299 0.0596864 -7.35336e-17)
(-0.171862 0.169002 -6.65504e-17)
(1.97472 0.0317095 -9.16711e-17)
(-2.1804 0.0375301 -2.87499e-16)
(-2.18974 -0.370833 0)
(0.908712 0.284918 -1.28288e-16)
(-0.593284 -0.170821 0)
(1.90124 0.176258 0)
(-2.66001 0.0422419 0)
(-0.186296 0.0402033 -3.3614e-16)
(0.16997 0.225502 0)
(-1.23932 0.0263668 3.80347e-16)
(1.29568 -0.236631 -1.46417e-17)
(-1.13614 -0.16626 1.07991e-16)
(1.28858 0.258611 1.88593e-18)
(0.465278 -0.0491139 -7.67745e-17)
(0.190664 0.0991975 2.40311e-16)
(1.24691 -0.281894 -1.31517e-16)
(1.76358 0.0635795 0)
(-1.57681 0.0463736 0)
(-0.358607 -0.235214 -2.20909e-17)
(0.178784 -0.15532 0)
(1.04187 0.111034 4.91089e-16)
(0.892505 0.845602 1.00238e-16)
(-0.408583 -1.19567 -1.20414e-16)
(9.95003 1.04015 4.58431e-17)
(-0.695444 -2.22614 0)
(-0.841917 -1.62932 1.63696e-16)
(-0.15051 -0.71809 8.38062e-17)
(9.78436 0.343896 2.73458e-17)
(10.0049 0.0391196 7.08911e-17)
(-0.12253 0.164028 5.75324e-16)
(-1.69299 0.339129 1.96928e-17)
(1.68528 -0.116422 2.95005e-17)
(0.0157647 0.0547908 -2.23752e-16)
(-2.6018 -0.183172 0)
(-1.45524 -0.127206 1.01653e-16)
(1.59551 0.186192 0)
(-1.57457 0.0880685 0)
(-0.275581 -0.086102 1.65457e-16)
(0.518811 0.270114 1.27125e-16)
(0.482058 0.00445423 1.4155e-16)
(-0.156854 -0.596979 0)
(2.54469 5.09528 1.57701e-16)
(9.69797 1.01384 -2.4973e-17)
(9.98821 0.00561659 0)
(-0.428842 -1.45887 -3.44588e-19)
(-1.83527 0.620247 -1.22235e-16)
(-0.465826 0.0791631 -1.38261e-16)
(9.93679 0.210285 0)
(-0.49 -0.656092 0)
(10.4131 0.075641 0)
(-0.827653 0.195601 -4.91254e-17)
(-0.337609 -0.685114 1.5087e-16)
(9.99244 0.225583 2.41026e-17)
(1.39916 -0.275011 2.46864e-17)
(-0.481999 -0.569505 1.0019e-17)
(9.88686 0.836119 0)
(1.85207 0.24603 8.27777e-17)
(8.62204 0.0159488 1.50222e-16)
(-0.460775 0.970483 -2.24296e-17)
(0.0531188 -0.390929 -1.21865e-16)
(9.66103 0.0754784 5.66452e-17)
(-0.134023 -0.795641 0)
(-2.44257 -0.227887 -5.65218e-20)
(2.14691 7.41163 -3.49185e-16)
(8.7815 0.213136 -1.98187e-17)
(1.73422 4.49695 5.89862e-17)
(0.0228399 -0.731514 -1.38692e-16)
(0.759044 2.07985 2.0347e-16)
(0.259568 -0.591757 -1.84692e-17)
(-0.543444 0.614542 -6.79594e-19)
(1.86627 0.756355 3.39586e-17)
(-0.648157 -2.07101 1.09498e-16)
(-0.35264 -1.25322 4.72653e-17)
(0.59315 0.059103 -2.50589e-16)
(-0.538695 -2.078 0)
(0.180103 -0.664774 1.398e-16)
(0.865356 0.144128 4.44707e-17)
(0.765793 0.602892 9.37118e-18)
(-0.240344 0.596346 -1.03649e-16)
(0.925351 0.0902374 -3.32851e-16)
(1.09528 0.622186 0)
(0.232915 -0.0682893 -1.98486e-16)
(-0.246171 -0.382271 0)
(0.515258 0.0711965 2.19801e-16)
(1.25626 0.712263 -7.18614e-18)
(0.634959 -0.260921 0)
(-0.697238 -1.88008 -1.65002e-16)
(0.699937 0.255139 2.43448e-18)
(0.62989 -0.121943 6.12874e-16)
(0.461949 0.919194 1.43989e-16)
(1.3108 -0.786495 -1.75178e-18)
(0.0185501 2.72123 -3.62451e-17)
(0.577247 0.0116709 0)
(0.676646 -0.152005 4.67969e-17)
(0.0570489 -0.314789 0)
(-0.226896 -0.586116 7.71521e-18)
(-0.0111575 -0.0124965 -4.56431e-18)
(0.2998 -0.389076 -1.1531e-16)
(0.260964 -1.28939 0)
(0.573649 0.52741 1.45804e-16)
(0.408582 0.188506 -9.43618e-17)
(-0.524995 -1.55035 3.32327e-16)
(0.125889 0.0766119 -1.38138e-16)
(-0.285635 -1.44102 -1.27649e-16)
(-0.618419 -1.93932 5.9326e-17)
(-0.282738 -1.72762 -1.76612e-16)
(-0.492664 -1.73049 -2.38183e-16)
(-0.627191 -1.66694 -5.4444e-18)
(-0.390367 -1.72853 0)
(1.20388 0.44583 0)
(2.91378 2.42267 2.39303e-16)
(-0.477446 -0.382568 0)
(1.6765 0.908112 0)
(3.24039 2.25499 -1.3759e-16)
(1.21625 0.0936007 1.63947e-16)
(1.38781 -0.228179 -3.39032e-16)
(-0.309596 0.89225 -1.31643e-16)
(1.95358 3.23452 9.18945e-17)
(2.44562 1.76601 -1.53005e-16)
(0.603009 -0.356299 -4.8841e-16)
(1.83714 5.21198 1.42783e-16)
(-0.400527 1.01107 0)
(7.95416 0.0871952 -1.39498e-17)
(1.03088 6.95978 -5.20299e-17)
(2.20687 2.44255 1.81998e-16)
(0.93925 -0.597254 -1.46432e-16)
(2.47323 7.02809 -2.44128e-16)
(2.14189 7.51893 2.24478e-16)
(0.904054 3.74455 1.54416e-16)
(-0.232764 -1.72597 0)
(-0.470559 -1.90448 -3.44129e-17)
(-0.313485 0.867544 0)
(0.658885 8.29689 -4.24522e-17)
(9.83786 0.35697 -1.60469e-17)
(8.64904 0.132521 -2.90229e-17)
(1.47775 0.417517 -1.27095e-16)
(2.79142 3.05042 -8.6485e-17)
(-0.540681 -0.952897 1.12384e-16)
(-0.644134 -1.70168 -8.18636e-17)
(0.260969 -0.866878 0)
(0.150691 -0.442422 -1.08553e-17)
(-0.26556 -0.921444 0)
(0.396436 -0.771242 1.8694e-17)
(2.11776 6.30998 5.19721e-17)
(-0.233737 -1.38498 0)
(-0.217925 0.560372 0)
(-0.189194 4.57902 0)
(0.738249 -0.533931 3.69959e-17)
(9.91256 0.172811 -1.18587e-17)
(0.881215 -0.461363 0)
(2.46101 3.66537 -8.24097e-19)
(-1.0513 5.29802 1.21607e-17)
(0.86177 0.674308 7.05495e-20)
(0.872994 0.205467 0)
(0.971243 0.230763 2.01372e-16)
(0.540868 -1.10493 0)
(1.05131 -0.905495 3.6422e-20)
(-0.463052 -1.07819 -6.13694e-17)
(-0.420122 -1.39924 -3.41048e-17)
(0.10322 2.95311 -6.58138e-17)
(0.200188 2.98614 0)
(0.441883 -0.724508 3.04238e-17)
(9.56433 1.15718 0)
(-0.53253 -0.313724 3.61113e-17)
(10.4874 0.125071 -8.27855e-17)
(-0.495753 -1.18019 0)
(1.44505 5.52371 -3.47353e-16)
(-0.494357 5.0092 6.70694e-18)
(-0.433603 -1.66589 3.37002e-17)
(2.00193 0.00835187 0)
(0.47927 -1.34566 -1.26354e-20)
(0.554285 -0.372505 -1.20765e-16)
(0.595668 -0.985126 5.26362e-17)
(-0.524696 0.829743 -1.30474e-16)
(-1.20534 0.559281 8.36405e-19)
(-0.700848 -1.82621 0)
(-0.292684 -0.404299 1.50954e-16)
(-0.569372 -1.62747 0)
(0.696943 -0.624189 3.69643e-17)
(0.837357 -0.0870623 -1.00144e-16)
(8.61935 0.168541 3.99665e-17)
(7.88177 0.15654 -1.15853e-16)
(0.750725 -0.202009 5.35847e-17)
(0.738569 -0.847806 -1.40614e-17)
(-0.654667 -1.61604 1.63774e-17)
(-0.585136 -1.78235 -3.08255e-17)
(0.805705 0.933205 3.61773e-17)
(0.954789 -0.074453 0)
(-0.091047 -0.487252 3.02088e-16)
(2.87635 3.85615 0)
(0.89437 0.337652 -1.23587e-16)
(0.579227 2.28271 1.60003e-16)
(-0.162566 -0.733482 1.45685e-16)
(1.10085 0.788826 0)
(-1.24229 0.322653 3.48115e-17)
(-0.433515 -0.531784 5.13716e-17)
(0.869902 0.294979 2.47975e-17)
(9.7258 0.0961045 0)
(-0.582666 -1.40397 0)
(0.630928 -0.907607 6.80598e-20)
(0.864412 -0.358775 -4.32234e-17)
(-0.206922 0.050276 1.99249e-16)
(8.10122 -0.0378922 3.78067e-17)
(-0.673766 -1.7612 5.9797e-17)
(0.455335 0.605598 2.74408e-17)
(-0.557081 -0.560709 -4.94506e-17)
(0.615222 1.05665 -7.17586e-17)
(-0.0733166 -0.750036 -1.51323e-16)
(8.01408 -0.0362616 -4.89659e-19)
(9.21411 1.15187 4.12117e-17)
(0.165877 -0.0933411 -3.18754e-16)
(0.833596 0.0340714 0)
(0.379219 1.39637 0)
(0.805117 3.30564 6.26566e-16)
(-2.17584 0.418496 -1.03958e-16)
(-1.48881 0.383934 -3.6517e-16)
(-0.401922 -1.14783 0)
(9.63598 0.907682 1.166e-16)
(0.911668 0.723223 0)
(0.957498 0.245495 1.297e-16)
(-1.50616 -0.440722 -4.47668e-16)
(-0.385524 -0.237451 1.64341e-16)
(1.80431 2.20329 0)
(-0.446838 -0.397634 9.0265e-18)
(1.49864 6.38563 0)
(-0.473388 0.000997587 2.35143e-16)
(-0.644991 -1.8201 8.71092e-17)
(-0.748485 -2.39561 7.7324e-17)
(0.945972 0.157188 -1.28951e-16)
(8.69082 2.29378 -2.59682e-17)
(-0.156285 0.129713 -4.11013e-18)
(9.72545 0.076941 1.95741e-16)
(-0.550998 -0.560416 0)
(0.710829 -0.102762 -2.98765e-19)
(1.95694 0.446105 -1.76569e-17)
(0.939484 -0.0627942 0)
(-0.283515 -0.48298 2.88316e-16)
(9.78036 0.964654 0)
(0.716765 -0.291795 3.76941e-18)
(10.731 0.422707 -2.91009e-18)
(1.23618 1.15377 0)
(1.85208 4.53461 -6.91309e-17)
(10.0001 0.0855031 -9.6396e-17)
(9.71547 1.19539 0)
(9.5781 1.47295 -4.61105e-18)
(0.854608 0.00222996 0)
(-0.0559444 0.217485 -8.03123e-17)
(0.513118 -0.622538 -1.56434e-17)
(9.68639 0.819087 6.29408e-18)
(1.10715 -0.535519 -1.65221e-16)
(-0.322967 -0.603616 -1.86124e-16)
(0.0831512 -0.354611 -3.77191e-16)
(1.24702 -1.19834 -2.96574e-17)
(0.952238 0.273713 -5.38131e-18)
(0.899891 0.603365 5.83275e-19)
(-0.554605 -0.819764 -7.78569e-17)
(0.304299 -0.477933 0)
(1.14166 -1.15256 6.44497e-20)
(-0.319397 0.0993026 5.25249e-17)
(5.62808 1.20906 -3.99563e-17)
(6.90192 2.30268 5.58818e-18)
(-0.384003 -0.739743 -1.26564e-16)
(-1.02369 0.267277 0)
(0.719218 0.814842 -1.47996e-16)
(6.27876 1.69831 0)
(9.73877 0.711863 -1.1708e-17)
(0.296602 5.17166 0)
(0.206841 2.43627 4.18732e-17)
(0.807186 1.02434 -9.50527e-17)
(-0.63471 -1.30974 -1.36961e-21)
(1.76201 -1.68655 6.87907e-17)
(2.16172 0.664687 0)
(-0.542015 0.554385 2.74179e-16)
(2.33502 -1.67892 -4.18104e-17)
(0.312714 -1.09678 -6.27466e-20)
(6.59702 1.63406 -5.63014e-17)
(1.72751 -1.89458 5.72416e-17)
(-0.0398852 -0.000540226 8.34956e-17)
(-0.655516 -1.45268 -1.08436e-17)
(9.73133 0.0529697 0)
(-0.242808 0.232358 4.71171e-17)
(-0.628459 0.707184 -8.69659e-17)
(-0.505332 0.0800449 -1.14465e-16)
(9.73962 0.0464565 -4.09163e-17)
(1.66622 0.872502 5.24536e-17)
(-0.688199 -1.59005 2.97802e-17)
(1.59313 -1.56265 -5.50007e-17)
(9.05695 1.16974 3.3017e-17)
(8.84502 1.60178 1.83347e-17)
(-0.731685 0.580725 2.24887e-16)
(0.944565 0.227037 -1.83629e-17)
(-0.0282254 1.05873 0)
(9.75577 0.0592529 1.61824e-16)
(-0.435433 -0.698605 3.00223e-16)
(0.251577 -1.40175 -1.65641e-17)
(0.78773 0.796057 0)
(0.916778 0.220644 3.03962e-17)
(1.11841 2.95668 -6.14509e-17)
(0.732427 0.639326 6.00927e-17)
(-0.838889 0.694002 2.59518e-16)
(-2.17323 -0.58569 0)
(1.34848 0.467311 2.14786e-17)
(9.32266 1.73934 3.86816e-17)
(8.59239 0.985979 0)
(0.979914 2.53367 8.45316e-17)
(-0.701257 -1.56527 -5.38814e-17)
(9.7295 0.0750471 7.27123e-17)
(9.90087 0.184238 -1.98077e-17)
(0.327721 -0.611047 -2.38493e-16)
(-0.559852 -1.0129 -3.32959e-16)
(0.694132 0.070506 1.8151e-17)
(0.0276429 -0.222 8.92439e-17)
(-0.709906 0.359933 -3.07716e-16)
(-0.682453 0.280376 -4.41302e-20)
(9.73839 0.148143 0)
(0.109693 -0.112614 1.58517e-16)
(10.0135 0.0923019 3.38353e-17)
(-0.35346 -0.667796 -5.20281e-17)
(-0.644096 -1.20552 1.21041e-16)
(0.374208 0.22347 -4.62141e-17)
(-0.0580837 -0.202584 -8.02213e-17)
(9.75284 0.0953117 -2.27698e-17)
(-0.670433 0.472638 -1.60554e-16)
(0.474956 0.0611381 -2.17495e-17)
(8.57174 0.263976 0)
(8.72284 0.703743 7.2563e-17)
(1.99242 3.53548 4.16112e-17)
(1.69313 0.975313 1.35204e-16)
(1.37805 -1.14352 0)
(8.83774 1.93695 -2.77367e-17)
(0.224089 0.278253 -1.4761e-16)
(-0.324457 0.0682509 1.44596e-18)
(0.657576 1.94922 -2.25242e-17)
(-2.62176 0.127646 1.38049e-17)
(-0.407585 -1.86977 -1.5236e-16)
(0.725913 0.250507 -6.62642e-20)
(-0.643126 -2.1964 2.64728e-16)
(0.767896 0.631805 -3.70251e-17)
(0.0714429 -0.366588 0)
(-0.925469 -0.240687 1.2354e-16)
(7.27417 0.109689 1.98733e-17)
(0.619996 0.236392 0)
(0.892761 0.441954 -1.69951e-17)
(-0.376397 0.122825 -6.0746e-17)
(-0.545484 -1.3123 9.06624e-17)
(1.94701 -1.87137 -2.57093e-17)
(0.363774 -0.083057 -6.6092e-17)
(-0.891456 -0.605019 2.56012e-16)
(9.74969 0.122905 0)
(8.9522 1.20156 -5.35072e-17)
(0.897002 0.515803 0)
(1.81288 -1.53469 1.03784e-16)
(9.34983 0.989898 -5.8631e-17)
(1.98806 -1.8024 5.07039e-17)
(-0.0298595 0.404389 2.84221e-16)
(4.74843 2.8363 8.74219e-17)
(8.75808 1.27521 -2.87792e-19)
(-0.360561 -0.343775 -1.70081e-16)
(10.0077 0.107435 -9.63955e-18)
(5.62317 0.327552 2.16285e-16)
(-0.592443 -2.04786 1.81583e-16)
(-0.10334 0.412649 3.63212e-18)
(1.7134 -1.31729 -6.99228e-17)
(-0.229118 -0.803721 -3.49451e-17)
(0.750319 1.0121 -8.57011e-17)
(8.08856 0.304667 5.81783e-21)
(0.25823 -0.517362 2.69822e-16)
(0.465288 2.42779 -1.01515e-16)
(8.81569 1.19729 -8.04948e-19)
(-0.567765 0.25588 7.22125e-17)
(8.47849 0.336834 0)
(9.42597 0.145953 1.99189e-17)
(9.71294 0.0998006 1.11305e-17)
(-1.08947 4.62395 1.31383e-16)
(0.0445242 -0.53596 -3.71892e-16)
(7.65238 0.30039 -2.06096e-17)
(0.154023 -0.740655 0)
(0.664387 1.37152 9.99284e-17)
(2.10829 0.162123 -2.33289e-16)
(0.84004 -0.225606 0)
(-0.723338 -0.984844 0)
(-0.337338 0.084105 1.36762e-16)
(2.60578 0.170774 2.17513e-16)
(3.00668 0.198225 0)
(-0.254036 3.59904 -1.72207e-16)
(9.44451 0.88513 -6.3411e-18)
(-0.567447 0.101027 1.47822e-16)
(0.0128561 -1.57734 9.67739e-17)
(-0.233184 -0.264771 0)
(-0.656545 0.22203 -2.92315e-16)
(0.731395 0.432487 1.38714e-16)
(0.574666 1.63878 1.13126e-16)
(5.92044 -0.26416 0)
(-0.65067 0.163739 0)
(5.26153 0.100004 0)
(8.91576 0.357881 6.88572e-18)
(9.07708 1.51728 9.66734e-18)
(10.3907 0.694582 -1.20002e-17)
(9.34111 0.86894 6.52832e-17)
(2.56662 -0.9185 1.53911e-16)
(0.677396 2.19104 4.69703e-17)
(8.95297 1.28682 -1.18488e-16)
(3.43724 0.20181 0)
(4.1844 0.168335 4.32024e-17)
(-0.652011 0.188811 0)
(-0.774182 0.251148 -1.01121e-16)
(9.94284 0.0486014 5.19551e-18)
(10.8871 0.0489373 0)
(9.30334 0.101893 4.80506e-18)
(6.96888 0.523793 -1.45276e-16)
(2.59106 -0.14472 -2.67242e-16)
(6.82549 0.974844 1.10086e-16)
(4.45352 4.40331 0)
(2.96265 5.23841 1.55733e-18)
(9.44606 0.00184466 9.10436e-17)
(2.18861 2.97316 -1.34649e-16)
(0.772399 0.195411 -5.59216e-18)
(2.16736 6.40977 -3.30579e-17)
(5.42902 0.159627 6.04905e-19)
(3.84282 0.191298 7.01203e-19)
(-0.608003 -1.82837 -4.56053e-19)
(0.852979 5.66369 0)
(0.221432 0.127678 1.4931e-16)
(1.59005 -1.4744 1.13974e-16)
(-0.0163552 -0.115579 -1.58923e-16)
(5.00259 0.0925374 0)
(-0.0283021 -0.103562 8.14437e-17)
(0.827538 1.62894 2.81467e-17)
(0.249077 -0.467556 -1.44869e-16)
(2.68174 -1.32459 -1.22655e-17)
(2.08757 -0.293951 -8.60766e-17)
(-0.741242 0.203316 5.11095e-17)
(4.48151 0.139328 -4.47525e-17)
(0.197897 2.46314 0)
(-1.45245 0.0237681 1.28555e-16)
(3.40427 2.47131 -4.1536e-16)
(0.140107 0.287925 -8.45635e-17)
(1.87613 -1.1732 -9.77563e-17)
(-1.40267 0.53583 -8.06633e-20)
(6.25205 0.447355 -1.21592e-18)
(-0.614779 0.105606 1.50751e-16)
(9.51609 0.79208 0)
(1.67094 0.041285 0)
(3.29532 1.67034 -8.92232e-17)
(9.99408 -0.00841059 2.4731e-18)
(9.8302 0.237036 0)
(0.248639 -0.0509347 -7.78713e-17)
(1.18241 -1.55537 0)
(0.181607 3.74293 -1.08225e-16)
(9.74285 0.111799 2.23339e-17)
(-0.246123 -0.951547 1.83663e-16)
(0.524988 0.560213 0)
(8.68016 1.14359 2.55053e-17)
(1.46884 -1.76909 -8.36847e-17)
(0.222846 -0.0861778 7.45578e-17)
(1.91677 0.713762 -1.52771e-16)
(1.6157 7.56844 9.00125e-17)
(0.0189404 0.821272 -3.15404e-17)
(2.0532 3.91646 3.03324e-16)
(-0.175934 0.867337 0)
(9.61558 0.163292 -7.47492e-17)
(9.7153 0.0774164 -2.42292e-18)
(1.42305 3.14935 -6.84741e-17)
(-0.0847199 -0.321014 8.33571e-17)
(2.43113 -1.6218 -1.00981e-16)
(6.11113 0.0459294 2.91415e-17)
(5.62627 0.215293 -4.02962e-17)
(4.59633 -0.294785 -1.81723e-16)
(5.19774 0.169288 0)
(5.56042 0.0547651 -1.33649e-16)
(7.19189 -0.0467072 0)
(6.05891 -0.0792799 3.3357e-17)
(4.74998 0.111648 5.13648e-18)
(0.0869553 -0.26986 -7.38494e-16)
(1.16723 0.197062 -3.18212e-16)
(11.0827 0.446168 4.58071e-17)
(1.20242 -0.435651 -2.69691e-17)
(0.568023 0.803168 1.98402e-17)
(0.624265 -1.15041 4.91311e-16)
(0.141658 -0.285945 -1.73682e-19)
(-1.42167 -0.569159 0)
(0.174374 0.216615 -1.79685e-16)
(2.04513 -0.520182 -2.81381e-17)
(0.0994578 -0.0684333 0)
(-1.51399 0.33336 2.33921e-16)
(8.94341 0.534568 2.66264e-16)
(-0.0122538 -1.013 -1.98363e-16)
(8.23735 -0.00929194 3.66251e-17)
(-0.416502 0.147174 -5.9763e-17)
(-0.337822 -1.37189 -1.03115e-16)
(9.58771 0.692807 0)
(8.52963 0.863727 -3.68932e-17)
(10.321 0.436555 0)
(5.87634 0.116058 0)
(1.04245 3.91479 1.67504e-18)
(8.57914 1.03351 1.11805e-19)
(1.65554 -0.938305 2.87842e-17)
(1.2497 0.306783 -3.38491e-16)
(0.972878 0.23831 2.84269e-16)
(9.60813 0.0322813 9.62589e-18)
(-0.0146126 -0.550144 1.18779e-16)
(1.12686 0.235957 2.31368e-16)
(1.12109 0.621756 1.29327e-16)
(-0.67788 0.266425 -2.70103e-16)
(3.17176 4.7875 3.24846e-17)
(-0.372326 -0.000994464 2.12222e-16)
(0.910275 0.912301 -4.68886e-17)
(1.49078 3.63713 0)
(9.863 0.227217 0)
(9.38962 0.00949239 5.25569e-17)
(9.70461 0.0565919 -7.66331e-17)
(-0.592735 0.095894 -1.92173e-16)
(1.22064 -0.929887 -2.97353e-17)
(-1.18682 0.889579 2.66568e-17)
(2.25685 0.286801 0)
(-0.21878 0.737826 0)
(9.82042 0.246235 5.71789e-17)
(8.38346 1.71644 0)
(0.237824 -0.16808 -7.35102e-17)
(-0.850849 -0.300714 -2.11959e-16)
(8.48013 0.394674 1.46683e-17)
(1.71715 7.15834 0)
(-0.619629 0.219939 2.51032e-16)
(0.864925 -0.0857685 0)
(-0.152768 0.365011 1.64133e-16)
(8.49552 2.16265 -9.01955e-17)
(-0.294666 1.24812 0)
(1.62743 -0.301511 -9.42904e-17)
(-1.15159 -1.78182 -5.39538e-17)
(9.71227 0.0612538 -6.87756e-17)
(-0.168266 0.055306 1.69962e-16)
(0.221525 0.183959 0)
(-1.12546 0.685284 6.49703e-17)
(-0.784678 0.897736 -6.2356e-17)
(10.4934 0.0906875 0)
(-0.25263 0.453094 0)
(-0.501731 0.0985062 2.10437e-16)
(-0.185552 0.765921 -1.06442e-16)
(0.598041 0.898151 0)
(6.80373 0.0751207 1.66116e-16)
(9.18351 0.137126 0)
(-0.747959 5.28337 -1.23789e-17)
(3.86764 1.66017 -8.54664e-17)
(9.65118 0.132448 5.62686e-17)
(-0.218804 -0.314291 -1.77647e-16)
(4.47445 1.92701 -2.44745e-16)
(-0.0290359 0.375891 -1.08716e-16)
(2.05553 -0.813837 0)
(-0.632274 -2.31847 -1.67226e-16)
(2.66746 -0.184498 2.3695e-17)
(-0.296428 -1.28168 0)
(-0.172242 -0.842702 -1.6165e-17)
(-0.611717 -1.72012 1.5036e-16)
(-0.608831 -1.5426 5.80888e-17)
(1.65034 0.0683943 0)
(1.93184 -0.000118804 5.97198e-19)
(11.1508 0.176409 -4.30126e-17)
(-0.338757 -0.0331866 3.52246e-17)
(-0.343086 0.695323 4.67319e-16)
(-1.6071 -0.0581055 7.453e-17)
(-0.634668 0.347315 3.05466e-16)
(9.70844 0.0797243 5.36007e-17)
(0.256364 3.60343 0)
(1.36719 0.038048 1.78693e-18)
(-0.516873 -1.81203 -1.5266e-16)
(0.0796806 -0.491191 -2.77257e-16)
(-0.31383 -0.541425 -8.90974e-17)
(9.36364 0.0267587 9.34661e-20)
(1.35997 1.89325 0)
(1.92824 0.140101 4.21619e-18)
(-0.510069 -1.85127 -7.71602e-17)
(9.91222 0.222877 2.5291e-17)
(-0.682773 0.229777 2.1037e-16)
(9.69977 0.0366209 3.2851e-22)
(9.7237 0.129148 0)
(7.69995 0.18984 4.38385e-17)
(0.856849 0.51846 0)
(5.78889 -0.0456438 -1.7871e-16)
(0.05724 0.827869 -1.78324e-16)
(2.06895 0.0791521 0)
(0.721172 1.38781 -7.03705e-17)
(8.45586 1.36086 -1.79239e-17)
(-0.072811 -0.353272 1.02744e-16)
(0.0737491 0.0297609 -1.00797e-17)
(0.106809 -0.411648 0)
(0.130819 -0.205555 9.5721e-18)
(0.00679839 0.137924 2.23367e-17)
(0.054531 -0.548466 3.57986e-17)
(0.0104548 -0.601928 -7.44358e-17)
(-0.192824 -0.296934 1.8467e-16)
(0.114127 -0.0536599 0)
(-1.9022 -0.175015 2.39546e-16)
(9.67615 0.072327 9.84685e-18)
(-0.0177195 -0.59248 4.26756e-20)
(-0.240249 0.595623 0)
(-0.127023 0.0392014 7.02131e-17)
(0.437788 -2.67704 1.15207e-18)
(-0.0767991 1.03356 -1.85795e-16)
(0.464637 0.728221 -3.71675e-18)
(-0.0660485 -0.0108335 -1.96919e-16)
(-0.311133 -0.0605756 -8.92955e-17)
(-0.00409929 1.10563 -1.00387e-16)
(0.226563 2.80772 4.78262e-17)
(0.182487 -0.320431 3.08179e-16)
(1.88772 4.39844 0)
(0.467247 -0.594586 -1.49174e-16)
(-0.0360633 -0.56226 -1.06787e-17)
(-0.482695 0.992341 3.02732e-17)
(-0.0488644 -0.588638 -9.85224e-17)
(-0.909928 0.855168 -3.28456e-17)
(1.10789 2.74368 1.26744e-16)
(0.516857 1.1505 6.81886e-17)
(-0.829703 -0.303119 1.07132e-16)
(0.642156 0.482301 1.84309e-18)
(0.502935 -0.103946 -2.25692e-17)
(-0.073811 -0.169186 1.77415e-16)
(-0.0513189 -0.500334 -2.0973e-17)
(-1.82697 0.423022 -5.49164e-17)
(-0.00652784 1.19307 0)