/*--------------------------------*- C++ -*----------------------------------*\
| =========                 |                                                 |
| \\      /  F ield         | OpenFOAM: The Open Source CFD Toolbox           |
|  \\    /   O peration     | Version:  v1912                                 |
|   \\  /    A nd           | Website:  www.openfoam.com                      |
|    \\/     M anipulation  |                                                 |
\*---------------------------------------------------------------------------*/
FoamFile
{
    version     2.0;
    format      ascii;
    class       volScalarField;
    location    "0.67";
    object      p;
}
// * * * * * * * * * * * * * * * * * * * * * * * * * * * * * * * * * * * * * //

dimensions      [0 2 -2 0 0 0 0];


internalField   nonuniform List<scalar> 
1431
(
94.7197
93.3021
91.7268
94.9952
95.3611
91.1495
92.0007
100.502
93.4144
94.5119
93.7484
92.7869
92.4513
106.264
93.1061
93.0514
93.393
93.9085
95.6948
94.2516
94.9248
94.4056
92.0273
107.163
83.224
94.6155
76.9955
105.413
94.5692
93.7738
116.452
123.111
84.8105
91.2888
93.3259
90.8918
94.8614
99.5783
90.8264
99.6784
113.431
93.5091
91.6192
93.8517
84.2034
94.663
94.6038
121.748
117.408
101.023
93.7087
94.6423
93.0132
90.9438
92.5843
114.749
94.8631
92.5843
83.5169
94.982
93.5192
93.554
94.0751
100.451
102.523
93.2592
90.217
90.9399
94.0539
100.86
91.5943
93.8054
92.817
91.0981
92.551
84.9812
94.9844
85.0287
100.854
77.884
100.475
93.7731
92.8163
93.6317
85.8449
95.2562
95.478
92.7486
108.083
94.4598
94.3703
93.206
95.4026
99.2962
93.8284
95.0542
92.4279
102.663
95.5932
116.412
94.0332
99.4503
94.632
95.5204
93.4945
92.6899
100.58
116.616
118.275
95.1512
80.12
93.228
101.03
94.0251
93.0778
95.6057
94.2874
93.2145
108.956
85.2542
97.8867
92.3384
94.242
111.724
100.189
92.6224
109.755
92.5574
94.7752
100.336
93.1394
117.572
107.156
94.5485
95.3029
94.4739
92.9707
93.5842
94.505
117.143
94.0624
95.3026
99.5903
117.503
118.686
98.4649
102.125
117.047
93.3157
116.069
101.161
103.641
92.7118
92.1706
92.9578
92.2855
100.484
94.2215
101.81
111.022
93.6404
93.5941
94.6069
92.7765
95.6185
76.3627
95.1201
98.6782
93.7463
94.7463
109.652
92.422
115.354
101.36
100.097
94.6048
92.7082
102.08
93.9664
107.676
100.545
93.4868
107.922
94.5092
99.8789
110.684
99.4984
90.7423
94.7503
100.455
93.15
93.4616
94.9695
100.272
93.2026
97.552
100.588
120.336
93.7415
93.5159
92.992
120.227
114.539
112.167
100.502
80.2976
95.1993
100.94
92.7703
104.437
100.271
101.132
112.375
100.839
94.7146
92.3043
102.746
92.8283
93.1335
100.536
100.528
73.5051
99.7604
105.78
101.215
95.374
113.436
94.545
105.47
116.727
95.3969
94.0351
100.744
98.8597
100.174
100.843
101.894
94.668
100.432
92.7631
102.328
112.86
93.4716
93.2847
92.2474
92.4326
99.7853
92.808
90.9976
108.565
106.42
93.5203
94.5572
120.789
94.1081
101.364
93.9015
92.682
100.187
100.709
101.212
92.7485
95.6569
93.6815
100.418
104.575
95.5133
99.3482
106.69
93.3717
100.551
116.42
105.404
104.413
100.808
97.4664
94.4798
92.8434
93.3051
94.3976
93.1851
92.7215
93.3259
94.2955
97.5075
92.5565
95.3469
106.329
107.406
101.63
98.3822
100.408
106.193
93.553
107.903
103.051
94.8897
105.912
92.8854
109.269
100.682
115.067
92.3703
119.246
93.6072
93.0652
100.6
101.066
100.42
95.1009
101.44
99.9436
93.4537
95.4754
92.753
93.2009
94.2632
92.8405
99.7715
94.6235
93.1434
95.0146
94.1132
92.9176
93.3656
94.383
100.37
94.109
113.903
101.141
93.4975
92.5575
92.5281
93.3038
100.207
93.4667
94.022
95.1775
93.8838
92.5196
93.089
100.469
94.217
93.3482
105.546
92.7578
101.178
92.9081
95.4771
95.2799
92.7863
93.4976
93.0487
93.8959
92.8149
92.8678
93.4021
92.7995
94.3347
92.5611
94.0108
92.8233
93.8836
95.5435
95.3858
92.8365
93.86
92.8214
93.4901
93.5393
93.1763
92.5136
94.7006
109.292
93.1888
92.9945
93.4259
99.948
99.2127
94.6757
93.5181
92.7867
95.301
93.2169
92.8373
93.8674
92.7755
92.8091
94.0074
95.5194
92.9748
92.0066
112.141
99.9481
94.3397
93.4474
95.2145
100.888
93.4313
100.533
92.435
93.4757
100.803
93.8284
93.5342
97.2155
92.7796
119.006
95.0629
93.4334
97.6829
93.0865
93.214
89.4422
118.106
133.863
93.3505
93.2944
92.7514
95.1675
92.8929
93.882
93.6759
92.6312
94.1152
93.311
92.8373
93.1311
83.7932
93.0899
84.0466
92.4444
93.1877
93.2544
92.7342
93.1477
93.6212
93.252
92.6958
90.7213
91.8942
94.277
93.1595
93.0529
92.1826
93.4836
93.4009
92.3194
91.2806
93.4502
93.3546
93.7321
93.4833
93.8167
93.754
93.8487
93.7551
93.7438
93.8179
92.7565
87.0009
92.6673
90.8759
91.6787
92.7367
92.7042
95.0534
87.9732
91.2893
92.717
88.6356
93.5755
118.936
117.156
91.6064
92.7118
91.9773
91.7246
93.3239
94.0109
93.9393
93.7115
103.135
98.7223
118.893
93.9487
91.7619
93.4582
93.625
91.6601
92.0032
93.2006
92.7654
96.5315
93.7505
93.75
91.9621
92.8002
100.97
92.6812
91.8003
87.4126
93.0862
92.9911
93.0267
92.0413
92.7298
93.5467
93.6481
94.314
94.5996
92.1653
101.604
93.3771
100.538
93.7489
94.0548
88.2309
93.7774
92.7374
92.0244
92.5398
92.5509
95.1063
93.6891
93.5693
93.3751
93.6743
92.4564
92.9428
118.903
119.789
92.673
92.4294
93.5994
93.6662
93.0184
92.8424
93.5047
98.8024
92.9005
93.0886
93.411
94.3013
93.4705
93.4797
93.0546
100.368
93.5775
92.7843
92.6588
93.189
99.717
93.5683
92.6104
93.4995
92.9675
93.3672
98.7016
104.141
93.437
92.8539
93.0175
94.4095
84.2895
95.4507
93.5713
105.518
93.7535
92.9162
92.9299
93.3544
94.8294
93.4067
92.3496
93.8692
93.683
93.4485
92.9195
102.379
93.6945
100.434
93.4237
93.145
93.0888
92.8038
93.4142
98.6983
93.7258
103.71
94.6183
92.4536
98.2337
99.2516
100.319
92.8041
95.4687
92.9654
104.479
92.3205
93.4467
93.3852
92.7497
92.9379
92.99
93.4076
93.1787
92.7809
93.4811
93.8936
98.2009
93.3975
95.3259
93.2539
95.8858
103.506
93.562
94.4028
93.1302
93.4721
92.755
93.0415
93.7095
92.4012
92.7676
125.915
92.7345
95.5648
93.4446
100.298
93.5079
93.2491
94.6804
100.292
92.9647
93.5062
92.7455
107.815
96.8933
93.1233
92.8923
93.861
100.34
93.3524
92.4025
92.938
92.9104
93.3532
94.581
93.0252
93.0131
93.1984
102.739
97.455
93.4467
93.4646
100.614
100.349
93.138
93.4356
92.9701
95.6114
93.5537
94.089
100.9
92.6061
96.8397
93.5682
93.423
93.4076
95.6066
100.528
93.5923
93.0411
118.788
118.187
91.9697
94.4013
92.1996
99.3221
93.1714
93.1466
92.61
93.4178
92.9936
92.6392
93.9307
92.8924
93.4001
95.3495
117.079
92.9202
92.903
94.6904
93.5346
92.6744
95.5657
92.9943
100.636
109.371
92.9251
92.6992
104.563
92.426
95.1071
132.123
96.5185
93.35
95.1905
112.143
93.57
95.3224
92.7402
93.6149
93.2451
101.276
93.3308
93.3619
111.457
94.6075
101.112
102.059
100.189
92.6641
92.5082
101.704
94.0921
93.3885
110.485
94.1506
94.8701
94.685
109.943
109.342
93.427
103.579
93.6786
92.2224
93.4959
93.5978
92.9079
93.3341
120.296
94.5397
102.946
101.776
105.311
106.389
110.68
92.2785
92.9702
106.902
108.693
107.162
94.086
93.0701
100.424
100.673
101.03
110.486
91.9925
108.877
114.069
105.577
100.095
92.4788
93.2596
112.557
102.501
107.959
92.7162
100.993
95.5106
92.8009
93.2655
104.371
95.6136
93.3553
93.2843
92.1519
92.6711
93.352
106.35
93.5178
95.5546
109.597
95.3907
92.761
93.2795
111.178
94.3803
102.64
113.474
143.72
99.7572
100.773
95.574
92.8147
95.5726
99.8438
93.5702
92.9104
113.672
92.6263
95.5707
93.1062
96.8448
93.636
92.3945
94.9138
101.148
99.9619
92.9332
95.623
82.9611
101.881
101.652
99.0816
99.1927
99.3242
102.586
100.733
105.508
93.3352
93.2267
101.366
92.6474
92.9046
92.5206
95.6085
92.9329
95.3005
92.7455
95.5729
92.758
94.6112
93.3232
100.084
92.3812
93.571
101.817
117.455
102.31
99.0665
88.0641
115.735
92.7093
93.1802
93.2416
100.374
93.3954
93.1049
92.8063
95.3646
124.834
93.456
94.6822
92.6861
100.583
100.631
100.278
94.1326
92.7685
93.6461
92.8125
94.8548
98.979
111.126
95.5876
92.7459
118.665
101.714
94.4621
93.2099
95.1799
109.838
91.344
93.4649
92.9619
100.544
95.6485
92.2055
93.0622
95.154
100.857
94.7501
93.2822
86.2188
84.8829
117.599
102.303
91.1494
91.4062
100.774
94.7674
90.4716
95.2574
92.7134
93.7535
92.129
93.473
93.5034
93.7832
93.8943
114.57
116.725
102.485
94.7456
95.0998
95.8453
94.1476
100.194
93.5001
93.8265
93.8809
93.3498
93.5272
100.927
92.4506
92.0235
93.521
100.989
93.2105
100.359
100.379
102.174
92.1404
100.775
94.0191
111.282
93.172
111.534
93.7438
93.4525
94.2846
93.8504
93.1804
94.614
94.7642
93.3366
95.5328
92.9648
100.718
94.7868
94.799
93.4188
77.1263
95.0729
93.7934
94.7747
93.5529
95.6537
93.6327
93.3684
112.136
92.817
94.7804
93.4165
93.4488
93.0958
93.167
93.5704
92.7967
93.8092
93.3372
94.799
94.7981
99.3146
95.37
93.5289
93.3739
94.0257
93.3389
89.4517
94.1135
94.2107
100.479
94.8148
94.8059
93.5387
93.2748
103.417
93.3732
93.7552
94.6158
91.3754
94.8867
100.357
94.7693
98.0021
95.434
100.819
93.6608
93.2243
101.324
92.8133
93.1197
106.678
84.5697
95.2289
94.7147
93.0621
101.271
91.7439
94.1105
100.97
91.4556
93.2657
98.8899
94.3185
93.4505
93.9749
100.282
103.473
115.471
92.078
95.144
94.274
93.7872
93.5048
93.2077
92.9612
92.7146
85.6139
103.473
92.7902
93.1717
93.4454
92.8736
114.517
93.4585
94.1863
92.9503
93.8671
92.2827
94.0756
94.2667
100.457
93.8149
93.6096
95.5948
95.4223
95.5804
92.8662
93.7255
92.7441
84.9465
93.3196
108.917
92.9848
92.7752
99.5282
93.7056
93.4226
91.1925
93.1063
94.2493
103.289
94.2603
119.643
93.7742
93.5896
96.9692
85.8612
121.825
94.461
92.5334
100.723
100.079
93.723
93.0792
99.7594
94.4199
99.23
100.561
92.9861
94.95
99.2219
101.499
101.469
95.5794
94.2234
93.2077
95.3224
120.422
95.5044
95.6137
116.192
100.585
92.9469
95.212
104.714
93.4866
121.01
98.1284
94.7504
92.9656
101.555
94.7198
96.8226
94.1163
94.9218
92.3661
82.334
93.2287
101.116
93.1432
95.5995
92.7588
104.503
92.6198
93.2314
94.0429
116.73
93.5235
117.68
93.1054
92.4935
112.331
114.566
92.3165
93.5927
101.4
95.0576
85.3363
94.7495
92.9955
95.1566
91.071
92.942
101.486
95.7301
94.7248
93.2417
93.1654
94.0646
93.3487
95.5868
92.3076
95.4473
92.8032
92.9926
93.3095
94.1211
94.5061
99.9236
85.6382
94.9664
94.0519
100.712
85.3705
95.5624
92.8994
92.9045
92.7351
93.8394
93.6455
104.416
111.463
101.201
86.2856
95.2189
95.1804
92.7353
93.6876
115.033
117.292
95.5298
92.8619
94.8127
100.913
91.1048
93.1062
96.8632
98.9625
99.2088
118.535
95.5295
92.9984
93.7431
112.358
85.5385
114.357
94.8254
94.0946
96.3108
100.323
93.0554
101.886
95.1756
92.6901
98.5988
103.088
94.985
93.6102
93.3979
85.0222
93.9201
92.581
101.023
92.8736
94.4652
92.4267
93.2113
93.1645
102.11
96.3239
91.9517
93.4135
100.939
100.652
101.752
93.757
94.0997
93.294
95.2409
87.9042
93.2499
92.9219
93.3616
93.4978
93.5937
99.1236
94.8606
93.2962
117.084
92.9365
119.606
99.5355
99.895
102.242
91.6627
95.2924
82.1254
95.1352
93.5224
85.8857
95.1809
92.7154
94.5343
93.7174
93.3708
95.5764
91.9911
94.3568
94.0868
95.5329
92.6484
93.5188
118.377
95.5496
92.7967
100.341
93.8042
93.8704
93.4349
93.992
95.6598
93.3484
93.3114
91.9898
92.554
99.4166
93.3718
100.448
98.6868
93.3402
85.2792
92.8152
93.4383
93.2708
92.8955
95.2208
100.902
93.2919
100.058
97.1962
94.6096
100.901
103.366
92.9919
93.3102
123.833
129.612
92.8412
93.7822
93.3625
93.4188
94.2893
93.4765
99.1085
95.6291
94.4228
92.7021
94.776
99.5983
94.0142
93.1818
92.1921
95.6251
93.3954
100.809
93.1841
93.3346
93.7922
93.4229
94.0042
100.55
92.9797
93.6724
99.3537
102.887
94.7552
94.3345
93.2348
94.8514
93.2878
93.2613
94.5696
93.1142
94.7838
94.8663
92.3948
93.8118
92.3642
95.3819
90.0707
95.1416
93.9614
94.4523
92.3673
93.0641
94.7262
92.7545
101.579
92.8189
76.6167
100.207
93.6202
95.4575
120.021
93.3295
93.2758
91.4032
95.2963
92.807
94.3727
100.105
93.5068
92.7939
92.8193
98.8268
94.2189
93.3408
93.6056
92.7921
94.2831
100.414
94.8966
93.0166
93.4421
92.5348
119.624
92.745
95.2322
94.2706
94.7668
102.618
92.4666
103.246
101.87
94.8538
92.6647
94.153
93.3196
94.626
93.0555
91.9741
124.323
93.8244
92.958
104.689
92.7511
115.92
99.8813
103.914
94.2999
99.741
93.3559
95.6913
92.696
94.8125
85.8733
95.5098
93.4197
91.8679
98.396
91.9749
94.7735
92.7422
94.8511
101.631
100.892
100.836
94.247
87.8802
98.8844
100.191
101.023
100.361
92.5059
94.0768
93.3635
93.9667
101.363
116.561
93.302
93.9094
93.3373
94.191
93.2227
100.416
102.005
81.9159
126.103
91.8633
92.2687
120.426
94.1489
94.458
95.0258
)
;

boundaryField
{
    frontAndBack
    {
        type            empty;
    }
    wallOuter
    {
        type            zeroGradient;
    }
    inlet
    {
        type            zeroGradient;
    }
    outlet
    {
        type            fixedValue;
        value           nonuniform 0();
    }
    wallInner
    {
        type            zeroGradient;
    }
    procBoundary0to1
    {
        type            processor;
        value           nonuniform List<scalar> 
29
(
92.1774
91.5961
90.736
90.736
83.5443
83.5443
118.377
90.8705
87.655
90.7048
90.8835
83.7279
90.9394
92.6528
118.698
119.043
83.1015
83.8163
90.6214
91.5311
118.902
118.8
85.1493
119.139
119.259
83.8163
119.88
118.293
119.139
)
;
    }
    procBoundary0to2
    {
        type            processor;
        value           nonuniform List<scalar> 
42
(
94.6906
94.5427
95.6954
95.8085
95.1598
94.6906
95.6954
95.6964
95.1545
95.0788
94.9001
94.6412
94.9001
94.5075
94.3958
94.8935
94.3958
95.0334
95.126
92.3439
92.3439
95.0334
95.0755
93.5099
93.5099
95.1521
94.0398
95.2872
94.6074
94.3399
94.3399
95.4377
95.5459
95.602
95.6308
95.6954
94.4683
95.7649
94.6074
95.6964
95.6846
95.6564
)
;
    }
}


// ************************************************************************* //
