/*--------------------------------*- C++ -*----------------------------------*\
| =========                 |                                                 |
| \\      /  F ield         | OpenFOAM: The Open Source CFD Toolbox           |
|  \\    /   O peration     | Version:  v1912                                 |
|   \\  /    A nd           | Website:  www.openfoam.com                      |
|    \\/     M anipulation  |                                                 |
\*---------------------------------------------------------------------------*/
FoamFile
{
    version     2.0;
    format      ascii;
    class       volScalarField;
    location    "0.21";
    object      p;
}
// * * * * * * * * * * * * * * * * * * * * * * * * * * * * * * * * * * * * * //

dimensions      [0 2 -2 0 0 0 0];


internalField   nonuniform List<scalar> 
1466
(
72.4748
118.488
91.8824
96.5069
89.6807
99.1494
84.2602
91.7153
111.231
106.617
70.1555
106.895
111.384
89.6649
99.5146
67.027
90.3473
106.292
113.428
89.3548
87.6765
64.6342
109.996
90.0127
111.375
124.441
67.3373
88.529
89.8732
119.263
72.2187
118.262
87.4179
88.2016
111.452
89.2667
85.0183
90.5489
97.3362
88.4812
78.1019
65.2243
68.7548
73.3808
82.8804
82.6719
76.8196
88.3858
106.682
85.3227
97.7442
118.176
101.882
89.599
89.2976
109.539
75.4803
68.1353
88.0512
104.92
125.761
76.0265
85.1482
119.079
91.0086
94.0627
108.84
91.2168
113.929
91.7962
125.399
110.09
90.394
110.22
125.796
111.896
73.81
82.029
84.3501
117.989
100.064
66.4996
93.1039
107.527
90.8747
82.9766
89.3357
115.998
98.6634
97.0392
124.06
66.6484
96.0221
72.6315
92.5251
91.1247
118.962
70.4337
112.539
89.7297
98.1407
98.1176
86.8521
107.682
71.9567
92.8604
104.793
89.1865
72.8112
74.5231
125.502
112.349
71.4808
66.1802
106.243
123.579
65.9493
105.603
82.1934
91.3826
95.6164
70.451
77.259
72.0988
83.7114
92.3306
115.46
107.843
91.2573
120.353
102.915
67.2394
109.736
90.1101
121.293
82.7029
92.0967
89.1514
80.1454
90.0016
86.29
87.1526
89.7717
109.349
76.5028
87.8205
117.971
118.02
120.653
99.891
123.572
117.559
114.764
93.0574
119.909
64.1951
89.3498
90.3867
117.829
91.6848
117.705
117.201
77.5385
89.5537
121.566
74.7294
89.9344
109.404
87.2397
94.8667
86.8762
119.687
85.2583
114.279
120.837
108.323
120.041
119.778
125.252
125.236
111.85
119.888
86.341
86.0777
115.059
85.517
93.1575
108.009
113.996
86.3533
86.1895
126.003
95.7568
94.3966
90.6216
125.055
92.2782
114.855
122.769
88.8522
95.6006
120.493
118.374
82.0483
125.438
123.644
92.2642
116.627
118.432
89.5999
111.518
88.5197
108.333
87.6244
88.8347
91.1196
86.7642
93.5199
112.732
90.0676
109.654
122.879
90.5571
125.369
89.2354
118.29
108.361
84.3344
124.733
121.623
125.999
113.941
99.075
90.2853
96.525
124.256
89.6996
109.383
119.274
86.0529
85.5987
117.537
118.631
96.1183
120.042
116.851
119.049
109.749
118.812
118.374
86.7922
91.3062
115.865
81.1458
118.713
117.589
89.2759
100.141
88.3926
86.2
107.621
109.703
90.1225
121.15
90.1466
85.5687
119.49
120.217
95.7135
102.349
75.5778
89.9423
107.115
118.937
122.895
125.642
124.272
91.4094
85.9232
120.423
119.056
90.2894
89.3641
115.737
89.1808
82.962
120.346
120.243
86.2716
112.382
113.675
67.5008
111.885
84.6334
93.6545
104.976
96.4173
84.3603
120.309
120.062
89.5775
102.936
125.453
110.953
86.7756
87.8358
74.1554
83.7524
109.504
88.1894
115.137
109.114
89.7664
120.353
120.838
120.499
88.1369
121.501
81.1674
96.036
106.96
92.798
83.1393
119.875
92.7488
109.478
84.2916
126.221
118.842
121.867
105.985
110.988
91.3902
97.0368
88.4409
89.0773
87.2679
118.803
77.1672
71.1982
83.5299
116.384
88.6114
135.388
94.3834
125.286
115.223
125.002
113.446
88.3392
94.3826
93.298
92.1504
87.8869
87.7993
88.2772
88.5477
81.8629
102.708
117.614
87.523
88.9142
90.5282
81.2445
83.5414
108.284
115.467
114.637
86.3098
94.2511
102.29
89.1503
137.808
99.345
90.427
90.3162
107.883
127.462
70.7735
90.9669
81.2418
83.9755
83.6308
86.836
90.3927
87.2279
87.2878
86.9175
83.6016
81.545
99.1581
88.6439
79.1935
91.3651
77.4871
75.32
81.3578
115.488
77.3913
74.5486
82.1445
83.4579
102.104
89.3389
100.235
64.1144
100.84
97.2628
67.1919
65.2902
92.5346
103.845
100.06
64.5102
98.5504
89.6432
89.6144
96.8896
93.9857
75.8508
65.1556
64.4488
79.1428
99.6977
79.0139
88.7893
66.0516
142.364
82.5695
91.384
101.644
76.2723
86.0085
83.5724
118.118
74.1798
80.8614
72.5994
89.6007
104.42
81.6083
102.351
105.64
81.7706
118.763
70.2165
112.081
119.127
69.4031
107.491
120.087
70.1697
105.474
111.925
96.7321
108.643
93.957
94.0806
108.598
119.614
85.3745
104.172
93.9721
88.0066
108.118
69.9916
92.2914
105.381
94.8791
89.0929
102.736
94.5377
108.276
85.1934
120.422
70.0828
83.3771
85.3053
90.0741
88.7681
94.4563
87.5765
86.6164
89.2595
89.6923
115.512
71.046
85.7923
89.6477
90.794
90.4892
88.6668
90.0733
93.5125
83.1395
88.5543
87.4208
91.8696
121.762
80.5333
90.1203
90.4028
95.0404
108.472
86.6404
82.9775
113.176
121.049
71.1261
87.0755
117.587
88.4291
81.5412
93.1284
85.3791
80.9419
100.272
112.082
113.05
91.5437
91.3576
88.6354
88.8076
120.794
86.8649
92.471
91.9998
86.5177
95.771
88.0855
72.336
80.5155
88.6916
90.6321
90.4534
97.0777
97.515
123.024
99.9615
87.817
115.493
108.697
85.3924
79.4466
96.3737
101.324
94.4019
102.533
88.4573
122.002
80.2193
72.6447
88.997
91.7435
88.3093
83.9353
85.565
79.1384
86.0685
107.001
86.7568
88.6879
119.379
128.16
113.029
78.1003
92.628
87.5631
132.029
92.2231
93.0208
86.3795
119.917
120.57
82.5868
88.7975
96.1895
91.53
88.772
74.4803
86.9833
91.3543
89.3666
83.3654
79.9575
84.9777
94.9079
108.27
86.7417
77.7422
87.7624
106.852
85.798
90.8305
86.8438
90.884
111.58
90.5159
85.1361
90.0024
128.331
104.066
96.6128
103.757
102.867
86.8938
118.12
86.8298
107.817
87.3662
80.3881
96.3423
111.986
94.3864
88.9959
119.804
120.45
120.481
114.853
92.2524
110.171
82.9515
117.583
99.1585
113.004
91.6742
91.1194
87.0934
88.3919
88.5558
89.9776
113.87
115.071
96.7677
92.0442
106.687
88.2976
87.75
120.248
92.1578
86.9627
111.9
90.003
124.645
91.0977
102.481
87.7295
84.2933
87.8276
116.655
91.9136
112.37
121.478
84.4639
90.0614
88.3727
74.3908
92.0311
118.091
105.857
89.7328
113.669
72.8399
106.439
90.8554
120.563
93.7118
119.82
107.565
73.5576
86.1023
118.171
87.798
85.1113
108.371
89.7771
99.8317
125.262
78.1842
111.978
91.9264
87.4929
123.263
108.422
119.512
87.9087
118.35
120.13
87.5802
120.249
89.3756
111.935
109.043
99.874
119.177
119.834
97.9907
84.2813
117.871
84.1037
92.31
118.797
120.276
119.396
84.242
80.8281
119.115
74.2212
119.428
81.6718
79.533
106.138
68.715
94.3099
86.2948
89.6025
87.2758
82.2695
89.3721
120.131
111.796
66.2706
108.963
89.1039
91.7785
92.8482
92.1705
88.4534
76.8689
125.046
87.7296
89.9735
83.2369
89.6978
107.951
122.377
89.3651
87.4389
88.7133
89.9489
86.8862
96.6234
92.5061
89.6266
92.0134
83.892
116.363
125.901
79.5312
116.288
92.293
76.7171
123.782
84.1618
95.594
106.91
82.3402
93.2197
112.537
107.628
89.1829
72.9113
125.039
121.001
90.3479
118.865
88.5253
109.007
108.101
86.229
117.986
76.6822
76.493
71.2014
65.3137
85.2889
123.597
119.824
85.6049
100.93
92.3324
77.0251
87.6314
73.2368
89.5303
89.6765
96.5424
84.8799
81.8737
94.239
81.526
90.9723
86.8102
74.0942
117.634
111.948
86.4931
72.4008
92.2212
88.0059
74.401
86.4726
92.1887
88.9788
89.8178
84.9344
125.711
112.363
64.4698
95.4325
89.2037
92.7821
107.949
91.5462
125.301
90.2209
86.4254
88.7804
122.031
88.5296
101.966
83.1176
84.5122
120.181
83.9365
75.3551
85.0917
110.5
112.577
107.38
118.507
87.5276
77.5721
64.9706
80.2301
95.2961
94.8655
120.082
75.6397
76.668
78.0766
85.1929
85.5326
72.7106
79.4719
99.1238
115.848
90.9473
118.812
85.8
76.8466
114.694
96.4868
85.1519
76.5213
117.925
117.688
121.03
94.8164
91.464
90.0309
89.9119
112.024
80.377
125.241
70.5927
94.8084
90.7784
118.236
85.0779
77.6549
124.122
86.155
118.093
90.505
85.2085
84.6974
89.8015
89.3655
90.1575
88.541
88.9516
89.0087
88.4999
89.8856
110.961
111.906
90.8992
89.196
88.3946
92.5021
110.525
113.684
98.1091
95.2485
116.307
119.334
123.357
121.865
87.6004
87.33
87.8823
90.3325
112.869
111.793
124.739
86.2389
79.8217
97.4798
77.9883
89.5223
102.609
85.7313
103.885
92.7941
95.7689
116.87
109.287
108.007
82.7242
86.221
118.063
93.2012
118.72
98.8699
85.6046
68.8588
88.846
71.565
80.1106
98.2068
118.556
110.763
84.6635
94.2174
84.309
92.6245
88.8892
90.9354
81.6347
88.9475
119.472
119.944
93.0656
78.3276
87.8697
118.923
107.55
113.493
111.073
124.567
93.639
119.434
66.4307
94.7491
90.1654
125.363
101.02
67.5292
129.15
85.3214
111.501
88.8075
115.288
88.1208
109.285
84.8027
105.632
82.8122
81.9842
89.5431
91.5481
65.6009
89.1221
120.28
119.419
123.881
91.3512
93.2118
120.123
71.3825
88.1861
109.406
92.4789
112.408
89.1867
87.3499
119.823
109.099
88.2404
122.056
88.5329
106.848
104.31
107.463
106.148
119.762
86.6927
89.7476
96.6294
79.3864
88.8831
90.0801
112.357
126.14
80.432
89.9929
86.9653
107.609
110.815
85.8868
108.713
83.1293
124.453
90.8287
85.9628
71.6756
117.629
118.75
86.1555
104.004
85.6702
64.092
102.214
94.0752
107.608
91.846
110.552
89.8642
79.0698
72.5924
90.7936
122.735
120.127
82.9839
80.4236
119.908
125.558
90.6044
111.187
123.201
114.045
71.988
85.2365
114.746
91.8516
126.075
122.893
94.7925
85.3045
70.1138
80.7077
119.868
88.0666
113.952
77.9559
117.834
121.175
117.658
120.886
74.4783
98.7433
117.375
114.305
125.058
94.663
125.68
69.6347
77.2516
125.611
89.6301
79.3493
122.353
74.531
118.92
75.5503
103.179
119.289
118.556
71.1189
85.318
112.915
88.8202
120.619
119.671
121.202
120.124
113.687
113.366
118.11
117.968
118.01
118.232
111.35
90.6737
85.6573
118.866
118.231
95.6145
84.7967
119.648
107.497
91.3301
77.6041
76.9238
86.1564
93.3278
86.5729
117.921
86.1671
78.6251
118.971
103.652
118.941
120.361
126.221
111.674
112.568
87.0922
82.2111
115.154
125.857
109.309
90.4789
109.351
110.329
92.2698
118.619
118.676
92.47
114.053
116.559
106.59
71.4057
86.3859
75.5642
120.529
73.8864
91.686
65.0261
92.4577
92.5719
88.4175
106.672
118.557
94.6192
93.498
92.2534
76.1516
98.6905
92.4252
112.938
112.579
92.9572
119.185
92.5391
121.057
95.4756
123.834
93.2085
111.586
95.5262
108.341
90.8297
86.9416
90.4269
116.934
76.2898
91.2328
82.879
74.7132
76.7866
86.6606
73.416
87.4677
78.1274
116.309
90.636
70.8504
68.5095
90.5875
111.299
121.967
89.653
68.6381
86.3309
93.3442
75.8563
88.7113
87.467
84.1082
83.1354
74.7205
124.348
73.1532
103.564
100.937
112.956
120.471
124.997
119.297
118.328
94.3134
116.638
117.435
117.831
101.926
110.21
77.3625
120.423
92.4986
124.765
121.283
70.7067
80.8557
107.541
107.302
111.864
90.8425
92.7637
85.404
92.4428
106.947
109.185
90.3329
77.2791
88.7324
107.004
106.593
73.3163
90.9823
119.848
108.433
87.4471
74.4039
87.7671
68.5513
98.8347
89.1533
105.508
83.1613
70.9299
78.0316
94.6715
118.077
121.278
107.95
85.7345
91.4617
76.7995
110.717
86.2678
92.0761
120.251
88.9732
113.204
70.2791
106.378
92.622
75.3589
86.0441
121.028
85.2631
124.548
65.6836
90.1914
75.0379
91.6087
94.0396
94.0939
111.409
118.189
95.5192
118.273
84.3202
86.6171
116.934
83.4606
78.1623
107.705
91.6266
103.814
84.9953
118.424
125.415
112.557
93.6525
89.0065
77.047
107.868
90.2851
82.8834
102.44
89.7562
75.3645
101.225
85.8095
108.713
112.309
109.814
90.237
86.9938
103.802
89.1509
65.7891
108.06
90.5076
108.745
90.814
91.4511
72.5259
87.4934
72.2721
80.0931
74.3169
118.552
82.5577
107.555
123.982
84.7674
81.2259
115.459
83.5789
67.6585
125.509
114.038
126.143
108.349
89.7362
93.323
125.519
105.643
123.59
83.4994
87.1671
76.0231
92.8057
89.2542
91.1851
85.272
119.494
86.2858
118.664
75.1543
70.2768
110.779
119.245
119.885
80.2387
120.359
106.041
117.965
120.155
94.992
89.4346
119.102
97.7921
121.112
118.178
119.565
93.3135
120.336
98.2205
125.694
118.136
90.8248
83.8472
125.524
125.645
121.759
120.399
85.3625
114.665
123.108
94.2522
124.668
119.448
73.907
123.024
67.5188
69.382
83.3753
69.8629
65.4897
92.7844
83.93
87.2798
96.1499
119.092
126.103
88.8104
116.239
89.6426
87.5405
87.6043
113.332
98.0324
88.6955
72.6624
120.334
89.109
105.179
117.917
80.1366
119.156
108.903
90.782
118.718
90.0496
87.4237
121.431
93.9905
68.03
71.863
92.5399
101.012
80.6382
80.5632
82.605
117.131
118.185
121.639
117.669
120.924
120.768
112.114
118.723
101.674
77.4475
120.528
109.473
72.6501
119.259
79.1478
102.147
74.2405
73.3599
74.056
84.0919
67.965
90.5956
85.3622
97.267
95.0975
90.4938
86.069
103.677
138.925
95.1151
108.464
118.375
121.574
112.244
109.951
108.539
75.6664
76.8953
84.9364
94.0091
89.7885
89.7839
100.799
92.1974
118.319
119.948
119.838
)
;

boundaryField
{
    frontAndBack
    {
        type            empty;
    }
    wallOuter
    {
        type            zeroGradient;
    }
    inlet
    {
        type            zeroGradient;
    }
    outlet
    {
        type            fixedValue;
        value           nonuniform 0();
    }
    wallInner
    {
        type            zeroGradient;
    }
    procBoundary1to0
    {
        type            processor;
        value           nonuniform List<scalar> 
29
(
92.2667
92.2667
84.8819
85.6343
67.0875
67.968
110.592
83.2636
84.7807
85.4362
84.2402
67.968
84.8819
92.4434
111.345
111.746
67.0875
69.5182
85.6343
92.4522
111.9
111.918
75.8607
110.489
110.489
75.8607
112.628
110.708
112.628
)
;
    }
    procBoundary1to2
    {
        type            processor;
        value           uniform 91.9456;
    }
    procBoundary1to3
    {
        type            processor;
        value           nonuniform List<scalar> 
48
(
82.8835
85.3594
85.355
85.355
92.9571
86.731
86.731
91.3582
82.7701
89.4236
88.9137
89.4236
89.7513
85.6552
89.2738
89.7513
89.8447
89.8447
89.537
89.537
75.7423
77.1977
88.7042
87.9275
87.9275
86.8443
81.8498
81.8498
88.9518
90.5671
89.1487
88.9518
91.3582
83.5506
87.4644
90.5671
85.9731
88.9137
82.7549
92.376
80.0735
83.8217
83.5506
87.4644
90.9504
92.4002
92.6915
80.0735
)
;
    }
}


// ************************************************************************* //
