/*--------------------------------*- C++ -*----------------------------------*\
| =========                 |                                                 |
| \\      /  F ield         | OpenFOAM: The Open Source CFD Toolbox           |
|  \\    /   O peration     | Version:  v1912                                 |
|   \\  /    A nd           | Website:  www.openfoam.com                      |
|    \\/     M anipulation  |                                                 |
\*---------------------------------------------------------------------------*/
FoamFile
{
    version     2.0;
    format      ascii;
    class       surfaceScalarField;
    location    "0.21";
    object      phi;
}
// * * * * * * * * * * * * * * * * * * * * * * * * * * * * * * * * * * * * * //

dimensions      [0 3 -1 0 0 0 0];
oriented        oriented;


internalField   nonuniform List<scalar> 
2776
(
0.000992334
0.000273629
-0.00102557
-0.000240394
-0.000945408
0.00101875
0.000353982
-0.000427326
0.000181051
-7.69854e-05
-7.69036e-05
-2.71621e-05
-5.18908e-05
0.000178863
0.000395523
-0.000522495
-0.000119149
-0.000133566
0.00019488
5.78346e-05
-0.000252377
-0.000365951
0.000462615
0.000155713
0.0001498
-0.000139165
-8.00032e-05
6.23977e-05
6.66216e-05
-4.90161e-05
0.0010286
0.000904965
-0.00090837
-0.00102519
-0.000678601
0.000422352
-8.54872e-05
0.000341736
-0.000550046
-0.00145057
0.000774207
0.00122641
0.000265639
5.81664e-05
-0.000318807
-4.99792e-06
0.000899531
0.000117236
-0.00138844
0.00037167
-8.61001e-05
2.79867e-05
-6.10359e-05
4.28635e-05
-0.000196404
-9.88369e-05
0.000866977
-0.000347068
-0.00106996
-4.50543e-05
-0.000405838
0.000179443
0.000271449
2.79413e-05
-0.000572347
0.000544406
0.000503838
-0.000121423
5.9886e-05
-0.000442302
0.00052935
-2.66204e-05
3.25556e-05
-0.000535285
-0.00082144
5.48132e-05
-4.39816e-05
0.000810608
-1.20022e-05
0.00021715
-0.000292567
8.74198e-05
0.000573125
4.90584e-06
-1.23942e-05
-0.000565636
0.00046708
3.89215e-05
-7.73253e-06
-0.000498269
0.000313802
-0.000386959
-0.00119511
0.00126827
-1.33943e-05
-5.64862e-06
1.37787e-05
5.26423e-06
-0.000178233
9.89588e-05
0.000212901
0.000735899
-0.000866064
-8.27358e-05
0.000172638
-0.000184819
0.000237834
-0.000225653
-0.000358685
0.000411967
0.000617953
-0.000671236
0.000817708
-0.00115894
-0.000147141
0.000488373
0.000136499
-1.53808e-05
1.06741e-05
-0.000131793
-0.000258262
0.000432233
4.23172e-05
-0.000216289
-0.000362653
0.000398629
-5.77414e-05
2.17653e-05
4.29641e-05
8.65263e-06
0.000397745
0.000164515
0.000201571
-0.000193448
-7.77029e-05
0.000224584
-0.000441323
-0.000125058
0.00113961
-0.000251672
-0.000887942
-8.18871e-05
-0.000237279
0.000319166
6.99381e-06
-0.000516583
0.000509589
-0.000567927
0.000608467
-4.05401e-05
-0.000568366
0.000579929
-1.15625e-05
0.000521686
-2.23987e-07
-0.000521462
0.000344752
1.70105e-05
-0.000361762
-0.000428664
0.000191097
0.00106726
3.3625e-05
9.3211e-05
-5.93941e-06
-8.72715e-05
1.19118e-05
6.28504e-05
-7.47621e-05
-0.000359299
0.000348352
1.0947e-05
-0.000341101
0.000256241
8.48603e-05
-0.000238845
-0.000706564
-0.000184994
-0.000180957
-6.05783e-05
-7.29873e-05
-0.000220342
-3.79197e-05
-0.00111012
0.00142392
-0.000685384
0.000240137
0.000445247
-0.00113659
-0.000313973
0.000286325
-0.000489633
0.000203308
-0.000689834
1.12322e-05
2.50822e-05
-6.00154e-05
7.21964e-05
-3.72632e-05
0.00031494
-0.00024811
-5.9836e-05
0.000240209
-0.000151095
-0.000171001
-0.000216978
2.74751e-05
0.000691214
-0.000501712
0.000847671
-0.000743832
-0.000168455
6.46166e-05
-6.25e-05
6.81974e-05
-4.46041e-05
3.89067e-05
0.000352079
-0.000132762
4.9413e-06
-0.000224258
-0.000121261
-0.000119044
-0.000532088
0.000897506
-0.00090126
7.3036e-05
-6.92821e-05
-5.65423e-05
-2.65089e-05
-0.000103605
0.000186656
0.000223445
-0.000184606
-7.35524e-05
3.47134e-05
3.82089e-05
-0.000523563
0.000485354
2.40363e-05
-0.000253693
0.000229657
0.00107596
-0.000458797
-0.000823381
0.000206217
-3.63796e-05
4.23474e-05
1.91144e-05
-0.000659984
-7.74047e-05
0.00032234
0.000415049
-5.02364e-05
0.000353304
1.18728e-05
-0.000107399
0.000305012
4.2596e-05
-0.00063164
0.000480314
0.000151326
0.000105209
-0.000413521
0.000365894
-5.75827e-05
-0.000794703
-8.27532e-05
0.000136578
0.000740878
-0.000519189
0.000702923
0.000590473
4.35854e-05
-5.26523e-05
-3.98589e-05
4.89257e-05
-0.000364221
-7.16876e-05
0.000334104
0.000101804
-0.000798645
4.30444e-05
0.000788259
-3.26582e-05
-3.87575e-05
0.000664232
-0.000646095
2.06197e-05
-0.000368402
2.33931e-05
-1.76446e-05
4.01342e-05
-1.60656e-05
0.000351552
-0.00037562
0.000772587
-0.000427676
-1.42573e-06
0.000105385
8.93429e-05
-0.000193302
-9.25266e-06
-1.66066e-05
1.24649e-05
-0.000238119
4.10657e-05
1.88199e-05
-5.30653e-05
-0.000215642
0.000216816
0.000189602
-0.000427594
0.000644688
-0.000406695
6.32374e-05
7.56689e-05
-7.65086e-05
-3.9291e-05
0.000844848
0.000173904
-6.93338e-05
-8.15203e-05
0.00016072
3.41603e-05
0.000121514
4.09422e-05
0.000215299
-6.02982e-05
0.000153509
-3.11547e-05
4.30664e-05
-0.000542033
-2.63339e-05
6.78224e-06
5.98394e-05
-0.000122144
-6.65177e-05
0.000505751
0.000720656
0.00030695
-4.61944e-05
-4.9744e-05
3.5923e-05
0.00055341
-0.000584072
2.65538e-05
4.10767e-06
9.49127e-05
0.00076219
-0.000583474
0.000161121
0.000261232
3.45476e-05
-0.000117442
6.93357e-05
1.35585e-05
0.000437816
-6.74682e-05
4.85412e-06
-0.000256234
0.000517018
-1.463e-05
0.000201073
-3.66428e-05
0.000100749
8.04089e-05
-0.000201808
-0.00076982
0.000575777
0.000372906
-8.77366e-05
-5.14001e-05
5.26035e-05
8.65332e-05
4.81975e-06
-0.000110049
0.000118769
-1.35392e-05
-3.94938e-05
0.00056118
1.13523e-05
0.000333399
7.21374e-05
-8.50943e-05
-0.000703025
0.000178898
0.000627023
-0.000102896
-0.000286505
0.000775729
7.09016e-05
-0.000560125
-0.000201083
0.000584537
2.56785e-05
-0.000409132
-6.70444e-05
2.96799e-05
0.000101937
-6.45722e-05
8.58387e-05
0.000525495
0.000103651
0.000387465
-4.63166e-05
-3.91813e-05
3.00495e-05
5.54484e-05
0.000349037
2.5108e-05
0.000161267
3.35269e-05
-0.000131762
7.29339e-05
-6.96371e-05
0.000865669
-7.00335e-06
-0.000789029
0.000708953
4.09442e-05
-1.23484e-05
-0.000737549
0.000526773
-4.36374e-05
3.66223e-05
-0.000519758
0.000200992
-2.23056e-05
-9.71289e-05
-8.15571e-05
-0.000618427
-9.17451e-05
5.8297e-07
0.000709589
0.000147212
7.68067e-06
-1.83933e-05
8.32982e-05
-4.74371e-05
-4.88685e-07
-3.53724e-05
0.000148342
-0.00012322
3.90088e-05
-6.41312e-05
0.000191732
-0.000171488
-2.16695e-05
1.02918e-05
1.50031e-05
0.000292098
-0.000510324
0.000572209
-0.000839037
-9.30656e-05
0.000229077
-4.37531e-05
4.75663e-05
5.94241e-05
-0.000212042
-1.64908e-05
-7.70946e-05
0.000305628
0.000207934
-3.13245e-05
0.0002058
0.000627896
-8.81958e-05
-0.0007455
-0.000158697
-0.000201787
-7.91731e-06
2.61009e-06
7.89272e-05
9.00122e-06
-9.05385e-05
-0.000760188
0.000242059
0.000497286
2.08427e-05
-1.39415e-05
-1.14495e-05
0.000172603
-0.000645648
0.000191353
0.000559504
-0.000317405
0.000278647
0.000658257
-0.000855854
-0.00022684
0.000424437
-0.000105211
0.000177158
-0.00032391
0.000251963
1.96675e-07
-0.000341238
0.00065004
-0.000689023
0.000142634
0.000593217
-0.000538276
3.08979e-05
0.00081938
-0.000664618
-0.000200373
4.56101e-05
7.17609e-05
0.00160009
-0.00128137
-0.000390483
0.000712158
-0.000999194
0.000499937
-2.86149e-05
5.52821e-05
6.80305e-05
-9.46977e-05
0.000217193
1.259e-05
0.00011857
-3.71546e-05
9.56242e-05
0.000384819
-0.000483715
9.88956e-05
-0.000410788
0.000294836
-0.00129883
0.00141479
-0.000434049
-2.1108e-05
0.000598541
-0.000143384
0.000225375
-0.000190605
-0.000393455
-4.34439e-05
1.0253e-05
-1.30035e-05
0.000132243
-2.88897e-05
0.000120092
-0.00135283
0.00119009
-0.000254018
0.000416764
0.000464901
-0.000378602
-0.000127224
4.09254e-05
0.000132711
-0.000660542
0.000666075
-0.000138243
-0.000221534
1.47337e-05
0.000137189
6.96111e-05
-2.91701e-05
1.3163e-06
0.000383591
-0.000355737
0.000681759
3.82345e-05
-5.57612e-05
-0.000787485
6.93748e-05
-8.05348e-05
-0.000372668
-0.000168681
0.000177128
-0.0010192
-0.000176718
0.000294661
-0.000197298
3.52763e-05
-0.000469618
0.000821947
-0.000197585
-0.000693999
5.98484e-06
-6.17001e-06
7.23816e-05
-0.000114278
-3.65884e-05
9.78014e-05
0.00037019
0.000412938
-0.000671541
-0.000111587
0.00011593
0.000159466
-0.00103558
4.72699e-05
-8.97167e-06
-8.17421e-05
-3.00255e-05
3.51659e-06
-0.000509359
0.000402831
0.000642379
-0.000535851
-0.000292802
6.92362e-06
9.24697e-05
0.000193409
-0.000779085
0.000530848
-6.38892e-05
-3.17198e-05
-1.86693e-05
0.000141641
-6.03432e-05
-0.000499355
0.000443496
0.000361069
-0.00030521
-0.000543011
0.000559338
2.03011e-05
-3.66278e-05
-0.000167854
-2.85435e-05
1.1791e-05
-0.000265771
-0.000525861
7.37137e-05
0.000865086
0.000481384
0.000783041
-0.000410695
-0.00085373
-3.60913e-05
4.23094e-05
5.44306e-05
-6.06487e-05
1.53828e-05
0.000518311
-4.34372e-06
3.57361e-05
0.000545157
-7.70544e-05
-5.88513e-05
3.53365e-05
-0.000790588
0.000814103
6.59671e-06
5.85441e-06
-0.000298304
0.000285853
0.000623729
-0.000246069
0.000334499
-1.11049e-05
-0.00081954
9.20448e-06
0.000125206
-0.000712392
0.000881706
-0.00029452
0.000705996
0.000132309
-0.000156546
-0.000788865
0.000126586
-0.000282434
-0.000343275
0.00025304
-0.000124372
0.000619782
0.00015463
-0.000135744
0.000518649
0.000210312
-5.40548e-05
5.50686e-05
-0.000118455
3.53712e-05
-8.95059e-05
8.54579e-05
-8.7932e-05
0.000169326
-0.000371161
0.000265885
-9.78197e-05
9.23977e-05
4.15289e-05
-3.61069e-05
3.49113e-05
-2.16595e-07
2.00912e-05
-5.47859e-05
-4.60002e-05
3.13799e-05
-9.7806e-05
2.51147e-06
4.12397e-05
6.60853e-05
-0.00011411
-2.55278e-05
-4.47816e-05
0.000318381
-0.000556141
0.000282542
0.000128038
-0.000500855
-0.000298725
-5.07543e-05
0.000417036
-0.000388277
2.19957e-05
0.000162473
0.000177155
-0.000157065
-0.000182564
3.79905e-05
-0.000269048
5.32956e-05
-9.9114e-05
0.000120217
-7.43983e-05
-4.45364e-05
0.000275839
0.00014226
-0.000143358
-0.00027474
7.98552e-05
-4.66896e-05
-0.000446686
0.000459302
-0.000267928
-0.000383119
7.42719e-05
-1.13201e-05
-5.36437e-05
-9.30812e-06
7.41632e-05
-0.000639956
-1.43967e-05
1.06375e-05
-0.000118128
0.000121888
-0.000262134
0.000927307
-0.00030467
0.000255242
-1.58536e-05
6.5282e-05
-0.000299751
0.000737945
0.000692675
0.000222049
-0.000208728
0.000868677
-0.000415622
0.000898912
-0.000225979
0.000238103
0.000660768
-0.000672892
-2.15375e-05
0.000116631
-0.000131184
0.000107392
-2.14839e-05
-7.86876e-05
0.000479743
-0.000799238
-0.000976448
0.00121728
0.00055841
-0.000707266
0.000742603
-0.000316882
0.000449191
3.97396e-05
-3.38852e-05
-1.18814e-05
0.000401633
-1.37153e-05
0.000276809
-2.3392e-05
-0.000120731
0.000451922
-0.000459205
-0.000522478
0.000529761
-4.34155e-06
-0.000379957
0.00042869
-4.87324e-05
-4.07211e-05
7.58158e-05
-0.000713264
-0.000138529
-0.00131793
0.000657223
0.000206992
-0.000524397
-0.000668651
-3.86148e-05
3.19026e-05
7.83702e-06
6.116e-05
3.04363e-05
-4.92869e-05
1.08756e-05
5.44848e-05
-6.02942e-05
0.000108489
6.72888e-06
-0.000751999
0.000283156
-0.000195847
0.00066469
-0.000708556
0.000667667
0.000179027
-0.000220054
-8.21927e-05
3.06719e-05
2.61517e-05
8.50164e-06
-6.53252e-05
-0.000597505
0.000158007
0.000355146
8.43525e-05
0.000355324
-0.000216137
0.00045823
-0.000597417
-0.00057897
0.000526039
7.6116e-05
0.000126659
-0.000336044
0.000133269
-0.000122719
0.00010312
0.000266214
-0.000246615
0.000363387
-0.000443411
3.9302e-05
-8.97917e-07
0.000347795
-0.000393483
9.85619e-05
-0.000194712
0.000941811
-0.000849712
-0.000502794
0.000553784
0.000385947
-0.000760833
-0.000865574
-0.000159995
-0.000840263
8.68314e-05
-0.000851915
0.000455241
3.9785e-05
-0.000208466
0.000625607
-0.000556232
0.000279614
-1.66912e-05
-0.000251975
-1.39204e-05
-2.91133e-05
1.96417e-05
-0.000105456
4.28308e-05
9.68823e-05
-3.42568e-05
-0.000121636
-8.89488e-05
0.000195717
1.48687e-05
4.48585e-05
-7.37518e-06
-3.74833e-05
-0.000570419
0.00142986
-0.00112157
-0.000145277
5.64513e-05
-0.000161591
0.000426555
-0.000918296
-0.0004508
9.48797e-05
0.000268703
-0.000249854
-0.000113728
-0.000235144
0.000265986
0.000182559
-0.000213401
-0.000908515
0.000943798
0.000396421
-0.000431703
-0.000553889
0.000478811
-0.000885635
0.000960713
-0.00111185
0.000539814
0.000763389
-0.000210879
0.000443022
-0.000347367
0.000766066
0.000166783
0.000306464
-0.000194847
-0.0002784
8.95825e-05
-0.000459418
3.45381e-05
0.000335297
0.000630834
-5.35552e-05
2.12622e-05
-1.78244e-05
2.33334e-05
6.0455e-05
-6.5964e-05
0.000693471
-2.70817e-05
0.00032732
-0.000993709
-2.21875e-05
3.5831e-05
-0.000248787
-7.60077e-05
-9.27475e-05
0.000211619
-5.56941e-05
5.01754e-05
-8.40169e-06
-0.000260404
-4.73693e-05
0.00012654
0.000181233
-0.000996034
0.000470531
0.00102674
-0.000501237
0.000169484
-0.000447952
0.000580543
0.00056088
-4.28699e-05
5.91451e-05
-0.000125355
0.000288548
0.000409569
-0.000572761
5.15833e-05
-0.000636207
0.000612565
-0.000469845
-0.000155146
-9.12467e-05
0.000169407
0.000809182
-0.000902412
0.000376385
-0.000223031
0.000288242
0.000386711
0.00123248
-0.000572467
0.000283072
-0.000943084
0.00042651
-7.74228e-05
-0.000233157
0.000102306
1.21495e-05
-3.31057e-05
-0.00046197
0.000105511
0.000389564
-0.000196221
-8.16928e-05
0.000193096
8.48176e-05
-0.000160529
9.93448e-05
0.000112327
-5.11427e-05
-0.000408325
-7.65012e-06
-0.000437755
0.000255528
-0.000500099
0.000286968
-0.00044689
0.000517572
-0.000357651
0.000560534
0.0011156
-7.60397e-05
-5.04655e-06
4.9905e-05
-0.000599389
-1.67352e-05
0.000810339
-0.000692751
0.000392415
-0.000510003
-0.000156441
-0.000833924
-2.8838e-05
0.000209364
0.000516985
-0.000542177
-0.00072249
0.00157373
0.000381242
-9.62141e-05
-0.00114951
0.00129396
-4.82329e-05
-3.14907e-05
0.000127988
1.60533e-05
-0.000120708
0.00013256
-0.000105387
9.64927e-05
0.00017341
-8.53749e-05
-0.000487092
0.00135527
-0.000559299
-0.00151846
0.000374856
-0.000473033
2.45414e-05
7.19564e-05
0.000363394
-0.000101012
8.25563e-05
-7.4708e-05
0.000656841
-0.000158643
-0.000568813
0.000676818
5.06389e-05
0.000510192
-0.000433817
-6.51662e-06
0.000373904
-1.53087e-05
0.000689209
-0.000635864
-0.00052244
0.000469094
0.000690294
-0.000878899
0.000650186
-0.000461582
-0.000139047
5.36719e-05
0.000238462
0.000653276
-0.000514215
0.000350185
0.00110783
0.000326683
-3.79962e-05
0.000501911
-0.000281348
-0.000220562
0.000603684
-0.000879437
-0.000291053
0.000142013
-6.10608e-06
-0.000258224
-0.000337535
0.000400887
0.000194872
9.31319e-05
0.000289455
-0.000324421
0.000721068
-0.000219157
0.000414226
0.000119519
-0.000344142
0.000519932
-0.000730639
0.000359235
-0.000553258
0.000540616
-0.000346593
-0.000643806
0.000333389
0.000608373
-0.000297957
0.000399661
-0.000684232
0.000783434
0.00044518
-0.000828953
-0.000409069
0.000750875
0.000472457
-0.000814264
0.000707755
0.000257524
0.00026399
3.41184e-05
0.000138331
8.50744e-05
0.000116
0.000100677
9.38049e-05
5.80263e-05
0.000253126
-0.000409355
-0.000625299
0.000781527
-0.000625661
-0.000466416
0.00061943
0.000472647
-5.07712e-05
-0.000514337
0.000477065
8.8043e-05
-0.000508447
-0.000600138
0.000482924
-0.000202584
-3.56575e-05
0.000267478
-2.92367e-05
2.05471e-05
-5.51694e-05
2.92139e-05
5.4085e-06
9.35383e-05
0.000103387
-0.00027589
0.000996958
4.15733e-06
-0.000166271
-4.0471e-05
1.14313e-05
9.11583e-06
-0.000172483
0.000189547
7.64751e-05
0.000186062
-9.23313e-05
-0.000542093
0.000150689
-0.000586304
0.000977709
-5.72423e-05
0.000184418
-0.00115467
-0.000262283
0.0011291
0.000287849
-0.000305977
0.000160911
-8.82161e-05
0.000233283
0.00064473
-0.000279011
-0.000907813
1.37663e-05
0.000254092
-0.000644125
0.00032434
0.000473052
-0.000153267
0.000399006
-0.000399448
-0.000274732
0.000275174
4.92122e-05
6.01645e-06
-4.65565e-05
-8.67222e-06
-2.27771e-05
0.000818196
-0.000613954
0.000604943
-0.000186728
0.000279757
-0.000354062
-0.000416651
0.000378097
0.000392615
0.000156509
-4.47621e-05
0.000173847
-7.45798e-05
9.33264e-05
-0.000193296
8.1155e-05
-0.00010795
0.000420944
-2.49921e-05
0.000227255
-0.000623207
0.000169091
-0.000154589
-0.00041395
-4.97577e-05
3.21208e-05
0.000272949
-0.000257844
0.00040584
-0.000803622
0.000177467
0.000152507
-5.70252e-05
0.000194708
0.00029519
-7.7309e-05
4.50611e-05
0.000293025
5.61977e-06
1.16311e-05
-0.000170156
1.93593e-05
-1.15162e-06
-0.000250192
-3.82133e-05
0.000234329
0.000115483
-0.00030726
-4.25519e-05
7.20001e-05
-0.000103727
-2.34427e-05
-3.65374e-05
-0.000102509
0.00109554
5.90154e-05
-0.00115456
0.000197132
-0.000202021
0.000296986
4.28415e-05
-3.14103e-05
-0.000142431
-2.96983e-06
7.91296e-05
-0.000112625
3.3495e-05
6.68234e-05
-9.32595e-05
0.000205952
0.00014341
-9.62948e-05
-0.000497129
0.000750256
-5.13809e-05
0.000268173
-0.000310052
0.000541698
-0.000393342
0.000164489
0.00012684
-9.41972e-05
-0.000450196
6.03326e-05
0.000484776
0.0001809
-0.000198029
0.00114683
0.000253094
-0.00032441
0.000235806
-0.000380625
-0.000160754
9.11823e-05
0.000221735
-0.000317316
5.97129e-05
3.58686e-05
-0.00011939
0.000385256
0.00011722
-0.000383086
-0.000146536
0.000180137
-1.86151e-05
-0.000207031
0.000225646
0.00144126
-5.54647e-05
-0.000602149
-0.00053234
0.000725134
-0.000232852
-0.000264278
1.20013e-05
2.15431e-05
-2.29134e-05
-1.0631e-05
6.9588e-06
-5.59706e-07
-5.90514e-05
-0.000251467
0.000231001
-9.72975e-05
0.000384321
-0.000241326
-0.000451844
-0.000437733
-1.60306e-07
1.91204e-05
0.000223364
-0.000146948
9.02858e-05
0.000210123
-0.000207277
-0.000126011
9.8994e-05
-0.000370272
0.000448279
0.000672868
-0.000290736
-0.000412574
0.000166717
-0.000207715
-0.000227409
0.000268406
0.000610584
-0.000273101
-0.00033105
-2.08134e-05
4.21962e-05
0.000139074
-0.000146608
-9.74013e-05
7.20463e-05
8.1157e-05
-1.74342e-06
-9.58163e-05
-2.84516e-05
-0.00019251
-8.90716e-05
-0.000353705
-7.87485e-05
-0.000435028
3.5794e-05
0.000477983
0.000282814
-5.99363e-05
-0.00023628
1.34019e-05
0.000129592
0.000335367
-0.000241596
-0.000223364
0.000115464
0.0011415
0.000165594
-0.000181998
-6.86839e-05
0.000335098
1.64004e-05
-0.000237653
0.000307309
0.00113494
0.000234501
0.0001402
-0.000102723
-3.92209e-05
-0.00031534
-0.000676813
-2.84731e-05
5.59699e-06
0.000349559
-9.65622e-05
-0.000181409
4.03189e-05
0.000541934
-5.21038e-05
0.00015238
-0.000690337
0.000633284
0.000505332
-0.000491865
-0.000129894
-0.000496464
-0.0004416
0.000471648
0.000374459
0.000417761
-0.000307052
-0.000485168
-0.000691237
0.000473357
0.000693335
-0.000528783
5.97466e-05
0.000460907
8.12929e-06
-0.00099535
0.000626266
-0.000467384
-0.000776774
0.000248809
-8.52623e-05
3.31821e-05
0.000138353
-3.2461e-05
-0.000468224
-0.00052891
-0.000172906
0.000543173
-0.000845124
0.000965655
0.00039125
7.51635e-05
-0.000197589
-6.35264e-06
0.000365356
-0.000399661
0.000408764
0.000292387
-0.000108692
-0.00021592
3.22261e-05
0.000374118
-0.000135493
-4.46514e-05
3.51762e-05
-0.00099746
0.000901246
0.000427622
0.000226174
-0.000236034
9.72638e-05
-0.000545828
-0.000339097
0.00047235
0.000718232
0.000730979
0.000206828
2.74388e-05
-0.000965246
0.00014267
7.97631e-05
0.000474315
-0.000539287
1.01889e-05
-0.000369552
0.000151649
-1.18718e-05
0.000441479
-0.000414516
-1.50915e-05
-0.00083898
0.000718347
6.15518e-05
-0.000122462
0.000355842
0.000479055
-0.000224314
0.000191092
-0.000408312
5.80152e-05
-0.000100108
5.55532e-06
0.000482883
0.000384778
0.000145236
-0.000226282
0.000160175
0.00104408
5.14626e-05
-8.61377e-06
4.01628e-05
-0.000500098
-0.000504814
-0.000442035
0.000413684
-0.000471747
-0.000929729
0.000597746
-0.000689425
-0.000567532
-0.000185576
0.000169171
-0.000631068
0.00092703
9.50915e-05
3.04884e-05
0.000107048
-0.000575488
5.60762e-05
-0.000519775
0.000548635
-0.000944057
0.000496886
-0.000583842
-0.000991831
0.000680935
-0.000618834
4.05384e-05
-5.09815e-05
0.000651115
-0.000640672
0.000275306
0.000594242
-6.65008e-05
-0.00072073
0.000192988
8.52736e-05
-0.000187983
-0.000828132
0.000583324
-0.000552001
4.66183e-05
-0.000195524
0.000396006
8.94798e-05
0.000447332
0.000394759
-0.000596159
-5.72703e-06
0.000426299
-2.68173e-06
-7.1896e-05
-0.000559097
-0.000691242
0.00126578
0.000383928
-0.00036351
0.00047629
0.000347658
0.000201764
-0.000273387
-0.000276036
-0.000150168
0.000225155
-0.000335392
-5.75959e-05
3.58702e-05
0.000498016
-0.000513871
0.000197436
-0.000410865
0.000477158
-0.000263729
0.00134524
-0.00108407
0.000595466
-0.000856644
0.000458748
0.000416943
-0.000327509
-0.000427577
0.0010527
-0.000818863
-0.000444574
0.000210735
0.000416892
-0.000217019
-0.000254005
0.000118234
-0.000333742
-0.000506505
-6.70555e-05
-0.000510018
0.000379318
0.000481324
-0.000350624
-0.00101947
-0.000211998
0.000461647
0.000824276
8.97025e-05
0.000212386
-0.00112636
0.000425231
0.000455181
0.000383186
8.87851e-05
-0.00025056
0.000330404
-0.000929832
0.000583521
-9.32722e-06
-0.000184951
0.00010634
8.79383e-05
-0.000388546
0.000738465
-0.000739413
0.000774551
-0.000439303
0.000495008
5.52926e-05
0.00112846
-0.00112473
-0.000323669
-0.000304215
0.000901595
-0.000897284
-0.000335021
0.00053825
-0.000439982
0.000984696
-0.00101456
0.000936761
-0.000934755
-0.000443156
-0.000101336
4.36376e-05
-0.000137777
2.09407e-05
0.000141377
-1.93195e-06
0.000237257
5.70619e-05
2.39013e-05
0.000155593
-0.000132326
-8.9185e-05
7.4903e-05
-0.000828217
-0.000468121
0.000625119
-0.000277855
-0.000247411
4.95547e-08
0.000678133
-0.000819711
0.000182158
-0.000194324
0.000837383
0.000797634
-7.33226e-05
-0.000170527
-0.000228113
-0.000910901
-0.00020528
-9.79335e-05
9.66332e-05
-0.000898885
9.566e-06
1.5274e-05
0.000878377
-0.000903217
-0.000466232
6.95047e-05
6.26093e-05
-0.000132114
-0.00013105
-4.35476e-05
-7.98425e-05
8.2463e-05
-0.000372758
-0.000169678
-0.00016848
-0.000568828
-0.000240053
0.000415427
-0.000415459
-0.000378282
0.000816118
-0.00077878
-0.000809603
-0.000777275
0.00087905
0.000707828
6.38282e-05
-5.08241e-05
0.000888591
0.000130735
0.000251597
0.000203904
-0.000284567
0.000657347
-0.000145337
-0.00108829
0.00111977
0.000113858
-0.0011291
2.6205e-05
7.21815e-05
-0.000147195
-0.000525236
-0.000659468
0.00040793
-9.8482e-05
-0.000487152
-0.000185986
0.000500232
-0.000642294
-0.000312451
-0.00105483
-0.0005013
0.000498971
0.000169113
-2.8986e-05
-4.7704e-05
8.22871e-05
-0.00060263
-0.000750822
0.000320871
-7.53594e-05
-2.64565e-05
0.000101816
-2.43537e-05
-4.64957e-05
5.54686e-05
0.00028152
-0.00129196
-5.49133e-05
0.00106535
-0.000404855
6.73986e-06
-1.08398e-05
-7.42053e-06
0.000560484
-0.000542224
-5.80058e-05
-1.17773e-05
-0.000958943
-0.000138217
2.73008e-05
-7.04935e-05
-5.95397e-05
-3.16649e-05
3.08614e-05
0.000226177
-0.000213091
0.000100603
0.00033576
0.000284926
9.38323e-06
-0.000113076
0.0001093
-6.59815e-05
-0.000671265
0.000139742
0.000140791
-0.000238443
0.000117743
6.0323e-05
-8.75337e-05
6.87396e-05
0.000145222
-0.00016987
-3.43506e-06
9.16365e-06
-1.07751e-05
0.00039086
-0.000878131
0.000578483
-9.1212e-05
0.000870549
-0.000105802
9.35603e-05
4.35605e-05
-3.13193e-05
-0.000139397
3.64013e-05
-3.61988e-05
5.44382e-05
-7.36374e-06
-4.87982e-05
2.43109e-05
0.00016284
-1.39624e-05
-7.61441e-07
1.47238e-05
-3.018e-05
2.47136e-05
-7.64725e-05
5.75804e-05
1.88921e-05
-5.82733e-05
3.48087e-05
2.34646e-05
-0.000214545
-0.000332487
-2.08932e-05
1.42891e-05
6.6041e-06
-2.68195e-05
-0.00111786
0.00118044
-0.000479506
-0.00160875
-3.64118e-05
2.24494e-05
-8.68882e-05
0.000464951
-1.0969e-06
0.000130388
-9.92632e-05
2.27908e-05
-8.22145e-06
0.000439782
-0.000586526
-0.000512724
2.11686e-05
1.39155e-05
1.58071e-05
-0.000398336
-0.000754017
-0.000372462
0.000323351
0.000232969
-6.02022e-05
-0.000114242
2.73541e-05
-0.000572275
0.000532332
5.61597e-05
-0.000525626
4.02251e-05
0.000536984
0.000712543
-0.000933429
0.000611507
-0.000127155
-7.03462e-05
0.000103808
0.000623885
0.000242979
-0.000219518
0.000705062
7.09396e-05
0.000627004
-0.000450668
-7.90726e-05
4.17126e-05
5.10425e-06
0.000121955
0.000137319
-0.000196781
-6.24924e-05
-0.000296337
-8.64689e-05
-0.00078813
-1.27502e-05
-0.000297221
-0.000287886
0.000327569
0.000257539
0.000143784
-0.000537234
-9.53915e-05
0.000259364
-0.000360259
-0.000361075
5.42349e-05
-4.32987e-06
6.29257e-05
0.000170895
-0.000163649
-0.000319749
0.000220507
9.81443e-05
-0.000150124
0.000163197
0.00010951
-0.000187046
0.000101847
6.22141e-05
-0.000348133
-0.000387809
0.000299613
0.00084445
0.000189467
-8.03615e-05
-9.60263e-06
-0.000646161
0.000403389
0.000181462
-0.00048748
0.000442596
-0.000603322
0.000209836
-0.000177687
0.000147438
-7.42173e-05
0.000104466
-0.000250948
-0.000225358
-0.000138046
-0.000167115
0.000143521
2.35942e-05
2.81595e-05
-1.0367e-05
-1.77925e-05
4.77334e-05
-8.62553e-05
1.15262e-05
-0.000218705
0.00091337
0.000358036
-8.73079e-06
0.000124041
0.000202332
-0.000140312
-0.000106497
0.000251445
0.000142991
-0.000428812
-0.00016926
0.000313505
0.00124001
-0.00118159
3.72059e-05
0.000106024
2.74347e-05
0.000131813
-0.000147564
0.000143911
0.000442984
8.58181e-06
9.6704e-07
0.000407487
-0.000286477
-0.000392409
-5.34767e-05
-0.000892396
-0.000582181
-0.000343829
-0.000165453
9.38441e-05
-0.000407698
0.000383295
0.000106076
-0.0002478
-0.000241572
3.52202e-05
-1.55019e-05
-2.12657e-05
-6.13833e-06
-9.07082e-05
-0.000393984
0.000185364
0.000502225
-9.04848e-06
8.28704e-06
-0.000201962
-0.0010914
0.000384467
0.000823591
-3.65814e-05
0.000112739
-4.49312e-05
-0.000302966
-0.000281986
0.00035867
-5.70029e-05
0.000262672
-0.000308331
0.000515359
-0.0002727
-8.72266e-05
2.98974e-05
-8.08873e-05
-8.41497e-05
0.000797427
0.000104156
-5.83344e-05
-0.000227691
-0.000284565
-0.000787818
0.00100324
-0.000731807
0.000412746
-0.000458215
6.7666e-05
0.0011669
-0.000142511
8.13214e-05
-3.00571e-05
-0.00123095
0.000826538
-0.00051388
-0.000244039
-4.08381e-05
3.50226e-05
5.86166e-05
1.31073e-05
-0.000171832
9.90435e-05
-0.000167852
-0.000185196
8.76911e-05
0.000128226
0.000283713
2.35042e-06
2.58091e-05
-0.000114484
0.00120355
-0.000167126
0.000133837
-0.000441285
1.31716e-06
-0.000908204
0.000655394
7.30949e-06
0.000113025
-2.68409e-05
0.000189103
-9.63347e-05
0.000217807
0.000135112
-1.59642e-05
5.65433e-05
6.44104e-05
0.000683811
9.71175e-05
-0.000273644
0.000366149
0.000214656
-0.000214125
-0.000197829
-0.000288704
0.000299233
0.000141386
0.00016371
6.66576e-05
-0.000255359
0.000604448
-0.000673279
-1.53191e-05
-0.00070825
-0.000528574
0.000449006
-3.11562e-05
5.0343e-05
0.000105069
-4.38451e-05
8.32079e-05
0.000356247
-0.000598926
0.0004635
0.000316231
-0.000354035
5.02386e-05
0.000220243
-0.00010589
0.000116856
-0.00016803
5.24064e-06
0.000106505
0.00100275
-0.000525004
1.06073e-06
0.000453948
0.000842119
0.000227021
-0.000398127
1.1878e-05
0.000427843
-0.0012265
-0.00029274
-0.00018318
0.000312265
-0.000230867
-0.000161075
-0.000608983
0.000531213
-9.67605e-05
7.35851e-06
6.75053e-07
-0.00094011
-0.000555524
-0.000734443
-0.000457244
0.000513999
-0.000597025
-0.000206438
0.000339898
0.000189414
-0.000322874
0.000267147
-0.000158336
-2.3435e-05
0.000262915
-0.000286169
-0.000167764
0.00042681
-0.000384401
0.000352059
-7.91405e-05
-0.000700595
0.000716945
-0.000921962
2.58985e-05
0.000387411
-0.000252155
0.000424381
0.000145101
-0.000463971
3.00439e-05
-5.51728e-07
-1.92392e-05
-0.000269471
-0.00106905
-0.000301374
-0.000443374
0.000376144
0.000266228
-1.7732e-05
2.278e-05
-7.99894e-05
5.74103e-06
-2.25121e-05
-1.70939e-05
-0.000187379
-6.44573e-06
-0.000458498
-0.00010026
-0.00023835
0.000253733
-0.000205795
0.000261426
-7.69291e-06
-0.000220925
0.000170957
4.99684e-05
-0.000166268
-3.95268e-05
4.68901e-06
-0.000776289
0.000765184
-0.000519815
0.000535957
-1.61427e-05
-0.000484079
-0.00073016
-4.61294e-05
0.000721203
0.000675592
4.56104e-05
-0.000656446
-0.000424193
0.00058063
-0.00053147
-4.91601e-05
-0.000353953
-7.02391e-05
-0.000285654
-6.82995e-05
0.000249031
-0.000242107
-3.66233e-05
0.000644364
3.12284e-05
0.000644024
3.39964e-07
0.00063702
1.30434e-06
0.000561672
-0.000380401
6.29184e-05
-8.6835e-06
-0.000348054
-0.000381786
0.000466111
-0.000291113
0.000149491
-0.000102815
0.000379303
-3.71408e-05
-8.4077e-05
-0.000693611
0.000403442
-2.79562e-05
8.28316e-05
0.000557689
-0.000333213
0.000426716
-0.000390723
0.000161735
0.000205597
0.000122698
2.08223e-05
-0.000852887
-0.000117869
0.00031512
4.72914e-05
-8.85113e-05
0.000123747
-0.000565198
-0.000244401
-0.00157139
0.000501564
0.000232331
-0.000158136
-0.000100528
0.000592089
0.000256047
-0.000346941
0.000207823
-0.00030652
0.00107778
-0.00128335
0.00013578
1.39952e-05
-0.000149775
0.00128182
3.35512e-05
7.35637e-05
0.000326317
-0.000243371
-9.69607e-05
4.17235e-05
0.000143175
0.000103289
-0.000182484
-8.8657e-05
-0.000150929
-0.000218047
-0.000298602
0.000172667
0.000510754
0.000259637
-0.000322368
-0.000135224
-7.93597e-05
-5.51688e-05
-0.000227688
0.000314733
-0.000236307
0.000228038
-0.000603503
-0.000817325
-0.000247694
-4.98976e-05
0.000316495
-0.000120538
0.000171903
-0.00036786
0.000259369
0.000225492
-0.000229619
0.000223872
-0.000344798
-9.17244e-05
0.000153882
-9.87461e-05
0.000109496
0.000181779
1.22253e-05
1.43836e-05
-0.000143857
0.000279193
0.000618186
-0.000952161
5.92429e-05
-0.000144748
0.000688618
0.000545659
-0.000230081
-0.000148161
-0.000403579
-0.000509353
0.00045725
-0.000191945
8.76482e-06
-0.00100289
0.000828284
-0.000172762
-0.000328382
0.000167086
-4.95821e-05
0.000206115
0.000449355
-0.000608253
7.34106e-05
0.000146506
-0.000145323
-8.80931e-05
8.42529e-05
-0.000887371
0.000133877
-7.17987e-05
7.93824e-05
0.000501698
8.04228e-05
0.000446297
0.000426027
-0.00028034
0.000146703
-9.60586e-05
-1.21682e-05
1.99511e-05
6.36058e-05
-6.90038e-06
-6.51071e-05
0.000732685
-4.61509e-05
-1.16317e-05
-0.000324101
-0.001381
0.00114226
0.000833759
-0.000579493
0.000748489
0.000274504
3.8108e-05
-6.4452e-05
0.000145069
-0.000206736
0.000246891
-4.4693e-05
2.55866e-05
7.56497e-05
0.000135157
-0.000178888
6.76319e-05
0.000133369
-0.000186173
-3.6381e-05
0.00077189
0.00054395
-0.0004818
-2.90266e-05
0.000236436
-0.000174423
-0.000350717
-0.000122777
0.000195404
-0.000312143
0.000477306
-0.000342575
-0.000136908
0.0003814
-0.000446495
0.000202002
5.75974e-05
-4.73226e-05
0.000150904
-8.4819e-05
-4.44258e-05