/*--------------------------------*- C++ -*----------------------------------*\
| =========                 |                                                 |
| \\      /  F ield         | OpenFOAM: The Open Source CFD Toolbox           |
|  \\    /   O peration     | Version:  v1912                                 |
|   \\  /    A nd           | Website:  www.openfoam.com                      |
|    \\/     M anipulation  |                                                 |
\*---------------------------------------------------------------------------*/
FoamFile
{
    version     2.0;
    format      ascii;
    class       volScalarField;
    location    "0.18";
    object      epsilon;
}
// * * * * * * * * * * * * * * * * * * * * * * * * * * * * * * * * * * * * * //

dimensions      [0 2 -3 0 0 0 0];


internalField   nonuniform List<scalar> 
5794
(
4.89988
1.78742
5.17406
2.20899
3.90418
1.61987
28.7198
5.30569
100.914
8.74135
56.573
0.944997
0.36955
0.912588
3.58048
0.943521
152.78
0.974818
3.71081
2.1347
73.4578
2.05952
5.25748
1.95638
1.33833
155.696
96.0209
2.59396
3.57305
6.50654
0.351161
7.09046
0.725464
1.48562
0.984401
3.67991
4.44689
1.9273
0.590156
19.1449
3.69958
5.36659
9.73106
5.81755
3.69817
0.517994
8.08116
0.298684
5.57525
46.8291
0.68797
36.4021
12.6407
3.14998
0.140667
3.0364
11.8579
1.59513
5.97983
332.017
59.5055
1.08665
0.323418
11.5212
1.36473
0.48605
13.3042
14.0341
1.4755
1.92465
37.3683
14.5755
65.9344
15.4892
1.28447
3.18417
3.0423
101.67
5.54817
0.363457
2.05743
1.91546
4.97641
1.7713
1.49513
3.44618
6.61675
22.8266
2.18186
3.40434
12.1069
3.22095
10.4343
21.9862
2.29151
17.7987
11.0409
6.62821
3.10102
66.2493
56.0712
3.04822
7.71179
1.55153
2.29299
7.18013
1.40379
1.42027
11.579
5.51806
0.41183
3.83598
63.9301
0.29752
2.1013
26.5066
3.07854
4.6195
53.5886
22.529
5.73419
4.36037
0.57849
3.03624
8.11697
80.0141
2.27955
1.64172
20.228
7.97817
1.20661
0.588824
6.533
87.6673
8.33549
4.02591
122.62
0.990918
0.351874
1.5253
19.1283
3.40677
7.80044
3.29911
0.730149
143.523
0.694777
49.5875
1.99708
3.5685
12.7407
2.44525
8.83513
1.16162
128.763
6.41983
0.793925
0.700506
25.181
1.77105
5.60952
0.571952
1.37322
1.44485
6.63366
5.89889
2.41206
0.824511
0.612015
5.79292
4.65193
3.73734
1.53495
1.91431
1.9244
7.04531
4.72131
0.641511
1.75928
81.6404
0.487701
14.8597
0.307785
0.441338
0.556116
79.5967
4.32717
0.771197
2.57154
2.7663
75.8688
8.37827
0.45575
0.333287
0.569462
1.55106
1.08663
0.832662
2.91903
7.16658
15.653
42.0281
0.29217
4.0887
7.74801
0.772851
1.03655
1.5236
2.71628
83.4353
4.42388
10.5825
4.49746
0.676484
1.42024
1.23502
5.177
4.86457
28.6886
54.3911
10.1397
0.486665
42.5865
4.29687
148.353
18.9009
4.55279
8.88172
2.4577
3.47738
1.58791
1.46451
1.32822
18.3344
1.48774
7.40919
5.33042
42.4707
0.555981
3.48657
1.86731
3.16415
54.9262
3.03307
1.49605
0.41125
3.95589
1.4651
18.8297
4.51125
5.58189
0.474846
145.565
0.486676
5.05484
5.65388
7.52326
18.3038
1.92346
8.81496
80.2097
5.32231
1.00929
0.238887
14.3693
0.536248
2.65439
79.785
6.12545
6.13971
7.8125
0.312387
3.87102
31.763
17.0613
3.43196
3.3126
21.5915
1.39556
0.436665
0.545027
15.7885
3.65537
4.45675
3.47633
7.81249
9.80262
4.61212
34.7697
7.27255
3.68114
1.38533
1.24358
3.23965
4.93172
109.412
2.02904
3.7886
1.46607
0.245224
2.62464
58.7466
1.84329
66.5206
2.48794
75.2354
1.23395
1.71179
14.6369
6.40066
0.426012
25.4692
93.2928
0.275174
9.80621
35.0876
1.28484
2.03935
7.50972
1.03822
15.5812
28.5157
3.60382
2.30077
0.718987
0.500686
12.7359
1.1401
0.43017
42.9022
65.2826
8.9991
0.509601
0.609862
6.45608
4.44801
3.59451
0.984148
2.20437
0.846426
2.33214
0.990771
85.0947
6.43899
4.2534
0.340486
0.510203
21.188
4.23189
2.55778
0.560925
104.922
0.425751
11.219
0.31432
53.9679
2.93463
28.0996
19.4172
2.08588
1.25807
1.38593
97.8448
24.2807
4.30194
1.67369
7.04169
0.807749
11.0744
0.425547
1.41479
0.278303
1.42636
2.26714
2.86596
6.73041
5.55527
12.1873
3.41953
0.469574
9.38565
1.548
12.4723
3.15729
0.686926
1.49415
27.9417
15.0772
5.87979
3.79193
1.2824
0.672165
2.1946
0.783468
1.17578
2.02015
1.51377
3.33386
7.04505
5.50487
1.7088
1.13538
24.6141
0.410467
1.89218
57.145
12.0104
1.39232
2.07769
21.8652
4.01217
3.45916
29.5014
5.26261
3.31084
8.38684
0.322509
2.18396
6.32353
11.117
3.22418
5.89233
3.9391
1.32035
1.56327
0.972083
1.91273
0.329953
1.88132
2.71304
60.9716
5.75705
2.99407
92.5178
3.0364
3.53173
1.64779
1.79199
2.1183
0.570859
1.46314
8.10375
0.50165
0.709203
22.0371
25.9102
2.21797
0.252054
3.63949
102.499
3.84456
1.69033
109.919
2.1704
5.36957
0.236214
14.029
7.40966
3.44796
31.6789
2.0162
1.49014
21.9376
0.455322
74.2544
9.16902
15.1961
7.69463
24.4223
4.84213
0.361993
4.1114
54.5205
1.64698
7.32896
80.6252
19.4487
2.15146
8.43985
1.52923
34.1219
2.05743
2.67192
1.72196
1.55256
42.353
10.4677
17.945
74.3908
2.00477
1.59699
2.29473
2.95894
1.52096
19.4155
1.05472
4.36378
1.34202
0.280707
50.979
3.73285
11.414
8.65678
0.420611
2.32735
1.6568
2.0022
30.9184
39.8886
0.377002
17.0691
1.04842
9.15011
0.232728
0.25324
2.19753
20.6098
0.231752
5.62663
21.9814
1.46159
1.3074
4.94528
7.85316
12.3634
2.07797
3.04685
60.3738
1.89013
1.7121
24.7109
0.393493
14.2824
1.33356
1.35647
3.52568
6.60039
159.255
9.54795
65.048
2.51998
110.913
1.98889
1.15336
7.81054
0.585181
5.58142
3.34904
0.274239
1.72448
2.11301
0.892461
4.38416
2.90088
2.15621
6.85729
21.997
1.64159
2.08538
4.9037
166.354
3.91612
76.2526
2.64624
1.13819
16.3874
0.855735
13.739
2.05712
0.280918
84.1753
18.9485
49.0488
9.44924
50.3241
9.18476
6.10613
4.28865
5.17426
2.09235
13.5302
4.52674
8.09159
12.0177
5.16134
54.8389
0.371473
3.90765
4.36882
20.2844
0.33598
1.50591
0.824299
16.2484
4.12959
59.8216
0.300558
9.32544
0.302407
5.16435
8.40556
96.8805
2.96046
17.9908
0.236371
8.53411
222.881
4.35989
0.183093
6.64013
7.81556
8.45746
2.43539
9.84682
0.346601
0.580237
45.6994
6.50927
8.28955
1.94859
1.57534
70.9091
86.7352
1.24518
1.28092
2.17746
2.45502
6.49889
4.00053
0.331336
3.74804
1.41467
0.630157
1.38315
1.30668
2.40079
108.544
26.3155
2.1164
2.38799
4.9237
9.51512
20.0331
5.09769
125.783
21.1863
4.89086
52.3009
0.97848
0.593699
1.89277
2.97046
1.53738
2.53044
0.547735
77.5227
30.1452
1.31307
43.2159
2.40199
0.626139
3.23797
2.04656
54.3032
1.60935
4.37731
32.0963
9.11732
10.2203
8.11781
42.7742
3.29597
21.0982
19.1843
1.64198
2.97471
19.432
5.83526
2.71613
4.46508
1.38195
2.14941
1.4616
0.310109
2.30839
138.061
0.823291
1.16915
1.60886
0.237154
6.27552
32.1355
109.128
2.65337
2.86381
54.1344
1.32038
2.4088
1.95642
9.79992
2.93397
0.667314
0.417982
18.8252
4.74313
219.837
7.15561
2.02155
1.5887
6.16925
21.7188
36.0548
3.7233
0.683826
39.7855
16.171
8.73414
49.7827
75.8078
19.627
2.07523
101.932
157.637
0.938158
4.27613
3.17856
14.6324
28.1065
5.25143
38.4602
2.65425
67.2
25.5332
56.1522
3.05082
4.01653
85.8205
13.9332
3.13367
8.81781
11.7992
2.24533
2.10564
5.44096
2.31928
5.72068
10.0597
59.2005
14.7124
8.9711
1.82245
2.59808
1.1335
0.23362
2.68361
19.7476
5.16149
22.5876
2.36749
8.46093
16.1455
9.28173
9.69348
4.07242
28.4575
10.4426
10.0554
9.48153
4.53951
3.81127
4.07289
18.4836
5.7207
1.50362
1.76291
0.725524
1.94571
3.23965
2.41312
1.47774
4.45814
37.6587
18.0748
1.81459
1.57474
11.4943
7.72511
1.27187
14.3544
4.83676
0.507666
10.6828
0.917145
25.2809
2.12043
9.06959
1.66511
157.645
2.26898
96.2963
9.90301
1.34287
18.2425
0.383643
1.76618
2.83659
5.32019
2.5591
82.1826
37.4739
2.8487
20.2542
2.73995
33.7899
33.0221
0.727293
1.21525
6.59975
4.12186
2.23574
1.48017
22.4375
49.1125
17.822
0.296981
17.3802
2.36375
1.74065
2.30265
4.70357
4.48859
17.2866
9.30494
1.06851
2.61975
1.84698
2.09741
72.3063
4.47469
2.55716
3.32632
1.61686
21.9193
1.41478
26.81
0.252752
15.3534
5.98882
10.7375
11.4688
3.17623
17.8056
6.16087
30.0055
77.4855
69.0305
21.9133
33.9099
0.249042
0.702621
5.27117
3.17569
3.60215
1.39828
41.9782
4.62635
134.816
15.7947
0.856868
0.839565
0.523542
14.1015
69.8159
1.37042
372.06
2.11899
1.53458
87.2145
16.6779
6.48703
1.08765
2.07316
5.9877
7.64313
0.565023
1.41121
53.1483
82.4504
5.39463
10.0656
63.9313
24.7434
3.59978
24.711
54.09
55.0762
3.16459
2.08076
1.4114
5.35964
0.290881
0.789611
1.55011
1.37109
51.4277
1.14312
7.35038
0.354726
26.5835
6.04301
6.3931
8.31446
8.5307
17.2725
21.4538
2.26215
18.3447
6.28927
0.434259
21.3604
17.463
50.7168
7.82754
14.9883
10.1631
5.5036
2.14781
32.9203
20.7682
2.86079
2.26715
3.67963
3.16277
2.93785
78.3247
2.03182
3.19988
11.0902
3.33002
5.5723
3.64905
12.2442
2.13546
1.42377
1.71616
0.267667
4.53737
7.70682
166.071
6.94022
3.40001
81.5331
1.59489
2.23738
7.9012
19.4235
10.0409
5.66877
24.0964
78.9626
2.67129
6.10793
0.762112
0.683307
0.379433
0.695398
0.769753
8.00161
0.262113
0.304179
1.70736
0.819557
7.95096
0.784176
5.35122
1.53935
0.319395
76.5392
9.71752
1.57239
2.20862
1.44978
0.526385
22.6839
4.8157
44.1801
0.673612
34.7807
43.0531
0.744454
9.9879
22.2433
0.272519
9.22718
78.363
21.4145
7.02859
140.546
0.240477
11.0455
30.6333
1.77002
26.448
39.1397
2.75505
22.1946
2.20548
2.52113
0.394267
0.584011
18.7217
20.2649
74.8955
52.8043
10.8196
0.46565
3.04455
17.952
11.3924
9.43524
50.072
1.30898
1.9357
1.52586
38.3408
11.0001
3.08072
4.595
15.8786
4.42224
4.82245
10.0549
0.453218
1.39886
3.82408
2.88872
2.81228
14.9317
1.39826
8.19366
27.4734
0.242674
1.96685
0.718523
5.08855
1.96669
0.245877
1.35351
0.765027
10.3573
1.7522
1.35875
6.94319
10.1217
0.48508
3.35682
4.56998
0.240896
109.402
21.139
1.60463
1.3581
18.0493
0.343896
0.42744
10.3564
0.89464
0.3425
1.578
1.11476
1.76742
56.7531
27.255
8.8197
16.6503
3.89334
0.389934
0.968412
9.28862
4.34769
4.4929
5.27952
0.469387
23.5276
0.374952
3.38851
1.81446
68.5637
1.88481
8.62744
75.6268
0.57092
38.3399
33.5532
0.312078
4.4239
2.55566
31.9128
35.5476
0.451562
40.5466
0.548328
0.531273
17.1202
1.52955
1.94749
2.5556
0.704121
12.7772
5.35879
155.659
1.31792
1.27302
1.26207
4.50933
0.811457
18.1023
0.674019
29.2802
8.00013
19.4974
9.20587
2.36179
0.610343
1.61415
1.60603
5.38196
1.84078
7.31352
6.44447
69.2645
70.8705
22.9771
6.60803
8.6814
8.61245
8.04884
0.724188
1.93424
0.242066
705.476
43.1804
0.237932
0.864992
66.2892
60.1164
8.86736
1.63595
4.04659
1.94739
70.3889
0.419009
7.3697
19.0283
2.34967
6.38287
33.4714
3.12833
0.263345
5.18738
16.0061
4.1551
32.3969
1.57917
51.1332
2.02296
8.65447
9.58142
0.72553
4.37052
22.97
9.24686
17.7386
11.9207
4.48746
1.11769
17.5714
1.4744
10.3247
5.76711
1.38814
2.57573
39.9023
1.54475
33.2583
8.22317
36.3677
8.17422
4.50502
7.77541
7.21525
0.622933
12.5202
11.1006
26.7895
0.242726
0.956355
0.585797
153.961
0.235682
0.567713
4.91062
1.2224
1.52244
55.2422
2.18365
6.46514
1.83839
2.43815
6.74656
27.7968
16.6011
1.71462
0.853646
0.877798
0.968423
71.4495
6.92292
5.19637
8.60777
0.584265
0.893572
0.273129
17.5617
0.756457
0.310262
9.31224
36.6878
1.5974
0.489265
2.92447
5.77226
33.6811
20.6039
31.3006
3.77065
0.476816
1.25948
7.90099
1.37194
73.8348
0.997946
0.336668
65.057
9.98149
0.507368
0.242786
13.054
89.9036
0.693881
0.353096
7.22081
1.86903
2.17318
5.06724
5.19683
2.87309
0.24553
7.52234
4.26755
147.058
8.99484
4.82765
51.0561
4.44836
3.43962
1.84733
0.910858
42.3827
6.86876
3.75006
17.6819
4.97793
46.3392
17.7571
6.08674
9.48364
1.26763
6.43733
0.284109
23.4609
4.97672
6.92975
5.45359
2.60115
5.71366
10.971
2.23037
0.328708
0.866952
7.38559
9.72129
0.453389
22.0718
79.2972
9.35635
66.893
69.2361
2.03936
0.770102
32.304
1.51007
60.4064
25.4235
5.40717
1.4522
0.567765
1.72959
0.773515
7.01859
0.71921
4.00875
0.512021
1.49174
2.00898
31.37
4.48758
32.5206
16.2985
21.4778
8.82745
0.487248
4.93464
4.20998
10.4796
4.17182
16.5077
0.466646
14.518
3.94131
5.07676
22.0169
7.46943
42.1139
13.7534
2.71638
0.262446
6.76229
8.79568
1.94835
6.40198
0.999379
0.261115
6.59051
32.2745
0.336697
17.7131
8.20992
0.52911
1.14011
2.71642
2.82644
0.612451
7.60222
9.5267
63.1669
8.51353
0.253146
23.0018
7.97376
1.07725
18.4624
0.948574
63.7133
0.8254
1.99323
1.3407
4.48559
285.088
11.3742
3.09792
6.6187
18.5543
127.886
35.9108
1.04124
0.431227
0.716626
0.500821
0.306729
1.02608
2.14137
0.35869
4.01673
0.333067
0.463179
29.3921
8.41881
0.35436
1.11582
0.290874
1.40513
1.76905
1.35522
6.58127
21.0174
1.00149
1.86212
0.397268
0.443025
8.05101
31.6969
20.3347
0.27664
0.414903
7.56945
31.8441
0.606882
0.496092
0.762773
0.392421
0.405193
0.83329
0.528222
0.265459
3.55936
0.391406
34.1067
6.91969
1.20702
0.419616
7.54885
0.547302
10.5261
47.1135
86.6499
3.0011
1.53694
0.244225
17.409
1.67648
47.9425
2.89274
135.904
6.59042
108.057
42.8083
0.502167
0.467669
0.259842
13.7456
2.37095
5.04338
0.400982
4.56985
4.2984
4.71761
24.4183
2.47539
21.3876
12.8478
35.9384
189.588
1.14168
22.2944
17.9318
13.1629
1.68402
32.4596
112.362
1.07203
60.1416
3.61252
19.6426
2.98748
1.61143
11.4892
13.9052
551.451
0.851593
14.9018
1.44092
0.795993
2.79747
3.17462
145.842
1.04666
0.402238
0.340537
1.97781
0.832045
0.396786
2.06942
0.289981
0.429585
0.922843
0.25706
6.39712
33.4013
0.351702
6.6207
8.45131
7.8298
25.7144
1.57543
1.30928
0.521452
0.467411
1.48643
0.784746
57.8831
85.0639
0.372732
21.3123
8.99516
13.9161
1.75978
0.235858
68.4194
2.17855
2.05127
78.5642
2.83482
11.6629
0.491477
2.6896
45.7259
2.08319
14.1393
102.4
2.07521
0.239775
1.26973
43.3818
1.37819
1.19202
15.5298
194.534
1.93368
3.47224
0.355796
1.16911
0.988416
0.833648
3.7751
0.877778
77.7387
0.306166
12.7284
2.01458
0.263939
0.295774
2.4167
0.445486
0.590092
1.12848
0.685333
62.7406
10.7367
1.31387
18.9139
7.51531
6.43201
10.9292
0.657255
9.09425
12.0696
2.0851
73.8564
5.6813
0.596747
5.74332
17.7328
1.28349
10.2474
0.709496
0.266305
18.2908
23.6022
0.265555
0.861525
2.07252
0.337773
24.7563
28.4708
56.8762
13.6844
1.5743
54.7682
0.254096
1.33663
5.71904
1.8643
1.40439
3.38971
0.68278
36.0912
0.246933
4.69914
3.08707
0.970038
8.06827
1.3744
7.56371
2.21267
1.57495
0.790403
0.452632
1.24113
30.3921
1.01891
1.51162
44.8519
4.02611
41.3078
2.7643
41.1042
51.3848
47.2312
31.242
2.77445
2.59189
49.1054
1.65777
57.722
43.8435
246.34
5.55227
71.8096
46.6611
20.0926
0.695825
1.50208
14.0308
50.7243
1.76566
2.57392
27.8404
243.292
15.0098
22.1548
41.9905
10.8555
1.75601
4.79356
0.906369
0.501368
8.07236
67.9965
1.27641
0.283991
5.10878
6.37396
9.0345
65.586
64.6817
6.7604
76.2991
12.0385
0.856681
5.47087
3.57568
70.7011
50.0271
4.55331
61.2194
2.34036
2.68818
1.86577
2.23418
1.40467
1.83078
26.1861
2.0538
1.61211
1.41076
2.95898
0.460517
3.41159
51.6451
25.1257
9.68186
1.482
1.22569
39.3748
29.5693
28.3638
39.2955
1.21629
4.57886
1.03733
5.73027
6.21873
24.2337
229.519
7.56121
9.02785
1.14172
22.9365
0.547087
25.2252
0.960367
44.0134
1.3378
0.42759
22.8905
8.06891
0.587151
3.41938
0.515643
2.38343
108.152
4.65946
4.56719
8.73138
0.717527
72.5348
32.2464
2.46248
131.302
19.3559
6.87542
34.0986
1.84622
7.21675
41.3703
11.9257
150.494
3.27383
0.809646
186.758
37.5918
107.241
8.67887
4.78215
5.69557
13.9191
0.694856
81.7235
3.27751
0.835585
0.902171
5.97943
10.274
1.61674
0.640353
68.6942
9.85701
10.2843
77.6823
39.7074
7.24202
33.6542
5.80368
0.670389
9.17844
1.50034
190.385
0.643451
75.8318
7.89586
0.624059
1.64589
26.9929
75.5494
6.50128
239.399
31.1142
9.17338
5.62496
0.805319
7.0641
0.297241
1.27497
24.1888
49.7519
26.3905
21.6795
29.6224
27.0136
22.5976
32.0705
21.8001
1.78617
0.911622
353.883
2.42431
5.37582
0.280682
32.9819
36.083
6.50495
5.22538
7.51847
22.2191
1.73173
14.4149
7.54746
36.1344
0.756253
9.40789
10.7785
1.42225
4.42207
1.22684
5.35792
3.45755
23.1788
25.0719
2.59268
2.37972
42.1713
20.5485
45.7328
6.09931
0.374712
0.270153
27.331
0.606689
20.8558
10.1033
0.621287
5.6474
2.71634
2.23583
51.5542
10.4753
2.94085
3.62931
140.645
22.8934
7.00744
28.5504
1.49371
6.65029
8.74523
2.1478
21.6098
7.44806
66.624
1.26749
12.6251
2.67881
4.41373
8.03573
13.4817
6.6773
2.37897
6.18094
2.00618
12.5498
1.7671
1.54994
7.3199
8.39156
7.74038
2.81221
1.73292
23.5063
15.9253
8.0175
0.57998
9.52454
0.325934
5.72312
1.78882
0.819592
25.7496
0.288886
0.625448
10.7831
0.784965
15.0927
2.75162
2.19526
23.7745
66.1575
15.5709
4.39219
2.61192
25.9944
1.27786
1.77664
4.73948
1.12831
0.462389
0.823071
35.5747
27.0153
1.25704
2.49035
3.43867
3.86774
6.30085
1.33232
0.421747
24.1997
17.0033
7.76601
1.50468
0.586373
6.95399
0.623554
0.622996
0.946886
28.321
0.512231
16.2378
61.7662
19.8627
12.4791
119.105
41.0355
11.5879
1.09992
3.97829
39.3806
77.9678
4.93136
2.39876
6.27396
0.441021
0.533718
2.0776
8.6481
0.810317
0.752124
0.706143
95.6467
13.135
17.3558
64.1991
0.54247
40.5427
23.7369
18.8484
6.15886
1.11926
1.62593
66.9607
1.44838
3.6922
5.59213
1.47192
0.468042
1.07432
0.879554
39.9359
1.85203
1.49914
54.884
20.5034
14.603
22.6868
4.70281
2.65782
48.0822
86.254
83.2866
56.0989
1.24855
3.81537
99.9023
7.61892
0.52166
0.941581
10.9262
0.418024
0.837058
38.9687
1.14862
1.67006
12.8193
95.8941
111.553
69.215
20.4802
19.4517
23.3035
9.01442
0.341901
27.8467
21.0021
58.9005
19.4705
4.87095
10.7726
21.0064
2.95108
1.32393
1.73897
2.57739
3.22245
7.35183
5.90022
16.9954
5.06982
1.85319
48.1924
2.15074
14.7948
6.4516
100.431
67.9877
23.8654
25.643
35.8218
1.9398
8.24664
0.369904
0.912387
2.25146
4.68984
2.7937
3.15301
20.7249
19.2305
47.2054
0.893101
80.854
23.8925
19.3696
22.9651
0.273267
40.6071
23.4298
0.688774
2.72848
37.3186
54.1089
45.7575
31.7547
18.35
27.313
2.0878
1.48225
1.32614
1.97501
11.3704
2.41598
1.1454
2.2909
2.42795
39.9556
17.7642
30.9264
1.67019
3.43501
23.916
6.9026
16.3796
39.6324
5.0237
2.04744
64.725
2.53579
1.90516
87.7426
50.4817
52.8552
54.7967
0.625208
3.02987
21.5187
12.1591
13.7144
66.2587
1.88501
11.898
0.354099
0.861566
1.64224
2.0835
1.96635
63.5624
2.2237
5.98586
1.12382
9.35611
6.12321
23.7843
10.9623
6.55106
7.73944
5.55497
6.98849
57.4691
6.57831
43.2117
39.2686
11.2937
0.693861
127.139
24.6204
20.7577
11.9272
11.4617
77.0881
23.4039
17.1357
2.5973
67.8715
10.1139
4.37098
0.533475
0.273432
77.45
43.3498
19.3281
42.4948
0.501435
0.441447
31.9851
16.9897
5.19891
19.3376
0.813975
6.9455
1.8837
1.44657
11.9062
25.8168
168.479
1.71606
2.63986
17.6976
14.4159
47.1604
2.78259
7.98503
42.1415
16.742
58.5581
24.6831
0.261231
10.9941
6.81915
0.707192
34.1001
18.0541
42.5426
10.4829
12.0937
6.41638
3.87737
7.07592
22.584
19.9285
14.2631
1.16142
1.63403
23.2606
12.9881
1.66665
1.83214
38.169
5.08223
63.2459
61.106
18.3062
32.6562
53.2924
78.5124
1.85726
2.64355
13.8378
2.70633
2.14264
0.510138
18.8401
8.26496
7.58419
21.9521
56.7503
65.9978
5.34524
47.2178
4.81702
2.30753
2.52961
10.4351
6.65353
8.26675
0.45545
0.850255
3.90049
8.63075
50.0137
31.9961
0.286395
21.1974
17.8654
298.766
36.6324
1.42901
1.33624
2.48102
1.65621
32.4419
5.64727
12.5468
28.0145
26.6193
1.6102
65.6331
48.653
8.01674
148.982
4.85136
48.5287
2.03041
1.82449
19.3094
1.64966
18.9559
4.5347
17.2599
42.3469
34.3397
2.58544
8.62409
1.01762
5.62307
29.8633
42.2863
2.64568
44.9588
35.2037
33.1032
4.47371
38.5577
5.29306
54.5003
20.0183
30.3102
4.92569
0.27845
7.77982
7.33976
19.7967
10.2857
24.7399
454.233
1.2108
27.5317
19.6785
32.108
2.94336
234.293
5.44073
0.754063
0.261486
8.54384
0.733409
1.29721
14.109
1.74341
17.2094
43.9724
31.9615
70.65
8.24553
31.5128
24.5339
10.3017
1.68205
666.244
4.93308
2.89211
1.46864
17.2642
2.86709
15.237
76.0529
21.6188
1.65144
74.32
1.86446
2.34371
4.42348
0.259783
9.08307
0.919541
1.50639
1.52704
76.3348
7.55946
10.6047
17.7999
27.2405
33.2757
121.112
0.384358
38.2628
3.19481
1.33833
3.21885
0.985679
3.55321
160.098
2.00897
12.1887
6.75143
5.83928
45.0975
23.5729
25.7023
1.16874
24.7191
1.84511
0.254972
17.4098
71.6784
1.66396
1.34316
2.1821
3.34315
21.7706
1.00285
26.1922
16.0512
5.63008
181.703
17.0268
2.14142
0.770237
2.98649
15.5466
16.2931
8.68648
22.4908
13.2566
2.60385
25.4666
18.0764
12.3215
0.59533
10.8402
0.871819
0.715007
3.72181
12.7133
19.6673
22.1395
3.26548
32.0124
0.25024
6.26032
18.0083
11.4972
50.0403
2.94873
2.49205
2.43714
1.94239
13.7232
11.2414
9.83897
27.7358
0.462705
0.727294
10.6379
17.9554
6.88229
1.26233
66.3885
12.9864
20.5343
34.7616
31.629
5.07722
3.4516
6.45204
3.67312
1.65919
2.02907
2.72282
42.6931
2.96087
13.6818
10.1423
7.6451
23.4536
2.97276
2.93803
25.1659
7.85318
6.22723
11.0258
0.761055
4.60921
1.78844
12.7989
0.458111
0.793464
1.43684
1.01538
20.3491
112.034
1.49449
3.88511
19.848
8.47362
8.51229
5.05713
4.40399
15.3314
0.796492
4.06609
64.9872
2.27606
6.49475
8.21904
0.628871
0.757468
77.6042
24.5416
11.5856
117.703
21.8867
45.8182
44.546
3.30897
1.28695
0.560789
12.0487
0.278189
1.33395
71.8081
32.3074
3.78008
0.884439
0.536957
26.1332
0.700045
0.261842
1.12258
2.72001
80.7775
8.85652
23.5789
6.80402
6.61766
25.2136
13.1723
1.55991
16.0864
94.9169
0.990529
2.77965
1.25338
5.08126
4.4943
40.7691
49.0395
7.88221
9.25526
1.53009
5.55483
0.64685
21.827
6.49999
12.8871
51.5094
0.255141
8.85077
2.96755
60.4889
1.34198
4.19634
4.2354
1.3501
77.0294
51.7641
7.39709
14.1374
0.650863
0.574584
9.44958
40.0039
136.258
0.271202
37.696
4.80449
3.12127
1.56196
5.34906
9.58479
130.08
13.6482
0.59977
0.601771
0.993143
47.8046
1.25651
1.70716
0.352919
2.94707
0.805695
0.295652
8.27338
4.35242
5.91651
30.8855
31.1988
0.812792
1.71129
7.43264
8.34159
14.5623
0.809913
2.10715
5.86395
0.812588
2.47544
1.62379
2.6595
1.55231
42.1602
1.07324
0.727733
6.35067
5.64553
20.6733
5.65344
10.8943
12.7731
0.609362
0.668985
4.82442
0.324915
28.9942
3.38991
1.58371
16.491
0.305753
2.689
0.273603
30.0063
2.39327
8.45862
9.31564
2.33428
9.2792
0.692067
12.691
21.8956
12.1214
6.46835
15.2443
8.67271
10.2374
0.357775
6.81353
0.716517
7.24554
3.35807
45.0102
41.5909
74.8848
1.66528
9.94739
0.581405
1.04144
19.3365
2.79756
6.96566
0.965699
2.01339
24.6478
2.00803
23.4201
2.59384
3.63529
4.17776
0.79605
2.90331
1.0574
19.5128
20.8178
0.388743
12.2686
0.718238
1.77648
15.1042
1.12139
6.13117
9.40629
188.137
3.06237
1.95643
6.5441
8.85288
37.2985
2.90989
2.62728
2.13379
2.71139
9.12752
5.06784
7.23294
11.8053
0.894631
23.5749
3.66764
0.286616
7.79429
4.3993
1.35049
11.1589
0.411458
1.08396
1.01244
0.254689
6.61278
0.596328
10.4581
10.2294
8.69243
3.22628
1.50934
2.02036
1.89894
2.07338
13.6812
5.05247
1.37142
6.1626
8.55003
75.4326
56.4803
3.16778
116.55
2.392
2.23118
4.96177
59.6055
49.162
0.675642
0.487954
0.950642
0.721663
0.456348
7.65109
5.89526
134.666
0.347997
0.61029
12.7131
12.1793
11.4874
1.26733
0.739835
0.253133
158.122
11.639
2.71614
1.69308
1.92168
13.2094
1.90246
25.6197
51.1711
0.254393
24.1456
11.4081
2.94572
26.4744
1.43771
0.607745
2.46559
19.5705
1.78173
1.55762
3.15836
0.427504
34.5118
8.63367
8.8729
2.38314
0.460575
14.9845
4.10458
7.25809
0.506406
1.75824
0.252386
19.3505
28.8851
2.69088
2.19013
2.92092
0.920367
64.798
12.8977
1.67227
50.5956
60.6195
133.011
50.4247
1.72146
20.798
5.10048
5.37812
1.80952
0.562276
24.7281
1.67554
3.08908
14.5658
1.39303
12.7472
3.69022
3.78844
1.43175
3.61906
56.7195
1.2691
0.917321
1.67166
7.98265
4.74992
21.7424
1.553
1.40797
12.2151
0.678942
0.510737
0.483272
2.04203
0.69583
1.14489
2.45479
4.64296
85.8712
29.5836
17.9067
9.99127
8.10871
5.12272
4.59354
20.17
12.0608
16.2244
7.2228
29.88
8.55138
0.70365
0.637957
1.0502
4.17029
12.2085
2.06085
1.77148
1.68553
2.82175
92.2986
33.948
26.1683
26.0363
16.9006
24.4956
34.1847
3.59291
7.00886
13.9247
1.09623
1.95831
169.45
4.59313
0.451609
1.32961
0.729791
40.7282
23.0952
5.22142
33.4776
4.25879
15.8608
27.2696
3.4425
1.21447
0.359206
11.2448
0.804504
1.56222
4.72625
8.86607
23.0701
1.55562
4.92615
1.85694
1.65907
25.162
28.5737
23.1969
0.24533
0.781065
0.944341
1.52602
12.8283
6.91366
7.59036
2.77076
1.30443
33.9137
6.02179
5.48483
2.02388
13.5367
0.722094
3.45787
1.81549
0.725213
23.8975
30.1635
0.308993
18.2865
1.63322
1.66848
4.5269
9.61929
5.35738
4.73757
30.9466
1.79838
11.185
1.32426
0.444824
2.9466
0.395566
26.2887
27.5801
4.69726
6.1081
24.3588
1.56398
0.775858
11.4012
0.509625
30.8308
29.2303
0.345143
0.900539
35.5982
5.38246
3.19372
7.03562
25.849
1.83644
10.4115
0.60822
0.386673
1.52815
2.69581
29.0449
1.75324
28.7343
0.840682
1.82007
3.16007
21.2023
1.63225
0.332026
0.873325
4.24122
12.1686
84.7827
6.76657
5.24074
0.61959
2.36605
83.4722
17.3423
3.33094
3.10485
10.51
72.3485
3.22612
36.4795
7.27345
4.29708
4.18461
2.02788
13.4971
0.607953
7.65279
4.57294
3.40213
2.62689
0.447983
1.27189
1.27537
2.03756
14.4446
17.4381
7.42325
3.65245
4.82125
2.86625
2.71371
2.65824
13.4235
24.1112
0.959052
32.8631
0.619089
30.4177
102.747
1.6407
24.9665
1.8464
7.24207
3.12114
1.08374
6.64219
40.4729
3.4043
82.298
7.68947
22.2203
31.997
1.22982
38.7494
23.3769
5.53425
43.5195
20.2982
3.61149
31.749
7.30412
3.89108
42.3615
4.83671
5.59395
0.88661
1.33183
1.84273
1.92981
4.3761
6.78868
29.1894
31.8424
2.131
0.614477
8.00419
8.02094
92.5645
5.38168
0.541292
13.055
0.769701
29.044
19.0959
1.04668
113.315
3.01207
2.67938
5.18896
54.4591
0.322558
50.9663
35.2199
1.53382
45.3903
46.3781
28.5618
1.54373
0.349512
0.810557
1.84497
0.70021
7.15515
10.1959
79.0415
2.63877
17.0567
38.0963
24.5997
2.75876
13.5765
49.1938
2.62932
1.73191
4.20317
3.8088
234.078
65.311
2.91382
3.84226
3.18935
14.5948
47.7776
42.989
5.2671
0.281775
0.779033
6.31948
30.2556
68.1496
1.68478
2.80309
1.56871
60.4438
5.4384
63.3614
17.0886
8.36544
0.779022
55.488
0.4432
7.55546
0.670959
70.3158
2.3923
69.1897
0.26046
4.71459
34.5862
11.6613
2.31928
0.459377
1.66667
38.1081
41.6653
26.4917
6.74594
1.61096
1.7262
65.064
3.39976
4.10996
83.9913
231.307
20.4963
1.07041
10.2882
5.39721
0.879606
0.683783
7.65626
1.58512
1.62025
5.22127
2.53235
59.1854
2.30872
36.9572
13.5577
0.480452
6.64462
1.44735
7.39959
0.493626
33.6127
1.60176
2.97512
6.30991
3.42522
8.68662
98.1688
7.37035
2.05518
4.57628
26.8111
1.06518
0.250844
113.14
6.51005
2.43167
2.50509
1.3663
2.1125
3.83957
8.60622
1.21825
3.87461
0.791011
87.6577
0.366685
5.53506
0.72439
4.18201
0.548935
2.86561
134.522
6.17639
0.583337
50.4043
0.883135
5.52935
10.3552
1.58067
7.75374
14.4027
0.529465
29.63
1.44689
8.44888
0.578904
0.94623
5.95758
4.31191
1.56644
87.2951
41.4754
41.2064
5.16798
1.46163
2.03486
21.7994
0.582683
8.1478
63.3288
3.86292
13.9626
118.259
10.3405
5.68767
1.33703
0.257481
0.538916
0.572495
9.67568
1.46234
24.795
10.3394
1.04138
4.8614
5.96591
15.1431
1.40622
16.8743
6.02414
15.4282
1.33573
13.4758
0.503234
0.614352
0.377951
1.05926
0.864573
4.86963
2.39305
111.48
13.6701
72.7048
8.85877
6.66515
57.3946
0.680621
4.25953
4.72988
36.9905
5.00718
4.49684
1.44421
1.11931
4.80794
3.30072
17.5798
2.23808
2.90686
19.3973
1.90753
3.25565
0.623516
1.6323
8.5552
35.0762
3.99529
6.19513
6.69615
10.0479
1.31194
1.70024
19.2274
1.36536
2.50138
4.45013
2.36626
2.68997
1.79674
0.746892
0.469939
57.38
0.718396
3.35226
1.84562
91.4561
31.2819
37.2889
0.498094
40.6816
0.565569
46.6672
35.1594
27.8423
31.8832
1.84326
0.799112
0.890112
1.57815
2.22603
35.709
0.245523
0.46151
0.263884
9.16964
2.35888
17.1405
2.29529
1.71716
4.06332
3.25147
0.920173
18.3536
0.469847
0.901549
31.3372
29.0766
12.3212
0.665225
0.508179
16.1167
0.364184
0.33889
1.40647
0.573896
1.26253
3.65718
1.18254
77.121
1.51833
1.43478
29.0235
1.34089
19.4537
31.5741
4.19919
16.5144
2.77568
23.2801
2.2335
0.879977
2.17665
188.899
3.15107
59.2237
4.3001
31.2762
0.345395
0.263799
4.13747
23.1497
35.0231
4.37708
15.4499
8.30917
3.18419
2.93915
12.0583
0.885121
2.01365
18.0319
0.256089
8.51975
16.7574
4.74835
3.50543
34.7077
5.2376
64.5068
60.1979
11.728
5.65766
2.04872
1.65743
1.64558
6.87328
11.0403
0.850345
2.49144
59.0988
181.781
32.1203
33.6476
1.97545
12.2145
9.34461
26.2423
2.13781
11.4668
4.29692
14.0412
0.458004
17.615
4.1557
1.20591
0.987068
0.66771
11.2152
61.4415
55.0629
8.4818
57.3165
4.30146
6.29592
8.60111
0.357512
6.20429
10.6437
726.649
14.9422
5.62571
14.6484
5.85175
3.71919
0.329881
20.2026
1.28138
0.631953
0.338222
0.771042
1.45633
48.5446
1.35613
44.3124
0.942246
2.75873
1.25525
3.32571
3.64046
2.24222
333.728
24.5863
11.0446
0.266606
10.8158
95.1062
51.6933
0.380136
2.01946
1.40969
12.7929
5.66928
5.92437
5.65459
18.1509
0.828414
6.43729
0.813732
25.1836
31.4461
14.0657
1.82332
3.79112
91.717
5.06812
26.13
8.70452
1.93488
3.99812
1.57889
0.827216
0.433476
5.27284
5.05015
48.8514
4.56058
1.50576
0.393502
0.842761
102.194
0.711828
1.0839
16.8768
1.91009
15.0224
2.45187
0.601821
5.27864
0.569556
1.30502
11.5334
3.42021
48.5161
9.91348
3.80157
9.68355
1.72445
55.4005
5.87437
20.5804
3.57486
3.42135
0.371253
0.517863
1.75642
0.476605
1.31858
0.480747
6.93123
2.91231
5.04818
26.9642
7.71037
87.5091
4.65577
3.35966
1.50671
1.13011
25.1146
2.29981
0.527716
0.250567
1.48339
1.78166
2.5575
4.94639
107.217
3.79724
0.939785
142.247
55.6777
5.83625
135.03
7.2712
1.75207
3.10017
6.78476
54.7759
1.62133
1.71868
12.5297
0.672202
8.61283
19.0007
81.4497
1.86313
2.41323
0.337495
0.621718
0.973262
10.7593
0.489238
0.594808
15.9911
7.1094
2.05465
10.3463
4.88903
1.85673
18.658
10.7063
0.424573
175.101
0.572114
3.92893
77.6413
55.9407
1.56435
2.16471
17.233
1.17679
25.3771
3.28216
4.25477
19.3757
81.7063
11.2194
2.55531
0.774696
4.22813
94.2397
17.8742
33.0541
9.99175
0.574113
1.7545
27.3346
7.12512
21.4418
40.24
1.72842
4.19587
7.93507
0.535795
0.254182
1.55578
0.560657
3.13657
8.18298
17.7831
21.6262
21.4832
5.11079
136.675
31.318
80.6965
0.721854
0.358545
4.06274
0.664877
2.30652
18.1095
1.00094
16.5578
7.50769
10.3822
10.9028
31.0336
30.7812
4.0158
150.37
0.277054
8.23283
8.83037
0.335654
66.0797
42.1191
2.21218
2.22928
57.7916
8.15435
25.5319
1.45914
3.13333
0.426349
0.583007
1.22713
1.00672
2.61753
2.14168
0.656048
0.317589
63.8789
2.9294
0.262436
2.53213
0.334825
15.6375
1.79574
13.7612
12.2591
0.615093
5.58228
66.2571
34.9311
7.5318
17.6454
37.2803
2.21572
18.4003
0.817734
2.37663
2.72701
1.03568
8.67609
0.246321
16.6738
15.4806
36.5239
1.10873
0.882123
1.43519
71.2227
32.8762
629.713
13.7752
0.75456
1.19874
0.625658
3.31637
1.43793
1.65239
24.5199
0.817236
16.5969
1.14843
1.28456
17.0654
2.00868
5.53868
8.45781
0.801166
4.0847
18.9269
6.98851
1.49871
6.15969
37.4286
7.80248
0.773196
6.02148
198.691
34.7174
9.59508
5.07951
11.3253
0.36084
3.45615
0.358493
42.7947
1.46017
10.8323
0.923269
18.7028
2.6373
2.65163
0.866535
0.756739
44.8731
46.2082
1.35417
1.41005
15.9553
34.7367
0.698656
17.412
39.9634
1.00679
0.416502
2.5992