/*--------------------------------*- C++ -*----------------------------------*\
| =========                 |                                                 |
| \\      /  F ield         | OpenFOAM: The Open Source CFD Toolbox           |
|  \\    /   O peration     | Version:  v1912                                 |
|   \\  /    A nd           | Website:  www.openfoam.com                      |
|    \\/     M anipulation  |                                                 |
\*---------------------------------------------------------------------------*/
FoamFile
{
    version     2.0;
    format      ascii;
    class       volScalarField;
    location    "0.51";
    object      k;
}
// * * * * * * * * * * * * * * * * * * * * * * * * * * * * * * * * * * * * * //

dimensions      [0 2 -2 0 0 0 0];


internalField   nonuniform List<scalar> 
1431
(
0.101694
0.227139
1.50024
1.06724
0.0867996
0.634897
0.904357
0.196743
1.90914
1.57601
0.218368
0.262096
0.188128
0.957689
1.45633
0.443073
1.61484
0.219347
0.195793
0.151945
0.116185
1.28988
0.800567
1.05128
0.92592
0.106699
0.962373
0.874087
0.495991
0.22962
0.978897
0.312176
0.806047
0.456524
0.432292
0.970263
0.0674769
0.311949
0.812878
0.305357
2.05269
0.120155
0.424763
0.627789
1.13367
0.149326
0.977681
0.212585
0.454376
0.397913
0.206705
1.46344
1.42776
0.612466
0.780581
0.203371
0.927939
1.19296
0.7896
0.0947004
1.29851
0.133954
1.06238
0.292635
0.597238
0.204272
1.38306
0.572593
0.367406
0.323368
0.334497
0.345573
0.334249
0.687717
0.251615
0.599314
0.125014
1.38509
0.224435
1.4588
0.269748
0.246861
0.367932
1.43989
1.53067
0.0974483
0.091023
0.308668
1.1584
0.132709
0.128721
0.428632
0.0917722
0.310517
0.240667
0.112595
0.23831
0.267384
0.106542
0.668161
0.435484
0.222469
0.10697
0.0755389
0.432614
0.24128
0.240484
2.37942
1.31823
0.107053
1.70893
0.187389
0.214055
0.118894
0.387829
0.0706225
0.239726
0.614177
1.2847
0.892421
0.290168
1.33757
1.23526
0.983708
0.293716
0.314829
1.43869
0.211947
0.143778
0.488007
0.158191
2.03359
0.74134
0.102976
0.0944707
0.628331
0.284103
0.244742
0.128641
2.11
1.29171
0.0577184
0.290248
0.476589
0.547491
0.374168
0.268009
2.40448
0.231875
0.388524
0.507841
0.644516
0.508182
0.323296
0.0949897
0.189899
0.283421
0.101645
0.206306
0.270963
0.227492
0.209846
0.115594
0.246981
0.0910962
2.23651
0.1083
0.302161
0.209954
0.095
0.675198
0.339537
0.933563
0.386617
0.283118
0.110277
0.169071
0.499244
0.240714
0.224007
0.316655
1.22369
0.205593
0.120845
0.348835
0.413772
0.229658
0.803616
0.0809769
0.299564
0.526647
1.86669
0.122369
0.254523
2.1135
0.27381
0.234643
0.259704
0.154616
0.179111
0.242012
0.738338
0.341577
2.11089
0.246656
1.19137
0.103878
0.305184
0.282091
0.475245
0.264588
0.216193
1.26492
0.299712
0.540718
0.707627
0.199801
0.439046
0.435907
0.304395
0.29189
1.31686
0.43163
1.80765
0.318621
0.532888
0.579105
0.106105
0.429455
1.02924
0.090011
0.585307
0.302984
0.200725
0.196863
0.205124
0.288184
0.121334
0.274657
0.399039
0.311769
0.302287
1.93421
1.55422
0.182915
0.189699
0.309367
0.571865
0.580824
0.574628
0.275991
1.94837
1.59359
0.469837
1.1001
0.663589
0.127554
0.465297
0.619661
0.644046
0.677549
0.207355
0.116351
1.32276
0.198897
0.413843
0.571065
0.247022
0.396766
1.66785
0.236609
0.528094
0.271469
0.268578
0.694574
0.269326
0.117161
0.351103
0.256815
1.46857
1.82921
0.363268
0.206641
0.11265
0.599448
0.803059
0.0927963
0.191681
0.505541
0.292673
0.392099
0.332903
0.195286
0.372913
0.302898
0.212625
0.136829
0.248186
0.426569
0.247212
0.323121
0.600696
0.230943
0.237905
0.0980532
0.301552
0.281786
0.652487
0.630437
0.123443
0.304743
0.33775
1.27357
0.0742336
0.217242
0.257627
1.35469
0.298449
0.197807
0.277587
0.285454
0.210433
1.12691
0.297196
1.39874
0.306547
0.257622
0.338826
1.34439
0.294014
0.502963
0.192472
0.399968
0.495448
0.2782
1.79064
0.184008
0.164145
0.175792
0.192445
0.206861
0.263728
0.333621
0.436496
0.908578
0.215141
0.323335
0.191225
0.020985
0.0945563
0.1819
0.175094
0.210429
0.171708
0.0762367
0.171271
0.186972
0.138614
0.18007
0.187416
0.109018
0.120573
0.162897
0.0252962
0.045939
0.178798
0.141835
0.178733
0.634358
0.92888
0.253847
0.446609
0.259315
0.352466
0.342928
1.05037
0.384524
0.328035
0.362154
0.189181
0.174934
0.176236
0.0756977
0.199384
0.151859
0.153111
0.210999
0.0709347
0.177287
0.021648
0.199852
1.39018
0.493175
0.362256
0.296496
0.170148
0.13955
0.315612
1.05627
0.280025
0.195829
0.299922
0.308039
0.185859
0.352329
0.322132
0.290825
0.253379
0.120643
0.638193
0.618792
0.256369
0.276503
1.21314
0.507914
0.676605
0.245391
1.62645
0.218947
0.128835
0.300171
0.437764
0.979581
0.409956
0.331323
0.271049
0.390145
0.648908
1.67354
0.270775
1.75206
0.354011
0.126035
0.685509
0.346602
0.252409
0.581513
0.60346
0.405163
0.832097
0.793612
1.05077
0.610671
0.565049
0.209152
0.881693
1.04767
0.327174
0.322125
0.769776
0.757525
0.795411
0.952973
0.953179
0.448409
0.83358
0.659241
0.657956
0.774145
0.329567
1.25366
0.237373
0.78574
0.552376
0.308507
0.260669
0.111444
1.58989
0.533691
0.261729
1.51447
0.251662
0.231295
0.720424
0.464359
0.231487
1.33879
1.23749
1.80626
0.196913
0.342093
0.281643
0.744514
0.206752
0.328509
0.672058
0.534654
1.0204
0.543898
0.275598
0.236663
0.213361
0.212143
1.42573
0.202008
0.288874
1.14568
0.500189
0.325247
0.471632
0.6316
1.43896
0.565704
0.288558
0.303352
0.359186
0.207701
1.00757
0.343339
0.932403
0.83814
0.336521
0.225284
0.527971
0.315905
0.338905
1.55449
1.29808
0.344225
0.263157
0.388459
0.399807
0.440442
0.123534
0.276436
0.577134
0.185441
0.423726
0.407828
0.527619
0.331025
0.244962
0.420251
0.424467
0.685171
0.439474
0.571084
0.486376
0.839438
1.01203
0.316218
1.49341
0.246672
1.11015
0.153293
1.18097
0.543549
0.217544
0.839519
0.235891
0.44185
0.0513947
0.612845
0.561846
0.361383
0.287862
0.775345
0.386123
0.608946
0.193326
0.820515
0.386972
1.38577
1.68179
1.02172
0.163121
0.738142
0.204326
1.24225
0.331009
0.188284
1.22042
1.21209
1.19188
1.34539
0.104083
0.591623
0.301294
0.36171
0.420373
0.268261
0.223552
0.250531
0.272967
0.186024
0.442636
0.200925
0.309409
0.223307
0.406541
1.01086
1.14385
0.35965
0.289325
0.269863
0.40307
0.0435846
0.531271
0.207236
0.296643
0.222673
0.16642
0.21991
0.483878
0.489334
1.03016
0.244205
0.230979
1.34812
1.32113
0.932924
0.912691
0.157373
0.740347
1.14076
0.207232
1.32418
0.998025
0.656132
0.859928
0.215363
0.230349
0.184277
0.17324
0.449594
0.305687
0.191768
0.0472199
0.745442
0.230088
1.38439
0.172197
0.118729
0.238578
0.301836
0.705719
0.222673
0.200957
0.515291
0.164224
0.425111
1.47772
0.247351
0.965716
0.416709
0.492106
0.371637
1.54505
1.65119
0.17203
0.290652
0.203448
0.256531
0.601773
1.58512
0.723041
0.256906
0.332188
0.569961
0.900155
0.324384
0.0890578
0.144126
0.133929
0.282812
0.264414
0.359114
1.17394
0.873665
1.04941
0.0568905
0.264387
0.157733
0.528432
0.337877
0.332829
0.642747
0.576432
0.162248
0.464747
1.28214
0.0528885
0.226373
0.263519
0.395324
0.448763
0.389339
0.426951
0.665627
0.180489
1.26531
0.430996
0.3598
0.103928
0.746923
0.189209
0.0304905
0.196703
0.272619
0.207152
0.418453
0.196736
0.189251
0.168895
0.104088
0.634887
0.564705
1.12741
0.362817
2.21139
0.254194
0.0585572
0.206818
1.17201
0.741114
0.421346
0.197273
2.15031
0.214926
0.130363
0.413593
0.299795
0.218124
1.62079
0.188485
0.427429
1.29256
1.35314
0.479641
0.0911037
0.25525
0.151306
0.467778
0.46938
1.60774
0.190901
0.115081
0.370896
1.08091
0.125052
0.384678
1.87471
0.313594
0.144905
0.591004
0.40471
0.209302
0.459446
0.804008
0.219424
1.37569
0.191029
0.479731
0.510426
0.120944
0.140857
0.35012
0.523227
0.421864
1.62715
0.640525
0.801441
0.783778
0.846355
0.305717
0.923563
0.137885
0.895499
0.613891
0.493999
0.366505
1.49414
0.0418382
0.227095
0.0876801
0.568845
0.109535
1.1816
0.645046
0.181888
0.242691
0.127373
0.528581
1.18554
0.187458
2.40364
0.0498997
0.214329
0.162958
1.85945
0.119816
0.192752
0.888244
0.581857
0.362673
0.309678
0.048457
0.215672
1.65266
0.22929
0.733203
0.642527
0.226425
0.185478
0.0346241
0.220126
0.937251
0.241104
1.06782
0.132806
0.28084
0.23414
1.20882
0.0726646
1.31858
0.537587
0.527038
0.517915
0.528298
0.503147
0.508875
0.509324
0.548055
0.143567
0.15626
0.385378
0.288032
0.692492
0.185078
0.071564
0.224612
0.054713
0.239156
0.0695198
0.220011
0.570543
0.602483
0.61648
0.207764
0.62493
0.194632
0.27277
0.26491
0.505963
1.52609
0.243875
0.202651
0.314054
0.160715
0.237392
0.188603
0.326074
0.517158
0.109127
0.864979
0.0867849
1.55474
1.27603
0.320661
0.344359
0.225291
0.118363
0.211337
0.266893
0.264369
0.133335
0.215175
0.203246
0.0619091
0.245541
0.335222
0.899632
0.15857
0.249696
0.116094
0.244074
0.477396
0.724138
0.268039
0.248373
0.132361
0.180298
0.174589
0.131323
0.293911
0.112932
0.101217
1.22004
1.29511
0.291395
0.448036
1.55608
0.693773
0.269856
0.0954112
1.37377
0.0859859
0.215037
0.28623
0.186043
0.211269
0.217066
0.547123
0.401129
0.782945
0.758712
0.49189
0.0942688
0.116146
0.160192
0.156767
0.223087
1.98191
0.202404
0.488479
0.557508
0.524379
0.356627
0.227028
0.179944
0.501526
0.220033
0.131398
0.233283
0.211768
0.71466
0.181188
0.530099
1.50691
0.540648
0.937348
0.192187
0.190749
0.20757
0.0597375
0.107956
0.294023
0.0521941
0.0408158
0.140847
0.0348971
0.178259
0.250714
0.0328201
0.124582
0.0532794
1.74352
0.118118
0.267355
0.0413189
1.33193
0.0538566
0.477406
0.718177
2.00849
0.235117
0.0297855
0.217515
0.757522
0.182392
1.13548
1.35186
0.209719
0.265329
0.144533
0.0377371
0.0307223
0.833865
0.0644794
0.857865
1.13807
0.423648
0.163586
0.58461
1.27967
0.427527
0.24004
0.0334543
0.0313067
0.184322
0.221347
0.407904
0.657977
1.19704
0.920816
0.652222
0.0516934
1.44007
0.0649395
0.625071
0.0646812
0.252928
0.608925
0.260561
0.328108
0.233339
1.45957
0.661694
1.8988
0.100186
0.757634
0.978884
0.457668
0.476241
0.767325
0.19872
0.656424
1.81425
0.350457
0.119749
0.99077
1.13169
0.228353
0.267399
0.775332
1.44741
1.03803
1.06192
0.249989
1.5301
0.326595
0.951096
0.3334
0.935313
0.73617
0.197697
0.211192
0.242928
0.405375
2.21074
1.12396
1.11549
0.379007
1.68273
0.231427
1.2742
1.43535
0.316523
0.36419
0.255784
0.663644
0.0819913
0.0528703
0.249837
0.487794
0.276046
1.43603
1.60277
0.190767
1.12653
0.216212
0.461279
1.62718
1.01116
0.50397
0.620487
0.203106
0.403811
0.126208
0.211314
0.467956
1.82622
0.349553
0.608907
0.218577
0.125842
0.318731
0.309652
0.327482
1.55398
0.158007
0.202067
0.512538
0.886451
0.244403
0.301972
0.071965
0.785154
0.353177
0.355131
0.0571506
0.199842
0.231455
0.142381
0.256877
0.0611059
0.553436
0.812311
0.451125
1.26588
0.213733
0.385006
0.223921
0.213443
0.507988
0.0563913
0.201926
0.3345
0.132387
1.24526
1.32621
0.0829002
0.324842
0.930212
0.0894971
0.37508
0.391092
0.0581995
0.208969
0.637539
0.246803
1.7146
0.353417
0.676728
0.246143
0.880335
0.283682
0.344775
0.430676
0.246662
0.380584
0.239789
0.366899
0.0764518
1.08559
0.0594581
0.248193
0.250439
0.561867
0.796242
0.356117
0.140111
0.0869805
1.5052
0.145221
0.160434
0.13806
0.561389
0.422341
0.0356389
0.244675
0.166673
2.11409
1.5355
0.121386
0.207003
0.746499
0.0674873
1.11584
0.259615
1.2888
0.0440589
0.263937
1.14018
0.238604
0.223191
1.80768
0.799576
0.520015
0.287846
1.33021
0.068775
0.116661
0.238664
1.45474
1.12091
0.975897
0.0364412
0.267524
0.071844
0.336471
0.633779
2.05097
0.977959
0.604334
0.366328
0.205671
0.123617
0.159189
0.527508
0.856276
1.25214
0.195545
0.14737
0.333274
0.63527
1.54675
0.8592
0.43229
0.0962813
0.23019
1.1763
0.544642
0.0806973
2.01368
1.78588
0.823313
0.592298
0.238954
0.301737
0.80079
0.841585
1.16521
0.214842
1.90886
0.679101
0.34636
0.1794
1.45866
0.351673
0.359992
0.830917
1.49864
0.172171
0.223035
0.142281
1.58618
0.148072
0.254497
1.14419
0.262569
1.4797
0.430569
0.101112
1.71159
0.201174
0.27431
0.280455
0.413105
0.344128
0.612586
1.55817
0.0931671
1.01365
0.0725176
1.25132
0.836685
0.100924
0.303452
0.142336
0.255872
1.8121
0.830336
0.482543
0.845898
0.714818
0.0919295
0.199662
0.990608
0.270947
0.0902036
0.280779
0.202051
0.257054
2.13347
1.2747
1.27247
0.462395
1.60691
0.19508
0.166085
0.530646
1.50582
1.17206
0.396552
0.340903
0.467193
1.10861
0.223941
2.0665
0.242001
0.311424
0.127265
0.265377
0.276492
0.226326
0.387379
0.0992602
0.568039
0.686269
0.358286
0.135507
0.231352
0.387395
0.447559
1.66921
1.27976
1.90347
1.45685
0.238166
1.55841
0.756533
1.21163
0.22304
0.0765445
0.350879
0.258754
1.55284
0.168229
0.0960833
1.66956
0.229331
1.4778
0.998864
1.23566
0.902597
0.964676
0.328753
0.389632
1.32522
0.333918
0.42247
0.119129
0.294808
0.196019
0.1195
0.301593
0.987458
0.233326
0.249633
0.139673
0.078821
0.419061
1.32321
0.480684
1.37653
0.782763
0.356074
0.635701
0.120709
0.373248
0.380423
0.152014
0.266091
0.213746
0.209971
1.32313
0.231738
0.49322
0.0837424
0.242205
0.124531
0.267821
1.11185
0.0660608
0.146841
0.270699
0.212507
0.196884
0.22015
0.169826
0.521983
0.262896
0.158819
0.2633
0.23744
0.252301
0.538725
0.0707595
0.331353
0.214553
0.364944
0.245384
0.312186
1.39505
0.300123
0.0683629
0.205993
0.214982
0.394972
0.628014
0.0663306
0.267827
0.190311
0.185081
0.213585
0.681877
0.179929
0.244807
1.45407
0.313595
0.997762
0.288272
2.2975
0.234662
0.714016
1.31189
0.336606
0.110828
0.0716374
0.360516
0.0843579
0.922286
0.216649
1.53672
0.175808
0.780994
0.169223
0.0628653
0.320822
0.0730791
0.342464
0.276432
0.925519
0.318345
0.926476
0.6368
0.588905
0.6503
0.206541
0.472352
0.422341
1.44915
1.40197
0.313863
0.295316
1.50001
1.44927
2.01582
1.5276
0.768916
0.462123
0.207322
0.734
0.382729
0.263525
0.794448
1.54472
0.292139
0.567214
0.768429
)
;

boundaryField
{
    frontAndBack
    {
        type            empty;
    }
    wallOuter
    {
        type            kqRWallFunction;
        value           nonuniform List<scalar> 
90
(
0.443073
0.421346
0.413593
0.427429
0.479641
0.467778
0.46938
0.591004
0.40471
0.479731
0.510426
0.613891
0.493999
0.568845
0.528581
0.888244
0.537587
0.527038
0.517915
0.528298
0.503147
0.508875
0.509324
0.548055
0.505963
0.782945
0.758712
0.530099
0.540648
0.20757
0.0597375
0.107956
0.294023
0.0521941
0.0408158
0.0328201
0.0413189
0.0538566
0.477406
0.0297855
0.0377371
0.0307223
0.833865
0.0644794
0.0334543
0.0313067
0.0649395
0.625071
0.0646812
0.661694
0.775332
0.405375
0.461279
0.608907
0.512538
0.0571506
0.0611059
0.553436
0.812311
0.385006
0.507988
0.0563913
0.0829002
0.930212
0.637539
0.676728
0.880335
0.0764518
1.08559
0.0594581
0.520015
0.068775
0.975897
0.071844
0.977959
0.856276
0.43229
0.544642
0.0806973
0.823313
0.430569
1.01365
0.0725176
0.462395
0.358286
0.078821
1.11185
0.0660608
0.521983
0.394972
)
;
    }
    inlet
    {
        type            fixedValue;
        value           uniform 0.375;
    }
    outlet
    {
        type            zeroGradient;
    }
    wallInner
    {
        type            kqRWallFunction;
        value           nonuniform List<scalar> 
138
(
0.262096
0.195793
0.806047
0.456524
0.432292
0.120155
1.38306
0.572593
0.334497
0.345573
0.599314
0.74134
0.323296
0.0949897
0.110277
0.169071
0.154616
0.179111
0.242012
0.738338
1.80765
0.663589
0.127554
0.619661
0.644046
0.677549
0.571065
0.694574
0.599448
0.652487
0.630437
0.206861
0.215141
0.191225
0.020985
0.0945563
0.1819
0.175094
0.210429
0.171708
0.0762367
0.171271
0.186972
0.138614
0.18007
0.187416
0.109018
0.120573
0.162897
0.0252962
0.045939
0.178798
0.141835
0.178733
0.189181
0.174934
0.176236
0.0756977
0.199384
0.151859
0.153111
0.210999
0.0709347
0.177287
0.021648
0.199852
0.195829
0.256369
0.676605
0.126035
1.05077
0.209152
0.322125
0.237373
0.720424
0.196913
0.744514
0.275598
0.236663
0.213361
0.202008
1.14568
1.43896
0.932403
0.83814
1.29808
0.153293
0.0513947
0.612845
0.608946
0.188284
0.296643
0.118729
0.264414
0.0528885
0.0304905
0.196703
0.0911037
0.151306
0.313594
0.640525
0.137885
0.0876801
0.127373
0.581857
0.0346241
0.224612
0.61648
0.207764
0.109127
0.160192
0.71466
0.0348971
0.178259
0.0532794
0.58461
0.652222
0.0516934
0.757634
0.978884
0.126208
0.071965
0.785154
0.0894971
0.140111
0.145221
0.746499
0.0674873
0.123617
0.159189
0.101112
0.295316
0.734
0.382729
0.263525
1.54472
0.292139
0.768429
)
;
    }
    procBoundary0to1
    {
        type            processor;
        value           nonuniform List<scalar> 
29
(
0.858553
0.81484
0.870022
0.870022
1.54543
1.54543
2.04335
0.555522
1.26541
0.994669
0.740089
1.06491
0.596664
0.508645
1.40718
0.654864
2.17495
2.07561
1.09595
0.789427
0.344805
0.22927
1.44267
0.293535
0.290766
2.07561
0.259747
0.813875
0.293535
)
;
    }
    procBoundary0to2
    {
        type            processor;
        value           nonuniform List<scalar> 
42
(
1.47372
0.996776
0.104272
0.086314
0.145012
1.47372
0.104272
0.14086
0.122157
0.114143
0.223272
0.298359
0.223272
0.316278
0.329755
1.60552
0.329755
0.112747
0.116533
0.858988
0.858988
0.112747
0.102972
0.806373
0.806373
0.0886232
1.25361
0.0604953
1.65951
0.831901
0.831901
0.0461847
0.045247
0.0503327
0.0657866
0.104272
0.462796
0.0539129
1.65951
0.14086
0.136185
0.0980627
)
;
    }
}


// ************************************************************************* //
