/*--------------------------------*- C++ -*----------------------------------*\
| =========                 |                                                 |
| \\      /  F ield         | OpenFOAM: The Open Source CFD Toolbox           |
|  \\    /   O peration     | Version:  v1912                                 |
|   \\  /    A nd           | Website:  www.openfoam.com                      |
|    \\/     M anipulation  |                                                 |
\*---------------------------------------------------------------------------*/
FoamFile
{
    version     2.0;
    format      ascii;
    class       volScalarField;
    location    "0.32";
    object      epsilon;
}
// * * * * * * * * * * * * * * * * * * * * * * * * * * * * * * * * * * * * * //

dimensions      [0 2 -3 0 0 0 0];


internalField   nonuniform List<scalar> 
5794
(
5.59228
2.78895
4.57356
87.5413
23.2794
5.61126
7.2526
41.9383
117.637
12.5059
37.1859
1.55465
7.09061
4.03081
6.35389
0.521411
136.059
7.36922
5.49802
1.0307
75.8072
6.17688
23.641
3.99115
24.3421
107.02
101.914
39.5349
99.1925
1.62322
11.8284
4.80804
29.5866
3.37833
33.7249
21.3257
4.41448
1.29294
57.4317
15.402
34.9942
4.91684
9.24994
5.95817
5.99678
47.5658
4.8614
12.3759
6.5246
16.7131
0.405493
71.1241
12.5661
5.8652
0.161832
47.1362
6.62946
16.119
5.48928
231.876
56.9826
1.36409
7.9744
5.95276
33.9922
0.978425
38.7301
15.1981
2.26858
2.09202
88.9713
57.7489
102.887
2.50024
4.78392
49.5928
52.5949
69.379
5.80179
0.362245
2.70034
2.03464
23.2322
31.9392
8.40993
73.3226
35.6856
98.1865
3.81266
26.4561
126.401
39.1728
73.9219
113.257
42.3048
82.6143
93.6615
60.8308
38.9003
62.7618
52.937
2.22584
7.05212
5.01582
15.9659
50.7719
0.905546
11.0243
53.3178
6.002
1.12872
24.3028
61.2639
0.720859
38.8869
89.2538
3.71464
91.0538
51.797
21.8053
68.7994
8.69945
3.8427
45.3825
10.7598
49.8814
3.36614
4.63281
82.4413
14.0357
3.2845
8.02762
3.5451
57.5129
65.5343
6.95732
118.935
1.39743
0.197497
5.7353
10.2973
21.2817
14.8696
17.1951
0.582883
162.942
56.7071
42.5622
13.8803
46.6057
12.3911
3.7754
55.3809
1.58591
139.667
6.49821
37.7206
2.93707
77.076
2.27305
10.419
15.1339
1.56617
9.3277
74.2616
98.0122
8.47387
7.48806
1.19186
34.907
2.55295
36.076
13.1086
38.2015
2.25139
19.4461
5.50779
26.3078
10.9319
102.71
2.21759
11.9035
12.0837
73.8983
6.65328
98.9103
3.04835
17.3724
9.50157
2.11029
46.8735
6.48697
38.8012
13.0178
7.05164
2.26817
36.6564
41.0752
5.7298
6.67284
11.7877
78.7148
10.5857
6.26458
5.47219
55.8699
19.8531
25.6729
11.2901
56.9728
6.55183
10.2453
12.968
17.473
5.83712
28.4008
20.2945
3.52966
30.6264
83.5622
9.79306
46.8912
169.936
68.4623
134.893
39.5076
3.18444
19.0977
5.94017
5.16569
33.3553
44.2204
1.9222
41.4533
1.09783
22.4743
17.4873
28.5337
8.01103
2.03363
2.64111
67.8871
45.8994
1.59536
1.13005
2.32032
6.59633
7.87759
167.854
91.4833
35.2923
0.796417
148.657
0.4369
4.89605
23.8639
6.58962
16.0199
23.3738
11.8522
69.4119
9.81627
13.7067
0.889874
21.8175
30.6202
32.5013
72.49
13.8158
54.7638
5.06199
10.9038
25.0001
88.0812
16.2553
4.86423
5.59969
5.31725
0.662366
8.60488
50.1748
92.0718
35.5919
5.1125
21.3211
112.256
31.2897
55.814
145.157
73.0935
24.696
41.222
2.10185
7.54425
4.80247
98.6901
65.838
5.52071
39.256
0.71263
2.70259
55.488
2.35387
55.8996
4.18365
75.8935
0.426024
1.4273
61.5922
5.46027
9.61236
43.9659
64.1256
0.644839
9.8458
34.8267
15.1059
38.9751
55.6233
138.151
32.1824
5.63948
102.672
15.5696
0.317389
30.3005
3.25664
1.6776
6.14225
34.9866
91.9095
8.5083
9.61168
27.1324
4.54444
11.8334
15.8402
1.43712
7.52725
8.85003
5.34204
27.3776
101.13
29.7893
5.72117
9.9523
112.113
17.1249
115.929
1.25589
78.2245
141.803
54.1696
8.94567
13.4812
54.8461
5.62286
93.0905
8.70631
37.1816
19.6621
1.02089
91.9227
6.84426
33.0345
5.82542
83.8961
59.4551
6.71879
17.8184
4.3288
1.59695
7.31436
0.251296
26.5903
60.5734
46.1906
10.343
26.1665
0.103809
17.4966
3.46605
12.5248
21.408
25.9104
4.5553
106.178
7.34135
14.1019
9.03601
5.79292
68.9278
1.87361
26.7046
9.08276
49.9414
2.25707
4.46465
7.99521
19.514
6.98351
24.0423
38.0953
1.35955
25.0411
38.6903
12.0728
6.40046
0.886364
86.6978
59.0413
32.5605
34.5452
33.8699
72.1313
6.69358
9.6172
1.85267
64.1279
92.3316
38.5668
59.1623
19.0961
5.16416
14.4591
27.4215
1.98429
0.732019
1.52038
3.76596
70.0549
5.77142
24.3592
91.3111
5.36763
6.14939
9.76862
15.8254
15.2838
20.1772
2.96687
8.13083
7.15398
2.61415
4.3181
96.8815
39.566
0.216573
5.80246
69.6231
17.3157
1.09023
114.901
6.53264
84.7924
1.04249
85.7391
97.9962
48.3024
174.389
4.70772
0.917584
22.2
3.5785
69.4895
13.3843
31.3363
28.1394
17.7028
5.3839
0.365418
14.8463
53.3021
8.38551
13.9549
90.5147
34.4127
39.0242
2.03524
1.04467
32.2218
4.16378
6.74732
5.50412
18.1287
33.9178
10.1622
5.7794
98.2205
3.76266
1.54657
112.049
109.296
8.70246
20.0298
2.71771
2.51903
3.6099
0.455994
33.5351
19.8753
27.0288
8.57795
19.4065
16.7143
1.03388
1.8951
26.7263
41.5578
0.827762
78.4488
0.276993
16.1162
0.554353
0.411345
37.8028
81.9131
0.435349
5.54441
37.3628
3.33184
0.70126
25.3201
77.9829
12.386
3.58467
2.90582
48.6
0.84655
7.99926
25.4072
0.491112
30.1319
2.63769
6.00264
11.7027
6.62066
147.607
12.0419
55.4392
4.20273
112.311
1.25433
4.31581
3.59553
0.316836
5.50848
15.3343
0.532884
4.81331
5.86698
0.231614
6.877
3.71174
4.95601
25.8059
21.9084
7.91021
0.886226
34.0464
218.112
1.54144
54.5208
5.57948
4.55168
2.81805
0.701356
14.2863
3.63106
0.855726
77.7351
33.6433
101.889
103.481
109.935
8.96373
26.6045
31.4922
5.19167
72.0921
93.6034
28.9906
117.05
30.0003
114.977
48.0175
0.692088
73.8932
26.4777
102.317
0.817467
4.02741
1.48754
105.726
30.8459
39.532
0.09284
9.34359
0.407916
13.8218
2.4623
88.2826
31.9919
116.656
0.709859
8.3331
140.533
14.2587
0.207847
3.58775
24.486
28.9157
4.72789
10.081
1.94548
5.65857
29.8109
33.7645
7.22536
25.5423
1.23772
41.1042
61.8335
17.0174
1.18146
4.09945
0.58448
29.8404
91.2118
0.638503
3.5039
2.04032
0.773619
2.57601
0.75494
6.46504
64.2055
26.4933
5.22238
34.5056
3.04364
7.87849
29.7093
25.8811
120.501
148.271
43.6703
48.2065
0.847812
0.947865
2.84992
2.81702
2.0222
5.7307
2.85704
76.1932
51.119
30.2356
53.7714
4.48932
0.146837
7.61728
5.2819
48.8689
1.18209
51.7348
155.587
113.754
33.4323
53.0624
30.2403
4.51264
41.4489
31.8093
40.6209
35.5087
125.421
4.92413
5.76736
2.01709
2.31141
34.9587
6.04876
0.351508
40.7339
131.972
146.456
3.49621
1.08944
0.260012
7.90608
186.001
56.3215
48.8349
6.97645
45.0982
22.1225
1.84576
0.872874
9.84592
6.30487
7.57256
0.602963
16.2815
31.6258
157.975
8.95676
6.00336
1.28028
135.301
18.2175
199.942
52.5952
97.0969
43.4317
16.2599
8.71924
80.9937
45.0077
50.9886
49.3116
79.6964
147.769
3.13772
21.2786
4.73743
12.8892
28.3315
109.799
38.0385
48.7199
42.9709
132.717
25.7509
7.28833
6.2614
61.1799
11.5083
39.2979
68.6032
110.015
1.5066
1.27253
8.78545
4.64513
103.219
27.1525
143.62
15.0995
9.00636
2.82853
2.67197
5.50562
0.77785
32.5107
105.961
5.09928
119.625
43.6533
7.77586
2.61255
24.8746
92.194
47.0159
157.512
110.671
33.6437
59.5161
4.81705
67.2421
28.1261
96.5285
27.1868
1.46314
11.2628
1.74949
3.11211
2.78037
19.5694
5.04727
28.0375
62.9086
17.7419
6.49453
0.793617
95.7814
29.7406
26.5418
100.204
29.0775
0.349309
89.4346
80.8779
32.3441
10.074
31.6459
1.28289
167.929
4.71113
67.7965
9.63802
16.5811
6.14713
0.277631
2.90193
6.31028
27.4481
56.4907
79.1336
203.74
52.4265
6.87207
4.12467
30.416
173.884
2.57143
0.810565
13.7013
81.048
0.925633
6.63145
20.0073
42.3846
31.8223
0.615643
17.4669
4.53499
8.14347
5.86426
25.7927
80.2536
95.1978
9.34592
3.33741
81.7097
7.93243
4.79644
111.234
3.12594
3.52836
9.45212
0.851778
21.8286
1.74161
25.283
0.325331
11.7644
5.72194
10.7517
28.8708
33.5985
125.547
46.8453
35.9087
69.8673
37.4104
36.1115
40.6341
0.324979
1.36772
5.13597
37.8639
4.89314
5.41381
213.483
59.1848
67.117
17.7147
4.70723
21.0023
0.381797
14.172
48.822
4.86692
232.041
3.53337
2.86668
54.6195
14.9622
6.38684
1.77086
1.58264
14.3318
6.50873
1.10145
2.81795
51.7633
74.603
6.36704
10.1089
32.3157
7.43817
42.1826
143.453
100.913
91.842
21.1077
2.90932
1.45536
22.191
0.759639
0.196169
0.766263
3.94021
23.0624
1.22219
7.3756
0.736004
19.9074
78.1468
6.69458
8.13497
7.88239
16.213
35.55
38.6267
81.6018
6.30787
0.769285
35.4104
11.4914
29.1135
7.49574
109.669
59.1597
65.3121
3.63495
106.151
96.4964
6.72256
5.70402
6.89962
5.44472
1.88563
73.3751
14.6055
45.5076
90.4511
38.271
58.6769
42.4402
10.9102
0.88701
6.24933
10.9557
0.775552
18.5722
26.7469
152.213
6.96206
77.1955
79.4576
1.21103
6.381
26.5401
41.5747
10.0482
5.6849
22.8631
68.6268
6.62282
29.0757
1.56901
6.35146
1.79457
1.18699
1.24637
6.78274
0.230864
0.83134
0.839199
2.12512
7.97997
29.6411
5.36118
1.15275
0.739677
66.9424
9.72123
72.7281
4.4586
49.3247
0.858344
41.5741
4.76036
6.80976
2.88864
15.4291
46.5305
2.25791
10.005
7.37353
0.220898
9.23585
75.1127
21.5647
28.3273
187.701
0.369306
11.074
28.7678
20.2899
23.0836
33.4481
50.3418
98.4327
4.58928
3.80094
0.748134
0.555065
17.9519
10.6691
140.153
133.869
120.202
0.392503
29.0224
128.892
65.3601
60.9682
42.5104
1.04549
7.7052
0.873297
37.2007
11.0399
18.6548
4.55044
2.76486
4.40135
4.82046
10.0419
100.799
2.349
3.6181
19.4054
33.0664
12.2295
1.03556
8.21228
38.4937
0.646699
7.75786
4.45808
6.86952
17.2097
0.548865
31.7247
1.19878
10.3896
21.5633
2.08375
29.3618
9.1438
0.488561
4.63868
13.4073
0.223273
91.1242
19.217
1.59385
0.85617
16.0948
0.0986159
0.889756
10.3788
2.24174
0.105959
2.27604
28.8648
12.4641
62.4178
24.9275
8.41027
113.424
32.686
0.117947
1.661
12.8714
4.45711
24.5247
61.6263
0.131245
22.5901
0.388478
19.0332
1.56171
58.3859
2.61717
19.4904
58.8328
0.617452
35.9508
4.40151
0.13478
6.50925
4.91464
30.5426
33.6749
0.678465
37.8311
0.488632
0.673861
16.8985
0.889001
3.43235
9.94501
4.32015
22.1357
6.3846
82.3238
0.598706
1.05166
0.834741
4.49834
9.94051
17.5693
4.16678
28.6091
7.67055
18.3291
28.3595
4.56443
1.0933
5.17593
12.167
13.0343
12.4399
7.03885
109.761
85.2607
60.5986
20.0323
102.421
8.41128
8.42832
10.6069
3.39527
2.22964
0.297768
618.351
40.0924
0.476805
5.22363
57.607
53.7401
8.69133
2.75094
2.28581
27.6237
11.4152
1.64888
27.5052
7.28529
60.1522
5.07741
23.6001
4.51445
0.295909
7.32748
5.04074
2.26431
31.5349
0.958005
49.8145
7.49775
26.8319
11.9493
26.3469
4.31316
21.3517
9.25866
17.8314
11.4324
4.41579
5.08526
9.50211
23.1113
9.65671
5.60797
1.60107
2.59296
18.1548
3.73001
20.0061
53.5497
7.59508
7.75438
6.28952
6.71986
6.75223
32.06
17.5939
11.1349
23.1394
0.175024
37.0417
1.09203
184.015
0.56648
0.118105
6.79766
0.888436
0.968948
48.5067
5.84619
5.91533
2.70116
2.64385
40.4916
201.879
84.9711
1.82916
1.92218
3.39617
3.55484
59.0126
23.6683
6.18672
8.62679
0.558338
24.9652
5.89191
6.94783
43.5694
8.72804
7.45938
34.5776
9.63025
0.700223
35.3141
83.0509
32.0769
12.3
7.49466
5.44129
0.683964
83.9043
23.2051
3.83837
75.5129
1.29866
0.561375
37.3515
9.99609
76.579
0.149273
13.1096
54.0184
0.200694
0.32095
2.3581
0.703149
1.56484
8.72583
5.81934
37.7395
0.436776
4.0429
28.5881
131.81
13.5335
9.73999
27.9805
4.42049
101.434
0.239022
4.87185
118.125
24.0897
71.5852
9.10855
27.2491
35.8865
32.4578
6.84047
10.9488
0.468781
14.8844
0.192431
10.1521
9.06004
6.20713
8.49461
12.1793
5.0892
8.94633
24.661
0.210689
1.18478
7.40385
11.1772
0.176372
8.61104
68.472
9.36261
49.9997
41.8661
8.70147
1.37831
134.102
0.25458
30.5584
13.2096
4.80345
12.3074
1.89205
21.6069
0.607278
12.7316
0.594456
18.3693
0.121233
10.8444
53.1002
35.1281
7.61762
41.8944
29.7272
7.94388
8.86145
0.81084
24.9861
4.90358
12.3112
81.3548
7.33228
0.317868
6.42583
35.679
40.3112
155.761
84.3667
79.6528
74.2413
17.8515
0.236119
8.26057
20.7175
4.74192
87.8347
0.265595
0.24665
4.09196
15.6383
0.225502
6.07801
14.6878
2.6441
3.17566
5.95456
5.29432
1.34684
7.60895
8.39837
31.5616
17.3015
0.597184
29.575
35.5649
11.7814
18.2437
4.07826
57.0306
0.204886
1.3146
0.369245
6.37687
323.132
11.3934
51.3103
28.0479
75.2338
89.5954
16.6484
19.8224
0.577354
0.779658
0.265258
0.204407
12.7142
7.27346
0.854613
12.2273
0.172831
0.616926
3.84738
13.3741
2.18489
1.19604
0.168265
9.79879
8.05367
1.00351
8.47409
3.23421
0.641934
1.3153
0.10694
0.305393
20.439
3.36734
5.46395
0.448058
2.27741
13.321
4.37714
0.893335
0.489898
0.558515
0.469644
0.35265
17.9266
0.754834
0.12794
3.4156
0.661856
4.94788
18.5424
1.85053
11.5914
22.0572
0.149893
2.6997
37.0579
102.835
24.0111
1.14971
0.218614
16.6465
2.05139
23.5104
107.002
182.762
23.5626
115.107
30.814
0.110256
0.110611
0.209212
6.13601
4.27097
25.5438
0.181963
4.909
6.99534
2.41956
19.866
15.1595
11.3529
16.3637
9.10022
241.848
4.30952
6.22453
6.65326
12.04
39.9382
8.61932
70.7218
3.95076
28.7642
41.2432
9.1059
18.1693
12.913
11.5027
13.9062
541.375
3.82707
3.35749
1.18918
3.00172
8.89388
11.7075
66.2702
2.52765
0.848672
0.284404
8.46021
15.4499
0.321484
9.75869
0.157043
0.753603
2.44307
0.238734
15.4718
4.86104
0.307372
21.1006
4.19076
10.8487
3.44749
1.28877
1.04559
1.33008
0.571843
20.5521
0.684557
41.2051
67.4807
9.58323
18.8058
6.18838
13.9164
3.87878
0.356418
57.9573
20.9657
13.457
39.9614
9.24125
11.3336
0.153823
9.95249
33.7016
7.51185
30.9693
101.728
19.2784
0.19242
39.3726
31.8335
4.83652
43.1828
13.1055
65.1854
0.433602
3.99212
0.346956
18.8749
5.42801
3.1201
14.3594
0.187928
135.711
0.254863
107.298
5.29288
0.336008
0.116083
110.488
0.248368
0.454941
5.12929
4.55515
128.186
10.7424
100.359
21.9121
8.23962
17.625
29.5559
1.51978
9.13247
7.41131
89.0802
39.7917
17.2412
0.982637
60.6797
6.43336
25.4086
10.2579
3.90481
0.142541
6.52996
9.60236
0.879483
3.54828
7.94
0.109354
6.54507
112.029
109.751
12.6238
9.23606
74.9039
0.121678
21.4959
18.8451
3.8335
18.2614
43.9609
4.53066
59.3793
0.170565
10.2894
7.27934
2.2612
7.68237
18.396
8.72984
12.5555
24.3173
0.753407
0.57171
2.20465
19.2749
3.74373
15.5344
210.121
65.7869
41.3975
41.1647
15.2764
25.27
24.0732
89.1648
41.7665
14.9152
40.2746
13.6984
34.5322
133.913
100.269
8.68944
65.5719
31.298
17.187
16.8609
3.14949
49.129
49.0767
10.5048
60.8259
17.2924
103.338
18.1291
5.71704
71.7948
4.65495
13.794
32.4215
0.503309
0.793261
14.9441
61.4333
2.73282
0.462472
9.16651
30.2591
29.3118
41.1922
22.0736
34.0743
43.8744
30.1059
6.42066
35.673
35.4128
43.9013
20.3861
32.7733
21.6238
42.8358
35.4815
44.107
13.0653
9.65031
6.04812
37.799
4.10369
7.58456
8.33337
3.19756
0.259185
10.2816
14.1272
13.4783
9.16785
0.806181
2.11886
61.4974
11.9875
33.9694
19.0469
11.8223
2.20644
5.64446
14.2021
24.2595
6.7253
101.928
18.5427
5.31903
4.89149
5.68651
0.37519
42.3874
0.567628
13.0925
2.56353
0.28539
4.92958
2.28028
3.14265
2.40292
2.9039
3.07713
72.1687
3.28554
4.81174
5.92848
3.57728
48.0777
122.592
3.39477
87.6428
25.8295
5.30481
146.375
7.78589
6.30598
126.337
24.264
104.555
4.65987
4.84891
127.35
127.837
72.7915
5.12519
4.58657
7.04603
6.35825
6.91821
110.409
3.85114
2.43903
34.9122
2.58418
6.0526
16.4184
5.80149
48.2906
33.6303
11.7476
102.822
96.6772
7.71024
100.673
3.56398
38.1088
13.4768
16.0921
135.731
8.38875
97.6194
14.3652
42.3211
11.5974
69.8592
93.3689
8.69786
94.7264
53.8274
5.23894
16.5685
46.6284
9.90407
6.64634
56.9165
8.05182
61.9077
39.1301
34.2793
8.82282
28.1022
6.3138
127.412
7.2837
6.09946
14.1486
227.485
2.52692
7.66976
0.41523
33.0519
18.341
5.28163
13.4131
4.4323
5.47433
1.34597
5.8631
7.58832
6.90128
4.93649
5.57502
9.62858
3.08851
19.035
42.8516
9.3998
29.3978
6.14091
5.14475
4.88051
3.40856
4.99423
21.2828
9.13299
11.3799
0.245293
6.82432
8.53295
58.6654
6.04029
4.09007
5.89975
12.4444
2.6515
5.11453
7.07746
7.68225
3.33222
4.63833
21.8025
8.24092
4.19052
40.8174
4.57926
5.52309
7.78399
1.26647
9.38041
21.7534
11.0156
2.024
7.34509
3.7567
5.07566
6.58157
12.7038
19.3129
1.88709
17.0022
3.36814
5.42414
1.30331
1.37767
19.4092
17.5466
20.9542
17.6932
1.96931
6.10955
4.0797
18.4281
12.6562
6.06614
0.547861
7.82279
1.37622
0.404126
8.19202
5.5424
58.607
10.3022
11.3109
5.79004
4.53692
1.37842
29.4323
60.9625
7.89524
24.5877
2.51737
55.3666
35.4776
3.58409
20.9029
0.822764
29.0979
0.428432
46.5109
22.2493
3.5562
24.5029
28.1546
16.5706
7.75849
0.875625
0.598468
35.4375
6.82439
20.9921
27.4238
40.3395
7.94787
0.63878
0.474263
67.6877
9.8166
6.91399
36.9922
81.3962
6.13563
20.3035
8.53304
49.8925
9.79352
3.06819
26.1934
11.4676
8.55056
42.7462
1.19432
64.9446
11.8559
41.4233
52.432
11.1449
0.730966
0.469295
12.7955
7.35152
113.646
32.8836
75.9231
0.393144
48.4297
35.5695
3.1494
5.59434
4.73666
5.12724
12.2566
32.5992
59.1369
63.2207
0.943442
12.5261
47.1851
59.6844
28.5533
66.2234
7.5584
52.6862
6.22885
16.2762
145.356
11.0656
5.72503
12.0868
10.1631
7.39982
12.943
3.68077
30.1083
7.84873
69.6417
27.2967
42.7067
9.93492
0.691921
0.487123
38.1152
71.4651
8.12703
33.5507
69.1297
73.9832
109.439
5.87027
10.3795
34.649
21.1843
0.395721
38.066
3.52866
55.8729
88.6376
4.81401
9.356
176.823
14.8657
4.55711
41.8633
25.2567
29.8473
24.023
3.04251
113.264
64.8122
1.06781
36.6128
6.99974
4.14756
20.6116
12.9397
6.59247
46.4141
5.01463
6.62079
44.6634
14.6032
0.869813
0.478946
115.041
107.656
13.0412
13.7798
163.308
144.477
21.2152
6.26976
82.8118
5.77036
9.222
39.6529
0.322964
45.3518
3.91122
3.6367
6.98488
150.736
80.6285
109.857
5.4126
156.621
86.7444
40.2206
7.76846
23.421
7.95301
11.3731
4.54832
5.69423
5.94893
3.30827
11.7214
55.4234
5.72794
4.84138
33.1135
14.5298
30.2564
34.6671
19.1406
37.4408
3.3953
41.475
2.1067
0.565501
151.783
67.2353
42.6402
68.5978
72.379
39.2758
4.34488
5.32373
4.87204
8.21245
4.88916
10.233
0.745463
0.443213
1.35694
0.900314
0.840146
88.773
112.73
15.1206
53.8421
10.217
26.6902
3.77853
31.2515
18.8195
3.76133
14.0441
2.91852
7.30592
6.36106
81.1234
18.3429
11.3414
0.238202
64.0377
4.83706
3.13286
32.993
38.963
99.2369
5.89763
11.3232
31.379
127.5
25.9438
11.0295
0.233465
0.290788
8.61998
7.3984
21.4024
6.29236
0.546828
0.684259
26.7622
4.7945
15.9168
125.544
3.59772
17.2692
6.01296
6.5098
3.52978
52.4124
179.104
42.0899
1.09719
3.03902
32.9996
64.675
7.14178
23.4632
6.95353
4.83163
8.217
4.85845
0.523553
9.65845
6.26929
0.176937
6.83424
3.80584
6.5631
8.80464
8.02875
20.9946
3.84812
20.5773
16.9779
4.28817
4.83682
44.7473
4.5
5.2009
11.5061
31.5661
6.32324
38.2167
102.174
8.00356
51.4484
4.89773
179.276
25.7282
73.2228
0.302055
107.229
4.58321
30.2146
5.53895
0.361531
104.735
7.90368
26.197
4.5868
9.76503
8.16025
5.34141
84.3493
59.7907
1.65372
20.7149
10.1855
22.9677
14.584
0.949187
0.507704
29.4717
25.5104
9.07015
6.51174
1.11995
147.271
41.7088
207.255
144.543
35.5688
55.8486
8.85602
2.7878
31.3243
18.6626
5.98682
13.0744
18.7086
1.58564
7.82455
35.3947
105.571
71.9192
8.48354
9.58113
108.281
9.51428
7.16225
3.32988
6.01794
122.132
9.0083
20.1401
85.8889
118.86
25.3577
3.1937
5.18904
58.1796
9.30772
13.7479
31.5922
10.4099
32.0919
4.42265
23.8263
63.4045
152.001
11.8469
5.78228
2.39955
0.383371
37.0899
20.364
11.0881
127.67
85.6687
314.408
2.0392
6.33747
10.4025
18.4153
2.85161
189.77
45.6431
4.98096
0.452627
11.5872
0.183525
2.44036
26.882
51.661
22.0773
61.925
38.1778
67.7398
5.45105
16.7406
132.51
23.5903
27.6618
511.85
4.84788
7.37463
43.83
128.544
45.5954
26.391
52.912
4.69506
2.59015
36.4569
5.73842
16.1131
43.4671
0.670582
15.7916
2.38202
93.0025
5.8971
59.2669
6.77338
20.0586
13.1223
54.0793
12.0482
85.714
1.74554
172.539
2.72103
4.85924
7.72605
0.876308
2.22808
74.8566
18.2021
67.9878
11.8351
93.315
166.01
9.42582
28.172
4.59857
5.14189
12.981
0.215669
20.025
51.1292
4.63286
4.02059
36.8364
75.6642
20.1771
107.959
4.30874
45.035
5.62852
122.51
5.88267
5.12232
0.209525
10.7592
12.804
49.5454
6.26207
19.9628
90.1777
10.9816
5.71742
89.1973
3.5937
2.75788
66.5548
3.04591
3.74157
3.55733
11.7618
32.8683
4.62577
31.7891
76.2839
0.805811
16.8521
17.6376
24.3882
60.8562
5.38697
45.3522
32.6421
20.4678
13.7256
10.4662
9.23028
5.68573
0.771363
0.46965
17.9469
67.8811
6.50612
7.0914
111.329
7.74704
16.1633
50.5788
5.83327
4.9955
3.16435
70.5683
4.49794
0.523558
1.31582
9.53778
26.2602
11.5447
4.09051
2.95965
79.0661
32.6532
5.42503
41.3499
138.024
90.3455
29.1329
80.7307
0.493703
44.4519
125.891
10.4886
0.824609
0.488003
0.986448
4.91149
4.74306
57.1891
1.56511
33.0591
4.35929
9.87368
20.0515
119.88
4.69817
61.4746
3.40898
23.4711
75.3447
24.476
4.72504
13.7947
0.961082
0.53357
40.8161
13.3635
17.3742
95.438
14.9847
30.2129
230.188
58.2092
47.588
0.409898
87.1564
0.133411
6.09401
62.856
28.357
11.5827
2.89223
7.39465
18.359
53.9128
0.401197
5.60528
7.76535
68.2232
8.08048
5.23406
4.39988
27.8087
43.0331
33.3404
2.21175
38.5711
80.0322
132.12
36.86
9.67392
5.02395
46.1273
21.8383
66.5736
5.61198
7.48311
6.14184
17.2439
0.893769
4.22904
21.2937
9.43255
38.009
0.148152
8.49437
128.5
30.1754
1.3155
10.193
8.90503
3.6922
52.0811
26.2439
2.4066
2.23962
0.532431
0.554323
10.5015
6.24501
104.591
0.737981
21.7589
11.4398
17.2542
0.950342
14.938
9.22282
116.082
10.0253
0.736932
0.472692
5.44331
29.1115
5.22064
2.76145
0.0928617
12.0985
2.42139
0.749355
5.83883
14.1788
5.91642
24.0225
19.6154
5.07054
40.2249
4.54437
12.8747
2.3602
0.350455
2.48636
2.87231
4.45586
10.9159
2.15666
33.722
2.3857
33.1325
53.5362
4.13077
6.35623
7.68916
46.5289
19.2743
8.40555
10.2521
0.820156
0.499595
4.68535
0.733323
34.3058
250.671
8.76959
2.64268
1.61367
3.56061
0.131172
26.8037
6.29118
87.7986
23.3561
5.48221
106.271
0.296161
2.41393
4.9119
50.4867
2.76674
132.867
3.74685
14.4781
0.72718
6.82444
2.49145
5.69318
13.608
20.7787
22.5251
6.86189
1.68653
5.52813
0.213392
8.16493
4.52034
17.4563
30.1526
90.7925
8.51379
16.1075
30.3175
4.76076
16.1185
4.62769
26.2335
4.13426
10.9825
53.3757
51.7725
10.7925
0.722061
2.70768
0.294864
2.18783
9.93466
0.838362
7.03157
9.69411
107.709
7.58278
15.6407
11.0238
8.35834
32.5678
26.801
30.7323
15.1258
4.68573
5.82843
16.7681
7.23799
11.8081
4.40359
7.03743
26.6562
0.123521
7.14435
15.9394
0.461687
6.47969
0.70952
0.318366
0.828723
0.10504
23.9245
0.307614
2.23522
2.09582
8.69752
4.39774
0.344856
1.29977
37.2687
16.9454
13.6869
32.2737
9.78782
18.4664
8.1593
87.4742
50.4037
7.40906
105.642
15.848
3.98902
94.633
159.081
36.8829
0.592679
0.476137
0.247115
0.482328
0.51314
7.65089
30.4538
86.3381
0.356706
0.436829
2.18921
10.3049
10.1436
29.1659
0.164965
0.147523
59.5787
10.3342
38.3186
53.2235
4.62568
10.8545
28.2263
23.3323
91.7645
0.270644
13.6856
27.284
18.1364
42.6154
8.74585
0.244798
3.20418
17.6967
5.66316
0.776806
7.42593
0.706152
7.3465
6.40218
13.7566
4.07569
0.316357
5.64425
52.6979
91.8233
0.890401
2.99222
0.146247
5.03099
20.4127
9.29119
34.1546
6.94766
0.23341
56.2874
7.99103
3.55114
120.264
46.8983
59.2502
27.8899
1.11953
4.48149
22.3942
39.8236
3.42351
0.548756
56.7544
1.91876
62.2526
3.54722
0.950284
9.78357
3.03348
9.19734
2.63163
4.11786
33.7951
3.92918
4.36314
1.44238
4.72229
12.7641
159.328
3.90131
3.58779
9.7983
0.667205
0.504105
0.40084
19.7546
0.419687
3.4716
6.23968
13.4018
89.9499
7.09581
12.1165
25.356
8.11106
4.91081
195.792
4.40288
16.7343
32.7915
5.80274
185.231
12.2183
0.783184
0.550066
48.4561
4.12153
9.67782
4.64887
1.58497
2.91993
41.2625
87.6454
32.7839
14.9112
13.2084
157.333
31.6083
30.088
14.4475
5.95476
13.9363
119.207
22.2521
151.692
61.6453
0.752024
1.42193
3.36867
38.5974
9.66532
64.2647
48.5686
17.823
16.1485
6.09465
20.7455
2.03132
0.704112
8.95313
0.460888
1.7828
32.3786
8.23957
4.71375
16.6118
7.47284
12.8568
9.75268
25.1379
69.4403
17.6307
0.328178
3.1755
1.99524
45.6402
2.43527
32.962
3.77652
6.78089
5.20156
14.51
103.323
5.18424
13.222
23.8714
75.1814
2.44118
2.70324
0.495013
23.8858
72.0697
6.01772
6.87563
42.6963
3.89314
23.2407
9.63878
5.32411
25.7094
84.2317
59.3708
16.5847
9.38451
0.14505
18.5977
0.140042
26.246
68.6022
21.8057
5.31824
8.60339
26.0583
24.9242
11.6473
0.15267
29.5671
3.01882
0.132756
0.729026
17.1853
91.5301
35.6908
5.8456
13.4508
1.81972
3.64816
0.166047
0.162604
0.981942
10.7072
28.5298
2.81225
28.5599
7.9904
4.19967
8.43449
66.3521
11.7148
0.184605
3.33646
4.19695
189.007
79.3589
46.6024
2.18033
0.884249
88.6601
10.2727
18.7473
12.3035
7.96887
3.14564
141.044
7.72346
25.8691
8.32676
38.762
14.3928
5.11566
86.0677
0.302804
2.23567
3.09919
7.80097
1.6698
0.407121
0.92342
2.28149
5.14402
18.1857
5.94967
12.3099
11.0592
28.9189
5.04549
13.9409
7.83521
13.1112
150.515
1.14056
16.3939
0.962493
14.4578
62.2898
0.49693
19.8072
23.3952
7.35993
7.78064
1.59117
2.09972
40.1146
18.8705
51.9658
119.956
22.2159
75.4065
0.394563
27.6213
78.9938
5.38563
111.084
19.1753
2.82797
22.9978
10.0697
12.5639
37.5658
26.2845
8.27524
0.350484
0.809353
12.43
5.21165
4.30787
5.92501
29.1308
31.7405
0.903235
0.402107
2.09789
17.9609
67.6754
2.75805
0.240988
13.0556
4.6414
29.1069
18.18
4.73781
102.048
26.0115
4.07232
32.1168
71.1321
0.297022
47.3825
29.4263
2.34544
40.4942
41.0003
17.3328
0.881992
0.130108
1.87022
3.98416
2.16195
7.21628
9.82857
65.2762
52.9877
41.8498
139.376
26.2986
54.6924
57.9051
5.88405
25.1731
5.73552
23.4802
7.06723
69.9945
159.915
113.947
44.773
2.13505
2.75517
44.036
42.6085
21.1011
0.412731
2.52099
107.892
30.2021
8.64813
11.8654
111.494
1.36232
54.6011
26.54
82.052
31.244
111.403
0.171747
88.5891
0.749684
13.2404
0.468507
61.5079
24.291
58.7196
0.411579
2.18274
115.542
3.08679
1.518
85.4071
6.06384
37.7966
58.0336
179.547
63.2883
0.368504
1.27104
49.9347
47.7109
224.251
89.8021
152.872
8.54404
8.64447
88.6982
94.1349
0.61554
0.38368
10.294
0.982466
2.22241
6.72828
13.4392
10.9147
4.23902
11.921
15.9635
9.91013
108.015
125.323
97.095
8.74967
33.4401
9.3589
10.7911
17.2931
19.8559
166.687
122.976
40.641
65.0601
16.8299
68.4278
10.0273
0.309125
177.404
88.705
4.45869
14.2114
0.829194
8.65304
34.2092
126.684
2.87014
21.3562
3.34461
96.0316
0.719649
12.4522
0.491531
3.42058
0.273556
3.15311
120.181
26.7882
1.75505
141.633
1.34534
2.08472
53.0857
4.65793
49.4916
6.52588
9.12107
70.8611
2.64219
9.44104
4.50048
45.5385
16.4904
4.27441
44.0138
79.4176
31.5524
41.0151
30.281
7.22467
30.41
50.0898
0.221424
9.14578
43.8672
3.17301
13.9622
158.116
10.343
91.7676
3.21463
1.11733
0.673149
0.459692
14.022
90.9279
79.9163
91.3469
5.44239
25.8208
5.87407
11.1083
12.1623
8.21366
5.60584
4.44144
7.63727
10.9722
0.337301
0.307467
0.606552
129.287
2.85793
9.39787
60.456
156.918
120.98
146.368
42.9027
5.6977
48.2755
2.12608
2.77206
59.1167
159.969
7.50336
6.90153
0.917756
11.3402
23.1082
94.1287
2.96089
5.59575
27.3717
12.0344
1.83822
4.08393
0.285057
3.54636
8.5625
120.129
55.7273
6.10067
108.413
29.1963
3.94729
45.6593
24.1591
45.6553
5.86469
23.4639
17.5509
21.0896
33.5163
0.445252
0.502756
45.8104
4.19246
7.68047
0.969661
88.2696
31.1512
37.0863
2.31118
40.4359
2.67017
46.5743
35.0708
27.805
31.859
41.5793
32.8362
22.1103
3.73483
10.7214
35.463
0.232401
38.0704
0.180313
2.80141
7.2275
17.2249
21.7482
7.35062
5.01242
9.03247
0.463063
7.14629
0.723955
0.725609
185.041
36.3435
12.9715
0.390136
0.496391
14.4022
0.224123
0.575451
17.6202
0.616448
0.272569
12.4503
0.936274
44.1679
8.23008
0.670934
28.2818
3.50192
8.62479
30.3568
14.519
9.977
11.5012
84.5482
37.7574
1.21267
16.608
122
89.7351
77.0118
12.4903
9.0029
0.209337
0.15373
43.2748
156.975
27.4914
4.34389
32.7727
7.48501
5.65965
18.5874
8.51484
43.2404
4.62497
72.6334
0.117644
8.48259
127.589
36.3378
7.82284
34.6846
20.1406
92.0211
39.7919
31.0203
20.9928
0.835426
3.90186
4.89105
6.29423
16.947
4.36323
32.8018
13.6201
115.949
13.1088
25.3106
0.839385
3.72593
8.44681
91.9589
38.7539
66.3932
5.4901
129.273
7.96692
6.86491
41.3641
0.299581
3.11958
3.49322
44.2654
80.4657
38.164
24.9861
20.0086
29.7436
4.94318
3.76475
0.363298
6.17838
3.25735
614.123
149.994
4.99994
111.272
33.4661
5.97477
0.369759
24.4117
0.286755
0.511924
0.666867
2.70997
42.0052
45.0061
3.75939
33.3193
0.659419
2.25444
0.317032
5.28107
29.4377
19.8555
363.616
13.973
11.0472
0.135302
7.34955
129.574
67.3404
13.0067
5.02155
4.88465
12.2499
5.66167
2.10941
31.012
36.3094
0.608118
15.3732
0.939529
12.0603
6.76637
4.23199
74.6855
11.3005
125.369
29.5323
84.1068
80.6634
2.18027
4.78242
3.62199
10.2161
0.544418
5.20185
4.92157
42.1984
42.2108
7.43924
2.21091
3.90813
52.9373
3.54268
18.5076
11.8875
17.1838
76.5733
94.7658
0.306182
17.7081
0.469784
47.3381
10.2302
9.80708
43.6556
2.16394
35.5493
129.979
92.6537
62.7959
5.00739
82.251
54.6959
31.3412
0.505198
0.64007
38.976
0.373615
2.51246
9.09367
31.8923
42.0586
19.2565
70.9295
7.34163
101.33
2.48551
29.795
42.6572
2.08475
90.1857
37.8827
0.221405
0.406417
0.921983
1.5463
18.2615
26.68
104.864
22.3511
4.91975
164.196
8.94403
7.06115
99.0132
39.8165
27.2093
69.0135
6.78361
89.8156
1.09951
0.588991
12.5841
0.270214
3.16079
15.3314
64.0338
1.1568
27.4875
0.684462
1.029
36.3602
12.0678
20.077
12.3635
86.2475
40.6314
11.4526
10.3746
5.67917
2.6491
11.0425
26.3244
39.1681
207.675
0.242142
2.33463
68.9746
54.3082
4.40026
43.1708
30.5209
8.37404
15.2669
52.4674
29.5378
78.3027
74.3568
10.8056
35.6313
4.90033
31.0835
100.551
44.4435
142.455
15.2425
26.937
24.0939
22.433
16.0591
20.3963
91.5571
3.04802
25.7413
7.9382
0.149651
0.509313
6.24258
0.614362
5.05677
14.6576
30.2012
39.5208
52.4273
3.9271
108.62
121.989
72.25
2.67625
0.670782
11.8559
0.546099
30.0467
7.74815
30.3567
10.3871
3.36487
120.687
11.26
7.33672
5.78272
38.0312
78.8126
0.129353
17.6968
23.1709
0.171007
59.4058
32.7064
2.67791
2.4547
50.0372
76.8503
25.475
2.94549
4.37553
0.487062
0.521674
22.1567
0.210655
0.432161
15.9194
3.65124
0.311584
37.342
3.6832
0.617903
28.1472
1.21699
89.5015
6.02198
128.312
2.14074
0.684394
5.55493
56.3595
46.4255
106.673
15.8745
22.9161
37.9544
6.67639
10.1243
36.3765
5.4806
2.39534
15.0126
0.191102
31.4599
12.716
25.7461
7.09206
6.50007
42.5077
72.2657
15.5458
512.557
13.1696
3.56917
0.439726
0.887523
6.86598
0.730241
4.34994
21.1131
2.28808
15.2579
0.489204
0.898205
9.00381
3.3907
5.55076
25.2735
42.9586
3.19934
7.30894
4.85538
0.86633
2.48386
58.7141
5.8134
8.59502
6.01031
107.746
162.233
66.1816
5.07321
9.01407
0.710342
6.45261
0.251504
11.4718
12.1319
73.0979
0.512097
116.194
285.19
5.38506
0.835332
6.03743
32.2533
42.7108
0.910033
0.669772
14.3726
34.608
0.152355
17.886
48.3662
4.51028
0.332524
5.8116
86.9435
3.95995
33.6091
34.465
9.7112
76.838
18.8744
0.712367
11.8521
19.4606
183.733
4.66846
60.1674
400.327
4.72283
136.071
0.560915
86.6246
11.4596
4.2435
5.00558
118.33
0.611679
0.607985
0.766511
0.651713