/*--------------------------------*- C++ -*----------------------------------*\
| =========                 |                                                 |
| \\      /  F ield         | OpenFOAM: The Open Source CFD Toolbox           |
|  \\    /   O peration     | Version:  v1912                                 |
|   \\  /    A nd           | Website:  www.openfoam.com                      |
|    \\/     M anipulation  |                                                 |
\*---------------------------------------------------------------------------*/
FoamFile
{
    version     2.0;
    format      ascii;
    class       volScalarField;
    location    "0.43";
    object      k;
}
// * * * * * * * * * * * * * * * * * * * * * * * * * * * * * * * * * * * * * //

dimensions      [0 2 -2 0 0 0 0];


internalField   nonuniform List<scalar> 
1466
(
0.0876972
0.0978218
0.0749113
0.120141
0.275358
0.359665
0.069397
0.52603
0.273825
0.352171
0.0207261
0.323292
0.0222972
0.0675572
0.083795
0.108958
0.0677004
0.161964
0.202883
0.0636076
0.130094
0.169748
0.138599
0.0866995
0.0697523
0.0799269
0.134333
0.254275
0.0975187
0.348055
0.424693
0.534425
0.182351
0.391128
0.125069
0.088283
0.0584838
0.0967535
0.678047
0.169573
0.369828
0.224933
0.261967
0.420525
0.377434
0.287484
0.0818361
0.136422
0.214402
0.125098
0.0548362
0.317154
0.233023
0.247012
0.123413
0.247757
0.0801464
0.115909
0.12358
0.250697
0.0911016
0.29869
0.407116
0.345073
0.13004
0.0861191
0.258558
0.13287
0.0867134
0.136932
0.0360681
0.106831
0.0955121
0.099338
0.0289096
0.517178
0.102156
0.112086
0.117331
0.235261
0.0553999
0.0879315
0.090462
0.198718
0.0922799
0.105679
0.0725599
0.134923
0.074588
0.120082
0.106848
0.0750137
0.265098
0.104957
0.0522297
0.129609
0.0904387
0.181359
0.117451
0.106305
0.0683943
0.271378
0.0806181
0.0512351
0.0833754
0.286602
0.130137
0.0902224
0.110045
0.0770543
0.0651368
0.0587387
0.171848
0.100934
0.0254526
0.275779
0.0513712
0.0589674
0.122672
0.105245
0.116502
0.108226
0.0363455
0.108305
0.0712268
0.150842
0.0794109
0.0556849
0.267145
0.162561
0.13422
0.105022
0.0746184
0.270919
0.0538295
0.23495
0.231736
0.0769449
0.370848
0.0941199
0.3145
0.0720764
0.234867
0.243457
0.379925
0.0596733
0.0445031
0.0643967
0.237231
0.0964405
0.233312
0.110235
0.117977
0.0995387
0.095913
0.0461497
0.0998251
0.338141
0.0643689
0.0653764
0.294253
0.0960301
0.122145
0.123929
0.2516
0.241025
0.175383
0.10978
0.0750651
0.145019
0.124741
0.0941753
0.0907841
0.221299
0.098967
0.106577
0.243582
0.254691
0.0807003
0.257728
0.108023
0.0914117
0.152562
0.0746338
0.1137
0.0611966
0.103489
0.372351
0.0965243
0.0477259
0.0647094
0.065582
0.0897426
0.13158
0.0827685
0.101893
0.345309
0.0854071
0.0723531
0.0676669
0.175013
0.0602369
0.087585
0.0764496
0.115593
0.241531
0.099297
0.322482
0.0798037
0.135806
0.116275
0.189675
0.078723
0.0968618
0.121847
0.102404
0.0389045
0.0275434
0.0631386
0.103913
0.0783937
0.121189
0.0765176
0.0863909
0.206679
0.0849723
0.0643087
0.111114
0.0786762
0.217933
0.0880599
0.140728
0.0757172
0.0651029
0.0878383
0.110554
0.0662319
0.516446
0.0818291
0.0809903
0.247301
0.094942
0.0760238
0.237525
0.243493
0.0509263
0.0251974
0.0673995
0.036171
0.0567518
0.0864729
0.161439
0.224846
0.113444
0.0696127
0.175708
0.071688
0.149347
0.444669
0.457342
0.0936274
0.099757
0.187099
0.0658734
0.351027
0.102973
0.295157
0.170217
0.0577133
0.104522
0.188456
0.105721
0.0727266
0.0719225
0.103245
0.156548
0.075867
0.0691374
0.0616927
0.245151
0.0957728
0.0440435
0.0619381
0.0705731
0.0639661
0.0427099
0.0828568
0.0773648
0.0966057
0.0900227
0.0826859
0.277457
0.102794
0.433485
0.210113
0.0922462
0.343169
0.292502
0.0813069
0.0526928
0.0778197
0.237248
0.078043
0.101626
0.105581
0.07461
0.0662739
0.11718
0.0483173
0.717277
0.228112
0.0512147
0.0582936
0.247103
0.188705
0.0569228
0.163269
0.065265
0.448552
0.0994208
0.0816859
0.218511
0.14678
0.0557692
0.0462285
0.0524748
0.0316071
0.058028
0.0196904
0.0611763
0.0694299
0.0545114
0.0251733
0.078919
0.0544418
0.056031
0.0181579
0.0411326
0.101897
0.0428977
0.0799717
0.0544825
0.0401966
0.0356169
0.0563776
0.0156071
0.108333
0.0455315
0.0701498
0.131368
0.246778
0.0879842
0.256854
0.122273
0.110668
0.0554335
0.16606
0.0566084
0.768666
0.109283
0.105237
0.223125
0.216257
0.0826911
0.10725
0.0590755
0.0349817
0.0205681
0.051475
0.105363
0.0210716
0.0360553
0.111381
0.0553666
0.0715221
0.0618213
0.0472859
0.410724
0.104567
0.0564829
0.0565918
0.206344
0.141718
0.0565477
0.17571
0.0995175
0.11068
0.0542059
0.0574575
0.0615583
0.0838796
0.129215
0.176724
0.347428
0.062093
0.0734129
0.188473
0.0372313
0.0806148
0.0133909
0.0863887
0.0327648
0.163709
0.0796983
0.488074
0.0657142
0.257947
0.548731
0.0771016
0.112979
0.0632624
0.148754
0.0683001
0.151232
0.361471
0.182376
0.243793
0.10971
0.0750803
0.125798
0.123746
0.0439585
0.176376
0.157543
0.161617
0.144564
0.160202
0.177669
0.127633
0.113602
0.173516
0.0653664
0.237795
0.41649
0.237763
0.443124
0.371793
0.440003
0.108769
0.186621
0.142616
0.0614542
0.322838
0.0899148
0.124541
0.313188
0.227707
0.227183
0.326078
0.0943635
0.31244
0.30766
0.101622
0.162698
0.347308
0.0902922
0.232117
0.251106
0.0465809
0.090669
0.277605
0.22032
0.179313
0.105719
0.311684
0.0580283
0.431721
0.0639012
0.171608
0.105858
0.399859
0.0882815
0.0982455
0.0919345
0.68237
0.423844
0.040058
0.0685462
0.253677
0.761349
0.161828
0.0619839
0.749544
0.0705851
0.333281
0.138543
0.0736466
0.0571467
0.847853
0.424666
0.269374
0.0947725
0.0847849
0.0523329
0.102132
0.236954
0.899056
0.293224
0.0938672
0.125342
0.0825241
0.0792207
0.0902868
0.153795
0.0459273
0.18561
0.530273
0.0865586
0.090498
0.0903366
0.17975
0.251597
0.149594
0.0924973
0.105022
0.109414
0.0688108
0.0839474
0.136704
0.114805
0.147712
0.37508
0.213408
0.149607
0.158319
0.0666866
0.275974
0.14321
0.0508638
0.045428
0.0693116
0.212702
0.085543
0.0878488
0.0979435
0.221756
0.303872
0.362466
0.117158
0.0667995
0.294079
0.39144
0.234864
0.356243
0.0886669
0.118322
0.0340579
0.330286
0.39604
0.0679466
0.0812688
0.0842666
0.402441
0.265056
0.244944
0.227128
0.16996
0.0648431
0.220236
0.229799
0.0660037
0.0841069
0.269146
0.290749
0.533484
0.258971
0.0830005
0.119277
0.0886796
0.299895
0.0869556
0.138525
0.091209
0.367589
0.0395593
0.0926511
0.135547
0.0377792
0.0990239
0.0956732
0.102823
0.132207
0.228614
0.185238
0.0812434
0.396901
0.252844
0.0824461
0.311907
0.158161
0.0327503
0.0559292
0.483763
0.066012
0.0567029
0.0843134
0.228515
0.232482
0.372106
0.212227
0.310193
0.0631153
0.0805456
0.0443338
0.0501731
0.181988
0.211745
0.0544288
0.336617
0.2546
0.261059
0.25061
0.172922
0.444825
0.06272
0.0320903
0.351714
0.0767184
0.0585062
0.0651313
0.0727422
0.0886252
0.144781
0.232933
0.0732748
0.102673
0.0886482
0.123265
0.103449
0.41811
0.173838
0.259545
0.0575704
0.0947119
0.219876
0.254999
0.207844
0.41062
0.0551284
0.0790415
0.114003
0.151526
0.0801908
0.205336
0.0318977
0.273499
0.0468211
0.145871
0.256389
0.118654
0.130388
0.356426
0.24807
0.236166
0.0754114
0.185759
0.238168
0.183366
0.115079
0.0501387
0.115268
0.398714
0.338862
0.138847
0.21547
0.418408
0.126792
0.0742156
0.388606
0.197848
0.105871
0.0687117
0.0288191
0.0404622
0.0363171
0.0551997
0.19175
0.409769
0.0663091
0.0743277
0.0677152
0.0679459
0.0302478
0.0507793
0.172633
0.0413905
0.276085
0.0553988
0.0251614
0.143326
0.0909411
0.0947282
0.13565
0.0671026
0.390595
0.0750538
0.253776
0.0815931
0.152432
0.232746
0.11587
0.0507074
0.258516
0.222131
0.182769
0.123888
0.254399
0.404082
0.100864
0.0595293
0.072623
0.0310244
0.243219
0.0629523
0.0778398
0.114107
0.260183
0.279261
0.0838949
0.133639
0.210402
0.20185
0.0885181
0.269007
0.346816
0.0815552
0.224543
0.0959278
0.0928801
0.305536
0.133974
0.118679
0.0924054
0.022356
0.0153311
0.266376
0.0337048
0.0121024
0.0523932
0.3358
0.0872883
0.048564
0.0107919
0.0404938
0.0742546
0.130089
0.0787146
0.0600983
0.032777
0.256806
0.0358289
0.126125
0.0505253
0.176093
0.26723
0.108639
0.566781
0.194351
0.0398398
0.0661413
0.111923
0.0859465
0.165464
0.0597966
0.0635205
0.189455
0.110209
0.120241
0.0368535
0.0387028
0.187882
0.465064
0.110515
0.0305398
0.215539
0.0806156
0.105911
0.251397
0.124237
0.209802
0.799798
0.154842
0.0359952
0.0748583
0.226307
0.167519
0.070843
0.131188
0.0351547
0.0571076
0.0795737
0.0647673
0.0645365
0.0752578
0.0757262
0.196958
0.41231
0.0628705
0.166187
0.0476436
0.0767595
0.218255
0.0792081
0.0447663
0.0409777
0.0210818
0.234525
0.0809519
0.0628365
0.193013
0.704279
0.0225303
0.106961
0.214753
0.0745719
0.230898
0.0838523
0.0285318
0.0763099
0.216725
0.925348
0.0635064
0.169039
0.222463
0.0738887
0.0774975
0.0855307
0.0800997
0.0824683
0.0675837
0.0725309
0.137744
0.0580117
0.021877
0.0683898
0.0718385
0.177839
0.173963
0.0600871
0.0804041
0.0195009
0.0794517
0.46505
0.147747
0.0223756
0.19241
0.256146
0.25977
0.120662
0.202807
0.198493
0.107462
0.245089
0.173996
0.0326241
0.0510562
0.102926
0.0545672
0.0367283
0.099901
0.236192
0.0229609
0.402231
0.101084
0.0793703
0.0719633
0.0836201
0.0932157
0.216466
0.0503435
0.0734001
0.0823778
0.159896
0.358856
0.0347738
0.0833579
0.0806682
0.138105
0.630984
0.13227
0.0803721
0.0470428
0.0396679
0.0668303
0.0854697
0.0332598
0.0879865
0.187667
0.142416
0.296459
0.0967094
0.0869802
0.0511511
0.119203
0.0823747
0.268763
0.0398392
0.0676768
0.162651
0.231593
0.123904
0.0730425
0.0784122
0.108475
0.200313
0.0491603
0.0951546
0.0931274
0.271641
0.0641732
0.115939
0.0300482
0.147908
0.0841181
0.108286
0.0345288
0.342896
0.0824667
0.147071
0.122838
0.0927389
0.0691632
0.137314
0.291143
0.208579
0.0729876
0.131541
0.0687158
0.10223
0.0985848
0.0737654
0.124655
0.160457
0.100748
0.0232007
0.285922
0.104203
0.15285
0.103007
0.0264206
0.023673
0.024192
0.0224599
0.076511
0.0757206
0.0751609
0.0734907
0.0298658
0.0724534
0.0726828
0.0330596
0.035994
0.0361849
0.121135
0.0359733
0.0359141
0.433831
0.0287208
0.287245
0.0538108
0.0730227
0.417984
0.107125
0.120344
0.0841096
0.0198736
0.224665
0.0904533
0.0607032
0.110147
0.07526
0.200334
0.0522911
0.055424
0.125047
0.0757115
0.0801688
0.0768894
0.0733139
0.0980707
0.195868
0.196119
0.512706
0.236976
0.127316
0.0507048
0.312944
0.158727
0.0612607
0.109468
0.0945279
0.238299
0.0747882
0.0736387
0.230201
0.0470548
0.0630108
0.298083
0.19732
0.256707
0.0743525
0.0738982
0.163903
0.124575
0.294338
0.0769596
0.0864723
0.274894
0.106787
0.101561
0.119235
0.0739998
0.0760369
0.167394
0.0317737
0.256786
0.0782486
0.0839336
0.0630122
0.17787
0.0807997
0.111699
0.242354
0.111529
0.290896
0.309045
0.11381
0.212869
0.20805
0.591301
0.117417
0.0450783
0.281184
0.14143
0.0496714
0.171654
0.239096
0.0145891
0.0717641
0.186036
0.559313
0.0141347
0.0635402
0.172871
0.188167
0.196698
0.096862
0.0239452
0.197487
0.076183
0.0957667
0.0626862
0.0320124
0.235086
0.0834735
0.117863
0.444928
0.0487356
0.0501805
0.173913
0.26979
0.120507
0.0506503
0.0320568
0.0603225
0.152566
0.0830323
0.298791
0.263739
0.374911
0.0420142
0.136225
0.0701851
0.121974
0.380566
0.0827829
0.307114
0.501731
0.0613828
0.0553873
0.150232
0.0900262
0.137413
0.190041
0.0599528
0.420025
0.293732
0.447848
0.0382553
0.0821029
0.0674917
0.18124
0.0974211
0.265904
0.104226
0.0583042
0.0656587
0.0680742
0.268551
0.0772387
0.0663956
0.137027
0.103241
0.111155
0.0948004
0.0327445
0.0284333
0.129298
0.248654
0.0759141
0.109204
0.199749
0.0789724
0.114391
0.192199
0.0597607
0.0666121
0.100628
0.0666979
0.237153
0.0446461
0.0313148
0.163707
0.0581683
0.0660475
0.0311797
0.122067
0.0525796
0.122324
0.146358
0.0252404
0.122779
0.0582805
0.142859
0.0290708
0.1258
0.155398
0.0449693
0.373322
0.0357073
0.0754818
0.15428
0.0872144
0.158806
0.0942336
0.38167
0.0244993
0.0856167
0.203363
0.041109
0.0898463
0.0523801
0.0835747
0.10446
0.089313
0.120832
0.0936465
0.0320404
0.131019
0.0615548
0.0420894
0.102909
0.29553
0.129764
0.197873
0.067907
0.118022
0.100391
0.0528291
0.0428021
0.0424591
0.0735051
0.31294
0.0560031
0.0711382
0.408489
0.581945
0.103263
0.0815959
0.100213
0.046278
0.244294
0.105987
0.0773921
0.0817447
0.0516707
0.110116
0.0885773
0.132061
0.0956643
0.0883521
0.0698665
0.0951122
0.0519002
0.0650454
0.426605
0.169639
0.0987243
0.0466778
0.149702
0.0466472
0.0443846
0.320516
0.0791879
0.0699567
0.101737
0.0898017
0.260051
0.0308006
0.260018
0.124009
0.0646919
0.037804
0.0865713
0.249813
0.0889268
0.19251
0.156525
0.191552
0.116255
0.156026
0.0735821
0.0938882
0.0735245
0.0290692
0.118322
0.0421362
0.350876
0.214033
0.109181
0.0619213
0.179785
0.0460511
0.0941711
0.0573801
0.193144
0.0615712
0.328142
0.0887115
0.07197
0.149103
0.0968413
0.318655
0.277103
0.11421
0.300112
0.0625039
0.0805179
0.0605808
0.0810454
0.183641
0.471584
0.0667419
0.431933
0.145976
0.12333
0.0675157
0.200007
0.181829
0.0345047
0.144862
0.0433881
0.0778535
0.23716
0.182758
0.118369
0.0862292
0.188503
0.0739351
0.0289608
0.0779231
0.116361
0.37906
0.0288992
0.430909
0.220887
0.256371
0.0925759
0.0829402
0.108022
0.0549089
0.155556
0.118411
0.380341
0.0753643
0.0637925
0.187922
0.192762
0.0890082
0.0654208
0.250591
0.518939
0.206241
0.0751217
0.312307
0.247882
0.192742
0.0220491
0.187925
0.15395
0.118707
0.421442
0.0191835
0.159152
0.0337166
0.160219
0.126672
0.358676
0.0103616
0.0676742
0.331082
0.101548
0.141293
0.0664623
0.0337421
0.18614
0.0816265
0.154404
0.0464258
0.327033
0.0454482
0.152178
0.169649
0.0970842
0.28923
0.155321
0.0457831
0.0865038
0.0544656
0.269876
0.124571
0.327194
0.0577732
0.173509
0.146028
0.0653734
0.0915578
0.0765676
0.0865681
0.108285
0.0977524
0.0922116
0.0531182
0.0704598
0.112232
0.0701998
0.0441705
0.0573608
0.0780754
0.0746024
0.150361
0.073806
0.138952
0.0726076
0.0974332
0.0889641
0.132189
0.161515
0.0379753
0.188651
0.0588096
0.17644
0.0621889
0.078034
0.0480695
0.0853176
0.0553933
0.171617
0.411054
0.0221873
0.0560957
0.161777
0.0611768
0.165859
0.0607449
0.132082
0.0899121
0.123196
0.06808
0.0587315
0.0895471
0.0806345
0.215937
0.0897279
0.10786
0.115504
0.0815739
0.267596
0.0605932
0.226251
0.0914111
0.121001
0.0826923
0.0925691
0.0797619
0.0282342
0.0641148
0.070522
0.178157
0.027784
0.418913
0.323962
0.299498
0.0587518
0.171517
0.168516
0.0181236
0.105462
0.104565
0.201593
0.114678
0.0669125
0.116384
0.0811937
0.0936821
0.101334
0.0910304
0.161625
0.38312
0.186841
0.448887
0.0644579
0.0828012
0.0699278
0.095715
0.172695
0.156648
0.112325
0.0626657
0.0706237
0.0908396
0.0902665
0.0741102
0.069833
0.102121
0.0880137
0.0987904
0.0632138
0.137819
0.0783634
0.0959949
0.226299
0.093164
0.171689
0.181632
0.071625
0.127976
0.23059
0.114125
0.0589791
0.219267
0.0182858
0.156182
0.293488
0.308728
0.068067
0.226491
0.281442
0.0682318
0.31286
0.253409
0.296391
0.119563
0.0545861
0.114937
0.26501
)
;

boundaryField
{
    frontAndBack
    {
        type            empty;
    }
    wallOuter
    {
        type            kqRWallFunction;
        value           nonuniform List<scalar> 
102
(
0.0222972
0.0222972
0.138599
0.0289096
0.0254526
0.0483173
0.062093
0.0302478
0.022356
0.0153311
0.0337048
0.0121024
0.048564
0.0107919
0.0404938
0.0742546
0.0787146
0.126125
0.111923
0.120241
0.0305398
0.0359952
0.0748583
0.0476436
0.0767595
0.0738887
0.0774975
0.0326241
0.099901
0.0841181
0.0345288
0.0264206
0.023673
0.024192
0.0224599
0.076511
0.0757206
0.0751609
0.0734907
0.0298658
0.0724534
0.0726828
0.0330596
0.035994
0.0361849
0.0359733
0.0359141
0.0538108
0.0730227
0.07526
0.0522911
0.0757115
0.0733139
0.0747882
0.0736387
0.0630108
0.0743525
0.0738982
0.0739998
0.0760369
0.14143
0.0145891
0.0141347
0.0239452
0.0834735
0.0320568
0.136225
0.0900262
0.137413
0.0583042
0.0663956
0.137027
0.0284333
0.129298
0.0759141
0.0597607
0.0446461
0.0660475
0.122324
0.0449693
0.0754818
0.0244993
0.089313
0.0936465
0.129764
0.0424591
0.0711382
0.0817447
0.0519002
0.0421362
0.0739351
0.0289608
0.0220491
0.0191835
0.0103616
0.0664623
0.0653734
0.0531182
0.0701998
0.0221873
0.0607449
0.0899121
)
;
    }
    inlet
    {
        type            fixedValue;
        value           nonuniform 0();
    }
    outlet
    {
        type            zeroGradient;
    }
    wallInner
    {
        type            kqRWallFunction;
        value           nonuniform List<scalar> 
138
(
0.0207261
0.0677004
0.0975187
0.348055
0.317154
0.233023
0.247012
0.123413
0.29869
0.0750137
0.0683943
0.0512351
0.0363455
0.3145
0.0720764
0.0596733
0.0445031
0.10978
0.0477259
0.0647094
0.065582
0.0275434
0.0760238
0.0509263
0.0251974
0.0673995
0.036171
0.0567518
0.351027
0.0440435
0.0619381
0.0773648
0.0557692
0.0462285
0.0524748
0.0316071
0.058028
0.0196904
0.0611763
0.0694299
0.0545114
0.0251733
0.078919
0.0544418
0.056031
0.0181579
0.0411326
0.101897
0.0428977
0.0799717
0.0544825
0.0401966
0.0356169
0.0563776
0.0156071
0.108333
0.0455315
0.0566084
0.0826911
0.10725
0.0590755
0.0349817
0.0205681
0.051475
0.105363
0.0210716
0.0360553
0.111381
0.0553666
0.0715221
0.0618213
0.0472859
0.0564829
0.0133909
0.0863887
0.0683001
0.151232
0.0439585
0.237763
0.142616
0.0465809
0.0580283
0.105858
0.040058
0.0685462
0.102132
0.0938672
0.125342
0.0902868
0.149607
0.158319
0.0508638
0.0340579
0.135547
0.0327503
0.0559292
0.144781
0.0947119
0.138847
0.0363171
0.0551997
0.0251614
0.0310244
0.0523932
0.0872883
0.110515
0.0571076
0.0210818
0.0225303
0.0285318
0.021877
0.0804041
0.0195009
0.0545672
0.0823778
0.0491603
0.0232007
0.0287208
0.0198736
0.101561
0.242354
0.111529
0.0496714
0.0553873
0.104226
0.0313148
0.041109
0.0523801
0.118022
0.046278
0.116255
0.105462
0.31286
0.253409
0.119563
0.0545861
0.114937
0.26501
)
;
    }
    procBoundary2to0
    {
        type            processor;
        value           nonuniform List<scalar> 
42
(
0.611131
0.611131
0.137402
0.112896
0.18718
0.985498
0.144375
0.144375
0.182371
0.174543
0.310621
0.310621
0.224694
0.369724
0.393603
1.00891
0.350058
0.164618
0.180403
0.628956
0.751666
0.145294
0.145294
0.888151
0.751666
0.101043
1.02154
0.0629291
1.02154
0.542313
0.385098
0.0520053
0.0540968
0.0607389
0.070355
0.112896
0.350058
0.0737708
1.07049
0.121284
0.121284
0.0822345
)
;
    }
    procBoundary2to1
    {
        type            processor;
        value           uniform 0.530073;
    }
    procBoundary2to3
    {
        type            processor;
        value           nonuniform List<scalar> 
29
(
0.622063
0.467638
0.141722
0.102308
0.185462
0.342569
0.348437
0.422629
0.172602
0.169397
0.414429
0.28903
0.477343
0.539421
0.30282
0.49056
0.157643
0.157643
0.467638
0.539421
0.407906
0.160026
0.11331
0.169451
0.206499
0.158468
0.172602
0.382862
0.28903
)
;
    }
}


// ************************************************************************* //
