/*--------------------------------*- C++ -*----------------------------------*\
| =========                 |                                                 |
| \\      /  F ield         | OpenFOAM: The Open Source CFD Toolbox           |
|  \\    /   O peration     | Version:  v1912                                 |
|   \\  /    A nd           | Website:  www.openfoam.com                      |
|    \\/     M anipulation  |                                                 |
\*---------------------------------------------------------------------------*/
FoamFile
{
    version     2.0;
    format      ascii;
    class       volScalarField;
    location    "0.72";
    object      epsilon;
}
// * * * * * * * * * * * * * * * * * * * * * * * * * * * * * * * * * * * * * //

dimensions      [0 2 -3 0 0 0 0];


internalField   nonuniform List<scalar> 
1431
(
88.8211
24.4839
4.96701
1.87732
8.74665
37.6585
1.35629
366.564
49.2577
1.26571
137.753
287.87
60.2084
14.7305
23.9118
1.03404
31.1979
14.2343
29.0573
19.5228
286.379
18.9223
48.6714
330.286
51.1033
37.1977
91.8722
14.5228
62.8118
28.1868
20.1998
34.3277
18.0904
8.33175
45.1094
0.768461
87.8763
0.415527
0.433076
26.5102
79.7395
76.9959
52.3604
0.697431
54.3843
10.8431
34.1327
76.8791
1.4628
0.73548
26.2602
0.571677
34.7195
326.16
16.8812
18.3023
8.75988
322.193
51.1523
10.3716
18.2037
0.879856
1.07188
0.534404
0.594224
1.62638
5.49437
2.39622
7.12242
26.5422
325.891
11.41
1.92144
7.34295
18.5319
15.1167
3.08396
0.414198
1.33011
8.30115
37.4264
3.23389
132.263
38.4963
160.778
1.82998
3.54942
22.9621
178.902
192.154
27.1232
10.0383
0.813177
0.78774
17.9088
30.2306
324.798
94.8431
0.742031
11.3567
28.5305
0.758274
36.4493
7.20712
0.284805
33.3603
42.6887
139.028
39.122
40.8521
8.71123
67.3455
21.5035
81.2827
24.6114
10.928
15.78
2.15148
2.86245
0.760583
35.9632
36.1565
348.29
22.2936
257.881
1.07592
1.92423
13.926
3.45581
5.56298
37.8139
19.3603
4.10326
30.4139
29.9739
1.61405
0.346139
1.16428
166.153
0.841538
0.365798
16.3669
49.8035
5.6639
54.2623
18.1193
2.22239
32.1039
0.890267
11.5894
1.25305
8.73558
29.1968
2.86472
36.7406
0.487275
154.353
46.222
171.099
2.76635
173.688
70.6141
1.21951
2.88484
259.33
85.8563
86.1014
25.733
0.644157
62.3971
176.852
39.1002
21.7875
171.463
34.7254
152.245
3.77757
41.6251
33.4677
44.3266
2.01052
0.450991
14.5261
531.724
39.2451
88.9483
148.549
48.0078
21.522
180.667
17.1815
23.9814
24.6328
187.78
2.87455
59.8445
90.0629
35.2764
5.32865
44.6055
18.7161
1.61636
101.797
4.37356
59.0959
18.7161
34.7589
4.77482
204.21
22.2788
160.002
0.897915
39.3515
34.6478
182.733
22.0003
27.637
35.8818
13.8846
90.2235
38.1079
15.501
80.4291
2.22414
39.6693
270.545
126.731
77.5341
40.2752
52.8813
328.975
19.272
31.9788
23.4976
35.7767
170.482
35.5877
33.2138
16.6575
11.0217
2.89558
28.2506
230.922
25.2627
22.9505
43.014
29.1187
103.549
39.9182
0.487927
10.5248
150.208
2.59579
0.732572
17.8135
64.3269
2.34973
331.117
141.404
26.5154
37.6743
164.213
13.2133
3.51257
43.8149
119.557
57.5257
293
72.901
9.72928
41.9673
32.1494
17.2554
5.76181
169.386
21.5927
162.588
48.5054
44.7319
54.1934
46.3187
84.4828
17.9893
16.8364
7.38874
119.628
68.6751
116.228
177.143
24.7457
5.45776
56.6192
75.229
41.8125
33.7895
43.1183
191.235
103.23
22.5421
51.8167
36.3881
0.737196
11.6381
44.2633
49.1708
2.0658
34.3948
25.6591
77.2629
48.0872
75.2907
0.962535
1.25807
117.906
48.9754
83.777
36.2966
11.2419
3.36456
878.612
33.0742
72.2822
4.60359
34.2205
37.4795
11.3873
7.47313
56.2901
333.357
0.925728
74.9835
6.80057
54.6981
23.9755
2.85842
46.0013
55.5403
158.594
37.8857
103.776
0.321215
48.3729
70.2792
76.5483
46.6907
23.7339
18.8106
158.58
61.9095
44.3898
41.3302
6.95658
33.6207
39.1509
11.5134
7.77483
181.652
131.734
143.925
73.3206
21.8809
71.7689
62.1219
7.25323
4.79189
144.817
53.2133
658.316
44.2838
17.4471
125.032
9.26267
189.406
23.7606
71.1812
400.332
41.9936
6.87888
32.6825
494.152
77.9058
37.8012
6.36854
13.7345
876.457
42.5432
37.7
46.5257
33.8859
25.6607
3.18985
41.8886
42.7597
1.781
160.577
35.3182
69.0073
70.5036
56.8883
40.219
45.8726
66.2375
112.016
60.7026
6.97452
63.2672
38.1749
5.08789
5.1124
61.7886
51.9257
37.868
60.1318
62.6843
44.448
3.93245
35.6435
3.62225
38.6224
58.4591
49.922
64.1127
16.6566
37.0743
56.8833
10.1473
11.0601
40.8393
14.0194
258.253
79.0885
81.3884
85.5021
86.585
87.2319
84.3968
82.2562
85.2752
84.0423
85.0213
10.9098
159.672
9.61673
6.04798
3.01512
2.64246
2.48899
3.02446
35.8117
19.5009
20.6222
1.15858
1.3417
3.34074
1.41406
1.26654
23.9529
288.46
3.37029
3.46231
20.6743
1.06358
274.722
1.15016
3.6637
1.36727
4.5169
266.268
1.42293
256.344
0.822895
0.70188
6.14511
35.3642
166.743
149.239
1.77323
0.421799
1.95614
0.659182
33.0236
2.48047
171.424
0.522613
4.21632
34.5917
7.07212
2.63666
2.91436
0.612783
188.747
0.542208
4.99581
3.58551
39.698
7.39322
9.4366
196.374
0.557617
25.1841
57.7563
18.7136
14.5614
93.2328
189.17
153.245
9.70719
1.1161
1.70084
12.6407
7.35688
45.8936
4.7292
8.94849
115.549
0.884002
56.0465
9.33737
49.1307
162.669
50.6377
4.87907
25.4087
1.4954
21.0706
1.90004
181.464
26.0234
11.6664
6.65868
23.073
20.6353
36.632
89.9949
78.7515
14.1922
8.40312
176.323
20.4021
16.1935
64.4911
90.7022
82.8865
11.9238
43.2858
11.7941
18.7703
157.19
67.2441
79.3965
34.6725
84.4235
62.3304
51.3641
1.15165
76.6493
2.12147
56.6248
159.127
388.821
81.9177
164.226
91.3947
36.912
647.153
35.2738
7.83978
2.5603
58.8684
56.81
54.653
92.1127
83.1405
4.71219
49.4653
34.5063
1.40763
152.732
74.2792
76.1046
56.6623
69.6964
54.2249
38.1356
41.2541
31.7272
22.3659
16.6536
74.2942
17.978
65.1476
197.548
26.538
22.6259
43.2857
74.6165
31.8227
37.4527
62.8888
185.234
180.96
33.6277
55.3768
17.6906
43.9978
37.3212
121.11
51.4645
2.28252
5.75063
1.66079
32.5651
43.391
74.7363
61.1929
56.7657
212.352
2.84059
42.4525
42.8795
35.1043
26.9496
37.2691
47.2705
37.5216
44.589
74.7351
9.58698
55.9238
12.1229
44.6143
28.1262
0.848394
81.9391
53.1214
38.4271
324.78
4.38354
61.9688
16.9274
59.4931
104.632
2.41009
54.3919
148.67
35.286
37.5126
35.2133
244.801
32.7153
56.5076
74.1174
129.127
43.4058
9.25951
35.618
48.5993
51.0452
22.8872
174.225
171.129
70.5575
45.4757
42.95
57.2626
56.279
20.3311
21.0152
31.9053
7.24608
54.9688
36.3419
274.417
84.2324
51.194
30.3927
282.842
25.7477
44.9916
8.77946
14.0032
7.79321
32.272
279.076
0.928864
3.90099
66.8807
51.0098
10.8904
55.3083
110.841
42.6566
79.3217
38.1504
19.0929
87.3975
234.363
50.1926
14.7386
94.909
145.644
36.4827
58.9989
25.9371
117.143
297.806
110.836
188.03
23.0079
45.5266
56.1174
5.65957
34.8453
42.6284
24.9659
85.9769
60.5842
55.7478
2.85775
64.0985
85.4599
19.7173
147.638
52.8199
4.0448
40.5556
72.0738
58.2116
132.813
195.93
0.521838
80.4119
41.0623
2.79145
142.787
39.6399
75.5432
284.903
288.225
2.30563
31.9884
49.4908
4.56519
50.9244
70.4849
37.2433
35.1209
5.90514
57.9096
1.03551
21.2759
13.809
12.3197
0.925906
420.627
53.8798
56.4311
7.13458
40.0086
4.62432
416.138
143.954
40.4254
1.38994
2.43533
45.1885
0.896526
1.16537
56.3678
8.30655
55.8255
32.7304
51.4684
68.9182
60.6812
25.2952
9.51505
29.5699
60.4879
17.6029
34.9804
0.272829
50.7585
1.53424
78.4385
158.78
38.2333
33.074
22.7849
28.9247
82.4487
14.0009
33.9855
66.0904
29.4457
11.9009
2.05955
31.4959
1.78891
56.1354
27.5049
27.168
6.18976
71.1824
73.3535
820.707
28.6708
40.9821
32.2251
39.8978
599.246
4.95273
18.3471
167.571
67.2924
309.378
62.3904
10.0443
89.04
57.4999
4.53921
105.349
43.6958
78.4593
108.201
33.1454
58.0967
16.0344
9.70579
0.484275
84.6543
327.98
312.915
24.2821
27.5474
310.563
52.5514
91.2961
61.6734
10.4659
54.9937
1.92897
0.389614
34.6392
47.7524
176.523
0.303265
366.167
27.5549
142.814
44.8111
16.5496
32.4421
12.8038
4.53274
1.52748
6.53514
58.2797
3.18505
0.414751
9.31041
32.1604
52.2942
19.7948
72.8577
52.2707
72.111
0.695098
154.783
50.9152
82.0346
681.023
62.2037
106.083
38.7051
7.24147
1.67952
92.6997
46.7916
72.7875
258.384
1.89146
69.6826
169.535
588.4
326.974
409.929
73.0837
47.1805
52.0333
59.475
55.8713
83.5645
44.2525
36.2431
32.9432
35.0132
35.5011
56.4843
93.2257
32.4235
38.3849
43.9363
30.2009
43.4555
42.7408
29.3371
41.9178
40.9717
29.3738
39.1292
68.6674
128.103
0.855361
30.5387
36.9977
17.6603
17.9043
238.009
44.8951
18.1375
15.4416
17.9636
2.51294
347.949
34.8585
4.01511
140.193
50.0907
75.1093
27.0715
3.95441
343.373
8.66132
36.8569
42.3863
29.6846
3.58186
5.20862
142.287
31.3928
32.9242
66.5853
59.1409
35.5038
45.3079
157.22
1.82638
0.587393
10.9521
1.57376
49.0301
62.326
27.6308
42.8071
33.199
8.38544
30.1692
5.05953
10.8122
32.3024
158.507
69.2756
38.3778
65.8819
6.36834
36.3919
2.42739
36.5348
9.33801
5.39688
38.6023
28.088
355.796
3.79398
33.1894
10.6618
57.2889
1.26719
951.924
57.5066
30.8191
0.514723
336.602
59.9857
140.948
1.03407
0.602596
2.41748
7.7664
12.8706
51.7521
30.8326
448.645
211.609
36.3117
58.7133
1.4202
37.9063
25.0678
45.7865
28.2551
18.6478
46.5082
71.3919
63.6742
107.873
77.8314
2.13681
1.31314
26.6122
55.4947
51.6894
4.3404
45.7221
27.321
33.5205
15.0207
40.4634
31.8497
173.928
487.891
1.56987
63.323
29.8191
3.15719
63.4116
355.824
27.5164
42.2303
18.4652
163.237
149.398
2.16714
17.9056
37.712
41.268
367.758
166.977
70.6169
33.5083
4.6714
132.493
3.27333
58.9595
18.8518
382.482
87.8768
314.237
163.185
58.1035
34.8398
50.7191
3.35092
4.2308
2.35676
2.45048
1.92149
43.4415
83.8013
40.062
50.5527
76.2293
167.976
0.588293
3.55056
78.7177
388.248
51.5153
370.036
93.3774
74.625
413.503
35.8644
420.48
423.679
442.56
342.758
348.623
328.144
446.171
296.686
0.653812
1.98232
1.69672
0.692854
0.85022
1.07254
56.0141
45.9865
83.5067
43.6051
58.759
28.2293
1.19618
56.7054
1.01311
1.51039
42.1416
0.553029
28.2959
20.8062
6.23807
10.3898
7.6431
71.2544
70.979
40.5121
45.8859
46.4052
3.63255
32.5815
766.926
29.8576
8.04568
25.1433
49.2725
0.886906
15.5658
162.552
0.333513
54.3359
0.736543
10.8557
1.93575
30.7918
29.9059
4.80441
0.599188
34.8101
9.18533
6.39916
64.0095
78.9411
0.710888
21.0254
25.5391
203.778
0.882252
166.931
249.658
8.67867
185.683
37.7276
8.53924
48.5082
164.826
2.73137
48.2735
53.2727
121.2
72.2536
30.0738
36.5185
7.88072
0.644724
65.1025
24.2556
49.5298
149.436
205.84
204.262
99.0202
20.5945
22.0664
49.9887
2.41911
5.94473
2.88494
33.1146
7.93313
241.006
62.9756
0.94573
157.812
38.8659
15.7994
73.7821
3.07253
45.6493
190.235
66.7666
47.5175
0.595569
53.3375
53.9194
191.456
80.1701
358.34
0.665039
9.67251
35.7641
303.586
153.284
89.6869
65.3518
52.2209
0.820758
352.586
8.23288
43.9187
32.8053
31.3403
12.1039
65.8631
1.21632
44.1121
36.8306
183.286
10.6661
72.2259
46.9748
23.5706
1.1589
6.28508
7.54152
110.529
28.9427
71.4964
151.184
51.9178
62.9899
38.0776
22.1241
1.23047
31.455
16.0088
45.1387
394.692
37.1596
751.191
34.9699
10.9597
35.0049
162.776
35.9831
1.33666
6.55562
47.8622
85.5473
27.5332
71.5262
101.568
61.8942
16.0182
22.6033
12.5863
1.62939
41.0705
230.573
59.5978
276.321
44.4318
27.2985
39.9195
44.6591
31.4293
5.26426
59.6711
13.4075
1.43162
35.0325
418.063
38.4953
39.4966
1.3263
3.80972
23.5697
36.3197
22.368
409.19
63.9291
88.5414
142.202
9.23919
41.4437
50.6281
48.1773
173.34
47.3087
62.4459
32.9878
48.4554
16.7833
61.8334
20.878
34.0779
353.485
41.897
8.43185
36.2465
63.8869
105.107
22.1139
44.1819
13.0008
309.9
31.5188
3.18968
0.663487
630.966
39.4762
68.5305
1.70376
3.70393
249.336
14.8159
295.922
2.25363
1.95161
7.3491
467.58
2.62559
401.161
184.219
2.43327
48.4342
197.792
306.396
87.7098
332.478
8.57323
8.86091
29.2168
44.6898
7.79784
161.866
3.13244
54.8056
456.117
415.902
33.9083
37.8372
3.95087
173.666
2.18085
42.1268
11.5469
307.916
1.67811
6.0526
15.1392
89.9046
69.2427
34.6825
7.6222
0.929059
2.03244
200.935
396.709
1.98565
41.5749
8.4917
2.06535
26.1249
30.946
13.128
48.689
1.03409
22.4176
21.1689
33.2148
196.073
32.3018
1.6825
43.7584
30.6453
0.961818
2.16423
51.4675
18.3336
1.76354
17.0898
19.9542
28.6409
2.01962
1.17595
197.71
177.749
69.9996
14.8314
1.68526
2.99643
0.501453
39.6276
1.83085
2.40683
3.71402
4.09433
9.71708
1.1956
174.86
46.1586
19.211
66.0829
66.5851
161.753
39.5806
1.02315
9.50959
108.186
34.072
172.788
10.8619
22.851
56.0877
20.0112
1.89188
15.7485
1.15076
1.98834
3.97629
164.637
261.246
63.3695
112.125
11.5842
86.8531
31.8287
45.1508
100.159
12.1932
15.3665
45.0706
96.7563
4.87893
0.956196
72.404
54.1529
18.5361
12.4584
)
;

boundaryField
{
    frontAndBack
    {
        type            empty;
    }
    wallOuter
    {
        lowReCorrection 0;
        type            epsilonWallFunction;
        value           nonuniform List<scalar> 
96
(
62.8118
28.1868
30.2306
274.417
282.842
279.076
55.3083
38.1504
19.0929
234.363
14.7386
145.644
25.9371
297.806
188.03
284.903
288.225
31.9884
9.51505
78.4385
11.9009
108.201
33.1454
327.98
312.915
73.0837
47.1805
52.0333
59.475
55.8713
83.5645
44.2525
36.2431
32.9432
35.0132
35.5011
56.4843
93.2257
32.4235
38.3849
43.9363
30.2009
43.4555
42.7408
29.3371
41.9178
40.9717
29.3738
39.1292
36.8569
62.326
27.6308
36.5348
5.39688
355.796
36.3117
107.873
63.323
29.8191
27.5164
367.758
4.6714
3.27333
382.482
388.248
370.036
413.503
35.8644
420.48
423.679
442.56
342.758
348.623
328.144
446.171
296.686
0.653812
1.98232
1.69672
0.692854
0.85022
1.07254
28.2293
6.23807
30.7918
30.0738
358.34
7.54152
394.692
409.19
62.4459
32.9878
2.62559
332.478
456.117
3.95087
)
;
    }
    inlet
    {
        type            fixedValue;
        value           nonuniform 0();
    }
    outlet
    {
        type            zeroGradient;
    }
    wallInner
    {
        lowReCorrection 0;
        type            epsilonWallFunction;
        value           nonuniform List<scalar> 
126
(
51.1523
10.3716
18.2037
0.879856
1.07188
0.534404
0.594224
1.62638
5.49437
2.39622
7.12242
26.5422
325.891
11.41
1.92144
7.34295
18.5319
15.1167
3.08396
0.414198
1.33011
8.30115
37.4264
3.23389
11.3567
10.928
15.78
2.15148
2.86245
0.760583
35.9632
36.1565
348.29
22.2936
257.881
1.07592
1.92423
37.8139
19.3603
0.841538
0.365798
49.8035
5.6639
2.22239
11.5894
8.73558
2.86472
259.33
2.01052
88.9483
148.549
2.87455
160.002
9.72928
44.7319
54.1934
5.45776
191.235
103.23
51.8167
0.737196
0.962535
1.25807
117.906
11.3873
7.47313
74.9835
103.776
0.321215
131.734
71.7689
62.1219
5.08789
3.62225
93.2328
115.549
6.65868
176.323
90.7022
157.19
84.4235
159.127
49.4653
152.732
74.2942
197.548
180.96
37.2691
0.848394
148.67
129.127
117.143
110.836
4.62432
106.083
92.6997
32.3024
205.84
33.9083
37.8372
108.186
34.072
10.8619
56.0877
20.0112
1.89188
1.15076
3.97629
164.637
261.246
63.3695
112.125
11.5842
31.8287
45.1508
100.159
12.1932
15.3665
45.0706
96.7563
4.87893
0.956196
72.404
54.1529
18.5361
12.4584
)
;
    }
    procBoundary3to1
    {
        type            processor;
        value           nonuniform List<scalar> 
48
(
88.2016
90.2088
79.2996
82.794
53.2002
88.1952
90.2088
23.3943
81.7777
2.71863
2.71863
3.56788
3.56788
3.34801
3.53221
3.9894
5.91048
5.27134
5.91048
5.52724
2.61175
4.77952
5.52724
34.2266
2.73711
3.47604
7.63305
4.77952
10.3597
15.7401
15.7401
16.8469
16.8469
81.7777
3.28339
53.5623
35.5626
2.73711
93.1836
46.2269
3.34801
52.1135
67.1058
5.52724
3.6589
63.2412
49.994
2.76979
)
;
    }
    procBoundary3to2
    {
        type            processor;
        value           nonuniform List<scalar> 
29
(
1.96038
1.96038
2.12029
2.59004
7.67054
4.78262
1.81342
2.31063
1.82254
1.97409
3.19417
4.85553
1.95198
0.848767
0.634969
1.03243
1.5073
1.5422
1.99233
0.764457
0.725668
1.5073
0.661791
1.5422
0.530688
1.62923
1.5422
3.90147
3.90147
)
;
    }
}


// ************************************************************************* //
