/*--------------------------------*- C++ -*----------------------------------*\
| =========                 |                                                 |
| \\      /  F ield         | OpenFOAM: The Open Source CFD Toolbox           |
|  \\    /   O peration     | Version:  v1912                                 |
|   \\  /    A nd           | Website:  www.openfoam.com                      |
|    \\/     M anipulation  |                                                 |
\*---------------------------------------------------------------------------*/
FoamFile
{
    version     2.0;
    format      ascii;
    class       volScalarField;
    location    "0.6";
    object      epsilon;
}
// * * * * * * * * * * * * * * * * * * * * * * * * * * * * * * * * * * * * * //

dimensions      [0 2 -3 0 0 0 0];


internalField   nonuniform List<scalar> 
1431
(
0.514796
3.06743
89.5542
58.3578
0.563152
10.1498
9.27598
4.44119
60.8135
22.4175
8.08214
4.55698
1.69243
61.7513
37.3022
24.1611
49.4468
0.862815
12.2434
7.41727
0.756873
28.8994
11.953
69.1958
50.7642
6.58194
53.5273
55.2765
22.2344
1.68863
56.6485
12.1624
29.8122
11.0225
11.8291
43.5007
2.0727
10.3137
8.62236
9.88412
156.989
3.66332
6.93768
7.64032
32.1701
0.968969
35.6128
5.003
20.572
16.4992
1.22034
20.5048
48.1461
7.52463
7.76484
4.8397
21.7147
53.9088
54.407
0.629594
41.3496
3.98565
45.894
9.82142
35.4159
1.51494
74.0888
13.4477
7.85436
12.5114
7.38671
8.42846
7.31324
9.06389
5.08357
27.5363
0.622011
58.8383
5.76321
79.0018
8.11367
1.14268
7.64912
54.997
82.9155
0.603378
0.56386
9.54602
78.0927
5.12776
1.80085
20.2574
0.572446
10.1889
1.32774
0.646732
4.25456
8.82501
0.535546
35.1758
10.7203
5.55503
2.47545
0.524322
15.6562
1.6481
6.60955
167.582
72.991
0.600983
95.3309
1.36115
5.50133
3.7339
12.9217
0.498733
0.939224
7.40588
89.1475
26.2146
8.93999
50.9495
22.371
61.3102
9.33177
2.91028
103.263
2.93106
0.571945
26.3872
0.990225
129.438
49.0228
2.94541
0.641553
40.0872
6.85629
1.37334
1.79323
141.309
29.225
0.333833
9.82699
21.2625
24.1431
16.2074
8.80068
165.51
5.85861
16.6078
28.2262
38.9839
4.29073
9.0428
3.65006
2.08747
8.98409
3.10163
5.10052
9.31047
1.00213
5.56232
1.89677
5.55601
0.546985
126.103
0.600088
9.64083
1.45661
3.28218
37.2529
10.4934
55.5143
17.441
9.32898
1.507
2.72103
25.7429
3.04697
6.37224
10.7414
22.3881
5.08541
4.4772
14.1303
18.6219
6.36588
47.9629
5.48196
10.0817
4.67334
68.2903
0.63177
7.36012
70.3465
8.08805
6.29617
7.26944
4.62671
5.28336
5.69543
73.475
13.7793
172.375
6.95168
60.7013
0.657696
10.0431
6.16712
23.2125
7.96231
5.3578
85.0278
9.71866
13.2997
23.2033
4.77553
3.10003
7.80241
9.99389
9.23012
61.9726
21.4992
136.418
11.056
29.3286
30.0662
3.8077
19.7715
57.5659
0.601864
28.9229
11.0343
4.56917
4.41601
4.82393
10.133
0.786463
8.20012
5.3375
10.3588
11.2817
61.3872
62.6118
1.87673
2.20683
10.3645
9.59171
9.46649
29.8027
9.45417
61.646
23.6526
18.3295
42.9337
36.6095
2.15578
5.02411
31.0104
34.251
38.5382
2.99448
0.625633
32.1251
4.50385
18.8663
28.9507
7.46538
15.2362
44.9846
6.85817
25.9707
9.12191
8.93195
40.8483
8.66081
2.27752
2.5507
1.24651
21.7787
59.9667
4.97775
2.0029
2.42123
31.9768
44.0349
0.621842
4.39978
24.8805
9.24958
17.7761
11.5839
4.60135
3.26648
11.2246
5.51478
0.641344
7.35932
5.11208
7.82458
11.1063
30.9279
4.58123
6.88127
3.28498
4.69086
8.61433
35.1923
32.5966
0.496335
9.98531
13.0756
35.0408
0.33003
2.74721
4.10417
22.6996
3.3382
4.43466
4.3614
5.32954
2.30681
31.682
5.44618
48.703
6.56188
7.39211
8.87535
89.168
9.35825
5.42602
2.16634
4.04298
3.93818
8.84069
63.762
1.7698
1.27532
1.47028
1.4943
5.71939
7.60439
9.97594
18.4285
43.1546
3.57664
11.3812
2.77072
0.587942
1.70656
2.53178
2.45641
3.21727
2.10711
0.914235
2.30513
2.57479
1.97322
1.58794
3.84973
1.88822
1.41187
2.28411
0.157111
0.881947
2.65385
2.28797
3.3235
10.6645
22.67
3.61476
4.4232
3.64844
14.5197
2.71593
57.9152
2.52244
11.4933
13.9055
1.43004
2.07319
2.70417
1.13481
2.87325
2.06414
2.34113
4.15143
0.794031
1.8391
0.254892
2.94963
62.265
24.0399
13.9162
5.48107
1.36427
0.751355
10.7386
33.3863
9.12042
2.25402
2.06573
10.251
1.33403
3.13373
12.1186
2.62866
7.98622
0.491391
8.34067
41.3943
7.81589
1.56618
60.0467
22.5358
39.6336
1.75957
43.9072
1.75096
0.556236
4.41205
5.82749
28.6657
4.10207
5.39087
2.24719
4.53321
14.4304
42.2806
4.22825
53.2747
3.49955
2.01954
11.6936
4.20731
3.13017
8.29451
9.79881
4.20917
8.35913
8.65091
66.5884
8.79881
7.20489
5.16769
19.5771
30.0103
3.48373
7.20054
17.2101
14.9413
21.7465
24.2699
26.7624
6.64917
23.8421
17.6147
16.3372
22.0259
3.35831
49.9465
18.4368
8.4341
6.93327
2.59265
1.9427
0.471508
80.2756
6.16349
1.93801
77.3547
1.29739
6.52665
42.5822
6.12925
1.68143
60.0634
54.5457
74.2773
10.2051
5.71356
1.2078
44.8682
4.82965
11.7401
8.69753
7.8903
31.0341
11.669
6.20155
5.27492
14.416
1.70763
59.8311
11.8833
1.17874
84.207
4.90758
11.3712
4.76147
11.8629
113.038
12.6056
5.04277
4.92593
3.80035
1.56038
30.0923
6.38773
49.4349
39.8332
3.63781
6.21563
8.99429
11.3117
6.39912
66.0482
99.5298
6.03699
1.99192
3.87749
3.74198
3.54172
0.580372
1.24385
9.79564
2.38304
7.81995
3.63587
6.65105
12.1168
7.26152
4.63662
3.596
16.5976
7.3594
15.3371
6.2547
17.5484
40.6239
6.04835
51.9831
1.55725
12.4618
1.19566
38.1107
8.98499
5.34403
22.93
2.01147
4.67547
0.586816
31.7975
10.968
3.49199
2.67643
19.9647
2.50789
32.5867
4.46116
17.1723
4.86308
37.0631
61.7716
37.7434
1.40943
12.3799
5.08761
43.2391
5.51571
2.553
41.4538
47.5458
39.7772
57.9716
2.46531
7.86992
2.57218
4.91298
16.9163
1.15524
5.62871
2.65881
3.78517
2.22809
5.86028
2.01741
11.2038
1.14787
18.562
17.5274
46.3761
13.7238
9.92005
8.73
5.3945
0.419427
5.27388
5.24225
6.41926
1.70072
2.30758
1.7422
8.13907
10.8682
31.8863
5.96028
2.29252
44.6702
79.2618
48.922
21.9305
0.948186
18.5098
64.1281
5.2019
59.0074
28.701
18.1528
23.1799
1.77866
3.45482
0.967971
1.618
3.31335
9.03336
1.75498
0.277588
14.6607
5.91466
47.406
1.07949
1.3619
6.35146
5.93219
16.2573
2.02656
4.99525
23.3636
1.09767
7.21793
31.7129
6.81677
26.7707
3.21827
12.4555
6.19283
46.4037
19.7407
1.32892
1.72313
5.43722
7.9087
30.1913
43.3006
15.4741
7.23451
11.8061
6.15156
23.7415
5.19245
0.350334
1.34967
1.58686
8.69399
4.95614
13.6826
36.3516
23.0682
27.1422
0.224557
7.65077
1.16766
8.37119
12.7514
13.0116
14.6745
11.4154
1.34919
19.8453
24.5062
0.782709
4.40471
1.53104
2.70037
4.0733
5.28434
9.7988
7.52118
1.3766
72.3661
7.36712
7.45682
1.19071
13.4894
1.87118
0.224221
2.79824
8.1093
5.39127
9.10173
2.07172
4.23798
1.55895
0.642728
28.0851
27.0723
37.0811
13.9265
181.032
1.6522
0.544036
1.51652
35.3319
20.5073
25.1533
1.99551
73.3151
5.85981
1.26389
23.8934
9.61458
5.33244
66.1706
1.49883
26.2731
32.8413
45.1363
30.4789
1.50673
3.58089
1.13432
28.314
27.8513
53.9773
4.29783
1.93667
3.23374
33.0843
1.57618
7.74821
60.9794
12.9664
1.56982
40.1589
22.2187
5.31264
21.7292
47.0729
3.53643
35.6994
4.37818
28.286
31.0458
1.75348
0.979027
13.0552
29.2002
18.4482
121.347
17.4325
47.9933
32.7696
33.3859
9.93973
23.0989
3.46725
38.3972
42.8259
29.3901
2.20884
61.6245
0.425508
1.75929
3.59937
37.65
0.447372
38.9983
8.6219
1.76726
5.63516
0.718306
32.9137
32.9248
1.94142
143.5
0.58512
1.52714
1.07088
144.28
2.03296
4.34812
83.079
33.1729
13.9625
10.3412
0.267023
1.84331
59.2928
5.88531
12.2234
12.8845
6.53368
1.66775
0.329278
4.70039
38.5144
1.17912
36.0813
0.612542
8.55635
6.11926
39.845
0.264735
78.3229
31.2133
37.1517
40.4828
46.6323
35.1182
27.8266
31.8741
35.1233
2.79002
2.19531
17.1737
5.49933
15.7432
1.59987
0.264544
3.57943
0.704862
1.77849
0.305344
1.90666
28.4403
6.53358
30.8149
3.44331
7.38062
4.39269
9.24638
8.6237
34.6994
90.7813
7.56026
1.43333
4.2013
4.26179
6.18213
1.67092
4.11089
4.68135
2.30391
39.1116
2.49198
17.8874
45.3953
11.0453
12.4198
5.66318
2.01333
2.43425
1.26211
2.25641
0.553319
5.21317
4.91361
0.252311
1.92115
12.8391
36.5569
1.51574
3.39685
0.716169
7.00681
6.37425
6.99915
1.47316
6.7835
0.597321
1.25838
1.47875
0.633341
10.3997
0.475538
1.35653
51.0186
41.2658
10.9198
20.6923
71.7112
9.13102
7.93474
4.12899
57.1908
0.668923
1.47222
2.81963
1.7033
1.24849
1.14007
13.1409
7.93761
59.9217
55.7641
25.7102
2.07537
0.559845
6.33873
1.37219
5.56195
72.9743
1.27584
13.6676
5.98715
6.59444
13.3582
3.91198
1.3119
4.05655
5.54509
0.972535
6.01368
5.07647
43.504
1.37789
34.6658
29.7408
38.254
28.2407
4.46737
4.84181
14.853
7.49391
11.2823
17.8577
3.95572
1.75841
2.50343
0.359467
2.46438
6.90254
1.01547
0.496579
0.698731
95.5373
0.614272
1.20672
0.48396
42.0917
0.689996
26.0562
11.7854
96.5951
2.43498
0.799432
1.39326
13.5807
1.62878
35.3453
45.3765
2.0724
1.17215
2.9135
0.388265
0.647114
59.5993
0.88289
17.4305
35.8175
12.9519
3.52684
31.3875
24.6612
17.1826
6.35148
0.383342
0.432496
1.62373
2.4192
19.1074
8.68064
55.7389
27.6348
46.7364
0.473454
59.8939
0.549191
30.4832
0.773541
6.9805
7.44058
3.56853
11.6667
2.07513
42.3804
43.933
117.694
0.581715
36.1001
75.2702
23.2092
6.75076
8.09693
4.57797
12.5628
59.9235
13.0643
1.88623
29.4729
32.5145
5.7742
8.84506
56.5924
65.7485
38.7674
30.1716
1.27873
46.7393
3.53808
19.9244
3.02273
32.5051
45.1674
1.70416
5.94345
1.14638
22.1128
164.989
34.9658
30.1985
4.44631
84.1296
4.18929
26.8221
61.7851
10.7622
3.75016
1.33895
30.4798
0.540992
0.198746
2.0374
4.55401
2.25222
61.1788
50.5079
4.38324
23.7104
1.90116
30.6573
41.5792
14.8903
8.15588
8.47434
1.11056
18.5778
1.72293
5.36802
5.01752
63.0321
12.988
39.7621
5.51772
1.8947
10.1101
11.0807
11.4801
37.9192
1.11404
4.61448
26.5855
33.5894
6.53883
1.65297
0.721545
70.2701
14.1782
14.1363
0.733773
7.56679
1.30903
1.09637
7.94623
0.691732
24.6121
58.489
22.9881
30.4165
2.31697
17.9328
1.39982
5.33424
43.4307
0.491505
2.03447
12.0799
0.604498
55.3886
83.4329
0.830423
10.278
77.0809
0.689406
14.7405
5.01979
0.225685
1.7364
45.248
2.77751
46.7453
4.4501
60.954
1.60674
79.2492
3.9559
2.65926
16.7168
6.92256
2.73016
1.13053
15.2977
0.871866
100.939
0.503859
1.36267
5.373
6.80111
7.39785
14.4596
4.11328
0.642132
46.6506
2.71344
4.36477
4.05411
28.1706
2.9853
0.570977
1.86765
1.25714
73.4053
29.2114
2.05226
4.8296
58.9677
0.483072
63.2539
7.37485
54.6794
0.207627
2.195
24.786
1.68656
1.30207
63.714
49.6986
47.9305
8.90324
115.177
0.918272
0.784334
1.79286
40.377
69.0954
113.78
0.356239
2.08817
0.63555
12.1213
6.9629
65.5988
91.871
39.0403
14.3822
4.83811
3.0198
2.56713
12.091
108.778
45.5575
4.63402
0.603578
7.66053
43.7455
70.5576
24.2638
28.4402
0.580317
1.60847
57.0059
30.6732
0.846123
75.0991
59.7022
62.0268
17.8873
3.9733
11.0689
14.7892
25.4991
56.0621
1.19542
57.0462
47.0178
12.6587
1.09883
50.0365
13.2129
14.2268
41.4194
34.6056
5.21343
1.13782
0.737487
87.4761
2.94904
2.70492
75.3465
1.26997
43.3812
35.2818
1.09208
55.8168
4.90052
6.22247
9.53259
19.8039
12.6208
37.1464
89.3224
0.57557
89.0628
0.900527
41.4454
54.3332
0.710809
2.8065
1.46202
1.23157
78.0872
39.4357
7.711
8.61733
23.3502
0.416718
2.13761
24.8559
9.10858
0.554264
7.55802
4.64191
1.12771
110.945
43.7763
61.3439
30.9226
54.5098
1.31293
1.13155
4.19884
56.4954
33.3468
18.3292
12.3851
3.96401
50.6833
1.91009
78.1149
2.78509
1.98913
0.901882
7.63544
8.64624
5.65715
15.7392
5.08062
34.4682
41.7653
20.239
4.78101
5.90973
14.2397
4.33202
82.1973
42.5984
67.5059
29.557
1.34921
78.4016
43.1023
35.7236
3.16049
0.652967
13.0983
0.945596
41.504
1.26114
0.372963
59.4501
6.0149
37.0673
30.9619
35.0098
23.1144
28.5172
12.5284
4.55095
39.7551
11.8588
20.4639
0.921356
4.85245
3.32057
0.74801
2.88118
30.753
1.00663
1.28822
0.702532
0.745796
3.1456
38.2467
3.57523
68.1071
52.9715
13.3295
19.7487
1.98896
3.62323
4.3158
0.705962
2.99328
5.41659
2.25077
68.7873
5.89927
20.462
0.545609
7.25112
3.40473
1.5631
119.165
0.91951
1.40981
4.52597
5.07602
1.89689
2.85411
1.4807
35.904
5.79773
2.14874
1.19443
2.5846
0.894102
30.4205
3.15939
4.57204
1.35845
2.92869
7.5137
2.53931
58.9991
7.51947
4.00133
5.07667
3.20508
20.161
37.4419
1.10459
5.83968
2.38282
2.59934
1.2127
10.5128
1.4529
6.79621
38.1698
9.15203
44.1458
2.5013
167.223
6.12266
44.597
84.7253
12.0929
3.3384
0.475625
11.2061
2.89099
53.8995
3.12491
54.5274
1.06514
45.6509
1.19995
0.41051
9.64818
0.85996
12.6071
8.24742
57.235
5.51928
47.9614
41.5015
34.2252
41.5681
4.84052
3.67063
14.7266
48.199
34.8577
11.9423
11.8934
48.6256
36.4888
70.8521
29.444
11.66
23.8847
5.09725
42.9059
17.9433
5.39672
44.8093
124.702
5.7894
19.7703
27.9698
)
;

boundaryField
{
    frontAndBack
    {
        type            empty;
    }
    wallOuter
    {
        lowReCorrection 0;
        type            epsilonWallFunction;
        value           nonuniform List<scalar> 
90
(
24.1611
25.1533
23.8934
26.2731
30.4789
28.314
27.8513
40.1589
22.2187
28.286
31.0458
42.8259
29.3901
37.65
32.9137
83.079
31.2133
37.1517
40.4828
46.6323
35.1182
27.8266
31.8741
35.1233
34.6994
59.9217
55.7641
34.6658
38.254
14.853
7.49391
11.2823
17.8577
3.95572
1.75841
1.01547
0.48396
0.689996
26.0562
0.799432
0.388265
0.647114
59.5993
0.88289
0.383342
0.432496
0.549191
30.4832
0.773541
43.933
56.5924
22.1128
30.6573
39.7621
26.5855
0.733773
0.691732
24.6121
58.489
17.9328
43.4307
0.491505
0.830423
77.0809
45.248
60.954
79.2492
0.871866
100.939
0.503859
47.9305
0.918272
113.78
0.63555
91.871
108.778
28.4402
30.6732
0.846123
62.0268
35.2818
89.0628
0.900527
30.9226
20.239
0.745796
119.165
0.91951
35.904
20.161
)
;
    }
    inlet
    {
        type            fixedValue;
        value           uniform 14.855;
    }
    outlet
    {
        type            zeroGradient;
    }
    wallInner
    {
        lowReCorrection 0;
        type            epsilonWallFunction;
        value           nonuniform List<scalar> 
138
(
4.55698
12.2434
29.8122
11.0225
11.8291
3.66332
74.0888
13.4477
7.38671
8.42846
27.5363
49.0228
9.0428
3.65006
1.507
2.72103
4.62671
5.28336
5.69543
73.475
136.418
36.6095
2.15578
31.0104
34.251
38.5382
28.9507
40.8483
31.9768
35.1923
32.5966
5.71939
3.57664
2.77072
0.587942
1.70656
2.53178
2.45641
3.21727
2.10711
0.914235
2.30513
2.57479
1.97322
1.58794
3.84973
1.88822
1.41187
2.28411
0.157111
0.881947
2.65385
2.28797
3.3235
1.43004
2.07319
2.70417
1.13481
2.87325
2.06414
2.34113
4.15143
0.794031
1.8391
0.254892
2.94963
2.25402
7.81589
39.6336
2.01954
66.5884
5.16769
7.20054
18.4368
42.5822
10.2051
44.8682
6.20155
5.27492
14.416
11.8833
84.207
113.038
49.4349
39.8332
99.5298
1.19566
0.586816
31.7975
32.5867
2.553
6.41926
1.3619
4.95614
0.782709
0.224221
2.79824
1.50673
1.13432
12.9664
17.4325
3.46725
3.59937
0.718306
33.1729
0.329278
3.57943
30.8149
3.44331
2.30391
6.33873
43.504
0.359467
2.46438
0.698731
31.3875
46.7364
0.473454
36.1001
75.2702
1.72293
0.721545
70.2701
0.689406
4.11328
2.71344
58.9677
0.483072
3.0198
2.56713
1.09208
11.8934
42.9059
17.9433
5.39672
124.702
5.7894
27.9698
)
;
    }
    procBoundary0to1
    {
        type            processor;
        value           nonuniform List<scalar> 
29
(
8.70033
11.3856
8.79439
8.79439
42.8568
42.8568
125.704
10.6426
76.8
9.69626
8.72678
52.8114
12.1287
12.1068
76.8353
29.6321
55.7411
69.0882
9.90328
12.1008
12.3778
6.49884
59.1113
10.5611
10.6151
69.0882
8.39428
67.0197
10.5611
)
;
    }
    procBoundary0to2
    {
        type            processor;
        value           nonuniform List<scalar> 
42
(
24.7058
26.7139
0.587178
0.527376
1.40949
24.7058
0.587178
0.732356
0.689185
0.433351
2.72264
5.45117
2.72264
7.52591
11.1818
20.1397
11.1818
0.446876
0.472864
9.46428
9.46428
0.446876
0.448485
7.46015
7.46015
0.535676
9.51442
0.493006
15.0416
26.1549
26.1549
0.38341
0.263185
0.206507
0.24058
0.587178
20.0157
0.641657
15.0416
0.732356
0.621839
0.402803
)
;
    }
}


// ************************************************************************* //
