/*--------------------------------*- C++ -*----------------------------------*\
| =========                 |                                                 |
| \\      /  F ield         | OpenFOAM: The Open Source CFD Toolbox           |
|  \\    /   O peration     | Version:  v1912                                 |
|   \\  /    A nd           | Website:  www.openfoam.com                      |
|    \\/     M anipulation  |                                                 |
\*---------------------------------------------------------------------------*/
FoamFile
{
    version     2.0;
    format      ascii;
    class       volScalarField;
    location    "0.6";
    object      nut;
}
// * * * * * * * * * * * * * * * * * * * * * * * * * * * * * * * * * * * * * //

dimensions      [0 2 -1 0 0 0 0];


internalField   nonuniform List<scalar> 
1431
(
0.000713436
0.00421952
0.00220414
0.00142963
0.000704001
0.00161304
0.0030693
0.000785874
0.00463817
0.00475726
0.000634476
0.000641823
0.000849693
0.0013448
0.00329288
0.000660272
0.00344689
0.00107962
0.000441745
0.000649762
0.000538849
0.00727858
0.00225037
0.00144891
0.00143139
0.000667753
0.0013442
0.00124948
0.00101114
0.00130714
0.00158528
0.00072708
0.00192507
0.000859937
0.000854695
0.0018251
0.000669622
0.000857552
0.00387312
0.000856293
0.00247778
0.000527241
0.00130752
0.00131975
0.00358657
0.000969024
0.00204517
0.000811233
0.000929891
0.000868606
0.00141324
0.0034886
0.00309201
0.0026028
0.0023357
0.000770251
0.00214374
0.00213223
0.000992185
0.000470055
0.00265186
0.000617281
0.00206388
0.000782826
0.000906426
0.00117311
0.00229593
0.000898924
0.00634793
0.000749962
0.000803806
0.000784368
0.000866621
0.00231786
0.000701365
0.00116408
0.000776878
0.00285775
0.0007838
0.00204611
0.000805362
0.00177085
0.000835094
0.0022761
0.00191417
0.000790969
0.000881764
0.00058525
0.0015624
0.000729382
0.00091009
0.000684481
0.000842934
0.000860996
0.00141241
0.000708527
0.000685946
0.000727568
0.00105222
0.00118227
0.0070614
0.000804854
0.000787307
0.000680479
0.000873483
0.00233053
0.000785146
0.00313864
0.00228849
0.000730797
0.00228364
0.000953722
0.000754997
0.000697203
0.00085188
0.000627659
0.000984551
0.00290207
0.00168795
0.00276168
0.000857712
0.00271111
0.00302933
0.00144925
0.000831126
0.00245743
0.00183304
0.000743592
0.000968561
0.000808999
0.000878146
0.0029747
0.00101513
0.000766107
0.000732912
0.000839269
0.000829759
0.00116081
0.000932035
0.00291389
0.00388221
0.000396052
0.000769412
0.00100144
0.00119602
0.000775177
0.00073275
0.00324368
0.000777051
0.000831453
0.0008186
0.000959523
0.00368431
0.000481138
0.000457018
0.000728945
0.00080283
0.000686005
0.00075585
0.000711658
0.0012261
0.000657002
0.000787538
0.000614174
0.000874847
0.0027159
0.000760222
0.000862186
0.00124435
0.000851976
0.00111386
0.000818842
0.0014566
0.000768691
0.000771154
0.000372345
0.000388559
0.000875733
0.0012512
0.000707937
0.000839181
0.00302009
0.000752686
0.00081209
0.000773009
0.00083481
0.00075258
0.00109798
0.000682745
0.000799221
0.00458491
0.00339272
0.000705782
0.000790009
0.00543454
0.000844126
0.000784503
0.000833285
0.00055192
0.000517729
0.00053529
0.000662476
0.000770175
0.00237748
0.000785496
0.00164253
0.000793341
0.000834161
0.000686712
0.000878529
0.000789253
0.000782071
0.00173674
0.000831594
0.00124611
0.00127631
0.000756529
0.00321266
0.000925992
0.00083369
0.000830222
0.00210716
0.000776773
0.00207986
0.000825738
0.000875884
0.00102304
0.000803407
0.000840935
0.00174398
0.000841644
0.000960962
0.00074661
0.000796447
0.000789966
0.000782916
0.000735968
0.000801412
0.000826689
0.00362521
0.000841468
0.00073337
0.00576927
0.00296005
0.000706104
0.000686321
0.000830371
0.00145559
0.00143172
0.00100501
0.000724609
0.00522095
0.00546395
0.00107299
0.0022528
0.00109723
0.000451631
0.00334481
0.00113245
0.00110648
0.00108542
0.000653761
0.00109705
0.00379704
0.000789475
0.000817619
0.00103248
0.000742397
0.000927532
0.00510565
0.000741268
0.000991488
0.000726295
0.000725729
0.00107469
0.000763889
0.000747907
0.00185826
0.00207331
0.00412423
0.00403746
0.00367659
0.000798995
0.000695961
0.00102972
0.00116843
0.000821481
0.000753015
0.000929258
0.000832271
0.000776268
0.000868327
0.000744502
0.0023701
0.000736755
0.000743436
0.000759579
0.000757093
0.00400684
0.000703318
0.000843679
0.00107419
0.000987745
0.000747821
0.000590493
0.00430628
0.000828434
0.00110452
0.0011145
0.00170705
0.000835895
0.000783541
0.00200031
0.000850475
0.000734381
0.00421984
0.00376375
0.00337028
0.000794931
0.00479749
0.00423095
0.00374312
0.00323757
0.00391336
0.00797402
0.00567138
0.000806462
0.00649009
0.00187995
0.000830843
0.00145661
0.000740624
0.00308813
0.00398788
0.000785951
0.00727271
0.000962752
0.00250783
0.000995139
0.0009819
0.000517998
0.000822388
0.0065822
0.000936339
0.00159912
0.000422565
0.000826286
0.000442645
0.000287484
0.000436654
0.000590709
0.000343905
0.000487564
0.000436986
0.0002814
0.000574639
0.000407261
0.000337916
0.000383314
0.000365049
0.000444755
0.000440287
0.000453202
0.000172001
0.000417191
0.000439857
0.000455052
0.000491158
0.00134566
0.00178328
0.00438828
0.00295509
0.00462933
0.000773813
0.00204513
0.0012489
0.00187669
0.000841903
0.000848842
0.000414691
0.000320501
0.000471711
0.000476789
0.000450161
0.000532317
0.000458167
0.000534403
0.000253823
0.000411298
0.000209048
0.000464643
0.0026024
0.000923194
0.000848691
0.0054902
0.000574275
0.00182723
0.000834637
0.00819853
0.000771624
0.000362613
0.00172884
0.00083267
0.00116306
0.00142802
0.000775042
0.00316709
0.00073117
0.00169787
0.0016595
0.000830671
0.000478612
0.00169828
0.00202066
0.00108725
0.00101283
0.00279775
0.00443237
0.00203464
0.00168707
0.00361657
0.00472524
0.00857727
0.00394458
0.00299749
0.00321694
0.00490765
0.00709235
0.00599881
0.00534217
0.00517675
0.00234231
0.000362885
0.00681053
0.00356088
0.00447481
0.00624459
0.00660525
0.00429194
0.00377371
0.00336348
0.00106392
0.00627678
0.00584609
0.000523621
0.00784698
0.00821468
0.00217373
0.000575448
0.00738996
0.00727553
0.00833891
0.00799905
0.00858031
0.00546244
0.00840959
0.00807455
0.00785195
0.00832925
0.00337957
0.00284155
0.000711026
0.0038418
0.00249463
0.00314939
0.00282493
0.00156812
0.00283018
0.00280842
0.00256425
0.00247355
0.00129729
0.000749329
0.00105625
0.0019909
0.00222919
0.00242544
0.00233787
0.00331749
0.000600067
0.00334644
0.00150878
0.0010657
0.000799857
0.000862555
0.00183749
0.00189816
0.00844781
0.00717575
0.000535433
0.000514901
0.000693701
0.00162172
0.00277236
0.000649277
0.00181293
0.0012087
0.00469911
0.000837184
0.00465601
0.00174921
0.00144494
0.00693592
0.00550888
0.00572669
0.00161682
0.00178617
0.00854898
0.00403083
0.00102896
0.000942407
0.00177864
0.000741178
0.00115718
0.0007923
0.00439355
0.00299085
0.00133129
0.00374347
0.00284261
0.0016982
0.00355451
0.00311823
0.00165294
0.00186665
0.00672377
0.0013877
0.00615934
0.00332353
0.00576628
0.000840851
0.00074756
0.00476621
0.00311759
0.00787979
0.00590755
0.00670846
0.00573123
0.00761815
0.00193291
0.0058388
0.00298302
0.00226229
0.00202906
0.000306437
0.00827644
0.00652185
0.0007956
0.00837404
0.00120291
0.00471374
0.000432068
0.00108131
0.00701948
0.00313424
0.00148841
0.00586567
0.00228595
0.00104219
0.000757123
0.00754165
0.00521967
0.00549688
0.00335258
0.00246697
0.00180606
0.00710378
0.000736433
0.00221747
0.00595815
0.000462497
0.00812463
0.00220587
0.00818241
0.00257909
0.000626655
0.00607918
0.00156197
0.00551497
0.000938993
0.00200636
0.000797625
0.00126163
0.00471279
0.00171327
0.00569107
0.00182285
0.000773369
0.00165457
0.000801449
0.00210692
0.00220871
0.000848174
0.000763928
0.000755281
0.00557541
0.000813534
0.00493319
0.000735155
0.000497004
0.00188981
0.0023164
0.00131916
0.00642915
0.0067453
0.00831498
0.00065861
0.00085523
0.00767539
0.00185339
0.00152204
0.00797069
0.00211576
0.00741133
0.00171823
0.000740971
0.00224805
0.00287017
0.00703897
0.00828951
0.00108177
0.00299031
0.00102044
0.000781011
0.00335051
0.00092656
0.000922486
0.000811663
0.00746197
0.000804305
0.00766069
0.00113456
0.000493672
0.000805149
0.00413546
0.00779256
0.000951371
0.00072773
0.00102061
0.000968025
0.00629796
0.00532702
0.000806292
0.00815002
0.00234918
0.00630813
0.00610552
0.00353791
0.00415675
0.00118356
0.00176271
0.00393604
0.000753186
0.00107366
0.00393295
0.00762872
0.000820287
0.000841072
0.00538494
0.0080944
0.00478466
0.00116721
0.000711949
0.000781921
0.000827465
0.000469866
0.00084807
0.00835978
0.00816721
0.0020732
0.000988763
0.000821858
0.000865213
0.0037117
0.000826933
0.000778394
0.00158676
0.00160724
0.000845477
0.000978115
0.00313154
0.000484848
0.00063291
0.00145123
0.00258703
0.00358238
0.00324581
0.0058584
0.00200788
0.0026429
0.00210639
0.004507
0.00619982
0.000726379
0.00732554
0.00081005
0.000192545
0.000476301
0.000824364
0.000716089
0.00649781
0.000758617
0.000760233
0.000818162
0.000660548
0.00128299
0.00105655
0.00813791
0.000850247
0.00249071
0.00137726
0.000972818
0.00143694
0.00841502
0.00728093
0.000635548
0.00321298
0.00582345
0.000709116
0.000833156
0.000644502
0.000838318
0.000803137
0.00304034
0.00100816
0.000626388
0.00777192
0.0077224
0.000690521
0.000424448
0.00442648
0.000413355
0.000702953
0.000717216
0.00349091
0.000763151
0.0006074
0.00147055
0.00823312
0.000624579
0.0053095
0.00631019
0.00069037
0.00113911
0.000785319
0.000663524
0.000747462
0.000877044
0.00125492
0.000881039
0.00374229
0.000751986
0.000736478
0.00075873
0.000686921
0.00089178
0.000845058
0.000841538
0.000872105
0.00200185
0.000785132
0.00120343
0.00154335
0.00171072
0.000852753
0.00210853
0.000405344
0.00173822
0.000794106
0.000751015
0.00198789
0.00298099
0.000688863
0.00126751
0.000568759
0.000776362
0.00121646
0.00230732
0.00617225
0.000832086
0.000970202
0.000295746
0.000767284
0.00331796
0.00217778
0.00346498
0.000795092
0.00155976
0.000668339
0.00220599
0.000727283
0.000769437
0.000884868
0.000915202
0.000847849
0.00083446
0.000736565
0.00111152
0.00343984
0.000806736
0.00701536
0.00470792
0.000706264
0.000910566
0.000228816
0.00335482
0.00190931
0.00131127
0.00221477
0.000802324
0.000828493
0.000808489
0.00285078
0.00114381
0.00172957
0.000833961
0.000673826
0.000597371
0.000538704
0.000649038
0.00083743
0.000732241
0.00077276
0.00187075
0.000808383
0.000776376
0.000816424
0.00529055
0.000975473
0.0011023
0.000535091
0.000654552
0.00173503
0.000976168
0.000980786
0.00105399
0.0054399
0.00112854
0.000489772
0.00589508
0.000777026
0.000729347
0.000730644
0.00066381
0.00222111
0.000709494
0.00190962
0.00443802
0.00339567
0.00081883
0.00249427
0.00498104
0.00388307
0.000436573
0.00162903
0.000554895
0.00303489
0.0028504
0.000837688
0.000866024
0.000805521
0.000668964
0.000725338
0.00142316
0.00284096
0.000837591
0.000802499
0.000759789
0.000911595
0.0011537
0.000803258
0.00182304
0.00109807
0.00485986
0.00114416
0.000767931
0.00201962
0.00185443
0.0016694
0.000817701
0.00133321
0.000947312
0.00115945
0.00177384
0.000745495
0.000779389
0.000518874
0.00287447
0.0037607
0.0007115
0.000876014
0.00259979
0.00267043
0.000824952
0.000876249
0.00287092
0.000950317
0.00193966
0.00142725
0.000897444
0.00148109
0.00171392
0.00751606
0.006348
0.000958108
0.000969315
0.000845728
0.000776179
0.0014549
0.000485628
0.000938877
0.000804987
0.00402341
0.00138529
0.00752722
0.00276542
0.00139254
0.000863016
0.000658007
0.000902176
0.00376285
0.000782862
0.000657123
0.000813655
0.000793735
0.00106634
0.00086956
0.000730078
0.00549123
0.00070434
0.00688723
0.000743752
0.000732025
0.000551556
0.000469456
0.000521189
0.000577331
0.000386763
0.000283405
0.000834739
0.000246338
0.000426878
0.000818718
0.000208565
0.00083006
0.000326789
0.00240298
0.00076608
0.0015309
0.000148372
0.00773824
0.000224826
0.000692747
0.00687924
0.0034281
0.000792228
0.000175373
0.00127906
0.00716918
0.00129833
0.00289251
0.00792751
0.00201241
0.00169081
0.00298013
0.000140443
0.0001666
0.000868245
0.000202505
0.00161319
0.00825581
0.00728463
0.00373758
0.000963038
0.00391224
0.00756558
0.000815621
0.000138033
0.000149467
0.0005852
0.00382488
0.000783105
0.00629176
0.0020079
0.00241759
0.000743432
0.000219849
0.00282397
0.000176316
0.000991985
0.00026929
0.000822967
0.00589171
0.00471241
0.000830288
0.00105023
0.00604651
0.000898128
0.00225039
0.000708111
0.000745892
0.00095411
0.000810534
0.00187604
0.00182042
0.000775718
0.00124624
0.0035184
0.000845965
0.000772589
0.00778528
0.00834291
0.000812052
0.000726198
0.000994173
0.0024257
0.00206095
0.0031107
0.00133045
0.00666928
0.00366756
0.00223376
0.00311771
0.00256633
0.00108211
0.00136119
0.00375702
0.00210882
0.000637298
0.00273982
0.00809581
0.00799037
0.00503397
0.00243377
0.00081044
0.00393229
0.0023296
0.00083741
0.00230986
0.00163822
0.00109288
0.000702843
0.000767431
0.00117223
0.00377137
0.00269801
0.00295612
0.00670331
0.00074807
0.00343676
0.00184798
0.000624146
0.00519983
0.00264216
0.00138839
0.00140194
0.00104276
0.000789654
0.000433793
0.000744631
0.00369296
0.00388861
0.000846282
0.000776918
0.000776735
0.000964581
0.000725512
0.000776942
0.000840422
0.00522914
0.000835136
0.000797288
0.000774405
0.00184433
0.000820491
0.00166218
0.00020636
0.000781212
0.000791404
0.000802779
0.000233783
0.000715093
0.001498
0.00157373
0.000750595
0.00027725
0.00097237
0.00105539
0.000796031
0.00491093
0.00361511
0.000743932
0.00140946
0.000764867
0.000534264
0.000150391
0.00179657
0.000833616
0.000891238
0.00212436
0.00177325
0.000218934
0.000780067
0.000874246
0.000348618
0.000864584
0.00367698
0.000961838
0.00105647
0.00081009
0.00142941
0.0042461
0.00228387
0.000706252
0.00117377
0.000911477
0.00527037
0.00160447
0.000993767
0.000791579
0.00142132
0.00195792
0.000790622
0.000208249
0.000899878
0.000171122
0.00177001
0.00346116
0.00276239
0.00237424
0.000788551
0.000475622
0.00062763
0.00655888
0.0003631
0.000734996
0.00235238
0.000996625
0.00113952
0.00055747
0.00150894
0.00107734
0.00625198
0.00583138
0.00080497
0.000799268
0.000810601
0.000251769
0.00154136
0.000821582
0.00289039
0.000558048
0.00124586
0.00432205
0.00238023
0.00145017
0.00370568
0.00116137
0.000522207
0.000834814
0.00135069
0.000178431
0.00120584
0.00186266
0.00675441
0.00169503
0.000776663
0.000486442
0.00135087
0.000184523
0.000840556
0.00337658
0.00510528
0.000787422
0.000838244
0.000839725
0.000785143
0.000454546
0.000443764
0.00725174
0.000624322
0.00307805
0.000740942
0.000912225
0.00631229
0.000827176
0.00291799
0.00640769
0.000592184
0.00122105
0.0024217
0.00193584
0.000870634
0.000223468
0.00407263
0.00683414
0.000861935
0.00792416
0.00075663
0.000738633
0.00386319
0.00217619
0.00196629
0.0016273
0.00470778
0.000883396
0.000851146
0.000952905
0.00756669
0.000842463
0.000819758
0.00143589
0.00526618
0.000675347
0.00187475
0.00189204
0.00269333
0.00164676
0.00289277
0.00147565
0.00202632
0.00668901
0.000473843
0.000284512
0.00364873
0.000740175
0.000671536
0.000748933
0.000772627
0.000844357
0.000906578
0.00196455
0.000690145
0.000891322
0.000190928
0.00822182
0.00105531
0.000721889
0.00279348
0.00107178
0.00139016
0.00259765
0.00148705
0.00145374
0.00148972
0.00811429
0.000993904
0.000812817
0.00176351
0.000732008
0.000872538
0.000596431
0.000790404
0.00122442
0.00281191
0.00812085
0.00179656
0.000622045
0.00717268
0.00128385
0.000928963
0.00263954
0.0031387
0.00294183
0.000769373
0.000844075
0.00251876
0.00239452
0.00204177
0.00414326
0.00426876
0.00179402
0.00140454
0.000827862
0.000630245
0.000813899
0.000874055
0.000800155
0.000838668
0.00101611
0.000606021
0.00289123
0.000818681
0.000952618
0.00430792
0.00228757
0.00812105
0.00697007
0.00681472
0.00113727
0.00243816
0.00113987
0.00287272
0.000673134
0.000586197
0.000845878
0.00109825
0.00369532
0.00091852
0.00125577
0.00755378
0.000784271
0.00314222
0.00757932
0.008172
0.00782184
0.00832254
0.000774491
0.0043391
0.0078357
0.00084513
0.000784277
0.000648053
0.00533874
0.00399613
0.000546952
0.00352551
0.00728941
0.000716154
0.00194516
0.000804436
0.000200148
0.00225026
0.00793253
0.00210089
0.00213834
0.00104266
0.000854758
0.00808206
0.00080881
0.00173721
0.00454076
0.00098778
0.00223092
0.000756943
0.00067303
0.0019454
0.000817728
0.000897027
0.00078481
0.000730492
0.00216302
0.0014566
0.000789602
0.000181048
0.000918214
0.00147407
0.000801167
0.000582131
0.000644682
0.0008017
0.000683469
0.00151744
0.00282428
0.00215181
0.00211728
0.000968954
0.000857996
0.000701059
0.0054965
0.000891322
0.00248516
0.000729896
0.00298934
0.00276456
0.00249372
0.000657297
0.000750299
0.00074432
0.000696427
0.000946844
0.000571615
0.000699394
0.000967226
0.00361861
0.00109393
0.00304614
0.000939494
0.00079714
0.00690646
0.000642917
0.00180145
0.00269503
0.00292682
0.000810625
0.00102819
0.00170027
0.000842884
0.00123812
0.000663153
0.00083223
0.00081705
0.00134549
0.00281418
0.00780941
0.000998744
0.00118373
0.000926651
0.000377007
0.000677434
0.000589429
0.000837314
0.000831389
0.00134228
0.00509701
0.00150903
0.000877097
0.000910441
0.000913067
0.000791924
0.00203213
0.00744163
0.00739128
0.00745566
0.000740684
0.000669056
0.007011
0.00713353
0.00663603
0.00629993
0.00290917
0.000802756
0.000757082
0.00114035
0.000741222
0.000781914
0.00102041
0.00159532
0.000720968
0.000830862
0.000844303
)
;

boundaryField
{
    frontAndBack
    {
        type            empty;
    }
    wallOuter
    {
        type            nutkWallFunction;
        Cmu             0.09;
        kappa           0.41;
        E               9.8;
        value           nonuniform List<scalar> 
90
(
7.97333e-05
7.67535e-05
7.78082e-05
7.56727e-05
8.3203e-05
8.46371e-05
8.62888e-05
9.41836e-05
8.0043e-05
8.85223e-05
9.11013e-05
9.51979e-05
9.02064e-05
9.31481e-05
9.20928e-05
0.000105518
9.97666e-05
8.12493e-05
7.22363e-05
6.52325e-05
7.83421e-05
0.000100164
8.80576e-05
9.27287e-05
8.00772e-05
0.000113762
0.000115088
8.78059e-05
8.48431e-05
6.63466e-05
5.52684e-05
6.22594e-05
6.96719e-05
4.42722e-05
3.14037e-05
2.26849e-05
1.50459e-05
2.62474e-05
8.35517e-05
1.85791e-05
1.41046e-05
1.75425e-05
0.000103892
2.32853e-05
1.36957e-05
1.51786e-05
1.93768e-05
0.000117798
3.22257e-05
0.000107076
0.000117856
7.69926e-05
7.54091e-05
9.3323e-05
9.30339e-05
2.7475e-05
3.32827e-05
0.000115574
0.00012474
8.94116e-05
6.46991e-05
1.58084e-05
2.55963e-05
0.000104558
9.70361e-05
8.50016e-05
0.000108528
2.41754e-05
0.000107481
1.85515e-05
6.32537e-05
2.00242e-05
9.31652e-05
2.0688e-05
9.46285e-05
7.54079e-05
7.16211e-05
0.000103949
2.62518e-05
0.000103141
5.73803e-05
0.000106509
2.17781e-05
7.51607e-05
7.32204e-05
2.29667e-05
9.48813e-05
2.03612e-05
8.23783e-05
8.38915e-05
)
;
    }
    inlet
    {
        type            calculated;
        value           uniform 0.000851986;
    }
    outlet
    {
        type            calculated;
        value           nonuniform 0();
    }
    wallInner
    {
        type            nutkWallFunction;
        Cmu             0.09;
        kappa           0.41;
        E               9.8;
        value           nonuniform List<scalar> 
138
(
7.86323e-05
5.30096e-05
0.000218151
0.000104457
0.000104029
6.25995e-05
0.000256658
0.000108449
9.77461e-05
9.57978e-05
0.000136695
0.00012026
5.88996e-05
5.49965e-05
4.46058e-05
4.74552e-05
6.6816e-05
6.28176e-05
6.53613e-05
7.99429e-05
0.000234474
0.000129386
5.54107e-05
0.000133274
0.000130406
0.000128079
0.000122162
0.00012689
0.000121857
0.000130191
0.000131291
6.30224e-05
5.235e-05
5.43965e-05
3.34612e-05
5.26445e-05
7.24824e-05
4.23175e-05
6.0086e-05
5.46255e-05
3.33093e-05
7.04778e-05
5.0283e-05
4.19842e-05
4.78241e-05
4.39088e-05
5.42534e-05
5.35212e-05
5.63038e-05
1.85841e-05
5.0091e-05
5.39943e-05
5.60569e-05
5.96767e-05
5.09946e-05
3.96975e-05
5.79527e-05
5.75251e-05
5.56047e-05
6.45862e-05
5.66226e-05
6.52497e-05
3.00877e-05
5.16396e-05
2.30621e-05
5.71064e-05
4.39244e-05
5.86524e-05
0.000120049
4.28406e-05
0.00012608
6.45167e-05
7.1171e-05
8.54382e-05
0.000124939
7.20829e-05
0.000126007
6.61878e-05
6.36818e-05
8.31877e-05
7.78881e-05
0.000142059
0.000167708
0.000122281
0.000112659
0.000155428
3.84401e-05
5.25061e-05
0.000127605
0.000123252
5.68205e-05
6.1125e-05
5.87679e-05
5.80123e-05
5.83974e-05
2.17709e-05
5.85137e-05
5.14072e-05
4.97994e-05
8.31797e-05
9.50108e-05
4.90466e-05
6.60675e-05
3.59255e-05
0.000108985
2.6536e-05
6.57135e-05
0.00013284
6.08116e-05
5.26645e-05
5.80027e-05
0.000125967
2.85517e-05
5.24014e-05
3.91002e-05
0.000114492
8.94713e-05
2.53194e-05
9.02659e-05
0.000113741
5.36845e-05
2.38954e-05
9.37466e-05
4.12831e-05
5.72834e-05
4.42687e-05
9.71655e-05
3.01177e-05
5.48429e-05
5.44622e-05
3.45259e-05
8.06866e-05
0.000134125
8.90939e-05
9.47984e-05
0.000183679
8.84034e-05
0.000101547
)
;
    }
    procBoundary0to1
    {
        type            processor;
        value           nonuniform List<scalar> 
29
(
0.0025126
0.00384109
0.00323791
0.00323791
0.00508333
0.00508333
0.00309169
0.00105408
0.00188014
0.00456738
0.00287654
0.00192417
0.00105781
0.00105918
0.0024933
0.00141226
0.00780146
0.00566299
0.00483552
0.00379026
0.000914982
0.000741068
0.00310181
0.000747341
0.000730933
0.00566299
0.000734604
0.000921676
0.000747341
)
;
    }
    procBoundary0to2
    {
        type            processor;
        value           nonuniform List<scalar> 
42
(
0.00615059
0.00759406
0.000986338
0.000810975
0.00225952
0.00615059
0.000986338
0.0013354
0.00142736
0.0015363
0.00388426
0.00505596
0.00388426
0.00577632
0.00664322
0.0048114
0.00664322
0.00160384
0.00137138
0.00318347
0.00318347
0.00160384
0.00144115
0.00221686
0.00221686
0.0012018
0.00212497
0.0010182
0.00286366
0.0080314
0.0080314
0.000862928
0.000828923
0.000939537
0.00110294
0.000986338
0.0077025
0.000243932
0.00286366
0.0013354
0.00144379
0.00128781
)
;
    }
}


// ************************************************************************* //
