/*--------------------------------*- C++ -*----------------------------------*\
| =========                 |                                                 |
| \\      /  F ield         | OpenFOAM: The Open Source CFD Toolbox           |
|  \\    /   O peration     | Version:  v1912                                 |
|   \\  /    A nd           | Website:  www.openfoam.com                      |
|    \\/     M anipulation  |                                                 |
\*---------------------------------------------------------------------------*/
FoamFile
{
    version     2.0;
    format      ascii;
    class       volScalarField;
    location    "0.9";
    object      k;
}
// * * * * * * * * * * * * * * * * * * * * * * * * * * * * * * * * * * * * * //

dimensions      [0 2 -2 0 0 0 0];


internalField   nonuniform List<scalar> 
1431
(
0.0446338
0.448421
1.53745
1.01058
0.073807
0.718625
0.157582
0.196664
2.83209
1.32846
0.421214
0.100702
0.0723198
0.935636
1.76015
0.460643
1.78764
0.146956
0.0908502
0.37448
0.0524153
1.01605
1.06974
1.02241
0.897949
0.329381
0.916325
0.857501
0.497848
0.117348
0.905518
0.314406
0.818423
0.123039
0.0906528
1.00465
0.282401
0.312802
0.464747
0.305852
1.96528
0.234953
0.118317
0.0937778
1.15885
0.0714415
0.978547
0.211344
0.427249
0.397466
0.117474
1.14046
2.0575
0.185315
0.116909
0.203517
0.87894
1.30262
0.772848
0.0583947
1.23174
0.195027
1.11272
0.29241
0.593938
0.149512
1.41748
0.623873
0.263024
0.322934
0.0950527
0.0739931
0.134573
0.643757
0.415766
0.610005
0.0557679
1.40882
0.224153
1.35034
0.26956
0.120667
0.0481833
1.29909
1.39683
0.0688737
0.0802096
0.366356
1.12105
0.302031
0.213586
0.656555
0.0778572
0.311823
0.132992
0.0583467
0.391626
0.26537
0.0865164
0.621029
0.338671
0.222807
0.294269
0.0877557
0.522757
0.093554
0.240232
2.3034
1.22888
0.0651078
1.57397
0.205183
0.214827
0.216771
0.495919
0.0889304
0.137019
1.13641
1.23703
0.915084
0.292026
1.74727
1.10904
0.917172
0.293619
0.102767
1.37879
0.155524
0.0568126
0.487399
0.230406
1.9934
0.737395
0.250264
0.07553
0.880057
0.158053
0.214773
0.137145
2.06916
1.73528
0.091222
0.289941
0.446912
0.513531
0.373822
0.267163
2.33758
0.200317
0.364603
0.50697
0.639437
0.188966
0.0250635
0.126987
0.124352
0.283216
0.201414
0.20691
0.259838
0.14121
0.359461
0.232734
0.375555
0.0917388
2.03734
0.0621064
0.303759
0.117349
0.274918
0.636473
0.509281
0.866042
0.386008
0.282824
0.0460441
0.124452
0.498008
0.126776
0.218768
0.316538
1.33801
0.206934
0.252624
0.34854
0.390287
0.230808
0.793189
0.297867
0.299347
0.130175
1.89608
0.0548069
0.25429
3.05983
0.275852
0.234393
0.262218
0.120898
0.0693006
0.0440312
0.731417
0.322648
2.04164
0.246403
1.109
0.0638885
0.305131
0.391742
0.474013
0.26436
0.215865
1.18224
0.299683
0.515196
0.62956
0.200196
0.115225
0.48885
0.304315
0.291832
1.23059
0.430944
1.85285
0.318543
0.531303
0.538631
0.229984
0.417171
0.950049
0.0772861
0.724628
0.302573
0.200866
0.196746
0.204865
0.287273
0.0818649
0.274526
0.122623
0.311387
0.287509
2.64173
1.58481
0.132796
0.148059
0.309286
0.106891
0.15418
0.545327
0.267966
2.83455
1.2313
0.500273
1.1345
0.662625
0.0473308
0.125727
0.620208
0.643894
0.676075
0.221814
0.0942217
1.85813
0.198748
0.404938
0.572935
0.25004
0.422532
2.07713
0.239379
0.49357
0.265945
0.264628
0.692499
0.271227
0.29101
0.14186
0.172329
1.40204
2.61203
0.122059
0.355166
0.230043
0.600906
0.794429
0.0720271
0.191108
0.483261
0.292533
0.391763
0.333105
0.193497
0.119303
0.291538
0.214398
0.0535018
0.25309
0.168944
0.239084
0.322821
0.554713
0.0489837
0.230275
0.183054
0.226891
0.281666
0.651956
0.630615
0.0581591
0.304607
0.33753
1.18853
0.0861835
0.113472
0.263895
1.46289
0.142102
0.197785
0.155945
0.191245
0.0939612
1.56793
0.14551
1.21025
0.247869
0.257452
0.316398
1.24812
0.293958
0.662164
0.0668769
0.106625
0.126828
0.277977
2.36312
0.120004
0.0609494
0.120231
0.0587388
0.0449083
0.263643
0.359045
0.437065
0.963708
0.040444
0.323282
0.0206699
0.0227653
0.0445579
0.0871243
0.104018
0.0967565
0.0572955
0.0560865
0.106528
0.0984078
0.0465154
0.068976
0.0564774
0.0465705
0.0643194
0.0534885
0.040865
0.023288
0.0303554
0.0486829
0.0646752
0.752841
0.886151
0.370305
0.104553
0.144752
0.335671
0.112324
1.02289
0.650868
0.327946
0.362151
0.0794989
0.118231
0.0580541
0.0360198
0.0977424
0.0683757
0.0507007
0.0641102
0.0516401
0.0626075
0.0308462
0.0227724
1.40547
0.461354
0.362255
0.219157
0.251736
0.0566201
0.315589
0.615935
0.279712
0.0476846
0.580396
0.307993
0.121773
0.58864
0.327924
0.137155
0.251115
0.0549925
0.754267
0.618067
0.264846
0.198104
1.22516
0.476621
0.701164
0.642908
2.28333
0.099576
0.0579271
0.14441
0.176546
0.672932
0.176028
0.135546
0.727458
0.248317
0.879226
1.71075
0.800681
1.78015
0.160019
0.213469
0.358422
0.128611
0.85419
0.217825
0.407316
0.133256
0.258627
0.158669
1.40835
0.272014
0.217429
0.0643448
0.36335
0.643687
0.127082
0.083179
0.704587
0.45637
0.518782
0.583908
0.690768
0.202663
0.653804
0.478549
0.40277
0.570648
0.131747
1.29465
0.116958
0.317177
0.510189
0.128545
0.117
0.0484452
1.62311
0.258821
0.110336
1.51747
0.123461
0.224159
0.74078
0.292166
0.0918883
1.35163
1.27769
1.8715
0.0655841
0.150254
0.117402
0.763602
0.207007
0.313598
0.336937
0.553515
0.638265
0.300166
0.0418071
0.0414873
0.0840321
0.0864408
1.47255
0.0647528
0.11233
1.15252
0.127225
0.325238
0.121421
0.657675
1.46801
0.975696
1.01032
0.660613
0.0865791
0.0789609
0.657107
0.167946
1.20256
1.04388
0.100371
0.22767
0.608911
0.315696
0.186848
1.63198
1.31378
0.156771
0.129232
0.0854788
0.112504
0.0955452
0.0554249
0.133401
0.257102
0.395183
0.231412
0.0954819
0.217687
0.315329
0.236927
0.135814
0.0904885
0.389109
0.216952
1.72373
0.227838
0.337938
1.01185
1.07943
1.46417
0.591649
0.651202
0.110135
0.838881
0.462505
0.217355
0.507129
0.0782361
0.124221
0.0565481
0.61376
0.281636
0.115874
0.502752
2.25201
0.719572
0.609961
0.193384
0.426288
0.232228
2.67916
1.76885
1.04069
0.0792721
0.224725
0.202034
1.12389
0.611997
0.038162
0.827247
1.15916
0.831634
1.40218
0.179658
0.184691
0.110509
0.384121
0.447643
0.108227
0.22337
0.428445
0.956294
0.157599
0.242362
0.436742
0.315943
0.118438
0.400129
0.777502
1.27644
0.359641
0.295852
0.275935
0.251028
0.0426669
0.139765
0.204935
0.0285279
0.511695
0.400666
0.070145
0.514679
1.05321
0.619032
0.368915
0.0727423
1.10829
1.36838
0.994738
0.389351
0.0695624
1.02842
1.1993
0.205541
1.42969
1.32534
1.64953
0.483649
0.0602117
0.164501
0.153753
0.0639561
0.109327
0.30765
0.0582252
0.0485912
0.299738
0.229943
1.14373
0.149423
0.0467942
0.238423
0.155618
0.367129
0.065237
0.198441
0.543814
0.159952
0.552698
1.53277
0.247189
0.499718
0.0975894
1.70087
0.564973
2.36221
1.14076
0.159339
0.180917
0.209332
0.262057
0.621059
2.3901
0.336727
0.25682
0.332173
0.158361
0.438558
1.16286
0.0704978
0.178744
0.211695
0.282755
0.0342724
0.35909
0.845043
0.455761
0.983211
0.0511215
0.264337
0.167205
1.35887
0.321139
0.315502
0.606691
0.473665
0.0588674
0.493731
1.4581
0.07461
0.373998
0.214274
0.115787
0.184529
0.145717
1.60013
0.828292
0.0781665
1.18377
1.39756
1.09819
0.169078
0.255054
0.0630046
0.051288
0.0275978
0.272564
0.203224
1.0894
0.0684168
0.188171
0.0612449
0.0657311
0.668472
0.589841
0.721063
0.362762
2.11484
0.108251
0.037761
0.0666571
0.859986
1.47314
0.421406
0.551665
3.26476
0.209463
0.118493
0.413622
0.299409
0.218094
1.71185
0.0566435
0.427534
1.00366
2.06885
0.477746
0.0458086
0.15139
0.0456494
0.470819
0.474826
1.71787
0.190017
0.171061
0.102017
0.645011
0.175437
1.47397
2.32829
0.316332
0.0908196
0.592083
0.404721
0.210916
0.442695
0.753223
0.0469368
1.9967
0.190682
0.485889
0.515702
0.225452
0.199439
0.350119
0.521918
0.421136
1.55379
0.836962
0.795057
0.80708
0.857603
0.305972
1.19439
0.19014
0.911085
0.613961
0.499963
0.121954
1.55789
0.0445025
0.0547581
0.240795
0.571006
0.0800977
1.10364
0.202016
0.0598812
0.0781255
0.10476
0.5329
1.68369
0.0912108
2.47779
0.0386051
0.0640019
0.246523
1.77273
0.287248
0.192154
0.892656
0.612092
0.362674
0.309659
0.0519158
0.0523788
1.74444
0.229604
0.217395
1.8262
0.219133
0.0583204
0.0616596
0.173986
0.97308
0.135867
1.24997
0.0514956
0.280709
0.234316
1.80554
0.0525216
1.23961
0.537614
0.52732
0.518421
0.528196
0.503136
0.508779
0.509208
0.551311
0.370636
0.181091
0.385086
0.138351
2.0299
0.0569196
0.0617156
0.0982976
0.0349878
0.0718452
0.0825436
0.056372
0.574476
0.148011
0.617236
0.0448367
0.158376
0.194302
0.260225
0.263651
0.505868
1.54047
0.23436
0.077387
0.276829
0.295633
0.237158
0.514384
0.375728
0.180391
0.0520642
0.889847
0.158495
0.94164
1.8242
0.320645
0.344414
0.225148
0.221292
0.0740617
0.13948
0.142668
0.0482956
0.215506
0.204036
0.0719516
0.0595796
0.318406
0.919385
0.131679
0.606862
0.0456529
0.248242
0.15016
0.113525
0.123951
0.248281
0.0810648
0.0558687
0.193586
0.0621581
0.293332
0.0428186
0.160291
1.28025
1.33286
0.292262
0.447011
1.64763
0.628564
0.269732
0.262363
1.40868
0.0383711
0.0771325
0.118286
0.0634988
0.10164
0.103002
0.374407
0.252651
0.795529
0.750626
0.490105
0.28051
0.047739
0.0812579
0.170085
0.223007
2.44128
0.125079
0.419332
1.02018
0.703655
0.356554
0.379437
0.0681377
0.130194
0.219728
0.165256
0.233169
0.211595
0.71183
0.0688652
0.53016
1.45869
0.528271
2.38666
0.190338
0.242871
0.369447
0.330821
0.350197
0.389427
0.309728
0.285277
0.355566
0.0735294
0.0611997
0.250606
0.254745
0.0448514
0.0553636
1.60776
0.0601268
0.127171
0.0491067
1.08395
0.0636033
0.491781
0.279833
2.06199
0.081615
0.215364
0.13083
0.269295
0.15492
1.68742
1.7626
0.109801
0.123641
0.34575
0.0554485
0.166645
0.79247
0.0330713
0.929729
0.827927
0.407845
0.303123
0.583331
1.54406
0.54763
0.239928
0.0635359
0.109406
0.253971
0.612191
0.404419
0.19057
1.2928
1.13946
0.640854
0.0754226
1.47055
0.0155643
0.645555
0.0425751
0.252669
0.167281
0.440293
0.328083
0.0891851
2.88908
0.660033
1.75261
0.0696321
0.904529
0.985121
0.456297
0.197379
0.209831
0.198407
0.842632
1.91279
0.350441
0.275835
1.32145
0.853844
0.228246
0.264558
0.774921
1.54715
1.02418
1.45426
0.136124
1.47118
0.958055
1.30788
0.121521
0.96995
0.727199
0.0958335
0.1852
0.11954
0.434286
2.12071
1.05276
0.8924
0.300858
1.61156
0.097532
1.63515
1.3542
0.316477
0.127712
0.205309
0.715006
0.0756901
0.0623716
0.0479917
0.140123
0.112342
1.45555
1.5737
0.189781
1.73913
0.105963
0.461144
1.8981
1.11436
0.135799
0.0972571
0.150297
0.399163
0.0465777
0.20533
0.145444
2.02392
0.349503
0.585549
0.213783
0.173598
0.520653
0.309416
0.327443
1.74092
0.16634
0.202082
0.528924
0.900518
0.244165
0.113342
0.0532114
0.776768
0.353126
0.355109
0.056449
0.0711617
0.10357
0.0696016
0.246589
0.0492427
0.574533
0.797769
0.448942
2.38031
0.10714
0.385007
0.1015
0.207639
0.507801
0.024401
0.138641
0.334496
0.064385
1.23903
1.34645
0.0213197
0.52147
0.872499
0.093641
0.374848
1.09028
0.0568766
0.0543805
0.636691
0.0683257
2.17043
0.131542
0.677193
0.233047
0.888805
0.572284
0.0729517
0.462332
0.249851
0.0699163
0.105045
0.366712
0.0276339
1.01717
0.0146225
0.139781
0.151006
0.199042
0.134674
0.356009
0.0691571
0.0616749
2.98735
0.151038
0.261263
0.230541
0.571325
0.0738508
0.0359993
0.0554054
0.178295
3.28475
1.37489
0.265333
0.207027
0.729748
0.0656627
1.07095
0.2595
1.34074
0.053227
0.0420521
2.09657
0.109239
0.12899
2.40388
0.787319
0.511871
0.287483
1.30456
0.0268911
0.0527513
0.0854286
1.34014
1.04007
0.976767
0.0433912
0.0438972
0.0174904
0.336466
0.405654
2.83012
0.919001
0.603443
0.366323
0.204999
0.0598004
0.126926
0.318958
0.855392
1.2866
0.192609
0.0551989
0.279481
0.634503
1.58904
2.38495
0.432457
0.0388857
0.0931451
1.21222
0.544501
0.0243105
2.28288
1.95957
0.774627
0.500857
0.162148
0.300818
1.70554
0.980229
1.21441
0.107579
2.51742
0.676843
0.346126
0.0561375
1.2334
0.351678
0.359983
0.894782
1.62608
0.337679
0.11304
0.0671873
1.6316
0.210025
0.152985
1.12432
0.188297
1.40049
0.430809
0.0492553
1.84835
0.196896
0.37394
0.267849
0.412469
0.344113
0.61099
1.43671
0.0723812
0.949447
0.027439
1.1103
0.804679
0.0737766
0.115546
0.0720213
0.131175
1.61434
0.857231
0.194182
0.206733
0.669389
0.0806535
0.0791107
0.96652
0.270129
0.0851353
0.358144
0.201897
0.138271
1.93369
0.939707
1.19355
0.462309
1.56828
0.139587
0.0575336
0.122649
1.57549
1.71531
0.395912
0.340852
0.855372
1.15576
0.121505
2.42409
0.703503
0.161628
0.0610792
0.265065
0.461572
0.226165
0.390454
0.280664
0.567121
0.679586
0.410956
0.266426
0.230042
0.391664
0.251539
1.54134
1.39077
2.75332
1.14508
0.144505
1.60118
0.772067
1.69367
0.0645111
0.177404
0.350872
0.139169
1.88092
0.0565978
0.0595118
1.95287
0.229067
1.63679
1.82492
0.947385
0.783998
0.768051
0.328493
0.239975
1.06212
0.333779
0.420093
0.0503067
0.204238
0.348973
0.0504833
0.83871
2.20225
0.0948928
0.155978
0.0566016
0.0193155
0.0929789
1.04509
0.0918935
1.37508
0.777547
0.355901
0.571136
0.274901
0.15381
0.28136
0.0655857
0.10164
0.213095
0.0843779
1.23317
0.231505
0.604719
0.0836163
0.239957
0.339208
0.104265
1.04158
0.0265384
0.100194
0.12339
0.212523
0.198092
0.0743101
0.0929968
0.522047
0.122081
0.425289
0.126563
0.106874
0.137053
0.536466
0.286807
0.459447
0.21352
0.100891
0.243294
0.12167
1.41893
0.15683
0.288604
0.204839
0.0546847
0.394975
0.626065
0.263712
0.417921
0.113871
0.422683
0.130831
1.31583
0.0550868
0.243561
1.28488
0.490982
1.02534
0.115617
2.21265
0.23469
0.711071
1.30742
0.336564
0.315042
0.0884715
0.494233
0.292267
0.894728
0.120493
1.55857
0.0570433
0.769656
0.0600028
0.051608
0.511403
0.256385
0.342469
0.276094
0.916095
0.202927
0.939764
0.635748
0.587339
0.648894
0.206379
0.126667
0.467736
2.57767
1.11739
0.312908
0.297244
2.8895
1.21674
3.09542
1.26947
1.29601
0.460876
0.206503
0.753988
0.3876
0.129755
0.725179
1.57786
0.129491
0.634714
1.03464
)
;

boundaryField
{
    frontAndBack
    {
        type            empty;
    }
    wallOuter
    {
        type            kqRWallFunction;
        value           nonuniform List<scalar> 
90
(
0.460643
0.421406
0.413622
0.427534
0.477746
0.470819
0.474826
0.592083
0.404721
0.485889
0.515702
0.613961
0.499963
0.571006
0.5329
0.892656
0.537614
0.52732
0.518421
0.528196
0.503136
0.508779
0.509208
0.551311
0.505868
0.795529
0.750626
0.53016
0.528271
0.369447
0.330821
0.350197
0.389427
0.309728
0.285277
0.254745
0.0491067
0.0636033
0.491781
0.215364
0.0554485
0.166645
0.79247
0.0330713
0.0635359
0.109406
0.0155643
0.645555
0.0425751
0.660033
0.774921
0.434286
0.461144
0.585549
0.528924
0.056449
0.0492427
0.574533
0.797769
0.385007
0.507801
0.024401
0.0213197
0.872499
0.636691
0.677193
0.888805
0.0276339
1.01717
0.0146225
0.511871
0.0268911
0.976767
0.0174904
0.919001
0.855392
0.432457
0.544501
0.0243105
0.774627
0.430809
0.949447
0.027439
0.462309
0.410956
0.0193155
1.04158
0.0265384
0.522047
0.394975
)
;
    }
    inlet
    {
        type            fixedValue;
        value           uniform 0.375;
    }
    outlet
    {
        type            zeroGradient;
    }
    wallInner
    {
        type            kqRWallFunction;
        value           nonuniform List<scalar> 
138
(
0.100702
0.0908502
0.818423
0.123039
0.0906528
0.234953
1.41748
0.623873
0.0950527
0.0739931
0.610005
0.737395
0.0250635
0.126987
0.0460441
0.124452
0.120898
0.0693006
0.0440312
0.731417
1.85285
0.662625
0.0473308
0.620208
0.643894
0.676075
0.572935
0.692499
0.600906
0.651956
0.630615
0.0449083
0.040444
0.0206699
0.0227653
0.0445579
0.0871243
0.104018
0.0967565
0.0572955
0.0560865
0.106528
0.0984078
0.0465154
0.068976
0.0564774
0.0465705
0.0643194
0.0534885
0.040865
0.023288
0.0303554
0.0486829
0.0646752
0.0794989
0.118231
0.0580541
0.0360198
0.0977424
0.0683757
0.0507007
0.0641102
0.0516401
0.0626075
0.0308462
0.0227724
0.0476846
0.264846
0.701164
0.213469
1.40835
0.0643448
0.083179
0.116958
0.74078
0.0655841
0.763602
0.0418071
0.0414873
0.0840321
0.0647528
1.15252
1.46801
1.20256
1.04388
1.31378
0.110135
0.0565481
0.61376
0.609961
0.038162
0.0285279
0.0467942
0.0342724
0.07461
0.051288
0.0275978
0.0458086
0.0456494
0.316332
0.836962
0.19014
0.240795
0.10476
0.612092
0.0616596
0.0982976
0.617236
0.0448367
0.0520642
0.0812579
0.71183
0.0735294
0.0611997
0.0553636
0.583331
0.640854
0.0754226
0.904529
0.985121
0.0465777
0.0532114
0.776768
0.093641
0.0691571
0.151038
0.729748
0.0656627
0.0598004
0.126926
0.0492553
0.297244
0.753988
0.3876
0.129755
1.57786
0.129491
1.03464
)
;
    }
    procBoundary0to1
    {
        type            processor;
        value           nonuniform List<scalar> 
29
(
0.136585
0.215626
0.245723
0.245723
1.58157
1.58157
2.01204
0.551353
1.29735
0.514215
0.591207
1.08641
0.157508
0.108662
1.31667
0.614111
2.2284
2.11076
0.398527
0.219396
0.32953
0.224117
1.46206
0.293241
0.291811
2.11076
0.258372
0.819032
0.293241
)
;
    }
    procBoundary0to2
    {
        type            processor;
        value           nonuniform List<scalar> 
42
(
1.1134
0.888713
0.098716
0.0914592
0.0504555
1.1134
0.098716
0.0966172
0.04794
0.0525519
0.0978216
0.189512
0.0978216
0.290467
0.42046
1.08277
0.42046
0.051622
0.0502705
0.195426
0.195426
0.051622
0.0440342
0.230847
0.230847
0.0389741
0.537711
0.0369956
0.825496
0.77904
0.77904
0.0404239
0.0449094
0.0460415
0.0451114
0.098716
0.645616
0.0697755
0.825496
0.0966172
0.0709169
0.0519803
)
;
    }
}


// ************************************************************************* //
