/*--------------------------------*- C++ -*----------------------------------*\
| =========                 |                                                 |
| \\      /  F ield         | OpenFOAM: The Open Source CFD Toolbox           |
|  \\    /   O peration     | Version:  v1912                                 |
|   \\  /    A nd           | Website:  www.openfoam.com                      |
|    \\/     M anipulation  |                                                 |
\*---------------------------------------------------------------------------*/
FoamFile
{
    version     2.0;
    format      ascii;
    class       volVectorField;
    location    "0.91";
    object      U;
}
// * * * * * * * * * * * * * * * * * * * * * * * * * * * * * * * * * * * * * //

dimensions      [0 1 -1 0 0 0 0];


internalField   nonuniform List<vector> 
1431
(
(0.0189405 -0.276039 -3.45689e-17)
(-0.188421 -1.39384 -1.34227e-16)
(5.78292 0.820684 9.98689e-17)
(-2.99048 1.77706 -4.58002e-17)
(0.204295 -1.03414 -1.49366e-16)
(3.1777 -0.047283 2.44111e-16)
(-0.866508 0.272407 -2.15355e-16)
(9.76384 0.603044 -2.17614e-16)
(0.0526586 3.43958 0)
(0.143427 2.45161 -1.04995e-16)
(0.257645 2.61567 0)
(1.21021 -0.198603 6.45467e-17)
(-0.100227 -0.296166 0)
(9.11832 0.482057 1.90862e-18)
(0.230884 0.919838 -2.30703e-16)
(-0.137813 3.62758 0)
(0.350863 2.47827 -2.87816e-16)
(1.93719 0.0746314 0)
(0.00219914 -0.115284 1.45885e-16)
(0.380908 2.70563 3.72416e-17)
(0.0937198 -1.30906 -1.79728e-17)
(0.156967 1.30012 -1.12473e-19)
(2.16056 1.19976 -4.58457e-17)
(8.837 0.532173 -3.09015e-17)
(1.73313 3.24498 -1.23461e-16)
(0.540827 2.77492 -1.01083e-16)
(-1.43944 4.71157 1.1399e-16)
(9.36972 0.432778 -2.39244e-20)
(10.8425 0.606696 6.04516e-18)
(1.42068 -0.325547 -5.00605e-16)
(7.69922 0.283505 2.35861e-16)
(7.21421 -0.173377 -1.75232e-16)
(-1.85195 0.414104 -1.15648e-16)
(-1.03803 0.215823 0)
(-0.985935 0.247239 1.04316e-16)
(1.91492 8.7039 1.24203e-16)
(0.755134 1.42029 1.0626e-16)
(9.73331 -0.00945716 0)
(0.903478 0.227543 -1.78845e-16)
(9.65051 -0.00572423 0)
(5.10857 0.123814 1.32713e-16)
(-0.898571 -0.237434 -7.29036e-17)
(-0.982718 0.365389 0)
(-0.976235 0.387479 -7.01045e-17)
(-1.06714 0.74111 1.53043e-16)
(0.770922 -1.00544 -3.85432e-16)
(1.47034 4.67588 2.15722e-16)
(7.26435 1.196 -5.78908e-17)
(8.99586 0.526401 1.59155e-16)
(9.49128 0.088546 3.64555e-17)
(1.50506 -0.23331 -8.60648e-17)
(0.258575 3.21953 9.97307e-17)
(0.285573 4.78419 4.71623e-17)
(-0.631482 0.403105 -1.80541e-17)
(-0.605973 0.470476 -1.46424e-16)
(8.04748 1.71595 0)
(0.290639 3.44599 5.89594e-17)
(0.258104 4.56003 -2.0457e-16)
(-0.461005 6.34469 0)
(0.0846713 -1.29766 -6.99558e-16)
(0.737372 2.06812 0)
(0.548722 0.727176 -1.7082e-16)
(1.34144 7.59026 -1.3786e-16)
(10.589 0.119838 0)
(10.0096 0.301221 -1.81994e-17)
(2.0079 -0.114718 0)
(6.31196 0.374464 0)
(3.21355 -0.09564 0)
(0.21179 -0.387092 1.72197e-16)
(10.7721 0.0876334 0)
(-0.661676 0.237188 9.28416e-17)
(-0.568975 0.242843 -9.99791e-17)
(-0.07285 0.71788 0)
(2.70932 0.0465981 -2.64669e-16)
(-0.0757237 1.04312 1.2511e-20)
(-0.961982 0.313906 2.80302e-16)
(-0.00813055 -0.752946 5.67104e-17)
(3.62073 0.674713 3.21345e-16)
(9.99703 0.165174 1.29394e-17)
(0.979279 -3.04054 -2.11514e-17)
(9.94615 0.0982707 -2.52474e-16)
(1.6974 -0.181308 -2.11796e-18)
(-0.39462 0.318506 2.4609e-16)
(1.30886 0.395328 -8.11887e-17)
(-2.75782 1.31967 4.64671e-17)
(0.188533 -1.18429 -5.06974e-16)
(0.536458 -1.61191 -1.01999e-16)
(-0.275905 0.392506 1.89846e-16)
(8.48165 0.575995 9.29094e-17)
(0.777751 2.24035 -5.0031e-17)
(1.72505 0.135747 1.76317e-16)
(-1.02749 0.572806 2.76924e-16)
(0.554703 -1.49882 0)
(9.79623 0.0318295 0)
(1.38275 -0.0642484 2.21476e-18)
(0.0653531 -1.28561 -6.1137e-20)
(-0.0891256 0.882733 -5.01457e-21)
(10.3753 0.533614 3.28053e-18)
(0.436357 -1.41772 1.99728e-16)
(8.91328 0.491865 -4.48581e-16)
(0.222485 -0.279618 -1.77791e-16)
(9.90113 0.166445 -6.69096e-17)
(1.00607 0.523443 0)
(0.360245 -1.63264 -1.45191e-19)
(-0.803782 2.09546 1.82316e-16)
(-0.703933 0.448122 8.42315e-17)
(10.0256 0.065259 -1.05459e-16)
(4.78335 -0.0322841 7.61654e-17)
(6.96348 0.0239652 9.59328e-17)
(0.0017949 -0.70288 8.80077e-17)
(-0.724527 -2.5849 1.84013e-16)
(1.31166 -0.125211 -7.3536e-17)
(9.708 0.825764 0)
(1.14769 1.40036 -1.50561e-16)
(-0.282944 2.24914 0)
(0.329813 -1.768 0)
(1.56732 0.106279 0)
(0.318534 -0.0544551 1.28368e-21)
(8.03073 0.595566 -6.38063e-17)
(-1.6058 0.693589 -1.5409e-16)
(9.92443 0.259147 -2.01654e-17)
(0.226658 5.33262 -1.29053e-16)
(0.24629 3.61146 -4.36041e-16)
(8.8729 0.821782 -1.18298e-16)
(10.1262 0.168907 0)
(0.424837 0.0424709 -1.1285e-16)
(7.49878 0.585246 1.68397e-17)
(-0.138011 0.356969 7.61957e-17)
(0.249736 -0.694084 1.00649e-16)
(10.6479 0.424399 -7.31239e-17)
(0.480285 -0.0431922 -1.46156e-16)
(4.23163 -0.15301 2.49311e-16)
(7.23062 0.308303 0)
(1.57069 1.11947 -1.58686e-16)
(0.440222 -1.38944 -1.0184e-17)
(-2.01945 1.14101 -2.84471e-16)
(-0.00499175 0.746109 0)
(1.1997 -0.233585 1.23604e-16)
(1.09131 -0.280211 4.80684e-17)
(3.45647 -0.0735643 -4.09015e-16)
(0.108931 3.02029 0)
(0.523182 -0.91626 3.1806e-17)
(10.5344 0.0571972 -7.61366e-18)
(8.95517 0.377723 -2.05055e-17)
(8.6374 0.157794 0)
(11.3883 0.283082 4.42629e-17)
(10.3609 0.35612 3.41708e-17)
(4.56651 -0.0605026 0)
(0.0863093 0.810363 -1.31899e-16)
(9.35575 0.927666 -5.25875e-17)
(10.8693 0.0436624 7.92967e-17)
(9.92352 0.419265 -1.57739e-17)
(-0.115379 -0.826328 -1.9205e-16)
(-0.520755 0.0279615 1.07901e-16)
(0.237247 0.140418 1.80364e-16)
(-0.165521 0.155662 -4.88945e-17)
(10.0913 0.110545 8.71688e-17)
(1.64199 1.31369 -3.57994e-16)
(9.6026 0.932374 0)
(9.49931 1.15445 -9.70879e-17)
(2.01602 0.0149962 -4.52331e-20)
(0.224723 1.61082 3.88202e-17)
(0.528456 -0.0178198 0)
(-0.0815119 0.839755 -4.52042e-17)
(0.406642 -1.84433 -1.95582e-16)
(-0.886404 -0.408265 -1.91717e-16)
(0.0383799 -1.12928 -1.21687e-16)
(9.85394 0.104532 0)
(1.40426 -0.266671 3.98985e-16)
(1.1969 1.17456 -1.50414e-16)
(9.74089 0.915053 -1.3616e-17)
(0.0957522 2.30395 2.70248e-17)
(8.56576 0.559413 -1.16067e-16)
(11.0626 0.0497572 0)
(10.5181 0.0382169 1.44409e-17)
(0.845016 -0.800058 0)
(0.73292 0.0577139 9.53527e-17)
(9.34943 0.633529 -1.79122e-17)
(1.10678 -0.303684 3.19222e-16)
(9.52429 1.08831 9.94517e-17)
(9.7438 0.308527 4.14553e-17)
(0.520379 0.852599 1.10797e-16)
(8.86211 1.71241 0)
(1.15043 2.02397 2.87324e-16)
(11.2533 0.115881 9.67658e-17)
(9.89647 1.09511 -1.35625e-17)
(9.85903 0.691602 1.03109e-16)
(-2.76361 4.57307 -1.32263e-16)
(0.68492 2.69634 1.39761e-16)
(10.2776 0.105944 -2.0687e-20)
(1.28758 -1.07059 -2.99457e-19)
(0.619741 2.42932 -1.13408e-16)
(0.0766826 -1.1646 -3.44709e-16)
(10.07 0.0429001 -6.37511e-17)
(-0.283549 2.49976 4.37412e-20)
(10.069 0.419819 4.00355e-17)
(10.0268 0.0859223 0)
(7.31526 2.12145 -1.06705e-16)
(0.147312 0.324353 0)
(0.035074 0.19573 0)
(-0.155399 0.385469 -2.12207e-16)
(2.85897 2.649 -2.79611e-16)
(9.36431 1.03279 -2.74303e-17)
(3.74765 0.131808 -4.61727e-16)
(10.0454 0.0523517 3.50457e-17)
(-2.38112 2.45476 -2.97684e-16)
(0.127634 -1.29945 9.00346e-16)
(9.78921 0.219005 2.49043e-17)
(-0.0286503 1.29358 1.55138e-17)
(9.24252 0.258343 0)
(10.1352 0.0668481 7.90795e-18)
(9.94259 0.331099 6.26309e-17)
(8.06871 0.667962 1.37994e-17)
(9.86644 0.19906 2.3926e-17)
(0.324447 1.63491 0)
(0.211169 1.29164 3.60129e-16)
(9.49076 1.02998 0)
(1.45206 -1.15556 0)
(-0.231466 -0.698338 0)
(10.1193 0.236194 -6.25365e-17)
(9.88846 0.169171 0)
(0.223901 1.15175 1.44768e-16)
(11.1311 0.0293611 -1.27293e-16)
(4.4531 1.23384 -7.4022e-17)
(10.7252 0.35268 0)
(9.38179 0.942641 0)
(9.4548 0.940166 -7.29458e-17)
(1.51349 1.69597 0)
(10.569 0.628275 0)
(7.74962 0.224231 -7.21464e-17)
(0.426642 -1.56341 0)
(-2.42942 1.92071 3.36773e-16)
(10.6321 0.0871281 6.20908e-20)
(9.90338 0.482874 -1.88058e-16)
(9.79489 0.420482 8.64577e-17)
(9.82346 0.37465 4.86813e-17)
(10.4968 0.247211 -2.62691e-17)
(0.216857 -0.327587 2.3505e-16)
(9.85697 0.108683 0)
(-0.147226 -0.299562 2.15727e-16)
(9.53617 0.200967 -3.18194e-17)
(9.44376 1.12219 8.23513e-17)
(0.164706 2.34987 -2.22569e-16)
(0.920237 4.51179 -2.81758e-16)
(-0.10369 0.0814356 -5.49489e-21)
(-0.0813426 0.0411488 -4.83633e-21)
(10.5383 0.273617 -1.77114e-16)
(-1.27769 0.185036 0)
(-1.28814 0.176695 0)
(10.0522 0.886139 0)
(10.1074 0.953261 -9.36368e-17)
(0.130547 2.81993 0)
(0.150657 2.10139 1.08924e-16)
(6.38437 3.20773 2.09078e-17)
(1.30497 5.50261 -1.59495e-16)
(8.18512 0.055376 -4.44703e-17)
(0.528511 -0.0408443 1.96423e-17)
(-0.111401 -0.397964 1.72262e-19)
(8.32795 0.00565104 6.97354e-20)
(8.2779 0.0210348 8.62805e-17)
(8.14824 0.0736884 8.54948e-17)
(-0.107753 0.0488847 3.55305e-17)
(0.376731 -1.64713 3.79608e-16)
(0.277684 3.19844 -4.27679e-17)
(9.78243 0.309908 -7.60774e-17)
(10.6826 0.532895 6.73436e-18)
(8.21138 0.00832813 -7.98981e-17)
(9.92628 0.873886 0)
(8.453 2.70935 2.77411e-17)
(0.253163 2.39351 -1.46337e-17)
(9.82684 1.01208 0)
(9.16975 0.726758 3.0404e-16)
(10.2475 0.827117 2.72322e-17)
(10.2923 0.724658 0)
(8.10037 0.0853597 -5.29344e-17)
(10.0212 0.630992 1.09129e-18)
(1.40639 0.530049 -1.08028e-16)
(1.48208 -0.484594 1.16005e-19)
(1.49274 -0.338462 -3.50647e-17)
(0.10339 2.82092 1.72856e-16)
(-0.100543 4.22113 0)
(-0.147215 -0.149906 -4.45953e-17)
(-0.268802 -0.795553 0)
(1.83896 0.924203 2.5757e-16)
(8.27121 -0.00637062 -4.36801e-17)
(-3.36997 3.31001 5.75858e-17)
(0.328473 -1.43487 1.03549e-16)
(9.20155 1.1661 5.13004e-17)
(10.2727 0.818435 2.04314e-19)
(9.65881 0.183441 6.64128e-17)
(11.1643 0.435187 1.51592e-16)
(9.56258 0.00748548 -5.95905e-17)
(9.4392 1.02606 0)
(1.4295 -0.621385 0)
(10.0673 1.02978 -4.35697e-17)
(9.46504 1.34811 4.66975e-18)
(0.121433 -1.02772 0)
(9.09607 2.03913 1.584e-18)
(-0.243956 -0.582208 -1.98992e-16)
(9.54262 1.14284 2.80372e-17)
(9.65943 0.366293 2.83804e-17)
(9.26599 0.817491 7.31804e-17)
(-0.432003 0.0182896 0)
(8.03362 0.141949 0)
(1.02582 0.779934 -2.3015e-16)
(-0.42796 -0.977455 1.66921e-16)
(9.93109 0.124506 8.05367e-17)
(8.23433 0.0362176 -8.72203e-17)
(8.28789 0.0116991 -8.39463e-17)
(0.198121 0.182494 1.93813e-16)
(9.66894 0.250249 -1.3264e-17)
(10.8101 0.208512 5.35758e-17)
(0.747429 -0.120472 -1.63981e-17)
(0.616718 -1.03223 -1.66489e-17)
(0.0638965 -0.432477 -6.881e-19)
(-0.435628 -1.14288 -1.59119e-16)
(0.0583154 3.03739 -4.76595e-17)
(-0.459094 0.102552 -8.58867e-17)
(9.81983 0.319313 -4.55813e-17)
(0.351518 -0.555916 -1.68705e-16)
(-0.418862 -0.689024 -2.67431e-16)
(0.24432 -0.478709 2.57029e-16)
(0.071068 3.61885 2.17845e-19)
(-0.440009 -0.172661 -2.50347e-20)
(0.192773 0.720979 -1.6472e-16)
(0.329708 -0.462887 -8.82904e-17)
(9.85362 0.0740591 1.72613e-16)
(0.273436 -0.355497 -7.63536e-17)
(7.79027 0.473663 0)
(9.77712 0.177746 -6.67372e-17)
(0.321462 -0.363152 -9.55558e-17)
(-0.425534 0.0583454 0)
(0.0902065 -0.139256 0)
(1.39157 -0.812054 1.84005e-16)
(10.2978 0.114135 0)
(0.159844 1.34077 -1.28702e-16)
(0.967577 -0.173786 -6.12169e-17)
(0.239337 -0.340457 0)
(1.03407 -0.132535 -1.74617e-17)
(-0.214495 -0.194486 1.779e-16)
(-0.0382334 0.181112 0)
(9.83439 0.0907441 -7.78429e-17)
(0.309716 -0.275358 8.692e-17)
(10.0704 0.216593 3.26431e-17)
(6.61989 3.52955 -2.58253e-16)
(-0.487815 0.0495258 1.83327e-16)
(10.5232 0.241888 1.42636e-17)
(-0.0104434 0.0332462 1.81053e-16)
(0.389345 0.0884043 -8.36924e-17)
(-0.194749 0.0792132 -7.89784e-17)
(-0.720511 0.16857 -1.2046e-16)
(-0.00104965 0.0142698 -4.55469e-16)
(0.615585 -0.12748 0)
(0.751837 0.00424297 -1.55029e-16)
(-0.00930057 0.093011 0)
(-1.0013 0.150551 0)
(0.228637 -0.0585687 0)
(-0.373913 0.0797472 -3.73393e-16)
(0.684862 0.0128809 0)
(0.581254 -0.0278534 4.84185e-16)
(0.447263 -0.0519609 -1.94189e-17)
(0.181854 0.118506 1.42115e-16)
(0.712711 -0.0105141 2.41554e-18)
(0.836369 0.0736164 -8.33049e-17)
(0.214993 0.0925518 2.74858e-16)
(-0.108065 0.0530772 -1.75444e-16)
(0.601089 -0.0330634 0)
(0.518443 0.0173397 0)
(0.0451737 -0.292693 -2.47557e-17)
(0.551479 0.0784954 0)
(-0.294716 -1.46195 5.03223e-16)
(0.0548104 -0.264163 1.44719e-16)
(0.256905 -0.540506 -1.50313e-16)
(10.0114 1.08189 5.06825e-17)
(1.66927 -0.708894 0)
(-0.70688 -1.68106 1.83296e-16)
(0.287772 -0.426737 9.10916e-17)
(9.81896 0.295642 3.08078e-17)
(10.0045 0.033292 8.05127e-17)
(0.636476 0.0185876 6.06513e-16)
(-0.0843526 -0.165675 2.81369e-17)
(-0.327474 0.12722 3.99538e-17)
(0.0394795 0.108864 -2.56461e-16)
(0.409465 -0.103889 0)
(0.37827 0.0682783 1.33243e-16)
(0.660434 -0.0229362 0)
(0.57249 -0.00703031 0)
(-0.211547 0.0937539 1.89827e-16)
(0.755036 0.014711 1.46354e-16)
(0.580204 0.0871024 1.57942e-16)
(0.0635869 0.0493698 0)
(2.15527 4.97227 1.78644e-16)
(9.74329 1.05544 -2.75178e-17)
(9.98783 0.00173886 0)
(0.270199 -0.504163 -7.83186e-20)
(0.412892 -0.150704 -1.68738e-16)
(0.196175 -0.161231 -1.70861e-16)
(9.9575 0.193222 0)
(0.135235 0.292828 0)
(10.4525 0.07668 0)
(0.523006 -0.0448046 -5.95154e-17)
(0.134894 -0.61352 1.62451e-16)
(10.0176 0.210058 2.70953e-17)
(1.13746 -0.114031 3.12465e-17)
(0.0215157 -0.613727 1.10981e-17)
(10.0276 0.845078 0)
(-0.466282 0.222186 1.16306e-16)
(8.7598 0.0201357 1.63663e-16)
(0.217005 0.324651 -3.22658e-17)
(0.43931 -0.0606138 -1.30446e-16)
(9.71883 0.0779374 6.35114e-17)
(-0.04041 -0.904589 0)
(0.952332 -0.251836 6.60916e-21)
(1.99047 7.58028 -3.87812e-16)
(8.81542 0.225862 -2.17346e-17)
(1.76876 4.52959 6.47561e-17)
(0.121612 -0.788858 -1.42639e-16)
(0.312975 2.96719 1.95119e-16)
(-0.095 0.419154 -2.38755e-17)
(0.191335 0.0117506 -2.71213e-21)
(-0.456709 -0.0222653 4.89396e-17)
(0.143126 -0.174294 1.71189e-16)
(0.161865 0.369772 5.7174e-17)
(-0.133522 -1.31119 -2.6825e-16)
(0.0649913 -0.14022 0)
(0.139351 -0.780059 1.41499e-16)
(-0.145799 -1.72399 4.27125e-17)
(0.397342 -1.03926 1.05766e-17)
(-0.326973 0.654478 -1.15027e-16)
(0.0439383 -1.40318 -3.03326e-16)
(0.866979 0.694761 0)
(-0.102979 -0.484136 -2.23517e-16)
(-0.231857 -0.673685 0)
(0.70993 -0.949852 2.65808e-16)
(-0.153241 -0.014718 -1.0235e-17)
(0.120187 -1.04149 0)
(0.172934 -0.155083 -2.448e-16)
(0.608785 -1.29455 2.5973e-18)
(-0.046742 -1.53454 5.76496e-16)
(-0.290988 0.311547 1.9888e-16)
(-0.202527 0.340291 -9.74651e-19)
(0.157464 3.50184 -3.7006e-17)
(0.824646 -1.19272 0)
(0.787682 -1.4425 4.9518e-17)
(-0.105489 0.210689 0)
(0.427049 -0.0214068 1.03053e-17)
(0.382598 0.136326 -5.357e-18)
(-0.0599082 -0.549179 -1.30175e-16)
(0.664103 -0.562312 0)
(0.518008 -0.693948 1.62667e-16)
(0.663974 -0.609992 -1.13018e-16)
(0.181089 0.0788739 4.34151e-16)
(0.476406 -0.0676646 -1.65629e-16)
(0.179994 0.3979 -1.50188e-16)
(0.079721 -0.225592 9.18465e-17)
(0.208232 0.328003 -2.24709e-16)
(0.220255 -0.00554061 -3.20257e-16)
(0.187615 -0.115618 -7.43041e-18)
(0.215286 0.152672 0)
(-0.16996 0.10904 0)
(2.51883 2.19841 2.8477e-16)
(0.114786 -0.303058 0)
(0.137486 0.331371 0)
(1.18891 0.628231 -2.09712e-16)
(-0.211554 0.245229 2.14933e-16)
(-0.328532 0.372149 -4.62936e-16)
(0.30271 0.438113 -1.68129e-16)
(1.56874 2.91803 1.07724e-16)
(0.115565 0.434314 -2.51171e-16)
(-0.109015 0.392992 -6.11732e-16)
(1.57645 5.08688 1.61414e-16)
(2.17377 -0.156902 0)
(8.07646 0.0919145 -1.52046e-17)
(1.05813 7.05747 -5.6841e-17)
(-0.0635762 0.711655 3.24441e-16)
(-0.2839 0.509751 -1.99654e-16)
(2.21672 7.26125 -2.68995e-16)
(2.02228 8.03904 2.41423e-16)
(0.961819 4.37259 1.60077e-16)
(-0.0469389 -0.0753477 0)
(0.0159737 -0.180773 -5.43257e-17)
(2.11631 -0.206487 0)
(0.681152 8.44935 -4.6946e-17)
(9.95435 0.362223 -1.79297e-17)
(8.76561 0.142082 -3.16628e-17)
(0.243702 0.968583 -1.66114e-16)
(1.00114 1.3295 -1.3592e-16)
(0.119363 0.311863 1.42365e-16)
(0.183045 -0.250877 -1.16086e-16)
(-0.0139147 0.382472 0)
(-0.125147 0.22373 -1.27835e-17)
(0.0583855 -0.137811 0)
(-0.206187 0.46399 2.42715e-17)
(1.96078 6.93631 5.582e-17)
(0.00201958 -0.0704881 0)
(2.05199 -0.2404 0)
(-0.526971 4.25863 0)
(0.836293 -1.63176 3.99431e-17)
(9.9273 0.156331 -1.33572e-17)
(0.544645 -1.76025 0)
(0.648354 1.53345 -1.08189e-18)
(-1.19607 5.81406 1.28199e-17)
(0.281949 -1.2313 -2.36586e-20)
(0.0834956 -1.29725 0)
(-0.0122025 -1.65164 1.81458e-16)
(0.442061 -0.722452 0)
(-0.340025 0.53154 1.3368e-20)
(0.137071 0.340787 -7.57893e-17)
(0.12384 -0.319807 -4.85532e-17)
(0.124836 3.74464 -6.95256e-17)
(0.0544704 3.76122 0)
(0.11157 -0.521107 3.71263e-17)
(9.68903 1.18484 0)
(-0.226599 -0.405727 4.13071e-17)
(10.5192 0.119046 -9.28491e-17)
(0.152788 -0.399176 0)
(1.40163 6.33696 -3.629e-16)
(-0.736595 5.18142 7.33492e-18)
(0.0687994 -0.246641 5.03595e-17)
(-0.571734 0.331013 0)
(0.967371 -1.15328 1.46739e-20)
(0.0277422 -1.26358 -1.33015e-16)
(0.975176 -1.47473 5.89943e-17)
(0.121612 0.351696 -1.76765e-16)
(1.90484 -0.283768 9.8272e-19)
(0.126046 -0.206785 0)
(-0.320302 -0.759058 1.47368e-16)
(0.167151 -0.330924 0)
(0.271158 -1.36311 4.15966e-17)
(0.628419 -1.65635 -1.02815e-16)
(8.73425 0.180589 4.35878e-17)
(7.99704 0.164866 -1.26359e-16)
(0.0812773 -1.77824 5.29628e-17)
(0.597582 -1.45409 -1.60546e-17)
(0.179499 -0.11956 2.25745e-17)
(0.120562 -0.288376 -4.60463e-17)
(0.0650412 -0.81378 3.70164e-17)
(0.407552 -1.8343 0)
(0.582027 -0.199981 4.18686e-16)
(3.04038 4.0279 0)
(0.0557793 -1.36947 -1.16886e-16)
(0.739591 2.62665 1.72299e-16)
(0.120303 -0.721843 1.49825e-16)
(0.562912 2.4426 0)
(-0.249346 -0.137915 4.52405e-17)
(0.0817243 0.646531 5.94882e-17)
(0.441336 -1.53449 2.55587e-17)
(9.79346 0.0990847 0)
(0.165863 0.0728828 0)
(-0.287491 0.409585 8.69621e-21)
(0.279477 -1.78029 -4.46056e-17)
(-0.223407 0.108352 2.23923e-16)
(8.19723 -0.0459154 4.2222e-17)
(0.151384 -0.239348 8.70303e-17)
(0.126363 -0.00738792 3.65329e-17)
(-0.166507 -0.680505 -5.43634e-17)
(-0.0452031 -0.085549 -7.52225e-17)
(0.275159 -0.425446 -1.65366e-16)
(8.1109 -0.0422208 -4.99467e-19)
(9.30564 1.18289 4.56773e-17)
(0.640999 -0.375337 -3.89563e-16)
(-0.0617177 -1.86973 0)
(-0.166481 0.956272 0)
(0.830023 4.1413 6.30433e-16)
(-2.22205 0.448393 -1.17303e-16)
(-0.210641 -0.00677895 -5.22149e-16)
(0.530965 -0.157521 0)
(9.70253 0.9382 1.29475e-16)
(1.17349 0.919436 0)
(-0.0148359 -1.79621 1.1875e-16)
(0.200716 0.070668 -6.32801e-16)
(0.11155 0.572878 1.9851e-16)
(2.00147 2.37407 0)
(0.0822443 0.610547 1.06205e-17)
(1.49635 6.94499 0)
(1.68931 0.912355 2.17443e-16)
(0.399948 -0.164473 1.3225e-16)
(1.58478 -0.548536 1.06137e-16)
(-0.104862 -1.87515 -1.2217e-16)
(8.85077 2.36824 -2.85817e-17)
(1.98362 -0.268666 -4.07568e-18)
(9.7936 0.0787944 2.18824e-16)
(-0.273515 -0.720232 0)
(0.139595 -0.986219 4.30516e-20)
(-1.10738 0.0209771 -2.34931e-17)
(0.200324 -1.92466 0)
(-0.240978 -0.821431 2.91951e-16)
(9.93019 0.976584 0)
(1.60179 -0.205753 4.2642e-18)
(10.7799 0.439341 -3.24523e-18)
(0.430814 3.13848 0)
(0.487856 4.31731 -8.52035e-17)
(10.0003 0.0720992 -1.0966e-16)
(9.87082 1.21937 0)
(9.73148 1.51144 -5.09861e-18)
(0.0361033 -1.96326 0)
(0.370787 0.364927 -8.79023e-17)
(1.06384 -1.41731 -1.73122e-17)
(9.75045 0.843743 7.00627e-18)
(-0.506927 0.000862079 -2.13167e-16)
(-0.0584919 -0.793864 -1.94304e-16)
(-0.327743 -0.938295 -3.35678e-16)
(-0.34793 0.445531 -4.31584e-17)
(0.271138 -1.71973 -5.3681e-18)
(0.161548 -1.37937 5.77577e-19)
(0.11698 0.292815 -1.00602e-16)
(0.0885506 1.46191 0)
(-0.342412 0.290476 3.26049e-21)
(0.0517593 1.03494 5.60707e-17)
(5.7946 1.2338 -4.43941e-17)
(7.08469 2.38537 6.15075e-18)
(0.296046 0.0526497 -1.73172e-16)
(-0.00356116 -0.0960065 0)
(0.374563 -0.69757 -1.63257e-16)
(6.46095 1.75368 0)
(9.80065 0.732189 -1.30182e-17)
(-0.427166 6.06701 0)
(-0.0250699 3.65178 4.23623e-17)
(0.134947 -0.710941 -9.99183e-17)
(0.146288 0.0566406 -1.45835e-20)
(-0.30039 0.273575 1.09817e-16)
(-0.763406 -0.0289868 0)
(2.20078 0.0997313 2.64032e-16)
(-0.358361 0.0297851 -7.23711e-17)
(1.30599 -1.30872 1.00816e-19)
(6.68499 1.65208 -6.15607e-17)
(-0.245349 0.145844 9.56162e-17)
(0.387652 0.330638 8.81725e-17)
(0.181043 -0.0743806 -1.56825e-17)
(9.79842 0.0535838 0)
(0.0910419 0.965113 5.16349e-17)
(2.28362 0.0496673 -8.4469e-17)
(0.68107 -0.127993 -1.26389e-16)
(9.804 0.0459785 -4.57592e-17)
(-0.405309 -0.391209 6.9099e-17)
(0.158495 -0.124238 4.2131e-17)
(-0.334154 0.297716 -8.59807e-17)
(9.13495 1.206 3.64785e-17)
(9.01429 1.64046 2.02934e-17)
(2.26986 0.128198 1.99034e-16)
(0.125233 -1.82291 -1.7575e-17)
(0.0104838 2.2479 0)
(9.81595 0.057722 1.8101e-16)
(0.198802 0.157179 4.06889e-16)
(1.49638 -1.09456 -1.92763e-17)
(0.0274102 -0.877723 0)
(0.0224691 -1.86672 2.87837e-17)
(0.390829 4.06061 -6.19807e-17)
(0.308054 2.81503 5.52241e-17)
(2.14047 0.0462519 2.7133e-16)
(1.10967 -0.284577 0)
(-0.571705 -0.620026 2.48394e-17)
(9.46767 1.79133 4.26675e-17)
(8.72993 0.993057 0)
(0.411557 3.6014 8.61002e-17)
(0.144732 -0.116157 -7.7708e-17)
(9.79225 0.0692992 8.13464e-17)
(9.91614 0.16236 -2.23429e-17)
(1.10627 -1.18846 -2.74094e-16)
(0.158616 0.0732481 -4.59753e-16)
(0.150906 -0.8108 1.7315e-17)
(0.543051 -0.36825 9.20498e-17)
(2.28544 0.31773 -2.7805e-16)
(2.10289 0.315093 -5.05387e-19)
(9.79749 0.132607 0)
(-0.536033 0.0122047 1.85403e-16)
(10.0122 0.0739158 3.86318e-17)
(0.0980981 0.684837 -5.89391e-17)
(0.137722 0.0511526 1.69762e-16)
(0.640255 0.515796 -4.97753e-17)
(0.40088 0.252081 -8.73952e-17)
(9.81677 0.0864679 -2.54692e-17)
(2.28118 0.190133 -1.46148e-16)
(0.181438 -0.252437 -2.10264e-17)
(8.68542 0.278591 0)
(8.82132 0.733231 7.91788e-17)
(0.293858 1.28497 6.63738e-17)
(0.416717 1.40775 1.90098e-16)
(-0.244212 -0.0620858 0)
(9.00792 1.99624 -3.06379e-17)
(0.475784 0.797652 -1.44943e-16)
(-0.331308 -0.0464017 1.64786e-18)
(-0.0713235 0.783705 -3.34987e-17)
(0.795689 -0.225548 2.00972e-17)
(1.61995 -0.850349 -1.80902e-16)
(-0.123546 -0.970911 1.52279e-20)
(0.398313 -0.153324 4.68286e-16)
(0.0335525 -0.884184 -3.53224e-17)
(0.46093 0.0499575 0)
(0.0354701 -0.248982 1.63404e-16)
(7.16451 0.107831 2.2056e-17)
(0.135427 -0.531462 0)
(0.0401385 -1.47577 -1.60658e-17)
(0.0666753 -0.0819388 -7.61869e-17)
(0.31003 -0.0764443 1.28692e-16)
(-0.314173 0.1524 -4.38313e-17)
(1.0706 0.00971749 -6.94914e-17)
(0.163207 0.0716319 3.51781e-16)
(9.81024 0.112053 0)
(9.0301 1.24015 -5.90283e-17)
(0.0758649 -1.46486 0)
(-0.36722 0.157231 1.68733e-16)
(9.42534 1.01747 -6.50152e-17)
(-0.291666 0.0251285 8.35328e-17)
(0.124806 -1.31408 2.687e-16)
(4.83053 2.87627 9.53807e-17)
(8.91599 1.2952 -3.20028e-19)
(0.15136 0.397588 -2.06487e-16)
(10.008 0.0818558 -1.12235e-17)
(5.48834 0.330775 2.41523e-16)
(1.57873 -0.427591 2.37788e-16)
(0.359921 0.408673 4.14476e-18)
(-0.389589 0.423594 -1.05401e-16)
(0.114112 0.708447 -3.78661e-17)
(0.22091 -0.605632 -9.21454e-17)
(8.11746 0.300024 5.10903e-21)
(-0.0469281 -1.07844 2.63387e-16)
(-0.249291 2.49408 -1.0763e-16)
(8.8949 1.23682 -8.85907e-19)
(0.630248 -0.447255 8.31955e-17)
(8.4976 0.332229 0)
(9.55127 0.116784 2.21786e-17)
(9.79851 0.102355 1.24362e-17)
(-1.2975 5.54027 1.32226e-16)
(-0.163146 -0.0934966 -4.90667e-16)
(7.69056 0.29647 -2.31113e-17)
(0.14691 1.11254 0)
(0.19656 0.568438 1.17232e-16)
(2.00485 0.157033 -2.62328e-16)
(0.351488 -0.0453564 0)
(0.147672 -0.45268 0)
(0.437355 0.0995742 1.5127e-16)
(2.50675 0.168603 2.44305e-16)
(2.91866 0.199552 0)
(-0.374632 4.50669 -1.69632e-16)
(9.52044 0.908569 -7.04017e-18)
(1.82727 0.620181 1.44353e-16)
(1.57531 -0.710957 1.0848e-16)
(0.229054 0.263348 0)
(2.09681 0.44554 -2.6955e-16)
(0.096077 -0.816156 1.30957e-16)
(0.170644 1.92904 1.16387e-16)
(6.0282 -0.272599 0)
(1.43282 -0.206498 0)
(5.26535 0.106051 0)
(8.9261 0.353963 7.74125e-18)
(9.1888 1.56127 1.07057e-17)
(10.4363 0.723098 -1.33319e-17)
(9.34015 0.902218 7.22693e-17)
(-0.488783 -0.0317596 2.45496e-16)
(0.426141 3.40885 4.45648e-17)
(9.0393 1.3245 -1.31149e-16)
(3.36195 0.206503 0)
(4.13854 0.176535 4.84125e-17)
(2.13233 0.510324 0)
(0.787113 0.0527103 -1.11768e-16)
(9.94519 0.0380746 5.86674e-18)
(10.9395 0.0518938 0)
(9.46935 0.106877 5.33683e-18)
(6.89339 0.538791 -1.61856e-16)
(2.81351 -0.137479 -3.06096e-16)
(6.96297 0.790236 1.21531e-16)
(4.57892 4.52005 0)
(3.09524 5.40326 1.70292e-18)
(9.58838 0.00881617 1.01385e-16)
(1.08493 3.0322 -1.60625e-16)
(-1.13301 -0.0800426 -6.05869e-18)
(2.25004 6.55137 -3.61424e-17)
(5.4416 0.164848 6.76861e-19)
(3.78231 0.198385 7.85832e-19)
(1.62357 -0.78955 5.38417e-19)
(0.777134 6.50059 0)
(0.542468 0.326819 1.60728e-16)
(-0.236528 0.208521 1.77007e-16)
(-0.422211 -0.403544 -1.66892e-16)
(4.99571 0.0995764 0)
(0.44663 -0.784774 8.1133e-17)
(1.02681 1.85885 3.03544e-17)
(0.988287 -0.934437 -1.75605e-16)
(-0.424025 -0.0193461 -2.12829e-17)
(-0.314242 0.226996 -1.41447e-16)
(-0.357753 -0.106026 6.12782e-17)
(4.44955 0.147636 -5.00719e-17)
(0.297585 3.66941 0)
(-0.176004 -0.137486 1.78293e-16)
(3.57849 2.57371 -4.53207e-16)
(0.476776 0.343945 -9.26357e-17)
(-0.391555 0.334835 -1.47376e-16)
(0.415477 -0.118477 2.8527e-20)
(6.15146 0.456747 -1.18018e-18)
(1.69717 0.503432 1.52358e-16)
(9.59233 0.811456 0)
(1.56527 0.0428267 0)
(3.34424 1.65028 -9.69589e-17)
(9.99391 -0.0110938 2.79316e-18)
(9.86269 0.213382 0)
(0.613435 0.298847 -8.27488e-17)
(-0.158766 0.122922 0)
(0.130548 4.68525 -1.08614e-16)
(9.86168 0.112537 2.4919e-17)
(0.706369 -0.309909 2.62707e-16)
(0.0715128 -0.152581 0)
(8.76249 1.18219 2.7986e-17)
(-0.227095 0.0471303 -1.38824e-16)
(1.06589 -0.141534 7.70189e-17)
(-0.74331 -0.166312 -1.97765e-16)
(1.67807 7.82553 9.88741e-17)
(1.99782 -0.0408395 -3.37119e-17)
(0.775288 3.94095 3.80685e-16)
(0.0283033 -0.675217 0)
(9.69905 0.144706 -8.35193e-17)
(9.83158 0.0772748 -2.70247e-18)
(0.731452 4.48488 -7.25062e-17)
(0.397626 0.0727037 9.53291e-17)
(2.44543 -1.77988 -1.20766e-16)
(6.14864 0.0477988 3.25734e-17)
(5.65754 0.218521 -4.50576e-17)
(4.61853 -0.294987 -2.03574e-16)
(5.23597 0.171825 0)
(5.60516 0.0564775 -1.49781e-16)
(7.24471 -0.0460862 0)
(6.10667 -0.079109 3.73152e-17)
(4.73116 0.119497 5.74807e-18)
(-0.442129 -0.784648 -6.73765e-16)
(-1.18106 -0.0411714 -3.60873e-16)
(11.1076 0.438732 5.14579e-17)
(-0.169618 0.624435 -3.28894e-17)
(-0.0139244 -0.12735 2.00591e-17)
(-0.189839 -0.0303912 7.09011e-16)
(0.626955 -0.0210558 -6.7489e-21)
(0.888374 -0.170097 0)
(0.378727 0.239339 -2.00586e-16)
(-0.588752 0.332525 -4.00855e-17)
(0.786652 -0.37322 0)
(-0.260546 0.0446665 3.35016e-16)
(9.06147 0.542583 2.9809e-16)
(1.16817 -0.855036 -2.61606e-16)
(8.33424 -0.0189637 4.08684e-17)
(0.438739 -0.0684987 -6.92218e-17)
(0.957101 -0.472233 -1.38549e-16)
(9.66581 0.709077 0)
(8.62533 0.895579 -4.0406e-17)
(10.3684 0.449058 0)
(5.92343 0.116904 0)
(0.934775 3.86488 1.18188e-18)
(8.66618 1.06977 1.0714e-19)
(-0.476895 0.529969 4.14666e-17)
(-0.343138 -1.37302 -3.5006e-16)
(-0.587239 -0.888963 3.07847e-16)
(9.71714 0.0252046 1.07398e-17)
(-0.0833375 -0.962909 1.1873e-16)
(-0.232527 -1.65634 2.26295e-16)
(-0.167494 -0.74211 1.5653e-16)
(-0.362857 0.054032 -3.39059e-16)
(3.25497 4.87215 3.5562e-17)
(0.829533 0.375889 2.16482e-16)
(0.419866 3.34857 -4.63689e-17)
(0.569623 4.88469 0)
(9.88641 0.202884 0)
(9.53988 0.0185187 5.84682e-17)
(9.78097 0.0569837 -8.55779e-17)
(2.03723 0.703861 -1.84386e-16)
(-0.39777 0.154877 -4.28159e-17)
(1.92351 -0.246978 3.16805e-17)
(-0.70921 0.217183 0)
(0.0954963 -0.582412 0)
(9.93894 0.250118 6.38072e-17)
(8.47754 1.76288 0)
(0.921547 0.062256 -7.87943e-17)
(-0.091635 -0.0254952 -2.96023e-16)
(8.59084 0.412133 1.59942e-17)
(1.79946 7.3579 0)
(1.6962 -0.00399857 2.47217e-16)
(-0.0441033 -1.41767 0)
(0.241536 0.327877 1.95207e-16)
(8.61247 2.22483 -9.92672e-17)
(-0.549684 0.526623 0)
(-0.602712 0.604764 -1.37322e-16)
(1.73379 -0.529637 -7.04534e-17)
(9.78225 0.0582319 -7.68508e-17)
(0.286527 -0.948923 1.62851e-16)
(-0.228406 -0.199328 0)
(1.41661 -0.033244 7.60806e-17)
(0.0270109 0.224683 -8.95552e-17)
(10.5342 0.0937593 0)
(0.115496 -0.358542 0)
(0.816887 0.20016 2.24514e-16)
(-0.362033 0.751469 -1.22947e-16)
(0.339539 0.888122 0)
(6.92131 0.0754293 1.81075e-16)
(9.36714 0.125839 0)
(-1.11809 6.26573 -1.24854e-17)
(1.74335 0.380594 -1.28433e-16)
(9.73157 0.120936 6.28847e-17)
(1.24903 1.83975 -1.56287e-16)
(4.13864 1.70078 -2.8445e-16)
(0.345895 0.377071 -1.23186e-16)
(-0.588016 0.45398 0)
(1.35796 -0.422692 -2.27863e-16)
(-0.331866 -0.0379934 3.57776e-17)
(1.75393 -0.36509 0)
(1.83218 -0.329809 -1.74413e-17)
(0.213821 -0.186405 2.09698e-16)
(0.191073 -0.359961 7.87081e-17)
(1.53332 0.0704305 0)
(1.82061 -0.00274331 6.33624e-19)
(11.2028 0.181783 -4.81053e-17)
(0.505122 0.357831 3.98163e-17)
(0.239743 0.444763 5.84811e-16)
(-0.308436 -0.0748176 1.03927e-16)
(2.01459 0.164273 2.87974e-16)
(9.79184 0.081104 5.98476e-17)
(-0.291489 4.47086 0)
(1.2252 -0.0981508 2.2332e-18)
(0.247933 -0.14529 -2.14556e-16)
(0.287593 -0.134858 -2.96235e-16)
(0.238233 -0.469482 -9.67564e-17)
(9.51592 0.0343465 9.46995e-20)
(-0.0774777 0.79772 0)
(-0.245286 -0.135358 6.22758e-18)
(1.24691 -0.610675 -1.01569e-16)
(9.96577 0.228651 2.82818e-17)
(1.3903 0.162362 2.13585e-16)
(9.7812 0.0353934 3.44486e-21)
(9.79197 0.132943 0)
(7.85613 0.124936 4.85094e-17)
(-0.185215 -0.224315 0)
(5.82906 -0.0448095 -1.99752e-16)
(0.0254772 2.20901 -1.71675e-16)
(1.96023 0.0746749 0)
(0.014143 0.0336488 -7.91546e-17)
(8.53539 1.39979 -1.97303e-17)
(0.289408 1.00215 9.90034e-17)
(0.0146262 3.34739 -6.56449e-18)
(0.106619 3.05601 0)
(0.0498334 3.23238 6.52699e-18)
(-0.00867217 3.43463 1.47015e-17)
(0.187375 2.7843 2.74022e-17)
(0.270632 2.38389 -5.98412e-17)
(-0.307631 -0.715798 1.79754e-16)
(0.748671 -0.442701 0)
(0.130554 -0.0875718 3.43231e-16)
(9.75509 0.0695255 1.10047e-17)
(0.310809 1.82876 5.44496e-21)
(0.149338 -0.473032 0)
(-0.213717 0.0141596 7.79375e-17)
(0.192623 -2.63792 1.42213e-18)
(-0.0162447 -0.767158 -2.26601e-16)
(1.8749 -0.126728 -4.17143e-18)
(-0.127467 -0.250818 -2.18847e-16)
(0.0458321 1.07049 -9.31735e-17)
(0.105573 -1.1667 -1.12157e-16)
(-0.25764 3.60609 4.98489e-17)
(0.846783 -0.641957 3.817e-16)
(1.73043 4.83026 0)
(-0.324688 0.253651 -1.89714e-16)
(0.32054 1.19069 -1.03133e-17)
(2.22009 -0.0955191 3.32773e-17)
(0.73337 -0.393338 -1.38564e-16)
(2.06136 -0.0322453 -3.67839e-17)
(0.758051 4.13036 1.26711e-16)
(0.227233 0.586443 7.87061e-17)
(0.224999 0.253224 1.34809e-16)
(1.79013 -0.157039 2.10574e-18)
(-0.426657 -1.02409 -2.11177e-17)
(-0.141151 -0.301074 2.00348e-16)
(0.246084 0.615199 -2.23845e-17)
(-1.74798 0.794862 -6.37309e-17)