/*--------------------------------*- C++ -*----------------------------------*\
| =========                 |                                                 |
| \\      /  F ield         | OpenFOAM: The Open Source CFD Toolbox           |
|  \\    /   O peration     | Version:  v1912                                 |
|   \\  /    A nd           | Website:  www.openfoam.com                      |
|    \\/     M anipulation  |                                                 |
\*---------------------------------------------------------------------------*/
FoamFile
{
    version     2.0;
    format      ascii;
    class       surfaceScalarField;
    location    "0.87";
    object      phi;
}
// * * * * * * * * * * * * * * * * * * * * * * * * * * * * * * * * * * * * * //

dimensions      [0 3 -1 0 0 0 0];
oriented        oriented;


internalField   nonuniform List<scalar> 
11117
(
1.26917e-05
-3.57583e-05
-2.25438e-06
2.5321e-05
-3.01422e-05
-5.34244e-07
1.49754e-05
1.5701e-05
-4.14724e-05
5.21746e-05
-0.000162769
0.000152067
-0.000519978
1.74754e-05
0.000206355
0.000296148
0.00016685
0.000233612
-0.000183865
-0.000216598
2.27412e-05
-1.47563e-06
0.000182762
-0.000204028
-0.000505329
-5.84076e-05
0.000412123
0.000151614
-0.000127425
9.0258e-06
5.89598e-05
5.94391e-05
0.00123368
0.000235346
-0.000911835
-0.000557191
-1.96544e-06
4.81718e-06
-5.90769e-06
3.05595e-06
-0.00087464
0.000945954
0.000302862
-0.000374176
-0.000332191
-0.000213111
0.00026275
0.000282552
-0.000483282
-0.000221198
0.000297592
0.000406888
0.000776324
-0.00100578
0.000490298
-0.000260842
1.86255e-05
-2.52479e-05
1.90261e-05
-1.24036e-05
0.00010152
-3.59062e-08
1.98723e-05
-0.000121356
-0.000134677
0.000222432
-1.83859e-05
-6.93694e-05
-0.000668383
0.000698714
0.00070449
-0.000734821
1.20164e-05
6.21236e-06
3.96726e-07
-3.00712e-06
3.35612e-06
1.96625e-05
-2.00115e-05
-0.000327478
0.000184701
6.13931e-05
8.13845e-05
2.87389e-05
-9.8049e-06
-9.39329e-05
7.49988e-05
0.000463401
0.00035189
-0.000242474
-0.000572816
0.000100069
0.000106354
-5.94523e-05
-0.00014697
0.00031984
0.000206151
-0.00037075
-0.00015524
0.000933401
-0.000965215
0.000296185
-0.00026437
0.000281361
-0.000347513
0.000748461
-0.000682308
-0.000203608
0.00026099
-0.000269684
0.000212302
0.00012976
-4.04549e-05
0.0010009
-0.0010902
7.63096e-06
-9.71646e-06
9.34688e-06
-7.26139e-06
-0.000128804
8.99767e-05
0.000132522
-9.36947e-05
-0.000109415
-0.000364424
0.000342159
0.000131679
-0.000118936
-0.000449183
0.000378712
0.000189407
-1.91887e-05
6.81247e-05
-3.99476e-05
-8.98839e-06
-0.000132217
6.19047e-05
-2.65185e-05
9.68312e-05
-0.000138384
6.23131e-05
-2.17693e-05
9.78403e-05
0.000602209
-0.000825136
0.00100549
-0.000782562
0.000302474
-0.000475361
-8.79499e-05
0.000260837
0.000500257
-0.000123386
-0.000664882
0.000288011
0.000194936
0.000320306
-0.000414697
-0.000100545
0.000159774
0.000251442
-0.000290857
-0.000120358
-2.71973e-05
0.000227949
-0.000268158
6.74059e-05
0.00100648
0.000885306
-0.000889028
-0.00100276
0.000251207
1.42197e-05
-2.14155e-05
-0.000244011
2.73191e-05
1.90294e-05
-3.43321e-05
-0.000936367
0.000741848
-0.000224834
0.000419353
-0.000700977
0.000535784
-0.000155301
0.000320493
0.000211444
-0.000306423
0.000187355
-9.2376e-05
1.96658e-06
-1.13598e-05
1.17425e-05
-2.34928e-06
-5.75307e-05
0.000171058
-0.000113527
5.50446e-06
-1.0501e-05
4.99651e-06
-0.000334436
-0.00113523
0.000511928
0.000957742
1.03973e-05
-2.69346e-05
-2.40858e-05
4.06231e-05
5.33509e-05
-5.48924e-05
6.17431e-07
9.2399e-07
1.07724e-05
-1.07724e-05
0.000418699
0.000176524
-0.000549387
-4.58359e-05
0.000292823
0.000133044
-0.000389532
-3.63352e-05
-0.000145433
-7.43557e-05
0.000203582
1.62073e-05
0.000883492
0.000114717
-0.00136372
0.000365511
-0.0004094
0.000787338
0.000555462
0.000849948
-0.00086463
4.18096e-05
-2.71283e-05
0.000111486
-5.40523e-05
-5.35581e-05
-3.87601e-06
-0.000130845
-0.000114682
0.000116724
6.63301e-05
-4.17081e-05
-0.000134037
0.000116269
-3.86188e-05
-0.000196586
-2.95131e-05
-0.000106868
8.72733e-05
4.91074e-05
0.000139675
-0.00014806
6.58844e-05
-5.74997e-05
3.62844e-07
-0.000325433
0.00032507
-0.000693852
-0.000387181
0.000551471
0.000529562
1.61749e-05
4.61625e-05
-5.85791e-06
-5.64795e-05
0.000466887
-0.00013761
-0.000663713
-0.000225993
0.00020224
0.000163427
-0.000276143
-0.00124685
0.00128942
0.00023358
-9.2558e-05
0.000253781
-0.00019068
2.94565e-05
-0.000760533
-0.000601702
-0.000110845
3.91138e-05
0.000199809
-0.000128078
6.26654e-06
-1.86079e-05
1.23414e-05
-0.000938726
-0.000165902
0.000139413
0.000251281
3.7593e-05
-3.76669e-05
8.51688e-06
1.56157e-05
-2.41326e-05
-8.44072e-05
-3.9256e-05
9.86366e-06
0.000113799
-2.18132e-05
-2.26491e-06
7.41418e-07
2.33367e-05
0.000124278
-0.000104202
0.000132018
-0.000152093
-0.000275546
0.00025189
0.000260249
-0.000236594
-0.000209752
4.72917e-05
0.000245079
-8.26195e-05
5.74117e-05
-0.000503116
0.000445704
-1.70968e-05
-0.000541666
0.000558763
3.1969e-05
-0.000483657
0.000451688
2.23591e-05
1.47275e-05
7.71221e-05
-0.000114209
-4.49415e-05
7.53113e-05
0.000270746
-0.000301116
0.000526905
-0.000156474
7.92768e-05
-0.000449708
0.000666485
5.09071e-05
-5.05026e-05
-0.000666889
0.000723263
-4.79743e-05
5.53807e-05
-0.000730669
-0.000694894
3.87362e-05
-2.73883e-05
0.000683546
-0.000635916
5.40144e-05
-2.58151e-05
0.000607717
-2.81145e-07
0.000224205
-0.000325334
0.000101411
0.00058948
2.24181e-05
-2.25912e-05
-0.000589307
0.000688625
4.51485e-05
-3.05054e-05
-0.000703268
0.000634131
4.90603e-05
-2.64272e-05
-0.000656764
0.000820283
5.9063e-05
-2.93979e-05
0.000378912
7.67669e-05
-0.000407496
-4.81831e-05
-0.000241449
0.000176589
7.41483e-05
-9.28808e-06
0.000307992
-0.000380848
-0.00117063
0.00124349
0.000733608
0.000348163
-0.000756088
-0.000325684
-1.26954e-05
1.45969e-05
-8.61094e-06
6.7094e-06
-0.000865141
0.000252027
0.000773822
-0.000160708
1.39094e-05
-4.5247e-05
8.42014e-05
-5.28638e-05
1.66477e-05
9.95241e-07
2.51828e-05
-4.28257e-05
-0.000244326
3.51799e-06
0.000101839
0.000138969
0.000230831
-5.39599e-05
7.44097e-05
-8.96007e-05
5.53234e-05
8.48983e-05
-5.0621e-05
-2.04892e-05
5.47375e-05
2.90805e-06
-3.71563e-05
-0.000414499
0.000344718
-0.000158232
0.000228013
-2.0606e-05
2.4318e-05
6.23689e-06
-9.94891e-06
0.000101286
0.000554525
-0.000633431
-2.23796e-05
0.000123438
0.000640841
-0.000724645
-3.96339e-05
-1.35127e-05
-8.70145e-06
2.36458e-05
-1.43163e-06
-0.000540334
0.000502059
0.000898061
-0.000859785
3.49214e-05
-1.96191e-05
-0.000879932
-0.00103791
8.42211e-05
0.000958495
-4.80613e-06
0.000976831
-0.000694935
-0.00082223
6.54973e-05
-5.56062e-05
-9.8911e-06
0.000154021
-0.000121263
0.000180228
-0.000212986
-0.000163797
-0.000150657
-2.5996e-05
-1.95921e-05
1.31751e-05
3.24131e-05
-0.000354601
0.000406776
0.000624893
-0.000677067
-0.000451912
0.000672347
-0.000511628
0.000291192
8.68633e-07
-0.000158752
0.000155819
2.06367e-06
0.000557172
-0.000819476
-0.000111541
0.000373844
4.5546e-05
-5.18046e-06
4.65708e-06
-4.50226e-05
7.78526e-05
6.27055e-05
-0.000131965
-8.593e-06
0.000175636
-2.57299e-05
-0.000181952
3.20459e-05
0.000148509
-9.07003e-05
-6.83762e-05
1.05678e-05
-0.000890053
0.000108873
-0.000157545
-0.000327287
0.000289235
-0.000683402
0.000721454
2.14068e-05
-1.99344e-05
-2.67204e-05
-0.00041729
3.7839e-05
9.13739e-06
0.000370314
3.34605e-05
9.38575e-05
-1.58315e-05
-0.000112452
4.28369e-08
0.000119337
-6.92774e-06
5.34934e-05
-2.49458e-06
-5.32233e-05
2.22451e-06
-0.000204318
0.00012159
9.29908e-05
-1.02627e-05
7.48932e-05
-0.000330171
0.000364129
-0.000108851
5.17799e-05
-4.18043e-05
-1.42703e-05
4.29459e-06
0.000440372
-0.000211811
-0.000227245
-1.31573e-06
-0.00010182
9.30207e-05
-4.35629e-05
5.23626e-05
3.86865e-06
0.000321165
-0.000155703
-0.00016933
0.000302099
-0.000151352
3.2734e-06
-0.000434674
0.000973903
-0.000558417
1.91877e-05
9.77556e-05
0.000183676
-0.00013325
-0.000148182
-0.000115469
0.000231053
1.82629e-05
-0.000133847
0.000928244
0.000448815
-0.000613143
-0.000763916
-1.15e-05
1.12101e-05
-3.6803e-05
3.70929e-05
-0.000473799
-5.97782e-05
-0.000331564
0.000125007
-0.000203945
-8.9816e-05
0.000168754
-0.000444564
-0.00038575
0.000501305
0.000329009
0.000744623
-0.000165725
-0.000578898
0.000224711
0.000142122
7.76655e-05
-0.000219787
0.000954876
-0.000230136
-0.00072474
9.27228e-05
1.88764e-05
-9.74997e-06
-9.12641e-06
-7.03543e-05
0.000250362
-0.000180008
2.04673e-05
8.28814e-07
-2.12962e-05
-3.48836e-05
0.00029707
-0.000262186
-0.000481692
0.000547007
-6.53157e-05
-0.000487016
0.000481973
5.0435e-06
-0.000229559
-1.81798e-05
0.000247739
-2.08987e-05
-8.35945e-05
0.000104493
-4.72538e-05
-4.23469e-05
-8.29234e-06
-1.21969e-05
-1.31766e-05
9.53521e-06
3.64136e-06
0.000211039
0.000196936
-0.000407975
0.00011924
-0.000150128
3.08885e-05
0.000103873
-0.000144264
4.0391e-05
8.02411e-05
-7.67195e-05
-3.52155e-06
-0.000490057
0.00058767
-9.76133e-05
6.22787e-06
-5.32682e-06
-9.0105e-07
-0.000347839
0.000411166
-6.33275e-05
-8.12968e-05
5.71016e-05
2.41952e-05
0.000926414
-0.00101211
8.56915e-05
-0.000121444
0.000163242
-4.1797e-05
-0.000133232
0.000210006
-7.67742e-05
0.000237784
-0.000225242
-1.25419e-05
-0.000271582
0.000315874
-4.42916e-05
-6.6422e-05
0.000137421
-7.0999e-05
-0.000169847
0.000118592
5.12552e-05
-0.000251669
1.022e-05
-0.000230872
0.000149961
8.09112e-05
-3.21728e-06
1.69341e-06
1.52388e-06
4.72393e-05
0.000129349
-0.000212159
-0.000662482
-0.000276744
-8.76795e-05
-0.000362076
-8.71071e-05
0.00017315
-8.31728e-05
0.000284003
-0.000108367
0.000165195
-8.73428e-05
0.000169486
5.97798e-05
-0.000229266
-3.5517e-05
3.32825e-05
2.23451e-06
-3.89386e-06
1.01062e-05
-0.00108667
0.00139466
0.000463514
-1.68576e-05
-0.000446657
-0.000942149
-0.000193085
5.66059e-05
0.000154838
-4.93184e-05
-1.8637e-05
6.79553e-05
-0.000602044
-9.89325e-05
-0.000792642
-0.000143725
8.6121e-06
-8.51913e-05
7.65792e-05
2.60925e-05
-1.61374e-05
1.77453e-05
-2.77003e-05
-0.000159333
8.07995e-05
0.000510053
-0.00043152
-0.000877727
0.000872775
0.000677893
-0.000672941
0.000150818
-3.32654e-05
-0.000191352
7.3799e-05
-0.00118524
0.00114202
-5.21508e-05
9.53667e-05
-0.000165814
0.000140609
-9.67809e-06
-8.89909e-05
8.85391e-05
-6.99026e-05
-2.84691e-05
1.34351e-05
-5.43028e-05
6.93368e-05
0.000106978
-0.000113951
-0.000147711
0.000154685
6.43687e-05
-6.81324e-05
-0.000125116
0.00012888
-0.000186599
0.000156445
0.000178663
-0.000205543
5.06422e-05
0.000595981
-0.00044108
0.000790408
-0.000684392
-0.000185415
7.93998e-05
-0.00139945
-3.50674e-05
0.000249283
0.000221901
-0.000268479
5.35302e-05
-6.95272e-06
0.000254521
4.72787e-06
-4.51438e-05
-0.000214105
0.000708263
-0.000204305
-5.34386e-05
-0.000450519
-0.000356393
-0.00025566
4.19582e-05
0.000570095
-8.02316e-05
5.45712e-05
0.00119912
-0.00117346
0.000120512
-1.43826e-05
-0.00010613
1.19702e-05
3.51668e-05
-1.76818e-05
-2.94551e-05
3.83837e-05
1.0197e-05
-3.75361e-06
-4.48272e-05
9.23789e-06
-1.04125e-05
-2.92777e-05
3.04524e-05
-3.969e-05
5.55159e-05
-0.000138994
0.000123168
-4.72975e-05
7.19084e-05
-0.000131231
0.00010662
-9.5174e-06
5.31421e-06
-7.26619e-05
7.68651e-05
0.000142082
-5.11873e-05
-0.000222635
0.000131741
0.000175173
-0.000192
2.69419e-05
-1.01154e-05
2.79257e-05
2.44056e-05
-0.000995659
0.000943328
-0.000114908
4.38003e-05
-0.000746706
0.000817814
0.000868975
-0.000871684
6.88259e-05
-6.61164e-05
0.000185145
-0.000284873
-0.000150875
0.000250603
7.71454e-05
0.000145789
-0.000107624
-0.00011531
3.64261e-05
-3.03713e-05
-2.8152e-05
2.20971e-05
0.000161811
-0.000144313
-5.72547e-06
-1.17724e-05
5.40916e-05
0.000680715
-0.000377471
-0.000357335
-7.46789e-06
0.000233668
-0.000101194
0.000207703
-0.000203176
-1.19946e-05
6.91461e-06
-3.10912e-05
7.94999e-05
-1.66278e-05
3.15508e-05
-3.89915e-05
2.40685e-05
0.000153841
-0.000116783
6.06973e-05
5.34844e-05
-0.000546592
0.000493108
5.17265e-05
-0.000544709
0.000492983
3.54988e-05
-0.000471612
0.000436113
5.38973e-05
-5.55673e-05
-2.78431e-05
-0.00033305
-1.28596e-05
2.78127e-05
-3.9033e-05
2.40799e-05
-1.68323e-05
2.73599e-05
-0.000954705
0.000944178
-0.000278708
-0.000399458
0.000465169
0.000212997
0.00105524
-0.000450792
-0.000807002
0.000202554
-0.000655542
0.00116237
-0.00087051
0.000363686
1.10141e-05
-2.90924e-05
4.41707e-05
-2.29311e-05
-2.64056e-05
2.33406e-05
-0.000628443
-7.12375e-05
0.000304539
0.000395142
-1.17323e-05
-0.000168529
1.44473e-05
-0.000108713
-5.57926e-05
7.55145e-05
2.03601e-05
8.15172e-05
-5.669e-05
-4.51873e-05
-0.000190057
9.51238e-05
9.49332e-05
-0.000216541
0.0002118
4.74155e-06
0.000299987
-0.000217574
-0.000197882
0.000106644
-0.000389191
0.000341887
-5.93401e-05
1.61621e-05
-2.02168e-05
-0.000590475
3.29247e-05
-5.58827e-05
0.000613433
-0.000458915
1.96024e-05
-3.45258e-05
0.000473838
-4.89919e-05
-5.87124e-05
0.000139055
-3.13506e-05
-1.16501e-05
0.000228056
-0.00029717
8.07644e-05
-0.000285136
0.000465931
0.000331134
3.00728e-05
-0.00108149
0.00110793
-5.65163e-05
-4.10061e-06
2.20042e-05
-8.66572e-06
5.65524e-06
4.98746e-05
-2.17893e-06
0.000199987
-1.39743e-05
-0.000208723
2.27104e-05
-4.27597e-05
5.00286e-05
1.92454e-05
-2.65144e-05
3.9895e-05
0.000260949
-6.89901e-06
-0.000293945
-5.69232e-05
-2.2673e-05
4.40792e-05
-0.000339093
-6.34604e-05
0.000295655
0.000106898
-0.000426545
0.000265464
0.000320854
-0.00020882
0.000122291
5.93317e-05
-0.000564986
0.000327569
0.000432354
-0.000558488
1.64734e-05
0.00055318
-1.11652e-05
-0.000617533
1.24772e-06
0.000629094
-1.28093e-05
4.91896e-06
0.000634149
-0.000615783
-2.32842e-05
-3.60126e-05
0.000588219
-0.000576161
2.39549e-05
-0.000613978
0.00104983
-0.000763144
-4.6868e-05
5.46175e-05
-6.08648e-05
5.31153e-05
-3.11646e-05
4.76049e-05
-8.21088e-05
6.56685e-05
-4.73473e-05
3.02876e-05
1.66261e-05
4.33589e-07
6.31466e-05
-5.66968e-05
-8.10224e-07
-5.63955e-06
-0.000969103
0.000115257
0.000951793
-9.79466e-05
-0.000115533
0.00068423
-0.000737479
0.000168782
-8.13603e-05
-8.44022e-05
0.000473782
-0.000308019
3.68723e-05
-5.4347e-05
9.87183e-05
-8.12437e-05
-0.000142666
-7.17909e-05
0.000629563
-0.000415106
2.50091e-05
7.18166e-05
2.82522e-06
-9.96509e-05
-1.07494e-05
3.47536e-05
-4.58174e-05
-0.000569474
0.000533887
-5.13108e-05
0.000111449
-0.000144545
0.000335505
-0.000281223
-1.90767e-07
0.000112868
6.78654e-05
-7.13529e-05
-0.000109381
4.05845e-05
-1.65982e-05
0.000325754
-0.00034974
-3.93166e-05
2.52997e-05
-2.87428e-05
0.000487802
-0.000318722
-0.000556261
0.000759717
-0.000395315
0.000582442
-0.000296734
2.10651e-06
9.10232e-05
2.88265e-05
2.33986e-05
7.79654e-05
-0.00013019
0.000462912
-0.000747038
-0.000593601
8.63132e-06
-1.59438e-05
-1.32935e-05
-0.000426686
0.000472181
0.00101182
-0.00105732
0.00084743
-0.000171078
-4.75203e-05
-0.000628832
3.05682e-06
8.6945e-06
4.89636e-06
-0.000380808
0.000189334
0.000452464
-0.000239169
6.50077e-05
-7.0165e-05
0.000231698
-0.000784041
0.000682104
3.40311e-06
2.72175e-05
-4.91521e-05
1.85315e-05
2.09782e-06
0.000199083
-0.000287661
8.648e-05
-0.000684774
0.000614013
0.00057282
0.000116948
0.000233578
2.6015e-05
-3.2209e-05
0.000101962
-9.57677e-05
-6.41768e-05
-0.000242977
0.000183768
2.38201e-06
7.72028e-08
-0.00025591
0.00025345
-0.000166995
-0.000199279
0.00080743
0.000138524
-1.5735e-05
-8.01878e-05
0.000154156
-2.16343e-05
0.00014784
9.04902e-05
-5.18272e-06
2.01793e-05
-8.20907e-06
-2.67865e-05
3.65999e-06
2.27083e-05
0.000127253
1.87719e-05
-2.79993e-05
0.000221574
-2.66562e-05
2.12726e-06
9.09837e-06
0.000228686
-4.05074e-05
-0.000231075
-5.58105e-05
-7.74214e-05
-0.000516358
2.9342e-05
-6.46126e-05
-0.000410749
-7.87288e-05
-0.000586153
0.000151858
-0.00014799
-4.6202e-05
-6.67379e-05
-5.20929e-05
-6.40532e-05
0.000182645
-1.86557e-05
1.47619e-05
0.00036858
0.000589162
-4.18148e-05
4.20616e-05
-9.0275e-06
-1.92122e-05
1.21022e-05
-5.8836e-05
-0.000192841
0.000163727
0.000520316
-0.000547472
2.49156e-05
2.23997e-06
4.59278e-05
-0.000340273
0.000235938
0.000103023
-0.0001952
0.000101203
-3.08128e-05
4.12772e-05
6.71338e-06
-1.71778e-05
0.000274258
0.00046759
0.00020829
0.000327494
-5.59796e-05
-0.000250443
-4.24581e-05
4.68101e-05
6.31407e-06
-1.0666e-05
-9.48493e-05
1.01342e-05
8.83403e-05
-3.62525e-06
-6.38591e-05
-3.2465e-05
6.55114e-05
-7.96125e-05
2.46099e-06
4.79299e-05
2.92216e-05
-7.35235e-06
-8.23009e-05
2.93767e-05
6.02766e-05
0.000426634
-0.000118795
0.000136595
-0.000421754
0.000703859
6.03881e-05
-0.000291159
0.000523594
-0.000150669
0.000234236
-0.000229001
-3.95853e-07
9.1449e-06
-9.23916e-06
4.90118e-07
1.8329e-05
6.30541e-05
-4.06251e-05
-4.07579e-05
8.63794e-06
-3.71911e-05
-1.3905e-05
-0.000624402
0.00102938
-0.000734521
0.000329548
3.59134e-05
-0.000133164
-4.11332e-05
4.35986e-05
-0.000118558
-5.72578e-05
3.13179e-05
-1.09327e-06
-4.94133e-05
-0.00105415
0.000942068
7.16242e-05
9.94809e-06
4.84135e-05
-5.15912e-05
-6.77037e-06
-9.59985e-05
6.69877e-05
-3.82974e-05
6.73083e-05
-5.95954e-06
-0.0002236
-5.41417e-05
3.3243e-05
0.000379283
-0.000154244
1.08279e-05
-8.13989e-06
6.28366e-05
-6.55246e-05
4.05532e-05
-4.34638e-05
4.43721e-06
-1.52658e-06
7.95497e-05
5.6575e-05
7.07236e-05
8.20666e-05
-1.36892e-05
-7.67026e-05
8.32518e-06
3.97396e-05
-1.50317e-05
-3.44579e-05
0.000389602
9.66564e-05
0.000285129
0.00115747
0.000117869
-0.00111944
-0.000155895
9.18129e-05
-1.18776e-06
5.59252e-05
-0.000679654
0.000176099
0.000605727
-0.000102172
-0.00010095
-2.67395e-06
-3.46289e-06
0.000107087
-6.55633e-05
0.000237823
-0.000130848
-4.1412e-05
1.90549e-05
-6.75986e-05
3.94455e-05
9.09815e-06
-0.000213069
0.000717099
4.53365e-05
-0.000549366
-0.000317677
0.000895997
6.28101e-05
-0.000641131
0.0006284
3.04458e-05
7.60306e-05
-0.000734876
-6.1383e-05
6.62721e-06
8.32446e-05
-2.84888e-05
6.50753e-05
0.000145963
-0.000180835
0.00037712
0.000355185
0.000491641
0.000111363
0.000531601
0.00011027
0.000559359
0.000129392
0.00061096
-8.01254e-06
-4.53574e-06
4.55728e-06
7.99101e-06
5.18085e-05
-4.86862e-07
-4.51153e-06
-0.000220872
0.000256786
-0.000211709
0.000255308
-3.68343e-05
6.81522e-05
2.7131e-05
1.75737e-06
-4.57039e-06
-3.22426e-06
-2.08073e-05
2.54854e-05
-1.45382e-06
1.57096e-05
8.19338e-05
-9.76112e-05
-3.22065e-08
2.10098e-05
0.000641272
-0.000426936
0.000967267
6.27833e-05
-0.00101517
-1.48813e-05
-0.000262555
0.000260395
0.000302147
0.000136706
-0.000265191
-6.93394e-05
0.000197824
2.07975e-05
-5.07222e-06
3.13173e-06
-1.15722e-05
0.000101335
0.000175392
-5.69666e-05
-7.99054e-05
-3.70988e-05
-0.000953528
0.000925912
-0.000399069
-9.21519e-05
-5.8739e-05
2.45891e-05
0.000216965
-1.46471e-05
-0.000226907
-8.11144e-05
0.000717849
1.9285e-05
-0.000656019
-8.07496e-05
0.000626591
2.03939e-05
-0.000566235
3.8431e-05
-4.46442e-05
0.000130468
-0.000124255
-4.47412e-05
4.36446e-05
-3.06215e-05
3.17181e-05
5.01275e-05
-0.000140232
0.000188903
-9.87986e-05
-2.02638e-05
4.04431e-05
-1.68191e-06
1.06021e-05
-1.15107e-05
2.59049e-06
-0.00027716
-6.43679e-05
0.000202246
0.000139281
0.000105734
-0.000119152
3.56849e-05
-2.22671e-05
0.000663817
2.0457e-05
-1.60469e-05
-0.000668227
2.68395e-06
7.88893e-05
-6.12131e-05
0.000514536
-2.63407e-05
3.18972e-05
-0.000520093
0.000222244
-0.000132186
-0.000144924
5.48654e-05
-0.000558771
-1.16464e-05
-6.77821e-05
0.0006382
-0.000556698
-9.12474e-05
1.49524e-05
0.000632993
0.000169182
-1.52051e-06
-0.000181076
1.34144e-05
9.05485e-07
-2.0367e-05
1.32901e-05
6.17149e-06
-6.87194e-05
-3.79608e-05
5.97386e-05
4.69416e-05
-5.74706e-05
5.85451e-05
-3.21657e-05
0.000780029
7.82996e-05
-3.80455e-05
5.08974e-05
4.32459e-06
-9.67601e-06
-0.0011629
-0.000123848
0.00112525
0.000161502
0.000460601
0.000336401
-0.00029283
-0.000504172
8.47464e-05
-4.41419e-05
-3.37357e-05
-6.8687e-06
-0.000113005
0.000130208
-0.000184266
0.000167063
6.33379e-05
-6.0654e-05
-0.000152011
8.0716e-05
-0.000605895
0.000677189
0.000134668
-0.000113399
3.06522e-05
-5.19221e-05
-6.68165e-05
6.16573e-05
2.36279e-05
-1.84686e-05
7.85879e-06
-3.44497e-05
4.43887e-05
-1.77978e-05
0.000179151
-0.000143819
-6.50614e-06
0.00102617
-0.000893041
0.000201123
-0.000334253
-0.000312818
-0.000224706
0.00026784
0.000129654
0.000123333
-0.000116486
-0.000136501
1.43201e-05
5.84747e-06
-1.92621e-05
-0.000210031
0.000185631
-4.43188e-05
0.000149306
-1.23613e-05
3.22366e-05
8.25973e-05
-8.05788e-05
-3.07169e-05
2.86984e-05
1.86499e-05
-6.90704e-05
6.21281e-05
-1.17076e-05
2.04375e-06
-6.33928e-06
0.000229059
-0.000422838
0.000496642
0.00112926
-1.73991e-05
3.01551e-05
-2.87349e-06
9.80265e-06
-0.000182218
0.000175289
-5.99459e-05
0.000211804
-7.13924e-05
0.000126983
-0.000106901
-1.80807e-06
5.76149e-06
-1.47028e-05
-0.000838211
0.000364254
-4.60214e-05
-0.000956028
-0.000566957
0.000195589
7.52004e-05
-1.00993e-05
-8.91504e-05
-1.70009e-06
3.53596e-05
-2.42131e-05
-1.52285e-05
-2.3002e-05
2.50539e-05
4.36261e-06
-2.45428e-05
2.88182e-05
-9.83528e-06
1.92086e-05
0.000134683
-0.000144056
-0.000812205
-9.20842e-05
0.000224635
0.000391606
-0.000370326
-0.00016657
0.00014529
-0.000124944
-0.000916822
5.43427e-05
0.000987424
-6.63111e-05
-0.00100294
0.0010311
3.81605e-05
6.45555e-05
-7.97678e-05
-4.89646e-05
-0.000282917
-0.000315344
0.000335706
2.69362e-05
-1.49924e-05
-2.50738e-05
1.31299e-05
-0.00015205
-3.95338e-05
0.000159204
3.23801e-05
-0.000805168
-0.000285048
-0.000176897
-4.37368e-05
-2.0915e-05
0.000241549
8.13286e-05
-8.23003e-06
-8.18719e-05
8.77333e-06
0.000235267
-7.63783e-05
2.07288e-05
-3.50921e-05
-2.49533e-05
5.66529e-05
1.84527e-05
-5.67767e-05
0.00010298
-9.05242e-05
-2.62635e-05
1.38081e-05
8.98322e-06
-4.41897e-06
1.04075e-05
-1.49717e-05
4.27184e-05
0.000646867
-2.86097e-05
-0.000660976
9.12551e-05
0.000679994
-5.42094e-05
-0.00071704
3.076e-05
5.91973e-05
1.30223e-05
3.02885e-05
-0.0010864
0.00108653
-3.04172e-05
0.000257694
-0.00145117
2.96962e-05
0.00116378
-0.0001697
-0.000104036
8.87112e-05
0.000185025
5.13673e-05
3.56962e-05
-4.49692e-05
-4.20943e-05
0.00033843
-0.000310882
0.000206065
0.000741761
-0.000604396
-0.000751343
2.92923e-06
1.71774e-05
6.45619e-06
-2.65629e-05
5.89322e-05
-4.56463e-05
-6.46888e-05
5.14029e-05
-6.60168e-05
2.22135e-05
0.000135441
-9.16379e-05
-0.000735585
0.000234322
0.000478912
2.23514e-05
3.06529e-05
2.34757e-07
-4.90279e-06
-2.59849e-05
-0.00016016
3.6772e-08
-1.79337e-05
0.000178057
0.000207539
2.13655e-05
8.1194e-06
-0.000237024
-4.84066e-06
7.64834e-05
-7.16427e-05
0.000305076
-0.00121028
-8.43417e-06
1.00209e-05
1.21626e-06
-2.80297e-06
-5.85468e-06
-5.03604e-05
-7.64402e-06
5.16118e-05
-8.61209e-05
-4.94556e-05
8.39647e-05
0.00103984
-0.00146394
0.000184002
0.000240105
0.00047296
8.88207e-06
1.26363e-05
-0.000494479
-6.11825e-06
-3.11155e-06
6.01272e-05
8.8092e-05
8.74063e-05
-0.000954145
0.000778646
1.92359e-05
5.47958e-05
-8.11103e-05
7.07857e-06
-4.46666e-06
0.000170845
-0.000218031
5.16534e-05
-1.85133e-06
-1.78012e-05
2.49285e-05
-5.27593e-06
0.00097621
-0.000651798
8.01356e-06
-0.00017209
0.000166458
2.06054e-05
8.71222e-05
-8.17126e-05
0.00084467
-0.000578784
4.94414e-05
-0.000315328
0.000107632
0.000392148
-5.94081e-05
5.05138e-05
-4.67232e-05
-2.43589e-05
0.000206507
1.05472e-05
-0.000192696
0.000579823
-0.000130839
-0.000429521
-1.94633e-05
3.70028e-06
-5.83656e-06
-1.06642e-05
1.28005e-05
-4.93009e-06
-0.000211708
0.000139332
0.000185245
6.50557e-05
-0.000102362
-9.44245e-05
0.000131731
3.43076e-07
5.43449e-05
1.36481e-06
-1.61124e-06
0.000207786
1.33848e-05
-1.04834e-05
-0.000163062
-7.43497e-06
2.59884e-06
3.5489e-05
0.000213373
-0.000232832
8.37197e-05
-6.42605e-05
0.00115081
-0.00112695
-0.000299996
-7.59752e-06
-0.000624406
0.000190967
0.000540083
4.95576e-05
-5.26932e-05
-8.36437e-06
0.000551151
-6.70312e-05
0.00049209
-0.00015244
-6.06749e-05
0.000120557
-1.40072e-05
3.977e-05
7.28144e-05
-9.85772e-05
3.42238e-05
-6.82769e-06
-4.41957e-05
1.67996e-05
-9.00407e-05
6.56818e-05
2.73347e-05
-7.86466e-05
7.09109e-05
-1.95991e-05
0.000725656
9.95998e-05
-4.52273e-05
0.000172621
0.000166397
-0.000271679
0.000235666
-0.000465935
0.000470853
-0.000356332
0.000240799
-0.00113803
0.00114011
9.59868e-05
-9.80687e-05
0.000217273
0.000581758
-0.000305341
-0.000402311
-2.53118e-06
-0.000169417
-0.000218501
-0.000289405
0.000500711
-0.000750391
-0.000156263
0.000405944
-0.000815978
0.000371007
-0.000113775
0.000558746
-3.86465e-05
0.000116851
-0.000349137
0.000270933
-2.31115e-05
-5.47308e-05
-0.00106177
0.00113961
8.49148e-05
-0.000379029
0.000770875
0.000179403
-0.000821821
-0.000128456
-4.37328e-06
3.21394e-06
2.82904e-05
0.000734546
-0.000680035
7.48811e-05
0.000643519
-0.000699298
0.000166049
0.0005523
-0.000513685
7.27478e-05
4.25047e-06
8.08966e-05
-3.81847e-06
0.000122878
3.97928e-05
-9.76147e-05
5.578e-05
-8.43065e-05
7.2328e-05
-4.38016e-05
0.000643299
-0.000543434
-6.41657e-05
-3.56989e-05
0.0006835
-0.000580904
-2.151e-05
-8.10859e-05
0.000103142
0.00154514
-0.00121249
-0.000435793
5.5744e-06
-2.2152e-06
-1.39672e-05
1.0608e-05
-0.000992995
-0.000637364
0.00105491
0.000575445
-1.05764e-05
1.04605e-05
-1.31737e-05
1.32896e-05
2.13476e-05
-3.08312e-05
-2.4805e-05
3.42886e-05
2.06542e-05
-5.32141e-05
-6.35941e-05
9.61541e-05
0.000117579
-4.4376e-05
0.000652454
0.000590041
-0.000833734
0.000344979
0.000597139
-0.00082426
0.000350559
2.10128e-05
8.55136e-05
-6.78412e-06
1.32248e-05
3.75208e-05
-4.39615e-05
0.000609269
-7.03269e-05
0.000145288
-3.39189e-06
1.85674e-05
-7.79498e-06
-0.000120584
-0.000169286
4.42457e-05
0.000245625
0.000178015
0.000800315
-0.00064193
-0.000301226
-0.000348445
0.000370963
0.000674016
-0.000636493
-0.000163219
0.000125696
-5.31398e-05
7.88145e-06
4.25844e-05
0.000115732
-1.39992e-05
6.15085e-05
0.000123462
-3.31966e-05
4.71555e-05
-3.77352e-05
9.45054e-05
0.000531215
-0.000640854
0.000109639
-0.000403425
0.000288722
-0.00127341
0.00138812
-0.000185854
0.000157896
0.000283529
-0.000255572
8.27753e-05
3.34463e-05
-5.80885e-05
-5.81331e-05
-0.000441714
-3.07646e-05
0.000605427
-0.000132948
0.00022287
-0.000187305
-0.000390166
-7.40851e-06
-1.71396e-06
9.49753e-08
0.000100275
-8.17877e-05
6.42876e-05
-7.38194e-05
7.75249e-05
5.52267e-05
-4.65487e-05
1.47708e-05
7.06917e-05
-3.89139e-05
0.000201233
-0.000210709
0.000120573
-0.000111097
4.73035e-05
2.33211e-05
9.11863e-05
-5.31754e-05
4.49983e-07
5.44828e-05
-2.21307e-05
4.65902e-05
-6.82081e-05
4.37486e-05
1.34648e-05
-1.88081e-07
8.43884e-08
-1.33611e-05
4.06601e-05
-7.21376e-06
-0.000131498
5.5876e-05
-9.40781e-05
4.84006e-05
-3.91103e-05
4.2077e-05
-1.05916e-05
8.01722e-05
1.30167e-05
-0.000654056
-0.000385829
0.000790803
0.000249081
0.000822427
-0.00104089
0.000356449
-0.000137985
9.56869e-06
2.82907e-05
-3.22091e-05
-5.65029e-06
-5.65325e-06
0.000291825
-0.0003432
5.7028e-05
-8.69254e-05
6.01782e-05
1.7459e-05
9.28815e-06
-0.00132974
0.00116814
-0.000248376
0.000409968
0.000381512
-0.000325925
-0.000130696
7.51088e-05
1.19985e-05
0.000692212
-0.000690108
-1.41022e-05
-0.000349176
1.99778e-05
0.000136928
-0.000556321
0.000535491
-0.000116098
0.000165857
-0.000650644
0.000653333
-0.000168546
-0.000102688
-0.000754693
0.00085738
-1.0646e-05
4.70874e-06
-1.37477e-05
1.9685e-05
2.14027e-06
-3.72659e-06
-4.08531e-07
1.99485e-06
0.000162626
-0.000109573
0.000126516
-0.000179569
-9.33584e-05
-0.000201412
0.000228754
-5.77818e-06
6.39389e-06
-9.04988e-06
-0.00014684
-6.02174e-06
0.000100699
5.21628e-05
-0.000125928
-7.16914e-07
9.61259e-05
3.05191e-05
-2.61731e-05
2.46631e-07
0.000358072
-0.000332146
0.00106102
-0.00108148
-6.57045e-05
8.61685e-05
-0.000186501
1.81226e-05
0.000116553
8.14567e-06
-0.000124698
-3.45129e-06
0.00018645
-1.28083e-05
-0.00017019
9.35785e-06
-6.07769e-05
-6.2732e-06
5.76922e-05
-1.79122e-05
2.28627e-05
-8.55294e-05
3.28871e-05
-3.57163e-05
0.000152136
-7.41288e-06
4.91197e-05
-0.000251738
-7.00132e-06
-1.17712e-06
2.24986e-05
0.000653562
5.01764e-05
-6.95899e-05
0.000601377
3.17152e-05
-4.48731e-05
-0.000550124
2.34512e-05
-3.1815e-05
-0.000545396
-3.80167e-05
-3.41194e-05
-0.000363943
-0.000190407
0.000215258
-0.000982375
-0.000170785
0.000281476
8.69792e-05
-2.14777e-06
-2.76483e-06
-0.000101309
-0.00113487
0.00115595
-5.66567e-05
4.41703e-05
-0.000177571
-9.97404e-05
-1.52916e-05
-0.000101509
0.000678309
-0.0001946
-0.000564459
0.000688534
-0.000181534
-0.000588114
-2.42601e-05
2.95345e-06
0.000184368
-0.000163061
-2.82778e-06
0.000674408
2.43584e-06
-0.000109089
0.00013598
-2.24624e-06
-2.46449e-05
5.21934e-05
-5.97524e-05
3.63499e-05
-2.8791e-05
3.52832e-05
-2.66757e-05
9.1378e-06
-1.15628e-05
1.61974e-06
6.17515e-05
-1.93705e-05
-7.03314e-05
1.38157e-05
7.58862e-05
0.000255442
-1.95641e-05
3.32775e-05
-0.000269155
-0.000330871
-7.88172e-05
6.05124e-05
-0.000401219
0.000281989
0.000350928
2.12045e-06
-1.49013e-05
1.71435e-05
3.79051e-05
9.62507e-06
2.49843e-06
3.89066e-05
-8.21591e-05
8.19801e-05
-3.87276e-05
-0.0003465
4.29392e-05
0.000320819
-1.72578e-05
0.000304554
0.000362724
-0.000587437
-7.98413e-05
0.000224515
-0.000592441
-0.00028613
0.00046611
0.000334103
-0.00065004
-0.000150173
-8.1173e-05
6.83157e-05
6.14536e-06
6.71194e-06
0.000113888
0.000163443
-0.00101292
3.58986e-05
-1.53203e-05
-2.79867e-05
-2.05757e-05
-1.76372e-05
3.12117e-05
-0.000113806
5.10925e-05
9.56004e-05
0.000899008
-2.32537e-05
-0.000766179
-0.000109575
-1.15864e-05
2.2654e-07
-9.36085e-05
-0.000191265
-3.57534e-06
8.00587e-05
-0.0001038
0.00111101
0.000155152
-7.49741e-05
0.00019603
9.23166e-05
-0.000403395
0.000326025
0.000521685
-0.000444314
0.000272102
-0.00025169
0.00044074
-0.000461152
1.27988e-05
7.59399e-05
-9.81358e-06
-7.89252e-05
1.7711e-05
-1.4981e-05
-1.17496e-05
9.01965e-06
-0.000253049
4.55214e-05
4.74914e-05
0.000160036
-0.00110801
0.00110331
9.21108e-05
-0.000720384
0.00046824
-0.00065329
0.000560629
-0.00038621
-0.000181193
0.000166184
0.000110781
-3.74958e-05
0.000859936
-0.00102773
-0.000262812
0.000430606
-0.000226866
-0.000988149
0.00118956
2.54587e-05
-0.00105099
0.00108022
-0.000130535
-0.000495483
0.000439908
0.000360359
-0.000304784
-0.0002715
0.000280037
1.78274e-05
-2.6364e-05
-0.000129691
-4.0781e-05
2.6159e-05
-0.000638999
0.000743473
-0.000490303
0.000154195
-1.21059e-05
-2.4663e-05
1.29261e-05
1.5907e-05
-4.17006e-06
-0.000173544
0.000165692
-2.20042e-05
8.68392e-06
0.0001003
-0.000917384
0.000881063