/*--------------------------------*- C++ -*----------------------------------*\
| =========                 |                                                 |
| \\      /  F ield         | OpenFOAM: The Open Source CFD Toolbox           |
|  \\    /   O peration     | Version:  v1912                                 |
|   \\  /    A nd           | Website:  www.openfoam.com                      |
|    \\/     M anipulation  |                                                 |
\*---------------------------------------------------------------------------*/
FoamFile
{
    version     2.0;
    format      ascii;
    class       volScalarField;
    location    "0.19";
    object      epsilon;
}
// * * * * * * * * * * * * * * * * * * * * * * * * * * * * * * * * * * * * * //

dimensions      [0 2 -3 0 0 0 0];


internalField   nonuniform List<scalar> 
1466
(
1.47729
1.45773
0.861525
1.96888
1.87751
0.985552
5.8084
1.42199
7.57192
5.29674
0.725587
3.27821
0.129217
1.1805
0.512576
2.15564
0.324769
1.84604
2.11203
1.44596
0.288088
2.89808
4.98653
1.42087
1.07821
0.357692
0.784524
2.72119
4.82892
1.86612
1.39758
0.911774
3.6361
1.29001
1.75477
0.481212
0.470231
0.222909
3.17297
3.40883
3.43187
1.33834
6.60801
1.21754
3.87938
4.89345
0.227752
2.49607
1.14501
0.261659
0.700126
2.58263
2.26245
0.878365
4.10916
1.61947
0.279775
2.19582
0.408003
1.73207
2.37154
1.45894
1.62375
0.856695
1.29981
2.051
1.51389
0.325472
1.64179
3.34802
0.229711
1.56749
0.220115
1.43725
0.336733
8.66135
1.48139
1.52171
4.50172
1.50248
0.25339
1.59854
0.388304
0.941794
0.212554
0.234567
0.210881
1.48249
1.2601
1.92037
1.77113
0.375278
1.44678
1.79239
0.572119
0.260986
1.53552
0.822459
1.93607
1.96676
3.95435
3.06004
0.774807
1.87521
0.275501
7.54011
0.372103
0.34082
1.3684
0.897348
0.263618
0.299395
8.82654
0.217995
0.17014
5.70228
1.64612
1.36124
1.99614
2.49042
0.326653
1.30237
0.650464
1.40628
1.26136
0.880222
0.60969
1.70723
1.58935
3.77288
0.531828
1.55329
1.24535
1.63353
0.288803
1.30655
1.60442
0.215039
3.46265
2.2824
3.45825
0.402411
1.55649
1.01886
3.68175
2.17905
2.08081
1.62306
1.23446
0.215089
1.46505
0.775543
1.81087
1.32288
1.50245
0.504116
1.53184
14.2451
0.337065
1.57366
3.32514
2.15583
1.44569
0.287572
2.68748
1.18951
3.39762
2.36905
1.67217
1.5425
0.234511
0.229055
0.744701
0.91751
0.557614
1.26459
2.3641
1.6614
0.602342
1.52748
1.33507
0.283388
0.673673
1.52663
1.33113
1.23322
0.355953
5.58352
0.439519
1.93463
3.00095
2.87602
2.08163
1.35426
0.256
1.49485
3.23085
0.827715
0.738125
0.830121
6.31172
0.239447
0.303359
1.73748
0.905699
1.55094
0.316331
2.18201
0.537385
0.743141
0.824535
16.7137
0.246677
0.218689
2.002
0.398447
0.546623
0.454792
1.37728
1.42689
20.653
1.30493
1.48599
0.223453
0.759507
0.225777
0.830745
1.55299
0.491018
5.22075
0.218249
1.69707
1.31683
0.298558
0.445863
0.997801
0.297213
1.54316
0.334174
1.06992
6.51406
0.396821
0.354179
1.85022
2.05054
0.569057
0.313072
0.438533
0.535606
0.524424
1.47352
0.91059
1.25428
1.37129
1.22191
0.82515
0.643888
2.59398
4.61312
9.31082
0.21983
0.216953
1.03071
1.46243
1.44541
0.44633
8.34415
2.34266
0.244837
1.47353
1.16646
1.29871
0.219492
0.623873
0.215564
0.491901
1.27501
1.45002
1.64277
1.80487
0.941313
0.577411
0.479004
0.478822
0.344301
0.219255
0.639163
0.330698
11.1338
2.06289
0.224364
8.55659
1.76832
11.2284
1.17271
0.257379
6.13546
4.45992
0.295052
0.924637
0.394668
16.7896
0.819914
1.43476
0.62236
0.735397
0.628045
0.436238
0.477736
4.00289
6.17598
0.448448
0.2396
1.98799
0.890898
0.242836
4.22163
0.350587
3.19124
0.640343
0.234452
1.07025
0.699359
1.94549
1.27541
0.706181
0.284161
0.341349
0.315631
0.444807
0.337951
1.17545
0.268635
1.24738
0.986036
1.85002
0.355994
0.500602
21.0685
0.246779
0.3678
0.625243
0.724535
0.381952
0.523432
0.245605
4.78344
0.368107
0.467393
14.5515
1.5428
0.221465
1.78955
0.43192
0.400601
0.237406
9.809
2.19397
4.43177
0.36669
7.3178
1.29977
0.948442
1.32228
3.16858
0.404628
0.317844
0.269468
0.425343
1.08654
0.231471
0.324838
10.2936
1.61124
1.22887
0.563961
0.75786
8.68424
0.214115
0.437178
0.217004
1.39055
1.9188
0.336828
0.996724
0.810865
0.284761
0.245609
0.260687
0.411504
0.522013
1.74851
0.716428
6.13413
0.669269
0.618824
0.763821
0.256197
0.256868
0.298628
23.4019
0.23458
0.708443
0.223409
3.45017
0.495708
1.35286
4.39536
0.933246
0.589476
0.273656
0.844367
0.416901
3.42253
8.42747
1.4
1.32882
1.32085
0.47479
0.859709
1.4669
0.393193
2.30904
4.7342
2.53063
3.40956
5.12749
3.35582
5.66642
5.4717
2.04507
0.270137
1.84298
11.241
7.22438
8.91842
9.19173
1.36677
2.78097
3.22086
36.8179
0.332823
16.4531
2.72502
2.71473
10.2022
4.56493
5.68275
5.95262
1.65334
5.28422
9.47844
2.12321
1.37252
10.5253
2.85399
6.77564
9.98609
2.25384
2.1251
11.8243
1.86658
1.64598
1.84661
18.1642
19.0843
8.55006
0.331663
2.10386
0.798644
11.035
2.83788
2.2785
2.68162
0.985605
1.7528
1.06844
0.822709
1.19204
1.86613
1.73465
0.4548
1.21906
0.697409
1.07951
1.06817
0.816506
0.520557
1.24102
2.99163
1.20237
0.463177
0.889382
0.315993
2.8719
1.26858
2.13556
12.5082
26.1805
31.8979
0.354482
0.891443
3.11291
0.889723
0.248454
0.712674
3.05427
2.52765
1.47396
2.53479
3.72081
1.63088
2.83154
2.58153
1.8634
2.38384
0.333338
0.86239
1.74113
2.15807
2.04076
7.52047
21.8265
8.30631
8.26842
0.642722
19.8126
22.689
0.502667
0.249521
0.472187
0.893195
2.0727
1.67612
2.61716
16.1638
3.26044
12.1947
0.244659
0.595895
14.3691
9.31826
6.14458
10.9732
2.1419
1.77008
0.483444
6.64011
8.1603
0.419107
0.814294
0.286386
9.45997
1.70584
1.12565
8.37304
4.07267
0.269067
1.30564
4.47634
0.242716
0.611327
1.41301
6.82709
3.23828
1.7799
0.243187
1.04969
1.8794
6.07008
0.401426
4.52131
1.77548
3.82542
0.900675
1.66585
2.12466
0.231697
2.17836
1.9626
0.652713
0.656584
0.939396
0.759632
0.23599
4.25219
3.54564
0.711651
5.63408
1.90526
1.59683
1.95943
3.33213
0.6842
0.414389
0.769154
1.14731
1.47552
6.73906
0.861248
5.53771
0.563242
0.715551
0.522413
0.266488
1.40195
0.954442
0.243415
8.28869
5.47249
1.61201
8.22982
2.35308
5.04423
0.666001
0.233809
7.48597
1.45191
11.2704
0.584124
0.538834
0.257666
3.84223
1.52538
0.576711
1.27868
0.30639
0.893202
0.286402
7.26092
1.04465
5.95799
0.73256
1.94297
0.903928
1.68508
0.795947
8.33472
0.542108
0.632912
0.319659
16.5953
0.312178
3.49311
0.255624
2.7898
0.635699
10.0308
8.00302
0.355663
0.788136
6.18881
1.70726
11.509
0.526856
1.2921
5.63683
0.790124
0.387789
0.662199
2.01738
7.37191
3.61402
2.36571
4.30119
7.81079
1.31395
0.254368
6.66518
1.21117
0.409662
0.973972
0.229891
0.553168
1.43817
1.95559
1.84069
7.05325
0.474936
0.857947
0.671182
0.446119
0.32194
0.5661
0.647319
0.232195
1.90483
0.232764
0.556992
1.76068
1.48765
0.425722
2.74588
0.399007
12.1535
0.521645
1.95913
0.228224
0.775356
1.73178
2.54647
0.525923
1.75995
13.635
1.2907
1.33404
1.78344
7.02053
2.14317
0.602691
0.476421
0.663938
2.91954
0.614935
0.584365
1.69915
1.86319
5.641
0.45469
1.48584
0.766776
1.30561
0.819845
1.63099
8.04319
0.223581
0.834497
1.05671
17.6374
3.32208
2.05939
1.69984
0.665145
0.397518
0.356417
7.88373
0.451917
0.313233
1.06135
5.5141
1.68922
0.536449
0.352875
1.5207
2.42652
0.304824
0.9282
0.579298
14.4929
2.35316
0.572159
2.6948
0.428917
1.22044
1.39293
1.81059
4.14944
4.53333
0.873169
0.639571
1.5588
0.998272
1.08601
0.881337
1.25918
3.01373
6.54486
2.1051
0.574842
0.507202
1.06841
1.99703
2.60858
0.296828
1.48216
0.30343
0.895416
2.11251
0.758004
1.75299
3.66465
15.4841
0.260362
0.816104
1.55663
0.676651
0.656809
0.24429
6.52078
2.33044
1.63606
0.838865
0.648333
1.53337
1.61059
2.13297
5.60245
0.2298
2.27062
1.35193
1.93493
0.845896
0.736521
0.521439
0.804882
0.531552
6.13958
0.25058
0.552083
1.14464
4.51673
0.58423
0.378345
6.75354
1.52253
2.4742
1.6372
0.573811
1.47812
3.53567
3.75374
0.467006
0.836969
1.89261
0.507224
0.585801
1.33697
0.223256
0.241826
0.901404
0.487255
0.80163
0.504325
0.355405
0.600839
1.13249
1.66167
1.34854
0.956859
27.729
0.302533
0.239477
3.53554
3.19942
0.233079
2.12555
1.89299
1.90571
1.19359
2.04634
13.501
1.03225
1.08289
12.024
0.334062
0.307028
1.20492
0.310912
0.863042
1.15286
4.91938
0.243656
10.4091
1.2755
0.787773
0.716239
1.63792
0.437765
0.753827
0.560723
0.556449
0.443393
7.34691
1.11166
0.494176
0.23032
1.43501
1.84028
4.64229
1.11382
1.56137
0.641335
2.07233
0.339685
1.5428
0.53656
1.40056
1.36367
0.99213
1.62817
0.447238
0.235089
0.534466
0.780768
0.710125
6.97478
0.261843
0.331234
2.7135
2.41262
1.35245
0.640888
0.841693
2.56781
0.699859
0.283003
0.245568
0.344653
2.06859
0.574133
1.19613
0.226586
1.6425
0.798013
1.11394
0.633465
3.74137
1.37983
1.64936
0.898001
1.25968
1.24472
3.06707
14.8341
10.0442
1.55813
0.358912
0.318239
0.87338
0.942025
1.31112
1.54451
0.604602
1.4463
0.40275
8.40911
0.261821
1.14283
0.453293
0.850842
0.750716
0.989189
0.793945
2.45314
2.67563
2.37229
2.47691
1.01229
2.59112
2.54427
1.05471
1.02431
0.940854
1.36161
0.828303
0.734661
3.38347
0.549983
2.92253
0.353347
2.4074
8.88659
1.08478
1.44322
1.60934
0.542223
7.60112
1.71046
0.800714
0.408477
1.98667
0.734157
1.61107
0.309881
2.35929
1.98233
0.850743
0.647587
2.26703
1.61778
8.71421
2.50815
4.82863
6.86948
0.32149
0.74063
10.0172
1.87644
0.699433
2.69556
1.32305
2.94765
1.99921
2.16806
4.88385
0.240369
1.90914
4.89058
4.71638
8.38264
2.03529
2.0815
1.68637
0.391003
2.83898
1.37268
1.5489
8.02498
1.31279
2.60923
0.4194
2.03434
1.92624
1.02518
0.233173
3.06113
0.901021
0.452405
0.275028
1.52624
0.265305
1.88001
6.78307
2.77642
1.311
3.43638
4.43346
1.10926
2.24264
1.48519
0.287617
0.52601
8.57502
4.04047
2.26123
1.33218
7.46717
0.411126
0.288202
1.99427
4.65501
0.397262
0.335109
3.84863
0.731759
0.72077
1.66559
0.19546
0.760881
0.927616
0.403858
0.442448
0.231852
7.31665
0.862937
0.983907
9.1776
0.246311
0.307268
23.2811
8.01196
2.03701
0.50681
0.521975
0.595719
1.96992
0.351874
5.3282
2.95004
3.76226
0.24314
4.81932
0.961619
0.913978
5.2088
0.312001
3.41834
1.36276
0.588569
3.37337
5.95893
0.72577
4.02492
5.02292
0.733488
3.90195
6.36697
3.71787
0.551343
0.427499
5.40965
1.48411
0.254052
7.27439
3.59428
1.7673
2.89244
0.685071
2.78393
0.268471
1.69795
4.63211
0.227986
2.44047
0.236126
0.245287
0.408046
3.36715
3.0301
1.96624
0.614708
0.739892
0.224905
1.2872
3.35152
1.91925
2.34547
1.92989
0.501031
3.09603
0.337084
0.568481
0.983959
0.483516
0.400475
0.264723
14.2157
0.241485
4.74769
2.3126
0.225397
14.4095
0.222332
1.03212
0.237559
12.7945
1.77558
1.88781
6.24464
0.241303
1.98728
0.572921
0.400488
0.239491
0.413076
1.19221
0.308146
1.38366
0.694953
0.283371
1.42638
2.3566
0.253866
1.20484
1.03554
2.41885
1.29855
0.23391
19.8495
0.653806
0.603142
1.98834
8.75402
4.70185
0.99552
1.30998
2.61989
2.26392
0.54509
0.222543
1.90927
0.416095
8.2626
0.615837
2.04173
1.07805
1.12428
1.35886
2.44815
2.64512
0.293991
2.37319
1.29745
2.56773
0.87229
0.525935
1.95882
1.46365
2.49128
1.30302
0.810036
0.226519
1.38219
1.84849
0.454753
4.27626
3.75388
1.63256
0.394228
3.4549
0.229507
0.312458
6.71521
0.224483
1.28077
1.3834
0.224908
4.91068
0.249517
7.32383
0.395172
0.272779
0.232594
1.33096
6.79403
0.312877
0.816678
0.899802
1.05398
3.66304
5.28428
1.44973
1.30292
0.233704
0.239882
1.93841
1.92453
4.41875
5.24802
1.62956
0.348966
6.49005
0.285543
1.3769
1.52906
1.86735
0.544097
1.45439
1.82607
0.971959
6.92273
1.44347
7.49081
4.99333
1.56732
4.54913
0.724408
0.91229
0.803132
0.242647
2.3512
5.4538
0.569547
10.7486
1.19057
1.27545
0.252949
17.7112
1.07888
0.402596
3.75042
0.238216
0.317868
1.82329
1.37277
1.0783
0.460018
2.92792
3.27693
1.5127
0.342148
1.97487
12.6645
0.270405
3.92423
6.35486
7.27954
0.317933
0.240536
0.724988
0.470543
2.42175
3.75189
6.15524
1.05231
0.794702
1.2844
0.941375
1.36485
0.823173
3.16605
3.99276
5.39833
1.2057
8.29669
8.50041
0.879009
0.217185
0.794606
2.08521
2.49422
10.8754
0.41314
1.77498
0.280304
1.91552
0.796824
12.0572
0.486199
0.532737
3.44487
1.5831
1.59207
1.99544
0.224529
0.756406
0.762965
13.9555
0.232623
8.53432
0.231296
8.40052
2.06955
0.38559
2.63432
2.21787
0.724206
3.74494
0.301568
16.9136
1.49133
7.82145
0.378083
7.18475
3.80875
0.663723
0.438909
1.09545
0.694491
1.65751
1.34256
2.61844
1.85913
1.04205
0.35756
0.439798
0.249248
0.269382
1.06349
0.836945
0.98472
2.56863
1.50683
1.1003
0.448831
2.58736
2.09364
6.02525
0.233069
0.780178
0.500804
4.43944
1.58082
0.971308
0.224842
1.3547
0.398566
1.58503
6.90027
0.244409
0.249117
8.00253
0.471932
2.52619
0.371825
0.364279
0.885284
1.10776
1.12013
0.767262
0.233022
0.71523
1.5518
0.225206
5.53671
1.62854
1.95085
2.9285
0.235458
2.01904
0.467985
1.26799
0.843346
1.75915
0.224666
0.26565
1.13111
0.926239
1.57508
0.23638
3.6777
2.98687
7.94853
0.45044
4.10679
2.2937
0.281728
4.41233
2.18394
1.12885
1.80666
1.46491
1.36911
0.226924
1.49329
1.59123
0.225471
1.70365
4.14778
4.5149
0.827632
1.1466
1.06688
1.38564
0.567564
1.8455
2.40443
1.42819
0.702497
0.726164
1.49728
1.39199
0.449585
2.48776
1.73694
1.34324
1.39498
2.16061
1.06217
1.47397
1.34209
2.81283
0.990743
1.57128
1.53373
1.08355
0.583706
2.77255
0.531266
0.261576
18.5847
0.3246
2.30562
8.36034
9.04597
1.53507
1.384
8.2058
0.847004
4.03644
1.08066
2.00569
2.79308
5.38659
2.81758
2.91424
)
;

boundaryField
{
    frontAndBack
    {
        type            empty;
    }
    wallOuter
    {
        lowReCorrection 0;
        type            epsilonWallFunction;
        value           nonuniform List<scalar> 
102
(
0.129217
0.129217
4.98653
0.336733
0.17014
0.477736
0.669269
0.32194
0.397518
0.356417
0.451917
0.313233
0.536449
0.352875
1.5207
2.42652
0.9282
2.6948
1.5588
2.1051
0.296828
0.260362
0.816104
1.35193
1.93493
0.507224
0.585801
0.334062
1.15286
0.798013
0.633465
0.850842
0.750716
0.989189
0.793945
2.45314
2.67563
2.37229
2.47691
1.01229
2.59112
2.54427
1.05471
1.02431
0.940854
0.828303
0.734661
0.353347
2.4074
1.98667
1.61107
1.98233
2.26703
1.99921
2.16806
1.90914
2.03529
2.0815
2.03434
1.92624
4.04047
0.411126
0.397262
0.19546
0.862937
0.521975
4.81932
0.72577
4.02492
1.7673
1.69795
4.63211
0.408046
3.36715
1.96624
1.91925
0.337084
0.400475
4.74769
1.88781
1.98728
0.308146
1.03554
1.29855
4.70185
1.90927
2.04173
0.87229
1.84849
1.92453
3.27693
1.5127
0.217185
0.41314
0.486199
1.99544
0.663723
1.85913
0.439798
0.244409
0.371825
0.885284
)
;
    }
    inlet
    {
        type            fixedValue;
        value           nonuniform 0();
    }
    outlet
    {
        type            zeroGradient;
    }
    wallInner
    {
        lowReCorrection 0;
        type            epsilonWallFunction;
        value           nonuniform List<scalar> 
138
(
0.725587
0.324769
4.82892
1.86612
2.58263
2.26245
0.878365
4.10916
1.45894
0.375278
3.95435
1.87521
0.650464
3.45825
0.402411
2.17905
2.08081
2.36905
1.93463
3.00095
2.87602
0.454792
0.354179
0.569057
0.313072
0.438533
0.535606
0.524424
1.44541
0.577411
0.479004
0.330698
1.94549
1.27541
0.706181
0.284161
0.341349
0.315631
0.444807
0.337951
1.17545
0.268635
1.24738
0.986036
1.85002
0.355994
0.500602
21.0685
0.246779
0.3678
0.625243
0.724535
0.381952
0.523432
0.245605
4.78344
0.368107
2.19397
1.32228
3.16858
0.404628
0.317844
0.269468
0.425343
1.08654
0.231471
0.324838
10.2936
1.61124
1.22887
0.563961
0.75786
0.437178
0.298628
23.4019
0.416901
3.42253
0.393193
7.22438
36.8179
2.25384
19.0843
0.798644
1.06844
0.822709
2.8719
26.1805
31.8979
3.11291
8.30631
8.26842
0.502667
0.483444
2.12466
1.59683
1.95943
3.84223
1.94297
2.36571
1.43817
1.95559
0.556992
0.663938
1.06135
1.68922
2.60858
2.33044
0.531552
0.58423
0.573811
0.355405
27.729
0.302533
0.310912
0.443393
0.283003
0.40275
0.549983
0.542223
2.60923
6.78307
2.77642
2.26123
3.37337
3.59428
0.568481
0.283371
2.3566
2.61989
0.293991
3.66304
4.41233
4.03644
1.08066
2.79308
5.38659
2.81758
2.91424
)
;
    }
    procBoundary2to0
    {
        type            processor;
        value           nonuniform List<scalar> 
42
(
3.67771
3.67771
1.83597
1.59687
6.02666
3.27409
1.944
1.944
1.65382
1.13113
13.1201
13.1201
17.6397
10.3468
9.45905
3.19823
6.55982
0.996418
1.14107
0.868934
1.07588
0.794319
0.794319
1.4304
1.07588
0.368784
2.24933
0.338085
2.24933
3.59059
4.83573
0.423097
0.546405
0.616362
0.699169
1.59687
6.55982
2.15168
3.00535
1.82176
1.82176
1.10975
)
;
    }
    procBoundary2to1
    {
        type            processor;
        value           uniform 0.78015;
    }
    procBoundary2to3
    {
        type            processor;
        value           nonuniform List<scalar> 
29
(
1.44916
1.66721
5.70964
4.60546
0.809607
1.67631
3.45166
1.25465
4.31319
3.66308
1.42113
0.828946
1.87824
5.46803
2.75534
12.0249
9.34277
9.34277
1.66721
5.46803
2.84272
7.05797
4.77766
5.26229
2.79215
5.81239
4.31319
1.15835
0.828946
)
;
    }
}


// ************************************************************************* //
