/*--------------------------------*- C++ -*----------------------------------*\
| =========                 |                                                 |
| \\      /  F ield         | OpenFOAM: The Open Source CFD Toolbox           |
|  \\    /   O peration     | Version:  v1912                                 |
|   \\  /    A nd           | Website:  www.openfoam.com                      |
|    \\/     M anipulation  |                                                 |
\*---------------------------------------------------------------------------*/
FoamFile
{
    version     2.0;
    format      ascii;
    class       surfaceScalarField;
    location    "0.58";
    object      phi;
}
// * * * * * * * * * * * * * * * * * * * * * * * * * * * * * * * * * * * * * //

dimensions      [0 3 -1 0 0 0 0];
oriented        oriented;


internalField   nonuniform List<scalar> 
2708
(
-9.36668e-06
1.80846e-05
4.11457e-06
-1.28325e-05
-3.7428e-05
6.46304e-05
-6.23312e-05
3.51288e-05
0.00125453
0.000241514
-0.000932731
-0.000563314
-0.000326655
0.000183963
6.79495e-05
7.47428e-05
-1.72719e-05
1.03571e-05
6.46377e-05
-5.77228e-05
0.000259077
0.000171159
-0.00014008
-0.000290157
0.000144074
0.000127405
0.000608208
-0.000822677
0.00100321
-0.000788736
0.000156427
0.000506429
-0.000582657
-8.01994e-05
0.000193591
0.000411219
-0.000463758
-0.000141052
0.000146847
8.74844e-05
-3.78959e-05
-0.000196435
-9.72037e-05
0.000113135
-1.59314e-05
0.000141209
-0.000102219
0.000131636
-0.000170627
0.000835798
-0.000853514
4.79493e-05
-3.02333e-05
0.000150214
-0.000145032
6.9412e-05
-7.4594e-05
1.3474e-05
-0.000335533
0.000322059
-0.000228587
0.000212175
0.000166627
-2.57048e-05
7.99972e-05
-8.51725e-05
3.08801e-05
1.40481e-05
-3.12242e-05
1.71761e-05
0.000100028
6.71466e-05
-2.03277e-05
1.50096e-05
3.4885e-05
-8.91004e-06
-4.09846e-05
-7.95001e-05
-0.000283695
-9.82461e-05
4.55308e-05
0.000115087
-6.23721e-05
0.000802578
6.55719e-05
-3.23525e-05
0.000373061
7.88886e-05
-0.000404375
-4.7574e-05
6.23609e-05
-8.86869e-06
4.65358e-05
-0.000415422
0.000348741
-0.000151233
0.000217914
4.04732e-05
-2.27047e-05
-0.000871282
-0.00103819
8.29685e-05
0.000958562
-3.34061e-06
-0.000157509
-2.06483e-05
0.00010599
7.21665e-05
-0.000420186
0.00093584
-0.000534935
1.9281e-05
0.000920987
0.000445916
-0.000609142
-0.000757762
0.000209271
0.000195274
-0.000404544
0.000186811
-0.000245733
5.89227e-05
0.0002112
-0.000262827
5.1627e-05
-0.000901853
0.00089154
0.000690443
-0.000680129
2.43846e-05
-2.87138e-06
-3.25168e-05
1.10035e-05
-0.00118748
0.00114425
-5.12747e-05
9.45041e-05
6.41754e-05
-5.67029e-05
-5.90206e-05
-0.00140198
-3.4416e-05
0.000248917
-0.000324519
-0.000237603
3.68561e-05
0.000525266
-0.000120773
-2.85802e-05
0.000149353
-7.73574e-05
0.000110609
-0.000240139
0.000206887
-8.19411e-05
0.00012336
-0.00023106
0.000189642
0.000138153
-4.71097e-05
-0.000221095
0.000130051
-5.92998e-05
-1.87385e-05
3.95599e-05
3.84784e-05
5.4898e-05
0.000715041
-0.000398767
-0.000371172
-1.59764e-05
2.5246e-05
-0.000944762
0.000935493
-0.000650636
0.00115446
-0.000870529
0.000366705
2.99751e-05
-0.00108368
0.00111006
-5.63513e-05
0.000153238
-9.12939e-05
-0.000159717
9.7773e-05
-0.000515085
0.000346527
0.00036215
-0.000697279
0.000451279
0.000402427
-0.000123511
0.000120045
-0.000109269
0.000112734
-8.823e-05
8.75126e-05
-0.000102833
0.00010355
-0.000959758
0.000121276
0.000941728
-0.000103246
-4.20696e-05
-0.000103715
0.000406491
-0.000260706
-2.65245e-05
-0.000114366
0.000483641
-0.00034275
-0.00056492
0.000522559
2.0947e-05
7.55541e-07
-6.69288e-06
0.000346591
-0.000288907
-2.78517e-06
0.000229213
0.000146033
-0.000248771
-0.000126476
0.000473926
-0.000776189
-0.00059959
-0.000426933
0.000472278
0.0010127
-0.00105805
0.000844881
-0.000171569
-4.60279e-05
-0.000627285
-9.04193e-05
0.000101942
-3.26781e-05
2.11558e-05
0.000227654
-3.23753e-05
-6.40167e-05
0.000149631
-9.69971e-05
1.13832e-05
-0.000625023
0.00103064
-0.00073475
0.000329132
0.000109453
0.000129259
0.000162873
6.42668e-05
-0.000129645
-9.74952e-05
-0.000192985
5.00765e-05
-5.07041e-05
0.000193613
6.4035e-05
0.000145236
-3.02772e-05
-4.71682e-05
6.90131e-05
8.43233e-06
2.29957e-05
0.000649597
-0.00043108
0.000968613
6.0594e-05
-0.00101647
-1.27358e-05
0.000136717
-0.000263775
-6.80508e-05
0.000195109
-0.000954297
0.000926787
-0.000399424
1.1992e-05
0.000158807
-1.46184e-05
-0.000156181
0.000167418
-7.56053e-05
-2.27566e-05
-6.90558e-05
4.24523e-05
-0.000146906
0.000190227
-8.57735e-05
-0.000281514
-6.04301e-05
0.000200811
0.000141132
-6.0201e-05
6.02527e-05
-1.94772e-05
1.94255e-05
-4.47955e-05
7.38491e-06
5.2862e-05
-1.54514e-05
-0.000138727
-7.75221e-05
0.000160258
5.59912e-05
0.000758315
8.46705e-05
-4.04069e-05
-3.16904e-05
8.2017e-05
-0.000130574
8.02471e-05
3.37424e-05
8.2523e-05
-9.03579e-05
-2.59075e-05
-0.000232744
0.000195809
-0.000101792
-3.51833e-05
-3.5224e-07
-9.25997e-06
0.00113177
-1.62407e-05
2.87216e-05
2.84346e-05
-4.86711e-05
-0.00017716
0.000197396
5.02079e-05
-5.57537e-05
2.64928e-05
2.72945e-05
-0.000194846
-2.54336e-05
-7.19503e-05
-0.00100371
0.00103208
4.35796e-05
3.03094e-05
1.19163e-05
-2.22737e-05
-1.99521e-05
-0.000793465
-0.000277356
4.7753e-05
-8.14788e-05
-3.02909e-05
3.24854e-05
-0.00108853
0.00108877
-3.2721e-05
-0.000117354
8.70823e-05
6.15475e-05
-3.12758e-05
7.73376e-05
-1.55309e-05
2.04323e-05
-8.2239e-05
0.000238043
2.51109e-05
3.21757e-06
-0.000266372
1.14788e-05
3.46488e-05
4.20298e-05
-8.81574e-05
0.00104102
-0.00146548
0.000183024
0.000241436
0.000434157
6.68567e-06
1.35843e-05
-0.000454427
8.58152e-05
8.27236e-05
-0.000906592
-2.527e-05
-4.29349e-05
6.54488e-05
2.75609e-06
-1.0267e-05
0.00016863
-0.000211494
5.3131e-05
-6.56496e-05
-7.03612e-06
-1.77336e-05
0.000843813
-0.000576831
5.50102e-05
-0.000321992
-0.000128707
0.000183512
0.000174409
-1.16884e-05
1.17594e-06
0.000248556
7.8181e-06
-6.79392e-06
7.63134e-05
-6.74252e-05
-1.65151e-05
5.82356e-05
4.24984e-05
-2.71325e-05
-4.79508e-05
3.25849e-05
0.000699901
0.000104987
-4.65732e-05
0.000168433
0.000164993
-0.00114105
0.00114387
9.844e-05
-0.000101254
-0.00025812
-0.000465683
-0.000250529
-0.000306626
0.000745023
0.000183611
-0.00080085
-0.000127785
-0.000993814
-0.00063751
0.00105547
0.000575856
3.42667e-06
4.75891e-05
6.32927e-05
-0.000114309
0.000121348
-4.46762e-05
0.000623229
-0.000130641
9.25939e-05
8.81238e-05
9.1824e-06
-2.21017e-05
2.87344e-05
-1.58151e-05
0.000822753
-0.0010414
0.000356741
-0.000138091
-3.38853e-05
8.00652e-06
2.339e-05
2.48879e-06
-0.000316721
1.86803e-05
-0.000101865
-0.00075752
0.000859386
-0.000157639
-8.72605e-05
0.000127545
-2.37421e-05
1.5532e-05
-2.69732e-05
-5.63801e-05
5.79173e-05
-0.000234281
0.000179602
8.96026e-05
-0.000106331
6.54313e-05
-4.56075e-05
-5.7746e-05
3.79222e-05
5.94362e-06
1.42599e-05
-7.77281e-05
5.75246e-05
-0.000302075
-6.9348e-05
5.47022e-05
-0.000564316
1.49007e-05
0.000514833
3.4582e-05
-1.31913e-06
-4.29407e-05
2.05177e-05
0.000899742
-2.30639e-05
-0.000766675
-0.000110004
-0.000101903
0.0010997
0.000156661
-0.00109305
9.10787e-05
0.000860354
-0.00102826
-0.000263017
0.000430919
-0.000223175
-0.000989569
0.00119096
2.1786e-05
0.000141616
-9.53367e-06
-9.87539e-05
8.29045e-05
0.000195451
-0.000916396
0.000876473
-0.000278147
0.00031807
0.00127115
7.64986e-05
-0.000315825
-0.00103183
-5.11933e-05
0.000902499
-6.4245e-06
-0.000115541
0.000148454
-2.41598e-05
-8.75295e-06
-1.03055e-05
0.000177723
0.000150677
-4.64321e-06
-0.00015771
5.43632e-05
-0.000930673
-0.000378304
0.000354681
-0.000154631
-0.000183776
0.000180769
0.000907073
0.000124459
-0.00018772
-0.000198251
0.000901011
-0.000885628
0.000182868
0.000102527
-8.08363e-05
5.83066e-05
-0.000201989
0.000170381
1.47271e-06
6.72977e-05
1.83118e-05
-5.34503e-05
0.000153473
-0.000111711
1.92314e-05
-5.33423e-05
-7.21736e-05
-2.59027e-05
8.78093e-05
4.68566e-05
-2.19188e-05
2.31983e-05
-0.000108977
0.000104706
-0.000115639
7.60129e-05
-4.76349e-05
-0.000934436
0.000191444
0.000864341
3.57222e-06
0.000278063
-0.000268161
0.000365108
-0.000569329
-0.00053425
0.000738471
1.45876e-05
0.000237809
-0.000877419
-3.34563e-05
0.000919192
1.4007e-05
-5.82514e-06
-3.29157e-05
3.87408e-05
7.2376e-05
-0.000128756
0.00108585
-0.00126248
-0.000152268
0.000328897
0.000171649
-8.09839e-05
-0.000111313
-0.000815205
-0.000363549
0.000852733
0.00032602
-8.49653e-05
0.00104714
-0.000950067
-1.2112e-05
-2.05648e-05
0.000140951
-3.0485e-05
-8.99012e-05
0.000138411
-0.000974591
0.000938443
-0.000102263
0.000105852
-0.000149733
-8.48262e-05
-0.000333796
0.000247743
0.000946407
-0.000920071
0.000906276
-0.000184456
0.000631143
-0.000599766
4.94678e-06
0.000559162
-0.000506191
-3.44154e-06
3.4112e-05
-0.00033313
-0.000909584
0.000312041
8.18297e-05
-0.00016465
0.000173644
-9.08243e-05
-0.00035308
0.000367021
-9.99492e-05
8.60078e-05
-5.11458e-05
0.00101828
-0.000893492
-0.000158243
0.000346633
-3.91477e-05
-3.74078e-08
-0.000307448
-0.000160739
0.000168989
0.00113562
9.53976e-06
2.17541e-05
0.00100972
0.000132759
0.000918488
-0.000986996
-6.4251e-05
-0.000161169
-8.76025e-05
-7.82641e-05
-1.13384e-05
-0.000208175
0.000278846
-7.06707e-05
-0.000206068
-0.000917923
0.000207595
-0.000296161
-6.54005e-05
3.70425e-05
-0.000199029
-0.000248168
-2.05776e-05
7.23323e-06
4.03777e-05
0.00102386
-8.64905e-05
-0.000977749
7.27992e-05
0.00022159
-0.000208797
-8.55917e-05
-7.44598e-05
0.00105844
-0.000651276
-0.00026528
0.000677956
-1.00847e-05
-0.000891046
0.000135747
0.00079638
-0.000187104
0.000977885
0.00014877
-0.000159186
-0.000967469
0.000136028
-0.000107767
-0.000131975
0.000104262
-0.00011956
-9.90691e-05
0.000215559
0.000895017
-0.000203504
0.000209929
0.000145541
-0.000273641
-6.52234e-05
0.000111803
2.73982e-05
-7.39778e-05
0.000369006
-9.17893e-05
0.000584087
-0.000861303
0.000353078
-9.82469e-05
0.000514896
0.00122854
-0.000570386
-0.000362345
0.000810697
-0.000884164
-1.83224e-05
-0.00102025
-0.000834095
0.000591869
0.00082295
-0.000893271
-8.67578e-05
-0.00100791
5.73545e-05
0.00099851
0.000840622
-5.85128e-05
1.02352e-05
4.79253e-05
-0.000172077
0.000189704
0.000178183
0.00101345
0.000200218
-0.000537373
0.00097035
-0.00125565
-0.000420906
-0.000922631
0.000806164
-0.000615958
0.000873008
-7.91224e-05
-0.000992925
8.24777e-05
-3.52889e-05
-1.39416e-05
3.98638e-05
-0.000938053
0.000664595
-5.96718e-05
-7.58744e-05
8.30631e-05
-8.22639e-06
1.03777e-06
-0.00111026
-3.53161e-05
0.00107111
-0.000196616
0.000179704
-0.000471709
-6.78655e-05
0.000106542
0.000433033
-0.00053205
0.000652896
-0.000157661
1.13651e-05
-1.1414e-05
-0.000139523
4.20115e-05
-6.01494e-05
0.000757274
0.000282266
0.000290485
-0.000993813
0.000164363
-0.00097458
-9.69715e-05
0.00117329
-0.00010174
0.000105379
-7.06591e-05
0.000185054
-0.000144083
0.000784371
0.000499902
-0.00115151
0.000206024
-0.000267172
-0.000964953
0.00098854
-2.35872e-05
0.000158884
-0.000204155
4.52707e-05
-3.14021e-05
4.91822e-05
-9.36545e-05
-0.00104985
-2.46387e-05
0.00107449
-0.00100617
0.00101761
-1.14488e-05
-0.000934978
-5.17642e-05
-0.000738212
0.000128733
4.51625e-05
0.000248081
-0.000874124
-0.00102219
5.47483e-05
-0.000995758
0.0010942
0.000909672
-0.000223519
-0.000934969
-0.000130539
0.000941826
0.000123681
-0.000414702
-6.08859e-05
0.000601735
-0.000126147
0.000998679
3.54528e-05
0.000448117
-0.000980762
6.41507e-05
-5.7968e-05
9.62564e-05
-0.00101966
-3.42979e-05
-0.00090068
0.00103639
-0.000665809
-0.000108945
7.91657e-05
9.1327e-05
3.06488e-05
-0.000131806
3.95391e-06
3.41532e-05
-4.51395e-05
3.66412e-05
-2.56548e-05
-0.000614104
-0.000100183
-5.27365e-05
-0.00078804
-1.85848e-05
1.53843e-05
8.62636e-05
8.88724e-06
-7.87897e-06
-6.62317e-05
-0.000123838
0.000142438
-0.00097256
-0.000418793
-0.000836503
0.000528098
0.000727198
-0.00100611
-0.00105221
-9.22895e-05
5.48552e-05
0.00108964
0.00055177
3.22379e-05
0.00115987
-1.37959e-05
-0.00117831
-0.000690886
-0.000543112
0.000139925
-2.48674e-05
8.99606e-05
-0.000205018
0.000974106
-0.00103499
-0.000395154
0.00021715
0.00121299
2.40844e-05
-4.01885e-05
-3.50418e-05
0.000207283
-0.0010617
0.000992822
3.85351e-06
5.82308e-05
-9.34864e-05
-0.000245479
0.000212584
-0.00134749
-2.45265e-05
0.000149849
-8.9498e-05
-7.06562e-05
0.000306278
0.00102741
-6.61891e-05
-0.0012675
0.000141309
2.8389e-05
4.7186e-05
-7.17215e-05
0.00037877
-0.000261356
-1.76255e-05
5.25165e-05
-5.09283e-05
1.40845e-05
0.000864609
-2.5858e-05
-4.24807e-05
7.62781e-05
-7.93945e-06
-2.46349e-05
1.40558e-05
-0.000146143
0.000116726
-5.89814e-05
5.86217e-05
2.87487e-05
-2.33064e-05
-0.000508417
-8.23809e-05
1.78823e-05
-2.75723e-05
9.29561e-06
3.94435e-07
0.000309271
-0.000983821
-5.46789e-06
0.000133027
5.06011e-05
5.48156e-05
1.81892e-05
7.6608e-06
0.000119676
5.82155e-06
-0.000426382
0.000435461
3.80059e-05
-4.50116e-05
-1.15791e-05
-3.60703e-05
0.000139097
7.23184e-05
-0.000175345
-2.51931e-05
0.000128123
0.000405248
0.00092408
-0.00040254
-9.8906e-05
8.21206e-06
-4.11129e-05
0.000131807
0.00108034
3.56825e-05
-2.23015e-05
-3.67003e-05
2.33193e-05
0.000125484
-0.000137637
0.000125887
-0.000113734
-9.04562e-05
0.000108425
-2.58497e-06
4.6623e-05
8.99774e-05
-0.00030125
-3.20379e-05
-0.000290027
0.000254199
-0.000168444
-5.06145e-05
0.000110082
3.24562e-05
9.62931e-05
-5.74997e-05
-0.000202239
-0.000146401
-7.5609e-05
9.05868e-05
0.000131423
0.00117876
-0.000892469
-3.45251e-05
-6.06096e-05
0.000133531
9.254e-05
-0.000251682
-0.000561658
0.0007208
4.88493e-05
-0.000119175
7.0326e-05
0.000105097
-0.000916458
-7.28032e-05
8.38296e-06
4.15613e-05
-4.99442e-05
-4.74532e-05
2.47892e-05
2.2664e-05
0.000125913
-0.000127966
2.05282e-06
0.000147309
-8.97462e-05
-5.75627e-05
-0.000107865
1.66156e-05
9.12494e-05
9.40978e-05
-4.20563e-05
-5.20415e-05
0.000184961
-0.000144976
-3.9985e-05
-1.88254e-05
1.57889e-05
3.03649e-06
0.000136824
1.04845e-05
-0.000112518
4.65274e-06
-3.24398e-06
5.20933e-05
-7.43357e-05
0.000102503
-2.81675e-05
1.18081e-05
5.92103e-06
-1.77292e-05
0.000101385
-5.97569e-05
4.09315e-05
0.000213396
-1.42159e-05
1.02108e-05
4.00506e-06
-0.00011075
6.32967e-05
4.95014e-05
-4.11184e-05
-0.000222135
1.79794e-05
6.8101e-05
-5.97565e-05
-8.34445e-06
4.50988e-05
-6.49821e-05
1.38201e-06
1.85014e-05
3.87612e-06
7.42587e-05
-5.13073e-05
-2.74629e-05
4.13423e-05
-4.95004e-05
6.36251e-06
0.000134325
-0.000133341
0.000252932
2.03336e-05
-6.06104e-05
2.59053e-05
0.000146508
4.10622e-05
-5.18704e-05
-1.14933e-05
1.75551e-05
-0.00033047
-0.000637152
-0.000338854
0.000387755
0.00106221
-6.8673e-05
-5.66278e-06
3.95594e-05
2.32644e-05
-6.28238e-05
-4.02448e-05
1.51632e-05
-1.842e-05
8.3441e-06
-8.73879e-06
-5.44802e-05
-5.27635e-06
1.25449e-05
-4.2473e-05
1.05734e-05
0.000105588
-6.40264e-05
-0.000335531
-0.000620539
0.000366493
0.000589578
0.0010393
-0.000267046
0.000142697
-3.96443e-05
2.92398e-05
-6.31446e-05
7.35491e-05
4.28753e-05
6.66959e-05
0.000915393
-0.00092475
9.24601e-05
-8.31033e-05
-1.70413e-05
6.64106e-05
6.75806e-06
-5.61273e-05
6.22313e-06
5.58501e-06
-3.01325e-05
-4.94243e-05
4.28566e-05
5.59049e-05
-0.000212873
-8.81545e-06
-5.87306e-05
1.8046e-05
4.95e-05
0.00109672
-0.000283845
-8.92695e-06
1.36201e-05
1.31892e-05
0.000421559
-0.00107562
0.000960338
4.23091e-05
8.94391e-07
3.55125e-05
9.42581e-06
0.000156892
-0.000370343
0.000728348
-3.32122e-05
-6.57723e-05
8.15055e-05
0.000701951
0.000684317
-0.000494729
8.23002e-05
-7.5647e-05
0.000646254
-0.000347278
-0.000298976
-1.16862e-05
1.79903e-05
5.6162e-05
-6.24661e-05
-0.000715194
-0.000133196
0.000433688
-2.83567e-05
5.45327e-05
4.50458e-05
-7.12218e-05
3.84654e-05
2.38321e-05
-1.33986e-05
-5.68744e-05
4.85079e-05
-0.000156231
0.000164598
5.28784e-05
0.000111347
-8.57814e-05
-7.84437e-05
5.84797e-05
-6.3486e-05
-0.000170005
0.000175011
-0.000160216
-5.84476e-06
0.000109187
-5.8808e-05
5.41367e-05
-7.0148e-06
-9.61856e-05
-5.22189e-06
0.000159887
-4.48116e-05
5.06534e-05
-2.12931e-05
1.54513e-05
7.78825e-05
-1.90132e-05
-5.83701e-05
7.80588e-05
-6.7542e-07
-0.000135415
-0.000232887
3.11913e-05
0.00013821
-2.4325e-05
9.43814e-05
2.58603e-05
-3.49386e-05
-8.53031e-05
7.87133e-05
3.13824e-05
-1.97606e-05
-4.55609e-05
5.54786e-05
9.84296e-06
-0.000136678
0.000183036
2.15025e-06
-0.00011282
-2.74347e-05
9.54429e-05
-0.000134849
-0.000105779
7.06235e-05
0.000108724
0.00029348
-0.000287658
7.91926e-05
-9.7631e-05
0.000129354
-7.75959e-05
-1.85753e-05
-0.000139149
0.000157724
4.49836e-06
3.9468e-05
-1.77504e-05
-2.6216e-05
-1.89066e-05
3.45308e-05
-1.11259e-05
-0.000207615
-4.38473e-05
0.000153874
6.34174e-05
-0.000217291
-3.98053e-05
5.28488e-05
1.28168e-05
-6.43201e-05
-1.04238e-05
1.46056e-05
4.69174e-05
-8.64464e-06
-2.35077e-05
1.69351e-05
-1.2334e-05
5.73519e-05
6.36315e-05
-9.63669e-06
-1.24534e-05
6.11025e-06
-0.000149888
1.03562e-05
-7.86484e-06
5.48606e-05
-4.23353e-05
5.99632e-05
-3.02234e-06
4.94007e-05
-2.82644e-05
2.57812e-05
3.16524e-05
6.59845e-05
2.20244e-05
0.000271015
-0.000275313
0.000248029
-0.00024373
0.000155745
-1.36468e-05
-0.000142098
6.29312e-06
4.57281e-05
-0.000106167
-7.98616e-05
8.77829e-05
7.37108e-05
-1.66532e-05
-2.58126e-05
3.4368e-05
6.51554e-05
-1.77509e-05
-0.000447939
-0.000108227
0.000220635
-4.31196e-07
-0.000155066
4.93299e-05
6.51637e-05
-0.000119333
0.000525887
-0.000271875
8.15391e-05
-7.27684e-05
8.8004e-05
-9.67746e-05
-4.3477e-05
1.82194e-05
0.000868638
-0.000222384
0.000128327
5.60773e-05
-0.000184835
5.30268e-05
6.66695e-05
-0.000819326
0.000724673
0.00070248
-0.000837488
0.000602592
-0.00050585
0.000270279
3.71184e-06
-0.000171028
0.000167316
-0.000168958
8.76344e-05
-6.5615e-05
5.95197e-05
-0.00015173
0.00102037
-0.00110712
-0.00114616
0.0001275
-0.000100119
-0.000166416
-8.94543e-05
0.00013792
8.00296e-05
-4.00903e-05
-7.38008e-05
3.38615e-05
1.8363e-05
-2.95756e-05
0.000106916
-9.57038e-05
0.000132745
2.11286e-05
-6.40306e-06
0.000167632
-1.18867e-05
8.32797e-05
2.19882e-05
-6.02221e-05
-0.000787842
0.00097017
0.000542345
-3.39608e-06
-2.89255e-05
9.06367e-05
2.59232e-05
-0.000447956
0.000105099
0.000342857
0.000178029
-5.86995e-05
5.28927e-05
-0.000172222
9.482e-05
-8.92259e-05
-0.000930344
-3.91e-05
4.32683e-05
0.000173861
-0.000127894
9.45172e-05
0.000538751
0.000165101
-0.000703852
-3.62989e-05
5.92947e-05
2.76576e-05
-3.05119e-05
-5.69161e-05
6.84147e-05
-8.57892e-05
-3.09281e-06
0.000215595
-0.000225962
3.14951e-05
4.0443e-05
9.58636e-05
4.13136e-05
-4.70654e-05
-0.000163824
0.000165831
-1.38932e-05
0.000285274
8.20536e-06
3.45348e-05
0.00025074
1.57706e-06
0.000179247
-7.29668e-05
4.40878e-05
-1.89082e-05
-0.000158563
0.000517231
9.0795e-05
-6.5231e-06
1.96475e-05
2.83405e-05
6.48064e-05
-0.00022735
-0.000183598
4.90199e-06
0.000211727
-0.00020562
-8.28862e-05
8.66325e-05
-2.85197e-06
-1.79351e-05
-3.16873e-05
2.06969e-05
-0.000117934
-1.26342e-05
7.87102e-05
3.57488e-05
-7.06264e-05
-4.38326e-05
0.000144721
-0.000140251
-0.000204122
2.2101e-05
0.000139918
4.23288e-05
-0.00113005
-8.69722e-06
-0.000932499
-0.000326302
-0.000155965
5.5088e-05
-3.77692e-05
5.75943e-05
-1.169e-05
-3.27122e-05
-8.46508e-06
1.4161e-05
2.70162e-05
0.000141194
4.19922e-05
-1.75336e-05
3.34939e-05
-0.000268857
0.000344864
0.000458702
-0.000534709
-3.62227e-05
-6.7486e-05
4.67926e-05
-6.40127e-05
-0.000301885
-8.48501e-08
-0.000149987
0.000155127
-4.52298e-05
0.000101473
-0.000962555
-2.20819e-05
0.000994177
-5.10023e-06
0.000102279
-1.1645e-05
-6.86455e-05
3.99961e-05
-1.79074e-05
-2.9886e-05
4.77934e-05
0.0009888
-0.00104008
-2.27075e-05
0.000122548
1.72598e-05
2.13559e-06
-7.59332e-05
1.94591e-05
-3.13716e-05
-4.03635e-05
5.22759e-05
4.66051e-05
-1.93641e-06
-0.000336639
4.1263e-05
-5.68911e-05
3.25633e-05
0.000108084
-0.000133646
0.000151043
-0.000128095
-3.48887e-06
0.000617197
-0.000328553
-4.71088e-05
-6.44153e-05
8.99395e-05
2.15846e-05
-9.64658e-05
9.21687e-05
-1.34533e-05
-0.00085988
6.72538e-05
0.000169431
8.44952e-05
-0.000179667
7.16596e-06
-0.000129178
-0.000158177
-1.00118e-05
0.000168189
0.000131161
-7.49217e-05
-7.32809e-05
0.000275376
-0.000374802
3.12065e-05
-5.00326e-05
0.000168583
-0.000111651
1.14209e-05
0.000157189
1.4426e-05
-0.000155833
-2.3751e-06
0.000110028
0.000280906
-0.00100859
9.29145e-05
9.71411e-06
-0.000741669
2.05498e-05
-7.05377e-06
6.5352e-05
2.44907e-05
8.57931e-05
-9.91754e-05
-1.11083e-05
0.000137342
4.38478e-05
6.00878e-05
-0.000100272
0.00110331
2.88655e-05
5.49953e-05
-0.00105247
-4.16688e-05
-0.000104755
0.000209361
-9.23757e-05
0.000334439
0.000241578
0.000250228
0.00124864
0.00110245
0.000180099
0.000217533
0.00110207
5.8784e-05
2.71262e-05
-4.09733e-05
-4.88403e-05
-7.08481e-05
-0.00017897
-0.00092089
0.000125161
0.000168913
8.81026e-06
-4.80671e-05
-4.1022e-05
-6.20954e-05
2.84515e-06
2.9336e-05
0.000113386
3.76352e-05
0.00010583
6.42177e-05
2.38163e-05
-0.000220835
0.000149778
-3.82386e-05
-0.000123185
-0.000233489
0.000240144
-5.6688e-05
0.000864452
-0.000185876
-0.000660045
-1.85319e-05
-0.000772205
0.00070923
0.000343881
-1.77244e-06
-1.67939e-05
-7.6496e-06
-4.47072e-05
6.42943e-05
1.09107e-05
2.06449e-05
-0.000263197
0.000355444
0.000160989
-0.000985623
0.000114599
0.000674339
-0.000683839
3.37585e-05
0.000431179
-0.000430403
-3.58306e-06
2.27756e-05
3.05968e-05
-1.83547e-06
7.7766e-05
-0.000148534
-5.69563e-05
0.000127724
4.73945e-05
-3.63024e-05
2.93877e-05
-7.61604e-05
-3.83998e-05
4.77184e-05
0.000130842
-5.30757e-05
-6.65388e-05
7.61926e-05
0.000826319
-0.000151654
0.000137007
9.24134e-05
1.42276e-05
-2.91076e-05
-7.69319e-05
-2.27567e-05
0.000101839
-0.00100861
0.00104223
-0.000281791
-5.03138e-05
-0.000258097
-4.67643e-05
-1.06265e-05
8.67785e-05
3.81605e-05
-4.39856e-05
-0.000967637
-0.000199216
6.62728e-06
6.54836e-05
3.05809e-05
0.000788055
6.60635e-05
0.00105681
-0.00102515
3.90742e-05
-5.62534e-05
-2.95851e-05
0.000109804
3.98736e-05
0.000446392
-2.16684e-05
2.72652e-05
-0.000451989
-0.000308838
1.81002e-05
1.22994e-05
-3.21721e-05
-0.000148348
1.89949e-05
-3.62055e-05
3.94102e-05
0.000611345
-5.4687e-05
-1.0924e-05
4.40967e-05
-1.5649e-05
-3.83637e-05
-6.94649e-05
4.24205e-05
-1.20403e-05
2.44353e-05
0.000214981
-0.000174604
0.00101072
-0.00126705
0.000285189
2.69294e-06
-2.40824e-05
0.000722859
5.64769e-05
0.000946108
0.000277268
-9.93878e-05
-0.00112399
-0.000102956
2.10159e-06
4.11438e-05
2.02171e-05
-9.28135e-06
2.75342e-06
2.54378e-05
-1.89099e-05
-5.25014e-05
7.96451e-05
-0.000100762
7.36187e-05
-0.000114079
9.53198e-05
0.00133539
9.80282e-05
4.97376e-05
3.48378e-05
0.0013265
0.000151496
-4.34345e-05
-6.72741e-06
0.000126735
3.17111e-06
-4.30624e-06
-0.00103257
8.04259e-05
-5.27688e-05
-1.0676e-05
4.98121e-05
2.00769e-06
-0.000982084
-0.00116805
0.000745635
-0.000116007
-6.88457e-05
-9.57414e-05
7.5791e-06
2.79533e-05
6.0209e-05
8.35002e-05
-4.39068e-05
2.59994e-05
0.000179909
1.55759e-05
8.6922e-05
-7.63745e-07
2.59142e-05
0.000103892
-4.44223e-05
0.000154256
0.000111565
-0.000101222
-3.981e-05
2.31943e-05
3.56105e-05
4.93035e-05
6.99793e-05
-1.83933e-05
-3.18198e-05
4.13609e-05
-6.78858e-05
-4.84344e-05
1.46183e-05
-0.000168982
4.79088e-05
1.66702e-05
-6.45935e-06
-5.25896e-05
4.14697e-05
0.000860283
0.000140356
-0.000159502
-0.000812498
8.3009e-05
-9.77775e-06
1.56929e-05
0.000454855
0.000405708
0.000165673
-0.000117109
0.00108534
-0.000459619
-2.36461e-05
-5.54976e-07
-3.13836e-05
0.000137929
-6.14288e-05
-5.40063e-05
0.000104081
-4.76521e-05
0.000109872
-3.68194e-05
2.2779e-05
-0.00072746
0.000678081
4.93785e-05
2.22032e-05
-2.25196e-05
-6.21497e-05
-9.94276e-06
0.00037339
-1.68146e-05
0.000891901
0.00015125
-0.000789445
6.19853e-05
5.08908e-05
0.00107508
-8.84155e-05
-0.000951121
0.00101745
-0.000350818
0.000595182
4.37276e-05
-0.000288092
-0.00016416
-2.1746e-05
3.95056e-05
5.79765e-05
0.000620105
-5.85359e-05
0.00020861
9.32797e-05
-0.000243354
0.000169968
-4.47169e-05
3.76001e-05
-0.000162852
-0.000173909
4.11416e-05
0.000132767
5.07703e-05
-1.17007e-05
0.000118723
2.7303e-05
4.20422e-05
-3.88174e-06
-0.000217907
4.3998e-05
-0.000262583
0.000351965
-0.000408341
-0.000294442
-0.00089084
0.00013511
4.86841e-05
-1.52118e-05
-0.000252504
-6.76604e-05
2.78387e-05
-2.02199e-05
5.45679e-05
3.81671e-05
0.000373106
-7.32692e-05
0.000388256
0.000532731
2.77787e-05
-6.58939e-05
-5.8704e-06
-0.00047124
0.000450538
2.07023e-05
8.26516e-05
-0.000872097
6.38e-05
-0.000120965
0.000178289
-1.96296e-05
-0.000365409
0.000857061
-0.000309156
0.000349563
-0.000381916
-0.000133429
-8.69888e-07
-6.78467e-05
-9.9453e-06
0.000878413
-0.000194723
0.000355613
-0.000960777
0.00065683
0.000633079
-0.00106804
-4.9937e-05
0.000546262
0.000191329
-0.000145798
-0.000636799
0.000599488
0.000532974
-0.000632559
0.000352326
0.000592026
-0.000266749
-0.000275867
0.00015599
0.000257797
-0.000111123
-9.65029e-06
-0.000639706
0.000769649
-0.000495247
2.40068e-05
-0.000195941
1.23761e-05
0.000382091
0.000575703
-4.20418e-05
2.2623e-05
-2.94215e-05
-6.09848e-05
9.3096e-05
9.56126e-05
8.59024e-05
-0.000110227
0.000434854
1.5684e-05
-7.41121e-06
8.32946e-07
-2.7031e-06
0.000113203
-0.000118345
-6.99142e-05
-5.05261e-05
-0.000117331
3.02202e-05
-1.96607e-05
2.84033e-05
-2.84882e-05
-0.000412149
-0.000326782
2.91337e-05
3.78003e-05
-3.22363e-05
-0.000550164
0.000119708
-0.000139929
-6.05321e-05
-4.29385e-05
-3.37932e-05
7.68898e-05
-5.76929e-05
7.80314e-05
5.88271e-05
-0.000917571
0.000117619
-8.07632e-05
0.000107577
-0.000169463
0.00101353
-0.0009615
8.30918e-06
-1.47938e-05
0.000115542
0.00011456
0.000240795
0.000388777
-0.00108884
2.9034e-05
9.64912e-06
6.4986e-05
2.80126e-05
2.20202e-05
-1.18657e-05
0.000929816
0.000141789
9.89827e-05
7.64396e-05
-1.53694e-05
3.20396e-05
2.08935e-05
1.4922e-05
-0.00101191
0.00067504
6.96984e-05
-9.57583e-05
0.000121356
7.69289e-05
0.000153089
-3.34414e-05
1.03576e-05
0.00111805
6.96215e-05
-0.00108275
-0.000589317
0.000745099
1.76567e-05
-4.43272e-06
8.20383e-05
-0.000108344
0.000163022
0.000502566
-0.000727217
0.000224652
0.000434916
6.76498e-05
0.000445881
-1.0965e-05
-0.000309826
0.000466718
-0.000680169
-0.00060367
-0.000505112
-9.85581e-05
2.41619e-05
-0.00013581
-0.000110421
8.50916e-05
-0.000938551
-0.000121174
-0.000125901
2.32597e-05
-5.75986e-05
2.03047e-05
1.05391e-07
-6.79729e-05
-3.58753e-05
4.17467e-05
5.74252e-05
-6.95646e-05
3.09003e-07
2.90109e-05
-1.00982e-05
1.09011e-05
-0.000182319
-3.94331e-05
0.000442858
0.000820329
-0.000119192
-7.99505e-05
8.61736e-05
-1.91458e-06
0.000170575
-0.000159011
-0.000236357
-0.00100189
0.000151912
-3.35521e-05
0.000220799
-0.000477337
-2.77753e-05
0.000276059
-0.000148679
-0.000622109
0.000135522
9.1879e-05
-4.36675e-05
-2.46258e-05
-8.56629e-05
6.68029e-06
-3.46653e-05
7.04056e-05
9.80068e-05
-0.00115317
0.00104137
-8.98766e-05
0.000104538
-0.000118073
-2.08528e-06
1.56198e-05
1.98926e-05
3.50748e-05
-7.27081e-06
-0.000120695
7.28079e-05
-4.31502e-05
7.9428e-05
-0.00119148
1.72399e-06
0.000683595
-0.00038303
8.50791e-05
-0.000118694
-1.81188e-05
2.9069e-05
3.76764e-06
-2.43153e-05
-1.64812e-05
7.3551e-06
-0.000119609
0.000120584
-0.000141899
-5.16286e-06
-0.000214076
1.05704e-06
-0.000616436
-0.000393993
3.60773e-05
7.42243e-05
-1.4744e-05
-9.44057e-05
6.35888e-05
7.09401e-05
2.41754e-05
-0.000130991
0.000982868
0.000194615
3.60386e-05
0.000123897
8.6975e-05
1.593e-05
-0.000139485
-8.25119e-06
-0.000803427
0.00112375
7.92381e-05
-9.08698e-05
4.92243e-05
-3.28705e-05
-7.69293e-05
8.12767e-06
-5.35561e-06
0.00104056
2.02891e-05
4.40552e-06
-6.60996e-06
2.771e-05
0.000153253
-9.3047e-05
-9.85751e-05
9.32112e-05
-0.000853667
4.12942e-05
0.000676466
8.3818e-05
-1.62593e-05
-3.60374e-05
0.00108877
7.0742e-05
4.3479e-05
8.98398e-05
-0.000382139
5.21547e-05
1.52605e-05
-0.000104546
8.8253e-05
-9.98603e-05
8.57709e-05
0.000118795
-9.64622e-05
9.43749e-05
7.94518e-05
-9.52917e-06
0.000123811
-6.19179e-06
-0.000147503
0.000137969
-0.000964915
0.00102992
-0.000249999
0.000184997
-3.69727e-06
9.30571e-05
6.13103e-05
-4.72622e-05
7.86284e-05
-0.000246976
0.000604607
-0.000529156
-0.000209512
-3.94972e-05
-4.50039e-05
-8.81738e-06
-4.88001e-05
3.50446e-05
-4.99515e-05
-0.00115915
-0.000124943
8.98259e-06
-0.000213204
-1.55545e-06
1.44312e-05
-0.00107222
0.000971012
1.60989e-05
-1.63838e-05
0.000994461
-5.34558e-05
0.000558212
-0.000482043
-7.6169e-05
0.000430517
-7.43206e-06
0.000109121
2.0587e-05
-6.0787e-05
6.29756e-05
-0.000895154
0.000904505
0.000194192
-8.63435e-05
0.000124963
-0.000183504
5.85413e-05
-7.25946e-05
3.46987e-05
5.23687e-05
-0.000238482
5.49774e-05
1.4371e-05
5.50232e-06
0.000320236
-0.00106719
2.06078e-06
5.15621e-06
-7.335e-06
4.15945e-06
0.000151112
-0.000140263
5.30407e-06
-1.69265e-06
-3.61141e-06
-3.97285e-05
0.000234643
-6.86928e-05
-9.74895e-07
-0.000339563
4.02978e-06
-9.29713e-05
-0.000629908
0.000461835
3.04883e-05
-6.85941e-05
8.94729e-08
1.97132e-06
-6.65851e-05
4.15887e-05
6.06429e-05
0.00053568
3.36477e-05
0.000104283
-1.93223e-05
0.000114191
-8.6525e-05
2.08542e-05
-7.38997e-05
-4.07547e-05
5.25589e-05
5.34869e-06
-4.46096e-08
-9.23144e-07
1.01262e-06
8.78208e-05
9.61418e-05
6.59099e-05
-5.55528e-05
8.4013e-06
-6.91998e-05
-2.13067e-05
-5.93034e-05
-8.59765e-06
0.000468763
-0.000496327
-6.95063e-05
5.40904e-05
-0.000257313
3.79452e-06
1.55417e-06
-8.54877e-05
-1.66972e-05
0.00105251
-1.64306e-05
-0.0010143
-0.000170231
0.000200247
0.000644323
-9.96459e-05
0.000448444
-0.00021007
-2.42113e-05
1.64706e-05
4.04707e-06
0.000278929
-5.25619e-06
9.66171e-06
-0.000225455
0.000313276
-2.51078e-05
9.10176e-05
0.00140876
-0.00113848
-1.52754e-05
-0.000925058
-7.45033e-05
-1.55796e-05
-2.25775e-05
0.000169511
-1.85052e-05
0.00054644
-0.000718009
-0.000106318
9.56352e-05
2.56043e-06
4.34112e-05
0.000151094
0.000172625
-8.26888e-05
-0.000887582
-0.000106228
-0.000111365
-0.00037237
0.000389798
-0.000203306
0.000589292
0.000924689
-0.000265343
-1.31964e-05
-4.10714e-05
9.1713e-06
-0.000203228
0.000135055
0.000683291
5.92965e-06
6.71667e-05
0.000133919
-1.01076e-05
8.3422e-05
0.000173138
1.3263e-05
-6.9097e-05
-0.000148048
-0.000338481
-6.75086e-05
0.000355676
8.44748e-06
-9.19703e-07
8.4185e-05
0.00011124
5.57304e-05
8.88421e-05
8.88631e-05
0.000140165
3.35105e-05
0.000897267
-0.000910075
-3.67526e-05
-3.90492e-05
1.54806e-05
-5.14477e-05