/*--------------------------------*- C++ -*----------------------------------*\
| =========                 |                                                 |
| \\      /  F ield         | OpenFOAM: The Open Source CFD Toolbox           |
|  \\    /   O peration     | Version:  v1912                                 |
|   \\  /    A nd           | Website:  www.openfoam.com                      |
|    \\/     M anipulation  |                                                 |
\*---------------------------------------------------------------------------*/
FoamFile
{
    version     2.0;
    format      ascii;
    class       volScalarField;
    location    "0.63";
    object      nut;
}
// * * * * * * * * * * * * * * * * * * * * * * * * * * * * * * * * * * * * * //

dimensions      [0 2 -1 0 0 0 0];


internalField   nonuniform List<scalar> 
1431
(
0.00437009
0.0116312
0.000968717
0.00141978
0.00160623
0.00921884
0.00156967
0.00943848
0.00813272
0.000774637
0.00428426
0.0121699
0.0135242
0.00203719
0.0019356
0.00119944
0.00199063
0.00109336
0.00196497
0.00153064
0.00563994
0.00460171
0.00630874
0.0153782
0.00664923
0.00839238
0.00381154
0.00191245
0.000842838
0.000739471
0.00203273
0.00247164
0.00188139
0.0011415
0.0117608
0.00101227
0.0124605
0.000660707
0.000459343
0.00221406
0.00577674
0.00777676
0.0118904
0.000803669
0.00368295
0.00191833
0.00321666
0.00361828
0.00197437
0.0012873
0.00874133
0.000757157
0.00970158
0.0132482
0.0108312
0.00449091
0.000993525
0.0137669
0.00180672
0.00116901
0.00176399
0.000524973
0.000514742
0.000487483
0.00027971
0.000389516
0.00104122
0.000507239
0.000984205
0.00127492
0.00397356
0.00111964
0.000740877
0.000798126
0.00148026
0.00110094
0.000829935
0.000402947
0.000528756
0.000912472
0.00173921
0.000888442
0.0120581
0.00377285
0.0062535
0.00375361
0.00295059
0.00361651
0.00984996
0.0124912
0.00178057
0.00156941
0.000784542
0.00113765
0.0101076
0.000688142
0.0121257
0.0183265
0.000757691
0.00088595
0.00646823
0.000627825
0.002537
0.00117846
0.00055919
0.00231713
0.00284903
0.00344158
0.00484321
0.00220653
0.00121417
0.014697
0.00303039
0.00488476
0.0121649
0.001397
0.0013447
0.000862638
0.000749017
0.000410361
0.00136493
0.00183779
0.00230152
0.00126262
0.00272568
0.000401515
0.000847871
0.00311326
0.00128672
0.00562534
0.00134463
0.000922233
0.00650112
0.00147875
0.00178986
0.00142836
0.00117217
0.000993263
0.0124929
0.000372779
0.00037631
0.00194573
0.00151118
0.000839546
0.00615226
0.00174691
0.000536654
0.00801485
0.000988897
0.00129889
0.00103284
0.0012552
0.00234786
0.000799774
0.00321752
0.00119273
0.00946349
0.0138054
0.0127961
0.00566134
0.0160464
0.0151787
0.00184957
0.00448021
0.00287308
0.00423224
0.00411752
0.0113003
0.00112255
0.016375
0.0162974
0.00906291
0.00213895
0.0128313
0.0131335
0.00883854
0.00580607
0.00638963
0.0099095
0.0117235
0.000404356
0.000686402
0.00526106
0.0188715
0.00686274
0.0012648
0.00156757
0.0147685
0.00246915
0.0069527
0.00239365
0.00244116
0.0025062
0.00379688
0.000768085
0.0147817
0.0180737
0.0104246
0.00121445
0.00161595
0.00821441
0.00272505
0.00436413
0.00356366
0.0129486
0.00250211
0.00227876
0.000735149
0.0143715
0.00233742
0.00204146
0.00105802
0.00283288
0.0023266
0.0118004
0.001472
0.00266417
0.0105979
0.00543221
0.00422157
0.00303732
0.00542953
0.00264262
0.00381651
0.00334562
0.0164923
0.00461241
0.0174468
0.00268383
0.00317497
0.0059232
0.00202512
0.00249038
0.00243041
0.00258405
0.0176635
0.0028296
0.00263402
0.00228141
0.00586177
0.0060299
0.0101101
0.0153768
0.00262907
0.00250313
0.00417095
0.00273789
0.00410144
0.00319682
0.00118088
0.0028914
0.012622
0.00551212
0.00183089
0.00247407
0.00789692
0.00528226
0.0175095
0.0185957
0.00254518
0.00159544
0.0123504
0.00517304
0.00534858
0.00356848
0.00501875
0.0123934
0.00462043
0.00356848
0.000676892
0.00511439
0.002813
0.0103272
0.00452139
0.0147686
0.00199173
0.0139543
0.00361969
0.000953764
0.001438
0.0105985
0.0138844
0.00173136
0.00577211
0.008324
0.0175536
0.00762234
0.0188345
0.00543228
0.0107118
0.000642555
0.0108136
0.0174255
0.00830578
0.00278053
0.00247624
0.00188665
0.00142399
0.00167589
0.000997141
0.00933568
0.000337526
0.00899392
0.00942073
0.00348358
0.00492952
0.0122092
0.00241914
0.00904239
0.015066
0.0145827
0.00034611
0.000492819
0.00139863
0.00972483
0.0172271
0.0106178
0.00954288
0.00177752
0.0143636
0.0114004
0.0161382
0.00084729
0.00544472
0.00980824
0.000595175
0.000579361
0.00846788
0.0146937
0.00220273
0.00111478
0.00219486
0.00888024
0.00536528
0.00588165
0.0102153
0.00819179
0.0179234
0.00942012
0.00135225
0.000349532
0.0109682
0.0121219
0.00546507
0.00868564
0.00254633
0.00963581
0.0138418
0.0135417
0.00878701
0.00634963
0.00190259
0.00612252
0.0122017
0.00191233
0.00277488
0.00620639
0.00189159
0.0110787
0.00672399
0.0048109
0.00125875
0.00104629
0.00767318
0.00189148
0.00403702
0.0075146
0.0185191
0.00253701
0.00207989
0.00413179
0.00259681
0.0111448
0.00886885
0.00580121
0.0192489
0.0127769
0.00212247
0.011688
0.0196201
0.0159772
0.00862784
0.00147977
0.00181858
0.0177864
0.0095098
0.0112357
0.00821813
0.00925122
0.00932098
0.00625809
0.0112368
0.0111168
0.00441088
0.0180383
0.00753667
0.0146407
0.0146494
0.00690143
0.0106616
0.0127893
0.00598846
0.0181425
0.0080987
0.0028586
0.0138524
0.00875508
0.000465754
0.00731149
0.0137052
0.0136179
0.0105397
0.0134682
0.013981
0.008222
0.00150972
0.0115645
0.000383147
0.0103376
0.0131745
0.00353948
0.0142251
0.00603086
0.0118339
0.0128693
0.00260672
0.00212228
0.00333327
0.00240542
0.0141917
0.0162645
0.0161021
0.0158292
0.015929
0.0157774
0.0159159
0.0162791
0.0155677
0.016245
0.0158294
0.00219654
0.0120962
0.00203523
0.00196707
0.00168928
0.00169405
0.00130694
0.00157126
0.00392485
0.0036979
0.00334455
0.0013687
0.0018855
0.00213734
0.00188726
0.00178882
0.00477294
0.0163123
0.00208651
0.0025048
0.00417643
0.00140594
0.0154753
0.00155626
0.00315961
0.00146438
0.00176002
0.0147498
0.00143234
0.0139367
0.00103859
0.000913021
0.00142745
0.00558747
0.0124139
0.0121476
0.0014497
0.00133512
0.00127531
0.000971441
0.00575124
0.00117846
0.0123167
0.000984557
0.000968568
0.005459
0.00138714
0.0010774
0.00158297
0.00122676
0.0119447
0.000964275
0.00149057
0.00142026
0.0044566
0.00163565
0.00140811
0.0112036
0.00100887
0.00252354
0.00905514
0.00324788
0.00156132
0.00112009
0.0106865
0.0121749
0.00227444
0.00122277
0.00144314
0.00219383
0.00154515
0.00453205
0.00176012
0.0017884
0.00102164
0.00315078
0.00932164
0.00174126
0.00497029
0.0116963
0.0038228
0.00228908
0.00339235
0.00371813
0.003804
0.00542256
0.00963682
0.00216866
0.00204006
0.000518035
0.00962726
0.00630616
0.00768422
0.00598439
0.0151247
0.00478569
0.00202282
0.00175708
0.00335617
0.00213028
0.014018
0.00144064
0.00527127
0.00412641
0.00399626
0.0026934
0.00719482
0.00158849
0.0144393
0.0143929
0.0111525
0.00119312
0.00613645
0.0122062
0.00113163
0.00414422
0.00572128
0.00909163
0.00165214
0.00659217
0.0145071
0.00972291
0.0157592
0.00547402
0.00938457
0.00259183
0.00274577
0.00417872
0.0133225
0.00858566
0.0121109
0.00923517
0.0163951
0.00204251
0.00051382
0.00921501
0.00436486
0.00174735
0.0163519
0.0163036
0.0125107
0.00769168
0.00406336
0.0116519
0.0121462
0.00305488
0.0025095
0.00557086
0.00062022
0.00322002
0.0153838
0.00159311
0.00849028
0.00830472
0.00342293
0.0152149
0.00470101
0.0113844
0.0163468
0.0135283
0.00165724
0.00681617
0.012951
0.00512228
0.0101641
0.00758504
0.00184366
0.0125728
0.00194552
0.00208422
0.00497095
0.00360897
0.0108948
0.0162994
0.00565219
0.00826654
0.00466146
0.00577099
0.0127911
0.011696
0.0136055
0.00997135
0.000525716
0.0116951
0.00598952
0.00625925
0.0148309
0.00245592
0.0111586
0.00385216
0.00943522
0.00761208
0.000318139
0.0164487
0.0117932
0.0110266
0.0097523
0.00674477
0.00466094
0.00725944
0.00631187
0.0169669
0.00545387
0.0127934
0.00161782
0.00597556
0.00951066
0.00950507
0.00431618
0.0111501
0.0133169
0.0108492
0.00158785
0.0116928
0.00242985
0.00840694
0.00747327
0.00661201
0.00963602
0.014128
0.0174918
0.0144232
0.010473
0.00838477
0.00938852
0.00378042
0.00259171
0.00673139
0.00888058
0.00174438
0.0125126
0.0125183
0.00171855
0.016035
0.0132428
0.00338448
0.00174319
0.00559103
0.00477349
0.00662731
0.00825984
0.00277281
0.0110381
0.00171436
0.000887665
0.00124725
0.0153798
0.0053081
0.00240188
0.00110817
0.00574442
0.00280934
0.00516598
0.00102675
0.000835962
0.0151029
0.00154414
0.00410575
0.000736656
0.0120465
0.00134077
0.0113064
0.013003
0.000937312
0.00169086
0.00180883
0.00149024
0.00143705
0.0086296
0.0113559
0.00669363
0.00136219
0.00314241
0.0032018
0.000942005
0.00490718
0.0134619
0.00339994
0.00387518
0.00519211
0.00546983
0.00249957
0.0122657
0.0114409
0.000635714
0.00855317
0.00411528
0.0128013
0.00360787
0.00471069
0.00130936
0.0157877
0.0141152
0.00522714
0.00659435
0.00306544
0.00525647
0.00166948
0.00169671
0.00587114
0.000753889
0.00787526
0.00556418
0.00427375
0.0161416
0.0069599
0.00458747
0.00153785
0.00555181
0.00105912
0.00307606
0.00555047
0.00890268
0.00107966
0.0161256
0.00552137
0.00701094
0.00141642
0.00844586
0.000358568
0.0181938
0.00576433
0.0034312
0.00169722
0.00181063
0.00287745
0.00124822
0.00156911
0.0130607
0.00394294
0.0110606
0.00240013
0.00491854
0.00561333
0.00646532
0.00880934
0.000710155
0.0030887
0.0125047
0.00195795
0.011374
0.000823512
0.0109131
0.00139809
0.00120134
0.0103405
0.00629972
0.01056
0.00221773
0.00999613
0.00548136
0.00192345
0.00239546
0.0135125
0.00240718
0.000683694
0.0054202
0.00272896
0.00509174
0.0122301
0.00230777
0.00531212
0.00163611
0.0162369
0.0162557
0.0119281
0.00250518
0.00983421
0.00263511
0.00615617
0.0179373
0.00387708
0.00710315
0.0108705
0.0108368
0.0172548
0.0153557
0.00248855
0.0143017
0.0059304
0.00160778
0.00529063
0.00960657
0.015631
0.00127141
0.000762675
0.00832126
0.00195074
0.00235308
0.000861518
0.0149965
0.00178078
0.00162831
0.00225034
0.009954
0.013938
0.00287591
0.0149563
0.0135159
0.00370391
0.0120489
0.0012492
0.0013288
0.00233927
0.0113294
0.0170489
0.000975013
0.0179395
0.00379346
0.0168634
0.00278518
0.00200757
0.00636236
0.00371126
0.0011571
0.000614588
0.00667382
0.00510534
0.00121711
0.00107887
0.00307462
0.0109949
0.00567948
0.00757789
0.0156096
0.0119192
0.0157879
0.000928697
0.0133564
0.012334
0.0161654
0.0111349
0.0122906
0.00128542
0.00354573
0.00163294
0.00197164
0.00194744
0.0111879
0.00378593
0.012889
0.00390749
0.00441072
0.00323053
0.0127249
0.0147198
0.00698791
0.000858231
0.00082499
0.000792028
0.000687336
0.000731159
0.000994538
0.00081265
0.000589195
0.000698717
0.000626908
0.000639824
0.000725088
0.00109097
0.00072244
0.000665776
0.00067011
0.000761343
0.000765701
0.000722597
0.00075874
0.000688931
0.000696315
0.000733541
0.000721374
0.0154143
0.0133977
0.00136741
0.00868306
0.00697633
0.00426404
0.00218066
0.00719228
0.00232354
0.00214193
0.00308902
0.0015611
0.00137509
0.0164856
0.00484954
0.00161706
0.0149596
0.00438047
0.0161941
0.00335761
0.00325137
0.0183045
0.00129887
0.000732037
0.0113996
0.0103712
0.000728239
0.002218
0.0100676
0.00161959
0.004078
0.0147981
0.00644226
0.00527643
0.00928589
0.00873677
0.00149322
0.00062676
0.00224465
0.00373396
0.0106123
0.000936871
0.000741128
0.00981681
0.0102506
0.00160876
0.00396014
0.00194709
0.00140899
0.00054613
0.0100755
0.0147595
0.0107332
0.0020776
0.00140717
0.00486558
0.00567338
0.000673392
0.00288218
0.000681025
0.0100847
0.00263057
0.00144919
0.00142628
0.00331707
0.00129258
0.0152993
0.00163417
0.0157995
0.0131379
0.00266355
0.000800417
0.0108595
0.0131994
0.0179383
0.00143305
0.000902656
0.00588546
0.00280617
0.00114967
0.011865
0.00257804
0.00711431
0.0129742
0.00070214
0.0131737
0.00342527
0.00272085
0.00495378
0.00334661
0.00279887
0.00335333
0.00352629
0.00441514
0.0160614
0.00119146
0.0101495
0.00539313
0.00129644
0.00425507
0.00292404
0.00226398
0.000853229
0.0117443
0.0099116
0.0108635
0.000997572
0.0115484
0.0107288
0.00802943
0.00694878
0.00139395
0.000749781
0.000708631
0.00472665
0.013507
0.0149872
0.000738469
0.0082774
0.0019906
0.0152317
0.0111974
0.00452847
0.00272578
0.00265992
0.0116261
0.00186611
0.00640387
0.0108788
0.0110679
0.000634821
0.00337429
0.000561777
0.0104057
0.007077
0.00215446
0.0128937
0.0110962
0.0117896
0.0105664
0.00407857
0.0124906
0.00501942
0.00101776
0.00217668
0.0058026
0.00332562
0.0116032
0.0128435
0.0102044
0.0149171
0.0129033
0.0148858
0.000953454
0.00120502
0.0162495
0.00202346
0.0121685
0.00228157
0.0145655
0.0154935
0.00198337
0.000713
0.00185489
0.00174256
0.00169993
0.0022664
0.00200601
0.00191242
0.0018403
0.00192944
0.00033401
0.000456191
0.000384118
0.000343896
0.000293143
0.000395884
0.0122479
0.00305565
0.0145278
0.00234351
0.0100594
0.000726626
0.002778
0.0157747
0.00126754
0.00220526
0.0101921
0.000866373
0.00282739
0.00700697
0.000727802
0.00187659
0.00198227
0.00995232
0.0163127
0.00300803
0.0118728
0.00350299
0.00259197
0.0110082
0.0164705
0.00296208
0.00122507
0.00397248
0.0137169
0.00134826
0.0058748
0.0070384
0.00122088
0.0110745
0.00108989
0.00297277
0.00531353
0.000654161
0.00412819
0.00199188
0.00107211
0.00393986
0.00142642
0.00122869
0.0147953
0.0113151
0.000962773
0.00412255
0.00784527
0.00347987
0.00109705
0.00581835
0.0106705
0.00772847
0.00751904
0.00319943
0.0015733
0.00449491
0.00551327
0.0024613
0.0121516
0.0035923
0.00380947
0.0125416
0.000681414
0.00243733
0.0028754
0.00103156
0.0107925
0.00403192
0.0110448
0.0055197
0.00202162
0.00936139
0.0167614
0.00235873
0.00862977
0.00154635
0.00112417
0.00125748
0.00199328
0.00280061
0.00120749
0.0132491
0.013553
0.00115103
0.00450073
0.0104622
0.00332595
0.0136804
0.0013994
0.00366824
0.00659621
0.00347997
0.0121525
0.00136824
0.00426838
0.00708331
0.00512615
0.0131947
0.00142947
0.000521704
0.00176644
0.00325328
0.00834287
0.0126023
0.0050149
0.0121663
0.00933114
0.00242199
0.0171882
0.00169314
0.00424439
0.00542889
0.00264096
0.00146945
0.011604
0.00401444
0.00124634
0.00286909
0.0105476
0.0020948
0.0151126
0.00970088
0.00517666
0.00359902
0.00133655
0.000750811
0.0113796
0.00362354
0.0138363
0.00785583
0.0125804
0.0138124
0.0110086
0.00182332
0.00307869
0.0020241
0.00145956
0.0115829
0.00192533
0.011395
0.0197436
0.0022119
0.00528368
0.0112569
0.00829172
0.0111013
0.00091693
0.00217163
0.00619402
0.00209879
0.00175206
0.00490035
0.00443112
0.00575086
0.00183623
0.00855703
0.00290729
0.00479815
0.0112525
0.00893758
0.00978095
0.00657261
0.00914438
0.0045075
0.0111134
0.0116206
0.00383237
0.0018086
0.00317387
0.00309183
0.00445555
0.0111961
0.00725874
0.0113889
0.0115496
0.00131314
0.00222926
0.00256158
0.011139
0.00159461
0.00191613
0.0123009
0.0153169
0.0105405
0.00188838
0.0114252
0.012444
0.0105437
0.00678047
0.00338459
0.00068491
0.000667883
0.00170496
0.00335206
0.00225659
0.00249772
0.00314258
0.0158989
0.0087559
0.00135872
0.00513561
0.0138554
0.00398931
0.00249603
0.00262058
0.00228787
0.0149766
0.00636982
0.00173469
0.00138077
0.0192653
0.010558
0.0136676
0.00149898
0.00329235
0.00381132
0.00613281
0.0102432
0.00151897
0.00399713
0.00374406
0.0188403
0.000513925
0.00733981
0.0127653
0.00130016
0.00368031
0.00698881
0.0116053
0.0137772
0.00194562
0.00448775
0.00123093
0.00781998
0.00158297
0.00190375
0.00798564
0.00273624
0.0092963
0.00110736
0.0144475
0.000911182
0.00098105
0.00060023
0.0066422
0.00505806
0.0029819
0.00155246
0.0151305
0.00235254
0.00401764
0.00246343
0.0106508
0.002509
0.00226976
0.00250663
0.00309583
0.00394176
0.0102336
0.0185781
0.00398277
0.0111328
0.00246264
0.0015729
0.00160915
0.00234744
0.00221051
0.0110793
0.00352028
0.00180933
0.00200585
0.00238199
0.0119302
0.00234209
0.00166771
0.00247495
0.00268302
0.00291826
0.00524263
0.011209
0.00410131
0.00354609
0.00194967
0.00226064
0.00289679
0.00188155
0.000848462
0.0111244
0.00921968
0.00232063
0.00274376
0.00341741
0.00155238
0.00136423
0.00282637
0.0012759
0.00124169
0.00208077
0.0019414
0.00114521
0.0038137
0.0154493
0.00226899
0.00218821
0.0142201
0.00339619
0.0102535
0.0114242
0.00360226
0.00216729
0.00134395
0.00100357
0.00384134
0.000593481
0.00353302
0.000906625
0.000395258
0.000365265
0.00157332
0.000335157
0.000684119
0.000483934
0.00226775
0.00303638
0.00173987
0.00193915
0.000745032
0.0013437
0.000944985
0.0010164
0.00162981
0.000706385
0.000739417
0.00164952
0.00154029
0.000787014
0.000350172
0.00148863
0.00184165
0.0010526
0.000857483
)
;

boundaryField
{
    frontAndBack
    {
        type            empty;
    }
    wallOuter
    {
        type            nutkWallFunction;
        Cmu             0.09;
        kappa           0.41;
        E               9.8;
        value           nonuniform List<scalar> 
96
(
0.000100568
8.92869e-05
8.33377e-05
0.000196575
0.000199183
0.000196137
0.000131623
0.000122765
0.000101427
0.00017858
9.00004e-05
0.00015678
0.000112868
0.000206114
0.000167132
0.000191888
0.000194277
9.08564e-05
8.71534e-05
0.00014178
8.38779e-05
0.000149327
9.18389e-05
0.000203618
0.00018703
0.00010243
9.87727e-05
9.49401e-05
8.27567e-05
8.78839e-05
0.000117742
9.73998e-05
7.15692e-05
8.44638e-05
7.60383e-05
7.75847e-05
8.72556e-05
0.000128441
8.72907e-05
8.0526e-05
8.09651e-05
9.18294e-05
9.20337e-05
8.70695e-05
9.15467e-05
8.31678e-05
8.40264e-05
8.86329e-05
8.69511e-05
8.82138e-05
0.000111195
8.95083e-05
8.14125e-05
8.38783e-05
0.00016788
8.47607e-05
0.000139485
8.99234e-05
8.56653e-05
8.92157e-05
0.000212555
7.83979e-05
6.96553e-05
0.000242209
0.000228798
0.00025546
0.000224643
8.60458e-05
0.000211298
0.000199436
0.000194899
0.000253884
0.000226913
0.000217124
0.000209685
0.000218882
4.19546e-05
5.67335e-05
4.76692e-05
4.30008e-05
3.62102e-05
4.92949e-05
8.78421e-05
8.93835e-05
7.93465e-05
8.25529e-05
0.000165814
9.20551e-05
0.000218733
0.000217745
8.24258e-05
8.0855e-05
6.38426e-05
0.000220478
0.000130582
7.42756e-05
)
;
    }
    inlet
    {
        type            calculated;
        value           nonuniform 0();
    }
    outlet
    {
        type            calculated;
        value           nonuniform List<scalar> 9(0.0185191 0.0177864 0.00184366 0.0161256 0.0119281 0.00694878 0.00215446 0.00347987 0.0106705);
    }
    wallInner
    {
        type            nutkWallFunction;
        Cmu             0.09;
        kappa           0.41;
        E               9.8;
        value           nonuniform List<scalar> 
126
(
0.000205157
0.000139306
0.000202617
6.2558e-05
6.24651e-05
5.95401e-05
3.28362e-05
4.59269e-05
0.000125123
6.03495e-05
0.000115683
0.000148878
0.000424804
0.000130702
8.99147e-05
9.44155e-05
0.000170434
0.000129591
0.000100917
4.90827e-05
6.26836e-05
0.000111023
0.000198183
0.000107098
0.000105422
0.000161902
0.000155376
0.000104009
9.0625e-05
4.9963e-05
0.000158709
0.000210583
0.000257446
0.000147301
0.000301105
4.7976e-05
0.000103204
0.000156129
0.000107017
4.55711e-05
4.63362e-05
0.000173915
0.000102224
6.61752e-05
0.000152534
0.000145885
9.6178e-05
0.000315773
4.75161e-05
0.000147586
0.000180689
9.30559e-05
0.000231287
8.14737e-05
0.000113547
0.000166416
7.65931e-05
0.000214348
0.000164851
0.00011834
4.12278e-05
4.14407e-05
5.90328e-05
0.000162329
7.38716e-05
7.00349e-05
0.00013126
0.000157598
4.26693e-05
0.000215198
0.000146925
0.000123748
5.63822e-05
4.61939e-05
0.000125544
0.000114248
6.28162e-05
0.000200259
0.000161361
0.000182329
0.000134196
0.000189181
5.98283e-05
0.000200061
7.12966e-05
0.000183979
0.000189357
6.229e-05
3.73477e-05
0.000186716
0.00018315
0.000194572
0.000172676
4.3037e-05
0.000150475
0.000221687
6.51882e-05
0.000228942
0.000107269
0.000116126
0.000155983
0.000120264
6.84752e-05
9.634e-05
4.7323e-05
4.45918e-05
4.01723e-05
5.83762e-05
0.000252537
0.000331853
0.000198637
0.000219239
8.90087e-05
0.000112522
0.000119784
0.000188016
8.53969e-05
8.84491e-05
0.000189139
0.000178613
9.58389e-05
4.20189e-05
0.00017152
0.000211042
0.000126037
0.000102214
)
;
    }
    procBoundary3to1
    {
        type            processor;
        value           nonuniform List<scalar> 
48
(
0.0117452
0.00466105
0.00575855
0.00951107
0.00348728
0.00352313
0.00466105
0.0107636
0.0159599
0.00179467
0.00179467
0.00185227
0.00185227
0.00268881
0.00339391
0.00169542
0.00141902
0.0015231
0.00141902
0.0015053
0.00199593
0.00170049
0.0015053
0.00199573
0.00145261
0.00146951
0.00232752
0.00170049
0.00435578
0.00144236
0.00144236
0.00777663
0.00777663
0.0159599
0.00155296
0.0029656
0.0135749
0.00145261
0.014053
0.00306869
0.00268881
0.0155251
0.0163086
0.0015053
0.00363266
0.00100588
0.00346235
0.00232871
)
;
    }
    procBoundary3to2
    {
        type            processor;
        value           nonuniform List<scalar> 
29
(
0.00150623
0.00150623
0.000532349
0.000540559
0.000863198
0.000500791
0.000651618
0.00165083
0.00251674
0.00191252
0.00123769
0.00169796
0.00113993
0.00300175
0.00162657
0.00269536
0.00180416
0.00230791
0.00153282
0.00235975
0.00212813
0.00180416
0.000303769
0.00230791
0.00106594
0.000921768
0.00230791
0.00319854
0.00319854
)
;
    }
}


// ************************************************************************* //
