/*--------------------------------*- C++ -*----------------------------------*\
| =========                 |                                                 |
| \\      /  F ield         | OpenFOAM: The Open Source CFD Toolbox           |
|  \\    /   O peration     | Version:  v1912                                 |
|   \\  /    A nd           | Website:  www.openfoam.com                      |
|    \\/     M anipulation  |                                                 |
\*---------------------------------------------------------------------------*/
FoamFile
{
    version     2.0;
    format      ascii;
    class       volScalarField;
    location    "1";
    object      k;
}
// * * * * * * * * * * * * * * * * * * * * * * * * * * * * * * * * * * * * * //

dimensions      [0 2 -2 0 0 0 0];


internalField   nonuniform List<scalar> 
1431
(
0.0780727
0.465862
1.54189
1.02239
0.0979085
0.659514
0.185399
0.196669
2.78395
1.38892
0.458386
0.113904
0.0798019
0.939066
1.90324
0.468758
1.88877
0.169216
0.0510545
0.407199
0.0864884
1.128
0.977291
1.02698
0.902195
0.35668
0.923409
0.860036
0.49742
0.147735
0.920903
0.314347
0.812558
0.161163
0.0994682
1.00346
0.294686
0.312731
0.420639
0.305815
1.98346
0.25005
0.147576
0.0988086
1.15044
0.131343
0.982736
0.211513
0.432801
0.397525
0.144965
1.16652
2.00823
0.215261
0.124151
0.203508
0.890696
1.32361
0.775434
0.0860235
1.26071
0.250282
1.1114
0.292451
0.594409
0.163562
1.42102
0.569148
0.206845
0.323005
0.118844
0.0762047
0.211479
0.584366
0.52579
0.605742
0.115562
1.40869
0.224195
1.36684
0.269593
0.144728
0.058047
1.32922
1.41645
0.0989772
0.11727
0.382675
1.12709
0.349853
0.254762
0.669632
0.112665
0.311703
0.170384
0.0962156
0.488314
0.265642
0.122462
0.630589
0.2857
0.222771
0.308919
0.111798
0.536591
0.0933359
0.240271
2.32334
1.25167
0.103809
1.5949
0.215411
0.214743
0.259118
0.510904
0.112301
0.169899
1.27162
1.24491
0.908234
0.291839
1.74083
1.11577
0.928846
0.293637
0.0878665
1.38896
0.234846
0.131055
0.487522
0.228202
2.00682
0.737835
0.266121
0.10933
0.883609
0.242889
0.223532
0.208394
2.08159
1.70659
0.115435
0.289994
0.453509
0.522507
0.37389
0.267279
2.3563
0.287218
0.368942
0.507134
0.640166
0.193201
0.0255318
0.144104
0.174742
0.283254
0.226826
0.20684
0.261582
0.161246
0.450966
0.302161
0.418978
0.129599
2.0648
0.103037
0.303604
0.145749
0.288538
0.642812
0.531675
0.879026
0.38611
0.282873
0.0773685
0.121221
0.498126
0.157665
0.219517
0.31656
1.43864
0.206803
0.292744
0.348596
0.394139
0.230689
0.798356
0.319988
0.299388
0.145166
1.96401
0.100785
0.254329
3.17377
0.275644
0.234431
0.262034
0.162207
0.0958758
0.0535412
0.732464
0.325925
2.05556
0.246443
1.12128
0.0960039
0.305141
0.518471
0.474166
0.264399
0.215912
1.19754
0.299689
0.52248
0.63513
0.200147
0.128557
0.5122
0.30433
0.291842
1.24331
0.431069
1.86015
0.318558
0.531448
0.545881
0.257553
0.418982
0.96778
0.10256
0.73511
0.302638
0.200844
0.196756
0.204899
0.2874
0.147934
0.27455
0.124866
0.311458
0.289938
2.60626
1.60442
0.184555
0.197934
0.309301
0.122049
0.206234
0.549981
0.269119
2.7723
1.3228
0.49735
1.13534
0.66279
0.047548
0.126156
0.620284
0.644013
0.676275
0.269449
0.13432
1.80468
0.198765
0.406228
0.57291
0.249826
0.420365
2.08586
0.239165
0.50022
0.26672
0.265173
0.692745
0.271043
0.312968
0.147349
0.174983
1.42704
2.60787
0.120093
0.38013
0.246465
0.600934
0.800017
0.0987967
0.191172
0.486703
0.292558
0.391829
0.333096
0.193723
0.145933
0.293244
0.214238
0.111099
0.252707
0.180432
0.240305
0.322879
0.56316
0.0468016
0.231863
0.215177
0.248336
0.281688
0.652096
0.630717
0.0382347
0.304632
0.337573
1.24239
0.111534
0.110195
0.285008
1.46338
0.137481
0.197782
0.0758985
0.206454
0.0457475
1.51651
0.146372
1.31871
0.151919
0.257481
0.237312
1.26641
0.293968
0.721145
0.0538358
0.10272
0.144817
0.278016
2.3648
0.142331
0.0386075
0.146599
0.0504734
0.0574441
0.263658
0.266891
0.436926
0.960679
0.0357469
0.323292
0.0192454
0.0462208
0.0230562
0.0900471
0.107347
0.110401
0.0651771
0.0484257
0.106231
0.106325
0.039738
0.0833691
0.0469864
0.0441646
0.054423
0.059441
0.067063
0.0310831
0.0412042
0.0511582
0.0492151
0.794306
0.929202
0.38632
0.103666
0.0726481
0.338313
0.128848
1.05249
0.724218
0.327964
0.362152
0.102488
0.119971
0.0674833
0.0216268
0.109117
0.0521274
0.0550422
0.0502607
0.0440703
0.0739693
0.058308
0.0186159
1.40719
0.466801
0.362255
0.135244
0.250675
0.0392559
0.315594
0.686139
0.279763
0.0413735
0.644407
0.308003
0.152347
0.63978
0.327755
0.133844
0.251733
0.0369842
0.813968
0.618188
0.275928
0.206547
1.22469
0.484247
0.699039
0.729601
2.22861
0.091467
0.0394015
0.141178
0.143201
0.722408
0.216073
0.111459
0.823731
0.22085
0.752127
1.70031
0.791488
1.77211
0.207064
0.223532
0.33024
0.124513
0.934693
0.184394
0.342535
0.148452
0.301814
0.180468
1.36044
0.245553
0.197711
0.0681564
0.36236
0.673595
0.188541
0.0926963
0.642104
0.420035
0.519899
0.567138
0.733414
0.161196
0.673506
0.456524
0.378736
0.573015
0.127211
1.29339
0.0775415
0.313631
0.460399
0.125439
0.113742
0.0365699
1.62105
0.240661
0.103276
1.51725
0.133959
0.225765
0.739254
0.24771
0.0913687
1.3551
1.28229
1.91497
0.0498364
0.114457
0.127901
0.762288
0.206974
0.317359
0.334514
0.51505
0.688135
0.267568
0.0459353
0.0532077
0.0645855
0.0778922
1.48617
0.0550439
0.123568
1.16957
0.126692
0.32524
0.117766
0.644137
1.49072
0.832838
1.01645
0.585944
0.115169
0.0770005
0.706355
0.132917
1.17099
1.0233
0.129008
0.227471
0.641043
0.315736
0.138719
1.65578
1.33349
0.122875
0.126925
0.100079
0.15412
0.105062
0.0383499
0.14404
0.218769
0.431479
0.194333
0.124019
0.18857
0.318955
0.238487
0.131046
0.107925
0.36832
0.178704
1.62109
0.183909
0.319429
1.01532
1.0533
1.49397
0.666988
0.668773
0.109555
0.931992
0.374147
0.21738
0.513561
0.0688774
0.11848
0.057466
0.613829
0.246162
0.109774
0.543489
2.30298
0.80939
0.610033
0.193371
0.388693
0.184749
2.81584
1.82626
1.03304
0.0440776
0.211668
0.202334
1.14939
0.507678
0.0447198
0.935629
1.17064
0.929786
1.4115
0.200755
0.16517
0.134358
0.308338
0.445554
0.120973
0.223394
0.459549
1.02396
0.15593
0.184249
0.479464
0.315652
0.144405
0.401045
0.797662
1.2923
0.359643
0.295481
0.275531
0.187774
0.0502916
0.144126
0.205237
0.027786
0.566583
0.437965
0.0665564
0.405407
0.90933
0.67475
0.4802
0.0607959
1.23328
1.37206
0.992252
0.407586
0.0435715
0.949378
1.19925
0.205761
1.47253
1.29059
1.52464
0.490123
0.0569042
0.163225
0.170755
0.0492477
0.119592
0.307575
0.0461591
0.0496501
0.281395
0.229962
1.2722
0.164055
0.0609744
0.238445
0.163217
0.344555
0.0573542
0.198783
0.542325
0.175584
0.431701
1.60141
0.247214
0.550006
0.108477
1.64464
0.443555
2.26981
1.19794
0.173655
0.188466
0.228909
0.26165
0.621116
2.29291
0.31318
0.256834
0.332176
0.164898
0.461231
1.24581
0.0779022
0.198045
0.237286
0.282765
0.0316788
0.359095
0.93723
0.465441
1.02554
0.0461564
0.264344
0.184347
1.49597
0.32474
0.318761
0.587854
0.479568
0.0448713
0.491793
1.57424
0.0734703
0.434112
0.222396
0.12836
0.208881
0.132028
1.61075
0.90152
0.0445829
1.2037
1.50452
1.0092
0.222722
0.241
0.0492832
0.0741485
0.0292396
0.272573
0.203778
0.962804
0.0537591
0.188298
0.0453744
0.100664
0.665297
0.589051
0.819701
0.362773
2.13354
0.134766
0.0473963
0.067163
0.954475
1.35517
0.421392
0.617158
3.31586
0.210262
0.201409
0.413615
0.299478
0.218097
1.76171
0.042722
0.427511
1.11868
2.01444
0.478252
0.0407513
0.0788171
0.058112
0.470428
0.474018
1.78172
0.190121
0.189353
0.1137
0.725179
0.193544
1.54032
2.34103
0.316222
0.124905
0.591907
0.404719
0.210765
0.445219
0.761805
0.0433393
1.91753
0.190718
0.484957
0.514902
0.247218
0.203593
0.350119
0.522124
0.421233
1.56664
0.776826
0.795867
0.806298
0.85853
0.305956
1.16704
0.198822
0.911254
0.613931
0.499058
0.128829
1.5741
0.0560553
0.0561652
0.253018
0.57067
0.0961935
1.1259
0.20221
0.0496574
0.102368
0.101529
0.532244
1.61503
0.0494881
2.48807
0.0512776
0.0687685
0.243787
1.78856
0.312135
0.192222
0.893629
0.60898
0.362674
0.309663
0.0618909
0.0415849
1.79925
0.229571
0.206919
1.96426
0.220247
0.0417531
0.0816033
0.176734
0.971304
0.155048
1.2585
0.118242
0.280731
0.234299
1.7024
0.0457062
1.25191
0.537584
0.527246
0.518313
0.528193
0.503118
0.508779
0.509215
0.550813
0.405683
0.18327
0.385145
0.215276
2.13808
0.0403624
0.0668939
0.112406
0.048981
0.0772576
0.0912033
0.0476511
0.574164
0.163222
0.617309
0.0391722
0.164381
0.194337
0.262403
0.26382
0.505873
1.53898
0.235897
0.0777355
0.292855
0.315555
0.237189
0.575534
0.358445
0.187218
0.0277778
0.888684
0.179113
0.967219
1.75134
0.320648
0.344419
0.225166
0.238508
0.0601681
0.151635
0.139231
0.113999
0.215468
0.203958
0.0807907
0.040747
0.321795
0.919318
0.160729
0.608488
0.0465587
0.247903
0.169191
0.11529
0.126542
0.248293
0.104777
0.0513163
0.204404
0.0400663
0.293418
0.0798338
0.176333
1.27283
1.32575
0.292471
0.447149
1.6951
0.585398
0.269751
0.28662
1.4111
0.0486949
0.0783185
0.148573
0.0629247
0.121512
0.12044
0.332609
0.207269
0.79486
0.753987
0.490366
0.284367
0.0406634
0.0424654
0.191359
0.223017
2.52843
0.1588
0.371537
1.14077
0.760419
0.35657
0.460073
0.0701121
0.152512
0.219773
0.180117
0.233183
0.211616
0.712143
0.0739572
0.530124
1.53355
0.530748
2.31228
0.190573
0.319374
0.376629
0.336898
0.356932
0.396931
0.31489
0.289285
0.38836
0.0926018
0.068134
0.25062
0.257521
0.0968588
0.0570973
1.62804
0.109536
0.147538
0.0662824
1.20341
0.0830384
0.500084
0.262319
2.077
0.0677869
0.217364
0.142131
0.2489
0.169178
1.58539
1.77292
0.0885095
0.145701
0.376733
0.065934
0.169183
0.80168
0.0547265
0.981006
0.901648
0.349206
0.326214
0.585249
1.53775
0.489771
0.239942
0.0704176
0.114914
0.254537
0.676014
0.404906
0.18884
1.32955
1.11697
0.644115
0.0965167
1.4797
0.0213419
0.654951
0.0659372
0.252707
0.162487
0.440941
0.328088
0.0751495
2.96409
0.660257
1.77581
0.102463
0.891765
0.998305
0.456501
0.19967
0.201092
0.198443
0.770456
2.00896
0.350445
0.312082
1.24922
0.946684
0.228258
0.264945
0.776223
1.59348
1.03088
1.41161
0.173516
1.58837
1.07352
1.23709
0.113953
0.963443
0.728528
0.082124
0.194518
0.127787
0.442245
2.14038
1.04299
0.98508
0.271218
1.62866
0.0746822
1.62016
1.3701
0.316486
0.155066
0.212539
0.726201
0.0973724
0.0754033
0.0320245
0.153688
0.100591
1.4559
1.68381
0.189898
1.9089
0.0887251
0.461166
1.93736
1.20416
0.176447
0.107719
0.174941
0.399819
0.0405295
0.206233
0.140678
2.11772
0.349514
0.58935
0.21456
0.231961
0.551159
0.309459
0.327451
1.79753
0.182638
0.202076
0.537501
0.901606
0.244197
0.121793
0.0798574
0.778019
0.353137
0.355114
0.077442
0.0639981
0.115724
0.0397487
0.24849
0.0722555
0.583531
0.80174
0.449252
2.55147
0.053013
0.385007
0.123156
0.208538
0.507829
0.0488461
0.134983
0.334496
0.137982
1.24435
1.35337
0.0301638
0.548141
0.882
0.0892066
0.374881
1.20697
0.0644274
0.0367243
0.636796
0.0544951
2.33214
0.142284
0.679059
0.239524
0.889522
0.543775
0.0607698
0.459414
0.249597
0.0600349
0.119898
0.36675
0.0324119
1.02884
0.0312036
0.14023
0.0806412
0.208606
0.138011
0.356032
0.0369115
0.118809
2.98765
0.15063
0.320375
0.238559
0.57223
0.0677672
0.0544884
0.0670034
0.190951
3.27677
1.46319
0.326352
0.207021
0.732449
0.088531
1.08692
0.259516
1.33564
0.0668754
0.0317912
2.27691
0.108623
0.165028
2.4421
0.789163
0.5139
0.287545
1.30845
0.0330831
0.0380508
0.0870903
1.45277
1.05651
0.978889
0.0590855
0.0486203
0.0229381
0.336467
0.351581
2.98503
0.930231
0.60362
0.366324
0.205087
0.0322386
0.125459
0.284615
0.85689
1.28456
0.193001
0.12684
0.210783
0.634657
1.59409
2.36553
0.43242
0.0438494
0.0942031
1.21293
0.544501
0.0310399
2.39042
2.02589
0.782606
0.473152
0.250705
0.300947
1.86942
0.975918
1.2515
0.116834
2.68612
0.677155
0.346173
0.051266
1.36037
0.351677
0.359985
0.890915
1.69042
0.405953
0.121224
0.0413856
1.62761
0.211894
0.14945
1.13534
0.19336
1.51515
0.430756
0.0781322
1.9344
0.197497
0.497793
0.270173
0.412582
0.344116
0.611246
1.45702
0.0973017
0.96014
0.0296237
1.18581
0.809632
0.110082
0.102706
0.117971
0.150421
1.65303
0.855641
0.210834
0.202415
0.677681
0.111104
0.0817981
1.01342
0.270477
0.122848
0.385365
0.201915
0.174597
1.96905
1.05685
1.21911
0.462319
1.6762
0.152232
0.046734
0.117118
1.60696
1.6184
0.396022
0.340863
0.962209
1.14948
0.11873
2.532
0.760497
0.16765
0.0379503
0.265113
0.50053
0.226184
0.390186
0.314811
0.567299
0.680562
0.418712
0.281256
0.230274
0.391452
0.270555
1.57308
1.4207
2.71479
1.26229
0.157881
1.62707
0.771144
1.62004
0.0557366
0.196705
0.350874
0.175462
2.01854
0.0458741
0.0539189
1.99668
0.229107
1.75329
1.73126
1.05181
0.729824
0.827056
0.328541
0.259835
1.17953
0.333807
0.420429
0.0866034
0.127732
0.37367
0.091142
0.943142
2.10425
0.136673
0.156823
0.113455
0.027636
0.0866677
1.16339
0.0890771
1.38166
0.778173
0.355938
0.554946
0.330232
0.152238
0.293333
0.142553
0.08296
0.21318
0.0728871
1.24719
0.231535
0.618828
0.108743
0.240445
0.366132
0.122347
1.0539
0.0423213
0.0810848
0.13718
0.212519
0.202656
0.0643553
0.0781537
0.522012
0.110101
0.461957
0.135758
0.0860478
0.173479
0.536791
0.303227
0.392839
0.22347
0.0899918
0.243889
0.115024
1.42286
0.0967446
0.306374
0.204987
0.0485417
0.394975
0.626354
0.270871
0.538525
0.129568
0.452866
0.167886
1.46667
0.0480826
0.243823
1.39803
0.528718
1.02543
0.102696
2.23307
0.23469
0.711499
1.31751
0.336573
0.336119
0.113377
0.512635
0.304596
0.898832
0.0596379
1.64472
0.050436
0.771238
0.0485091
0.0822794
0.545553
0.262353
0.342467
0.276149
0.917246
0.134811
0.938753
0.635924
0.587574
0.649124
0.206398
0.111661
0.402806
2.5022
1.23723
0.313044
0.297256
2.83477
1.33391
3.05288
1.37513
1.4409
0.461066
0.206608
0.751682
0.387306
0.140584
0.743672
1.58812
0.129579
0.640274
0.976229
)
;

boundaryField
{
    frontAndBack
    {
        type            empty;
    }
    wallOuter
    {
        type            kqRWallFunction;
        value           nonuniform List<scalar> 
90
(
0.468758
0.421392
0.413615
0.427511
0.478252
0.470428
0.474018
0.591907
0.404719
0.484957
0.514902
0.613931
0.499058
0.57067
0.532244
0.893629
0.537584
0.527246
0.518313
0.528193
0.503118
0.508779
0.509215
0.550813
0.505873
0.79486
0.753987
0.530124
0.530748
0.376629
0.336898
0.356932
0.396931
0.31489
0.289285
0.257521
0.0662824
0.0830384
0.500084
0.217364
0.065934
0.169183
0.80168
0.0547265
0.0704176
0.114914
0.0213419
0.654951
0.0659372
0.660257
0.776223
0.442245
0.461166
0.58935
0.537501
0.077442
0.0722555
0.583531
0.80174
0.385007
0.507829
0.0488461
0.0301638
0.882
0.636796
0.679059
0.889522
0.0324119
1.02884
0.0312036
0.5139
0.0330831
0.978889
0.0229381
0.930231
0.85689
0.43242
0.544501
0.0310399
0.782606
0.430756
0.96014
0.0296237
0.462319
0.418712
0.027636
1.0539
0.0423213
0.522012
0.394975
)
;
    }
    inlet
    {
        type            fixedValue;
        value           uniform 0.375;
    }
    outlet
    {
        type            zeroGradient;
    }
    wallInner
    {
        type            kqRWallFunction;
        value           nonuniform List<scalar> 
138
(
0.113904
0.0510545
0.812558
0.161163
0.0994682
0.25005
1.42102
0.569148
0.118844
0.0762047
0.605742
0.737835
0.0255318
0.144104
0.0773685
0.121221
0.162207
0.0958758
0.0535412
0.732464
1.86015
0.66279
0.047548
0.620284
0.644013
0.676275
0.57291
0.692745
0.600934
0.652096
0.630717
0.0574441
0.0357469
0.0192454
0.0462208
0.0230562
0.0900471
0.107347
0.110401
0.0651771
0.0484257
0.106231
0.106325
0.039738
0.0833691
0.0469864
0.0441646
0.054423
0.059441
0.067063
0.0310831
0.0412042
0.0511582
0.0492151
0.102488
0.119971
0.0674833
0.0216268
0.109117
0.0521274
0.0550422
0.0502607
0.0440703
0.0739693
0.058308
0.0186159
0.0413735
0.275928
0.699039
0.223532
1.36044
0.0681564
0.0926963
0.0775415
0.739254
0.0498364
0.762288
0.0459353
0.0532077
0.0645855
0.0550439
1.16957
1.49072
1.17099
1.0233
1.33349
0.109555
0.057466
0.613829
0.610033
0.0447198
0.027786
0.0609744
0.0316788
0.0734703
0.0741485
0.0292396
0.0407513
0.058112
0.316222
0.776826
0.198822
0.253018
0.101529
0.60898
0.0816033
0.112406
0.617309
0.0391722
0.0277778
0.0424654
0.712143
0.0926018
0.068134
0.0570973
0.585249
0.644115
0.0965167
0.891765
0.998305
0.0405295
0.0798574
0.778019
0.0892066
0.0369115
0.15063
0.732449
0.088531
0.0322386
0.125459
0.0781322
0.297256
0.751682
0.387306
0.140584
1.58812
0.129579
0.976229
)
;
    }
    procBoundary0to1
    {
        type            processor;
        value           nonuniform List<scalar> 
29
(
0.165384
0.274424
0.31711
0.31711
1.57178
1.57178
2.02397
0.501743
1.29997
0.481893
0.536342
1.07784
0.217309
0.128077
1.34116
0.62563
2.21627
2.10327
0.432159
0.258008
0.33388
0.225377
1.4616
0.293644
0.292031
2.10327
0.258896
0.820137
0.293644
)
;
    }
    procBoundary0to2
    {
        type            processor;
        value           nonuniform List<scalar> 
42
(
1.22095
0.970194
0.136187
0.118435
0.0352909
1.22095
0.136187
0.132227
0.0361232
0.0359038
0.0440453
0.0914474
0.0440453
0.176757
0.312136
1.16135
0.312136
0.0350291
0.0367148
0.211782
0.211782
0.0350291
0.0365357
0.228396
0.228396
0.0410242
0.549318
0.0447918
0.854632
0.821942
0.821942
0.0461834
0.0429211
0.0384808
0.0367608
0.136187
0.614164
0.0877627
0.854632
0.132227
0.0809601
0.0481724
)
;
    }
}


// ************************************************************************* //
