/*--------------------------------*- C++ -*----------------------------------*\
| =========                 |                                                 |
| \\      /  F ield         | OpenFOAM: The Open Source CFD Toolbox           |
|  \\    /   O peration     | Version:  v1912                                 |
|   \\  /    A nd           | Website:  www.openfoam.com                      |
|    \\/     M anipulation  |                                                 |
\*---------------------------------------------------------------------------*/
FoamFile
{
    version     2.0;
    format      ascii;
    class       volScalarField;
    location    "1";
    object      nut;
}
// * * * * * * * * * * * * * * * * * * * * * * * * * * * * * * * * * * * * * //

dimensions      [0 2 -1 0 0 0 0];


internalField   nonuniform List<scalar> 
1431
(
0.000733324
0.00402481
0.00226865
0.00151133
0.000604207
0.00156874
0.00140832
0.000786268
0.00752593
0.00642975
0.00131924
0.000518432
0.000664444
0.00132929
0.00568566
0.000697572
0.00505937
0.00108342
0.000197438
0.00119003
0.00058445
0.00700915
0.00290753
0.0014285
0.00143472
0.00103519
0.00138674
0.00123787
0.0010088
0.0012972
0.0014872
0.000726843
0.00194072
0.000621613
0.000478006
0.00198324
0.00082467
0.00085804
0.00201853
0.000856905
0.00237004
0.000677983
0.000844916
0.000641707
0.00364003
0.000793314
0.00236271
0.00081187
0.000895071
0.000869029
0.00122321
0.00462112
0.00529524
0.00148429
0.000934771
0.000771879
0.00245426
0.00280362
0.000995394
0.000484086
0.00334257
0.00104946
0.00229789
0.000783015
0.000904399
0.00114641
0.0023352
0.00113075
0.00350715
0.000750257
0.000559637
0.000426054
0.00111059
0.00161358
0.00171496
0.00117193
0.000819714
0.00296257
0.000784444
0.00206471
0.000805564
0.00116923
0.000452186
0.00287741
0.0020135
0.000720365
0.00102443
0.000799792
0.00153583
0.00120478
0.0013472
0.0010261
0.000999343
0.000861473
0.00117183
0.000792627
0.0016056
0.000728659
0.00105602
0.00112118
0.00432006
0.000805519
0.00130166
0.000834994
0.00113922
0.000885177
0.000785568
0.00300268
0.0021165
0.000664203
0.00233311
0.00138862
0.000755326
0.00107377
0.00116701
0.00080387
0.00104586
0.00620767
0.00165376
0.00279005
0.000858873
0.00427509
0.00392107
0.00138798
0.000831193
0.00143629
0.00178948
0.00119134
0.000994258
0.0008095
0.00136098
0.002846
0.00101132
0.00106874
0.000942008
0.00111409
0.00122444
0.00155777
0.00116793
0.00280078
0.00650611
0.00100473
0.000769691
0.000955672
0.00112189
0.000775377
0.000733546
0.00310816
0.00132924
0.000808713
0.000819001
0.000956195
0.00173861
0.000164851
0.000470056
0.00102644
0.000803014
0.000969153
0.00075616
0.000709552
0.00108835
0.00161091
0.0014543
0.00117185
0.00103599
0.00282972
0.000772044
0.000862973
0.00125978
0.0010571
0.00108036
0.00130755
0.00138034
0.000768927
0.000771468
0.000370237
0.000415928
0.00087537
0.00134008
0.000711627
0.000839384
0.00532575
0.000754166
0.00109922
0.00077317
0.00081645
0.000753063
0.00114771
0.000895791
0.000799379
0.00148638
0.00450117
0.000822719
0.000790309
0.00849364
0.000845622
0.00078499
0.000841523
0.00054711
0.000390121
0.000293419
0.000661336
0.000756165
0.00229992
0.000785856
0.00173266
0.000755462
0.000834267
0.00175202
0.000878797
0.000789509
0.000782853
0.00165563
0.000831647
0.000900891
0.00111347
0.000756962
0.00130345
0.00199389
0.000833731
0.000830303
0.00214663
0.000777081
0.00213098
0.000825604
0.000874959
0.000982173
0.00100074
0.000832056
0.00162409
0.000793644
0.00120353
0.000746947
0.000796607
0.000790248
0.000783506
0.000736543
0.00110033
0.000826855
0.00193198
0.000842062
0.000726195
0.00806301
0.00350563
0.00102676
0.000982883
0.000830309
0.000725434
0.000989353
0.000980471
0.000723792
0.00796395
0.00662434
0.00114913
0.0025767
0.00109286
0.000310667
0.00178059
0.00112836
0.00110222
0.00108106
0.00095519
0.00108709
0.00653181
0.000789878
0.000811417
0.00102924
0.000746388
0.00098687
0.00735219
0.000744673
0.00095167
0.000726591
0.000726533
0.00107037
0.000764865
0.00136522
0.00129239
0.00143029
0.00615819
0.00668255
0.00207342
0.00267065
0.00107179
0.0010262
0.00123443
0.000746124
0.000754665
0.000911427
0.000832551
0.000776455
0.000868773
0.000747594
0.00140639
0.000732706
0.000745166
0.000883464
0.000768099
0.00202367
0.000704664
0.000844122
0.00102466
0.000691706
0.000742345
0.000934791
0.00251501
0.000828571
0.00110018
0.00111034
0.000637662
0.000836147
0.000783628
0.00326479
0.0010531
0.00040461
0.00286123
0.00597615
0.0021232
0.000795168
0.00135285
0.00233565
0.000985346
0.00506113
0.00215231
0.00633881
0.00247294
0.000806684
0.00368275
0.00178038
0.000830966
0.00380203
0.00104996
0.00190181
0.00147233
0.000786165
0.008238
0.0011481
0.000954805
0.0011373
0.000787816
0.000296616
0.000822549
0.00386215
0.000935365
0.00181637
0.000226101
0.000826185
0.000182847
0.000296734
0.000215249
0.000501688
0.000371039
0.000453616
0.000363918
0.000267564
0.000546055
0.000412339
0.000236543
0.000401299
0.000223284
0.000304088
0.000356299
0.00034763
0.000339921
0.000294582
0.000269622
0.000320625
0.000296101
0.00294774
0.00290687
0.00345066
0.00175557
0.00141997
0.000763573
0.00129475
0.00164852
0.00480168
0.000842047
0.000848848
0.000477777
0.000390225
0.000361005
0.000251486
0.000437836
0.000364098
0.000333414
0.0003034
0.000247816
0.000385777
0.000319519
0.000183579
0.00278785
0.000894356
0.000848692
0.0023836
0.00159487
0.000921408
0.000834642
0.00513444
0.000772008
0.000240421
0.00466962
0.000832687
0.00114392
0.00396178
0.000789493
0.00200502
0.000726013
0.000568707
0.00372205
0.000830934
0.000565623
0.00151618
0.00215602
0.00102878
0.0010371
0.00547596
0.00717338
0.00135105
0.000771981
0.00216766
0.00229556
0.0063898
0.00152773
0.00157034
0.00571562
0.00189204
0.00446653
0.00607764
0.00522483
0.00532497
0.0013557
0.0005635
0.00278043
0.00221906
0.00593266
0.00296485
0.00271299
0.00115215
0.00224897
0.00151804
0.00132016
0.00223325
0.00178985
0.000332242
0.00342533
0.00455934
0.00123018
0.00038742
0.00422026
0.00339546
0.00568191
0.00413466
0.00649942
0.00268852
0.0063032
0.00549222
0.00496941
0.00595102
0.00222666
0.0030021
0.000318299
0.00211967
0.00176103
0.00208591
0.00172929
0.000536573
0.00294827
0.00148334
0.00163967
0.00260737
0.00103428
0.000742702
0.00108148
0.00116097
0.00119424
0.00263746
0.00259169
0.00407746
0.000260149
0.00162427
0.00103779
0.00109137
0.000800171
0.000834992
0.000933855
0.00165511
0.00578614
0.00412521
0.000267896
0.00029061
0.000303456
0.0010521
0.00313999
0.000279827
0.00104758
0.001272
0.00109447
0.000837181
0.000986916
0.00166027
0.00152474
0.00482193
0.00605481
0.00430906
0.000635194
0.000947211
0.00611849
0.00192072
0.00128815
0.00119141
0.000812612
0.000743811
0.00248569
0.000792414
0.00213268
0.00350209
0.00140019
0.00174673
0.00170175
0.000571656
0.00103776
0.000775485
0.000535706
0.00117938
0.00348855
0.00398943
0.00324441
0.000846133
0.00166607
0.000817134
0.000743222
0.00109596
0.000741798
0.00483412
0.00298019
0.00738374
0.00162136
0.00308562
0.00222119
0.00610872
0.00368446
0.00523123
0.00207675
0.000420231
0.00638083
0.00283354
0.000796002
0.00550296
0.000922179
0.000993297
0.000451072
0.00107744
0.00385443
0.00205993
0.0037813
0.00876849
0.00533112
0.00103843
0.000757938
0.00335749
0.00167475
0.00896918
0.00428334
0.00248835
0.000659963
0.00260673
0.000739774
0.00277048
0.00380423
0.000294341
0.00584605
0.00258572
0.00610571
0.00294332
0.000941118
0.00236329
0.00129441
0.00259579
0.00100008
0.00106422
0.000797992
0.00339542
0.00620636
0.000857649
0.00165025
0.00441016
0.000788991
0.00119359
0.000797144
0.00230425
0.0029518
0.000848189
0.000778959
0.00076889
0.00171765
0.00065477
0.00133856
0.000738547
0.000192736
0.00481134
0.00425452
0.000811924
0.00299975
0.00517474
0.00542842
0.00170844
0.000881321
0.00672692
0.00208413
0.00171593
0.00378441
0.000914915
0.00531475
0.00193738
0.000743797
0.00286729
0.00413421
0.00703894
0.00517468
0.000680046
0.00196144
0.00107581
0.00100419
0.00103616
0.000935191
0.000680755
0.000731719
0.00367812
0.000804595
0.00655902
0.00106291
0.000411001
0.000805421
0.00216381
0.0045466
0.00076173
0.000731726
0.0010862
0.00107476
0.00318726
0.00713113
0.000806541
0.00446109
0.000745845
0.00754268
0.00334376
0.00637283
0.00533834
0.00110059
0.00145334
0.00267918
0.000765457
0.00113082
0.00689083
0.00415235
0.00082046
0.000841102
0.00167193
0.00440674
0.00678432
0.000861931
0.00110451
0.0012562
0.000827594
0.000211371
0.000848106
0.00663369
0.00477989
0.00311098
0.000751298
0.000822006
0.00109493
0.00700265
0.00080567
0.000763155
0.00132319
0.000994548
0.00102298
0.00104287
0.00554246
0.000511651
0.00132377
0.00155748
0.00129437
0.00162155
0.00165896
0.00757104
0.00441336
0.00101487
0.00195961
0.00739646
0.00579727
0.00119662
0.00313099
0.000783821
0.000360043
0.000238151
0.000824506
0.000720572
0.00547914
0.000906274
0.000762546
0.000903802
0.000836329
0.00136113
0.00111933
0.0052905
0.00085032
0.00240842
0.00125559
0.000576968
0.00073034
0.00683051
0.00652112
0.000635498
0.00500866
0.00896801
0.000713327
0.00113712
0.000644476
0.000838957
0.000803571
0.00375293
0.000938822
0.000626305
0.00716484
0.00792382
0.000686728
0.000296273
0.00153925
0.00037307
0.000702939
0.000719204
0.00453209
0.000765189
0.000956993
0.000726912
0.00484796
0.00102837
0.00748107
0.00788402
0.000691276
0.000794945
0.000785237
0.000663513
0.000749027
0.000864336
0.00120969
0.000775627
0.00652214
0.000753827
0.000739173
0.000760975
0.00121467
0.00116964
0.000845058
0.000841514
0.000872568
0.00194695
0.00111585
0.0011995
0.00172107
0.00192575
0.000853441
0.00317899
0.000514331
0.00189886
0.000793591
0.000753681
0.00123536
0.00339859
0.000627724
0.000600728
0.000709238
0.000776806
0.000948686
0.00287248
0.00201735
0.0010692
0.000801434
0.000435586
0.000768944
0.00559346
0.000822425
0.00371693
0.000542567
0.000646981
0.00150952
0.00213727
0.00140637
0.000770922
0.000879495
0.000937146
0.000847844
0.000834501
0.000752908
0.000577193
0.00434138
0.000807442
0.00238856
0.00805162
0.000709275
0.00076937
0.000387782
0.00216853
0.00211362
0.00109694
0.0031079
0.000854063
0.000828779
0.000809221
0.00507277
0.00071638
0.00175005
0.000833792
0.000673716
0.000597324
0.000538643
0.000648957
0.000837384
0.000732227
0.000773797
0.00398263
0.000766689
0.000776549
0.00109803
0.00845887
0.000861892
0.000823656
0.000476654
0.000454898
0.000575107
0.000930087
0.000531038
0.00105172
0.00167024
0.00112449
0.000268218
0.00182096
0.000777959
0.000724075
0.00073167
0.000663799
0.0022975
0.000709768
0.000855516
0.00275419
0.00329275
0.000819421
0.00495867
0.00306579
0.00189115
0.000219374
0.00176711
0.000872069
0.00371402
0.00480394
0.000837721
0.000866456
0.000805844
0.00111026
0.0010258
0.00117893
0.00171739
0.000851053
0.00080306
0.000761327
0.000858998
0.000564934
0.000785636
0.00201449
0.000979692
0.0046002
0.000492052
0.00077772
0.00117757
0.000818007
0.0012417
0.000817934
0.000961654
0.00097811
0.00127009
0.000588237
0.000745916
0.000742767
0.000940217
0.00294027
0.00388634
0.00070894
0.000876485
0.00316121
0.00172422
0.000825245
0.000979885
0.00305381
0.000518934
0.000723214
0.00134199
0.000819594
0.00115115
0.00111785
0.00473828
0.00349415
0.000955077
0.000956032
0.000845125
0.00117782
0.000516215
0.000226054
0.00111459
0.000805413
0.00593654
0.00115729
0.00495607
0.00604621
0.00360934
0.000863469
0.00148039
0.000850905
0.00153152
0.000783579
0.0010189
0.000813972
0.000794155
0.00106211
0.000812846
0.000729961
0.00713602
0.000693999
0.00877409
0.000747502
0.00135321
0.000612491
0.000596176
0.000607647
0.000623791
0.000571937
0.000527486
0.00318884
0.000422746
0.000344374
0.00081901
0.000465356
0.000789301
0.000349242
0.0024295
0.000757556
0.00112728
0.000227126
0.006894
0.000322491
0.000733073
0.0026122
0.00380247
0.00102659
0.000403576
0.00103828
0.00265257
0.00112569
0.00505218
0.00740289
0.00137605
0.00114727
0.00380084
0.000230526
0.000363631
0.000894899
0.000230171
0.00318243
0.00532844
0.00470707
0.00328758
0.00096892
0.00630063
0.00543208
0.000815917
0.000234501
0.000305646
0.00161763
0.00511467
0.00078101
0.00207266
0.00256868
0.00303395
0.000758051
0.000373596
0.00313107
0.000148708
0.00105614
0.000321573
0.000823531
0.00196462
0.00369557
0.000830201
0.00106057
0.00935818
0.00089691
0.00232284
0.000642157
0.00095827
0.00101243
0.000810283
0.00106238
0.000887615
0.000776483
0.00158347
0.00497814
0.000845992
0.00147361
0.00620197
0.00692386
0.000812366
0.000727235
0.00098474
0.00301121
0.00240311
0.00472153
0.00115875
0.00714818
0.00631338
0.00343351
0.00210425
0.00257583
0.00107591
0.00114928
0.00242499
0.00115864
0.000674256
0.00261661
0.00562168
0.00695335
0.00238771
0.00283409
0.000565278
0.00644092
0.00274302
0.000837495
0.0014424
0.00155187
0.00127528
0.000643716
0.000789521
0.000469096
0.00157967
0.00172176
0.00304368
0.00715606
0.000750853
0.0067168
0.00134806
0.000624202
0.00728579
0.00504592
0.000923412
0.000674576
0.00107043
0.000786674
0.000296244
0.000748586
0.00164652
0.00525908
0.00084635
0.000780179
0.00077733
0.00127936
0.00138928
0.000777099
0.000840489
0.00719245
0.00107128
0.000797589
0.000822124
0.00209734
0.00082107
0.00123477
0.000296608
0.000779989
0.000791333
0.000802729
0.000316317
0.000599528
0.00116468
0.000528848
0.000746548
0.000353297
0.00103585
0.00103854
0.000794993
0.00843483
0.00111252
0.000743931
0.00118338
0.000767532
0.000534309
0.000203116
0.00087939
0.000833547
0.00103778
0.00245642
0.0019683
0.000184922
0.00136657
0.000884557
0.000451027
0.00086502
0.00650191
0.000823107
0.00065883
0.00080923
0.000451918
0.00689186
0.00137719
0.000699564
0.00158446
0.000907788
0.00409979
0.000664574
0.00106992
0.000800223
0.000740283
0.00108735
0.000790614
0.00017975
0.00091272
0.000178967
0.00129614
0.00124438
0.00154222
0.000989434
0.000788489
0.000232941
0.000801677
0.00954605
0.000442624
0.00127306
0.00228268
0.00104174
0.000876284
0.000471265
0.000534531
0.00115037
0.00918321
0.00717103
0.0015452
0.000799631
0.000813323
0.000400598
0.00175016
0.000821875
0.00299164
0.000637654
0.000426533
0.00785601
0.00100973
0.00116796
0.00592086
0.00115283
0.000515596
0.000835453
0.0013474
0.000162314
0.000470541
0.000665724
0.00723145
0.00159543
0.000771749
0.000521154
0.000474123
0.000152197
0.000840554
0.00159016
0.00803103
0.000803993
0.000838715
0.000839723
0.000786691
0.000227737
0.000476225
0.0043109
0.000619917
0.00323934
0.000745399
0.000965187
0.0034969
0.000827581
0.00313307
0.00890139
0.000592062
0.000540884
0.00113927
0.00222523
0.000870462
0.00018823
0.00557103
0.00753294
0.000870296
0.00547771
0.00121925
0.000739101
0.00752483
0.00251993
0.00242026
0.00114988
0.00748703
0.000881658
0.000851441
0.00107718
0.00651064
0.000842441
0.000819737
0.00162009
0.00714948
0.00143329
0.00115002
0.000701959
0.00275287
0.00179683
0.00181997
0.00160201
0.00149241
0.00718058
0.000473704
0.000337944
0.00498465
0.000744845
0.00173831
0.000741746
0.000772913
0.000844383
0.0009065
0.00203436
0.000584847
0.000903252
0.000161509
0.00603507
0.00107639
0.00092899
0.00178698
0.000704737
0.00110956
0.00319151
0.00158525
0.000938616
0.000820149
0.00621968
0.00103354
0.000464273
0.00298287
0.00072846
0.00103092
0.00097518
0.000790815
0.00112927
0.00325255
0.00579313
0.00217631
0.000622059
0.00699365
0.00104841
0.00113579
0.00154438
0.00374426
0.00516096
0.000769621
0.000844155
0.00570637
0.00238626
0.000928041
0.00582919
0.00535719
0.00137206
0.000479193
0.000828484
0.00139904
0.000814358
0.000875047
0.00103503
0.000839129
0.0010116
0.000645251
0.002992
0.00081883
0.000961765
0.00225408
0.00272317
0.00663716
0.00870257
0.00713975
0.0011661
0.0027755
0.00117014
0.00464576
0.000924593
0.000852049
0.00084589
0.00109495
0.00598858
0.00108574
0.000714472
0.00764468
0.000784839
0.0052272
0.00744494
0.00706054
0.00468221
0.00666907
0.00077464
0.00244787
0.00704013
0.000845336
0.000783007
0.000473488
0.00238086
0.00350996
0.000662869
0.00600876
0.00830879
0.000827122
0.00136234
0.000812914
0.000170407
0.00148721
0.00713233
0.00144161
0.00246565
0.00103922
0.000854959
0.00582848
0.00156374
0.00125116
0.00259577
0.000974682
0.00125554
0.000758313
0.00101537
0.00196702
0.000818335
0.00115928
0.000843889
0.000727136
0.00372111
0.00121626
0.000803558
0.00018528
0.00108226
0.00124726
0.000801576
0.00131473
0.000977051
0.00101937
0.000683365
0.00120935
0.00433043
0.00117058
0.0013269
0.00104872
0.000856837
0.000825221
0.00323121
0.00149151
0.0015224
0.000724605
0.00202231
0.00299122
0.00131229
0.000813771
0.000752526
0.000860906
0.000696424
0.00094614
0.000798402
0.00175995
0.00109621
0.00412692
0.00100025
0.00647132
0.00102705
0.000796372
0.00728928
0.00141972
0.00205635
0.00178168
0.00279679
0.000811335
0.0010268
0.00187813
0.000842951
0.00280739
0.000811239
0.00122455
0.00100039
0.00134711
0.000949483
0.00700659
0.0010954
0.00118099
0.0011169
0.000528624
0.00141457
0.000882589
0.000837268
0.000832023
0.00133693
0.00242898
0.00158143
0.000877313
0.000910033
0.000913131
0.000792345
0.00125229
0.00501357
0.00883732
0.00727747
0.000741078
0.000668934
0.00938477
0.00732031
0.00908025
0.00718462
0.0061336
0.00080267
0.000758789
0.00115132
0.000744002
0.000639482
0.000972221
0.0016519
0.000571093
0.000869269
0.00117075
)
;

boundaryField
{
    frontAndBack
    {
        type            empty;
    }
    wallOuter
    {
        type            nutkWallFunction;
        Cmu             0.09;
        kappa           0.41;
        E               9.8;
        value           nonuniform List<scalar> 
90
(
8.3999e-05
7.6748e-05
7.78053e-05
7.56635e-05
8.27576e-05
8.46513e-05
8.65452e-05
9.41795e-05
8.00418e-05
8.88627e-05
9.13842e-05
9.51399e-05
9.05416e-05
9.3209e-05
9.23035e-05
0.000104952
9.97474e-05
8.12377e-05
7.22327e-05
6.52247e-05
7.83324e-05
0.000100158
8.80553e-05
9.28627e-05
8.00753e-05
0.000113503
0.000113602
8.77927e-05
8.36022e-05
7.40034e-05
7.20728e-05
7.34306e-05
7.53393e-05
6.9193e-05
6.38729e-05
5.63462e-05
2.57642e-05
3.85908e-05
8.81278e-05
4.8743e-05
2.63693e-05
4.37559e-05
0.000106682
2.62825e-05
2.69787e-05
3.63824e-05
1.45685e-05
0.000124788
3.8261e-05
0.000106932
0.000116833
8.12737e-05
7.54149e-05
9.35887e-05
9.83857e-05
3.77534e-05
4.23505e-05
0.000122525
0.000122847
8.94116e-05
6.47037e-05
2.22362e-05
2.01173e-05
0.000105514
9.69351e-05
8.42519e-05
0.000108161
1.98117e-05
0.000108705
1.86481e-05
6.24443e-05
1.70029e-05
9.26214e-05
1.54065e-05
9.6316e-05
7.49063e-05
7.16076e-05
0.000103929
2.07843e-05
0.000103894
5.73644e-05
0.000107633
1.70166e-05
7.51619e-05
7.78693e-05
1.8035e-05
9.6267e-05
2.01575e-05
8.23665e-05
8.38912e-05
)
;
    }
    inlet
    {
        type            calculated;
        value           uniform 0.000851986;
    }
    outlet
    {
        type            calculated;
        value           nonuniform 0();
    }
    wallInner
    {
        type            nutkWallFunction;
        Cmu             0.09;
        kappa           0.41;
        E               9.8;
        value           nonuniform List<scalar> 
138
(
6.27239e-05
2.24115e-05
0.000219907
7.45277e-05
5.74834e-05
8.14169e-05
0.000260586
0.000133499
6.72185e-05
5.12422e-05
0.000137653
0.000119819
1.77043e-05
5.6599e-05
4.41338e-05
5.02692e-05
6.5579e-05
4.63665e-05
3.44806e-05
7.97867e-05
0.000239549
0.000128904
3.68461e-05
0.000132835
0.000129942
0.000127594
0.000121823
0.000126405
0.000121483
0.000129716
0.000130842
3.46952e-05
2.60956e-05
2.00245e-05
3.46635e-05
2.49909e-05
6.06823e-05
4.46543e-05
5.49112e-05
4.35621e-05
3.15334e-05
6.6005e-05
4.98955e-05
2.74738e-05
4.81624e-05
2.56302e-05
3.60277e-05
4.30145e-05
4.15297e-05
4.05505e-05
3.42085e-05
3.15196e-05
3.81075e-05
3.53484e-05
5.74002e-05
4.72919e-05
4.33096e-05
2.92216e-05
5.30136e-05
4.40705e-05
3.97322e-05
3.62546e-05
2.89015e-05
4.62386e-05
3.78073e-05
2.01172e-05
2.78635e-05
6.81909e-05
0.000122662
6.79277e-05
0.000154038
3.99825e-05
4.66304e-05
3.81817e-05
0.000127597
3.04932e-05
0.000128691
3.13836e-05
3.44639e-05
3.61279e-05
3.30021e-05
0.00014852
0.000175784
0.000150539
0.000139932
0.000162416
5.09931e-05
5.46692e-05
0.000127191
0.000122848
3.47488e-05
2.15818e-05
4.92238e-05
2.41178e-05
6.2122e-05
4.3181e-05
2.73615e-05
3.50611e-05
4.45141e-05
8.32877e-05
0.000131739
6.20469e-05
8.50958e-05
5.28704e-05
0.000111463
4.67013e-05
5.76922e-05
0.000132408
3.15459e-05
2.55403e-05
2.63865e-05
0.000125486
5.10561e-05
4.12414e-05
4.17893e-05
0.000115025
9.10352e-05
4.49329e-05
0.000113981
0.00011988
3.50933e-05
3.50517e-05
9.3575e-05
5.47465e-05
2.73436e-05
5.34104e-05
9.74001e-05
4.82706e-05
2.66525e-05
5.75445e-05
4.02513e-05
8.06748e-05
0.000135344
8.94156e-05
7.69309e-05
0.000189375
6.9017e-05
0.000137737
)
;
    }
    procBoundary0to1
    {
        type            processor;
        value           nonuniform List<scalar> 
29
(
0.0011802
0.00208386
0.00209654
0.00209654
0.00511466
0.00511466
0.00296341
0.00127026
0.00190486
0.00248869
0.00170485
0.00193595
0.000824712
0.000634627
0.00230262
0.00131232
0.00788275
0.00579549
0.0029398
0.00194445
0.000878796
0.000733547
0.0031874
0.000742774
0.000728922
0.00579549
0.000729148
0.000916676
0.000742774
)
;
    }
    procBoundary0to2
    {
        type            processor;
        value           nonuniform List<scalar> 
42
(
0.00668395
0.0067664
0.0010483
0.000874461
0.000859191
0.00668395
0.0010483
0.00108311
0.000861041
0.000663671
0.000834044
0.00146284
0.000834044
0.00266804
0.00420625
0.00567038
0.00420625
0.000578794
0.000780162
0.00142296
0.00142296
0.000578794
0.000595955
0.000890425
0.000890425
0.000568047
0.001917
0.000612694
0.00334342
0.0065779
0.0065779
0.00067642
0.000730428
0.000751932
0.000701479
0.0010483
0.00594818
0.000358195
0.00334342
0.00108311
0.000803614
0.000651019
)
;
    }
}


// ************************************************************************* //
