/*--------------------------------*- C++ -*----------------------------------*\
| =========                 |                                                 |
| \\      /  F ield         | OpenFOAM: The Open Source CFD Toolbox           |
|  \\    /   O peration     | Version:  v1912                                 |
|   \\  /    A nd           | Website:  www.openfoam.com                      |
|    \\/     M anipulation  |                                                 |
\*---------------------------------------------------------------------------*/
FoamFile
{
    version     2.0;
    format      ascii;
    class       volScalarField;
    location    "0.64";
    object      epsilon;
}
// * * * * * * * * * * * * * * * * * * * * * * * * * * * * * * * * * * * * * //

dimensions      [0 2 -3 0 0 0 0];


internalField   nonuniform List<scalar> 
1466
(
0.696057
0.672933
0.179213
0.567265
2.0575
12.0032
5.05454
2.69902
11.4306
2.57075
2.67393
1.32773
0.150912
0.653694
0.313619
0.690013
1.04187
0.717534
3.1424
0.642897
0.564493
2.57186
0.855268
0.679379
0.628138
0.363507
0.446859
0.783772
2.7284
2.95772
2.71943
8.14033
2.065
4.88201
0.439143
0.371447
0.291996
0.386479
10.0242
1.87993
1.44315
0.948855
11.4725
3.99762
1.65103
10.6263
0.306351
0.820555
1.06242
0.502245
0.179608
4.59663
2.34478
14.3401
2.52536
1.45551
0.378334
0.725067
0.674737
1.74192
0.690716
2.20606
1.56878
9.52448
0.643981
0.816562
1.29956
0.596494
0.574069
2.46018
0.220274
0.590057
0.516748
0.553789
0.412754
2.74453
0.625258
0.668018
2.8462
1.61272
0.148597
0.539256
0.388212
1.15271
0.59416
0.400487
0.603108
0.828754
0.441984
0.524379
0.525634
0.840492
1.57984
0.610796
0.194781
0.561522
1.00115
0.644734
0.919348
0.582812
3.94483
0.986436
0.149885
0.481145
0.354756
11.1808
0.584883
0.393907
1.05738
0.47847
0.629506
0.418811
0.435096
0.389022
0.175109
15.1522
0.669354
0.644834
0.636496
0.691219
0.584228
0.630229
0.378343
0.928956
0.472753
2.0283
0.227621
0.417189
2.03957
1.48594
1.08755
0.682238
0.221639
1.24027
0.173288
1.41949
0.884077
0.45245
2.22935
0.767721
3.07099
0.840408
2.30255
0.973766
1.92536
0.967374
0.499925
0.38335
1.27534
0.556756
2.31703
0.342973
0.442532
0.832709
0.499414
0.59585
0.608155
6.85951
0.773628
0.320779
1.02708
0.73256
0.41014
0.574425
0.973262
1.27518
2.75932
0.604756
0.688271
0.521076
0.524764
0.377489
0.261857
1.3016
0.436045
0.851705
0.996925
2.03605
0.316596
1.81142
0.6183
0.390727
1.32368
0.606149
0.953171
0.559291
0.457982
13.3857
0.437639
0.613887
0.856372
1.15147
0.817348
0.560834
0.349846
0.633566
2.66195
0.426221
0.400563
0.471202
2.77686
0.423704
0.377212
0.702875
0.398499
1.30433
0.42946
9.50185
0.335567
0.619605
0.496242
3.65014
0.40171
0.461821
0.76413
0.466969
0.140918
0.278742
0.639269
0.518452
2.41677
0.651455
0.670483
0.316603
1.35439
0.321072
0.458826
0.749007
0.515079
7.87082
0.439333
0.692874
0.444065
0.676366
0.35337
0.493538
0.666623
2.33364
0.752123
0.615319
10.4842
0.873837
0.798302
0.841226
1.07594
0.51495
0.410053
0.8013
0.192398
0.657126
0.488553
1.75309
1.39073
0.757834
0.430606
1.89102
0.401135
1.33127
15.2965
2.81839
0.474114
0.424714
2.59537
0.267087
16.513
0.387802
11.4454
1.42382
0.426352
0.548341
1.50509
0.622827
0.319969
0.416434
0.414362
0.698995
0.594671
0.600841
0.453324
1.17746
0.482296
0.307551
0.746465
0.249683
0.547181
0.214889
0.53502
0.724935
1.58263
0.715542
0.340379
11.2834
0.70244
2.3975
1.6803
0.472291
14.1502
21.4838
0.41866
0.428117
0.514701
4.27719
0.29763
0.787912
0.405289
0.389172
0.204123
0.928515
0.377386
21.2767
7.79257
0.227808
0.489115
1.50333
1.33862
0.384452
1.66109
0.381748
2.56387
0.337688
0.321679
1.22637
1.4551
0.81469
0.484152
0.376782
0.155294
0.643402
0.302564
0.139732
0.686961
0.701405
0.120941
0.216358
0.548184
0.780271
0.586465
0.543283
0.457706
0.14001
0.652652
0.595705
0.144002
0.293265
0.425932
0.270271
0.579191
0.600765
0.606187
2.51971
1.70833
0.432883
1.56328
0.792083
0.832995
0.391823
3.02411
0.544171
17.6339
0.512631
1.01732
1.34521
1.21035
0.236635
0.862093
0.486991
0.223835
0.143982
0.538437
0.548005
0.183155
0.541686
0.508112
0.743657
0.231728
0.618438
0.247464
14.1359
0.572711
0.635884
0.287198
1.46719
1.59971
0.208216
1.23411
0.568157
0.57986
0.492961
0.501028
1.38932
1.78372
1.09828
1.26835
16.6527
0.523825
0.353367
1.25759
0.290643
0.337264
0.349653
1.35027
0.215565
1.37022
0.355937
2.05168
0.602794
1.37404
15.0284
0.56492
0.387418
0.507332
1.61015
0.591067
1.911
10.9689
2.43288
1.62346
0.79467
1.77531
2.15645
0.960669
1.22087
2.37621
2.41723
2.24658
2.31809
2.15081
2.3541
2.66662
3.12307
0.573841
0.447894
2.15409
8.46977
33.635
11.4246
9.1135
2.97551
0.522232
0.558154
11.1252
1.17495
6.75883
0.503326
0.494796
6.76951
1.25485
2.17932
20.5714
0.632339
22.8386
8.01568
0.566374
1.5139
7.29946
0.73203
3.36935
5.65471
1.36429
0.568177
5.47725
2.16714
1.79577
0.737323
6.47933
6.10538
10.9591
0.49469
0.375923
0.463629
7.98272
0.507337
0.638684
0.686632
6.72333
3.24823
0.815525
0.535367
4.80493
6.94566
0.353895
0.550543
6.29961
0.559023
5.25206
0.348735
0.539197
0.186747
5.32925
2.86872
6.84905
0.434686
0.599257
0.18805
2.56355
6.77693
6.90958
5.62329
7.24948
8.86622
0.389639
0.579422
1.26151
1.17147
0.195587
1.03954
2.66735
0.518386
0.579458
0.496914
0.902395
8.83118
0.570445
0.559641
0.503536
0.47814
0.426743
0.534138
1.1575
0.851015
1.33551
12.7358
4.51286
26.5106
24.925
1.19233
5.49704
3.67306
0.855092
0.179216
0.562623
1.1823
0.516458
0.535395
0.53025
4.28977
1.17781
6.89796
0.43896
0.838817
5.41416
9.11631
2.32723
7.09482
0.485374
0.51427
0.336633
15.3466
11.0302
0.354384
0.591328
0.356043
9.08206
1.88359
1.16804
4.03124
0.571435
0.390077
1.88845
0.966828
0.574885
0.682837
1.40662
15.2333
2.36434
2.1464
0.335612
0.516646
0.490542
16.8311
0.423147
0.707078
0.52805
1.42513
0.21436
0.666652
3.55979
0.216665
0.488194
0.608532
1.0249
0.579714
1.33945
1.18511
0.31676
26.4925
10.6779
0.406709
18.9459
1.0562
0.405561
0.868592
2.24772
0.145591
0.389017
0.532058
1.24003
2.41909
14.6453
1.06417
20.5013
0.285808
0.550952
0.133936
0.305294
2.22266
1.59707
0.534151
10.3155
17.3561
2.2608
13.483
1.93256
13.613
0.203198
0.255427
13.8245
0.727962
1.29425
0.192234
0.425369
0.374128
2.83479
2.12902
0.378068
0.80099
0.650871
0.512765
0.444049
13.6901
2.25317
16.2356
0.147432
0.392097
1.20832
2.44254
1.28702
11.0988
0.310481
0.504913
0.487556
3.39548
0.382195
0.583022
0.371415
1.15234
0.138739
1.99526
12.5655
0.513035
0.533538
18.2865
2.45772
4.7437
0.530706
2.8557
10.7391
1.11142
0.532176
0.148976
0.673404
12.9411
1.26364
2.36775
8.07323
11.2307
1.38305
0.433341
15.6979
1.96154
0.533571
0.445189
0.443414
0.139426
0.433593
0.841461
1.0992
13.144
0.339348
1.05666
0.218525
0.391886
0.246513
0.130215
0.88776
0.14248
9.09746
0.555845
0.31792
0.454125
0.493229
0.47558
0.584704
1.28873
7.46416
0.392877
1.38244
0.331256
1.47673
2.38895
0.571904
0.129639
2.03914
4.47004
2.31372
0.709203
2.02233
15.2487
0.529273
0.23637
0.429351
0.167349
2.3081
0.220892
0.487138
0.729747
1.73798
18.1741
0.412797
0.492985
0.905804
1.83712
0.454929
1.90032
12.4651
0.368711
0.988296
0.562663
2.08013
1.42217
0.938213
0.398931
1.60708
0.924126
0.67487
9.04694
1.09637
0.42398
0.906477
22.1443
0.314622
1.20907
0.207987
0.419886
0.538081
0.648113
0.819813
0.145925
2.44255
1.17583
0.166848
0.897653
0.269943
2.02291
1.30272
1.11536
17.8399
5.22886
0.189615
0.428189
1.06766
0.224593
1.72909
0.304545
0.54664
4.44353
3.73999
0.977125
0.149676
0.199898
1.16798
15.3082
2.75805
0.149278
2.30923
0.519013
0.357624
1.25078
0.463822
6.70392
10.5354
3.2674
0.264019
0.689463
2.46597
1.11579
0.309259
0.545244
1.31598
0.941631
0.703069
0.391347
0.209722
0.619101
0.641182
1.54155
13.8252
0.616746
2.33344
0.410963
0.446854
0.945469
0.360853
0.217884
0.170671
0.284369
1.83257
0.332081
0.267764
2.48194
14.7802
0.213182
0.579434
1.52222
0.66947
9.59098
0.590098
0.335417
0.839548
9.08739
14.0555
0.326777
1.59192
2.46045
0.822172
0.807529
0.752451
0.366691
0.432158
0.200059
0.44894
2.11297
0.251197
0.902453
0.360713
0.400562
4.42775
1.95745
0.45892
6.83211
0.275894
0.361026
1.97342
1.3462
0.32309
2.21738
1.4798
1.32911
1.14804
2.38629
3.8526
1.22332
1.05578
3.13625
0.548428
0.184105
1.01893
0.754271
0.247876
1.14913
11.0544
0.212533
9.88516
0.792437
0.444322
0.243237
0.616936
0.552986
1.08032
0.202908
0.412154
0.945401
1.25537
5.26601
0.196846
0.333063
0.487607
0.562089
12.7826
1.08568
0.578924
0.178219
0.852733
0.533145
0.667612
0.210335
0.830403
4.12733
1.30448
3.2913
0.909427
0.33613
0.362206
0.589514
0.414729
13.1719
0.315011
0.359505
0.556497
0.629604
0.794535
0.55418
0.840584
0.5963
1.14635
0.927707
0.37445
0.376717
1.25953
0.133161
0.65618
0.213703
1.17865
0.869309
1.37342
0.275491
1.65804
0.461173
0.610819
0.456791
0.51945
0.450211
0.791816
5.6222
3.76766
0.66914
0.555939
0.533479
1.47856
0.581088
0.467254
0.564292
0.984102
0.883744
0.18696
12.4857
0.434295
1.82158
0.532204
0.380292
0.368147
0.309888
0.306406
0.831459
0.738851
0.905551
0.96289
0.418102
1.08062
1.12791
0.41765
0.379767
0.339785
0.889872
0.320066
0.300337
1.61718
0.210505
1.25944
0.713487
1.11015
13.9365
1.52277
0.717606
0.642181
0.237948
2.76664
0.586453
0.184126
0.559717
1.20141
0.974089
0.556689
0.172937
0.992852
1.22642
0.496796
0.304671
1.08048
0.738917
2.44104
5.60857
13.5263
7.2478
0.552238
0.159906
2.12917
0.372366
0.436774
0.727879
0.810642
2.07737
1.16456
1.07538
0.888075
0.186394
0.943717
22.7203
1.73096
11.6679
1.13047
1.08696
1.95825
0.553881
1.24849
0.723489
0.72569
12.3389
0.751988
0.905922
0.554912
1.22731
0.739685
2.0216
0.396125
1.72972
0.519853
0.366437
0.609795
1.39992
0.34204
0.61323
23.485
7.16748
6.60492
1.09379
2.9135
0.706777
2.2058
9.64728
0.508011
0.136469
8.47183
0.749403
0.938509
2.01407
14.8818
0.12217
0.566198
4.17371
13.2728
0.1001
0.420026
0.364893
0.723573
1.08562
1.30247
0.168938
1.5478
0.526043
0.403634
0.168206
0.230398
5.06847
1.21772
1.97368
12.4161
0.156114
0.531888
7.55477
12.4071
0.550834
0.178779
0.237821
0.473048
0.333153
0.399823
17.0456
0.768035
1.39255
0.48621
0.913734
0.467384
0.390755
14.9603
0.464173
1.22616
3.44713
0.131953
1.5246
2.03678
0.78558
0.78704
0.81191
0.167602
1.55189
13.1913
1.73989
0.153194
0.484135
0.811082
1.79205
0.528164
14.1882
1.04606
0.659292
1.05264
0.464963
1.43842
0.525524
0.649364
0.82959
0.450604
0.624439
0.575566
0.135325
0.188081
0.828329
0.816357
1.22285
0.41388
0.954742
0.352109
0.649135
0.607374
1.14023
0.849651
0.507634
0.395445
0.919461
0.633863
0.346247
1.48078
0.241452
0.798262
0.484556
0.432664
0.134154
1.37105
0.601931
0.406885
2.03127
0.26287
1.48814
0.457286
0.523818
2.13947
1.12638
18.7079
0.271947
1.21514
0.666108
0.554686
0.694151
0.53029
4.29785
0.157042
0.680018
1.5002
0.884684
0.728941
0.949487
0.38671
0.505293
0.937881
0.938841
1.08943
0.361112
4.53551
0.320515
0.15913
0.73004
11.8319
1.07153
1.70537
0.227054
0.935536
0.687325
0.212131
0.164031
1.16341
0.434988
12.4064
0.269897
1.22383
3.73186
8.40525
1.07253
0.683749
0.633487
0.833581
0.765935
0.623502
0.75912
1.04439
0.164546
0.688297
0.689593
0.904898
0.734234
0.540006
0.315143
0.7758
1.09575
0.427614
18.3193
2.65619
0.833713
0.161402
2.89889
0.308507
0.374503
11.0045
0.370777
0.53087
0.41985
0.455605
18.8499
0.307052
12.8738
0.712609
0.524865
0.168843
0.788434
14.6957
0.370706
1.02135
1.47619
1.27429
1.01966
2.15585
0.715414
0.74572
0.332293
0.284939
0.59732
1.16202
24.5323
3.21425
0.694612
0.406478
0.372892
0.196001
0.31225
0.639512
2.00767
0.18281
6.06326
0.624927
0.212985
2.35818
0.506617
14.2376
20.4966
1.0054
18.7275
0.485483
0.291319
0.161027
0.366561
3.64266
13.664
1.33042
9.36656
1.26048
0.639853
0.447301
4.29062
1.63809
0.605827
2.18209
0.560544
0.473371
0.737332
1.39886
0.501356
0.475743
2.33041
0.73242
0.39324
0.628548
0.824315
2.17856
0.203991
25.3055
4.88171
9.91194
0.673099
0.323523
0.445438
0.18692
2.16187
5.85852
16.8113
0.433712
0.268847
1.32696
1.30001
0.788374
0.466907
1.19813
21.6435
5.3782
0.259412
10.8117
6.04712
1.24814
0.15768
1.87276
0.556904
0.785369
9.86484
0.150545
0.675963
0.412543
1.96639
0.700829
7.49379
0.125174
0.851538
1.28702
0.595731
0.594873
1.19423
0.264733
1.69848
0.153586
3.63552
0.4061
12.4636
0.400067
1.94199
1.86423
0.376199
1.56564
1.484
0.157962
3.77306
0.782852
6.19572
0.558871
13.4049
0.427258
0.409412
2.49716
1.24095
0.974504
0.431669
0.392406
0.507757
0.971007
0.588676
1.0831
0.436174
0.443046
0.809944
0.460156
0.167452
0.427715
0.325042
1.31557
0.824725
1.48618
0.425714
0.44524
0.789685
1.17647
1.91438
0.192384
0.822609
0.427587
0.380207
0.656416
0.191385
0.392454
0.708621
0.192104
2.41044
17.0001
0.150513
0.402533
0.572079
0.470102
0.35001
0.770463
0.555877
0.89242
1.0564
0.473653
0.242845
0.403226
0.366349
0.621282
0.423727
4.56531
0.596805
0.785462
0.811636
0.352494
0.621066
0.459506
0.791322
0.184212
0.808918
0.351651
0.183792
0.44231
0.321783
1.801
0.149328
1.82486
3.0113
13.8548
0.436266
0.345792
2.13055
0.144843
3.31421
0.665685
0.628963
0.62462
0.639676
0.98357
0.343168
0.667375
0.755516
0.640135
1.97857
21.7675
3.11806
8.8714
0.482377
0.356625
0.558139
0.538311
1.96111
3.58541
0.566821
0.433136
0.234749
0.691428
0.763747
0.435182
0.862341
0.520502
0.800407
0.907014
0.866796
0.708782
0.696064
0.727084
2.93372
0.406789
1.67194
1.46584
0.219105
0.547872
0.65787
0.445955
0.487123
5.09505
0.0990262
1.65693
10.9959
12.0115
0.62239
0.700032
11.2112
0.20692
25.2163
2.25102
12.0977
4.25854
7.66152
3.25416
3.11327
)
;

boundaryField
{
    frontAndBack
    {
        type            empty;
    }
    wallOuter
    {
        lowReCorrection 0;
        type            epsilonWallFunction;
        value           nonuniform List<scalar> 
102
(
0.150912
0.150912
0.855268
0.412754
0.175109
0.377386
0.523825
0.246513
0.924126
0.67487
1.09637
0.42398
1.20907
0.207987
0.419886
0.538081
0.819813
0.897653
1.06766
0.977125
0.149278
0.264019
0.689463
0.410963
0.446854
0.822172
0.807529
0.548428
1.14913
0.869309
0.275491
0.380292
0.368147
0.309888
0.306406
0.831459
0.738851
0.905551
0.96289
0.418102
1.08062
1.12791
0.41765
0.379767
0.339785
0.320066
0.300337
0.713487
1.11015
1.20141
0.556689
1.22642
1.08048
1.16456
1.07538
0.943717
1.13047
1.08696
1.22731
0.739685
0.749403
0.12217
0.1001
0.168938
1.21772
0.237821
0.913734
0.78558
0.78704
0.659292
0.649364
0.82959
0.188081
0.828329
1.22285
1.14023
0.633863
0.798262
1.37105
1.12638
1.21514
0.157042
0.937881
1.08943
1.07153
1.16341
1.22383
1.04439
1.09575
1.16202
0.73242
0.39324
0.15768
0.150545
0.125174
1.19423
1.24095
1.0831
0.809944
0.150513
0.770463
0.89242
)
;
    }
    inlet
    {
        type            fixedValue;
        value           nonuniform 0();
    }
    outlet
    {
        type            zeroGradient;
    }
    wallInner
    {
        lowReCorrection 0;
        type            epsilonWallFunction;
        value           nonuniform List<scalar> 
138
(
2.67393
1.04187
2.7284
2.95772
4.59663
2.34478
14.3401
2.52536
2.20606
0.840492
3.94483
0.481145
0.378343
3.07099
0.840408
0.967374
0.499925
0.604756
0.613887
0.856372
1.15147
0.278742
0.798302
0.51495
0.410053
0.8013
0.192398
0.657126
16.513
0.307551
0.746465
0.724935
0.81469
0.484152
0.376782
0.155294
0.643402
0.302564
0.139732
0.686961
0.701405
0.120941
0.216358
0.548184
0.780271
0.586465
0.543283
0.457706
0.14001
0.652652
0.595705
0.144002
0.293265
0.425932
0.270271
0.579191
0.600765
0.544171
0.236635
0.862093
0.486991
0.223835
0.143982
0.538437
0.548005
0.183155
0.541686
0.508112
0.743657
0.231728
0.618438
0.247464
0.635884
0.349653
1.35027
0.591067
1.911
1.22087
33.635
11.1252
1.36429
6.10538
0.463629
0.815525
0.535367
2.56355
7.24948
8.86622
1.26151
26.5106
24.925
0.855092
0.336633
3.55979
0.405561
0.868592
2.83479
0.392097
2.36775
0.433593
0.841461
0.31792
0.167349
0.906477
0.314622
2.75805
0.941631
0.284369
0.213182
0.335417
0.902453
6.83211
0.275894
0.754271
0.945401
0.927707
0.18696
0.210505
0.237948
0.905922
23.485
7.16748
0.938509
1.5246
1.04606
0.346247
0.884684
0.949487
0.935536
0.833581
1.01966
3.31421
25.2163
2.25102
4.25854
7.66152
3.25416
3.11327
)
;
    }
    procBoundary2to0
    {
        type            processor;
        value           nonuniform List<scalar> 
42
(
26.3097
26.3097
0.408136
0.362503
2.28125
20.6965
0.493759
0.493759
1.173
0.427761
5.86354
5.86354
3.57311
8.25941
12.2495
18.3161
19.945
0.397877
0.592072
6.29261
5.32547
0.368772
0.368772
6.18544
5.32547
0.471554
9.86968
0.476026
9.86968
29.1027
24.8902
0.434154
0.341969
0.255422
0.236796
0.362503
19.945
0.473494
17.8512
0.434894
0.434894
0.284608
)
;
    }
    procBoundary2to1
    {
        type            processor;
        value           uniform 8.59023;
    }
    procBoundary2to3
    {
        type            processor;
        value           nonuniform List<scalar> 
29
(
2.33034
2.28335
1.49913
1.58209
10.7395
1.23562
4.19709
2.11282
1.81761
1.5398
1.1792
8.49781
1.66186
3.01966
3.37203
3.06874
1.74838
1.74838
2.28335
3.01966
3.17619
1.69921
2.01447
1.66428
3.49756
1.57795
1.81761
8.87515
8.49781
)
;
    }
}


// ************************************************************************* //
