/*--------------------------------*- C++ -*----------------------------------*\
| =========                 |                                                 |
| \\      /  F ield         | OpenFOAM: The Open Source CFD Toolbox           |
|  \\    /   O peration     | Version:  v1912                                 |
|   \\  /    A nd           | Website:  www.openfoam.com                      |
|    \\/     M anipulation  |                                                 |
\*---------------------------------------------------------------------------*/
FoamFile
{
    version     2.0;
    format      ascii;
    class       volScalarField;
    location    "0.64";
    object      k;
}
// * * * * * * * * * * * * * * * * * * * * * * * * * * * * * * * * * * * * * //

dimensions      [0 2 -2 0 0 0 0];


internalField   nonuniform List<scalar> 
1466
(
0.0802376
0.0808274
0.0306357
0.0580653
0.172138
0.402352
0.221109
0.218711
0.816968
0.217012
0.124186
0.177629
0.0141199
0.064513
0.0521674
0.074306
0.0473397
0.071842
0.280502
0.0593899
0.0980631
0.282276
0.0481842
0.0766237
0.066487
0.0788412
0.0949793
0.125701
0.127398
0.135748
0.228561
0.500215
0.243771
0.266869
0.0631004
0.0578791
0.0416212
0.0497014
0.534282
0.20509
0.183773
0.168358
0.755586
0.268858
0.181291
0.595584
0.0553786
0.0625412
0.180568
0.0894207
0.0329817
0.180228
0.117529
0.365461
0.125023
0.214344
0.0480145
0.100039
0.104599
0.246325
0.0723496
0.115966
0.147922
0.424648
0.090042
0.0727816
0.192252
0.0999699
0.0684568
0.247464
0.0526022
0.0642274
0.0488105
0.0624598
0.0278162
0.295199
0.0682997
0.0734981
0.173474
0.223024
0.0297446
0.0561686
0.0641356
0.187679
0.0561872
0.070308
0.0588528
0.115077
0.0515194
0.0677141
0.0539326
0.0547513
0.207297
0.0621649
0.0366317
0.0859493
0.0987489
0.100219
0.094234
0.0549052
0.176945
0.153475
0.0321587
0.0387707
0.0637861
0.69622
0.0909878
0.0667444
0.110433
0.0605044
0.0993828
0.0593151
0.0625796
0.0493689
0.0164495
0.971016
0.0462941
0.0554761
0.0760901
0.105724
0.0862367
0.0814161
0.0330076
0.117304
0.0552698
0.257058
0.0413559
0.0440227
0.256281
0.214469
0.169
0.0719629
0.0404296
0.178967
0.0368906
0.191984
0.159326
0.0541231
0.195351
0.0522545
0.143302
0.0538678
0.281247
0.137921
0.190263
0.0565882
0.0366973
0.0515222
0.155191
0.0516802
0.283273
0.0552027
0.061378
0.0908662
0.0549249
0.0856034
0.0684828
0.647901
0.106523
0.0474308
0.148782
0.0634311
0.0603312
0.0876713
0.160669
0.167161
0.31668
0.039399
0.0715748
0.105973
0.0790223
0.0642728
0.0441229
0.136079
0.0904617
0.0998197
0.170345
0.266323
0.0508522
0.236956
0.0748361
0.0711969
0.190955
0.0628532
0.118062
0.052106
0.0752654
0.828847
0.0668693
0.0418547
0.045269
0.0567991
0.0711996
0.0809657
0.0654132
0.0697833
0.2097
0.0592736
0.0536009
0.0560117
0.282417
0.0696565
0.0661971
0.0709322
0.0590997
0.209055
0.0746358
0.349579
0.0516656
0.0724607
0.0685112
0.368639
0.0641914
0.0559172
0.0847011
0.0728952
0.0305332
0.0251
0.0584307
0.0598903
0.29572
0.0822225
0.069182
0.0541708
0.1325
0.0541469
0.0508769
0.0791135
0.05619
0.633143
0.0564343
0.104092
0.0511289
0.122065
0.0582815
0.066902
0.118759
0.173219
0.125831
0.0698622
0.774058
0.136091
0.0546069
0.150527
0.183591
0.0375402
0.0379095
0.0515274
0.0195813
0.0443749
0.0535392
0.234821
0.214263
0.109228
0.0514147
0.246708
0.0508141
0.20464
0.910317
0.284106
0.0584281
0.0525267
0.304354
0.0431352
0.416508
0.0568484
0.801357
0.159274
0.0719109
0.0618264
0.210313
0.0775341
0.0496687
0.0494525
0.0509629
0.126924
0.0844902
0.0654629
0.0544347
0.196396
0.0647098
0.0264987
0.0487613
0.0380931
0.0950597
0.0438443
0.0884706
0.0555862
0.225035
0.0584954
0.0543281
0.775286
0.110115
0.262314
0.236253
0.0782923
0.789724
1.31587
0.0684857
0.039448
0.0525668
0.463676
0.0406771
0.119053
0.0600595
0.0546769
0.045589
0.1538
0.0256675
1.17523
0.655531
0.0404169
0.0797376
0.147769
0.202604
0.0621379
0.156832
0.0770648
0.227151
0.0504892
0.0594929
0.16161
0.19847
0.0493721
0.0347767
0.0319679
0.0177489
0.0475477
0.0303363
0.0180145
0.0442094
0.0449615
0.015721
0.0236413
0.0373274
0.0474112
0.0355111
0.0485139
0.0300041
0.0178013
0.0499421
0.047244
0.0163737
0.0263739
0.0392971
0.0286001
0.0422086
0.0434893
0.0747371
0.312684
0.246788
0.0572718
0.236356
0.141056
0.144872
0.0616454
0.253653
0.0398012
0.923032
0.0850744
0.166861
0.188801
0.147509
0.0256436
0.0511729
0.0441526
0.0220939
0.0182157
0.0458378
0.0461191
0.0216722
0.0404739
0.0385545
0.0457046
0.0208296
0.0403006
0.0235718
1.10572
0.0616659
0.0426645
0.0438989
0.120871
0.203876
0.0385361
0.108439
0.0931741
0.0725065
0.0824735
0.0907483
0.169738
0.225662
0.181458
0.119792
1.17317
0.0316861
0.0508011
0.132282
0.0627358
0.0609076
0.0275998
0.0672182
0.0384777
0.116214
0.053725
0.227843
0.103202
0.185919
0.841845
0.0908946
0.0750742
0.0872909
0.110379
0.0387439
0.0848244
0.89441
0.290596
0.212833
0.126707
0.218787
0.262269
0.143113
0.0738214
0.28885
0.265255
0.275535
0.27237
0.242304
0.274578
0.262696
0.268924
0.0863532
0.0772857
0.263642
0.758981
0.666763
0.947486
0.790863
0.230937
0.0968446
0.10796
0.285919
0.148769
0.580299
0.081336
0.0939912
0.63904
0.192066
0.278067
1.37284
0.104872
1.45204
0.711729
0.0712729
0.200923
0.679804
0.104949
0.372182
0.549898
0.0693063
0.0931291
0.552005
0.263673
0.227587
0.115472
0.558131
0.201636
0.915679
0.0855233
0.0745659
0.0328076
0.728608
0.087733
0.0998521
0.0857193
0.464339
0.251771
0.049784
0.0373956
0.35456
0.413082
0.0765509
0.0945924
0.416493
0.0977977
0.353523
0.0754997
0.0912774
0.034147
0.342863
0.251213
0.413661
0.078861
0.0974242
0.038843
0.120962
0.448208
0.387935
0.567185
0.222381
0.251922
0.0693843
0.0902285
0.068173
0.0969157
0.044475
0.130903
0.256255
0.0869263
0.10526
0.0886442
0.153895
0.503254
0.110808
0.0883324
0.0657311
0.093023
0.0718707
0.086088
0.163098
0.127755
0.180701
0.989336
0.433854
0.571752
0.485567
0.161198
0.49967
0.37391
0.0581456
0.0406953
0.0978531
0.138175
0.0895119
0.0954964
0.0805416
0.463288
0.171188
0.655615
0.0787364
0.108389
0.549412
0.796838
0.286484
0.671839
0.0889288
0.0671399
0.0292161
1.09603
0.904474
0.0619846
0.0885791
0.0593773
0.80077
0.238859
0.150338
0.423084
0.0779723
0.065174
0.239126
0.160047
0.0860056
0.0869301
0.185986
1.06443
0.244754
0.283267
0.0645139
0.0674061
0.0925629
1.151
0.0517045
0.131644
0.101194
0.173112
0.0351175
0.120389
0.163021
0.0506761
0.0962744
0.116049
0.13414
0.069659
0.184939
0.127467
0.0572209
1.58443
0.631827
0.0654387
1.26078
0.171919
0.0323763
0.053922
0.214816
0.0318863
0.0636845
0.0822325
0.167104
0.292473
1.08376
0.129065
1.35275
0.0535458
0.0817578
0.0310174
0.0689844
0.272993
0.212383
0.0880315
0.851556
1.12527
0.280423
0.64193
0.238831
0.809991
0.0316162
0.0575666
1.02962
0.0692009
0.193978
0.0459642
0.0600671
0.0716653
0.119772
0.276793
0.0616162
0.13085
0.11825
0.0704705
0.081304
1.06216
0.279684
1.09386
0.0322228
0.0305604
0.14581
0.300419
0.140717
0.911343
0.0547514
0.0778869
0.084514
0.392795
0.0497969
0.112697
0.0525614
0.178144
0.0319131
0.261642
0.871955
0.0829181
0.067762
1.26652
0.30368
0.490529
0.0857329
0.30485
0.74671
0.141298
0.0793612
0.0320552
0.0730286
1.00729
0.169388
0.124347
0.619017
0.930719
0.204511
0.0746396
1.14966
0.250654
0.0750626
0.0562846
0.0782963
0.0313057
0.0330038
0.0514915
0.156428
1.02538
0.0579053
0.147627
0.0511988
0.0593528
0.0216844
0.031611
0.156844
0.0308183
0.446677
0.0886506
0.0286588
0.0712024
0.0538045
0.0675727
0.110421
0.165752
0.689645
0.0531676
0.218266
0.0551877
0.194336
0.287164
0.11159
0.0310247
0.276654
0.479265
0.28184
0.0861325
0.252052
1.14452
0.104751
0.0493613
0.0684792
0.0180248
0.165727
0.0473353
0.0712918
0.0724158
0.251823
1.19188
0.0591715
0.102395
0.134292
0.234037
0.0746063
0.240808
0.964748
0.0555531
0.143821
0.0694285
0.275101
0.152259
0.167752
0.0586836
0.213119
0.0477417
0.0400558
0.752129
0.0526839
0.0315785
0.0645642
1.44477
0.0273983
0.0559642
0.0180925
0.0265069
0.0306639
0.0990178
0.0388692
0.0326533
0.219477
0.188477
0.0314501
0.0464788
0.0407926
0.252012
0.175714
0.105519
1.00222
0.476556
0.0342057
0.0477151
0.0519109
0.0405255
0.215052
0.0535641
0.0624003
0.40822
0.277715
0.0491343
0.0309229
0.0366857
0.17714
0.490277
0.120528
0.0175323
0.280076
0.0812083
0.052002
0.201809
0.0626521
0.483189
0.543769
0.38138
0.0203236
0.0371848
0.295089
0.17916
0.049145
0.0827757
0.152137
0.0514613
0.0683284
0.0517031
0.0473585
0.0599821
0.0592077
0.206087
0.790125
0.0891788
0.284312
0.0314723
0.0326418
0.129472
0.0574547
0.0391892
0.032959
0.026515
0.242441
0.0555522
0.0446088
0.29515
0.766616
0.0215677
0.0769468
0.215014
0.0705514
0.60975
0.0714711
0.0297245
0.0752117
0.643703
0.648972
0.0540028
0.215757
0.291745
0.041036
0.0409482
0.0835581
0.055339
0.0640478
0.0313604
0.057429
0.261683
0.0443131
0.0669642
0.0498105
0.0483477
0.395861
0.239606
0.0455317
0.224377
0.0257066
0.0574897
0.206082
0.204415
0.0625918
0.265788
0.225032
0.205074
0.175417
0.283104
0.426077
0.157067
0.139677
0.361642
0.03283
0.0383983
0.143046
0.0503066
0.0346717
0.0545908
0.733986
0.0468702
0.869096
0.09052
0.0633679
0.0498791
0.0736155
0.0651791
0.158484
0.0352453
0.072197
0.0542314
0.1906
0.309659
0.0336039
0.0583465
0.0537874
0.0914806
0.684757
0.16031
0.0600478
0.0349343
0.115704
0.0926694
0.077494
0.0321713
0.0864542
0.376261
0.187789
0.264306
0.129347
0.0627419
0.0417624
0.0596204
0.0684819
0.779302
0.0701387
0.0776801
0.112623
0.0888095
0.092396
0.0975956
0.116437
0.0853783
0.169092
0.0510988
0.071637
0.0597177
0.191174
0.0319279
0.0764054
0.0484347
0.184861
0.0412696
0.182354
0.020154
0.201056
0.0520235
0.0916844
0.065944
0.0877394
0.0527595
0.142041
0.567069
0.40768
0.0691683
0.0893212
0.0787779
0.199249
0.102225
0.0530993
0.0934363
0.16616
0.144902
0.0195111
0.892887
0.0822428
0.244907
0.0663615
0.0254903
0.0243278
0.0197574
0.0208082
0.0407441
0.0351271
0.0436747
0.0435816
0.0275869
0.0451459
0.0475243
0.0278458
0.0261196
0.0238852
0.0992596
0.0224648
0.0213096
0.192543
0.0217999
0.176032
0.0381686
0.0492087
1.08918
0.194623
0.0783495
0.0753206
0.0236965
0.322646
0.0649485
0.0315112
0.0743225
0.0558653
0.137039
0.0366159
0.0359788
0.143132
0.0569276
0.0719566
0.0568474
0.05029
0.077401
0.298108
0.460267
0.76401
0.635594
0.0954684
0.0316581
0.202366
0.0684058
0.0632227
0.10906
0.0914875
0.130851
0.0549345
0.0513152
0.150663
0.0433027
0.0473835
1.41565
0.235696
0.764998
0.0538281
0.0523415
0.259654
0.0804735
0.182067
0.0688477
0.0752084
0.579799
0.0805189
0.052302
0.0769231
0.0566669
0.0473936
0.256107
0.0799627
0.149596
0.0768861
0.0645858
0.111775
0.18477
0.0573256
0.0598321
0.417026
0.209415
0.354229
0.144774
0.234743
0.130395
0.164605
0.440456
0.0924958
0.0306732
0.7285
0.0454697
0.0460539
0.256122
0.695668
0.0125194
0.0960061
0.346966
0.681928
0.0105206
0.0701426
0.0704926
0.132237
0.154475
0.118091
0.0158755
0.212491
0.0797018
0.0710789
0.0278177
0.0477477
0.497467
0.0567875
0.240801
1.00432
0.0363273
0.0660126
0.337425
0.775344
0.0572929
0.031133
0.018518
0.0773868
0.0714711
0.051166
1.07564
0.107796
0.178851
0.0944127
0.0523307
0.072102
0.0732655
0.92154
0.0555777
0.146597
0.229469
0.0319642
0.0703348
0.203073
0.0445032
0.0453635
0.143205
0.0345429
0.184906
0.849478
0.193803
0.0319289
0.0659627
0.140046
0.223239
0.0722019
0.980477
0.0522273
0.0413343
0.0932773
0.0889553
0.170365
0.0818254
0.0449544
0.0461058
0.0712434
0.122138
0.0910029
0.0271862
0.0160454
0.0443735
0.103597
0.0574531
0.0872386
0.147475
0.0557917
0.0827001
0.118291
0.0563547
0.063128
0.0541669
0.0457998
0.105881
0.0360877
0.0301696
0.201535
0.0433276
0.0402739
0.0423492
0.0388727
0.0301985
0.0663312
0.11502
0.0400793
0.138673
0.0502943
0.210017
0.0413241
0.0491001
0.257278
0.054178
1.30421
0.0629831
0.0570311
0.103929
0.0736446
0.0882707
0.0702959
0.296074
0.0144456
0.077028
0.205122
0.0529255
0.0829425
0.0483932
0.0466379
0.0580572
0.0441538
0.136889
0.0461412
0.0417175
0.254178
0.0424067
0.0333267
0.136078
0.882134
0.0579268
0.223667
0.039805
0.0575398
0.0734571
0.032245
0.0369276
0.050857
0.0741307
0.912563
0.036861
0.0565142
0.283179
0.45445
0.11111
0.0699941
0.0941642
0.0524354
0.130547
0.0799695
0.0718043
0.0415952
0.0279891
0.10518
0.0773623
0.165199
0.0863137
0.0914383
0.05482
0.0781997
0.0553364
0.0553328
1.08311
0.308038
0.14412
0.0269779
0.301861
0.0630537
0.0739107
0.543622
0.0601678
0.0581041
0.0785155
0.0461937
1.19658
0.0648167
0.86153
0.127682
0.0893426
0.0387863
0.0866756
0.979935
0.060419
0.159238
0.205301
0.185681
0.056189
0.14961
0.0667945
0.0863045
0.0600279
0.0522405
0.0594024
0.0527118
1.46197
0.355888
0.0718956
0.0629412
0.0665412
0.0266503
0.0497285
0.0522623
0.246808
0.0321361
0.277356
0.0586369
0.0255815
0.231428
0.057121
1.02821
1.30611
0.168729
1.15063
0.0605369
0.0628515
0.0307576
0.0612911
0.338442
0.751306
0.171342
0.823553
0.176595
0.0739098
0.0632176
0.401486
0.215792
0.0742013
0.193993
0.0918384
0.0772549
0.131119
0.202256
0.0637451
0.060173
0.269297
0.0300204
0.0202023
0.0560996
0.152953
0.233772
0.0284434
1.47448
0.477614
0.781467
0.104373
0.0557376
0.0637511
0.0354715
0.218209
0.266883
0.786705
0.0551269
0.0483768
0.196398
0.161303
0.0871872
0.0578898
0.124445
1.24216
0.501626
0.0316012
0.865611
0.569478
0.182536
0.0149527
0.244536
0.0575914
0.146216
0.860984
0.0141386
0.0701144
0.0651946
0.256412
0.102822
0.710973
0.0097791
0.120917
0.177407
0.0736801
0.0730407
0.0564961
0.0575116
0.225396
0.0324909
0.261833
0.05633
0.948592
0.0555527
0.157702
0.245223
0.0578026
0.183086
0.195135
0.0322852
0.240485
0.103495
0.470039
0.0750547
0.981382
0.0566213
0.0607166
0.278266
0.0572136
0.142108
0.0575327
0.0628003
0.0567668
0.103749
0.114053
0.0488244
0.062365
0.0702586
0.0408828
0.0885583
0.0341971
0.0557959
0.0552132
0.186143
0.071514
0.216018
0.0580839
0.0681778
0.121927
0.161509
0.224172
0.0438011
0.14925
0.0565698
0.06089
0.05527
0.02863
0.0445609
0.0797619
0.037308
0.285334
1.22545
0.0143198
0.0579653
0.0703007
0.0782762
0.0739352
0.0394549
0.0572475
0.0441374
0.160559
0.0574856
0.0450727
0.045646
0.0542772
0.0941866
0.0666458
0.284513
0.0651411
0.0735449
0.123033
0.0661894
0.0903157
0.0515862
0.10193
0.0361019
0.122474
0.0578705
0.0233471
0.0533083
0.0629077
0.238841
0.0344961
0.215718
0.226383
0.980915
0.0678307
0.0671296
0.24947
0.0305067
0.141206
0.059083
0.0969874
0.0682973
0.0623951
0.105661
0.0572909
0.0785954
0.0778219
0.0895677
0.164671
1.2888
0.3453
0.561417
0.055487
0.0699204
0.0597129
0.0509413
0.25126
0.345098
0.0626475
0.0557969
0.0538721
0.0776034
0.0855111
0.060412
0.0688478
0.0627644
0.0879249
0.0957709
0.0543469
0.0901878
0.0656361
0.0857935
0.182769
0.0502602
0.233972
0.211926
0.0316396
0.0659936
0.0892429
0.0603703
0.0653393
0.431955
0.0197681
0.211404
0.86279
0.910392
0.05751
0.127021
0.853717
0.0294534
0.495982
0.119234
0.302018
0.157981
0.215967
0.155724
0.133955
)
;

boundaryField
{
    frontAndBack
    {
        type            empty;
    }
    wallOuter
    {
        type            kqRWallFunction;
        value           nonuniform List<scalar> 
102
(
0.0141199
0.0141199
0.0481842
0.0278162
0.0164495
0.0256675
0.0316861
0.0216844
0.0477417
0.0400558
0.0526839
0.0315785
0.0559642
0.0180925
0.0265069
0.0306639
0.0388692
0.0464788
0.0519109
0.0491343
0.0175323
0.0203236
0.0371848
0.0314723
0.0326418
0.041036
0.0409482
0.03283
0.0545908
0.0412696
0.020154
0.0254903
0.0243278
0.0197574
0.0208082
0.0407441
0.0351271
0.0436747
0.0435816
0.0275869
0.0451459
0.0475243
0.0278458
0.0261196
0.0238852
0.0224648
0.0213096
0.0381686
0.0492087
0.0558653
0.0366159
0.0569276
0.05029
0.0549345
0.0513152
0.0473835
0.0538281
0.0523415
0.0566669
0.0473936
0.0454697
0.0125194
0.0105206
0.0158755
0.0567875
0.018518
0.0523307
0.0445032
0.0453635
0.0413343
0.0449544
0.0461058
0.0160454
0.0443735
0.0574531
0.0563547
0.0360877
0.0402739
0.0663312
0.054178
0.0570311
0.0144456
0.0441538
0.0461412
0.0579268
0.050857
0.0565142
0.0415952
0.0553364
0.0527118
0.0300204
0.0202023
0.0149527
0.0141386
0.0097791
0.0564961
0.0572136
0.0488244
0.0408828
0.0143198
0.0394549
0.0441374
)
;
    }
    inlet
    {
        type            fixedValue;
        value           nonuniform 0();
    }
    outlet
    {
        type            zeroGradient;
    }
    wallInner
    {
        type            kqRWallFunction;
        value           nonuniform List<scalar> 
138
(
0.124186
0.0473397
0.127398
0.135748
0.180228
0.117529
0.365461
0.125023
0.115966
0.0547513
0.176945
0.0387707
0.0330076
0.143302
0.0538678
0.0565882
0.0366973
0.039399
0.0418547
0.045269
0.0567991
0.0251
0.0546069
0.0375402
0.0379095
0.0515274
0.0195813
0.0443749
0.416508
0.0264987
0.0487613
0.0555862
0.0493721
0.0347767
0.0319679
0.0177489
0.0475477
0.0303363
0.0180145
0.0442094
0.0449615
0.015721
0.0236413
0.0373274
0.0474112
0.0355111
0.0485139
0.0300041
0.0178013
0.0499421
0.047244
0.0163737
0.0263739
0.0392971
0.0286001
0.0422086
0.0434893
0.0398012
0.0256436
0.0511729
0.0441526
0.0220939
0.0182157
0.0458378
0.0461191
0.0216722
0.0404739
0.0385545
0.0457046
0.0208296
0.0403006
0.0235718
0.0426645
0.0275998
0.0672182
0.0387439
0.0848244
0.0738214
0.666763
0.285919
0.0693063
0.201636
0.0328076
0.049784
0.0373956
0.120962
0.222381
0.251922
0.068173
0.571752
0.485567
0.0581456
0.0292161
0.163021
0.0323763
0.053922
0.119772
0.0305604
0.124347
0.0330038
0.0514915
0.0286588
0.0180248
0.0645642
0.0273983
0.120528
0.0514613
0.026515
0.0215677
0.0297245
0.0669642
0.224377
0.0257066
0.0503066
0.0542314
0.0510988
0.0195111
0.0217999
0.0236965
0.052302
0.417026
0.209415
0.0460539
0.0703348
0.0522273
0.0301696
0.0529255
0.0483932
0.0575398
0.0524354
0.056189
0.141206
0.495982
0.119234
0.157981
0.215967
0.155724
0.133955
)
;
    }
    procBoundary2to0
    {
        type            processor;
        value           nonuniform List<scalar> 
42
(
1.46083
1.46083
0.0640707
0.0514145
0.26696
1.09273
0.0793952
0.0793952
0.154018
0.0841854
0.604515
0.604515
0.413455
0.77811
1.01713
0.880562
1.37392
0.0832443
0.0975185
0.446771
0.341916
0.0798248
0.0798248
0.334217
0.341916
0.0821301
0.453239
0.0733875
0.453239
1.64127
1.56558
0.0647731
0.0557895
0.051232
0.0542382
0.0514145
1.37392
0.0321808
0.763939
0.0794182
0.0794182
0.0621975
)
;
    }
    procBoundary2to1
    {
        type            processor;
        value           uniform 0.581354;
    }
    procBoundary2to3
    {
        type            processor;
        value           nonuniform List<scalar> 
29
(
0.19768
0.195834
0.0910854
0.0839638
0.347562
0.0850117
0.184018
0.194675
0.221795
0.18872
0.127163
0.430956
0.100465
0.315431
0.252577
0.317001
0.193559
0.193559
0.195834
0.315431
0.281332
0.180859
0.0829483
0.205536
0.199111
0.12847
0.221795
0.569
0.430956
)
;
    }
}


// ************************************************************************* //
