/*--------------------------------*- C++ -*----------------------------------*\
| =========                 |                                                 |
| \\      /  F ield         | OpenFOAM: The Open Source CFD Toolbox           |
|  \\    /   O peration     | Version:  v1912                                 |
|   \\  /    A nd           | Website:  www.openfoam.com                      |
|    \\/     M anipulation  |                                                 |
\*---------------------------------------------------------------------------*/
FoamFile
{
    version     2.0;
    format      ascii;
    class       volScalarField;
    location    "0.47";
    object      k;
}
// * * * * * * * * * * * * * * * * * * * * * * * * * * * * * * * * * * * * * //

dimensions      [0 2 -2 0 0 0 0];


internalField   nonuniform List<scalar> 
1466
(
0.0673267
0.0945689
0.0620746
0.0960334
0.144476
0.689272
0.0657277
0.279166
0.192553
0.301619
0.02194
0.387944
0.0218169
0.0615232
0.0793141
0.0949052
0.0749806
0.124841
0.128908
0.0609498
0.130086
0.119542
0.0892063
0.0790824
0.062117
0.070614
0.109127
0.258061
0.0660059
0.170959
0.234197
0.858128
0.133624
0.232123
0.100892
0.0873126
0.0616989
0.0887094
1.18054
0.125096
0.404597
0.250546
0.19164
0.215147
0.349134
0.231761
0.0801011
0.105248
0.247535
0.121054
0.0502351
0.273553
0.130327
0.499801
0.0961004
0.376936
0.0696875
0.124738
0.148024
0.384196
0.0784366
0.159593
0.19271
0.681273
0.124602
0.0819786
0.363121
0.136924
0.0629204
0.0987973
0.0395114
0.0798695
0.0839484
0.0835215
0.0259395
0.341714
0.0833073
0.0936734
0.0714995
0.324827
0.0538868
0.079696
0.086477
0.237691
0.0678506
0.0954683
0.0444292
0.156945
0.0709781
0.100253
0.0916203
0.0859733
0.233929
0.072862
0.0497637
0.137698
0.0848537
0.178785
0.0959886
0.0939621
0.0523662
0.328498
0.0639873
0.0502358
0.0771882
0.226088
0.13686
0.0855052
0.0855626
0.0655338
0.105566
0.0583617
0.135961
0.0954653
0.0251288
0.249755
0.0473452
0.054958
0.101228
0.122169
0.128822
0.0901623
0.034083
0.133239
0.0677987
0.166588
0.0703859
0.049065
0.227589
0.112641
0.196711
0.0844476
0.0611372
0.352812
0.0531727
0.275899
0.257292
0.0560377
0.260751
0.0818839
0.282036
0.082743
0.204106
0.20826
0.31404
0.0550191
0.0456031
0.0610921
0.273248
0.0824661
0.216782
0.0948066
0.0979435
0.0985296
0.084919
0.0592973
0.0752933
0.292635
0.0943038
0.0622314
0.323766
0.0898121
0.100235
0.134119
0.32103
0.23991
0.110382
0.0745267
0.0712558
0.109633
0.124248
0.0852213
0.0791661
0.229207
0.0830109
0.112892
0.317491
0.323721
0.0735268
0.27232
0.0923874
0.0852668
0.230284
0.0715768
0.131869
0.0563686
0.0988382
0.326887
0.0946826
0.0436914
0.0728851
0.0608078
0.0851633
0.123242
0.0765158
0.0784219
0.224251
0.0715018
0.0636941
0.059713
0.151217
0.0583732
0.0820948
0.0727006
0.098199
0.299545
0.0938278
0.249152
0.0776091
0.110358
0.0947798
0.172757
0.0823376
0.0917174
0.0999025
0.099058
0.0366968
0.025509
0.0602985
0.0825185
0.0395452
0.0945908
0.0732298
0.0868739
0.198349
0.0880885
0.0577334
0.101334
0.0849434
0.141293
0.0796115
0.166082
0.0714206
0.118361
0.0841979
0.0914596
0.119583
0.230613
0.141328
0.0697494
0.164382
0.165874
0.0872953
0.270487
0.316385
0.0572178
0.0207541
0.0776587
0.0367795
0.0648957
0.0788243
0.180335
0.278593
0.145896
0.0664135
0.18157
0.0648976
0.106835
0.468233
0.374851
0.0932137
0.096411
0.174619
0.0600451
0.643832
0.0894471
0.233438
0.134283
0.0626972
0.0801395
0.163377
0.0919599
0.0638689
0.0657734
0.0946534
0.179618
0.0878142
0.0660109
0.0561905
0.310728
0.0788098
0.0477619
0.0713191
0.0639099
0.0654245
0.0418465
0.0964125
0.0880638
0.13846
0.0829813
0.0861354
0.25955
0.1094
0.349431
0.288074
0.0939497
0.308507
0.279391
0.0975688
0.0462721
0.0954071
0.225214
0.0670619
0.109986
0.0880231
0.0725324
0.0610611
0.170165
0.043765
1.09421
0.158701
0.050945
0.0581816
0.28123
0.245006
0.0601505
0.127527
0.0619258
0.256657
0.0869835
0.0795818
0.264997
0.229341
0.0527317
0.047135
0.0478323
0.0328083
0.0528292
0.0202504
0.0544403
0.0642642
0.0534972
0.0255468
0.0625404
0.0527259
0.0537765
0.0217757
0.0324435
0.0865219
0.0426361
0.0738504
0.0542652
0.0355459
0.0370853
0.0516339
0.0139555
0.0981426
0.0463528
0.0869238
0.11807
0.33187
0.0909942
0.358911
0.166341
0.159777
0.0585361
0.137169
0.0598585
1.21973
0.114091
0.15478
0.306238
0.237485
0.0635466
0.0894157
0.0541379
0.0365413
0.0209683
0.0515151
0.1
0.0236365
0.0382876
0.097758
0.0537834
0.0587379
0.0580824
0.0427286
0.329803
0.079975
0.0660463
0.0432456
0.208733
0.144768
0.056286
0.158862
0.106359
0.112491
0.0619018
0.0971286
0.0893693
0.110682
0.131195
0.189
0.292908
0.0549941
0.067668
0.213238
0.0383672
0.0741548
0.0161836
0.0738085
0.031624
0.183947
0.0824551
0.372841
0.0695405
0.208906
0.79567
0.0803621
0.100125
0.0666593
0.148145
0.0785952
0.10914
0.216919
0.170855
0.210853
0.153441
0.102037
0.133499
0.159667
0.0548793
0.131558
0.117013
0.125175
0.118918
0.118039
0.131616
0.102731
0.098715
0.133698
0.0648294
0.208261
0.320292
0.259035
0.334432
0.189778
0.244134
0.123241
0.12591
0.123063
0.0939823
0.258685
0.120391
0.109779
0.157407
0.149475
0.153889
0.283662
0.125994
0.295821
0.185042
0.136674
0.188731
0.157692
0.142911
0.182496
0.189339
0.0495486
0.114253
0.11862
0.206932
0.192768
0.133925
0.24048
0.0429295
0.304842
0.063113
0.133225
0.121759
0.284453
0.120365
0.119107
0.142896
0.889951
0.21608
0.0540943
0.0896721
0.144401
1.24466
0.129474
0.0651288
1.08112
0.0755533
0.168906
0.116265
0.078642
0.0531548
1.05659
0.241302
0.166887
0.0886551
0.0902604
0.0520723
0.0953499
0.142774
1.34724
0.128165
0.0751746
0.0981549
0.0732884
0.0803718
0.0990385
0.153636
0.0483754
0.18752
0.280168
0.110656
0.126971
0.108083
0.120051
0.163504
0.113202
0.11461
0.131523
0.107125
0.0618836
0.0863525
0.164148
0.136937
0.166177
0.25471
0.141189
0.134303
0.123876
0.0928795
0.19704
0.0740061
0.0616516
0.0466644
0.0712159
0.224151
0.109672
0.118513
0.120906
0.102077
0.396503
0.231877
0.108719
0.0865219
0.166168
0.208615
0.176133
0.186625
0.106532
0.13533
0.0353452
0.286218
0.233534
0.0601174
0.0805949
0.0760627
0.242833
0.207649
0.221468
0.204443
0.128598
0.061677
0.209526
0.151063
0.0652098
0.129363
0.215096
0.280948
0.326562
0.37199
0.0774648
0.101233
0.11241
0.283153
0.0756488
0.155454
0.116972
0.376874
0.0410281
0.12743
0.108068
0.0404384
0.110838
0.117208
0.176916
0.107395
0.20294
0.207425
0.0761301
0.446099
0.185024
0.078513
0.28278
0.125674
0.0356837
0.0517094
0.302223
0.0553785
0.0503794
0.0824379
0.28411
0.245502
0.285492
0.213963
0.275192
0.0555808
0.0788628
0.041105
0.051741
0.152071
0.203304
0.061473
0.20235
0.25729
0.260311
0.21399
0.115277
0.491498
0.0552352
0.0349272
0.26655
0.0728912
0.0825357
0.0588917
0.0704558
0.0814765
0.104585
0.330288
0.0685924
0.148218
0.135346
0.100798
0.0967356
0.307425
0.173516
0.263437
0.0514137
0.0670867
0.246487
0.303501
0.223041
0.247232
0.049575
0.0755493
0.108895
0.0571754
0.0696777
0.136496
0.0322783
0.393065
0.0428283
0.18315
0.258277
0.114948
0.10878
0.29764
0.33762
0.151686
0.0951088
0.164048
0.160457
0.15943
0.112656
0.0469485
0.10118
0.26536
0.392746
0.107247
0.13772
0.279593
0.149892
0.109525
0.299377
0.291075
0.104377
0.0729926
0.0621896
0.0386296
0.0410076
0.0514138
0.140642
0.278022
0.0632958
0.110021
0.0632177
0.0664115
0.0250515
0.0455034
0.204057
0.0400551
0.198045
0.0573757
0.0253938
0.123234
0.0830359
0.0939305
0.118699
0.0960248
0.32187
0.0713298
0.374019
0.0983627
0.242217
0.198875
0.11158
0.0450528
0.377474
0.0851818
0.174541
0.0944204
0.208245
0.315924
0.112935
0.0536262
0.0697509
0.0257211
0.170645
0.0553909
0.0757252
0.0943627
0.403634
0.272125
0.082921
0.131362
0.194246
0.206597
0.088411
0.211854
0.231709
0.0858532
0.198973
0.0803151
0.0748425
0.259376
0.117242
0.0966723
0.123576
0.0441719
0.0331987
0.189577
0.0564726
0.0240685
0.0377304
0.298205
0.0645315
0.0686193
0.0177337
0.0355366
0.059031
0.134456
0.0666931
0.0500915
0.0317237
0.388093
0.036675
0.0996227
0.0519484
0.215751
0.209858
0.0897961
0.810097
0.124669
0.0399626
0.0621687
0.0976727
0.0656642
0.25093
0.0564636
0.0609033
0.116631
0.103537
0.0992682
0.036397
0.0387227
0.16137
0.846342
0.0751906
0.0231088
0.297681
0.123702
0.0910463
0.382149
0.105318
0.132023
1.34094
0.0773583
0.0335844
0.0647291
0.276815
0.210669
0.0663402
0.136827
0.0466648
0.0529834
0.0816596
0.0622086
0.0615623
0.0698057
0.0879207
0.129306
0.479415
0.0596527
0.130437
0.0421488
0.0607346
0.205726
0.07568
0.04449
0.0387427
0.0202995
0.177539
0.0726158
0.0594012
0.166959
1.16733
0.0215592
0.119538
0.192767
0.0712521
0.152825
0.0634171
0.0294582
0.0805866
0.143033
1.46989
0.0629424
0.190715
0.195462
0.0635446
0.0662818
0.0710548
0.0856786
0.0875604
0.0585733
0.0711825
0.146888
0.0588073
0.0234773
0.0642831
0.0769555
0.159447
0.239646
0.0542142
0.0701436
0.017577
0.0961599
0.356307
0.106226
0.043307
0.187149
0.412532
0.412129
0.159546
0.188682
0.109807
0.172248
0.213451
0.16703
0.0290349
0.0505899
0.112945
0.0498198
0.0379627
0.094366
0.171145
0.035418
0.338152
0.103241
0.0779426
0.0638015
0.0643352
0.102808
0.194567
0.0523688
0.0721088
0.0931272
0.184436
0.208522
0.0353678
0.0795124
0.0755044
0.152849
1.06644
0.176043
0.077464
0.0455489
0.0539232
0.0677908
0.0662895
0.0345723
0.0865858
0.166964
0.180389
0.158673
0.168017
0.0796605
0.0488143
0.0997394
0.0809208
0.230412
0.049851
0.0785665
0.138827
0.193893
0.0928424
0.0771898
0.117656
0.123332
0.183437
0.0487207
0.0858069
0.0843652
0.410919
0.05365
0.0996882
0.0325177
0.137565
0.0705853
0.159241
0.0316981
0.34538
0.0773079
0.148891
0.10238
0.110392
0.0664659
0.110966
0.267155
0.202744
0.0695904
0.131494
0.0960512
0.142226
0.0792337
0.0706456
0.154716
0.200516
0.142158
0.02068
0.266409
0.0960757
0.164881
0.105899
0.0244445
0.0219205
0.0215856
0.0204338
0.0671645
0.0650223
0.0663625
0.0646699
0.0274471
0.0636718
0.0637454
0.0302616
0.0325539
0.0337171
0.0903675
0.0337386
0.0335114
0.417539
0.0363199
0.356434
0.0467962
0.0635188
0.332075
0.117531
0.107547
0.0653316
0.019166
0.195697
0.0646396
0.0541494
0.110203
0.0599769
0.187581
0.0450924
0.0543974
0.135191
0.0598118
0.0789293
0.0681015
0.06293
0.0914043
0.204491
0.125076
0.741888
0.179289
0.124988
0.047212
0.289257
0.141833
0.0609338
0.12229
0.0847757
0.279559
0.060322
0.0622265
0.167186
0.0498291
0.04602
0.278805
0.1265
0.243968
0.0608011
0.0614179
0.132013
0.125329
0.414616
0.0706989
0.0822186
0.253449
0.0937847
0.0841556
0.125131
0.0588572
0.0604542
0.18805
0.063571
0.195008
0.0774656
0.0756398
0.109461
0.147336
0.0725535
0.0780419
0.17226
0.102278
0.202444
0.306724
0.0838174
0.216141
0.120048
1.05995
0.111739
0.0402338
0.198447
0.0988505
0.0460324
0.15838
0.200125
0.0135595
0.121096
0.118748
0.942344
0.0142874
0.0606486
0.13111
0.194633
0.169541
0.0852073
0.023968
0.176902
0.0757583
0.0871645
0.0560918
0.0330395
0.190258
0.0878839
0.126346
0.346429
0.0490232
0.0660581
0.146803
0.235964
0.100741
0.0498183
0.0290563
0.063016
0.12577
0.072197
0.266281
0.22763
0.426055
0.0876635
0.086346
0.0700858
0.113109
0.32956
0.102429
0.283774
0.229818
0.0523836
0.0394102
0.107836
0.075062
0.100326
0.168483
0.0487356
0.413829
0.249252
0.388129
0.037731
0.0816275
0.111071
0.140553
0.0990857
0.271036
0.0815096
0.049073
0.0912524
0.0885913
0.298472
0.0746453
0.0549398
0.0936653
0.0996595
0.110695
0.0935495
0.026841
0.0256911
0.0983105
0.204654
0.059677
0.108719
0.179917
0.0873266
0.0914883
0.139273
0.0537189
0.0622987
0.0903299
0.0712602
0.190984
0.0389901
0.0325718
0.194995
0.0565668
0.0572166
0.0340113
0.100915
0.0527216
0.0727356
0.108757
0.0288358
0.0939913
0.0565089
0.172753
0.0311379
0.0991291
0.154531
0.044561
0.30534
0.0395788
0.0594254
0.164241
0.136781
0.152933
0.0937727
0.192338
0.0227464
0.0760005
0.193145
0.0356946
0.0680457
0.0484478
0.0728787
0.0913321
0.0744026
0.136373
0.0784998
0.0345829
0.1059
0.0577398
0.0410207
0.117132
0.220215
0.0789173
0.205231
0.058451
0.0942537
0.0862134
0.0514351
0.0453462
0.0351082
0.0700794
0.24492
0.0532744
0.0578583
0.183741
0.993927
0.0839814
0.0710772
0.119012
0.0424026
0.252769
0.0915904
0.0684836
0.0693925
0.0472728
0.116245
0.0825931
0.106952
0.090722
0.0926748
0.0721121
0.0854968
0.0499062
0.0654214
0.464953
0.110988
0.13078
0.0439733
0.129342
0.0617424
0.0545217
0.265277
0.0789253
0.0693685
0.123585
0.0786986
0.25843
0.0359795
0.243527
0.155578
0.068924
0.037497
0.0694729
0.249673
0.0806047
0.171651
0.18691
0.159979
0.0918037
0.105179
0.0822712
0.0871217
0.0884314
0.0298897
0.0889561
0.0390199
0.372321
0.143903
0.0874949
0.0590066
0.139338
0.043333
0.0704965
0.0541391
0.193374
0.0559327
0.249056
0.0812012
0.0598077
0.104739
0.0838097
0.27241
0.263377
0.131198
0.280558
0.0617578
0.0859571
0.0531369
0.110985
0.125174
0.686089
0.0948407
0.355518
0.182465
0.107753
0.0831393
0.183657
0.200261
0.0384326
0.105108
0.0830316
0.0733176
0.231436
0.151324
0.101859
0.0872767
0.133493
0.0614418
0.0253076
0.0863567
0.115856
0.333467
0.0224158
0.525305
0.1572
0.175994
0.1272
0.0754308
0.0888445
0.051557
0.111244
0.107136
0.496682
0.0734431
0.0620834
0.154189
0.15403
0.0678321
0.0671455
0.190299
0.691388
0.138661
0.0617844
0.205916
0.202966
0.171017
0.0220229
0.178332
0.114965
0.10926
0.346402
0.0162016
0.121822
0.0378969
0.130442
0.129772
0.315419
0.0137195
0.0934116
0.424578
0.0963366
0.111664
0.0562351
0.0478917
0.193994
0.0641173
0.127186
0.0523187
0.228923
0.0509701
0.119909
0.134962
0.0869561
0.313062
0.16533
0.0402283
0.0745185
0.0832504
0.245462
0.100918
0.255297
0.0574497
0.142294
0.121606
0.0795502
0.160543
0.0758335
0.0796147
0.0900625
0.0837505
0.126577
0.0368075
0.0695028
0.106691
0.0606249
0.0810966
0.0577589
0.0770179
0.0705893
0.188771
0.0665144
0.145631
0.0716804
0.091466
0.115284
0.138263
0.119814
0.0391585
0.211931
0.0573728
0.149188
0.0584398
0.0634615
0.030436
0.0733743
0.0531436
0.16368
0.323541
0.0215435
0.056054
0.127092
0.0621084
0.130011
0.0527327
0.145633
0.0746841
0.168773
0.0652757
0.0544461
0.0784494
0.0699888
0.189072
0.0874819
0.108028
0.101853
0.0773712
0.256767
0.0767182
0.195025
0.0791775
0.124666
0.0651031
0.080594
0.0768538
0.021011
0.0615343
0.0736666
0.144481
0.0299313
0.377051
0.212544
0.273492
0.0580155
0.136892
0.135648
0.0232925
0.0845846
0.0952708
0.186173
0.100988
0.0639127
0.0879869
0.0781984
0.0897705
0.093677
0.0899131
0.110501
0.422664
0.122428
0.747546
0.0629076
0.0904946
0.0668348
0.0818323
0.141192
0.141746
0.0990516
0.0606655
0.0686528
0.0861741
0.0680687
0.0749055
0.0642228
0.0936411
0.0683908
0.115658
0.0585961
0.143858
0.0916748
0.0929472
0.160731
0.0798447
0.139124
0.145192
0.0603962
0.103951
0.191693
0.0942852
0.0822038
0.193261
0.0187097
0.160426
0.201057
0.218981
0.064061
0.224284
0.195112
0.0582568
0.500487
0.171575
0.26775
0.089509
0.0681085
0.0903978
0.270089
)
;

boundaryField
{
    frontAndBack
    {
        type            empty;
    }
    wallOuter
    {
        type            kqRWallFunction;
        value           nonuniform List<scalar> 
102
(
0.0218169
0.0218169
0.0892063
0.0259395
0.0251288
0.043765
0.0549941
0.0250515
0.0441719
0.0331987
0.0564726
0.0240685
0.0686193
0.0177337
0.0355366
0.059031
0.0666931
0.0996227
0.0976727
0.0992682
0.0231088
0.0335844
0.0647291
0.0421488
0.0607346
0.0635446
0.0662818
0.0290349
0.094366
0.0705853
0.0316981
0.0244445
0.0219205
0.0215856
0.0204338
0.0671645
0.0650223
0.0663625
0.0646699
0.0274471
0.0636718
0.0637454
0.0302616
0.0325539
0.0337171
0.0337386
0.0335114
0.0467962
0.0635188
0.0599769
0.0450924
0.0598118
0.06293
0.060322
0.0622265
0.04602
0.0608011
0.0614179
0.0588572
0.0604542
0.0988505
0.0135595
0.0142874
0.023968
0.0878839
0.0290563
0.086346
0.075062
0.100326
0.049073
0.0549398
0.0936653
0.0256911
0.0983105
0.059677
0.0537189
0.0389901
0.0572166
0.0727356
0.044561
0.0594254
0.0227464
0.0744026
0.0784998
0.0789173
0.0351082
0.0578583
0.0693925
0.0499062
0.0390199
0.0614418
0.0253076
0.0220229
0.0162016
0.0137195
0.0562351
0.0795502
0.0368075
0.0606249
0.0215435
0.0527327
0.0746841
)
;
    }
    inlet
    {
        type            fixedValue;
        value           nonuniform 0();
    }
    outlet
    {
        type            zeroGradient;
    }
    wallInner
    {
        type            kqRWallFunction;
        value           nonuniform List<scalar> 
138
(
0.02194
0.0749806
0.0660059
0.170959
0.273553
0.130327
0.499801
0.0961004
0.159593
0.0859733
0.0523662
0.0502358
0.034083
0.282036
0.082743
0.0550191
0.0456031
0.0745267
0.0436914
0.0728851
0.0608078
0.025509
0.0872953
0.0572178
0.0207541
0.0776587
0.0367795
0.0648957
0.643832
0.0477619
0.0713191
0.0880638
0.0527317
0.047135
0.0478323
0.0328083
0.0528292
0.0202504
0.0544403
0.0642642
0.0534972
0.0255468
0.0625404
0.0527259
0.0537765
0.0217757
0.0324435
0.0865219
0.0426361
0.0738504
0.0542652
0.0355459
0.0370853
0.0516339
0.0139555
0.0981426
0.0463528
0.0598585
0.0635466
0.0894157
0.0541379
0.0365413
0.0209683
0.0515151
0.1
0.0236365
0.0382876
0.097758
0.0537834
0.0587379
0.0580824
0.0427286
0.0660463
0.0161836
0.0738085
0.0785952
0.10914
0.0548793
0.259035
0.123063
0.0495486
0.0429295
0.121759
0.0540943
0.0896721
0.0953499
0.0751746
0.0981549
0.0990385
0.134303
0.123876
0.0616516
0.0353452
0.108068
0.0356837
0.0517094
0.104585
0.0670867
0.107247
0.0410076
0.0514138
0.0253938
0.0257211
0.0377304
0.0645315
0.0751906
0.0529834
0.0202995
0.0215592
0.0294582
0.0234773
0.0701436
0.017577
0.0498198
0.0931272
0.0487207
0.02068
0.0363199
0.019166
0.0841556
0.17226
0.102278
0.0460324
0.0394102
0.0815096
0.0325718
0.0356946
0.0484478
0.0942537
0.0424026
0.0918037
0.0845846
0.500487
0.171575
0.089509
0.0681085
0.0903978
0.270089
)
;
    }
    procBoundary2to0
    {
        type            processor;
        value           nonuniform List<scalar> 
42
(
0.876551
0.876551
0.107566
0.0837425
0.166923
1.37951
0.135796
0.135796
0.148442
0.140402
0.286239
0.286239
0.21417
0.322253
0.323626
1.47303
0.300749
0.136433
0.143637
0.760155
0.876976
0.123197
0.123197
1.00164
0.876976
0.0938255
1.3988
0.0560994
1.3988
0.715946
0.404448
0.0462542
0.0499394
0.0576238
0.0701837
0.0837425
0.300749
0.0588142
1.54707
0.141402
0.141402
0.0915958
)
;
    }
    procBoundary2to1
    {
        type            processor;
        value           uniform 0.701482;
    }
    procBoundary2to3
    {
        type            processor;
        value           nonuniform List<scalar> 
29
(
0.330587
0.295735
0.0995287
0.0838291
0.393332
0.155258
0.290835
0.274811
0.130394
0.128447
0.225205
0.601745
0.242807
0.301201
0.235191
0.371779
0.113456
0.113456
0.295735
0.301201
0.253616
0.114994
0.0767467
0.127031
0.173908
0.112548
0.130394
0.653303
0.601745
)
;
    }
}


// ************************************************************************* //
