/*--------------------------------*- C++ -*----------------------------------*\
| =========                 |                                                 |
| \\      /  F ield         | OpenFOAM: The Open Source CFD Toolbox           |
|  \\    /   O peration     | Version:  v1912                                 |
|   \\  /    A nd           | Website:  www.openfoam.com                      |
|    \\/     M anipulation  |                                                 |
\*---------------------------------------------------------------------------*/
FoamFile
{
    version     2.0;
    format      ascii;
    class       volScalarField;
    location    "0.56";
    object      epsilon;
}
// * * * * * * * * * * * * * * * * * * * * * * * * * * * * * * * * * * * * * //

dimensions      [0 2 -3 0 0 0 0];


internalField   nonuniform List<scalar> 
1431
(
98.3478
33.3977
5.847
4.6614
8.80796
39.4849
0.477006
379.141
52.8472
0.599466
129.347
337.969
26.7858
6.33727
39.9036
0.484174
30.7008
8.11944
26.8243
12.927
261.583
9.99654
57.5361
420.032
57.1118
8.01312
89.4802
23.4627
56.7368
40.0162
23.5931
29.3441
21.8335
3.39694
35.3206
1.26592
99.9417
1.29564
0.895699
24.2324
77.182
83.6928
20.2481
0.558135
69.2279
11.5985
33.2463
76.5382
0.468944
0.774762
16.196
0.611169
19.3
363.449
35.0948
9.45632
9.29694
382.757
49.9657
29.5025
30.4546
0.495204
1.43963
1.44432
1.03423
0.812834
23.128
0.937306
4.51507
14.9265
398.573
4.43744
5.37047
3.00995
7.58966
15.0103
11.6791
1.10643
0.695359
11.7517
36.6367
7.14592
182.965
44.1208
178.78
5.27991
18.937
36.1772
212.421
245.197
54.2386
13.3184
1.29576
0.458556
43.9896
42.2032
369.11
120.341
0.570112
8.05176
14.6187
0.566727
37.593
19.9107
1.04024
43.0784
43.4651
137.284
54.1555
41.4341
23.6493
33.6712
3.21725
76.001
42.6084
10.8217
6.02748
5.51074
5.86406
1.48812
24.2102
59.9649
298.016
10.5156
309.977
0.894689
7.26579
22.9421
7.80978
26.8071
35.3094
5.40141
19.082
26.2979
21.7145
1.05977
1.01369
0.531484
196.593
2.13023
1.32796
21.9343
48.9559
22.47
72.1204
22.3253
1.8075
16.114
0.53766
20.9528
1.28492
5.96521
26.0967
4.90674
36.1808
1.03512
177.413
43.5144
223.826
10.5969
195.633
34.023
10.9327
13.3797
303.366
84.4302
80.6105
53.3765
0.891333
84.4504
217.586
16.8013
22.3688
206.371
41.5583
173.546
17.8508
47.7241
19.1228
31.8772
0.823954
0.816295
11.3746
689.89
44.772
80.6184
148.244
53.6911
27.8776
204.478
25.136
29.6602
28.1464
179.339
6.8524
54.1255
103.176
30.5823
3.48266
73.5054
17.7799
11.0022
103.201
22.8223
23.9054
26.6773
39.1707
3.16134
249.609
36.0742
192.022
12.8214
41.2174
43.6492
217.432
13.6424
29.9869
31.1049
10.5671
93.6764
34.8615
12.1606
80.399
12.047
38.8932
339.151
128.025
102.694
33.7876
56.7429
393.673
22.6343
45.2778
26.0976
30.2683
215.03
38.5736
41.388
24.0921
13.1245
12.384
20.3792
285.402
33.1513
29.5819
43.8148
36.761
103.826
37.2062
0.928672
15.7716
167.064
10.2964
7.39677
25.8571
72.216
10.1029
420.725
167.773
30.0796
30.6124
194.967
10.7109
16.362
43.9936
124.656
48.4107
273.895
73.4023
8.67926
62.9655
34.9363
27.9152
10.6667
185.607
22.7499
176.707
60.6876
51.4304
51.556
20.7512
85.7356
22.4052
10.6741
23.7467
158.201
75.311
141.653
197.001
26.9404
3.30261
56.6379
89.8603
12.0022
39.5422
34.6093
183.751
93.932
13.3481
58.1976
18.6255
1.89995
22.7171
11.0507
67.0116
9.88567
33.5022
30.5264
87.8172
66.5494
65.853
1.24028
0.651009
122.118
50.0674
87.1747
30.4558
28.6856
2.80683
977.29
27.6305
70.359
4.48574
8.55275
36.4309
5.11117
5.89969
61.8122
403.533
8.21402
81.9651
6.31722
59.1818
15.9821
11.674
12.6599
61.3413
201.458
38.097
109.247
1.61754
14.5808
57.1702
72.1573
49.038
36.0679
23.4903
176.974
51.3723
11.6707
40.3891
11.4875
10.6417
30.416
17.5177
7.28371
187.307
143.762
162.878
76.0156
12.8774
65.5678
68.7027
18.0764
3.86146
112.111
58.2416
831.735
36.5984
23.319
122.271
11.2864
230.561
17.4148
67.9712
502.511
34.9371
9.61958
8.06308
624.695
42.2371
40.2866
8.03501
21.6612
1049
44.2327
23.7332
50.2689
32.886
17.9979
13.4043
24.8767
24.6076
9.66083
189.826
13.1946
43.121
47.2104
62.5987
39.7974
36.3849
64.0093
123.989
69.2646
3.99784
38.5471
40.4643
7.89116
20.701
36.0187
43.0401
33.9661
33.9344
16.6481
47.7065
6.01165
26.4302
8.15428
38.4099
32.0795
45.6824
26.0199
10.9574
27.8914
30.4897
15.0761
8.13413
32.9163
4.13967
320.916
70.5511
81.9842
85.0332
92.5924
84.3716
73.5605
70.601
70.944
62.8051
65.6918
17.1564
179.532
14.0529
8.08756
4.26594
2.87881
1.55817
2.04592
37.7557
14.1011
15.7652
0.716467
0.495268
7.41259
0.621377
0.438299
18.6175
352.645
7.94817
13.2774
14.9377
0.640737
333.386
0.432493
13.8383
0.613747
10.6183
322.76
0.660891
309.981
0.463501
0.502165
11.9923
32.5082
195.543
167.839
0.743009
0.907946
1.70811
0.510008
27.685
1.41755
198.906
0.960676
1.96497
30.5598
8.61465
1.98235
7.94607
1.22656
217.938
0.684745
6.32636
1.2443
36.2713
6.13713
4.94245
222.689
0.9914
45.9779
4.02106
2.14291
20.5169
2.51083
207.801
168.07
12.5512
1.55391
1.73145
21.2171
1.32339
33.4388
3.74003
4.60802
4.02093
5.45463
3.8549
1.45116
41.7166
177.389
63.6698
3.21936
43.4203
9.44806
2.52472
8.16798
189.257
23.8473
18.5905
8.53349
22.0893
12.4398
7.32027
85.2189
60.44
3.588
9.48658
163.19
2.50277
26.676
33.2432
10.5374
78.7191
7.33567
63.4377
10.7265
14.1744
140.553
38.3095
72.5013
23.4809
4.37922
60.7842
30.3826
0.966823
89.0091
8.07543
5.06847
147.892
367.64
75.6964
166.709
85.5993
6.9213
636.066
6.24612
7.83669
12.7097
10.9219
66.1761
24.7277
70.579
55.1666
3.67028
7.69358
32.753
8.06673
181.845
45.1109
77.2149
26.0369
54.4444
71.6267
29.9865
32.3242
31.7323
29.5125
10.1866
9.15006
29.8757
24.6422
244.451
16.1205
15.2814
40.864
48.1559
25.2213
24.742
73.3677
224.474
144.787
6.02746
35.8805
9.82987
38.0683
40.9488
118.325
42.0325
4.72725
6.29261
8.14703
5.51476
24.0751
40.2214
70.5932
61.0414
236.272
11.0571
10.3209
30.9809
52.7855
22.4563
6.54495
29.0174
6.74741
41.0968
55.382
13.2856
46.0523
10.9972
11.54
15.9722
0.812622
48.6067
23.9402
32.6856
357.067
15.1409
75.5673
15.542
64.8544
106.172
8.77752
34.4219
190.803
6.27045
34.2178
33.9739
271.583
25.2814
10.5965
84.6632
158.614
35.9528
9.57808
37.3069
53.0599
43.6833
4.49367
211.826
200.492
51.7743
14.1901
11.5695
8.14627
42.0207
16.3116
3.13452
17.9288
13.8531
28.7432
65.3148
289.438
59.8666
10.7693
29.5331
299.67
17.5483
55.3893
14.6392
19.0434
6.77432
23.9368
294.532
0.732203
14.3613
24.174
62.2937
15.5242
131.18
127.962
38.7714
74.7293
110.94
82.7786
85.3388
331.966
65.7601
73.5648
77.8318
237.847
28.8382
27.9186
94.952
154.682
319
137.805
283.708
17.3826
42.3233
64.6593
7.23921
48.764
37.8051
3.79902
79.5167
12.6381
83.6564
7.8333
71.1628
80.7825
27.3698
164.421
19.8553
1.93873
81.3432
92.585
18.9919
131.849
183.973
0.831174
116.596
24.701
9.71281
145.763
36.6218
69.8159
382.699
304.998
7.90763
39.8879
54.681
11.8033
68.1124
53.2226
39.3315
35.3318
14.197
65.4412
0.490888
3.00684
12.6455
36.4442
0.467728
537.253
60.3445
58.562
4.01372
42.5199
8.34201
533.304
126.571
40.6495
0.618145
6.43293
45.4073
0.427881
0.438992
37.6037
10.6975
13.0225
44.2679
60.0183
63.8098
59.9829
16.2249
59.0556
8.79566
52.7528
23.1916
25.7669
1.17766
18.7097
0.79129
160.725
152.76
44.6517
20.34
22.9397
19.2826
66.0238
11.5752
37.6182
53.3083
34.9646
67.0649
6.21856
45.5388
6.85381
21.2192
24.8619
21.9747
12.1579
63.7977
50.3334
856.062
33.7501
42.4049
7.11922
46.7974
735.207
25.5675
14.8929
196.42
77.6873
380.077
26.6746
14.3995
92.4939
64.4265
3.21999
121.343
16.6056
50.6223
195.903
40.4626
67.1253
21.5834
12.2201
0.837804
78.0001
423.694
332.608
24.191
20.5295
348.64
53.3454
96.7034
30.2577
7.00483
21.4298
1.17568
1.03359
33.8964
25.207
219.854
1.25672
432.729
11.0772
152.7
37.3375
22.4188
5.81371
10.2797
18.355
0.778496
27.9461
66.3068
9.15023
0.882334
8.91139
23.2462
62.9997
14.3936
32.2726
45.111
30.797
0.654385
173.035
41.0812
52.1792
723.358
57.3497
133.686
41.7831
16.1037
0.513025
124.111
43.913
89.4703
308.984
5.03058
77.2219
162.419
678.888
398.505
455.014
82.5616
49.1689
52.6252
57.8658
55.3975
90.2003
47.2678
47.783
41.9548
45.513
46.7465
69.0116
97.703
42.9113
51.9992
57.6355
40.4846
47.512
47.7236
39.9429
47.6481
46.6595
40.5326
44.79
25.0286
116.012
0.705606
3.38945
40.9329
9.51046
8.86794
261.219
36.6725
23.941
7.6209
33.7292
2.61941
403.51
28.0722
4.18111
138.753
65.5083
37.3747
25.1456
20.5898
425.656
7.89306
42.9079
35.516
20.7486
5.49597
2.98146
161.711
22.2226
33.1723
23.2587
58.8862
7.4281
11.9652
130.765
0.63497
0.666099
13.6621
5.74996
18.2821
55.4372
39.3539
3.7432
19.5597
1.60333
29.8335
10.9125
2.17838
6.71448
183.682
36.7416
21.9844
104.56
13.6959
36.2491
8.30195
43.9464
14.0447
36.7868
20.742
42.6502
380.619
2.49648
33.1418
12.7818
29.7667
0.491275
1086.41
39.6293
36.1429
1.11068
354.476
43.9841
181.181
0.413075
0.819303
7.81255
9.02473
4.73596
25.6471
45.2436
453.752
257.133
43.0592
42.0456
5.38518
52.094
18.1914
40.3529
41.4928
30.1579
43.5887
91.177
56.8008
109.598
89.4668
5.86204
0.887907
20.6424
85.0633
61.7241
4.34232
31.0192
21.195
21.4424
10.5556
27.0899
21.6983
198.879
457.186
0.533236
58.3624
42.1559
14.1784
47.3582
423.158
39.1583
45.1014
21.8806
172.401
168.84
6.63469
9.70071
31.7624
30.3864
462.018
187.869
80.9598
23.6149
33.0182
105.105
26.2789
62.7443
14.4303
430.637
98.4584
359.15
153.906
60.1123
3.00619
38.4013
15.1441
1.42516
14.6973
7.93664
11.4773
28.9538
89.9329
40.8812
30.9206
80.0665
175.526
0.795525
11.3394
40.8658
444.964
42.9229
418.068
103.741
41.8543
477.872
43.142
508.066
508.109
525.158
385.165
389.739
364.789
521.116
327.349
6.1449
21.4788
20.2965
9.5381
17.5492
21.2822
22.3086
52.3528
78.3449
47.489
65.7178
40.011
9.08296
51.6325
0.79319
0.528007
20.6916
0.611355
29.524
55.7016
41.4683
19.1143
8.24619
116.92
72.822
35.8471
39.817
56.2018
7.82437
23.1504
909.822
30.0485
3.46394
39.8715
79.961
1.14378
10.8619
182.442
1.10921
52.1322
10.3645
17.1636
6.60302
43.3754
28.8825
9.30767
8.71017
32.916
9.1742
6.0779
97.5577
89.0425
1.52793
14.4134
15.2979
186.365
0.915804
185.514
303.907
31.2258
210.834
39.6016
19.2237
54.6809
155.238
15.9393
34.0431
50.509
119.706
77.0988
42.4467
33.1243
10.0483
0.551625
75.4356
11.5719
21.0488
118.522
251.441
240.998
136.639
26.4023
18.5245
48.4387
3.78672
2.81883
11.3921
33.9281
16.1204
290.279
28.4514
1.31964
143.526
21.5805
8.303
70.1738
1.91377
45.4779
197.48
68.5378
37.8317
0.742775
64.6469
63.4979
213.19
83.2619
393.957
0.718333
6.73684
31.1431
322.246
204.85
88.0623
66.7819
55.0278
6.5613
410.31
8.19424
52.7151
27.3443
29.7436
7.8481
72.5976
6.71086
52.6329
42.6743
220.439
4.77881
41.8242
14.6343
15.1425
7.82081
3.1793
48.7487
160.193
27.2199
62.1879
170.094
35.4313
28.3637
22.8587
23.8598
4.72983
29.1713
9.11065
40.9779
486.947
26.1644
956.351
37.5986
41.4961
25.6687
134.447
28.2806
0.658729
5.72391
10.4588
120.276
4.68598
90.1584
108.004
69.7253
10.629
17.7461
6.70519
6.92332
34.8304
267.489
69.3845
307.774
46.4557
4.49682
34.0495
29.6935
31.8937
12.8113
3.19609
7.27418
6.89251
25.0307
342.64
28.7395
27.4354
0.652138
14.6642
35.6225
27.5925
12.9426
498.984
61.1931
95.0642
161.274
4.12738
26.4317
39.4579
18.4432
192.885
45.2585
58.9199
46.155
60.1632
27.4399
66.1195
28.189
33.8035
412.596
13.638
11.5686
34.9871
42.4876
104.962
33.6641
40.158
20.9957
354.516
4.53535
11.2936
0.696004
792.711
38.1804
57.0812
0.595779
14.0734
276.467
47.4557
301.799
3.75409
4.74744
35.7706
574.406
23.6558
426.356
237.702
1.40017
48.2316
206.09
341.997
94.7919
363.896
37.6518
5.61666
67.3142
40.6864
7.78068
133.9
17.2667
97.9059
493.334
502.325
15.5257
34.2941
29.3664
195.896
6.23224
43.3907
24.9089
364.169
0.559497
30.1362
1.8298
137.883
89.1377
35.5811
7.96746
6.54966
5.11728
248.795
478.74
4.57786
38.7452
8.81555
0.592828
16.4028
26.8883
5.8215
45.8009
5.6315
24.1111
24.4192
28.5538
247.678
27.7166
13.0987
35.3762
37.2299
7.26841
5.79335
47.4473
10.8237
5.45332
22.75
25.0587
28.8671
13.6987
14.8008
247.517
208.512
91.5842
6.12973
5.47397
9.47462
0.781563
34.3059
0.638316
0.647398
15.9038
18.5037
8.86413
6.21522
213.931
36.8224
24.8595
32.2202
88.9877
185.354
30.2448
6.38669
4.4027
104.338
70.8396
205.148
2.02408
2.90201
4.30795
4.53162
1.7379
4.53405
2.32198
3.07333
4.82989
116.235
301.419
47.5567
105.037
8.08206
113.372
24.4622
38.1343
137.76
14.6764
11.8295
39.8185
133.629
18.5841
1.22344
70.7656
89.0366
44.8594
11.5426
)
;

boundaryField
{
    frontAndBack
    {
        type            empty;
    }
    wallOuter
    {
        lowReCorrection 0;
        type            epsilonWallFunction;
        value           nonuniform List<scalar> 
96
(
56.7368
40.0162
42.2032
289.438
299.67
294.532
131.18
110.94
82.7786
331.966
73.5648
237.847
94.952
319
283.708
382.699
304.998
39.8879
59.0556
160.725
67.0649
195.903
40.4626
423.694
332.608
82.5616
49.1689
52.6252
57.8658
55.3975
90.2003
47.2678
47.783
41.9548
45.513
46.7465
69.0116
97.703
42.9113
51.9992
57.6355
40.4846
47.512
47.7236
39.9429
47.6481
46.6595
40.5326
44.79
42.9079
55.4372
39.3539
43.9464
36.7868
380.619
43.0592
109.598
58.3624
42.1559
39.1583
462.018
33.0182
26.2789
430.637
444.964
418.068
477.872
43.142
508.066
508.109
525.158
385.165
389.739
364.789
521.116
327.349
6.1449
21.4788
20.2965
9.5381
17.5492
21.2822
40.011
41.4683
43.3754
42.4467
393.957
48.7487
486.947
498.984
58.9199
46.155
23.6558
363.896
493.334
29.3664
)
;
    }
    inlet
    {
        type            fixedValue;
        value           nonuniform 0();
    }
    outlet
    {
        type            zeroGradient;
    }
    wallInner
    {
        lowReCorrection 0;
        type            epsilonWallFunction;
        value           nonuniform List<scalar> 
126
(
49.9657
29.5025
30.4546
0.495204
1.43963
1.44432
1.03423
0.812834
23.128
0.937306
4.51507
14.9265
398.573
4.43744
5.37047
3.00995
7.58966
15.0103
11.6791
1.10643
0.695359
11.7517
36.6367
7.14592
8.05176
10.8217
6.02748
5.51074
5.86406
1.48812
24.2102
59.9649
298.016
10.5156
309.977
0.894689
7.26579
35.3094
5.40141
2.13023
1.32796
48.9559
22.47
1.8075
20.9528
5.96521
4.90674
303.366
0.823954
80.6184
148.244
6.8524
192.022
8.67926
51.4304
51.556
3.30261
183.751
93.932
58.1976
1.89995
1.24028
0.651009
122.118
5.11117
5.89969
81.9651
109.247
1.61754
143.762
65.5678
68.7027
7.89116
8.15428
2.51083
4.02093
8.53349
163.19
10.5374
140.553
4.37922
147.892
7.69358
181.845
9.15006
244.451
144.787
6.54495
0.812622
190.803
158.614
154.682
137.805
8.34201
133.686
124.111
6.71448
251.441
15.5257
34.2941
104.338
70.8396
2.02408
4.30795
4.53162
1.7379
2.32198
4.82989
116.235
301.419
47.5567
105.037
8.08206
24.4622
38.1343
137.76
14.6764
11.8295
39.8185
133.629
18.5841
1.22344
70.7656
89.0366
44.8594
11.5426
)
;
    }
    procBoundary3to1
    {
        type            processor;
        value           nonuniform List<scalar> 
48
(
101.215
81.1677
78.0162
93.452
47.4802
86.5433
81.1677
8.40858
88.7021
6.4937
6.4937
8.44438
8.44438
13.5995
14.4755
8.90544
8.90811
11.0312
8.90811
5.81991
8.06999
5.61263
5.81991
39.743
6.61133
2.87551
4.06202
5.61263
3.37584
14.2213
14.2213
3.95388
3.95388
88.7021
3.19143
48.1883
21.5322
6.61133
105.347
38.7259
13.5995
47.9659
69.238
5.81991
14.3899
55.6259
43.6705
10.7857
)
;
    }
    procBoundary3to2
    {
        type            processor;
        value           nonuniform List<scalar> 
29
(
0.994079
0.994079
1.19152
0.903882
34.9596
1.18721
4.78609
0.618329
0.650938
0.605488
0.665075
22.9964
1.52368
4.61069
6.60276
4.10399
0.8325
0.655324
0.778772
5.22836
5.98215
0.8325
3.93696
0.655324
7.39925
0.969264
0.655324
14.4104
14.4104
)
;
    }
}


// ************************************************************************* //
