/*--------------------------------*- C++ -*----------------------------------*\
| =========                 |                                                 |
| \\      /  F ield         | OpenFOAM: The Open Source CFD Toolbox           |
|  \\    /   O peration     | Version:  v1912                                 |
|   \\  /    A nd           | Website:  www.openfoam.com                      |
|    \\/     M anipulation  |                                                 |
\*---------------------------------------------------------------------------*/
FoamFile
{
    version     2.0;
    format      ascii;
    class       volVectorField;
    location    "0.5";
    object      U;
}
// * * * * * * * * * * * * * * * * * * * * * * * * * * * * * * * * * * * * * //

dimensions      [0 1 -1 0 0 0 0];


internalField   nonuniform List<vector> 
1431
(
(-0.128035 0.472326 -3.3039e-17)
(0.653504 -0.256286 -1.77383e-16)
(5.6615 0.77373 1.08264e-16)
(-3.04809 1.84255 -4.71731e-17)
(0.0381124 1.2159 -1.55653e-16)
(3.02693 0.0625806 2.60861e-16)
(0.682524 -0.475253 -2.11157e-16)
(9.73033 0.650164 -2.29262e-16)
(-0.20414 4.25813 0)
(0.0985345 1.90885 -1.17968e-16)
(0.0632038 0.536405 0)
(0.265187 -0.562372 7.49317e-17)
(-0.974887 1.29892 0)
(8.99216 0.51501 2.01945e-18)
(0.227319 0.951642 -2.57398e-16)
(0.164635 3.35117 0)
(0.352367 2.63783 -3.09026e-16)
(0.228412 0.869918 0)
(-0.585869 -0.210902 1.39094e-16)
(-0.0944621 0.388573 6.1101e-17)
(-0.283382 0.995769 -1.9611e-17)
(-0.312931 0.399982 -6.77918e-20)
(1.73979 1.10336 -4.94123e-17)
(8.68659 0.565113 -3.27363e-17)
(1.75202 3.33077 -1.29233e-16)
(-0.100396 0.34098 -1.73911e-16)
(-1.41 4.7933 1.18454e-16)
(9.26446 0.464207 -2.43797e-20)
(10.8363 0.630247 6.33144e-18)
(0.0758784 -0.942049 -5.44094e-16)
(7.44082 0.275041 2.51436e-16)
(7.06437 -0.168013 -1.85322e-16)
(-1.8525 0.414967 -1.24985e-16)
(-1.73507 0.418669 0)
(-1.36664 -0.301262 1.01876e-16)
(1.84402 8.75684 1.32517e-16)
(0.0131856 0.334884 1.53641e-16)
(9.68174 -0.00466901 0)
(0.955762 0.497862 -1.73965e-16)
(9.59695 -0.00381925 0)
(4.78831 0.121618 1.42984e-16)
(1.05479 0.168803 -7.79211e-17)
(-1.61973 0.73157 0)
(-0.970369 0.252314 -7.1468e-17)
(-1.08888 0.751021 1.65086e-16)
(-0.538185 0.634305 -4.24904e-16)
(1.50858 4.87341 2.2491e-16)
(7.11754 1.20769 -6.14263e-17)
(8.91335 0.535237 1.67613e-16)
(9.43255 0.0851255 3.84828e-17)
(0.661883 -0.786874 -9.16981e-17)
(0.600448 2.57732 1.11345e-16)
(-0.0938329 5.51388 4.91911e-17)
(-1.21947 0.772608 -1.65186e-17)
(0.933016 0.0579643 -1.3339e-16)
(7.90132 1.75209 0)
(1.1257 3.72227 5.90983e-17)
(-0.0993478 4.46273 -2.24753e-16)
(-0.445962 6.44489 0)
(0.0210348 0.456562 -8.87956e-16)
(0.680822 2.1406 0)
(0.298197 1.38345 -1.76203e-16)
(1.31496 7.7378 -1.46036e-16)
(10.5787 0.121668 0)
(9.96355 0.314028 -1.92238e-17)
(-0.618495 0.907082 0)
(6.183 0.347986 0)
(3.185 -0.0199729 0)
(-0.580989 -0.94195 1.58405e-16)
(10.7584 0.0927191 0)
(-1.00052 0.418744 9.407e-17)
(-1.50172 0.0130196 -9.57722e-17)
(1.18078 1.09987 0)
(2.60899 0.200505 -2.73101e-16)
(1.32074 2.36017 1.74246e-19)
(-0.953921 0.307114 3.03241e-16)
(-0.16168 1.12207 5.39232e-17)
(3.45554 0.638849 3.52801e-16)
(9.98141 0.181662 1.36361e-17)
(1.0174 -3.01383 -2.22277e-17)
(9.93084 0.100327 -2.65961e-16)
(0.852765 -0.38898 -2.30217e-18)
(2.12209 -0.196558 2.03396e-16)
(1.17018 0.41705 -8.77661e-17)
(-2.7454 1.36245 4.85025e-17)
(0.0196654 1.17655 -5.33261e-16)
(0.126927 0.786105 -1.19297e-16)
(-1.18654 1.62926 1.64388e-16)
(8.30294 0.606536 9.86084e-17)
(-0.0353892 0.537523 -7.89743e-17)
(-0.325661 0.470402 2.34238e-16)
(-1.61635 1.27672 2.54806e-16)
(0.126298 0.758222 0)
(9.74641 0.0392961 0)
(1.40956 0.0450982 2.24498e-18)
(-0.114563 1.04918 1.00859e-19)
(0.836765 2.26915 -2.57069e-19)
(10.3574 0.57439 3.44624e-18)
(0.141975 0.500997 2.47594e-16)
(8.74184 0.493043 -4.74834e-16)
(-0.622582 -0.939979 -1.7812e-16)
(9.86236 0.181983 -7.04432e-17)
(-0.0369995 0.436639 0)
(0.0689583 1.16018 3.6656e-20)
(-1.02346 2.62365 1.79921e-16)
(0.710184 -0.70299 8.19e-17)
(10.0105 0.0718378 -1.1104e-16)
(4.47701 -0.0476465 8.15368e-17)
(6.68176 0.000989586 1.02115e-16)
(-0.0399081 1.22664 8.21904e-17)
(-0.649745 -2.56333 1.93063e-16)
(-1.08655 0.890759 -7.34433e-17)
(9.65961 0.887321 0)
(0.262215 1.01156 -1.90088e-16)
(-0.378043 2.87701 0)
(0.0531007 1.17034 0)
(0.216086 0.669624 0)
(0.361857 -0.119164 -1.93928e-19)
(7.82005 0.620766 -6.78945e-17)
(-1.61822 0.708617 -1.66268e-16)
(9.88745 0.275645 -2.12278e-17)
(-0.154771 5.79015 -1.37402e-16)
(0.752581 3.38572 -4.63346e-16)
(8.65334 0.843248 -1.25631e-16)
(10.1155 0.172533 0)
(-1.25288 0.0792154 -9.76452e-17)
(7.25467 0.602826 1.79655e-17)
(1.36699 1.41689 5.55097e-17)
(-0.302724 0.724282 9.6024e-17)
(10.6347 0.425611 -7.69841e-17)
(-0.687581 0.68625 -1.45892e-16)
(3.96196 -0.164953 2.66451e-16)
(7.16246 0.352908 0)
(0.132574 0.484201 -2.12985e-16)
(0.0796776 0.771858 -1.23218e-17)
(-2.0206 1.28934 -2.81382e-16)
(0.721711 1.25148 0)
(-1.17675 0.234371 1.28758e-16)
(-0.403808 0.419365 5.2274e-17)
(3.19008 -0.0804572 -4.41107e-16)
(0.0138812 3.7144 0)
(0.0911761 0.344674 3.96296e-17)
(10.5231 0.0598613 -8.01869e-18)
(8.84027 0.376381 -2.16164e-17)
(8.48413 0.141399 0)
(11.3774 0.284889 4.67443e-17)
(10.3452 0.383741 3.60254e-17)
(4.26523 -0.0752862 0)
(0.361723 1.28882 -1.35772e-16)
(9.29773 0.961127 -5.52574e-17)
(10.8523 0.0443632 8.35019e-17)
(9.87024 0.435531 -1.66564e-17)
(-0.272679 -0.303523 -2.06814e-16)
(2.74059 -0.598462 8.47057e-17)
(0.403544 0.696811 1.87847e-16)
(1.01653 1.31318 -3.97677e-17)
(10.0782 0.112396 9.18069e-17)
(0.339333 0.547808 -4.85939e-16)
(9.54856 0.998349 0)
(9.47107 1.21635 -1.01881e-16)
(0.370173 0.867112 -8.90758e-20)
(0.0636035 0.895891 4.99835e-17)
(-0.188697 0.442307 0)
(-0.405789 2.10791 -3.68048e-17)
(0.0627248 0.93621 -2.48258e-16)
(-0.833746 -0.402294 -2.01957e-16)
(-0.0700498 1.20945 -1.24264e-16)
(9.80848 0.115582 0)
(0.408594 -0.76327 4.26202e-16)
(0.0299884 0.479457 -1.955e-16)
(9.60153 0.959676 -1.43869e-17)
(0.454243 3.21362 2.46485e-17)
(8.34073 0.5602 -1.23601e-16)
(11.0474 0.053616 0)
(10.5064 0.0414948 1.52111e-17)
(-0.83135 0.330498 0)
(-1.00403 0.313734 8.56197e-17)
(9.29371 0.677124 -1.88689e-17)
(-0.136441 -1.07208 3.15316e-16)
(9.4945 1.15475 1.04555e-16)
(9.72499 0.325568 4.36658e-17)
(0.41173 0.747355 1.24469e-16)
(8.73212 1.77701 0)
(0.0570619 0.58392 4.20982e-16)
(11.2429 0.117731 1.01909e-16)
(9.82612 1.15043 -1.42697e-17)
(9.81345 0.750314 1.08805e-16)
(-2.82445 4.7495 -1.35562e-16)
(-0.0520289 0.341681 2.46316e-16)
(10.2666 0.107811 -1.95332e-20)
(-0.0132946 -1.18404 -3.80036e-19)
(0.553952 2.54121 -1.21557e-16)
(-0.248271 1.18508 -3.5091e-16)
(10.0548 0.0460434 -6.71581e-17)
(-0.248125 2.97526 -4.7233e-21)
(10.0367 0.452953 4.20411e-17)
(10.0116 0.0951161 0)
(7.13099 2.13672 -1.13094e-16)
(0.150216 1.34964 0)
(0.249641 1.28996 0)
(0.306084 -0.610258 -2.18257e-16)
(2.86753 2.73768 -2.90443e-16)
(9.32201 1.07808 -2.88015e-17)
(3.44352 0.129927 -5.02386e-16)
(10.0298 0.0568984 3.69081e-17)
(-2.35659 2.53091 -3.09476e-16)
(-0.00909644 1.07754 9.71986e-16)
(9.77278 0.229961 2.6213e-17)
(1.47846 1.79727 1.37574e-17)
(9.17353 0.278968 0)
(10.121 0.0693314 8.33218e-18)
(9.92696 0.358986 6.60129e-17)
(7.80443 0.674037 1.47174e-17)
(9.85307 0.205508 2.51808e-17)
(1.25831 2.69727 0)
(-0.114714 1.04148 3.78802e-16)
(9.42822 1.09996 0)
(0.0143301 -1.4001 0)
(-0.558448 -0.52044 0)
(10.1106 0.240738 -6.58158e-17)
(9.87419 0.173723 0)
(0.259206 1.2267 1.50789e-16)
(11.1161 0.0306331 -1.34143e-16)
(4.43664 1.20535 -7.87724e-17)
(10.7204 0.356177 0)
(9.3503 0.991204 0)
(9.32411 0.972509 -7.69385e-17)
(0.134878 0.662426 0)
(10.5121 0.678328 0)
(7.48694 0.208541 -7.67469e-17)
(0.0906724 1.05648 0)
(-2.66458 2.30354 3.33643e-16)
(10.6195 0.0941846 5.23335e-20)
(9.8692 0.526904 -1.98062e-16)
(9.77019 0.456096 9.09833e-17)
(9.8037 0.406068 5.12406e-17)
(10.4829 0.268631 -2.7685e-17)
(-0.249231 0.522878 2.2955e-16)
(9.84138 0.111358 0)
(0.0025511 0.378403 2.19877e-16)
(9.49486 0.217345 -3.35185e-17)
(9.4114 1.17715 8.64383e-17)
(-0.165848 3.14577 -2.37826e-16)
(0.857814 4.70549 -2.96578e-16)
(0.353583 1.5951 -7.28534e-20)
(-0.128818 1.6966 1.10157e-19)
(10.532 0.27721 -1.86569e-16)
(-1.12567 -0.466246 0)
(-2.2026 0.287033 0)
(9.94472 0.937719 0)
(10.0808 1.01686 -9.87291e-17)
(-0.166297 3.66062 0)
(0.042398 1.29338 1.2659e-16)
(6.2651 3.25407 2.2112e-17)
(1.31056 5.70699 -1.67243e-16)
(8.153 0.0648618 -4.68883e-17)
(1.08037 -0.209703 1.90556e-17)
(-0.287588 0.301455 6.73903e-19)
(8.29889 0.0114238 8.23455e-20)
(8.2465 0.0279489 9.09598e-17)
(8.11655 0.0847508 9.01628e-17)
(-0.602617 1.73436 2.66994e-17)
(0.0791881 0.65561 4.85182e-16)
(0.133608 4.04123 -4.53137e-17)
(9.761 0.336787 -8.01315e-17)
(10.6348 0.578095 7.08495e-18)
(8.22089 0.0129692 -8.387e-17)
(9.8696 0.946289 0)
(8.34881 2.81678 2.91491e-17)
(-0.028352 3.15571 -1.56389e-17)
(9.76027 1.09102 0)
(9.06681 0.742257 3.20721e-16)
(10.2237 0.886282 2.85699e-17)
(10.2712 0.778517 0)
(8.06265 0.0999824 -5.59169e-17)
(9.98372 0.687452 1.34126e-18)
(-0.0397055 0.392563 -1.38862e-16)
(-0.210634 -0.90485 -2.75242e-19)
(-0.866384 -0.555287 -3.74683e-17)
(0.148059 2.62342 1.88818e-16)
(-0.311041 4.93655 0)
(-0.0310117 0.332381 -4.51878e-17)
(-0.410831 -0.60677 0)
(0.162633 0.395123 3.4845e-16)
(8.27189 0.000483131 -4.59193e-17)
(-3.45828 3.48405 5.9106e-17)
(0.0564965 1.11018 1.1821e-16)
(9.13625 1.23475 5.42231e-17)
(10.1881 0.872806 2.15185e-19)
(9.62932 0.193148 6.99652e-17)
(11.1545 0.436796 1.59705e-16)
(9.50473 0.00455121 -6.28983e-17)
(9.39902 1.09143 0)
(-0.190214 -1.50632 0)
(10.0346 1.09457 -4.57501e-17)
(9.36857 1.42629 4.92503e-18)
(-0.331996 1.04545 0)
(8.95085 2.12344 1.64416e-18)
(0.168562 0.297341 -2.15912e-16)
(9.51576 1.2086 2.94192e-17)
(9.62824 0.390536 2.98853e-17)
(9.11249 0.836162 7.73909e-17)
(2.20125 0.280799 0)
(7.97252 0.138466 0)
(0.510758 0.640786 -2.74777e-16)
(0.533349 0.283909 1.86267e-16)
(9.91723 0.127367 8.48265e-17)
(8.20173 0.0442504 -9.19607e-17)
(8.25771 0.0176677 -8.84856e-17)
(-0.442514 0.302729 1.8921e-16)
(9.64328 0.264568 -1.39599e-17)
(10.8012 0.210826 5.64487e-17)
(0.429715 -0.0767264 -1.83713e-17)
(0.164133 0.324238 -2.05488e-17)
(-1.66049 0.848844 -7.82122e-19)
(0.709085 0.152389 -1.97242e-16)
(0.121381 3.1495 -5.20358e-17)
(0.636155 -0.0578504 -8.70976e-17)
(9.7947 0.348256 -4.79506e-17)
(-0.412138 -0.578583 -1.76515e-16)
(0.669003 0.349344 -2.96006e-16)
(-0.452738 -0.518502 2.63586e-16)
(0.056119 4.22344 1.39873e-19)
(0.703544 0.365745 -1.06556e-19)
(-0.261302 0.848255 -1.75337e-16)
(-0.556996 -0.710971 -9.1057e-17)
(9.83561 0.0761177 1.81868e-16)
(-0.692155 -0.896988 -7.66352e-17)
(7.49031 0.469601 0)
(9.75745 0.18574 -7.02611e-17)
(-0.0325155 -0.522353 -1.08112e-16)
(1.68656 -1.31882 0)
(-0.624682 0.346146 0)
(-0.0998081 -1.31874 1.82253e-16)
(10.2854 0.116275 0)
(-0.174322 1.93429 -1.40415e-16)
(0.522604 -0.466738 -6.5392e-17)
(-0.4535 -0.4424 0)
(0.906765 -0.551082 -1.77191e-17)
(-1.50096 0.50944 1.47434e-16)
(0.292892 0.824947 0)
(9.81505 0.0933136 -8.20355e-17)
(-0.696389 -0.834641 8.92255e-17)
(10.072 0.225629 3.42341e-17)
(6.66687 3.67785 -2.73553e-16)
(0.744654 -0.413474 1.71475e-16)
(10.5191 0.246402 1.49971e-17)
(0.332349 -0.353317 1.75596e-16)
(0.0382175 0.0987586 -9.33227e-17)
(-0.789997 0.165632 -7.78095e-17)
(1.50354 -0.0830908 -1.14299e-16)
(-1.74726 -0.0513581 -3.8205e-16)
(-1.09375 -0.299536 0)
(1.53914 0.202187 -1.46909e-16)
(-0.0597853 -0.0911216 0)
(1.75622 0.0209687 0)
(-1.7058 -0.110682 0)
(0.046838 -0.116421 -3.88701e-16)
(0.831971 0.283573 0)
(-1.06402 0.0732278 4.59765e-16)
(0.599939 -0.210577 -1.9642e-17)
(-0.495505 -0.258482 1.43249e-16)
(1.70657 0.0998186 2.25269e-18)
(0.270754 -0.00131597 -9.69309e-17)
(-0.143909 0.149722 2.91417e-16)
(0.863953 -0.207211 -1.65398e-16)
(1.46121 -0.136602 0)
(-1.18793 -0.12906 0)
(-0.31718 -0.258741 -2.67386e-17)
(0.276684 -0.0436466 0)
(0.630526 -0.0807987 6.41817e-16)
(-0.543216 0.383775 1.30458e-16)
(-0.500752 -0.607749 -1.54148e-16)
(9.9624 1.14384 5.32795e-17)
(-0.163223 -1.52044 0)
(-0.943449 -1.66225 1.95421e-16)
(0.0830325 -0.600043 1.03901e-16)
(9.8069 0.312143 3.24472e-17)
(10.0046 0.0351736 8.46269e-17)
(0.428274 0.266545 6.50882e-16)
(-1.48849 0.185131 2.4872e-17)
(1.27266 -0.106011 3.72105e-17)
(-0.376809 0.192774 -2.62312e-16)
(-1.43642 -0.217819 0)
(-0.952125 -0.284083 1.31995e-16)
(1.68729 -0.0210284 0)
(-1.30235 -0.0218228 0)
(0.0330381 0.106061 2.08706e-16)
(1.23916 0.267779 1.41664e-16)
(0.216113 0.061395 1.79376e-16)
(-0.368292 -0.506021 0)
(1.97492 4.81311 1.94384e-16)
(9.64602 1.10023 -2.89895e-17)
(9.98796 0.0029683 0)
(-0.593289 -0.765967 -5.39887e-20)
(-1.54118 0.497651 -1.55216e-16)
(-0.499496 -0.262889 -1.7063e-16)
(9.95071 0.198809 0)
(-0.359366 0.0227925 0)
(10.4408 0.0813039 0)
(-0.95758 -0.0141022 -5.82329e-17)
(-0.123587 -0.635558 1.91758e-16)
(10.0094 0.215113 2.85128e-17)
(1.26747 -0.505206 3.09696e-17)
(-0.33373 -0.594953 1.24544e-17)
(9.99056 0.925785 0)
(0.61166 -0.272987 1.14796e-16)
(8.60796 0.0218718 1.73248e-16)
(-0.379711 0.572116 -3.01466e-17)
(0.213434 -0.273313 -1.52441e-16)
(9.69646 0.0782809 6.70041e-17)
(-0.137835 -0.752034 0)
(-1.22351 -0.360981 -9.76402e-22)
(1.87379 7.50834 -4.19432e-16)
(8.67946 0.215211 -2.2958e-17)
(1.73022 4.42972 6.86068e-17)
(0.302291 -0.606242 -1.71596e-16)
(0.0202163 3.88069 2.01002e-16)
(-0.437859 -0.914506 -2.34255e-17)
(-0.491651 -0.00741288 7.53828e-20)
(0.683668 0.177089 4.84855e-17)
(-0.278425 -1.31039 1.4467e-16)
(-0.493498 -0.137286 5.96216e-17)
(0.133014 -0.877366 -2.85692e-16)
(-0.244556 -1.39487 0)
(0.385828 -0.530454 1.73814e-16)
(0.324006 -0.649982 5.18348e-17)
(0.116324 -0.0462553 1.23785e-17)
(-0.363051 0.659305 -1.23843e-16)
(0.524614 -0.229851 -4.23149e-16)
(0.793752 0.706494 0)
(-0.102196 -1.19333 -1.9974e-16)
(-0.192443 -0.332665 0)
(0.00850246 -0.404015 2.653e-16)
(-0.0321287 0.159479 -1.04674e-17)
(0.520329 -0.293785 0)
(-0.303228 -1.11341 -2.16127e-16)
(0.124066 -0.384131 2.87487e-18)
(0.303492 -0.963305 6.184e-16)
(-0.663018 0.555993 1.86255e-16)
(1.68333 -0.220465 8.2866e-19)
(0.115472 3.77078 -3.85714e-17)
(0.0653367 -0.562616 0)
(0.126605 -0.712588 5.15893e-17)
(0.0358532 -1.30181 0)
(-0.248687 -0.360709 9.42452e-18)
(-0.242841 0.0778471 -5.43135e-18)
(0.0616623 -1.3977 -1.1994e-16)
(0.373757 -1.59466 0)
(0.0116636 -0.0288101 1.84398e-16)
(-0.0565445 -0.248707 -1.14872e-16)
(-0.527756 -0.517698 4.27602e-16)
(-0.175988 -0.0385193 -1.64134e-16)
(-0.537312 -0.226729 -1.61443e-16)
(-0.289304 -1.2442 7.85688e-17)
(-0.608661 -0.443992 -2.4209e-16)
(-0.589832 -0.706619 -3.20146e-16)
(-0.519813 -0.773815 -6.97741e-18)
(-0.607681 -0.553851 0)
(0.0104256 -0.0768101 0)
(2.3464 2.08575 3.13449e-16)
(-0.305819 -0.632054 0)
(-0.0251688 0.644887 0)
(0.766446 0.85104 -2.1861e-16)
(0.0378461 -0.361351 2.19876e-16)
(0.26716 -0.649105 -4.74316e-16)
(-0.155505 0.768337 -1.65539e-16)
(1.39981 2.74768 1.18531e-16)
(-0.0244975 0.980358 -2.39554e-16)
(-0.283419 -0.740326 -5.85846e-16)
(1.43505 4.92573 1.75726e-16)
(0.0838417 0.470663 0)
(8.01999 0.0868408 -1.6002e-17)
(1.04442 6.94727 -6.00082e-17)
(-0.448944 1.28169 3.10731e-16)
(-0.0915821 -0.937993 -1.86232e-16)
(2.06655 7.19826 -2.90156e-16)
(1.91317 8.12942 2.57667e-16)
(0.900721 4.6021 1.68915e-16)
(-0.0936404 -1.34949 0)
(-0.222016 -1.3315 -4.58853e-17)
(0.125859 0.160061 0)
(0.674803 8.35749 -5.03561e-17)
(9.92059 0.398909 -1.8847e-17)
(8.71186 0.13265 -3.3304e-17)
(2.27637 1.83857 -1.3336e-16)
(0.390123 1.38857 -1.41434e-16)
(-0.437716 -0.0346579 1.42457e-16)
(-0.432308 -0.965091 -1.0533e-16)
(0.203677 -1.48335 0)
(0.0728082 -1.33223 -1.1544e-17)
(-0.171541 -0.924697 0)
(-0.215333 -0.896104 2.40886e-17)
(1.85631 7.04864 5.97592e-17)
(-0.120185 -1.17158 0)
(0.159817 -0.122459 0)
(-0.566587 4.45388 0)
(0.188459 -1.08721 4.11809e-17)
(9.92247 0.161722 -1.40398e-17)
(0.239524 -1.0858 0)
(0.111026 1.43205 -7.51977e-19)
(-1.17529 6.01006 1.34767e-17)
(0.213926 -0.0235164 6.36029e-21)
(0.514977 -0.169233 0)
(0.526534 -0.287654 2.4427e-16)
(0.114994 -1.66478 0)
(-0.0177383 -1.057 2.43769e-20)
(-0.460495 -0.0651451 -7.76691e-17)
(-0.26208 -1.05955 -4.38956e-17)
(0.116932 4.01479 -7.23649e-17)
(0.0918107 4.06024 0)
(0.0745019 -1.55186 3.29078e-17)
(9.60679 1.26588 0)
(-0.547443 -0.33327 4.32601e-17)
(10.5095 0.121132 -9.77844e-17)
(-0.357432 -0.902052 0)
(1.33071 6.58437 -3.83249e-16)
(-0.742251 5.3915 7.67532e-18)
(-0.227124 -1.21009 4.40926e-17)
(0.750046 -0.458419 0)
(0.195752 -1.6707 2.59771e-20)
(0.224033 -1.21829 -1.27275e-16)
(0.167572 -1.40484 6.01236e-17)
(-0.554587 0.606265 -1.66915e-16)
(-0.544464 -0.102321 1.17719e-18)
(-0.334941 -1.05707 0)
(-0.0564654 -0.501474 1.91191e-16)
(-0.373473 -1.06905 0)
(0.208185 -1.34205 3.98022e-17)
(0.201004 -0.740711 -1.09549e-16)
(8.68759 0.176554 4.58099e-17)
(7.93391 0.166001 -1.32961e-16)
(0.340463 -0.964707 5.42054e-17)
(0.185303 -1.41054 -1.57782e-17)
(-0.459766 -0.751511 2.09495e-17)
(-0.318005 -1.16041 -4.02957e-17)
(0.254866 0.322408 4.65493e-17)
(0.276632 -0.739278 0)
(-0.196697 -0.421448 3.62474e-16)
(3.15973 4.24728 0)
(0.520453 -0.12745 -1.53058e-16)
(0.670833 2.75255 1.82192e-16)
(0.125332 -0.636475 1.78193e-16)
(2.05851 2.34409 0)
(-1.19135 0.299591 4.28128e-17)
(-0.432349 0.420686 6.02562e-17)
(0.215194 -0.397688 2.91559e-17)
(9.77218 0.107477 0)
(-0.468839 -0.445685 0)
(0.0786939 -0.924641 3.89305e-20)
(0.290276 -1.04591 -4.55794e-17)
(0.272969 -0.0797041 2.42322e-16)
(8.17884 -0.0393072 4.44613e-17)
(-0.374978 -1.00956 7.77367e-17)
(-0.701135 0.175694 3.45195e-17)
(-0.409371 -0.63057 -6.08268e-17)
(0.208888 0.684106 -8.9387e-17)
(0.188418 -0.591381 -1.89063e-16)
(8.10156 -0.0354568 -5.24276e-19)
(9.23523 1.25435 4.81304e-17)
(-0.127622 -0.307728 -3.72886e-16)
(0.427095 -0.704569 0)
(0.00044624 1.45554 0)
(0.793566 4.38709 6.63249e-16)
(-2.23106 0.449936 -1.2676e-16)
(-0.988831 -0.0524042 -4.91498e-16)
(-0.247878 -0.755551 0)
(9.67537 1.00263 1.36478e-16)
(1.09532 0.941393 0)
(0.539547 -0.340026 1.5369e-16)
(-1.63742 -0.346526 -5.43001e-16)
(-0.369452 0.45988 1.98517e-16)
(2.08922 2.55158 0)
(-0.414418 0.446539 1.0642e-17)
(1.42315 7.13637 0)
(0.391303 0.352703 2.8731e-16)
(-0.281905 -1.11579 1.14813e-16)
(-0.176233 -1.48998 1.11554e-16)
(0.478742 -0.535023 -1.51221e-16)
(8.78776 2.49003 -3.0102e-17)
(0.188389 -0.408476 -4.93105e-18)
(9.77174 0.0849036 2.30439e-16)
(-0.439104 -0.641673 0)
(0.491766 -0.220691 -6.038e-20)
(1.8827 0.213667 -2.19164e-17)
(0.355598 -0.718035 0)
(-0.00086534 -0.556896 3.61326e-16)
(9.88349 1.07466 0)
(0.812526 -0.643401 4.54839e-18)
(10.7394 0.478861 -3.41408e-18)
(1.63847 3.12753 0)
(0.0377935 4.05296 -9.07688e-17)
(10.0003 0.076547 -1.15255e-16)
(9.80421 1.32323 0)
(9.63939 1.61453 -5.36538e-18)
(0.439769 -0.675144 0)
(0.0497293 0.350019 -9.74818e-17)
(0.114451 -1.05005 -1.76827e-17)
(9.72377 0.905262 7.35155e-18)
(2.72537 -0.620608 -1.70587e-16)
(-0.0648262 -0.603493 -2.36452e-16)
(0.428487 -0.452107 -4.57412e-16)
(0.0917912 -1.16384 -4.18856e-17)
(0.30296 -0.394091 -6.27013e-18)
(0.302515 -0.0442974 7.33587e-19)
(-0.408044 -0.00988107 -9.89007e-17)
(0.372703 1.09004 0)
(0.448228 -1.35363 2.17289e-19)
(-0.385767 1.02057 5.73793e-17)
(5.91607 1.36485 -4.64097e-17)
(7.1801 2.54698 6.41489e-18)
(-0.312448 -0.342097 -1.58897e-16)
(-0.772424 -0.172369 0)
(0.0595688 0.14056 -1.93133e-16)
(6.58997 1.90388 0)
(9.77631 0.788296 -1.36679e-17)
(-0.504449 6.41923 0)
(0.0571469 4.10412 4.47914e-17)
(0.17484 0.361267 -1.23377e-16)
(-0.42996 -0.424934 -1.7892e-20)
(0.0502795 -1.55007 9.68477e-17)
(1.44724 0.214582 0)
(-0.156763 1.00548 3.2198e-16)
(0.947714 -1.27154 -6.00184e-17)
(0.126381 -1.3552 -4.07547e-22)
(6.50693 1.64653 -6.53832e-17)
(-0.113253 -1.72677 7.78392e-17)
(0.107183 0.161416 9.97379e-17)
(-0.333773 -0.750722 -1.41251e-17)
(9.77661 0.0575512 0)
(-0.334479 1.02471 5.24755e-17)
(-0.256544 1.14659 -1.09675e-16)
(-0.425966 0.287686 -1.37553e-16)
(9.78284 0.0486524 -4.8219e-17)
(0.61165 0.459231 7.08632e-17)
(-0.409862 -0.755622 3.84305e-17)
(0.23378 -1.57531 -7.74802e-17)
(9.07918 1.27134 3.841e-17)
(9.02079 1.76663 2.12694e-17)
(-0.377429 1.05032 2.69024e-16)
(0.399032 -0.386695 -2.11429e-17)
(-0.21076 2.44227 0)
(9.79626 0.059921 1.90733e-16)
(-0.332483 -0.189219 3.82467e-16)
(0.242062 -1.53467 -1.93084e-17)
(0.33592 0.251857 0)
(0.494652 -0.390354 3.49339e-17)
(0.0222712 4.94916 -6.6423e-17)
(0.520161 1.79772 6.18363e-17)
(-0.542843 1.13346 3.12433e-16)
(-0.94615 -0.517063 0)
(1.08922 0.343919 2.69925e-17)
(9.34849 1.88779 4.50312e-17)
(8.77575 1.0931 0)
(0.0987863 4.56093 9.12818e-17)
(-0.368654 -0.770315 -7.01169e-17)
(9.77109 0.0718065 8.57093e-17)
(9.91101 0.169565 -2.34892e-17)
(0.0329724 -0.945379 -2.69615e-16)
(-0.339972 -0.358291 -4.28474e-16)
(0.462179 -0.117683 2.29669e-17)
(0.285808 -0.14061 1.06145e-16)
(-0.244631 0.6646 -3.89474e-16)
(-0.269876 0.569721 -2.09669e-19)
(9.77726 0.137526 0)
(1.87371 -0.553879 1.54783e-16)
(10.0127 0.079845 4.05923e-17)
(-0.438626 0.379321 -6.04088e-17)
(-0.393 -0.408773 1.56836e-16)
(0.507573 0.384879 -5.44668e-17)
(0.156825 -0.0226603 -9.8677e-17)
(9.79492 0.0893744 -2.68376e-17)
(-0.306352 0.926372 -1.94548e-16)
(0.361959 0.0554255 -2.68377e-17)
(8.64803 0.280588 0)
(8.79086 0.75578 8.30792e-17)
(-0.15536 1.20004 6.79505e-17)
(1.8977 2.65796 1.52717e-16)
(-0.328183 -0.624684 0)
(8.98416 2.12502 -3.21691e-17)
(0.398896 0.670497 -1.65257e-16)
(0.236938 -0.00124638 1.89709e-18)
(-0.0767603 2.15019 -2.86113e-17)
(-1.42217 -0.18809 1.9543e-17)
(-0.0499108 -1.48884 -1.92983e-16)
(-0.0857512 -0.65206 -6.48752e-20)
(-0.256548 -1.41523 3.5965e-16)
(0.404386 0.159473 -4.6708e-17)
(0.273873 -0.20185 0)
(-0.703599 -0.32965 1.56784e-16)
(6.88951 0.0854398 2.35047e-17)
(0.404959 0.0653437 0)
(0.484406 -0.103775 -2.07763e-17)
(-0.14244 0.435629 -7.44407e-17)
(-0.292582 -0.747326 1.15819e-16)
(0.335944 -1.7831 -3.69801e-17)
(0.198935 -0.0553343 -8.24598e-17)
(-1.06358 -0.517342 3.07287e-16)
(9.78972 0.115405 0)
(8.978 1.30195 -6.20455e-17)
(0.397911 -0.067232 0)
(0.846363 -1.64883 1.3758e-16)
(9.37951 1.08468 -6.84012e-17)
(0.250882 -1.36989 7.31477e-17)
(-0.0304792 0.802781 3.1509e-16)
(4.72174 2.86547 1.00607e-16)
(8.94339 1.41063 -3.34245e-19)
(-0.33393 0.213472 -2.04775e-16)
(10.0082 0.0895987 -1.17713e-17)
(5.15491 0.322409 2.59313e-16)
(-0.0597768 -1.19376 2.66794e-16)
(-0.0189612 0.522761 4.43123e-18)
(0.148689 -1.18506 -1.01203e-16)
(-0.452582 0.30264 -3.97676e-17)
(0.0922513 0.363382 -1.12623e-16)
(8.10762 0.301662 5.28085e-21)
(0.494457 -0.450423 3.29978e-16)
(-0.288426 3.05827 -1.17911e-16)
(8.84707 1.29334 -9.31005e-19)
(-0.35388 0.517005 8.72955e-17)
(8.49115 0.333834 0)
(9.506 0.126368 2.3384e-17)
(9.77087 0.110038 1.31087e-17)
(-1.2578 5.80936 1.39354e-16)
(-1.20139 -0.340357 -4.36437e-16)
(7.67748 0.297869 -2.43156e-17)
(-0.360602 0.47279 0)
(-0.103194 1.16649 1.26372e-16)
(1.77508 0.153216 -2.83607e-16)
(0.368894 -0.107975 0)
(-0.568035 -0.569444 0)
(-0.00171828 0.241174 1.70334e-16)
(2.2705 0.165125 2.6391e-16)
(2.68773 0.199303 0)
(-0.352836 4.7777 -1.78043e-16)
(9.47774 0.972767 -7.39766e-18)
(0.244015 0.257283 1.89646e-16)
(0.424184 -1.48437 1.16337e-16)
(-0.295243 0.0845699 0)
(-5.13301e-05 0.362978 -3.8177e-16)
(0.433983 0.0651711 1.72253e-16)
(-0.17734 2.60893 1.24094e-16)
(5.90289 -0.26736 0)
(-0.471824 0.421429 0)
(5.17524 0.116873 0)
(8.92265 0.355303 8.13304e-18)
(9.07347 1.63509 1.13574e-17)
(10.3675 0.776622 -1.40324e-17)
(9.163 0.936447 7.65326e-17)
(2.52989 -0.12863 1.9893e-16)
(0.189171 4.30981 4.61231e-17)
(8.95795 1.38978 -1.38785e-16)
(3.14198 0.210877 0)
(3.95763 0.188654 5.18211e-17)
(-0.0924433 0.389237 0)
(-0.194 0.445707 -1.249e-16)
(9.94444 0.041461 6.16562e-18)
(10.9173 0.0563476 0)
(9.40776 0.10381 5.63761e-18)
(6.6162 0.547285 -1.73134e-16)
(2.65147 -0.138705 -3.31205e-16)
(6.91398 0.857828 1.27248e-16)
(4.59857 4.61948 0)
(3.17011 5.55248 1.78156e-18)
(9.53494 0.00863536 1.06992e-16)
(0.610262 2.76948 -1.72162e-16)
(1.24424 0.171495 -6.28865e-18)
(2.27319 6.56476 -3.80471e-17)
(5.36973 0.173206 7.16906e-19)
(3.57998 0.207315 8.43282e-19)
(-0.0186534 -1.41313 -1.69714e-19)
(0.741503 6.68068 0)
(0.184283 0.249122 1.81591e-16)
(-0.000566359 -1.2891 1.55396e-16)
(0.260799 -0.186648 -1.86447e-16)
(4.88437 0.112483 0)
(0.251282 0.0601242 9.42473e-17)
(1.0158 1.93888 3.20861e-17)
(-0.0303512 -0.7468 -1.6429e-16)
(1.70829 -0.698228 -1.71986e-17)
(1.85173 0.673982 -1.06548e-16)
(-0.635216 0.324258 6.25517e-17)
(4.29151 0.161272 -5.34409e-17)
(0.224117 4.28776 0)
(-0.914972 -0.186632 1.67378e-16)
(3.57385 2.5375 -4.78338e-16)
(0.0639844 0.375003 -1.02476e-16)
(0.308828 -0.988497 -1.40965e-16)
(-1.23294 0.693312 -1.30893e-19)
(5.84846 0.455912 -1.20604e-18)
(-0.0769824 0.367745 2.07512e-16)
(9.55408 0.870722 0)
(1.34675 0.0447231 0)
(3.25172 1.58904 -1.01835e-16)
(9.99397 -0.0102501 2.93613e-18)
(9.8517 0.221159 0)
(0.25319 0.0802154 -9.46775e-17)
(-0.390039 -1.4619 0)
(0.113915 4.97742 -1.14284e-16)
(9.82104 0.123343 2.62841e-17)
(-0.197712 -0.739665 2.25354e-16)
(0.29997 0.381893 0)
(8.72102 1.23191 2.93741e-17)
(-0.257888 -1.43784 -1.08356e-16)
(0.076126 -0.0607164 9.2452e-17)
(1.38317 0.374883 -1.96893e-16)
(1.6853 7.93006 1.04918e-16)
(0.601069 0.669439 -3.74866e-17)
(0.292455 3.60026 4.08722e-16)
(-0.198395 0.967737 0)
(9.66965 0.150583 -8.80138e-17)
(9.79067 0.0851867 -2.85046e-18)
(0.290895 5.11089 -7.65177e-17)
(0.195822 -0.161431 1.01235e-16)
(2.4479 -1.73076 -1.27725e-16)
(6.11996 0.0495731 3.43494e-17)
(5.62513 0.219794 -4.75383e-17)
(4.58452 -0.295709 -2.15204e-16)
(5.22013 0.171392 0)
(5.58759 0.056385 -1.5808e-16)
(7.22505 -0.0455189 0)
(6.08968 -0.0787599 3.93173e-17)
(4.5968 0.133368 6.12133e-18)
(0.482042 -0.396416 -8.73996e-16)
(1.5201 0.134723 -3.53323e-16)
(11.0997 0.441275 5.41435e-17)
(1.84483 1.28115 -2.65228e-17)
(0.266755 0.523772 2.45514e-17)
(-0.910047 -0.965373 6.01882e-16)
(0.295721 -0.178852 1.93568e-20)
(-0.564636 -0.386773 0)
(-0.109338 0.275136 -2.22312e-16)
(0.907618 -0.528375 -3.85591e-17)
(0.206251 -0.0401354 0)
(-2.07461 0.369327 2.71177e-16)
(9.08945 0.559662 3.12431e-16)
(-0.0781086 -1.01638 -2.36493e-16)
(8.30922 -0.012837 4.3058e-17)
(-0.911028 -0.484179 -6.74432e-17)
(-0.180603 -1.03835 -1.29766e-16)
(9.63102 0.761685 0)
(8.59846 0.927651 -4.23917e-17)
(10.3523 0.483083 0)
(5.90704 0.116855 0)
(0.855079 3.74747 9.9697e-19)
(8.63155 1.11167 9.978e-20)
(0.227854 -1.02653 4.12912e-17)
(0.491951 -0.0359239 -4.5713e-16)
(1.03189 0.191584 3.40442e-16)
(9.67748 0.0297377 1.13267e-17)
(0.299892 -0.510042 1.43498e-16)
(0.422335 -0.21628 2.90168e-16)
(-0.158948 0.0216209 1.74398e-16)
(-1.07227 0.0832607 -3.30877e-16)
(3.23415 4.86118 3.75371e-17)
(0.508232 0.206951 2.54307e-16)
(1.08708 2.3853 -5.05353e-17)
(0.0929611 5.44088 0)
(9.87852 0.210901 0)
(9.48218 0.0151453 6.17247e-17)
(9.75582 0.0615729 -9.02003e-17)
(0.0761184 0.338851 -2.532e-16)
(1.1699 -1.37556 -3.46715e-17)
(-0.570252 0.195211 3.71991e-17)
(1.06466 -0.236366 0)
(-0.204817 0.809677 0)
(9.90367 0.271606 6.7149e-17)
(8.33743 1.81447 0)
(0.267551 -0.149683 -8.94461e-17)
(-1.63161 -0.226541 -2.51998e-16)
(8.56155 0.420287 1.67813e-17)
(1.82488 7.42379 0)
(-0.369652 0.533649 3.1595e-16)
(0.567053 -0.256004 0)
(-0.36541 0.512835 1.93895e-16)
(8.4453 2.29199 -1.05157e-16)
(-1.06682 1.06668 0)
(0.943314 0.691045 -1.18141e-16)
(-0.236919 -1.09315 -7.818e-17)
(9.75849 0.0597688 -8.10078e-17)
(0.175249 0.146795 2.01352e-16)
(-0.731053 0.694291 0)
(-0.866581 1.0295 7.80072e-17)
(-0.728702 0.353632 -8.41642e-17)
(10.5217 0.103271 0)
(-0.151473 0.566005 0)
(0.32768 0.0757728 2.63137e-16)
(-0.43988 0.762593 -1.33503e-16)
(0.259451 0.886182 0)
(6.78565 0.0737558 1.92558e-16)
(9.29958 0.128801 0)
(-1.09623 6.54739 -1.31717e-17)
(1.48017 0.662104 -1.38952e-16)
(9.70343 0.124398 6.62739e-17)
(0.0108198 0.419772 -2.28149e-16)
(3.95964 1.58784 -3.11508e-16)
(-0.159196 0.471644 -1.27783e-16)
(0.554575 -0.828517 0)
(-0.164524 -1.37514 -2.37824e-16)
(1.25329 0.63958 3.06151e-17)
(0.109889 -0.96034 0)
(0.20922 -0.890457 -2.01306e-17)
(-0.578464 -0.882007 2.0085e-16)
(-0.473206 -0.990228 7.42038e-17)
(1.30387 0.0725428 0)
(1.62177 -0.00123161 7.92017e-19)
(11.1768 0.193616 -5.06914e-17)
(-0.0519103 0.417757 4.39062e-17)
(-0.320844 0.744642 5.71997e-16)
(-0.92108 -0.0814286 1.0069e-16)
(-0.303271 0.740584 3.77446e-16)
(9.76438 0.0869218 6.30774e-17)
(-0.313666 4.92043 0)
(1.42789 -0.355447 2.20122e-18)
(-0.660465 -0.877016 -2.09968e-16)
(0.279847 -0.21405 -3.48136e-16)
(-0.187391 -0.522703 -1.09977e-16)
(9.45764 0.0310539 9.95207e-20)
(0.331701 2.18987 0)
(0.534148 0.999515 5.44879e-18)
(-0.177107 -1.33528 -9.96945e-17)
(9.94956 0.249793 2.9815e-17)
(0.0154027 0.323215 2.69548e-16)
(9.75318 0.0378376 6.41669e-21)
(9.77087 0.144664 0)
(7.80111 0.149845 5.12627e-17)
(-0.17431 1.23156 0)
(5.80729 -0.0439296 -2.10534e-16)
(-0.180027 2.19757 -1.90194e-16)
(1.73503 0.0746031 0)
(0.0797894 0.883183 -8.97317e-17)
(8.44517 1.45065 -2.07874e-17)
(0.125197 1.12864 1.1312e-16)
(0.174822 0.328009 -1.07561e-17)
(-0.122792 0.00694241 0)
(-0.0831595 0.0243889 1.16593e-17)
(0.400272 1.04582 2.12064e-17)
(-0.0875102 0.0734095 4.73918e-17)
(-0.0483423 0.16012 -9.81975e-17)
(-0.0486613 -0.390515 2.29772e-16)
(0.0314233 0.0315404 0)
(-1.9544 -0.0934284 2.9108e-16)
(9.72754 0.0703374 1.15979e-17)
(-0.019333 0.221354 -5.5542e-21)
(-0.176667 0.673922 0)
(0.146118 -0.00987732 8.381e-17)
(0.256732 -2.62906 1.49126e-18)
(-0.109351 1.19637 -2.15495e-16)
(0.835316 0.147316 -4.73255e-18)
(-0.0199295 0.262423 -2.34418e-16)
(-0.40042 0.964138 -9.63277e-17)
(0.0157529 0.969539 -1.26277e-16)
(-0.0963415 3.61367 5.22865e-17)
(-0.08834 -0.558001 3.52805e-16)
(1.65709 4.87486 0)
(0.507562 -0.904318 -1.769e-16)
(0.000986575 0.235599 -1.41447e-17)
(-0.0173808 0.811524 4.02072e-17)
(-0.157474 -0.59829 -1.1808e-16)
(-0.616007 1.13503 -4.05137e-17)
(0.418265 4.73402 1.30279e-16)
(-0.145111 1.05719 8.35991e-17)
(-1.02569 -0.492641 1.29223e-16)
(0.856799 -0.114631 2.35543e-18)
(0.794092 -0.157588 -2.63494e-17)
(-0.0142139 0.238997 2.16785e-16)