/*--------------------------------*- C++ -*----------------------------------*\
| =========                 |                                                 |
| \\      /  F ield         | OpenFOAM: The Open Source CFD Toolbox           |
|  \\    /   O peration     | Version:  v1912                                 |
|   \\  /    A nd           | Website:  www.openfoam.com                      |
|    \\/     M anipulation  |                                                 |
\*---------------------------------------------------------------------------*/
FoamFile
{
    version     2.0;
    format      ascii;
    class       volScalarField;
    location    "0.86";
    object      epsilon;
}
// * * * * * * * * * * * * * * * * * * * * * * * * * * * * * * * * * * * * * //

dimensions      [0 2 -3 0 0 0 0];


internalField   nonuniform List<scalar> 
5794
(
0.340634
0.398388
4.01505
115.552
39.3328
0.740795
8.37808
1.37913
93.5497
0.328015
36.6535
4.99729
8.71911
38.4974
0.53483
0.936828
359.809
52.934
0.498683
0.21392
60.3798
0.535655
27.766
1.62506
13.4426
109.169
267.821
43.2092
95.8271
0.611199
5.0157
12.4205
21.6969
0.703494
1.63077
2.63523
4.42715
23.2727
42.3316
93.6815
23.4474
7.48623
9.35502
12.2719
0.467679
47.4905
23.882
11.1725
0.265392
1.40637
8.92201
60.1837
0.620721
0.325599
0.0830225
43.4487
20.9455
16.3175
5.81877
230.877
59.2151
0.368168
4.37361
15.1641
26.0129
0.372681
51.0337
26.9874
56.3598
0.384144
81.5532
59.1532
305.863
1.96622
57.1267
26.5138
4.87972
71.4518
10.8592
3.15313
0.481172
0.174035
12.6411
25.1468
11.9506
70.2721
31.8173
100.209
1.76749
32.4779
110.41
24.674
66.4227
111.332
36.9404
66.5751
82.3316
54.6694
22.3172
65.7847
50.3706
7.69367
7.34517
45.0654
6.87933
88.1462
0.254359
8.80835
44.2899
9.7559
0.567941
0.27157
54.221
0.605378
29.8367
86.1745
0.673771
81.7272
53.4213
22.113
84.2358
0.764237
5.36808
36.6404
0.336028
50.8981
59.4487
0.904316
70.5503
11.0171
4.77217
8.57059
26.1665
58.8217
94.0168
0.542381
124.052
0.37349
3.40126
0.41373
1.01632
34.5623
0.351205
39.9054
3.50299
300.815
57.3086
49.7591
26.1184
25.8242
12.2588
0.259335
90.4801
5.87529
295.392
41.6732
31.3652
14.4377
81.8098
14.6765
0.363063
1.80369
0.581483
2.66715
61.4749
75.578
3.47561
1.84342
0.491646
0.28148
0.590711
31.1944
2.39632
1.81475
1.0584
20.1032
0.605808
7.5384
0.987077
79.4798
2.9866
21.5214
3.54094
49.1447
4.05628
307.569
10.3522
16.5326
0.305613
6.80013
46.5783
15.6042
28.2307
4.24931
12.904
6.76245
3.37862
1.4761
0.538215
6.80171
13.3953
64.6205
7.43279
6.38761
29.0548
56.4883
4.45761
18.8196
149.848
45.8925
9.34121
10.2615
3.04168
1.7864
0.917636
4.58439
9.86394
32.7512
29.5054
78.617
9.82216
32.8887
158.469
57.3834
147.233
160.411
8.22731
0.368497
0.360519
0.612741
1.52742
1.36418
0.589281
33.3492
24.7679
186.73
207.029
33.5797
9.97227
0.674631
0.187755
56.127
36.6392
35.2784
6.53412
1.3782
0.412019
23.1808
147.73
85.8219
34.9854
0.400369
307.063
0.182849
4.95164
117.079
6.92503
18.3258
14.576
0.343864
79.3949
3.07697
1.79288
0.289234
21.4254
16.0167
34.1099
71.6962
0.330425
58.6026
29.2429
6.59706
15.3903
75.7938
16.345
0.627221
0.305414
1.06825
0.135356
9.26737
3.93218
81.8559
24.0881
5.5188
69.4516
98.2947
37.743
49.8909
146.887
86.1935
1.99786
1.33423
0.667221
0.265045
4.83069
116.634
27.2314
3.9047
53.2667
0.343057
0.18245
53.8568
0.687839
41.6665
4.13794
75.2335
0.132918
48.6268
65.7348
33.2774
8.98198
43.4122
48.7723
0.605646
9.82681
35.1003
11.9395
50.3684
46.8035
129.466
5.75239
4.58647
83.6279
36.4
0.981679
18.3433
1.93913
5.56219
10.2411
34.1876
72.1151
8.62636
4.8515
22.6395
13.8232
0.374761
0.576425
0.527315
0.327869
11.0961
1.83194
12.1644
77.3596
29.1445
0.672269
3.13275
77.0164
27.9406
86.2443
35.5502
60.7928
382.73
36.7535
18.4886
4.05666
248.881
0.422185
79.4471
9.78565
1.75811
14.7833
13.6039
98.101
8.15441
2.41831
2.23359
66.8227
56.5923
27.9248
16.3916
0.359105
0.392862
2.0714
2.10744
20.9605
50.8315
41.7676
22.0186
27.9097
0.166661
2.45993
0.344648
12.5082
2.47074
1.54212
0.640899
95.9249
3.9813
1.5041
4.2112
1.89091
63.3915
0.268371
3.29398
1.60233
1.32781
0.83444
1.80058
0.443275
21.8281
1.33415
8.32463
162.44
1.44788
0.743002
43.6074
8.69712
0.755292
0.232632
79.7942
51.4632
20.0886
32.6558
28.6969
75.424
39.5577
4.6147
64.6862
55.2191
81.1396
22.3613
53.394
14.1105
0.374735
2.8628
1.99416
0.906974
0.572808
0.223223
0.279106
60.0946
5.76377
36.9259
78.7629
0.444219
0.646056
6.64487
19.7249
2.38049
1.58028
0.57606
8.11749
4.77519
3.6857
1.16758
94.5832
32.3654
2.39106
0.508259
53.6893
0.648201
0.26731
86.1555
0.415594
70.6061
0.27398
75.2015
71.3174
42.201
165.909
0.588132
0.328982
14.7195
1.64858
73.5508
11.0215
154.707
67.4602
17.6148
7.44486
0.386471
188.636
50.6187
0.311178
0.279427
95.6018
186.654
50.7071
3.30217
0.309586
37.2658
0.576524
0.339046
0.297822
13.9183
33.0742
10.159
1.42945
251.06
0.311549
0.242355
100.015
91.0126
33.4449
8.27085
0.413759
0.542908
0.345976
2.02664
38.6198
81.3873
187.11
8.68643
9.43631
42.684
0.296091
0.618282
30.9772
39.2715
0.384264
64.5446
0.138352
2.94294
0.231561
0.526137
25.7076
75.5217
0.21608
5.54803
166.281
0.943047
0.231627
52.4026
80.0849
11.6379
0.240395
6.46123
47.0792
0.264271
0.771275
21.3732
0.623025
153.824
0.301314
0.829652
0.934231
6.61108
159.968
10.3819
64.7208
0.34414
94.9344
0.223104
45.6436
2.95444
0.874934
5.50329
39.286
0.501948
0.800569
45.5803
0.222787
0.709761
4.67963
0.593667
0.628023
18.8224
0.83366
0.259271
28.9273
467.096
0.697387
57.9413
0.23111
42.2309
1.75577
0.635036
18.9856
0.65979
0.360198
83.158
27.1227
130.191
97.6089
137.078
8.93906
68.8892
62.7695
6.48957
26.8779
82.265
26.0567
103.846
186.639
83.9878
54.487
0.51005
61.5065
20.2537
89.527
0.381132
0.603169
0.401401
93.8062
29.2614
40.0068
0.140001
9.33444
0.286359
0.720617
0.217462
95.4713
29.6955
104.688
0.276623
8.49413
151.916
0.507875
0.0927041
9.98896
81.4983
115.061
37.6218
1.72597
2.39952
3.22171
34.9073
29.9364
7.51158
75.2744
0.351979
42.5935
61.261
12.7602
0.32104
0.29706
2.13943
32.7193
73.3276
0.485024
0.386764
0.202196
0.247317
1.11985
0.216971
0.307879
76.7253
26.4101
0.554319
45.2511
3.69625
8.7873
27.993
22.0981
126.747
130.881
42.2968
48.2715
0.261386
0.247883
0.646016
6.0573
0.301573
3.0496
2.75818
77.4644
193.524
39.1642
187.981
4.19594
0.161513
0.403282
0.513228
62.4383
0.313345
46.6679
148.776
101.608
39.2982
47.8421
35.456
2.33249
178.528
36.4407
27.4923
32.9002
116.37
2.91548
38.0669
1.49267
0.227163
24.1676
0.375479
1.25426
29.4698
138.621
121.43
0.322166
0.149574
0.204804
39.7087
174.386
66.6171
42.2731
0.272587
43.2115
17.4517
0.17918
0.837607
9.82825
0.345014
9.68328
0.598139
18.8096
27.9002
159.96
70.725
0.27561
0.299619
111.653
21.2454
188.01
45.452
77.4238
41.249
16.2185
8.75275
249.447
47.0481
30.4587
42.6833
100.61
159.225
0.35718
98.1779
3.42523
14.7262
28.2402
92.4587
38.4765
42.6982
40.9739
129.296
27.9597
0.26927
1.64901
304.056
11.5194
23.6218
61.6113
96.7242
0.398467
0.645983
0.320292
3.60347
87.4992
35.585
129.885
1.31139
8.98908
0.374102
4.48027
0.387569
0.250469
28.0367
95.6806
5.09908
116.245
38.1981
8.50502
1.78768
185.316
79.5836
42.8536
147.849
100.235
38.0303
54.5317
7.83927
56.8316
19.742
85.3997
22.7689
0.292555
0.96026
0.464813
0.212644
3.42727
42.0776
0.729802
22.4286
216.039
10.6347
0.689197
0.325193
83.4889
29.7143
21.464
87.9035
27.8361
3.22222
81.0282
59.3207
38.185
3.7305
34.0038
0.265038
130.507
0.311132
80.2088
9.62465
12.9256
2.9701
0.425128
0.291925
0.247384
21.4656
42.0243
82.3727
188.907
44.7942
1.04156
7.18292
33.6721
142.527
0.693187
9.13434
14.4443
71.4167
0.252536
0.789854
17.6363
48.9331
155.769
0.507107
17.4382
0.209209
0.276915
0.280423
20.9975
66.5592
82.6676
9.33011
0.301111
70.3758
0.260085
3.5123
300.124
0.57466
0.168799
3.40164
0.211958
20.8865
3.78682
25.4572
0.480363
1.21126
6.02034
10.7432
162.419
31.9579
112.919
42.6453
51.0649
70.3853
39.1395
160.745
31.4286
0.515754
0.345431
5.11614
29.2958
5.96586
0.50176
201.698
50.6812
88.2014
17.0534
0.352359
55.439
3.91228
14.1391
53.0102
0.687628
232.023
0.183651
0.327412
55.2845
16.715
6.37242
5.99522
52.407
10.6133
6.91248
0.373947
0.30776
49.2674
71.667
9.34791
10.0878
34.2895
1.10462
38.6642
134.773
74.4874
85.3917
29.6885
0.279745
0.196459
14.6071
0.47359
0.240465
0.222643
1.02722
25.0807
0.338886
7.36324
0.506651
99.131
51.5836
11.0856
8.1026
8.10956
15.9509
179.654
25.7379
75.1396
6.29826
0.452029
170.626
11.9623
37.8968
7.36217
115.027
54.4629
61.5588
1.08833
123.551
91.4046
2.96295
1.48963
0.771209
0.830557
0.501262
72.5825
47.6413
78.2725
79.4996
22.338
53.0059
27.9904
12.3179
0.245464
0.798215
11.0275
0.424909
138.56
21.4047
163.493
6.95256
74.2725
63.215
0.315905
0.360884
138.96
176.778
10.0441
7.93436
22.9779
65.5557
0.275116
40.9773
0.439113
3.42235
2.35634
0.354789
0.350653
0.403503
0.791653
0.373906
0.2174
0.557074
7.96596
57.4414
5.35599
0.155221
0.49928
76.0055
9.71917
25.9846
1.12585
32.1612
0.357732
39.3563
4.76761
0.907386
0.837995
11.1079
44.0596
0.629272
9.99639
0.958065
0.7107
9.23136
62.8338
21.506
99.1404
144.771
0.291575
11.06
28.9801
42.4433
26.5235
28.3994
44.6223
100.924
0.403762
5.5852
0.491805
0.333692
18.7883
11.6642
170.542
158.545
112.603
0.121622
24.054
137.466
62.376
56.8131
50.227
0.284011
0.597293
0.310666
38.9679
11.0291
40.8026
4.55965
5.43067
4.4086
4.82031
10.0794
16.893
0.259837
0.693971
21.8217
34.9328
12.2009
0.260189
8.20283
47.6185
0.349646
0.258138
0.307547
0.865016
13.0993
0.385831
25.8197
0.346478
10.3627
16.988
0.549563
53.0866
10.1758
0.290058
5.03653
76.1869
0.223997
65.7973
1.52405
0.749843
0.244798
2.08748
0.16036
0.38146
10.3678
0.587989
0.152201
0.741113
1.59093
2.23625
59.4493
27.2297
8.88761
101.469
31.3176
0.162066
0.434842
88.4887
6.30666
19.5865
84.5667
0.225515
19.6312
0.64014
65.1349
0.174944
55.9593
0.164613
92.5118
45.2198
0.326804
36.1071
0.830663
6.05936
0.985828
1.37043
30.6595
33.8179
0.550942
37.9899
0.166126
0.415934
4.51529
0.30089
0.672019
45.1884
1.57613
19.3247
0.354836
95.913
0.160446
0.775713
0.215216
4.50078
50.8703
18.1619
1.27243
28.7045
7.54854
16.3094
109.054
39.0786
0.352721
3.01888
51.6631
12.3134
17.867
6.93504
58.4459
78.95
64.3935
23.0001
65.1303
8.73133
8.65313
0.268137
1.58307
2.85317
0.283663
732.952
40.2472
0.278389
1.25647
55.3821
51.5062
8.66344
0.242316
6.16935
21.0664
1.30246
0.529702
51.3969
2.15135
27.2861
8.57542
90.7009
0.249222
0.697891
0.758977
4.45652
5.19124
31.6644
0.298331
45.9225
0.490604
96.396
7.07554
9.11701
4.35235
23.0028
9.25105
17.788
11.4884
4.49675
0.697381
1.05732
38.2639
10.3865
5.5591
0.166582
0.279753
19.8729
38.1998
23.0324
1.82827
7.86721
7.51571
1.34766
7.41138
7.25374
12.7952
12.5309
11.1106
26.9743
0.193244
59.8293
0.356617
290.585
0.269034
0.14118
0.290537
0.769561
0.217149
46.7434
0.285191
6.4031
0.547507
3.90067
38.1055
223.521
88.0662
0.155377
0.511383
2.38047
4.36837
57.1413
18.6118
1.78058
8.61713
0.237021
57.9044
3.6803
18.2531
33.843
5.71108
8.23001
34.7279
0.475357
0.490905
34.6093
83.5722
32.2056
11.9899
5.46263
10.7213
0.218814
58.7868
175.519
38.4491
99.2068
0.318871
0.588098
38.296
9.98719
7.85275
0.182041
13.0831
39.8178
1.08039
0.644773
4.35488
0.714643
0.265252
2.80044
2.0649
35.1802
0.399315
9.5474
30.6536
122.869
75.5129
0.929166
31.2126
4.42817
78.0833
1.35686
49.7093
109.738
26.4641
59.9685
2.00466
33.0308
34.7152
165.755
1.48573
0.281176
0.241553
74.4228
1.10347
1.14555
41.3706
12.5724
0.994576
20.7012
9.25616
2.6959
41.2185
0.801045
0.322152
7.39458
2.93614
0.258222
1.46128
78.8185
9.35909
49.8322
43.3174
40.8788
0.329693
107.557
1.05608
32.5238
10.759
5.49089
3.50118
0.555596
38.3809
0.377782
0.327675
0.180309
55.1672
0.145019
5.0168
25.8937
175.385
0.622472
134.116
147.326
1.09803
8.84516
0.311551
15.9737
5.46417
59.8393
77.54
1.3075
0.814062
17.5827
28.7649
36.8234
169.52
79.6426
115.395
73.7247
14.5067
0.998393
0.502672
16.5457
0.365958
84.5639
0.163325
0.492674
0.227233
16.771
4.08149
1.29902
0.371873
1.895
3.299
0.848837
0.271135
0.382131
7.60531
3.46971
33.6206
13.9419
0.48857
144.348
31.2233
57.6697
18.3821
0.342056
46.1448
0.311446
0.607381
0.254475
0.574745
571.618
11.384
45.998
19.5378
74.9146
99.8464
18.0581
0.27808
0.189198
0.746816
0.911669
1.91277
1.20687
2.0612
0.9032
1.25476
3.21684
1.80887
0.859799
1.10687
0.481465
0.571418
2.13987
1.80885
1.51098
0.84267
0.762198
1.05106
0.353447
0.625328
0.153716
7.47187
1.44759
0.83223
0.407329
2.51805
0.444439
1.04499
0.82008
0.478376
0.334486
0.48967
0.352766
1.44676
0.296887
0.725928
4.55199
0.409981
0.382589
0.81955
1.38004
6.29691
10.6342
199.529
0.211197
4.68244
36.4392
94.2754
38.4073
0.231092
0.267556
16.1849
0.22096
17.7713
72.4803
351.278
61.0734
104.595
25.031
0.13986
0.145438
0.588177
0.393922
0.501357
17.8098
1.28509
3.16372
0.704348
3.98788
19.2913
16.0739
1.68466
16.5452
8.37192
427.247
0.370304
3.31104
1.68
13.2131
57.3689
1.00015
57.838
38.8036
31.0671
26.5081
8.13412
20.8349
6.9611
11.495
13.9056
744.53
0.306507
1.16101
0.546007
44.3892
43.3486
0.374852
69.6093
50.5944
0.788283
1.69495
2.32758
0.661791
0.593824
1.333
2.58551
0.401181
0.375255
3.44233
1.27471
0.811108
0.278834
1.33479
0.381323
0.962539
0.940281
0.608368
1.56631
0.435939
0.21478
0.319757
0.63784
41.6654
63.666
6.58959
21.3422
4.15484
13.9162
34.5815
0.231342
62.2692
38.7245
2.97168
42.0044
45.9636
2.25424
0.302496
46.3396
39.3816
0.264563
178.913
94.3468
39.5788
0.186409
58.0007
31.6059
0.332126
59.995
13.1247
63.4437
0.77988
3.47701
0.980159
62.0499
0.28816
40.3309
58.9838
1.413
117.627
0.552013
79.8898
0.328877
0.859177
0.169501
67.4267
0.195118
0.230058
2.37468
0.29792
111.418
10.7394
89.5246
20.0614
6.66582
6.36346
136.461
0.520974
9.11931
8.06049
66.7845
41.2861
0.967906
0.341017
15.7933
6.62213
55.6009
10.2525
0.291633
3.40794
1.2916
8.09697
0.343521
39.7822
26.4914
0.110767
0.306486
88.5958
98.0805
12.2668
5.58254
71.0437
2.04675
54.81
69.3418
39.0881
54.1537
38.1217
0.317331
45.7025
0.226356
0.918008
0.280666
47.9903
7.82374
6.66786
7.44824
45.9162
36.7047
0.337878
0.536544
0.371552
14.1985
38.4627
53.6767
190.271
54.8985
41.3756
43.7366
11.4324
27.6066
26.6247
66.6628
28.4937
49.9616
40.0627
53.3789
35.1837
114.895
106.83
2.07464
62.3749
31.4804
19.9175
13.4419
8.71873
90.6488
42.6706
7.84109
53.4027
28.2921
109.897
3.56337
4.31877
243.85
6.74239
63.2809
14.1928
0.514699
0.246894
0.664782
58.6426
0.30034
0.706905
0.944199
61.1188
66.0009
49.6544
40.066
71.3766
57.7209
72.1098
0.394912
72.8594
68.3092
64.0606
47.7467
64.0738
44.6902
70.3986
64.4113
68.8343
16.5689
14.5035
7.27922
160.408
8.42506
3.68873
2.43877
4.09619
0.394851
0.52769
15.3726
29.8589
5.97378
0.306191
0.469099
35.679
28.3566
15.1453
4.60877
3.89872
3.95638
2.12011
1.72361
6.35435
1.53721
108.04
1.46992
8.16666
2.22598
2.16286
0.260616
12.4835
0.294825
7.57789
1.94886
0.287344
14.3845
2.50889
1.42501
2.18483
1.42026
0.61872
69.9583
0.571616
30.9269
15.7092
5.37968
47.8976
102.498
0.581689
85.1602
29.6205
16.1534
125.18
0.479445
0.509326
112.49
25.7106
98.6921
0.594826
7.78601
123.625
110.695
74.1102
0.52331
0.568666
0.497564
19.292
5.63837
259.026
0.59856
10.1703
3.08309
0.591316
16.9047
0.475776
4.69879
50.7417
33.2336
11.0145
248.429
81.7178
0.45985
83.9578
0.641932
2.94615
10.0311
0.610465
129.992
6.42882
242.051
5.68132
2.20238
0.601079
57.0711
234.843
0.380302
100.851
43.5898
9.36692
4.03958
2.05315
0.352423
4.96623
54.2911
26.6729
53.7787
163.477
151.539
1.71116
7.09757
7.77575
91.3867
4.61028
0.754439
1.84831
221.176
0.231235
0.751354
0.584424
32.2335
5.64852
10.1125
1.88843
6.59184
5.37204
0.477497
4.49226
32.9368
1.133
1.62743
4.70337
5.60415
0.716322
2.67844
1.47494
0.391194
129.151
3.27518
2.43326
4.92556
4.17552
1.06669
6.11697
8.77327
3.83268
0.200347
4.02397
24.1144
48.4904
4.72903
5.75723
2.10326
8.42516
3.91818
4.32696
1.36227
5.28243
4.23948
4.39018
1.45633
10.7027
6.25793
168.414
2.55565
7.09254
5.41382
4.90875
6.17254
4.56291
17.9526
1.4265
5.34947
6.2519
4.55184
5.05404
7.85362
6.55457
14.7062
2.02927
2.76764
5.15524
0.679096
1.12706
6.08676
4.1078
3.48702
3.43485
2.20962
5.1821
15.9121
5.11088
5.70318
4.99985
0.512565
0.770585
0.251269
6.28297
24.8402
4.39891
53.5354
12.1429
4.14929
4.77319
4.74902
2.42023
27.9324
50.3722
7.20121
1.95963
6.59429
5.1341
2.2297
0.868159
4.64936
9.58074
5.42384
7.35207
183.668
26.036
1.08382
10.2548
12.8551
1.23793
0.781101
0.284341
0.492114
33.7634
6.14859
1.67066
4.50919
6.6186
0.782755
0.303148
0.490501
60.8467
27.4724
3.98854
34.0165
80.2972
5.48828
2.13663
7.73496
190.722
11.1321
0.79217
4.33121
19.2417
14.9973
4.01996
32.3703
26.8325
9.18321
30.9839
13.7389
0.719343
0.250287
0.457913
24.1503
11.3677
42.1057
29.95
79.0129
1.34245
185.761
156.781
1.43908
6.06718
7.856
3.76265
12.8012
4.96475
9.17357
8.62672
12.6705
11.4086
7.24405
50.1309
33.178
53.107
2.56119
45.6202
4.61113
2.16996
48.4131
0.276446
0.273401
30.7952
10.086
5.63243
28.1178
0.665478
6.84382
7.47447
23.0788
22.137
9.95055
0.669166
0.275102
0.515326
40.9293
52.533
2.40915
29.1376
62.2979
57.1162
79.5919
3.83364
2.28809
1.78811
1.81658
1.58375
165.158
1.28546
48.0067
56.4698
4.82137
10.5894
121.232
0.774095
0.938376
10.3488
13.0107
16.1534
6.25296
46.0835
54.8782
14.0631
33.1488
36.6203
0.273554
5.21107
2.75905
0.685
0.519078
2.76811
12.4017
10.2435
16.4565
0.561208
0.226704
0.483161
98.5193
89.1961
0.265688
0.475788
110.764
83.2233
23.0099
0.324374
62.8647
3.1728
3.38395
1.67018
1.84361
180.629
1.1581
0.325628
0.277645
127.255
76.1802
93.4954
1.14563
93.9834
83.6275
29.4756
8.80855
18.226
21.0493
11.3716
3.50477
2.8255
4.07655
4.16793
33.3313
29.2718
1.0924
0.725476
23.3246
42.4201
38.6526
77.3147
49.3759
27.8344
4.09826
42.6512
2.92943
3.7336
126.927
53.3844
69.4126
90.398
55.1975
27.2981
15.7375
13.1473
7.28997
0.977273
4.00017
0.544384
0.228857
0.494241
1.65894
1.89882
1.36875
84.9091
86.0581
14.1741
67.1564
6.18376
6.31934
5.91462
2.49509
96.5008
25.2248
78.6415
20.7438
1.16326
6.28076
72.8625
13.765
11.3183
0.20195
66.7791
5.51305
6.22063
2.77309
34.5656
69.9916
3.73371
4.85726
24.2949
110.539
2.07766
0.954935
0.254724
1.6381
0.966425
1.00434
59.7325
0.851941
0.417425
0.523202
26.3579
1.54451
2.27156
71.2163
0.293515
161.028
3.21443
2.92678
3.62843
36.1886
172.806
17.8556
3.13548
5.30617
77.2144
50.5331
0.252646
2.46553
0.861418
5.0097
13.1641
2.36955
0.569422
10.9278
6.76804
0.203453
1.18176
5.1967
0.823301
9.97074
5.45125
3.38679
4.42571
2.25987
19.8331
32.4656
5.20466
30.9864
15.7821
2.4307
3.8546
53.6061
3.69045
70.6212
50.4555
6.23581
41.6657
14.7335
135.869
27.5129
53.5269
2.97879
87.6394
6.04716
17.9087
2.05034
1.19545
61.4267
7.05136
9.50464
6.10943
16.4239
8.45911
5.3414
65.6744
21.925
55.1408
22.1498
5.7994
4.50501
0.464516
0.209999
0.455838
33.7307
142.051
19.3125
1.10445
0.362645
102.071
10.4088
201.13
118.809
55.8943
72.2606
41.8758
0.56242
31.4534
2.56168
5.16919
39.5246
54.4304
0.331119
10.4438
34.7696
43.0177
75.4366
0.646308
16.2634
63.3737
51.1488
6.16745
0.519081
48.7577
101.036
8.92293
21.5558
82.9835
93.8814
24.8594
0.303307
4.72629
30.2763
22.4646
0.26812
31.2347
25.8256
32.2363
4.44119
24.0934
29.2468
123.019
5.40778
2.13512
0.202329
0.410681
31.6297
144.422
70.4564
86.8804
67.9102
315.195
0.685238
3.71993
7.19244
51.5431
4.18683
184.133
39.3692
0.839815
0.767774
2.18098
0.277022
0.314014
67.242
73.721
61.3462
40.8394
167.389
58.7907
7.66774
17.5589
97.1044
112.637
37.651
533.881
4.95205
0.27662
39.9421
97.9009
25.9733
23.3997
41.7083
6.8519
0.338439
38.7303
0.2772
0.517774
31.8797
0.512975
10.1785
0.625034
62.6431
3.37312
47.1928
7.50909
9.78396
15.2587
22.3007
36.3087
61.0793
0.525293
134.142
3.69815
3.20424
0.261831
0.343467
3.68038
78.7252
50.8681
100.924
1.77831
88.7549
133.348
0.984143
26.6378
2.82931
3.75348
2.40102
2.10439
90.3996
51.2973
3.68098
3.11739
61.833
16.3054
18.065
67.3718
1.05413
18.5896
5.62709
110.696
5.00395
34.3457
0.371485
0.274607
12.8929
89.5809
11.9818
57.4357
73.2741
2.65721
2.50567
42.1931
3.94626
0.807375
99.9982
0.485983
0.301381
161.209
11.3955
74.9353
1.10504
51.7345
62.388
0.334619
8.00677
18.0586
59.5095
52.3756
1.93988
22.9887
48.0083
51.2108
13.7242
10.1227
8.9227
2.45646
0.214682
0.441312
65.0734
32.9549
7.21477
2.51216
100.116
8.70521
45.2796
26.4208
1.26157
5.10374
56.8732
84.8818
0.313499
0.142052
0.459433
45.0197
26.4633
50.711
4.91351
3.40531
54.2798
72.43
0.271083
36.7444
133.728
76.8296
26.5251
73.2694
0.745893
26.3298
93.7197
0.428007
0.209969
0.463922
19.833
0.388943
6.67438
57.3167
0.29299
39.3397
16.5842
6.39628
6.1799
253.899
7.64362
26.9604
0.308701
33.779
68.6644
34.946
6.87919
0.390493
0.206683
0.420252
42.4532
14.1774
15.753
81.2067
15.3831
30.259
207.957
48.8538
60.9032
0.411761
63.5632
3.03409
0.807756
52.057
28.0259
3.7406
0.673035
2.00853
24.7334
39.2631
0.858825
0.509072
43.1749
83.2594
5.79226
17.0363
8.98166
85.8147
177.634
165.596
0.300315
15.7827
67.0612
122.889
26.1997
53.0446
5.1014
25.558
22.6881
65.4884
14.1473
36.3633
2.6739
12.1902
0.217327
31.4823
4.30695
0.330591
37.377
2.34015
6.67718
112.059
32.1352
0.341208
1.30961
43.6879
38.8107
52.6077
27.6555
4.42695
2.19167
0.222282
0.3655
0.294211
0.899164
97.268
0.527307
24.8622
59.461
4.30445
0.323737
2.74792
9.11761
104.402
0.286248
0.242128
0.403781
2.44443
29.4478
2.06149
3.63455
0.14578
0.269455
0.657184
0.590264
5.35578
2.45731
5.9144
24.0088
20.0501
1.54969
34.4418
8.30071
17.3889
2.1061
0.724749
0.270117
0.499591
0.356528
46.4445
0.316795
51.2037
69.231
39.0172
59.4317
0.312373
6.35202
1.14104
213.279
3.17377
5.52362
0.350226
0.224467
0.424125
4.827
0.604906
70.7714
228.875
0.363688
5.18326
0.430939
4.1474
2.57026
24.5408
0.24457
61.6054
21.5482
44.9194
75.8605
0.584751
2.4226
6.89015
92.2161
4.42483
68.2406
8.57077
28.4374
0.597135
6.81811
0.707684
6.29886
4.99104
22.832
25.5776
0.922423
0.341415
4.98961
0.824935
1.60618
30.8019
49.5702
43.53
54.5914
48.6733
16.7375
35.9718
6.59033
75.6917
4.14363
20.8571
0.370717
42.3493
64.0455
89.0937
11.955
0.559869
2.31497
0.649293
0.472336
1.79708
7.17783
1.61967
5.96584
96.5329
0.257661
2.9897
57.5458
8.08489
30.7258
22.6165
37.1011
71.7561
3.08991
5.15997
2.83699
7.23517
11.8065
2.15565
1.50214
33.8662
0.279875
5.9638
3.93675
0.341357
16.3748
0.495384
0.508128
0.327489
0.184241
0.334562
0.455401
3.00745
3.65596
8.69464
0.424194
0.173734
0.548158
59.4374
50.7206
13.6835
9.27056
2.81213
4.03563
5.62357
79.2281
48.3261
41.2232
308.493
7.73606
73.0162
90.9466
129.82
28.7392
0.287788
0.368608
0.216994
0.282791
0.356053
7.65063
30.4208
82.4609
0.349584
0.505894
2.60447
22.9478
11.485
64.7547
0.131922
1.6712
59.0405
11.6793
24.7667
19.7806
0.748649
0.258113
23.2149
21.0725
105.351
1.08653
14.4082
128.232
1.31967
35.891
52.7463
0.616226
0.85463
9.27174
0.751941
0.309684
2.38362
0.421998
0.963639
1.64184
1.66662
4.57118
0.339178
4.04229
194.516
61.6457
0.345249
0.21702
0.297304
27.3847
14.4174
0.710128
32.532
36.8274
0.371746
64.8148
22.2732
36.3483
106.729
229.867
60.0002
28.7524
0.318053
15.7984
49.5471
29.08
3.863
0.407373
89.8979
0.308251
78.2448
5.10307
0.281181
11.1348
134.995
48.0438
0.276548
1.99946
33.7506
3.20563
6.23982
0.369462
5.3591
2.21083
121.441
3.51542
36.6523
0.305407
0.250101
0.387761
0.505954
0.350404
0.320163
53.5763
0.321983
47.2929
100.492
4.51121
10.8158
182.459
8.10955
5.13323
177.633
16.4767
14.4141
186.926
6.10643
140.163
0.33677
0.212243
0.3945
61.3493
4.17281
0.276055
0.386179
0.262471
0.29997
32.7192
92.2985
29.5638
4.07802
14.2714
98.4216
30.2543
28.0073
8.50508
8.06221
13.9283
108.78
41.9401
167.158
32.2926
0.362777
3.40344
0.372307
36.674
0.907258
56.2984
46.4017
17.9372
7.78454
3.86693
37.1385
0.958339
0.240201
0.429752
0.470517
0.314495
9.30305
6.29031
27.6351
4.75691
13.0671
52.8278
46.4495
25.1498
280.998
17.3276
0.394401
0.400893
0.519716
66.9369
4.78321
25.6198
5.27196
0.28731
2.65105
105.405
58.9969
5.50158
6.94177
28.4604
54.7943
1.21652
0.201431
0.230359
23.8916
290.111
4.2234
19.7472
36.0128
49.7314
19.228
9.61626
5.32775
26.823
72.3667
24.0478
0.274573
5.91534
0.100948
46.9918
0.0824076
26.2669
285.434
11.9822
5.54076
47.0452
0.473155
4.36872
13.4763
0.134707
29.9181
0.811874
0.0780361
10.7183
19.0416
85.3176
41.0438
6.21582
1.69882
0.415147
0.51329
0.184234
0.110421
0.366701
1.51329
28.3997
60.3285
28.2372
13.0022
6.48348
64.2228
60.4773
9.92673
1.73839
1.04833
4.24152
152.641
96.6788
43.7762
3.2559
0.335618
83.04
1.06035
18.3155
7.59903
41.1653
6.19517
118.895
13.1883
25.9564
8.25514
75.9868
274.796
0.232693
39.4936
0.368461
3.15143
48.2215
6.11685
0.645494
0.154549
0.277785
0.33538
0.837616
102.132
23.8119
11.5958
173.835
14.7743
4.56643
60.9311
41.8683
13.0365
119.017
0.312178
18.4922
0.303902
15.9403
62.7761
0.494284
19.5694
51.6653
7.7572
24.6097
0.288957
0.947698
40.1845
153.734
52.1099
77.9045
22.2181
305.623
0.362166
28.028
56.6885
5.35203
114.753
20.3589
113.269
22.8542
9.54901
222.786
42.1342
38.2288
0.265209
0.24059
0.293926
52.1689
2.52882
4.33875
0.714857
28.7696
31.4736
0.574265
0.364961
4.37622
14.1982
75.4571
3.35591
0.532105
13.0553
45.5847
29.1315
18.2727
0.534776
111.456
20.2449
3.18234
53.8421
62.6023
0.302661
47.3185
28.0088
62.7388
34.0886
34.3984
4.24923
0.350871
0.342723
0.474309
0.221211
0.61004
7.87794
9.86869
64.8798
28.416
18.1617
135.881
31.8308
46.4966
5.07073
6.07692
37.8211
1.37616
15.3867
6.93038
68.5283
132.135
90.602
34.7612
70.8434
4.93906
39.2846
42.7497
6.55517
0.178766
0.812016
96.0518
29.8717
1.0612
72.3356
90.9903
0.311255
49.9288
23.3456
76.3359
152.964
75.5352
0.142754
65.0932
0.212413
0.317291
0.406535
58.2592
46.6301
68.3611
0.485396
5.00336
102.726
8.10359
0.446329
19.2711
47.4346
37.7845
69.6959
157.301
56.1507
0.578849
0.321747
38.7539
37.9472
202.662
109.958
157.185
2.16374
0.861027
106.82
89.1591
0.340313
0.173104
0.286504
0.257198
1.24305
0.686943
96.6746
13.6853
1.9278
16.4075
25.0245
7.434
67.2668
113.774
67.8173
4.71721
33.255
3.01868
42.5733
13.5794
4.51991
134.649
130.152
40.5644
77.6976
329.825
294.545
1.08946
1.03811
148.698
80.9134
0.619378
0.282233
0.303071
1.01915
38.7638
118.942
54.4874
10.9315
0.33787
86.8804
0.25263
0.445305
0.432426
3.67069
0.663711
54.9256
132.232
50.3905
3.99847
115.479
0.276456
5.86945
91.3108
38.6618
55.729
27.8566
7.12023
94.7259
65.6508
0.420764
3.9247
2.15784
5.11626
4.3071
20.645
81.6191
32.9038
36.0508
25.7605
15.0923
19.4639
23.7113
0.577436
0.398001
48.4577
4.36588
13.9624
380.97
10.3415
86.5405
61.4653
0.320455
0.248459
0.379734
0.274298
58.407
65.0816
68.6592
0.985762
16.017
5.87739
2.24407
9.81816
35.5913
6.04922
5.37097
5.22939
0.269086
0.714513
0.174714
0.433453
118.58
42.4571
1.36678
56.3725
370.698
114.692
138.491
42.9734
0.508829
40.3184
5.24377
4.27865
52.3842
161.4
0.419449
0.486465
0.228181
53.4897
18.6064
91.0093
1.62395
1.21187
43.2521
14.0951
0.227946
0.287184
0.750402
1.01851
8.55715
108.18
34.3221
6.10698
93.3063
36.7973
58.9706
70.0001
4.8604
62.4564
1.8767
17.7166
53.8239
35.3612
28.5286
0.337351
0.343544
44.8679
1.31199
1.45028
0.370982
78.3544
31.1976
37.1469
0.818769
40.4965
0.910851
46.6143
35.1068
27.8204
31.8695
36.9572
57.9667
28.4143
0.816886
43.3764
35.3644
0.395361
5.03086
0.502185
3.19656
4.00118
17.185
46.7742
0.625507
1.72073
93.6103
1.29119
41.4379
0.299759
0.262324
147.454
166.793
0.259144
0.40021
0.343663
1.3176
4.26692
0.359288
0.670426
0.492775
0.763302
0.495775
0.310995
46.043
1.02226
0.304904
28.2519
41.3302
1.36609
30.4752
0.760069
1.56161
40.3602
78.319
26.6115
0.343115
39.5868
121.234
72.1158
71.869
11.6567
0.801927
0.156484
0.446981
40.9573
137.639
26.7809
4.3659
9.1088
8.35598
0.272868
1.61596
5.0568
60.6289
3.68586
60.1433
0.212932
8.5431
114.473
36.1673
2.89567
34.6953
0.316496
92.5012
40.4218
34.008
0.286962
0.713397
0.300141
0.306641
6.91061
16.4812
2.18639
43.9114
24.5984
117.258
19.8428
7.8932
0.503136
4.92914
0.58842
89.0399
30.6404
35.7995
2.20166
93.8426
4.9375
21.3451
39.4219
0.294657
0.32509
11.1091
87.1442
75.0203
38.5721
53.2405
33.7747
52.0148
2.42004
4.71551
0.406526
6.17767
4.73892
689.911
97.9509
3.31617
102.174
34.8473
1.50536
1.40337
5.32419
0.788891
1.24185
0.932628
42.3028
38.7473
40.2884
42.7475
32.5476
0.422178
3.16223
0.406508
2.79474
20.518
58.8256
504.355
16.1188
11.0457
0.229231
3.27088
112.957
60.1848
8.93956
0.789498
0.712962
12.3135
5.66163
4.67642
31.9651
165.278
0.399006
0.382465
0.195096
9.87094
4.61582
1.66054
71.8399
1.12766
276.453
37.5538
64.2748
100.411
0.251019
0.319769
6.80268
12.1154
0.362451
5.20647
4.92507
39.8648
81.6745
64.4577
1.92477
2.90426
79.9278
0.450699
12.1878
13.8591
45.2352
63.679
91.12
0.554079
0.379037
0.36964
62.6583
11.5667
129.591
37.7305
1.67364
40.0964
122.99
64.0878
57.924
6.16861
77.3418
47.9559
19.5852
0.43249
0.466297
33.8618
0.752448
6.30403
11.3689
1.69501
73.137
374.542
319.742
7.14108
86.3826
4.13174
1.65496
1.46417
0.650652
84.2147
28.2457
0.428142
0.497763
0.264176
0.667643
13.2558
15.0344
95.0636
42.9486
1.94146
284.089
1.30938
45.7608
101.815
81.4861
52.3918
22.752
6.78314
84.1085
0.291264
0.55798
0.274338
0.713961
2.87916
21.3008
61.842
3.79712
46.3926
0.58818
0.444932
2.73641
9.24899
3.60365
2.55966
92.7554
41.1994
49.1102
10.3788
0.356255
0.340041
12.6992
188.947
6.85681
324.481
0.369187
2.92902
50.5029
41.4082
0.74285
34.9144
163.099
1.30914
17.7869
46.5558
19.561
75.6516
72.3149
10.8559
26.9525
1.85819
24.9884
89.7346
13.7914
124.031
16.2695
5.80309
0.679603
26.9536
15.3718
20.492
79.349
1.2562
19.682
7.93492
0.364814
0.527148
4.66265
0.196938
7.21639
14.0586
7.32686
10.4333
17.879
53.8389
109.475
97.0707
58.4592
0.792559
0.349662
0.671921
0.453678
2.73172
9.24792
2.20279
1.04804
11.4126
84.0746
0.364955
0.864556
0.909812
25.6563
81.6956
2.76788
3.21727
2.57358
2.99015
59.757
34.2979
3.59017
0.333894
53.0609
94.6991
25.5773
0.30651
6.21207
0.358943
0.478239
3.26793
0.230516
2.49265
44.646
0.550562
0.823559
37.048
53.7025
0.582115
34.2398
0.421222
63.2334
0.312717
92.2029
2.58822
0.442001
5.55755
60.8184
92.2969
102.992
34.8718
22.2074
49.9776
1.31437
51.5288
47.714
0.455303
0.6262
3.6136
2.90212
161.479
15.7468
25.0426
2.22652
49.8283
63.0918
68.9118
12.7888
559.685
13.2413
1.1685
0.255742
0.274054
0.305902
0.269907
0.808072
8.4524
0.612746
0.400163
0.647374
0.244481
1.19397
3.97206
5.54443
22.6625
60.1696
106.2
2.1912