/*--------------------------------*- C++ -*----------------------------------*\
| =========                 |                                                 |
| \\      /  F ield         | OpenFOAM: The Open Source CFD Toolbox           |
|  \\    /   O peration     | Version:  v1912                                 |
|   \\  /    A nd           | Website:  www.openfoam.com                      |
|    \\/     M anipulation  |                                                 |
\*---------------------------------------------------------------------------*/
FoamFile
{
    version     2.0;
    format      ascii;
    class       volScalarField;
    location    "0.86";
    object      k;
}
// * * * * * * * * * * * * * * * * * * * * * * * * * * * * * * * * * * * * * //

dimensions      [0 2 -2 0 0 0 0];


internalField   nonuniform List<scalar> 
5794
(
0.0439295
0.0582511
0.434706
2.52069
2.61205
0.0843795
0.328478
0.101945
1.53448
0.0508173
0.910362
0.268045
0.367542
1.81169
0.102968
0.137948
6.33101
2.00514
0.0851498
0.0328938
0.997858
0.0505816
0.714285
0.124756
0.398457
2.1095
6.33509
2.52563
2.07761
0.0762454
0.285048
0.54428
0.764876
0.0969542
0.160991
0.23434
0.196655
0.647907
0.956415
2.79211
1.28739
0.44101
0.277865
0.39325
0.0948603
1.10671
0.699401
0.364494
0.0425129
0.0840026
0.263544
1.4133
0.0688112
0.0823056
0.0095615
1.05741
0.644929
0.516969
0.217376
3.52853
0.933716
0.0433241
0.245383
0.921269
1.2901
0.0571318
1.70957
0.453954
1.85078
0.0400621
2.37345
1.75706
7.24861
0.140786
1.90769
1.67815
0.129585
1.60871
0.350598
0.0983889
0.0441769
0.0269051
1.02134
0.710877
0.449623
0.841946
0.510556
1.06708
0.184063
1.06382
2.48307
0.7607
1.5961
2.59209
1.03781
2.44789
1.90543
1.39629
0.70463
1.01987
0.892155
0.322568
0.248112
2.44059
0.554221
3.49372
0.0354228
0.636293
1.59076
0.310323
0.078689
0.0496567
0.905974
0.107137
0.883195
1.98053
0.109044
2.39019
0.856069
0.498073
2.85087
0.0445818
0.21223
2.16054
0.0711828
1.41944
1.53582
0.105387
1.64374
0.693045
0.284858
0.415351
0.957968
1.41836
3.40492
0.109035
2.00721
0.0458114
0.401317
0.0674244
0.111341
2.32305
0.076194
2.51041
0.455356
6.4814
1.11938
0.897753
1.88349
1.50412
0.314522
0.0666591
3.48211
0.229245
6.78218
0.880914
0.783736
0.431906
1.393
0.484008
0.0393925
0.114152
0.0498291
0.149155
1.1557
1.25887
0.163712
0.10635
0.0482942
0.026612
0.0453956
0.822516
0.118752
0.096836
0.0673845
0.545654
0.0432702
0.279668
0.0718476
1.29585
0.147924
0.528232
0.158383
0.917789
0.178687
3.55485
0.360078
0.453663
0.0319088
0.250827
0.924911
0.494281
0.734232
0.205358
0.369376
0.242522
0.157877
0.093823
0.0524047
0.276107
0.392724
1.22802
0.284671
0.247632
0.719212
1.12182
0.18935
1.09963
4.71899
1.00475
0.279964
0.312762
0.267978
0.162638
0.105217
0.269688
0.467262
1.16414
1.07999
2.21432
0.305782
0.919819
3.83935
1.5417
1.95597
3.48939
0.247329
0.0715169
0.0449869
0.116262
0.117029
0.101014
0.0788909
1.16574
0.881896
4.71023
5.59192
0.866111
0.329071
0.0649553
0.0305402
2.18272
0.975986
0.759438
0.304665
0.18622
0.0878486
1.63811
1.36969
0.954152
0.52089
0.0627675
6.50921
0.0323725
0.21122
5.40374
0.263928
0.424402
0.786282
0.0683841
1.48114
0.264016
0.157306
0.0474746
0.515685
0.477861
2.01943
1.70366
0.0572512
1.37598
0.894947
0.283989
0.716622
2.0732
0.397224
0.100186
0.0793899
0.110872
0.0369488
0.366677
0.195395
1.71744
1.10332
0.293621
2.0307
2.39883
1.03071
1.31169
2.95294
2.92263
0.184833
0.12297
0.100703
0.0755064
0.20351
1.97249
0.856022
0.201623
1.28092
0.0615935
0.0237108
0.76929
0.0508137
1.22354
0.194345
1.6044
0.0335799
1.51725
1.35256
0.884658
0.337551
1.16315
1.1144
0.108827
0.292383
0.593659
0.82208
2.82171
1.54892
2.45497
0.492782
0.226379
2.18707
2.42402
0.177356
0.64272
0.145041
0.254206
0.37168
0.842446
1.20116
0.280607
0.209629
0.615633
0.45094
0.0393297
0.0476015
0.0442659
0.0308798
0.33641
0.0970185
0.333492
1.4152
0.619797
0.0504843
0.142925
1.21042
0.614463
1.45257
0.802467
1.17454
3.26572
0.779329
0.492164
0.178086
2.66846
0.0400042
1.2889
0.3484
0.111836
0.972628
0.60084
1.78452
0.381525
0.150418
0.268018
1.13888
0.987988
0.615756
0.431494
0.0884396
0.0436278
0.265369
0.311709
1.23537
1.30616
0.881618
0.587861
0.725152
0.034438
0.328365
0.0846978
0.322887
0.201762
0.141031
0.090121
2.67303
0.29768
0.143444
0.188445
0.109162
1.09554
0.0310513
0.259973
0.0936542
0.0796691
0.0595586
0.124675
0.081068
0.640459
0.107993
0.313299
5.0983
0.0855563
0.0607343
1.11075
0.342735
0.0801784
0.0411793
1.90438
1.39315
0.673764
1.26589
0.613009
1.20962
0.784623
0.177959
1.97341
1.09352
1.77561
0.686365
1.32193
0.913777
0.092063
0.146423
0.114446
0.0662944
0.10088
0.036198
0.0394662
1.40783
0.224119
2.28961
1.33123
0.083713
0.0887447
0.257614
0.535165
0.162216
0.121349
0.0770021
0.269537
0.219016
0.18534
0.112422
2.2059
0.947978
0.31006
0.0491967
1.28783
0.0536276
0.0412514
1.36935
0.0466125
1.97513
0.0400903
1.94557
2.53876
1.27941
3.64911
0.0622127
0.0542523
0.347081
0.227866
1.11773
0.696387
4.25459
3.86463
1.01972
0.282274
0.0263444
5.43336
1.57977
0.0582866
0.0698387
1.82172
6.47263
2.8338
0.199791
0.0499095
0.644228
0.0626603
0.0512155
0.0479254
0.914861
1.12684
0.311825
0.122367
2.76985
0.0427486
0.041375
2.27573
2.08568
2.14728
0.324045
0.0723063
0.0778122
0.0900176
0.2055
0.998033
4.27819
6.2864
0.265197
0.434352
2.60319
0.0537391
0.0654538
0.616143
1.45442
0.0606451
2.41037
0.0323566
0.409266
0.0407744
0.100921
0.803996
1.78468
0.0394354
0.222809
5.13951
0.0890883
0.0464506
3.22875
2.48405
0.763685
0.0539834
0.289637
1.05234
0.0416705
0.0675342
0.509626
0.0451479
4.11043
0.0873524
0.130552
0.093826
0.240202
2.29391
0.674069
1.2184
0.0409048
1.55012
0.0318467
1.66422
0.198687
0.162823
0.214888
2.51013
0.0881318
0.0860548
2.56477
0.044951
0.0498519
0.211542
0.102629
0.107309
0.481823
0.0698165
0.0410567
1.98632
9.67457
0.0552705
1.45007
0.0662452
1.65241
0.127294
0.0900282
1.09365
0.0489679
0.0583651
1.23274
0.920907
1.46125
1.20582
1.50855
0.292097
3.91704
1.71968
0.310633
1.07785
2.11848
0.857214
3.00786
3.98767
1.75256
0.910854
0.0900113
1.75401
0.729851
2.20252
0.060776
0.100676
0.0521913
2.36477
0.918364
1.18341
0.0268271
0.293607
0.043436
0.116373
0.0435963
1.37332
0.946815
2.54989
0.0491746
0.514561
2.35722
0.0438129
0.010866
0.795209
4.32598
5.42826
2.21312
0.122961
0.135269
0.168463
0.909737
0.589141
0.268566
1.24851
0.0319659
1.23896
1.6608
0.886742
0.0359536
0.0659486
0.338356
2.25642
2.2411
0.0829297
0.051254
0.0366696
0.0247365
0.102804
0.0443863
0.0506221
1.75754
0.487325
0.0691906
2.67586
0.224358
0.285853
1.11597
0.783033
1.98769
2.79023
1.08412
0.736119
0.0744643
0.0424587
0.0704301
0.255449
0.0869325
0.140101
0.131212
1.60587
5.74765
1.11148
2.08538
0.384857
0.0371514
0.048747
0.0592312
0.881258
0.047677
1.26759
3.04897
2.48831
1.05451
1.21336
0.887137
0.152178
5.01086
0.756627
0.664776
1.02967
2.75364
0.212562
2.25911
0.12342
0.0431918
1.17056
0.0921746
0.213995
2.06231
2.06359
2.31563
0.088915
0.0425468
0.0403948
1.71225
3.9776
1.5999
1.24522
0.0742317
0.95828
1.10351
0.0292982
0.0875408
0.289906
0.0332692
0.273404
0.0433119
0.443664
1.91144
2.41127
1.37421
0.0463437
0.0854331
2.93966
0.509492
4.03192
1.35393
1.63553
1.42133
0.373781
0.267085
6.81986
1.2609
1.47639
1.90707
2.09331
2.32883
0.100011
4.83385
0.194413
0.362245
0.506872
2.88695
0.639008
1.16975
1.11273
3.03194
0.823984
0.0747957
0.180951
4.62759
0.758252
0.744092
1.53313
2.22663
0.0314604
0.0445962
0.0238295
0.133888
2.18344
1.00259
2.58464
0.103702
0.283191
0.0813249
0.202465
0.0924929
0.040218
0.90359
2.34918
0.206961
2.76719
1.08264
0.258826
0.135004
6.52358
2.09639
1.21484
3.10764
2.56496
1.08713
1.44552
0.326727
1.61168
0.706097
2.0903
1.63663
0.0837455
0.15014
0.0647915
0.0455101
0.202198
2.74163
0.0844403
1.2703
6.20704
0.335721
0.0676088
0.052967
2.18359
0.938128
1.26249
2.27119
0.897492
0.426101
2.27552
2.1426
1.24887
0.196423
1.03009
0.0417962
1.99947
0.0417947
1.7511
0.303796
0.895656
0.284336
0.0925274
0.0681354
0.0700205
1.23945
1.62232
1.66785
4.29035
1.31719
0.111697
0.277887
0.632932
3.96189
0.1099
0.476073
0.699703
2.54117
0.0424867
0.0704633
0.486665
0.859278
5.10508
0.0876451
0.385942
0.0604598
0.0546242
0.0699289
0.756592
1.89028
2.09661
0.28279
0.0865677
2.56206
0.0544778
0.308279
7.61357
0.0414793
0.0169678
0.126775
0.0360131
1.02979
0.474576
0.497581
0.0872198
0.124088
0.218314
0.316523
6.42744
0.993578
2.69581
0.892828
1.15934
1.65589
1.12444
5.0033
1.31541
0.0990715
0.0522748
0.207031
2.03275
0.243051
0.0805078
4.13718
1.47444
1.98478
0.862522
0.0839766
2.58459
0.427584
0.348504
1.33261
0.0826282
3.1934
0.0532922
0.0866813
1.36393
0.388118
0.230894
0.19275
1.61924
0.674988
0.261925
0.0559033
0.0869478
0.788244
1.7592
0.284525
0.29932
1.00504
0.131646
1.14876
2.98654
1.88475
2.40261
2.09826
0.0408645
0.0364234
1.0945
0.0759959
0.0527813
0.042851
0.0999667
0.754495
0.0383552
0.254263
0.0783924
2.97186
1.34215
0.766213
0.275953
0.522862
0.996071
6.12484
0.772476
1.66115
0.234362
0.0701688
5.78935
0.371902
1.0963
0.262326
1.31598
0.798457
1.02854
0.0626537
1.63679
1.13245
0.124552
0.0745033
0.0482989
0.0465304
0.0324896
0.729685
2.81378
3.36414
1.69015
0.685586
1.28814
1.95414
0.320825
0.0431596
0.0743914
0.955874
0.0703946
5.63121
1.2188
2.03449
0.246374
2.60246
1.08897
0.0482148
0.0450447
5.96912
3.41514
0.305125
0.329381
0.473615
1.59388
0.0731668
2.70637
0.0588035
0.138826
0.110658
0.0493127
0.0451175
0.0682397
0.134555
0.0600434
0.0383973
0.0719765
0.264333
2.4405
0.215827
0.0395573
0.0783699
1.17413
0.29968
0.506853
0.0909573
0.620335
0.0557163
0.641648
0.200233
0.110764
0.0853321
0.490296
1.52093
0.077191
0.304305
0.108935
0.129445
0.291824
1.2128
0.430867
4.96575
1.84837
0.0598046
0.318533
0.530789
2.61124
0.534695
0.877839
1.14317
2.44344
0.0826569
0.229881
0.0758016
0.0744197
0.416111
0.394171
1.83975
1.72286
1.37139
0.0143748
0.742608
1.48108
0.872556
0.829018
0.941383
0.0361159
0.0579722
0.0481546
0.715164
0.302529
2.51672
0.200872
0.578921
0.196732
0.204835
0.287191
0.425936
0.0468615
0.0773186
1.63851
2.28735
0.760987
0.0356841
0.27451
1.21174
0.0648401
0.0570243
0.0732474
0.138803
0.865894
0.0734172
1.40819
0.0423935
0.311336
1.07852
0.0618561
3.27471
0.286128
0.0473821
0.347784
2.62095
0.0478646
1.58487
0.110002
0.0742643
0.0498023
0.123624
0.030215
0.0593755
0.309276
0.0727994
0.0307919
0.0801023
0.113289
0.146848
1.66131
0.54269
0.267275
2.48393
0.951707
0.0365459
0.0537873
2.8065
0.394924
1.19665
3.0329
0.0493736
0.502276
0.0473471
3.68264
0.0494962
1.63073
0.0467394
4.47928
1.13458
0.0281601
0.661971
0.0549566
0.224847
0.138862
0.0849813
0.6199
0.643423
0.040517
0.675309
0.0178198
0.0331393
0.184777
0.0535483
0.0681836
1.84195
0.269942
1.1405
0.0343823
1.1654
0.0387883
0.0756244
0.047308
0.19873
2.14402
0.404177
0.235571
0.572946
0.250235
0.424228
5.24402
2.281
0.04855
0.308151
2.05868
0.86063
1.40039
0.239565
1.97896
2.09092
1.48177
0.490077
2.53665
0.265476
0.264293
0.0555891
0.135624
0.192216
0.060256
10.1949
0.691603
0.0549777
0.221279
1.69514
1.65187
0.271362
0.0568556
0.287121
0.498911
0.136339
0.0667389
3.20442
0.183987
1.36368
0.481392
2.5665
0.0555459
0.119387
0.137557
0.361991
0.236328
0.600843
0.046005
0.788568
0.0515115
4.84383
0.247122
0.303426
0.191065
0.481287
0.292517
0.391722
0.332982
0.193348
0.156144
0.119307
2.29451
0.290538
0.214527
0.0318276
0.0415425
0.610401
2.00788
0.657509
0.103511
0.283084
0.253392
0.174925
0.253849
0.238362
0.359132
0.304078
0.322781
0.550176
0.041849
2.24032
0.0491819
6.26596
0.050973
0.0351011
0.0454356
0.0708822
0.0459242
1.30282
0.0666181
0.229427
0.0970847
0.18227
0.661796
1.99196
1.08958
0.0420873
0.0648603
0.178619
0.26233
1.6713
1.12534
0.226661
0.281651
0.0227013
2.21838
0.221048
1.06618
1.58908
0.175502
0.279573
0.6514
0.0872066
0.0372776
2.25077
2.46574
0.630226
1.06319
0.444394
0.437812
0.0349129
2.29856
6.40209
1.93297
1.19441
0.0680704
0.103424
1.09194
0.30459
0.259609
0.0330176
0.337503
1.17299
0.193201
0.0514101
0.549562
0.0786186
0.0439866
0.1177
0.26275
2.23719
0.0783434
0.506934
1.43041
3.51105
3.56629
0.152185
0.868097
0.197779
2.24107
0.240914
2.00027
2.61052
0.845458
1.6411
0.248202
2.27913
1.32033
5.58239
0.20219
0.0644185
0.0542159
3.84603
0.172244
0.152584
1.54631
0.732395
0.164512
1.20059
0.866544
0.349852
2.56028
0.146444
0.0346571
0.257432
0.40546
0.0549254
0.169131
1.23857
0.293951
1.52574
1.28781
1.70802
0.046633
3.37821
0.202681
0.99257
0.651546
0.267152
0.192292
0.0714408
2.31483
0.0738239
0.0710504
0.0387834
3.3183
0.030942
0.257071
1.74518
4.08836
0.119252
1.67021
4.58885
0.127519
0.27795
0.0227908
1.09644
0.410695
2.34582
2.51342
0.124951
0.134348
1.0197
1.37074
0.626527
1.68911
1.08982
1.39568
0.96818
1.17281
0.156906
0.085711
1.03629
0.0801145
2.57319
0.0382967
0.0895136
0.0482711
0.528719
0.360658
0.123028
0.063031
0.156333
0.218412
0.0505339
0.0759593
0.0538637
0.263634
0.460691
1.00666
0.923155
0.0884736
2.96057
1.35253
2.02889
0.437162
0.0909296
0.966901
0.0656968
0.0406817
0.0228506
0.0390344
10.5108
0.323275
1.17122
0.668321
1.8052
1.97096
0.563552
0.0251629
0.0200658
0.0503002
0.0589623
0.0954972
0.0799898
0.0888886
0.0593656
0.0727733
0.140564
0.101022
0.0567447
0.0606337
0.0349656
0.0390867
0.106204
0.104441
0.0782389
0.0600772
0.0467838
0.0640845
0.0279639
0.0408902
0.0143347
0.275131
0.064609
0.0556012
0.027945
0.121519
0.0388723
0.0679609
0.0548644
0.0406341
0.0291991
0.0370706
0.033772
0.0776738
0.0267403
0.0558719
0.18454
0.0337556
0.0320258
0.0543539
0.0745842
0.34452
0.472569
5.17249
0.0490969
0.577821
1.08556
2.38129
2.5693
0.0537713
0.0586768
0.389061
0.0538529
0.747561
2.22194
8.47349
3.59118
2.5445
0.871109
0.0317849
0.0304207
0.107101
0.0604179
0.0389765
1.05004
0.198027
0.357396
0.117978
0.518998
1.01329
0.947994
0.224303
1.34619
0.630416
9.33892
0.093958
0.254975
0.191669
0.334156
3.06074
0.115239
1.01625
1.80629
0.893882
1.31412
0.641284
0.634719
0.307927
0.327935
0.36215
11.5704
0.0852919
0.0718416
0.0458361
1.95389
2.67002
0.0295859
1.6559
1.95982
0.0606341
0.0864762
0.0965519
0.0476171
0.0495286
0.0744137
0.122202
0.037518
0.0360592
0.150629
0.0796481
0.0541964
0.0258039
0.0735605
0.032109
0.0542395
0.060172
0.0398879
0.0760049
0.0319948
0.0217766
0.028008
0.0442503
1.25942
1.40154
0.179296
0.458344
0.53246
0.362255
1.91437
0.0469316
1.41929
2.5721
0.33735
1.14406
2.7342
0.307689
0.025854
2.74092
0.949425
0.0608602
6.66567
2.28008
2.43182
0.0363864
2.97412
0.771848
0.0674743
2.99603
0.361582
1.56321
0.168261
0.235665
0.153976
2.04398
0.0555817
2.00499
3.39333
0.227848
3.11473
0.0597167
3.03588
0.068946
0.13826
0.0377875
2.17228
0.049286
0.0633729
0.306143
0.0694247
3.00298
0.315586
1.74457
0.375989
0.740871
0.631281
5.92033
0.0317806
0.279676
0.301713
2.50898
1.13675
0.0541186
0.0508816
1.12092
0.575308
2.86011
0.307988
0.0779809
0.321447
0.12046
0.585986
0.0562949
1.77915
0.498768
0.0127799
0.0252608
3.06915
2.66708
0.328206
0.561015
1.98463
0.273187
2.86536
3.83719
2.17527
2.87625
2.31788
0.0743812
2.09769
0.0511981
0.142639
0.0738836
1.90094
0.250838
0.260418
0.300871
2.85029
0.615134
0.0663006
0.0972402
0.103337
0.74012
1.98243
2.89077
4.47042
1.5249
0.617991
2.54341
0.265007
0.796292
0.765966
0.934819
2.00398
3.06239
1.19599
2.91112
1.04569
3.18877
1.30106
0.180897
1.22121
0.976671
0.47304
0.519032
0.400633
3.60259
0.701844
0.360511
1.51265
0.988688
1.31876
0.363208
0.259875
6.28324
0.630273
2.26718
0.884037
0.0967384
0.0490785
0.107035
1.52182
0.0670115
0.118715
0.159476
3.09556
3.20807
2.411
2.12139
3.34241
2.65785
3.35383
0.0687948
3.38865
3.28485
2.8513
2.42835
3.19124
2.29847
3.31764
3.2143
3.30744
0.574775
0.542111
0.343668
5.15508
0.387449
0.218488
0.16061
0.231395
0.0297919
0.0363842
0.948054
1.94224
0.65424
0.0855257
0.122777
1.89662
1.85716
1.10785
0.418719
0.209091
0.223939
0.15072
0.204863
0.716031
0.168738
1.32597
0.154091
0.704468
0.346457
0.2453
0.0680946
0.956127
0.0798541
0.220193
0.322743
0.0282084
0.931662
0.188087
0.131876
0.167517
0.128572
0.123007
1.45872
0.120651
1.18121
0.88812
0.268478
1.23807
3.59557
0.125659
1.59453
1.0055
0.846796
3.62141
0.0721573
0.106913
3.46406
1.18185
1.81378
0.127375
0.333238
2.08164
3.62866
1.65391
0.108219
0.117512
0.104883
1.07597
0.278238
6.94844
0.12199
0.386895
0.202282
0.118825
0.968072
0.0610841
0.256345
1.31348
1.45759
0.540874
6.68611
2.96974
0.0969764
3.1249
0.116964
0.221967
0.556921
0.0737945
2.04966
0.296896
6.48513
0.429257
0.205157
0.0787629
2.24133
6.25594
0.0821471
1.27944
1.72027
0.752764
0.347814
0.207726
0.0775181
0.248318
2.01594
1.3076
1.78659
5.14537
4.96449
0.14803
0.630953
0.218971
1.29337
0.410392
0.0961195
0.188404
2.04583
0.0556978
0.140972
0.101505
1.32774
0.175902
0.802768
0.250933
0.300618
0.456029
0.123443
0.486275
0.664971
0.138884
0.144191
0.573843
0.645915
0.10261
0.252874
0.16081
0.0855839
1.38511
0.313932
0.248818
0.553706
0.481282
0.0611045
0.218099
0.236417
0.405094
0.0518085
0.232094
1.2505
1.94764
0.394726
0.315698
0.164434
0.678361
0.464628
0.505822
0.120009
0.614816
0.441428
0.428979
0.0753368
0.764296
0.735837
5.24569
0.376131
0.789539
0.590869
0.442883
0.520586
0.575061
0.377466
0.263792
0.639798
0.585218
0.450208
0.564469
0.638391
0.739947
0.333522
0.243982
0.396646
0.619775
0.157814
0.224576
0.714244
0.54423
0.459626
0.376822
0.348297
0.438476
0.368374
0.63601
0.281492
0.6102
0.0900158
0.140327
0.0586952
0.186411
1.2247
0.246993
1.98651
0.422021
0.233815
0.545306
0.529023
0.366937
1.32716
1.2963
0.416026
0.140508
0.542696
0.159814
0.188651
0.113908
0.320041
0.25415
0.50902
0.213021
5.43827
0.609108
0.145107
0.46362
0.51114
0.187879
0.133486
0.0608527
0.087328
1.41123
0.352343
0.136514
0.243649
0.665509
0.119371
0.0595829
0.0925953
1.90822
1.13446
0.249808
1.44846
1.62287
0.299066
0.191042
0.223579
5.43492
0.32761
0.122963
0.264133
1.34908
0.341025
0.430369
0.871591
1.5134
0.404638
0.740099
1.05429
0.116057
0.0514415
0.0887256
0.681867
0.283573
0.674552
1.40589
1.51159
0.213053
5.31203
5.1355
0.119871
0.223339
0.388192
0.235819
0.84929
0.222911
0.797473
0.728359
0.482025
0.42796
0.70398
1.13614
1.25525
1.77013
0.18456
0.740705
0.282036
0.227507
0.685609
0.0735119
0.0755236
1.8552
0.702395
0.446507
1.71161
0.109581
0.302208
0.552434
1.42575
0.655027
0.906799
0.0951644
0.0492311
0.0999759
1.42584
1.94399
0.172079
1.43409
1.34719
1.27802
1.86913
0.25642
0.259982
0.0805089
0.185021
0.243748
5.22103
0.113339
0.763147
2.28505
0.207017
0.31183
3.90502
0.0541416
0.133868
0.330302
0.518959
0.550633
0.669687
1.37107
1.98923
1.07853
1.03411
1.12586
0.063992
0.624976
0.348869
0.0446364
0.0375567
0.108958
0.307837
0.268589
1.28878
0.0960227
0.0450215
0.0968667
2.02261
2.21834
0.0648022
0.0357288
3.66591
2.96118
0.703839
0.0557003
1.47092
0.229429
0.394381
0.0779454
0.276335
5.09617
0.107891
0.0842259
0.0761893
3.54824
2.13036
1.1431
0.135275
3.27812
1.90882
0.872249
0.380734
0.604569
0.424657
0.325237
0.453139
0.378821
0.493696
0.427732
1.99686
1.35192
0.132319
0.103754
0.648316
2.43517
2.58268
3.39851
2.52556
1.82876
0.444772
1.3136
0.406986
0.367512
1.45825
2.44165
3.01547
3.45162
1.19842
1.84575
1.00767
0.945688
0.630972
0.0804509
0.458545
0.0848844
0.0422164
0.0993173
0.291643
0.317151
0.255926
2.21708
2.70775
0.427792
3.2072
0.681497
0.69378
0.511199
0.209458
1.17955
0.560494
1.02184
0.436891
0.0970567
0.227838
2.81241
0.606323
0.31567
0.0538536
1.56732
0.48096
0.542779
0.237629
1.55382
1.63398
0.242498
0.525648
1.22621
1.30412
0.193307
0.130769
0.0257429
0.26464
0.0791725
0.112354
2.99029
0.092513
0.0691491
0.0960351
1.30156
0.134539
0.299542
2.63219
0.083473
1.74532
0.427756
0.397353
0.405918
1.74106
1.77725
1.40066
0.401777
0.597795
3.42964
2.30576
0.0714862
0.277719
0.0957259
0.57717
1.01736
0.247423
0.105748
0.313544
0.236057
0.0488532
0.148836
0.587632
0.0894155
0.307824
0.655581
0.440162
0.458757
0.259964
0.534939
1.67543
0.62918
0.80511
0.529715
0.257641
0.390407
2.92088
0.452885
3.09546
0.868346
0.513665
1.01021
1.01601
4.05096
0.826045
1.45871
0.316035
2.30736
0.585455
0.635095
0.0954735
0.0691413
2.38424
0.722838
0.848412
0.507869
1.19823
0.700301
0.217333
1.82821
1.54359
1.47931
1.14107
0.672321
0.555997
0.0891029
0.0447889
0.0928714
2.31504
1.56346
1.37226
0.137554
0.0523
3.46861
0.405135
1.95068
3.47174
2.9509
3.25956
2.63043
0.0520366
0.613568
0.327175
0.633566
2.30405
2.76894
0.0936201
0.843492
0.970262
0.717577
1.70738
0.127036
1.19753
2.12245
2.82444
0.506204
0.0803726
2.14244
2.14882
0.706567
0.662451
1.74977
2.9161
0.584199
0.087673
0.498283
1.64926
1.55098
0.0622283
0.927646
1.7266
0.60982
0.193395
0.691934
1.59766
3.51441
0.486774
0.244011
0.0480539
0.0729505
1.52933
1.60172
2.56775
2.76551
1.75888
4.43215
0.159728
0.274353
0.731769
2.63945
0.464834
1.85753
1.04669
0.105411
0.0943517
0.259271
0.066233
0.0902254
3.21302
3.30757
3.05917
2.10502
5.00908
1.12732
0.723936
0.53746
3.3634
5.12632
2.29165
6.98389
0.20184
0.0751759
1.91704
3.41855
1.71011
1.25163
1.11361
0.59354
0.0822855
1.08763
0.0459239
0.039733
2.04231
0.090014
0.828019
0.0758375
2.46396
0.415744
1.15454
0.759239
0.836263
0.442149
1.40451
2.15094
1.40499
0.0526697
4.03036
0.494474
0.390998
0.075002
0.0786645
0.181561
1.7693
2.91208
3.68668
0.210515
2.67495
4.02272
0.111857
1.16174
0.364739
0.376165
0.12576
0.311126
3.36303
1.52404
0.418991
0.370611
3.1708
1.24434
0.449398
0.941615
0.103555
0.797602
0.223348
2.80734
0.434438
1.91773
0.0798513
0.0709624
0.363027
3.55981
0.896088
2.89385
1.7829
0.167674
0.26972
1.6248
0.44543
0.0840434
3.66211
0.126136
0.08097
1.7442
0.316286
3.31887
0.110813
2.87119
2.52596
0.0571935
0.836142
0.399584
3.0332
2.47097
0.136874
0.758429
1.25376
2.90614
0.359639
0.296219
0.276297
0.271164
0.0425433
0.0873733
2.52308
1.39485
0.77549
0.294813
2.71004
0.313407
2.55609
1.60101
0.147358
0.20474
1.5966
2.88008
0.0255503
0.0162576
0.0355414
2.72671
0.785416
3.01196
0.512814
0.411471
2.36399
3.22408
0.0765641
1.16216
3.14128
2.06832
0.865452
1.93512
0.120294
1.82674
1.19354
0.0789472
0.0432725
0.0939503
0.751201
0.0960588
0.550758
1.37404
0.0826113
2.43552
1.05927
0.712548
0.643639
2.21545
0.32732
0.982289
0.0872201
2.25197
2.05761
2.38446
0.772779
0.083728
0.046527
0.085498
1.27301
0.447242
1.08781
1.37002
0.441822
0.926088
4.6965
1.42332
3.08254
0.0863467
2.61355
0.37068
0.164247
0.998348
1.36081
0.419441
0.157989
0.167527
1.10169
1.63749
0.127136
0.0894712
2.65258
3.27743
0.617712
1.06374
0.810145
4.53029
5.40067
1.74772
0.0852921
0.809195
1.20227
2.27689
1.84546
2.77091
0.205395
1.61116
0.68371
1.41445
0.534598
1.30259
0.285214
0.793669
0.0356853
1.63197
0.527196
0.0695438
0.973383
0.346637
0.683319
2.11876
0.963078
0.042061
0.180464
2.3669
1.7387
1.50663
0.818324
0.542939
0.150126
0.0420936
0.0719307
0.0705219
0.104334
1.35474
0.0889672
0.705452
3.26117
0.152503
0.0716215
0.241749
0.307671
2.74193
0.0690797
0.0500596
0.0776623
0.355389
0.882795
0.152946
0.223009
0.0301554
0.0681754
0.0798642
0.095141
0.664589
0.334857
0.229925
1.26041
0.561089
0.254515
1.99282
0.768818
1.12004
0.14654
0.133864
0.0241063
0.0439015
0.090514
2.73567
0.0844279
2.87101
1.92014
0.887617
2.26914
0.081981
0.238404
0.174611
3.45784
0.413957
0.66841
0.0760939
0.048289
0.0848664
0.19823
0.0954889
3.14265
2.16036
0.0669031
0.604103
0.0461397
0.502113
0.310934
0.545431
0.0682901
2.61174
1.61476
2.5699
2.99568
0.117363
0.157677
0.573608
3.63355
0.541928
2.43683
0.644304
1.49367
0.0931035
0.24717
0.0795487
0.736905
0.524523
0.68346
0.730888
0.0904278
0.0814482
0.589582
0.160888
0.225223
1.62506
3.03873
2.83101
0.816992
2.75212
0.474628
2.26673
0.565407
2.3424
0.255747
1.1002
0.0855547
1.74736
3.10258
3.51566
0.404066
0.0875585
0.155721
0.13019
0.0473859
0.166703
0.385069
0.228297
0.695097
2.58802
0.0736197
0.144132
2.92347
0.262396
0.621799
1.47902
2.38425
2.37605
0.232301
0.643863
0.378951
0.256811
0.332171
0.311333
0.17161
2.13882
0.0597843
0.712176
0.468739
0.073446
1.08768
0.0787959
0.0659081
0.053987
0.0265734
0.0300809
0.0984291
0.178025
0.208502
0.282748
0.0318141
0.018126
0.0388944
3.12589
2.91773
0.359087
0.858924
0.278878
0.49356
0.684039
2.31269
1.59855
2.43569
6.18808
0.704922
1.85537
2.05563
3.67514
0.969067
0.054783
0.0683633
0.0589812
0.0480052
0.0681199
0.264332
2.11457
1.73344
0.0269779
0.0978179
0.16542
1.28193
0.319301
2.03701
0.0322406
0.233885
1.43016
0.313743
0.602001
0.46437
0.0930234
0.065241
1.31908
0.495512
3.64417
0.145069
0.448063
5.62596
0.183153
1.42793
2.79754
0.045529
0.0689867
0.322977
0.0719515
0.0522817
0.194854
0.0686957
0.114178
0.174901
0.160684
0.535806
0.0804897
0.383195
1.95435
2.5767
0.0529382
0.0555791
0.064124
1.51161
0.813491
0.110689
2.11827
2.05089
0.0772912
1.17441
1.31343
1.97774
3.55994
3.27839
1.40903
0.847844
0.0899457
1.05095
3.10806
1.93539
0.410494
0.0804476
3.49162
0.0708554
3.08568
0.615575
0.0799833
0.346004
1.51388
2.76703
0.0523514
0.13998
1.21466
0.219565
0.338589
0.102432
0.665606
0.287445
3.92746
0.396135
1.81029
0.0736121
0.0500992
0.0756453
0.0385057
0.0305455
0.0282014
1.94243
0.0641303
1.93708
3.55544
0.327209
0.99749
5.68981
0.272558
0.202886
1.8085
1.06814
0.944875
6.71551
0.248595
4.10614
0.0780115
0.046069
0.0786188
2.99102
0.188083
0.0695342
0.0485276
0.0418165
0.0714821
2.06405
1.80303
0.670433
0.240249
0.457416
3.4274
1.14676
0.591076
0.724431
0.792956
0.362754
1.86768
2.5894
2.10512
1.72457
0.0592852
0.468388
0.102258
1.40309
0.103677
1.58161
1.41546
0.643722
0.753103
0.223663
2.35767
0.201168
0.0405797
0.0720557
0.0940452
0.089725
0.876913
0.649433
1.48308
0.218782
0.474184
2.92558
2.71591
0.421413
2.3189
0.982088
0.0797593
0.109442
0.0640113
3.28655
0.579473
1.79979
0.541823
0.0716761
0.310001
3.17946
1.93106
0.20898
0.28215
0.983937
1.87408
0.10703
0.0385169
0.0648747
0.413626
2.37317
0.230319
1.1432
1.6615
1.57103
1.4485
0.299356
0.218081
1.92021
1.69937
1.66977
0.0635375
0.403912
0.0108429
2.97216
0.0098645
0.427548
2.33342
1.00754
0.465955
2.07047
0.0523612
0.205958
0.491362
0.0128896
0.477632
0.0552866
0.0103185
0.332236
0.58371
2.00096
2.50585
0.73348
0.224572
0.0335867
0.0426119
0.0157559
0.0120042
0.0239296
0.0625126
0.471137
1.77857
0.475339
0.526023
0.333364
0.839872
1.70169
0.577769
0.206605
0.04583
0.189945
4.01783
2.20159
1.16047
0.172695
0.0613629
2.21144
0.0924937
0.356921
0.654784
0.626108
0.506753
3.25312
0.284364
0.451702
0.205992
3.41285
2.16688
0.0638832
1.33017
0.0840963
0.176257
1.47392
0.163997
0.0367931
0.0293352
0.0774153
0.0948623
0.10705
4.21183
1.38316
0.250301
1.5865
0.990866
0.340432
2.31043
2.55051
0.31649
3.77922
0.0734478
0.566083
0.0447861
0.508231
1.31353
0.0305393
0.384135
2.90119
0.200683
0.441277
0.0432978
0.0834751
0.592185
1.77085
1.24491
2.61997
0.404723
2.47951
0.0813448
0.468094
2.33679
0.211032
3.63633
0.441232
1.33555
0.426359
0.222601
1.87308
0.748498
2.56449
0.0443601
0.0324221
0.0575073
1.98689
0.238551
0.190661
0.114408
0.486451
0.516172
0.0339443
0.0833764
0.227452
0.929149
3.07666
0.196961
0.0985101
0.350118
2.21627
0.521795
0.420842
0.131581
1.54695
0.661399
0.127624
0.83312
2.69878
0.0277813
0.793326
1.2331
2.00366
0.807416
0.856312
0.369411
0.0815401
0.0711306
0.063603
0.0590957
0.0733176
0.205378
0.305882
2.80456
1.43873
1.01927
3.28163
0.958442
1.34117
0.267152
0.262494
1.17617
0.164044
0.71252
0.198253
1.58052
3.74251
2.27919
2.15982
1.55734
0.600155
0.909532
0.613975
0.551383
0.0158249
0.0416154
2.16194
0.500499
0.119867
1.95046
2.40582
0.0822116
1.00833
0.807747
2.94229
4.95806
2.95401
0.0317863
1.55608
0.0403983
0.0622665
0.0733118
1.61279
2.7761
1.30572
0.0868967
0.4998
3.01491
0.251515
0.0310243
0.739272
2.19679
0.5712
1.57228
4.04175
1.38188
0.0665545
0.0565294
1.09505
2.22412
1.96116
1.9548
2.64463
0.231271
0.108645
3.62091
2.01744
0.0676421
0.0321914
0.0610005
0.0379824
0.104027
0.0704482
4.45965
1.02339
0.0958218
1.13329
1.78001
0.194153
2.41885
1.84237
2.59684
0.259671
0.533283
0.296
1.66559
0.787694
0.441248
3.50237
2.91898
1.15363
2.14386
2.47616
2.35699
0.128461
0.0987827
2.47288
2.54584
0.119907
0.061917
0.0254285
0.0578154
0.588877
1.21047
2.0082
0.896799
0.0944593
2.51614
0.0388996
0.0656283
0.0807564
0.235321
0.115991
1.62746
1.76443
2.77713
0.226716
3.32668
0.0642848
0.283062
3.55984
1.71913
1.81151
1.23359
0.312719
3.53378
1.85144
0.0830276
0.202592
0.211342
0.386793
0.192104
1.5177
0.892855
0.521444
0.613812
1.79062
1.18403
0.334583
1.33349
0.043347
0.0831164
1.22319
0.478564
0.362675
8.1958
0.309657
1.99945
1.78221
0.0483501
0.0491711
0.0650145
0.0634908
2.14678
1.73559
1.84064
0.189392
0.876866
0.2296
0.254788
0.637823
1.72557
0.218469
0.259342
0.236718
0.0679132
0.0491742
0.0192248
0.0724392
2.12209
1.80169
0.195086
0.820947
8.53372
2.84809
2.97917
1.26643
0.101271
0.972596
0.263192
0.503
1.34797
3.16129
0.090632
0.101588
0.0341491
2.74662
1.29034
2.09734
0.129179
0.123215
1.22745
0.442053
0.037011
0.0396183
0.0518934
0.0934519
0.280693
2.17511
1.93639
0.234299
2.29449
1.01897
1.6565
2.08704
0.355913
2.09304
0.164624
0.795645
1.79631
2.38643
1.50016
0.0553094
0.0620666
1.48047
0.246174
0.0643323
0.101367
1.22473
0.53762
0.52735
0.0411867
0.518471
0.044583
0.528187
0.503138
0.50877
0.509197
1.77933
2.65894
0.856242
0.10625
2.70349
0.5516
0.0808853
0.305992
0.0849188
0.384896
0.192598
0.38505
2.79401
0.0880178
0.11982
1.0752
0.183714
1.92146
0.0505603
0.0735855
4.13074
5.19497
0.065131
0.0616597
0.0551762
0.0768291
0.179717
0.0412539
0.0656932
0.0728458
0.0894449
0.0606644
0.0460008
1.26214
0.169078
0.0788044
0.574742
1.64167
0.157666
0.616989
0.0504799
0.17572
2.59127
1.91578
0.841149
0.0393931
2.58961
2.24049
2.21506
2.0693
0.426934
0.0515671
0.0179038
0.0845255
1.09558
2.91079
1.27172
0.194273
0.675846
0.258997
0.077023
0.134442
0.356685
2.85437
0.342326
2.38204
0.0268994
0.26354
2.6675
1.02262
0.0977877
0.505859
0.0698107
1.53702
1.30877
0.942493
0.0689333
0.161978
0.0737981
0.0772243
0.233463
0.323627
0.326589
2.64052
1.53577
1.81545
1.3996
0.701272
0.126521
0.599396
0.0798916
2.10132
0.916178
0.790475
0.26586
3.39106
0.256787
1.17228
1.68085
0.0737186
0.0924587
0.431387
3.58794
2.95331
1.17535
2.85796
1.88112
2.85259
0.31095
0.566757
0.0267728
0.237121
0.513627
9.07229
3.43762
0.356332
2.53242
1.01716
0.178067
0.234708
0.465815
0.164895
0.0689119
0.0577022
1.9392
1.84806
0.889746
1.63061