/*--------------------------------*- C++ -*----------------------------------*\
| =========                 |                                                 |
| \\      /  F ield         | OpenFOAM: The Open Source CFD Toolbox           |
|  \\    /   O peration     | Version:  v1912                                 |
|   \\  /    A nd           | Website:  www.openfoam.com                      |
|    \\/     M anipulation  |                                                 |
\*---------------------------------------------------------------------------*/
FoamFile
{
    version     2.0;
    format      ascii;
    class       volScalarField;
    location    "0.86";
    object      p;
}
// * * * * * * * * * * * * * * * * * * * * * * * * * * * * * * * * * * * * * //

dimensions      [0 2 -2 0 0 0 0];


internalField   nonuniform List<scalar> 
5794
(
91.2346
92.3332
89.4191
92.4177
92.4995
90.1843
88.2426
90.1869
88.096
93.1344
123.853
87.6854
85.9371
89.0521
92.6373
91.9871
39.1984
90.4669
92.6531
92.5113
90.8793
90.8186
86.5814
91.4216
88.9656
45.0206
45.2004
91.1191
91.103
92.5948
90.642
84.0098
104.162
91.3991
88.2478
86.5419
96.9375
88.2458
86.4534
90.5944
90.4518
91.6925
115.176
89.1323
92.6474
105.468
85.5834
89.5448
92.9543
89.3759
91.6634
82.7584
89.1241
92.8723
92.689
107.718
87.3468
88.708
115.339
40.0275
102.642
92.5613
90.0703
83.8637
103.719
92.3508
89.1338
89.6379
90.6492
92.5798
81.8645
89.5198
19.7761
89.7344
90.1834
91.1215
90.6343
51.1355
89.3683
92.188
90.8741
92.3045
90.4072
87.3576
89.3636
90.6996
83.5496
109.539
91.3654
88.9058
112.698
86.5667
89.5997
92.085
90.0401
81.605
108.428
90.3669
86.8258
103.558
79.1925
84.6157
115.349
90.8519
92.7368
89.8711
92.5416
125.113
81.0324
89.7741
91.258
92.5355
72.3537
92.3487
89.5956
90.5631
92.6403
90.0426
101.779
90.4998
90.0176
93.0022
89.4286
91.1298
92.5894
121.915
86.5227
90.6187
84.6959
123.661
90.0283
90.3636
85.1089
55.2746
90.3329
92.6273
115.26
92.5877
91.7847
91.3893
90.314
92.528
92.5803
92.4041
91.7308
52.9021
89.9418
113.188
93.1188
92.6772
119.974
92.9078
90.2826
88.389
48.2832
84.3307
88.6483
90.5445
105.02
89.4937
92.6004
89.0056
91.5546
86.605
81.0305
82.7614
87.5332
90.2635
91.3544
92.5614
92.6126
82.3215
86.8754
88.7549
91.4577
86.4868
92.6305
88.7739
91.5051
84.7131
89.6285
85.9928
89.0949
106.066
90.3687
47.157
84.3611
105.022
93.018
84.7252
123.598
84.3347
104.178
90.9769
90.4367
90.3403
89.8194
91.4602
92.6763
113.601
87.0231
81.9103
90.4267
90.4255
85.0549
105.091
90.0518
125.407
85.8104
87.7034
91.1251
95.9943
86.5337
88.9122
91.237
88.4245
86.5835
85.5405
124.241
96.7179
96.0879
85.0132
111.248
89.6205
110.068
39.804
89.4826
93.2577
93.309
92.6271
87.0774
89.0099
91.3541
81.6777
87.2038
52.3211
69.4362
117.906
87.4117
90.8891
92.2697
125.532
90.9718
89.113
87.8425
91.1922
92.6435
93.2728
109.463
90.7568
86.7494
92.2956
44.881
92.3866
118.266
85.7841
114.301
114.194
125.46
92.5898
115.718
86.7654
89.4991
92.4695
89.5195
88.8118
92.6542
121.406
92.5979
104.531
84.43
90.7344
91.1754
81.1824
97.4098
92.6241
92.8908
90.1395
92.7913
86.3564
91.4021
103.81
90.4156
91.7042
90.098
89.9757
86.4453
90.1477
87.942
90.3256
86.6971
88.4943
91.2609
92.9359
111.167
55.5861
89.6951
91.7028
87.8733
92.4875
92.3305
79.1192
90.8438
89.7369
89.0152
119.843
92.789
88.7694
103.846
83.8991
90.9372
104.446
90.5547
92.403
96.8355
98.8877
125.061
91.0422
80.9279
92.1638
89.9141
89.2105
89.5935
92.7868
91.933
83.8066
89.4849
89.007
87.9001
124.105
82.7451
116.461
90.8147
104.57
84.1237
93.0871
93.2548
91.4617
92.9684
105.277
91.4881
88.9918
86.8187
86.3566
92.6391
89.0244
108.181
87.1613
83.5203
87.6635
85.9672
54.8355
104.661
84.9999
89.9581
43.6681
92.6995
83.9338
87.5754
90.1219
125.307
86.3738
116.291
87.3258
90.1886
93.3241
81.8572
106.267
86.2117
89.193
92.8491
92.3917
93.3409
92.6979
125.003
80.9853
108.024
87.1046
89.7764
92.7752
90.5187
92.8422
97.2496
86.5255
88.3528
91.493
90.904
87.3618
90.0434
88.21
90.4227
88.8149
92.5732
91.2328
87.0487
88.9357
91.4428
88.9042
92.6102
86.9147
91.3605
88.6252
49.7769
91.2261
92.534
119.236
89.2002
90.1915
92.5481
109.039
89.6025
85.5915
123.033
82.505
104.775
84.6087
90.7608
92.5668
81.2441
108.635
86.702
90.3523
124.624
92.8537
86.6261
88.5249
91.5406
92.2991
92.3175
91.0111
82.3108
97.2565
92.6069
73.7396
92.6666
92.6647
90.042
89.9988
86.5634
88.5903
91.5124
96.8607
90.9309
90.2441
89.9827
90.3507
89.5013
91.8176
88.9627
89.9144
93.3498
92.4567
80.9371
90.9253
90.2768
92.5033
106.912
84.9949
89.4811
92.5579
90.7784
92.5606
89.074
91.1521
104.504
123.521
48.4791
90.2997
123.325
89.7268
92.516
78.329
123.009
93.3179
92.973
106.167
62.7775
90.9863
90.2903
92.5357
89.5702
90.9049
93.1174
93.2892
125.013
123.363
95.7227
89.8939
54.1955
90.9314
92.3426
90.4962
89.0836
93.0602
89.2568
91.3672
92.6086
92.828
91.9122
118.634
89.8895
62.1122
99.0622
83.3067
92.4376
92.5664
90.5702
113.154
123.043
92.272
80.8215
92.7954
90.5313
92.5663
92.5051
88.5991
89.9816
92.5995
95.8816
50.2866
90.1276
92.5423
91.7972
90.6823
123.265
92.147
91.3015
95.4378
92.5713
90.7166
89.6096
92.4624
48.0878
92.7883
93.3236
89.0492
96.9764
113.414
123.344
115.115
90.938
75.2856
92.3944
87.7646
89.329
91.9284
97.4603
92.5641
92.4168
90.0468
91.2629
92.8187
92.6437
89.4081
91.5715
92.5408
89.3687
90.6606
92.5842
93.1717
23.0282
92.6013
120.602
92.8947
88.6073
89.7359
92.0314
89.2973
89.5512
92.3558
105.411
82.7426
82.7855
89.4459
51.0705
94.3484
90.4076
89.0602
91.5965
90.211
90.5455
88.5366
122.92
50.9735
84.231
108.281
92.2645
90.2707
86.7134
108.004
92.2808
91.7564
92.5883
89.5049
88.707
100.357
92.7604
96.555
92.626
88.7103
90.3266
106.248
89.5379
90.4556
92.509
122.986
57.9313
93.179
92.6784
90.4169
87.2009
84.5163
90.2865
89.14
89.4167
90.039
118.216
123.833
112.494
89.7296
92.4837
122.964
122.31
125.238
92.5424
92.0355
92.6853
93.1723
126.255
92.3047
91.1197
92.2748
92.4057
90.1461
92.5111
93.155
65.9624
96.6861
93.3174
91.1431
89.0844
115.815
124.455
86.7696
114.401
90.5179
89.9037
103.749
92.7676
92.6463
90.7292
90.9377
92.7829
90.1723
89.767
118.998
49.6776
88.9222
37.9463
92.212
92.7966
93.0963
91.0114
90.3353
92.4889
90.0399
90.0559
90.0546
86.6574
103.971
117.989
88.9167
41.6442
89.8504
89.5813
89.4557
90.1132
89.5333
89.5235
90.9316
92.205
125.671
92.8558
91.8788
92.7277
113.954
94.0126
92.8113
92.8113
92.6185
91.3949
99.4104
69.9153
89.8578
92.9753
94.4473
125.204
92.4395
91.1118
95.977
92.9294
86.4945
92.4038
114.302
93.3049
116.595
89.8263
93.2234
92.7706
124.671
115.538
93.4451
89.5338
87.488
122.974
94.8338
98.5208
45.0186
121.138
89.9803
125.355
66.9438
113.869
92.7416
88.1364
88.9709
112.689
97.5367
124.651
100.002
89.6547
68.0804
97.3564
119.497
92.9561
88.8488
36.147
123.097
86.7048
89.96
109.983
92.5685
90.2101
89.0609
88.8866
90.5068
86.8132
106.058
89.1852
96.8656
91.7935
89.938
92.8538
92.5326
89.5105
90.3291
98.242
93.3531
89.9736
107.524
89.6965
71.1042
90.6849
90.0029
90.8073
90.5152
87.468
110.929
89.0813
90.2619
86.9641
108.959
93.3959
92.7775
93.363
92.6597
92.2122
91.3391
92.1306
90.0225
125.028
47.9566
89.1656
90.5912
92.5808
90.8761
87.6274
125.261
89.8626
88.7242
91.6039
119.169
107.592
86.2884
88.9959
87.8489
92.3826
71.7536
90.9425
60.7484
95.1191
125.161
90.3729
92.7431
91.9767
92.9139
124.604
125.966
117.938
104.042
90.2883
90.2316
91.1491
106.134
95.6059
91.2565
86.018
105.308
124.876
92.5811
90.4086
89.1931
112.035
50.9444
92.3584
97.7464
92.8723
93.2852
93.0364
86.7593
90.3733
107.357
96.4864
92.7951
90.5282
93.245
92.0271
40.1868
89.1339
92.2158
88.661
92.5414
123.044
91.8004
98.4199
92.5244
90.4356
104.134
96.8567
78.1659
89.3911
90.0044
89.7179
89.9223
121.088
121.449
50.9639
89.5873
92.5418
92.6421
104.317
92.9629
89.9741
93.3273
101.368
89.8315
73.8743
122.996
92.8402
90.8724
91.76
96.2508
120.397
90.0887
58.9451
92.8433
92.8181
60.0069
107.195
95.9357
87.966
89.409
123.97
113.862
92.4405
92.8021
86.2532
121.888
90.2872
96.8337
121.399
90.173
89.8056
90.772
89.5401
96.9868
93.0021
90.9647
92.3151
93.5237
92.3427
92.8091
92.531
90.149
118.89
92.5464
96.6649
92.2481
90.1131
89.9714
90.7731
94.0412
123.077
123.289
57.9679
88.5012
90.3551
96.9862
92.2483
53.9277
103.752
82.7683
116.676
90.7574
86.8657
90.0394
88.9413
90.3058
104.816
88.974
88.9494
88.804
89.627
92.4709
116.522
92.1615
90.3902
109.28
86.5524
90.3809
92.4765
111.115
92.5481
90.3156
93.3603
92.4025
84.0275
124.662
108.768
96.8969
90.3078
75.4417
92.4179
90.9407
82.4764
46.3675
97.2789
89.0542
100.873
94.3657
92.9941
92.1861
92.6068
90.0932
89.5096
92.5105
92.5339
90.3154
92.6989
92.3122
92.5392
92.6498
96.6608
90.6649
97.5427
92.8113
92.2884
108.977
97.1884
89.6558
91.5527
87.5013
92.363
123.99
99.1724
89.6702
92.7682
89.5224
122.935
92.7127
96.889
90.3827
92.7243
96.8904
69.2493
96.1442
86.8844
100.842
92.5778
97.5643
91.6153
92.002
110.028
71.3091
89.5659
100.768
91.8508
90.3358
92.2325
92.0309
101.861
105.904
50.3957
80.0535
89.9666
92.4047
89.3046
90.4174
86.2986
103.359
113.521
92.5432
90.8234
92.5394
90.3138
97.135
92.4182
95.3172
90.9788
96.6092
97.2647
98.2867
91.1871
92.2835
91.3044
93.2602
91.1087
123.071
92.5665
96.8115
87.8377
92.5197
93.2031
92.8205
88.6321
124.94
92.5316
125.343
92.5084
98.7073
125.092
92.6123
91.7903
109.395
92.2975
91.8713
90.9029
92.6175
89.4587
89.2207
90.2514
92.5587
89.2282
92.7533
92.2934
96.1456
92.6665
92.7676
91.418
88.5442
86.7125
96.5784
105.013
102.852
89.8618
89.1393
92.7767
92.6174
90.8779
91.7643
90.4628
90.2827
92.7837
116.946
92.5174
91.2812
92.8389
122.817
92.8241
83.6424
90.4905
92.3176
97.7649
90.1321
91.8757
88.6591
92.7207
96.5989
97.1168
92.3542
97.602
92.3796
92.3056
89.2532
92.5789
90.4471
91.2444
92.5332
124.077
92.6057
57.5556
92.8153
90.1159
92.5365
96.8381
90.4549
100.957
92.5725
91.9916
95.7859
102.964
85.3755
90.8026
92.4602
92.1434
90.9767
90.5163
93.2902
96.9773
93.9269
94.2682
119.584
113.109
92.4478
101.821
100.821
92.9855
88.7617
89.2747
92.5956
31.5528
97.2296
92.5572
92.54
122.994
123.253
93.953
92.0882
91.0465
90.2239
89.5896
92.3973
91.4636
89.7661
90.4224
91.6184
90.1609
90.2503
92.6752
88.6073
89.7756
90.5943
93.9594
92.5091
88.4
90.9016
87.0226
90.3808
89.853
102.759
103.828
98.0158
94.7399
96.8095
102.635
92.6253
90.428
92.1679
104.358
99.458
92.2833
90.9957
115.438
91.0317
117.494
90.1123
88.8899
102.258
88.7374
115.857
105.746
89.2722
90.166
96.9964
111.685
92.6566
90.06
92.4553
56.7399
92.5444
92.773
89.112
90.1354
92.5253
98.3905
93.0682
116.077
91.5068
89.069
100.56
90.1349
85.4577
92.812
92.6571
89.3743
90.0844
122.788
124.306
88.9325
96.9739
92.3455
90.3565
89.1866
84.2112
103.914
125.697
115.016
97.4744
93.3514
92.318
91.0611
90.1587
96.8267
90.0157
89.8365
90.0948
92.6514
90.6774
75.8108
90.3851
55.857
90.1887
92.4975
114.153
97.7959
91.2749
92.7043
96.3074
89.7746
92.7193
92.5564
91.2986
90.9363
92.5078
88.9667
89.1286
90.949
92.5548
91.445
90.7823
89.8932
78.3565
88.6932
118.546
96.2059
89.7271
92.71
89.9097
109.043
87.2945
90.0888
90.3883
92.9711
124.483
52.1172
88.8622
92.9428
92.8319
84.0477
92.6947
90.3561
91.7645
91.0247
88.6645
90.8542
90.1691
90.3991
91.6007
92.7296
92.4725
96.7584
90.4346
92.7583
90.3777
110.55
97.5041
124.242
123.676
89.7309
92.6412
92.2854
92.7192
125.035
89.7369
89.8265
89.284
92.5702
92.3144
92.3638
89.0861
90.2755
90.0078
92.784
89.631
92.6193
41.8501
88.6044
36.8571
50.2119
90.3318
96.5938
92.6786
90.3854
91.8152
90.9568
90.1641
90.3548
91.9348
83.7006
103.635
102.794
90.0045
89.6389
87.8907
85.3471
93.3739
92.6798
90.2894
124.312
92.8476
90.7035
92.8122
92.7005
90.3036
112.787
91.7889
90.2138
89.1122
89.1183
89.7037
88.893
92.9883
92.6714
96.8528
90.3969
129.946
123.903
92.4938
40.5572
124.612
90.2023
89.1793
92.8221
101.795
92.824
92.3796
90.3936
89.1133
10.9367
97.5153
90.2447
83.975
109.868
56.4361
114.133
89.0887
90.5808
92.3826
90.3668
91.8792
89.0852
89.7216
92.4894
89.7213
91.7267
91.9248
89.8358
89.182
90.5272
92.2748
91.835
89.0153
89.7289
92.0265
89.1358
89.8312
90.4722
92.3029
92.6555
91.8001
88.7096
90.2385
90.4357
91.9002
90.47
89.1339
89.9068
92.3301
90.6057
92.419
90.5474
91.9412
89.1101
92.3759
91.8741
90.3873
92.5298
90.0465
88.9301
87.4446
85.2754
56.0041
92.76
91.0661
101.777
92.7896
92.6106
92.8361
92.6226
94.6235
92.8348
89.856
90.5961
49.5166
90.0375
90.9675
89.7666
92.7611
92.7684
92.7283
90.3558
89.6503
90.5096
92.6937
89.2113
88.6228
91.4768
123.173
93.5707
90.4062
89.86
90.0696
45.5504
92.8382
88.4704
90.1887
105.773
90.8091
90.0298
89.561
89.6072
119.231
92.8885
89.6108
89.9387
90.1215
96.2238
95.454
11.665
92.8038
89.8944
92.0652
90.6472
92.0444
92.8259
139.359
89.8307
92.4164
91.9164
89.5308
89.1129
90.4624
89.7504
91.7885
92.4275
90.4086
91.877
89.0464
89.975
92.6012
88.8106
90.3768
89.1684
89.7948
92.2638
92.0111
90.5217
90.5919
89.0791
92.3943
99.8079
88.6626
125.546
108.689
90.3411
96.2132
90.3537
92.5778
119.129
92.5325
93.3855
129.003
91.833
90.4225
92.7568
91.8062
117.445
93.1635
73.0015
92.2644
92.5179
92.6615
91.0336
98.252
92.847
91.3561
98.0765
93.6884
92.7284
89.38
91.9182
89.9669
92.8256
90.0434
87.9159
92.7117
91.7615
92.5772
91.8745
90.2236
92.6288
92.7506
90.6855
92.7558
92.7577
92.3097
92.7979
92.7929
97.214
89.4193
87.0974
90.084
90.7994
81.0029
92.7017
96.9249
106.742
90.5482
121.855
88.7088
92.433
92.6398
89.7476
91.3521
97.1445
92.7918
91.8253
90.1138
89.8646
92.3964
89.1806
93.101
92.6923
90.4768
91.2699
94.0766
93.7013
93.3639
95.9992
91.7667
91.3168
87.6271
91.3122
91.4076
90.6556
92.7753
89.9708
92.6618
88.7624
92.9384
90.1973
115.841
89.5069
90.2797
90.5325
92.8051
90.2247
92.407
92.745
89.6003
89.6286
91.5465
112.548
90.1679
94.0703
91.0035
89.6712
118.438
117.811
91.5926
92.6009
90.1909
99.3638
91.6639
107.46
94.4706
141.827
89.7465
86.5663
104.306
114.927
85.278
87.5476
90.1547
129.831
88.2536
108.132
87.9759
131.68
89.9839
88.7865
29.5679
89.5237
90.9854
90.6779
92.2398
90.3882
89.0537
95.5482
90.187
92.5752
88.6524
90.0455
90.0624
89.9035
89.7601
90.1239
89.8331
89.8679
92.7712
89.8865
90.2229
89.8015
89.7266
90.0158
89.7071
90.6013
90.5103
90.5756
88.9491
88.5941
89.0272
47.9995
89.7425
89.3069
88.9386
89.5438
92.7495
92.8544
89.8524
90.1211
90.4837
92.7554
92.7211
89.7576
90.0384
89.5111
89.2446
88.8486
89.0648
88.5478
90.6701
90.6601
88.853
120.357
90.6278
89.455
92.5825
88.9403
92.7501
89.3779
92.7535
89.1638
92.6327
92.7571
90.4361
88.7813
88.525
89.0904
88.7297
92.6413
107.412
92.6217
85.269
84.0199
87.6273
105.041
81.2074
92.6321
107.144
105.461
84.3542
82.2336
91.4573
92.6219
80.8552
103.758
109.691
92.6227
88.0707
107.359
80.8771
106.327
92.6201
92.6217
92.6251
83.8739
89.1278
52.4535
92.631
87.1606
88.5594
92.6138
83.7524
91.4721
88.8881
105.252
103.86
86.383
52.587
80.4401
92.6181
80.618
92.6033
88.1932
86.1745
91.4654
107.016
89.6752
52.3309
86.3568
88.1848
91.4521
80.5788
49.5201
92.6078
146.241
81.2485
89.2223
86.4318
88.1151
92.6064
89.1738
103.807
84.0925
81.4986
49.1259
48.9122
88.7896
89.2891
89.9006
91.1088
90.6914
91.335
91.2458
84.5173
90.2035
88.6187
92.6236
123.791
89.1662
89.2347
90.6752
89.2486
90.4255
92.725
90.2321
91.0381
88.8722
88.324
90.1641
90.4906
91.2701
86.5609
88.2323
92.6236
92.5969
90.3782
90.08
92.5185
92.2811
88.5954
89.2999
90.4556
90.8346
92.7471
88.5967
84.3463
103.974
90.3418
88.8497
88.479
90.8556
92.7707
92.5556
88.6533
90.6916
92.0553
91.9437
88.1644
90.9122
90.1413
48.5227
92.6228
90.1647
90.8826
92.8879
90.8525
90.6678
89.5475
92.6594
90.473
92.5999
91.7613
91.0879
90.9334
90.591
93.2733
90.6271
92.6604
90.6599
92.7066
92.6804
90.477
90.5611
90.655
92.6693
92.6526
90.3145
90.8487
90.5258
88.6111
90.1331
92.5389
88.6803
90.1973
92.7768
84.5364
88.1155
104.054
89.4667
88.5402
90.2182
92.7486
92.6703
124.052
84.1715
86.9152
89.9198
92.9439
90.4184
88.4871
91.2144
86.6739
93.0146
91.0313
92.9034
47.211
115.925
91.2807
89.6034
87.2054
92.638
88.773
90.2287
92.4108
124.284
87.4279
90.0813
88.7968
91.0267
88.8864
90.2678
92.3156
105.03
85.5185
87.7918
124.511
85.2126
88.1728
90.0529
89.2853
45.573
115.795
91.2008
86.9093
89.883
89.4966
92.5811
88.0484
90.144
83.8866
86.3689
91.1168
88.9457
90.3042
92.2691
87.4603
89.4066
90.3704
124.348
85.899
91.9149
45.8027
49.7221
89.6793
115.788
90.0119
89.596
89.6093
88.9866
92.6046
92.5504
86.6872
84.6132
91.0691
88.6183
87.4574
107.286
88.0791
113.201
88.1516
89.9974
90.1785
93.0059
93.0024
89.6349
89.4579
89.4316
89.6108
91.2739
87.0735
89.3577
89.9391
84.9263
91.0216
89.02
90.3759
92.2058
86.8815
107.131
88.3333
124.535
88.6564
88.2846
89.4709
88.3922
90.0268
90.5295
90.5725
91.883
48.1419
89.7523
99.5641
90.9932
95.1787
115.742
94.7017
92.7597
91.3615
89.1099
89.5925
87.1962
90.7743
85.4591
93.9536
92.5547
87.2188
99.7874
93.126
90.4965
90.6524
88.4371
88.4747
90.5249
90.6236
90.4927
91.037
89.0884
90.4278
92.1852
87.9455
90.0869
93.1962
92.7948
93.8407
94.3715
118.771
92.8013
92.9009
88.8574
89.9724
90.5492
91.8482
44.727
89.8336
92.752
92.9924
95.1553
96.4605
88.0694
89.4395
95.0521
90.6078
89.4204
89.0917
86.1636
93.2843
97.2796
92.7014
92.5226
92.6799
92.2741
89.7156
90.2362
89.1352
91.3817
87.1735
90.0751
92.8789
90.3091
89.7267
92.6834
92.3822
125.293
92.6976
92.8096
83.6738
89.6185
89.8983
89.8143
86.1093
91.2756
90.1523
89.1197
89.1833
88.4815
92.5327
89.0719
90.4308
92.1771
92.6662
92.6765
92.6882
88.5056
109.205
88.7368
90.7386
90.3143
90.7313
90.4926
90.577
91.4672
91.1886
91.1779
91.5933
88.4788
98.02
90.0627
89.7181
96.9097
92.7588
118.017
90.3508
90.7234
90.5372
124.667
90.3613
89.1891
89.9344
93.159
84.3669
90.5788
88.8664
92.7591
91.8436
88.5977
88.7545
90.1223
89.0417
90.2682
92.3794
123.477
89.7579
90.6666
93.2478
92.7853
91.188
92.6463
92.5919
89.7306
89.8885
93.2337
91.014
92.7418
90.5773
90.1214
89.8678
92.8864
90.6225
88.7181
90.2493
89.5239
89.7685
92.4556
115.727
116.583
92.7583
88.9549
90.3895
88.7714
116.037
90.2918
90.6867
91.8388
90.6304
117.053
89.8631
90.3251
84.949
87.6205
89.4469
90.9186
91.17
92.6236
89.7788
90.7934
89.5636
95.1797
89.0804
93.5022
124.301
89.2846
92.7483
90.0705
89.631
89.5919
89.3982
91.9515
91.9713
90.2501
90.8048
90.026
89.5222
89.4729
96.7713
90.8417
92.6709
88.2139
93.3777
90.2766
90.7148
89.0918
90.4343
92.1846
92.9384
80.8176
89.5783
88.9876
92.3413
92.7335
89.3424
81.685
93.3207
91.102
90.34
91.8681
88.9891
96.1418
90.673
90.2054
89.998
90.0026
92.7605
89.4416
101.778
90.5735
127.371
88.6263
89.6657
90.4325
91.6466
89.8402
91.4908
89.5672
89.2793
89.5116
118.881
87.4508
108.592
89.4647
92.7794
91.5081
89.6739
89.6906
93.2417
105.611
89.8566
95.1385
100.564
106.37
90.373
93.1366
90.9317
88.9884
90.2514
92.6477
124.789
86.5021
89.6324
86.5632
90.597
53.7122
92.6976
89.5172
89.9511
89.8594
92.0901
89.2418
81.7939
90.2486
92.4835
90.8242
92.7718
92.7755
90.0112
90.3959
89.9238
89.983
47.7301
91.1815
90.3795
110.52
91.6902
82.5638
91.715
37.7325
101.946
92.9659
91.8505
93.0744
92.8571
124.207
90.0287
89.1165
92.8338
132.01
93.2571
89.0871
90.2456
92.4501
90.8142
92.6419
90.8784
92.5594
91.1989
90.1576
90.8233
117.064
89.544
89.8526
88.6821
92.3639
92.3304
91.6157
92.4813
92.9207
91.8386
89.6203
136.141
91.8112
90.1834
90.7483
90.2623
91.3432
90.2169
123.056
92.4559
89.0433
92.4341
91.8149
70.1059
123.628
92.5006
92.4118
90.5577
92.6571
98.6884
92.185
89.9007
90.2565
96.8339
89.4716
89.788
89.1458
92.7858
93.1173
100.221
90.0688
89.2619
90.0864
86.1412
88.8264
89.2253
92.5134
89.7349
92.7176
90.2287
92.7119
92.7703
88.6298
95.1194
90.1151
90.0565
90.1899
90.2241
92.4499
90.3394
100.088
89.9535
89.9297
91.5825
89.6429
88.0269
91.6381
94.4389
95.6508
96.7058
89.0946
90.4639
92.2
76.7052
91.0933
90.0962
92.2081
89.8258
112.248
90.0735
89.6823
89.8503
100.902
86.3642
89.5513
89.0861
90.245
92.5324
89.3649
110.732
88.5199
89.7507
89.68
89.9344
90.0147
92.9668
90.0728
91.3746
89.8566
87.3799
109.292
92.0132
92.6577
92.004
89.0782
90.4367
92.1782
86.7144
92.8465
89.6609
94.1242
92.7892
90.1843
89.792
90.1753
90.7895
88.1751
88.9937
91.6725
92.766
92.4632
94.4091
92.5068
90.0917
89.0789
90.402
92.2104
132.149
107.462
90.8703
90.3018
100.371
108.279
107.952
90.4317
90.9722
92.0167
90.9302
91.8057
92.6029
94.5185
123.866
90.7742
92.6838
88.0233
85.9374
105.714
92.5581
90.2267
91.9013
89.8728
90.6955
90.6429
90.2182
88.5895
50.2624
70.852
92.7948
89.5743
92.216
88.5665
91.1232
91.3968
99.924
92.4735
115.572
89.9228
91.5805
90.6401
92.0741
90.8342
92.6422
90.2416
90.7425
89.0614
98.5964
91.7897
90.418
89.5766
123.069
92.5657
88.7306
84.1376
89.8339
123.196
124.129
91.3174
89.6947
90.2623
92.3657
89.0813
89.4918
20.7122
92.4113
118.56
84.9694
92.2421
92.8301
93.4988
122.292
88.2569
89.0561
90.4481
92.2409
92.5437
114.28
89.1118
89.7144
92.7633
93.1552
92.7202
92.3396
90.1129
90.7067
96.6967
123.472
102.944
92.4939
91.5856
90.2615
90.9018
89.4971
91.9839
92.1691
89.7451
92.8321
92.1941
92.8095
90.4207
89.2897
116.974
89.7115
92.8129
96.6866
88.7219
45.4271
90.7083
90.1945
89.0648
90.4116
92.2115
104.263
92.2828
89.906
89.3557
93.339
90.7647
92.3711
92.1557
91.7138
93.2735
92.8693
91.1369
89.8603
91.3075
92.5077
91.9854
89.3224
89.3879
90.1133
91.3629
94.7566
90.8653
90.8681
92.2417
96.7299
92.774
90.0928
90.7688
116.887
118.658
89.1135
92.8245
90.9224
92.7386
92.456
89.5162
92.1998
92.3789
92.3202
91.7494
100.5
91.4525
89.2088
90.7609
91.7367
90.5857
92.7376
85.985
90.8178
90.0843
110.21
92.2273
89.2816
91.9634
92.5895
89.7298
86.0994
88.9757
90.1529
90.2578
92.9036
92.3472
81.3162
99.1032
93.9135
93.4951
91.4177
90.9213
91.8347
90.1144
90.7072
97.0048
96.6386
92.4031
90.2472
92.7565
92.7377
90.091
90.7544
92.8206
89.03
92.2426
90.6061
92.4972
92.7566
92.5899
91.974
89.5945
90.0395
97.2764
89.1002
90.3034
92.4645
90.6058
92.0087
92.9825
90.7513
92.2209
90.7495
90.0964
91.8136
123.626
88.1336
41.7442
93.4014
89.0379
90.7744
91.5827
89.6044
90.423
92.3224
92.7648
90.3049
92.3849
96.9085
92.9802
114.552
92.5516
92.0172
89.6372
89.1213
115.59
89.6698
92.7715
91.8053
93.0553
114.886
87.253
89.541
91.4224
89.0897
125.157
95.6566
89.9904
92.5939
106
81.1622
93.4097
89.2005
91.1313
91.8531
88.9464
89.2418
90.4519
92.5792
89.7197
92.2845
89.8473
88.8043
90.6225
92.321
92.7517
90.3004
88.7613
91.5031
92.4013
92.8349
92.6738
89.2394
89.5452
90.2895
91.3672
86.8836
92.7998
113.899
89.0146
90.9614
90.3646
35.6219
91.4688
120.479
92.758
89.2363
91.3726
90.0406
92.4179
92.0533
90.2516
92.8409
89.7355
90.6819
92.7631
116.414
88.4839
86.4743
92.2706
91.3693
125.579
89.5512
90.2243
92.7446
90.1043
90.7585
95.0219
92.4118
90.9685
89.0603
90.3673
92.2862
90.6352
89.0848
92.4369
90.4642
93.0017
81.6137
89.9428
89.7935
89.8632
56.3625
97.0144
105.831
90.7581
89.4754
123.638
67.661
110.126
94.5012
89.0719
90.3447
92.2754
90.8527
100.99
89.0717
90.9617
92.3859
92.8465
91.0713
117.631
128.235
89.1975
109.738
95.3266
122.91
92.9256
90.8031
90.161
91.2203
87.8377
91.841
108.749
90.6129
92.3422
91.6692
92.7303
123.489
90.241
110.481
89.466
89.0738
89.8533
89.5348
92.6083
92.6792
90.4586
89.0774
92.2017
92.7729
90.6473
90.5776
90.548
89.9045
90.598
91.8794
92.6333
97.6003
39.4426
123.083
92.5789
92.7284
92.6409
90.7941
91.03
89.874
89.5151
92.9704
92.246
90.476
91.7868
107.939
89.96
85.8622
107.276
91.2446
92.2489
92.7637
97.4284
34.2061
89.5234
83.9352
103.693
87.4406
93.365
98.4713
96.599
93.2889
88.9873
92.5457
89.0852
125.415
92.7561
91.3678
92.7485
98.0359
43.3056
90.5321
91.4377
90.9156
91.5068
89.0029
86.4917
92.7611
107.038
90.3602
92.7414
91.679
115.189
92.0729
90.3752
90.2491
90.4331
92.119
89.729
92.7708
92.7417
92.5808
90.4504
106.47
89.1054
105.836
89.1112
89.3667
93.954
89.7931
124.954
92.6347
92.8049
100.004
110.891
89.6989
89.2087
89.5348
92.1176
90.2314
88.9875
122.355
90.831
93.8539
91.1553
91.4032
93.542
121.691
122.886
90.2084
90.1248
92.852
93.4698
91.8845
89.5617
85.945
93.4187
92.94
92.4239
92.7844
92.7616
91.1155
78.2388
89.0876
122.727
92.9894
90.4221
92.0556
90.8633
90.1615
117.134
94.0206
91.9619
115.401
92.4697
112.29
106.021
92.8775
122.195
91.5041
122.941
93.6983
92.186
90.1422
99.2951
90.5568
103.449
88.4026
98.0841
27.3524
92.8027
121.349
90.4704
101.709
90.1855
102.793
88.6997
121.984
122.816
91.8512
107.198
92.6843
89.102
90.1591
92.5134
90.9208
91.934
103.325
92.5937
105.154
103.563
92.9109
91.9638
90.1425
124.128
89.8738
88.9334
91.9204
96.7009
90.8804
97.0553
97.4339
92.6616
107.017
91.4379
91.3888
89.7289
89.9599
92.5897
105.239
123.25
89.3217
110.163
101.798
89.2294
92.8152
92.7751
92.6411
92.8405
92.7153
122.988
96.5014
89.9401
92.6618
89.5939
110.734
85.575
90.3826
90.0969
89.4153
89.7736
91.5637
90.6763
89.1499
94.9656
90.9979
91.0425
90.4598
89.0713
90.826
108.631
98.8499
93.5338
92.6771
92.7456
90.0794
104.388
89.5165
89.5624
90.0625
92.8022
91.8702
86.654
90.3974
49.9938
93.2648
92.7936
97.3013
90.5038
89.069
92.2562
122.696
91.5284
115.592
92.4732
91.4135
81.7264
90.0259
92.5437
91.2542
93.2355
100.725
88.9561
110.285
89.6441
90.5141
92.5567
89.6209
91.0073
90.3511
57.0755
55.2349
90.6518
91.309
90.1998
91.2425
92.4411
90.188
89.1049
92.4933
90.1893
89.1109
89.168
89.5708
89.235
90.0367
89.9403
125.375
90.8447
90.0181
87.6285
89.959
102.73
91.978
91.7773
91.0981
93.44
111.933
90.2807
89.6346
90.7988
87.7163
45.2356
90.3136
92.447
104.972
123.806
92.6585
93.2877
92.599
90.4689
89.0096
90.9407
89.4366
93.4485
92.7448
91.1634
90.5074
89.0924
92.246
89.233
91.937
87.5362
107.742
90.237
87.1901
94.7624
92.0524
90.7308
90.3469
91.634
103.664
83.8094
90.3928
89.9883
89.2564
92.6093
89.0611
88.1092
86.4596
99.065
91.0741
110.12
120.136
139.873
93.3636
93.36
125.627
89.6023
91.7169
92.6067
119.955
91.8426
96.0373
9.75734
97.102
91.621
88.8843
92.4075
90.4953
92.3061
89.0601
90.8966
91.8457
86.7483
92.577
90.6653
96.2654
90.8848
125.046
89.126
110.184
89.1975
88.8986
89.0648
90.8158
92.4395
92.2724
87.1122
89.4789
88.7848
92.4976
33.266
112.371
89.7926
91.1167
92.6212
93.3435
86.6707
91.697
90.2158
87.0818
92.6317
92.6334
92.5528
91.3945
93.5353
90.6848
89.7367
91.5449
88.6132
116.534
92.2963
91.0624
91.916
89.7149
97.5387
104.579
90.884
96.3783
90.3224
86.6589
88.4647
91.0899
89.225
90.2828
91.7086
90.3828
90.2645
92.6467
125.21
90.3907
92.4177
124.613
92.604
93.3133
92.7441
78.8934
98.2561
98.0266
92.3756
95.4571
92.3561
95.5775
95.706
98.9579
97.1064
92.286
90.8117
87.9705
91.6203
90.8608
101.873
92.6204
91.1992
92.6798
89.6689
88.894
97.7108
91.7289
91.4614
88.9887
93.9095
91.9565
89.2657
92.4096
92.7612
95.4831
50.8381
89.0721
90.5236
92.4488
89.6132
91.6182
90.5147
89.1172
92.2939
90.8406
89.0845
92.4798
121.579
92.5594
92.7952
91.1045
88.9422
90.6047
96.5009
88.7429
90.7944
92.2514
89.6662
88.5655
92.5132
92.4664
112.888
110.038
89.3864
88.5938
90.5166
92.7246
92.7066
89.7799
90.355
123.656
98.2408
89.2668
114.072
92.943
89.8074
86.965
90.6103
92.2355
80.4041
92.7529
98.7086
89.5204
88.8873
93.3457
95.4408
93.2975
85.5503
127.261
86.8478
93.1953
92.7152
92.8493
92.8525
112.291
122.493
92.4631
91.077
89.6763
107.707
90.1279
89.3527
92.7285
90.8503
89.0689
90.3047
89.5053
89.5221
89.0895
94.0247
89.7765
83.8205
103.67
92.7853
92.7624
86.6801
90.3375
90.036
99.7426
89.9846
89.8538
90.2678
89.1909
91.1447
92.4842
96.7784
89.6441
17.1121
95.3337
89.1411
90.1102
89.2918
88.7851
91.8771
89.2079
92.7304
90.3017
92.5359
90.4543
92.0814
120.806
88.6201
123.466
91.7
88.9734
92.8432
91.6684
90.0414
89.4398
52.2738
115.799
96.8905
92.7492
90.3717
90.5857
82.4933
83.7095
93.313
89.9659
97.0321
96.6786
90.3182
93.0822
45.0485
92.2818
89.0835
90.3629
90.0996
89.5449
89.6446
90.5158
88.8081
52.3263
90.0741
90.671
90.4183
92.2899
91.1162
88.4487
87.1855
92.2709
95.4224
107.527
94.0119
90.424
89.5491
89.1675
89.6796
86.1926
92.7006
125.604
116.391
92.2608
80.4539
91.5884
90.6741
89.0806
92.4526
90.8492
115.443
93.6281
98.0225
90.0579
88.7572
90.0384
90.6288
97.3734
89.3054
110.198
89.7828
85.3714
90.4431
92.2792
125.246
92.5647
88.7146
87.4506
92.5631
90.3531
84.6036
44.4813
106.17
90.5756
91.5573
86.9343
88.9067
91.2494
89.8986
89.1165
91.8801
92.5396
92.5554
90.2912
124.687
91.3254
91.9309
92.1584
92.5786
53.6785
89.7697
85.8921
108.117
89.9316
91.4797
92.7167
96.9357
90.2234
92.5488
90.3552
89.1307
91.9395
89.2139
89.3731
122.682
91.5218
91.3647
92.4623
90.2146
88.6276
86.3942
91.0636
91.1298
89.6392
89.2155
92.0117
97.2484
91.2128
92.3143
114.476
66.5199
91.1138
54.5485
91.8035
88.8916
83.7018
82.2968
90.1085
92.5927
75.3576
92.5191
116.51
90.1891
84.9955
110.521
121.765
114.47
91.2284
92.5405
93.3366
91.3575
89.3077
81.4276
86.5557
88.9565
91.5496
105.004
104.575
98.7454
87.4852
91.2645
87.0271
97.159
92.7845
92.5056
93.3497
92.4689
90.7048
122.616
89.2355
89.2687
89.4157
92.9473
89.7127
90.9567
87.079
92.7783
90.4779
89.0988
92.2567
89.9974
87.0141
91.353
90.3856
90.9224
85.8844
89.1733
90.0993
90.0255
93.1197
105.795
91.7635
90.5807
90.589
91.7445
111.272
119.693
91.7275
92.9308
113.523
90.424
98.8618
92.2179
91.3225
90.3319
92.2791
90.459
92.7685
92.7157
91.455
92.6808
92.4687
124.162
91.6525
92.4507
92.7543
92.3207
90.898
92.8583
85.3552
89.9122
92.0702
96.601
118.644
90.3035
89.2834
90.0253
89.8217
90.7964
90.031
91.2224
90.6123
92.6835
92.6368
90.4923
91.8482
52.0981
89.4619
123.168
92.2787
91.2083
90.5638
121.253
89.8316
51.7905
97.3267
92.5002
92.7775
92.6115
92.8884
92.5699
90.2709
89.2747
92.692
89.1833
90.1359
92.5144
90.5835
92.3477
97.3945
123.848
90.6295
88.5356
90.3964
91.2871
92.5439
88.9371
104.258
84.0211
90.2424
96.7556
91.0683
95.4838
90.2546
96.7864
116.034
92.2506
92.6222
92.7401
89.9653
125.294
88.6749
92.7705
87.293
89.3871
92.0759
91.8011
90.8566
123.744
98.7039
92.5412
90.1766
89.1734
97.1563
92.7786
90.0233
89.7469
92.4832
92.4586
89.3027
47.8547
91.0031
90.7843
107.864
125.092
90.7063
93.3162
92.4014
123.178
89.9186
95.2254
90.3094
37.5229
57.4918
92.4427
50.1529
92.2777
36.7329
89.6987
107.983
89.057
90.5632
92.591
92.5932
92.5633
92.5785
90.4128
90.4606
90.326
90.3178
92.5823
90.4272
61.9941
89.8711
89.532
89.2493
89.3262
56.1486
90.2619
90.0448
87.1925
88.9416
88.099
86.6817
66.9637
49.2021
86.4997
75.2336
71.1217
86.8322
90.3126
89.2436
89.607
89.3495
89.2706
89.2139
90.6011
89.9585
90.8666
92.5761
90.14
88.9952
91.0816
89.2955
90.3314
94.0131
109.929
111.201
89.9795
95.5336
93.0391
87.2431
92.0925
97.6037