/*--------------------------------*- C++ -*----------------------------------*\
| =========                 |                                                 |
| \\      /  F ield         | OpenFOAM: The Open Source CFD Toolbox           |
|  \\    /   O peration     | Version:  v1912                                 |
|   \\  /    A nd           | Website:  www.openfoam.com                      |
|    \\/     M anipulation  |                                                 |
\*---------------------------------------------------------------------------*/
FoamFile
{
    version     2.0;
    format      ascii;
    class       volScalarField;
    location    "0.53";
    object      p;
}
// * * * * * * * * * * * * * * * * * * * * * * * * * * * * * * * * * * * * * //

dimensions      [0 2 -2 0 0 0 0];


internalField   nonuniform List<scalar> 
1466
(
95.9278
131.149
94.541
100.264
99.3159
112.511
93.8851
95.4592
122.973
113.747
91.4532
115.766
123.148
99.4825
112.112
90.4887
96.5519
117.276
120.49
101.124
101.695
90.2395
116.416
101.887
123.112
132.193
89.7307
100.618
99.1013
129.424
93.4126
130.966
100.383
101.644
122.945
100.046
101.764
97.9872
113.337
98.9688
93.8608
89.707
91.4431
95.2399
100.594
94.08
93.1951
101.732
114.28
100.282
113.298
130.909
112.543
101.098
100.425
121.437
94.3029
90.5758
100.111
113.386
132.437
93.6814
99.2468
131.495
104.797
94.0151
118.842
101.328
125.673
97.615
132.59
117.366
102.202
122.142
132.5
123.358
94.0089
99.9287
99.5847
128.953
112.877
89.9133
95.8537
112.145
101.696
98.1323
101.36
127.475
112.271
112.722
132.16
89.618
101.085
98.0347
92.2335
97.0698
131.375
91.3535
124.226
98.5804
112.882
113.532
101.393
116.2
92.231
95.0193
113
101.933
92.6297
95.0435
132.346
124.03
94.5998
90.527
114.469
132.118
89.6726
116.048
93.8428
97.2746
100.226
94.7011
100.677
96.433
100.976
99.1129
126.946
116.852
101.126
130.45
113.085
89.9496
116.589
101.882
131.811
94.1911
96.9559
99.6417
93.8937
97.9553
101.056
100.275
101.853
115.021
93.7284
102.059
130.842
130.69
130.434
114.381
132.137
130.684
126.371
91.3121
130.454
89.4786
100.678
101.218
130.626
104.007
130.684
128.209
93.4735
101.451
130.167
92.9715
101.872
116.003
100.046
108.356
100.485
130.399
99.9405
125.978
131.052
120.425
130.425
129.787
132.288
133.339
123.567
131.68
100.313
99.9851
126.677
99.9869
101.735
112.257
125.753
99.9837
100.026
132.7
102.708
108.106
103.053
132.261
96.2025
123.816
131.879
102.88
96.8921
130.397
128.729
98.2041
132.396
131.808
106.277
127.162
130.487
101.506
117.911
102.07
114.243
100.541
102.775
101.948
100.624
101.795
118.809
101.855
116.852
132.172
101.878
132.303
100.572
126.609
115.651
101.113
132.23
131.779
133.001
125.675
112.262
103.526
113.562
131.978
101.941
115.425
130.45
99.9852
99.7613
128.659
129.003
109.885
130.413
128.04
131.237
121.743
129.401
128.938
100.528
104.951
126.565
98.5411
130.469
130.644
101.21
111.993
102.312
100.21
113.079
117.169
101.897
131.852
102.972
100.006
131.243
130.359
109.324
114.052
91.1026
102.052
111.711
130.469
132.086
132.374
132.181
104.989
100.189
130.257
131.336
102.163
102.832
127.243
101.049
99.3343
130.418
130.653
100.102
123.277
125.304
97.1708
123.659
99.9563
106.779
109.025
102.064
99.9662
130.23
131.519
100.621
112.304
132.791
122.841
101.108
101.914
98.7423
99.7383
121.956
98.9621
126.293
116.902
101.731
131.774
131.574
131.068
100.965
132.344
99.5955
112.032
111.182
101.898
98.0974
131.541
100.752
120.686
99.6224
137.065
131.173
131.777
117.549
122.006
93.5299
109.991
101.461
103.116
99.731
130.564
98.95
96.5583
101.132
126.899
99.536
146.128
107.772
132.631
126.808
136.245
125.205
100.975
106.7
106.474
102.437
100.501
100.573
101.431
99.6653
95.852
114.876
129.383
100.02
102.589
104.347
98.3308
100.015
119.997
126.173
125.599
100.215
107.613
115.474
102.871
148.561
112.396
93.6913
101.433
116.141
138.921
96.9013
104.085
99.1524
99.4043
99.35
99.6205
100.013
99.6619
98.3839
97.9777
99.5309
99.3798
100.917
101.801
98.2753
101.437
97.9274
97.6956
99.2055
128.056
97.6559
98.172
99.0213
99.2257
115.332
94.6973
112.839
89.845
115.216
113.711
90.8437
89.4985
112.146
117.631
115.489
89.5215
114.478
95.2617
95.5639
113.497
112.248
93.6116
89.1034
89.2749
93.3824
115.189
93.5121
98.1264
89.2661
152.706
93.6204
96.8219
112.21
97.5923
99.7493
92.6232
131.081
97.9882
99.3413
98.0657
100.762
112.362
99.0636
100.354
112.446
99.4886
131.314
94.1292
123.633
131.527
94.7806
113.347
131.724
95.8986
99.6263
123.521
100.996
100.23
92.2303
95.9666
99.9891
131.575
99.9579
100.412
93.2788
98.9517
115.388
95.8847
100.025
100.015
99.4105
99.6833
99.68
93.904
115.244
100.687
131.74
96.2553
101.141
99.1183
102.398
101.64
107.945
98.562
100.832
101.586
102.029
126.419
96.9862
101.316
103.38
104.67
102.743
100.782
94.9964
100.423
98.4924
101.67
101.946
100.334
132.576
98.2598
100.068
99.7857
95.6455
117.078
100.862
98.418
125.733
131.856
97.508
101.839
130.813
101.007
98.1313
102.084
101.878
98.3833
100.03
123.854
124.825
93.6834
100.262
99.2102
101.369
131.696
99.9377
99.687
99.4056
99.5292
100.039
100.615
98.1037
90.2249
101.858
101.326
101.251
99.689
110.054
134.734
100.461
99.8101
126.513
116.513
101.443
98.0269
100.457
113.716
100.948
114.478
101.136
131.95
95.3186
98.0938
101.643
100.802
97.8982
101.892
101.76
98.6983
99.8205
118.484
99.7229
101.677
131.449
139.102
124.897
97.9029
100.881
100.331
143.113
101.053
100.147
99.4672
130.467
131.009
98.5912
98.342
108.548
101.106
101.599
94.9431
100.38
101.313
101.533
98.465
98.8555
99.2369
99.1266
120.249
101.878
98.2225
100.591
118.656
98.6857
101.17
101.07
101.433
117.262
101.986
99.7183
102.385
139.113
115.578
108.75
116.268
115.821
99.671
131.173
100.772
113.969
99.5508
97.9247
97.9226
123.317
107.015
99.7343
130.52
130.624
131.546
126.349
97.5311
122.07
99.5964
130.814
111.198
124.735
100.756
98.7075
99.8618
101.144
101.581
102.451
124.674
126.446
108.869
100.843
118.231
99.158
100.02
130.995
100.304
99.7236
121.841
101.471
132.23
99.7985
114.154
100.202
98.7045
99.6195
128.041
100.733
124.264
132.779
100.191
103.237
99.5091
98.5995
100.298
130.943
118.102
102.289
125.33
97.8773
117.778
103.136
130.337
98.0219
130.863
118.233
98.2809
100.194
130.47
100.277
101.637
115.365
98.9282
112.099
132.485
93.7504
123.042
101.804
98.6533
132.089
118.544
129.824
100.158
129.209
130.309
101.244
130.165
102.422
123.315
120.239
114.076
129.678
130.358
111.435
97.1564
128.889
98.6583
99.8838
129.482
130.247
131.374
99.2724
98.8302
130.638
97.6426
130.396
99.0867
97.7993
118.332
98.2538
103.896
99.2698
100.44
100.516
99.0184
101.798
130.144
123.25
90.3577
117.996
101.525
99.8588
100.637
100.915
99.4141
99.0087
132.451
99.5311
99.7681
96.4372
97.1153
119.506
130.965
101.525
99.5529
96.054
102.646
101.915
112.078
100.22
97.3398
96.3671
93.6959
127.749
132.675
97.8241
127.633
101.341
95.5471
132.162
99.2498
96.8908
119.902
97.3574
99.9981
124.408
112.862
101.908
97.7272
132.264
131.914
103.304
129.145
100.217
120.49
117.84
100.16
130.992
97.5229
100.383
94.1781
89.0805
99.6746
134.418
129.95
99.4302
115.846
101.524
97.731
100.288
98.3829
102.526
97.5518
112.079
102.004
98.788
107.845
99.2053
103.32
100.471
97.5275
130.786
123.685
99.1743
91.1106
91.5108
101.802
98.2708
99.3947
101.244
96.0908
102.61
99.6174
132.672
124.196
89.1234
100.821
100.588
105.211
117.895
101.212
132.288
96.3571
99.3046
100.309
131.86
100.472
116.091
98.742
99.4932
130.135
99.1664
93.5033
99.8558
122.376
124.364
118.163
129.287
100.082
97.5078
90.0563
93.8365
113.288
112.884
130.063
97.5009
97.4954
97.649
98.7771
99.1003
94.2006
94.6333
113.98
127.331
101.381
131.462
99.5553
94.0928
126.353
98.5612
102.071
98.6097
130.547
128.803
131.059
112.622
100.247
103.546
101.505
123.836
99.0457
132.349
97.7171
96.8965
98.4676
131.069
101.972
98.4545
132.188
99.4201
130.555
102.966
99.1711
98.7951
101.535
100.773
102.261
101.153
100.483
101.802
100.59
103.401
117.85
119.072
104.692
102.561
101.728
106.489
117.544
121.723
111.398
108.974
125.541
129.415
133.256
132.114
100.911
100.32
100.173
102.483
124.534
123.433
132.323
98.6245
98.1186
113.684
98.8038
100.955
112.352
98.9498
116.076
100.359
112.034
128.15
121.045
113.836
99.0353
99.4375
131.028
98.1686
131.429
113.002
99.0766
91.5676
100.543
95.035
100.677
111.038
130.474
122.697
99.4999
112.494
97.7694
101.189
98.2538
97.2486
93.5304
98.9452
130.416
129.526
100.399
93.4914
98.4167
130.937
117.945
125.205
122.779
132.154
112.965
129.805
89.5654
98.8872
102.07
132.406
112.373
90.209
139.843
98.9618
117.28
100.587
126.867
101.81
115.939
99.4671
112.749
99.2043
96.0102
96.3189
101.38
90.687
100.942
131.59
131.536
132.172
101.975
92.9796
131.553
96.3369
102.265
115.796
100.713
124.079
100.84
99.5881
132.05
116.656
101.671
131.878
100.945
113.045
117.911
118.9
118.813
129.885
99.337
97.7782
113.192
98.9774
102.068
102.549
124.219
133.597
93.5349
97.6322
101.096
114.35
122.603
102.03
115.714
99.9569
132.282
98.1031
99.7989
92.1011
130.846
130.795
98.3922
115.771
100.74
89.6994
116.47
99.5461
117.496
101.479
116.796
101.834
99.9187
93.8585
104.589
131.989
130.374
99.1322
95.5525
131.193
132.422
102.878
123.017
131.963
125.718
96.3682
101.041
126.401
91.6748
132.755
131.993
95.2219
98.9384
95.6802
100.986
131.446
100.476
125.582
98.7375
130.622
130.111
130.741
131.176
98.0883
111.701
128.533
125.992
132.372
100.496
133.773
94.9426
100.781
132.807
102.517
99.0445
131.934
97.7506
131.192
94.0064
115.485
131.304
131.068
96.8121
101.23
124.464
100.165
131.631
131.401
131.734
131.52
125.301
124.982
130.645
130.71
130.807
130.934
122.87
103.11
99.5795
130.751
131.07
102.008
98.8051
131.776
116.62
100.954
98.8667
93.4224
98.6901
92.3354
100.231
128.716
99.1549
98.6932
130.43
116.237
131.294
130.213
133.105
123.203
124.086
100.988
99.1657
122.445
132.564
121.274
101.63
116.97
122.298
91.9194
131.2
129.462
112.249
125.81
127.934
112.679
95.2975
102.033
98.7405
130.288
93.9429
101.381
89.7006
100.135
91.0262
101.337
113.472
126.952
107.634
112.683
101.389
97.8323
112.535
100.32
124.579
124.21
100.885
130.428
94.971
130.956
113.569
134.736
100.027
123.27
109.298
116.548
101.119
100.295
103.349
127.552
93.3964
104.678
99.3436
93.6226
98.2745
101.999
97.2159
101.245
94.1893
127.711
102.83
91.9471
91.3845
103.24
122.874
131.58
101.497
90.4998
100.134
100.011
97.9705
101.653
101.152
98.3973
99.1898
92.942
132.191
93.5829
113.046
112.74
124.71
130.278
132.271
129.455
130.519
112.348
127.494
127.864
130.94
115.123
122.115
98.0187
130.385
99.3238
132.275
132.348
95.4215
100.86
119.695
113.81
123.382
101.834
101.004
99.1737
92.4427
118.813
121.208
102.789
98.8353
100.881
112.894
112.679
92.4657
103.133
130.062
114.606
102.577
98.0399
101.403
91.3697
113.826
101.127
112.765
99.0988
91.9231
97.7271
103.857
130.575
130.724
115.411
101.306
99.7302
98.54
122.678
101.219
101.438
128.942
101.426
124.899
91.4134
113.357
101.151
97.5942
100.64
131.58
99.8117
132.123
90.4616
102.914
98.7658
101.158
102.693
101.105
123.154
131.087
113.598
130.552
98.8673
99.1596
128.205
98.5897
93.6308
117.85
100.93
116.201
99.7275
130.945
132.577
124.335
92.5246
101.834
97.9737
119.497
99.7938
97.3244
116.942
101.058
98.0695
113.803
101.971
115.164
123.87
115.228
101.592
101.346
112.246
100.68
89.633
120.193
101.296
117.536
100.993
92.6197
97.7077
101.566
94.4861
100.41
93.6374
131.205
99.0352
119.601
132.162
99.804
93.5514
127.019
99.1672
89.7564
132.765
125.729
132.866
120.452
97.0701
91.1734
132.47
118.892
132.116
99.1552
101.978
98.3396
91.952
95.8414
104.302
99.5442
131.378
100.071
131.121
93.766
92.7387
119.233
129.81
130.036
98.7101
130.197
114.911
130.966
130.123
100.963
97.6294
129.42
114.522
130.226
129.141
129.925
100.259
131.334
109.616
132.485
128.697
103.68
99.8484
132.608
132.747
131.829
130.336
100.075
126.336
131.576
106.883
133.855
131.579
92.6733
131.553
90.6256
91.0949
93.8657
89.9505
90.566
90.8381
99.3838
100.558
112.459
128.261
133.101
101.603
124.512
101.376
101.317
101.063
124.967
111.321
101.344
97.5035
131.573
101.511
112.815
130.674
96.8328
131.132
116.996
101.565
127.335
101.812
100.98
131.809
100.113
91.3163
93.6803
94.3427
113.813
99.1036
93.7557
94.1776
128.383
131.082
129.952
130.772
131.257
131.674
123.771
129.303
114.263
97.4797
131.642
119.778
94.8416
131.382
95.1809
114.668
98.5803
95.8501
96.9662
101.33
98.4492
97.736
101.805
102.919
109.049
96.1431
99.848
115.293
142.646
110.281
115.854
126.941
132.826
123.906
121.935
120.626
94.2617
93.9176
99.9333
95.8284
97.9741
98.2676
115.619
95.1669
130.595
130.878
131.449
)
;

boundaryField
{
    frontAndBack
    {
        type            empty;
    }
    wallOuter
    {
        type            zeroGradient;
    }
    inlet
    {
        type            zeroGradient;
    }
    outlet
    {
        type            fixedValue;
        value           nonuniform 0();
    }
    wallInner
    {
        type            zeroGradient;
    }
    procBoundary1to0
    {
        type            processor;
        value           nonuniform List<scalar> 
29
(
96.0431
96.0431
94.5514
93.9074
89.9444
90.5136
122.146
94.2682
95.0604
94.1211
94.566
90.5136
94.5514
95.6689
122.812
123.244
89.9444
90.2026
93.9074
95.2308
123.497
123.568
90.8403
122.331
122.331
90.8403
124.228
122.255
124.228
)
;
    }
    procBoundary1to2
    {
        type            processor;
        value           uniform 97.1065;
    }
    procBoundary1to3
    {
        type            processor;
        value           nonuniform List<scalar> 
48
(
101.382
101.106
101.275
101.275
101.651
99.6646
99.6646
101.668
101.661
94.174
94.8748
94.174
95.9314
99.2643
98.4291
95.9314
99.5822
99.5822
100.91
100.91
100.374
100.661
100.887
97.1853
97.1853
100.46
100.955
100.955
101.355
101.166
100.767
101.355
101.668
102.002
100.62
101.166
102.005
94.8748
102.094
101.385
99.6611
102.043
102.002
100.62
97.8203
101.96
101.419
99.6611
)
;
    }
}


// ************************************************************************* //
