/*--------------------------------*- C++ -*----------------------------------*\
| =========                 |                                                 |
| \\      /  F ield         | OpenFOAM: The Open Source CFD Toolbox           |
|  \\    /   O peration     | Version:  v1912                                 |
|   \\  /    A nd           | Website:  www.openfoam.com                      |
|    \\/     M anipulation  |                                                 |
\*---------------------------------------------------------------------------*/
FoamFile
{
    version     2.0;
    format      ascii;
    class       volScalarField;
    location    "0.81";
    object      p;
}
// * * * * * * * * * * * * * * * * * * * * * * * * * * * * * * * * * * * * * //

dimensions      [0 2 -2 0 0 0 0];


internalField   nonuniform List<scalar> 
1431
(
91.5187
92.2493
89.5658
93.1296
87.5581
89.4285
93.0573
38.8378
90.3852
93.1074
44.7913
44.6222
91.089
84.5033
88.1829
93.1237
86.0631
88.7068
87.8506
87.8296
39.841
84.3511
90.3823
19.5668
90.0452
91.0819
50.8687
89.2913
90.1652
84.1075
87.0572
89.9912
87.2895
85.1449
91.2884
93.4545
89.1529
91.2765
93.0718
89.5799
89.4596
89.3681
91.0585
93.0923
87.0341
90.0192
85.653
55.0441
93.0186
91.4196
93.0228
93.1371
92.9964
52.1677
92.8489
93.3288
88.5398
47.6368
84.8732
90.0159
89.3914
93.0119
91.5423
91.3745
93.0758
93.0081
88.5416
91.4808
89.5651
86.471
46.4586
84.8831
92.9908
85.2554
84.8222
90.3597
89.4447
91.4996
93.1825
89.7147
85.5568
89.9758
85.3226
86.1392
39.3171
93.2627
93.1799
87.2408
51.9024
69.0313
89.2228
87.93
91.2051
93.1787
92.9797
87.2284
44.261
85.4012
93.0674
88.806
93.2802
93.0476
84.9541
90.1076
91.4642
87.0037
90.2631
54.9325
88.7221
84.4172
90.3249
91.0367
89.1364
89.0975
92.5051
88.943
84.63
93.0684
93.2834
91.4715
87.6251
87.6502
54.0755
85.4835
43.0889
93.2498
89.595
86.3761
89.6243
93.0906
86.678
88.3451
93.0961
87.5274
89.0551
91.4727
91.3339
93.0106
49.1517
91.2234
93.0924
86.1675
85.129
90.1343
91.988
87.1789
91.5141
93.2588
93.1895
89.9441
91.5033
90.2361
89.4761
93.3649
89.4905
91.2093
47.8612
89.9923
77.8709
93.1861
62.4421
90.9007
93.0771
93.2067
53.4392
90.0082
88.7404
92.745
91.3956
89.536
61.7755
93.0553
88.7819
49.6445
91.524
47.4378
93.0825
88.2167
93.1353
91.735
93.0795
93.1278
93.2925
22.8317
88.9934
89.7704
50.3096
90.1011
88.7835
50.4548
87.1934
88.8471
89.5135
57.2245
93.2033
86.8576
84.1524
90.5026
89.3634
89.2225
93.0281
93.1241
66.0672
93.0961
91.2745
87.2343
89.8276
89.6712
49.0871
88.5384
37.7351
93.056
90.0436
87.2216
41.165
89.6487
89.414
89.6441
93.0087
70.2385
89.7232
93.3798
90.5174
93.192
89.5556
44.5415
66.9697
87.7632
89.5553
68.3435
36.0917
87.1799
87.2573
89.5236
89.9202
70.7174
89.9371
87.908
87.4498
93.3337
93.1306
92.1688
47.4171
88.0287
88.9237
86.7585
88.1696
60.5247
90.0519
91.3041
86.0046
50.5284
93.2032
92.9934
87.2253
89.9453
93.197
39.7847
77.7553
89.3745
89.6253
50.3228
93.1608
93.103
89.7179
74.246
91.0185
58.1982
59.9209
88.0542
89.1955
89.7208
92.7636
93.4503
57.677
88.7294
53.6336
83.2631
87.2848
89.9558
92.7492
89.899
87.0435
93.0746
93.1004
83.6035
89.6943
82.0805
45.8029
91.9747
89.4333
90.6652
86.5182
92.5365
71.6816
89.3686
49.4091
90.36
89.3159
86.7979
93.0452
91.3148
93.0321
91.3208
88.4766
93.1699
91.5307
89.1706
89.6046
90.9563
83.2613
93.3434
92.9607
56.6746
90.4823
85.0018
91.0702
93.0274
88.7626
31.3486
91.2592
86.6399
89.8068
92.7181
91.41
89.4337
89.2672
89.9509
56.0132
93.0281
86.1855
89.3361
90.2973
84.7124
93.1365
91.1842
90.5211
75.4013
90.7901
55.0783
91.3695
90.9874
78.0829
89.0811
89.9486
87.8268
92.7683
51.7526
83.7358
92.0495
90.0161
89.2755
92.8814
89.8171
89.5738
92.9805
41.6776
36.7019
49.6511
89.5176
84.1901
89.7078
85.9983
93.145
89.0895
40.3558
90.1218
10.8029
89.728
84.527
55.9753
87.3048
55.6251
92.69
89.952
49.0058
89.7828
93.7161
89.0888
45.1138
90.6618
90.0415
93.0937
90.0381
11.5228
90.7648
92.4505
89.8563
90.6729
92.6906
93.1489
92.3569
92.3452
93.1319
72.5994
93.1176
91.146
91.4346
89.8888
90.3838
87.6993
90.043
80.6105
90.0547
93.332
91.6212
89.4541
93.1822
93.1087
91.649
87.3319
91.67
91.7981
90.4336
90.2651
89.4986
90.5084
92.8843
90.0816
91.9888
89.4883
90.8899
93.1024
90.0797
92.1494
87.4383
87.32
88.5195
89.1875
29.2445
89.415
89.3462
89.4727
89.0817
89.2873
89.7398
89.4648
90.2193
90.1103
90.251
88.9671
47.5434
89.2636
88.9444
88.8984
88.5872
88.5119
88.7023
85.8924
84.5449
84.8981
91.4641
93.0041
87.9466
92.9703
93.0358
84.3761
51.8034
87.2474
88.4236
84.258
91.4839
51.9268
93.0438
87.9976
91.4629
89.1728
51.6654
91.4506
48.8495
93.108
93.136
88.3734
84.603
48.5262
48.4203
91.2985
91.3295
88.3616
93.1785
84.8567
88.4517
47.945
93.3521
88.6025
85.0626
87.1464
88.5934
89.4698
91.1543
46.6803
93.2771
89.4405
91.1146
86.0476
86.8082
89.3311
45.1091
93.2628
88.1558
89.8741
91.116
87.4189
90.1936
45.3786
49.3179
89.5625
93.3274
93.241
86.6938
91.1044
88.0007
87.1498
89.2549
89.9921
92.962
89.5536
91.0877
87.4145
47.7799
85.9981
93.2765
87.2915
93.0886
91.0787
93.1639
44.3789
89.4245
89.0246
93.2896
92.6885
93.3799
91.3544
89.1234
90.559
89.1193
93.2957
91.5322
91.1329
87.5632
91.4236
90.6541
89.3349
93.3867
88.3227
93.4564
93.0469
81.0956
91.2815
90.0663
92.0932
90.4255
89.8665
92.1745
91.494
88.0469
93.1996
90.1472
86.8201
53.3138
90.0575
47.4696
82.1504
92.1959
37.539
92.3805
93.1226
93.2098
89.931
90.5899
92.3161
69.8783
90.2287
93.3853
92.8072
89.3792
93.08
88.8589
89.7773
89.1795
92.1007
76.7244
86.8823
89.3454
88.3997
90.0547
87.8329
93.3296
92.6432
86.7757
89.8095
87.3067
93.051
92.7823
90.0412
90.9486
86.4519
92.2308
88.2425
49.635
71.0265
91.2442
91.8494
93.1483
84.1329
90.2748
20.673
84.7631
93.5284
89.0902
93.1214
92.0234
92.7671
90.089
89.4411
89.6025
44.7772
93.1579
89.192
91.775
91.9008
92.2207
92.9054
92.2804
91.8541
86.2128
90.7343
86.0704
81.1761
93.6133
91.7413
93.4263
93.0624
90.3343
92.5436
88.1528
41.3899
93.1663
89.0746
92.9168
89.5991
80.7525
93.2154
91.6188
88.1471
91.716
86.9942
91.278
35.4353
91.2262
89.6442
89.1652
88.7644
86.3821
89.5173
91.3397
90.3033
81.767
89.0547
56.0057
67.2904
90.849
91.0797
92.3454
90.4179
90.0063
88.2396
89.07
93.2491
89.8447
92.403
92.2939
38.9435
90.5456
89.3476
86.2528
33.7572
84.4341
87.9241
93.2103
93.1174
93.0036
91.2905
42.7743
91.5175
88.8482
90.0653
89.0841
89.3218
93.5289
90.3661
88.3994
89.6027
93.4892
93.289
89.6718
89.5626
86.5413
93.1995
77.8534
92.4477
90.2307
91.9133
93.3945
90.1193
26.9748
88.9313
91.2938
92.6958
91.1754
89.4059
92.9373
86.1212
89.8488
89.3991
90.4415
90.1987
89.1646
93.4283
89.5277
89.3317
87.1459
49.53
91.9526
91.4149
92.8277
89.6089
90.8617
56.5393
54.7834
91.363
88.7578
89.1438
93.2462
90.8795
88.8659
90.3369
87.1603
44.6676
93.2174
89.1585
89.4732
93.2724
88.0946
89.6168
91.9705
84.3272
89.8135
89.4432
93.0463
91.2633
93.3871
93.085
93.075
9.62082
89.0996
90.6032
88.8128
89.708
92.5593
32.9485
90.2942
90.4861
92.9851
86.8001
90.4001
93.1257
93.0741
91.8069
93.5933
90.7091
87.1466
88.727
90.7615
90.2038
93.0188
93.0996
92.8517
90.879
87.8022
90.9199
91.3081
92.2109
91.4516
93.4335
50.6175
89.4791
92.6375
88.713
92.7061
89.9721
87.7133
89.6865
90.6392
88.8915
93.1338
93.2525
87.4811
93.1765
91.2738
89.4899
84.322
86.8266
89.3046
89.7788
17.0552
89.3284
90.6706
92.6485
89.1217
51.7576
93.0777
93.073
44.5145
90.1545
51.7065
89.6147
88.359
89.8344
89.4988
89.1186
86.6467
92.8404
90.7343
93.1135
88.9064
90.2501
85.9445
88.6161
93.2002
89.9033
84.0624
43.8648
89.2182
92.1263
52.9389
86.5709
89.2449
91.8293
93.4034
91.7133
91.0957
91.2244
89.207
92.5802
66.158
91.2419
53.8718
93.1662
74.9299
89.5987
85.5558
91.4456
93.4535
88.7611
91.5491
93.1032
93.5418
89.5909
91.4185
93.3048
91.454
92.1935
92.942
90.6267
91.4218
90.3718
93.2613
51.6982
91.5684
90.3471
51.4074
90.6112
88.7804
84.5517
89.7298
92.9902
91.7229
91.0913
89.3478
47.2314
93.3018
89.873
37.3477
56.9054
49.4932
36.6192
62.1147
89.7775
89.4113
88.9715
89.1319
56.1199
90.1672
87.5937
89.1214
88.3849
87.1575
67.2281
49.0754
86.9974
75.6853
71.5015
87.2969
90.2166
89.9025
87.67
89.552
89.3946
87.6532
89.3942
90.2169
75.0025
91.443
89.0976
91.7299
84.722
85.3713
40.3274
89.6504
82.5497
84.1715
87.4434
93.4112
52.6568
86.5302
86.8085
74.9984
89.2365
90.3439
85.3191
93.136
50.9779
87.6172
89.5423
91.2303
92.2426
93.5995
93.1951
48.951
89.1766
84.5859
90.6144
90.1373
92.5047
91.8216
57.2248
91.3494
93.0919
89.647
93.0865
92.3885
90.3256
85.2163
89.2263
92.9184
91.1505
84.7703
88.0736
91.4903
93.1058
46.8364
91.272
92.7336
89.0874
89.0721
84.6981
93.2017
89.3442
86.6204
93.1427
92.9064
86.9642
41.8574
89.0191
85.2093
88.1209
89.307
93.012
27.4714
91.6249
89.6916
93.1042
41.0473
91.3823
79.8827
93.0789
93.3311
93.2155
86.2745
89.4512
92.3384
87.203
58.2627
36.0775
89.581
91.2703
93.0387
88.0044
85.596
89.4732
86.5979
86.7055
89.7719
89.059
89.1985
39.236
89.9358
93.2643
91.4836
86.5373
89.8847
86.8345
89.1103
92.0053
92.1342
92.501
89.3638
92.1397
92.2424
27.1884
18.841
93.0211
89.4885
82.3435
93.1791
91.2244
50.4815
85.702
90.1012
87.3531
68.5125
48.9655
93.3349
85.2052
89.5519
92.084
80.3532
49.7909
89.9235
91.8258
93.1763
49.8906
93.1963
89.8775
93.0819
7.89924
89.7993
42.3234
57.4463
90.3425
89.1983
91.706
93.1371
91.1255
93.1932
93.2055
93.1634
92.487
89.9819
90.4361
89.2424
90.009
62.7268
91.4827
89.3051
90.3421
53.548
91.5257
52.7298
89.6513
90.9266
54.3491
89.0217
67.856
64.1342
60.4819
51.2872
51.3083
50.5393
56.9005
51.3975
93.0413
93.1577
93.1428
93.0573
93.042
93.0485
91.7145
85.732
89.8533
88.5635
90.1817
85.8977
93.05
89.1966
91.4638
92.9926
92.8981
93.2021
89.5528
93.2021
93.1095
87.2975
86.4069
91.374
89.2269
89.957
91.1744
78.4424
93.6151
91.6528
45.699
89.9363
88.7882
87.5749
91.561
91.132
93.0347
34.062
91.2386
90.7434
93.0417
86.3088
93.2233
86.7189
84.3537
88.7433
93.0073
85.362
87.1807
89.5453
90.3737
89.6535
91.2502
85.9937
93.2814
17.4262
91.4585
43.2199
8.2264
93.1097
48.6525
85.0693
89.1625
89.06
43.8523
93.209
91.8275
91.252
72.9465
90.2248
86.2813
89.6488
85.9156
93.2401
90.2415
93.2564
92.5117
59.2762
40.4107
17.685
86.5616
88.3721
92.7635
90.0232
93.4078
88.5532
88.9081
85.2208
89.4381
49.0793
91.5292
93.1751
42.1393
92.5825
84.3708
90.4919
93.0453
90.2373
81.2287
64.7875
91.4011
91.4084
87.7977
90.3927
46.5084
89.7961
47.4092
93.0739
87.1303
86.6114
38.9919
81.9066
90.2146
90.2384
90.5422
92.9848
53.4771
86.7692
88.8314
85.5564
85.5674
87.5242
90.4561
93.03
87.0069
89.2057
53.2527
84.8049
91.1746
91.0401
85.1925
93.0384
88.5861
93.0944
87.993
86.783
90.513
46.3017
91.9265
91.3686
92.733
88.3547
92.9819
86.1412
87.741
91.1171
76.1715
91.9011
28.8248
89.2702
93.1782
91.1672
62.088
90.8607
92.973
93.2868
90.954
90.7949
91.9766
89.9368
90.6115
94.9209
85.6361
92.7125
84.954
93.1256
91.2304
54.8771
90.5764
57.1464
90.3372
91.5436
91.6056
92.6054
85.1569
87.1985
89.4099
84.598
93.0779
91.6732
38.4078
91.6198
91.9505
91.498
88.3295
86.4667
91.4023
88.8724
71.9283
90.3621
89.314
49.7084
85.3721
92.5176
91.5761
92.4227
89.5242
88.7498
89.0255
79.5169
87.2869
86.5398
85.282
87.2144
90.0096
51.374
92.6785
87.9316
84.7769
91.3138
57.023
86.8564
90.7115
87.531
54.3465
91.132
88.8768
91.4517
38.0011
90.7234
90.6734
91.4232
87.8504
42.8121
93.2128
52.6282
93.4478
93.323
93.1085
53.84
93.1782
37.0546
73.4757
91.1387
89.5752
87.2199
48.9109
89.3439
17.1143
93.1371
89.1831
93.1032
89.9568
86.5209
64.8288
93.2062
92.2906
43.5747
56.9266
88.7978
87.0554
93.1966
50.6878
93.2892
85.6192
88.0573
54.844
92.9719
93.0713
91.115
89.9798
85.4127
89.4805
85.8967
92.9877
93.3771
58.3668
54.2329
93.3495
90.3058
86.1862
91.3155
88.83
89.5588
84.3844
90.6354
92.9874
87.9603
87.6514
89.8751
64.7979
89.7086
93.13
89.6304
75.2689
93.0096
93.2735
90.8298
85.3053
93.2014
86.7375
88.1527
89.8288
93.1675
93.0936
61.0908
50.8374
86.7796
93.2526
93.1358
89.2616
91.3975
90.0633
91.5074
91.4407
88.1672
88.2294
87.3958
93.0219
58.0927
89.5696
79.5126
91.3086
85.9628
48.1585
92.1055
93.0097
85.0903
88.8968
88.0971
38.818
91.0698
91.1513
89.3297
92.0417
92.9747
93.1174
93.6295
93.3235
93.5134
21.1693
56.1235
85.4453
100.889
85.2363
86.5059
86.4119
92.7205
95.2131
88.6335
88.8631
93.3447
95.6409
89.1476
91.5165
86.2678
88.2246
88.9717
87.7812
)
;

boundaryField
{
    frontAndBack
    {
        type            empty;
    }
    wallOuter
    {
        type            zeroGradient;
    }
    inlet
    {
        type            zeroGradient;
    }
    outlet
    {
        type            fixedValue;
        value           uniform 0;
    }
    wallInner
    {
        type            zeroGradient;
    }
    procBoundary3to1
    {
        type            processor;
        value           nonuniform List<scalar> 
48
(
89.5478
89.6134
89.599
89.2596
88.8778
87.6833
89.6134
89.1756
89.1958
87.5772
87.5772
88.7675
88.7675
88.4735
87.9351
89.1748
87.6948
88.8204
87.6948
86.7929
89.3986
89.3424
86.7929
88.4168
87.1674
87.4328
89.2506
89.3424
89.1744
87.8641
87.8641
89.1261
89.1261
89.1958
87.097
88.8342
89.1403
87.1674
89.5577
89.1245
88.4735
89.1922
89.1913
86.7929
87.7589
89.6567
88.6368
89.1003
)
;
    }
    procBoundary3to2
    {
        type            processor;
        value           nonuniform List<scalar> 
29
(
91.3673
91.3673
92.9129
92.9769
88.692
91.4131
92.9388
91.1449
92.9539
92.9665
91.2953
88.3941
91.3681
92.9298
92.9678
92.9456
92.9477
92.9635
91.2006
92.947
92.9553
92.9477
93.0195
92.9635
92.9809
92.9256
92.9635
87.9141
87.9141
)
;
    }
}


// ************************************************************************* //
