/*--------------------------------*- C++ -*----------------------------------*\
| =========                 |                                                 |
| \\      /  F ield         | OpenFOAM: The Open Source CFD Toolbox           |
|  \\    /   O peration     | Version:  v1912                                 |
|   \\  /    A nd           | Website:  www.openfoam.com                      |
|    \\/     M anipulation  |                                                 |
\*---------------------------------------------------------------------------*/
FoamFile
{
    version     2.0;
    format      ascii;
    class       surfaceScalarField;
    location    "0.81";
    object      phi;
}
// * * * * * * * * * * * * * * * * * * * * * * * * * * * * * * * * * * * * * //

dimensions      [0 3 -1 0 0 0 0];
oriented        oriented;


internalField   nonuniform List<scalar> 
2708
(
-0.000489129
5.73348e-06
0.000207847
0.000275549
0.00016681
0.000249173
-0.000197799
-0.000218185
-5.23786e-05
1.47754e-05
5.2156e-06
3.23876e-05
-3.87564e-05
5.0212e-05
-1.96327e-05
8.1772e-06
-0.000349752
-0.000217973
0.000275594
0.000292131
0.000754369
-0.000962551
0.000468564
-0.000260382
3.20233e-05
-3.79638e-05
1.98436e-05
-1.39031e-05
-0.000131016
0.000228291
-2.08295e-05
-7.64457e-05
-0.000647396
0.000691544
0.000672528
-0.000716676
1.02666e-05
2.39033e-05
-2.14666e-06
0.000923891
-0.000956239
0.000295164
-0.000262816
0.000279555
-0.000347064
0.000759926
-0.000692416
-0.000192409
0.000249055
-0.000278904
0.000222257
-0.000108099
-0.000364547
0.000340779
0.000131866
0.000279588
-0.000447623
-8.38927e-05
0.000251928
4.78552e-05
1.52749e-05
-5.28634e-05
-0.000716459
0.000555787
-0.000163861
0.000324533
0.000254144
-0.00034796
0.000205028
-0.000111212
0.000309193
0.000129972
-0.000404689
-3.44753e-05
-0.000162671
-8.27548e-05
0.000226439
1.89868e-05
-0.000405427
0.000776194
0.000553124
6.5088e-05
-3.99105e-05
-0.000133276
-0.000647056
-0.00036361
0.000508608
0.000502058
-0.000272069
-0.00125472
0.00129531
0.00023148
-0.000724279
-0.000570172
-0.000116729
4.83172e-05
0.000184579
-0.000116168
-0.000928865
-0.000166393
0.00013902
-0.000202981
3.45424e-05
0.000241986
-7.35479e-05
5.943e-05
-0.000494662
0.000435232
-1.90259e-05
-0.000518875
0.000537901
0.000634796
4.85638e-05
-4.90423e-05
-0.000634317
-0.000620107
5.4209e-05
-2.50631e-05
0.000590961
0.000603778
4.62681e-05
-2.43234e-05
-0.000625723
-0.00023679
0.000171526
7.25736e-05
-7.30937e-06
0.000725154
0.00034075
-0.000754815
-0.000311089
-2.22982e-05
4.25177e-05
-2.6444e-05
6.22442e-06
0.000241744
0.000795051
-0.000152351
-4.99329e-05
3.15064e-05
6.06496e-05
-4.22231e-05
-6.43252e-06
3.5492e-05
-7.47293e-08
-2.89847e-05
0.000100093
0.000534032
-0.000612263
-2.18616e-05
-0.000533162
0.00048784
0.000912153
0.00100331
-0.000169436
-0.000139702
-3.0382e-05
-1.73771e-05
1.93215e-05
2.84376e-05
-0.000437523
0.000634723
-0.000483831
0.000286631
8.73629e-05
5.32564e-05
-0.000134933
-5.68594e-06
0.000151793
-9.78982e-05
-6.91348e-05
1.52402e-05
-0.000878717
0.000109245
-0.000159392
2.25468e-05
-2.1877e-05
-3.86336e-05
4.12686e-05
-1.68416e-05
-4.11171e-05
1.66901e-05
6.07857e-05
-0.000332296
0.000369192
-9.76816e-05
4.39446e-05
-3.95799e-05
-1.80255e-05
1.36607e-05
0.000437568
-0.000213378
-0.000225279
1.08946e-06
3.14658e-06
0.000321591
-0.000155434
-0.000169304
9.75992e-05
0.000195195
-0.000133518
-0.000159276
-0.000120161
0.000225934
2.46827e-05
-0.000130456
0.000128908
-0.000203321
-8.36968e-05
0.00015811
-0.000451676
-0.000386365
0.000508984
0.000329057
0.000750236
-0.000170557
-0.000579679
0.000105241
7.29319e-05
-0.000178173
7.66066e-05
1.36416e-05
-7.20863e-06
-6.43293e-06
-7.78462e-06
3.52786e-05
-2.7494e-05
-1.71943e-05
-3.27387e-05
-3.85806e-07
-6.04671e-06
-6.82497e-06
-4.23435e-06
0.000339138
-4.58303e-05
3.62375e-05
3.08824e-05
-0.0001115
0.000152121
-4.06211e-05
-0.000134411
0.000210628
-7.62172e-05
-0.000167294
0.000115569
5.1725e-05
-0.000248992
1.22016e-05
2.41147e-05
-4.26231e-06
4.68839e-05
0.000124642
-0.000277201
-8.73456e-05
0.000177981
-9.06178e-05
9.52657e-05
6.3375e-05
-0.000158641
-5.15608e-05
3.15752e-05
1.99857e-05
1.94795e-05
4.42377e-06
8.15661e-05
0.000172578
-0.000612209
-0.00010425
2.0062e-05
-9.05797e-05
7.05178e-05
-0.000158639
8.04583e-05
0.000515734
-0.000437554
-0.000195093
0.000169589
0.000177297
-7.92664e-05
5.41039e-05
0.00120915
-0.00118399
2.27442e-05
8.37505e-05
-3.39912e-05
-7.25035e-05
2.79381e-05
1.86307e-05
-9.5405e-06
-3.70283e-05
0.000162805
-0.000179685
2.21238e-05
-5.24432e-06
2.67656e-05
2.50987e-05
-0.000999235
0.000947371
-0.000113691
4.32863e-05
-0.000750454
0.000820859
-6.87734e-06
0.000222581
-8.67955e-05
0.000220139
-0.000219149
-7.86721e-06
1.23455e-05
-3.26574e-05
5.18184e-05
-8.44721e-06
3.03239e-05
-5.84319e-05
3.65552e-05
0.000162525
-0.000124737
5.98114e-05
3.30832e-05
-0.000446414
0.000413331
-0.000339416
-0.00027824
-0.000409
0.000474989
0.000212251
-2.411e-05
-2.41909e-05
1.7919e-05
-0.000232252
0.000216086
1.61661e-05
0.000293913
-0.000222002
-0.000192072
7.08618e-06
-1.75546e-05
-0.000465088
2.14619e-05
-3.84856e-05
0.000482112
-2.82522e-05
-6.74754e-05
0.000157562
-6.18348e-05
-6.62262e-05
-2.92346e-05
4.39e-05
-0.000607855
1.30462e-06
0.000619132
-1.25818e-05
7.30315e-06
0.00063317
-0.000614711
-2.57616e-05
-0.00011938
0.000672735
-0.000726239
0.000172884
0.000447229
-0.000302809
-0.000508031
0.000590747
-0.000305599
-1.40906e-05
9.10796e-05
-0.000395003
0.000180579
0.000463479
1.94459e-05
1.28534e-07
-6.04952e-06
-1.35249e-05
-0.000683313
0.000614379
0.000556773
0.000116011
0.000245994
-0.000171771
9.17875e-05
-1.46418e-05
8.35105e-05
-6.07663e-05
-2.49789e-05
-5.49759e-05
-7.94349e-05
-6.25928e-05
-0.00038503
0.000148408
-0.000145261
-6.65733e-05
-5.99593e-05
0.000175528
1.7269e-05
2.21052e-06
4.28871e-05
-6.13947e-05
-0.000181622
0.000159124
8.43462e-05
-0.000115543
4.59723e-05
-4.45178e-05
4.41716e-05
1.26431e-05
-1.2297e-05
0.000209729
0.000346058
-6.59518e-05
-0.000282008
-6.8517e-05
-4.90106e-05
7.30099e-05
6.12251e-05
-0.000311582
0.00055955
-0.000162841
0.000263021
-0.000262851
3.78939e-05
-1.66082e-05
-6.02755e-05
4.38431e-05
-4.73819e-05
1.57055e-05
-1.21668e-05
4.87276e-05
-1.38316e-05
-4.21047e-05
0.00117266
0.00011643
-0.00113406
-0.00015503
7.29951e-05
-7.17323e-06
4.26652e-05
0.000599365
2.97321e-05
7.13589e-05
-0.000700456
-0.00016803
0.000351099
0.000325539
0.000104831
0.00053203
-6.41955e-05
-0.00026383
0.00025785
0.000299894
4.38318e-05
9.66685e-05
-4.5525e-05
-5.82434e-05
-7.7706e-05
0.000606536
1.93371e-05
-0.000548167
-3.29717e-05
0.000116482
-0.000553763
-7.90445e-06
-7.08406e-05
0.000632508
-2.4569e-05
3.20955e-05
-4.01839e-05
-0.00117496
-0.000125392
0.00113742
0.000162932
0.00046039
0.000358288
-0.000312543
-0.000506135
-0.000150771
8.02504e-05
-0.00061119
0.000681711
-6.73623e-05
6.37837e-05
2.96951e-05
-2.61164e-05
0.0010308
-0.000898375
0.000198997
-0.000331426
-0.000324229
-0.000215781
0.000261106
9.85002e-05
-9.76627e-05
-3.1531e-05
3.06935e-05
2.90659e-05
-6.33436e-05
5.3707e-05
-1.94292e-05
-5.99154e-05
0.000208323
-0.000798096
0.000364207
-5.52401e-05
0.000204701
7.38351e-05
1.02122e-05
-1.68219e-06
0.000402369
-0.000382884
-0.000163175
0.00014369
-0.000123555
-0.00092111
5.34179e-05
0.000991247
-0.000286202
-0.000311352
0.000333723
4.37497e-05
0.000619409
-2.80393e-05
-0.000635119
0.000261778
-0.00146983
2.90278e-05
0.00117903
0.000355967
-0.000312358
0.000205565
0.00030805
-0.00122123
-2.15889e-05
-5.10127e-05
4.08459e-06
0.000923487
-0.000606642
9.83801e-05
0.000392684
-5.34965e-05
0.000572812
-0.000121664
-0.000427646
-2.35024e-05
-8.97163e-06
9.57824e-07
4.29121e-05
0.000216211
-0.000239366
0.000101454
-7.82992e-05
0.00115373
-0.00113245
-0.000293346
0.000521794
-7.72584e-05
0.000478952
-0.000471402
0.000478705
-0.00033825
0.00021887
0.000215584
0.000600773
-0.000796535
0.000367326
-0.000111518
0.000540727
-2.50215e-05
-5.40439e-05
-0.00106798
0.00114705
0.000619096
-0.000675476
0.000161211
0.000670711
-0.000570747
-2.35924e-05
-7.63718e-05
0.000576501
-0.000821178
0.00034477
0.000596052
-6.9596e-05
0.00014628
-1.05543e-05
0.000193128
0.000809011
-0.000643851
-0.000308662
-0.000350682
0.000381103
0.000662663
-0.000628257
-0.000145864
0.000111458
0.000109603
-1.49055e-05
5.74238e-05
-0.000159254
0.000141439
0.000244654
-0.000226839
0.000215128
-0.00021783
0.00010972
-0.000107018
-6.95156e-06
9.26495e-05
1.28023e-05
-0.000636041
-0.000390667
0.000775565
0.000251142
5.40146e-06
2.2615e-05
-2.23618e-05
-5.65462e-06
9.29556e-06
0.000294376
-0.000347835
4.41639e-05
1.13019e-05
0.000669995
-0.00066858
-1.27166e-05
0.000161254
-0.000652707
0.000659653
-0.000168201
-0.000120457
-3.94184e-06
9.45672e-05
2.98314e-05
0.00107405
-0.00109547
-6.48959e-05
8.6312e-05
-0.000166798
1.32777e-05
0.000103185
1.10276e-05
-0.000114213
-2.06246e-05
2.49799e-05
-0.000102018
0.000652735
5.13006e-05
-7.08656e-05
-0.000537308
-3.59276e-05
-3.46188e-05
-9.94413e-05
-0.00114646
0.00116663
-0.000103901
-7.41231e-06
-0.000120939
0.000668707
-0.000190806
-0.000555607
1.02504e-05
0.000663035
-1.06216e-05
0.000263329
-3.73777e-05
5.18233e-05
-0.000277775
0.000223626
-0.000585933
-0.000273734
0.000468087
0.000326522
-0.000643404
-0.000151205
-8.84118e-05
0.000195886
0.000108737
0.000270926
-0.000253787
0.000437217
-0.000454356
2.10217e-05
7.59229e-05
-1.11429e-05
-8.58018e-05
-0.000646643
0.000560967
-0.0010627
0.00109051
-0.000127255
-0.000616194
0.000729397
-0.000503869
-0.000171021
0.00016439
-0.000437951
3.70188e-05
0.000727454
-0.000484315
5.94814e-05
0.000648459
-2.94696e-05
-0.000205387
0.000324958
-9.01018e-05
-1.27134e-05
1.26066e-05
0.000634902
9.00401e-07
-0.00061722
0.000627622
0.00039337
-0.000133365
0.000316497
-1.42678e-05
-0.000643182
3.73433e-05
-0.000760755
-0.000213704
0.000835805
0.000138655
0.00065418
0.000143765
-0.00014521
-2.0729e-05
-0.000383886
-0.000132694
-0.000122965
0.000410501
0.000331561
-0.000116867
9.35018e-05
0.000212521
-0.000189156
-7.08328e-05
8.24795e-05
-3.32356e-05
-0.000151891
0.000344686
0.000162585
-0.00035538
0.000104486
-9.31329e-05
-0.000350859
0.000524575
-0.000194446
-8.20739e-05
-0.000127998
-7.70481e-05
8.70971e-05
0.000117949
-0.000367419
0.000203073
-0.000270295
0.000842788
0.000321473
-0.000555024
-0.000409853
-5.65799e-05
-5.49394e-05
4.07182e-05
-4.71734e-05
-0.000354302
0.00119274
-0.00081167
-7.55464e-05
3.72499e-05
9.64227e-05
-8.10461e-06
-2.97339e-07
4.07876e-05
-0.00116576
2.36399e-05
0.000922979
0.000219141
-8.43663e-05
3.60596e-05
-2.72396e-05
-0.000189275
0.00111805
0.000161736
-0.000615681
0.000772089
-0.000433338
0.00027693
8.78362e-06
0.00029657
0.000156221
-8.60318e-05
-0.000366759
8.63903e-05
-0.000383562
-6.65435e-05
9.05065e-05
-4.46743e-07
-4.51645e-05
4.45485e-05
-0.000369718
-0.000631837
-0.000570291
0.000461349
-0.000492857
-0.000622574
0.000654083
-5.76454e-05
0.000174741
0.000478956
0.00011053
-0.000786175
-7.00691e-05
-0.000133252
0.000194307
8.48922e-05
0.000635155
0.000191472
-0.000172447
-0.000178911
-0.000152406
-0.000106728
0.000126222
-0.000136361
0.00120266
-0.000295411
-4.63156e-05
0.000554207
0.00146424
-0.00017468
-8.68959e-05
-0.000698318
-9.36633e-05
-9.61635e-06
0.000801597
-0.000444653
0.000445554
-0.000530006
0.000673771
-0.000322213
0.000380393
-0.000344381
-0.000271059
0.000310534
-0.000558315
0.000518841
2.00174e-07
0.000408864
0.000289985
-0.000158874
-8.49252e-05
-4.61859e-05
0.000126822
-9.2609e-05
-9.67985e-05
6.25859e-05
-0.000259957
0.000571031
-0.000469712
-0.000987626
0.000131674
-0.000309808
-0.00040065
6.80056e-05
-8.77319e-05
0.00115828
-0.00113855
0.000201738
-0.00013765
-0.000282273
-1.08542e-05
-0.000641724
0.000588667
-0.00065222
0.000705277
7.16947e-08
-0.000479754
3.98758e-05
-0.000274297
-4.95246e-05
0.000283946
2.19191e-05
-0.000779968
3.41054e-05
-0.000623261
0.000267138
-0.000605388
6.16488e-05
-0.000533051
3.24112e-05
-0.000171665
3.53524e-05
-0.000438296
-6.35718e-06
0.000276429
0.000272377
-0.000290956
0.000101254
-9.32617e-05
-7.99226e-06
0.000111801
-0.000159632
-0.00013108
-0.000236478
0.000266145
-5.08128e-05
2.1146e-05
-0.000269097
-0.000554251
0.000136695
0.000686653
-9.12983e-05
2.79536e-05
-0.000423163
-0.000652438
0.00047506
0.000370749
0.000874301
-0.000317119
0.000149819
-0.000715148
0.000784147
0.000124129
-9.00732e-06
2.62763e-05
3.35417e-06
-0.000149274
9.16282e-05
0.000686117
-0.000676676
0.000682104
-0.000588282
0.000237672
-0.000378662
-0.00050287
0.000253276
7.93474e-05
1.23583e-05
-6.95607e-05
0.000111007
-5.38046e-05
-0.000619761
0.000588149
0.000751438
-0.000719826
0.000277298
-0.000323686
-0.000376774
0.000178573
4.21552e-05
-0.00011548
5.59147e-05
-3.10142e-05
0.000252239
1.14563e-05
-0.00022382
-0.000577891
0.000303743
0.000446137
-0.000171989
-1.71069e-05
2.23225e-05
0.000100606
0.000732169
-0.000692276
-0.00069192
0.000652027
0.000352822
-0.000367153
9.25482e-05
-7.82177e-05
0.000123589
-2.22285e-05
-4.93751e-06
0.000436992
-0.000472919
9.2605e-05
-6.22834e-05
-7.09427e-05
0.000731078
-0.000680075
-0.000692727
-2.90079e-05
1.88248e-05
5.53367e-05
-4.51536e-05
-6.45892e-05
-6.6904e-06
-0.00024584
1.8658e-05
-0.000731779
0.000516533
0.000646573
-0.000431327
-0.00023649
-0.000675036
-0.000701537
0.000407675
-0.000284028
3.50278e-05
2.63549e-06
-0.000223744
-2.47316e-05
-0.000191033
0.00031354
-0.00072477
0.000602264
-0.000295276
0.00106143
-0.000151772
-0.000602887
0.000430391
0.000858612
-0.000825021
0.00053911
0.000696412
-9.03778e-05
-0.000199678
0.00075084
-0.000522669
0.00123606
-0.00022097
-0.000685211
4.15428e-05
0.000263172
-5.92812e-05
-0.000245434
7.91487e-05
-4.61967e-05
0.000752151
-0.000785103
5.40761e-05
0.000150147
-8.0415e-05
-0.000123808
0.000341109
2.16142e-06
-9.10307e-05
0.000492158
0.000236335
-0.000487246
-0.000241247
-0.000176377
0.00020049
2.99638e-05
0.00019278
-0.000145812
-2.90497e-05
-1.79183e-05
0.000335283
-1.84055e-05
0.000996124
-0.001313
2.26384e-05
-5.2108e-05
0.00010688
-0.00130677
0.00117487
-3.00127e-06
5.1017e-07
6.75791e-05
-0.00012611
-0.000126131
9.00578e-05
-0.000746248
0.00113139
0.0001092
-0.000494341
-0.000671956
0.000678755
-0.000558636
0.000433151
0.000124922
-0.000666872
0.00060138
-4.32237e-05
-0.000639806
0.000664004
0.000836165
-0.000856279
-0.000155306
-7.69098e-05
1.42423e-05
-0.000571172
9.41857e-05
0.00110103
-0.000624046
-0.00032432
-0.000127401
0.00029983
0.000935854
0.000257246
0.000911627
-0.000896825
-0.000142057
0.000263321
-7.44924e-05
7.50575e-05
-7.00318e-05
6.94668e-05
0.000111903
-8.91006e-05
-5.86224e-05
3.58196e-05
-0.000223808
0.00094616
0.000307096
-0.000228878
-0.000402447
-0.000654724
0.00047498
-2.86399e-05
0.000132864
3.98086e-05
-0.000144033
-4.51664e-05
-0.000937249
-0.000731512
5.67381e-05
0.000711659
-5.84357e-05
-0.000709961
0.000436308
0.000191484
-0.000194296
-0.000433496
0.00062406
-1.16246e-05
-0.000425518
-0.000186917
0.000787232
-0.000917476
-1.56208e-05
-0.00035881
-0.000133987
0.000168477
9.8553e-05
-6.50841e-05
-0.000403519
8.24229e-05
1.63616e-05
0.000304734
-0.000529453
0.000100382
2.55526e-05
-9.60579e-05
1.45765e-05
-9.81691e-06
0.00085066
-0.000315061
-0.000192246
-0.000685134
0.000502245
-0.000135723
0.000318612
-0.000403562
-0.000110935
-0.000170637
-0.000672365
0.000724459
0.000214516
-0.000752989
-0.000229095
0.000767568
0.0006015
-0.000597256
0.000232091
5.42556e-05
0.000905239
-0.000590401
0.000570854
-1.81262e-05
0.000824015
0.00011709
4.88903e-06
8.32494e-05
-7.10212e-06
-8.10363e-05
0.00050313
-6.61722e-05
-6.42846e-05
-0.000372673
-0.000785247
3.72114e-05
-4.97853e-05
2.56857e-05
2.40995e-05
-7.26782e-05
4.88895e-05
0.000522396
1.11695e-05
-3.04358e-05
0.000691087
-0.000431797
4.44525e-05
0.000496161
2.9208e-05
-2.97272e-06
-0.000149918
7.17186e-05
-7.53496e-05
0.000153549
-2.63525e-06
0.000683433
6.47872e-05
9.8457e-05
-0.000107329
0.000489306
0.00013876
-0.000473302
-0.000154764
-7.84252e-05
0.000260027
-0.00099201
0.000474781
1.44587e-05
6.92112e-06
-0.000119437
0.000614937
0.000220477
-0.000168382
-0.000216835
8.15906e-05
0.00026918
0.00020031
-0.00019825
-1.15788e-05
2.4474e-05
0.000461886
7.87847e-05
-7.38294e-05
-0.000160261
-0.000122782
-0.000101083
0.00014111
0.000179321
0.00025023
-0.000299579
-2.81868e-05
1.00335e-05
3.75992e-05
-0.000218557
-0.00119173
0.000155568
-0.000169841
0.000320417
4.74554e-05
-0.000198032
0.000329692
-0.000298461
0.000182513
-0.000213745
0.000448802
-0.000288951
0.000162469
-5.81799e-05
0.000271409
0.000187491
0.000266979
-5.66816e-06
-0.000367846
0.000417961
-0.000288761
0.000238645
0.000140063
-0.00011022
0.000413376
-0.00028272
-2.04367e-05
0.000372086
-6.43454e-05
-2.94223e-05
-4.75758e-05
0.000490374
-1.70278e-05
-0.000273912
0.000158141
0.000132798
0.00104129
0.00052201
-0.000297056
-0.00126625
-2.80855e-05
0.000211547
-2.18588e-05
0.000143921
7.58122e-05
-9.144e-05
-1.56073e-05
-6.27857e-05
-9.94392e-07
2.89666e-05
3.48135e-05
7.58335e-05
-2.76123e-05
0.000197447
-0.000184265
-0.00024413
0.000230948
-6.17138e-05
5.04566e-05
6.08799e-05
-4.96226e-05
-8.39635e-05
-7.67039e-05
9.89535e-05
-3.74318e-05
-3.88422e-05
4.63874e-05
2.98867e-05
-5.0911e-05
5.18657e-05
1.87065e-05
-1.96612e-05
-8.9314e-05
-0.000150647
1.30935e-05
2.18248e-05
5.25877e-05
-5.10912e-05
4.78485e-05
2.41397e-07
-0.000979524
4.18287e-05
0.000916632
2.10629e-05
5.42385e-05
-5.8929e-05
-8.46235e-05
-6.66271e-05
-0.000139569
7.26747e-05
2.65639e-05
-2.71985e-05
-1.25181e-06
5.75744e-05
-3.71631e-05
-1.91595e-05
-0.00105258
0.000102085
2.03605e-05
-5.73724e-05
5.88367e-05
-2.78943e-05
-9.58136e-05
6.88372e-05
-3.42465e-05
-3.58424e-05
-0.00029324
-0.000146585
-0.00116596
0.000199767
6.27838e-05
-3.13785e-05
-0.000331863
-0.000717665
4.52131e-05
-4.8369e-05
-1.42212e-05
2.49547e-05
-0.000198382
-0.000137793
5.44778e-05
-1.65057e-05
-7.4405e-05
3.64328e-05
-0.0012976
0.000270415
0.000816007
-0.000637286
0.000862573
4.20762e-06
-8.91787e-05
4.08865e-05
1.3747e-05
-1.07904e-05
-8.76345e-06
-7.83828e-06
4.24286e-05
1.285e-05
7.79065e-07
2.46908e-05
2.71206e-05
-6.9174e-06
-0.000919205
0.000437614
-2.83023e-05
1.70802e-05
-1.10761e-05
0.000137016
-9.37297e-05
3.13564e-05
0.000104463
-0.000135041
-0.00012124
-1.89207e-05
3.77381e-05
6.18107e-05
-0.000150588
-2.35685e-06
8.42599e-06
1.4e-05
-2.00692e-05
-0.00074426
3.39171e-05
-1.32993e-05
-4.892e-05
1.21938e-05
-7.05631e-05
-1.61691e-05
2.41855e-06
-4.82647e-06
1.8577e-05
0.000125757
-0.000188098
4.61363e-05
1.62053e-05
-2.81642e-05
5.15338e-05
-4.65865e-05
4.95497e-05
-6.55427e-05
-0.00121093
0.000169612
3.72397e-05
9.56698e-06
-1.28896e-05
0.000103139
0.000296133
-0.000179133
1.50581e-05
-6.97096e-05
8.29467e-05
-2.82952e-05
1.55735e-05
0.000124137
-9.1393e-05
0.00030664
6.01978e-05
-1.09764e-05
2.60345e-05
-0.000334014
-0.000868994
-7.91999e-06
-0.00115879
-0.000461759
0.000101354
-2.47396e-05
-3.05273e-05
8.48472e-05
4.52665e-05
-3.08105e-05
0.000193093
6.45367e-05
-0.000154491
3.76347e-05
-3.82303e-05
0.000164634
3.74582e-05
-2.27719e-05
-5.76462e-06
-1.82524e-05
-2.16291e-05
1.06528e-05
5.66109e-05
5.72629e-05
-3.65304e-05
-5.48084e-05
-1.4209e-05
5.42623e-05
-0.000107889
0.000144525
-0.000741964
-0.000225015
0.000319603
-0.000192487
9.79886e-05
-0.000280621
0.000170905
-4.54053e-07
-0.000102555
-5.99058e-06
0.000115918
8.37076e-05
-8.43361e-05
2.85821e-05
-0.00140822
-0.000202743
0.000400282
3.84078e-07
-1.96156e-06
1.93393e-05
6.34645e-06
-0.000157523
0.000134787
-0.000172876
-0.000142267
0.000180356
0.000179738
-0.000183093
-6.04987e-05
1.91964e-05
-6.65865e-05
0.000496163
-0.000416713
-0.000597167
0.000517718
2.45625e-05
0.000108715
4.82487e-05
0.000656349
-0.0005772
-2.75637e-05
0.000116577
2.69053e-05
-2.43629e-05
0.000202743
-0.000437918
0.000521728
-0.000149982
-4.32145e-05
-2.82431e-05
7.14576e-05
1.07834e-05
0.000765754
-0.000722282
9.26653e-05
0.00014011
-0.000425651
0.000441164
5.35617e-05
-0.000289259
0.000263312
-0.000728289
0.000857622
-0.000129333
0.000183099
-0.000118772
-0.000582777
3.88684e-05
-0.000244912
0.000788821
-0.000343663
0.000319123
-0.000283897
0.000308436
-1.71799e-05
4.13284e-05
0.000845784
0.000428994
-0.000432751
0.000494661
-0.000490904
-7.57829e-06
-2.23063e-05
2.39064e-06
0.000118359
-0.000255906
8.11583e-05
3.86089e-05
-3.12755e-05
9.70422e-05
-7.19404e-05
-0.00074809
0.000594274
-0.000251611
-0.000149032
-0.000463167
-0.00128964
-0.000293255
0.000754511
0.000208209
1.51634e-05
-0.000180378
0.000206758
-0.000533104
0.000689537
2.72295e-06
-0.00014809
0.000160531
0.000195211
-1.46603e-05
-3.54748e-05
-0.000143408
0.000147608
0.000196827
-0.000683543
3.39054e-05
0.000452811
-0.00039787
0.000363858
2.24332e-05
-0.000832724
0.000365173
0.000781091
-3.18537e-05
0.000356364
9.33984e-05
8.41141e-05
-0.000111619
0.000114725
-3.10665e-06
0.000751286
8.58306e-05
-8.81705e-05
1.88584e-06
5.68319e-05
0.000456067
-0.000512899
2.47622e-05
0.000295647
-0.000384755
0.000147176
-0.000283168
-0.000418052
3.46406e-05
0.00026574
-0.000271327
-0.000827137
-0.000451855
0.000642827
-0.000415987
0.000590916
0.000117186
-0.000569342
0.000193971
0.000627433
-0.00064409
0.000747363
-0.000257407
0.000109384
-0.000128147
-0.000108896
-6.52104e-05
0.000129657
0.000106459
0.000216636
-0.000227349
0.000571513
-0.000560729
-0.000318841
-0.000462603
0.000181688
0.000332739
-0.00058682
-0.000238999
0.000270795
-0.000476897
0.000289812
-0.000283637
0.000470722
-0.000131775
8.62324e-05
0.000190068
0.000269904
0.000402995
-0.000236591
0.00112336
0.000170832
0.000512976
-0.000545918
5.74164e-05
4.59551e-05
0.000758022
-0.000749378
-0.000179726
0.000171081
0.000655457
0.000200386
-0.000448168
-0.0011357
0.00105309
0.000238076
-0.000691195
-1.5801e-05
0.000121543
-9.43583e-05
-1.1384e-05
2.78326e-05
1.60711e-05
-1.26258e-05
-0.000117348
-1.8117e-05
-0.000371662
0.00022464
-0.000382432
1.64978e-05
0.000247296
-0.000567582
0.000621779
0.000726589
-0.000731465
0.000659388
-0.000654512
0.00014364
0.00108774
-0.000923328
-1.56515e-05
1.4846e-05
0.000128354
4.52909e-05
-6.17413e-05
0.000676886
-0.000129644
2.55702e-05
0.000134439
-0.000272981
-0.000208229
2.91067e-06
0.000111815
-0.000469723
0.000546452
-0.000448391
-0.00011489
-7.81142e-05
-0.000105178
0.000785388
-0.000385725
-0.000534251
0.000443079
-5.56131e-05
0.000138825
-0.000152179
0.000145161
0.000224456
-0.000103472
0.000203582
6.70037e-06
9.76826e-05
-6.95175e-05
0.000328199
9.99831e-05
0.000251466
1.24092e-05
0.00010327
0.00067695
0.000693888
-0.000832824
-0.000100235
-0.000401292
-0.000608896
0.000584537
-0.000214325
8.99972e-05
0.000721411
-0.000687097
0.000401783
9.14418e-05
-7.85132e-05
-4.61641e-05
-2.88013e-05
4.09477e-05
0.00050083
-2.63396e-05
0.000597852
-8.70763e-05
-0.00060505
3.91252e-05
-0.000221873
-0.000391557
-0.000226464
-0.000136685
-3.50183e-05
0.000883996
-8.61864e-05
-0.000578668
0.000453007
3.0599e-06
0.000496544
0.000571699
1.04589e-05
-0.000138765
-0.000955077
-0.000261419
0.000350745
-0.000464495
-4.28487e-05
3.17238e-05
-4.54436e-05
0.000114243
0.000225822
8.56335e-05
-9.27334e-05
-0.00017119
3.51499e-05
0.000266632
0.000533068
8.11373e-05
0.000258002
0.000984178
-0.000930074
0.000626925
-4.48619e-05
-2.31782e-05
2.99472e-05
8.03281e-05
0.00107094
-8.67621e-05
-3.75913e-05
0.00066182
0.000221038
-0.000134648
0.000128148
-0.00019237
-0.00018453
-0.000405278
-0.000861759
-6.83146e-05
-1.307e-05
-6.31085e-06
3.45825e-05
-1.52017e-05
-0.000181166
0.000238176
-1.5152e-05
-4.18577e-05
4.77537e-05
0.00018538
-0.00063704
-3.39676e-05
0.000167369
-6.76274e-05
0.000101687
-3.406e-05
-0.00029794
8.95172e-05
0.000227619
0.000231076
0.000278788
0.000780743
-4.09179e-05
-2.67094e-05
-5.84914e-06
2.00914e-05
-1.42422e-05
-0.000292841
-0.000299172
0.000366799
-6.76273e-05
-0.000119702
0.000244213
2.59573e-06
-8.44487e-06
0.00109157
0.000238336
-0.000185812
-5.25243e-05
-5.577e-05
-0.000524194
5.52292e-05
-0.000444074
-2.08266e-05
-5.24307e-05
0.000650283
-9.8069e-05
0.00116901
3.13336e-06
0.000449874
-6.0836e-05
0.000160325
-0.000132215
0.000271721
7.30845e-05
-6.08798e-05
-0.000692226
0.000680021
-0.000399055
-0.000180152
-4.49341e-05
-0.000669085
-7.24559e-05
-0.000678566
0.000181934
0.000621554
3.54234e-05
-5.85799e-05
0.000769208
-0.000357844
8.23032e-05
-9.5813e-05
-9.32182e-05
-0.000559851
-0.000496612
3.15772e-05
4.44509e-06
-0.000685739
-2.45061e-05
0.000579957
0.000337033
-0.000341085
-7.65659e-05
5.92558e-05
-7.59516e-05
4.05534e-05
-0.000163089
0.000203673
-0.000448678
-0.000134263
-0.00013161
9.74908e-05
-3.25351e-05
-0.000352306
0.000396003
0.000120692
0.000187624
-5.98903e-05
0.000108661
9.78871e-05
-5.65052e-05
4.81353e-05
0.000283334
-2.61744e-06
-4.96406e-05
0.000831618
-0.000103306
0.000447257
-0.000793754
3.994e-05
7.84682e-05
-0.000478695
0.000450656
-0.000394182
1.31682e-05
0.000509956
-0.000251913
0.000286365
1.30031e-05
-0.00098405
0.000183326
-1.07674e-05
-0.000267342
0.000239624
-0.000100909
-3.47684e-05
0.000647329
-2.24902e-05
5.15335e-05
-3.63953e-05
6.33277e-05
8.96443e-05
-0.000100255
0.000106985
-9.41616e-05
4.87719e-05
-2.10264e-05
0.00031245
-4.06021e-05
0.000691065
0.000266508
-0.00080146
6.09827e-05
8.87437e-05
-7.38929e-05
-0.000723365
-0.000102485
-0.000123359
-0.000232957
0.000184098
0.000139611
-0.000111379
0.00030198
5.24975e-05
3.08668e-06
1.16854e-05
-5.73782e-05
1.95679e-05
2.93928e-05
-0.00056839
-9.77919e-05
5.16981e-05
-6.90245e-05
0.0007973
0.0010029
9.52284e-05
0.000787966
-0.000119925
2.65133e-05
-6.74224e-06
7.48102e-06
-7.38781e-07
-0.000172086
0.000186453
-0.000705838
0.000662611
0.000631894
8.46014e-05
-0.000118895
-0.000410176
-4.15887e-05
0.000328825
6.71595e-06
0.000142241
-0.00124977
-0.000688633
0.000902187
-0.000418585
0.000490145
1.8006e-05
-0.000676718
-0.000416386
0.000239264
-0.000208358
-0.000466028
-0.000409812
0.000102144
-4.14651e-06
3.87397e-05
8.33993e-05
-8.2199e-05
-0.000394954
0.000153128
-0.000312425
7.75813e-05
-7.10414e-05
2.20422e-05
0.000213909
2.96535e-05
3.05687e-06
1.64195e-05
5.54636e-05
-0.000267431
4.16735e-05
9.6493e-05
-0.00066494
-0.000227276
0.000625964
6.24216e-05
0.000722322
-1.46617e-05
-0.000264694
0.000659139
-0.000618253
-1.30744e-06
2.8007e-05
-0.000239834
0.000132494
-0.001136
9.40275e-05
-8.14898e-05
-0.000728967
0.000185857
0.000624601
-4.6152e-05
0.000897889
-0.000220693
0.000177616
0.000236083
-0.000534592
0.000136627
-0.000571208
0.000514275
-3.67297e-05
-0.000218357
-0.000296103
0.000417533
-4.35709e-05
-0.000460689
5.89824e-05
0.000603582
1.36787e-05
-1.78956e-05
-7.10654e-05
-4.279e-05
3.08582e-05
0.000266459
0.000524727
-7.74696e-05
-0.000681636
-0.000112117
4.00615e-05
0.000320481
-0.000103798
0.000365473
0.000430681
3.76917e-05
-0.000151873
-0.000451086
0.000314008
8.88239e-05
0.000156597
9.90925e-05
-0.000351353
1.80237e-06
-7.9372e-06
4.33768e-06
-3.07746e-05
0.000454379
-0.000602156
-7.94982e-05
0.000339664
2.89413e-05
-7.28869e-05
-0.000626719
-3.95846e-05
0.000620152
-2.36577e-05
0.000212272
-0.000895983
0.0010335
-6.29606e-05
0.000118998
2.19634e-05
-5.8188e-05
0.000155583
-0.000176916
-4.25265e-05
0.000200498
2.79515e-05
-4.78398e-06
6.7497e-05
2.55641e-05
-0.000270754
0.000177998
-0.000158094
0.00025085
-0.000169291
9.6635e-05
1.81447e-05
4.14608e-05
-0.000397457
-0.000414681
-0.000453453
0.00059738
-0.00017703
-0.000268683
-6.95139e-05
0.000663336
3.38242e-05
-0.000627646
-0.000126584
-0.000161225
0.000155091
0.000132718
4.65274e-05
-4.85147e-07
-3.7364e-05
-0.000641317
0.00060983
-0.000192235
-0.000400492
0.000461662
-0.000587674
-0.000530574
0.00038085
0.000133218
-6.85702e-05
-0.000370248
0.000153874
-0.000163704
2.71091e-05
-2.47575e-05
0.000745512
-4.65634e-05
-0.000704098
-0.000599998
-0.000317697
0.000811175
8.95186e-05
-0.000499129
-3.46589e-05
8.57361e-05
-0.000341981
-0.000323205
0.000541046
-0.000363924
0.000271894
0.000776909
-0.000663482
-0.000113427
-0.000457177
0.000470608
-1.34309e-05
-0.000420158
0.000386053
-0.00036707
-1.89823e-05
0.000887439
0.00045634
-0.000357617
0.000359745
-2.12838e-06
0.00040434
4.67234e-05
0.000413104
-5.33592e-05
-0.000604001
0.000996684
0.000461668
0.000582081
-0.00055235
-2.97311e-05
0.000474275
0.000431277
0.000411341
1.99355e-05
0.000470738
3.53713e-06
0.000403228
8.11284e-06
0.000419711
-1.6483e-05
0.000439048
-1.65535e-05
0.000906918
0.000392857
-2.23849e-05
4.5053e-05
2.59164e-05
-0.000165285
3.9549e-05
-1.31911e-05
-9.54927e-05
0.000835588
-0.000132719
-5.48134e-05
0.000148847
0.000507346
3.63858e-06
0.000650749
8.29879e-05
0.000116458
-0.000114299
0.000262548
-6.80995e-06
5.86296e-05
6.80022e-05
0.000649884
-0.000651597
-2.87905e-05
0.000412717
0.000300716
-9.864e-05
-9.01847e-06
1.45947e-05
-9.20691e-05
-7.08274e-05
-0.000232018
0.000442105
0.000863518
-0.000349763
0.00016286
-7.94864e-05
-6.52586e-06
-4.98278e-05
-0.000120011
0.000866203
-0.00112975
9.39502e-05
0.000263603
-0.000133882
0.000867756
9.24419e-06
0.000258038
-0.00113504
-4.27956e-05
-7.77616e-05
-1.85726e-05
-4.99895e-05
-9.90223e-06
4.0259e-05
0.000301733
-0.000496912
3.55355e-05
-0.000123583
5.8052e-05
2.31155e-05
0.000175888
9.64468e-05
-0.000211455
0.000143358
-0.00011959
-8.26969e-05
4.48139e-05
8.8157e-05
-0.000480663
-9.09126e-05
0.000435853
-0.00037321
0.000402136
-0.000299962
-0.000104531
-0.000213253
-1.98976e-05
2.10813e-05
0.000144137
-7.56016e-05
-9.60201e-06
-0.000420244
0.000420628
9.22175e-05
-0.000125526
-4.05208e-05
-8.4995e-06
-5.18963e-07
0.000271739
-0.000659987
-3.82401e-06
-0.000537996
0.000105073
0.000280612
-0.000398943
-4.55295e-05
-7.4093e-05
0.00010251
0.000176611
-0.000252552
-8.93187e-05
-0.000595907
2.4544e-05
-0.000152842
0.000696733
6.4781e-06
2.92608e-05
-0.000171084
0.000695856
-0.000298792
0.000172925
3.23077e-05
7.58556e-05
-3.12311e-05
0.000137691
-7.79678e-06
-0.000244064
8.4227e-06
-0.000114636
0.000136642
-3.93794e-05
-2.52519e-05
-0.000304522
9.36704e-05
-9.1878e-05
8.444e-05
-0.000590579
-8.14094e-05
0.000210052
4.29882e-05
0.00012667
-0.000246925
-0.000201673
0.000766166
3.37081e-05
8.19988e-05
0.000150428
-1.53363e-05
-3.48641e-05
-0.000161104
0.000390275
-0.000411322
-0.000149106
0.000459556
-0.000178964
5.48515e-05
0.000125816
-8.60999e-05
-0.000161636
0.000465456
-0.000498116