/*--------------------------------*- C++ -*----------------------------------*\
| =========                 |                                                 |
| \\      /  F ield         | OpenFOAM: The Open Source CFD Toolbox           |
|  \\    /   O peration     | Version:  v1912                                 |
|   \\  /    A nd           | Website:  www.openfoam.com                      |
|    \\/     M anipulation  |                                                 |
\*---------------------------------------------------------------------------*/
FoamFile
{
    version     2.0;
    format      ascii;
    class       volScalarField;
    location    "0.76";
    object      nut;
}
// * * * * * * * * * * * * * * * * * * * * * * * * * * * * * * * * * * * * * //

dimensions      [0 2 -1 0 0 0 0];


internalField   nonuniform List<scalar> 
1466
(
0.000851254
0.00204392
0.00132147
0.00404883
0.00148797
0.00241656
0.00226604
0.00190892
0.000742961
0.00233755
0.00302898
0.00233842
0.000729976
0.00129785
0.00572188
0.00628647
0.00175816
0.00101593
0.00499999
0.00342168
0.00548792
0.00814701
0.00394437
0.00317348
0.000754118
0.00409188
0.00517193
0.00412319
0.000713488
0.00362224
0.00357879
0.00390926
0.00163835
0.0103599
0.00291905
0.00182201
0.0114507
0.00168972
0.00215052
0.000765176
0.000768293
0.0019859
0.00193532
0.00067264
0.000634351
0.00113323
0.00189391
0.000666979
0.00154442
0.000731239
0.00111556
0.0016657
0.00171599
0.000898031
0.000849061
0.00100959
0.000798925
0.00210741
0.000841581
0.00202266
0.00572381
0.00249306
0.00166324
0.00352946
0.00573428
0.00219606
0.00836264
0.00366591
0.00202554
0.000902871
0.00754195
0.00113467
0.000950737
0.000906028
0.00383812
0.002482
0.00237835
0.0015128
0.00120433
0.00367567
0.00291973
0.0052461
0.00119094
0.00322023
0.00527406
0.00533768
0.0081616
0.00309676
0.0025215
0.00278412
0.00502762
0.00464221
0.00424774
0.00159262
0.00190468
0.00109911
0.00187795
0.00179806
0.000822153
0.00084809
0.00150183
0.000912934
0.000614641
0.00171597
0.00226892
0.00200756
0.00148689
0.000728783
0.00190573
0.000821645
0.00568991
0.00292154
0.00128273
0.00178293
0.00156703
0.00642288
0.00305133
0.00169021
0.00181874
0.00145267
0.00663474
0.00222671
0.00224763
0.000732958
0.000694564
0.00165875
0.00257246
0.00405524
0.00334676
0.00446528
0.0017606
0.001969
0.00347261
0.00291612
0.00522883
0.00070278
0.000704294
0.00119142
0.00113246
0.00104827
0.000918885
0.00467196
0.00491901
0.00449616
0.00852278
0.00724744
0.00395196
0.0053359
0.00448274
0.00310364
0.00533262
0.00344674
0.00234363
0.00162107
0.00490344
0.00814681
0.00379462
0.00636784
0.00453254
0.00214159
0.00394766
0.00330461
0.00147902
0.00487922
0.00774846
0.00340317
0.0044298
0.00482984
0.00536619
0.0032204
0.00562219
0.00283783
0.000763054
0.00215245
0.00103925
0.00086525
0.00331119
0.00410684
0.00547004
0.00610633
0.000837128
0.00395204
0.00539485
0.000590252
0.00300978
0.00563628
0.00549019
0.00275435
0.00200987
0.00146017
0.00590253
0.00506762
0.00402518
0.00824003
0.00193351
0.00617456
0.000648239
0.00328595
0.00689662
0.00780923
0.00317415
0.00445517
0.00308823
0.00598529
0.00756441
0.00801473
0.0064626
0.00222997
0.00451739
0.00339946
0.00459048
0.00487965
0.0045878
0.00521552
0.00598774
0.00492629
0.00590566
0.00590214
0.00343884
0.00404466
0.00456083
0.0063392
0.005097
0.00657681
0.00526012
0.00570241
0.00698463
0.00104499
0.00549703
0.00630072
0.00558456
0.00304925
0.00883695
0.0102357
0.00302759
0.00803694
0.00476599
0.00474318
0.0046154
0.00583165
0.00231246
0.00353643
0.00296508
0.00763372
0.00396647
0.00304954
0.00383966
0.000894185
0.0039218
0.00271029
0.0059861
0.00624047
0.00208673
0.00355929
0.00305972
0.00560583
0.00329569
0.00104813
0.00136254
0.0019645
0.00125652
0.00320961
0.00279009
0.00611271
0.00354762
0.000526319
0.000942104
0.00477752
0.00537122
0.00121174
0.00168861
0.00144242
0.00108092
0.00429936
0.00507974
0.00681432
0.00605347
0.00424673
0.00548849
0.00432171
0.00599621
0.00690494
0.00508104
0.00309179
0.00966661
0.001151
0.00472655
0.00482954
0.000892553
0.00171715
0.00170677
0.000637714
0.000782004
0.000766622
0.00332129
0.00103168
0.00160219
0.00131013
0.00445195
0.00600844
0.00132857
0.00667601
0.000475977
0.000856163
0.00594798
0.0110171
0.00565556
0.00125014
0.00287507
0.0088608
0.00220341
0.00553847
0.00397506
0.00459216
0.00428311
0.00352351
0.00988572
0.0028017
0.00115961
0.00584278
0.000951527
0.00152
0.00152184
0.00574323
0.00660017
0.00152603
0.00125109
0.0027914
0.00545505
0.00516476
0.00390901
0.00161088
0.00172656
0.0029581
0.00552843
0.000843533
0.00569779
0.00482902
0.00687176
0.00249201
0.0035337
0.00235871
0.00164013
0.003642
0.00351312
0.000430757
0.00293155
0.00288416
0.00207003
0.00506217
0.00171351
0.000899168
0.00362457
0.00762246
0.0107828
0.00747332
0.00291709
0.000641499
0.00102281
0.00289396
0.00990112
0.00667173
0.00506774
0.00803227
0.00114687
0.00947268
0.00210169
0.00201352
0.00121373
0.00326131
0.002864
0.00815029
0.00144581
0.00277936
0.00168873
0.0126567
0.00389748
0.00144417
0.00170331
0.00361497
0.0102645
0.0107233
0.0107404
0.0112076
0.0119413
0.0113232
0.0016554
0.00162056
0.00123687
0.00112446
0.00654823
0.0132515
0.00840721
0.0129126
0.00729873
0.0029356
0.00115056
0.00148527
0.0065223
0.000612985
0.00119305
0.00110567
0.00278604
0.00113667
0.0029578
0.0115055
0.00272432
0.00305016
0.00968617
0.00966214
0.00485668
0.00303288
0.00316566
0.0108054
0.00334142
0.00114922
0.00121332
0.00306057
0.00571615
0.00217785
0.00974211
0.0105447
0.00284188
0.00292123
0.00320784
0.0021167
0.00793756
0.00148072
0.00307169
0.00226236
0.00669803
0.00482177
0.00170356
0.00171504
0.0048779
0.000529656
0.0012746
0.000777082
0.00136029
0.00700468
0.00148809
0.000880866
0.00661385
0.0014005
0.00560608
0.00184955
0.00128066
0.00523277
0.00156545
0.00539843
0.00545074
0.00129396
0.000854208
0.000866964
0.0104803
0.000892005
0.00142067
0.00156396
0.000855178
0.00583474
0.00139945
0.0065458
0.00125899
0.00200894
0.00535442
0.001618
0.011896
0.00621619
0.00594343
0.0111808
0.00579813
0.00161617
0.00650518
0.00130083
0.00622411
0.00201619
0.00488357
0.00817468
0.01176
0.00691506
0.003169
0.00351966
0.00466212
0.0112544
0.00990018
0.00198151
0.00276909
0.00675169
0.00914598
0.00545982
0.0108533
0.00394001
0.00172705
0.0126085
0.00536489
0.0141651
0.0137623
0.0126165
0.00372864
0.00929096
0.0116619
0.0112698
0.00238644
0.0077085
0.00125083
0.00939572
0.00339824
0.00615649
0.00262237
0.014463
0.00580425
0.00898425
0.00695315
0.00165742
0.0140949
0.00875157
0.00956814
0.000854897
0.00130235
0.00183714
0.0122905
0.00704733
0.0111953
0.00229148
0.00835994
0.010507
0.00830735
0.00466479
0.0112468
0.0108126
0.00162191
0.00171467
0.00943122
0.0137874
0.013793
0.00890482
0.00247497
0.00357142
0.0101388
0.00396935
0.001873
0.00817362
0.00128198
0.00748323
0.0119284
0.00252292
0.0125016
0.00181561
0.00933296
0.00650743
0.008568
0.00400141
0.00941739
0.0132585
0.00169854
0.0145297
0.0146679
0.0090784
0.0019691
0.00150414
0.010562
0.011123
0.00593395
0.00282878
0.00115694
0.00764236
0.0132611
0.0111605
0.0036757
0.0115353
0.00686911
0.0111167
0.00460919
0.00414896
0.00315816
0.00646424
0.000922898
0.0124944
0.0141898
0.00413344
0.00582598
0.0114683
0.0136134
0.00886029
0.00983844
0.00528489
0.00657913
0.00102292
0.0144483
0.00836398
0.0080232
0.00213707
0.00982785
0.0132916
0.00666405
0.00496947
0.00457744
0.0030795
0.00347232
0.00577728
0.00353211
0.00128555
0.00115057
0.00260372
0.00959999
0.010074
0.00594176
0.00146242
0.00615298
0.0109686
0.00356779
0.0038554
0.00189209
0.00231387
0.00352595
0.00266341
0.00395037
0.00223481
0.00182221
0.00650271
0.00243507
0.00116568
0.00596906
0.0014285
0.00181942
0.0128388
0.00185079
0.0104576
0.0111364
0.0126066
0.0084726
0.00187331
0.00190399
0.00122018
0.0121881
0.00124227
0.00640728
0.0063236
0.00482513
0.00404327
0.00963529
0.00333946
0.00326505
0.00661876
0.0106841
0.00126848
0.0103134
0.0105906
0.00311036
0.00230403
0.0118139
0.000969898
0.00401375
0.00142442
0.0118847
0.0106341
0.00498573
0.00165851
0.0055497
0.000912789
0.0111927
0.00317792
0.0013869
0.00133701
0.0113685
0.00395306
0.00290673
0.00489162
0.00403921
0.00319569
0.00124767
0.00504154
0.00647468
0.00113931
0.00577419
0.00122567
0.00685233
0.00247737
0.00123988
0.00163409
0.00406283
0.00166796
0.00299976
0.00955621
0.000629354
0.00826123
0.000711471
0.000464922
0.00448148
0.000490079
0.0112136
0.00158071
0.00147945
0.0025224
0.000682781
0.000468341
0.00273883
0.00868647
0.000707541
0.00838187
0.00986277
0.000719985
0.000470327
0.00540978
0.0106186
0.00972374
0.00493872
0.00267781
0.000481917
0.0102348
0.00476539
0.0071435
0.000851686
0.003416
0.00977619
0.0041574
0.00185272
0.00966102
0.0110379
0.00405364
0.00223831
0.00811948
0.00935462
0.00304667
0.00171599
0.0103824
0.00394808
0.00968603
0.0083788
0.00044801
0.00864271
0.00265287
0.00963835
0.00126786
0.0082428
0.00711294
0.00111663
0.00680284
0.00110556
0.00892863
0.0120476
0.00527528
0.0112647
0.000840723
0.00239449
0.00296748
0.000747496
0.000507573
0.00621753
0.00280902
0.00399993
0.00480877
0.00369381
0.00106214
0.00346244
0.00641279
0.00557116
0.00424528
0.00125708
0.00390473
0.00507088
0.00249038
0.00697284
0.00447317
0.01078
0.00316708
0.00423307
0.00375074
0.00616818
0.00559311
0.00547625
0.00448593
0.00136906
0.00225474
0.00852824
0.00561323
0.00390583
0.000575578
0.0104396
0.00255028
0.010791
0.00559658
0.00449856
0.00173875
0.0115309
0.00117924
0.00640701
0.0132032
0.00982151
0.00328608
0.010089
0.0115246
0.00565046
0.00363303
0.00432971
0.00139501
0.00843353
0.00316379
0.00163651
0.00970125
0.00528508
0.00738607
0.0100162
0.00167055
0.00170108
0.00103622
0.000401192
0.00114839
0.00855529
0.00447537
0.00115259
0.00522871
0.00411855
0.00321403
0.00726364
0.0018128
0.00543822
0.00432473
0.00510678
0.00720483
0.00311853
0.00977434
0.00253891
0.00422087
0.00160217
0.00255776
0.00504603
0.00120818
0.00145111
0.00395089
0.00380869
0.00526392
0.00561188
0.0107131
0.00114205
0.00341751
0.00331591
0.000527862
0.00481282
0.00570335
0.00671059
0.00997344
0.0105178
0.00125214
0.010057
0.00193413
0.000759741
0.00941254
0.00284038
0.00456953
0.00815338
0.00276892
0.00380955
0.0140338
0.0085557
0.00532746
0.00309597
0.00270525
0.0037263
0.00400784
0.00971855
0.0110858
0.000906375
0.00845699
0.00438915
0.00117157
0.0035959
0.00198195
0.00475119
0.0146743
0.00889864
0.00240936
0.00832843
0.00464483
0.0121035
0.00856425
0.0105491
0.00108782
0.00103807
0.00107397
0.000891459
0.000919282
0.00101013
0.00083439
0.00130076
0.00130336
0.001329
0.00130594
0.00123557
0.00117275
0.00120935
0.00124406
0.0013191
0.000926844
0.00104628
0.00127147
0.00118298
0.00131012
0.00112116
0.00112165
0.0011298
0.00116471
0.00103336
0.0030188
0.000729621
0.000515344
0.00957837
0.00227639
0.00212689
0.00466974
0.0014638
0.00537599
0.00906122
0.0039219
0.010455
0.00371898
0.000728072
0.00122428
0.00585539
0.00679346
0.00947733
0.00602195
0.00335491
0.00448821
0.00257896
0.0110052
0.00767079
0.00117359
0.00218139
0.00215489
0.000925802
0.000485785
0.000856854
0.00237086
0.00443669
0.00909917
0.00828848
0.00096553
0.00230369
0.00316418
0.00183016
0.00407818
0.00152128
0.00886233
0.0027112
0.00181231
0.00485
0.00112524
0.00206421
0.00139706
0.00741237
0.00384579
0.00396474
0.00824735
0.00291786
0.008878
0.00387445
0.00573018
0.00763252
0.00361034
0.0107511
0.00161922
0.00106264
0.000765113
0.00387957
0.00613781
0.00101638
0.00392846
0.00958991
0.00949715
0.00112113
0.00603125
0.00829364
0.0058647
0.00450707
0.0019402
0.00678678
0.00492559
0.00199315
0.00473522
0.000992616
0.00440372
0.00535372
0.0114429
0.00122208
0.0011198
0.0100606
0.00360571
0.0075791
0.00334807
0.00256961
0.00146721
0.00638845
0.00320784
0.00679488
0.00978884
0.00397385
0.00904782
0.00100337
0.00213217
0.00974483
0.00543624
0.0110036
0.00116047
0.00105289
0.00296168
0.00204311
0.00140105
0.0055287
0.000738909
0.00141394
0.00736008
0.00120189
0.000380584
0.00230734
0.000894345
0.00769332
0.00606215
0.00200446
0.00869184
0.000913423
0.00150651
0.0103333
0.00331446
0.00720718
0.00120928
0.00106408
0.00431221
0.00334408
0.00123958
0.0026027
0.00628797
0.00650181
0.00280704
0.00243685
0.0072675
0.00487092
0.00447556
0.00762587
0.000804375
0.00617715
0.00083449
0.00215622
0.00180383
0.000748374
0.00165097
0.00265724
0.000601723
0.00233878
0.0100363
0.00215565
0.00347917
0.00355116
0.00439937
0.000936862
0.00238961
0.00521973
0.00764266
0.00547341
0.00145328
0.00182227
0.000928362
0.000719855
0.000756958
0.00290079
0.00765384
0.00102671
0.00177729
0.00271814
0.000247483
0.00658579
0.00934858
0.000554241
0.0023498
0.00058065
0.00122827
0.000948192
0.000564254
0.000586791
0.00268083
0.00506747
0.000726676
0.00110653
0.000463664
0.000507183
0.00048785
0.000464001
0.00099868
0.00102021
0.000541153
0.00060124
0.000619324
0.000602155
0.000918269
0.011502
0.00736434
0.00503105
0.00617403
0.00523412
0.00992545
0.00475143
0.0011759
0.00102915
0.00916601
0.00301594
0.00183773
0.00146721
0.00604381
0.0035525
0.00979805
0.00932615
0.000486081
0.00718057
0.0024844
0.00403319
0.000656055
0.00294687
0.00276556
0.00643918
0.00180278
0.00538059
0.00675037
0.00336356
0.000873105
0.00103012
0.000880009
0.00185693
0.00550507
0.00316132
0.00430774
0.00270594
0.00308955
0.00475427
0.00112709
0.0126942
0.00750178
0.00400996
0.00551877
0.00769917
0.00978141
0.0105693
0.00167484
0.00145505
0.00523671
0.0042474
0.00413641
0.0041089
0.00730831
0.00393937
0.00297893
0.0113002
0.00104764
0.00105432
0.0086436
0.00296102
0.00118586
0.00237001
0.00329619
0.00400855
0.009397
0.00121156
0.00355188
0.00105063
0.000908527
0.00530216
0.0120511
0.00253332
0.0100996
0.00702438
0.00159751
0.0027733
0.0079394
0.0136301
0.00221139
0.0022901
0.0101179
0.00324267
0.00952659
0.00831448
0.0108022
0.012152
0.00160623
0.00449477
0.00432619
0.00386517
0.00247573
0.00905684
0.00494074
0.00813515
0.0044262
0.00595449
0.00183576
0.0105418
0.00689337
0.0024145
0.00326123
0.00313431
0.00127915
0.00292246
0.00483532
0.00360676
0.00309297
0.00377576
0.00266325
0.00260203
0.00630143
0.00943869
0.000952763
0.00202539
0.00393087
0.0022672
0.00334164
0.00446815
0.00236445
0.00265139
0.000911714
0.00395193
0.000904184
0.00289995
0.0102765
0.0104626
0.00144464
0.00295029
0.000888082
0.00918528
0.002551
0.00152779
0.0066128
0.00317058
0.00988894
0.00946124
0.00404198
0.00365299
0.00154788
0.00339292
0.00453829
0.00777468
0.00177368
0.00140651
0.00657644
0.0012846
0.0105505
0.00306624
0.00224911
0.00303125
0.00636927
0.00571651
0.000938473
0.00883094
0.00195193
0.000861993
0.0096731
0.00618555
0.00335949
0.00291648
0.00195734
0.0107555
0.00241673
0.00637119
0.00330703
0.00324469
0.0051651
0.00498345
0.00702263
0.011085
0.0110981
0.00240525
0.00209907
0.00175729
0.00414188
0.000774196
0.00311644
0.00344659
0.00049711
0.0104308
0.00445365
0.0033877
0.00995657
0.00170114
0.00637781
0.003659
0.00092709
0.00328732
0.00451368
0.00206243
0.00170908
0.00169859
0.0112316
0.00634941
0.0101196
0.0100248
0.00504558
0.00190768
0.00290953
0.0018109
0.000861684
0.00147983
0.00569815
0.000984249
0.00435274
0.00498243
0.00689696
0.00613727
0.00367553
0.00860311
0.000905124
0.00381727
0.00653101
0.00560913
0.0017571
0.00392048
0.00795745
0.00224426
0.00164302
0.00195519
0.0061705
0.0101361
0.0010046
0.000401913
0.00389929
0.00273802
0.00307074
0.00985779
0.00686645
0.000670744
0.00320231
0.000507338
0.000888327
0.00132163
0.00156682
0.00322035
0.00929926
0.000404946
0.0101314
0.01195
0.00689675
0.00149115
0.00112305
0.00776088
0.000967527
0.00386867
0.00242416
0.00390033
0.00778055
0.0013236
0.00357446
0.00328601
0.00317866
0.00211267
0.00299913
0.00114333
0.00551931
0.00307272
0.00669621
0.000934944
0.00362494
0.00310326
0.00376333
0.00311493
0.00328953
0.00877021
0.00275713
0.00325433
0.00263943
0.00317347
0.00840603
0.0028108
0.00151098
0.000244168
0.000386541
0.00284717
0.00493369
0.00292803
0.00592496
0.00468544
0.00112713
0.00208393
0.0102918
0.00619533
0.00463399
0.003595
0.00246337
0.00576973
0.0112692
0.00160964
0.0026902
0.00469546
0.00248768
0.00615275
0.00267524
0.00288093
0.00557143
0.00336219
0.00504862
0.00476722
0.00312193
0.00521808
0.00520466
0.00341828
0.00307293
0.00150451
0.00519786
0.00342617
0.00540842
0.00422559
0.00351888
0.00313361
0.0067598
0.00406805
0.0062298
0.00321249
0.00873369
0.0108456
0.00193227
0.00105292
0.00690106
0.00265335
0.00152715
0.00144327
0.00309568
0.0032655
0.00410203
0.00489088
0.00311295
0.00327489
0.00074134
0.00377357
0.00405177
0.00319478
0.00511692
0.00172136
0.00216707
0.000920822
0.00170302
0.000883416
0.000625327
0.00164051
0.00228313
0.000734364
0.000568698
0.00123817
0.00077234
0.00145984
0.0018547
0.00110594
0.000748061
0.0017008
0.00239228
0.00152132
0.00134882
0.000982224
0.00175991
0.000729128
0.000838121
0.000963888
0.000686314
0.000774286
0.000671217
0.00223635
0.000566238
0.000527766
0.00183136
0.000745312
0.00131641
0.00117935
0.00232685
)
;

boundaryField
{
    frontAndBack
    {
        type            empty;
    }
    wallOuter
    {
        type            nutkWallFunction;
        Cmu             0.09;
        kappa           0.41;
        E               9.8;
        value           nonuniform List<scalar> 
108
(
0.00012028
0.00013346
0.00011281
5.76066e-05
5.20648e-05
7.60418e-05
8.56854e-05
5.62826e-05
5.93706e-05
8.23312e-05
5.66875e-05
8.52326e-05
8.66712e-05
5.69557e-05
5.83333e-05
5.41865e-05
0.00013147
8.98813e-05
6.14291e-05
6.96634e-05
4.83968e-05
0.000135453
6.39462e-05
9.1299e-05
0.000128158
0.000122649
0.000126605
0.000106234
0.000109342
0.000119611
9.97177e-05
0.00015175
0.000151944
0.000154729
0.000152311
0.000144633
0.000137736
0.000141749
0.000145478
0.00015365
0.000110298
0.000123706
0.000148458
0.00013876
0.000152643
0.000131937
0.000132096
0.000132994
0.000136841
0.000122073
6.23755e-05
8.76269e-05
0.000137816
5.87953e-05
0.000132427
0.000125527
9.19202e-05
0.000131875
0.000124382
4.58277e-05
0.00010876
0.000141679
0.000125434
9.98776e-05
8.9985e-05
7.26821e-05
0.000111503
8.66692e-05
9.09687e-05
0.000121412
2.87594e-05
2.87594e-05
6.70237e-05
7.02061e-05
6.82426e-05
7.09371e-05
0.000130382
5.60787e-05
6.13749e-05
5.90231e-05
5.61246e-05
0.000118453
0.000120859
6.54807e-05
7.26487e-05
7.47928e-05
7.27621e-05
0.000109379
0.00013801
0.000121564
5.88338e-05
7.90933e-05
0.000104028
0.000121855
0.000123917
0.000124658
0.000124143
0.000108037
0.000107784
6.01692e-05
0.000102897
0.000116819
4.84801e-05
6.13976e-05
4.88593e-05
2.83144e-05
4.65416e-05
0.000132602
)
;
    }
    inlet
    {
        type            calculated;
        value           nonuniform 0();
    }
    outlet
    {
        type            calculated;
        value           nonuniform 0();
    }
    wallInner
    {
        type            nutkWallFunction;
        Cmu             0.09;
        kappa           0.41;
        E               9.8;
        value           nonuniform List<scalar> 
126
(
0.00019226
0.000241778
9.31279e-05
9.31099e-05
0.000224647
0.000219455
8.21028e-05
7.75478e-05
0.000130893
0.000214873
8.09561e-05
0.000177904
8.82157e-05
0.000131299
0.000191073
0.000196119
0.000106852
0.000100912
0.000119637
9.38505e-05
0.000237197
0.000101035
0.00022847
0.000142111
0.000128894
0.000213394
0.000204857
9.8424e-05
0.000101638
0.000173323
0.000108649
7.47129e-05
0.000196142
0.000254087
0.000225838
0.000171737
8.80747e-05
0.000216336
9.64743e-05
0.00020342
0.000180462
8.94734e-05
8.45558e-05
0.000201041
0.000222834
8.53961e-05
8.59953e-05
0.000138287
0.00010981
0.000170978
0.000122891
7.80002e-05
0.000158408
0.000222369
0.000146838
6.39016e-05
0.000112035
0.000193317
0.000167037
0.0001275
7.57959e-05
9.29274e-05
0.000122061
0.000184182
0.000113036
0.000175379
0.000175584
7.74938e-05
0.000142324
0.000167717
0.000167537
0.000171956
7.54241e-05
0.000171478
0.000195106
0.00019629
6.50455e-05
9.38544e-05
0.000106444
0.000104285
0.000108002
0.000104175
0.00019017
0.000196246
0.000194536
0.000210312
0.000189889
0.00019604
0.000138201
0.000224097
0.00017411
0.000154356
0.000134503
0.000196935
0.000109649
0.00019506
0.000105436
7.72811e-05
0.000188598
8.95845e-05
7.18899e-05
0.00014462
9.29259e-05
0.0001696
0.000210485
0.000130215
8.99154e-05
0.000194657
0.000266631
0.000175757
0.000156861
0.0001165
0.00020116
8.7699e-05
0.000100265
0.000114531
8.35864e-05
9.10691e-05
8.20603e-05
0.000249601
6.85985e-05
6.40008e-05
0.000208531
8.92435e-05
0.000153584
0.000138426
)
;
    }
    procBoundary1to0
    {
        type            processor;
        value           nonuniform List<scalar> 
29
(
0.00174165
0.00174165
0.000988237
0.00255294
0.00611808
0.00252412
0.00280005
0.00103733
0.00231595
0.00205689
0.00143385
0.00252412
0.000988237
0.000885289
0.00205674
0.00109711
0.00611808
0.00526711
0.00255294
0.00192888
0.00082505
0.000738773
0.00301115
0.000708337
0.000708337
0.00301115
0.000721592
0.000909803
0.000721592
)
;
    }
    procBoundary1to2
    {
        type            processor;
        value           uniform 0.00202772;
    }
    procBoundary1to3
    {
        type            processor;
        value           nonuniform List<scalar> 
48
(
0.0119554
0.00574771
0.00788246
0.00788246
0.00372016
0.00408134
0.00408134
0.0108556
0.014606
0.00110189
0.00113746
0.00110189
0.00115717
0.00156832
0.00191273
0.00115717
0.00122443
0.00122443
0.00143499
0.00143499
0.00116649
0.00197422
0.00166122
0.00141012
0.00141012
0.00137074
0.00422124
0.00422124
0.00776881
0.00279289
0.00154522
0.00776881
0.0108556
0.0147908
0.00159482
0.00279289
0.0134934
0.00113746
0.0135744
0.00290622
0.00107847
0.0144396
0.0147908
0.00159482
0.00203825
0.000992529
0.00353269
0.00107847
)
;
    }
}


// ************************************************************************* //
