/*--------------------------------*- C++ -*----------------------------------*\
| =========                 |                                                 |
| \\      /  F ield         | OpenFOAM: The Open Source CFD Toolbox           |
|  \\    /   O peration     | Version:  v1912                                 |
|   \\  /    A nd           | Website:  www.openfoam.com                      |
|    \\/     M anipulation  |                                                 |
\*---------------------------------------------------------------------------*/
FoamFile
{
    version     2.0;
    format      ascii;
    class       surfaceScalarField;
    location    "0.76";
    object      phi;
}
// * * * * * * * * * * * * * * * * * * * * * * * * * * * * * * * * * * * * * //

dimensions      [0 3 -1 0 0 0 0];
oriented        oriented;


internalField   nonuniform List<scalar> 
2776
(
-0.000282986
-2.08756e-05
0.000206365
9.74962e-05
-0.000869988
0.000939697
0.00030227
-0.000371978
-0.000372037
-0.000217201
0.000232966
0.000356272
0.00011832
-2.99756e-05
0.00101099
-0.00109933
-0.000151145
4.48918e-05
0.000181046
-7.47927e-05
-0.000118823
-0.000449625
0.000378676
0.000189772
-9.86003e-05
-2.78174e-05
0.000409988
-8.70706e-05
-0.000592143
0.000269225
0.00101242
0.000890315
-0.000894226
-0.0010085
-0.000951964
0.000756154
-0.000229843
0.000425653
-0.000351217
-0.00117359
0.000526099
0.000998711
0.000428881
0.000177195
-0.00056049
-4.55856e-05
0.000887493
0.000114933
-0.00137002
0.000367596
-0.000145507
-0.000112577
0.000106938
0.000116633
-3.82463e-05
-0.00019721
0.000480511
-0.0001462
-0.000685528
-0.000244508
0.000163643
0.00025703
-0.000176164
3.08167e-05
-0.000482177
0.00045136
0.000526309
-0.000155588
7.86653e-05
-0.000449386
0.000723238
-4.45353e-05
5.34843e-05
-0.000732187
-0.000703256
3.78999e-05
-2.70284e-05
0.000692384
-1.06928e-06
0.000225671
-0.000328605
0.000104004
0.000588651
2.27409e-05
-2.27678e-05
-0.000588624
0.000685061
4.78976e-05
-3.14565e-05
-0.000701503
0.00030995
-0.000382967
-0.00117715
0.00125016
1.39285e-05
2.77694e-06
2.18301e-05
-3.85355e-05
-0.000242528
4.69714e-06
0.000126215
0.000650599
-0.000735801
-4.10122e-05
0.000142324
-0.000105063
0.000167665
-0.000204926
-0.000354923
0.000407464
0.000625324
-0.000677864
0.000570496
-0.000857507
-0.000112075
0.000399085
4.28399e-05
-5.61593e-06
4.95269e-06
-4.21766e-05
9.22891e-05
7.2402e-05
-0.000153938
-1.07531e-05
-0.000359743
0.000322678
-0.000703423
0.000740487
3.87954e-05
9.03151e-06
0.000374706
0.00027248
-0.000128061
-2.09487e-06
-0.000489391
-4.28553e-05
-0.00038035
0.00016548
0.0009693
-0.000233913
-0.000735387
-9.82594e-05
0.000242374
-0.000144115
-4.32683e-05
0.000205044
-0.000161776
-0.000479628
0.000544197
-6.4569e-05
-0.000489303
0.000480697
8.60643e-06
-8.5499e-05
-3.9452e-05
0.000124951
3.06477e-05
-7.72495e-05
4.66018e-05
0.000439742
-5.97229e-05
0.000951592
8.63855e-05
0.000234104
-0.000208757
-2.53466e-05
-0.000273486
0.000317132
-4.36462e-05
-0.000150344
0.000210159
-5.98146e-05
-0.000230695
0.000149865
8.08304e-05
-0.000210686
-0.000659303
-0.000362796
-8.68291e-05
0.000140767
-9.58756e-05
0.000189325
-9.70362e-05
-0.00109318
0.00140313
0.000278173
1.32274e-05
-0.0002914
-0.000970453
-0.000203141
-2.49202e-05
-6.3135e-05
8.80552e-05
-0.000805273
-0.000146691
2.47893e-05
-1.87816e-05
2.04219e-05
-2.64295e-05
-8.73096e-05
7.79807e-05
-3.39394e-05
-7.42088e-05
8.65533e-05
-0.000110604
-0.000204124
4.97768e-05
0.000593092
-0.000438745
0.00079103
-0.000686628
-0.000187855
8.34529e-05
0.000206462
-0.000243571
5.7628e-05
-2.05193e-05
0.000255051
5.20074e-06
-4.52664e-05
-0.000214985
-0.000195264
-6.17151e-05
-0.000457341
0.000873149
-0.000876087
6.89835e-05
-6.6045e-05
0.000177178
-0.000276832
-0.00015768
0.000257334
0.000163879
-0.000145665
-9.87175e-06
-8.3425e-06
5.35441e-05
-0.000544336
0.000490792
5.23305e-05
-0.000531833
0.000479502
0.00106141
-0.00045354
-0.00081176
0.00020389
8.2278e-06
-2.46752e-05
4.12367e-05
-0.00063356
-7.23327e-05
0.000307202
0.00039869
-4.66248e-05
-7.75096e-05
3.68248e-05
-0.000140706
-3.1016e-05
9.75131e-05
-0.000253519
0.000149978
0.000103541
0.000106821
-0.000391491
0.000344088
-5.94173e-05
-0.000600004
3.36313e-05
-5.72692e-05
0.000623642
-0.000300386
0.00048736
0.000339125
4.17628e-05
0.000223431
-2.02201e-05
-0.000244974
-0.000343117
-6.39413e-05
0.000300094
0.000106964
-0.000560636
1.79513e-05
0.000556363
-1.36784e-05
-3.90877e-05
0.000597757
-0.000585499
2.68299e-05
-0.000648884
0.00106831
-0.000779169
4.0722e-05
-1.66195e-05
0.000328443
-0.000352545
0.000771642
-0.000402346
2.83676e-05
2.44429e-05
7.74767e-05
-0.000130287
6.82537e-07
9.9677e-06
3.27824e-06
-0.000237924
6.43043e-05
-6.89081e-05
0.000220221
-0.000782724
0.000680822
2.71373e-05
0.000108395
-0.000142994
7.46199e-06
-3.31973e-05
-0.000227046
0.000173173
-0.000182712
0.000801241
0.000138456
-1.88607e-05
-8.07638e-05
0.000187857
-6.81137e-06
0.00014798
2.25917e-05
0.000127273
3.68372e-06
0.00023042
-4.00482e-05
-0.000233438
-0.000522768
3.34651e-05
-5.85178e-05
-0.000533625
-4.56636e-05
-6.79899e-05
0.00037761
0.000621101
-4.8133e-06
-1.18429e-05
-1.90111e-05
1.20724e-05
0.000525252
-0.000553187
2.50546e-05
2.8807e-06
6.19575e-05
-0.000228346
0.000145513
0.000277756
0.000478398
-7.53457e-06
-8.57636e-05
3.17151e-05
6.15831e-05
0.000423917
-0.000117644
0.000137226
-0.000432813
0.000724467
3.6588e-05
-9.12874e-05
-4.3901e-05
6.01127e-05
-0.00012374
-9.18047e-05
-0.00106558
0.000955388
8.02171e-05
-4.2068e-05
4.71526e-05
-3.78268e-05
3.27422e-05
-5.39725e-05
5.26353e-05
-5.02904e-05
5.16276e-05
-2.67524e-05
-5.87466e-05
-4.66747e-05
7.73224e-05
0.000374401
-0.00015546
-0.000682664
0.000176901
0.000608312
-0.000102549
-0.000212737
0.000715816
4.51962e-05
-0.000548275
-0.000308955
0.000885116
5.81528e-05
-0.000634314
-6.28964e-05
6.01101e-06
8.52897e-05
-2.84043e-05
0.000111686
0.000530509
0.000132106
0.000605286
-8.12575e-06
-8.91812e-07
4.72456e-06
4.293e-06
-0.00016972
-0.000231098
0.00014056
-5.59637e-05
-0.000112464
-7.79422e-05
-8.25662e-05
0.000728655
1.94839e-05
-0.000665573
0.000666597
2.29706e-05
-1.82874e-05
-0.00067128
0.000516698
-2.63353e-05
3.16108e-05
-0.000521974
0.00022471
-0.000142871
-0.000144984
6.31456e-05
-0.000565499
-9.55885e-05
1.86312e-05
0.000642456
4.79311e-05
4.50161e-06
-9.5929e-06
8.82238e-05
-4.60453e-05
-3.55459e-05
-6.63262e-06
0.000136977
-0.000114894
3.03489e-05
-5.24316e-05
0.000179164
-0.00014369
-7.10644e-06
-1.57932e-06
-5.27271e-06
0.00022986
-0.000421775
0.000494185
-0.000815949
-9.25244e-05
0.00022581
5.67982e-05
-7.18325e-05
-1.8163e-05
-0.000178549
-4.45799e-05
-1.99444e-05
0.000243073
0.00023626
-7.51579e-05
9.70863e-05
0.000686032
-5.7463e-05
-0.000725655
0.000725638
-0.000617196
-0.000757326
3.47999e-06
1.47015e-05
6.35423e-06
-2.45357e-05
-0.000742238
0.000237328
0.000482992
2.19173e-05
-6.13669e-06
-2.71194e-06
5.67798e-05
-0.000626846
0.000191512
0.000542154
-0.000270921
0.000231834
0.000507871
-0.000754648
-0.000161715
0.000408492
-4.15883e-05
0.00011962
-0.000347965
0.000269933
9.12162e-05
-0.000389275
0.000733045
-0.000682136
8.11964e-05
0.000553332
-0.000515733
7.40877e-05
0.000651693
-0.000550186
-6.91214e-05
-3.23862e-05
0.000103894
0.00154921
-0.00121795
-0.000435158
0.000606008
-0.000837342
0.000357548
-6.57338e-06
1.28268e-05
3.57211e-05
-4.19745e-05
0.000163111
-2.2878e-05
6.99255e-05
-3.80223e-05
9.52215e-05
0.000526546
-0.000634955
0.000108409
-0.000405966
0.000290338
-0.00128141
0.00139704
-0.000441896
-3.03024e-05
0.000605328
-0.000133129
0.000224061
-0.000187818
-0.000391167
-8.17493e-06
-1.99163e-06
-1.67635e-06
5.1081e-05
2.07633e-05
9.20347e-05
-0.00133539
0.00117336
-0.000250311
0.000412342
0.000379884
-0.000324306
-0.000129942
7.4364e-05
0.000139084
-0.000562726
0.000542467
-0.000118824
-0.000181613
4.19862e-06
0.000116268
6.11466e-05
-2.63305e-05
2.94984e-07
0.000360958
-0.000334922
0.000610975
3.06546e-05
-4.38728e-05
-0.00055181
2.74234e-05
-3.625e-05
-0.000366501
-0.000191547
0.00021493
-0.000987707
-0.00017116
0.00028278
-7.73165e-05
3.49009e-05
-0.000211103
0.000699316
-0.000184614
-0.000597269
3.27091e-05
-2.43597e-05
1.20725e-05
-0.000390734
0.00026764
0.000343316
0.000303891
0.000367395
-0.000593482
-7.78038e-05
0.000115445
0.000163948
-0.00102163
3.79239e-05
-1.71241e-05
-2.89747e-05
-9.875e-05
-0.000178082
-0.000408685
0.000331147
0.000529694
-0.000452156
-0.000254005
4.37662e-05
4.92473e-05
0.000160991
-0.000735167
0.000473559
-0.000368674
-0.000171435
0.000149375
0.000111871
-3.77902e-05
-0.000496652
0.000440885
0.000361129
-0.000305362
-0.00030106
0.00030906
3.05497e-05
-3.85496e-05
-0.000131062
-3.83345e-05
2.37318e-05
-0.000244512
-0.000438469
7.26398e-05
0.000733224
0.000493445
0.000780829
-0.000419586
-0.000854689
-5.30477e-06
1.28621e-06
1.2148e-05
-8.12943e-06
1.24173e-05
0.000714065
-3.24442e-06
4.43777e-05
0.000571762
-8.98306e-05
-3.23587e-05
3.73384e-06
-0.000565027
0.000593652
-2.37057e-05
2.36833e-05
-0.000265948
0.00026597
0.000436649
-0.000171399
0.000340759
8.55283e-07
-0.000701835
-2.27641e-06
5.15495e-05
-0.000577439
0.000768988
-0.000243099
0.00062816
0.000118354
-0.000135539
-0.000535032
3.47715e-05
-0.000250175
-0.00044807
0.000331743
-0.00017547
0.000682518
0.000225997
-0.000155685
0.000527362
0.000181655
-4.98574e-05
3.7866e-06
-3.96928e-05
-3.61484e-05
-3.34193e-05
5.8554e-05
-3.96413e-05
-5.86859e-06
-0.000461981
0.000331426
-0.000116402
-0.000163608
6.9945e-05
0.000210065
4.37269e-05
0.000113269
-9.55005e-07
-0.00015604
-8.07428e-06
-6.27292e-06
-9.57333e-05
4.46098e-05
1.26607e-06
4.00625e-05
-6.85175e-05
1.85833e-05
-4.23791e-05
0.000303329
-0.000527009
0.000266059
7.91973e-05
-0.00043552
-0.00023716
-6.90887e-05
0.000418065
-0.000376642
2.76658e-05
0.000154593
9.72123e-05
-0.000136506
-0.000115299
-9.57508e-06
-0.000243279
4.9159e-05
-8.99234e-05
6.0983e-05
-2.02185e-05
1.05836e-06
0.000213699
0.000115874
-0.000104105
-0.000225469
8.15591e-05
-4.8447e-05
-0.000424603
0.000459013
-0.000309066
-0.000346904
2.45781e-05
8.74127e-06
-1.57367e-05
-1.75827e-05
7.58381e-05
-0.000621125
-2.93476e-06
2.74033e-06
-3.76052e-05
3.77996e-05
-0.000259633
0.000915077
-0.000284415
0.000243152
-2.62457e-05
6.7508e-05
-0.000312444
0.000741155
0.000605676
0.00020048
-0.000177996
0.000825835
-0.000426439
0.000894824
-4.53576e-05
6.31605e-05
0.000491442
-0.000509245
-2.45506e-06
4.62127e-05
-4.90624e-05
6.94112e-05
2.22926e-05
-7.91565e-05
0.000603473
-0.000790759
-0.000973515
0.00120183
0.000562449
-0.000415539
0.000419273
-0.000262488
0.000380842
6.73655e-05
-4.36821e-05
-2.62004e-05
0.000401024
-2.2448e-05
0.000452265
-3.69099e-05
-6.69491e-05
0.000444059
-0.000445745
-0.00050634
0.000508027
-1.85018e-05
-0.000421477
0.000499619
-7.81419e-05
-6.06668e-05
7.14895e-05
-0.000587762
-0.00014526
-0.00130513
0.000659635
0.000207528
-0.000478449
-0.000401233
-1.43064e-05
7.51764e-05
-7.81091e-06
1.13388e-05
-1.34955e-06
-8.70304e-06
-1.23557e-05
1.45629e-05
-3.70209e-05
6.91454e-05
3.36085e-05
-0.000709747
0.000250203
-0.000161004
0.000620548
-0.000581942
0.000468405
0.000169364
-0.000207241
-7.70171e-05
7.74418e-08
4.74302e-05
1.53089e-05
-6.28165e-05
-0.000318719
0.000249498
0.000175582
-0.000106361
0.000319731
-0.000185576
0.000436161
-0.000570315
-0.000554889
0.000503086
0.000232447
3.95888e-05
-0.000136625
-0.000135411
1.83781e-05
-5.29329e-05
0.000111723
-7.71684e-05
0.000341195
-0.000423774
2.19127e-05
-2.22841e-05
0.000318899
-9.44486e-05
6.76134e-05
-3.62998e-05
0.000934989
-0.000845458
-0.000509117
0.000542721
0.000380031
-0.000745851
0.00013676
6.96055e-05
-0.000830862
5.5529e-05
-0.000812995
0.00042298
-1.12351e-05
-0.000180311
0.000383282
-0.000355858
0.000122086
-8.57402e-05
-9.61608e-05
-5.39421e-05
1.26773e-05
4.35483e-06
-9.71752e-05
-9.4129e-05
0.000131224
6.008e-05
-2.72118e-05
5.74737e-05
4.71216e-05
-7.73835e-05
5.52724e-05
-9.69367e-06
-4.55788e-05
-0.000563501
0.00140987
-0.001106
0.00050354
-0.000568828
-0.000663305
-7.02968e-06
-6.36283e-05
2.10185e-05
-5.08267e-05
-6.42316e-05
5.40955e-05
6.09627e-05
-4.90164e-05
2.93431e-06
0.000245407
-0.000199325
-0.000890775
0.000920099
0.000373874
-0.000403198
-0.000212016
0.00014292
-0.000850809
0.000919905
-0.00109517
0.000534806
0.000751873
-0.000135902
0.000450526
-0.000350893
0.000724456
0.0001292
0.000286414
-0.000152896
-0.000262718
7.34633e-05
-0.000453555
4.99083e-05
0.000330183
0.000635469
-3.8268e-05
8.12684e-06
-5.60575e-05
6.16699e-05
4.18637e-05
-4.74761e-05
0.00069398
-9.90532e-06
0.000316828
-0.0010009
-0.000157305
0.000202485
-9.41964e-05
2.64898e-05
1.22956e-06
8.89134e-05
-4.87695e-05
-1.01422e-05
4.96963e-06
-0.000943728
-8.10886e-05
0.00013533
0.000889487
-0.000985316
0.000480454
0.00101029
-0.000505426
0.000117587
-0.00045546
0.000575668
0.000573772
-1.62506e-07
-2.69481e-06
-6.57006e-05
0.000146959
0.000384866
-0.000466125
6.10012e-05
-0.0005384
0.000508215
-0.000476766
-0.000207261
0.000106511
-0.000116451
0.000768226
-0.000863044
0.000345022
-0.000209926
0.00029536
0.000358624
0.00122306
-0.000563016
0.000264609
-0.000924654
0.000446839
-7.47536e-05
-0.00025664
9.16487e-05
-3.11509e-05
-4.7475e-06
3.20858e-05
2.89971e-05
-5.63354e-05
2.83486e-05
-6.06528e-05
-1.62648e-05
4.85689e-05
-2.00567e-05
-5.94933e-05
2.64186e-05
5.31314e-05
-0.000413943
-3.1369e-06
-0.000437609
0.000262837
4.13656e-05
0.000289871
-0.000451764
0.000514339
-0.000352447
0.000484559
0.00110311
-3.84547e-05
-6.93004e-06
6.22025e-05
-0.000574984
-1.79274e-05
0.000798991
-0.000685733
0.000389169
-0.000502427
-0.000152072
-0.00080707
-2.8565e-05
0.000238422
0.000505626
-0.000528974
-0.000703969
0.00156211
0.000364924
-3.68418e-05
-0.00115018
0.00131465
-0.000127633
-2.75608e-05
0.000114871
0.000115463
-0.000168665
0.000151648
0.00017346
0.000372149
-0.000273129
-7.98908e-05
-0.000483125
0.00134973
-0.000550882
-0.00150282
0.000362226
-0.00045401
7.34954e-05
1.38152e-05
0.000345306
-7.01501e-05
5.70205e-05
-4.2814e-05
0.000606341
-6.89216e-05
-0.000322474
0.00039265
-1.25448e-06
6.99046e-05
-0.000159596
-5.17003e-05
0.000277974
2.87768e-05
0.000686464
-0.000636794
-0.000520839
0.000471169
0.000685578
-0.000872922
0.000646532
-0.000459188
-0.000175288
9.53977e-05
0.00021139
0.000613857
-0.000470384
0.000322307
0.00106818
0.000305894
-3.40161e-06
0.000498731
-0.000279215
-0.000219516
0.000589134
-0.000848129
-0.000271721
0.000101008
-3.6548e-05
-0.000478488
-0.000136037
8.6454e-05
0.000528072
0.000214931
0.00038579
-0.000423526
0.000710975
-0.000212244
-0.000120293
7.41666e-06
0.000140014
0.000490015
-0.000701706
0.000234735
-0.000138526
8.68524e-05
-0.000183061
-8.35184e-05
0.00019123
4.96218e-05
-0.000157334
0.000283535
-0.000132318
7.24391e-05
0.000333806
-0.00012271
-0.000225985
2.7631e-05
0.000250548
-5.2194e-05
3.76846e-05
0.000347817
-8.20462e-05
6.19915e-06
0.000189291
0.000152327
-5.14251e-06
0.000256749
-1.18408e-06
0.000198526
-1.29406e-05
9.49551e-06
1.32079e-05
-9.76279e-06
-0.000122097
-7.33885e-06
0.000146839
-1.74029e-05
1.82668e-05
-0.00019454
0.000182901
-6.62714e-06
-4.8132e-06
-0.000103023
-1.42612e-05
-1.22229e-05
2.77958e-05
2.99656e-05
-4.55386e-05
-3.42539e-05
2.9626e-05
9.11516e-05
-8.65237e-05
1.82166e-05
-7.23336e-05
-0.000261346
0.000972321
-4.35233e-05
2.58548e-06
2.87149e-05
5.78329e-05
-9.20868e-05
-5.14405e-05
4.44141e-05
2.52431e-05
9.35949e-05
-3.33122e-05
-0.000531103
0.000104765
-0.000515957
0.000942295
-2.44188e-05
0.000115379
-0.00114629
-0.000213837
0.00113445
0.000225675
-5.5081e-05
2.31012e-05
6.23504e-05
-3.03706e-05
0.000579227
-0.000285543
-0.000824786
3.15923e-05
0.000147443
-0.000293313
0.000114892
0.000228968
-5.05473e-05
0.000123881
-9.70986e-05
-0.000128214
0.000101431
1.29364e-05
4.12525e-05
-1.70432e-06
-5.24845e-05
-5.45258e-05
0.000738518
-0.000500734
0.000477801
-8.74956e-06
7.75497e-05
-0.000236962
-0.000314312
0.000284133
0.00026714
0.000177898
8.39136e-05
0.000179253
-2.57736e-05
3.37131e-05
-0.000123232
2.86427e-05
1.07835e-05
-6.8689e-05
7.08545e-05
-0.000116849
0.000114683
-2.7252e-05
-5.31258e-06
-6.4534e-05
5.51945e-05
-9.11961e-05
1.37227e-05
6.71622e-07
-8.30833e-05
-0.000708801
-1.72503e-05
2.05788e-05
1.03942e-05
-1.34567e-05
7.06383e-05
2.07442e-05
-9.95891e-05
7.88514e-05
1.06566e-05
3.84065e-06
-2.59815e-06
-2.90599e-05
1.24534e-05
-2.1916e-05
-4.92141e-05
3.81895e-05
-2.03524e-05
-6.92106e-05
5.13735e-05
-4.84268e-05
5.09978e-05
2.70549e-05
3.26511e-05
-0.00020794
0.0011011
4.6849e-05
-0.00114795
0.000149176
-0.000167453
0.000248137
5.14996e-05
6.33326e-06
-6.04637e-05
-0.000106066
2.40818e-05
-7.63616e-05
5.22798e-05
0.000134221
1.65965e-05
-5.61882e-06
2.40501e-05
-4.00997e-05
4.11523e-05
-5.40929e-05
6.07217e-05
0.000103118
-0.000147243
0.000140367
-0.000142892
0.000141867
9.78316e-05
-9.05228e-05
0.000132495
0.000100019
-0.000170557
0.00017755
-0.000190068
0.00112103
0.000175081
-0.000237908
0.000204695
8.73314e-05
0.000144654
-9.94905e-05
0.000138222
-0.000232073
9.76318e-05
-3.78107e-06
-0.000118318
0.000257807
0.000136281
-0.00027577
9.71627e-05
-0.000130124
-4.52501e-05
3.45628e-06
4.17938e-05
0.00142467
-5.42588e-05
-3.42733e-05
1.32606e-06
4.24428e-05
4.44315e-05
-3.27918e-06
-5.76348e-05
5.07097e-06
9.33062e-05
-4.07423e-05
3.40879e-05
0.000282251
-9.2908e-05
-8.18643e-07
0.000153254
-9.64922e-05
0.000138485
-3.56741e-05
1.13254e-05
-1.39667e-06
0.000103338
-0.000126885
0.00015501
-0.00020339
0.000173315
0.000113909
-7.22935e-05
0.000126774
-2.21947e-05
-0.000140866
0.00015531
1.31866e-05
1.01844e-05
3.22335e-07
-8.1169e-06
7.06171e-06
8.63324e-06
-7.57805e-06
1.50567e-05
-0.000118238
5.52383e-06
-5.7183e-05
0.000165592
-0.000105533
0.000162446
8.02743e-05
-0.000133976
9.89826e-05
4.44227e-05
1.3589e-05
6.87624e-05
2.43217e-05
-5.4915e-07
3.45936e-05
-7.63284e-05
-0.000333374
4.58452e-05
0.000363857
0.000291255
-7.01278e-05
-0.000244389
2.32613e-05
0.000134923
0.00017837
-0.000100148
-0.000213144
0.000132119
0.00107087
-0.000357156
-0.00087919
-8.27939e-05
0.000342567
3.14824e-05
-0.000159018
0.000223812
0.00112366
0.000251621
-8.13202e-05
3.73657e-05
8.83772e-05
-1.92758e-06
3.41793e-05
-5.18327e-05
2.59779e-05
0.000331749
-9.96794e-05
-0.000104222
4.48835e-05
0.000489082
-9.88268e-06
-9.67375e-05
-1.97803e-05
1.00761e-05
0.000165014
-0.000284035
-9.33529e-05
-0.000190475
-2.64704e-05
0.000209606
4.386e-05
0.000502612
-0.000405894
-0.000140578
-2.33961e-05
0.000254163
0.000699027
-0.000287229
-4.01471e-05
0.000269561
5.78145e-05
-0.000151525
0.000433137
-0.000446129
-0.000200205
0.000494808
-0.000143606
0.000118084
-4.61501e-05
-0.000177467
-0.000193253
-0.000420174
-0.000124633
0.000475886
-0.000833974
0.000946502
0.000228448
0.000128342
9.1901e-05
-3.32076e-05
0.000299967
-0.000297783
4.16753e-05
0.000229879
-7.3795e-05
-0.000171297
1.52129e-05
0.000284656
-0.000143637
-1.05031e-05
-2.91145e-06
-0.0010852
0.00104836
0.000275641
8.63249e-06
0.000218338
0.000123688
-3.04785e-06
-2.81728e-05
3.1543e-05
0.00070874
0.000715715
0.00020327
2.63899e-05
-0.000945375
-2.81281e-05
0.000121189
0.000352593
5.71483e-05
1.23379e-05
5.02796e-06
-1.03041e-05
-2.87516e-05
0.000493404
-0.000460773
-3.87939e-06
-0.000847799
0.000709167
7.41224e-05
-0.00012284
7.65102e-05
6.88303e-07
-6.21418e-05
2.19607e-05
-9.89542e-07
4.53296e-05
-7.43325e-05
6.1654e-05
8.6649e-05
0.000387938
-3.13119e-05
-2.41344e-05
7.95281e-05
0.00108151
1.95925e-05
1.93192e-05
6.21783e-05
-2.11769e-05
-0.000174111
-0.000258049
0.000274398
-3.75261e-05
-0.000897474
0.000574494
-0.000683992
-4.127e-06
-0.000771232
-0.000465114
-0.00063407
0.000909927
-0.000101281
5.57576e-05
0.000151435
-0.000231419
-1.06535e-05
-0.000185141
9.25981e-05
-0.000910996
0.000470932
-9.09894e-06
-0.000967699
0.000671047
-0.000600822
2.2732e-05
-3.99224e-05
0.000693788
-0.000676597
0.000233365
0.000277529
3.20004e-05
-0.000357751
4.8222e-05
-1.89762e-05
6.00504e-05
-2.97758e-05
1.81958e-05
-2.20815e-05
-3.69158e-06
-0.000230923
7.76772e-05
-1.88072e-06
0.000144634
0.000405336
-0.000591481
1.08948e-05
0.000422888
6.77442e-05
-9.59011e-05
-0.000561829
-0.000678374
0.00124202
9.55404e-05
-7.83981e-05
0.000527031
8.40942e-05
0.00058779
-0.000549083
-0.000122801
-0.000100896
0.000147947
-0.000990779
-3.65137e-05
1.96764e-05
0.000543869
-0.000514107
0.000163808
-0.00017834
0.000184554
-0.000170022
0.00148656
-0.00093069
0.000351405
-0.00090727
0.000443331
5.28728e-05
-0.000447267
-4.98546e-05
0.000772649
-0.000574306
-0.000360426
0.000162084
0.000243067
-0.000208335
-0.000179612
0.000631364
-0.000369294
-0.000388967
-4.17105e-05
-0.000180913
0.000255371
0.000111739
-0.000186197
-0.00120954
3.62321e-05
0.000107732
0.000816223
8.92633e-05
0.000208129
-0.00111362
0.000227214
2.40676e-05
0.000106381
-1.74677e-05
2.83724e-05
0.00047111
-0.000905346
0.000568843
-0.000156849
-0.000263751
0.000140634
0.000279966
-0.000353948
0.000661037
-0.00066701
0.000688203
-0.000445498
0.00050484
4.83889e-05
0.00114561
-0.00114715
-0.000123782
-0.000262893
0.000935046
-0.000926579
-0.000322437
0.000543763
-0.000444104
0.00097117
-0.00100383
0.00092167
-0.000906305
-0.000365532
-8.31749e-05
1.3187e-05
-0.000192463
0.000111508
0.000154451
-5.70022e-06
0.000188973
4.66058e-05
-0.00010726
-5.18334e-05
-0.000104763
0.000118921
0.000148288
-0.000181011
-0.000387828
0.000204276
-0.000113075
-0.000772528
-0.00018163
0.000675629
-0.000794502
-0.000465247
-0.000579113
0.000822967
0.000783586
-7.42786e-05
-0.000166587
6.49945e-05
-0.000889383
3.56178e-05
-9.95839e-05
9.52001e-05
-0.000880357
9.77683e-06
1.51142e-05
0.000850804
-0.000875695
-2.34365e-05
4.55065e-05
0.000728905
-0.000774411
-0.000233849
7.58299e-05
-0.00017675
0.000614721
-0.000227227
-0.000135845
-6.39827e-05
-0.000572937
-0.000235743
0.000414613
-0.000424749
-4.59551e-05
0.000815019
-0.000770425
-0.000695731
-0.000843831
0.000975914
0.000563648
4.17881e-05
-2.63828e-05
0.00091964
0.000147737
0.00022107
0.00098008
-0.00103547
0.000699062
-0.00010066
-0.00105832
0.00110296
5.60187e-05
-0.00113882
-1.50537e-05
7.05603e-05
-6.59264e-05
-0.000558678
-0.000215642
0.000574115
7.44287e-05
-0.000485409
-0.000151475
0.000512251
-0.000363061
-4.53953e-06
-0.00103861
-0.000488352
0.000472117
0.000145435
-2.67882e-05
-2.70974e-05
7.98635e-05
-0.000536768
-0.000202921
-8.79552e-05
-0.000699139
-3.48869e-05
0.000734026
1.6836e-06
-9.86874e-07
-6.31265e-06
0.000277826
-0.00127654
-5.41416e-05
0.00105286
-0.000439861
1.05703e-05
-1.01758e-05
-7.14239e-06
0.000532533
-0.000515215
-4.77755e-05
2.29135e-05
-0.0009505
-5.1145e-05
2.55442e-05
-7.86208e-05
-4.84359e-05
-1.82678e-05
2.89135e-05
0.000619757
-0.000338264
0.00012243
0.000268379
0.000351719
0.000171298
-1.27683e-05
5.77514e-05
0.000154952
-0.00041789
-5.5781e-05
0.000128081
-0.000226593
9.7557e-05
-0.000107401
0.000144939
3.24077e-05
3.80879e-05
-1.12493e-06
-8.19209e-06
3.77075e-05
-3.64455e-05
-0.000218142
0.000311333
-8.3254e-05
-9.93663e-06
0.000863802
-0.000822267
0.000583488
4.33121e-05
0.000195467
-3.878e-05
0.000192397
-2.94941e-05
2.96561e-05
-1.25177e-05
8.3272e-06
-6.86913e-05
1.4214e-05
1.25385e-05
-2.89761e-05
1.64376e-05
-6.56904e-05
4.75191e-06
-5.49555e-05
3.40136e-05
2.09419e-05
-6.50071e-05
5.83335e-05
6.67358e-06
-3.89838e-05
-0.000297942
-5.21786e-05
4.65816e-05
5.59692e-06
3.19884e-05
-0.00110854
0.00117769
-0.000486952
-0.00151552
-1.10686e-05
2.36071e-05
-7.15805e-05
0.000193718
0.00012225
-3.84392e-05
-7.86317e-05
2.36762e-05
5.43958e-06
0.000689597
-0.000672508
-0.000232731
2.29451e-05
6.15495e-06
5.00419e-06
-0.000320504
-0.000199642
-0.000194166
0.000282814
0.000152262
4.97094e-05
-7.60453e-05
4.46484e-06
-0.000203659
0.000178988
-1.32617e-05
-0.000431491
5.05652e-05
0.000441927
-8.29996e-05
7.67657e-05
0.000705765
-8.68426e-05
-3.93398e-05
7.85343e-05
0.000659868
0.00110005
-0.000839656
0.000699028
7.12316e-05
0.00044177
-0.000331792
1.37104e-05
-2.6835e-05
-0.000110327
0.000119276
0.000115898
-0.000173816
-6.13583e-05
-0.000113187
-8.77534e-05
-0.000470324
2.97653e-05
-0.00062635
-0.000152697
0.00010634
0.000672707
0.000928757
-2.12294e-05
-4.1902e-05
7.1786e-05
-1.09779e-05
-2.87223e-05
6.72475e-05
-5.04504e-06
0.000212046
-0.000402073
-0.000305101
-8.16007e-05
-2.27234e-05
0.000226574
-0.000170886
0.000180007
-4.01981e-05
-0.00010774
7.92466e-05
6.57849e-06
-0.000364118
-0.000636472
0.000579009
0.000865247
6.82225e-06
-0.000121259
-1.15747e-05
-0.000668902
0.000448009
-2.87474e-05
-0.00030082
0.000272299
-0.000210031
0.000341779
-0.000169638
0.000196984
-0.000104449
7.71029e-05
4.94948e-06
1.52517e-05
-6.07225e-06
-0.000147858
0.000124043
2.3815e-05
4.89581e-05
-5.44612e-05
5.50314e-06
-9.06489e-06
-8.70914e-05
7.16031e-05
-0.000102212
0.000627526
0.000247335
-3.14886e-05
7.61822e-05
0.000125504
-0.000108092
-0.000296378
0.000312142
-6.21127e-07
-0.00111685
-4.80162e-05
0.000129397
0.00121824
-0.0011612
3.81833e-05
-4.23057e-05
3.39073e-05
0.000106501
-7.5582e-05
0.000123565
0.000427688
6.89058e-06
-1.41761e-05
0.00042535
-0.000286311
-0.00039469
2.86027e-06
-0.000797637
-0.000460376
-0.000262621
-0.000141664
5.69249e-05
-0.000327806
4.65714e-05
-2.95158e-05
-4.67448e-06
-1.23811e-05
5.47849e-06
0.000114363
-5.84677e-06
6.37981e-05
-0.00017381
-0.000335324
0.000110931
0.000500155
-3.95089e-05
1.05328e-05
-8.98454e-05
-0.00101659
-3.69818e-05
6.51634e-05
-5.16226e-05
-4.03274e-05
-6.08782e-06
-0.000191128
-9.29778e-05
0.000259972
-9.07477e-05
0.000305419
-0.00033493
4.33874e-05
-0.000113869
1.39082e-05
2.09812e-05
-8.60344e-05
-0.00012863
0.000564649
-2.5684e-05
3.30877e-05
-0.000195594
-0.000231881
-0.000776235
0.000989679
-0.000710921
0.000357722
-0.000490631
7.20753e-05
0.000824246
-0.000134268
0.000166452
7.43271e-05
-4.99534e-05
-4.48317e-05
3.11567e-05
9.14307e-05
-9.73288e-05
5.99936e-05
6.87166e-05
-1.20895e-05
-0.00013096
0.000724171
-0.000202974
-0.000700809
0.000214555
0.000120728
0.00016901
2.11762e-05
2.77819e-05
-0.000111183
0.00118204
1.33983e-05
-0.000119263
-0.000633612
-9.48446e-06
-0.000928669
0.000572782
-1.73208e-05
0.000160355
-2.18495e-05
0.000198807
-6.1582e-05
-8.46078e-05
0.000201602
3.22041e-05
1.49372e-05
2.66926e-05
0.000542
7.32799e-05
-0.000203698
0.000347792
8.39413e-05
-9.87177e-05
-6.25401e-05
-0.000275784
7.19253e-05
7.986e-05
1.12689e-05
2.49096e-05
3.46759e-05
0.000405076
-0.000496609
-3.70972e-05
-0.000698197
-0.000521481
0.000443444
-4.46943e-05
7.90771e-05
0.000107112
-4.74385e-05
-2.54384e-05
5.87481e-05
-0.000236336
0.00014625
-7.97369e-05
0.000301337
-7.40735e-07
0.000131666
-8.65121e-05
7.90952e-05
-0.000129089
7.07277e-06
-4.20204e-06
0.000799182
-0.000469155
-0.000187108
0.000448004
-0.000265881
3.2722e-05
-0.000137255
8.76547e-05
0.000451141
-0.00118553
-0.000282201
-0.000164478
0.000299286
-0.000354284
-0.000125529
-0.000555792
0.000470635
-0.000159432
-6.05969e-05
2.76034e-05
-0.000487567
-0.000532331
-0.00124473
-5.58961e-05
2.61178e-05
-0.000176812
-7.65352e-06
8.43981e-05
-2.45989e-05
-5.21457e-05
0.00017216
-0.000149955
-2.3955e-05
0.000238065
-0.000262557
-0.000159828
0.000470878
-0.000376751
0.000155332
-8.08902e-05
-0.000476788
0.0010185
-0.000973274
3.85599e-05
0.000383185
-0.000248434
-1.40716e-05
5.83681e-05
-1.52993e-05
-1.60881e-05
4.67196e-06
9.42456e-06
-0.000138849
-0.00147611
-0.000822427
-0.00038221
0.000313606
9.68467e-05
-2.54098e-05
1.57514e-05
-0.000125657
-2.82431e-05
-5.5323e-06
-6.05859e-08
-0.000192615
-2.4964e-05
-1.191e-05
-7.91156e-05
-0.000556597
0.000569014
-0.000503112
0.000563289
5.72477e-06
-0.000499853
0.000438017
6.18356e-05
-0.000440747
-6.23659e-05
-2.72939e-06
-0.000687556
0.000688411
-0.000552356
0.000567104
-1.47484e-05
-0.000507978
-0.000637535
-5.0021e-05
0.000661383
0.000634586
2.67965e-05
-0.000564895
-0.000429312
0.000493405
-0.000446302
-4.71035e-05
-0.000333257
-9.60554e-05
-0.000241015
-9.22422e-05
0.000180855
-0.000137089
-6.01598e-05
0.000621324
1.32626e-05
0.000638907
-1.75833e-05
0.000658391
1.37154e-06
0.000533657
-0.000373424
6.75217e-05
-2.74221e-07
-8.42973e-05
-0.000168854
8.31294e-05
-0.000239411
0.000146704
4.85936e-06
-7.39631e-05
0.000142287
-0.000236917
-0.000690153
0.000190749
-2.2282e-05
7.1927e-05
0.00045857
-0.000585908
0.000151459
-0.0001919
0.000138643
0.000140043
0.000102587
2.14565e-05
-0.0008432
-3.88342e-05
-3.41763e-05
0.000126485
-7.68863e-05
9.84069e-05
-0.000795879
-0.000193895
-0.00149954
0.000543287
0.00028215
-0.000222983
-2.57026e-05
0.000652303
-3.27633e-05
5.31635e-05
1.20578e-05
-6.09717e-06
0.00106267
-0.00126797
7.85004e-05
2.74919e-07
-7.87753e-05
0.00126439
3.42897e-05
6.2661e-05
0.000227221
-0.000134705
2.06092e-05
2.73051e-05
0.000232051
0.000781338
-0.000793563
-0.00019075
-0.000198662
-4.59673e-06
-0.00037198
0.000203585
0.000694941
0.000809136
-0.000813886
5.23821e-05
-3.03651e-05
7.03805e-05
-9.62909e-05
0.000277356
-0.000164608
0.000173666
-0.000526871
-0.000790856
-0.000213804
-6.78095e-05
0.000174343
-7.66501e-05
0.000126204
-0.000223897
0.000237033
0.000223828
-0.00021771
9.04676e-05
-7.61502e-05
-7.13954e-05
-0.000215109
0.000554145
0.000114174
-8.6668e-08
-1.22321e-05
-1.20481e-05
3.68162e-05
0.000166272
0.00029112
-0.000415053
-4.28085e-06
-0.000129956
0.000684375
0.000587742
-0.000195929
-0.000103906
-0.000524475
-0.000611291
0.000601408
-0.000173993
9.51498e-06
-0.000736827
0.00054365
-0.000157716
-0.000338538
0.000196452
6.18423e-06
0.000139897
0.000354326
-0.000513767
-7.0402e-05
0.000212434
3.47492e-05
-0.000103006
0.000112622
-0.000583493
1.23127e-05
-3.78484e-05
-2.47122e-05
0.000397536
0.000118629
0.000415963
0.000435055
-0.000135408
0.000131065
0.000449673
-0.000483381
-7.91017e-05
1.72081e-05
-3.42804e-06
-8.8104e-06
-0.000143518
-6.19782e-05
1.52026e-06
-0.000488698
-0.00135564
0.00112044
0.000235606
-0.000135123
0.0006987
0.000201017
6.77695e-05
5.52137e-05
5.34845e-05
-0.000193798
0.000267124
-3.25556e-05
1.16354e-05
3.58574e-05
4.84879e-05
-6.43712e-05
-9.13764e-05
5.58815e-05
-6.05028e-05
0.000123542
0.000766294
0.000502515
-0.000404114
-3.69926e-05
0.000236593
-0.000173118
-0.000339258
-0.000147422
0.000232272
-0.000245093
5.73819e-05
-0.000128704
7.15393e-05
0.000256522
-0.000323815
-4.24676e-06
-8.69008e-05
-4.5204e-05
2.42909e-05