/*--------------------------------*- C++ -*----------------------------------*\
| =========                 |                                                 |
| \\      /  F ield         | OpenFOAM: The Open Source CFD Toolbox           |
|  \\    /   O peration     | Version:  v1912                                 |
|   \\  /    A nd           | Website:  www.openfoam.com                      |
|    \\/     M anipulation  |                                                 |
\*---------------------------------------------------------------------------*/
FoamFile
{
    version     2.0;
    format      ascii;
    class       volVectorField;
    location    "0.79";
    object      U;
}
// * * * * * * * * * * * * * * * * * * * * * * * * * * * * * * * * * * * * * //

dimensions      [0 1 -1 0 0 0 0];


internalField   nonuniform List<vector> 
1466
(
(-0.208891 0.23593 0)
(0.118675 -1.7642 -1.11404e-16)
(-0.858589 -0.00826777 -1.51146e-16)
(-0.0234593 0.699361 1.65479e-16)
(0.80585 -0.1102 -6.32973e-16)
(1.90438 0.142874 -4.02146e-16)
(0.162116 -0.0976747 3.14364e-16)
(-0.457141 -0.330667 4.44818e-16)
(-0.683136 1.42681 1.44439e-16)
(0.21411 0.00915652 8.76792e-16)
(-0.172688 -0.0218956 -1.71788e-16)
(0.477543 0.231241 1.72649e-16)
(-0.0617558 -0.0554344 1.06208e-17)
(0.38252 1.09344 -1.22092e-16)
(1.09797 0.141837 -2.56902e-18)
(0.0481619 0.530714 -2.70067e-21)
(-0.462681 0.126501 7.30562e-17)
(-0.0546352 0.161187 -1.87068e-16)
(0.816222 0.0566792 -1.66857e-16)
(0.139479 1.05017 0)
(-0.0599516 -0.0130389 1.59903e-16)
(0.147971 0.0340004 -3.81737e-16)
(0.970083 0.0085822 0)
(-0.200818 -1.58886 7.1592e-17)
(0.487107 1.06956 -1.79823e-16)
(-1.08786 -0.0923225 1.5661e-16)
(-1.06734 -0.0151854 1.5899e-16)
(0.701691 0.205752 3.10526e-16)
(0.166608 0.0912808 0)
(-0.764964 -0.0861484 4.31583e-16)
(0.292266 -0.47802 0)
(0.896337 0.257035 7.74006e-16)
(0.36429 0.0418904 -3.30793e-16)
(-0.84362 0.0216468 -1.07168e-16)
(-0.434246 -0.0206121 0)
(0.847125 0.122 2.7768e-17)
(-0.369757 0.0487436 4.75863e-21)
(1.0097 -0.0311742 0)
(0.629101 1.36174 -4.97426e-16)
(0.184029 0.0252174 3.40985e-16)
(0.499976 0.181255 -1.83882e-16)
(0.521319 0.226558 -1.95155e-16)
(-0.538792 1.01469 -4.35823e-16)
(-0.524322 -0.231818 2.45882e-18)
(0.728024 0.128821 0)
(-0.563005 0.666481 -2.20289e-19)
(0.847377 -0.0549146 -1.72068e-16)
(0.0155234 -0.041538 1.36546e-16)
(0.550641 0.167796 -2.72994e-16)
(-0.0346909 -0.0456923 -8.97327e-17)
(-0.891521 -0.0414034 0)
(0.16764 0.0141792 -3.5131e-16)
(0.601577 -0.210977 4.3832e-16)
(1.88097 0.0145427 4.05229e-16)
(-0.0594368 -0.0522911 4.47563e-16)
(0.428654 0.190214 -1.38579e-16)
(1.05075 0.010379 0)
(-0.341424 0.463069 2.95729e-16)
(0.237538 0.0809241 1.55227e-17)
(0.434242 0.141925 0)
(0.0986196 0.705487 -2.53211e-18)
(-0.893237 0.012272 1.09091e-16)
(0.735262 -0.30478 1.39724e-16)
(1.70831 0.049067 -4.11345e-16)
(0.40809 -1.49255 1.9459e-16)
(0.090664 1.01801 -3.71677e-17)
(0.415577 0.233735 -4.1855e-17)
(-0.089049 0.0283496 -2.08617e-16)
(0.00515463 0.614073 -1.4565e-17)
(-0.0408297 0.0168338 0)
(-1.00922 -0.185498 0)
(-0.00388788 0.587789 -7.38398e-17)
(1.00633 -0.0292889 -5.07778e-16)
(-0.11403 0.374064 -2.55469e-16)
(0.883039 -0.00371469 3.71323e-17)
(0.401314 -0.00677302 -2.16975e-16)
(-0.0956006 0.247554 6.07608e-17)
(-0.00403517 0.304041 2.26432e-16)
(0.23533 0.0317515 0)
(0.29101 0.104622 0)
(-0.921722 -0.0677939 -3.29723e-17)
(-0.196578 0.29459 2.56411e-16)
(1.04154 -0.00033409 0)
(0.579409 0.0986563 1.69336e-18)
(0.94577 -0.108487 1.88214e-16)
(0.0475648 -0.116347 -1.01826e-16)
(0.909964 -0.173112 -2.46706e-16)
(0.501349 -1.09436 1.43665e-16)
(-0.0290852 0.733308 -3.96804e-17)
(-0.626538 -0.421381 6.89846e-18)
(-0.0535204 0.771203 1.19819e-16)
(-0.594803 -0.0538955 0)
(0.0798787 0.0630301 -7.19622e-17)
(0.0268179 0.687348 2.26822e-16)
(-0.865422 -0.0220499 0)
(-0.360189 -0.0163477 -2.09937e-16)
(-0.539715 -1.39667 6.09691e-16)
(0.376335 0.134656 0)
(-0.777415 -0.902831 1.47084e-16)
(-0.0314718 0.851785 -1.85398e-16)
(0.0428086 0.00607252 0)
(0.681032 0.255521 -9.79215e-17)
(-0.824264 -0.0264899 4.00725e-16)
(-0.0929753 -0.379291 -1.69632e-16)
(0.981686 -0.0150545 0)
(-0.567467 0.889925 -2.70695e-16)
(-0.130304 0.0669239 1.89628e-16)
(1.0107 -0.0184326 -7.36709e-18)
(-0.531419 -0.861198 5.33838e-17)
(0.737656 0.81058 6.31249e-18)
(0.172247 0.0159258 2.1508e-17)
(0.406847 -0.224271 5.0555e-16)
(0.745696 -0.153424 -3.42161e-16)
(0.961445 -0.0600668 -9.81068e-20)
(-0.0548167 -0.137229 -2.1324e-17)
(-0.708664 2.3177 0)
(0.195959 1.06295 -8.22548e-17)
(0.258513 1.13023 5.7998e-16)
(-0.664284 -0.566399 3.38096e-17)
(-0.317656 0.4455 -4.23912e-16)
(-0.412001 0.0539272 1.96834e-16)
(-0.206691 0.325267 0)
(0.0624688 0.422383 -7.92545e-17)
(0.462598 -0.932791 -7.62903e-17)
(0.0137 0.655756 3.19189e-16)
(0.0147908 0.24203 -1.2646e-16)
(0.031416 0.0492169 3.04258e-17)
(-1.33335 -0.766393 0)
(0.0685622 0.103514 6.89713e-17)
(-0.382539 1.20813 -2.71454e-16)
(0.643098 -0.117187 1.23652e-16)
(-0.0526765 0.186381 -1.74942e-20)
(-0.700827 -0.213772 2.39393e-17)
(0.397343 0.265197 -6.74845e-17)
(-0.794526 -0.0947359 -9.86693e-18)
(0.164126 0.0729271 1.72908e-16)
(0.525868 0.261965 0)
(0.830519 -0.277259 0)
(0.824679 0.0382418 3.79318e-17)
(-0.158702 -0.121192 1.04095e-16)
(0.157157 0.00267645 -1.14598e-16)
(-0.633898 -0.0327597 -1.65413e-16)
(0.0424872 0.17995 7.88554e-17)
(0.160293 0.0213594 -4.87575e-16)
(0.781418 0.0778764 1.50088e-16)
(0.165401 0.270496 0)
(0.174541 -0.24327 0)
(-0.849926 -0.579556 0)
(0.264114 0.233219 7.65263e-17)
(0.986988 -0.0594133 2.43943e-16)
(0.0465943 0.159069 -1.5781e-16)
(0.105361 0.173709 4.65285e-18)
(-0.590086 -0.277543 1.32605e-16)
(-0.127858 -1.61061 -2.15283e-17)
(-0.088828 0.674608 -2.09399e-16)
(-0.610291 -0.0576387 -7.42023e-17)
(-0.00319779 0.563546 -4.12105e-16)
(0.0357835 -0.94383 1.70585e-16)
(0.130608 0.161781 -8.07396e-17)
(-0.781826 -0.510567 0)
(0.721718 0.210942 1.17172e-16)
(0.0240604 0.933923 -2.48851e-17)
(0.238649 -1.19033 2.74212e-16)
(-0.384563 0.0175417 1.92136e-16)
(0.638678 0.293458 -5.03837e-18)
(0.0805262 0.0481984 -1.71614e-21)
(-0.0721752 1.03986 0)
(-0.301538 -0.00905997 1.01056e-16)
(0.183278 1.02202 4.77351e-18)
(-1.10922 0.0404528 2.78259e-16)
(-0.240615 -0.108235 2.69912e-16)
(0.109284 -0.161071 2.63888e-16)
(0.0971846 0.101231 0)
(0.13226 0.210681 9.82543e-17)
(-1.14644 -0.0472178 -6.23324e-16)
(0.208158 -1.59999 1.69836e-16)
(0.605902 0.311326 1.64281e-16)
(0.281602 0.0829189 -2.50094e-17)
(1.06572 0.260221 -1.32248e-16)
(0.157335 0.0708223 2.47539e-17)
(-0.0451592 0.413951 -2.26533e-16)
(0.790404 -0.0335631 2.11975e-16)
(0.605669 -0.114944 -3.08407e-16)
(0.105517 0.928403 -5.36695e-16)
(0.432121 -1.33354 -3.68102e-16)
(0.343643 1.05966 5.62149e-16)
(0.760852 -0.0472354 0)
(-0.51257 2.59076 0)
(0.812376 0.0173299 -5.22386e-17)
(-0.817869 -0.900164 0)
(0.351612 -0.259096 0)
(0.073494 0.481938 1.36171e-16)
(0.0482349 0.971348 2.12647e-17)
(0.371511 -1.38997 -7.40736e-17)
(0.84038 -0.0340261 6.96466e-21)
(-0.0100427 0.423513 0)
(0.856305 -0.000595345 -4.98058e-17)
(0.847148 0.577323 -1.30101e-17)
(0.844193 0.691949 -1.24735e-17)
(0.67447 0.904608 -5.91944e-18)
(0.166516 -0.718251 -9.53298e-17)
(-0.16036 -0.135149 3.2642e-16)
(0.98972 -0.019475 -6.05761e-17)
(0.179388 1.03882 2.53182e-16)
(0.199683 0.281839 0)
(0.614996 0.191141 3.60874e-16)
(0.765614 -0.0424215 1.62602e-16)
(-0.717473 0.436738 1.35766e-16)
(0.864967 0.28212 4.89306e-17)
(0.509459 0.211242 1.09695e-17)
(0.67634 0.391121 5.28399e-17)
(0.130388 -0.91862 2.1452e-19)
(-0.0465279 -0.03103 -1.16025e-16)
(0.757594 -0.214057 -1.0526e-19)
(-0.719484 -0.704157 -7.60243e-17)
(0.777899 -0.0338222 2.69564e-17)
(-0.844732 -0.21135 -8.02734e-17)
(-0.212942 0.00609898 0)
(0.181252 1.16362 0)
(-0.058093 0.539742 -2.27547e-21)
(-0.490985 -0.0183613 1.39516e-16)
(-0.374799 0.0356324 0)
(0.143484 0.935498 6.14022e-17)
(0.791396 -0.101903 3.71833e-17)
(0.0482066 0.202051 -5.43044e-17)
(0.678196 -0.145404 0)
(0.472675 0.849553 8.02755e-17)
(0.166418 0.592256 1.28177e-16)
(-0.406977 0.0935156 2.85509e-18)
(-0.391581 1.27318 -3.79535e-16)
(0.754188 -0.32718 2.64897e-16)
(0.429064 -0.909085 0)
(-0.158971 0.479847 -1.34435e-16)
(0.42031 -0.0496838 1.6313e-20)
(1.07688 0.0496347 0)
(0.406701 0.507546 0)
(0.573571 -0.147299 0)
(-0.694797 -0.20031 -5.85158e-16)
(0.646703 -0.221546 -1.1725e-16)
(0.546976 0.923833 0)
(-0.579205 1.36007 1.50336e-16)
(0.608372 -0.211047 3.27849e-16)
(-0.536536 -0.0665024 -3.92485e-17)
(0.559619 0.269173 -7.84575e-16)
(0.59206 0.306429 0)
(-0.388063 0.0379555 -1.79709e-16)
(-0.89588 -0.0681699 -5.14063e-19)
(-0.631095 -0.00576452 3.3843e-16)
(-0.287283 0.0014658 0)
(-0.488028 0.040392 -5.55798e-18)
(-0.136065 0.503008 -8.32938e-16)
(0.0821155 0.375996 -9.7509e-17)
(0.632128 0.0969958 -1.37173e-16)
(0.497081 -0.764726 4.70843e-16)
(-0.129342 0.442962 0)
(0.134811 0.309905 1.67929e-16)
(0.621189 0.664655 -1.22256e-17)
(0.0971968 0.829394 -6.33077e-17)
(-0.414999 2.5981 9.92599e-17)
(0.283117 -0.00960324 -1.33149e-16)
(0.675746 -0.259736 -1.12452e-19)
(0.818858 -0.152641 2.61641e-16)
(0.157562 0.330217 -5.12373e-20)
(-0.748231 -0.422815 -2.47372e-17)
(1.67898 0.1647 -1.95939e-16)
(1.06778 0.0775346 -2.55242e-16)
(-0.747177 1.53768 9.6401e-17)
(0.251536 -0.45409 1.68038e-19)
(-0.170077 -0.241796 -6.90592e-17)
(-0.0409749 0.541748 -6.19824e-17)
(0.419822 0.14903 -9.83342e-17)
(-0.0796881 0.399519 6.95751e-17)
(0.753468 -0.37809 2.91685e-17)
(0.266316 0.498739 3.12911e-18)
(0.91065 -0.112559 -3.92672e-16)
(0.32607 0.121333 6.51097e-17)
(0.427568 -0.561855 1.41858e-16)
(-0.0253226 0.337651 0)
(-0.950964 -0.735128 -5.38848e-18)
(0.597361 0.264615 2.12648e-16)
(0.649725 0.618563 2.68284e-17)
(-0.302554 0.0181822 0)
(-0.579999 0.0233629 -3.18571e-20)
(-0.0731112 -0.00815267 5.18709e-18)
(-0.450715 -0.270514 -9.10198e-17)
(0.698434 -0.328064 -9.3992e-17)
(-0.115455 0.325454 0)
(-0.473287 -0.0737309 0)
(-0.817447 0.370022 2.56733e-16)
(-0.210852 -0.000511337 1.42546e-16)
(0.588321 -0.18299 -2.14555e-16)
(-0.778756 1.74276 -4.56413e-17)
(-0.161749 0.384806 -4.29843e-17)
(0.336203 0.0183115 0)
(0.613967 -0.0154516 -1.86527e-16)
(-0.301682 0.134287 0)
(-0.400655 2.34458 6.67091e-17)
(-0.326067 1.43088 2.07226e-19)
(-0.0928284 0.113486 0)
(0.0737147 0.332272 -2.21004e-16)
(-0.00702248 0.179981 -6.62229e-17)
(0.14287 -1.04531 3.55834e-16)
(0.0523659 0.0445719 -4.31681e-17)
(-0.0354988 0.335715 8.14224e-17)
(0.979088 0.218018 2.47114e-16)
(0.0768823 0.25885 -4.14182e-16)
(0.224691 0.122555 -1.70322e-16)
(0.58036 -0.0539366 -1.35732e-16)
(-0.223629 0.00329973 5.24445e-18)
(-0.0951866 2.17392 2.00936e-16)
(-0.647389 1.5323 2.97837e-16)
(-0.795477 -0.00290215 3.8896e-17)
(-0.379054 -0.0761062 -1.34381e-16)
(0.256664 0.283198 -2.50963e-16)
(0.641049 -0.00802502 6.74343e-17)
(0.077575 -0.215075 -2.50763e-17)
(0.401412 -0.416524 -2.99543e-20)
(-1.1941 -0.0919966 1.58722e-16)
(0.738448 0.00185939 0)
(-0.0192904 0.0850842 -4.04833e-17)
(0.590899 -0.114032 -3.06239e-17)
(0.159522 0.0990564 -1.83799e-16)
(0.509324 -0.104001 5.75019e-16)
(0.701212 0.043722 -1.70694e-16)
(0.0774114 0.0928274 1.81574e-16)
(-0.814726 0.0996141 -1.19421e-16)
(-0.56122 -0.020052 2.00913e-17)
(-0.940203 -0.0893782 0)
(-0.311465 -0.0646776 0)
(-0.663248 0.0346077 -1.4518e-16)
(0.61256 0.032812 0)
(0.910066 -0.014144 3.53239e-16)
(-0.491159 -0.0521266 1.90637e-17)
(-0.694023 -0.0211235 0)
(0.249695 0.0806751 -1.20646e-17)
(0.8063 0.0184896 0)
(0.176191 -0.0844547 -4.91299e-17)
(-1.06213 -0.0680404 -1.12059e-16)
(0.493659 -0.089091 -1.50018e-17)
(-0.697328 0.00664581 1.49395e-16)
(0.730782 0.0326648 0)
(0.819366 -0.0356697 -2.66717e-16)
(-0.370598 0.0929996 0)
(-0.606974 0.00600605 0)
(-1.01253 0.0434223 -1.24227e-16)
(-0.803021 -0.057193 0)
(0.793248 -0.0613295 -7.96223e-17)
(0.531524 -0.076649 8.36446e-17)
(-0.0239641 0.20457 1.08292e-16)
(-0.830234 0.460138 -2.78581e-16)
(0.624115 0.0917405 5.39003e-17)
(0.607393 -0.314662 5.20127e-16)
(0.620868 0.188434 -5.33255e-17)
(0.385229 0.0633743 -4.27642e-16)
(0.468059 0.0102634 2.46402e-16)
(0.0385807 -0.120551 -4.64526e-18)
(0.256098 -0.607741 -3.82024e-16)
(0.161326 -0.12784 3.89106e-16)
(-0.127047 2.8801 6.46679e-19)
(-0.260193 0.307563 -1.9642e-16)
(-0.852865 0.299305 0)
(0.287485 0.141207 1.87638e-16)
(0.0716564 0.0660212 2.05406e-16)
(-0.679004 -0.0454873 -2.62896e-16)
(0.055187 0.177609 3.77293e-17)
(-1.02791 -0.0298437 0)
(-0.596222 0.00352903 -2.07861e-17)
(-0.398052 -0.0717909 -1.39814e-17)
(0.753024 -0.062865 1.25839e-16)
(0.852911 -0.0249326 0)
(-0.730843 -0.0230275 1.79158e-17)
(0.342588 -0.0556064 -8.87664e-17)
(0.684301 -0.0555259 -2.48213e-16)
(0.880064 -0.00153717 0)
(-0.646156 -0.00190566 -4.14527e-16)
(0.431584 0.0673021 0)
(-0.600633 0.120716 8.4735e-17)
(0.156574 -0.249478 -7.88955e-18)
(0.851791 -0.231508 3.47959e-16)
(-0.0254951 0.163615 -2.17645e-16)
(0.77838 -0.32733 2.52908e-17)
(0.130113 0.282449 -2.66529e-17)
(0.0991582 0.285342 -7.82273e-18)
(-0.773171 -0.0152428 -7.91078e-17)
(0.0527825 0.275501 -2.35362e-17)
(-0.212709 0.396731 3.77741e-16)
(-0.376146 -0.0786219 1.02108e-16)
(-0.437379 -0.233293 0)
(0.656533 -0.320718 0)
(-0.0173628 0.226443 0)
(0.0187584 0.270209 3.50154e-16)
(0.168742 0.572378 0)
(-0.00676118 0.192703 1.34187e-17)
(-0.626113 1.00701 5.71763e-17)
(-0.174192 0.0575867 -4.2383e-17)
(0.866731 0.485085 -7.45429e-17)
(0.013416 0.0943626 1.88105e-18)
(-1.14184 -0.13948 -1.15132e-16)
(0.989183 -0.0146067 -8.78725e-17)
(0.0657805 -0.0573988 5.29384e-17)
(0.511208 -0.0556499 3.65775e-17)
(-0.546326 -0.11925 -3.63676e-18)
(-0.00649328 0.149909 -1.94589e-16)
(0.637275 -0.367914 -2.47185e-17)
(0.484444 0.0502525 0)
(-0.429534 -0.192623 2.74677e-16)
(0.166602 0.070535 -1.38061e-16)
(-0.244965 2.88575 -1.95481e-16)
(0.150142 -0.00907756 -1.02015e-16)
(0.457764 0.227182 -1.02064e-16)
(-0.453123 -0.290993 2.08929e-17)
(-0.0453723 0.250985 -3.71569e-16)
(-0.0522404 0.235797 5.67605e-17)
(0.0851351 0.31869 4.20869e-17)
(-1.04525 1.31532 -3.41861e-17)
(0.0827221 0.239701 1.519e-16)
(0.217235 0.106636 -3.33495e-17)
(-0.171839 0.517326 -9.4932e-20)
(0.0825832 0.263951 0)
(0.0870912 0.267614 0)
(-0.180107 0.433202 6.69808e-16)
(-0.00495354 0.128117 8.9477e-17)
(0.368756 0.0462742 -1.58749e-16)
(0.585043 0.0417807 5.54131e-16)
(0.515861 0.0478616 -3.36675e-16)
(0.583411 0.0664338 7.13969e-16)
(0.529297 0.0362829 -1.61406e-16)
(0.460502 0.0403741 -4.33229e-16)
(0.606445 0.0522991 -2.94023e-16)
(0.547997 0.0834757 -3.19931e-16)
(0.282449 -0.283806 -2.08374e-17)
(-0.154932 -0.30263 -4.35629e-17)
(0.187103 0.162844 4.02616e-17)
(-0.14314 -0.580853 -2.61626e-19)
(-0.282457 1.84391 -1.03485e-16)
(-0.182205 -0.261932 -1.52562e-16)
(-0.946947 0.984111 2.16732e-16)
(-0.335404 -0.377224 2.41534e-16)
(-0.700848 0.297786 3.80604e-16)
(-0.759393 0.721686 -1.67967e-16)
(-0.0994403 -1.05062 -4.69917e-17)
(0.0594275 0.205266 0)
(-0.10953 -0.827073 3.38626e-16)
(-0.399355 0.370246 3.80909e-17)
(-0.637674 0.568016 -2.06709e-16)
(-0.989359 0.982432 -2.19482e-16)
(-0.766799 1.12266 0)
(-0.744868 1.30921 2.60305e-16)
(-0.136339 0.50741 0)
(-0.264663 0.546477 6.52564e-17)
(-0.0927269 0.79508 1.91273e-16)
(-1.06679 1.34926 0)
(-0.351945 0.278439 -4.50915e-17)
(-0.0447653 0.32319 -3.67565e-16)
(-0.80952 0.584206 -7.00617e-17)
(-0.693271 0.0244212 -2.54742e-16)
(-0.86082 1.3436 -4.01565e-19)
(-1.03227 1.19272 0)
(-0.219491 -0.342118 0)
(-0.337504 0.521695 -1.03159e-16)
(-0.857475 0.621033 1.50047e-16)
(0.170559 0.202623 3.3084e-18)
(0.0421544 0.271907 3.31019e-16)
(-0.262664 0.469091 3.49366e-16)
(-0.178181 -0.748434 -6.0745e-17)
(-0.236235 -0.375307 0)
(-0.319466 -0.130221 1.59105e-16)
(-0.15164 -0.28657 -1.16999e-17)
(0.284145 -0.146493 0)
(-0.213197 0.719798 1.05126e-16)
(-0.267406 -0.438196 3.07605e-17)
(-0.490467 0.304304 -2.88175e-17)
(-0.321716 0.477859 -2.36746e-16)
(-0.424035 0.0827832 5.92756e-17)
(0.163996 0.472101 -1.04161e-15)
(0.0253746 -0.366787 -7.10184e-16)
(-0.249494 0.242287 0)
(-0.214923 0.45276 -4.53731e-17)
(0.478954 0.0399703 -1.22798e-16)
(0.673422 0.746942 2.6922e-16)
(0.266958 -0.0137129 -5.37495e-17)
(-0.141172 -0.225607 -5.35795e-17)
(0.463092 0.545901 5.28405e-16)
(-0.290956 -0.124601 -1.69039e-16)
(0.04575 -0.0656304 0)
(0.368335 0.147965 1.33059e-16)
(-0.0282264 -0.0859874 -5.62509e-16)
(-0.899948 -0.0959759 5.76098e-17)
(0.036384 0.708954 -2.40596e-16)
(0.739103 -0.0351239 -5.60337e-17)
(-0.14134 0.130551 -1.80982e-16)
(0.205079 0.287783 -9.25129e-17)
(-0.169291 -0.0189262 9.66257e-17)
(-0.90368 -0.143772 -3.83818e-17)
(-0.171542 0.272881 0)
(0.228122 0.230188 1.71186e-16)
(0.322255 1.23617 -1.04499e-18)
(-0.669433 0.242714 1.22034e-16)
(-0.176402 -0.665593 -1.29757e-17)
(-0.13302 -0.8824 1.14269e-17)
(0.39827 0.349309 1.88194e-16)
(0.105534 0.068062 1.25678e-17)
(-0.050476 0.172301 5.50654e-17)
(-0.0184067 0.28007 -5.75876e-17)
(-0.906683 -0.180501 3.871e-17)
(0.0521252 0.0730294 -1.47626e-16)
(0.631567 -0.0171034 3.75369e-16)
(-0.410654 0.483133 -1.6896e-17)
(-0.180471 0.679992 -3.47138e-16)
(-0.493343 0.50186 -8.68868e-18)
(-0.615355 1.09913 -3.52832e-16)
(-0.171059 0.399833 0)
(-0.59684 0.921041 2.35202e-16)
(-0.370815 0.473525 6.42348e-17)
(-0.295443 0.404382 -5.61061e-18)
(-0.513964 0.755915 -7.14261e-17)
(0.202267 0.387976 2.79714e-18)
(-0.168448 0.0887695 -9.44699e-17)
(-0.150478 0.371229 -5.3019e-16)
(-0.244571 0.414254 -1.8461e-16)
(-0.0823331 0.327606 9.09545e-16)
(-0.940045 1.23116 3.89347e-17)
(-0.30466 -0.443833 1.23151e-18)
(-0.272121 1.42622 2.72695e-16)
(-0.21686 0.849812 0)
(-0.0354702 0.235573 2.67854e-16)
(-0.238351 -0.606708 0)
(-0.380663 -0.237017 8.14725e-17)
(-0.0309317 0.146021 8.9729e-17)
(-0.823514 -0.165749 -4.20139e-17)
(-0.682289 -0.159111 3.25058e-16)
(0.0370316 0.0395498 -5.36026e-17)
(-0.362954 0.57739 -5.55552e-17)
(-0.271608 0.639833 1.16077e-16)
(-0.355145 0.424137 0)
(-0.528563 -0.02819 0)
(0.634734 0.271694 1.89827e-16)
(-0.365677 -0.297551 -3.03508e-17)
(-0.00557901 -0.0771714 -4.55883e-17)
(-0.0403254 0.219988 -4.44686e-16)
(-0.447289 -0.181366 3.74096e-17)
(-0.714063 0.481882 3.62282e-17)
(-0.85841 1.15298 1.99163e-16)
(-0.580592 0.132996 -1.12276e-16)
(-0.422649 0.649668 9.10197e-17)
(-0.306268 0.504505 -4.49759e-17)
(-0.610454 -0.00563882 0)
(-0.891357 1.51441 0)
(-0.84499 0.85198 0)
(0.336297 0.395404 9.84822e-17)
(0.091736 0.149208 2.87672e-16)
(1.06676 -0.00544031 -8.46581e-18)
(-0.472335 0.0431607 6.59276e-17)
(0.0917089 0.121854 8.66847e-17)
(0.0554744 0.0299643 -1.49247e-16)
(-0.960067 1.23827 0)
(0.488821 -0.284207 -1.45619e-16)
(0.14587 -0.290996 -5.79631e-17)
(0.205101 0.169228 -1.43613e-16)
(-0.821461 0.899931 -5.5488e-17)
(-0.723291 -0.20901 4.80626e-16)
(0.0747126 0.139858 1.31906e-17)
(0.0623552 0.0593696 9.51251e-17)
(-0.954257 1.86992 0)
(0.545915 0.0157642 -5.70463e-16)
(0.424758 0.0982882 -9.87237e-17)
(0.615108 -0.058608 0)
(0.270642 0.424006 4.7981e-17)
(-0.328041 0.740822 -1.01872e-17)
(-0.734131 1.46769 1.65318e-17)
(1.09842 0.0142436 0)
(-0.926001 0.230996 0)
(-0.236643 0.797869 8.78013e-17)
(0.69669 0.17753 2.18048e-16)
(-0.886325 -0.375666 -6.80069e-17)
(-0.0980389 0.717433 1.13455e-16)
(0.140174 0.284321 1.40806e-16)
(-0.897118 -0.196707 0)
(-0.392701 0.841998 -1.10725e-16)
(-0.145385 0.834579 9.02078e-17)
(0.218628 -0.00228593 -1.08624e-16)
(0.693233 0.193681 8.7965e-17)
(0.269463 0.0698682 0)
(0.024145 0.0642546 2.97527e-16)
(0.942632 -0.0256765 0)
(0.0551033 0.876932 -5.42209e-20)
(-0.453696 0.684331 -1.951e-16)
(-0.523603 0.245731 8.40394e-17)
(-0.485464 1.06559 0)
(0.244449 0.434749 1.10325e-16)
(-0.148339 0.0724131 -2.23803e-17)
(0.396626 0.133717 1.75693e-16)
(0.684146 0.034721 4.8737e-16)
(-0.864444 -0.0196629 0)
(0.174091 0.422937 0)
(-0.197022 0.200399 -8.36393e-17)
(0.273583 0.185597 -8.75777e-17)
(0.114612 0.124191 -1.21165e-17)
(-0.780762 1.08943 0)
(0.0609497 0.0213427 -1.91913e-16)
(-0.260669 0.799539 1.22229e-16)
(0.279366 0.349814 -1.80786e-16)
(0.0260905 0.245202 -3.683e-16)
(-0.863141 -0.124721 3.66127e-16)
(-1.05804 -0.144675 1.73084e-16)
(0.397552 0.206285 2.87007e-16)
(0.263381 0.133898 0)
(-0.662249 -0.2326 -1.55611e-16)
(-1.09211 1.48093 -2.65024e-19)
(-0.658163 1.82881 2.98519e-16)
(0.138985 0.0909147 -1.22597e-17)
(-0.536664 1.69955 6.92425e-17)
(0.262592 0.547537 2.67553e-16)
(-0.360257 2.7071 -2.61572e-16)
(0.0555109 -0.0114391 0)
(-0.864645 -0.189268 -1.59887e-16)
(-1.02542 1.60444 -6.87064e-18)
(0.20713 0.99566 -5.30798e-16)
(-0.644755 0.136908 -9.47425e-20)
(0.263573 0.0576368 -1.88864e-16)
(-0.145672 0.343789 -1.86004e-16)
(0.613235 -0.0294787 -1.44854e-16)
(0.196338 -0.253095 -4.01497e-19)
(0.516705 0.0185636 0)
(-0.561998 0.359366 0)
(-0.122235 0.58963 -1.36494e-16)
(0.276701 0.0272909 -1.12669e-16)
(0.46061 0.386723 -5.47594e-17)
(0.53147 -0.0237975 -9.33483e-17)
(-0.370298 0.201489 -9.60759e-17)
(0.123717 0.375266 0)
(-0.818355 1.87388 -1.35403e-17)
(-0.891321 -0.0260169 -2.07357e-17)
(-0.400663 -0.0411959 2.33393e-17)
(0.14576 0.146353 8.37961e-17)
(0.259216 0.0795557 2.56904e-17)
(0.0571718 0.118146 0)
(-0.606636 0.394152 5.92461e-18)
(0.186223 0.335161 -8.57519e-17)
(-0.256002 0.314091 8.12609e-17)
(0.476958 -0.0296689 0)
(-0.610386 0.126291 2.65869e-20)
(1.06156 0.00787489 -6.41066e-17)
(-0.884054 0.46733 -1.94843e-16)
(-0.48065 -0.0865933 3.48291e-17)
(0.609004 0.309044 0)
(-0.888064 -0.047956 -3.25064e-16)
(-0.919967 0.626377 -2.76798e-16)
(-0.895311 2.18515 1.34861e-16)
(0.421239 -0.0441811 0)
(0.260731 0.233526 -4.52878e-17)
(-0.339804 0.629801 0)
(0.395799 0.0652551 0)
(-0.973341 0.877256 0)
(-0.00505875 0.253177 -7.76602e-17)
(0.148658 0.350847 2.62114e-16)
(-0.434123 1.02764 1.01981e-16)
(0.0346905 0.137924 1.10765e-15)
(0.379442 -0.0491371 -5.28994e-17)
(-0.894633 -0.0361716 -2.68272e-18)
(0.0378993 0.445198 -5.6781e-22)
(-0.715297 0.732712 -4.86434e-18)
(0.664542 0.225194 -2.09523e-16)
(0.163671 0.197671 1.45044e-16)
(-0.236117 0.963815 1.19202e-16)
(-0.440167 0.0954769 -8.33257e-17)
(0.112534 0.538724 1.55292e-16)
(0.487067 -0.294327 -4.10575e-16)
(-0.491865 0.588989 0)
(0.455212 -0.0387784 -8.45208e-18)
(0.367084 -0.0234809 3.99908e-17)
(-0.436405 0.150831 1.00108e-16)
(0.200786 -0.0312021 1.06724e-16)
(-0.881647 -0.113405 1.51338e-16)
(0.0329646 0.11427 -2.13438e-16)
(0.572335 0.0756322 -1.19041e-19)
(0.269985 0.160476 -1.95301e-19)
(-0.554366 0.449628 0)
(-0.563109 0.402162 0)
(-0.0218935 0.220861 4.37677e-17)
(0.260751 -0.0540282 1.87807e-21)
(-0.349564 0.384071 1.79589e-16)
(0.863298 -0.0208797 0)
(-0.86579 -0.0627561 1.23685e-16)
(0.460256 0.119467 0)
(-0.602553 -0.118975 0)
(-0.51643 0.446704 7.38501e-17)
(-0.611931 -0.0984721 -1.53367e-16)
(-0.7243 -0.0489178 -4.46253e-17)
(0.244257 -1.01959 -4.17183e-17)
(-0.0739625 0.721557 9.18078e-17)
(0.387246 0.0512965 -1.32438e-17)
(-0.879378 0.20495 2.45282e-16)
(0.12719 0.234453 1.27967e-16)
(-0.0543056 -0.799512 -1.67536e-16)
(0.508335 0.40073 3.82857e-17)
(0.608063 0.264926 1.00233e-16)
(0.475436 -0.338496 -1.82616e-16)
(0.382411 -0.0722771 9.76213e-17)
(0.0842718 0.186273 -2.29635e-16)
(-0.433516 0.961562 2.11208e-16)
(-0.849787 -0.112292 -1.61488e-16)
(0.546871 0.0957533 9.98053e-17)
(-0.727382 0.338141 1.92985e-19)
(0.0361703 0.232632 1.33932e-16)
(-0.424339 -0.124286 -3.12189e-17)
(0.14706 0.135658 0)
(-0.249165 0.193031 0)
(-0.31111 0.906127 -2.31084e-16)
(0.222369 0.16619 8.91174e-17)
(-0.314127 0.38325 -1.7253e-16)
(-0.193518 0.0262373 1.11494e-17)
(0.980059 -0.0192158 2.54587e-17)
(0.252791 0.224227 0)
(-0.0585849 0.31678 1.84545e-16)
(-0.00312937 0.144819 0)
(0.553183 0.171097 0)
(-0.592171 1.4575 -9.35034e-17)
(0.429039 0.19104 0)
(-0.968188 0.0505613 -3.14976e-16)
(0.194422 0.0154968 5.70858e-16)
(0.133236 0.225068 1.01513e-16)
(-0.490703 0.116398 -8.2675e-17)
(0.0571299 0.113166 -8.94605e-17)
(-1.09116 1.62597 -1.4693e-16)
(0.489884 -0.225008 -2.51239e-16)
(0.234792 0.0244913 2.06847e-16)
(0.515465 0.724627 -1.37468e-17)
(-0.663779 0.17844 -2.61484e-16)
(0.862492 0.07521 -1.19534e-16)
(0.156889 0.654242 6.66521e-17)
(-0.527662 -0.121385 0)
(-0.00998092 0.254502 -2.46209e-16)
(0.0420949 -0.00194397 1.05032e-17)
(0.0612122 -0.00752781 -3.89383e-17)
(-0.959532 1.69103 -2.35374e-19)
(0.0426759 0.0125796 -1.08539e-17)
(0.095784 -0.0140126 0)
(-1.16649 -0.109556 -2.36663e-16)
(0.0349142 0.499044 0)
(-0.536522 -0.0617124 3.84431e-16)
(0.0705976 0.032116 -8.72504e-17)
(0.131295 -0.0391787 0)
(0.0479015 0.631481 7.42915e-16)
(0.0842144 -0.781026 1.74336e-16)
(-0.464537 0.348892 -2.9898e-16)
(0.120717 0.103111 -4.3442e-16)
(-0.85441 -0.148322 2.51328e-17)
(-0.316292 -0.127826 0)
(0.596079 0.324584 2.58604e-16)
(-0.877296 -0.220661 7.73043e-17)
(0.635928 0.0614301 1.52283e-16)
(-0.308739 0.0564996 1.43624e-16)
(0.0880799 0.155496 5.06283e-17)
(0.0973517 0.0622476 4.40574e-17)
(-1.00422 -1.10391 -5.15217e-19)
(-0.246192 2.50012 -1.49591e-20)
(-0.320927 1.2477 0)
(-0.838223 -0.363631 4.41827e-17)
(-0.0540564 0.289161 0)
(0.410988 0.0736552 -1.29078e-19)
(-0.734339 -0.130228 4.52052e-22)
(0.29313 0.0280721 5.32496e-17)
(0.197073 -0.254768 -1.356e-16)
(0.0651515 0.23263 0)
(0.0828758 0.748436 -6.92041e-17)
(0.458163 0.158949 -3.59944e-16)
(0.524174 0.069655 -3.10456e-16)
(-0.863579 -0.222279 0)
(-0.804822 -0.044048 -1.37573e-20)
(0.43654 0.0737332 -1.82989e-16)
(1.45669 0.41636 4.62157e-16)
(1.02463 0.0378121 5.08998e-16)
(0.789392 -0.0229649 -4.19951e-16)
(0.35088 0.0434578 -2.18597e-17)
(0.277364 -0.176081 1.8883e-16)
(0.127026 0.180284 -3.29393e-17)
(0.596746 0.311248 -1.84616e-16)
(0.0900213 0.178532 5.02932e-21)
(0.335513 0.358352 1.17586e-16)
(0.277619 2.15302 6.26086e-16)
(-0.729659 0.306585 2.42e-20)
(-0.178206 -0.0427696 0)
(-0.0808412 0.100655 8.93977e-17)
(0.229283 0.0905613 3.95105e-21)
(0.595428 0.0201551 -1.08712e-16)
(-0.839045 0.271139 -8.14961e-17)
(-0.314804 -0.0563271 4.23306e-17)
(-0.435817 -0.0054029 -2.783e-16)
(0.0514183 0.667128 1.16535e-16)
(-0.350718 0.166726 -8.88294e-17)
(-0.0248089 0.272723 1.58096e-16)
(0.248534 -0.0293425 2.13746e-16)
(0.0528121 0.586959 3.10925e-16)
(0.349443 -0.58438 -2.24196e-16)
(0.467518 0.235377 -4.50651e-16)
(-0.286641 2.441 -2.59374e-20)
(-0.644406 -0.0550174 1.8521e-20)
(0.264165 0.0491011 2.95913e-16)
(0.0584214 0.814737 -2.50689e-16)
(0.0279908 -0.775828 0)
(0.118085 0.0104422 3.20161e-16)
(-0.811512 0.13773 -8.84422e-17)
(-0.80071 -0.0126446 3.74256e-17)
(-0.814032 -0.327419 2.46013e-17)
(-0.86362 -0.11027 3.93392e-17)
(-0.884601 0.959131 1.05793e-16)
(1.04903 0.00253361 -1.08471e-16)
(-0.815499 0.357019 8.24194e-17)
(0.264264 0.272999 2.69385e-16)
(-0.0622139 3.1019 -3.14403e-16)
(-0.117113 -0.0377769 -2.20503e-17)
(-0.434275 0.0881048 -3.51745e-16)
(-0.929761 0.751109 0)
(0.159098 0.979339 -6.85529e-17)
(-0.120986 0.584742 -8.20869e-20)
(-0.0326778 0.59731 -7.0618e-17)
(-0.655228 -0.0323638 -4.00694e-17)
(-0.0589189 -1.22146 -2.61144e-16)
(-0.129531 0.715037 6.79079e-17)
(0.104729 2.97834 -1.56114e-16)
(-0.51857 0.362043 -2.72725e-18)
(0.089424 0.305553 -8.08841e-17)
(0.136614 0.197998 8.88167e-17)
(0.833922 0.0134358 0)
(0.830923 -0.000589211 0)
(-0.324921 -0.942574 -3.96939e-18)
(0.417013 -0.256902 -4.17918e-16)
(-0.115978 -0.123261 2.46343e-16)
(-0.883451 -0.044223 0)
(0.0824095 0.243839 0)
(0.0370175 0.264291 -1.92347e-17)
(-0.582983 0.268456 -8.55022e-17)
(-0.246839 -0.0369608 1.34864e-16)
(-1.06857 0.0681272 1.37661e-16)
(-0.329623 0.0288063 1.01989e-16)
(0.27212 0.30866 -9.09263e-16)
(0.193386 0.106521 0)
(0.245365 0.664671 -1.05331e-16)
(0.00408672 -0.427652 -6.85931e-17)
(0.0335646 0.000743613 0)
(0.0872451 -0.156788 -1.76381e-16)
(0.636113 0.0800654 -2.48308e-16)
(-0.184467 1.09986 6.51525e-16)
(0.278756 -0.0674481 -1.15164e-16)
(0.141234 0.245091 -2.38157e-16)
(0.545645 0.235807 0)
(0.533171 0.280708 0)
(0.0290564 0.545877 1.52516e-16)
(0.165201 0.220551 -7.85679e-17)
(-0.857678 0.565199 1.52708e-16)
(0.143786 0.120571 0)
(0.0877864 0.0208547 9.55616e-17)
(-0.941794 0.747035 4.1833e-19)
(0.907035 0.00485692 0)
(-0.848709 -0.129742 0)
(0.064854 0.289766 5.21091e-17)
(-0.790496 -0.151898 0)
(-0.957699 -0.387326 2.52534e-17)
(0.301699 0.0718609 1.63627e-16)
(-0.398635 0.836847 1.75269e-16)
(0.422609 -0.134318 3.68038e-16)
(0.169978 -0.609496 -9.57925e-17)
(0.0751438 -1.60372 -1.83999e-16)
(0.189498 0.220845 1.91517e-16)
(0.26731 0.230347 0)
(-0.0729001 0.557671 -7.95076e-17)
(-0.433004 0.103604 1.87845e-16)
(0.305434 0.0411486 0)
(-0.452008 0.116362 -1.47505e-16)
(-0.849201 -0.0382351 0)
(-0.375206 0.0293831 -2.49676e-16)
(-0.924111 0.521657 0)
(-0.532023 -0.0675914 -1.99111e-16)
(-0.826452 -0.0998109 4.55126e-18)
(0.358907 -0.159365 1.31757e-16)
(-0.192181 0.406865 8.318e-16)
(0.350768 -0.862107 0)
(0.0497593 2.62361 1.61611e-18)
(-0.089387 0.451371 1.88598e-16)
(-0.289216 0.230702 -1.93475e-16)
(-0.87666 -0.0144489 3.6635e-17)
(-0.541353 -0.0155372 -1.23571e-16)
(-0.705321 -0.237263 1.62052e-16)
(-0.159204 0.379898 4.55876e-17)
(-0.871963 -0.198878 4.79281e-18)
(-0.369635 -1.56348 -5.17956e-16)
(0.16245 0.343733 -1.67583e-16)
(0.00600963 0.438523 2.7598e-16)
(0.635041 -0.182437 3.1199e-16)
(0.344306 -0.132907 -1.01589e-16)
(0.352956 -0.111727 -8.84474e-17)
(-0.27508 0.11454 -7.40251e-17)
(0.26217 0.157261 4.08072e-16)
(-0.790959 0.0262856 1.72121e-16)
(-0.534525 2.29536 7.92885e-17)
(-0.946187 -0.151314 0)
(-0.959688 -0.0971975 0)
(-1.01521 0.143513 -1.36229e-16)
(0.717285 0.134474 2.74708e-16)
(-0.458448 -0.298208 -3.18563e-17)
(-0.570374 -0.0916178 -2.77273e-16)
(0.0169001 0.190471 7.61172e-18)
(-0.344027 0.462581 -7.54915e-17)
(0.36354 0.0774985 5.7729e-16)
(-0.0941846 -0.211691 1.09043e-16)
(0.312889 -0.067754 4.44138e-17)
(1.09877 0.00417147 0)
(0.524547 0.300218 1.59931e-16)
(-0.854803 -0.0826777 0)
(0.31827 0.574878 0)
(-1.0856 -0.145063 -3.4042e-18)
(0.225837 0.436063 0)
(0.756209 0.0275877 0)
(0.0550693 0.176138 0)
(0.0196749 -0.0276915 0)
(0.404666 0.124292 -6.3581e-16)
(-0.0639381 0.7121 -2.09097e-16)
(0.385479 -1.09217 -1.41187e-16)
(0.259691 0.318909 -4.18597e-18)
(0.464629 -0.623651 -4.82289e-16)
(-0.186101 0.342309 -3.98302e-16)
(-0.397783 1.08576 2.64314e-16)
(0.0991438 -1.03489 -5.13816e-16)