/*--------------------------------*- C++ -*----------------------------------*\
| =========                 |                                                 |
| \\      /  F ield         | OpenFOAM: The Open Source CFD Toolbox           |
|  \\    /   O peration     | Version:  v1912                                 |
|   \\  /    A nd           | Website:  www.openfoam.com                      |
|    \\/     M anipulation  |                                                 |
\*---------------------------------------------------------------------------*/
FoamFile
{
    version     2.0;
    format      ascii;
    class       volScalarField;
    location    "0.16";
    object      nut;
}
// * * * * * * * * * * * * * * * * * * * * * * * * * * * * * * * * * * * * * //

dimensions      [0 2 -1 0 0 0 0];


internalField   nonuniform List<scalar> 
1466
(
0.00111975
0.0016833
0.000557213
0.000999253
0.000704963
0.000694631
0.000949711
0.000517711
0.000757507
0.000502513
0.00112118
0.000889511
0.000752305
0.000871709
0.000861502
0.00125247
0.000636196
0.000581448
0.00179138
0.000816668
0.00140278
0.00110674
0.00161077
0.000792281
0.000809581
0.000467143
0.00126513
0.00115825
0.000505561
0.00566857
0.000894371
0.00133162
0.000538553
0.000989308
0.00312235
0.000675008
0.000907286
0.00042125
0.000670883
0.000445984
0.000569207
0.000781483
0.000550661
0.000574304
0.000390129
0.00082006
0.00173391
0.000290746
0.000322425
0.000351443
0.000384672
0.00181111
0.000415792
0.000395281
0.000326031
0.00104336
0.000863509
0.00149247
0.000529018
0.000373808
0.00082697
0.000949704
0.000896746
0.00131721
0.00276825
0.000677864
0.00211863
0.00100128
0.00376113
0.000472789
0.00114498
0.000562647
0.000321992
0.00102374
0.000833725
0.00300994
0.000950885
0.0008039
0.00079833
0.00555839
0.000580809
0.000943787
0.000882372
0.00123984
0.00124208
0.00163852
0.00105576
0.00405338
0.000548043
0.000919874
0.000553569
0.00138394
0.000977754
0.00205213
0.000673123
0.000419777
0.00176319
0.00152271
0.000843359
0.000387523
0.000430561
0.000376748
0.000285994
0.000327202
0.000593146
0.000446567
0.000331992
0.0003093
0.000907523
0.00105877
0.000699508
0.00340401
0.00130538
0.000621501
0.000423344
0.000748542
0.00143548
0.00111313
0.000877436
0.000953415
0.00132445
0.00151373
0.000749398
0.000751855
0.000469174
0.000690249
0.00490367
0.00152163
0.000819293
0.00333355
0.000318299
0.000909131
0.00146353
0.000762443
0.000825659
0.000520309
0.000505287
0.000423606
0.000710074
0.000669029
0.000408657
0.0013141
0.000900258
0.00156454
0.00199121
0.00168661
0.00143583
0.00238813
0.00420767
0.00160956
0.000649493
0.00165441
0.00453636
0.000810329
0.00396301
0.00130513
0.000950797
0.00119456
0.00181335
0.00230685
0.00153781
0.00591262
0.0010192
0.000954715
0.00173724
0.0010783
0.000873574
0.00173285
0.00106958
0.00282119
0.00119885
0.00183554
0.000593582
0.00414541
0.000480112
0.000953344
0.00511906
0.0058141
0.000606544
0.00101084
0.00105535
0.00104868
0.00123182
0.000688068
0.00385699
0.00156539
0.00124344
0.00109502
0.00349694
0.000916362
0.00133147
0.000931499
0.000912779
0.00156009
0.00210836
0.000655826
0.00029743
0.00219816
0.00141592
0.00179141
0.000887627
0.00370312
0.00575689
0.00250516
0.00110642
0.00139909
0.00147315
0.00446228
0.00206919
0.000810449
0.00174568
0.00118675
0.00205654
0.00114539
0.0014388
0.000908732
0.00148469
0.00125026
0.00132974
0.000845744
0.00166173
0.000776714
0.000942458
0.000752797
0.001007
0.0016852
0.000811436
0.000749979
0.000561559
0.000814769
0.00085983
0.00374684
0.00164923
0.00266657
0.000818064
0.00141238
0.000897218
0.00164831
0.00285463
0.00125751
0.00132462
0.00544117
0.00504905
0.00201733
0.00254123
0.00561759
0.00115279
0.00106193
0.00551759
0.00467946
0.00142994
0.00278707
0.0040576
0.00145563
0.00172216
0.0019313
0.000866792
0.00184147
0.00059807
0.00112073
0.000717896
0.0013848
0.000756733
0.000858566
0.00290254
0.000271191
0.000604277
0.00406976
0.00137452
0.00241842
0.00115045
0.000629549
0.000524954
0.00226891
0.000670799
0.000863979
0.000669601
0.00261316
0.00112635
0.00477048
0.00124042
0.00224624
0.00266127
0.00486559
0.00186188
0.000832858
0.00496921
0.00478418
0.000538983
0.003573
0.00370692
0.00112015
0.000895633
0.000527799
0.00264862
0.000548828
0.000686508
0.000853616
0.00510526
0.000934125
0.000852212
0.000856626
0.000183239
0.00116774
0.000990168
0.00163076
0.00218035
0.000762046
0.00354222
0.00234147
0.00492644
0.00188464
0.000877369
0.00397539
0.00508818
0.00501446
0.00236413
0.00441939
0.000859658
0.000888874
0.000471576
0.000659888
0.00100627
0.00100382
0.00136735
0.0028692
0.000853338
0.00425676
0.0012572
0.000791588
0.00124159
0.00319951
0.000815374
0.0026619
0.00285105
0.00101019
0.00334944
0.00279782
0.00215727
0.00169186
0.000808179
0.00478458
0.000593485
0.00492596
0.00273611
0.000172648
0.00459533
0.00403234
0.00338374
0.00326726
0.00217414
0.00130273
0.00318796
0.00266958
0.00214425
0.00250159
0.000803958
0.000653671
0.00176229
0.00380249
0.00248161
0.00248828
0.00258941
0.00218696
0.000700165
0.00210909
0.00450988
0.00452163
0.000954786
0.00268325
0.00330761
0.00241263
0.00191655
0.00286195
0.000831636
0.0011384
0.00125471
0.00188048
0.00191664
0.00276016
0.00197921
0.00191011
0.00189719
0.00178304
0.0016727
0.00180081
0.000744296
0.000822953
0.000817242
0.00084735
0.00160472
0.00127646
0.00213728
0.00135257
0.00239127
0.00289278
0.000906814
0.00189982
0.00256582
0.00102271
0.00100206
0.00081153
0.003066
0.000970738
0.00281247
0.00113572
0.00299275
0.000789815
0.00095171
0.00154563
0.000901681
0.0033357
0.00282814
0.00137611
0.00138659
0.000979573
0.00100629
0.000973379
0.00085655
0.00134113
0.00153233
0.00137093
0.00126975
0.00285259
0.00123032
0.000960864
0.00144014
0.00198318
0.00110327
0.00101346
0.000799217
0.00282399
0.00126084
0.00207147
0.00142812
0.000898139
0.000997041
0.00116992
0.000843813
0.000842635
0.00119867
0.000754669
0.000803962
0.000964457
0.00121756
0.00157317
0.00163647
0.00115792
0.00168753
0.000910392
0.00095472
0.00182066
0.0010608
0.00103388
0.00153384
0.000834867
0.000841866
0.000916883
0.000916415
0.000999609
0.000836093
0.00176665
0.000907107
0.000861119
0.00114343
0.00186792
0.00170779
0.00198668
0.00225643
0.00183475
0.00219992
0.000865792
0.000933787
0.00084929
0.000894364
0.00199759
0.00112866
0.00260347
0.00261772
0.00231191
0.0027626
0.000917138
0.000959131
0.002691
0.00239028
0.00368025
0.00210796
0.00135588
0.00244891
0.00266656
0.00226908
0.00110911
0.000764897
0.00157331
0.00256898
0.00122231
0.00107384
0.00155063
0.00480732
0.00206825
0.00163978
0.00166375
0.000912679
0.0012063
0.000906095
0.00217897
0.00427226
0.000856645
0.00197914
0.0011205
0.00230724
0.00252647
0.00235351
0.00135312
0.00100917
0.00210483
0.00183131
0.00104085
0.0020647
0.000676263
0.00152661
0.00215221
0.00263495
0.00369927
0.00261953
0.00188318
0.00206852
0.00256866
0.00174815
0.00268669
0.00231757
0.00193035
0.00233125
0.00132001
0.00131203
0.00197802
0.00262168
0.00464842
0.00167032
0.000982213
0.00327619
0.00103558
0.000822743
0.00223726
0.00160101
0.00269623
0.00146208
0.00253675
0.00245359
0.000802847
0.00139804
0.00210193
0.00153374
0.00142968
0.0016902
0.000999393
0.00106646
0.00208471
0.00190909
0.00258958
0.00258473
0.00216753
0.00106574
0.00416304
0.00187724
0.00230063
0.00144015
0.00250403
0.00491997
0.00123878
0.00140758
0.00236707
0.00314232
0.00530604
0.00247259
0.00264074
0.00136184
0.0012389
0.00120583
0.00101117
0.0024099
0.00114179
0.00118421
0.00230706
0.00202844
0.00252065
0.00150348
0.00203489
0.00114811
0.00218965
0.00101193
0.00277457
0.00190245
0.00129551
0.00153771
0.000898739
0.00162022
0.00276714
0.00242303
0.00255464
0.00455152
0.00240872
0.00186138
0.00290923
0.00185657
0.00189013
0.00194608
0.000880494
0.000875161
0.00180515
0.00254892
0.000901978
0.00293351
0.00254366
0.000945926
0.00440824
0.00554327
0.00342856
0.00407216
0.00193043
0.00303643
0.000871934
0.00218977
0.00220823
0.0026152
0.00140972
0.000460835
0.00193208
0.00196067
0.00103803
0.00224067
0.00401437
0.00438671
0.00196163
0.00134193
0.0025349
0.0031911
0.00251957
0.00463299
0.00138115
0.0023745
0.0039402
0.002894
0.000752401
0.00173163
0.00225743
0.00183071
0.00222808
0.00270828
0.00322096
0.00144901
0.0014426
0.00391852
0.00086255
0.00226868
0.00187317
0.00211352
0.000480947
0.00149093
0.00115741
0.00271155
0.00385082
0.00158519
0.00267676
0.0021836
0.00288962
0.000798292
0.00390538
0.00181158
0.00206518
0.000606751
0.00250053
0.00193419
0.00076764
0.000649573
0.000875475
0.000847022
0.000508922
0.00107947
0.00358805
0.00134361
0.000835346
0.000458096
0.00184592
0.000542273
0.00304703
0.000789214
0.000449852
0.00239439
0.000427233
0.00225634
0.00366654
0.00314908
0.00283516
0.000657447
0.000462767
0.00276992
0.00151374
0.000800346
0.00247782
0.00176808
0.000746138
0.000435402
0.00115311
0.00192484
0.00206178
0.00339511
0.00295253
0.000479037
0.00200708
0.00249793
0.0016234
0.00142638
0.00301184
0.00239438
0.00111463
0.00190407
0.0021846
0.00198269
0.0045222
0.00271604
0.00101814
0.00201525
0.00111254
0.000463963
0.00136891
0.00136719
0.0019863
0.00213063
0.000189254
0.00177507
0.000760782
0.00173944
0.000968209
0.00209425
0.0015891
0.000391605
0.00264223
0.000977166
0.00255927
0.000975643
0.000736788
0.00156604
0.000685248
0.000836669
0.00111166
0.000837973
0.000234494
0.00238473
0.00525924
0.00133289
0.00110409
0.000471639
0.00117343
0.000854078
0.00235759
0.00169064
0.00132466
0.00260994
0.00162107
0.00122113
0.00281017
0.000850922
0.00466512
0.00273072
0.0056035
0.00104217
0.00261032
0.00154764
0.00129123
0.00266462
0.00258987
0.000780157
0.00137447
0.00139784
0.00116776
0.0046025
0.000470001
0.00194098
0.0026777
0.00144428
0.00271766
0.00124828
0.00190373
0.00211158
0.000918395
0.000834825
0.000938654
0.0021351
0.00293324
0.00199423
0.00212468
0.0011275
0.00297125
0.00202211
0.00310193
0.00281414
0.00184752
0.000870547
0.00155171
0.00232845
0.0024639
0.0011725
0.0008378
0.00187953
0.000736522
0.000183218
0.0020101
0.00135897
0.00115848
0.000413082
0.00267512
0.00145427
0.000810687
0.000974779
0.000753115
0.00289159
0.00110257
0.000706097
0.00286782
0.00141532
0.00219829
0.00156057
0.00541681
0.000858241
0.00136511
0.00128804
0.0025471
0.00312755
0.00133619
0.00559101
0.00313302
0.0025933
0.00110074
0.00084387
0.000709763
0.000952646
0.000436362
0.00272157
0.00274791
0.00244591
0.00232861
0.00242448
0.0012119
0.00167313
0.00233024
0.000842845
0.00110071
0.0019881
0.00162599
0.00145425
0.0042659
0.000884754
0.00119547
0.00216973
0.00291491
0.00412718
0.00072943
0.000695959
0.00226009
0.00256025
0.00105598
0.00124864
0.00209348
0.000573581
0.000981055
0.000800605
0.000448454
0.00293308
0.00109078
0.00213158
0.000431062
0.00176717
0.00198436
0.00250887
0.00207538
0.00227712
0.000367486
0.000351986
0.000362141
0.000302864
0.000312893
0.000347868
0.000282007
0.000548622
0.000600673
0.000586551
0.000560487
0.000512824
0.000479763
0.000545238
0.000595195
0.000552357
0.00047736
0.000505148
0.000496992
0.00042594
0.000428374
0.000374366
0.00045315
0.000453134
0.000461044
0.000348382
0.00357682
0.000745612
0.000228747
0.00178983
0.00259979
0.000902592
0.00219232
0.000797836
0.000813294
0.0026293
0.00118129
0.00148213
0.000938868
0.000822571
0.00273769
0.000927639
0.00215999
0.00165252
0.001635
0.000647021
0.00132718
0.00292302
0.00229088
0.00110979
0.000457067
0.00119182
0.000696965
0.0010548
0.000450813
0.00121827
0.00138321
0.000744913
0.00198426
0.00123953
0.000921814
0.000895211
0.0011808
0.000673015
0.00233985
0.00058839
0.00138851
0.00101012
0.000983488
0.00355213
0.00063787
0.00323366
0.00325554
0.00123586
0.000776276
0.00586959
0.0017091
0.00061407
0.00201354
0.000606963
0.000744702
0.0016531
0.00350643
0.00234072
0.000749343
0.000399656
0.000838539
0.000990158
0.00242802
0.000720945
0.000664616
0.00202482
0.00223817
0.000910267
0.00121306
0.000981745
0.00114282
0.000920061
0.00156524
0.000800537
0.0013122
0.000631709
0.000949722
0.00144703
0.0010728
0.0023941
0.00134454
0.00173393
0.000428772
0.00213744
0.00119253
0.00215037
0.000978603
0.000596822
0.000854624
0.000868878
0.00389044
0.00174255
0.00200916
0.00586647
0.00234789
0.00062348
0.000967856
0.00203672
0.00246186
0.00202785
0.00221133
0.000412864
0.00106728
0.00104254
0.000777974
0.000860461
0.000761904
0.000714422
0.000914754
0.000829757
0.00019505
0.000464279
0.0010278
0.00131002
0.00188409
0.00214592
0.00294105
0.000522807
0.000793749
0.00119348
0.00258582
0.0014409
0.00067505
0.000370703
0.00169903
0.000806945
0.000852777
0.00127483
0.00146539
0.000810387
0.001843
0.00257277
0.00230226
0.0038436
0.000720285
0.00224973
0.000990741
0.000877054
0.000881031
0.00116681
0.000626977
0.00080901
0.000844928
0.00088696
0.000277513
0.00076834
0.00256972
0.00174669
0.000893521
0.000982102
0.00105631
0.000983591
0.00228317
0.0029866
0.00174031
0.00175093
0.000624409
0.00273965
0.00111447
0.00081698
0.000807953
0.000498338
0.00147293
0.00037094
0.001711
0.000847434
0.00011137
0.00234326
0.00206221
0.000287593
0.00285212
0.0003718
0.00111203
0.00136122
0.00034014
0.000390576
0.002103
0.0008491
0.000731303
0.000406759
0.00024924
0.000286989
0.000241643
0.000257901
0.00104241
0.00105792
0.000421912
0.000462212
0.000455743
0.000419228
0.000937896
0.0020807
0.00146854
0.00334704
0.00148445
0.00161919
0.0026144
0.00106997
0.000643291
0.000355829
0.00210545
0.00123522
0.000937515
0.000933502
0.00140293
0.00609421
0.00251796
0.0020795
0.0004713
0.0015
0.00210164
0.00381746
0.000266459
0.00316695
0.00317632
0.00147516
0.00122644
0.00175898
0.000982058
0.00374229
0.000297977
0.000529084
0.00142488
0.000755184
0.00136941
0.00407389
0.000785993
0.00395007
0.00407713
0.000755575
0.00143667
0.00143464
0.00220569
0.00324858
0.0011426
0.00119848
0.00133438
0.00160021
0.00084311
0.000756434
0.000824973
0.00134978
0.00266157
0.00084205
0.00152654
0.00287185
0.00345242
0.00145835
0.00108428
0.00108494
0.00130559
0.0018151
0.000765652
0.000668633
0.000766196
0.00427879
0.00160022
0.0016207
0.00230002
0.000557112
0.000312646
0.00140088
0.00232639
0.00526449
0.00171447
0.0027469
0.000906404
0.00120904
0.00225505
0.00122682
0.00123539
0.000783537
0.0020337
0.00507814
0.00200923
0.00121869
0.00109547
0.00240706
0.00207835
0.00078675
0.000887651
0.00089417
0.001134
0.00148157
0.0026034
0.00149217
0.00247629
0.0014316
0.00137871
0.00184048
0.000893051
0.00138882
0.000618357
0.0030168
0.0019329
0.0018377
0.000538772
0.00593632
0.0016588
0.000981072
0.00551436
0.00516541
0.00165279
0.00220012
0.00101344
0.00278446
0.00270608
0.00243247
0.000489412
0.00435473
0.00140257
0.000754382
0.00111577
0.000978475
0.000920506
0.00109244
0.00126401
0.00201028
0.000763723
0.00339023
0.00148611
0.00215717
0.00160484
0.000860097
0.000852623
0.000751784
0.00167165
0.00217171
0.00526529
0.00148797
0.000640145
0.00247599
0.000735363
0.000998828
0.000554261
0.000842649
0.000872133
0.0012449
0.00141786
0.00256023
0.0014276
0.00158777
0.00157577
0.000626009
0.000632967
0.00203079
0.002529
0.00127868
0.000931734
0.00132825
0.000976883
0.000807914
0.00293461
0.0014274
0.000806264
0.00133699
0.00283139
0.00256612
0.000828881
0.00122013
0.00104528
0.000982463
0.00274505
0.00107274
0.000883817
0.000968551
0.000915073
0.000883941
0.00152397
0.000875349
0.000422753
0.00234724
0.00231985
0.00525683
0.00237476
0.00115829
0.00185726
0.000885148
0.00126181
0.00153339
0.0032377
0.000542955
0.00234198
0.000767365
0.0014088
0.00249863
0.00227998
0.00193239
0.00138332
0.00235908
0.000755404
0.00260418
0.000480074
0.000626734
0.00119244
0.00100732
0.00155781
0.000898593
0.001611
0.000755098
0.00169536
0.00152988
0.00108689
0.000906
0.00200964
0.00157504
0.000782036
0.00223119
0.00126709
0.0010453
0.000718562
0.00138027
0.00137335
0.00210529
0.00191598
0.00018586
0.00207881
0.00114369
0.00398068
0.00242123
0.00170036
0.000249758
0.003915
0.000202352
0.00106092
0.000931032
0.000896803
0.000679613
0.00236428
0.000205007
0.00224902
0.00141137
0.00231867
0.000894958
0.000961972
0.00268314
0.00111665
0.00105743
0.00122622
0.0012446
0.00136964
0.000533406
0.00411232
0.00406787
0.00289934
0.00276276
0.00199107
0.000531676
0.00164733
0.0023274
0.00133639
0.000836769
0.0060781
0.000974176
0.000813027
0.00412519
0.00372643
0.00177689
0.000899087
0.00325331
0.000725973
0.00595597
0.00261624
0.00265596
0.000557316
8.6926e-05
0.000186872
0.00182168
0.00123024
0.00366534
0.00100743
0.00263297
0.000389479
0.00123075
0.00161605
0.00129388
0.00153443
0.00172561
0.00103174
0.00172529
0.000973958
0.000903336
0.00142381
0.00134774
0.000961791
0.00173757
0.000553189
0.000812282
0.00180886
0.000826692
0.00137485
0.00135913
0.00374335
0.00133282
0.000791582
0.00223371
0.000896808
0.000759038
0.000795717
0.00152642
0.00114797
0.00357273
0.00145917
0.000789144
0.00183857
0.000853943
0.00143631
0.000744061
0.00167371
0.001125
0.00146255
0.000579454
0.00141359
0.00228835
0.000996144
0.000908672
0.00411303
0.00190417
0.00436707
0.00266334
0.000817648
0.000828446
0.000752899
0.00615191
0.00119723
0.00102983
0.000888422
0.0012351
0.000664438
0.000701927
0.000656634
0.000970933
0.00085825
0.000564779
0.000810163
0.000623363
0.00113167
0.000365295
0.000432917
0.000829153
0.00043889
0.000358458
0.000658609
0.00121057
0.00260647
0.00173818
0.00042139
0.000440032
0.00217497
0.000744021
0.000885504
0.00104569
0.000527608
0.0007074
0.000384471
0.000506437
0.000294701
0.000297667
0.000929857
0.000307365
0.0015261
0.000637811
0.00104556
)
;

boundaryField
{
    frontAndBack
    {
        type            empty;
    }
    wallOuter
    {
        type            nutkWallFunction;
        Cmu             0.09;
        kappa           0.41;
        E               9.8;
        value           nonuniform List<scalar> 
108
(
6.59634e-05
6.59636e-05
3.77275e-05
2.05057e-05
1.9021e-05
6.28355e-05
8.96576e-05
5.38085e-05
5.101e-05
7.44398e-05
5.5369e-05
9.30433e-05
8.43191e-05
5.20335e-05
5.71086e-05
2.11717e-05
4.4649e-05
0.000100511
2.62866e-05
5.54762e-05
1.97666e-05
4.67925e-05
5.19698e-05
0.000101695
4.28185e-05
4.06886e-05
4.23905e-05
3.45042e-05
3.57564e-05
3.97494e-05
3.20153e-05
6.11129e-05
7.0661e-05
6.92066e-05
6.26766e-05
5.6988e-05
5.32188e-05
6.0864e-05
6.98893e-05
6.53519e-05
5.31959e-05
5.63377e-05
5.88944e-05
5.03972e-05
5.07582e-05
4.40969e-05
5.01994e-05
5.02256e-05
5.11821e-05
4.08905e-05
2.62544e-05
9.78925e-05
5.08488e-05
5.32384e-05
7.27128e-05
4.46512e-05
0.000101622
4.78039e-05
4.88549e-05
2.1523e-05
5.89186e-05
7.72443e-05
4.40784e-05
0.000106315
9.83909e-05
3.17739e-05
0.000117764
9.62397e-05
9.82213e-05
4.37023e-05
1.0427e-05
1.0427e-05
3.27175e-05
4.21374e-05
3.83715e-05
4.41927e-05
4.56563e-05
2.75581e-05
3.21568e-05
2.70361e-05
2.85041e-05
0.00012409
0.000125406
5.0042e-05
5.2882e-05
5.14003e-05
4.72351e-05
0.000111906
7.40101e-05
4.21197e-05
5.57771e-05
3.0362e-05
3.4782e-05
6.18792e-05
0.000128531
0.000128526
6.48168e-05
3.66435e-05
0.000109842
5.03191e-05
5.36844e-05
0.000119922
2.02627e-05
2.17418e-05
2.26441e-05
6.64841e-06
2.00709e-05
4.60612e-05
)
;
    }
    inlet
    {
        type            calculated;
        value           nonuniform 0();
    }
    outlet
    {
        type            calculated;
        value           nonuniform 0();
    }
    wallInner
    {
        type            nutkWallFunction;
        Cmu             0.09;
        kappa           0.41;
        E               9.8;
        value           nonuniform List<scalar> 
126
(
5.05116e-05
6.66296e-05
5.46794e-05
6.78291e-05
8.92529e-05
6.2048e-05
6.85564e-05
4.58625e-05
9.17039e-05
0.000182399
3.52245e-05
3.85744e-05
4.2e-05
4.65812e-05
0.000184692
5.06631e-05
4.86436e-05
3.91347e-05
0.000125414
9.7891e-05
0.000142464
5.65997e-05
4.61882e-05
8.8012e-05
5.1326e-05
0.000174065
0.000153892
0.000102108
4.72718e-05
5.25435e-05
4.54132e-05
3.45394e-05
3.90936e-05
7.35852e-05
5.67175e-05
4e-05
3.76164e-05
8.66284e-05
0.000117995
6.83946e-05
5.1017e-05
8.86515e-05
5.40353e-05
3.72016e-05
0.000102481
6.14934e-05
6.26331e-05
4.79755e-05
4.92333e-05
0.000112183
5.29645e-05
3.59713e-05
7.04135e-05
0.000120967
7.96685e-05
3.1804e-05
6.2791e-05
0.00012617
7.39235e-05
5.86813e-05
0.000121218
5.65159e-05
6.55595e-05
8.02889e-05
5.67263e-05
7.72905e-05
0.000110165
8.01711e-05
0.000109271
0.000204163
0.000200367
0.000202131
0.000114513
0.000210999
0.000143178
0.000216041
0.000107504
0.00014552
8.08069e-05
0.000109422
8.83739e-05
9.58818e-05
0.000135659
0.000198943
0.000171568
5.69051e-05
5.75592e-05
5.60802e-05
0.00012386
5.59474e-05
0.000100094
5.50639e-05
6.23041e-05
0.000115197
7.14392e-05
8.74931e-05
0.00011897
0.000103873
7.19015e-05
6.8741e-05
0.000116913
4.54868e-05
5.09693e-05
9.45424e-05
5.56172e-05
4.3174e-05
7.17774e-05
0.000137284
0.000255443
0.000181868
4.94068e-05
5.0376e-05
0.000227786
9.0307e-05
0.000108391
0.00012754
6.31908e-05
8.05955e-05
4.61635e-05
6.48162e-05
3.52992e-05
3.57495e-05
8.69195e-05
3.73101e-05
0.000160541
6.7941e-05
)
;
    }
    procBoundary1to0
    {
        type            processor;
        value           nonuniform List<scalar> 
29
(
0.00106301
0.00106301
0.000674242
0.00100549
0.00124664
0.00107035
0.00298149
0.000630061
0.00218442
0.000950838
0.000869955
0.00107035
0.000674242
0.000785462
0.00243875
0.00132387
0.00124664
0.0016732
0.00100549
0.000966115
0.000919656
0.00074956
0.00199404
0.00071912
0.00071912
0.00199404
0.000718104
0.00092938
0.000718104
)
;
    }
    procBoundary1to2
    {
        type            processor;
        value           uniform 0.000718073;
    }
    procBoundary1to3
    {
        type            processor;
        value           nonuniform List<scalar> 
48
(
0.000857272
0.000901314
0.000906505
0.000906505
0.00105566
0.00092409
0.00092409
0.00169922
0.000956109
0.000915896
0.00092341
0.000915896
0.000898766
0.000798607
0.000837791
0.000898766
0.000825267
0.000825267
0.000833579
0.000833579
0.000794061
0.000860217
0.000845485
0.000885299
0.000885299
0.000934649
0.00109052
0.00109052
0.00161143
0.00119693
0.00106224
0.00161143
0.00169922
0.00103924
0.000895597
0.00119693
0.00144792
0.00092341
0.00089185
0.000774141
0.000838247
0.00116873
0.00103924
0.000895597
0.000778743
0.000349313
0.000878107
0.000838247
)
;
    }
}


// ************************************************************************* //
