/*--------------------------------*- C++ -*----------------------------------*\
| =========                 |                                                 |
| \\      /  F ield         | OpenFOAM: The Open Source CFD Toolbox           |
|  \\    /   O peration     | Version:  v1912                                 |
|   \\  /    A nd           | Website:  www.openfoam.com                      |
|    \\/     M anipulation  |                                                 |
\*---------------------------------------------------------------------------*/
FoamFile
{
    version     2.0;
    format      ascii;
    class       volScalarField;
    location    "0.16";
    object      p;
}
// * * * * * * * * * * * * * * * * * * * * * * * * * * * * * * * * * * * * * //

dimensions      [0 2 -2 0 0 0 0];


internalField   nonuniform List<scalar> 
1466
(
94.8601
119.812
92.5718
88.7007
97.4551
103.144
93.1183
92.4245
110.973
101.938
82.9294
100.217
111.502
97.5766
102.969
84.0476
93.0429
99.4132
106.529
98.8007
96.4081
83.2563
101.829
98.612
111.311
122.772
78.6301
96.4081
96.5524
111.489
81.42
118.921
93.2661
96.6842
111.631
96.4962
97.3539
92.7991
104.444
95.2693
92.4822
83.0705
82.456
91.502
95.9248
93.3708
84.65
97.8402
101.539
93.4365
103.623
117.509
102.809
97.5868
93.1395
109.308
93.7494
83.159
93.9946
102.509
123.1
92.1921
95.5239
120.383
81.5272
91.3664
98.2754
98.4209
113.605
92.0864
121.053
102.031
98.5849
110.111
123.459
111.983
91.9242
95.8032
95.3044
114.956
103.282
82.3157
91.718
98.6578
99.1452
97.1762
96.1026
114.753
103.897
102.593
122.494
80.3139
89.3763
97.6965
92.1193
92.8177
120.185
83.6226
112.641
97.3097
103.429
103.597
97.9275
100.896
81.4881
91.9815
102.215
97.7272
82.4769
94.7464
123.132
112.582
93.6097
83.195
101.469
122.02
81.8466
99.7505
92.9473
94.6949
88.0509
91.7657
96.4266
91.0748
96.1616
91.7268
114.002
99.0514
98.2279
111.453
103.294
81.1567
101.376
98.5024
121.709
93.2634
94.3128
93.4048
92.7791
94.8895
93.3924
95.7707
98.7589
101.366
80.3454
96.8843
118.085
114.605
112.046
103.791
122.253
118.853
113.692
91.9749
111.396
83.1257
98.1016
95.6765
115.697
89.4406
117.005
114.054
97.2335
98.8507
116.337
80.983
98.4557
101.147
97.5758
88.6187
96.1478
112.187
93.2744
113.648
119.751
107.994
112.898
111.997
123.024
120.364
111.949
120.697
94.5547
93.0926
114.332
96.0361
99.8896
99.5319
113.906
96.3263
95.2548
123.008
89.7393
97.6171
88.4131
122.665
92.2069
108.025
117.141
97.4999
90.0995
111.601
112.384
73.8474
121.616
118.504
97.1808
110.437
113.368
98.793
104.006
98.3716
99.7231
96.8765
96.7256
99.4313
95.2059
100.079
106.55
98.4146
100.843
121.931
99.2368
122.633
98.3623
113.055
99.9992
97.9628
122.726
121.65
122.167
113.713
98.3054
77.843
103.569
119.723
98.5651
101.299
111.78
95.5043
93.6645
115.048
111.705
98.0867
111.624
114.406
120.272
109.602
114.455
112.082
94.8383
81.2962
110.269
75.6387
113.466
115.779
98.5077
97.096
98.4312
94.4399
98.7233
101.131
98.4045
121.64
88.1186
93.0562
120.2
111.346
97.214
98.6031
98.8706
98.9074
97.9789
112.585
122.089
122.559
122.381
86.9835
97.0345
112.423
120.513
73.1334
86.9204
114.535
76.1814
93.4316
111.55
111.774
94.416
107.236
112.409
96.0631
112.051
94.6514
89.9457
94.3907
101.068
93.4581
111.813
121.308
97.7126
102.437
123.46
110.831
96.8339
99.1392
92.711
93.7831
109.616
88.7034
112.096
99.8304
98.3026
114.195
113.58
113.719
85.4411
117.315
94.0137
103.307
97.3987
99.8804
95.741
121.177
92.0877
105.012
93.3446
125.283
120.21
120.805
98.9447
106.073
92.7086
92.1847
87.4563
82.6849
86.2828
112.621
97.1822
90.7712
95.2766
110.179
93.4953
141.479
88.9629
123.36
114.332
129.063
113.489
87.2797
91.7044
88.2377
94.1313
87.5938
83.6068
86.16
96.5626
75.3637
99.7136
120.079
85.9057
84.8661
84.3941
81.9623
94.2849
98.309
110.461
110.812
80.6069
88.3409
100.18
82.5262
148.149
94.8081
92.845
96.5601
99.9187
137.02
94.8777
88.5743
95.0368
97.8836
95.2386
95.4565
97.9933
97.9664
93.3681
93.3288
93.5971
93.6997
98.4286
98.3349
85.3435
98.5159
83.2165
79.1129
93.6383
122.073
79.3447
80.98
93.4817
93.1799
102.904
96.8223
98.3056
83.786
103.892
103.048
82.4778
82.7597
103.797
105.914
104.513
83.7353
104.577
97.2537
97.0643
103.541
103.563
92.22
81.0007
82.8939
92.5439
104.364
92.4523
95.0975
77.8773
149.65
92.8065
94.5122
102.565
77.712
79.9998
87.2085
119.405
78.1576
94.0064
75.8791
97.7867
102.202
93.9578
98.0592
101.916
94.4203
120.37
92.8055
112.275
120.863
93.2778
101.152
121.199
94.5294
108.221
111.946
99.0532
100.754
91.4483
91.2217
104.682
121.241
93.4182
100.168
91.374
96.6232
99.7497
93.0148
99.6721
102.71
104.474
99.8959
104.673
90.9821
99.8132
98.0782
121.447
92.0016
97.552
72.9312
73.9097
70.5981
87.6022
96.6915
96.9314
73.6733
71.8413
110.75
92.0354
98.0878
80.5599
82.6292
72.5227
96.8465
92.9979
99.2577
71.3193
98.2869
97.5693
98.0066
116.049
88.1622
95.6891
92.8322
90.6218
98.7598
98.3116
82.5609
116.84
121.347
93.9078
98.0273
116.889
71.4619
77.5325
93.4686
97.8106
85.2341
101.924
112.396
113.047
92.6692
96.1421
103.054
77.4204
118.513
71.6889
101.458
102.818
80.4574
100.936
74.0834
73.4634
89.3371
83.7736
98.4338
97.9711
102.856
93.7263
129.627
100.344
96.6862
111.8
99.2427
98.3059
81.4994
99.9995
97.3148
99.0831
98.475
82.8078
121.521
77.0768
92.9503
99.0056
98.0031
93.1541
98.1871
98.125
89.1213
79.2496
102.853
75.3749
82.5401
120.966
131.139
113.284
82.0657
98.7869
78.5844
140.193
94.8686
90.6222
80.5523
111.485
112.601
69.5914
89.9528
92.6
96.0529
97.961
79.8022
70.148
95.6394
97.3551
78.7665
92.0532
70.2269
88.6518
106.898
98.3163
85.9331
96.74
103.509
81.0343
97.1182
96.3969
99.2596
104.548
90.1587
69.6056
87.6655
127.403
99.753
93.6357
100.479
98.3593
83.6552
118.21
97.9976
100.696
92.4816
70.6327
89.6602
108.811
91.047
96.5145
114.545
112.267
120.164
113.348
90.001
108.564
93.5603
116.411
95.3749
113.291
96.7434
91.273
81.8461
80.736
96.9735
71.1796
108.771
113.044
93.9527
95.357
103.407
91.7811
88.647
112.557
90.6007
84.2184
107.385
93.5027
122.25
90.1465
98.537
79.26
83.8844
91.2585
116.443
94.4218
112.629
115.009
93.4594
78.3384
89.7744
95.0257
93.9074
118.849
104.829
76.8357
113.579
75.8022
102.117
73.3648
111.867
91.1711
112.146
98.93
96.6175
93.9464
113.21
74.3957
97.8106
100.361
97.6207
102.802
123.388
93.2016
107.979
94.4866
93.2558
122.176
98.0414
114.167
86.7696
114.968
112.064
70.1312
112.567
80.7997
109.272
104.803
101.275
114.562
112.203
96.7408
76.887
115.007
75.3735
88.4274
114.837
112.196
120.793
92.2994
90.7419
112.306
76.4544
112.627
92.4538
73.1992
98.626
97.8036
93.4749
86.6734
96.1317
81.6437
86.5017
78.0176
113.587
111.941
83.2512
98.6682
98.4806
92.5806
92.4354
92.0572
101.641
95.0055
123.223
76.3676
96.3669
78.6658
97.3789
98.1689
118.013
98.2197
90.7344
96.5272
82.1687
97.2089
103.267
92.7599
96.833
93.9402
92.9738
114.778
123.669
77.1571
114.407
93.4085
78.4093
122.439
93.0814
90.3307
98.9873
98.1523
89.3044
112.336
98.8709
98.6144
73.2168
122.117
114.376
77.0962
112.099
97.5361
106.748
98.5468
94.1982
115.945
72.4873
96.3515
92.0402
80.156
95.8607
118.705
113.663
100.009
104.912
98.3318
80.9581
95.9798
74.6331
79.8375
97.5355
103.177
97.5645
88.44
87.6199
97.6545
74.3373
97.3795
73.8967
118.144
110.791
92.2425
82.3646
92.4373
98.492
89.0057
81.1688
94.6452
93.0669
86.4721
93.1344
123.667
112.381
82.1763
88.6517
97.723
88.505
99.0223
98.2122
121.921
92.9574
82.1518
97.3879
121.878
91.053
105.454
85.3181
95.7087
112.903
95.6937
92.301
96.5914
109.648
111.739
99.227
114.86
84.9654
74.2683
83.6464
93.0736
103.833
103.71
113.094
74.4638
76.1317
77.8881
88.3485
77.6864
93.356
77.9482
102.691
114.612
95.4784
117.49
79.8558
78.0166
114.128
89.1561
98.6667
90.2041
113.734
115.207
120.093
104.191
91.4036
78.9083
96.2229
112.202
99.1025
123.259
77.424
90.1253
90.2581
116.335
98.4093
88.8953
122.66
81.7075
114.358
74.6463
101.638
80.7842
98.7912
98.6913
98.8343
98.5381
98.6276
98.5103
98.5458
96.692
103.189
104.373
96.7825
96.4425
96.0777
96.8581
102.65
106.594
97.0767
96.9185
109.697
113.118
117.578
115.903
95.809
95.7879
95.9675
98.7569
112.954
111.774
123.053
79.0711
69.5822
103.61
99.437
97.6675
102.557
88.4775
98.408
91.3339
103.401
114.902
107.092
100.683
101.169
82.0722
118.98
91.4695
120.185
98.4546
83.4056
81.7859
96.3001
91.4518
96.1692
95.6951
114.125
110.806
94.3237
103.79
80.5541
93.8814
96.5623
94.667
92.7147
93.1591
111.911
118.24
91.2969
92.4597
95.2197
113.529
100.157
113.52
108.998
120.676
104.383
114.337
78.6672
90.5669
74.1128
123.398
102.779
82.9917
126.451
86.3729
105.369
96.932
114.373
98.2067
100.467
92.9282
102.18
99.8675
80.0795
96.9252
99.526
82.6764
98.5622
120.808
120.295
121.796
95.1669
91.7872
121.298
95.39
98.3057
101.197
93.916
112.544
96.644
88.223
120.77
99.3743
98.3283
121.972
97.8921
101.461
105.624
98.5011
98.198
113.274
83.5683
97.1167
103.653
94.45
70.9355
76.2907
112.273
122.138
92.6485
94.9234
97.9313
100.954
110.701
98.2251
99.6991
94.5808
122.887
92.1116
92.4227
81.0319
117.541
113.282
89.4334
98.2766
78.3005
83.613
104.958
89.2059
99.9715
98.2712
102.659
98.7273
96.0129
92.0615
96.767
121.318
111.883
69.649
80.7608
113.225
123.382
72.0988
111.179
121.009
113.743
90.7287
95.604
114.096
92.5594
123.531
122.123
90.7619
88.6497
91.504
96.2312
121.092
96.5032
113.745
101.506
114.34
115.59
116.956
119.993
71.484
95.6725
114.982
113.859
123.238
88.3146
121.082
92.3323
96.9592
123.541
70.8333
96.8437
122.1
71.1425
120.203
93.2207
100.832
120.679
119.589
90.8737
96.8325
112.823
97.2876
121.544
121.026
121.77
121.323
113.598
113.368
116.035
116.983
117.958
118.84
111.543
75.3907
80.3871
112.97
119.308
100.767
87.6079
120.973
99.4538
98.1996
92.8839
92.3968
95.4037
91.7571
95.3962
114.104
88.7547
91.0196
113.279
98.4718
116.268
112.968
123.103
111.878
112.73
95.824
94.4839
109.115
122.4
107.56
98.3888
100.982
109.943
92.4025
119.738
115.142
104.095
113.835
114.953
101.733
94.3733
98.9083
91.7887
112.374
80.548
94.8888
84.036
90.5493
92.2719
97.8528
101.51
114.531
89.3284
103.934
97.5221
82.7578
96.7494
92.9377
113.012
112.697
92.6345
112.736
92.0685
119.855
104.821
118.955
89.0835
111.84
99.8093
99.9007
98.2575
97.8755
76.8616
111.971
78.3335
81.3108
95.6996
92.1534
86.9182
98.4691
89.7737
94.7835
79.3098
114.75
73.152
80.8366
82.0457
75.6757
111.5
120.374
98.9138
81.6834
93.2349
90.0436
86.1241
97.5168
71.8708
75.789
94.7347
79.3268
121.59
92.4454
102.726
98.8427
113.101
112.269
123.022
112.406
114.315
103.662
112.709
111.391
118.43
98.4955
109.996
70.3183
111.607
105.647
123.04
115.071
91.2175
95.8746
106.988
100.916
112.049
95.7442
93.6066
89.5866
92.3158
105.648
108.701
71.5858
75.9532
97.9337
101.439
101.582
80.287
72.3146
114.164
100.431
98.1911
87.5615
95.68
81.8172
103.505
97.7994
101.983
93.7925
81.0292
70.7427
92.4878
115.279
115.507
100.474
97.9246
87.9454
71.8604
110.745
97.0616
94.5045
117.824
98.685
113.31
80.7042
101.12
93.438
71.601
70.1805
120.855
95.0454
121.23
82.9531
76.7247
80.0933
95.0847
92.6131
89.5634
111.323
119.559
104.426
115.096
86.0529
103.269
114.942
86.8716
92.6605
97.8969
98.2163
101.722
96.4897
115.155
123.511
112.977
91.6204
98.1322
84.4841
97.7789
88.0816
80.3412
106.871
95.5617
84.6364
97.447
97.999
100.106
112.463
102.065
99.0061
96.8976
102.323
98.1783
83.9596
107.795
98.2975
98.611
99.3321
92.673
90.7025
98.242
91.6725
96.0749
92.8384
119.85
90.3657
105.925
122.609
73.3884
92.6699
114.504
88.2093
80.3245
123.503
113.831
123.549
108.128
97.2336
91.8593
123.537
97.9906
122.469
88.2988
98.5133
88.0698
92.0736
96.7164
81.5304
92.7295
120.82
93.1177
119.678
79.456
81.4331
104.494
115.006
114.061
70.3408
112.822
100.122
118.121
113.468
87.9907
96.6712
113.416
105.195
119.235
115.204
114.57
87.633
120.374
95.9102
123.621
113.309
81.7623
70.9672
123.6
123.578
121.891
111.922
95.7414
114.156
120.4
89.2893
119.406
120.191
79.5146
119.645
84.4241
83.9296
92.8299
77.6273
83.1785
92.1628
95.2181
95.7014
103.56
113.164
122.562
98.7711
109.963
98.9115
95.9943
95.7245
113.324
97.8107
96.6378
89.5473
121.39
97.7635
102.068
116.278
77.075
114.013
100.28
98.3557
113.029
99.1039
95.4949
121.768
87.9426
82.0061
92.9446
92.252
98.3072
72.5625
92.6332
92.7609
115.108
118.154
110.989
117.029
120.346
121.573
111.857
114.243
97.9182
78.0096
121.484
106.162
80.8731
120.062
80.8186
100.648
88.9498
80.5127
80.2572
92.6733
102.826
96.3889
97.6827
100.599
90.0435
92.3162
91.5056
100.943
115.49
100.188
100.452
116.081
110.696
111.972
109.96
108.386
92.0233
92.593
95.6555
91.2486
97.0108
96.7363
105.303
92.4212
114.285
120.072
120.3
)
;

boundaryField
{
    frontAndBack
    {
        type            empty;
    }
    wallOuter
    {
        type            zeroGradient;
    }
    inlet
    {
        type            zeroGradient;
    }
    outlet
    {
        type            fixedValue;
        value           nonuniform 0();
    }
    wallInner
    {
        type            zeroGradient;
    }
    procBoundary1to0
    {
        type            processor;
        value           nonuniform List<scalar> 
29
(
94.0725
94.0725
93.3778
93.2873
77.3332
79.3266
110.866
92.083
86.771
93.3781
93.0562
79.3266
93.3778
93.444
111.566
111.863
77.3332
77.1278
93.2873
93.0316
111.878
111.787
80.2492
110.047
110.047
80.2492
112.404
110.926
112.404
)
;
    }
    procBoundary1to2
    {
        type            processor;
        value           uniform 94.2262;
    }
    procBoundary1to3
    {
        type            processor;
        value           nonuniform List<scalar> 
48
(
97.623
97.1667
97.1246
97.1246
98.617
96.9188
96.9188
99.414
98.0532
97.0348
96.5505
97.0348
97.4678
95.6404
95.2452
97.4678
97.6886
97.6886
97.8579
97.8579
96.6755
97.2878
98.0156
96.5363
96.5363
98.1495
97.8834
97.8834
98.9708
98.5026
98.3298
98.9708
99.414
98.4244
98.0361
98.5026
99.1067
96.5505
97.773
98.2929
96.0402
98.7296
98.4244
98.0361
94.856
98.3496
98.41
96.0402
)
;
    }
}


// ************************************************************************* //
