/*--------------------------------*- C++ -*----------------------------------*\
| =========                 |                                                 |
| \\      /  F ield         | OpenFOAM: The Open Source CFD Toolbox           |
|  \\    /   O peration     | Version:  v1912                                 |
|   \\  /    A nd           | Website:  www.openfoam.com                      |
|    \\/     M anipulation  |                                                 |
\*---------------------------------------------------------------------------*/
FoamFile
{
    version     2.0;
    format      ascii;
    class       volScalarField;
    location    "0.15";
    object      epsilon;
}
// * * * * * * * * * * * * * * * * * * * * * * * * * * * * * * * * * * * * * //

dimensions      [0 2 -3 0 0 0 0];


internalField   nonuniform List<scalar> 
1431
(
3.48547
12.2505
56.9868
85.3049
2.30649
1.52743
1.68625
4.42107
21.7071
11.5048
4.35658
20.6048
8.27691
63.6279
31.5447
18.315
31.6441
3.2944
3.71444
4.56368
2.29514
9.4553
1.11556
71.5481
55.6745
5.07401
70.1191
56.7557
22.0351
41.8035
61.4318
13.7337
3.64532
1.13894
2.16055
46.8996
5.35205
10.0357
1.49555
9.65109
158.425
17.6951
0.734209
1.26731
4.96571
1.58387
39.8815
4.74018
22.0961
16.284
27.2975
10.7341
2.73481
0.873488
1.53498
4.54314
4.33471
0.986242
56.9806
2.58159
39.6602
1.65209
55.9706
9.85352
35.7996
2.82812
34.6026
1.93109
18.1261
12.5852
1.14045
1.94241
2.73402
1.69224
10.2106
4.23662
2.40021
33.1713
5.80414
98.7866
8.13665
19.7038
4.39534
67.5465
136.8
2.37558
2.87501
32.2205
81.0076
4.18365
1.07038
48.6013
2.94399
9.88366
16.0301
2.35001
17.9612
8.95635
2.42229
37.7839
14.1581
5.47858
1.46065
2.27726
30.0201
3.58647
6.64386
163.396
86.4498
2.4709
123.309
1.62667
5.40901
1.77794
25.1738
2.27433
2.79629
29.3625
92.7342
3.64824
8.65088
3.00167
8.95339
62.9921
9.34345
5.21341
107.662
9.78947
2.23253
26.481
0.850942
122.08
48.6917
1.11747
2.88187
65.9127
2.54505
2.63423
1.37152
132.266
13.9024
2.09839
9.87099
24.4969
32.8388
16.2599
8.89499
156.901
2.43835
16.6932
28.3927
39.5171
13.5741
8.21007
1.56411
13.7999
9.00961
0.979169
5.02357
9.25419
4.5111
3.37438
1.64003
20.6214
2.65769
185.64
2.37758
9.33693
33.3539
2.01242
38.1548
22.2914
58.2941
17.552
9.37295
1.55885
6.23647
25.632
43.6831
6.41433
10.7495
34.0358
4.91539
3.10736
14.1747
18.6828
6.23236
56.2252
5.63285
10.1097
54.2674
43.8397
2.14142
7.39005
51.8311
7.82444
6.33243
7.1596
2.07826
2.40394
4.29001
74.2051
13.6611
175.279
6.98378
97.4391
2.49908
10.0466
3.96305
23.077
7.99188
5.40324
87.572
9.72099
2.11584
0.842889
4.70933
95.5288
45.3771
10.0034
9.23604
91.4649
21.6251
89.8148
11.0688
29.2816
30.2929
1.61355
20.297
65.7793
2.37111
46.5611
11.1013
4.52154
4.41242
4.85243
10.2363
2.51922
8.21422
5.27767
10.3874
11.1617
5.30271
53.7891
15.0662
14.056
10.3771
1.54559
0.900838
30.5467
9.55903
10.1843
10
27.1294
51.2114
35.5899
49.1758
4.60135
29.9655
33.1441
37.6011
17.7529
2.52254
5.83457
4.51482
19.3233
28.1338
7.41928
19.2854
2.97613
6.79652
27.0398
9.27759
9.09162
40.036
8.42814
1.12041
35.619
5.72847
11.1288
44.7413
5.67953
17.1066
0.918097
31.0318
55.4418
2.36831
4.38166
25.5392
9.25993
17.8285
11.3376
4.65836
47.3674
11.3208
5.42444
2.04161
7.48292
4.85538
7.83038
11.1283
31.331
7.81051
7.55595
1.08364
5.79609
8.62731
34.1189
31.517
0.57024
9.9952
13.1076
87.531
1.82662
8.26019
6.05429
9.12003
6.66866
4.41928
32.9132
6.33906
27.3888
15.6731
7.33494
5.62521
26.1087
7.41182
16.5111
93.2645
9.3621
26.9037
8.09464
4.27965
46.8411
8.87113
14.2549
36.9305
13.4018
31.9104
4.32152
3.40788
7.61299
16.0457
18.3341
68.0628
7.7439
11.3909
1.02456
0.590674
0.528248
1.58652
1.30834
2.55552
10.762
9.26374
1.91403
1.5142
8.77856
3.21031
5.86514
57.8813
7.93376
18.4017
0.721439
0.484224
1.07361
39.0875
6.86913
55.1005
33.4217
10.16
4.03249
37.8436
14.596
81.221
152.288
21.9869
11.499
13.9057
1.86593
1.50135
1.23304
0.482569
1.83595
6.86012
28.2993
5.5677
9.3022
5.84003
0.660487
1.02773
50.9611
24.1586
13.9162
28.6731
1.29991
4.19343
10.7413
5.69514
9.16774
4.13188
21.9908
10.2564
28.467
27.2284
12.4836
6.18784
8.98327
0.447817
27.2396
41.5455
57.24
2.91485
52.4347
28.0994
53.946
14.2302
2.502
7.39715
1.11926
7.37548
20.2847
6.80944
37.5346
28.8983
16.9853
32.2594
33.676
9.25076
22.4725
17.2252
47.6708
23.5431
33.1335
5.97886
20.3646
15.7934
33.4853
36.3775
1.07462
1.66835
4.82738
35.5918
41.2531
54.0312
16.2568
13.9844
55.1254
116.635
34.4889
32.6098
8.33288
22.6421
7.30234
18.7696
8.80811
9.82909
10.6116
9.83569
6.1222
34.4201
72.8947
1.12423
0.960169
6.22145
5.70216
0.412306
59.324
0.939513
6.63877
60.7441
6.7514
7.63146
54.6072
0.862698
6.665
50.8424
46.4116
46.2641
91.958
30.2073
9.06017
56.0908
4.76743
15.0483
1.77563
0.924778
5.87789
13.2298
91.9292
71.1576
75.5732
8.21405
44.987
81.619
11.5207
50.0058
51.9046
11.3723
41.6612
0.89612
105.79
31.7705
26.0065
25.0405
91.4466
6.80558
6.14938
29.4625
4.5724
4.1328
69.4071
6.13909
45.5903
11.3401
31.3234
42.4889
81.8797
30.0238
5.49463
122.76
43.398
73.4941
0.40944
6.67134
13.9845
13.8213
18.5215
49.0386
38.6786
14.2593
7.61034
35.4207
58.6866
9.97179
18.5734
29.0558
31.9583
23.1573
49.9193
29.5079
44.4419
16.8478
2.76574
1.15792
6.52675
33.1252
5.36014
7.14484
9.36355
36.5611
0.794653
30.7666
13.2909
4.77529
23.1015
27.3978
20.6621
31.5836
4.41053
33.2495
31.8793
30.3327
35.7938
4.21359
1.06313
20.373
5.17261
42.8706
28.8921
1.37059
6.28098
51.8244
6.32235
50.7686
0.837316
18.612
63.438
29.3039
20.5995
14.181
5.64531
19.3045
23.858
5.72573
29.0624
15.2896
11.5016
23.0766
18.9503
4.18155
1.06411
13.7244
10.1607
8.93391
31.08
0.649504
62.192
5.31239
7.48946
17.8587
13.7918
7.55864
29.004
28.4217
5.76192
3.22802
10.5783
7.20434
106.216
71.9464
11.9473
1.94582
35.5655
89.7332
5.26936
105.438
6.36545
32.7864
6.88323
4.62571
7.00526
2.04602
11.0136
80.2449
8.88644
5.48298
0.822075
12.0725
5.92822
6.82083
2.20129
1.21841
6.36728
6.49312
9.90522
8.73967
4.98844
26.4282
1.44108
27.0277
9.04225
6.83418
7.69714
142.993
26.2165
27.3952
2.06511
10.0501
1.49114
4.12512
7.87831
8.08016
33.224
1.86237
10.5388
7.24327
11.8069
43.4651
7.38555
29.6412
0.970488
0.937836
0.966146
8.69839
6.98108
13.6843
6.80739
6.99401
32.6245
0.887142
7.65493
1.34078
29.5665
14.1215
13.2964
0.853811
2.01094
8.84898
23.2993
34.9155
0.780168
18.3125
2.3376
79.2252
32.4417
26.879
25.9751
27.6604
7.47632
82.1176
29.8099
27.2139
2.80404
15.1074
10.0836
0.737403
1.06592
8.11375
5.36526
26.378
11.2912
4.25516
10.6083
2.64097
39.8157
29.8518
5.43395
13.932
185.59
51.5402
0.480347
4.36759
7.31385
35.3731
25.1434
10.4705
66.4694
5.78891
1.56597
23.889
9.6424
5.31922
48.8504
4.60448
26.2541
8.56133
37.8266
33.1707
66.549
46.0895
1.32934
29.514
28.217
34.5766
4.30971
0.773228
69.3034
7.92746
0.775261
27.9
3.94197
14.3958
1.35149
40.1921
22.2173
5.1756
22.3252
48.2385
8.0815
2.37239
4.34632
28.233
30.7633
0.862826
0.725722
13.0553
29.4162
18.2552
126.624
1.86216
48.2813
44.8006
41.0489
9.73386
1.20211
12.9564
44.5501
42.9771
29.1562
94.1858
46.9203
0.573774
2.29716
17.0561
37.5685
1.20291
38.1195
32.7227
8.54857
7.11205
0.997187
32.6602
3.91705
2.43774
104.61
0.461495
2.43513
1.03976
150.256
1.04408
4.35309
99.2037
48.443
13.9625
10.3424
0.696319
2.52498
33.5669
5.80813
26.4584
26.5662
6.39653
6.85719
0.735589
7.98984
49.9012
6.83743
1.09412
2.43426
8.56619
6.05219
1.46972
0.898501
95.356
31.2656
37.1641
40.4568
46.7303
35.17
27.8819
31.9401
34.9425
13.9881
7.34835
17.2139
3.55199
25.8582
5.99804
0.815604
5.57128
0.404825
1.73433
1.04331
2.45905
27.6128
34.8612
29.7858
4.01615
26.5568
4.38671
9.14245
8.73109
34.7627
66.5663
7.37169
4.50994
9.68538
9.93661
6.19025
13.1682
18.5025
6.08218
0.611074
48.9779
0.7964
6.37104
1.28421
11.0463
12.1789
5.67313
0.862486
7.84713
5.20226
5.47595
2.61797
5.14123
4.69151
0.742605
1.96144
13.5524
43.7094
1.18457
17.6419
0.387603
7.05518
0.782391
1.40535
47.1372
6.79123
1.5139
7.02151
1.23379
0.48381
10.4767
3.1878
0.717977
25.7782
14.6691
12.5048
20.5277
61.1948
1.14458
7.94401
3.24825
42.0991
0.405056
2.83401
47.8664
11.2898
31.4043
23.0329
12.1578
18.0804
76.0484
63.9512
25.9525
2.72237
0.385003
1.37408
1.23936
5.55615
77.2687
24.8709
12.0454
26.8711
33.3816
13.1271
19.4429
11.6427
37.0636
5.58827
0.713538
6.01999
5.09114
42.8836
10.3883
34.7121
10.0372
43.0653
37.3773
4.34671
2.45559
5.49987
7.08225
6.38434
4.39814
7.76955
8.6613
13.1563
0.771677
2.23061
6.91043
9.59495
2.89325
1.10727
117.098
2.45334
13.0187
7.53128
7.62241
3.328
26.4128
30.1781
81.1611
7.61692
9.92399
4.74495
31.201
1.97754
1.76211
25.6171
6.05579
16.4351
10.8532
8.23401
9.37495
87.6724
3.19053
67.5712
8.87718
12.0412
9.33311
39.6735
8.21034
11.5472
6.35887
8.49433
8.82088
1.62076
13.5523
19.3849
28.3978
64.4122
5.83564
57.4016
2.88145
50.774
5.88317
42.7516
3.00685
6.99373
22.798
15.4377
11.6724
7.21805
37.9175
44.2645
152.147
2.44396
4.19937
10.8134
23.4085
0.766028
1.40997
4.59221
1.25881
36.0662
13.0653
1.0091
38.6892
7.96692
5.77949
8.9936
69.601
76.242
42.6773
9.00266
11.6968
8.99412
24.0682
1.35417
5.29384
6.70193
46.0496
6.77937
8.0521
11.2117
8.27682
164.651
23.0468
9.07203
24.3226
119.101
30.1948
9.49301
74.8368
10.7652
38.3738
3.32561
46.4448
2.26926
0.638864
1.4077
29.4954
5.87915
25.9634
5.98869
4.3143
29.2848
6.35649
30.7049
5.99293
31.9794
0.787294
1.40151
1.80015
18.9031
77.0714
4.98192
24.4695
34.7999
12.9912
43.3765
5.63263
1.25407
9.33572
11.115
11.4825
11.2735
0.939847
4.59533
31.4924
40.8526
6.54928
76.9876
2.82283
71.4487
14.1866
14.1402
3.18355
41.4212
46.9524
0.584479
8.02299
2.82935
32.1155
67.4609
23.2284
27.7141
26.0041
17.9327
43.1882
5.12449
43.5247
8.25865
4.03343
12.0825
2.41329
75.2009
108.698
4.38298
18.152
93.9724
0.892819
14.5151
28.4682
0.764018
3.57585
45.5103
4.77529
27.6655
32.5661
69.8918
1.86543
84.8399
20.4523
4.29146
25.4435
6.88401
3.8621
17.696
15.3255
3.93555
126.909
6.5433
18.0693
61.0716
0.913899
1.4143
14.476
1.26631
3.91201
48.1101
5.62424
2.77715
11.1521
31.6711
4.19853
0.439315
1.50801
0.999671
60.3787
11.6227
1.26943
4.81027
64.0771
3.2183
100.1
7.38339
30.9061
0.580909
1.30098
27.6651
3.35096
20.6369
81.0925
50.8474
55.1376
8.92764
117.898
3.61274
0.39913
2.23335
8.71275
72.6566
116.756
0.505958
1.36129
5.40426
12.1218
1.18864
36.1826
120.439
39.2218
14.3827
4.44345
0.81789
3.29373
13.3068
123.973
29.0156
4.44092
2.06486
16.6816
43.9127
57.1516
31.6272
28.4065
0.396555
5.222
87.5094
30.7527
4.03073
39.8496
3.70072
73.3106
11.1019
5.41389
11.1753
28.5768
4.85135
3.39913
27.823
30.2218
47.2884
12.6745
9.49285
5.25259
13.213
14.2283
64.856
9.23611
3.74414
16.3563
0.753147
57.4379
10.0325
5.90568
105.648
4.44087
8.40385
35.2213
2.60186
31.7427
4.61515
3.33561
9.58081
19.9231
12.6216
37.42
120.937
2.38236
110.976
3.82514
11.7737
62.198
2.709
5.14347
1.4731
9.73921
121.178
48.6145
0.765034
1.28621
10.0492
2.17614
6.21776
45.8422
10.1823
2.75438
26.1106
4.65389
8.01919
178.109
5.49003
113.254
30.9641
4.41692
3.13416
10.3429
4.66977
41.0269
1.86728
18.4449
12.3884
23.3225
17.3857
3.32892
50.4273
17.5994
8.9144
0.449467
7.65312
4.42434
5.66111
15.2788
4.32531
34.6502
42.4497
3.90332
14.5477
6.55612
17.8305
22.5531
142.97
15.9073
25.307
9.43802
3.92836
69.7084
50.9631
2.95179
9.05438
4.7805
13.0987
5.41584
28.7901
7.62027
0.941944
8.73587
6.05352
34.4646
42.3309
7.52199
35.9743
8.75151
12.567
7.21067
8.08407
11.8675
20.7034
1.54835
32.7789
7.54116
2.0086
20.731
41.6616
1.6001
8.1432
1.78539
4.90147
3.89939
8.83008
3.82908
97.8397
53.244
13.3377
10.456
1.15987
33.2831
16.2336
1.87421
5.86844
5.46754
8.03995
86.2452
5.90562
38.1366
2.30217
7.87205
13.7997
64.263
153.465
3.32267
6.9534
37.0111
5.05834
1.1769
8.61139
7.65576
35.95
32.9492
11.3092
8.49775
5.99489
3.95734
30.6999
6.35798
24.5142
2.13982
4.44566
8.51362
5.80209
50.7818
77.529
5.92324
5.13314
8.90643
20.1607
37.7374
5.44788
5.63084
43.3295
8.61059
1.35575
30.776
9.49567
7.65752
9.49933
4.83415
63.0431
5.45045
165.06
6.078
45.007
111.987
12.0955
18.3326
2.32643
22.8041
3.51343
58.1504
15.9276
6.42293
10.1076
46.8903
10.2071
5.60936
5.97042
5.88473
12.6079
8.26837
58.2001
37.1181
45.5233
41.6984
34.4742
41.8174
4.85395
9.18939
11.7811
48.6185
8.83123
12.0524
13.2892
52.6354
10.2633
42.6019
10.3889
30.3775
24.0724
5.14376
32.6237
20.252
1.19763
1.48276
100.494
1.782
1.95074
2.42269
)
;

boundaryField
{
    frontAndBack
    {
        type            empty;
    }
    wallOuter
    {
        lowReCorrection 0;
        type            epsilonWallFunction;
        value           nonuniform List<scalar> 
90
(
18.315
25.1434
23.889
26.2541
33.1707
29.514
28.217
40.1921
22.2173
28.233
30.7633
42.9771
29.1562
37.5685
32.6602
99.2037
31.2656
37.1641
40.4568
46.7303
35.17
27.8819
31.9401
34.9425
34.7627
76.0484
63.9512
34.7121
43.0653
5.49987
7.08225
6.38434
4.39814
7.76955
8.6613
9.59495
7.53128
3.328
26.4128
9.92399
8.23401
9.37495
87.6724
3.19053
8.49433
8.82088
5.88317
42.7516
3.00685
44.2645
69.601
8.27682
30.7049
43.3765
31.4924
3.18355
2.82935
32.1155
67.4609
17.9327
43.5247
8.25865
4.38298
93.9724
45.5103
69.8918
84.8399
3.93555
126.909
6.5433
55.1376
3.61274
116.756
5.40426
120.439
123.973
28.4065
30.7527
4.03073
73.3106
35.2213
110.976
3.82514
30.9641
3.90332
4.90147
153.465
3.32267
35.95
20.1607
)
;
    }
    inlet
    {
        type            fixedValue;
        value           uniform 14.855;
    }
    outlet
    {
        type            zeroGradient;
    }
    wallInner
    {
        lowReCorrection 0;
        type            epsilonWallFunction;
        value           nonuniform List<scalar> 
138
(
20.6048
3.71444
3.64532
1.13894
2.16055
17.6951
34.6026
1.93109
1.14045
1.94241
4.23662
48.6917
8.21007
1.56411
1.55885
6.23647
2.07826
2.40394
4.29001
74.2051
89.8148
35.5899
49.1758
29.9655
33.1441
37.6011
28.1338
40.036
31.0318
34.1189
31.517
3.40788
7.7439
1.02456
0.590674
0.528248
1.58652
1.30834
2.55552
10.762
9.26374
1.91403
1.5142
8.77856
3.21031
5.86514
57.8813
7.93376
18.4017
0.721439
0.484224
1.07361
39.0875
6.86913
1.86593
1.50135
1.23304
0.482569
1.83595
6.86012
28.2993
5.5677
9.3022
5.84003
0.660487
1.02773
4.13188
57.24
53.946
23.5431
4.82738
54.0312
116.635
72.8947
54.6072
91.958
56.0908
91.9292
71.1576
75.5732
81.619
50.0058
105.79
4.5724
4.1328
81.8797
1.15792
0.794653
30.7666
31.5836
1.37059
7.48946
1.21841
6.98108
0.780168
0.737403
1.06592
66.549
1.32934
14.3958
1.86216
12.9564
17.0561
0.997187
48.443
0.735589
5.57128
29.7858
4.01615
0.611074
1.37408
42.8836
0.771677
2.23061
1.10727
39.6735
57.4016
2.88145
4.19937
10.8134
77.0714
2.82283
71.4487
0.892819
1.26631
5.62424
64.0771
3.2183
0.81789
3.29373
2.60186
13.2892
32.6237
20.252
1.19763
100.494
1.782
2.42269
)
;
    }
    procBoundary0to1
    {
        type            processor;
        value           nonuniform List<scalar> 
29
(
1.30604
1.86457
0.988518
0.988518
6.65486
6.65486
116.156
2.2785
23.1252
1.80253
2.03805
3.60577
1.05849
1.44561
92.8172
42.9185
9.127
17.3754
1.50533
1.81164
18.0139
7.75241
19.7478
12.2872
12.4137
17.3754
9.69567
71.5932
12.2872
)
;
    }
    procBoundary0to2
    {
        type            processor;
        value           nonuniform List<scalar> 
42
(
9.5518
9.84514
2.53169
2.25063
9.5025
9.5518
2.53169
1.90959
3.6702
0.723651
26.6193
29.8059
26.6193
25.4458
15.9956
8.40127
15.9956
0.52283
1.38643
1.43132
1.43132
0.52283
0.419512
1.22033
1.22033
0.400743
1.92231
0.492737
4.74717
10.0225
10.0225
0.702416
0.914068
0.975594
0.916223
2.53169
11.1387
3.2118
4.74717
1.90959
1.12883
0.918896
)
;
    }
}


// ************************************************************************* //
