/*--------------------------------*- C++ -*----------------------------------*\
| =========                 |                                                 |
| \\      /  F ield         | OpenFOAM: The Open Source CFD Toolbox           |
|  \\    /   O peration     | Version:  v1912                                 |
|   \\  /    A nd           | Website:  www.openfoam.com                      |
|    \\/     M anipulation  |                                                 |
\*---------------------------------------------------------------------------*/
FoamFile
{
    version     2.0;
    format      ascii;
    class       surfaceScalarField;
    location    "0.43";
    object      phi;
}
// * * * * * * * * * * * * * * * * * * * * * * * * * * * * * * * * * * * * * //

dimensions      [0 3 -1 0 0 0 0];
oriented        oriented;


internalField   nonuniform List<scalar> 
2776
(
1.7895e-05
0.000153688
-1.47033e-05
-0.00015688
-2.70395e-05
4.82258e-06
-0.000124677
0.000146894
-5.81756e-05
2.58809e-05
-4.55262e-05
7.78209e-05
-2.01644e-05
1.07512e-05
8.01791e-05
-7.07659e-05
3.37785e-05
3.53469e-05
-1.5301e-05
-5.38244e-05
0.000200548
0.000149556
-0.00021911
-0.000130994
8.73263e-06
-4.81457e-06
7.15616e-06
-1.10742e-05
6.00738e-05
-0.000174619
6.47802e-06
-0.000119362
0.000122018
-9.13378e-06
-0.000368316
0.000432506
-0.000262411
0.000198221
6.85779e-05
1.43714e-05
-8.29493e-05
-0.000206169
0.000234735
0.00011454
-0.000143106
1.59491e-05
-1.59491e-05
0.000146142
-8.05868e-05
-6.65149e-05
9.59293e-07
-4.44053e-05
-0.000140574
0.000116274
6.87058e-05
2.58985e-06
2.98934e-05
8.39457e-07
-3.33227e-05
-5.57644e-05
-1.90232e-05
7.47876e-05
7.92809e-05
1.01347e-05
1.14523e-05
-0.000100868
7.75542e-05
-4.34056e-07
4.91372e-05
-0.000126257
3.04008e-05
-4.31216e-05
0.000112072
-9.93516e-05
-3.23745e-05
4.36646e-05
3.30261e-05
-4.43162e-05
-1.36254e-05
-2.72108e-05
2.31216e-05
1.77146e-05
5.98906e-05
-5.16156e-05
-8.27498e-06
1.0563e-05
0.000133363
-0.000123179
-2.07468e-05
3.73408e-05
0.000126112
-1.73099e-05
-3.73869e-05
-1.04479e-05
1.95806e-05
2.82543e-05
-5.55185e-05
6.8734e-07
1.55602e-05
3.92709e-05
-4.54165e-05
2.87601e-05
2.57422e-05
-9.08588e-06
1.68099e-05
2.80303e-05
-8.34712e-05
0.000155543
-7.20723e-05
-0.0001384
0.00018037
1.32059e-05
8.87636e-05
-0.000174489
-0.000191049
0.000276775
6.85234e-05
-7.31733e-05
-2.39621e-05
9.40722e-05
-0.000110297
5.07567e-05
-3.4532e-05
-0.000119001
1.61017e-05
7.24675e-05
3.04313e-05
7.88366e-05
-7.66779e-05
-4.6564e-05
-2.7746e-05
5.19913e-05
-7.44736e-05
5.02283e-05
-1.36745e-05
0.000107701
-1.55211e-05
-7.85057e-05
6.18537e-05
0.000129236
-0.000165434
-2.56558e-05
2.76159e-05
-3.58724e-05
-0.000159853
-0.000163466
0.00011715
5.15147e-05
-5.9278e-05
-4.34387e-05
5.1202e-05
0.000133934
-9.0991e-05
-3.64645e-05
-2.18834e-05
-3.68655e-05
0.000169435
-0.000110687
-2.77879e-05
4.17706e-05
2.77726e-05
-4.17553e-05
8.09458e-06
3.40823e-05
-0.000126998
8.48211e-05
-3.69402e-05
0.000132441
0.000104624
-0.000200124
2.62428e-05
-5.5337e-05
0.000108375
4.70529e-05
-2.10516e-05
2.55135e-05
5.32027e-05
-1.35311e-05
-7.20461e-05
3.61497e-05
-4.73726e-05
2.20389e-05
-1.0816e-05
1.76273e-05
4.38615e-05
-1.17638e-05
-7.7856e-05
0.000105743
-0.000140085
2.93119e-05
5.02992e-06
-0.000129051
3.50062e-05
0.00011519
-2.11451e-05
0.000230155
-1.44823e-05
-0.000143666
-7.20073e-05
-3.1311e-07
-5.40236e-05
5.40156e-05
3.21101e-07
3.53249e-05
8.47309e-05
-1.43127e-05
2.96297e-06
-1.42191e-06
3.60143e-05
-3.75554e-05
1.0601e-05
2.57438e-05
-0.0001256
7.39565e-05
2.59e-05
6.0527e-05
-0.0001113
5.79609e-05
-7.18813e-06
-0.000196593
3.71047e-05
1.94031e-05
4.92505e-05
1.39926e-05
-1.95785e-05
1.9443e-05
-0.000138398
0.000136026
-1.70711e-05
-1.61336e-05
3.95557e-05
-3.70475e-05
3.78891e-05
-2.59809e-05
-3.24589e-05
2.05507e-05
-0.000112409
0.000131922
-4.16245e-05
2.21117e-05
-1.38461e-05
3.8947e-05
-3.87755e-05
-0.000140875
4.47675e-05
0.000131437
-3.53289e-05
-2.19158e-05
8.0697e-06
-0.000172126
0.000283779
0.000115277
-0.00014449
-1.74765e-05
2.10914e-05
6.91762e-05
-0.00017188
0.000128947
3.09315e-06
4.51761e-05
-3.14594e-05
4.84696e-05
7.61647e-05
-8.93094e-05
-3.54606e-05
6.52091e-05
-7.30863e-05
4.33378e-05
9.91028e-05
6.88251e-05
-0.000109273
-5.86549e-05
0.000111929
-1.52238e-05
-0.00011101
1.4305e-05
5.50798e-06
3.25646e-05
8.98026e-06
-2.75581e-06
-2.03546e-05
4.10455e-05
-1.79351e-05
8.50151e-05
3.78285e-05
-1.5195e-05
-0.000107649
3.57772e-05
-2.17504e-05
-1.67827e-05
7.98784e-05
5.98623e-05
-6.47489e-05
-7.49919e-05
0.000153175
9.98073e-06
-3.09609e-05
-0.000132195
-9.95474e-05
0.000103241
-6.83767e-06
3.14371e-06
9.72867e-05
-1.02055e-05
3.56115e-05
-0.000122693
-3.05206e-05
0.000115148
-8.46278e-05
5.80904e-05
-6.30761e-05
-7.71215e-05
8.21072e-05
-1.51898e-05
-7.06397e-05
9.23864e-05
-6.5569e-06
2.46699e-05
6.4595e-05
-5.31152e-05
8.30735e-05
-6.03914e-05
-2.08758e-05
-0.000108661
2.58977e-05
0.000103639
9.92385e-06
-1.7899e-05
5.19756e-05
-4.40004e-05
2.80669e-06
9.76917e-05
-4.43625e-06
-9.60621e-05
1.23134e-05
-3.64488e-06
8.86181e-05
1.18258e-05
-3.24147e-05
5.2299e-05
-6.53007e-05
8.39e-06
-3.18609e-05
-8.11221e-05
0.000104593
4.80686e-05
-6.89445e-05
6.25528e-05
-0.000109566
9.52344e-05
-4.82215e-05
8.37139e-05
5.83142e-05
-3.29974e-06
1.29529e-06
5.12549e-05
6.30107e-06
0.000112526
-6.89799e-06
-0.000133578
3.64946e-06
0.000132735
7.28417e-05
-0.000108488
9.51915e-05
-5.95451e-05
5.90495e-06
-3.52229e-06
5.12013e-05
-5.3584e-05
-3.12361e-06
-1.3111e-05
-5.23693e-05
6.8604e-05
4.01874e-05
-6.75116e-05
-4.36739e-05
7.09981e-05
-3.20242e-05
0.000102785
2.80712e-05
-1.21221e-05
0.000172661
7.54318e-05
-0.000122182
-0.000125911
0.000126085
3.22368e-05
-6.44092e-05
-9.39122e-05
0.00012216
-9.2023e-05
9.59472e-05
-2.61084e-06
-9.85575e-05
1.6209e-06
0.000140603
-3.81408e-05
-0.000219062
0.0001166
-9.64155e-05
7.85651e-06
0.000102552
-2.26531e-05
-9.1569e-05
0.000124297
-1.00748e-05
4.3965e-05
-1.17282e-05
0.000100437
-8.72099e-05
6.66515e-05
5.17676e-05
-1.18889e-05
0.000113296
0.000105081
-3.33153e-05
0.000119734
-0.0001915
2.9249e-06
-5.45897e-06
-6.36268e-07
3.17035e-06
-3.8366e-05
3.71006e-05
2.5365e-06
-1.27106e-06
4.63504e-05
-0.000113835
0.000125575
3.01793e-05
-0.000163416
4.11373e-06
0.000129123
5.7688e-05
2.13253e-05
-4.48542e-05
-3.41592e-05
7.7828e-06
9.78883e-06
-0.000162062
3.47328e-06
9.18771e-06
-7.44591e-05
6.17981e-05
4.71296e-05
4.38007e-05
-0.000287523
-7.41864e-05
-1.2881e-05
5.36023e-05
3.3465e-05
5.01575e-05
6.74123e-05
-6.91001e-05
-4.2703e-05
-5.80174e-05
4.14425e-05
2.91642e-05
-8.21728e-06
-1.36065e-05
-7.34043e-06
5.15161e-06
6.58575e-06
-1.27232e-05
9.85801e-07
0.000102703
7.56946e-07
-9.56771e-05
0.000323874
0.000108632
-1.96841e-05
0.000134833
-0.000188113
0.000156684
8.22385e-05
-5.08096e-05
6.47371e-05
2.73466e-05
-4.72402e-05
-4.48434e-05
1.31341e-05
-3.57704e-05
-7.08251e-05
8.07148e-05
-9.88968e-06
-3.50765e-05
-5.43613e-05
8.94378e-05
6.02394e-05
2.55646e-06
-4.6306e-05
-1.64898e-05
9.30872e-05
-0.00018909
0.000143133
-1.34318e-05
-0.00015072
8.95699e-06
-3.05787e-05
1.83523e-05
1.51513e-05
2.18601e-06
0.000107675
-6.61989e-06
-5.11942e-07
-9.77977e-05
6.85508e-05
2.97589e-05
4.35075e-05
7.71992e-05
-0.000108393
6.34082e-05
-4.65975e-05
2.31742e-05
-3.99849e-05
0.000132826
-7.88395e-05
-4.70504e-05
9.33677e-05
-1.03961e-05
-3.59212e-05
-0.000119063
0.000161186
2.73738e-05
-6.94966e-05
7.0497e-05
-1.28685e-05
-5.50437e-05
-1.27488e-05
3.53778e-05
0.000117711
-5.18752e-06
-1.69204e-05
-9.56031e-05
0.000128947
6.75258e-06
-3.19537e-05
6.61681e-05
-7.0694e-05
5.68249e-05
-6.0757e-05
4.78383e-05
-0.00010956
1.69872e-05
0.000184923
-9.23509e-05
8.95068e-05
-3.73504e-05
-5.21564e-05
-9.2819e-05
5.86325e-05
-7.49036e-06
4.16768e-05
1.99539e-05
-4.58232e-06
-7.08901e-05
4.83007e-05
2.89787e-05
7.73567e-06
-7.78124e-05
0.000112239
3.40236e-06
1.38813e-05
-1.31609e-05
-6.17938e-06
8.0715e-05
-3.96174e-05
5.19896e-05
2.19973e-05
-5.86968e-05
0.000152688
-9.72153e-05
-8.25123e-05
7.68378e-05
6.14795e-05
-7.21492e-05
6.89302e-05
-5.64737e-05
6.37082e-05
-5.05152e-05
1.57563e-05
-0.000105816
5.9221e-05
-0.000142303
8.37123e-05
-8.68065e-05
6.5647e-05
8.12627e-06
-3.754e-05
8.71018e-05
1.13348e-05
0.00010096
5.06009e-05
7.55797e-05
-1.7172e-05
5.87456e-05
8.51013e-05
-8.22514e-05
3.45123e-06
-4.06784e-05
2.31999e-05
7.36919e-05
-5.62134e-05
8.01823e-05
3.28346e-05
-3.41802e-05
9.70258e-06
5.52407e-05
8.09378e-06
-6.33345e-05
-8.50559e-05
7.31603e-05
1.18956e-05
1.6392e-05
6.32093e-05
-0.000109205
5.01768e-05
0.000142741
-4.33785e-05
6.37955e-05
8.92015e-06
-1.14587e-05
9.12431e-06
-8.25768e-05
6.89607e-05
-7.97656e-05
9.33817e-05
-8.22433e-05
7.25082e-05
-0.000107008
-5.15927e-05
5.01129e-05
-2.74287e-05
-1.25392e-05
-5.59106e-05
-2.47142e-05
-1.137e-05
5.20064e-05
-1.59222e-05
3.10569e-05
-2.8097e-05
-7.63316e-06
-7.78569e-05
-7.32891e-06
2.95541e-05
-4.62516e-05
5.95044e-05
-6.4713e-05
-1.58431e-05
2.93516e-05
-9.16826e-05
2.25998e-05
0.000103165
-7.228e-05
-5.49131e-05
-5.88537e-05
6.14457e-05
-1.64132e-05
1.38213e-05
-7.35659e-05
8.36729e-05
8.35574e-05
-4.15314e-05
-6.94547e-05
6.70389e-05
-1.22204e-05
-7.95326e-05
8.32272e-05
-6.72171e-05
2.40633e-05
-4.00734e-05
1.69068e-06
-1.72929e-05
2.23572e-06
-6.46625e-05
6.66249e-06
5.57643e-05
-3.23164e-05
1.60476e-05
1.62688e-05
9.49607e-05
-4.09384e-05
-0.000118432
-0.000121546
1.55714e-05
8.84982e-05
2.21938e-05
6.2774e-05
9.43109e-06
-9.43989e-05
-0.000141589
7.85208e-06
0.000151632
-6.0483e-05
9.34736e-05
9.91108e-05
-3.89289e-05
7.22587e-05
7.74826e-06
5.08578e-05
2.21089e-05
-2.51712e-05
0.000151508
-2.72263e-05
2.33191e-05
-9.29865e-05
4.34965e-05
3.27542e-05
-7.02002e-05
-6.05048e-06
-2.8166e-05
-0.000101183
3.761e-05
9.17394e-05
0.000127234
-6.21077e-05
0.000110083
-0.000175209
-7.32754e-06
1.20068e-05
2.4485e-05
2.64957e-05
-4.32303e-05
4.20483e-05
-2.53138e-05
0.000103065
-0.000114816
3.78589e-05
-2.61083e-05
4.4839e-05
-3.20591e-05
-2.4402e-05
1.16221e-05
3.80986e-05
5.59065e-05
-8.36835e-05
5.73311e-05
4.14849e-05
-2.44454e-05
2.77995e-05
-0.00014812
4.85432e-05
1.4267e-05
0.000107566
-3.30475e-05
5.39549e-05
-4.60831e-05
9.55711e-06
4.71123e-05
-4.57458e-05
-3.88819e-05
9.42411e-07
3.31923e-05
6.5768e-05
-6.23059e-05
-0.00012044
9.22742e-05
-5.58588e-06
4.87597e-06
7.09908e-07
0.000142689
-6.00624e-05
-0.000138655
1.82149e-05
4.08249e-05
0.000101785
-2.82225e-05
6.21676e-05
2.72201e-05
-6.11652e-05
4.9639e-05
1.53734e-05
2.86817e-05
-6.69349e-05
0.000125259
-5.31552e-05
4.3816e-05
-5.04637e-05
-2.15748e-05
-6.8205e-05
3.60746e-05
0.000122176
-8.51666e-05
-0.000146569
2.72891e-05
-2.42102e-05
-9.41222e-05
9.10433e-05
5.12738e-05
2.46259e-05
-0.000104902
1.25135e-05
8.14937e-06
2.98772e-06
3.26789e-05
-1.04507e-05
7.41101e-05
-0.000143457
-7.56528e-05
0.000119648
8.70902e-05
-0.000138032
0.000186604
1.91274e-05
-3.87005e-05
-6.24215e-06
-2.87082e-05
5.0082e-05
-3.27438e-05
-1.61027e-05
-1.65219e-06
8.96561e-06
8.78924e-06
-1.73934e-05
-0.000134936
1.0027e-05
-7.906e-06
1.88756e-05
1.03717e-06
-4.80889e-05
3.20305e-06
-3.86545e-05
5.73176e-05
-1.89762e-05
-9.36046e-05
4.25452e-05
-1.36417e-05
-4.23837e-05
7.13323e-05
3.22118e-05
4.03393e-06
-3.41219e-06
-1.40589e-05
1.68348e-05
-2.79982e-05
3.20942e-05
-8.98695e-05
8.57735e-05
1.63626e-05
2.18071e-06
-2.10351e-05
2.49174e-06
2.56645e-05
7.33681e-05
0.000139036
-0.000238068
2.55489e-06
5.92616e-05
-5.76084e-05
-3.08798e-05
2.92266e-05
-1.71012e-07
0.000123965
0.000111101
6.44711e-05
0.000165714
0.00015649
-0.000135599
-0.000200116
-5.01871e-05
3.00013e-05
0.000220302
0.000157489
0.000324511
-4.6184e-05
-6.07081e-05
6.93521e-05
-0.000171605
-2.39938e-05
0.000107705
8.78936e-05
-7.97623e-06
-9.49749e-06
-2.32047e-05
0.000168584
-0.000105076
-0.000181542
0.000118034
5.47645e-05
-0.000159331
3.90853e-05
-1.22923e-05
0.000151875
-3.61937e-05
3.06286e-05
-0.00014631
-9.16881e-05
-7.91363e-06
-4.77728e-06
1.07279e-05
1.96298e-06
-0.000202796
2.83436e-05
-9.85747e-05
1.3612e-05
0.000100719
-5.33758e-05
-3.98254e-05
5.9424e-05
3.37772e-05
2.19466e-05
7.27231e-05
-7.55292e-05
-1.91405e-05
-4.07858e-05
-2.85138e-05
-3.33516e-05
2.99394e-05
5.80528e-05
-6.54649e-05
-6.07055e-05
0.000123159
-0.000124561
-7.94231e-05
1.14668e-05
9.26261e-05
-1.84548e-05
4.64674e-05
8.85921e-05
-0.000125131
-0.000152551
-3.07041e-05
1.46804e-05
-3.56114e-05
-7.77719e-06
4.49248e-05
-5.04847e-05
-3.31406e-05
-6.49068e-06
1.804e-05
-2.88099e-05
-1.24918e-05
5.02219e-05
8.49347e-06
-4.20004e-06
-0.000101794
0.000146827
-4.81294e-05
4.27355e-05
-6.37062e-05
3.66294e-05
6.03978e-05
-9.92545e-06
0.000153346
-0.00013781
-1.55357e-05
-7.85562e-05
6.1375e-05
1.71812e-05
-0.000128735
0.000102742
2.59935e-05
-9.11928e-06
3.7456e-05
-2.83368e-05
0.000115352
-7.00215e-05
-4.53303e-05
-3.45185e-05
-1.67314e-05
5.12499e-05
5.06835e-05
5.34904e-05
-0.000104174
-5.46398e-05
7.36251e-05
-1.89853e-05
0.000166657
-0.000164056
-2.60091e-06
1.60758e-05
-2.51951e-05
-0.000180498
0.000119205
6.12929e-05
-8.37782e-05
5.22204e-06
0.000162625
-9.27882e-06
2.17996e-05
-1.92668e-05
-2.53279e-06
-1.20766e-05
7.39513e-05
-7.90219e-05
5.0706e-06
1.5223e-05
-2.45218e-05
-3.0118e-05
0.000192084
-2.54274e-05
-6.9933e-05
3.51789e-05
3.47541e-05
-6.60876e-05
-2.25607e-05
8.86484e-05
-0.000166867
3.81313e-05
1.27261e-06
3.60336e-06
-3.64838e-05
7.00874e-05
-3.36036e-05
-0.000109362
5.91708e-05
5.01909e-05
-3.34158e-06
0.000151971
3.24515e-06
-3.68209e-05
5.54697e-05
4.06128e-05
-7.26649e-05
2.73301e-05
4.8878e-05
2.68807e-05
-8.32187e-05
-5.28927e-06
4.88989e-05
1.11853e-05
-3.54201e-05
-2.46641e-05
-2.3946e-05
-1.34622e-05
-5.25171e-05
-1.37038e-05
-1.85852e-05
0.000140499
6.69982e-05
0.000114075
-5.07945e-05
5.44019e-06
-1.22542e-05
-0.000108127
2.99885e-05
-4.801e-05
-0.000143142
-3.73557e-05
-1.925e-05
-2.84521e-05
4.77022e-05
-5.15148e-05
-2.86316e-05
-1.84427e-05
8.27226e-05
-6.10056e-05
1.64956e-05
4.16044e-05
1.75664e-05
0.000102394
-3.2307e-05
-1.43137e-06
9.62165e-05
2.29882e-05
-1.01531e-05
3.28088e-05
1.46195e-05
-0.000208672
-0.000104575
0.000101233
-5.14989e-06
7.53877e-05
-2.6413e-05
-4.13229e-05
-0.000216983
0.000139177
0.000119129
-5.62572e-05
-4.57266e-05
6.3886e-05
0.000155847
5.87345e-05
1.57304e-05
-7.19101e-05
-2.86889e-05
6.03161e-05
4.50253e-05
-2.79299e-05
-2.82839e-06
4.27012e-05
-2.69691e-05
0.000173171
-0.000188904
0.000181032
-0.000166749
2.84183e-05
6.86659e-05
4.51487e-05
-8.62284e-05
-2.75862e-05
3.13883e-05
2.76498e-05
-8.18027e-06
-0.000114961
0.000130655
-0.00015389
0.000138196
-2.48582e-05
-6.34901e-05
6.37183e-05
5.006e-05
1.5821e-05
-3.44926e-05
1.19586e-05
6.79126e-06
-5.10817e-05
3.71107e-05
2.86737e-05
-6.87409e-06
5.63664e-05
1.75849e-05
3.51881e-05
-1.85827e-05
-3.50482e-05
-2.37601e-05
2.21237e-05
2.92863e-05
5.37456e-05
1.40081e-05
-0.000180601
9.03611e-05
0.000247728
-5.99001e-05
-3.73187e-05
6.92207e-05
0.000126394
3.29215e-05
-9.45784e-05
-1.72918e-05
-1.20249e-06
4.57835e-05
8.47652e-05
2.46808e-05
-7.48799e-05
-3.45661e-05
-7.20693e-05
-6.61867e-05
4.34016e-05
9.48545e-05
-7.93674e-05
8.27726e-05
-1.08878e-05
-4.67692e-05
3.38969e-05
-0.000140768
-5.48652e-05
-1.76834e-05
9.0731e-05
-6.68895e-05
-6.15809e-06
9.39921e-06
-3.26164e-05
-0.000163589
0.000186806
3.03475e-06
0.000119689
3.67057e-06
-0.000181217
-1.28327e-05
0.000204343
-1.02935e-05
2.79372e-05
-6.1863e-05
0.000214958
-0.000171883
0.000209219
3.34737e-06
-0.000181358
-3.20585e-06
-0.000146768
0.000119799
-2.06934e-05
-1.02225e-05
3.70513e-06
2.62301e-05
4.9869e-05
-1.97751e-05
-5.6324e-05
-5.28688e-06
1.08235e-05
-1.109e-05
5.64491e-06
1.58224e-07
1.76521e-05
-9.16493e-05
8.23902e-07
5.72986e-05
-5.07394e-06
-2.57911e-05
-2.54591e-06
-3.74197e-06
1.21394e-06
6.74647e-06
1.94142e-05
-4.66195e-05
-6.54918e-05
0.000147569
-0.000149453
4.91863e-06
-1.86241e-05
1.51934e-06
-5.92651e-05
7.63699e-05
4.05311e-05
-4.85074e-05
-9.74437e-05
-6.05658e-05
0.000139385
-8.07717e-05
-1.29873e-05
7.60755e-05
-0.000227463
2.27833e-05
-1.3546e-05
-0.000154305
0.000145068
-0.000191966
-2.34441e-05
0.000146351
6.90589e-05
-8.28831e-06
5.43626e-06
2.85205e-06
-3.56675e-06
0.000114875
-2.2245e-05
1.88359e-07
2.3576e-05
-3.84676e-05
0.000175508
5.25903e-05
-0.00018963
-0.00017775
8.56752e-06
1.72611e-05
-3.03686e-05
-6.76642e-05
8.82809e-05
-8.00273e-05
5.36527e-05
-6.19062e-05
5.05898e-05
-3.18281e-05
6.95191e-05
7.7637e-05
-0.000236854
0.000147696
1.15212e-05
-4.51614e-05
-0.000194503
0.000226832
0.000265746
-0.000150736
-3.7373e-05
-8.89143e-05
0.000101609
4.56595e-06
0.000124818
-1.20383e-05
-0.000151247
-0.000157584
1.47789e-05
0.000150207
-7.40209e-06
-5.07833e-05
-2.07383e-05
5.85344e-05
-9.57185e-05
2.32566e-05
5.8916e-05
-7.88562e-05
4.47046e-06
0.000124976
-3.2873e-05
-7.76838e-05
2.16425e-05
-1.29961e-05
-1.69841e-05
2.99803e-05
-0.000182419
-5.64175e-05
0.000193676
-3.29319e-05
-4.82201e-05
4.5386e-05
-8.29322e-06
0.000110476
3.5305e-05
-1.76345e-05
-0.000175254
-1.47219e-06
-0.000189684
-1.2685e-05
-1.78483e-05
1.58885e-06
3.01322e-05
-3.1721e-05
1.49352e-05
-3.15906e-05
-8.07883e-05
-4.57088e-05
-9.07801e-05
1.79213e-05
7.62462e-05
6.83647e-05
5.90065e-05
-0.000127371
-5.70149e-05
-1.6103e-05
3.73055e-05
-4.32887e-05
-0.000176549
5.25458e-05
-9.96387e-05
-2.90224e-05
3.93423e-05
8.2146e-05
-7.01223e-05
6.55305e-05
0.000117009
-0.000215255
0.0001601
0.000123757
-6.81132e-06
-9.87976e-05
-0.00023399
0.00017445
-9.87931e-05
5.4663e-05
-5.67158e-05
0.000132162
6.69995e-06
-8.90594e-06
9.17488e-05
-2.816e-05
1.41321e-05
3.93355e-05
-4.02886e-05
-7.79247e-05
7.88778e-05
-9.3293e-05
4.65048e-05
-2.45875e-05
-8.13909e-05
-6.49498e-05
8.9625e-05
3.46442e-05
-3.48155e-05
3.13364e-05
3.74669e-05
8.36191e-05
-8.17504e-05
-5.66387e-05
4.57509e-05
2.13185e-05
-0.000172832
-5.0716e-05
-2.90032e-05
4.29492e-05
-3.46843e-05
-8.34475e-06
9.9336e-06
-2.90848e-06
-6.72965e-05
5.0823e-05
5.98751e-05
5.80577e-06
-6.98956e-05
-1.07901e-05
-8.93655e-06
6.73624e-05
3.2924e-05
-6.28196e-05
1.18609e-05
-2.28341e-05
3.30969e-05
0.000114772
0.000186679
-0.000190907
5.68183e-05
-0.000137305
0.000114588
0.000118003
-9.52853e-05
4.62346e-05
-0.000156889
-3.73417e-05
0.000114203
7.63081e-05
-0.000119939
-0.000154902
-2.5431e-05
-6.67043e-05
-0.000180621
6.11794e-05
-0.000173084
-0.000167235
2.09004e-05
3.39501e-05
-2.76069e-05
-1.40285e-06
2.53557e-05
-0.000191935
-0.000202469
3.5967e-05
-0.000192597
1.81214e-05
0.000110554
-3.79446e-05
1.40596e-05
-1.64107e-05
1.22847e-05
8.94477e-06
3.15864e-05
5.76322e-05
-4.86875e-05
-0.000118601
-0.000112458
4.21546e-05
-6.69725e-06
3.59153e-05
-4.55353e-05
-1.21176e-05
6.34857e-05
1.59944e-05
-6.11088e-07
3.03961e-06
6.67921e-05
5.9484e-05
2.05645e-05
6.95177e-05
0.000180976
0.000159044
-0.000195155
2.9352e-05
-2.24399e-05
0.000102659
-8.21805e-05
-8.5779e-05
-3.58143e-05
-2.78979e-05
7.02946e-05
-9.90207e-05
-1.21646e-05
5.8224e-06
4.0887e-06
-1.02885e-05
6.47342e-05
-3.60654e-05
1.08619e-05
5.28603e-05
5.99762e-05
7.23092e-05
-0.000186387
0.000100115
-9.63769e-05
0.000149442
7.5211e-05
-0.000128276
8.39084e-05
-4.6369e-05
5.6129e-05
4.10629e-05
-1.82987e-05
-5.96777e-05
8.08077e-06
-2.37802e-05
0.000124808
-0.000129124
-3.72424e-05
6.22048e-05
4.18799e-05
0.000138882
-0.000129828
-5.09341e-05
5.95571e-05
4.77651e-05
-1.91757e-05
-7.34864e-05
9.71325e-05
-5.25319e-05
2.14614e-05
-6.51084e-05
-3.59947e-05
2.20788e-05
0.000142996
7.22185e-05
1.22265e-05
-5.52382e-05
2.18174e-05
1.32447e-07
3.32883e-05
1.4005e-05
0.000149421
-0.000132798
5.50624e-05
8.66019e-05
0.000155515
-0.000125629
-0.000126262
4.94482e-05
6.87587e-05
-4.05015e-05
-0.000113539
0.000116369
3.56623e-05
-1.91785e-05
-6.27354e-05
8.68959e-05
0.000132125
-0.000115966
0.000150447
3.05792e-06
-1.00124e-05
0.000137905
-0.000130951
-3.76564e-05
-2.5922e-05
1.27839e-05
0.000100072
0.000101412
5.93281e-05
4.23205e-05
-5.9878e-05
-3.45427e-05
6.19124e-05
-4.38595e-05
8.70713e-05
-3.76439e-05
6.85755e-05
-4.41684e-05
4.07861e-05
3.38232e-06
2.69399e-05
4.38732e-05
0.000101708
5.13167e-05
8.90199e-05
9.81233e-05
3.28447e-07
0.000126397
-9.82036e-05
-2.85222e-05
1.94881e-05
-3.63826e-05
7.83402e-05
8.61339e-05
-5.53087e-05
-2.71546e-05
5.69681e-05
-0.000165469
-0.000137492
-0.000162693
8.04727e-05
-8.33104e-05
-0.00012416
2.88483e-05
3.42376e-05
-2.42214e-05
-3.88645e-05
0.000159173
-0.000144246
0.000115728
0.000100278
5.81197e-05
-8.04388e-05
-7.79594e-05
-4.79522e-05
-6.40915e-06
0.000117472
-3.67573e-05
8.69469e-05
-1.23688e-05
-3.74168e-05
3.05098e-05
-1.70574e-05
7.21104e-05
-4.53596e-05
2.35119e-05
-0.000128872
3.18757e-05
2.15438e-05
5.59888e-05
-0.000139448
8.81969e-05
-0.000185603
-2.11127e-05
5.55437e-05
2.1698e-05
-4.42132e-05
-4.36431e-05
2.81786e-05
-5.04031e-05
2.08032e-05
3.18356e-05
1.69259e-05
1.46133e-05
-1.79041e-05
1.34905e-05
-1.16891e-05
2.86521e-05
7.95605e-05
2.48572e-05
-1.97793e-05
6.07122e-05
-2.59922e-05
-0.00021914
7.50417e-05
-6.56555e-06
0.000150664
-9.99734e-05
0.000113901
-0.000142264
8.59953e-05
0.000134136
8.83182e-05
3.52484e-06
-4.53513e-06
1.05326e-05
-1.36568e-05
-4.78948e-06
3.17058e-05
-2.70906e-05
2.23246e-05
-0.000118363
-4.78581e-05
-2.60776e-05
2.90153e-05
8.71116e-05
-4.36253e-05
-7.43661e-05
2.62237e-05
-5.1792e-05
4.75149e-05
-6.83079e-05
2.47305e-05
-9.79838e-06
-6.37458e-05
9.29474e-05
-7.8973e-05
-3.52882e-05
0.000114261
6.75967e-05
7.00273e-05
-6.82719e-05
5.81122e-05
4.12656e-05
-6.51401e-05
0.000134974
-2.59167e-05
5.32417e-05
-3.61515e-05
3.57886e-05
-3.80222e-05
-5.39523e-05
5.58535e-05
-4.95234e-05
-9.33297e-05
0.000111262
5.37289e-05
1.6588e-05
-0.000179591
-1.61658e-05
-1.68974e-05
2.06944e-05
0.000117323
-2.78159e-05
6.03937e-05
-8.44736e-05
4.82084e-05
-2.10392e-05
4.8531e-05
2.56089e-05
-3.15834e-06
-4.94349e-05
2.48341e-05
3.4868e-05
5.46614e-06
-0.000136544
-1.62878e-05
-7.87268e-05
7.79237e-05
6.98619e-05
4.66848e-05
-2.8228e-05
0.000110778
-7.88136e-05
-2.74202e-05
-1.31375e-05
2.43919e-05
5.44154e-05
-4.9683e-05
2.44941e-05
-0.000128172
-0.000152464
0.000153289
0.000127347
-4.65105e-05
5.26853e-07
1.53845e-05
-1.24478e-05
3.2852e-05
-0.000120035
0.00013976
5.18818e-05
-3.96893e-05
-6.08479e-05
2.9796e-05
-0.0002131
1.05379e-06
8.50675e-06
-0.000107362
7.03261e-05
1.5276e-05
-4.21312e-06
-4.41762e-05
-1.96272e-05
-2.41332e-05
-2.01844e-05
4.55083e-07
5.84416e-06
2.35942e-05
9.47448e-05
-7.78961e-05
-3.8187e-05
-0.000129915
0.000132636
-6.81068e-05
-0.000128948
-2.19389e-05
6.12774e-05
8.96096e-05
6.11343e-05
-1.44696e-05
-4.92186e-05
2.55382e-06
-7.5169e-05
2.246e-05
8.41967e-05
-4.0521e-05
-3.78354e-05
3.39325e-05
-4.07808e-05
-2.42621e-05
3.11104e-05
8.6765e-07
4.58073e-05
2.47648e-06
-4.91515e-05
1.48156e-05
-7.83562e-05
1.34228e-05
-2.03379e-05
0.000102902
-8.0071e-05
7.55472e-05
4.00943e-05
-7.43759e-05
-0.000145793
2.11707e-05
-2.01632e-05
1.57145e-05
-8.78763e-06
-7.37077e-05
1.41874e-05
-3.53475e-05
1.06396e-06
4.41312e-05
4.1619e-05
-5.15256e-05
8.45511e-06
-5.22329e-05
6.50982e-05
3.94446e-05
3.188e-05
4.52415e-05
-7.48125e-05
2.9571e-05
6.48972e-05
0.000111256
6.76765e-06
-3.46876e-05
-5.23975e-05
8.6323e-05
-1.9982e-05
0.0001782
-8.23053e-05
4.60824e-05
-1.6763e-05
3.04163e-05
-5.78318e-05
-9.37774e-05
-3.18249e-05
-2.67616e-05
1.1736e-05
6.87712e-05
9.27509e-05
-9.89305e-06
0.000165948
-4.91864e-05
0.000125464
4.08566e-05
-7.95701e-06
-8.14433e-05
-3.27482e-05
2.37302e-05
-0.00013469
-4.71274e-06
2.23508e-05
0.000190456
0.000103542
-5.20306e-06
6.36013e-05
8.19211e-06
2.69868e-05
-4.95014e-05
-7.29881e-06
4.53415e-05
-1.45135e-06
4.46886e-05
-1.60747e-05
0.000101643
-0.000101045
8.12425e-05
-5.91844e-05
-3.97366e-05
1.29605e-05
4.23362e-05
3.92496e-05
-3.37229e-06
-2.38885e-05
-1.19888e-05
3.36793e-05
9.16821e-05
-9.17716e-06
-1.64471e-05
-6.38084e-05
0.000102141
3.35858e-05
1.12875e-05
5.97218e-05
-1.79142e-05
2.388e-06
2.86603e-05
-9.69395e-05
-0.00015791
5.24765e-05
-5.44017e-05
1.92518e-06
5.33441e-05
-0.000123044
-3.04936e-05
4.24622e-05
0.000111075
-5.7924e-05
5.65074e-05
-3.16329e-06
5.33577e-06
-1.74123e-05
-0.000141393
-2.58193e-05
3.06637e-06
-6.09903e-05
3.86829e-05
1.78246e-05
-3.87538e-05
2.83092e-05
1.04446e-05
-0.000113675
5.95985e-05
5.40763e-05
-6.60095e-05
7.53359e-05
0.000104749
7.04582e-06
8.33865e-06
2.59853e-05
-4.82691e-05
-2.1422e-05
4.37059e-05
-5.75421e-05
0.000104933
-6.63041e-05
7.04185e-05
-5.61452e-05
-4.88161e-05
1.85917e-05
-2.6725e-06
-1.59192e-05
3.10652e-05
3.69737e-05
-0.000144188
3.67639e-06
0.000164023
-5.89106e-05
-9.97903e-05
6.26468e-06
-6.55357e-05
2.96586e-05
-0.000105886
-5.23353e-05
-2.05716e-05
6.96156e-05
-4.8444e-06
-2.33134e-05
-1.99311e-05
-3.30742e-05
4.57416e-05
-1.26674e-05
-4.61622e-05
-4.05495e-05
5.88958e-05
-2.72751e-05
0.000120354
-8.14112e-05
-1.86026e-05
6.35471e-05
-5.77593e-05
0.000189145
3.03204e-06
-1.03925e-05
-1.44825e-05
-9.89172e-05
-2.12317e-05
9.22523e-05
2.78965e-05
2.30733e-05
-2.26176e-05
1.09144e-06
-1.54714e-06
6.31469e-05
-7.73682e-05
3.41906e-05
-3.46247e-05
-5.32826e-05
0.000108803
3.0797e-05
0.000102674
-7.23365e-05
-2.18067e-05
-5.115e-05
1.78123e-05
-3.44602e-05
6.01987e-05
-0.000171223
-6.18076e-05
-0.000204203
-1.19474e-05
3.24396e-05
1.39903e-05
2.81395e-05
-2.66533e-05
-7.90107e-05
8.44062e-05
-4.42599e-05
-8.6796e-05
0.000100271
-1.85326e-05
-8.17386e-05
8.59111e-05
-5.946e-05
7.48139e-06
3.78265e-05
-2.8686e-05
-4.89659e-05
-1.7646e-05
6.60326e-05
2.43365e-05
1.83509e-05
5.31378e-05
0.000102952
0.000146115
4.51054e-05
-1.52382e-05
9.26559e-06
2.33724e-05
3.78896e-05
-9.94846e-06
-2.47997e-06
-4.39413e-05
-2.90687e-05
-6.84167e-05
-1.97712e-05
-2.22001e-06
-4.07101e-06
6.58273e-05
2.72285e-05
1.8013e-05
-1.11121e-05
4.72651e-05
-0.000111592
-3.31638e-05
9.36745e-05
7.93287e-05
-6.00627e-05
1.04506e-05
-2.5367e-05
1.10939e-05
0.000128203
1.22119e-05
-4.01981e-06
0.000103286
-3.67493e-06
5.35443e-05
-6.09815e-05
-0.000100687
-2.91763e-06
-0.000143051
-0.000138923
-1.68683e-05
-9.60442e-05
7.15347e-05
-8.57504e-05
9.02987e-05
-0.000100714
-6.36012e-05
2.99877e-05
-4.00716e-05
5.9567e-05
-6.99591e-05
0.000179826
8.47279e-06
-0.000102722
0.00010578
-9.82811e-05
-4.44133e-06
2.08742e-06
-4.38794e-06
0.000149974
-0.000147673
0.00011699
1.2032e-05
3.60251e-05
-5.11967e-05
-9.24008e-05
0.000107572
4.8118e-05
8.00222e-05
-9.41732e-05
-3.3967e-05
-4.03696e-06
-5.05918e-05
-4.0916e-05
-6.34659e-05
-3.16994e-05
-7.98883e-05
-4.44255e-07
0.000118464
-2.7696e-05
3.26286e-06
-1.54892e-05
6.62111e-06
1.93188e-05
4.30626e-06
2.31921e-05
3.31743e-05
-5.13533e-06
3.3809e-05
0.00014027
-0.000105256
1.01149e-06
0.000141538
-1.21291e-05
0.000158288
-0.00011598
4.22851e-05
3.58904e-07
-0.00020189
0.000116415
7.71821e-05
-0.00012784
-0.000159587
1.52717e-05
-2.61423e-05
-0.000118078
-1.71454e-05
0.000144709
3.41804e-05
-1.45046e-05
2.25743e-05
-2.68498e-06
-0.000214323
-4.20778e-05
-2.79436e-05
-4.07593e-05
-1.67419e-05
5.56655e-05
-3.02165e-06
2.13055e-05
2.40013e-05
-9.62775e-05
-2.03112e-05
-8.16562e-06
6.30559e-05
7.82711e-05
2.58415e-05
-7.53149e-05
-1.66573e-06
-0.000136591
1.59255e-05
-1.82582e-05
2.03172e-05
9.34068e-06
-2.52078e-05
-5.64001e-05
4.64709e-05
-5.02019e-05
-7.61573e-05
-3.91478e-05
9.78824e-05
-4.79177e-05
-7.31412e-05
-7.40211e-05
6.9676e-05
5.21473e-05
-9.83001e-05
8.49587e-05
-7.61901e-05
6.316e-05
5.11695e-06
1.07498e-05
0.000105506
-0.000141926
2.68445e-06
0.000128948
7.85461e-05
-4.93782e-06
6.73128e-05
1.47718e-05
-3.81596e-05
8.5744e-06
7.6588e-05
0.0001418
-1.68208e-05
2.87088e-05
3.14241e-05
1.82435e-05
8.48115e-05
-2.93699e-05
-7.04878e-05
1.50463e-05
-2.95034e-05
7.97329e-05
-7.72997e-05
-5.91222e-05
-4.54054e-06
2.47774e-05
-2.23901e-05
-6.65759e-05
-4.29507e-05
8.63218e-05
-2.73351e-06
-8.07345e-06
2.77329e-05
-9.9229e-06
3.54436e-05
-5.7439e-05
1.52465e-05
1.18304e-05
1.68315e-06
-0.000134129
2.58217e-06
7.50078e-06
6.87361e-06
0.00010731
2.58323e-05
-9.56646e-06
-6.92513e-06
-2.87171e-05
-2.70473e-05
-4.17739e-05
0.000128182
-0.000123889
-0.00018209
2.51465e-05
4.16954e-05
-7.73441e-05
-1.84388e-05
-1.55863e-05
3.03547e-05
-6.31653e-05
-0.000112726
6.14528e-05
5.12728e-05
0.000155259
1.4283e-05
-1.53224e-05
1.03937e-06
-0.000199165
0.000273667
-0.000234355
1.57516e-06
-4.10987e-05
-2.74114e-05
-8.11362e-05
4.4664e-05
-1.6683e-05
-7.52943e-05
-5.3861e-05
5.55406e-05
-6.26791e-05
-3.90915e-05
4.07966e-06
-2.25751e-06
-4.9624e-05
5.14793e-05
1.85194e-05
-5.79434e-05
-4.40845e-05
-1.86217e-05
0.000112602
-8.32163e-05
0.000120758
-2.08726e-05
8.05385e-05
-8.58893e-05
3.99446e-05
-5.05098e-05
4.81753e-05
9.35909e-06
-1.32825e-05
3.92346e-06
4.16916e-06
5.18993e-06
2.09696e-06
-7.95357e-06
5.85661e-06
6.26612e-06
-8.94691e-05
0.000105449
-1.59798e-05
-7.00497e-05
-1.94195e-05
0.000110272
0.000105191
5.08049e-06
-1.47045e-05
0.000106531
-1.33978e-06
0.000116344
-9.81323e-06
-1.49305e-05
2.26011e-07
-1.4091e-05
-1.36359e-05
-3.91065e-07
-0.000132117
-1.41718e-05
5.35912e-07
1.11175e-07
8.40917e-05
-2.00423e-05
-0.000227516
8.89355e-05
-0.000141723
3.88645e-05
2.30038e-05
-6.18683e-05
0.000126907
-0.00013519
-0.000131469
5.79871e-05
-0.000206862
2.96056e-05
-3.70657e-05
-9.00446e-06
1.68598e-05
3.56411e-05
-1.7444e-05
-1.53593e-05
-1.34529e-05
-3.95431e-05
8.22344e-07
1.2868e-06
0.000144457
-0.000145395
9.38081e-07
-1.98604e-05
-4.41586e-05
2.17269e-07
5.10314e-05
-6.75727e-05
0.000252873
-3.06989e-05
-0.000192172
0.00014468
-2.22779e-07
9.37485e-05
1.27012e-05
-7.22847e-05
1.86679e-05
0.000135138
-8.23127e-06
-5.83794e-05
-6.12254e-06
3.84243e-05
-8.27922e-05
5.19981e-05
-0.000102264
-8.14858e-05
9.33529e-06
-7.0321e-06
-0.000219001
0.00034371
-9.44867e-05
1.11819e-06
3.23629e-05
0.000127408
-0.000155555
0.000110869
-8.63707e-05
-0.000147173
1.72927e-05
-0.000121135
0.00012974
3.14344e-05
-0.000211431
-0.000145822
4.27155e-07
0.000141479
-6.34119e-06
2.91688e-05
-4.42471e-05
3.17818e-05
-2.10307e-05
0.000106045
8.64886e-05
0.000117927
-0.000143567
-2.25559e-06
-1.78852e-06
2.66357e-06
-2.10624e-05
-0.000171969
6.21865e-05
-8.26536e-05
-0.00019521
-8.00056e-05
-1.46484e-05
-9.23003e-05
-3.37679e-06
-0.000125395
0.000108574
-2.62272e-05
5.8009e-05
-4.69133e-05
3.01913e-05
1.70809e-05
2.62136e-06
-5.11369e-05