/*--------------------------------*- C++ -*----------------------------------*\
| =========                 |                                                 |
| \\      /  F ield         | OpenFOAM: The Open Source CFD Toolbox           |
|  \\    /   O peration     | Version:  v1912                                 |
|   \\  /    A nd           | Website:  www.openfoam.com                      |
|    \\/     M anipulation  |                                                 |
\*---------------------------------------------------------------------------*/
FoamFile
{
    version     2.0;
    format      ascii;
    class       volScalarField;
    location    "0.82";
    object      p;
}
// * * * * * * * * * * * * * * * * * * * * * * * * * * * * * * * * * * * * * //

dimensions      [0 2 -2 0 0 0 0];


internalField   nonuniform List<scalar> 
5794
(
90.727
92.1647
89.0648
91.6053
92.2515
90.0643
88.2496
89.5923
87.6885
93.0626
123.414
87.5106
85.6298
89.2364
92.8696
91.7887
38.9574
90.2741
92.9121
92.3634
90.6231
90.5201
86.2419
91.2448
88.652
44.8182
44.7638
90.9556
90.4105
92.6454
90.0959
84.3101
103.675
91.2703
87.9317
86.2703
96.4853
88.1041
86.0534
90.1477
89.871
91.5315
114.674
88.6864
92.9243
104.976
85.8741
88.7449
92.8451
88.8361
91.5345
82.1694
88.7825
92.7718
92.6245
107.245
87.659
87.8938
114.836
39.8557
102.164
92.455
89.4352
84.159
103.227
92.2541
88.7799
89.1875
90.3117
92.4787
81.3061
89.1384
19.5871
89.3184
89.9518
90.9493
90.4237
50.9064
88.9605
92.1026
90.3424
92.1329
89.7392
87.0342
89.2056
90.1489
83.8877
109.085
91.0841
88.3552
112.219
86.8567
88.8624
91.4001
89.8523
81.0434
107.951
89.6442
87.0913
103.08
78.8297
84.9435
114.848
91.0872
93.2156
89.2004
92.4434
124.685
80.484
89.412
91.1408
92.8575
72.177
92.2827
89.4405
89.8021
92.762
89.4733
101.303
90.1928
89.3982
92.8968
89.0461
90.9347
92.8854
121.448
86.821
90.5152
84.0873
123.222
89.883
89.6644
85.4449
55.0735
89.6494
92.8369
114.77
92.4907
91.6647
91.2905
89.8336
92.8409
92.9179
92.7819
91.6374
52.3211
89.5593
112.709
92.8585
93.0857
119.472
92.8449
89.6011
88.3985
47.7805
84.6682
88.1875
90.0263
104.535
89.3057
92.8253
88.8533
91.4323
86.5652
80.4702
82.1654
87.5711
89.8091
91.2418
92.866
92.7508
81.7636
86.5145
88.4928
91.3301
86.2682
92.8294
88.519
91.3788
84.2196
89.4294
86.2804
88.3044
105.579
89.5582
46.6117
84.6832
104.541
92.9237
85.0537
123.157
84.6312
103.686
90.3729
89.857
90.2266
89.4415
91.3702
92.9777
113.091
87.0964
81.3439
89.7297
89.8004
85.3607
104.603
89.8638
124.977
85.3514
87.2359
90.6536
95.544
86.5401
88.7411
91.0602
88.1422
86.2306
85.9133
123.803
96.2488
95.6351
84.4522
110.816
88.9127
109.583
39.3926
89.1728
93.2041
93.1602
92.7862
86.6525
88.7671
91.1747
81.1263
87.1304
51.9858
69.0617
117.404
86.6876
90.3625
92.0706
125.086
90.5355
89.0922
87.8012
91.0678
92.9667
92.9938
108.991
90.0469
87.0239
92.1618
44.4044
92.229
117.771
85.4137
113.791
113.714
125.027
92.866
115.23
86.8583
89.2702
92.3924
88.7073
88.6538
93.0411
120.925
92.8522
104.043
84.7525
90.1147
90.4572
80.5772
96.9488
92.7952
92.7836
89.6363
92.7401
85.7046
91.3261
103.311
89.8976
91.4443
89.6383
89.2481
86.8045
90.0825
87.1799
89.6782
86.3312
88.1935
91.0855
92.8327
110.677
55.0705
89.4387
91.5086
87.4063
92.3942
92.1703
78.8517
90.3201
89.3399
88.5315
119.352
92.7318
88.6155
103.35
84.2195
90.3353
103.967
90.1194
92.3204
96.3774
98.4205
124.632
90.8965
80.3773
91.4955
89.1989
88.7921
89.0866
92.515
91.755
83.4169
89.09
88.8667
87.5168
123.667
82.2101
115.962
90.3476
104.087
84.4339
93.0013
93.2175
91.3442
92.8697
104.797
91.3252
88.6711
86.3811
86.0536
92.8062
88.2333
107.707
87.4307
82.9074
87.5569
85.4886
54.2395
104.167
85.2945
89.2333
43.2289
93.0422
83.333
87.6791
89.6108
124.879
86.293
115.795
87.5669
89.6496
93.0897
81.2842
105.78
86.4937
88.3922
92.8048
92.3371
93.0982
92.6488
124.573
80.4304
107.547
87.3612
89.0825
92.7265
90.0269
92.8049
96.7902
86.3223
88.0869
91.3695
90.17
87.5482
89.4809
88.1756
89.7698
88.0304
92.458
91.1815
86.6445
88.6871
91.3098
88.4233
92.8264
86.5638
91.2048
88.3648
49.2789
91.0888
92.8711
118.74
88.6818
90.0958
92.4239
108.587
88.934
85.9395
122.574
81.9449
104.288
84.9273
90.1408
91.9709
80.6899
108.161
86.9756
89.6352
124.195
92.8004
86.3796
88.2997
91.4141
92.2483
92.1544
90.4946
81.7887
96.7999
93.0177
73.4401
92.9811
92.7665
89.8428
89.4374
86.4152
88.3817
91.3965
96.4023
90.2507
90.0834
89.4573
89.6046
89.3339
91.6862
88.4784
89.505
93.3121
92.3113
80.9219
90.4983
89.543
92.4285
106.43
84.3662
89.3347
91.8988
90.5927
92.4215
88.7672
91.062
104.024
123.079
47.9713
89.9983
122.877
89.3319
92.4489
77.8967
122.547
93.1699
92.8643
105.689
62.4754
90.7805
89.8465
92.3992
89.2183
90.5925
93.0187
93.174
124.582
122.923
95.275
89.3869
53.5915
90.4231
92.1927
89.9993
88.6937
92.7617
88.7612
91.2639
92.7298
92.7954
91.7477
118.135
89.5486
61.8107
98.5984
82.928
92.8181
92.4285
90.5536
112.676
122.587
92.2345
80.2652
92.7341
90.0001
92.4898
92.4065
88.6172
89.2197
92.5266
95.4345
49.7641
90.0389
92.4064
91.5278
90.1126
122.818
91.9658
90.8041
94.8218
92.4178
90.5084
89.2573
92.3772
47.5607
92.7621
93.084
88.7017
96.5192
112.939
122.902
114.625
90.4805
75.2121
92.243
88.0094
88.9546
91.7478
97.0098
92.9297
92.3273
89.9471
91.5369
92.784
92.8906
89.0043
91.3888
92.9
89.0113
90.4788
92.4356
93.218
22.8439
92.69
120.116
92.8245
88.797
89.3257
91.8213
88.9369
89.518
92.3193
104.931
82.186
81.9754
89.5384
50.4839
93.9087
90.1071
88.5773
91.4836
89.7452
89.8036
88.6151
122.448
50.5599
83.606
107.8
92.2185
89.5415
86.9909
107.53
92.2604
91.5712
92.4883
88.7219
88.6815
99.918
92.6936
96.0995
92.5106
88.3666
90.0196
105.769
89.3735
89.6836
92.423
122.529
57.368
93.1317
92.6144
90.197
86.8665
84.1618
90.3754
88.6019
89.2243
89.1683
117.715
123.392
111.975
89.2179
92.3631
122.502
121.843
124.81
92.4391
91.8482
92.6494
93.0104
125.79
92.2374
90.5878
92.1063
92.2577
89.958
92.3779
93.0653
65.9967
96.2359
93.0956
91.1058
88.7023
115.316
124.019
87.0402
113.907
89.7769
89.6937
103.212
92.7303
92.5893
90.6137
90.5303
92.7543
89.4107
89.541
118.502
49.1846
88.4954
37.802
92.1049
92.7474
92.9964
90.5518
89.9611
92.355
89.8903
89.3192
89.3398
87.0248
103.485
117.488
88.4275
41.2346
89.0771
89.4936
89.2733
89.3647
89.1083
89.5417
90.4139
92.0096
125.237
92.7896
91.731
92.8894
113.464
93.3377
92.7827
92.7658
92.5484
91.0461
98.8562
70.1059
89.604
92.8645
93.8295
124.777
92.3206
90.5936
95.5192
92.8225
85.8946
92.3226
113.816
93.3141
116.193
90.2336
93.1372
92.7414
124.186
115.047
92.7927
89.3968
86.8117
122.514
94.3777
98.0607
44.6069
120.661
89.4281
124.919
66.9148
113.387
92.7353
87.7761
88.4662
112.204
97.0802
124.184
99.5344
89.4275
68.2334
96.7749
119.016
92.8497
88.4441
36.1282
122.646
86.9827
89.2284
109.505
92.4549
90.018
88.5921
88.3901
89.7606
87.0678
105.564
88.6659
96.4075
91.5992
89.5984
92.7977
92.4564
89.3794
89.5535
97.79
92.6995
89.7819
107.043
89.2619
70.74
89.9636
89.8001
90.0777
89.7994
87.722
110.457
88.6031
89.5437
87.2418
108.495
93.3001
92.7463
93.133
92.6041
92.0361
90.8107
92.1048
89.889
124.597
47.4993
88.831
90.504
92.4355
90.1491
87.843
124.833
89.0983
88.7552
91.5121
118.697
107.113
86.5567
88.2002
87.9914
92.235
71.5885
90.4602
60.5473
94.6752
124.733
89.9484
92.6996
91.7834
92.8329
124.174
125.524
117.439
103.541
89.9583
89.7529
90.7073
105.654
95.1948
91.1642
85.922
104.83
124.422
92.4403
90.3375
88.7489
111.558
50.6148
92.2779
97.2873
92.8133
93.1712
92.931
87.0284
89.6388
106.876
96.0277
92.7705
89.9604
93.1511
91.7943
39.8323
88.8274
92.0133
88.2961
92.4386
122.589
91.7269
97.9638
92.4325
90.0196
103.663
96.4153
77.7739
89.2299
89.2433
89.4938
89.1541
120.603
120.979
50.4454
89.2248
92.4464
92.5859
103.841
93.066
89.6055
93.1036
100.832
89.5923
74.0919
122.538
92.799
90.8548
91.6496
95.7944
119.908
89.9384
58.3431
92.7908
92.7878
59.9111
106.715
95.485
87.9339
89.1204
123.534
113.348
92.3256
92.7734
86.0934
121.413
89.9462
96.376
120.929
89.7033
89.5878
90.0507
89.1769
96.5627
92.766
90.4383
92.148
93.4227
92.3073
92.7771
92.4033
89.9808
118.407
92.4284
96.2068
92.2296
89.6058
89.3878
90.5653
93.6096
122.625
122.844
57.719
88.5625
89.608
96.5294
92.1593
53.6883
103.191
83.065
116.188
90.0107
87.1027
89.8213
89.0126
89.5612
104.322
88.4798
88.4534
88.3952
89.4886
92.3977
116.073
92.5151
89.8849
108.812
86.8337
89.6722
92.8641
110.63
92.4121
90.2304
93.1083
92.3422
83.6212
124.231
108.281
96.439
89.7152
75.3686
92.277
90.4688
82.0947
45.8991
96.8293
88.5302
100.389
93.7412
92.8835
91.9672
92.5144
89.2527
89.2973
92.3745
92.4025
89.9833
92.6596
92.2906
92.4293
92.5935
96.2029
90.5345
97.0863
92.7573
92.2706
108.497
96.7365
89.4663
91.3762
87.0262
92.2024
123.551
98.7159
89.1933
92.6935
89.1171
122.476
92.6406
96.4367
90.0345
92.6912
96.4352
68.9583
95.6852
86.5276
100.584
92.4873
97.1134
91.1896
92.3055
109.547
71.535
89.2646
100.228
91.6607
89.9882
92.187
91.8255
101.387
105.355
49.6435
79.1941
90.1121
92.2516
89.1634
89.6842
86.6058
102.857
113.042
92.445
90.5351
92.3946
89.9762
96.6769
92.8133
94.8705
91.0034
96.1583
96.8103
97.8268
91.1517
92.1164
90.772
93.0339
91.1381
122.618
92.4717
96.3529
88.234
92.4238
93.1157
92.7907
88.2564
124.51
92.4338
124.914
92.3611
98.2426
124.664
92.5306
91.531
108.912
92.2062
91.6178
90.5418
92.5467
89.0814
88.7596
90.2737
92.4136
88.8299
92.6804
92.2257
95.6915
92.6066
92.7044
91.2781
88.2642
86.3927
95.9998
104.534
102.379
89.0689
89.0207
92.7321
92.5372
90.473
91.5376
89.8365
89.6421
92.7542
116.456
92.4345
90.9674
92.7957
122.353
92.7729
83.2751
90.0609
92.2213
97.3018
89.6667
91.7559
88.2691
93.1063
96.144
96.6561
92.2796
97.1404
92.2341
92.2295
88.9019
92.4343
90.4496
90.8982
92.5419
123.643
92.787
56.8574
92.7614
90.0452
92.3988
96.3853
90.3452
100.485
92.5858
91.5565
95.3378
102.476
85.016
90.9296
92.2863
91.9715
90.6651
90.1091
93.0363
96.5303
93.4381
93.6485
119.091
112.628
91.8375
101.351
100.353
92.8797
88.6133
88.2993
92.5127
31.362
96.7553
92.4676
92.552
122.533
122.798
93.5075
91.8981
90.5674
89.5396
88.9636
92.316
91.2471
89.1701
89.8984
91.5782
89.6802
89.9301
92.6114
88.2418
89.3653
90.2069
93.5162
92.3661
88.212
90.534
86.6564
89.7162
89.6848
102.29
103.35
97.5512
94.2873
96.3528
102.165
92.6571
89.9351
92.4855
103.882
98.9977
92.1056
90.457
114.937
91.2313
116.989
89.4674
88.6504
101.783
88.3621
115.354
105.27
89.1233
89.4155
96.5524
111.203
92.5975
89.8535
92.2738
56.15
92.4554
92.7188
88.6098
89.968
92.3931
97.8113
92.9673
115.575
91.3227
88.6245
100.054
89.4382
85.9748
92.7596
92.5833
89.1941
89.2261
122.325
123.875
88.574
96.5165
92.2218
90.1856
88.4036
84.5176
103.419
125.252
114.508
97.0108
93.1371
92.2481
91.0151
89.607
96.3695
89.2496
89.0678
89.3799
92.5936
90.4383
75.4206
90.5992
55.2449
89.8703
92.3494
113.675
97.3398
91.2177
92.6556
95.8532
89.3639
92.6902
92.4792
91.3522
90.6816
92.3827
88.6277
88.7812
90.8354
92.4555
91.4869
90.2989
89.1631
78.0734
88.3734
118.05
95.7569
89.1103
92.6726
89.8065
108.583
87.6046
89.3718
89.9238
92.7622
124.039
51.8254
88.5173
92.8314
92.795
83.7351
92.6779
89.9968
91.4363
90.9174
88.316
90.5521
89.6123
89.8634
91.8317
92.7079
92.3323
96.3004
89.8664
92.728
89.9807
110.071
97.0472
123.792
123.22
89.8678
92.5789
91.6349
92.6872
124.582
89.3392
88.9571
89.1374
92.4802
92.6444
92.276
88.6677
90.1889
89.7979
92.7192
89.4544
92.8381
41.7384
88.2249
36.7426
49.7676
89.8447
96.1361
92.6186
89.7454
91.6592
90.5784
89.5475
89.9511
91.7458
83.9975
103.144
102.292
89.291
89.5368
87.119
85.7937
93.1481
92.6576
89.9514
123.88
92.7764
90.0439
92.7603
92.6319
89.9859
112.276
91.6776
89.7661
88.7685
88.9456
88.7763
88.4206
92.8782
92.6153
96.3939
89.8045
129.505
123.466
92.3965
40.3847
124.178
90.0168
88.9081
92.7919
101.293
92.7999
92.2838
90.2415
88.6856
10.8132
97.0678
89.7053
84.3064
109.423
56.0577
113.627
88.6775
90.3555
92.2536
90.041
91.7392
88.7371
89.1903
92.3469
89.076
91.6027
91.7446
89.3547
88.7683
90.2492
92.1374
91.7039
88.7014
89.1685
91.8256
88.7063
89.3967
90.2866
92.2025
92.5571
91.6935
88.3559
89.8218
90.105
91.7292
90.1487
88.7577
89.4029
92.1749
90.4604
92.2974
90.2599
91.7594
88.7015
92.2294
91.7353
90.0496
92.3872
89.5484
88.6125
87.2638
85.0624
55.6883
92.724
91.1542
101.24
92.1469
92.6194
92.792
92.5501
94.0404
92.7859
89.4452
89.983
49.0776
89.7775
90.3181
89.367
92.6968
92.6963
92.6796
90.0241
89.525
89.9292
92.6723
88.8573
88.2316
91.4935
122.721
93.6372
89.9822
89.1429
89.1481
45.1653
92.801
88.3454
89.4791
105.295
90.5569
89.4546
89.1546
89.8428
118.748
92.9996
89.2218
89.4118
89.9302
95.7949
95.0373
11.5329
92.7795
89.4696
91.8608
90.6086
92.2866
92.7798
138.929
89.7123
92.2616
91.7578
89.0865
88.7297
90.1465
89.1361
91.6587
92.2731
90.0659
91.7198
88.7104
89.4638
92.4772
88.4887
90.0488
88.7378
89.3394
92.1463
91.821
90.292
90.4033
88.6701
92.2752
99.3964
88.1991
125.106
108.208
89.7379
95.7886
90.514
92.5006
118.633
92.5999
93.1519
128.552
92.1556
89.9143
92.7154
92.1353
116.945
93.0745
72.6193
91.6194
92.8793
92.6046
90.9831
97.6551
92.7961
91.2795
97.5025
93.1309
92.6997
88.9902
91.7499
89.7885
92.789
90.1942
87.6818
92.6801
91.1029
92.5073
91.2257
89.9045
92.5672
92.7111
90.0775
92.7035
92.7128
92.2461
92.7773
92.1513
96.7697
89.0834
86.469
89.7716
90.4505
80.6266
92.6431
96.4657
106.2
90.0489
121.39
88.3298
92.2732
93.0816
89.3483
91.4304
96.6953
92.773
91.7055
89.6277
89.4572
92.3429
89.2761
93.1215
92.6112
90.152
90.6099
93.4669
93.2583
93.1144
95.4418
91.6324
91.4477
87.3311
91.5045
91.5884
90.3502
92.7631
89.3533
92.6037
88.4597
92.8272
90.113
115.338
89.3616
89.5412
90.4518
92.8205
89.901
92.2413
92.7355
89.2103
89.8789
91.772
112.129
89.5066
93.6092
90.7769
89.2594
117.947
117.314
90.9841
92.9205
90.0431
98.8337
91.9271
106.979
93.8909
141.401
89.1444
86.0555
103.805
114.437
85.0569
87.3868
89.423
129.371
87.3992
107.664
88.3163
131.234
89.2463
88.568
29.2825
89.1462
90.6525
90.1973
92.0878
90.0694
88.6866
94.9365
89.8729
92.4684
88.3159
89.4364
89.3904
89.0684
88.9442
89.4992
89.0187
89.1466
92.7632
89.2982
89.7238
89.0097
88.9618
89.4659
88.9207
90.1763
90.0723
90.1928
88.4591
88.0528
88.8701
47.6513
88.9886
89.1353
88.7996
88.6351
92.7113
92.7907
89.1399
89.3835
90.5467
92.7242
92.7153
89.066
89.308
88.8856
88.5908
88.7392
88.0762
88.4268
90.3244
90.0927
88.4948
119.894
90.2804
89.0909
92.5702
88.592
92.7049
88.7977
92.715
88.3381
92.6188
92.6976
89.8985
87.8799
88.3607
88.1581
88.557
92.7538
106.971
92.736
85.6632
84.345
87.5129
104.636
80.6435
92.7323
106.684
104.984
84.6935
81.6605
91.3468
92.8242
80.3102
103.269
109.236
92.7056
87.9031
106.888
80.3233
105.857
92.7975
92.7699
92.8498
84.1805
88.7583
51.9215
92.7613
87.1476
88.3867
92.707
84.0628
91.3633
88.571
104.775
103.37
86.3311
52.052
79.8935
92.8543
80.0651
92.6699
87.9729
86.0233
91.3502
106.541
89.1798
51.7958
86.2387
87.9188
91.339
80.0336
48.9899
92.9021
145.824
80.7036
88.8783
86.2029
87.7913
92.9236
88.4057
103.312
84.4057
80.9534
48.6543
48.5296
88.4393
88.6981
89.4821
90.491
90.1918
91.2023
91.1829
84.1539
89.8878
88.2705
92.5171
123.352
88.3976
88.8953
90.3232
88.2987
89.9171
92.7102
89.86
91.0639
88.5537
88.1964
89.7402
90.5507
91.1136
86.2391
87.8958
92.9615
92.3617
89.8931
89.6083
92.4516
92.2587
88.273
88.6052
90.2703
90.4936
92.6911
87.742
84.6601
103.478
90.0133
87.9737
88.3001
90.5148
92.7073
92.4975
88.3373
90.8051
92.0503
91.9282
87.9791
90.4002
89.559
48.0727
92.5987
89.5323
91.0382
92.8186
90.3786
90.1365
88.819
92.6511
90.4956
92.5338
91.8085
91.2476
90.5531
89.9761
93.1551
90.2449
92.6231
90.7364
92.6892
92.6673
89.8312
89.9882
90.1598
93.112
92.6283
90.0909
90.9725
89.9159
88.4449
89.8058
92.3891
88.3535
89.8763
92.7509
84.8633
87.2119
103.557
88.5807
88.4255
89.9467
92.679
92.6358
123.616
83.6548
87.1682
89.4839
92.8659
89.8431
88.1942
91.0297
86.3073
92.9475
90.9876
92.8818
46.806
115.432
90.9947
89.2084
86.7408
93.044
88.4666
89.8981
92.2396
123.849
87.6488
89.4814
88.5659
90.9532
88.5805
89.9416
92.1487
104.536
85.8477
86.8882
124.077
84.6831
88.1784
89.3814
88.6342
45.2322
115.299
90.9398
86.4856
89.1645
88.7932
93.018
88.0224
89.8157
83.4285
85.6915
90.973
88.6186
89.9746
92.1054
87.3106
88.7242
90.1156
123.915
85.3664
91.7542
45.4956
49.4098
89.2251
115.288
89.2503
89.4307
88.8995
88.7513
93.0785
92.992
86.5911
84.1073
90.9541
88.3337
87.7953
106.808
87.2291
112.7
88.1495
89.3089
89.942
92.8987
92.8925
88.8815
88.7592
88.7647
88.8413
90.9898
86.6261
88.6844
89.5223
84.3581
90.929
88.6544
90.0583
92.0486
87.2052
106.65
87.5056
124.102
88.1945
87.8505
89.0994
88.3021
89.3108
90.0829
90.1677
91.7363
47.8722
89.2667
99.0515
90.5298
94.7362
115.245
94.387
92.7255
91.0547
88.9034
89.2713
86.73
90.3359
85.789
93.6575
93.0243
87.1675
99.2862
93.0317
90.4969
90.2123
88.1713
88.1868
90.0567
90.674
90.423
90.9211
88.6821
90.1558
92.05
87.6076
89.6006
93.1096
92.7545
93.5232
94.0762
118.289
92.7786
92.4653
88.5688
89.2376
90.12
91.7105
44.4804
89.3173
92.7454
92.8831
94.6324
95.9459
87.6089
89.0706
94.7288
89.8427
89.2836
88.9386
85.9015
93.2527
96.8405
92.6465
92.4964
92.6175
92.2338
88.9694
89.7085
88.827
91.0918
86.7068
89.3298
92.6783
89.5704
88.9721
93.1362
92.3284
124.844
92.6532
92.7658
83.2396
88.8842
89.1303
89.0439
85.4441
91.2043
89.6405
88.7758
88.8349
88.2313
92.4698
88.6676
90.1718
92.0356
92.6486
92.6488
92.6653
88.8942
108.746
87.9314
90.4641
90.2726
90.2314
90.4751
90.1387
91.2032
91.2579
90.8342
91.5675
88.2011
97.5692
89.4667
89.3146
96.4534
92.7147
117.549
90.2421
90.7558
90.0662
124.234
89.9542
88.7834
89.1821
93.2238
83.9406
90.1631
88.5736
92.7102
91.7052
88.3285
88.4566
89.3723
88.7177
89.9394
92.2156
123.034
89.2628
90.2913
92.9343
92.7665
91.3778
92.6001
92.5567
89.3284
89.3145
92.6941
90.9631
92.6934
90.5791
89.3866
89.1882
92.8064
90.192
88.4472
90.0855
88.8114
89.3431
92.3608
115.23
116.083
92.7168
88.6458
90.328
88.508
115.535
90.224
90.2323
91.885
90.2294
116.551
89.3767
90.2504
84.6476
87.4968
89.0723
90.5428
91.2346
92.565
89.0226
90.5517
88.8346
94.6942
88.7249
93.1436
123.841
88.9027
92.709
89.3944
89.2411
89.3074
88.9921
91.7477
91.5876
90.1119
90.3569
89.5472
88.7846
88.7624
96.3162
90.2157
93.1405
88.1877
93.3991
90.2209
90.2383
88.6676
90.2312
92.0618
92.9724
80.9763
88.8451
88.6914
92.3082
92.3739
88.6518
81.2657
92.7009
91.1055
89.9961
91.9774
88.5475
95.6923
90.2726
90.0308
89.257
89.2568
92.7401
88.7402
101.213
90.328
126.917
88.2715
88.9475
89.886
91.9522
89.4339
91.3767
89.1119
88.8528
89.1325
118.401
87.8158
108.128
88.6825
92.7596
91.6313
89.0455
88.9582
93.1527
105.081
89.1255
94.6911
100.101
105.83
90.0717
92.7341
90.5049
88.6597
89.9367
92.5428
124.357
86.6924
89.1641
85.9307
90.2012
53.371
92.6926
88.9269
89.1946
89.1111
92.1079
88.755
81.2394
89.957
92.4081
90.4869
92.7474
92.7534
89.2688
90.0041
89.1699
89.2273
47.5411
90.577
90.2884
109.999
91.2657
82.1704
91.9745
37.5503
101.476
92.8551
92.1524
92.4437
93.0099
123.774
89.6166
88.7681
92.8017
131.567
93.163
88.6736
89.8755
92.3637
90.4659
92.5827
90.5353
92.5078
90.7553
89.8842
90.4318
116.558
88.9191
89.1104
88.2864
92.3117
91.9253
91.6001
92.4365
92.8239
91.634
89.2655
135.703
92.0896
89.4573
90.4217
89.5702
90.883
89.6685
122.599
92.4248
88.7096
92.4301
91.6812
69.8586
123.173
92.4372
92.3614
90.1716
93.1411
98.2169
92.5705
89.3617
89.7357
96.3785
88.8081
89.383
89.2492
92.7683
93.0201
99.6491
89.3328
88.9213
89.3388
85.503
88.509
88.8779
92.1723
89.333
92.6337
89.5133
92.7158
92.7586
88.6583
94.677
89.3721
89.5383
89.7435
89.6726
92.3721
89.6681
99.6188
89.2391
89.1181
91.3184
89.3736
87.5584
91.8798
94.0343
95.2049
96.2506
88.7552
90.2964
92.0717
76.6523
90.6484
89.6741
92.0983
89.0956
111.725
89.3213
88.9882
89.399
100.436
86.6712
88.9568
88.6462
90.0954
92.4192
89.2838
110.218
88.3613
89.3497
89.2868
89.2912
89.2715
92.8558
89.9077
90.6774
89.1276
87.6441
108.819
91.8056
93.098
92.4072
88.6549
90.2559
92.0523
86.6607
92.8017
89.2275
93.752
92.7586
89.7672
89.323
90.0004
90.4025
87.406
88.511
91.2739
92.7536
92.8411
94.0094
92.6616
89.546
88.6562
90.2591
92.1072
131.715
106.922
90.4826
89.8739
99.7894
107.778
107.486
89.9855
90.8145
91.8098
90.279
91.6798
92.635
94.0617
123.423
90.4412
92.6899
87.1679
86.252
105.224
92.4913
89.9194
92.0865
89.0844
90.8247
90.1188
89.8694
88.2523
49.7459
70.9325
92.7651
88.9865
91.7805
87.8906
91.0751
91.6339
99.4616
92.9046
115.078
89.4372
91.5856
90.2475
91.867
90.5231
92.5837
89.7173
90.3196
88.6427
98.007
91.6557
90.4137
89.1796
122.606
92.4737
88.4052
84.0637
90.0711
122.736
123.666
91.3211
89.292
90.2304
92.2813
88.6711
89.0538
20.6688
92.3426
118.059
84.7398
92.1933
92.7994
93.4802
121.812
87.5432
88.6507
90.3403
92.1377
92.5337
113.791
88.9498
88.8321
92.6943
93.0641
92.6555
92.2975
89.7481
90.3575
96.2393
123.028
102.381
92.4965
91.8098
90.036
90.5642
89.0965
91.781
91.9633
89.3593
92.7976
92.5476
92.7803
90.0334
89.2656
116.475
89.508
92.7868
96.2291
88.3661
44.9023
90.299
90.0352
88.6451
90.2951
92.1082
103.791
92.2588
89.1594
88.7275
93.1533
90.7951
92.3244
92.1444
91.5883
92.8285
92.8
90.492
89.2196
91.5831
91.8756
91.7789
88.9382
88.9949
89.3868
91.4578
94.4383
90.9031
90.4283
92.2172
96.2725
92.7103
89.6361
90.4389
116.391
118.158
88.6959
92.797
91.0574
92.712
92.4515
89.0758
91.9109
92.202
92.6713
92.0647
99.9172
91.6442
88.8472
90.345
91.4625
89.9962
92.7343
86.0909
90.6155
89.3407
109.682
92.1735
88.8888
91.7596
92.4913
89.087
85.9851
88.6359
89.9823
89.6476
92.8141
92.2979
81.1368
98.6384
93.4877
93.5383
91.5422
90.5493
91.5439
89.8286
90.3323
96.5446
96.2059
92.3821
89.7867
93.1848
92.7096
89.7491
90.4111
92.7982
88.6936
92.1434
90.6105
92.3807
92.6888
92.8618
91.763
89.2287
89.6314
96.8168
88.6715
90.1608
92.3603
90.262
92.3139
92.5992
90.2409
92.1419
90.3714
89.8331
91.3618
123.175
88.0784
41.5109
93.1703
88.9573
90.1043
91.1327
89.2067
90.372
92.2354
92.7267
90.3246
92.2992
96.4499
92.881
114.164
92.4856
91.8117
89.2523
88.7723
115.096
89.5007
92.7111
91.6705
92.5539
114.401
86.7728
89.3277
91.1729
88.699
124.729
95.2009
89.2217
92.5644
105.451
80.7723
93.213
88.8491
91.3989
91.6177
88.5212
88.8582
90.4253
92.4319
89.1737
92.1341
89.2974
88.4217
90.2681
92.2985
92.7039
89.8988
88.1835
90.8629
92.2078
92.7828
92.6251
88.8414
89.163
89.9775
91.5145
86.8972
92.781
113.413
88.6614
91.1181
89.7955
35.4703
91.0386
120.005
92.7327
88.8563
91.201
89.6108
92.3529
91.8485
89.4946
92.8038
89.1744
90.7306
92.7291
115.907
88.5614
86.3339
92.1005
90.8498
125.14
89.3761
89.4256
92.7287
89.6406
90.4295
94.5008
92.3528
91.1574
88.6515
90.3094
92.2022
90.5323
88.7285
92.3099
90.2058
92.893
81.6644
89.1621
89.0312
89.1175
56.0636
96.5554
105.355
90.1989
89.0527
123.2
67.3149
109.599
94.165
88.6571
90.2533
92.1904
90.7116
100.525
88.6736
90.4139
92.2414
92.8034
90.9383
117.135
127.774
88.4852
109.209
94.9532
122.448
92.4887
90.4708
89.7861
90.8773
87.0677
92.1192
108.271
90.3303
92.1564
91.5942
92.7332
123.038
89.6991
110.036
89.8042
88.2952
89.1223
88.9386
93.0188
92.6728
90.2131
88.6539
92.0534
92.7477
90.0765
90.6595
90.0064
89.7245
89.9395
92.1772
92.3124
97.1568
39.0244
122.632
92.488
92.7291
92.5731
90.4674
91.0761
89.3436
89.1394
92.8679
92.1433
89.9567
91.2297
107.457
89.1995
86.0693
106.789
90.6996
92.0695
92.7229
96.9874
33.8277
88.8389
84.2394
103.199
87.7107
93.198
97.9975
96.1455
93.1068
88.5476
92.8342
88.7143
124.979
92.6891
91.2499
92.6834
97.5905
42.8631
89.8778
91.4747
90.4665
91.3983
88.8129
86.4686
92.6991
106.559
89.9894
92.6783
91.5711
114.683
91.523
90.005
89.6041
90.056
91.9162
89.3357
92.7175
92.6786
92.441
90.3396
105.993
88.9726
105.359
88.5321
89.2138
93.5665
89.3536
124.523
92.6111
92.7392
99.5429
110.452
90.1261
88.4519
89.1763
91.9096
89.6426
88.5577
121.885
90.5178
93.5159
91.193
90.7524
93.2932
121.213
122.426
89.6694
89.6077
92.7913
93.1526
91.6721
89.2066
86.3122
93.1966
92.8953
92.2573
92.7535
92.7452
90.96
77.8672
88.724
122.263
92.4981
89.8568
91.792
90.5374
90.1453
116.629
93.4405
91.7607
114.89
92.3018
111.773
105.567
92.8499
121.723
91.6999
122.483
93.4093
91.9749
89.7015
98.8196
90.1162
103.017
87.7722
97.6456
27.0324
92.7837
120.868
89.9555
101.242
89.4248
102.317
88.7485
121.509
122.354
91.3423
106.717
92.6412
88.6493
90.0285
92.3939
90.5708
91.6601
102.853
92.6318
104.677
103.085
92.8774
91.7562
89.7414
123.695
89.071
88.5166
91.6981
96.2726
90.9882
96.5944
96.9653
92.6981
106.538
90.6365
91.1343
89.159
89.1803
92.5268
104.772
122.798
89.247
109.65
101.29
88.5621
92.7919
92.7607
92.5834
92.785
92.6564
122.533
96.0457
89.129
92.8201
89.0245
110.297
85.9004
89.8299
89.4468
88.9537
89.2405
91.2623
90.1116
88.8415
94.3683
90.5019
90.4597
90.1271
89.038
90.8837
108.119
98.3763
93.4102
92.6142
92.6837
89.5822
103.91
88.94
89.4254
89.386
92.7747
91.2611
86.9496
89.6993
49.6285
92.6612
92.7305
96.8476
90.3362
88.6487
92.134
122.23
91.7374
115.103
92.3795
91.3561
81.1558
89.6025
92.483
91.2425
92.8596
100.249
89.3665
109.845
88.8878
90.5878
92.4303
89.212
90.7577
89.7473
56.6454
54.8587
90.1837
91.2256
89.4715
90.6107
92.3409
90.1309
88.6771
92.3847
89.9713
88.569
88.7779
88.8125
88.8459
89.116
89.2065
124.939
90.2186
89.6128
86.9931
89.4699
102.253
91.7827
91.4123
90.83
93.244
111.501
90.6594
88.909
90.3385
87.201
44.7666
90.0348
92.4023
104.63
123.353
92.7553
93.1833
92.4619
90.3429
89.0032
90.1962
89.3287
93.2667
92.7406
90.6663
90.274
88.6665
92.1012
88.8622
91.7285
87.8636
107.262
89.6343
87.0676
94.3943
91.8528
90.2696
89.6312
91.7896
103.171
84.1284
89.8225
89.2327
89.265
92.8541
88.7114
87.7623
86.1829
98.6074
91.0841
109.636
119.647
139.448
93.3326
93.0957
125.191
89.0196
91.4934
92.876
119.462
91.9118
95.6078
9.63508
96.6562
91.0347
88.9282
92.349
90.3786
92.2037
88.6547
90.5567
91.4163
86.1077
92.597
90.1236
95.8156
90.5173
124.616
88.737
109.698
88.3588
88.6795
88.6723
90.6372
92.3148
92.2138
86.4037
89.5359
88.4534
92.4997
32.979
111.945
90.1009
90.492
92.809
92.8674
86.6731
91.7728
90.2037
86.3129
92.922
92.8819
92.4555
91.5962
93.5332
89.9879
89.2793
91.2488
88.1299
116.024
92.1263
90.5326
91.6832
89.5574
97.0741
104.08
90.6142
95.9253
89.5824
86.9524
88.5555
90.7317
88.5589
90.1128
91.4165
89.9017
89.8308
92.872
124.781
90.4118
92.3252
124.168
92.6125
93.0942
92.722
78.5807
97.7949
97.5643
92.3147
94.9903
92.2897
95.1167
95.2472
98.5024
96.6502
92.6189
90.7289
87.7134
91.4491
90.8424
101.397
92.546
91.1516
92.6275
89.2728
88.5866
97.2614
91.9871
91.3443
88.4658
93.4788
91.774
88.8551
92.2151
92.7223
95.1168
50.671
88.689
90.4996
92.3427
88.9875
91.5462
90.2158
88.7179
92.1322
90.7176
88.7585
92.3595
121.105
92.5761
92.77
90.68
89.2529
90.1299
96.049
88.3511
90.415
92.4828
88.8923
88.5486
92.3708
92.593
112.456
109.586
89.755
87.7788
90.1455
92.6527
92.6671
89.5552
89.6202
123.212
97.7862
88.6726
113.582
92.8332
89.4075
87.1512
90.4966
92.0946
79.857
92.6921
98.2471
88.7231
88.7429
93.1279
94.9837
93.2131
84.9929
126.821
87.2368
93.1187
92.6917
92.7999
92.7956
111.803
122.025
92.4559
91.0941
88.8773
107.232
89.4119
88.7712
92.7065
90.9458
88.6674
89.5488
89.3476
88.8336
88.745
93.4236
89.1853
84.1267
103.177
92.7618
92.7484
86.6841
89.6227
89.3005
99.2684
89.3389
89.0007
89.7647
88.8404
91.2708
92.4162
96.3193
89.2528
17.0456
94.9004
88.7972
89.323
89.1788
88.3901
91.7307
88.5742
92.7002
89.988
92.416
90.498
92.4159
120.314
88.9023
123.026
91.4914
88.5026
92.8153
91.397
89.6317
88.9941
51.8263
115.289
96.4517
92.694
89.8264
90.0144
81.9672
83.4825
93.0773
89.8266
96.5728
96.2229
89.9291
93.0246
44.5982
92.1919
88.6639
90.2322
89.3474
88.899
89.1982
90.112
88.5117
51.8123
89.5944
90.0306
89.7268
92.1203
90.5847
88.2896
86.8557
92.2055
94.9774
107.043
93.4026
89.8497
89.3945
88.9783
88.7853
86.4583
92.712
125.165
115.886
92.6049
79.9023
90.8854
90.5764
88.6962
92.3313
90.6218
114.957
93.1629
97.5228
89.6247
88.7456
89.2769
90.2168
97.0023
88.9648
109.753
89.1382
85.7169
90.1045
92.1116
124.816
92.5217
88.5501
87.1385
92.9616
89.8782
84.0992
43.9783
105.684
89.9431
91.6147
86.514
88.6624
91.032
89.1254
89.061
91.6531
92.4396
92.4209
90.3752
124.255
90.7418
91.3876
92.0787
92.577
53.0873
89.1032
86.3229
107.66
89.2826
91.6243
93.1722
96.4766
89.5749
92.4165
90.4703
88.7655
91.7417
88.8343
88.5933
122.216
91.4561
91.5098
92.3165
89.8973
88.4395
86.3925
90.9472
91.069
88.8339
89.0598
92.3534
96.79
90.6948
92.1514
113.963
66.186
91.0765
53.9949
91.5815
88.4441
83.1434
81.7521
89.9766
92.9345
74.9565
92.5279
116.001
89.5952
85.3312
110.081
121.287
113.961
91.2609
92.5457
93.383
90.7217
88.7277
80.863
86.479
88.7359
91.4374
104.524
104.092
98.2615
87.0417
91.0224
86.6095
96.698
92.7712
92.4035
93.1062
92.3116
90.3164
122.15
88.63
88.6849
88.8353
93.2592
88.9667
90.4762
86.6374
92.7068
90.1764
88.6942
92.0974
89.5924
87.1949
91.2792
89.9181
90.9556
85.2553
88.6789
89.5188
89.4498
93.2172
105.318
91.638
90.0501
90.1285
91.627
110.794
119.201
91.6817
92.8731
113.046
89.7539
98.4004
92.0405
90.8217
89.999
92.113
90.2349
92.7361
92.6705
91.3957
92.7013
92.3993
123.719
91.9414
92.3574
92.8466
92.278
90.2781
92.7923
84.7294
89.5011
91.8621
96.1458
118.147
89.7973
88.596
89.2685
89.0326
90.5278
89.5195
91.2501
90.2916
93.0426
92.5734
89.9085
91.7166
51.7779
89.1107
122.72
92.2035
91.3688
90.2599
120.77
89.4258
51.4532
96.8656
92.4138
92.7465
92.531
92.773
92.4265
90.2624
88.8282
92.6344
88.73
90.1335
92.3853
90.1479
92.2702
96.9383
123.412
90.4821
88.6032
89.974
91.4304
92.4471
88.5432
103.77
84.3496
89.7435
96.2981
90.4161
95.0177
89.5507
96.3321
115.53
92.2176
92.8136
92.7063
89.0504
124.864
87.9085
92.7346
86.5873
88.7363
91.7069
91.7048
90.9134
123.301
98.191
92.4094
90.25
88.7785
96.696
92.7128
89.2692
88.9875
92.4696
92.3114
89.2347
47.3721
91.0804
90.2776
107.386
124.662
90.0673
93.2557
92.3251
122.729
89.7788
94.881
89.7841
37.3971
56.9968
92.4328
49.6348
92.1885
36.664
88.8904
107.499
88.5596
90.0363
92.4614
92.4691
92.4422
92.4634
90.2873
90.3316
90.2121
90.2102
92.4564
90.3117
62.0512
89.6495
89.2887
88.8859
89.0262
56.1006
90.0405
89.321
87.3989
88.9633
88.2085
86.9547
67.12
49.0842
86.7943
75.5142
71.3563
87.1005
90.0898
88.7765
89.2102
88.9153
88.7813
88.4779
90.4792
89.5924
90.1523
92.459
89.394
88.2502
90.3435
88.5443
89.9789
93.3586
109.45
110.718
89.7702
94.9178
92.3576
87.479
91.3928
97.0266
109.151
113.489