/*--------------------------------*- C++ -*----------------------------------*\
| =========                 |                                                 |
| \\      /  F ield         | OpenFOAM: The Open Source CFD Toolbox           |
|  \\    /   O peration     | Version:  v1912                                 |
|   \\  /    A nd           | Website:  www.openfoam.com                      |
|    \\/     M anipulation  |                                                 |
\*---------------------------------------------------------------------------*/
FoamFile
{
    version     2.0;
    format      ascii;
    class       surfaceScalarField;
    location    "0.93";
    object      phi;
}
// * * * * * * * * * * * * * * * * * * * * * * * * * * * * * * * * * * * * * //

dimensions      [0 3 -1 0 0 0 0];
oriented        oriented;


internalField   nonuniform List<scalar> 
2708
(
4.73758e-06
-2.75246e-05
1.88298e-06
2.0904e-05
-3.82989e-05
4.76407e-05
-0.000168325
0.000158984
0.00123046
0.000234569
-0.000911569
-0.000553465
-0.000328612
0.000185085
6.18698e-05
8.16574e-05
4.94064e-05
-2.07562e-05
-0.000100719
7.20686e-05
0.000445635
0.000335183
-0.000230536
-0.000550282
5.51511e-05
0.000109832
0.000602507
-0.000824462
0.00100483
-0.000782876
0.000194068
0.000336232
-0.000428201
-0.0001021
0.000163222
0.000258837
-0.000303902
-0.000118157
0.000247071
1.49275e-05
-2.08883e-05
-0.00024111
-7.25817e-05
0.000209355
-0.000136773
5.38846e-06
-2.36837e-05
-3.5671e-05
5.39662e-05
0.000848171
-0.00086318
4.24821e-05
-2.74731e-05
0.000141906
-0.000154278
6.88709e-05
-5.64991e-05
1.30511e-06
-0.000326266
0.000324961
-0.000232059
0.000205976
0.000167989
-9.52994e-05
0.000260217
-0.000194317
2.93987e-05
1.56129e-05
-1.54193e-05
-1.93568e-07
0.000246404
3.68521e-05
-3.61848e-05
-9.96495e-05
-4.8143e-05
1.23483e-05
0.000135444
-9.12322e-05
-0.000152957
-4.7716e-05
7.10519e-05
0.000256741
-0.000280077
0.000818115
5.9796e-05
-2.97399e-05
0.000380055
7.69439e-05
-0.000408293
-4.87057e-05
0.000226778
-5.15903e-05
7.12165e-05
-0.000414719
0.000344735
-0.000159693
0.000229677
3.55151e-05
-1.99527e-05
-0.000878743
-0.00103787
8.46272e-05
0.000958536
-5.29474e-06
-0.000188072
9.93309e-05
9.04969e-05
-1.75585e-06
-0.000432629
0.000968954
-0.000555388
1.9063e-05
0.000926262
0.000447723
-0.00061182
-0.000762165
0.000211134
0.000197748
-0.000408882
0.000123409
-0.000159738
3.6329e-05
0.000104381
-0.000148302
4.39218e-05
-0.000880059
0.000872303
0.000682588
-0.000674833
0.000149892
-3.52252e-05
-0.000193134
7.84672e-05
-0.00118441
0.00114124
-5.20264e-05
9.51926e-05
6.49641e-05
-6.95725e-05
-0.000116969
-0.00139847
-3.49785e-05
0.000249037
-0.000352403
-0.000253199
4.12204e-05
0.000564382
0.00012248
-1.34606e-05
-0.00010902
-4.53397e-05
6.38933e-05
-0.000149322
0.000130769
-4.85229e-05
7.43187e-05
-0.000134438
0.000108642
0.000142304
-5.14307e-05
-0.000223496
0.000132623
9.0384e-05
0.000152748
-0.00012938
-0.000113752
5.48105e-05
0.0006867
-0.00038148
-0.00036003
-1.60462e-05
2.66235e-05
-0.00095272
0.000942142
-0.000654923
0.00116085
-0.000870008
0.000364079
3.01098e-05
-0.00108059
0.00110704
-5.65537e-05
0.000185257
-2.12503e-05
-0.000198089
3.4082e-05
-0.000439321
0.000271599
0.000330944
-0.000578863
0.000338875
0.000434057
-4.96215e-05
6.03458e-05
-7.15568e-05
6.08325e-05
-2.78103e-05
4.91558e-05
-9.09137e-05
6.95682e-05
-0.000967477
0.00011642
0.00094996
-9.89031e-05
-8.47748e-05
-8.50439e-05
0.000486776
-0.000316957
-0.000134096
-7.77435e-05
0.000624523
-0.000412683
-0.00057044
0.000535776
-6.69771e-05
0.000133646
-0.000166318
0.000341705
-0.00028757
6.74849e-07
0.00010169
5.70518e-05
-5.82325e-05
-0.000100509
0.00046716
-0.000751572
-0.000595646
-0.000426582
0.000472076
0.00101169
-0.00105719
0.000846892
-0.000171067
-4.73522e-05
-0.000628473
4.05287e-06
-3.08177e-06
-0.000248925
0.000247954
0.000221047
-2.77837e-05
4.36524e-06
4.80101e-05
-3.27669e-05
-1.96085e-05
-0.000624311
0.00102926
-0.00073437
0.000329422
7.80696e-05
5.58577e-05
7.18651e-05
-1.34197e-05
-6.5647e-05
7.20159e-06
-9.59149e-05
-6.80549e-07
-5.40643e-06
0.000102002
6.5231e-05
0.000145903
1.49599e-05
6.52835e-05
-8.37571e-05
3.51372e-06
2.03718e-05
0.000637323
-0.000423125
0.000967103
6.25405e-05
-0.00101499
-1.46544e-05
0.000136342
-0.00026475
-6.956e-05
0.000197968
-0.00095336
0.000925724
-0.000398945
3.51399e-05
0.000210784
-2.14436e-05
-0.00022448
-4.59351e-05
3.43704e-05
-1.93428e-05
3.09075e-05
5.26424e-05
-0.000142935
0.00019145
-0.000101157
-0.000277208
-6.37592e-05
0.000201849
0.000139118
0.000135126
-0.000125775
2.37347e-05
-3.30861e-05
0.000184992
-2.36488e-06
-0.00019233
9.70222e-06
-6.87465e-05
-3.65151e-05
5.83096e-05
4.69519e-05
0.000777407
7.90456e-05
-3.83373e-05
-0.000107736
0.000122688
-0.000177893
0.00016294
0.000135859
0.000124739
-0.000116676
-0.000143921
-0.00021356
0.000187681
-4.28674e-05
0.000166048
-2.65331e-05
4.54772e-05
0.00112853
-1.72699e-05
2.99793e-05
-5.62686e-06
1.52361e-05
-0.000179952
0.000170342
-8.8214e-05
0.000145161
-0.000123924
-7.05466e-06
-8.56064e-05
-3.25383e-06
-6.68923e-05
-0.00100277
0.00103094
3.87241e-05
-0.000148998
-5.07961e-05
0.000161747
3.80471e-05
-0.000803398
-0.000284155
3.61571e-05
5.32112e-06
-3.71129e-05
3.04925e-05
-0.00108584
0.00108599
-3.06375e-05
-6.68117e-05
2.47014e-05
0.000137867
-9.57569e-05
-0.000179602
-4.04821e-06
-1.8817e-05
0.000202468
0.000209613
2.19496e-05
8.26127e-06
-0.000239824
6.19122e-05
-8.89679e-05
-4.9505e-05
7.65607e-05
0.00103964
-0.00146366
0.000183855
0.000240161
0.00046778
8.71418e-06
1.27175e-05
-0.000489212
8.77491e-05
8.68336e-05
-0.000947862
2.52655e-05
4.60649e-05
-7.2875e-05
1.54463e-06
-3.69635e-06
0.00017063
-0.00021815
5.1216e-05
7.35304e-06
-0.000161981
0.000158681
0.000844194
-0.000578287
4.99699e-05
-0.000315877
-0.000197977
0.000132325
0.000167342
1.65216e-06
-1.70971e-06
0.000209671
1.12144e-05
-1.11215e-05
-0.000179695
-0.000157407
-6.03188e-05
0.000122426
3.28642e-05
-7.49277e-06
-4.25965e-05
1.72251e-05
0.000722562
0.000100267
-4.54218e-05
0.000173804
0.000166248
-0.00113735
0.0011395
9.61674e-05
-9.83241e-05
-0.000303401
-0.000409559
-0.000225613
-0.000298483
0.000767624
0.000180045
-0.000819164
-0.000128505
-0.000992776
-0.000637338
0.00105477
0.00057534
2.00954e-05
-3.19906e-05
-3.37458e-05
4.5641e-05
0.000118094
-4.4466e-05
0.000648934
-3.46032e-05
1.83117e-06
3.20915e-05
-1.34352e-05
4.01226e-05
-6.40485e-05
3.73611e-05
0.000822345
-0.00104075
0.000356359
-0.000137952
-7.83125e-05
5.50926e-05
1.68123e-05
6.40758e-06
-0.000344733
1.97764e-05
-0.000102934
-0.00075367
0.000856604
-9.00319e-05
-0.000201258
0.000224478
5.7254e-05
-6.58289e-05
0.000174623
-9.02464e-06
4.90704e-05
-0.000253606
7.85759e-05
-3.43008e-06
-3.28072e-06
-2.96029e-05
3.76562e-06
0.000184385
-0.000158547
-0.000107735
0.000141817
1.43075e-06
-3.55127e-05
-0.000326943
-7.74881e-05
5.96983e-05
-0.000371403
4.26695e-05
0.000343447
-1.47143e-05
-0.000123991
9.39457e-05
8.72996e-05
0.000898874
-2.32244e-05
-0.000766046
-0.000109604
-0.000103727
0.00110916
0.000155422
-0.0011057
9.19791e-05
0.000859837
-0.00102759
-0.000262752
0.000430505
-0.000226422
-0.000988042
0.00118939
2.50708e-05
0.000152591
-1.17538e-05
-2.17002e-05
7.77848e-06
9.24977e-05
-0.000916891
0.000880125
-0.000276146
0.000312911
0.00127002
7.65473e-05
-0.000315662
-0.00103091
-4.99034e-05
0.000905503
-8.70744e-06
-6.91026e-05
0.000104859
-1.09013e-05
-2.48553e-05
5.26102e-06
-5.11961e-05
5.2308e-05
4.74381e-06
-1.08902e-05
-3.07676e-05
-0.000929907
-0.000377836
0.000354382
-0.00025058
-8.5196e-05
0.000245744
0.000908189
0.000116602
-0.000180597
-0.000190755
0.000900008
-0.000885016
0.000175764
0.00025968
-1.78104e-05
1.83475e-05
-0.000149884
0.000165036
-2.94777e-05
-2.89151e-05
8.30942e-05
-1.51941e-05
6.92568e-05
-5.24105e-05
-3.78949e-05
0.0001731
-6.73467e-05
-2.02521e-05
8.39024e-05
-0.000106807
4.38584e-05
2.16784e-05
-1.75582e-05
1.47435e-05
-0.00010576
7.9957e-05
-0.000175455
-0.000945371
0.000184672
0.000878793
6.5725e-07
0.000217379
-0.000216731
0.000368933
-0.000580911
-0.00055086
0.000762838
1.42105e-05
0.000238097
-0.000876619
-3.37836e-05
0.000918298
1.43586e-05
8.54448e-05
5.81916e-05
-0.000143636
-4.05746e-05
3.15499e-05
0.00108188
-0.0012584
-0.000154725
0.000331242
0.00012332
3.917e-05
-6.31594e-05
-0.000819059
-0.000353533
0.000853235
0.000319357
-8.34718e-05
0.00104577
-0.000949321
-1.29785e-05
-2.37102e-05
0.000152464
-2.58708e-05
-0.000102883
0.000129534
-0.000979465
0.000944941
-9.50094e-05
0.000173878
-0.000140103
-0.000231751
-0.000333473
0.000247519
0.000945791
-0.000923538
0.000911842
-0.000179059
0.000627556
-0.000603335
-1.80884e-07
0.000561098
-0.000511846
-5.92436e-05
0.000178285
-0.000332722
-0.00090895
0.000311765
-8.20625e-05
-0.000146448
0.000231868
-3.3573e-06
-0.000351511
0.000358814
-9.73837e-05
9.00814e-05
0.000111978
0.00101704
-0.000892467
-0.000158359
0.000286748
-3.16355e-05
1.21488e-05
-0.000267261
-0.000154619
0.000166309
0.00112781
8.38247e-06
2.29303e-05
0.00100833
0.000129596
0.000930965
-0.000998688
-6.18734e-05
-2.5299e-05
-3.29335e-05
-1.75205e-05
2.09506e-05
-0.000211554
0.00028179
-7.02365e-05
-0.000201483
-0.000917086
0.000201678
-0.000321431
-7.33066e-05
4.23339e-05
-0.000198139
-0.000248474
6.39129e-05
-3.55938e-05
4.12433e-05
0.00102268
-8.70828e-05
-0.000976838
-1.48742e-05
0.000126859
-0.000113243
1.25826e-06
-7.59471e-05
0.00105489
-0.000650554
-0.000265137
0.000675129
-1.21151e-05
-0.000889436
0.000133748
0.000827208
-0.000193333
0.000976933
0.000149201
-0.000159495
-0.00096664
0.00018495
-3.43564e-05
-0.000235638
0.000172772
-5.70867e-05
-0.000193429
0.000206565
0.000897713
-0.000196088
0.000186838
1.04622e-05
-0.000279362
-8.09773e-05
0.000101551
6.87242e-06
-2.74466e-05
0.000369047
-9.19486e-05
0.00058365
-0.000860748
0.000353203
-0.000103001
0.000514646
0.00122745
-0.000556007
-0.000355562
0.000810448
-0.000883846
-1.85502e-05
-0.0010215
-0.000830902
0.000594005
0.000833908
-0.000901642
-0.000224015
-0.00101029
5.0747e-05
0.00100203
0.000873941
0.000142197
-4.23919e-05
-0.000126338
-0.000168726
0.000189013
0.000167395
0.00101229
0.000200819
-0.000532063
0.000962203
-0.0012546
-0.000417075
-0.00092215
0.000807161
-0.000615762
0.000873816
-8.15017e-05
-0.000991453
8.49123e-05
1.98184e-05
4.62661e-05
-6.13469e-05
-0.000937194
0.000663925
-5.94528e-05
-3.03235e-05
1.64807e-05
-2.41043e-05
3.79471e-05
-0.00110799
-3.65215e-05
0.00106856
-0.000190245
0.000173166
-0.000285831
-8.73178e-05
0.000136459
0.00023669
-0.00051994
0.000635588
-2.99196e-06
8.66617e-06
-1.65644e-05
-4.35472e-06
1.13707e-05
-1.00079e-05
0.00075676
0.00018143
0.00018455
-0.00100158
0.000156474
-0.000973615
-8.88046e-05
0.00117298
-0.000110562
0.00014357
-9.31688e-05
0.00014968
-0.000119981
0.000789219
0.000492375
-0.001152
0.000201944
-0.000266817
-0.000962862
0.0009865
-2.36382e-05
5.56827e-05
-6.59503e-05
1.02676e-05
1.48142e-05
-8.74457e-06
-3.63931e-05
-0.00104736
-2.42201e-05
0.00107158
-0.00100408
0.00101541
-1.13253e-05
-0.000932752
-1.41603e-05
-0.000519139
0.000180464
-3.27277e-05
0.000244837
-0.000872714
-0.00102372
4.89415e-05
-0.00098898
0.00108515
0.000908141
-0.000230615
-0.000932532
-0.000120943
0.000941264
0.000112212
-0.000227829
1.92142e-05
0.000334438
-0.000125823
0.000999262
2.54803e-05
0.00044566
-0.000979902
5.67738e-05
-5.04876e-05
8.9473e-05
-0.00101863
-3.44965e-05
-0.000898256
0.00102827
-0.000669398
-3.7942e-05
0.000150793
2.50162e-05
0.000197322
-9.84158e-05
-0.000171488
4.69357e-05
-5.52186e-05
-0.000178976
0.000187259
-0.000435632
-9.38825e-05
-7.74274e-05
-0.000654174
1.87947e-05
-1.8741e-05
1.64269e-05
2.08764e-05
-2.9015e-05
-7.28387e-05
-4.35926e-05
0.000230129
-0.000967301
-0.000412963
-0.000842318
0.000530921
0.000724361
-0.00101134
-0.00105049
-9.28981e-05
5.55815e-05
0.00108781
0.000551515
3.19459e-05
0.00115694
-1.35664e-05
-0.00117532
-0.000686601
-0.000545422
-1.76994e-05
-0.000125463
0.000216969
-7.38061e-05
0.000975922
-0.0010378
-0.000385346
0.000205792
0.00121736
-1.44433e-05
9.24076e-05
3.40132e-05
0.000195741
-0.00106613
0.000999924
1.41482e-05
7.37464e-05
-7.30805e-05
-0.000237056
0.000205275
-0.00134618
-2.31488e-05
-4.64196e-05
4.1146e-05
1.05347e-05
0.000305131
0.00102085
-6.54422e-05
-0.00126054
0.000134454
3.49425e-05
9.56747e-05
-0.000116469
0.000378321
-0.00026074
-1.75844e-05
-1.20747e-05
1.68907e-05
-3.37249e-05
0.000864102
-2.01291e-05
-6.26836e-05
8.73413e-05
-4.52856e-06
0.000108091
-0.000186605
-2.97778e-05
-5.36641e-05
-0.000138292
0.000147521
2.57139e-05
-3.9088e-05
-0.000355556
-4.09884e-05
4.69274e-05
-5.22268e-05
1.2219e-05
-6.91962e-06
0.000304881
-0.000982193
5.59671e-05
5.15192e-05
5.95697e-05
0.000109851
-5.07418e-05
5.46395e-05
4.91953e-05
3.22188e-05
-0.000393148
0.000403599
5.41244e-05
-5.20005e-05
1.66708e-05
-4.76184e-05
5.25256e-05
6.63482e-05
-7.12555e-05
4.46567e-05
4.47898e-05
0.000404909
0.000922873
-0.000402058
-2.81662e-05
-4.41277e-05
3.42169e-05
3.80771e-05
0.00107898
5.03437e-05
-2.68827e-05
-3.77615e-05
1.43006e-05
-1.12366e-05
4.75244e-05
-4.81018e-05
1.1814e-05
9.68458e-06
-1.43731e-05
-1.40525e-05
-0.000158959
0.000171037
-0.000158526
-5.33278e-05
-0.000163476
0.000129486
-0.000125512
-1.32802e-05
0.000121234
-2.9729e-05
3.47714e-05
-1.07084e-05
-0.000136054
-2.64804e-05
1.25843e-05
-2.23169e-05
3.6213e-05
0.00117735
-0.000891259
3.33396e-05
-6.13869e-05
0.00013463
0.000100516
-0.000248386
-0.000549354
0.000697223
-4.5096e-05
5.36111e-05
-8.51511e-06
0.000105364
-0.000916178
-7.30317e-05
-6.00072e-06
-4.10842e-06
1.01091e-05
3.87567e-05
-6.13255e-05
2.25688e-05
9.45844e-06
-3.06326e-05
2.11742e-05
-0.000137651
6.18668e-05
7.57839e-05
1.36977e-05
-7.12019e-06
-6.57749e-06
-5.99205e-05
-3.13789e-05
9.12994e-05
8.89075e-05
-9.12562e-05
2.34864e-06
1.16067e-05
1.0528e-05
-2.21347e-05
-0.000135429
-2.22209e-06
3.39377e-05
-2.024e-05
-3.01465e-05
-1.49496e-05
-8.67103e-05
8.91302e-05
-2.41989e-06
5.78816e-05
-5.89297e-05
1.04806e-06
4.49743e-05
4.71555e-05
-3.55488e-05
8.32807e-05
9.08411e-05
-0.00012169
3.08491e-05
2.22412e-05
1.65155e-05
-2.43014e-05
1.83007e-05
-7.49653e-05
9.01496e-06
-6.33893e-05
6.87199e-05
-5.33065e-06
1.22888e-05
-5.92232e-05
2.51519e-05
2.17824e-05
1.69142e-05
8.60718e-05
-5.83272e-05
-0.000131672
0.0001517
-2.31643e-05
5.15715e-05
5.45872e-05
-0.000105817
0.000243806
-0.000155688
-9.03286e-05
2.03993e-05
0.000171481
4.23928e-05
-4.09466e-05
-2.8329e-05
1.69875e-05
-0.000329207
-0.000637102
-0.000338954
0.000387907
0.00106216
-0.000104586
1.78757e-05
2.08215e-05
-1.50678e-05
-5.75379e-06
3.75654e-05
3.16996e-05
-2.59828e-05
-1.62338e-05
8.31539e-06
8.20017e-05
-1.32818e-05
-1.96185e-05
-2.12598e-06
2.95156e-05
-1.53703e-05
1.12619e-05
-0.000333161
-0.000606334
0.000361298
0.000578197
0.00103927
-0.000267113
5.22335e-05
1.55222e-05
-5.04143e-05
4.8541e-05
-1.36489e-05
-2.25064e-05
1.17867e-05
0.000914879
-0.000924346
9.28827e-05
-8.34161e-05
1.03411e-05
2.7119e-05
-1.96202e-05
-1.78399e-05
5.54154e-05
2.46627e-06
-7.14739e-05
-1.79213e-05
5.16337e-05
2.20517e-05
-0.000147838
1.08262e-05
-7.85779e-05
2.07157e-05
4.7036e-05
0.00109021
-0.000292561
3.26007e-05
2.9054e-05
-1.47272e-05
0.00042277
-0.00107913
0.000961493
2.53328e-06
-4.9735e-05
4.01678e-05
1.91393e-05
0.000156837
-0.000369899
0.000727708
-8.34561e-05
0.00012542
-0.000104467
0.000686058
0.000676596
-0.000490351
8.2123e-05
-7.86709e-05
0.000656289
-0.000360702
-0.000295587
-8.23287e-05
8.04411e-05
4.75849e-05
-4.56973e-05
-0.000433584
-0.000136168
0.000341923
-2.61012e-05
-4.18164e-05
1.29146e-05
5.5003e-05
-1.19158e-05
-3.16458e-06
5.06217e-06
-1.49874e-05
2.93652e-05
-2.23587e-05
7.98093e-06
-2.36167e-05
5.64011e-05
-3.83891e-05
5.6047e-06
5.23975e-05
-2.85144e-05
-0.00015507
0.000131187
-1.75785e-05
-3.85688e-06
6.44798e-06
-5.58118e-05
4.87232e-05
-7.52401e-05
-0.000141953
-3.56518e-05
0.000230002
-8.14977e-05
0.000109042
-5.26181e-05
2.5074e-05
7.96755e-05
-0.000100008
-0.000118448
0.000107869
0.000110588
-0.000131143
-4.96933e-05
-5.47759e-06
2.66565e-05
-6.25797e-05
7.49511e-05
7.21662e-05
-1.7015e-05
-0.000130102
1.68181e-05
-3.55577e-06
-0.000134332
-6.48924e-06
5.7082e-05
8.37389e-05
-2.58707e-05
3.13953e-05
2.38407e-05
-0.000158575
-6.34369e-05
0.000140514
-0.000108986
-0.000115478
6.93938e-05
4.58226e-05
0.000387573
-0.000355354
7.059e-05
-0.000154214
0.000148752
-0.000141599
-8.67056e-06
3.33692e-05
-2.46987e-05
4.76978e-05
1.99887e-06
-5.50306e-05
5.33392e-06
-2.54121e-05
4.11997e-05
3.19101e-05
-4.30525e-05
-1.53114e-05
1.16867e-06
0.000103697
-0.000104865
-6.98933e-05
0.000119398
2.26617e-05
-0.000101245
1.43367e-05
-7.61187e-06
-1.29801e-05
-3.02472e-06
-5.56002e-05
-1.36802e-05
4.38683e-05
2.04131e-05
-7.87046e-06
4.38585e-05
-7.62647e-06
1.48829e-05
-2.96151e-05
-2.1996e-05
3.89699e-05
3.43916e-06
2.04888e-05
-8.49113e-06
-1.96095e-05
1.52988e-05
-1.68924e-05
-1.13866e-05
-9.37771e-06
1.78899e-05
1.11473e-05
0.000267015
-0.000273312
0.000242472
-0.000236175
2.41043e-05
8.10311e-06
-3.22074e-05
-2.47233e-05
9.73296e-07
-3.49677e-05
-0.000206722
0.000193974
2.04312e-05
3.00594e-05
6.21629e-05
-7.19932e-05
3.02614e-05
-7.87964e-05
-0.000437008
-0.00011015
0.000213996
-3.87256e-05
-6.84746e-05
7.22324e-05
-5.11723e-06
4.1179e-05
0.000519821
-0.000270771
0.000279066
-0.000281359
-1.54633e-05
1.7756e-05
-4.32572e-05
1.77625e-05
0.000872059
-0.00021577
8.05252e-05
-1.52844e-05
-0.000103966
2.18645e-05
-6.87982e-05
-0.000800243
0.00071373
0.000693734
-0.00081738
0.000586958
-0.000500797
0.000272652
-5.46513e-07
-1.19288e-05
1.24753e-05
-2.57515e-05
0.000272983
3.21791e-05
-2.60962e-05
-0.000145042
0.0010171
-0.00110434
-0.00113998
9.4186e-05
-0.000117368
-8.87174e-05
-0.000155043
2.88456e-05
3.40516e-05
1.05483e-05
-3.0767e-05
-1.38329e-05
-1.77791e-05
1.55509e-05
2.75269e-05
-2.52988e-05
-3.21175e-05
3.32862e-05
1.25174e-06
1.61209e-05
7.98342e-06
-6.3637e-05
2.5153e-05
5.13987e-05
-0.00076589
0.000951546
0.000528074
4.1921e-06
4.14001e-05
0.000262749
-3.11653e-05
-0.000453276
8.0858e-05
0.000372418
0.000178166
-0.000129021
0.000106238
-0.000155384
9.52532e-05
-8.9533e-05
-0.000930066
-8.04223e-05
7.46756e-05
0.000183913
-0.000183699
1.33725e-05
0.000530035
0.000156716
-0.000686752
-4.88148e-05
0.000134628
2.32284e-05
1.60434e-06
-0.000177058
7.54458e-05
-0.000186302
6.94576e-05
6.26365e-05
-9.73568e-05
6.80065e-05
3.1922e-05
-7.36945e-05
-1.60551e-05
1.17175e-05
-3.91068e-05
3.23292e-05
1.4761e-05
0.000396395
-8.82278e-06
2.53764e-05
0.000371019
2.08357e-05
0.000168024
-6.93312e-05
5.41734e-05
1.49235e-05
-4.59272e-05
0.000514802
7.67597e-05
1.07698e-05
-5.40579e-05
1.11187e-05
0.000135592
-0.000129252
-0.000127832
3.53447e-06
0.000158021
-0.00015145
-5.15221e-06
3.09201e-06
-4.76748e-05
-0.000254771
4.61284e-05
0.000250042
-2.7119e-05
1.61312e-05
6.8689e-05
-4.9075e-05
-4.36377e-05
2.40237e-05
3.40038e-05
-3.70218e-05
-0.000145605
3.86093e-05
0.000180015
7.49754e-05
-0.00112329
-8.02542e-06
-0.000926601
-0.000325909
-0.000171241
5.92984e-05
1.50737e-05
1.57761e-05
1.51584e-05
-1.39485e-05
-7.83301e-05
9.03074e-05
1.97124e-06
0.000198078
5.66125e-05
-4.8301e-05
-5.30032e-06
-0.000255898
0.000328783
0.000437548
-0.000510433
1.01257e-05
-0.000173669
-1.35154e-05
-3.19795e-05
-0.000366919
3.63437e-05
-6.68688e-05
7.04939e-05
6.92321e-06
0.000166675
-0.00096101
-2.31088e-05
0.000992501
-4.00612e-06
-6.1387e-05
3.69702e-05
4.95698e-05
5.12809e-05
-4.05998e-05
1.86173e-05
2.19826e-05
0.000984571
-0.0010366
1.55663e-05
-1.95013e-05
1.57245e-06
2.96571e-05
-7.80541e-05
-9.0931e-06
1.94981e-06
1.1861e-05
-4.71768e-06
4.25884e-05
-2.33325e-05
-0.000329952
-8.01868e-06
-7.6363e-05
7.07014e-05
0.000145463
-0.000218022
0.000108048
-9.46863e-05
-2.24548e-05
0.000603131
-0.000320387
-4.18705e-06
-2.07822e-05
2.68371e-05
-1.86782e-06
-1.92988e-05
3.34884e-05
-6.92202e-05
-0.000858992
6.18294e-05
0.000167571
9.31752e-05
-0.000174675
8.54923e-05
-0.000261668
2.66473e-05
7.12558e-06
-3.37728e-05
5.97008e-05
-2.90715e-06
-4.64526e-05
0.000265019
-0.000353346
-1.09118e-05
3.74389e-06
0.000242227
-4.00761e-05
4.71173e-05
4.23082e-05
-5.80301e-05
-8.78479e-05
-0.000143433
0.000195303
0.000265397
-0.00100219
0.000251127
4.67611e-05
-0.000740802
1.99526e-05
-0.000103776
7.73136e-05
-2.85249e-05
-0.000100162
0.000121331
7.3558e-06
0.000206859
4.25003e-05
-3.39498e-05
-9.31794e-05
0.00109923
1.64645e-05
3.47467e-05
-0.00105332
-3.72941e-05
-7.85999e-05
0.000198456
-2.28132e-05
0.0005325
0.000114835
0.000250579
0.00124844
0.00110122
0.00016603
0.000203311
0.0011037
4.8135e-05
-3.3518e-05
3.46753e-05
-5.57733e-05
-0.000182766
-0.000114217
-0.000920334
0.000118116
-5.49527e-05
3.75663e-06
-0.000130449
7.5847e-05
-6.1171e-05
-0.000107855
3.54016e-05
-6.48666e-05
3.31596e-05
0.000190128
0.000153839
-1.45598e-05
-0.000138237
-4.65591e-05
4.10021e-05
4.25272e-05
-0.000110654
0.000114044
3.54326e-07
0.000839795
-0.000169266
-0.00064246
-2.80683e-05
-0.000752773
0.00069487
0.000323301
2.22202e-05
-4.56054e-05
2.87191e-05
6.25197e-06
1.34765e-06
5.06513e-05
1.61284e-05
-0.000246053
0.000333074
0.000154122
-0.000984983
8.08502e-05
0.000653889
-0.000653882
6.76902e-06
0.000422827
-0.00040422
-6.30822e-05
7.98052e-06
-1.48048e-05
-3.03425e-06
2.63503e-05
4.51767e-05
-3.41705e-05
-3.73564e-05
-0.000109784
8.63209e-05
0.00015645
-0.000205598
-0.000145168
-4.17253e-05
-1.53098e-05
4.57985e-05
-0.000147378
7.81876e-05
0.000836731
2.60779e-05
-2.12547e-05
2.1527e-05
-3.24656e-05
-4.74284e-05
-1.72863e-05
2.33401e-05
1.77869e-05
-0.00100705
0.00104026
-0.000281687
6.3674e-06
-0.000119929
-0.000152942
4.87725e-06
0.000304514
9.64801e-05
-1.10353e-05
-0.00096626
-0.000199151
4.55163e-05
1.65376e-05
3.40192e-05
0.00078923
6.10483e-05
0.0010465
-0.00101245
0.000145563
-0.000153227
-0.000145279
0.000213179
1.94495e-05
0.000256928
1.02404e-05
-1.14775e-05
-0.000255691
-0.000308523
-1.50839e-06
2.89269e-05
-5.19824e-06
-0.000266168
9.68349e-05
-4.57776e-06
-3.54666e-07
0.000443151
3.92941e-05
6.66412e-06
0.000223669
-7.3228e-05
0.000147313
-5.32718e-05
-8.69024e-06
6.95739e-05
4.89677e-05
0.000201742
-0.000164172
0.000997293
-0.00124996
0.000269131
0.000146026
1.53826e-05
0.000721901
5.65024e-05
0.000945617
0.000277663
-9.98327e-05
-0.00112345
-3.6563e-05
2.21149e-06
1.77956e-05
-4.61262e-05
-8.79732e-05
6.9942e-05
5.21524e-05
-3.41213e-05
-0.00014476
0.000207171
-0.000228553
0.000166142
-0.000198768
0.000189866
0.00133376
9.84215e-05
-1.3416e-06
3.52224e-05
0.00132647
7.31933e-05
9.01815e-06
3.55153e-06
0.000129791
-3.37815e-05
-2.70185e-05
-0.00103125
8.05399e-05
-0.000151653
-3.59202e-05
2.20133e-05
3.17026e-05
-0.000975898
-0.0011629
0.000738556
-3.37406e-05
-1.1018e-05
-2.87836e-05
-5.04049e-06
1.37505e-05
2.00735e-05
8.79449e-05
1.41828e-05
-5.47826e-05
7.62829e-05
4.34452e-06
-7.88972e-05
-4.58099e-05
-0.000194516
8.9568e-05
-2.74841e-05
5.04061e-05
-1.8545e-06
-4.05707e-05
5.31236e-06
9.46359e-05
-3.11334e-06
6.52792e-05
2.30835e-05
1.79398e-05
-8.48618e-05
2.81541e-06
-0.000168711
-1.67352e-05
7.07587e-06
2.91464e-05
3.09507e-05
-0.000143291
2.16003e-05
1.1277e-05
4.17697e-05
0.000860531
0.000133974
2.84232e-05
-0.000813544
-1.31426e-05
4.66472e-05
-0.000106658
0.000458083
0.000409324
0.000150869
-3.53657e-05
0.00108495
-0.000489176
-2.55876e-05
0.000117572
-0.00011754
9.04646e-05
-5.5644e-05
3.16988e-05
-5.94375e-05
-3.95996e-05
7.31444e-05
5.65357e-06
1.26431e-05
-0.000727047
0.000677523
4.95235e-05
0.000126727
-0.000131729
-4.06949e-05
-6.80427e-06
0.000288244
5.3083e-06
0.000891004
0.000145291
-0.000789177
6.21306e-05
5.15762e-05
0.00107257
-8.92174e-05
-0.000949277
0.00101539
-0.000339623
0.000575057
4.67264e-05
-0.000282161
-2.43046e-05
4.65882e-06
-6.83462e-06
5.80883e-05
0.000619435
-6.90217e-05
9.67073e-05
9.00722e-05
-0.000117758
7.6029e-05
-5.4237e-05
5.51463e-05
-7.69384e-05
-0.0001962
4.32155e-05
0.000152985
3.16941e-05
-3.07707e-05
4.30106e-05
4.23473e-05
7.18349e-05
2.46452e-05
-0.000241161
4.49606e-05
-0.000285627
0.000346196
-0.000394425
-0.000291394
-0.000891517
0.000241183
-2.68268e-05
2.78713e-05
-0.000161678
-1.56134e-05
3.91342e-05
-0.000102431
0.000115061
-3.74126e-06
0.00018553
-8.50081e-05
0.000390647
0.000535616
0.000208048
-4.36566e-05
-0.000175427
-0.000478144
0.000459657
1.84877e-05
8.27808e-05
-0.000871958
7.37201e-05
-0.00011943
-5.05681e-05
7.90506e-06
-0.000158001
0.000859129
-0.000331049
0.000369386
-0.000399126
-0.000218478
-8.27214e-05
-0.000132308
6.81783e-05
0.000878317
-0.000194905
0.000355858
-0.000959952
0.00065694
0.000632434
-0.00106482
-5.02731e-05
0.000574465
0.000373866
-0.000302814
-0.000633981
0.000583613
0.000524103
-0.000615341
0.000338757
0.000573639
-0.000265744
-0.000512362
4.41084e-05
0.000497099
0.000122296
1.84517e-07
-0.000637839
0.000760826
-0.000500364
2.22199e-05
-0.000158872
1.70689e-05
0.00036947
0.000565007
5.78929e-05
-6.51461e-05
-4.852e-05
-3.07372e-05
1.87628e-05
-2.53821e-05
-3.08913e-05
-3.16883e-05
0.000446552
1.31052e-05
-0.000134807
2.72228e-05
1.96111e-05
0.000107241
-0.000160821
-5.84415e-06
-2.59467e-07
4.29199e-05
4.86398e-06
2.36344e-05
-1.20313e-05
4.83751e-05
-0.000426599
-0.000290628
7.7944e-05
1.08907e-05
-8.58944e-06
-0.000536149
0.000115124
-0.000134982
4.50278e-05
-4.2779e-05
-4.75875e-05
-4.25872e-05
1.5176e-05
0.000116111
1.95057e-05
-0.000917992
0.000137645
-9.64246e-05
9.73812e-05
-0.00016951
0.00101351
-0.00096084
-6.89465e-05
-4.36281e-05
1.41636e-05
-1.66554e-05
0.000241678
0.000378521
-0.00108627
3.04052e-05
-6.56523e-05
5.08398e-05
-1.45267e-05
4.15819e-06
6.62726e-06
0.000927516
0.000136654
1.40447e-05
-5.66031e-06
-2.95934e-06
-0.000140331
-8.56569e-05
-7.45597e-06
-0.000992702
0.000661416
6.44691e-05
2.00241e-06
0.000255584
2.09359e-06
3.35107e-05
5.23607e-05
-1.52053e-06
0.00111622
7.00085e-05
-0.0010803
-0.000588186
0.000767723
3.55367e-06
-3.71133e-05
7.87795e-05
-0.000107647
0.00016521
0.000503643
-0.000727814
0.000224171
0.000436429
6.72141e-05
0.000447693
-1.12638e-05
-0.000309535
0.000466372
-0.000679434
-0.000602887
-0.000504396
-9.84904e-05
7.97064e-05
-4.74971e-05
0.000121403
-9.92693e-05
-0.00093814
-0.000121162
-4.96136e-05
-5.77909e-06
-1.53004e-05
2.46023e-06
7.10355e-05
-4.54737e-05
4.69695e-05
2.75818e-05
-5.80357e-05
6.09456e-05
4.81052e-05
-7.14854e-05
0.000113857
4.63856e-05
-1.94164e-05
2.22292e-06
0.000437796
0.00081366
6.85815e-06
4.67057e-05
8.70968e-06
-0.000137906
0.000139073
-6.68191e-05
-0.000229037
-0.000997946
0.000147954
-2.93197e-05
0.000215942
-0.000476672
-2.7724e-05
0.000267958
-0.000148506
-0.000609803
0.000131248
-7.52703e-05
-3.80238e-05
-3.64068e-05
-0.000160212
-0.000144188
7.49888e-05
6.05092e-05
9.80201e-05
-0.00115082
0.00103924
-3.57016e-05
0.000209681
-0.000205153
-8.97156e-05
8.51869e-05
-1.98413e-05
5.16201e-05
1.42108e-05
-4.48435e-05
0.000121104
-2.67264e-05
8.00308e-05
-0.00118845
1.80323e-06
0.000682219
-0.000382756
-4.36566e-05
2.3978e-05
-0.000252194
-7.4986e-05
6.2009e-06
4.02002e-05
1.63791e-05
-4.21866e-06
-0.000116675
0.000113505
-0.000136041
0.000113358
-7.63204e-06
5.74327e-07
-0.000612393
-0.000376918
0.000147213
0.000185574
9.03162e-05
-0.000212868
0.000116063
-1.527e-05
5.90411e-05
3.19838e-06
0.000992486
9.18737e-05
3.23654e-05
6.78122e-05
5.56622e-05
0.000194473
-9.57615e-05
-0.000197128
-0.0008022
0.00112204
-2.2924e-05
-2.30766e-05
2.09905e-05
-0.000166159
-5.37579e-06
-3.35014e-05
-4.23425e-06
0.00103946
-3.30743e-05
-4.89225e-06
1.0442e-05
0.000167593
0.000152421
-8.87671e-05
-9.31054e-05
9.45853e-05
-0.000857634
4.16517e-05
0.000648783
8.29913e-05
-8.03248e-05
4.37632e-05
0.001087
7.09877e-05
9.97551e-05
8.60683e-05
-0.000372518
5.73396e-05
0.000153045
1.55498e-05
-3.57827e-05
-0.000220993
0.000185308
5.04293e-05
-0.000237137
5.02254e-05
1.07736e-05
2.59118e-05
0.00014521
-7.5651e-06
-0.000167891
0.000156137
-0.000964533
0.00103072
-0.000249213
0.000183024
-3.25351e-05
-1.66633e-05
3.58206e-05
-2.02076e-05
0.000185426
-0.000247106
0.000532311
-0.000483096
-0.000160266
-2.1686e-05
7.39761e-06
1.15385e-05
-4.49021e-05
5.22202e-05
-4.99032e-05
-0.00115613
2.46423e-05
-2.56569e-05
-7.9463e-05
-3.83386e-06
0.000150346
-0.00107044
0.000969314
1.75843e-05
-1.78305e-05
0.000992747
-2.10366e-05
0.000558341
-0.000481917
-7.64245e-05
0.000249929
-3.20887e-05
0.000127397
5.51812e-06
-1.88596e-06
4.34835e-06
-0.000898093
0.000907343
0.000117924
-5.836e-05
0.000292454
-0.000298746
6.29198e-06
-0.000284522
0.000263634
7.93175e-06
-0.000305161
6.41573e-06
0.000227449
0.000175858
0.000319757
-0.00106545
0.000116615
-6.30932e-06
-1.02174e-05
6.16613e-06
0.000237254
-0.000248114
2.6862e-05
-2.0433e-06
-2.48187e-05
7.82518e-06
0.000113142
0.000111254
2.44269e-05
-0.000328982
2.71613e-06
-0.000115108
-0.000618439
0.00045176
-3.4381e-05
3.32515e-05
6.99699e-05
4.6645e-05
-0.000282438
-3.08235e-05
-4.26576e-06
0.00065383
-2.14766e-05
4.41778e-05
-1.82489e-05
-3.76982e-05
3.97134e-05
-1.83912e-05
-0.00011988
9.43076e-05
-3.55991e-05
2.11029e-05
5.7591e-06
3.29549e-05
3.7015e-05
8.33371e-05
0.000101748
-3.88056e-05
1.80494e-05
9.5043e-06
-2.20321e-05
1.69616e-05
-4.4307e-06
-0.000116547
0.000458195
-0.000338546
-1.46956e-06
-1.33698e-05
-0.000256925
2.27037e-06
1.88325e-05
3.72389e-05
-0.0001399
0.00105282
-1.3457e-05
-0.00101429
-0.000146424
0.000116555
0.000683758
-0.000114273
0.000496112
-0.000220418
-3.31885e-05
0.000119671
-3.23716e-05
0.000270933
2.17533e-06
-7.06758e-06
-0.000225405
0.000308742
5.72792e-05
-9.60847e-05
0.00140595
-0.00113609
-9.37311e-05
-0.000924845
-7.47487e-05
-1.83435e-05
3.35323e-05
0.000115564
4.63239e-06
0.000550268
-0.000721335
-0.000111645
9.53446e-05
-1.25273e-06
-4.78876e-05
0.000256746
0.000225994
-8.18015e-05
-0.000886966
-4.58332e-05
-3.19232e-05
-0.000369074
0.000393358
-0.000202013
0.000588999
0.000925027
-0.000265587
-8.3286e-05
2.23227e-05
-5.3898e-05
-7.91979e-05
5.40347e-05
0.000681935
5.69077e-06
6.12526e-05
0.000155174
-9.9635e-06
7.16607e-05
0.000163308
-9.44385e-06
7.99305e-06
-0.000185596
-0.000170022
-1.30959e-06
0.000177699
-4.57555e-05
6.0241e-05
-1.38711e-07
0.000217161
3.65156e-06
-1.20055e-05
9.15798e-05
0.000139899
2.98221e-05
0.000902932
-0.000914266
2.33012e-06
3.07251e-05