/*--------------------------------*- C++ -*----------------------------------*\
| =========                 |                                                 |
| \\      /  F ield         | OpenFOAM: The Open Source CFD Toolbox           |
|  \\    /   O peration     | Version:  v1912                                 |
|   \\  /    A nd           | Website:  www.openfoam.com                      |
|    \\/     M anipulation  |                                                 |
\*---------------------------------------------------------------------------*/
FoamFile
{
    version     2.0;
    format      ascii;
    class       volScalarField;
    location    "0.25";
    object      epsilon;
}
// * * * * * * * * * * * * * * * * * * * * * * * * * * * * * * * * * * * * * //

dimensions      [0 2 -3 0 0 0 0];


internalField   nonuniform List<scalar> 
1431
(
0.772452
10.4096
58.7251
12.5849
1.2831
6.15317
7.31091
163.569
4.01283
5.42037
120.162
115.676
12.3034
6.77026
1.62311
8.29707
6.49992
25.2472
9.63177
27.6413
250.996
9.25567
2.93487
99.197
3.07082
27.8887
78.951
1.27178
36.4064
10.3391
10.9857
58.4098
7.77205
2.44724
6.94022
4.86959
51.2118
0.953747
10.3209
33.2165
13.1219
46.6589
17.7536
15.0916
4.97267
1.77308
6.30012
65.9266
9.30078
0.755918
11.6709
17.3613
9.54407
163.564
5.28778
15.8462
1.02208
149.072
5.27161
5.39679
1.48896
7.7633
1.36206
0.79295
14.7408
4.62332
49.9988
1.44081
1.55823
14.9532
101.391
3.78791
9.80619
2.32663
8.91112
2.29977
63.608
0.491324
5.03119
20.1073
6.4163
0.813412
5.98783
4.85743
29.0414
19.2611
5.76831
1.65207
14.657
11.2155
0.960911
1.17991
1.79621
10.8589
3.4029
10.5863
160.917
13.1228
12.0173
3.18597
13.9078
9.7694
5.94382
17.7812
1.59448
20.0234
40.9762
107.571
2.31852
5.09601
13.6428
8.65179
34.039
1.95881
6.12471
1.5787
6.16899
12.274
11.6018
1.12245
21.6085
2.12873
111.186
11.7765
71.5491
5.16258
58.4699
1.40143
40.3981
3.7666
9.42214
33.6628
3.60901
10.85
37.7443
1.27304
2.39871
7.39745
34.378
1.41336
11.8278
6.23343
6.86517
17.3577
2.91182
7.21407
1.8027
12.1171
6.54753
1.28541
1.44784
1.78441
41.3823
12.243
46.6573
2.73207
23.7953
14.8531
8.86714
4.55363
30.3268
6.93255
6.71417
4.44605
84.4612
0.822268
2.00143
3.58847
0.903048
9.36203
20.7743
15.0168
19.3897
32.0986
12.2012
22.4693
3.42659
5.25712
9.70373
6.23511
5.57563
15.5234
6.68236
228.678
4.36528
75.7214
93.9864
13.7205
15.4679
20.5836
8.06179
21.0908
29.3706
166.456
10.822
13.7386
17.496
2.60165
0.937964
0.86478
13.7473
6.09352
89.5652
4.83829
10.242
9.88836
32.0059
2.7099
44.3642
0.658589
53.4421
7.97344
37.5297
21.9043
33.4258
15.8356
36.8282
2.8235
5.28646
82.313
58.4676
8.16283
6.60299
5.18768
45.254
73.5162
103.058
10.6089
68.5489
44.7923
99.3406
9.72915
18.2267
27.9864
62.3202
18.0325
34.8915
22.1478
7.38139
12.688
4.87291
5.03184
55.5265
16.5596
17.7352
24.3657
20.1752
87.2735
51.198
0.867982
1.42691
26.2408
4.74683
6.14237
8.85693
2.27743
4.95329
105.635
21.0332
32.3964
49.3448
31.4362
5.48144
3.54483
42.0631
109.412
6.66791
275.232
63.0372
1.41978
2.33479
35.4691
8.84674
12.7773
31.7291
16.7854
31.1373
41.9189
18.0846
49.4688
15.7171
7.43648
6.828
13.0708
4.41072
10.3529
3.51554
16.555
30.1499
14.451
0.675967
4.32229
15.8548
22.4454
25.5256
79.4777
121.925
79.6065
27.8348
23.1933
10.2855
10.8176
7.98804
18.229
34.3073
5.17921
14.8105
24.364
29.5476
8.55712
13.0253
4.63416
6.00622
88.3044
5.50819
17.4767
2.80681
4.79369
1.21286
689.632
13.0405
15.9471
0.868631
28.3849
3.25378
73.0326
1.29704
2.9274
183.133
5.74069
41.6989
1.796
3.45472
11.9363
4.44624
17.9047
3.30882
15.8744
3.64535
64.3009
3.65458
18.7489
10.0396
1.3779
5.30145
13.3839
12.8587
27.0052
9.03629
19.8357
2.45383
1.43594
22.6022
6.74572
1.25045
3.88929
36.1608
34.478
23.8397
6.86571
9.20475
65.0061
31.1603
7.35781
1.25019
23.049
3.2806
353.605
72.6213
8.47734
106.707
1.4724
14.852
5.74634
1.17183
179.249
11.0079
4.55332
30.9925
247.009
4.71879
4.10798
4.38283
1.51717
605.924
7.75951
5.64127
6.99095
2.22988
5.36246
5.60806
6.38042
7.3764
5.44094
24.636
18.6831
6.29706
5.56171
2.74671
7.62153
6.14903
1.25021
20.2504
2.10948
28.9001
7.85836
7.05922
1.81545
4.0163
8.45846
9.265
3.15697
9.15496
11.4323
7.60451
1.39361
4.48077
1.43722
4.88121
10.0631
40.5207
9.74567
8.71589
4.91513
11.0087
1.51668
17.5676
20.7469
24.7048
64.9845
28.5885
41.7111
31.7016
47.749
23.2738
14.3974
20.1652
5.36186
10.3506
4.08212
1.49569
35.095
1.27296
1.27381
1.48396
1.33572
3.35731
1.79653
4.13881
5.51242
4.7463
0.997097
10.1257
4.72206
8.07996
11.4363
8.0639
106.962
2.7559
38.0404
6.4405
1.08515
100.568
11.5464
38.2166
1.20078
11.9986
96.8263
1.11843
94.5735
14.4332
15.9599
16.6616
14.1254
36.1816
29.947
1.28687
1.35075
1.57464
17.4867
15.8024
4.30473
38.6589
7.50612
3.25723
15.8333
14.281
1.45688
32.1118
10.1751
46.8708
12.1112
29.42
23.3722
18.2235
14.0534
25.5884
52.5251
18.7333
1.41232
25.9422
35.5253
0.690564
73.2282
51.0086
32.1322
1.64161
12.2812
25.0061
1.47735
28.7521
26.8642
8.57957
28.1025
98.1899
10.2418
30.8565
30.7622
27.6422
36.4881
5.87489
24.4404
1.61264
5.57762
37.7624
7.82449
49.3701
30.3245
1.22633
3.16995
14.8471
22.0876
21.9858
52.5171
3.68287
24.0867
2.51641
6.81205
39.4324
1.42841
8.24241
48.5924
1.18155
21.2818
1.90435
2.86831
6.55876
7.78551
7.25664
3.26584
5.46827
61.2921
1.84044
10.8733
1.3762
42.0645
7.7176
22.1861
6.8569
347.235
3.46356
39.1549
16.5185
31.7658
552.885
40.9311
4.50427
4.79371
16.1557
2.86899
12.7276
16.1869
7.40115
10.7245
42.3309
2.2948
7.59433
7.66161
13.7928
42.3629
11.3772
9.45972
4.49951
4.18226
4.79017
45.0036
13.7459
19.1119
62.87
1.54552
14.9413
1.47921
15.0822
6.63543
44.094
4.79735
17.7107
4.87317
14.9722
37.0078
11.8921
23.0881
9.87761
19.8941
4.10614
3.13499
95.9883
6.2563
11.714
1.50752
7.81889
37.2655
9.03776
10.4538
7.51861
2.97157
33.0095
4.40112
31.379
4.96979
7.32572
13.5758
25.5917
9.38972
29.8778
2.95844
4.15757
1.38918
6.70414
5.85684
17.6102
13.7739
12.899
6.0398
13.5886
3.45793
134.96
6.49602
1.99805
12.1118
2.26433
19.3536
8.42247
10.378
1.60835
29.1817
2.8423
2.52364
67.4677
8.20893
20.4482
4.68987
7.93851
4.50582
2.12561
2.68247
3.74947
4.28371
25.8544
18.5636
27.4218
4.57617
20.0516
21.853
18.7979
30.3705
26.5924
25.9681
11.3265
1.64826
11.7594
3.98246
47.4899
3.48892
26.3095
16.8108
49.7529
11.1142
3.91226
11.5115
12.2092
3.7824
5.38256
46.4681
1.24468
36.2355
11.9437
2.51974
1.66633
5.27067
76.993
42.47
1.93724
5.16167
5.37408
17.8814
7.71256
4.71547
5.65324
16.282
6.28708
3.8323
9.93119
5.20623
1.76591
52.6234
8.12963
6.90957
7.77605
8.46063
6.06785
4.56016
25.6963
50.7626
61.6279
1.02655
13.3543
1.31649
12.8844
2.11057
0.947548
10.922
25.2844
12.2261
23.4856
3.35222
50.0529
12.893
100.018
174.739
0.808309
6.18364
31.5923
9.33606
88.4522
39.6559
2.47342
8.85317
45.8697
7.54583
14.2334
5.09106
10.2794
3.63084
29.1559
2.30087
9.60707
13.8706
7.99491
9.9321
44.6698
9.77764
3.36087
14.0038
163.48
7.86829
2.95068
12.4354
7.77314
3.93542
157.309
86.2936
42.416
6.63255
1.52588
45.1945
13.2907
10.5561
9.26295
9.62656
15.8045
18.8065
6.97158
2.39215
2.6061
8.61301
5.84127
29.2693
5.10974
0.652384
4.51792
3.37636
14.4611
1.18576
5.45682
36.0253
2.88905
7.78183
22.8421
5.92611
47.3755
18.6891
34.2071
4.93846
26.8699
5.86474
14.6106
19.0244
16.3979
10.4696
37.1894
10.0982
1.13453
36.2777
19.6218
661.57
23.4056
8.12354
37.3416
3.51285
393.002
4.46064
10.7071
28.5258
2.82154
120.451
20.0416
1.49884
21.909
2.67609
1.0013
91.6757
19.1798
4.13063
5.76788
16.3892
2.5005
6.18567
1.41184
22.0888
7.23404
10.1375
46.9898
26.451
6.42248
162.252
5.13611
35.8588
8.90256
9.8815
10.3588
7.16099
4.24737
31.8179
12.4164
19.9405
8.19269
206.951
19.8937
26.3604
63.6955
7.06591
26.055
5.00413
50.121
1.43491
3.54387
5.27359
39.5345
0.948701
4.93326
4.61258
3.47668
5.81127
6.90863
8.21608
8.72567
5.33838
25.5621
8.8259
3.72707
573.515
4.32491
8.39182
5.9905
9.98544
6.1955
1.55339
8.12806
1.38933
93.5045
17.2081
1.5759
84.9405
456.45
143.287
151.498
47.1314
35.1442
41.0397
43.3563
42.4178
58.1018
30.6431
13.879
13.5071
13.5445
13.657
31.1695
67.5417
12.2463
16.563
20.6179
11.1122
27.9833
26.7842
10.5498
26.3296
26.8341
10.3661
25.4035
10.3245
25.1652
0.851479
34.0988
2.45623
9.40031
6.16622
65.0268
80.6814
9.69197
5.9115
1.27266
4.69829
182.354
18.9382
5.64567
27.4819
3.85314
9.01501
4.45777
5.31571
142.461
1.17539
22.4398
5.50209
4.95034
4.86786
20.6667
21.8335
50.0804
7.2199
9.48624
2.56584
31.4971
17.7824
37.7469
1.17376
12.6489
1.62009
23.0849
16.0091
34.9058
9.87982
34.6747
9.04414
30.9239
5.55157
4.0529
34.9528
16.522
25.4136
7.29405
7.33001
0.934525
15.0469
11.3298
7.47299
18.875
1.33429
6.65154
8.78075
16.9376
49.9587
1.33602
8.99634
19.5987
27.1968
8.5379
725.135
8.59267
22.8445
14.1638
170.604
7.3253
13.3227
14.1063
4.90793
7.38162
1.40133
44.5537
12.8951
18.0136
401.48
44.3905
19.8485
7.9098
19.4222
22.6522
14.0108
46.0918
17.9893
1.46802
40.764
57.6668
36.9131
80.804
16.4598
13.5979
1.27439
14.4649
3.15398
27.1338
1.01733
7.74868
9.96915
6.55605
23.9905
4.34908
5.33451
34.3193
407.133
5.11093
38.2851
11.2379
4.10618
6.25934
172.898
9.69186
7.93698
8.63868
31.5066
25.1284
13.0604
5.23128
66.1587
4.05701
11.7638
20.3599
3.16416
4.93102
7.41959
14.2841
9.17185
3.42024
8.74807
67.4785
38.0081
133.593
36.3497
3.63198
49.0237
9.23743
3.78956
5.32355
7.33516
7.32784
5.61922
5.502
8.15133
8.044
33.067
3.16702
33.5732
0.723097
37.8177
5.95982
24.097
8.51496
24.8929
54.4982
5.38106
23.512
18.7939
16.2911
18.0246
20.3113
25.0504
28.0675
29.0506
22.9187
28.8299
9.65256
12.2271
15.0658
10.2372
12.7897
14.4236
9.99225
8.20816
4.38703
30.7733
3.59919
9.87005
5.59021
35.6748
0.965271
9.28364
11.8316
20.5888
40.2296
3.47355
6.0295
0.823762
1.38049
3.71748
40.2647
58.1981
8.35052
40.2694
10.0878
4.6763
559.767
44.5184
10.7929
1.91324
4.59691
9.48817
6.29814
30.3542
6.18373
5.31703
6.55947
1.40641
15.6909
10.793
6.58176
7.10171
6.36692
12.6977
17.51
38.953
5.22187
12.184
12.1231
11.6863
17.8389
170.36
1.16485
29.3705
66.5781
3.41608
20.652
4.6131
4.80979
4.80037
30.9386
6.74845
8.54093
46.4125
78.2571
3.10913
10.5116
34.5154
1.42449
10.0462
2.97611
15.337
15.1897
25.9178
57.2755
45.0509
7.89364
13.8045
12.7203
46.3456
11.7238
12.773
34.3079
6.68259
17.1343
81.1696
8.9673
22.0324
26.2324
7.93016
5.44073
3.37546
13.5877
40.6017
166.146
58.0443
8.05571
0.63738
6.33396
3.78147
31.2426
3.97308
38.0013
11.3256
17.792
15.6843
116.698
7.48248
0.93163
3.69553
4.20634
4.95264
192.972
1.27497
4.07872
17.212
9.47724
20.3043
3.32443
12.9619
19.4693
27.4366
14.6966
3.67424
6.33947
25.6201
12.9096
6.96654
14.7073
5.70844
4.88253
16.5637
3.87771
20.6647
9.40874
9.23589
6.57739
15.0023
17.6889
9.789
24.3385
8.50124
13.3549
4.17344
436.048
32.6918
3.8668
4.67884
37.9643
3.62159
5.97607
4.06217
36.8466
1.01651
47.2933
4.82733
0.923238
4.32198
7.11291
10.9956
4.53894
16.047
4.51869
104.255
3.12924
194.261
7.06164
34.6056
3.84804
6.43405
4.37465
2.07535
56.1682
4.34056
14.877
4.86352
235.761
3.36036
3.91145
1.38227
38.5404
13.4836
3.66373
35.6285
14.7681
3.84644
48.3191
22.6112
3.39131
5.19976
9.08685
16.3157
126.321
42.3811
40.3348
12.8635
25.513
1.62456
26.1718
12.1264
45.7477
179.172
21.6649
16.1547
13.5343
6.93311
87.0979
12.2121
44.9591
1.49234
168.163
37.9756
35.9203
0.722555
358.638
5.83099
4.25456
1.21204
37.5216
36.0491
3.64498
138.251
13.6322
16.2965
4.36195
279.945
10.4572
185.126
10.1783
17.4997
41.5698
138.665
146.931
28.0851
58.1329
4.11285
14.2729
3.37174
47.9184
1.32254
34.1337
6.25225
3.48762
57.9028
261.587
50.0757
11.2624
8.19633
20.5388
12.7329
4.45215
2.13638
166.93
7.32743
4.43458
39.5523
4.16021
9.3276
32.3776
1.45179
8.76944
14.9236
11.9758
228.59
15.3125
7.1433
1.54019
1.19008
45.1268
46.2518
4.81865
7.3729
15.4668
14.0163
12.3838
54.765
11.6503
50.805
8.9492
80.0707
22.8482
6.12748
12.8788
6.71206
10.2235
21.3736
6.71776
12.5818
44.002
8.00777
10.9029
11.886
14.8523
6.38613
12.7567
22.1787
33.0454
0.671878
68.1069
1.49027
1.53826
39.763
39.5174
1.34972
17.6177
19.9319
84.0727
10.5015
8.16877
6.57985
19.3564
3.46994
11.6355
3.29751
8.64583
1.09905
82.1952
3.20252
42.7067
91.7194
28.978
10.6104
11.1718
3.86262
3.98574
8.81657
19.7077
104.832
29.974
5.16595
2.37893
7.896
16.6809
31.917
4.98493
1.027
14.4157
44.6869
0.956561
68.7213
0.739654
6.60336
2.65672
2.0446
1.76829
)
;

boundaryField
{
    frontAndBack
    {
        type            empty;
    }
    wallOuter
    {
        lowReCorrection 0;
        type            epsilonWallFunction;
        value           nonuniform List<scalar> 
96
(
36.4064
10.3391
10.5863
47.4899
49.7529
46.4681
5.27067
5.16167
5.37408
7.71256
5.65324
6.28708
5.20623
52.6234
6.90957
8.85317
45.8697
14.2334
5.84127
5.45682
5.86474
5.76788
16.3892
10.1375
46.9898
47.1314
35.1442
41.0397
43.3563
42.4178
58.1018
30.6431
13.879
13.5071
13.5445
13.657
31.1695
67.5417
12.2463
16.563
20.6179
11.1122
27.9833
26.7842
10.5498
26.3296
26.8341
10.3661
25.4035
22.4398
34.9058
9.87982
18.875
6.65154
49.9587
19.8485
80.804
38.2851
11.2379
9.69186
11.7638
7.41959
9.17185
67.4785
24.097
24.8929
23.512
18.7939
16.2911
18.0246
20.3113
25.0504
28.0675
29.0506
22.9187
28.8299
9.65256
12.2271
15.0658
10.2372
12.7897
14.4236
9.87005
6.0295
10.793
10.5116
38.0013
5.70844
13.3549
14.7681
40.3348
12.8635
10.4572
58.1329
57.9028
8.19633
)
;
    }
    inlet
    {
        type            fixedValue;
        value           nonuniform 0();
    }
    outlet
    {
        type            zeroGradient;
    }
    wallInner
    {
        lowReCorrection 0;
        type            epsilonWallFunction;
        value           nonuniform List<scalar> 
126
(
5.27161
5.39679
1.48896
7.7633
1.36206
0.79295
14.7408
4.62332
49.9988
1.44081
1.55823
14.9532
101.391
3.78791
9.80619
2.32663
8.91112
2.29977
63.608
0.491324
5.03119
20.1073
6.4163
0.813412
3.18597
1.5787
6.16899
12.274
11.6018
1.12245
21.6085
2.12873
111.186
11.7765
71.5491
5.16258
58.4699
9.42214
33.6628
1.41336
11.8278
6.86517
17.3577
1.8027
1.28541
1.78441
12.243
84.4612
5.57563
75.7214
93.9864
10.822
53.4421
1.41978
18.0846
49.4688
0.675967
121.925
79.6065
23.1933
10.8176
4.63416
6.00622
88.3044
73.0326
1.29704
41.6989
64.3009
3.65458
34.478
65.0061
31.1603
1.81545
1.43722
73.2282
98.1899
3.16995
6.81205
48.5924
7.78551
61.2921
6.8569
42.3309
7.66161
62.87
1.47921
11.8921
25.5917
12.899
1.60835
7.93851
1.76591
8.12963
3.93542
8.39182
1.55339
16.522
57.2755
50.0757
11.2624
8.64583
1.09905
3.20252
91.7194
28.978
10.6104
3.86262
8.81657
19.7077
104.832
29.974
5.16595
2.37893
16.6809
31.917
4.98493
1.027
14.4157
44.6869
0.956561
68.7213
0.739654
6.60336
2.65672
2.0446
1.76829
)
;
    }
    procBoundary3to1
    {
        type            processor;
        value           nonuniform List<scalar> 
48
(
66.831
15.1561
51.6032
75.6711
42.699
1.86695
15.1561
26.8176
45.3112
2.59773
2.59773
9.01534
9.01534
37.3682
36.4966
9.31593
15.64
12.342
15.64
8.45897
26.5133
34.0462
8.45897
0.719999
0.831546
4.30144
29.2355
34.0462
26.4232
18.1438
18.1438
25.3513
25.3513
45.3112
4.28809
50.4438
29.0431
0.831546
62.1362
55.7417
37.3682
32.4869
36.6044
8.45897
36.0751
34.4143
44.1391
24.1045
)
;
    }
    procBoundary3to2
    {
        type            processor;
        value           nonuniform List<scalar> 
29
(
1.28458
1.28458
3.79848
4.31644
54.7629
2.51358
7.61668
1.24458
5.04228
4.09564
1.99953
45.2919
1.48399
15.1609
6.62388
15.2992
5.74889
8.69898
1.21083
5.49533
5.08757
5.74889
9.52275
8.69898
6.33575
5.38603
8.69898
37.0905
37.0905
)
;
    }
}


// ************************************************************************* //
