/*--------------------------------*- C++ -*----------------------------------*\
| =========                 |                                                 |
| \\      /  F ield         | OpenFOAM: The Open Source CFD Toolbox           |
|  \\    /   O peration     | Version:  v1912                                 |
|   \\  /    A nd           | Website:  www.openfoam.com                      |
|    \\/     M anipulation  |                                                 |
\*---------------------------------------------------------------------------*/
FoamFile
{
    version     2.0;
    format      ascii;
    class       volScalarField;
    location    "0.91";
    object      nut;
}
// * * * * * * * * * * * * * * * * * * * * * * * * * * * * * * * * * * * * * //

dimensions      [0 2 -1 0 0 0 0];


internalField   nonuniform List<scalar> 
5794
(
0.000506608
0.000713233
0.00418391
0.00494589
0.0167205
0.00111069
0.0012174
0.000771982
0.0022661
0.000694701
0.00203404
0.00129027
0.0014144
0.00775069
0.00161247
0.00201562
0.010209
0.00689433
0.00117846
0.000452856
0.00150113
0.000541517
0.00165451
0.000834251
0.0011172
0.003706
0.0136934
0.0127251
0.00396676
0.000844783
0.00148885
0.00209576
0.00241937
0.00109136
0.00134424
0.00185623
0.000786245
0.00168694
0.00192378
0.0076042
0.00636678
0.00252546
0.000743193
0.00122687
0.00161521
0.00231467
0.00183554
0.00104111
0.000577702
0.000497299
0.000631346
0.00297391
0.000670805
0.00175823
0.000102299
0.00230588
0.00174498
0.00144563
0.000732245
0.00487834
0.00132696
0.000429924
0.00126145
0.00487844
0.00574041
0.000824682
0.00533306
0.000692736
0.00549747
0.000324796
0.00618399
0.00480899
0.0157398
0.000949553
0.00576357
0.00889117
0.000250304
0.00329422
0.00110335
0.000268418
0.000419251
0.000351138
0.00699587
0.0017925
0.00158594
0.000903249
0.000747905
0.00102259
0.0015558
0.00312544
0.00502673
0.00211548
0.00343671
0.005417
0.0026187
0.00807015
0.00396981
0.00319757
0.0019986
0.00142545
0.00143093
0.00120144
0.000755714
0.011845
0.00392312
0.0125189
0.000446931
0.0041561
0.00512707
0.000959659
0.000812646
0.000786709
0.00137918
0.00170985
0.00234256
0.00407814
0.00129609
0.00634001
0.0012361
0.00100928
0.00874386
0.000211212
0.000805929
0.0109206
0.00138345
0.003581
0.00350562
0.00139188
0.00340977
0.00392061
0.00151109
0.00185778
0.00305596
0.00311053
0.0111488
0.00178318
0.00293905
0.000473048
0.00383343
0.000870847
0.00113028
0.0135345
0.00159442
0.0136473
0.00476974
0.0128281
0.00196818
0.0014702
0.013583
0.00736387
0.000726501
0.00131871
0.0121221
0.000801998
0.014302
0.00169431
0.001746
0.00123589
0.00213209
0.00151083
0.000363383
0.000646225
0.000363246
0.000802005
0.00194524
0.00187249
0.00075565
0.000560063
0.000415636
0.000232015
0.000294011
0.00194648
0.000546657
0.000450613
0.00034543
0.00133223
0.000240385
0.000992571
0.000459018
0.00190221
0.000646245
0.00114683
0.000620818
0.00153635
0.000715842
0.0037395
0.00111092
0.00111717
0.000266356
0.000824898
0.0016521
0.0013814
0.00171204
0.000872952
0.000970619
0.000802161
0.000746499
0.000471893
0.000415913
0.00100901
0.00105293
0.00209851
0.000937517
0.000855056
0.0016143
0.00200154
0.000693006
0.00580837
0.0136606
0.00198068
0.000775749
0.000858087
0.00232109
0.00128331
0.00112741
0.00148254
0.00199874
0.00362879
0.00356056
0.00552687
0.000856917
0.00228415
0.00836941
0.00371508
0.00235213
0.00692643
0.000650679
0.0011597
0.000414969
0.00173937
0.000783542
0.000635087
0.000805756
0.00365351
0.00293708
0.0108043
0.013801
0.00203045
0.000997546
0.00055475
0.000393078
0.00766909
0.00234882
0.00150772
0.00125366
0.00174044
0.00164545
0.0115667
0.00114278
0.000949622
0.00070654
0.000930431
0.0126308
0.000498381
0.000811525
0.0230368
0.00090676
0.000889052
0.00381329
0.0012086
0.00251086
0.00221532
0.00123262
0.000672832
0.00112457
0.00123613
0.0101392
0.0036581
0.000826763
0.00289971
0.00243814
0.00111052
0.00313854
0.00505917
0.000869025
0.00121099
0.00172746
0.00107285
0.000720043
0.00133965
0.000808471
0.00324706
0.00460702
0.00159614
0.00541053
0.00526081
0.00256668
0.0030991
0.00533284
0.00892591
0.00145354
0.000960497
0.00125825
0.00175186
0.000771849
0.00304389
0.00246511
0.00113143
0.00280713
0.00102912
0.000283995
0.000993388
0.000384789
0.00326069
0.000852083
0.00309013
0.000628214
0.00430311
0.00250025
0.00211425
0.00124687
0.00280255
0.00229282
0.00175804
0.000782983
0.000904
0.00512139
0.0137449
0.00459955
0.00411511
0.00292704
0.00112737
0.00517279
0.015739
0.0031655
0.00201733
0.00102817
0.00106742
0.00123497
0.00186681
0.00180069
0.000821617
0.000849074
0.00150172
0.00130171
0.000330897
0.000300714
0.000324702
0.000226372
0.000915947
0.000442934
0.000866195
0.00233133
0.00118381
0.000302508
0.000570419
0.00170541
0.0012041
0.00218212
0.00168836
0.00201944
0.00252368
0.00148124
0.00115594
0.000686449
0.00261736
0.000398711
0.00187664
0.00114899
0.000756926
0.00579112
0.00247503
0.00294145
0.0018118
0.000933502
0.00338121
0.00173538
0.00154885
0.00122668
0.00099764
0.00176507
0.000433335
0.00372519
0.00391717
0.00659778
0.00300918
0.0016678
0.00137545
0.00167931
0.000521053
0.00358027
0.00171566
0.000750204
0.0015064
0.00108686
0.00101654
0.00655978
0.0023257
0.0010982
0.000824806
0.000562675
0.00169939
0.000351042
0.00160592
0.000501287
0.000413957
0.000338742
0.000816807
0.00133588
0.00169633
0.000773992
0.00112599
0.0145863
0.000408623
0.00042642
0.00256901
0.0014553
0.00103566
0.000764727
0.00409619
0.00338258
0.00204685
0.00441303
0.00117527
0.00174326
0.00141325
0.00062829
0.00546323
0.00194195
0.00349851
0.00188712
0.00293561
0.00535509
0.00183518
0.000712092
0.000579508
0.000402994
0.00162863
0.000486583
0.000576929
0.00296874
0.000784389
0.0121415
0.00205026
0.00129546
0.000815254
0.000977355
0.00129728
0.00103903
0.000794078
0.000923387
0.000805524
0.000932457
0.000825231
0.00102956
0.00461362
0.00249083
0.0035377
0.000414319
0.00280704
0.000343265
0.00056678
0.00199593
0.000598161
0.00495641
0.000489689
0.00453657
0.00800493
0.00349426
0.00720768
0.000780288
0.000923548
0.000775507
0.0022494
0.00153188
0.003955
0.010649
0.0203494
0.00530587
0.00105373
0.000159401
0.0143274
0.00444031
0.000917403
0.00145564
0.00312062
0.0203537
0.0137716
0.00114686
0.000799951
0.00101529
0.000760045
0.000729817
0.00064119
0.00544072
0.00345541
0.000861545
0.000997371
0.00277309
0.000607154
0.00060185
0.0046496
0.00429894
0.0134485
0.00136998
0.00100033
0.000918528
0.00196405
0.00192853
0.0023433
0.0210366
0.0192223
0.00072868
0.00184204
0.0136804
0.000992912
0.000833383
0.00111072
0.004848
0.000984981
0.00807598
0.000601203
0.004593
0.00060834
0.00178027
0.00225911
0.00377857
0.000621351
0.000805443
0.0145013
0.00105407
0.000959457
0.0188025
0.00690125
0.0044978
0.00129223
0.0011902
0.00210768
0.00072586
0.000688575
0.00112021
0.000293194
0.00998394
0.00224142
0.0018583
0.000841748
0.000785516
0.00297795
0.00392866
0.00208532
0.000563985
0.00231327
0.000354451
0.00543679
0.00127579
0.0029936
0.00075528
0.0138882
0.00140442
0.00100407
0.0128426
0.000674281
0.000280796
0.000906673
0.00201569
0.00171711
0.00114289
0.000679071
0.00071557
0.0123114
0.0183374
0.000369825
0.00328845
0.00145836
0.00579456
0.000883426
0.00123781
0.00585127
0.000394405
0.000964817
0.00164867
0.00280081
0.00147122
0.00133389
0.00150152
0.000859038
0.0207589
0.00430611
0.00153982
0.0039414
0.00489306
0.00257244
0.00786562
0.00772935
0.0032592
0.00137814
0.00148089
0.00448546
0.00241693
0.00488436
0.0010179
0.00193031
0.000564746
0.00535227
0.0026195
0.0031289
0.000385611
0.000831179
0.000566961
0.00153826
0.000807558
0.00178299
0.00273089
0.00557301
0.000758862
0.00279456
0.00332726
0.000289026
0.000118953
0.00557525
0.0208598
0.0235492
0.0115046
0.000940029
0.000671564
0.000810141
0.00215486
0.00104334
0.000865106
0.0018804
0.000250968
0.00326179
0.00406803
0.00557981
0.000342479
0.0016211
0.00439832
0.0147073
0.00617621
0.00129961
0.000624668
0.000515938
0.000206299
0.00114526
0.000917802
0.000800631
0.00366974
0.00080939
0.000598494
0.0136312
0.00130071
0.000840689
0.00401167
0.00254873
0.00282178
0.005344
0.00251496
0.00101129
0.0020231
0.000641974
0.000835849
0.000967443
0.00223494
0.000582953
0.000537985
0.00300907
0.0156202
0.00283871
0.00208589
0.00309242
0.000813661
0.000536722
0.000728545
0.00111355
0.000714689
0.00309845
0.00561185
0.00547975
0.00257189
0.00277309
0.00201744
0.000915015
0.0128562
0.00142779
0.0014317
0.00290978
0.00584825
0.00144173
0.0118367
0.000932288
0.000855712
0.00511624
0.00188294
0.00345717
0.0127605
0.00277967
0.00388686
0.00210893
0.00086609
0.00074426
0.00669273
0.00815169
0.00350603
0.00330354
0.00167683
0.00190615
0.00632374
0.000472123
0.000829049
0.000769663
0.000255608
0.000706633
0.000282962
0.000947589
0.0120121
0.00326954
0.00241538
0.000729201
0.00230961
0.00697814
0.00110847
0.00776348
0.0036326
0.00302876
0.00440803
0.000775331
0.000733527
0.017087
0.00306086
0.00627201
0.00770486
0.00396931
0.00308309
0.00271356
0.0221231
0.0010222
0.000804929
0.000818882
0.00813777
0.000955616
0.00288113
0.00275624
0.00638991
0.00220124
0.00171923
0.00185388
0.0063891
0.00447865
0.00211327
0.0034187
0.0046136
0.000230114
0.000309525
0.000167075
0.000438822
0.00488804
0.00260136
0.00463381
0.000850559
0.000802979
0.00199429
0.000845145
0.00191456
0.000540933
0.00263071
0.00517329
0.000756118
0.00591519
0.00275795
0.000709202
0.000962253
0.0209601
0.00495463
0.00310459
0.00586496
0.00590854
0.00283216
0.00345132
0.00135682
0.00409907
0.00231434
0.00461198
0.0114842
0.0021612
0.00240972
0.000782642
0.000983449
0.00117612
0.0158946
0.00109626
0.00651923
0.0163341
0.00107328
0.000822271
0.000917268
0.0051243
0.00270948
0.00672694
0.0052662
0.00263857
0.00500688
0.00576536
0.00693138
0.00356619
0.000881894
0.002852
0.000569888
0.0028058
0.000609696
0.00348797
0.000863095
0.00562265
0.001572
0.00245673
0.00173633
0.0015533
0.00648273
0.00565115
0.00305512
0.00875594
0.00348708
0.00110523
0.000970758
0.00107504
0.00969705
0.00132129
0.00226164
0.00304661
0.0081682
0.000768673
0.000753275
0.0012651
0.00136763
0.0151743
0.00136775
0.000768834
0.00130835
0.000973302
0.00153729
0.00250643
0.00481448
0.0047931
0.000771441
0.00219814
0.008511
0.00107714
0.00248832
0.0176982
0.000293673
0.000151785
0.000419759
0.00062586
0.00456237
0.00469261
0.000875484
0.00145542
0.00116992
0.000712111
0.000839341
0.0232376
0.00279281
0.00577658
0.00165722
0.00240733
0.00352254
0.00292494
0.0142002
0.00503617
0.00177181
0.000686051
0.000754132
0.0125957
0.000950908
0.00095456
0.007616
0.0038618
0.00408239
0.00391769
0.00180559
0.0108713
0.00372807
0.000773134
0.00303796
0.00116501
0.00397734
0.00113058
0.00195735
0.00306065
0.000813488
0.00075304
0.000557857
0.00456287
0.0038646
0.000895136
0.000748624
0.00212872
0.00114265
0.0038973
0.000832932
0.000799349
0.00266809
0.00138751
0.00307918
0.00594174
0.00434588
0.00598368
0.0146378
0.000599649
0.000596766
0.00855214
0.00120372
0.00107274
0.000837858
0.00117778
0.00205698
0.000366641
0.000790257
0.00122079
0.00826191
0.00303633
0.00479349
0.000845809
0.00301934
0.00559169
0.0189093
0.00208107
0.00328985
0.000784935
0.00105522
0.0177866
0.0010455
0.00295708
0.000841448
0.00135264
0.0010548
0.00153951
0.000388926
0.00194616
0.00126188
0.00047304
0.000328861
0.00026537
0.000281398
0.000180629
0.000661084
0.0144261
0.013016
0.00323572
0.00188402
0.00280866
0.0117558
0.000753878
0.000805501
0.000845651
0.00891213
0.00112791
0.0210607
0.00628363
0.00228781
0.000785809
0.00830867
0.00171991
0.000644241
0.000607339
0.0235431
0.00600617
0.000834245
0.00144202
0.000878808
0.00345053
0.00163037
0.0169564
0.000657803
0.000506051
0.000456416
0.000583936
0.000489367
0.000968611
0.00237466
0.00100713
0.00067802
0.00078281
0.000789464
0.00943168
0.000782801
0.000776368
0.00123405
0.00164252
0.000831637
0.000890099
0.000471453
0.00109118
0.000795318
0.000940712
0.000756945
0.00121965
0.000723748
0.00191444
0.00472657
0.000783539
0.000833723
0.000823523
0.00258354
0.000830286
0.00213445
0.000776988
0.0230066
0.00212584
0.00114231
0.000825629
0.000875135
0.0137296
0.00097542
0.00248149
0.00263074
0.00532109
0.00191721
0.000877505
0.00115651
0.00169065
0.000830621
0.00120565
0.00179329
0.0016789
0.00149615
0.000147543
0.00200412
0.00143423
0.00110024
0.00108861
0.00160296
0.000399856
0.00064458
0.000739105
0.00119379
0.000746902
0.0133863
0.000796539
0.00495214
0.000790196
0.000783456
0.000736504
0.000855501
0.000729699
0.000757086
0.0124982
0.0126658
0.00425932
0.000436664
0.000826821
0.00288859
0.00111914
0.00120889
0.00166873
0.00180699
0.00517545
0.00130055
0.0069513
0.000437416
0.000841943
0.00620441
0.000537796
0.0187906
0.000725042
0.000720945
0.00237307
0.00817171
0.00100808
0.00345068
0.000836444
0.00092176
0.00103083
0.000790309
0.00045811
0.00091443
0.00083032
0.000746151
0.000593025
0.000695688
0.000690494
0.00087586
0.00412245
0.000976597
0.000723579
0.00546185
0.00262311
0.00083986
0.000553466
0.00809276
0.00242834
0.00650608
0.00987193
0.00105985
0.00115271
0.000310477
0.0196363
0.0010201
0.00428424
0.000963794
0.0194585
0.0025675
0.000225509
0.00109295
0.000304649
0.000719715
0.00163435
0.000615143
0.00112846
0.00110232
0.00027072
0.00108114
0.000174347
0.000243577
0.000819627
0.000993061
0.000864382
0.00678367
0.00386113
0.00606791
0.000281709
0.00128267
0.000774243
0.000899118
0.00105635
0.000789817
0.00821366
0.000810382
0.00381559
0.00102936
0.000746471
0.000989468
0.0230782
0.0117806
0.000571195
0.0026853
0.00742164
0.00532992
0.0113334
0.000744735
0.00572544
0.00490744
0.003089
0.000944935
0.00853823
0.000726523
0.000726526
0.000950089
0.000974723
0.00119937
0.00123079
0.0128346
0.00107042
0.000974827
0.00339715
0.00467861
0.00477611
0.000764969
0.00141372
0.00122495
0.00110698
0.00125675
0.000743523
0.0182873
0.00135331
0.0061706
0.00259478
0.00666659
0.00105607
0.00213347
0.00204324
0.00256563
0.000962147
0.0010263
0.000676403
0.00122852
0.000614531
0.0222158
0.000752103
0.00087264
0.000754824
0.000908614
0.000832491
0.000776413
0.000868784
0.000747942
0.00322315
0.00123039
0.0116275
0.00073202
0.00074515
0.000550717
0.000604096
0.00169908
0.00945679
0.00170488
0.000539173
0.000962532
0.000768443
0.00195891
0.000785168
0.000704828
0.00086767
0.000663007
0.000844034
0.00101637
0.000928213
0.00766962
0.000571418
0.012393
0.000850635
0.000615397
0.000759911
0.000741135
0.000991158
0.0032319
0.00143079
0.00074105
0.00196857
0.000798389
0.00103414
0.00159782
0.00121697
0.000840138
0.000678599
0.00115867
0.00147673
0.0044096
0.00615398
0.00252202
0.000828543
0.000202264
0.00775398
0.001157
0.00540544
0.00668944
0.000489656
0.000858532
0.00110027
0.00131079
0.000258974
0.0123946
0.0065763
0.00111044
0.00793773
0.00313107
0.00165599
0.000487698
0.00824194
0.0213539
0.00873034
0.00130345
0.00100956
0.0016861
0.00280156
0.000836094
0.000680254
0.000610741
0.00078361
0.0031346
0.00335392
0.000358503
0.00592852
0.00084361
0.000707528
0.000418813
0.00291682
0.0120598
0.00145789
0.0026188
0.00604542
0.00886614
0.0149024
0.00215861
0.00219184
0.000795105
0.00583977
0.00395077
0.00729892
0.00559835
0.00250217
0.00402679
0.0018601
0.0152133
0.00452569
0.0170458
0.00229368
0.00121008
0.00107615
0.0177277
0.00251609
0.00129456
0.00523729
0.0038976
0.00217914
0.00617322
0.00666531
0.00306201
0.0135283
0.00281634
0.000300082
0.000806638
0.00417422
0.00107527
0.00113517
0.00176407
0.000830941
0.00421997
0.00346436
0.00627548
0.000529041
0.00933646
0.00381941
0.00274275
0.00356155
0.00118739
0.00093825
0.000772469
0.0118281
0.00137357
0.00134652
0.000776453
0.0179273
0.000597536
0.00126646
0.0103907
0.00848426
0.00187174
0.00190023
0.0129787
0.00133909
0.000786128
0.000151737
0.00656494
0.00308337
0.00829281
0.00741041
0.00103333
0.00217431
0.00519015
0.00586287
0.000959565
0.00151359
0.00133522
0.00151507
0.00114681
0.0100532
0.00234671
0.00113524
0.00586557
0.00161246
0.00695419
0.000798506
0.0018809
0.00090301
0.00150883
0.00251849
0.00101387
0.000915395
0.00109482
0.00133965
0.000258288
0.00178425
0.000661087
0.000822515
0.00448688
0.00272803
0.00550792
0.00147831
0.00534616
0.00529923
0.00648642
0.000935527
0.0020763
0.00181759
0.00130334
0.000241237
0.000187627
0.00024169
0.017656
0.000826204
0.00267892
0.00208414
0.00392159
0.00355062
0.00159301
0.000184631
0.00021706
0.000300733
0.000287864
0.000422593
0.000495995
0.000369411
0.000346384
0.000436391
0.000542773
0.000525919
0.000342403
0.000283666
0.000217633
0.000225814
0.00046679
0.000544755
0.000405511
0.000415877
0.000254917
0.000368468
0.000195062
0.000232095
0.000115291
0.000869842
0.000239909
0.000304858
0.000172674
0.00053117
0.000293988
0.000385396
0.000329896
0.000283388
0.000282198
0.00025627
0.000242943
0.000378848
0.000238501
0.000381107
0.000651238
0.000246225
0.000213668
0.000309539
0.000332279
0.00171724
0.00192119
0.0122132
0.00101993
0.00621219
0.002886
0.00532881
0.0153314
0.00104895
0.00129297
0.000842983
0.00104367
0.00281557
0.00619986
0.0187347
0.0191658
0.00549645
0.0027664
0.00052933
0.00049286
0.00223058
0.000805885
0.000329903
0.00555205
0.00276887
0.00360101
0.00161969
0.00567073
0.00478232
0.00541294
0.00189801
0.009137
0.00360527
0.0186747
0.00198538
0.0019249
0.00152992
0.000761923
0.0142952
0.00117041
0.00160481
0.00757796
0.00233158
0.00587493
0.00453811
0.00173217
0.00133198
0.000842017
0.000848846
0.0163464
0.00211055
0.000425307
0.000377989
0.00783229
0.0144173
0.000198156
0.00355833
0.00687652
0.000415232
0.00039396
0.000396295
0.000342663
0.000301884
0.000425139
0.000514113
0.000287067
0.000306178
0.00058305
0.000408258
0.000318621
0.000184138
0.000335713
0.000242118
0.000265186
0.000356792
0.000223658
0.000353935
0.000201469
0.000247255
0.000195762
0.000274954
0.00339689
0.00278418
0.000442808
0.000889659
0.00500313
0.000848692
0.00938604
0.000858329
0.00293196
0.015116
0.00451966
0.00281346
0.0142586
0.00289522
0.000190207
0.0141972
0.00208046
0.00133529
0.0226191
0.00489465
0.0127692
0.000701116
0.0135079
0.00169253
0.00130242
0.0133032
0.000899336
0.0033945
0.0037901
0.00153521
0.0023111
0.00612565
0.00112594
0.00908781
0.0174311
0.00335259
0.00728223
0.000573899
0.0100992
0.00118354
0.00214824
0.000904241
0.00638595
0.00127646
0.00180801
0.00304648
0.0016181
0.00714714
0.000834641
0.00304916
0.00063206
0.00691146
0.00522745
0.0234505
0.000171486
0.000771986
0.00102033
0.00861979
0.00282105
0.00025295
0.000669605
0.00663723
0.00444129
0.0130507
0.000832683
0.00196504
0.00247436
0.00100428
0.00375898
0.000915913
0.00723464
0.000851094
0.00015901
0.000184443
0.00934802
0.0064123
0.000789679
0.00632667
0.00491826
0.003381
0.0132643
0.0191072
0.0108099
0.0134862
0.0121553
0.00171974
0.00856637
0.00120407
0.0020065
0.00160434
0.00683263
0.000724825
0.000878464
0.00108452
0.0156859
0.000922895
0.000849656
0.00154335
0.00287785
0.00348878
0.00927059
0.0137122
0.00944192
0.0038021
0.000830824
0.0127883
0.000550547
0.00208275
0.00199933
0.00116707
0.0122387
0.0167302
0.00318373
0.0139617
0.00279181
0.00781459
0.00142725
0.00146248
0.00215588
0.00271319
0.00101829
0.00180802
0.00172228
0.0129508
0.00103769
0.00144192
0.00383229
0.00295249
0.00142514
0.00228024
0.00170405
0.0148295
0.00526937
0.00735125
0.0049636
0.00148174
0.000752005
0.00140597
0.00351172
0.00116496
0.0019168
0.00222545
0.0139143
0.013918
0.010886
0.0102253
0.0139944
0.0112943
0.0139733
0.00122634
0.0140881
0.0140553
0.0116359
0.0111261
0.0141024
0.0107041
0.0139263
0.0141774
0.0141245
0.00179185
0.00183498
0.00154237
0.0150446
0.00168202
0.00121596
0.000935359
0.00121752
0.000197503
0.000222013
0.00519914
0.0111348
0.00658475
0.00253862
0.00329228
0.00931135
0.0107161
0.00791148
0.00401012
0.000931569
0.00116773
0.000900497
0.00219917
0.0066763
0.00163552
0.0014652
0.0015018
0.00550683
0.00417114
0.00239006
0.00205882
0.00708599
0.00239807
0.000681795
0.00436458
0.000270861
0.00500655
0.001337
0.000992809
0.00120167
0.000963736
0.00197418
0.00273017
0.00219594
0.0039514
0.00440488
0.00134906
0.00286279
0.0112942
0.00230583
0.00268342
0.00306822
0.00386123
0.00934706
0.000871758
0.00190481
0.00956966
0.00487979
0.00299505
0.002409
0.00141312
0.00315155
0.0106627
0.00331659
0.00191813
0.00202183
0.00186101
0.00526572
0.00136014
0.0171035
0.00203774
0.00143406
0.00134439
0.00215641
0.00487886
0.000690903
0.00138486
0.00305592
0.00573823
0.00261462
0.0165103
0.00968815
0.0017741
0.0104314
0.00203176
0.00167238
0.0029428
0.000773867
0.00290596
0.00134075
0.0159407
0.0031314
0.0018471
0.000859672
0.00790422
0.0152832
0.00160283
0.00146228
0.00609574
0.00552982
0.00278305
0.00187546
0.00159506
0.00109364
0.00671128
0.00559848
0.00534416
0.0147527
0.0147706
0.00124164
0.00552804
0.000545733
0.00162697
0.00290006
0.00102955
0.00152031
0.00170031
0.00109229
0.00223929
0.00180246
0.00492528
0.000567266
0.00588196
0.00293862
0.00125832
0.00305562
0.003377
0.0035957
0.00123117
0.00133368
0.00106922
0.0050251
0.00675377
0.00126612
0.00209895
0.00149479
0.00174973
0.00134483
0.00236586
0.001964
0.00474053
0.00431015
0.000331504
0.00071908
0.000492508
0.00348069
0.00162308
0.00114262
0.00564668
0.00701212
0.00216074
0.0016323
0.00104717
0.00456809
0.00441111
0.00443949
0.000986212
0.00657791
0.00405065
0.00387434
0.00037239
0.00448194
0.00673363
0.0148731
0.00417487
0.00698025
0.00611296
0.00337967
0.00352857
0.00602085
0.000693663
0.00435924
0.00676692
0.00432462
0.00426287
0.00593054
0.00424052
0.00684385
0.000671553
0.00259668
0.00434733
0.00664706
0.00378494
0.00424905
0.00677636
0.00589969
0.00515941
0.00380971
0.00435535
0.00253687
0.000686697
0.00641847
0.00113539
0.00559257
0.00149205
0.00223556
0.00102463
0.000505786
0.00525991
0.0011733
0.00660615
0.00133126
0.00107876
0.00452176
0.00461155
0.00439625
0.00568364
0.00300434
0.00267041
0.00098799
0.00370434
0.000372737
0.00137905
0.00135466
0.00200915
0.000610719
0.00355835
0.000564308
0.0146469
0.00129413
0.00147343
0.00195062
0.00182759
0.00273248
0.00206516
0.000888201
0.00131519
0.00531818
0.00223721
0.000945274
0.00122648
0.0049787
0.001701
0.000766123
0.001444
0.00535739
0.00404896
0.00132659
0.00556855
0.0029532
0.00175313
0.00105853
0.000557036
0.0140602
0.000872084
0.0014884
0.00143525
0.00833181
0.000680726
0.00409906
0.00215019
0.00731075
0.00165631
0.0015831
0.00634287
0.00165421
0.000776058
0.00131912
0.00174718
0.000618068
0.000898039
0.00595851
0.00260942
0.00326348
0.0137633
0.0152552
0.00093844
0.000741208
0.00182661
0.00134284
0.00499628
0.000889817
0.00603295
0.00519615
0.00165084
0.00149573
0.00506174
0.00229849
0.00403371
0.00527404
0.00112356
0.00108167
0.00191437
0.00138098
0.00078787
0.00165612
0.00176646
0.00983725
0.00427629
0.00254392
0.00914333
0.00131502
0.00117191
0.00339159
0.00744988
0.00174589
0.00629545
0.00113716
0.0006497
0.00155464
0.00429159
0.00643411
0.00103438
0.00638148
0.00262873
0.00257565
0.003978
0.00188955
0.00185643
0.000287729
0.00162729
0.00354492
0.0149541
0.000942428
0.0010914
0.0080842
0.0008001
0.000829914
0.0109837
0.000298631
0.00133338
0.000937063
0.00191132
0.0016964
0.00598371
0.003606
0.00616723
0.00699882
0.00295836
0.0030901
0.00140095
0.00642936
0.00397786
0.000254123
0.000265987
0.000332884
0.000611389
0.000554797
0.00803693
0.00119415
0.000759879
0.00166585
0.00372467
0.0049819
0.00148243
0.000210636
0.0105986
0.00912149
0.00195034
0.00104936
0.00310603
0.00176138
0.00336835
0.000295085
0.00381928
0.012972
0.000949485
0.00207073
0.00175399
0.00872611
0.00528187
0.00126331
0.00121114
0.00989694
0.00390252
0.0023105
0.00155698
0.00179408
0.000788085
0.000837181
0.00449637
0.00367714
0.00450107
0.00373011
0.0105569
0.00542895
0.00116986
0.000929097
0.00164586
0.0123899
0.0162258
0.0134442
0.0115921
0.0102075
0.00382421
0.00365889
0.00444797
0.00308191
0.00151309
0.0101728
0.0119461
0.0120043
0.00228629
0.0103637
0.00546282
0.00626605
0.00489342
0.000575045
0.00393333
0.000979137
0.000696088
0.00169985
0.00443018
0.00443143
0.00437758
0.0051505
0.00762607
0.00114191
0.0136568
0.00674485
0.00634448
0.00344592
0.0016009
0.00130786
0.00114675
0.00120627
0.000859348
0.000714419
0.000743837
0.00958603
0.00237898
0.000792392
0.00133931
0.00331482
0.00308009
0.00380577
0.00182756
0.00631473
0.00344319
0.00168213
0.00404961
0.00560852
0.00139015
0.00160244
0.00169746
0.000227434
0.00398031
0.000549834
0.00100388
0.0133717
0.000796488
0.000742751
0.00155931
0.00578257
0.00107054
0.00348802
0.00843954
0.0021737
0.00171416
0.00422466
0.00391992
0.00388316
0.00739449
0.00164179
0.00884278
0.00419559
0.00558003
0.0136919
0.00946279
0.0015807
0.00287759
0.000829387
0.00514699
0.00676192
0.00195973
0.00178181
0.000812794
0.000742117
0.00102409
0.00139249
0.00537491
0.000754256
0.000859465
0.00682384
0.00496283
0.0043803
0.002725
0.00131025
0.00780394
0.00638809
0.00186409
0.00167343
0.00205968
0.00314111
0.0139412
0.00407694
0.0123194
0.00127469
0.00290681
0.00220992
0.00642112
0.0106033
0.00224472
0.00360325
0.00286215
0.00550403
0.00502569
0.00206415
0.000428796
0.000373564
0.00805636
0.00655216
0.00641958
0.00335313
0.00738968
0.00450483
0.00079594
0.00454813
0.00923261
0.00361204
0.00534175
0.00689661
0.00577427
0.00117256
0.000838786
0.00172496
0.0142376
0.00155654
0.00840839
0.00123977
0.000762105
0.0103132
0.00132783
0.00169978
0.00893215
0.0137258
0.0132142
0.0145321
0.000452309
0.00107752
0.00375732
0.006318
0.0118944
0.0125928
0.00259977
0.00565232
0.00241942
0.00100961
0.00348541
0.00210384
0.00771399
0.00649298
0.0137649
0.00362854
0.00100937
0.00873942
0.00411251
0.00505124
0.00184263
0.00336178
0.00812144
0.00122153
0.00229901
0.00500375
0.00818768
0.0093463
0.0013538
0.00246478
0.0101437
0.00103851
0.00075798
0.00178619
0.007511
0.0088335
0.00348947
0.00225415
0.000989581
0.00141618
0.00669419
0.00161
0.00872378
0.00774024
0.00414636
0.00563169
0.00375692
0.00191972
0.00593198
0.0120994
0.00434597
0.00168351
0.00249593
0.000975332
0.00106582
0.00255697
0.00146389
0.00236145
0.0137416
0.0133267
0.0136255
0.010092
0.013483
0.00194039
0.00612859
0.0014868
0.0102162
0.0210462
0.0117181
0.00823634
0.000740127
0.00169466
0.00744693
0.0104682
0.0100484
0.00604242
0.0027039
0.00452452
0.0016974
0.00276174
0.000674851
0.000273187
0.011218
0.00145032
0.00578329
0.000755199
0.00887458
0.00369741
0.00255586
0.00660791
0.0060981
0.00116252
0.00832518
0.0112687
0.00291301
0.000497859
0.0106398
0.0054147
0.00346404
0.00172518
0.00204262
0.00082335
0.00358937
0.0145027
0.0121903
0.00220769
0.00714845
0.0106731
0.00113931
0.00455419
0.00343664
0.0032551
0.000544828
0.004138
0.0110166
0.00409208
0.0035218
0.00327028
0.0143082
0.00817526
0.00100241
0.00111661
0.000960142
0.00291611
0.000797928
0.00626316
0.00327232
0.00947236
0.00159085
0.00165506
0.000922855
0.0128111
0.00620782
0.0130269
0.00384282
0.000883737
0.00222068
0.00537102
0.00430936
0.000723609
0.0121321
0.00326017
0.00206501
0.00171362
0.00078932
0.0132378
0.00104807
0.0139219
0.0090026
0.000916945
0.0070417
0.00079639
0.0137716
0.0108444
0.000988465
0.00229415
0.00298228
0.014359
0.000848186
0.000779376
0.000769327
0.00235736
0.000747865
0.00159656
0.00858716
0.00509469
0.00682577
0.00278732
0.00645635
0.00102135
0.0127981
0.00920784
0.00137836
0.000738903
0.00395687
0.00881178
0.000199267
0.000171498
0.000256682
0.0146066
0.00209376
0.0158826
0.00466643
0.00421544
0.00897463
0.0129447
0.00179666
0.00331476
0.0066267
0.00499633
0.00258134
0.00460396
0.00195682
0.0108399
0.00128684
0.000962991
0.000790851
0.00173291
0.00260971
0.00199659
0.00367595
0.00293257
0.00206542
0.0130003
0.00585754
0.00689596
0.00558999
0.00173662
0.0014159
0.0030448
0.00230594
0.0129323
0.00544061
0.0142998
0.00690122
0.00125068
0.000884403
0.0016638
0.00345002
0.00127654
0.00660687
0.002076
0.00114572
0.00254141
0.00952933
0.00372974
0.0138023
0.00181801
0.0094027
0.00377246
0.00306934
0.0017164
0.00594592
0.0038827
0.00364251
0.00118336
0.00419763
0.00610923
0.0017046
0.00122249
0.0143293
0.0117901
0.00621188
0.00565342
0.00624943
0.022185
0.0150078
0.0016608
0.0021262
0.00359317
0.00193406
0.00373041
0.0107845
0.012891
0.000744065
0.00856803
0.00185917
0.0027855
0.00189121
0.00422888
0.00251187
0.00468529
0.000493999
0.00751546
0.00543841
0.000919949
0.00226662
0.00453416
0.00636461
0.00359944
0.00261401
0.000426622
0.00202675
0.0113018
0.00693637
0.00390116
0.00218827
0.00556276
0.000956613
0.000702487
0.00137643
0.0014123
0.00101905
0.00170438
0.0013976
0.00181802
0.0158738
0.000447255
0.00139971
0.00264201
0.000934892
0.00633553
0.00112299
0.000783254
0.0014511
0.00384474
0.00237851
0.000987303
0.00128682
0.000465016
0.00159182
0.000805898
0.00144675
0.00642802
0.00387005
0.000804532
0.0059511
0.00141515
0.00347498
0.00952048
0.00622386
0.00639333
0.000949923
0.00248859
0.000200967
0.000362576
0.00200403
0.0140797
0.00195684
0.0140187
0.0047964
0.00183612
0.00793962
0.0019574
0.000805363
0.00212818
0.00509956
0.00469212
0.0068103
0.00107584
0.000828873
0.00163133
0.000732259
0.00143877
0.01262
0.00181993
0.000963099
0.00590961
0.000458175
0.00469545
0.00345032
0.00108747
0.00146392
0.00965365
0.0101819
0.0130692
0.0103202
0.00241978
0.000955702
0.00396581
0.0129404
0.00580724
0.00743931
0.00466916
0.00710615
0.00138407
0.000806488
0.000745849
0.0068471
0.00455797
0.00185477
0.0018967
0.000734328
0.00170041
0.00636115
0.00327231
0.00259807
0.00784626
0.0178092
0.0169506
0.00103643
0.0137201
0.00121455
0.0119898
0.00415001
0.00657669
0.00162991
0.00526182
0.00188193
0.00633181
0.0133986
0.0125818
0.00123636
0.00127903
0.000985638
0.00267946
0.000346036
0.00140984
0.00183355
0.00261039
0.00695152
0.00610121
0.00166754
0.000560795
0.0131079
0.000765868
0.00113023
0.00902955
0.0129787
0.00712169
0.00175775
0.00637068
0.00434978
0.000820423
0.000841096
0.00343627
0.00163527
0.0115255
0.00129222
0.00689332
0.00462305
0.00145284
0.00672713
0.00114427
0.000771451
0.000826463
0.000314453
0.00024678
0.00225159
0.000971384
0.00109823
0.000827567
0.000222256
0.000176082
0.000250211
0.0144099
0.0145959
0.0008481
0.00670782
0.00234908
0.00504858
0.00685144
0.00594714
0.00476692
0.0127075
0.0112698
0.00726913
0.00425638
0.00410806
0.00915607
0.0029784
0.000752772
0.00125332
0.00144214
0.000671049
0.00127475
0.000821974
0.0138276