/*--------------------------------*- C++ -*----------------------------------*\
| =========                 |                                                 |
| \\      /  F ield         | OpenFOAM: The Open Source CFD Toolbox           |
|  \\    /   O peration     | Version:  v1912                                 |
|   \\  /    A nd           | Website:  www.openfoam.com                      |
|    \\/     M anipulation  |                                                 |
\*---------------------------------------------------------------------------*/
FoamFile
{
    version     2.0;
    format      ascii;
    class       surfaceScalarField;
    location    "0.91";
    object      phi;
}
// * * * * * * * * * * * * * * * * * * * * * * * * * * * * * * * * * * * * * //

dimensions      [0 3 -1 0 0 0 0];
oriented        oriented;


internalField   nonuniform List<scalar> 
11117
(
8.11927e-06
-3.12769e-05
3.24165e-07
2.28335e-05
-2.39859e-05
-6.1478e-06
1.21442e-05
1.79894e-05
-3.96193e-05
4.95545e-05
-0.000166241
0.000156305
-0.000523604
1.84158e-05
0.000206042
0.000299147
0.000166383
0.000224471
-0.000175434
-0.00021542
1.89384e-05
7.7197e-07
0.000185218
-0.000204929
-0.000527613
-6.73663e-05
0.000442619
0.000152359
-0.000192372
5.53975e-06
0.000100092
8.67399e-05
0.00123088
0.000234656
-0.000911312
-0.000554225
1.01595e-05
-8.78299e-06
-1.83651e-06
4.59944e-07
-0.000872642
0.000943951
0.000302006
-0.000373314
-0.000355457
-0.0002117
0.000277427
0.00028973
-0.000491823
-0.000223214
0.000302994
0.000412043
0.000789586
-0.0010181
0.000491771
-0.000263256
1.99847e-05
-2.57554e-05
2.28371e-05
-1.70663e-05
9.91167e-05
2.59283e-06
1.64024e-05
-0.000118112
-0.000134563
0.000210535
-1.72024e-05
-5.87692e-05
-0.0006694
0.000694066
0.000714833
-0.000739499
1.65478e-05
1.16213e-05
-8.18436e-06
7.32086e-07
1.06325e-06
2.74035e-06
-4.53569e-06
-0.000328298
0.000184965
6.15709e-05
8.17614e-05
4.43155e-05
-1.80418e-05
-9.81155e-05
7.18418e-05
0.000453378
0.00034197
-0.000235784
-0.000559564
0.00010821
0.000107584
-6.77022e-05
-0.000148092
0.000340766
0.000217645
-0.000390199
-0.000168212
0.000940649
-0.000972689
0.000295065
-0.000263024
0.000280859
-0.000348329
0.00073964
-0.00067217
-0.000203992
0.000262521
-0.000264143
0.000205614
0.000127496
-3.8794e-05
0.000999186
-0.00108789
1.58773e-05
-1.38115e-05
1.22701e-05
-1.43359e-05
-0.000142301
5.68646e-05
0.000164977
-7.95403e-05
-0.000111167
-0.000369642
0.000346826
0.000133984
-0.000118824
-0.000448417
0.000378198
0.000189043
-1.45783e-05
5.73307e-05
-3.15619e-05
-1.11905e-05
-0.000142035
5.70548e-05
-2.02984e-05
0.000105278
-0.000147276
6.23379e-05
-2.05921e-05
0.00010553
0.000602411
-0.000824652
0.00100502
-0.000782779
0.000335394
-0.00050698
-0.000101188
0.000272775
0.000499682
-0.000124158
-0.000664027
0.000288502
0.000194628
0.000329763
-0.000422697
-0.000101693
0.000161695
0.000254345
-0.000297936
-0.000118104
-1.30988e-05
0.000255918
-0.000288805
4.59861e-05
0.00100505
0.000884175
-0.00088789
-0.00100134
0.000248239
1.4598e-05
-2.08965e-05
-0.000241941
2.7956e-05
2.29788e-05
-3.43871e-05
-0.000934925
0.000740513
-0.000224402
0.000418813
-0.000713862
0.000544844
-0.000157813
0.000326831
0.00018317
-0.000284453
0.000180183
-7.88991e-05
-4.48126e-06
-4.8243e-06
7.50643e-06
1.79915e-06
-6.89899e-05
0.000201518
-0.000132528
2.94993e-05
-8.10019e-06
-2.13991e-05
-0.00033271
-0.00113163
0.000510969
0.000953369
6.26826e-06
-2.42649e-05
-3.27227e-05
5.07193e-05
4.54379e-05
-4.66726e-05
-1.73209e-06
2.96684e-06
1.10025e-05
-1.10025e-05
0.00041794
0.000176307
-0.000548466
-4.57821e-05
0.00029773
0.00013648
-0.000396914
-3.72958e-05
-0.000141638
-6.7387e-05
0.000196213
1.28121e-05
0.000883129
0.000114675
-0.00136305
0.000365243
-0.000408525
0.000794981
0.000554192
0.000848723
-0.000863632
4.22747e-05
-2.73663e-05
9.70682e-05
-4.31996e-05
-4.81037e-05
-5.76487e-06
-0.000133804
-0.000108759
0.000100263
6.88716e-05
-4.24123e-05
-0.000137627
0.000116048
-3.86732e-05
-0.000196199
-3.22247e-05
-8.92959e-05
7.25636e-05
4.8957e-05
0.000141638
-0.000153332
6.8866e-05
-5.71721e-05
1.04251e-06
-0.000325996
0.000324954
-0.000710138
-0.000392787
0.00056812
0.000534806
1.72146e-05
4.58076e-05
-8.61186e-06
-5.44104e-05
0.000465887
-0.000136809
-0.000661787
-0.000230873
0.000205255
0.000167256
-0.000277767
-0.00124397
0.00128719
0.000234544
-9.50548e-05
0.000259263
-0.000193484
2.92754e-05
-0.000771523
-0.000608015
-0.000106208
3.35993e-05
0.000200969
-0.000128361
1.35646e-05
-1.62989e-05
2.73437e-06
-0.000946868
-0.000164717
0.000138895
0.000247862
3.67807e-05
-3.64039e-05
3.14318e-06
1.83376e-05
-2.14808e-05
-9.52285e-05
-4.45542e-05
1.14105e-05
0.000128372
-2.70766e-05
-8.42082e-06
2.17249e-06
3.3325e-05
0.000118038
-9.4918e-05
0.000127569
-0.00015069
-0.000276741
0.000252652
0.000261418
-0.000237329
-0.000224824
7.02364e-05
0.000258397
-0.000103809
5.65359e-05
-0.000500793
0.000444257
-1.67024e-05
-0.000554242
0.000570944
3.19035e-05
-0.000482933
0.00045103
2.64863e-05
1.45986e-05
7.88929e-05
-0.000119978
-4.73229e-05
7.31431e-05
0.00026255
-0.00028837
0.000525718
-0.000156231
7.91872e-05
-0.000448674
0.000677765
5.24202e-05
-5.2201e-05
-0.000677984
0.000719245
-4.72969e-05
5.49077e-05
-0.000726856
-0.000693304
3.87613e-05
-2.74365e-05
0.000681979
-0.000634688
5.31434e-05
-2.54589e-05
0.000607003
-2.17055e-07
0.000224622
-0.000325965
0.00010156
0.000588082
2.2391e-05
-2.25465e-05
-0.000587926
0.000684382
4.49805e-05
-3.02565e-05
-0.000699106
0.000646091
4.96877e-05
-2.73067e-05
-0.000668472
0.000818787
5.95701e-05
-2.96343e-05
0.000379804
7.67955e-05
-0.000408078
-4.85213e-05
-0.00024577
0.00018068
7.53778e-05
-1.02877e-05
0.000307589
-0.000380634
-0.00116935
0.0012424
0.000732303
0.000343407
-0.000753236
-0.000322473
-1.65531e-05
1.54772e-05
-9.164e-06
1.02399e-05
-0.000860405
0.000252562
0.000768538
-0.000160695
1.11207e-05
-3.72443e-05
6.95323e-05
-4.34086e-05
1.71171e-05
9.01722e-07
2.56038e-05
-4.36226e-05
-0.000245035
3.45883e-06
0.000102288
0.000139289
0.000228277
-5.20338e-05
7.16187e-05
-9.66816e-05
6.04377e-05
8.93418e-05
-5.30979e-05
-3.48206e-05
6.62152e-05
1.16573e-05
-4.30519e-05
-0.000414575
0.000344597
-0.000159409
0.000229387
-2.76718e-05
2.99818e-05
6.40156e-06
-8.71149e-06
9.98035e-05
0.000556747
-0.000634707
-2.18436e-05
0.000123432
0.000638905
-0.000722621
-3.97162e-05
-2.08338e-05
-9.17403e-06
3.12817e-05
-1.2738e-06
-0.000540532
0.000502967
0.000894104
-0.000856538
3.53318e-05
-1.98492e-05
-0.000879114
-0.00103787
8.4523e-05
0.000958507
-5.15897e-06
0.000971898
-0.000691931
-0.000820499
5.01447e-05
-4.11303e-05
-9.01439e-06
0.000158372
-0.000118454
0.000178819
-0.000218737
-0.00015967
-0.000150529
-2.96078e-05
-2.18793e-05
1.44868e-05
3.70003e-05
-0.000353241
0.000405521
0.00062263
-0.000674911
-0.000464665
0.00069401
-0.00053073
0.000301386
2.00106e-06
-0.000157622
0.000155566
5.52186e-08
0.00055668
-0.000815602
-0.000111753
0.000370676
4.55917e-05
-5.07904e-06
4.58226e-06
-4.50949e-05
9.55697e-05
4.73067e-05
-0.000143671
7.94893e-07
0.000180946
-3.24912e-05
-0.000183127
3.4672e-05
0.00015187
-9.19907e-05
-6.95732e-05
9.69389e-06
-0.000898706
0.000108576
-0.000156738
-0.000325942
0.000287679
-0.000681051
0.000719314
2.43581e-05
-2.35951e-05
-2.65185e-05
-0.000414127
3.73297e-05
9.18973e-06
0.000367608
3.22489e-05
8.0906e-05
-1.60867e-05
-0.00011676
-5.09475e-06
0.000118127
3.72708e-06
5.76433e-05
2.44962e-06
-5.94422e-05
-6.508e-07
-0.000191632
0.000104425
9.09571e-05
-3.75093e-06
7.35199e-05
-0.000331188
0.00036427
-0.000106602
5.67752e-05
-4.59711e-05
-1.94263e-05
8.62219e-06
0.000439121
-0.000215415
-0.000224732
1.02655e-06
-0.000110638
8.28544e-05
-3.35795e-05
6.13635e-05
4.40414e-06
0.0003149
-0.000155471
-0.000163833
0.000303727
-0.000151061
5.70672e-06
-0.000433249
0.000970464
-0.000556315
1.91001e-05
9.72852e-05
0.000175138
-0.000132597
-0.000139826
-0.000108531
0.000230857
1.04451e-05
-0.000132771
0.000926726
0.000447972
-0.000612121
-0.000762577
-9.67531e-06
9.58245e-06
-2.73818e-05
2.74746e-05
-0.00047146
-5.98247e-05
-0.000329121
0.000124696
-0.000204567
-8.98324e-05
0.000169703
-0.000432439
-0.000384569
0.000492525
0.000324484
0.00075956
-0.000168696
-0.000590864
0.000222941
0.000181439
7.20855e-05
-0.000253525
0.00095371
-0.000229864
-0.000723846
0.000110569
3.42135e-05
-1.26283e-05
-2.15852e-05
-6.43693e-05
0.000283061
-0.000218692
2.46021e-05
-2.96442e-06
-2.16377e-05
-3.01891e-05
0.000325034
-0.000294845
-0.000482942
0.000548427
-6.5485e-05
-0.000488057
0.000483159
4.89821e-06
-0.000278269
-1.02776e-05
0.000288547
-6.88633e-05
-8.19773e-05
0.000150841
-5.20748e-05
-4.46068e-05
-1.7299e-05
-1.75216e-05
-2.23164e-05
2.02289e-05
2.08745e-06
0.000211172
0.000197619
-0.000408791
0.000121398
-0.000155996
3.45978e-05
0.000104283
-0.000146551
4.22686e-05
7.00114e-05
-6.81617e-05
-1.84967e-06
-0.000481113
0.000579847
-9.87339e-05
-5.1369e-06
1.53042e-06
3.60649e-06
-0.000373816
0.000450003
-7.61875e-05
-9.55943e-05
7.9727e-05
1.58673e-05
0.000924179
-0.00100979
8.56135e-05
-0.00011247
0.000158711
-4.62412e-05
-0.000139841
0.000215164
-7.53224e-05
0.00022616
-0.000206716
-1.94444e-05
-0.000271169
0.000315319
-4.41503e-05
-5.93516e-05
0.000128012
-6.86605e-05
-0.000168211
0.000131045
3.71665e-05
-0.000255408
9.63772e-06
-0.000230664
0.000149927
8.07368e-05
-1.2677e-05
9.20882e-06
3.46816e-06
4.73089e-05
0.000133371
-0.000211712
-0.000660931
-0.000281264
-8.83783e-05
-0.000361424
-8.69933e-05
0.000147182
-9.03178e-05
0.000290339
-0.000109393
0.000185695
-9.01251e-05
0.000228043
5.19824e-05
-0.000280026
-1.60696e-05
2.84367e-05
-1.2367e-05
-3.16172e-06
1.4783e-05
-0.00108512
0.00139271
0.000475748
-2.55841e-05
-0.000450164
-0.000939578
-0.000192051
3.88676e-05
0.000144302
-4.60327e-05
-2.11809e-05
6.72136e-05
-0.000613401
-0.000100461
-0.000791506
-0.000143419
3.36264e-08
-7.26428e-05
7.26092e-05
2.63596e-05
-1.57399e-05
1.72749e-05
-2.78947e-05
-0.000160466
8.12787e-05
0.000504873
-0.000425686
-0.000879282
0.0008722
0.00068142
-0.000674338
0.000150821
-3.50759e-05
-0.000194035
7.82903e-05
-0.00118462
0.00114144
-5.20624e-05
9.52431e-05
-0.000179589
0.000150628
-1.22719e-06
-0.000116721
0.000107766
-5.54138e-05
-1.36416e-05
-4.82961e-06
-6.75388e-05
8.601e-05
0.00011885
-0.000122727
-0.000157146
0.000161023
6.52573e-05
-6.94703e-05
-0.000120354
0.000124566
-0.000190503
0.000157337
0.000185036
-0.000205191
5.06879e-05
0.000594561
-0.000440057
0.000789707
-0.000683541
-0.000184377
7.82112e-05
-0.00139872
-3.50046e-05
0.000249107
0.000221368
-0.000268596
5.24909e-05
-5.26292e-06
0.000253388
4.67902e-06
-4.49221e-05
-0.000213145
0.000703721
-0.00020319
-5.28186e-05
-0.000447713
-0.000353637
-0.000253953
4.14427e-05
0.000566147
-8.01363e-05
5.46692e-05
0.00119735
-0.00117188
0.000122135
-1.42051e-05
-0.00010793
9.50369e-06
2.021e-05
-1.34755e-05
-1.62383e-05
3.53277e-05
1.03593e-05
-3.82491e-06
-4.18621e-05
9.93572e-06
-9.59123e-06
-3.35299e-05
3.31854e-05
-4.33799e-05
6.08693e-05
-0.000145674
0.000128184
-4.7773e-05
7.29138e-05
-0.000132953
0.000107812
-1.05194e-05
9.86624e-06
-6.01044e-05
6.07576e-05
0.000142341
-5.1449e-05
-0.000223364
0.000132472
0.000183094
-0.000202091
2.59644e-05
-6.96801e-06
2.80156e-05
2.44715e-05
-0.000998189
0.000945702
-0.00011737
4.49399e-05
-0.000744793
0.000817224
0.000866267
-0.000868859
6.87687e-05
-6.61765e-05
0.000186408
-0.000286025
-0.00014969
0.000249307
8.50628e-05
0.000150419
-0.000121724
-0.000113758
4.39875e-05
-1.31003e-05
-3.70662e-05
6.17898e-06
0.00016114
-0.000143887
-4.89107e-06
-1.23612e-05
5.4648e-05
0.000685042
-0.000380389
-0.000359301
-6.50357e-06
0.000236846
-0.000105646
0.00021098
-0.000207806
-9.67751e-06
5.39038e-06
-3.12729e-05
8.63202e-05
-2.15298e-05
3.54146e-05
-3.97163e-05
2.58315e-05
0.000146086
-0.000109497
6.06964e-05
5.33805e-05
-0.000545632
0.000492252
5.13048e-05
-0.000540782
0.000489477
3.67143e-05
-0.000484989
0.000448274
4.52659e-05
-4.5684e-05
-3.18066e-05
-0.000319792
-1.38066e-05
2.26009e-05
-3.48413e-05
2.6047e-05
-1.62189e-05
2.68035e-05
-0.000953228
0.000942643
-0.000279964
-0.000393072
0.000458849
0.000214187
0.00105415
-0.000450363
-0.000806059
0.000202269
-0.000655082
0.00116125
-0.000870099
0.000363936
1.15372e-05
-3.00083e-05
4.48307e-05
-2.92066e-05
-3.06668e-05
3.02656e-05
-0.000625196
-7.06285e-05
0.000302712
0.000393113
2.0448e-06
-0.000187932
6.2978e-06
-9.33295e-05
-9.12427e-05
6.78509e-05
1.82184e-05
8.46512e-05
-5.24491e-05
-5.04204e-05
-0.00019025
9.492e-05
9.53303e-05
-0.000195824
0.000193676
2.1484e-06
0.000303488
-0.000211906
-0.000200113
0.000106109
-0.000387441
0.000340357
-5.90258e-05
3.0033e-05
-2.50261e-05
-0.000589813
3.27979e-05
-5.56939e-05
0.000612709
-0.000467568
1.98585e-05
-3.48081e-05
0.000482518
-7.05948e-05
-5.94475e-05
0.000135655
-5.61287e-06
-6.8081e-06
0.000239799
-0.000308536
7.55458e-05
-0.000283613
0.000463742
0.00033084
3.00979e-05
-0.00108084
0.00110728
-5.654e-05
-3.8843e-06
2.75994e-05
-1.37794e-05
4.42048e-06
4.29681e-05
-1.95073e-06
0.000188284
-1.94172e-05
-0.000200095
3.12286e-05
-3.81893e-05
4.39082e-05
2.58305e-05
-3.15494e-05
4.01371e-05
0.00026679
-6.08369e-06
-0.000300843
-4.1204e-05
-1.27468e-05
3.78812e-05
-0.000337676
-6.32225e-05
0.000294323
0.000106575
-0.000433453
0.000268046
0.000327103
-0.000260357
0.000157252
9.00062e-05
-0.000573206
0.000334201
0.000433633
-0.000555623
1.65944e-05
0.000550435
-1.14063e-05
-0.000616907
2.6536e-07
0.000628127
-1.14847e-05
4.05469e-06
0.000630356
-0.000612135
-2.22755e-05
-3.5793e-05
0.00058678
-0.000574758
2.37705e-05
-0.000612256
0.00104826
-0.000761945
-4.85552e-05
5.84063e-05
-6.80478e-05
5.81968e-05
-2.89818e-05
4.84239e-05
-8.71087e-05
6.76665e-05
-2.87588e-05
1.94142e-05
9.86241e-06
-5.17801e-07
5.20921e-05
-4.68746e-05
1.77347e-06
-6.99088e-06
-0.000967906
0.000116109
0.000950439
-9.86414e-05
-0.000114574
0.000688664
-0.000741603
0.000167513
-8.42433e-05
-8.44719e-05
0.000482774
-0.000314059
2.74229e-05
-4.71899e-05
0.000127745
-0.000107978
-0.000137995
-7.53371e-05
0.000627523
-0.000414191
1.87539e-05
6.80531e-05
1.06485e-05
-9.74556e-05
-1.73836e-05
4.09576e-05
-5.06506e-05
-0.000570177
0.000535406
-6.18996e-05
0.000127135
-0.000160464
0.0003403
-0.000286093
4.40258e-07
0.000105173
6.00135e-05
-6.30642e-05
-0.000102122
4.02649e-05
-1.64553e-05
0.000324108
-0.000347918
-3.5784e-05
3.13397e-05
-3.3745e-05
0.000507815
-0.000325755
-0.000574848
0.000758708
-0.000394811
0.000593543
-0.000301551
2.05798e-05
9.02644e-05
2.85866e-05
2.36575e-05
7.79334e-05
-0.000130178
0.000466119
-0.000750277
-0.000595124
9.87848e-06
-2.31913e-05
-1.4359e-05
-0.000426616
0.000472111
0.00101173
-0.00105723
0.000847063
-0.000171071
-4.74046e-05
-0.000628587
3.36782e-06
8.74293e-06
5.00637e-06
-0.000373815
0.000191572
0.000444764
-0.000239813
6.515e-05
-7.03723e-05
0.000228527
-0.000779974
0.000678944
2.94891e-06
4.28145e-05
-7.12152e-05
2.54518e-05
-3.86496e-06
0.000224322
-0.000316261
9.58041e-05
-0.000682781
0.000612283
0.000573464
0.000116881
0.000224639
2.30988e-05
-2.90027e-05
9.30163e-05
-8.71124e-05
-6.56678e-05
-0.000243048
0.000184558
4.59908e-06
-3.37335e-06
-0.000251685
0.000250459
-0.000169762
-0.000201484
0.000805898
0.000138053
-1.53991e-05
-8.0067e-05
0.000177252
-1.22758e-05
0.000147534
9.1418e-05
-2.51742e-06
2.89606e-06
6.60763e-06
-2.74727e-05
4.72757e-06
2.26968e-05
0.000127231
1.26154e-05
-3.30496e-05
0.00022109
-2.77348e-05
-9.0212e-06
5.14788e-06
0.000221012
-4.03656e-05
-0.000230803
-5.55655e-05
-8.42757e-05
-0.00051714
2.90833e-05
-7.19166e-05
-0.000435064
-7.96571e-05
-0.00058437
0.000144622
-0.000140217
-4.61047e-05
-6.61001e-05
-5.95335e-05
-6.57522e-05
0.000196797
-2.17905e-05
1.86288e-05
0.00036804
0.000585329
-5.18643e-05
3.56715e-05
-8.66082e-06
-1.91847e-05
1.21057e-05
-6.79433e-05
-0.000199641
0.000166396
0.00051701
-0.000543775
2.47938e-05
1.97109e-06
3.13265e-05
-0.000341029
0.000242336
0.000112268
-0.000241924
0.000135196
-2.41394e-05
3.6316e-05
3.8562e-06
-1.60328e-05
0.000273879
0.000466635
0.000212536
0.000332308
-4.75585e-05
-0.000236895
-3.66714e-05
4.17314e-05
1.20232e-05
-1.70832e-05
-9.62702e-05
9.28653e-06
9.17371e-05
-4.75337e-06
-5.53544e-05
-2.67063e-05
5.79214e-05
-8.86451e-05
5.95388e-06
5.4077e-05
2.86142e-05
-7.57328e-06
-8.18507e-05
2.90139e-05
6.041e-05
0.000427716
-0.000119102
0.00013641
-0.000420852
0.000702383
6.32724e-05
-0.000295013
0.00052947
-0.000144574
0.000224083
-0.000221146
2.02187e-06
7.17651e-06
-8.21659e-06
-9.81799e-07
8.69124e-06
5.11489e-05
-3.44488e-05
-2.53913e-05
1.26814e-05
-3.05621e-05
-1.87907e-05
-0.000624341
0.0010293
-0.00073442
0.000329463
3.62363e-05
-0.00014359
-3.99227e-05
4.07514e-05
-0.00013159
-5.11959e-05
2.88646e-05
9.21352e-07
-4.43643e-05
-0.00105423
0.000942381
7.30574e-05
2.4386e-05
4.45478e-05
-4.83885e-05
-2.05453e-05
-9.00326e-05
7.77068e-05
-5.39683e-05
6.62941e-05
2.33824e-06
-0.000280607
-5.3406e-05
-1.54573e-05
0.000378608
-0.000152063
7.44379e-06
-7.96654e-06
5.75757e-05
-5.70529e-05
3.63606e-05
-3.71105e-05
-7.44325e-06
8.1931e-06
7.80183e-05
5.65097e-05
5.9492e-05
7.56103e-05
-1.38928e-05
-6.94466e-05
7.72906e-06
4.40967e-05
-1.72634e-05
-3.94615e-05
0.000379492
0.000106558
0.000303445
0.00115437
0.000120048
-0.00111672
-0.000157699
9.47321e-05
6.1528e-06
6.00624e-05
-0.0006773
0.000175444
0.000603477
-0.000101621
-9.69413e-05
-1.28057e-06
-4.83521e-06
0.000103057
-6.80574e-05
0.000236857
-0.000130386
-3.84137e-05
1.24094e-05
-5.52078e-05
3.18854e-05
1.0913e-05
-0.000212394
0.000715111
4.52652e-05
-0.000547982
-0.000315897
0.000890212
6.26121e-05
-0.000636927
0.000640116
3.08458e-05
7.76476e-05
-0.000748609
-6.1097e-05
6.63121e-06
8.28555e-05
-2.83897e-05
6.52249e-05
0.000145948
-0.000183636
0.000383933
0.000367823
0.000492866
0.000111112
0.00053035
0.000112165
0.000570639
0.000128644
0.000607042
-7.84861e-06
-4.91505e-06
4.46412e-06
8.29954e-06
4.66658e-05
6.90047e-06
-1.18349e-05
-0.000236545
0.000272782
-0.000226538
0.000267289
-3.40581e-05
6.29227e-05
3.07995e-05
7.76222e-07
-1.59395e-06
1.81965e-06
-8.20289e-06
8.63816e-06
-2.25492e-06
1.25992e-05
7.05237e-05
-8.703e-05
3.90713e-06
2.04815e-05
0.000638111
-0.000423937
0.000967156
6.26157e-05
-0.00101505
-1.47243e-05
-0.000257647
0.000263209
0.000297925
0.000136452
-0.00026491
-6.95408e-05
0.000197999
2.12092e-05
-6.85022e-06
1.58456e-05
-2.98292e-05
0.000110603
0.000176908
-5.51014e-05
-7.50676e-05
-3.61012e-05
-0.000953412
0.00092578
-0.000398985
-9.18428e-05
-6.51633e-05
3.25858e-05
0.000211795
-1.96385e-05
-0.000224742
-8.0651e-05
0.000715969
1.90738e-05
-0.000654391
-8.16445e-05
0.000627236
2.09538e-05
-0.000566546
3.76745e-05
-4.4463e-05
0.000123542
-0.000116753
-4.7376e-05
3.85927e-05
-2.3222e-05
3.20054e-05
5.21154e-05
-0.000142291
0.000190824
-0.000100648
-1.59348e-05
1.88308e-05
1.46358e-05
-6.10323e-06
-5.98721e-06
-2.54533e-06
-0.000277053
-6.39791e-05
0.000201955
0.000139078
0.000127501
-0.000125142
2.74133e-05
-2.97723e-05
0.00066034
2.0563e-05
-1.60715e-05
-0.000664831
3.6727e-07
8.16611e-05
-6.38099e-05
0.00051284
-2.61737e-05
3.18064e-05
-0.000518472
0.000222607
-0.000131891
-0.000144948
5.42324e-05
-0.000556246
-1.25064e-05
-6.63337e-05
0.000635086
-0.00055535
-9.09527e-05
1.4848e-05
0.000631455
0.000184688
-1.55986e-06
-0.000193133
1.00041e-05
5.16881e-06
-2.56684e-05
8.65857e-06
1.1841e-05
-6.88973e-05
-3.67922e-05
5.86547e-05
4.70348e-05
-6.70916e-05
6.7132e-05
-3.13133e-05
0.000778219
7.88163e-05
-3.82479e-05
5.09389e-05
4.25481e-06
-9.60205e-06
-0.00116201
-0.000122225
0.00112349
0.00016074
0.000461027
0.00032566
-0.000283266
-0.000503421
8.44025e-05
-4.39539e-05
-3.35176e-05
-6.93096e-06
-0.000108737
0.000123936
-0.000179628
0.000164429
5.7959e-05
-5.75917e-05
-0.0001541
8.16062e-05
-0.000601493
0.000673987
0.000134073
-0.000112899
3.05404e-05
-5.1714e-05
-5.93073e-05
5.52785e-05
2.16556e-05
-1.76268e-05
2.23091e-06
-2.907e-05
3.83585e-05
-1.15194e-05
0.000178979
-0.000143578
-6.81516e-06
0.00102827
-0.000893075
0.00020533
-0.000340527
-0.000307367
-0.000224933
0.000268157
0.000134442
0.000125609
-0.000117969
-0.000142082
2.11142e-05
8.95732e-06
-2.49027e-05
-0.00021301
0.000187295
-4.31818e-05
0.000164865
-2.37121e-05
4.35357e-05
6.95827e-05
-6.75984e-05
-2.83341e-05
2.63498e-05
1.75727e-05
-6.26635e-05
5.78397e-05
-1.27489e-05
2.39511e-06
-6.60058e-06
0.000228292
-0.00042178
0.000495494
0.00112872
-1.73078e-05
3.00316e-05
-5.13865e-06
1.4373e-05
-0.000180879
0.000171645
-6.03897e-05
0.000205011
-8.20514e-05
0.000141144
-0.000120993
-1.38101e-05
1.92345e-05
-2.2808e-05
-0.000841728
0.000362953
-4.48289e-05
-0.000956739
-0.00056777
0.000187647
7.53201e-05
-7.99343e-06
-8.6159e-05
-2.78886e-06
4.18275e-05
-2.8791e-05
-2.67304e-05
-2.66015e-05
3.10156e-05
7.86027e-06
-2.06656e-05
2.54867e-05
-7.21058e-06
1.57602e-05
0.000129737
-0.000138287
-0.000809605
-9.15615e-05
0.000223867
0.000384274
-0.00036168
-0.000169104
0.00014651
-0.000128567
-0.000917126
5.65085e-05
0.000989184
-6.67143e-05
-0.00100283
0.00103099
3.85533e-05
6.59034e-05
-8.07489e-05
-5.08222e-05
-0.000277166
-0.000317507
0.000337026
2.89493e-05
-1.6952e-05
-3.00351e-05
1.80378e-05
-0.000153147
-4.88999e-05
0.000165315
3.67317e-05
-0.000803907
-0.000284424
-0.000176155
-4.35342e-05
-2.08898e-05
0.000240579
7.01714e-05
-1.6296e-05
-6.90606e-05
1.51852e-05
0.000235751
-7.66133e-05
2.52627e-05
-3.33812e-05
-2.76656e-05
4.15902e-05
9.75012e-06
-4.26491e-05
0.000100525
-9.12557e-05
-2.12446e-05
1.19751e-05
9.68254e-06
-9.40952e-06
1.68371e-05
-1.71101e-05
3.99682e-05
0.000653082
-2.74986e-05
-0.000665552
9.15201e-05
0.00067717
-5.42784e-05
-0.000714412
3.2102e-05
5.63612e-05
1.20619e-05
3.04308e-05
-0.00108599
0.00108613
-3.05702e-05
0.000255498
-0.0014473
3.19255e-05
0.00115988
-0.000162552
-9.56441e-05
7.52298e-05
0.000182966
4.71514e-05
3.58925e-05
-4.5385e-05
-3.76589e-05
0.000328349
-0.000309952
0.000206073
0.00074158
-0.00060293
-0.000750906
3.01051e-06
1.72352e-05
6.39903e-06
-2.66447e-05
6.22104e-05
-4.95407e-05
-6.0711e-05
4.80413e-05
-6.72631e-05
2.45882e-05
0.000138867
-9.61921e-05
-0.000734442
0.000233912
0.000478196
2.23349e-05
1.48742e-05
4.54224e-06
-1.09356e-05
-8.48079e-06
-0.000175897
-4.00133e-06
-1.79714e-05
0.00019787
0.000209053
2.18697e-05
8.18537e-06
-0.000239108
-5.8001e-06
7.48599e-05
-6.90598e-05
0.000304393
-0.0012109
-9.5241e-06
1.11387e-05
-1.00756e-06
-6.07007e-07
-1.20692e-06
-4.43807e-05
-9.76681e-06
5.89086e-05
-8.86141e-05
-5.02359e-05
7.99414e-05
0.0010397
-0.00146375
0.000183903
0.000240142
0.000469384
8.76464e-06
1.26922e-05
-0.00049084
-6.03117e-06
-3.18267e-06
6.01528e-05
8.78616e-05
8.69956e-05
-0.000949801
0.000774944
2.19022e-05
4.77325e-05
-7.38474e-05
4.21273e-06
-3.73903e-06
0.000170737
-0.000218275
5.12766e-05
4.20881e-06
-6.72181e-06
7.85875e-06
-5.34576e-06
0.000995473
-0.000670553
8.19884e-06
-0.000165207
0.000161608
1.83598e-05
7.62375e-05
-7.14985e-05
0.000844321
-0.000578424
4.98139e-05
-0.000315711
0.000103666
0.000391848
-5.63933e-05
5.37315e-05
-4.96532e-05
-2.67316e-05
0.000205741
1.2985e-05
-0.000191994
0.000577049
-0.000128359
-0.000427601
-2.10894e-05
2.06534e-06
-2.63704e-06
-6.99741e-06
7.5691e-06
-6.65394e-06
-0.000200975
0.00013474
0.000171409
6.44415e-05
-0.000104261
-9.23207e-05
0.00013214
8.10851e-06
6.0324e-05
1.58124e-06
-1.64814e-06
0.00020912
1.26793e-05
-1.16905e-05
-0.000176886
-1.08981e-05
4.87267e-06
2.08996e-05
0.000212821
-0.000232074
7.93951e-05
-6.01414e-05
0.00114864
-0.00112325
-0.00030316
-1.08532e-05
-0.000621981
0.000190205
0.000537885
3.97865e-05
-4.31947e-05
-6.26711e-06
0.000559912
-6.7641e-05
0.000503202
-0.000156579
-6.10908e-05
0.000122615
-9.72211e-06
4.27725e-05
6.62737e-05
-9.93241e-05
3.32529e-05
-8.32609e-06
-4.29335e-05
1.80067e-05
-8.90472e-05
6.23156e-05
2.16499e-05
-7.1476e-05
6.62033e-05
-1.63772e-05
0.000723519
0.000100063
-4.53634e-05
0.000173631
0.000166329
-0.000271206
0.000235413
-0.000462184
0.000466239
-0.000359304
0.00024473
-0.00113751
0.00113965
9.61119e-05
-9.82463e-05
0.000218404
0.000570972
-0.00030449
-0.000406711
-3.41181e-05
-0.000198816
-0.000222868
-0.000294829
0.00049913
-0.000747184
-0.000156125
0.000404179
-0.000817437
0.000366744
-0.000111819
0.000562513
-3.80273e-05
0.000116094
-0.000348553
0.000270486
-2.22057e-05
-5.53695e-05
-0.001064
0.00114158
8.46104e-05
-0.000379144
0.000768617
0.00017985
-0.000819973
-0.000128495
-5.84997e-06
7.1413e-06
2.95082e-05
0.000730236
-0.000676321
7.47291e-05
0.000650371
-0.000705084
0.000166878
0.000550461
-0.000511939
7.25901e-05
-4.80464e-06
7.15451e-05
3.43097e-06
0.000121474
3.9641e-05
-9.66737e-05
4.70648e-05
-7.41859e-05
6.45185e-05
-3.73975e-05
0.000641194
-0.000541606
-6.45036e-05
-3.50848e-05
0.000682321
-0.00058002
-1.86605e-05
-8.36404e-05
0.000102256
0.00154353
-0.00121116
-0.000434618
6.49886e-06
-2.11892e-06
-1.4732e-05
1.0352e-05
-0.000992844
-0.000637346
0.00105482
0.000575373
-1.35732e-05
1.96004e-05
1.82596e-06
-7.85316e-06
2.01562e-05
-3.14765e-05
-3.10772e-05
4.23975e-05
2.40044e-05
-5.27139e-05
-5.38155e-05
8.2525e-05
0.000117938
-4.4441e-05
0.000650023
0.000589999
-0.000830969
0.000340774
0.000595194
-0.000821837
0.000350075
1.70185e-05
8.63866e-05
-6.76915e-06
1.32195e-05
3.74063e-05
-4.38566e-05
0.000614497
-6.98346e-05
0.000144002
-2.17536e-06
1.94119e-05
-8.40938e-06
-0.000121374
-0.000160312
5.31511e-05
0.000228535
0.000170204
0.000796968
-0.000641512
-0.000296822
-0.000348005
0.000364863
0.000676257
-0.000637157
-0.000167815
0.000128716
-3.94401e-05
3.2298e-06
3.49297e-05
0.000114382
-1.60021e-05
6.03319e-05
0.000116801
-3.2623e-05
4.38342e-05
-3.74006e-05
9.40624e-05
0.000530744
-0.000640248
0.000109504
-0.000402942
0.000288429
-0.00127159
0.00138611
-0.000195412
0.000158052
0.000296239
-0.000258878
6.74959e-05
3.13751e-05
-5.19821e-05
-4.68889e-05
-0.000440465
-3.06954e-05
0.000603636
-0.000132476
0.000221925
-0.000186523
-0.000388643
-7.21803e-06
-1.71446e-06
2.7166e-07
8.96975e-05
-7.48984e-05
5.26968e-05
-7.16252e-05
8.03473e-05
5.34883e-05
-5.09859e-05
1.68192e-05
7.57272e-05
-4.15604e-05
0.000194849
-0.000207354
0.000125048
-0.000112544
4.64777e-05
2.38169e-05
9.08452e-05
-5.59763e-05
6.61769e-07
5.60907e-05
-1.67589e-05
4.2459e-05
-6.52254e-05
3.95253e-05
9.71906e-06
5.79302e-06
-8.38635e-06
-7.12574e-06
3.57121e-05
-4.337e-06
-0.000121368
4.53779e-05
-8.65617e-05
4.62106e-05
-3.81906e-05
3.91314e-05
-1.09608e-05
6.79538e-05
1.25898e-05
-0.000660845
-0.000386506
0.000797433
0.000249918
0.00082237
-0.00104079
0.000356387
-0.000137962
8.76561e-06
2.46575e-05
-2.92401e-05
-4.18293e-06
-1.24091e-05
0.000288803
-0.000338795
6.24016e-05
-7.99687e-05
5.61253e-05
1.64804e-05
7.36291e-06
-0.00132936
0.00116757
-0.000247926
0.000409716
0.00038054
-0.000325147
-0.000130478
7.50849e-05
1.16169e-05
0.00069724
-0.000694815
-1.40415e-05
-0.000346104
1.98381e-05
0.000135949
-0.000555322
0.000534511
-0.000115139
0.000167157
-0.000644864
0.000645644
-0.000167937
-0.000102858
-0.000753959
0.000856817
-9.25476e-06
3.29609e-06
-1.29904e-05
1.8949e-05
4.49086e-07
-1.96939e-06
-1.40715e-06
2.92745e-06
0.000163011
-0.000111624
0.000125582
-0.000176968
-9.15261e-05
-0.000202832
0.000227095
-6.99254e-06
4.68693e-06
-7.21849e-06
-0.0001397
-7.28159e-06
9.67048e-05
5.02766e-05
-0.000125554
-6.13986e-07
9.58018e-05
3.03659e-05
-2.62005e-05
3.30028e-07
0.000356135
-0.000330264
0.00105623
-0.00107712
-6.4058e-05
8.49472e-05
-0.000193133
1.61361e-05
0.000131216
6.06902e-06
-0.000137285
-2.12064e-05
0.00021831
-4.81322e-06
-0.000192291
1.00716e-05
-5.45626e-05
-7.47052e-06
5.19614e-05
-1.53554e-05
2.0756e-05
-7.2999e-05
5.17767e-05
-5.85556e-05
0.000171644
-8.66247e-06
4.89806e-05
-0.000253328
-8.22188e-06
-3.16921e-06
3.25052e-05
0.000649431
4.93501e-05
-6.84253e-05
0.000599877
3.18163e-05
-4.49127e-05
-0.000547327
2.40122e-05
-3.23075e-05
-0.000544666
-4.0524e-05
-3.17171e-05
-0.000362703
-0.000189741
0.000214768
-0.000978818
-0.000170592
0.000280551
8.16626e-05
-2.97863e-06
-3.07363e-06
-0.000100972
-0.00113201
0.00115284
-5.54709e-05
4.57254e-05
-0.000180505
-9.45617e-05
-1.70058e-05
-8.42565e-05
0.000675518
-0.000194911
-0.000562251
0.000686748
-0.000180748
-0.000586651
-2.90532e-05
3.91135e-06
0.000186046
-0.000160904
-7.37267e-06
0.000677388
6.24187e-06
-0.000108729
0.000140489
-6.19164e-07
-3.11404e-05
3.7276e-05
-4.8031e-05
4.19828e-05
-3.12278e-05
3.5832e-05
-2.71124e-05
8.55535e-06
-1.56036e-06
-5.72238e-06
5.39486e-05
-1.57307e-05
-6.16254e-05
1.08539e-05
6.65022e-05
0.000254871
-1.76208e-05
3.16643e-05
-0.000268914
-0.00032816
-7.78925e-05
5.99485e-05
-0.000399679
0.00027953
0.000348677
5.28158e-06
-1.38453e-05
1.6424e-05
3.17028e-05
1.54247e-05
-3.21934e-06
3.60693e-05
-7.76807e-05
7.79278e-05
-3.63164e-05
-0.000362147
4.25174e-05
0.000335159
-1.55291e-05
0.00030381
0.000361858
-0.00058599
-7.96786e-05
0.00022609
-0.000595962
-0.000290973
0.000462469
0.000333477
-0.000647227
-0.000148719
-6.68257e-05
5.63894e-05
1.81203e-06
8.62423e-06
0.000113735
0.000163189
-0.00101137
3.57419e-05
-1.52302e-05
-2.77298e-05
-1.72738e-05
-2.0807e-05
2.98589e-05
-0.000124492
8.64038e-05
8.98647e-05
0.000898917
-2.32348e-05
-0.000766089
-0.000109593
-7.25648e-06
2.43219e-06
-9.32676e-05
-0.000192757
-4.15684e-06
7.90168e-05
-0.00010374
0.00110966
0.000155325
-6.99736e-05
0.000195697
8.7097e-05
-0.000403262
0.00032552
0.000520885
-0.000443143
0.000277698
-0.000258241
0.000450065
-0.000469522
1.00534e-05
6.68723e-05
-9.08625e-06
-6.78394e-05
1.56723e-05
-1.38893e-05
-1.22637e-05
1.04807e-05
-0.000252311
4.57619e-05
4.70555e-05
0.000159494
-0.00110635
0.00110135
9.19988e-05
-0.000718693
0.000467153
-0.000650802
0.000557026
-0.000386493
-0.00017835
0.000165164
0.000110323
-3.73468e-05
0.000859868
-0.00102763
-0.000262771
0.000430537
-0.000226558
-0.000988079
0.00118945
2.519e-05
-0.00104597
0.00107511
-0.000130112
-0.000493942
0.000438327
0.000359209
-0.000303594
-0.0002682
0.000276573
1.58185e-05
-2.4191e-05
-0.00012937
-4.10576e-05
2.65405e-05
-0.000643321
0.000747615
-0.000490799
0.000153084
-1.18597e-05
-2.57793e-05
1.55565e-05
1.70703e-05
-6.84748e-06
-0.000175751
0.000166953
-2.15911e-05
8.10145e-06
9.51523e-05
-0.000916996