/*--------------------------------*- C++ -*----------------------------------*\
| =========                 |                                                 |
| \\      /  F ield         | OpenFOAM: The Open Source CFD Toolbox           |
|  \\    /   O peration     | Version:  v1912                                 |
|   \\  /    A nd           | Website:  www.openfoam.com                      |
|    \\/     M anipulation  |                                                 |
\*---------------------------------------------------------------------------*/
FoamFile
{
    version     2.0;
    format      ascii;
    class       volScalarField;
    location    "0.46";
    object      epsilon;
}
// * * * * * * * * * * * * * * * * * * * * * * * * * * * * * * * * * * * * * //

dimensions      [0 2 -3 0 0 0 0];


internalField   nonuniform List<scalar> 
5794
(
1.24302
0.729167
2.36197
138.172
50.6274
1.00732
21.2235
3.5475
94.0854
7.2431
35.2069
2.76799
14.6958
39.7905
1.33694
0.492692
317.574
54.9846
2.37266
1.33729
73.0522
0.811337
33.7116
2.0869
16.378
69.3044
228.584
20.3369
89.5032
0.665186
7.15881
2.7773
21.6962
5.03066
12.438
21.0048
4.41752
19.6954
55.2995
60.7357
24.4153
1.37175
9.18337
2.48465
3.91842
45.1921
5.0551
9.33749
6.62638
11.3723
0.206929
59.4267
4.44678
6.14843
0.292794
41.8216
3.23254
12.4655
5.82381
138.376
60.1226
0.666957
6.52263
3.38533
25.7103
0.611419
50.5605
26.9231
69.2686
1.21627
79.4633
61.5868
208.969
3.75008
64.1235
11.9044
10.7139
48.0511
1.10166
2.16193
1.37067
1.52262
9.83312
34.7497
5.31258
83.6471
41.5072
95.9768
1.55313
40.7002
108.034
33.8435
66.9178
105.47
43.464
64.7436
80.3948
56.5997
31.0741
66.9685
53.7936
1.84409
7.26369
36.3722
13.7659
72.2266
0.626724
9.90237
43.5178
0.783398
8.6245
4.06955
60.9576
1.03023
36.8058
82.1369
1.15326
83.666
54.1042
21.802
87.0755
2.60872
7.93987
16.1407
3.97149
49.4529
76.1461
0.817742
68.7502
11.0351
3.85999
17.9856
15.8924
40.9547
90.1664
1.17761
121.732
0.637201
0.515337
7.07079
3.86616
29.0838
4.42134
31.3175
0.853936
238.439
75.6397
51.2241
50.054
19.8733
11.9767
2.71483
77.9654
3.24423
253.969
22.6579
45.1342
30.4518
76.2131
5.88258
2.723
8.90647
11.4099
22.394
60.4394
74.502
27.3445
8.15781
10.0428
5.08282
1.24081
30.8032
17.3032
13.8936
5.76442
31.3159
1.75786
9.66867
4.4712
79.9804
3.62272
4.67086
4.69203
49.7215
8.65688
231.499
2.41801
16.5213
9.13746
1.7085
44.5658
3.38545
28.276
5.45602
24.8364
3.24881
3.40876
9.84758
6.62976
6.68066
28.0832
64.3417
6.17028
15.3177
7.19248
53.6072
9.92026
20.3329
181.544
45.836
0.834609
10.1456
26.6607
5.63229
4.16787
13.9002
21.1027
24.9883
29.0353
72.8086
9.73131
40.7585
150.384
64.375
148.549
107.373
3.26524
7.58659
21.1854
1.28747
10.8969
23.8482
2.90282
32.869
37.3201
150.596
200.401
32.8017
15.627
1.32927
0.92539
57.4427
39.2521
55.8893
7.07451
7.84847
6.92152
57.8103
143.891
95.4982
47.1767
0.651256
254.223
0.563736
4.92878
127.618
6.82315
18.8442
16.7
2.74241
79.1525
25.7565
4.90622
1.36581
7.66947
20.7272
27.9829
69.57
2.63956
55.0082
11.9382
10.6928
16.9166
73.9335
16.2873
1.32448
5.9506
3.19591
2.18873
15.6849
8.8742
79.3134
27.6312
1.40158
55.1354
96.4956
51.8083
63.1439
136.264
90.7606
13.6994
16.8227
2.74294
4.01533
4.77764
90.7012
30.5017
2.06434
50.8555
0.878936
1.75051
56.034
1.06443
50.0218
0.916285
72.8261
2.02308
69.701
61.3101
16.6156
19.6309
40.6579
48.7469
1.00057
9.85399
35.2363
12.9564
25.2152
45.9767
117.231
4.58954
18.4163
84.8104
59.5557
0.350535
25.3944
3.46148
2.33581
18.1049
32.9834
72.3931
8.47487
6.11145
22.6093
3.0931
9.25491
10.698
12.1452
9.30796
11.0426
3.54229
17.7462
78.0119
41.2759
1.94763
4.26128
77.8659
6.13363
85.2679
34.2649
78.9842
167.063
37.0119
4.01932
5.23836
186.282
13.6119
77.9021
23.915
3.0566
15.9981
17.4571
96.3221
22.2113
3.72068
35.2328
65.7665
54.2956
4.40066
13.2029
5.51969
0.998791
27.4164
0.903087
22.0198
49.9753
40.1025
6.79741
23.4808
1.24658
2.76439
4.95104
12.5525
21.0076
10.6396
6.57898
98.7695
29.7358
3.72254
31.948
8.02798
71.9799
1.0059
6.96235
9.99192
9.53096
4.57297
10.8418
1.73355
27.8979
3.53481
12.4196
116.589
9.7837
4.91464
42.3681
10.8191
1.1975
0.848465
77.0933
55.7897
28.6869
30.9242
28.2675
71.0234
13.5207
6.85135
86.0566
54.3387
79.2531
31.2848
55.8909
14.9771
5.67107
24.3242
8.84555
9.06091
1.06137
0.828072
1.18222
59.84
5.78496
28.9625
94.9934
8.08433
1.17068
5.22093
33.7653
20.3062
8.18132
8.42898
8.13691
13.0804
3.72152
3.3477
89.8116
39.3663
0.282937
17.2195
68.1788
10.1083
1.0054
111.054
0.830698
73.3711
1.39487
73.2172
69.6532
53.4563
153.993
0.892724
0.932203
15.3554
6.95703
75.0713
10.9343
104.483
58.9896
16.8209
0.767243
0.401232
199.783
48.8002
13.731
4.11476
88.4417
144.861
22.8361
1.68172
0.954081
25.8006
0.810738
4.37739
14.5954
14.9548
32.2364
10.0217
3.64138
133.742
1.00687
1.04273
107.424
93.7533
69.3682
9.52514
7.02814
0.903618
4.24731
0.611185
37.5688
101.373
166.316
8.77108
15.7814
30.1834
0.944528
1.13187
31.9499
37.6548
0.640077
62.8871
1.81339
2.84989
0.90641
0.868675
33.4878
73.4986
0.466468
5.51117
116.079
1.41471
0.647126
59.8495
85.2893
11.3115
0.996166
0.858313
44.207
1.10846
0.841806
20.4494
1.57583
106.112
1.98422
24.4739
3.58611
6.63164
159.4
10.2666
65.3127
1.01044
115.19
1.07523
55.7998
3.71718
0.333172
5.43477
31.4847
1.26786
0.816307
35.7274
1.73539
1.5854
0.846157
1.01246
4.00449
17.2985
0.85863
1.13028
29.7297
350.912
0.667392
56.1827
3.73126
51.4071
3.61515
0.488496
13.0816
0.689591
0.625347
85.0778
26.6508
120.264
109.868
126.994
8.79598
70.3801
55.2051
1.88057
31.2768
83.1374
36.1776
102.615
139.517
83.5438
56.6696
1.04901
66.4652
28.0967
86.9896
0.631119
0.814057
0.613952
92.6504
40.6417
37.1513
0.748529
9.34641
0.526868
4.94527
1.35511
97.8389
40.7757
99.7687
1.42638
7.91811
109.43
10.2188
0.332336
3.16353
61.8631
107.322
32.8553
8.47716
3.28084
5.77104
34.021
29.7396
7.37464
117.424
0.696563
41.2972
59.6764
13.8783
0.6488
1.04325
0.695936
34.4188
75.1443
1.08298
1.31379
0.882155
0.403877
1.15267
0.588432
6.57495
51.263
26.5141
27.5183
23.2483
4.09074
8.72784
27.8568
30.661
124.716
123.242
57.7693
48.3713
1.09782
0.550385
0.598493
0.811309
1.75763
3.84756
3.93727
75.1177
134.18
67.1965
132.001
0.639695
1.2749
3.3575
0.759149
45.1608
0.995674
60.5795
138.16
99.3213
53.6439
46.6525
34.7085
5.17313
116.095
19.4796
33.1233
44.3233
109.313
3.48417
32.037
1.13793
0.440929
26.293
5.71452
0.403707
28.7718
136.723
122.544
3.20467
2.40108
0.497304
23.6718
163.924
44.4947
51.7544
2.97359
40.6818
18.4473
1.58218
0.625575
9.86131
9.13562
15.2472
1.5154
19.2516
29.1081
149.32
59.6509
10.4951
1.47425
112.837
21.4292
174.505
57.2251
77.8037
39.4497
16.2723
8.79587
178.066
45.6355
31.933
43.3829
72.0703
158.108
1.49593
116.618
2.1168
15.3274
28.3816
93.179
38.688
49.1416
33.3081
122.49
26.9092
3.5814
5.84156
298.917
10.9787
32.5576
62.6538
94.4057
0.952959
0.657667
22.8233
1.1269
90.8338
49.4993
123.139
6.33399
9.01272
0.545618
0.814492
5.77288
1.2809
37.8579
91.7198
5.04187
110.089
44.4832
8.84265
3.91903
176.869
80.8987
57.2943
137.486
99.4314
51.9882
52.9002
1.71374
61.7111
27.4242
83.0358
27.304
1.56684
19.6895
0.866525
0.935311
0.943651
37.1017
0.873515
23.4474
151.46
9.82428
1.05649
0.914565
85.0588
41.0285
22.4357
88.581
38.7841
0.341586
78.968
58.5816
16.1278
4.55228
46.5672
0.90689
166.718
0.93535
55.095
9.48175
13.9087
2.83221
0.75579
0.508234
3.64284
22.5145
44.2683
80.0879
178.023
55.1311
3.57253
0.768998
35.0074
136.007
6.89023
14.3174
14.0874
71.5828
0.995113
1.00649
14.973
50.6578
116.134
1.17431
17.5063
3.59228
12.1282
2.40361
29.1386
70.5087
80.4925
9.36093
2.40691
69.9103
10.5458
0.624943
218.948
2.69378
1.8887
7.73734
0.713186
19.5649
0.875852
25.4539
1.23159
4.09809
6.19044
10.7546
144.319
43.9241
106.772
46.9429
49.2199
68.2788
37.8822
113.282
38.9735
0.764702
0.6749
5.02049
29.6296
0.752463
21.4543
186.748
63.9906
56.27
15.7704
4.48718
44.036
0.627039
14.1827
51.4158
1.01556
151.323
3.46747
3.33982
39.2302
17.4397
6.27523
2.79634
78.2725
10.8507
6.80769
0.581565
2.53676
52.2779
69.5548
0.765109
10.1155
33.0419
5.58869
51.9361
125.665
85.4952
78.9318
43.874
1.15282
0.943266
22.3679
0.626319
1.56148
0.660394
1.15882
24.0411
0.64108
7.38431
0.702701
62.5378
49.813
4.63644
7.96357
7.76553
15.447
134.492
33.8844
73.5282
6.31862
0.691522
126.484
11.4941
33.1973
7.20874
112.15
74.789
74.2135
0.656651
114.452
89.8099
1.17936
1.76298
7.5564
1.53909
1.3158
73.7972
31.8308
55.9597
77.653
31.5519
55.4921
22.9194
12.8318
0.891793
1.19504
35.433
0.611793
157.561
22.2122
164.493
6.97325
73.9902
76.8737
0.924473
0.864504
136.385
124.285
10.0492
12.029
22.9925
61.4739
2.57449
44.399
0.63972
5.37002
3.40548
0.55369
0.569107
1.23766
0.395538
0.622694
0.727124
0.950812
7.98831
50.9337
5.37838
2.73846
0.668188
78.497
9.72188
28.0277
2.66595
42.0449
0.594441
38.4264
4.72228
4.75282
1.37711
13.4862
42.3345
0.943402
10.0071
1.52278
0.762457
9.23741
75.3579
21.6045
101.059
146.347
1.1204
11.0765
29.0083
23.95
27.6541
28.4271
49.4213
96.5672
1.05022
0.751095
0.71188
0.186445
19.2371
11.2422
148.465
147.26
125.067
0.298783
26.2745
133.295
85.0724
56.2298
51.4834
0.650667
0.793666
0.958296
33.3477
11.0671
31.1306
4.53496
0.268406
4.40635
4.83397
10.1267
15.6936
0.918339
1.10586
36.8391
15.9949
11.4672
0.739321
8.21596
52.9318
1.01396
8.93154
3.21912
3.92094
14.0818
0.994144
26.8699
0.577371
10.3997
17.9897
1.1403
51.7146
10.6039
0.754025
0.911623
38.8801
0.790817
70.5091
5.39999
1.50845
0.699859
5.46912
0.645865
0.63402
10.3816
0.906771
0.636776
5.44896
9.97943
18.2435
55.6305
28.2535
9.16195
98.352
43.2883
0.787226
0.70226
49.9241
1.09022
20.1001
81.6865
0.965413
18.6649
1.54624
84.7842
2.71231
54.1889
3.34583
59.199
46.5325
0.908931
35.8398
4.06437
0.179946
4.47005
22.8542
30.3002
33.4853
1.39623
37.768
0.492056
1.08804
6.7142
0.863664
1.2922
27.0323
0.992344
19.31
2.08468
82.2017
2.29631
1.22082
0.595706
4.50508
48.9414
18.4908
1.02376
28.2547
7.37611
15.4524
90.5018
33.8701
0.569575
0.538417
28.0145
5.57138
41.9614
6.77615
59.484
74.2129
62.5304
23.7988
66.0912
8.92862
8.80082
4.75239
1.70446
6.08408
1.06024
542.157
40.086
1.2755
1.04677
53.8858
50.126
8.49993
0.457421
0.928086
24.5296
5.44779
0.875528
45.067
3.41669
26.1572
1.94098
69.8238
1.03457
0.446605
3.83053
3.84399
0.912515
31.1942
0.958706
49.3417
0.79213
76.3709
4.75057
14.4865
4.35391
23.7934
9.26236
17.8434
11.3993
4.55573
0.990114
4.10303
21.8279
10.761
5.44789
0.903302
1.36309
19.0782
35.8524
22.4062
5.81065
23.6555
7.29941
3.82647
7.41151
7.50972
19.5165
3.38858
11.1424
28.189
0.516126
59.0843
0.57
221.441
1.33742
1.34977
8.47986
0.692257
0.575059
43.8087
2.88827
6.5081
0.571822
0.877519
36.8824
215.507
117.833
3.09433
0.752416
2.31379
11.4687
55.5189
19.3395
3.04108
8.63003
0.704175
56.6708
4.27674
3.48393
33.2977
7.16365
8.11276
34.4252
17.4513
1.23852
15.9628
89.1156
31.8615
6.00939
28.1327
22.0937
0.58543
58.003
174.488
37.711
99.5325
1.35329
0.457211
36.0436
9.99954
12.3083
0.225484
13.117
56.2968
0.653041
1.40816
0.828522
0.707875
1.3014
6.53836
2.69769
16.1673
0.928931
2.66255
25.2801
123.128
42.9372
3.45813
30.2662
4.41929
78.1833
0.65333
51.6183
105.18
37.2779
66.7417
2.50292
40.1385
33.6356
126.634
2.95622
5.16334
2.25827
47.4674
0.755001
1.73386
28.2357
4.8347
3.21294
13.5623
2.97408
2.90175
20.6378
0.810739
0.499331
7.40959
2.78373
1.1177
1.95163
81.5627
9.36385
48.4612
41.9433
48.5863
0.62276
104.262
0.649819
31.139
11.812
16.0334
4.83839
0.825426
24.9736
0.503834
6.38243
0.416786
43.5239
1.05916
4.71345
26.797
133.454
4.44249
100.281
105.673
5.21848
8.86961
0.874859
13.6864
1.0851
23.3643
79.0603
3.54713
0.339693
4.59655
28.2325
36.5811
164.221
91.8949
105.975
99.5922
30.1796
0.365185
1.28089
16.8492
6.7347
89.3654
1.81188
0.450489
1.06432
15.9948
0.45496
3.23513
4.74266
2.02235
6.60914
3.16462
2.93976
0.837403
7.61166
2.96302
31.9929
14.0935
0.772383
79.8109
31.767
60.0432
18.2777
3.86154
45.8686
1.50858
0.919419
0.754744
5.36277
436.911
11.3954
50.5203
26.5874
72.2735
68.2799
17.2793
9.05328
0.233069
0.726302
2.27076
0.383661
6.00586
9.35702
0.788457
10.0319
0.176796
0.780522
5.71617
2.87731
1.23897
0.914978
0.253708
5.45794
9.13777
1.02068
2.20976
5.57565
0.926437
0.957722
0.260045
0.323423
9.02544
3.32064
2.37994
0.543125
1.2076
3.93217
5.4636
0.731523
0.326265
0.495369
0.231438
0.477028
8.1935
0.672453
0.0976747
2.14504
0.650419
4.62706
6.74328
3.5825
16.3344
169.932
0.954238
0.67031
34.1063
88.7107
35.406
3.02429
0.933049
15.5914
3.69601
20.9475
72.5195
281.48
49.3563
98.5931
32.049
1.09344
0.994544
0.413563
1.20718
0.930727
16.2154
0.908758
2.55178
4.81804
1.07924
18.116
22.7512
2.22552
5.37994
26.8442
342.66
4.94923
25.5699
4.77333
13.7496
27.3026
3.89756
66.4318
41.2047
30.0006
31.3036
7.17422
31.3224
6.37926
11.5047
13.9062
579.555
2.93448
5.15002
1.02687
45.1033
35.2798
2.02363
65.7315
56.117
0.691895
0.462927
9.00911
7.33467
1.00316
9.54097
0.185723
0.637243
1.8059
0.206763
4.82174
5.05601
0.480985
7.91528
2.15785
2.07309
5.76253
0.959196
1.19813
1.09621
0.281919
9.82229
0.640705
38.3599
63.0961
8.24573
22.285
3.08243
13.9164
33.6214
0.991109
60.525
35.0133
22.2906
39.5615
35.6395
2.64189
1.19041
35.1779
38.6311
7.27268
152.22
88.7035
27.4332
0.30115
35.1511
29.6741
4.68306
37.1835
12.6251
59.5443
0.886256
5.01561
0.402981
65.0509
2.72601
37.9471
42.8627
0.758852
111.32
1.27092
79.2352
1.11363
0.407207
0.496229
67.7978
0.736326
0.729922
0.6391
2.53203
105.647
10.7429
100.832
19.4539
2.67793
10.4686
113.126
1.25871
9.15042
7.81451
66.3864
38.8577
8.86278
0.542438
8.59866
4.86046
35.7749
10.259
2.64848
0.245112
3.25574
7.71911
0.665502
42.7108
36.1858
0.148301
1.61933
86.3954
92.539
11.9921
30.7631
66.2715
0.154379
35.009
50.2231
34.0505
34.6599
10.6827
2.05241
47.7432
0.744145
3.58308
4.98335
53.2032
7.74496
9.11677
17.9948
37.4317
45.6513
1.44809
0.434896
1.50568
16.667
35.4902
34.5016
180.683
63.3878
41.4652
17.2631
12.3139
26.6609
25.7511
65.3756
24.9484
39.8447
37.2881
34.5743
33.0537
108.893
99.8681
4.61719
62.3854
29.4535
20.2225
18.7276
4.7103
74.6936
41.4429
5.46471
51.4379
5.75949
102.539
4.18575
23.8774
162.787
3.21697
37.2769
8.75481
0.475577
0.939619
3.96284
54.9909
1.17872
0.483358
3.36547
34.4414
41.5316
76.5256
51.6271
45.2751
77.8526
47.2623
1.58685
45.9423
40.5478
75.2473
41.6063
36.3101
46.8068
42.0018
34.7389
39.4701
24.2595
23.4769
3.44671
118.495
19.9402
3.39398
2.95934
13.526
1.6412
3.73405
14.4318
26.8203
1.75116
1.15329
1.45731
48.452
27.883
34.1754
17.2384
4.1935
6.84843
1.49227
3.81362
8.35143
5.12684
100.711
3.66146
3.57577
0.79475
4.20135
0.672619
24.7477
0.84954
41.3149
0.867989
0.741451
5.08077
4.08416
1.94403
3.87694
1.86119
1.0868
66.5874
1.02819
23.1506
5.44696
10.5519
44.935
99.478
0.961463
80.8231
27.5484
6.11333
121.727
6.64827
1.20812
109.524
24.7804
94.2762
0.824853
15.9777
114.575
107.824
68.4695
1.20942
1.13066
1.22027
6.57089
11.5157
204.872
1.19864
20.4103
5.51136
0.782175
5.69617
6.74538
8.80877
46.2235
32.1312
31.4242
196.088
79.8404
1.36939
81.8023
0.691849
7.13935
31.9065
7.18662
121.994
13.3638
192.837
33.5334
7.37258
6.52685
55.9448
188.983
3.80579
94.5754
42.8819
2.34492
29.0873
10.0463
4.75394
5.9367
52.6556
5.24571
52.6313
119.204
110.252
5.82153
17.3044
4.60475
90.572
6.43227
5.31906
7.12735
209.542
1.06713
3.87545
0.500106
31.876
23.9639
2.63791
5.03186
7.57286
5.25442
1.45821
2.98972
7.34554
4.83376
1.89232
3.09562
1.55323
3.92301
18.5841
13.7575
6.49933
90.5911
5.63327
5.21756
1.10631
1.02738
5.86362
12.641
3.485
9.00794
0.774156
4.44529
4.20863
47.1358
2.63008
4.59594
2.76895
10.2561
1.10979
0.829196
5.28614
1.14978
1.20764
1.21521
16.8765
6.66823
2.66466
125.062
0.642761
2.88892
1.30805
1.79144
7.0805
5.7327
10.5028
1.12634
1.30938
1.63152
1.48248
1.28906
9.29109
7.21789
0.803087
3.62761
0.655565
0.875616
1.4043
1.20159
5.02746
3.95407
4.41941
8.38565
0.702864
2.43298
0.658774
4.59384
6.38481
2.7221
0.471105
3.91658
1.22051
3.41627
3.91815
4.42226
51.9114
4.72823
4.66564
2.53031
1.0974
0.675294
27.8607
49.2767
35.8732
3.51779
1.75383
9.34153
16.1957
3.34725
20.4622
0.883817
6.97468
1.9798
139.661
26.0978
1.5438
20.3293
19.9829
6.29251
3.97928
1.30014
0.444683
33.7658
30.4784
3.65215
19.7729
6.24863
3.54824
1.29745
0.421309
59.071
3.69853
3.56733
34.3651
77.8222
25.2266
4.12112
5.89201
145.796
11.1723
1.83019
15.4206
20.8648
10.0903
4.98851
59.0397
7.10348
17.452
36.3835
6.08118
4.01756
1.16808
0.446398
40.52
7.28782
10.6513
30.2594
78.2135
0.456215
139.233
115.456
3.57314
6.14303
19.3975
3.2557
10.927
22.5739
7.11596
5.0238
21.5305
18.7103
6.26875
70.2563
9.37398
51.6882
2.59775
44.8591
29.8983
3.91744
15.628
3.32695
2.60285
21.3265
8.47385
12.3269
23.1858
1.53527
18.9461
8.46794
6.46202
29.6138
5.96134
3.80223
0.83501
0.522979
15.1033
51.8537
2.75716
29.8079
62.7187
57.9267
85.8653
27.5304
3.99793
7.3988
3.69359
0.461735
122.627
3.64689
47.4585
59.5799
4.78953
10.7178
123.252
1.65044
1.2525
25.0612
23.9488
23.6528
10.2318
45.3623
59.1727
7.71673
58.5282
34.0676
5.62664
1.07562
3.72714
12.3708
8.39565
7.63921
1.60043
2.40465
6.04179
4.32144
0.597353
0.469004
105.768
89.3382
7.48186
2.05881
113.447
87.7249
21.9539
2.03821
64.4203
25.2992
4.21272
7.23244
0.39856
131.785
3.67514
1.71465
3.28628
120.874
70.768
98.0242
4.96994
98.0182
79.6282
36.5218
4.19074
25.056
30.9764
11.3733
0.787167
0.618163
0.784908
0.795659
21.5221
31.6381
4.80342
1.31931
31.2583
31.7762
39.5801
55.0935
37.7991
22.038
0.726941
41.2204
0.78776
1.71787
130.439
64.5178
70.5664
96.7778
58.3361
11.2009
4.2295
2.40521
2.52263
6.49629
0.660235
4.00913
0.48105
0.500208
0.931271
0.744517
0.978163
65.645
83.7119
12.2372
41.7991
2.15141
9.63384
1.38241
3.60057
68.0207
3.09119
56.1683
3.62838
5.90799
6.1407
72.2946
16.35
11.3479
0.769128
62.6217
1.89203
0.747372
3.47482
35.303
72.8114
26.1648
4.22813
29.4629
114.208
3.62972
3.51394
0.897951
0.353102
6.45376
5.01553
39.9458
5.05017
1.6515
0.444846
25.796
3.44036
4.60223
75.7824
2.332
154.639
0.641619
0.605336
2.72997
37.304
163.354
6.42013
1.06921
0.89949
53.8793
55.6185
4.99129
3.17155
5.10903
1.97533
11.1027
4.75567
0.959047
11.1292
6.90187
0.874613
4.59833
1.4213
5.17913
9.98431
1.78277
5.01755
1.4933
3.38615
19.5728
4.62284
1.57531
39.9323
10.3869
4.43006
8.66314
31.1948
0.639343
63.6443
9.2396
14.444
44.6279
2.53
134.215
26.1218
61.4752
1.66297
88.4476
3.29895
27.4102
6.61486
0.438954
65.4831
2.56643
12.6855
4.44831
11.8756
11.7543
5.34988
63.7044
15.2524
80.2391
26.7613
1.99346
6.92162
5.69452
0.424267
0.491439
32.5942
124.853
12.5873
4.67304
0.699787
104.721
11.7387
190.309
114.02
33.0762
49.2523
35.1959
0.632221
31.0381
4.13019
2.07389
28.8166
36.7762
1.55204
9.92276
32.6279
8.26378
70.7578
4.35566
15.7561
64.0521
36.3362
5.57571
7.61487
9.77488
99.0409
7.09834
20.4912
83.9626
90.9567
22.3861
1.95342
1.62683
37.0377
16.1575
8.88985
29.3475
22.6479
31.791
4.41372
22.6878
7.7087
117.776
8.22687
4.06634
1.08199
0.499448
32.6037
135.511
28.3993
84.5313
72.5133
197.327
1.38551
26.3814
4.71447
36.1925
1.32204
173.928
38.8223
2.01712
0.44882
7.53146
1.10121
1.7191
45.187
49.4277
41.1067
59.97
115.597
56.0044
2.63178
16.6536
99.1555
74.9084
17.1911
345.516
5.03387
4.01027
18.373
96.6726
28.1451
23.5701
52.2508
2.78237
3.96743
36.5918
12.5546
8.70136
7.44835
0.684743
12.0372
1.04769
61.8994
0.587647
53.8866
2.68114
12.2574
15.0369
35.4893
24.2832
62.823
0.953112
132.357
1.21142
0.572715
4.50122
0.266992
0.915537
73.9989
31.0482
94.3707
5.48185
93.3624
131.079
3.77448
25.1174
0.600456
3.46809
2.01904
0.282785
49.6582
49.9117
0.592183
0.549666
31.4444
12.3577
17.1299
30.4253
3.42417
20.1908
5.63618
108.338
4.55132
32.152
1.16566
4.67676
12.3817
75.3124
2.77411
38.4619
71.035
3.94912
4.19416
46.166
2.71397
1.30689
92.7144
1.31962
2.13335
181.929
11.1045
54.2149
3.21709
23.1471
63.0046
0.799151
4.38495
18.2978
37.4026
77.3094
1.4013
30.295
44.0011
30.7448
13.7256
9.84122
8.66378
3.95193
0.258541
0.513903
44.6881
36.244
2.65993
0.693877
101.714
8.4464
32.4894
46.7292
5.2937
5.1878
71.2474
91.2946
15.908
0.432766
0.837607
35.4833
24.9374
38.2005
2.9504
2.41957
54.7043
54.3662
3.6398
47.2125
124.508
78.099
36.6759
71.1027
0.334132
20.1213
35.3809
5.01954
0.317133
0.513202
32.4724
5.35541
3.99785
53.6483
1.79324
12.6495
3.76393
2.5248
10.35
304.641
4.16564
28.8803
1.85057
27.4682
63.8925
31.6559
2.59943
6.81093
0.353688
0.507474
40.4478
13.5537
14.0012
82.2016
14.6123
28.4646
196.537
59.7139
35.2473
0.210192
63.1972
0.347115
0.949933
51.105
27.5737
9.20267
1.27293
2.42743
5.07308
38.9284
0.382067
1.37825
35.4859
95.9182
1.50092
5.67712
2.62841
87.547
122.945
120.475
2.08259
16.8526
66.882
113.43
10.5971
37.919
5.16558
19.8838
21.4629
65.8251
3.68644
25.1455
0.659919
5.58988
0.452845
4.98188
7.75794
4.98279
35.0495
0.204605
2.25447
112.038
30.8449
0.788193
3.30161
32.2883
44.3672
51.1889
26.1603
0.44403
3.38771
0.367271
0.481506
4.81686
4.8033
70.0905
0.612704
24.1757
39.4632
2.68554
2.76889
13.2232
8.95216
104.037
4.72057
0.263123
0.479341
0.737523
27.7664
2.30414
11.8436
0.85205
6.03981
1.02263
0.690151
2.79234
6.97073
5.92184
23.4305
18.906
1.00885
14.5462
2.66324
13.5795
3.25736
0.281493
1.49344
2.54264
4.27503
34.4639
2.57302
21.9008
81.8894
38.6742
57.7857
3.27982
6.36187
3.10456
154.555
5.65597
2.13148
5.76706
0.277633
0.502175
4.89734
0.767298
57.2193
233.295
15.4443
0.427213
0.92904
1.20568
0.15342
23.5001
4.98641
62.0011
5.77651
35.3572
76.3228
0.212816
3.00405
3.68275
75.7957
1.30926
72.6801
2.78708
19.6049
0.812642
6.83011
1.24016
2.78155
9.52039
21.9811
24.8407
4.94601
2.95841
0.976288
0.658368
1.18485
4.29985
71.1853
40.7234
27.3154
36.0528
15.805
15.5721
3.26835
52.8542
1.05882
22.7974
1.44635
46.0275
40.4628
78.0471
11.5518
0.804719
3.24183
0.257881
1.2925
4.94162
8.56636
2.88178
2.2893
93.3831
4.83238
2.02341
36.1154
7.84777
30.0446
25.795
17.5967
46.2257
0.876851
2.42665
6.29503
7.2409
11.8082
0.74332
5.80019
27.2239
0.728338
2.72299
8.84762
2.17489
3.3567
0.757037
0.602486
0.613853
0.34988
3.46824
0.201584
2.46856
2.06482
8.69899
10.6673
0.567706
0.862355
28.6001
31.574
13.6869
12.8167
1.09708
8.31411
2.42132
74.278
47.0459
32.3608
265.27
25.5941
87.2756
83.1274
124.769
37.1429
0.32302
0.460599
0.8398
0.383001
0.462826
7.65264
32.0985
78.9312
0.342927
0.229599
2.79313
8.65802
11.7575
68.325
1.49771
0.229603
55.2592
12.0759
35.1496
27.4538
1.7197
3.60769
24.1268
20.0485
111.276
0.334137
13.7053
93.0845
16.8269
41.6067
37.7895
0.264133
1.00444
8.62102
1.19996
0.872082
4.42012
0.697188
4.40845
5.89035
3.81816
1.03399
0.691362
3.07984
237.712
62.5193
0.560013
4.25141
0.852627
3.90025
16.5662
1.53568
13.496
31.4284
1.61964
65.4864
5.36407
34.628
104.841
197.473
55.9564
27.1467
1.42385
2.96386
41.8927
6.73995
0.593686
0.233114
84.0203
3.77001
66.9383
0.631954
1.18646
10.9808
154.088
34.5499
0.918667
0.983031
32.5181
2.77627
16.9253
1.50967
2.93253
7.32205
120.009
0.565468
38.8762
5.08503
0.29922
0.484735
0.387714
9.49308
0.313511
59.8406
2.21286
43.4857
109.057
24.6147
5.05384
156.69
8.11273
5.24799
189.695
3.41526
14.3379
153.845
5.97593
137.9
5.91774
0.33761
0.510784
39.8413
4.20327
4.37987
0.910486
1.16625
4.68404
15.1166
89.9909
28.1906
13.3081
13.71
101.835
28.4624
27.0728
10.9178
2.62825
13.9364
110.387
22.0406
170.104
8.67538
0.629846
1.02768
1.35639
35.3227
3.76225
53.8298
31.8401
13.4007
4.43567
19.999
29.4673
1.3186
0.418544
4.32057
0.540217
1.61204
12.5214
1.83579
5.60289
7.86798
25.8731
34.56
83.09
25.1361
169.367
16.4012
0.881353
1.33283
0.804441
36.9011
0.404933
6.20992
2.35263
2.89123
0.567902
57.8209
58.6306
5.66109
8.13511
13.7891
54.3924
1.08042
0.89076
0.814261
23.8851
170.412
5.10302
4.14818
35.2695
66.1627
27.4171
9.64966
5.32117
34.5853
73.7467
23.9354
4.6589
7.18184
0.691187
39.5517
0.399991
26.2424
175.107
12.356
1.31106
13.6333
8.03845
4.88642
24.9889
1.08114
29.7261
2.58768
0.212044
0.460475
18.3751
77.8712
13.2252
2.80351
2.25315
1.29241
4.08545
1.54526
0.156081
0.705545
1.53175
28.0645
75.0106
27.835
22.933
3.18756
152.513
62.5162
10.9215
1.16569
1.97892
4.26516
145.193
80.4266
43.0358
1.18633
0.298713
83.3776
5.68446
17.4969
10.7776
131.534
0.20598
112.969
101.117
24.7225
7.75064
50.2571
330.271
4.86308
41.8615
0.21692
1.83917
50.9797
91.0654
3.17111
0.43883
1.46015
1.59746
0.92564
54.6294
3.72991
10.8369
255.373
9.21101
0.77369
29.4954
34.2565
12.7693
116.171
0.237287
17.8825
0.512996
15.3455
59.3337
2.97606
18.629
30.6554
7.35491
114.359
0.574508
1.68193
40.0298
189.536
49.0629
76.2107
22.2156
174.541
1.70452
26.6814
58.8481
5.24545
118.532
20.9632
128.775
21.7748
8.91706
293.831
43.8527
35.7093
8.32552
0.428804
0.497291
32.2407
0.702128
4.32885
0.819219
28.3542
31.1012
3.07417
0.196065
1.52692
14.3512
93.2515
3.01771
0.249663
13.0556
40.4544
29.2331
18.2393
0.992665
114.255
15.3449
1.66064
56.5928
75.9144
0.258727
47.7955
26.7299
73.8432
34.6814
35.7996
13.2623
2.25672
0.901405
0.875489
4.62758
1.13726
7.54227
9.79195
86.6991
31.1233
18.9856
129.741
34.4817
54.8734
5.13645
19.5744
34.9928
1.08095
19.6932
5.16113
64.0455
127.414
90.9838
8.61313
96.2126
0.471282
39.7331
42.6642
17.9916
0.577145
1.68234
97.0507
29.47
4.52292
79.8412
91.8451
2.06395
47.2669
32.3771
79.3651
113.053
76.7614
1.47853
66.5555
0.243192
4.98898
0.473879
56.3208
25.7829
68.6019
1.3266
0.239038
99.7783
2.13953
1.01943
11.1321
97.2373
37.5642
73.6796
148.481
58.435
0.894498
0.902506
46.6896
13.0901
211.611
83.7684
100.62
6.62516
7.75761
108.324
80.9357
0.444133
0.425698
5.62391
0.646995
0.931569
10.1742
131.232
13.2614
4.61043
42.9621
10.4823
9.1902
66.8741
119.726
66.4938
8.55905
32.9259
0.982052
30.1147
5.41517
19.2266
128.92
106.204
37.1315
77.0564
364.221
184.261
2.21591
0.392117
148.726
79.7318
1.01821
10.2412
0.687366
1.21257
53.0694
118.128
61.7454
22.7274
1.55508
82.2174
0.292606
4.21379
0.505259
4.6376
0.281819
74.2414
135.296
24.2938
8.06555
109.921
0.216525
1.07426
77.3561
48.5534
52.904
8.69713
14.6846
97.6159
79.2077
1.79993
5.82727
11.4382
24.8415
4.32007
7.94897
80.0649
31.3989
34.1992
28.141
49.0708
22.583
26.2375
0.194423
2.03914
47.0367
1.57863
13.9622
270.887
10.3433
78.7488
76.2139
0.808176
0.267609
0.454481
5.25427
59.0882
68.8464
66.4034
1.01159
14.7522
5.84099
7.69363
10.9147
9.39972
6.25838
6.58629
5.3883
4.87224
0.453524
0.206505
0.989848
114.376
46.4093
3.08238
61.5787
273.796
106.534
143.818
44.2438
1.33242
40.1462
10.2846
1.70648
65.6143
149.711
4.11931
1.58386
0.704814
38.3635
23.7055
84.0911
3.90553
1.11807
38.3107
13.7667
0.809162
1.34946
0.326128
0.785017
8.56626
103.389
10.3427
6.07731
93.7496
50.8514
74.8786
68.9715
9.10569
62.1971
0.963973
22.9443
42.2111
30.8727
29.3096
0.430599
0.459513
43.5959
1.07954
74.4188
1.3692
91.2422
31.177
37.0894
1.68168
40.4076
1.77064
46.6185
35.0958
27.8276
31.8837
22.6193
45.5746
45.228
0.714174
36.0263
35.0864
0.821649
8.0634
0.754049
2.35337
4.48005
17.2332
26.4337
6.05906
13.5282
182.138
0.552856
9.40012
0.542628
0.961648
141.732
106.05
4.4136
0.427793
0.45906
10.5302
0.197944
0.384782
4.67241
0.508635
0.526005
5.81844
0.767609
44.6513
1.09762
1.62968
27.6903
55.2389
6.45584
30.0941
8.49531
6.53584
33.8904
75.7064
34.3548
0.572857
34.7699
113.09
69.7753
44.9699
9.43336
1.30465
0.156956
0.810846
55.5945
128.809
26.0632
4.36785
11.575
8.67647
4.43432
3.6943
35.9682
43.5791
0.546434
58.8346
0.212019
8.60138
110.363
50.1169
84.0216
34.7077
8.76123
91.1913
39.003
44.0109
6.56588
1.22495
5.29906
5.63686
7.1732
15.6198
0.80109
22.977
26.0783
110.233
22.2352
23.0473
1.26811
0.679137
3.6641
84.7642
37.4516
34.3485
2.9319
94.0496
9.63382
5.5515
38.2872
1.1509
1.67713
24.3457
65.882
81.6192
35.7979
29.5245
53.1152
24.3645
2.75563
1.06948
0.485575
6.18512
2.30194
482.439
100.662
2.94358
100.407
47.4176
5.00503
0.411554
10.2385
0.676214
3.27806
0.773564
42.3842
20.2439
40.088
53.486
31.7682
0.27793
0.866268
2.77919
1.1758
25.8157
47.8917
410.927
15.6653
11.0474
0.163868
3.15224
108.829
59.7995
15.05
31.7573
0.914513
12.2299
5.66683
1.11691
32.2023
108.166
0.527956
7.23468
0.439425
6.5752
25.7227
3.44472
62.415
3.52398
219.177
12.5143
62.684
101.761
0.800522
1.4295
3.38792
19.0715
0.877179
5.17072
4.85004
37.6332
57.8735
71.3426
2.50369
5.07306
60.1556
1.25193
14.3882
13.6208
29.0016
62.1689
85.6384
0.390285
6.52827
0.447935
34.8313
11.8925
217.109
38.2154
2.12024
54.7122
121.39
63.6433
53.5476
2.37286
74.7315
52.1908
28.1111
1.43001
0.45528
34.5177
2.09845
3.38063
17.7235
4.50099
47.1642
385.281
204.013
6.947
82.202
1.48001
10.9375
19.9613
2.22589
80.6899
36.3665
0.23759
0.743429
0.790037
1.3826
14.3118
12.9931
90.7667
38.0938
0.959551
221.3
3.63647
36.3795
94.4623
56.1184
30.78
18.4329
6.78692
83.3893
0.835384
1.19693
4.2946
0.27181
3.61376
15.3899
60.1019
0.274001
25.3416
0.464487
1.65048
4.83117
41.067
6.60232
6.896
89.8527
51.6447
34.5218
10.4213
1.31364
0.755923
12.3559
173.276
7.78989
273.618
0.240295
1.23277
48.2323
40.2473
0.78924
25.1969
117.069
1.21536
17.3265
50.9559
27.5825
73.0467
70.1954
10.645
11.1254
0.975774
27.5795
84.7703
16.9152
120.616
26.4408
6.79032
7.35841
24.7995
15.1828
20.4882
80.5077
1.97826
23.7184
7.94201
1.03711
0.715714
37.6465
0.391198
0.747845
13.1962
13.1422
17.9201
24.6784
55.399
111.486
97.8075
58.1588
1.45419
0.75882
3.66823
0.515012
3.57697
22.5193
7.09327
3.89343
3.71837
81.8622
5.1636
3.29399
3.06531
28.4001
76.6147
0.294608
3.3754
2.96301
0.528577
58.0794
32.771
1.12896
2.21308
52.2849
97.5885
25.666
0.908402
0.863428
1.42731
0.428106
6.68251
0.950768
0.990996
37.7943
1.10723
0.913793
35.5769
67.8652
0.718768
32.2506
0.743064
63.7669
5.80012
89.2737
2.53121
0.317718
5.55518
59.1728
82.9051
95.8928
21.6484
52.0061
20.1797
3.30832
43.2703
18.0244
10.1917
1.07396
2.97342
0.221805
122.542
11.4595
24.1021
0.736019
40.4758
32.9385
66.6666
13.8529
398.82
13.1636
2.09763
1.05074
0.566739
5.80564
0.759326
1.41192
8.69668
1.01413
4.12725
0.834822
0.591677
5.20474
0.590212
5.56614
22.6196
48.0079
118.972
2.49459
1.48197
0.685281
2.33981
61.0969
17.9318
25.9274
6.01431
96.3094
128.878
91.8649
5.08094
10.0444
0.956764
1.2406
0.790188
28.076
9.88326
38.211
0.927997
104.487
264.224
146.242
0.647845
41.9473
30.4988
42.7743
0.677651
1.34034
3.96046
34.6304
1.39804
33.1209
56.5289
0.680891
0.217421
104.638
198.802
2.50047
21.2282
36.3213
9.40874
54.5911
8.05278