/*--------------------------------*- C++ -*----------------------------------*\
| =========                 |                                                 |
| \\      /  F ield         | OpenFOAM: The Open Source CFD Toolbox           |
|  \\    /   O peration     | Version:  v1912                                 |
|   \\  /    A nd           | Website:  www.openfoam.com                      |
|    \\/     M anipulation  |                                                 |
\*---------------------------------------------------------------------------*/
FoamFile
{
    version     2.0;
    format      ascii;
    class       volScalarField;
    location    "0.46";
    object      nut;
}
// * * * * * * * * * * * * * * * * * * * * * * * * * * * * * * * * * * * * * //

dimensions      [0 2 -1 0 0 0 0];


internalField   nonuniform List<scalar> 
5794
(
0.0015123
0.000631652
0.00221365
0.00563025
0.0135377
0.000789682
0.00169534
0.00103925
0.00227429
0.00184361
0.0020165
0.0011412
0.0016389
0.00579063
0.00115914
0.000778214
0.00783738
0.00587649
0.00083358
0.000697652
0.00164384
0.00078398
0.00193528
0.0011753
0.00205322
0.00285759
0.00912209
0.00705267
0.00441039
0.000546341
0.0015846
0.00127935
0.00241613
0.0020931
0.00345008
0.00368271
0.000787274
0.00147917
0.00214506
0.0049884
0.00774008
0.00290012
0.000741877
0.000567616
0.00134108
0.00229457
0.00104686
0.00102489
0.00136891
0.000864216
0.000204987
0.00295387
0.00129017
0.00219215
0.000149635
0.00229729
0.000884777
0.00140385
0.000737095
0.0035539
0.00133442
0.000531002
0.00134859
0.00279365
0.00572234
0.000947886
0.00410625
0.0006854
0.00512536
0.00071837
0.00612301
0.00423873
0.0103264
0.00222935
0.00516195
0.00398565
0.000411078
0.00259643
0.000611682
0.000243533
0.000775727
0.00105737
0.00534144
0.00203502
0.00111708
0.00095603
0.000817656
0.001005
0.00117337
0.00324583
0.00496829
0.00230206
0.00362208
0.00534782
0.00281391
0.00798123
0.00391979
0.00337961
0.00219495
0.00143452
0.00147577
0.000750294
0.000757484
0.00820038
0.00382666
0.0120067
0.000547627
0.00424411
0.00507619
0.00074968
0.00129816
0.00132991
0.0015023
0.001505
0.00250202
0.00409828
0.00133895
0.00719228
0.00124219
0.00100367
0.00975169
0.000342606
0.000919051
0.00547775
0.00183327
0.00350921
0.00315545
0.000694901
0.00337873
0.00389798
0.00107043
0.00208753
0.00190137
0.00248148
0.0119405
0.00144029
0.00293921
0.000572465
0.00094124
0.00288513
0.00173182
0.00945537
0.00215075
0.00962151
0.00140957
0.0102888
0.00229868
0.00149413
0.0131109
0.00464848
0.000725986
0.00228705
0.0120654
0.000599834
0.0104268
0.00143167
0.00197398
0.00153531
0.00207954
0.00118689
0.000739083
0.00109913
0.000995252
0.00152047
0.00194307
0.00187702
0.00137484
0.000873827
0.00113141
0.000579832
0.000392421
0.00194359
0.00102816
0.000941115
0.000643775
0.00151128
0.000397512
0.00106984
0.000719864
0.00189886
0.00070774
0.000696057
0.000693846
0.00154836
0.000929822
0.00362199
0.000702222
0.00111961
0.000935836
0.000529254
0.00162934
0.000849124
0.00171998
0.000962465
0.0011883
0.000618237
0.000676565
0.000957309
0.00102794
0.00100354
0.00129613
0.00209249
0.000893738
0.00113777
0.00109819
0.00196339
0.000923945
0.00593501
0.011821
0.0019915
0.00113556
0.000858364
0.00541031
0.00284773
0.00172997
0.00399009
0.00314261
0.00262444
0.00358212
0.0055205
0.000857538
0.00279457
0.00830909
0.00393558
0.0023799
0.00447392
0.000489873
0.00371606
0.00340103
0.00146334
0.00145686
0.00249364
0.00194992
0.00363953
0.00268276
0.0084742
0.011255
0.00200142
0.00117106
0.00186222
0.00107849
0.00775728
0.0023979
0.00161524
0.00100647
0.00125968
0.00208386
0.0121449
0.00113059
0.00098145
0.000780321
0.00106157
0.00942671
0.000593297
0.000816116
0.0168745
0.00090482
0.000899551
0.00379858
0.00171951
0.00251806
0.00515758
0.0026974
0.000549262
0.000804651
0.00136111
0.00709249
0.00359264
0.00151927
0.00289376
0.00136148
0.00119525
0.00584197
0.0050045
0.000869549
0.00123627
0.00263008
0.00189774
0.00229201
0.00161887
0.00142522
0.00322832
0.00726004
0.00282001
0.00400947
0.005316
0.00282582
0.00338872
0.00523094
0.010288
0.00237824
0.00305917
0.0020095
0.00317109
0.00077377
0.00255661
0.00516321
0.00267752
0.00252322
0.000670957
0.000655326
0.0010191
0.000556257
0.00341025
0.000566852
0.00304384
0.00237817
0.00442018
0.00246007
0.00146098
0.00141581
0.00277213
0.00230772
0.00136365
0.000783499
0.000906167
0.00522674
0.00831413
0.00455932
0.00435198
0.00304431
0.0021986
0.00577994
0.0139703
0.000682774
0.00256077
0.00176162
0.000793356
0.00147449
0.00184583
0.00179704
0.000817253
0.000914687
0.00150575
0.000811796
0.00108689
0.000936317
0.000915258
0.00080495
0.000915614
0.000552104
0.000976391
0.00232819
0.0012998
0.000485582
0.000643937
0.00171704
0.000722234
0.00219172
0.00170202
0.00220944
0.00195617
0.00149111
0.000707856
0.000759805
0.0024934
0.00103476
0.00186745
0.00146756
0.000715963
0.00595961
0.00205958
0.00293245
0.00330619
0.00156238
0.00806046
0.00173644
0.00152564
0.00069974
0.000925159
0.00201138
0.000469255
0.00911721
0.0015236
0.00679507
0.00299285
0.00165644
0.000881587
0.0016517
0.00151087
0.00358225
0.0021217
0.000751015
0.00315612
0.00323301
0.00220356
0.00720893
0.00570078
0.00269233
0.00149193
0.000892958
0.00197619
0.000594027
0.00305697
0.000911921
0.0008569
0.000649242
0.00112172
0.00134658
0.00219982
0.00128265
0.00265616
0.00928883
0.000864965
0.0008173
0.00252127
0.000808708
0.00117907
0.000737831
0.00404385
0.0035905
0.00225528
0.00433422
0.00117217
0.00170542
0.00106078
0.000776488
0.00531263
0.00193795
0.0034508
0.00209184
0.00308892
0.00547753
0.00193766
0.00137308
0.000987381
0.000881222
0.00159383
0.000492733
0.00116044
0.00299506
0.000785635
0.00853063
0.00221847
0.00191611
0.000858773
0.000809232
0.00154863
0.00212689
0.00244896
0.001449
0.000806112
0.00127839
0.000849906
0.00259251
0.00457288
0.00266685
0.000474239
0.00121374
0.00296401
0.000984084
0.000659784
0.00228697
0.000912762
0.00520976
0.000489417
0.00451459
0.0080693
0.0038637
0.00707948
0.00108971
0.000740603
0.000778948
0.00251034
0.00154282
0.00392011
0.0068806
0.0132902
0.0052617
0.001146
0.000162203
0.0119136
0.00437046
0.00602675
0.00329986
0.00308677
0.0129563
0.00795322
0.00161228
0.000729927
0.000797404
0.00103035
0.00146149
0.00450097
0.00554071
0.00345757
0.000861588
0.00226865
0.00238356
0.000949232
0.000808987
0.00522264
0.00474134
0.0130293
0.000808431
0.00248304
0.000681175
0.0018107
0.00044697
0.002302
0.0161543
0.0138091
0.000729558
0.0024617
0.00968012
0.000639726
0.00131103
0.00112748
0.00477255
0.00107675
0.00798741
0.00242992
0.00361099
0.000538309
0.00100875
0.00244526
0.00388187
0.000477353
0.000807221
0.00930903
0.00145611
0.000720518
0.0141171
0.00823702
0.00441574
0.000975283
0.00196696
0.00207472
0.000743571
0.000775365
0.0010331
0.000405081
0.00656595
0.00215182
0.00812487
0.00190785
0.000786507
0.00299526
0.00387078
0.00210317
0.000903039
0.00258535
0.00053114
0.00423582
0.00134612
0.000693176
0.000756903
0.00979976
0.00134026
0.000780798
0.00877281
0.00167985
0.000413768
0.00111528
0.000882046
0.00198838
0.000994549
0.000739012
0.000757277
0.00973575
0.0127153
0.00038853
0.00322119
0.00256647
0.0043122
0.00228098
0.000843847
0.00335489
0.000320358
0.00089395
0.00166175
0.00279283
0.00143479
0.00138365
0.00148126
0.000858609
0.014619
0.00346256
0.00285489
0.00645426
0.00510685
0.00282365
0.00789167
0.00562591
0.00326444
0.00140121
0.00159365
0.00477706
0.00258944
0.00485066
0.00107394
0.000882263
0.000678535
0.00546022
0.00291582
0.00306516
0.00117127
0.000831385
0.000574674
0.00226001
0.00138228
0.00179847
0.00305221
0.0055668
0.000602336
0.00272466
0.00271049
0.000929259
0.000174048
0.00184356
0.0126421
0.0160128
0.007155
0.000832151
0.000713935
0.00112671
0.00211995
0.00104015
0.000860992
0.00239017
0.000300337
0.00319462
0.00399678
0.00576392
0.000431297
0.000958609
0.00185876
0.0113193
0.00617948
0.0013393
0.0019253
0.000900368
0.000264036
0.00122512
0.000722899
0.00206036
0.00278926
0.000810719
0.00494407
0.00813688
0.000852242
0.000842364
0.00405943
0.00274142
0.00282713
0.00530594
0.00284893
0.00101133
0.00216574
0.00086133
0.000375919
0.00184443
0.0024731
0.000685475
0.000619679
0.00297053
0.010116
0.0038082
0.00192262
0.00180722
0.00227641
0.000913318
0.000933397
0.000875396
0.000718045
0.00342493
0.00551118
0.00551637
0.00283646
0.00275298
0.00199239
0.000846358
0.00815063
0.00133184
0.0014909
0.00325023
0.00578369
0.00225006
0.00715341
0.00182978
0.000818147
0.00517446
0.00188259
0.000641982
0.00956967
0.00279075
0.00425295
0.00173528
0.00223674
0.000671555
0.00460297
0.00803703
0.00267352
0.00367313
0.00269098
0.00187469
0.0065399
0.000414419
0.000522247
0.00077024
0.000864226
0.00081293
0.000388041
0.000957742
0.00970217
0.00320435
0.00207539
0.00304653
0.00267173
0.00697548
0.00111532
0.00762238
0.00401644
0.00336216
0.00433397
0.000775927
0.000734502
0.0113476
0.00299605
0.00670911
0.0078292
0.00307967
0.00309665
0.00255681
0.0166785
0.000709369
0.000814223
0.00082023
0.00819069
0.0009584
0.0031462
0.0023466
0.00631102
0.00214901
0.00304228
0.00314728
0.00501645
0.00440271
0.00230304
0.00361136
0.00455865
0.000296886
0.000275057
0.000662648
0.000305891
0.00500535
0.00284086
0.00460321
0.000839177
0.000803503
0.000619165
0.00159295
0.00117306
0.000521932
0.00291384
0.00520164
0.000757711
0.00583565
0.0029912
0.000712046
0.0021615
0.0152874
0.00519373
0.00346701
0.00576655
0.00594883
0.00309609
0.00340615
0.000715711
0.00437388
0.00248526
0.00457185
0.00988965
0.0026191
0.00813624
0.00100771
0.000989412
0.0020269
0.0108487
0.000969872
0.0067147
0.0106878
0.000824843
0.0011093
0.000760494
0.00536474
0.00294997
0.00693257
0.00545013
0.00291647
0.000855066
0.00575231
0.0069808
0.00205739
0.00103183
0.00311016
0.000633578
0.00317527
0.000984249
0.00270937
0.000862834
0.00580491
0.00293046
0.000897631
0.000681211
0.00269704
0.00667869
0.00570321
0.00302227
0.00864238
0.00387516
0.00169474
0.0018773
0.0010902
0.00992466
0.00266313
0.00203005
0.00301791
0.00823649
0.000762129
0.00098664
0.00085591
0.00139074
0.0101378
0.00135621
0.000769919
0.00240931
0.00523313
0.00170152
0.00268901
0.00509486
0.00476881
0.000772051
0.00184332
0.00907021
0.00443717
0.00197317
0.0119437
0.000452431
0.000328817
0.000551126
0.000663049
0.00448879
0.00140292
0.000874463
0.00117039
0.0016118
0.000712128
0.000839899
0.0157692
0.0031356
0.00573338
0.00168008
0.00248572
0.00345955
0.00286145
0.00908344
0.0043068
0.000904666
0.000895591
0.000755154
0.00972233
0.00142306
0.00723144
0.00746425
0.00424272
0.00294574
0.00384708
0.00107404
0.00830448
0.00105904
0.000773628
0.00297676
0.00106171
0.00307845
0.0023127
0.00208524
0.00246243
0.000822536
0.000754461
0.000444784
0.00476
0.00385994
0.000893311
0.000871759
0.00203654
0.00121015
0.00382865
0.000828409
0.000799796
0.00260562
0.00588495
0.00344042
0.00585537
0.00428748
0.00597398
0.0128318
0.0010669
0.000854574
0.00837157
0.00108789
0.00242373
0.000719329
0.00122475
0.00200632
0.000462279
0.000791101
0.001289
0.00537362
0.0030965
0.00213359
0.000845332
0.00293483
0.00556042
0.0118077
0.002244
0.00340846
0.000786024
0.00118313
0.0111596
0.00102998
0.00250046
0.000841276
0.00133801
0.00117086
0.00163625
0.000262606
0.00189375
0.00125129
0.000365795
0.000387572
0.000615265
0.000283562
0.000263265
0.000663802
0.0101556
0.0111169
0.00318739
0.00209996
0.00294976
0.00798037
0.000760922
0.000759437
0.00117479
0.0111892
0.000899199
0.0162513
0.00646366
0.00230865
0.00078669
0.00898891
0.00194155
0.000671641
0.000956986
0.0165991
0.00405328
0.000834532
0.000945008
0.000879105
0.00344235
0.00227887
0.012771
0.000782326
0.000598672
0.000531487
0.000700686
0.0005976
0.00173763
0.000787413
0.00100947
0.000676949
0.000990332
0.000790194
0.00784541
0.000784152
0.00241233
0.00122822
0.00166932
0.000831784
0.00179184
0.00245958
0.00133932
0.000923744
0.000933415
0.000758414
0.00511816
0.000883417
0.00161
0.00465232
0.000947347
0.000833852
0.00182811
0.000843605
0.000830515
0.00231149
0.000778079
0.0160692
0.00212365
0.000730275
0.000825361
0.000873191
0.00897303
0.000991064
0.00224927
0.00283589
0.00527262
0.000927273
0.00159688
0.00126875
0.000662445
0.000836352
0.00118634
0.00173328
0.00164176
0.00154543
0.00020566
0.00200058
0.00141687
0.00121841
0.00108176
0.00162611
0.000513841
0.000968883
0.000723978
0.00107554
0.000747709
0.00948111
0.000797932
0.000612509
0.000791314
0.000784685
0.000737471
0.00093109
0.000981865
0.00208908
0.01194
0.00670876
0.00418813
0.000671045
0.000827294
0.00253006
0.000682233
0.00371854
0.00114841
0.00234676
0.00524565
0.000704209
0.00712358
0.000546612
0.000843575
0.00639811
0.000848947
0.013107
0.000729866
0.000835759
0.00230955
0.00485014
0.000805266
0.00353811
0.000904553
0.0015602
0.000671926
0.000950806
0.00163243
0.00102657
0.000830219
0.000909945
0.00166187
0.00138957
0.0023603
0.0016668
0.00413744
0.00098867
0.000725486
0.0055077
0.00293268
0.00183595
0.000666474
0.00493329
0.00262003
0.00737887
0.0104509
0.00198669
0.00112285
0.000427716
0.0154532
0.00223195
0.00421697
0.00227937
0.0108744
0.00259983
0.000307924
0.00109014
0.000555602
0.000229408
0.0026173
0.00106177
0.00112426
0.00109877
0.000368671
0.00107883
0.000246426
0.000329201
0.000942551
0.000681309
0.00135879
0.00452184
0.00277331
0.00611418
0.000530174
0.00123936
0.00251147
0.00137828
0.000675528
0.000791035
0.00668361
0.00081487
0.00280839
0.00102446
0.000745845
0.000963546
0.0148542
0.00752581
0.000698988
0.00192926
0.0047904
0.00312367
0.0121715
0.000744459
0.00627598
0.00496071
0.00303873
0.000957983
0.00923014
0.00072782
0.000727567
0.00299433
0.00108185
0.00166284
0.000776803
0.00925077
0.00106868
0.000691746
0.00257019
0.00460818
0.00470654
0.000765011
0.000716194
0.00176445
0.00117111
0.00308996
0.000878684
0.0121934
0.00254779
0.00723692
0.00297154
0.0049233
0.00171536
0.000774822
0.00244652
0.00162701
0.00165183
0.00102164
0.000692668
0.00130565
0.000939726
0.0138731
0.00098021
0.00101285
0.000755639
0.000918145
0.000833307
0.000776962
0.000869141
0.000747938
0.00247883
0.00423216
0.00727754
0.000735457
0.000745964
0.000879033
0.00125015
0.00166077
0.00609883
0.00167629
0.000740538
0.00128721
0.000764517
0.00223477
0.000788733
0.000706104
0.00101763
0.000440581
0.000845225
0.00103396
0.00077406
0.00705287
0.000712871
0.0101929
0.000646765
0.00204196
0.000969747
0.000897631
0.000689149
0.00323344
0.00173838
0.000747184
0.000512235
0.00107577
0.00102175
0.00157783
0.00133818
0.00231657
0.000815025
0.00109321
0.00211613
0.0043406
0.00629942
0.00189228
0.00082893
0.000281118
0.00678262
0.00124408
0.00299455
0.0066883
0.000520042
0.000857497
0.00109706
0.00741932
0.000349372
0.00639985
0.00766261
0.00110662
0.00240791
0.00510499
0.00202482
0.000662815
0.0084798
0.0157561
0.00574844
0.00131942
0.00143878
0.000829185
0.00274189
0.000836804
0.000872571
0.000655505
0.000783883
0.00291862
0.00114666
0.000484277
0.00166978
0.000929688
0.000502476
0.00102311
0.00178519
0.00614079
0.000719271
0.00242455
0.00632127
0.00951232
0.00783325
0.0022964
0.00214712
0.000796304
0.00655608
0.00159257
0.00608078
0.00555644
0.00262237
0.00429562
0.0030788
0.0122867
0.00445011
0.011195
0.00171119
0.00252409
0.00260611
0.00977928
0.00108147
0.00241808
0.00380814
0.00179577
0.00192541
0.00624264
0.00232594
0.00346114
0.00820941
0.000977956
0.000410516
0.000807322
0.00346474
0.000679478
0.00240042
0.00179453
0.000831284
0.00414129
0.00339061
0.00466883
0.000701071
0.00966292
0.00161466
0.00267246
0.00269123
0.00194745
0.00100742
0.000921065
0.00787185
0.000960922
0.000944279
0.000836447
0.0111543
0.00213166
0.00098889
0.00833835
0.00455165
0.00281971
0.00174014
0.00869771
0.00565605
0.000786723
0.000208235
0.00610225
0.00240292
0.0048613
0.00825598
0.00131665
0.000697016
0.00263025
0.00585075
0.000954598
0.00149576
0.00139701
0.00147272
0.0012655
0.0109056
0.000853125
0.00200482
0.00597727
0.00105682
0.00824983
0.00250375
0.000723683
0.00152042
0.00147547
0.000803216
0.00136197
0.00160327
0.00106738
0.00175442
0.000466321
0.00279765
0.000871698
0.000822997
0.00349763
0.00265359
0.00553229
0.000750272
0.00291609
0.00541648
0.00569252
0.000933453
0.00150173
0.00177855
0.00245028
0.000280248
0.000264317
0.000527063
0.0123645
0.000826005
0.00286306
0.00222189
0.00387566
0.0027719
0.00155727
0.000654631
0.000204106
0.000299352
0.0004728
0.000251557
0.000786933
0.000540934
0.000333077
0.000709736
0.000211049
0.000371003
0.000626543
0.000400367
0.000311794
0.000283573
0.000233485
0.00076494
0.000623011
0.000392051
0.000372388
0.000608112
0.000274695
0.000277391
0.000150516
0.00031561
0.00048017
0.00052955
0.000305773
0.000310859
0.000424303
0.000607485
0.000615627
0.00036205
0.00021843
0.000248683
0.000274398
0.00025696
0.000637327
0.00037439
0.000184944
0.00043011
0.000293005
0.000577025
0.000613363
0.00114726
0.00241965
0.00969486
0.000658924
0.00160848
0.00286854
0.00539565
0.010851
0.00254951
0.000822235
0.000833823
0.00243237
0.00222405
0.00693382
0.0132967
0.012058
0.00552083
0.00278022
0.00204982
0.00204495
0.000746247
0.00150562
0.000326075
0.00654948
0.00127838
0.00200622
0.0027701
0.00182357
0.00471832
0.00520728
0.00299539
0.00291552
0.00342995
0.0134033
0.0015754
0.00427093
0.00200936
0.000767977
0.00882709
0.00383069
0.00161672
0.00525767
0.00227896
0.00582991
0.00299341
0.0019505
0.00099357
0.000842402
0.000848859
0.0117787
0.0015998
0.00065664
0.000407162
0.00626184
0.0100664
0.000368895
0.00346317
0.00579256
0.000398748
0.000257083
0.000535774
0.000655474
0.00046254
0.000672074
0.000216571
0.000373071
0.00052328
0.000232971
0.000692702
0.000597039
0.000264671
0.000660712
0.000427857
0.000347682
0.000626318
0.000275049
0.000290481
0.000286455
0.000208057
0.000690134
0.000273269
0.00331838
0.00281919
0.000470153
0.000902051
0.00352089
0.000848694
0.00587924
0.000702413
0.00288731
0.0106436
0.00892463
0.00273913
0.0100889
0.00337648
0.000319224
0.0100445
0.0020583
0.00309018
0.0150116
0.00490899
0.00887207
0.000622152
0.00949664
0.00166433
0.000849662
0.00954368
0.000888521
0.0034709
0.0022077
0.000859135
0.000719136
0.00556956
0.000910099
0.00674633
0.01024
0.00127077
0.00746073
0.000934697
0.0106505
0.00190729
0.000796918
0.00135768
0.00712397
0.000829976
0.00135424
0.00218891
0.00130474
0.00731099
0.000834663
0.0033685
0.000627958
0.00324426
0.00723716
0.0151732
0.000230668
0.000772615
0.00100933
0.00908232
0.00275359
0.000572014
0.000789135
0.00323679
0.00261741
0.0092453
0.000832744
0.00154153
0.000554518
0.00157044
0.00216842
0.000777945
0.00560046
0.000906577
0.000149087
0.000324089
0.00972308
0.00651793
0.000783292
0.0102064
0.00493285
0.000602284
0.00935577
0.0112638
0.00699973
0.00947178
0.00518567
0.00141171
0.00914607
0.000843493
0.00240439
0.00324175
0.00566935
0.000728952
0.000986231
0.00179203
0.00997117
0.00096162
0.00125198
0.000963412
0.00279261
0.00303162
0.00651211
0.00960526
0.00936259
0.00407776
0.000832009
0.00659169
0.000562907
0.0020365
0.00195662
0.00117096
0.00863195
0.0104791
0.00315848
0.00977045
0.0027376
0.00796482
0.00139758
0.00235296
0.00217197
0.00267516
0.00102718
0.0023328
0.00109424
0.0124618
0.00102697
0.0014449
0.00383202
0.00146709
0.00139484
0.00298443
0.00415292
0.00958689
0.00282581
0.00465299
0.00485905
0.00119438
0.0010241
0.00202291
0.00352104
0.00172637
0.000812154
0.00208482
0.00937274
0.0102854
0.0119983
0.00850918
0.0107711
0.0122221
0.0110723
0.00114176
0.0109154
0.0102991
0.0121277
0.00846294
0.00979193
0.008551
0.0103479
0.00962506
0.0102316
0.00204412
0.00218436
0.0010227
0.00936209
0.00217368
0.000973789
0.000991602
0.00201124
0.000328457
0.000408783
0.00255947
0.00539598
0.00322507
0.00244784
0.00297014
0.0106331
0.00563584
0.00947662
0.00539847
0.00113581
0.0016107
0.00118012
0.00434543
0.00594748
0.00261817
0.00143383
0.00274742
0.00287834
0.00242871
0.00268115
0.00123074
0.00833014
0.0018888
0.00102071
0.00250453
0.000347279
0.00494782
0.00149768
0.00108719
0.00150102
0.00101946
0.00168464
0.0026841
0.00137923
0.0029125
0.00234855
0.00166611
0.00279304
0.0111433
0.00166294
0.00264298
0.00304268
0.00226373
0.00922887
0.00247337
0.00144116
0.00945877
0.00485309
0.00295905
0.00166327
0.00184551
0.00309611
0.0105258
0.00326133
0.00115097
0.00128146
0.00151322
0.00220883
0.00162386
0.0115342
0.00153758
0.00201465
0.00259499
0.00132639
0.00236704
0.00235894
0.00155477
0.00302293
0.00575237
0.0050703
0.0110306
0.00958115
0.00159321
0.0102988
0.00129346
0.00310167
0.00533759
0.00202427
0.00286337
0.00159353
0.0106132
0.00626061
0.00312996
0.00212086
0.00782833
0.0101328
0.00166589
0.00143314
0.00604783
0.00267084
0.00546847
0.00333703
0.00202521
0.00118218
0.00675619
0.00249576
0.00533449
0.00932849
0.00947352
0.00204843
0.00676562
0.000461064
0.00164043
0.00616366
0.00199525
0.00323577
0.00167719
0.00168032
0.00263526
0.000766642
0.00495631
0.000811442
0.0027958
0.00548286
0.00154167
0.00532868
0.00296633
0.00349581
0.000739706
0.00252766
0.00119648
0.00371881
0.00293853
0.00200263
0.00389601
0.00340904
0.00228458
0.00119992
0.00586336
0.00543112
0.00109392
0.00154101
0.000563236
0.00091072
0.000425417
0.00715731
0.000849183
0.00122751
0.00282494
0.00703789
0.00259721
0.00151252
0.00119145
0.0069958
0.00107515
0.00126975
0.00172472
0.00252949
0.00197032
0.00208974
0.000774804
0.00576835
0.00290578
0.00934898
0.00204557
0.00266953
0.00281064
0.00088547
0.00637711
0.00504871
0.00059112
0.00283557
0.00252283
0.00097201
0.00236091
0.00258062
0.00692676
0.00523549
0.000258192
0.00425475
0.0016826
0.00202279
0.00298142
0.00286661
0.00421135
0.00411939
0.00457152
0.0037381
0.00216745
0.00242963
0.000264203
0.00421267
0.00127345
0.00364292
0.000759719
0.00279399
0.00146186
0.000405017
0.00240912
0.00127146
0.00663974
0.00122715
0.00122153
0.00336491
0.00104929
0.00179655
0.00573966
0.00304674
0.00601598
0.00207931
0.0009385
0.000557558
0.00397286
0.00184948
0.00346903
0.000279424
0.00275924
0.000361479
0.0090299
0.00129858
0.00156105
0.00571229
0.00218405
0.00315982
0.00276242
0.00127451
0.000826319
0.00538557
0.0051791
0.00224416
0.00471396
0.00243246
0.0024104
0.00112599
0.00116953
0.00539974
0.00169727
0.00152999
0.00567076
0.00296824
0.00403358
0.00253972
0.000537951
0.00841363
0.000875593
0.00184621
0.00239066
0.0041418
0.000614668
0.00305595
0.00255432
0.00242551
0.00218989
0.00192408
0.00190469
0.00252673
0.00113128
0.00120021
0.00242013
0.000554145
0.000599098
0.00606716
0.00262705
0.000587906
0.00805126
0.00955308
0.00241265
0.000746854
0.00239541
0.00111283
0.00252338
0.00429264
0.00382779
0.00274424
0.00179706
0.00195834
0.00211556
0.00290667
0.00196958
0.00527389
0.00135523
0.00107434
0.0049447
0.00285322
0.000578301
0.00315958
0.00246883
0.00491103
0.00218311
0.00116293
0.00455611
0.00207011
0.0021719
0.0017506
0.00254073
0.00222874
0.00236084
0.00210639
0.000873598
0.00135585
0.00204299
0.00646337
0.0012487
0.0065345
0.00266794
0.00261497
0.00398288
0.00507068
0.0028475
0.000525682
0.0028381
0.000540185
0.00911196
0.00279549
0.00108558
0.00876334
0.000801652
0.000835241
0.0117039
0.000457438
0.00183903
0.00372951
0.00597436
0.00200713
0.00704789
0.0028942
0.00710382
0.00352989
0.00344014
0.00305509
0.00253046
0.00203476
0.00441263
0.000685131
0.000616931
0.000550005
0.000346387
0.000392185
0.00255724
0.00162263
0.000867557
0.00122875
0.00415052
0.00562162
0.00395829
0.000409308
0.0113401
0.0100748
0.00190061
0.00105924
0.00314904
0.00487365
0.00273131
0.000537482
0.000518706
0.00713756
0.0029874
0.00166027
0.00306695
0.00890709
0.00528693
0.00127358
0.00474221
0.0108522
0.00394692
0.00247403
0.00104855
0.00214771
0.000850239
0.00083718
0.00129795
0.00205381
0.00123405
0.00174082
0.00551339
0.00597437
0.00389133
0.00226019
0.0018305
0.00766803
0.0120102
0.0115464
0.00847133
0.00656742
0.00160908
0.00357764
0.00141438
0.000874199
0.00151646
0.0114866
0.0118878
0.0131846
0.00262151
0.00460053
0.00424815
0.00273339
0.00262695
0.00207405
0.00149592
0.00166959
0.000759554
0.00132942
0.00254778
0.00219174
0.00255648
0.00317259
0.00761268
0.00117897
0.0102233
0.00344533
0.00664446
0.00147487
0.00285223
0.00117099
0.000547081
0.00108417
0.000447292
0.0017698
0.000744043
0.0100233
0.00194475
0.000792725
0.000878605
0.00323026
0.00211559
0.000846953
0.00296729
0.00646386
0.00347013
0.0044541
0.00299147
0.00554273
0.00139577
0.00283866
0.002212
0.00036481
0.000547545
0.00269414
0.00240395
0.00994961
0.00410769
0.00114192
0.00100579
0.00574884
0.00281458
0.00514673
0.00933401
0.00180771
0.00170306
0.00156719
0.00189547
0.00197504
0.00781594
0.00161661
0.00323832
0.001164
0.00147165
0.0115417
0.0103569
0.00276078
0.00386843
0.00270186
0.0029874
0.0025403
0.00477886
0.00117343
0.000819337
0.000748653
0.000696768
0.00274177
0.00222855
0.00328923
0.000862276
0.00304307
0.00502904
0.00221339
0.00405282
0.00130265
0.00352359
0.00270702
0.00214751
0.00122324
0.00396053
0.00708502
0.00942506
0.00148276
0.0114821
0.000757154
0.00139606
0.00224585
0.00268878
0.0110671
0.00218528
0.00372748
0.00098777
0.00594597
0.00282274
0.00596329
0.000566955
0.000253245
0.00885087
0.00322676
0.00760268
0.00457358
0.00227612
0.00137899
0.000797105
0.00449393
0.0054551
0.00379131
0.00525824
0.00330549
0.00576212
0.00149541
0.000821052
0.00119616
0.0105349
0.00150275
0.0029017
0.00316172
0.000782819
0.0110215
0.00159175
0.00167538
0.00921427
0.0094415
0.0107984
0.00993431
0.000434517
0.00107311
0.00476892
0.00328125
0.00721137
0.00912911
0.00276216
0.00176187
0.00240459
0.000610496
0.00339205
0.00296081
0.00356832
0.00720655
0.00967167
0.00205114
0.00222798
0.00348691
0.00448874
0.00308599
0.00179671
0.00250224
0.0081287
0.00125989
0.00207606
0.00253041
0.00908023
0.00392236
0.004575
0.00244378
0.00507077
0.0010341
0.000759205
0.00175956
0.00263345
0.00906067
0.00686427
0.00254137
0.00155588
0.000705342
0.00688228
0.00158654
0.00441418
0.00777566
0.00404683
0.00406577
0.0030392
0.0046007
0.00262667
0.00870025
0.00184627
0.00165782
0.0024868
0.00155465
0.000831806
0.00681172
0.00111652
0.00236578
0.0107524
0.0108426
0.0101937
0.011708
0.00718483
0.00189979
0.00286385
0.00145575
0.0108545
0.0121002
0.00648941
0.00577713
0.000740166
0.00337851
0.00376139
0.0109858
0.00840089
0.00613132
0.00288161
0.00255173
0.00229137
0.00268497
0.00368282
0.000694397
0.00401427
0.000818455
0.00724939
0.000954576
0.00913699
0.00175164
0.00266423
0.0028732
0.00749116
0.00115575
0.00959331
0.0063719
0.00296082
0.000577635
0.0110953
0.00186721
0.0018831
0.00313503
0.000553371
0.00147512
0.00349167
0.0099423
0.0128228
0.00579756
0.00834569
0.0111063
0.0030076
0.00447497
0.00207989
0.00255558
0.00055745
0.00050001
0.00588452
0.00401621
0.00170445
0.00192547
0.0092952
0.0051707
0.000975116
0.000859124
0.00287793
0.00334362
0.000799062
0.00664649
0.00191234
0.00585089
0.00181678
0.0028524
0.000911
0.0124284
0.00285579
0.00958827
0.00381321
0.00110744
0.0032127
0.00617927
0.00223621
0.000881306
0.0127091
0.0029136
0.00168235
0.00176941
0.000782281
0.0113285
0.00225614
0.00793668
0.00947268
0.000678658
0.00347451
0.000799968
0.00968364
0.0126423
0.00257751
0.00576464
0.00260503
0.00978412
0.000848221
0.000772703
0.000763565
0.00271414
0.000787777
0.00112301
0.00507087
0.00577337
0.00291227
0.00206017
0.00701512
0.00100969
0.00794754
0.0108211
0.00551554
0.000738724
0.00357605
0.010121
0.000692936
0.000246092
0.000298248
0.00886887
0.00206395
0.00945111
0.00246074
0.0018782
0.00950068
0.0111324
0.00319805
0.00367294
0.00651969
0.00522158
0.00280224
0.00456066
0.000900692
0.00700334
0.000931618
0.00149828
0.000768231
0.00121653
0.00290056
0.00135464
0.00377925
0.0028774
0.00260644
0.00567186
0.00359614
0.00346055
0.00721737
0.001841
0.000750414
0.00354146
0.00201052
0.00889974
0.00544699
0.0102125
0.00279121
0.0013515
0.000836824
0.00111793
0.00336057
0.00125285
0.0073495
0.00204206
0.0011268
0.0025063
0.00941245
0.00411305
0.00957602
0.00075064
0.00991883
0.000715694
0.00225998
0.00167017
0.00593308
0.00714654
0.00302282
0.00135479
0.00188799
0.00613925
0.000824239
0.00199101
0.00990065
0.0132732
0.00309228
0.00506799
0.00228447
0.0154373
0.00966009
0.00151239
0.00238988
0.0039019
0.0018933
0.00392555
0.00482257
0.0091852
0.000744101
0.00523319
0.00182022
0.00272881
0.00120305
0.00364596
0.00199062
0.00335286
0.000646116
0.00395714
0.00629116
0.00136139
0.0022469
0.000514578
0.00341719
0.00382132
0.00254977
0.000620451
0.001476
0.0063604
0.0047386
0.00382874
0.00213355
0.00108557
0.00192024
0.000884354
0.000948861
0.000994806
0.00497564
0.00143474
0.00102251
0.00178613
0.00879397
0.000413406
0.0026323
0.00254008
0.00093566
0.00679584
0.00119568
0.000883915
0.000923382
0.00236894
0.00233871
0.00105373
0.00206094
0.00172589
0.00337176
0.000987469
0.00127276
0.00357803
0.00640481
0.000805539
0.00591494
0.00138957
0.00257732
0.00469012
0.00238523
0.00684867
0.00166278
0.000893667
0.000326838
0.000596289
0.00128679
0.0099466
0.00240678
0.00782799
0.00420545
0.00182984
0.00783322
0.00138072
0.000806272
0.00181254
0.00364029
0.00550147
0.0033692
0.00134113
0.000838294
0.0010568
0.000731908
0.00143771
0.0111253
0.00183893
0.00674851
0.00098905
0.000503958
0.00159818
0.000619742
0.00105828
0.0025538
0.0102736
0.00322925
0.00887992
0.0109881
0.000811176
0.0014516
0.00308901
0.0124569
0.0021575
0.00846093
0.00218575
0.00661522
0.00150198
0.000807298
0.000941193
0.00318357
0.0071828
0.00181299
0.00186123
0.00433886
0.00251316
0.00222148
0.00107904
0.00205329
0.00318326
0.0147423
0.0118786
0.000829559
0.00962516
0.0011922
0.0064255
0.00263396
0.00447427
0.00258583
0.00735344
0.00149541
0.00457553
0.00993882
0.0124405
0.00121676
0.00144759
0.00140945
0.000798943
0.000764968
0.00249107
0.00178146
0.00134338
0.00349343
0.00636825
0.00297838
0.000551374
0.00705292
0.000761002
0.00110724
0.00798908
0.00728036
0.00466358
0.00232287
0.00355349
0.00595381
0.000820953
0.00084117
0.00241541
0.00602505
0.0079673
0.00122224
0.00344312
0.00697836
0.00261601
0.00283248
0.0013142
0.00113574
0.000745442
0.000772228
0.000517444
0.000681303
0.00135171
0.0014908
0.000827937
0.000640086
0.000253883
0.000286055
0.0089815
0.0100804
0.000848189
0.0074744
0.00176361
0.00667478
0.00354132
0.00600574
0.00469599
0.00742969
0.00750546
0.00987258
0.00404088