/*--------------------------------*- C++ -*----------------------------------*\
| =========                 |                                                 |
| \\      /  F ield         | OpenFOAM: The Open Source CFD Toolbox           |
|  \\    /   O peration     | Version:  v1912                                 |
|   \\  /    A nd           | Website:  www.openfoam.com                      |
|    \\/     M anipulation  |                                                 |
\*---------------------------------------------------------------------------*/
FoamFile
{
    version     2.0;
    format      ascii;
    class       surfaceScalarField;
    location    "0.46";
    object      phi;
}
// * * * * * * * * * * * * * * * * * * * * * * * * * * * * * * * * * * * * * //

dimensions      [0 3 -1 0 0 0 0];
oriented        oriented;


internalField   nonuniform List<scalar> 
11117
(
-2.3429e-05
5.2714e-05
1.08472e-05
-4.01322e-05
1.21395e-05
0.000146496
-9.6062e-06
-0.000149029
-6.5949e-05
9.53449e-05
-1.76876e-05
-1.17083e-05
-0.000649298
6.92884e-05
0.000203112
0.000376897
0.000236932
9.11163e-05
-3.96664e-05
-0.000288382
-2.99011e-05
5.84061e-06
-0.000124536
0.000148597
-0.0007479
-0.000117032
0.000665391
0.000199541
-0.000156106
-2.13736e-06
8.18396e-05
7.64035e-05
0.00120826
0.000229755
-0.000894228
-0.000543782
0.000260456
-0.00011031
-2.7346e-05
-0.0001228
-0.000863267
0.000934947
0.000296709
-0.000368389
-5.24415e-05
-0.000186463
7.45022e-05
0.000164402
-0.000676219
-0.000216942
0.000407759
0.000485402
0.00084518
-0.00117556
0.000609457
-0.000279072
3.23138e-05
-5.08559e-05
0.000123155
-0.000104613
-6.10409e-05
1.92444e-05
-3.80564e-05
7.9853e-05
-9.02934e-05
4.30969e-05
-2.72199e-05
7.44164e-05
-0.000739395
0.000752383
0.000791436
-0.000804424
0.000123716
1.23148e-05
-0.000103717
-1.15286e-05
6.46165e-06
8.1595e-05
-7.6528e-05
-0.000339312
0.000186873
6.48877e-05
8.75514e-05
-1.4613e-05
1.11879e-05
0.000104337
-0.000100912
0.000565112
0.000425397
-0.000338998
-0.000651511
7.97816e-05
7.04017e-05
-7.11847e-05
-7.89986e-05
0.000222063
0.0001678
-0.00022827
-0.000161594
0.000949411
-0.000974601
0.000295322
-0.000270131
0.000258715
-0.000366904
0.000684724
-0.000576535
-0.000278445
0.000363611
-0.000282096
0.00019693
0.000176252
-7.98324e-05
0.000961446
-0.00105787
4.58468e-05
-2.479e-05
3.1671e-05
-5.27278e-05
-0.000139514
7.13707e-05
0.000166038
-9.78944e-05
-8.11934e-05
-0.000232091
0.000241373
7.19114e-05
-0.000120035
-0.00045398
0.000380915
0.0001931
0.000170869
-7.19485e-06
-3.26558e-05
-0.000131018
0.000151682
2.68981e-05
7.59995e-05
-0.000254579
-0.000234067
9.12873e-05
-2.23642e-05
0.000165144
0.000601269
-0.000817236
0.000997459
-0.000781491
0.000161893
-0.000345517
-6.80547e-06
0.00019043
0.000700449
-0.0002044
-0.000836014
0.000339965
0.000208212
0.000325732
-0.000413755
-0.00012019
0.000157865
8.93473e-05
-0.000151074
-9.61376e-05
7.63562e-05
-9.84566e-05
9.75665e-05
-7.54661e-05
0.000982011
0.000865215
-0.00086879
-0.000978436
2.32241e-05
3.80606e-06
4.167e-06
-3.11971e-05
-2.35966e-05
0.000158491
-1.11785e-05
-0.000911853
0.000723322
-0.000219221
0.000407751
-0.000379596
0.000255716
-6.23372e-05
0.000186217
0.000103917
-0.000218838
0.000159504
-4.45829e-05
-0.000346816
0.000448562
-0.000245384
0.000143638
-9.36071e-05
-2.74792e-06
9.6355e-05
6.17029e-05
9.24512e-06
-7.09481e-05
-0.000328342
-0.00111481
0.000503324
0.000939832
0.00012642
-5.33814e-05
0.000137975
-0.000211013
-0.000251586
0.000304767
9.80305e-05
-0.000151212
1.56343e-05
-1.56343e-05
0.000406311
0.00017478
-0.000535117
-4.59746e-05
0.00011959
8.52121e-05
-0.000179738
-2.5064e-05
-9.59465e-05
-7.20227e-05
0.000150142
1.78276e-05
0.000869682
0.000113785
-0.00134164
0.000358175
-0.000419593
0.000817174
0.00055183
0.000839257
-0.000855374
4.45427e-05
-2.84261e-05
0.000129914
-7.16395e-05
-5.92451e-05
9.70105e-07
-0.000133501
-0.000135182
0.00012917
1.8027e-05
-4.153e-05
-5.76905e-05
0.000121917
-3.89316e-05
-0.00020302
-4.45233e-05
-0.000123151
0.000103488
6.41861e-05
0.000133331
-0.000143322
6.17057e-05
-5.17153e-05
5.42096e-05
-0.000289637
0.000235427
-0.000801222
-0.000445606
0.000639899
0.000606929
3.01607e-06
2.41765e-05
5.45024e-08
-2.7247e-05
0.000458166
-0.000135215
-0.000651293
-0.000228534
0.00020062
0.000161246
-0.000276358
-0.00127711
0.00131448
0.000238988
2.70546e-05
5.12321e-06
-9.25154e-05
6.03376e-05
-0.000855731
-0.000684887
-9.1441e-05
-2.84772e-06
0.000278428
-0.00018414
8.39632e-05
-3.43575e-05
-4.96057e-05
-0.000948412
-0.000166702
0.000140513
1.85157e-05
5.46618e-06
-7.57853e-07
-3.37358e-05
-1.80324e-05
5.17682e-05
5.4008e-05
4.91187e-05
-8.36033e-06
-9.47663e-05
7.41381e-05
1.40582e-05
7.16004e-06
-9.53563e-05
7.8316e-06
4.40896e-05
-5.36503e-05
1.72907e-06
-0.000334072
0.000438744
0.000263123
-0.000367795
-0.00012711
-0.000100086
0.000193098
3.4099e-05
5.62541e-05
-0.000576617
0.000520363
-4.89928e-06
-0.000604732
0.000609631
3.1564e-05
-0.000462436
0.000430872
9.0976e-05
-2.72972e-06
6.47506e-05
-0.000152997
-9.47342e-05
0.000113177
0.000322286
-0.000340729
0.000512504
-0.000152977
7.78033e-05
-0.000437331
0.00077926
5.67345e-05
-5.31598e-05
-0.000782835
0.000737901
-5.97897e-05
6.1862e-05
-0.000739974
-0.000662258
3.57642e-05
-2.52566e-05
0.00065175
-0.000738647
6.08927e-05
-3.26934e-05
0.000710447
1.45827e-07
0.000226263
-0.000329204
0.000102796
0.000572274
2.30619e-05
-2.29044e-05
-0.000572431
0.000713159
3.97683e-05
-2.99704e-05
-0.000722957
0.000738171
5.8155e-05
-3.09977e-05
-0.000765328
0.000808015
6.18589e-05
-3.06161e-05
0.000396825
7.96568e-05
-0.000420457
-5.60251e-05
-0.000198809
0.000153078
6.12812e-05
-1.55503e-05
0.000300634
-0.000373724
-0.00114541
0.0012185
0.000876828
0.000443358
-0.000894552
-0.000425634
-2.03457e-05
-7.76302e-05
6.51305e-05
3.28455e-05
-0.000813589
0.00030891
0.000727957
-0.000223277
2.60862e-05
-3.89292e-05
0.000102335
-8.94919e-05
2.21368e-05
-1.83948e-06
3.13523e-05
-5.16497e-05
-0.00024677
2.2361e-06
0.000103691
0.000140843
1.47983e-05
-2.17844e-06
5.89585e-06
-0.000551777
0.000322633
0.000320984
-9.18401e-05
-0.000111249
0.000211388
5.94214e-05
-0.000159561
-0.000419867
0.000347913
-0.00018075
0.000252705
-2.78343e-05
3.94641e-05
3.58002e-05
-4.74299e-05
0.000118506
0.000656524
-0.000746816
-2.82134e-05
0.000112282
0.000615824
-0.00069378
-3.43262e-05
-3.10021e-05
-3.25371e-05
4.80492e-05
1.549e-05
-0.000565472
0.000555259
0.000843755
-0.000833542
3.74282e-05
-2.09487e-05
-0.000871854
-0.00103744
9.01494e-05
0.000959347
-1.2058e-05
0.000872636
-0.000627658
-0.00081045
2.34492e-05
-3.17897e-05
8.34059e-06
0.000178258
-0.000136328
0.000198477
-0.000240407
-0.000167224
-0.000202663
5.04581e-07
-0.000113328
-3.22139e-05
0.000145037
-0.00034974
0.000402391
0.000612138
-0.000664789
-0.00045698
0.000728877
-0.000533019
0.000261121
9.7623e-06
0.00013404
-0.000124253
-1.95493e-05
0.000548655
-0.000804197
-0.000110137
0.000365678
5.14507e-05
-4.92248e-06
4.29142e-06
-5.08196e-05
-0.000129441
0.000306097
-5.35117e-05
-0.000123143
0.000343534
-0.000196335
-0.000264357
0.000117158
0.000111657
-4.95249e-05
-5.30188e-05
-9.11289e-06
-0.000903481
0.000106349
-0.00015128
-0.00026238
0.000226275
-0.000660949
0.000697054
6.8898e-05
-6.37289e-05
-5.60249e-05
-0.000402584
3.49648e-05
9.53771e-06
0.000358081
3.15444e-05
0.000112744
-1.43741e-05
-1.84115e-05
1.84709e-07
1.18063e-05
6.4204e-06
0.000164801
0.000133194
-0.000161861
-0.000136134
-6.79718e-05
-0.000101399
7.78831e-05
9.14872e-05
0.000128036
-0.000433285
0.00047393
-0.000168682
0.000161419
-0.000143911
-6.62054e-06
-1.08873e-05
0.000575054
-0.000274452
-0.000293831
-6.77022e-06
-3.72157e-05
1.3603e-05
5.62326e-07
2.30503e-05
5.51952e-06
0.000204223
-0.000146458
-6.3284e-05
0.000355984
-0.000213324
3.55981e-05
-0.000426369
0.000952157
-0.000545337
1.95483e-05
0.000148545
1.82671e-05
-0.000200748
3.39366e-05
-0.000100396
0.000304006
-3.52607e-05
-0.000168349
0.00090505
0.000437469
-0.000598255
-0.000744264
-1.94849e-05
1.16738e-05
5.12729e-06
2.68384e-06
-0.000466246
-0.000101728
-0.000245616
9.82128e-05
-0.000181028
-0.000114389
0.000197205
-0.00028841
-0.000378588
0.000416406
0.000250592
0.000544499
-8.5552e-05
-0.000458947
0.000366377
0.000276723
7.44798e-05
-0.000351202
0.000922326
-0.000223926
-0.0006984
3.47826e-05
-5.98696e-05
6.13555e-06
5.37341e-05
-3.47867e-05
-0.00010487
0.000139657
0.000375753
-0.000386419
1.06656e-05
-5.3466e-05
0.000532802
-0.000479336
-0.000482129
0.000548311
-6.61815e-05
-0.000486392
0.000481984
4.40848e-06
-0.000446882
-1.59789e-05
0.000462861
0.000251866
-5.53033e-05
-0.000196563
-0.00042957
-0.000122208
-3.15913e-05
-7.96573e-05
-2.13416e-05
-6.28013e-06
2.76218e-05
0.000210624
0.000199094
-0.000409718
0.0001807
-0.000247075
6.63743e-05
0.000157519
-0.00011388
-4.36384e-05
-8.14888e-05
0.000107977
-2.64882e-05
-0.000611682
0.00075101
-0.000139328
-0.000114643
6.33885e-05
5.12549e-05
-0.00024787
0.00031168
-6.38104e-05
-7.45885e-05
3.25721e-05
4.20164e-05
0.000909111
-0.00099222
8.31085e-05
-0.000314255
0.000331814
-1.75598e-05
-4.90891e-05
0.000115646
-6.6557e-05
0.000264344
-0.000240714
-2.36296e-05
-0.000277139
0.000320976
-4.38369e-05
3.38052e-05
7.14569e-05
-0.000105262
-0.000114632
0.000334259
-0.000219627
-0.000193583
-5.22623e-06
-0.000230767
0.000148598
8.21697e-05
-0.000301758
0.000335529
-3.37705e-05
3.37992e-05
0.000119279
-0.0002096
-0.000653667
-0.000169146
-6.29446e-05
-0.000366561
-8.74187e-05
0.000171152
-9.97816e-05
0.000464292
-0.000120758
-5.94725e-05
-6.99689e-05
0.000174565
2.32565e-05
-0.000197821
-0.000208489
0.000116502
9.19877e-05
-8.11435e-05
9.34583e-05
-0.00105999
0.00136063
0.000655304
-5.00926e-05
-0.000605211
-0.000925064
-0.00018975
-2.16404e-05
0.000125557
-0.000116291
-1.09259e-05
0.000127217
-0.00035299
-2.66059e-05
-0.000770495
-0.000141357
8.75439e-05
-0.000215947
0.000128403
2.93006e-05
-1.0745e-05
1.19679e-05
-3.05236e-05
-0.000192765
9.65153e-05
0.000482713
-0.000386463
-0.000869271
0.000855459
0.000682701
-0.00066889
1.0936e-06
8.54268e-07
-1.30927e-05
1.11449e-05
-0.00117262
0.00113012
-5.12063e-05
9.37103e-05
-0.000279286
0.00022869
-2.87027e-06
0.000201187
-0.000182694
-5.32796e-05
-3.575e-06
-2.27337e-05
-0.000106031
0.00013234
0.000135186
-0.000260717
-0.000247451
0.000372983
0.00012129
-0.00013712
-0.000233503
0.000249332
-0.000113241
7.37718e-05
0.000151126
-0.00020232
5.06484e-05
0.000585706
-0.000434035
0.000785636
-0.000680747
-0.000189212
8.43223e-05
-0.00138451
-3.43948e-05
0.000246286
0.0002845
-0.000353751
6.34937e-05
5.75683e-06
0.000236948
1.49432e-05
-4.72331e-05
-0.000204658
0.000715042
-0.000229214
-3.87249e-05
-0.000447103
-0.000340407
-0.000246665
3.91842e-05
0.000547887
-8.24407e-05
5.69106e-05
0.00124225
-0.00121672
-0.000112168
1.58245e-05
9.63436e-05
6.98177e-05
-4.90682e-05
-8.82694e-05
6.75199e-05
-0.000283779
3.02897e-05
-3.08787e-05
0.000284368
7.22386e-05
-7.34858e-05
-4.55251e-05
4.67723e-05
-7.82945e-05
0.000118122
-0.000226554
0.000186727
-7.4699e-06
5.38539e-05
4.24977e-05
-8.88817e-05
3.25772e-05
-2.5276e-05
0.000101559
-0.00010886
0.000144292
-5.4125e-05
-0.000224812
0.000134646
0.000186272
-0.000194396
7.7532e-05
-6.94081e-05
3.58467e-05
2.2715e-05
-0.00106687
0.00100831
-0.000143799
5.65053e-05
-0.000772156
0.00085945
0.000854341
-0.000856768
6.76128e-05
-6.51852e-05
0.000192808
-0.000292118
-0.000139191
0.000238501
-6.39209e-05
-9.26453e-05
6.06849e-05
9.58814e-05
-0.000116645
3.21432e-06
7.3869e-05
3.95613e-05
0.000153318
-0.000138119
3.69451e-06
-1.88937e-05
6.33898e-05
0.000688281
-0.000385491
-0.000366181
-1.21973e-05
0.000254465
-0.000144055
0.000128978
-8.11468e-05
-6.00287e-05
-6.92713e-05
3.57656e-05
0.000356139
-0.000136018
0.000124804
1.62423e-05
-5.02808e-06
-1.09416e-05
6.32757e-05
9.62105e-05
5.32049e-05
-0.000532463
0.000479258
5.26448e-05
-0.000591845
0.0005392
4.04212e-05
-0.000540041
0.000499619
7.1378e-05
-6.65893e-05
-4.9312e-05
-0.000144327
-2.83385e-05
4.41026e-05
-6.80659e-05
5.23019e-05
-1.19263e-05
2.34467e-05
-0.00093491
0.00092339
-0.000336656
-0.000346654
0.000421766
0.000261544
0.0010323
-0.000441424
-0.000788591
0.000197711
-0.000647317
0.0011485
-0.000861998
0.000360811
1.66582e-05
-3.83581e-05
5.10006e-05
1.64641e-05
-0.000129266
0.000113306
-0.000613056
-6.8119e-05
0.000296797
0.000384377
4.15688e-06
-0.000299917
1.64743e-05
-9.02375e-05
0.000234519
5.69055e-05
-1.36073e-05
9.01565e-05
-7.25206e-06
-6.92971e-05
-6.28726e-05
3.81165e-05
2.47562e-05
-0.00027474
0.000317082
-4.23422e-05
0.000400223
-0.000245882
-0.000254737
0.000105782
-0.000380203
0.000333245
-5.88248e-05
1.90867e-05
-6.24923e-05
-0.000568714
3.38902e-05
-5.7509e-05
0.000592333
-0.000333554
-1.65928e-05
3.693e-05
0.000313217
-0.00011871
-5.53998e-05
0.00011596
5.81506e-05
9.03628e-05
0.000142232
-0.000190388
-4.22066e-05
-0.000279557
0.000457241
0.000325641
3.06568e-05
-0.00106821
0.00109466
-5.71066e-05
2.77654e-05
8.88749e-05
-4.44017e-05
-0.000137024
-0.000195567
8.10056e-05
7.24034e-05
-9.65112e-05
-8.84865e-05
0.000112594
3.71075e-05
-4.00656e-05
-5.776e-05
6.07181e-05
2.79925e-05
0.000309527
2.50283e-05
-0.000362548
-0.000181749
-0.000110046
8.3306e-05
-0.000322031
-6.07726e-05
0.000280047
0.000102757
-0.000186613
9.82142e-05
0.000246264
0.000121493
-7.38602e-05
2.87234e-05
-0.000565918
0.000325853
0.000448278
-0.0005599
1.18128e-05
0.000552023
-3.93585e-06
-0.000707605
4.53178e-06
0.000722359
-1.92857e-05
-1.83927e-07
0.00069012
-0.000670611
-1.93254e-05
-3.54386e-05
0.000558622
-0.00054716
2.39767e-05
-0.000538151
0.00100815
-0.000732376
-5.42861e-05
8.87411e-05
-0.000135846
0.000101391
0.000278478
-0.000197693
3.50734e-05
-0.000115858
0.000112395
-9.03027e-05
4.56561e-05
-6.77484e-05
-6.16603e-05
6.37981e-05
-4.1957e-06
2.05786e-06
-0.000951729
0.000120162
0.000933271
-0.000101704
-0.000104675
0.000755209
-0.000807372
0.000156838
-0.000200911
0.000107602
0.000390916
-0.000297607
-7.11238e-05
9.97708e-05
-5.90234e-05
3.03764e-05
-0.000171087
-7.26529e-05
0.000695124
-0.000451384
-4.15039e-05
0.000113506
0.000110376
-0.000182378
2.59159e-05
-5.66694e-05
0.000104892
-0.000585352
0.00056231
3.29019e-05
-3.10792e-05
5.21853e-05
0.000330043
-0.000277835
1.11822e-05
6.158e-05
6.59352e-05
-0.000100252
-2.72637e-05
4.02852e-05
-1.65511e-05
0.00031736
-0.000341094
3.75431e-05
-4.19579e-05
4.15224e-05
0.000552018
-0.000337818
-0.000659806
0.000736605
-0.000382993
0.000369583
-0.000158638
7.70402e-05
8.09721e-05
3.02126e-05
2.03194e-05
7.85806e-05
-0.000129113
0.0004737
-0.000748562
-0.000594409
5.7506e-05
-8.65259e-06
-7.66878e-05
-0.00042525
0.000470853
0.00100964
-0.00105524
0.000842686
-0.00017053
-4.66025e-05
-0.000625554
7.59419e-06
7.12393e-06
7.41871e-06
-0.000399206
0.000265111
0.000497706
-0.000240537
6.55869e-05
-7.18192e-05
0.000284778
-0.000799668
0.000691143
-0.000108435
6.20969e-05
-6.10713e-05
0.00010741
-8.93845e-05
0.000315378
-0.00046741
0.000241417
-0.000694583
0.00061356
0.000636282
0.000172327
8.2872e-05
3.14359e-05
-3.98432e-05
1.93596e-05
-1.09523e-05
-0.000126543
-0.000308818
0.000230961
-0.000124254
0.000120747
0.000114177
-0.00011067
-0.000111914
-0.000211927
0.00079942
0.000135528
-1.59529e-05
-7.79817e-05
0.000184008
-1.79702e-05
0.000150147
4.77903e-05
-4.13026e-05
2.99523e-05
3.98654e-05
-5.38162e-05
-1.12876e-05
2.29996e-05
0.000125598
5.19307e-06
-2.58072e-05
0.000216036
-4.65699e-05
-8.6878e-05
5.75377e-06
0.00025859
-4.01717e-05
-0.000236968
-4.93938e-05
3.04738e-07
-0.00051519
2.87976e-05
-5.07617e-06
-0.000340441
-0.000120498
-0.000715516
-1.90218e-05
2.45414e-05
-4.55852e-05
-5.35005e-05
-6.9562e-05
-4.2385e-05
0.000376644
-0.00014917
6.80267e-05
0.000362838
0.000576994
-9.25958e-05
1.84588e-05
-3.73488e-06
-1.97253e-05
1.27152e-05
2.75618e-05
-0.000218616
0.000184248
0.000506169
-0.000531206
2.4569e-05
4.67919e-07
1.25629e-05
-0.000479544
0.00034995
7.17752e-05
-0.000202288
0.000128375
2.37395e-05
-0.00016826
-4.86333e-06
0.000149383
0.00026848
0.000454842
0.00011638
0.000139336
-3.67646e-05
-0.000182074
0.000184342
-0.000241368
5.26867e-05
4.33937e-06
-0.000119782
3.43967e-05
0.000106099
-2.07135e-05
0.000239255
-4.84925e-05
-0.000167023
0.000232427
-2.20803e-05
-0.000150635
-5.97115e-05
-7.95685e-06
-7.3879e-05
2.43859e-05
5.74499e-05
0.000428101
-0.000120327
0.000137465
-0.000408867
0.000677714
1.78814e-05
-0.000114272
0.000215981
-0.000148244
0.000164246
-0.000111949
-1.46812e-05
-2.99905e-05
3.58226e-05
8.84904e-06
-8.85478e-05
0.000125183
-9.18537e-05
5.52184e-05
6.70984e-05
0.000136305
-1.90613e-05
-0.00062284
0.00102706
-0.000732541
0.000328318
5.98612e-05
-0.000231626
-6.23019e-05
3.66238e-05
0.000103429
1.16287e-05
1.13177e-05
0.000179481
-1.99301e-05
-0.000998145
0.000882532
3.57809e-05
5.91892e-05
5.62431e-05
-5.9334e-05
-5.60983e-05
-0.000315124
1.31608e-05
0.000140516
0.000161447
2.17543e-05
-0.000468637
-6.95349e-05
0.000321401
0.000391686
-0.000170885
3.50945e-06
-2.04459e-06
2.97755e-05
-3.12404e-05
-1.67835e-05
-1.18974e-05
7.83599e-05
-4.9679e-05
0.000102406
0.000150049
-4.89116e-05
7.58292e-05
5.48348e-05
-7.57091e-05
-5.49548e-05
-1.14277e-05
-6.01493e-06
2.35782e-05
0.000500117
7.20197e-05
0.000277179
0.001206
0.000149793
-0.00116891
-0.000186886
0.000251713
8.17492e-05
0.000129639
-0.000667933
0.000173941
0.000595124
-0.000101132
-0.000201933
0.000176744
-0.000141846
0.000167035
2.48585e-05
-0.000126837
7.51716e-05
2.68068e-05
5.21477e-05
-9.64463e-05
4.9933e-05
-5.63448e-06
-0.000201041
0.000690839
4.19978e-05
-0.000531796
-0.000343315
0.000943675
7.32825e-05
-0.000673642
0.000730906
3.29623e-05
9.2718e-05
-0.000856587
-5.65172e-05
8.21948e-06
7.65171e-05
-2.82194e-05
6.56725e-05
0.000144951
-0.000213048
0.000443462
0.000409484
0.000493688
0.000109779
0.0005157
0.000127576
0.000651016
0.000126468
0.000639335
-7.28837e-06
-1.24919e-05
4.26776e-06
1.55125e-05
-0.000312048
4.24448e-05
2.82353e-05
-0.000391953
0.000451814
-1.64258e-05
5.30496e-05
0.000232826
-0.000221509
4.54404e-05
1.60224e-05
-2.19987e-05
1.66283e-05
-0.000145833
0.000149008
-1.98034e-05
-3.46622e-05
-0.000109543
0.00013744
6.765e-06
1.87343e-05
0.000627343
-0.000416322
0.000964127
6.13801e-05
-0.00101191
-1.35951e-05
-0.000321852
0.000343189
0.000378885
0.000132247
-0.000260522
-7.33193e-05
0.000201594
-6.61562e-05
-2.76932e-05
5.8536e-05
-6.18448e-05
0.000122326
0.000250087
-9.07776e-05
-1.78671e-05
2.58884e-05
-0.000950879
0.00092289
-0.000397261
-0.00016253
-8.15805e-06
4.67153e-05
9.91181e-05
-4.08242e-05
-0.000105009
-8.02659e-05
0.000686391
2.04635e-05
-0.000626588
-9.31617e-05
0.000737668
2.29634e-05
-0.00066747
3.47956e-05
-1.9241e-05
-3.21028e-05
1.65482e-05
0.000253249
-3.32853e-05
-6.07479e-05
-0.000159215
3.46746e-05
-0.000141337
0.000178763
-7.21003e-05
-3.95307e-05
6.9483e-05
-0.000106916
0.000141275
-5.18699e-05
1.75107e-05
-0.00027866
-5.34525e-05
0.000196418
0.000135695
-9.42742e-05
0.000114615
-4.59461e-05
2.56055e-05
0.00066914
1.41618e-05
-1.10977e-05
-0.000672204
-1.05149e-05
2.8816e-05
-3.19085e-05
0.000495178
-2.4093e-05
3.01712e-05
-0.000501256
0.000224199
-0.000130427
-0.000149546
5.57743e-05
-0.000619992
-2.46527e-05
-6.49015e-05
0.000709546
-0.000530403
-8.74711e-05
1.49834e-05
0.000602891
-7.16121e-05
3.61182e-05
7.09445e-05
-3.54507e-05
-0.000138463
5.60391e-05
0.000124966
-4.2543e-05
-0.000211016
-6.87459e-05
0.000219814
5.99481e-05
-0.000394883
0.000283425
0.000147223
0.00076607
8.09049e-05
-3.89604e-05
5.67011e-05
3.83626e-06
-9.08662e-06
-0.00122288
-0.00011512
0.00117671
0.000161296
0.000594545
0.000218067
-0.000182134
-0.000630478
7.45146e-05
-3.85633e-05
-2.86976e-05
-7.25366e-06
-6.45055e-06
1.39246e-05
-2.57035e-05
1.82295e-05
-1.69808e-05
6.46592e-06
-0.000185621
9.62299e-05
-0.000596171
0.000685563
0.000126498
-0.000107761
3.1216e-05
-4.99535e-05
0.000208189
-0.00020269
1.634e-05
-2.18387e-05
-7.66554e-05
0.000283134
-0.000257461
5.09828e-05
0.000176311
-0.000143289
-2.80898e-06
0.00110051
-0.000944198
0.000250444
-0.00040676
-0.000325879
-0.000308169
0.000351952
-7.95014e-05
1.46651e-05
-6.3819e-06
7.12183e-05
-0.000145973
-2.93159e-05
3.68264e-05
-0.000315768
0.000226777
-0.000122025
-7.85864e-05
-2.22578e-05
2.92321e-05
-0.000145364
9.79022e-05
0.00012619
-7.87285e-05
5.3263e-05
0.000243848
-0.000247347
-4.97637e-05
8.6538e-06
-9.01645e-06
0.000221692
-0.000413136
0.000488152
0.00111779
-1.65964e-05
2.89221e-05
1.3116e-05
-2.24952e-05
-0.000167929
0.000177308
-6.04118e-05
4.13899e-05
7.56184e-05
-0.000122795
8.00781e-05
6.54109e-05
-0.000165639
0.000126144
-0.00102451
0.0003656
9.61483e-06
-0.00107209
-0.000647003
5.08726e-05
0.000110513
0.000141211
-0.000224022
-0.000119121
0.000351696
-0.000309103
-5.07221e-05
2.59892e-06
2.67816e-05
0.00010844
0.000109224
-0.000150566
-3.51318e-05
6.36569e-05
-7.64425e-05
4.79174e-05
-0.000798456
-9.10157e-05
0.000221538
0.000321895
-0.000271747
-0.000254728
0.00020458
-0.000160667
-0.000972881
7.48064e-05
0.00105874
-6.89515e-05
-0.000999734
0.00102766
4.10272e-05
9.22828e-05
-0.00010869
-0.000110135
-0.000341653
-0.000413597
0.000433399
9.37786e-05
7.71622e-05
-0.000107805
-6.31353e-05
3.77401e-05
2.77419e-05
-2.78218e-05
-3.76602e-05
-0.000794129
-0.000279558
-0.000168966
-3.96316e-05
-2.32522e-05
0.00023185
0.000102259
-1.56887e-05
-0.000100522
1.39522e-05
0.000237859
-7.77781e-05
-1.65799e-05
3.19374e-05
2.21856e-05
6.23214e-05
-0.000128363
-2.25063e-05
-1.60944e-05
-9.35666e-06
4.3953e-05
-1.8502e-05
9.42834e-05
4.09476e-05
-2.0342e-05
-0.000114889
5.39298e-05
0.000763426
-3.75815e-05
-0.000779774
7.32398e-05
0.0006711
-4.49107e-05
-0.000699429
3.1255e-05
-3.03207e-05
-1.70287e-05
3.13302e-05
-0.00107725
0.0010775
-3.15847e-05
0.00024871
-0.00151095
5.5253e-05
0.00120698
7.81939e-05
5.74807e-05
-5.91735e-05
-7.6501e-05
0.000137844
9.96704e-06
-2.84148e-05
-0.000119397
0.00021053
-0.000404613
0.000285199
0.000763454
-0.000570181
-0.000731424
1.36882e-06
2.27657e-05
6.64026e-06
-3.07748e-05
-0.000103044
0.000103986
-2.46492e-06
1.52268e-06
-3.5012e-05
4.06385e-05
-2.30412e-05
1.74148e-05
-0.000723187
0.000232221
0.000470397
2.05684e-05
8.76633e-05
-1.17721e-05
3.84067e-05
-0.000114298
0.00010558
-2.73683e-05
3.49183e-05
-0.000113131
0.000273301
2.86081e-05
9.56029e-06
-0.00031147
-3.32406e-05
0.000110984
-7.77439e-05
0.000310134
-0.00128431
3.97804e-05
-3.83369e-05
-0.000124123
0.00012268
-3.21667e-05
0.000226004
4.54175e-05
-0.000109088
0.00015894
6.00065e-05
-0.000109859
0.00103653
-0.00145925
0.000182921
0.000239799
0.000455037
7.27136e-06
1.31731e-05
-0.000475481
-6.26686e-06
-3.9205e-06
6.68884e-05
8.774e-05
8.3248e-05
-0.000930762
0.000759774
-3.23541e-05
-8.31446e-05
0.000120849
-5.35004e-06
6.91983e-06
0.000169467
-0.000221834
4.54469e-05
-1.19474e-05
-7.95853e-05
0.00010378
-1.22471e-05
0.00114569
-0.000757492
-0.000108813
0.000171839
-0.00018728
2.23214e-05
6.27034e-05
-5.35888e-05
0.000837337
-0.000572724
5.26223e-05
-0.000317235
0.000158092
0.000507973
-9.10118e-05
7.58142e-05
-5.15488e-05
-1.83347e-05
-0.000118335
2.37586e-05
0.000112911
0.000720443
-0.000192002
-0.000521974
-6.46669e-06
1.3393e-05
-2.42846e-05
2.30196e-05
-1.21281e-05
-4.03281e-05
-2.19891e-05
4.1458e-05
4.21111e-05
-1.0521e-06
0.000107127
9.11561e-07
-0.000106986
5.97081e-05
0.000161132
2.23513e-06
-1.09304e-05
0.000281997
1.35225e-05
-1.09977e-05
0.000103056
1.33452e-05
-3.61884e-06
7.79369e-05
0.000290777
-0.000312022
4.63595e-05
-2.51139e-05
0.00115071
-0.00112937
-0.000297702
-4.87533e-06
-0.000613047
0.000189166
0.000529663
-3.18004e-05
4.68003e-05
-3.44848e-05
0.000668956
-2.68365e-05
0.000503573
-5.08794e-05
3.51343e-05
4.27996e-05
5.43659e-06
-3.50229e-05
-7.23499e-05
0.000101936
3.2323e-05
1.69943e-05
-4.96696e-05
3.5229e-07
5.90921e-05
-7.74267e-05
6.09409e-05
-9.9892e-05
8.59198e-05
-4.69687e-05
0.000710136
0.000101602
-4.56679e-05
0.000178248
0.000165138
-0.000255729
0.00022029
-0.000481261
0.000481078
-0.000468847
0.000364172
-0.00112686
0.00112951
9.64237e-05
-9.90731e-05
0.000308175
0.0004969
-0.000329772
-0.000407233
-4.12016e-05
9.15708e-05
-0.000237924
-0.0001496
0.000482478
-0.000745455
-0.000140561
0.000403538
-0.00093772
0.00042843
-0.000138003
0.000647294
-3.12474e-05
0.000107861
-0.000342082
0.000265468
-1.01307e-05
-7.05223e-05
-0.00113197
0.00121262
8.45692e-05
-0.00037556
0.000754958
0.000180222
-0.000807641
-0.000127538
-2.59028e-06
-2.72481e-07
4.83032e-05
0.000754442
-0.00068865
6.06773e-05
0.000754086
-0.00081548
0.000188969
0.000530724
-0.000493953
7.3008e-05
5.95341e-06
0.000102942
-6.63705e-06
-0.000135792
1.04364e-06
0.000133697
6.06507e-05
-9.61813e-05
8.64178e-05
-5.08873e-05
0.000622118
-0.000525877
-4.72261e-05
-4.90149e-05
0.000782223
-0.000661307
-2.81364e-05
-9.27797e-05
0.000109343
0.00152174
-0.00119273
-0.000438354
-5.21173e-06
1.93527e-06
4.30077e-05
-3.97312e-05
-0.000989677
-0.000636955
0.00105276
0.000573874
-1.94899e-06
-2.40692e-05
-6.53948e-05
9.14129e-05
-4.40068e-05
7.35522e-05
9.65775e-05
-0.000126123
3.9296e-05
-6.62903e-05
-4.84994e-05
7.54936e-05
0.000118717
-4.43888e-05
0.000635807
0.000678957
-0.000945998
0.000385547
0.000574603
-0.000787344
0.000325023
-3.15532e-05
8.02057e-05
-7.03665e-06
1.37852e-05
4.07743e-05
-4.75228e-05
0.000685703
-7.59273e-05
0.000145434
-7.04446e-05
2.77563e-05
-1.21219e-05
0.000135694
5.72638e-05
-0.00010017
-9.27886e-05
9.19296e-05
0.00088993
-0.000763793
-0.000269811
-0.000388836
0.000321991
0.000837862
-0.00078898
-0.000251299
0.000202417
-9.51765e-05
0.000197649
7.42714e-05
0.000210548
3.82333e-06
0.000117443
9.18526e-05
-4.5421e-05
2.50254e-05
-3.73664e-05
9.3251e-05
0.000526045
-0.000635194
0.000109148
-0.000394456
0.000282234
-0.00124228
0.00135451
-0.000270641
0.000216932
0.000399874
-0.000346165
0.000114744
3.39986e-05
-6.00037e-05
-8.87386e-05
-0.000433914
-2.86276e-05
0.000595503
-0.000132962
0.000214861
-0.000183651
-0.00038095
-5.94658e-06
-9.64663e-07
3.17637e-06
0.000111429
-8.24559e-05
8.57709e-05
3.22419e-06
-0.0001052
-1.06796e-06
0.000147539
-4.70914e-05
-0.00022698
0.000126533
0.000150784
-0.000244136
0.00029153
-0.000198179
3.78931e-05
2.83171e-05
8.71077e-05
-9.0335e-05
8.70482e-06
9.76526e-05
2.39766e-05
-4.897e-05
6.63891e-05
-4.13957e-05
-1.27862e-05
-8.75816e-05
0.000116307
-1.59388e-05
3.91136e-05
-5.115e-06
0.00010519
-9.28295e-05
6.58335e-05
4.68856e-05
-1.23824e-05
0.000103341
0.000115196
-0.000178175
-8.23847e-05
-0.000721644
-0.00035777
0.000848065
0.00023135
0.000821164
-0.00103878
0.000355102
-0.000137487
-9.88257e-06
-0.000265659
0.000274828
7.13937e-07
-7.45947e-05
0.000338103
-0.000389627
0.000126119
0.000124472
-0.000169959
0.000100563
-5.50751e-05
-0.00131067
0.00115112
-0.000242831
0.000402383
0.000374443
-0.000320355
-0.000128295
7.42068e-05
1.53061e-05
0.000804648
-0.000800842
-1.91119e-05
-0.000334229
1.93851e-05
0.000136435
-0.000525217
0.000501156
-0.000112374
0.000190237
-0.00070543
0.00070315
-0.000187957
-0.000106513
-0.000739649
0.000846162
0.000110834
-4.30899e-05
0.000114576
-0.00018232
1.84107e-06
-5.12397e-06
-4.22073e-07
3.70497e-06
-5.16672e-05
4.89939e-05
-6.35997e-07
3.30928e-06
-3.04408e-05
9.08466e-07
-5.47964e-06
3.0949e-05
-0.000136185
0.000145016
-0.000118503
-1.60665e-05
8.61604e-05
4.84092e-05
-0.000216114
2.63901e-05
0.000139397
5.03263e-05
-2.54624e-05
5.05221e-08
0.000349346
-0.000323935
0.00108725
-0.00111491
-5.15379e-05
7.92005e-05
-0.000250046
4.86938e-05
0.000287954
-1.0971e-05
-0.000276983
2.88815e-05
-0.000177506
1.32426e-05
0.000135382
3.58793e-05
2.96776e-05
-2.34462e-05
-4.21106e-05
1.22701e-05
-5.05963e-05
0.000136228
1.83361e-05
-2.94139e-06
-9.3981e-05
-7.55689e-05
3.93208e-05
-0.00027952
2.19149e-05
-5.51015e-06
-0.000162378
0.000711661
5.28043e-05
-7.43455e-05
0.000571481
2.83271e-05
-4.1186e-05
-0.000551506
8.20489e-06
-1.6599e-05
-0.000623414
-4.08124e-05
-4.33785e-05
-0.000348806
-0.0001821
0.000208875
-0.000964749
-0.000168546
0.000276526
5.67463e-05
4.16346e-05
-2.25518e-05
-9.94129e-05
-0.0011756
0.00119257
-2.91641e-05
2.7512e-05
-6.12205e-05
-0.000125549
-4.46977e-05
-0.000104494
0.000767846
-0.000219947
-0.00064106
0.000655965
-0.000175906
-0.000560325
3.80978e-05
5.99458e-06
-0.000241779
0.000197687
-4.29135e-05
0.000832506
4.82701e-05
6.78335e-05
-6.93524e-05
-3.66538e-05
3.81727e-05
7.28558e-06
4.58905e-06
-7.4465e-05
6.25904e-05
4.09274e-05
-3.17484e-05
2.78887e-06
3.83129e-05
5.80286e-05
-0.00040839
-7.51098e-05
-1.53157e-05
5.45699e-05
3.58556e-05
0.000337658
1.21881e-05
8.93793e-08
-0.000349936
-0.000317997
-7.40238e-05
5.77923e-05
-0.000432875
0.000335952
0.000381701
0.000121928
6.77913e-05
-8.12789e-05
-2.62027e-05
-6.13719e-05
4.7509e-05
1.95713e-05
1.55234e-05
-3.25762e-05
-2.5185e-06
-0.000316686
2.05341e-05
0.000289019
7.13345e-06
0.000289391
0.000345868
-0.000559486
-7.57738e-05
0.000218555
-0.000608003
-0.000332196
0.000495595
0.000384338
-0.000720487
-0.000159446
6.11972e-05
-4.98916e-05
2.64085e-05
-3.77141e-05
0.000113179
0.00015783
-0.000994196
3.19907e-05
-1.22993e-05
-2.5638e-05
0.000112981
1.26002e-05
-0.000103666
3.89202e-05
2.36158e-05
-4.42e-05
0.000896873
-2.30457e-05
-0.000764219
-0.000109609
0.000358998
8.95641e-05
-8.19332e-05
-0.000210184
-2.12794e-05
0.000132264
-0.000100833
0.00109623
0.000153108
-2.07856e-05
0.000270685
4.08769e-05
-0.00038585
0.000311503
0.000499542
-0.000425194
0.000229635
-0.000192917
0.000376611
-0.00041333
9.96073e-05
-0.000234734
-7.52616e-05
0.000210389
-0.000193462
0.000161158
6.65813e-05
-3.42781e-05
-0.000244081
4.7928e-05
4.24992e-05
0.000153654
-0.00109214
0.00108661
8.87842e-05
-0.000686014
0.000445003
-0.000728449
0.000604052
-0.000427334
-0.000233492
0.000227951
0.000106163
-3.61815e-05
0.000858434
-0.00102563
-0.000261934
0.000429132
-0.000223992
-0.000985626
0.00118615
2.3472e-05
-0.00107003
0.00109292
-0.000122305
-0.000486444
0.000431057
0.000355962
-0.000300575
-0.000281954
0.000284994
9.68945e-06
-1.27294e-05
-0.000124174
-4.50721e-05
3.11271e-05
-0.000765165
0.000826851
-0.000419456
0.000147697
-1.06571e-05
4.99916e-05
6.64658e-05
-3.16623e-05
-8.47951e-05
-0.000242805
0.000218047
-1.53903e-05
2.24518e-05
4.96848e-05
-0.000909471
0.00087186
-0.000274611
0.000312222
0.00126655
7.6222e-05