/*--------------------------------*- C++ -*----------------------------------*\
| =========                 |                                                 |
| \\      /  F ield         | OpenFOAM: The Open Source CFD Toolbox           |
|  \\    /   O peration     | Version:  v1912                                 |
|   \\  /    A nd           | Website:  www.openfoam.com                      |
|    \\/     M anipulation  |                                                 |
\*---------------------------------------------------------------------------*/
FoamFile
{
    version     2.0;
    format      ascii;
    class       volScalarField;
    location    "0.12";
    object      p;
}
// * * * * * * * * * * * * * * * * * * * * * * * * * * * * * * * * * * * * * //

dimensions      [0 2 -2 0 0 0 0];


internalField   nonuniform List<scalar> 
1431
(
98.6651
89.6618
97.9694
91.3752
96.5299
93.7572
94.0761
42.1273
97.4266
94.4214
40.7083
43.6997
98.5669
84.7778
96.6016
94.4318
87.2419
98.7122
88.5693
98.7138
37.2913
84.0795
97.8211
18.6377
97.4743
98.5302
45.8729
97.124
98.8524
88.4886
92.9336
97.8006
92.6893
87.3156
95.2428
94.7296
98.7272
98.0334
95.881
97.4818
98.5143
98.6337
98.6191
95.2252
91.2434
97.4298
89.3093
50.3469
93.427
97.6638
94.6265
95.6923
95.806
46.586
89.8825
96.5169
96.6436
44.8148
86.6539
98.6046
97.1007
93.5825
97.3282
97.9265
95.5996
94.204
96.4677
96.4912
97.6005
88.7917
43.825
86.5771
90.5445
87.6087
85.2282
97.3166
97.466
97.4709
94.7793
98.6984
86.2615
97.4756
78.9307
91.28
35.9273
91.8267
91.5926
96.2393
52.3437
66.5645
96.8466
96.2929
98.1302
95.088
89.5026
92.6846
43.0259
81.2356
94.9271
97.5631
96.7462
94.4541
85.1936
98.6695
97.6667
91.9738
97.7405
46.6758
97.0062
85.3257
98.6515
98.3823
98.4432
98.377
89.118
96.9375
85.3801
90.9769
91.7752
97.6846
90.6018
96.412
47.3593
86.657
43.1574
94.6754
97.8158
95.5714
97.8796
90.8696
87.5249
98.7187
91.1766
86.4268
98.6659
96.436
97.8078
92.8123
46.0022
98.164
96.2111
91.888
86.3976
98.6728
98.9253
92.6616
96.5197
96.5971
94.7072
97.3572
96.8851
97.555
97.5293
91.8927
97.6916
98.0307
43.4243
88.4081
73.196
91.7084
63.4433
98.5188
91.5293
91.6339
47.0219
98.3246
98.2132
88.7545
97.7957
85.2858
62.1327
96.669
96.3326
45.3422
88.7265
43.048
91.3389
92.8045
95.3946
95.2044
94.0007
95.9934
92.8026
23.0079
93.5023
97.4758
43.0207
87.2387
95.6442
48.917
92.6723
96.9001
97.5989
47.6853
91.757
86.3548
81.2319
93.3192
97.6238
98.3153
92.0775
91.6464
65.0482
91.3708
98.1744
92.5845
97.739
97.6905
44.8718
98.1129
42.6298
91.5717
97.7301
92.1476
38.2159
97.3704
97.5767
92.381
92.7673
71.5079
98.0113
93.1787
97.0789
91.6792
97.7538
42.3136
64.8287
83.3554
97.9098
68.4142
42.8434
92.7781
92.5019
97.4484
97.8351
69.0375
97.7229
93.8816
92.8868
92.476
91.5508
92.5296
44.0705
94.2688
96.3961
91.8649
95.1071
56.2164
98.2149
97.9269
95.2684
51.6412
91.7138
91.8664
92.5888
98.4994
91.7103
38.7712
75.6246
97.5606
97.8127
46.1513
92.5778
91.4733
97.9485
75.7783
97.3645
48.9171
56.5764
96.5237
97.4618
97.6783
90.4545
92.3913
60.0245
95.774
56.5294
86.1622
92.2934
97.7111
96.6233
98.4678
92.6814
94.7947
90.8433
78.8835
98.5383
78.7857
41.6797
90.3829
97.6126
97.6301
83.3309
96.7333
73.0953
98.0119
40.4764
97.5969
97.5251
92.0581
96.3144
97.8278
91.0313
97.8924
92.5821
91.6904
89.7971
97.4538
98.6342
86.8749
84.1321
94.5038
92.2821
46.5031
97.2033
82.4815
93.8066
90.4527
97.6799
32.3679
90.6103
84.6017
97.5216
96.6895
94.8752
98.1551
97.565
97.6152
49.6855
91.7042
90.2654
97.6285
97.5651
84.6982
91.6261
98.176
97.9599
72.6905
94.6805
46.0098
97.7552
98.34
81.2459
98.4354
96.9467
93.3548
91.1864
53.4648
85.4263
96.9604
93.9423
97.6402
96.7637
90.1793
97.5838
92.737
46.248
43.1789
47.9341
98.5361
83.7491
97.6042
90.972
91.2949
97.6425
46.5974
97.4421
10.1596
98.7139
88.8076
49.0245
96.533
55.7251
92.8165
98.5549
47.1207
89.4297
92.6068
98.6304
44.8798
98.4228
94.2202
91.9261
97.5213
11.3947
96.4182
94.5295
96.6254
94.3172
92.9729
91.4764
95.392
95.6826
91.6363
71.6685
96.8995
97.8595
97.9715
97.405
94.9221
88.834
98.5424
78.7487
98.41
96.2036
97.4107
94.1093
92.2201
91.0711
97.234
87.7856
94.6733
96.9791
98.5293
96.273
97.587
91.6227
92.1557
94.283
96.7481
98.8443
98.6075
94.1073
90.9037
96.5973
96.7246
98.7286
90.644
98.466
27.8117
98.5703
98.7149
98.6273
98.8772
98.5654
98.4782
98.5257
98.4225
98.4427
98.4137
97.367
48.3626
97.5913
97.6604
97.6329
97.6616
97.709
97.7079
90.9343
85.957
87.3032
97.2779
92.5503
98.4085
91.5762
93.4046
84.0484
47.0499
98.1759
97.3131
84.471
97.4433
47.2959
93.5115
96.9663
96.9275
98.6551
47.2034
96.793
44.7665
95.0158
95.3184
98.7017
84.2774
46.1655
48.4494
95.5841
97.8283
97.6729
95.4105
85.2211
97.6689
46.2455
95.2508
97.6221
85.8897
98.7314
97.6219
97.893
97.9709
46.3952
95.537
98.1101
98.1185
88.1989
98.7444
98.2912
46.2878
95.7949
96.333
98.3454
98.3882
97.803
98.3203
47.1982
50.984
97.5476
95.5045
96.0221
95.7344
98.2307
91.246
98.7492
98.4206
98.2146
90.9278
98.3542
98.1792
91.5752
50.5589
89.8779
95.8307
96.1018
91.5399
98.3118
91.7242
47.3273
97.3365
97.2588
92.2924
91.4066
95.9819
98.4888
92.9174
98.2168
98.6876
92.0554
95.498
98.1201
96.4197
97.5035
98.4596
98.6129
95.7015
96.5088
92.2897
92.9237
85.2127
97.7294
98.2703
93.5465
98.4183
98.4198
96.1684
97.4218
93.2357
91.7852
98.4146
90.7205
48.8026
98.3465
51.4921
82.0756
96.8496
36.9195
96.6185
92.1985
91.6493
98.4069
98.1957
96.7157
74.2819
98.4695
95.1463
96.5455
92.9171
91.5198
95.8687
98.4671
98.8403
96.8244
80.9831
91.2763
91.1682
89.9677
97.7833
93.3439
95.3442
96.3064
95.7776
98.4446
98.6933
95.2135
93.2676
98.4272
98.1502
89.7886
94.1085
85.3671
45.1005
75.7833
98.2018
96.3878
96.2599
87.5072
94.5982
19.063
86.9867
92.4294
97.6513
91.6232
97.11
96.0774
98.5029
96.0615
97.6618
40.4815
91.6802
98.4903
94.9805
88.1308
91.6903
96.5059
95.9069
97.1903
90.1698
98.108
95.3643
84.5258
92.9946
97.5858
96.3881
95.0649
98.4997
96.6766
90.7673
44.2442
91.4192
96.8986
92.5251
97.4539
79.8118
91.8059
96.1457
98.404
97.4666
90.4266
94.5054
41.9966
91.2336
98.3401
98.487
95.0703
88.8572
97.5958
95.0382
97.4537
85.8007
98.7728
56.4894
67.2823
97.9631
98.5609
96.7851
98.4779
90.7964
98.6603
98.6223
96.1058
97.5874
96.5326
87.7923
35.1615
98.4007
98.3572
91.6402
30.3256
83.8266
92.6948
91.8176
91.833
93.2707
91.6987
38.789
97.3298
97.1795
98.4914
97.0369
97.3894
88.4961
93.0521
98.8089
98.4461
89.19
90.0809
98.5135
81.4219
91.9385
90.3975
80.2502
85.1102
92.2369
97.0429
89.7038
98.1826
24.0435
94.0262
83.4131
92.8043
96.1559
96.5265
92.1268
89.9188
98.706
98.2923
98.5245
98.4791
96.8364
92.2841
97.1939
98.5726
92.5329
49.7216
97.0175
97.832
87.5965
93.5864
98.6072
49.8105
48.4863
97.7921
83.3182
98.865
91.8402
92.4173
98.7632
98.2328
79.1249
40.4802
91.803
96.3112
96.7447
91.8924
93.4895
98.4991
96.0712
83.9548
98.683
95.2699
93.86
97.877
92.9635
90.0759
94.5343
8.7803
94.2187
98.1136
97.7276
94.7858
91.6443
32.8627
89.9865
98.8059
91.6529
97.9354
97.7814
94.6844
94.1456
96.5991
92.7574
98.5433
92.3807
92.8672
98.0099
97.669
93.9219
91.0509
96.5932
97.6409
97.8776
92.3085
97.7916
96.8315
96.5223
87.5843
55.0172
94.4461
94.262
96.693
93.4048
92.4376
98.6999
97.6686
97.8108
97.5134
90.7168
91.8637
92.7431
91.7002
97.8707
97.508
83.649
97.784
98.6037
98.4883
17.1417
97.4861
95.874
96.5816
94.1692
50.0683
91.1891
92.9778
40.9426
98.3103
47.3568
98.4157
97.0902
98.5577
97.1875
97.6339
87.9062
96.7949
98.2687
86.4731
96.5675
98.2961
91.3072
96.9986
95.9578
98.4424
76.5444
39.6611
97.0425
92.3397
46.8535
92.4391
98.6607
97.3246
94.9166
97.3025
98.1478
97.9716
97.7647
96.3213
65.515
97.8597
48.6137
96.6955
74.6545
98.8346
90.4336
97.9466
92.507
96.9449
97.1
90.7718
99.5339
97.683
97.6906
92.2117
92.104
97.7912
92.8868
98.5371
97.0027
98.5604
94.9234
52.7323
96.3991
98.3762
49.0582
97.786
92.539
85.6845
98.6463
93.4438
98.0403
96.5444
97.0609
44.6436
91.8742
97.4195
42.8872
52.3626
45.873
42.4341
60.3719
97.8898
97.8951
98.0796
97.962
52.8646
97.9035
94.3736
95.9348
95.2414
93.5431
67.0514
44.9717
93.0069
77.7907
72.6677
92.9098
97.8372
97.6976
93.0121
97.57
97.5041
92.9654
97.4724
98.5075
77.3924
97.499
98.5479
96.033
84.9233
88.1372
44.2467
98.5309
86.0444
84.2011
98.021
94.5186
47.266
89.6111
98.7571
75.8741
95.5637
98.5505
89.0257
91.5059
47.655
96.2758
97.4594
94.9672
92.833
92.4147
96.3373
45.7514
97.8582
84.6603
98.5757
98.2583
96.6958
97.2595
61.0082
95.9167
95.5669
97.2957
91.3364
96.7437
98.9843
90.0749
98.4591
94.8484
98.0529
86.5692
98.3691
97.9398
96.6189
42.7264
98.1394
95.417
96.9508
98.7057
84.668
91.8393
97.2358
96.1083
91.4964
96.0277
92.6669
37.9434
97.6435
86.0298
98.7135
98.4246
92.5519
28.1561
96.8613
97.1096
96.2272
42.1358
97.331
76.0742
94.2479
94.9301
91.8178
95.8459
98.2089
96.4918
92.5092
51.4292
33.9003
97.4088
97.1195
91.1154
93.4516
87.6526
98.8217
91.2706
95.8157
98.6313
91.6156
98.7506
35.4772
98.5942
91.9316
97.0852
89.9044
97.9732
93.1625
97.5857
95.5586
92.0903
93.763
97.5623
94.7088
93.2469
24.976
18.1997
93.7152
98.5523
86.1407
91.6199
97.6101
46.4068
90.9876
95.5679
92.7606
69.6722
48.4209
92.0793
88.1736
97.816
94.8322
73.702
46.6151
98.4097
93.0198
91.5742
56.4177
91.5953
97.793
93.0926
6.80943
98.654
43.5331
59.9721
97.7268
98.4701
96.0074
91.5656
98.2611
91.6993
91.831
91.7067
95.3564
98.5165
95.3345
98.6332
98.3162
64.358
97.5316
97.4361
98.5022
53.1995
96.7168
52.0588
98.8414
98.3479
54.0672
96.9102
64.7057
61.9669
59.0864
50.2926
49.7534
48.4334
56.1962
48.6471
92.3537
91.6094
91.6505
92.1432
91.5164
90.9275
97.6613
88.605
98.3991
94.1479
97.923
91.469
91.5037
98.9684
97.5304
92.8938
96.3772
95.7105
97.6109
89.2579
91.4216
97.8417
95.7168
85.0137
99.0032
98.522
95.5894
80.3023
92.5203
92.5587
45.7257
97.746
97.5701
96.4404
86.5989
98.0584
93.3762
31.2189
97.8992
97.4268
91.8036
95.708
91.8193
92.3172
84.9478
98.5549
92.022
86.5484
98.7307
98.0463
85.1131
98.5588
97.8982
88.1935
95.6682
16.3224
97.6391
39.4656
7.38146
90.5019
47.9957
87.3435
98.527
95.7428
49.2157
91.6634
95.7255
98.3065
68.1811
98.2204
91.8904
97.6045
95.3805
95.3091
98.2104
96.6405
96.6766
64.1616
42.9093
16.0952
81.2604
94.77
92.3761
97.664
92.1637
97.6738
97.551
85.7193
98.6951
45.9078
97.7612
96.1667
47.9718
95.6971
84.8906
98.1634
96.3745
98.3326
80.6382
63.3885
95.5406
97.6202
91.6415
97.5549
42.1409
98.4012
44.1938
95.3498
98.7429
88.3207
42.3201
76.2371
98.5641
97.9942
97.4878
91.5692
47.967
96.126
95.5898
87.42
86.5442
98.7313
98.0957
91.313
92.2145
96.1794
53.85
86.5215
98.1576
98.5735
86.2594
91.4668
97.7354
91.3049
81.2669
90.8744
98.0654
42.6478
96.077
98.4165
95.0105
95.0298
90.6208
86.7706
98.7377
95.8024
70.6076
93.8244
30.093
97.7205
90.2229
92.8543
65.7241
92.9846
91.6852
93.9018
98.5071
97.5925
97.1598
97.022
98.8937
99.1781
88.2206
92.6943
87.3157
91.5205
94.8526
47.7514
98.1019
48.5292
96.7849
97.6058
94.8317
95.6357
88.3118
98.0753
98.369
86.1426
91.4261
93.2919
42.4052
94.1131
94.3516
97.2191
97.1289
91.7021
93.4821
97.6636
67.5569
97.8929
98.7464
47.0769
87.8261
95.1389
96.1415
96.6899
91.6899
98.6358
98.2682
82.5433
92.8591
95.6245
92.1364
92.6066
97.7844
46.6197
96.7545
98.7152
85.0273
97.5143
50.7092
92.4784
97.3819
96.6202
47.9028
98.5111
97.4464
97.5346
39.0746
94.6857
97.9396
96.4247
96.52
39.1949
89.813
47.2219
92.2605
92.0153
90.7641
50.4245
91.5674
42.0744
69.8905
98.0156
98.4706
87.8836
45.3328
98.5908
14.9441
90.5322
97.6581
88.5298
97.6862
95.9143
68.6164
91.6297
86.4272
40.0771
50.8906
98.66
86.3611
91.6052
48.3215
92.0825
89.6125
98.2653
48.4317
93.0495
90.9397
98.3958
83.2916
87.5499
97.8976
95.4237
91.2019
92.1649
58.0958
49.6258
92.141
94.667
95.7884
95.7468
97.7809
97.5778
85.1701
96.8349
90.8792
94.3534
93.5726
97.7303
63.3361
97.6523
91.4706
98.2038
77.037
91.5251
92.0005
97.0749
86.3889
91.7093
92.2097
94.0134
97.7143
91.6976
91.0903
60.4473
50.581
89.8531
96.5099
91.3938
97.6679
97.6733
98.393
96.8589
96.2894
96.8346
96.274
96.3061
91.2477
58.9796
98.367
82.2921
97.9837
89.0647
47.62
94.6103
91.203
87.3873
95.6054
98.1436
42.8005
98.3121
98.4519
98.3723
97.7062
96.3418
96.4927
94.1131
93.5315
92.4673
28.0757
48.9233
83.0383
104.306
87.0617
89.3617
91.7028
97.1569
100.562
96.8467
97.419
98.842
99.612
97.1004
97.2392
90.3787
97.1233
98.4015
96.5395
)
;

boundaryField
{
    frontAndBack
    {
        type            empty;
    }
    wallOuter
    {
        type            zeroGradient;
    }
    inlet
    {
        type            zeroGradient;
    }
    outlet
    {
        type            fixedValue;
        value           uniform 0;
    }
    wallInner
    {
        type            zeroGradient;
    }
    procBoundary3to1
    {
        type            processor;
        value           nonuniform List<scalar> 
48
(
98.8321
98.4722
98.6112
98.778
98.8417
98.1422
98.4722
99.123
98.9997
98.2538
98.2538
98.5623
98.5623
97.3306
96.8858
98.6825
98.7284
98.6863
98.7284
98.75
97.888
98.2271
98.75
98.113
97.9283
98.811
98.5799
98.2271
98.76
98.8149
98.8149
98.8553
98.8553
98.9997
98.7885
98.9791
99.0653
97.9283
98.9485
98.8337
97.3306
99.1621
99.1757
98.75
96.357
98.9131
98.7484
97.6376
)
;
    }
    procBoundary3to2
    {
        type            processor;
        value           nonuniform List<scalar> 
29
(
95.7027
95.7027
91.2784
95.0353
95.7979
96.0418
90.3023
95.0731
93.2763
93.92
95.6978
95.5096
95.643
90.4363
92.0797
90.3225
90.7347
92.1363
94.9791
91.6325
91.8524
90.7347
92.5267
92.1363
92.2768
90.5332
92.1363
95.6859
95.6859
)
;
    }
}


// ************************************************************************* //
