/*--------------------------------*- C++ -*----------------------------------*\
| =========                 |                                                 |
| \\      /  F ield         | OpenFOAM: The Open Source CFD Toolbox           |
|  \\    /   O peration     | Version:  v1912                                 |
|   \\  /    A nd           | Website:  www.openfoam.com                      |
|    \\/     M anipulation  |                                                 |
\*---------------------------------------------------------------------------*/
FoamFile
{
    version     2.0;
    format      ascii;
    class       volScalarField;
    location    "0.37";
    object      nut;
}
// * * * * * * * * * * * * * * * * * * * * * * * * * * * * * * * * * * * * * //

dimensions      [0 2 -1 0 0 0 0];


internalField   nonuniform List<scalar> 
1466
(
0.00071037
0.000819063
0.00077235
0.000827764
0.00150995
0.00148543
0.000802021
0.00275463
0.00206103
0.00132055
0.000209171
0.00127769
0.000143784
0.000573692
0.000884724
0.000741988
0.000168753
0.00122507
0.00110726
0.000512736
0.00115838
0.00177027
0.000521669
0.000837504
0.000637196
0.000605214
0.000965421
0.00293354
0.000505175
0.000981217
0.00201797
0.00299285
0.00200811
0.00217458
0.00137085
0.000889512
0.000594879
0.000585226
0.00189368
0.00176681
0.00138311
0.0021215
0.00167101
0.00236308
0.00242422
0.00142581
0.000680417
0.000710549
0.00179912
0.00110624
0.00073127
0.000821464
0.00103722
0.000746047
0.000631249
0.00360482
0.00052047
0.000809259
0.000524039
0.00357502
0.000625818
0.001012
0.00186022
0.00201816
0.00119329
0.00060181
0.00328314
0.00119204
0.000824744
0.00166063
0.000455907
0.000852548
0.000542285
0.000721044
0.000164987
0.00282678
0.000732436
0.00092992
0.000917937
0.00362733
0.000421335
0.000590328
0.000929891
0.00152601
0.000604123
0.000971697
0.000604049
0.00105775
0.000606236
0.00130496
0.000717784
0.000328154
0.00342488
0.000871413
0.000734234
0.00106617
0.000956965
0.00116956
0.00116248
0.000676756
0.000468342
0.00296314
0.000880136
0.000393177
0.000795416
0.00143585
0.00120196
0.000920343
0.0012438
0.000783768
0.000323065
0.00052865
0.00166398
0.000601753
0.000167361
0.00189289
0.000321701
0.0004505
0.00127477
0.000975234
0.00105175
0.000981838
0.000297017
0.000903822
0.000624102
0.00169116
0.000941673
0.000458672
0.00311632
0.00339978
0.00098648
0.000746431
0.00104033
0.00242722
0.000700806
0.0035843
0.00242902
0.000593166
0.00264589
0.000419633
0.000814412
0.000321202
0.00257404
0.00297265
0.00257337
0.000323479
0.000271241
0.000702742
0.00200623
0.000582915
0.00255516
0.00113696
0.00132454
0.00104287
0.000683862
0.000609051
0.000889872
0.00209229
0.000993136
0.000804243
0.00290729
0.000623145
0.0011988
0.00107086
0.00305355
0.00348457
0.00378834
0.000456096
0.000595044
0.00129928
0.000973353
0.000915816
0.000988505
0.00192012
0.000883083
0.00103397
0.00311533
0.00341938
0.000869359
0.00347572
0.00104483
0.000904471
0.00114356
0.000601683
0.00100267
0.000484139
0.0010268
0.00257195
0.000969153
0.000340929
0.000294158
0.000281664
0.000612339
0.00118982
0.000799983
0.000847083
0.00266807
0.000900698
0.000742101
0.000652657
0.00234207
0.000711756
0.000872025
0.000591648
0.00113283
0.00246479
0.000986057
0.00158154
0.000810586
0.00107085
0.00113344
0.00232464
0.000853382
0.000647179
0.00122224
0.00102037
0.000775428
0.000219143
0.00050483
0.000799151
0.00160135
0.0011356
0.000628328
0.000697441
0.00186389
0.000745642
0.000573841
0.000858036
0.000819066
0.00319088
0.000617663
0.000984075
0.000606783
0.000546133
0.000911578
0.0010847
0.00066384
0.00186467
0.000784486
0.000769066
0.00260153
0.000891057
0.00033501
0.00267409
0.00307529
0.000273758
0.000252233
0.000309955
0.000242677
0.000285149
0.000607611
0.00245502
0.00196721
0.000850228
0.000618801
0.00249031
0.000684054
0.00366188
0.00286467
0.00238516
0.000657678
0.000634777
0.00276694
0.000892506
0.000739761
0.000953107
0.00163069
0.00211073
0.000603575
0.000817085
0.00266767
0.00101052
0.000587977
0.00066826
0.000621339
0.000829703
0.000672555
0.000657996
0.000590822
0.002847
0.000976291
0.000260336
0.000297943
0.000718086
0.000725385
0.000498288
0.0012156
0.000365403
0.00171826
0.000489154
0.000764404
0.00115058
0.00120461
0.00195434
0.00174757
0.000940622
0.00217041
0.00247952
0.00105816
0.000437373
0.000454474
0.0023886
0.000789503
0.00136622
0.00106408
0.00091112
0.000717582
0.000844555
0.000223555
0.00373294
0.00370925
0.00072527
0.000692611
0.00124837
0.00141032
0.000566901
0.00207672
0.000456846
0.00252586
0.00098126
0.00081183
0.00338326
0.00116198
0.000300177
0.000249226
0.000318087
0.00022941
0.000364359
0.000200635
0.000371994
0.000346944
0.000295922
0.000215603
0.000458285
0.000285239
0.000293628
0.00011249
0.000386163
0.000388023
0.000292884
0.00046914
0.00037287
0.000266788
0.00024022
0.000400596
0.000194086
0.000457897
0.000296723
0.000409451
0.00268553
0.00245856
0.000645359
0.00300612
0.000717485
0.000739394
0.000643676
0.00220802
0.000368075
0.00357192
0.00102017
0.00127433
0.00351065
0.00327123
0.000498114
0.000503639
0.000431298
0.000237553
0.000202447
0.000383446
0.000533301
0.000223113
0.000254565
0.000491365
0.000289185
0.000322634
0.000312871
0.000289838
0.00332173
0.000638739
0.000216347
0.00054942
0.00118122
0.00169779
0.000751708
0.00116582
0.00111311
0.000668533
0.000639189
0.000676819
0.000561448
0.00103325
0.00307972
0.00189069
0.00312821
0.000256734
0.000755716
0.00268675
0.000371705
0.00072579
0.000123962
0.000423124
0.00067827
0.00205235
0.000623074
0.00215906
0.000809161
0.00280062
0.00317769
0.00105237
0.000870265
0.000684
0.00144098
0.000237005
0.000439727
0.00393676
0.002108
0.00248978
0.00161589
0.00108963
0.00170063
0.00140809
0.000225869
0.0019936
0.00164706
0.00192071
0.00200408
0.00173427
0.001898
0.00162962
0.00149767
0.00187758
0.000647256
0.00231908
0.00269895
0.000749363
0.00388448
0.00441072
0.00243017
0.00215697
0.00229862
0.00038492
0.000618725
0.00130358
0.00111256
0.00247448
0.00455639
0.00285799
0.0035604
0.00327257
0.00141909
0.00306477
0.00447335
0.000769804
0.00164502
0.00444644
0.00152561
0.0038684
0.00441664
0.00030975
0.00116097
0.00434372
0.00209663
0.0017314
0.00119641
0.00155089
0.000387229
0.00417248
0.000683545
0.00163337
0.000236757
0.00331349
0.00167367
0.000978135
0.00116989
0.0038419
0.00203348
0.000240531
0.000201381
0.00141631
0.00224305
0.00133536
0.00070158
0.00290443
0.000986926
0.00192563
0.000915463
0.00102335
0.00061969
0.00383218
0.00270077
0.00183278
0.000738083
0.00114901
0.000566598
0.000758787
0.00137979
0.00296195
0.00408953
0.000441509
0.000449229
0.000891038
0.00114493
0.000597882
0.00121798
0.000541821
0.00274524
0.00292881
0.00140736
0.00223596
0.0020529
0.00281785
0.00155092
0.00242793
0.000959463
0.000511191
0.00253235
0.000795291
0.00118341
0.00139966
0.00120073
0.00144404
0.00365387
0.00221261
0.000624799
0.000473647
0.000521238
0.00214278
0.00203852
0.000235594
0.000596084
0.000882811
0.00318553
0.00165819
0.00191254
0.00075461
0.00327313
0.00255505
0.00360544
0.00104423
0.000416158
0.00347306
0.00441652
0.00317881
0.00421329
0.00225458
0.000470027
0.000239618
0.00254849
0.00420512
0.000928501
0.00116876
0.000758773
0.0043037
0.00284424
0.00334611
0.00393302
0.00186527
0.000613781
0.00218023
0.0023699
0.000872689
0.000632867
0.0032831
0.00179999
0.00274362
0.00323139
0.000832058
0.00109199
0.00239284
0.00229029
0.00061492
0.00115452
0.00250215
0.00241376
0.000594651
0.00242189
0.000816898
0.00051154
0.00253656
0.00259172
0.000888472
0.00106879
0.00262853
0.0027485
0.00067411
0.0033924
0.00140899
0.00107208
0.00282042
0.00335473
0.000237114
0.000325916
0.00239914
0.000900304
0.000869945
0.00116605
0.00300782
0.0024773
0.00339404
0.00311074
0.00307393
0.000900792
0.00113632
0.000868962
0.000445219
0.00260875
0.0023537
0.000741334
0.00397965
0.00180428
0.00308766
0.000943724
0.00323591
0.00279669
0.000728802
0.000497845
0.00295231
0.000613909
0.00104587
0.000783548
0.000972757
0.000889761
0.00060826
0.00217208
0.000960693
0.00200959
0.000510852
0.00118548
0.00101665
0.00415993
0.00276003
0.001685
0.000970805
0.00043677
0.00281543
0.00293255
0.00271033
0.00436759
0.000884478
0.00108444
0.00110562
0.00302762
0.000544942
0.00204853
0.00064922
0.00282613
0.000915256
0.00239186
0.00123695
0.00115892
0.00112042
0.0034818
0.00263344
0.00421477
0.00122463
0.00275464
0.00207025
0.0025857
0.00115936
0.000871375
0.000781799
0.00403685
0.00243718
0.000825786
0.00245045
0.00433891
0.00270685
0.000709706
0.00380065
0.00166133
0.00109733
0.00077136
0.000292041
0.000816958
0.000220612
0.000310453
0.00271598
0.00422404
0.000871438
0.00060967
0.000820665
0.00092624
0.000196262
0.000934747
0.00112292
0.000714735
0.00161208
0.000731125
0.000215366
0.001311
0.000647092
0.000984349
0.00210096
0.0010213
0.00211907
0.000746722
0.00332023
0.000654394
0.00119693
0.00250407
0.00251731
0.000891577
0.00289916
0.00387507
0.00208242
0.00121808
0.00259082
0.0039676
0.00255183
0.00085193
0.000997113
0.00024067
0.00239363
0.000830575
0.0010716
0.000801753
0.00337647
0.00222099
0.000853864
0.000888599
0.00287108
0.00194737
0.0011463
0.00302783
0.0033586
0.000764611
0.00280753
0.000928825
0.00199403
0.00285694
0.0033596
0.00132073
0.000988851
0.000100666
0.000107068
0.00376707
9.99109e-05
0.00012467
0.000440473
0.00327141
0.000436673
0.000104667
0.000112349
0.000191148
0.000314875
0.000923223
0.000259983
0.00085679
0.000549662
0.00318817
0.000650911
0.000359826
0.000531242
0.00170314
0.00307275
0.00110618
0.00331981
0.00392406
0.000667177
0.00063872
0.000246532
0.000932
0.00133776
0.000545423
0.000657176
0.00294172
0.00113694
0.000299758
0.000734172
0.000612929
0.00267632
0.00115942
0.000651007
0.000260591
0.00198988
0.000734722
0.00102946
0.00339742
0.0011166
0.00114573
0.00252651
0.0032138
0.0001884
0.000278441
0.00227521
0.00117128
0.000876858
0.00103253
0.000489359
0.000278452
0.000650368
0.000740264
0.00069181
0.000654958
0.000592171
0.00234513
0.00254904
0.000810644
0.00221231
0.0002692
0.000423249
0.00300255
0.000979476
0.000689881
0.000726082
0.000200281
0.00266239
0.00063701
0.000772462
0.00278802
0.00323338
0.000217003
0.00101642
0.00228058
0.000619408
0.00131207
0.000769976
0.000227134
0.000734504
0.00144764
0.00332823
0.000832885
0.00217578
0.00233012
0.000270359
0.000282745
0.000913075
0.000731048
0.000745434
0.000595282
0.000751771
0.00167806
0.000707624
0.000233508
0.000762094
0.000715251
0.00244893
0.00152847
0.000501898
0.000477101
0.000201063
0.000696579
0.00214712
0.00356965
0.000302382
0.00195358
0.00356489
0.00345102
0.00237695
0.00209573
0.00373799
0.000913002
0.00317541
0.00333609
0.00017464
0.000622327
0.00149258
0.000327153
0.000478454
0.000194281
0.00145815
0.000309206
0.00278471
0.00103068
0.001019
0.000766535
0.000724748
0.00093993
0.0027692
0.000541379
0.00095429
0.000267351
0.00180317
0.00211311
0.000542379
0.000872233
0.000612098
0.000980303
0.00265477
0.00179425
0.000632255
0.000740793
0.000553548
0.000815125
0.000689613
0.000494309
0.000933154
0.00257889
0.00216684
0.00158645
0.000890804
0.000898097
0.000554936
0.00079502
0.00103471
0.00182265
0.000475232
0.00055539
0.00121245
0.00234216
0.00127581
0.0010032
0.000608107
0.000680892
0.00269155
0.000214127
0.000950189
0.000889881
0.0029121
0.000904699
0.00100745
0.000378655
0.00318202
0.000278981
0.00096956
0.000181823
0.00121224
0.000619816
0.0011837
0.00119837
0.00075852
0.000641969
0.00282791
0.00224879
0.00376494
0.000599117
0.00123242
0.00104924
0.00100079
0.00109028
0.000628534
0.000875075
0.00107152
0.00232508
0.000209682
0.00129755
0.00100913
0.00274951
0.00110066
0.00016181
0.000152134
0.000136465
0.000144598
0.000306581
0.000276288
0.000310804
0.000289558
0.000179487
0.00027131
0.000282319
0.000189196
0.000190473
0.000187766
0.00129155
0.000183495
0.000182131
0.00168575
0.000234387
0.00156213
0.000226577
0.00030412
0.00352794
0.00159959
0.000939849
0.000696451
0.000208022
0.00321802
0.000841347
0.000714137
0.00117758
0.000338284
0.00290707
0.000262346
0.00049861
0.00132452
0.000337184
0.00106953
0.000875822
0.00032447
0.000757402
0.00291464
0.0014017
0.00290523
0.00409015
0.00118229
0.000792283
0.00101456
0.0012168
0.000666865
0.000975549
0.00104571
0.000644037
0.000342586
0.000337112
0.00198613
0.000485645
0.000256865
0.00281826
0.00338114
0.00113202
0.000343731
0.000343454
0.00224943
0.00124136
0.00223882
0.000618017
0.000692503
0.00089516
0.000894541
0.000418023
0.00117739
0.000307551
0.000348847
0.00177374
0.000434079
0.00249131
0.00104602
0.000986503
0.00044788
0.00284153
0.000682339
0.000869836
0.000536764
0.000534328
0.00186515
0.00288702
0.00124128
0.00177363
0.00142349
0.00168612
0.00110684
0.000804682
0.00418711
0.00052638
0.000223841
0.00303529
0.00112423
0.000130956
0.000777658
0.000966523
0.00192636
0.000111904
0.000662186
0.00159291
0.00120156
0.00279982
0.00102598
0.000159809
0.00268558
0.00103649
0.00101897
0.0004422
0.000570594
0.00426002
0.000147229
0.00168619
0.00374567
0.000682835
0.000309474
0.000566076
0.00138856
0.000806482
0.000508225
0.000181053
0.000684628
0.00116591
0.000584995
0.00209848
0.00280487
0.00180582
0.000425349
0.000558067
0.000881952
0.0011064
0.00255244
0.00059116
0.00288531
0.00256732
0.00092527
0.00033946
0.00131441
0.000358298
0.0004739
0.00157409
0.000875211
0.00190331
0.0020209
0.00190961
0.000709903
0.000897054
0.000788549
0.00258526
0.000758553
0.00138162
0.000398705
0.000281526
0.000741152
0.000633812
0.0010443
0.000927729
0.000344803
0.000489934
0.000895638
0.00272414
0.000841022
0.000400514
0.0001751
0.000401787
0.00260983
0.000337077
0.000722436
0.00279035
0.000704212
0.0010461
0.00162036
0.000275469
0.000383359
0.000622801
0.000690539
0.00240616
0.000207177
0.000234689
0.00189965
0.000705275
0.000251578
0.000280039
0.00118501
0.000744535
0.000519444
0.00170008
0.000351954
0.00167604
0.000565333
0.00242116
0.00034558
0.00158593
0.00186141
0.000243537
0.00354662
0.000454596
0.000326623
0.000771285
0.000697162
0.00086829
0.00104839
0.00202957
0.000165073
0.000865309
0.00253062
0.000248432
0.000759644
0.000243697
0.000516763
0.000819716
0.000295942
0.0012443
0.000278366
0.000362242
0.00164019
0.000666456
0.000739938
0.00276638
0.0020282
0.000547787
0.00209907
0.000970127
0.000509186
0.000685462
0.000530616
0.000407128
0.000211818
0.000928366
0.00215575
0.000585181
0.000290972
0.00202784
0.00229482
0.00118285
0.000562615
0.000814824
0.000283587
0.00284701
0.000986068
0.000511464
0.000231038
0.00065966
0.00106304
0.000813754
0.003426
0.000972352
0.00114756
0.000612559
0.000774793
0.000266405
0.000720539
0.00283231
0.00392779
0.00256824
0.000560371
0.00192008
0.000556514
0.000570096
0.00123629
0.000777413
0.000649009
0.000819584
0.0005208
0.00206164
0.000523401
0.00149299
0.000629891
0.00078577
0.000641963
0.000924757
0.0015303
0.000837861
0.00272702
0.0021944
0.00273822
0.00049594
0.0011637
0.000645987
0.001
0.000662132
0.000617345
0.000848768
0.000222649
0.00300787
0.00390384
0.000776111
0.000619921
0.00158286
0.000429938
0.00107902
0.000417071
0.00184937
0.000533994
0.00187628
0.000547275
0.000400896
0.00144942
0.000699841
0.00215126
0.00251254
0.00280401
0.00222639
0.000786176
0.000797042
0.000812196
0.000682705
0.00127805
0.00254879
0.0011805
0.00275263
0.00164803
0.00100775
0.000798289
0.00214505
0.00186396
0.000570828
0.00108544
0.000299134
0.000937463
0.00250112
0.00258899
0.00104242
0.000968941
0.00196775
0.000221132
0.000119183
0.000418327
0.00306676
0.00147268
0.000421149
0.00332369
0.00417073
0.00315892
0.000388
0.00063835
0.00108001
0.000667839
0.000678736
0.000801813
0.00207115
0.000780492
0.000605753
0.00267684
0.00264586
0.000846681
0.000769291
0.00254495
0.00336963
0.00408492
0.000549613
0.00361416
0.00440236
0.00270637
0.000152594
0.00259679
0.00136193
0.00300744
0.00285235
0.000144789
0.00127785
0.000636105
0.00231579
0.000994632
0.0025433
7.17447e-05
0.00123093
0.00187899
0.000782642
0.0012633
0.000279957
0.000455962
0.00230682
0.00087836
0.0020747
0.000557632
0.00300728
0.000505947
0.00198884
0.00237602
0.000915614
0.000920936
0.00153136
0.000790481
0.00113602
0.000517238
0.00111342
0.00117277
0.00238862
0.00052594
0.00145884
0.00200187
0.000118431
0.000893174
0.000812249
0.000667954
0.000783379
0.00111116
0.000793986
0.000224589
0.000794095
0.000917435
0.000264021
0.000568003
0.000758182
0.000827507
0.000617257
0.00197573
0.000464802
0.00300648
0.000784248
0.000780849
0.00151245
0.0015024
0.00162006
0.000560583
0.00128513
0.000561434
0.00134082
0.000460602
0.000636352
0.000541985
0.00089317
0.000719972
0.00202244
0.00389768
0.000155841
0.000501013
0.00185991
0.000675035
0.0013125
0.000239159
0.000470022
0.000311778
0.00207253
0.000703555
0.000569314
0.000531565
0.000866722
0.00190961
0.000829696
0.000853437
0.000805191
0.000592222
0.00292346
0.000632193
0.00223065
0.000613484
0.0011138
0.000881334
0.00134779
0.000816898
0.000408151
0.000650189
0.00066288
0.00263473
0.000372675
0.0016504
0.00268273
0.0015441
0.000613521
0.00134193
0.00236709
0.000253134
0.000555023
0.000658471
0.001553
0.000789834
0.000556862
0.00128568
0.000847611
0.000785837
0.000784366
0.000802308
0.00183529
0.00286762
0.00393887
0.00356371
0.000649024
0.000752925
0.000610032
0.000566584
0.00240084
0.00205179
0.000818678
0.000784607
0.000756444
0.000791158
0.00080516
0.000831374
0.000422321
0.000718226
0.000893553
0.000887419
0.000351806
0.000684503
0.00067001
0.000916385
0.00229592
0.0008136
0.00253323
0.00257198
0.00063023
0.00103299
0.00228576
0.00102411
0.000653371
0.00178403
0.000249539
0.00165669
0.00312086
0.00258352
0.000542124
0.00211244
0.00255593
0.000480807
0.000627067
0.000977956
0.00119606
0.000430879
0.000335733
0.000773044
0.00060165
)
;

boundaryField
{
    frontAndBack
    {
        type            empty;
    }
    wallOuter
    {
        type            nutkWallFunction;
        Cmu             0.09;
        kappa           0.41;
        E               9.8;
        value           nonuniform List<scalar> 
102
(
1.43072e-05
1.43072e-05
6.40803e-05
1.74207e-05
1.76554e-05
2.54926e-05
3.00708e-05
2.18175e-05
8.57635e-06
9.5995e-06
8.36845e-06
1.21957e-05
8.87699e-06
1.04392e-05
2.1254e-05
3.92369e-05
3.07231e-05
4.14519e-05
2.59506e-05
3.34573e-05
3.01537e-05
2.05936e-05
3.30685e-05
3.1552e-05
5.33646e-05
3.1938e-05
3.3633e-05
1.86158e-05
1.92187e-05
3.32247e-05
2.01406e-05
1.74731e-05
1.61397e-05
1.38342e-05
1.5058e-05
3.81245e-05
3.40595e-05
3.8687e-05
3.58406e-05
1.98772e-05
3.33653e-05
3.48303e-05
2.1094e-05
2.11655e-05
2.09313e-05
2.03741e-05
2.01776e-05
2.5658e-05
3.77166e-05
4.14558e-05
3.05685e-05
4.10843e-05
4.03583e-05
4.22089e-05
4.19336e-05
2.96258e-05
4.25159e-05
4.26374e-05
3.66094e-05
4.11683e-05
6.36745e-05
1.34619e-05
1.02994e-05
1.66663e-05
1.36537e-05
2.00299e-05
6.8774e-05
4.34808e-05
5.68173e-05
3.29543e-05
4.08514e-05
5.96819e-05
1.91902e-05
4.72729e-05
4.08202e-05
3.27666e-05
2.29006e-05
2.92899e-05
6.42959e-05
2.87138e-05
3.92378e-05
1.77499e-05
3.54944e-05
3.32022e-05
6.76489e-05
2.41068e-05
3.44281e-05
2.68441e-05
3.17271e-05
2.58085e-05
2.65095e-05
1.1231e-05
1.57478e-05
1.50136e-05
4.04054e-06
3.31171e-05
1.04408e-05
2.55289e-05
3.10299e-05
1.63439e-05
2.75092e-05
3.75318e-05
)
;
    }
    inlet
    {
        type            calculated;
        value           nonuniform 0();
    }
    outlet
    {
        type            calculated;
        value           nonuniform 0();
    }
    wallInner
    {
        type            nutkWallFunction;
        Cmu             0.09;
        kappa           0.41;
        E               9.8;
        value           nonuniform List<scalar> 
138
(
2.42214e-05
1.72416e-05
6.08175e-05
0.000107326
9.73978e-05
0.000124589
9.48968e-05
7.77477e-05
0.000110502
3.83457e-05
5.61671e-05
4.95591e-05
3.57644e-05
9.64666e-05
3.77103e-05
3.89859e-05
3.21221e-05
5.55017e-05
4.26719e-05
3.62175e-05
3.34816e-05
2.51355e-05
3.88962e-05
3.20473e-05
2.83588e-05
3.64645e-05
2.81711e-05
3.34524e-05
9.64543e-05
3.03894e-05
3.50691e-05
4.24252e-05
3.59475e-05
2.84704e-05
3.78912e-05
2.59429e-05
4.38374e-05
2.25711e-05
4.41719e-05
4.23249e-05
3.53432e-05
2.41916e-05
5.49064e-05
3.35955e-05
3.507e-05
9.81039e-06
4.56544e-05
4.73342e-05
3.46085e-05
5.77406e-05
4.5151e-05
3.12689e-05
2.76233e-05
4.83515e-05
2.14879e-05
5.61171e-05
3.53395e-05
4.62334e-05
5.99577e-05
6.47016e-05
5.227e-05
2.71664e-05
2.27073e-05
4.64685e-05
6.51321e-05
2.59979e-05
2.95597e-05
5.99606e-05
3.44786e-05
3.79842e-05
3.76629e-05
3.42448e-05
2.30721e-05
1.2026e-05
5.33589e-05
2.59736e-05
5.69056e-05
2.57585e-05
9.19914e-05
4.6695e-05
3.80261e-05
4.72878e-05
2.59036e-05
2.89261e-05
2.21692e-05
9.49917e-05
5.20275e-05
5.17324e-05
7.58641e-05
7.74872e-05
5.72788e-05
2.61293e-05
2.76017e-05
0.00010102
2.71977e-05
3.93322e-05
7.47384e-05
5.29337e-05
0.00010199
2.50182e-05
3.73163e-05
2.44258e-05
2.78898e-05
5.32499e-05
5.27362e-05
7.90457e-05
3.31098e-05
2.24668e-05
2.48488e-05
2.59837e-05
2.71666e-05
6.09273e-05
2.27458e-05
3.89068e-05
3.00021e-05
2.35367e-05
2.39166e-05
2.71047e-05
2.38833e-05
5.03368e-05
6.06466e-05
6.78018e-05
2.59264e-05
4.16708e-05
4.87405e-05
2.69833e-05
2.82897e-05
2.85664e-05
6.14851e-05
3.30218e-05
6.10268e-05
6.99783e-05
7.65354e-05
0.000107665
5.32627e-05
4.20994e-05
9.61621e-05
7.30351e-05
)
;
    }
    procBoundary2to0
    {
        type            processor;
        value           nonuniform List<scalar> 
42
(
0.00374823
0.00374823
0.00138135
0.00120984
0.00236384
0.00411537
0.00117058
0.00117058
0.00203645
0.00159696
0.00251118
0.00251118
0.00248119
0.00270776
0.00311165
0.00398536
0.00325049
0.00133027
0.00180446
0.00494577
0.00458582
0.00100759
0.00100759
0.00468236
0.00458582
0.00067965
0.00399519
0.00074644
0.00399519
0.00373613
0.00337394
0.000842816
0.000867898
0.000850447
0.000826699
0.00120984
0.00325049
0.000386389
0.0041101
0.000886823
0.000886823
0.00079704
)
;
    }
    procBoundary2to1
    {
        type            processor;
        value           uniform 0.00458497;
    }
    procBoundary2to3
    {
        type            processor;
        value           nonuniform List<scalar> 
29
(
0.00260561
0.00267163
0.000730077
0.000512378
0.00104653
0.00138355
0.00101941
0.00214232
0.0018984
0.00200478
0.00184202
0.0021864
0.00122017
0.00344039
0.00270032
0.00269295
0.00145446
0.00145446
0.00267163
0.00344039
0.00285356
0.0013266
0.000491803
0.00180793
0.0021494
0.00115131
0.0018984
0.00417877
0.0021864
)
;
    }
}


// ************************************************************************* //
