/*--------------------------------*- C++ -*----------------------------------*\
| =========                 |                                                 |
| \\      /  F ield         | OpenFOAM: The Open Source CFD Toolbox           |
|  \\    /   O peration     | Version:  v1912                                 |
|   \\  /    A nd           | Website:  www.openfoam.com                      |
|    \\/     M anipulation  |                                                 |
\*---------------------------------------------------------------------------*/
FoamFile
{
    version     2.0;
    format      ascii;
    class       surfaceScalarField;
    location    "0.96";
    object      phi;
}
// * * * * * * * * * * * * * * * * * * * * * * * * * * * * * * * * * * * * * //

dimensions      [0 3 -1 0 0 0 0];
oriented        oriented;


internalField   nonuniform List<scalar> 
2776
(
-1.62337e-05
-1.55316e-05
8.12723e-06
2.36382e-05
1.50663e-05
2.21829e-06
0.000178137
-0.000195422
8.84451e-05
1.81823e-06
1.47486e-05
-0.000105012
2.29445e-06
-9.48419e-07
-1.68303e-05
1.54843e-05
0.000116826
0.000111134
-6.94717e-05
-0.000158487
0.000355661
0.000224973
-0.000404227
-0.000176408
2.93489e-05
-2.09253e-05
1.7721e-05
-2.61447e-05
4.94453e-05
-9.9871e-06
1.51526e-05
0.000269142
-0.00029679
1.2496e-05
-3.23526e-06
-7.91711e-06
8.25531e-06
2.89709e-06
4.86945e-05
-1.59012e-06
-4.71044e-05
4.10391e-05
-4.24057e-05
-5.48718e-06
6.85377e-06
1.09816e-05
-1.09816e-05
8.26203e-05
-3.26981e-05
-4.24588e-05
-7.46334e-06
-3.17666e-05
-7.31036e-05
5.97394e-05
4.51308e-05
1.54978e-05
4.30763e-05
-1.03113e-05
-4.82628e-05
-2.95301e-06
2.44649e-05
-2.15119e-05
-3.08132e-05
-1.68902e-05
4.81942e-06
4.2884e-05
4.30724e-05
9.68658e-06
8.44379e-05
-0.000137197
9.57723e-06
-2.71846e-05
5.38089e-05
-3.62015e-05
-3.2635e-05
3.26107e-05
3.96169e-06
-3.93735e-06
-2.96785e-05
-1.34139e-05
4.26614e-05
4.31024e-07
3.8544e-05
-3.03961e-05
-8.14792e-06
2.39148e-06
-0.000149743
0.000147871
-5.20354e-07
3.14371e-05
6.7686e-05
-1.65028e-05
-0.00011959
-1.09454e-05
0.000115739
1.47964e-05
-0.000113799
7.09188e-05
-2.31559e-05
6.60362e-05
-7.11534e-06
7.64805e-06
-2.17052e-05
2.11724e-05
-3.69535e-05
5.90285e-07
6.96446e-05
-6.87653e-05
-8.79245e-07
-4.91893e-06
-1.73043e-05
-7.60176e-05
0.000127939
-0.000131262
-0.000161548
0.000164871
1.37825e-05
-1.15046e-05
-4.19142e-05
-1.04113e-05
1.10043e-05
-5.62838e-05
5.56908e-05
5.65432e-05
1.73024e-06
-4.9741e-05
-8.5325e-06
3.96431e-05
-3.89179e-05
-3.24918e-05
-1.31604e-05
1.74243e-05
-2.92542e-05
2.49902e-05
1.69919e-05
8.49137e-05
-4.9757e-05
-5.21486e-05
-4.35893e-06
0.00024706
-0.000316205
7.35039e-05
-2.34517e-06
-2.18551e-05
5.81383e-06
3.87356e-05
-3.51032e-06
-3.73298e-05
4.23654e-05
3.19411e-05
-3.69767e-05
-0.000307602
0.000191577
0.000131177
-1.69106e-05
1.404e-05
5.36346e-06
-2.49277e-06
4.43e-05
-4.0068e-05
2.96087e-06
-7.19283e-06
1.32645e-05
-5.28687e-05
0.000180738
-0.000141134
1.47116e-05
6.09843e-05
1.12905e-05
-8.69865e-05
-2.50212e-05
4.56731e-05
-5.14652e-05
-3.49288e-05
3.50552e-05
-3.74562e-05
8.37009e-06
-3.02162e-05
-1.07889e-05
1.93062e-05
-2.4621e-05
8.03963e-05
-7.50815e-05
5.33357e-06
7.96112e-06
-3.7605e-05
-2.48423e-05
-3.218e-05
3.81807e-05
1.59617e-05
-2.19624e-05
-8.88952e-05
3.223e-06
8.70628e-05
-1.39057e-06
-9.93365e-05
-2.06957e-06
6.10008e-05
4.04053e-05
3.08717e-06
7.42647e-06
-8.91857e-06
-1.59507e-06
1.42602e-05
-2.55526e-05
-2.08876e-05
2.10969e-06
-4.21754e-06
4.82301e-05
-4.61223e-05
5.92332e-05
-6.78666e-05
0.000226297
-0.000125123
-3.33073e-05
1.02205e-05
-4.81008e-05
2.70251e-05
1.08552e-05
4.38338e-05
1.30244e-05
-1.86774e-05
3.12368e-05
-1.91186e-06
3.28573e-06
9.9561e-06
9.06139e-06
-1.49442e-05
-4.07324e-06
-1.28443e-05
3.16889e-05
-4.8523e-05
4.01574e-05
-4.83939e-05
0.000114151
-0.000105914
3.17117e-05
-2.67914e-05
2.93621e-06
-7.85646e-06
-3.05024e-06
8.62359e-05
-6.61938e-05
3.46573e-06
-3.4302e-05
1.04595e-05
2.03768e-05
5.97874e-05
-6.28377e-05
-6.29475e-07
-2.85723e-05
-7.77961e-06
2.41163e-05
1.7824e-05
-3.84746e-05
-2.8837e-05
3.38365e-05
-3.00207e-05
-4.5151e-05
-3.38515e-05
4.2049e-05
9.12013e-06
-1.83651e-05
2.35052e-05
-4.60466e-06
1.41255e-05
0.000117246
-0.000126767
3.4293e-05
-1.91692e-05
-3.84649e-05
2.33411e-05
5.98678e-05
-2.07829e-05
-5.78859e-05
1.88009e-05
2.58454e-05
-3.2413e-05
-2.83612e-05
0.000102425
-9.57312e-05
-1.50511e-05
8.35755e-06
9.68732e-06
-1.65876e-05
2.47765e-05
-1.78763e-05
3.76192e-05
5.49963e-05
9.80927e-06
-0.000152522
-8.42096e-05
6.44528e-05
0.000172279
4.64375e-05
3.46513e-05
-4.37937e-05
-3.72951e-05
6.76675e-05
-5.58926e-05
-5.28688e-05
4.10939e-05
4.38955e-06
1.09385e-05
-1.80646e-05
2.73654e-06
-5.44364e-06
7.22562e-05
-6.68125e-05
-1.22712e-05
1.38204e-05
-9.82944e-07
-5.66239e-07
1.24172e-05
8.89537e-06
-1.61278e-05
-5.18479e-06
1.49336e-05
6.39485e-05
-5.95758e-05
5.58989e-05
-5.29724e-05
-2.52152e-05
0.000198356
1.20024e-05
-0.000185143
6.71326e-07
1.90205e-07
-6.57728e-06
5.71574e-06
6.09792e-05
-0.000106819
-8.5418e-05
0.000131258
-1.55029e-05
8.36422e-06
1.15283e-05
-1.5802e-05
3.32778e-05
-3.72946e-05
-3.09857e-06
-7.15254e-06
4.06874e-05
5.72357e-05
-9.07706e-05
-8.98061e-05
6.45909e-05
1.11867e-05
-6.29513e-05
5.98025e-05
-8.03788e-06
-7.12937e-05
-0.000223044
-8.40273e-06
1.11777e-05
2.84618e-05
-1.17225e-05
6.19114e-05
9.679e-06
0.000119678
3.80676e-05
-9.67665e-05
3.98147e-05
-6.36947e-05
5.55373e-05
-3.16573e-05
6.74902e-06
-1.71473e-06
-1.65909e-05
1.15566e-05
-1.67453e-05
2.87523e-05
1.68502e-05
-2.88572e-05
2.77067e-05
-4.97245e-05
-3.96148e-05
6.16326e-05
1.32432e-05
8.63821e-05
1.98794e-05
-8.89781e-06
-0.000121093
-0.000158116
5.79405e-05
0.000221269
5.28942e-05
2.80159e-05
-4.44581e-05
-3.6452e-05
7.83145e-05
-6.66847e-05
4.12644e-05
-6.66827e-05
8.49183e-05
4.94318e-05
-6.29804e-05
7.49709e-06
9.41702e-05
-3.86868e-05
-5.65345e-05
-5.25001e-07
5.51476e-05
6.26413e-06
1.38785e-05
-1.88732e-05
-1.26939e-06
3.07015e-05
-2.68561e-06
-0.000111065
3.98492e-05
-8.13064e-05
4.19692e-05
-3.34538e-05
3.79221e-05
-9.91732e-06
2.61762e-06
-1.45848e-05
2.18845e-05
-1.37158e-06
-2.14089e-07
-2.34859e-06
3.93425e-06
0.000158027
-0.000111958
0.000115
-0.000161068
-9.76005e-06
5.54533e-06
-8.0565e-06
-2.08957e-05
0.000228535
-1.21657e-05
-0.000195474
5.85021e-06
-4.88747e-05
-3.84993e-06
4.68744e-05
-1.72598e-05
2.01782e-06
3.93583e-05
1.84443e-05
-3.31846e-05
4.67929e-05
-3.20526e-05
6.85549e-06
-1.32002e-05
5.01784e-05
-1.53492e-05
-4.97519e-05
1.03763e-05
5.47248e-05
6.40282e-06
-1.43547e-05
1.7072e-05
2.91285e-05
2.19669e-05
-8.72999e-06
3.74404e-05
-7.41872e-05
7.44577e-05
-3.77109e-05
-5.65901e-05
4.78499e-05
-9.85989e-07
9.72623e-06
-1.14007e-05
-3.45771e-05
2.87179e-05
-1.05696e-05
2.65246e-06
-3.3261e-06
7.55823e-05
1.72944e-05
-1.59792e-05
-1.44771e-05
1.31619e-05
-3.02228e-05
1.78856e-05
2.02572e-05
-7.91999e-06
-8.24157e-06
-4.04855e-06
-2.90235e-05
8.30673e-06
2.07167e-05
3.85109e-05
-1.89739e-05
-1.9537e-05
-7.87023e-05
7.81836e-05
9.16008e-05
-9.10821e-05
5.11819e-06
3.24591e-05
-3.07218e-05
3.74791e-06
1.20962e-05
-4.5619e-06
-1.55808e-05
9.69688e-06
4.51232e-06
3.26711e-05
-4.942e-05
-3.91437e-05
-1.74056e-05
0.000152809
-0.000115719
-1.96848e-05
-1.11466e-05
1.13796e-05
-1.5736e-05
-1.71383e-06
-4.24055e-05
1.74835e-05
2.66358e-05
-1.8302e-05
1.88226e-06
-1.20985e-05
3.58887e-05
3.96399e-05
-6.34301e-05
1.581e-05
-2.98975e-05
-1.41427e-05
2.82302e-05
-6.73419e-05
-7.80431e-05
-5.24097e-06
3.33643e-05
5.15451e-06
3.94355e-05
1.23349e-05
-2.95084e-05
-2.2262e-05
-0.000251611
-2.77467e-05
7.69302e-05
-4.71851e-05
1.53131e-06
8.3592e-06
1.45059e-05
5.71733e-06
0.000182879
-0.000122218
-0.000120988
6.03269e-05
2.22309e-06
1.60707e-05
-1.82938e-05
-4.92746e-05
3.27124e-05
2.31948e-06
1.42427e-05
-4.131e-05
5.2626e-05
-0.000125115
6.48737e-07
4.8154e-05
-3.91154e-05
-1.30747e-05
7.67777e-06
-1.11907e-05
6.31051e-06
-3.75176e-06
-2.77283e-06
8.17338e-06
1.65087e-05
-1.95638e-05
0.000113528
-0.000162199
-0.000238719
0.000162057
9.17282e-05
-1.65458e-05
-4.36104e-05
1.29712e-05
4.10011e-06
-9.16227e-06
-1.33029e-05
-3.29568e-05
1.51343e-05
-5.52811e-05
-1.12375e-05
2.69024e-05
4.8491e-05
-4.53962e-05
8.09177e-06
-3.17733e-05
4.2533e-05
-4.90952e-06
1.75016e-05
3.46881e-05
-6.15087e-05
-0.000117423
-3.76063e-07
4.59925e-05
4.35241e-05
-4.17207e-05
-1.35259e-05
8.96533e-05
-0.000254806
-7.68728e-05
0.000242026
4.05955e-05
2.7756e-05
-2.87084e-05
6.82209e-05
-2.24103e-05
-8.19075e-06
3.06011e-05
-3.40494e-05
2.36204e-05
1.04291e-05
2.5986e-05
-0.000109523
-3.55463e-05
5.45048e-05
2.95325e-05
2.06124e-05
-7.20274e-06
-3.09862e-06
5.12015e-06
4.58283e-05
-5.05373e-05
4.24571e-05
-4.05079e-05
4.85881e-05
-5.06053e-05
3.98827e-05
-6.46839e-05
-3.17718e-05
3.2761e-05
1.78711e-05
-4.06315e-05
-2.43875e-05
-1.89539e-05
4.8212e-05
-4.64589e-05
1.72008e-05
-2.07312e-06
1.0332e-06
7.03104e-06
-3.57288e-05
-2.05768e-05
1.38565e-05
-2.31268e-05
-4.34104e-05
4.58832e-05
3.25823e-05
-3.94513e-06
4.08339e-05
-3.82585e-05
-5.54442e-05
-3.80213e-05
-3.38534e-05
-3.50337e-05
3.21773e-05
-5.66198e-06
8.5184e-06
-3.57551e-05
4.31785e-05
8.33369e-05
-4.3946e-05
-2.15198e-05
-7.13942e-05
3.2836e-05
1.96042e-05
5.6351e-05
-4.41865e-05
-4.89899e-06
-7.26557e-06
5.6283e-05
-2.19081e-05
-6.92789e-05
3.76752e-05
7.03828e-05
-3.87791e-05
-7.61708e-06
3.05716e-06
4.55992e-06
4.38586e-05
-4.29655e-05
-4.53512e-05
2.24792e-05
3.88106e-06
-8.53622e-06
4.21169e-05
8.96776e-06
-2.2825e-05
-2.82596e-05
3.67873e-05
-2.55675e-05
-2.74536e-05
-3.88833e-05
6.39584e-05
3.95489e-05
7.68684e-06
1.37486e-05
1.08977e-05
1.05282e-05
-1.32526e-05
9.00216e-06
4.89717e-05
-1.8425e-05
2.3827e-05
-5.70738e-05
2.54591e-05
3.32392e-05
-4.75789e-05
-1.11194e-05
-1.73099e-05
-4.90908e-05
2.56296e-05
4.07711e-05
-0.00026633
5.45152e-06
-2.852e-05
0.000289398
-2.57067e-05
5.11494e-05
1.19976e-05
-9.53191e-05
0.000140181
-8.8566e-05
4.37037e-05
2.92201e-05
-4.44186e-05
4.80814e-05
-3.2883e-05
-1.41554e-05
6.28711e-05
-3.8802e-06
-4.48355e-05
2.96095e-05
2.71264e-05
-4.53035e-05
3.20336e-05
3.64007e-06
5.98102e-05
-7.76057e-05
5.17996e-05
5.5525e-06
-5.07871e-05
5.7449e-05
-2.15349e-05
-1.1073e-05
1.38849e-05
-2.30828e-05
-3.13802e-06
-6.13457e-05
-5.4668e-06
1.55005e-05
-2.9179e-06
-4.62781e-05
2.46346e-05
-5.58078e-05
3.84979e-05
-0.000135486
0.000120597
1.48895e-05
7.50573e-05
-2.07775e-05
-6.84906e-05
1.26827e-05
2.78896e-05
-4.74322e-06
2.28671e-05
2.35484e-06
-2.45906e-05
-6.31345e-07
-4.40239e-05
2.64589e-05
-8.58868e-05
5.50204e-05
4.50576e-05
-5.96312e-05
1.46909e-05
-1.35123e-05
2.16885e-05
-4.24966e-05
2.46523e-05
-4.18019e-05
9.81855e-05
0.000126495
-0.0002556
0.000134027
0.000276241
-0.000154669
3.21164e-05
-1.472e-06
-7.90178e-05
4.38335e-05
-1.86753e-05
1.78063e-05
1.55599e-05
-6.40405e-05
-5.61703e-05
-0.000285381
-0.000118845
6.52706e-05
5.46851e-05
-7.48248e-05
-0.000444365
7.62816e-05
-1.18195e-05
-3.95801e-05
5.34458e-06
-5.92473e-06
4.87922e-05
2.30621e-05
-3.12788e-05
2.47166e-05
-1.64998e-05
-2.85872e-06
2.30028e-05
6.75836e-06
-1.80934e-05
1.61239e-05
5.31189e-05
-2.87596e-05
1.00899e-05
1.55685e-05
-2.68919e-05
1.44105e-05
-7.5267e-06
-1.74197e-05
-0.000105776
3.15462e-05
4.21558e-05
1.77204e-05
6.56668e-06
-3.13105e-06
-1.22677e-05
1.30501e-05
3.85622e-05
-4.62131e-05
-3.14229e-05
3.90739e-05
-5.84008e-05
1.42373e-05
5.51846e-05
-1.10211e-05
-2.06382e-05
-8.36405e-06
-5.37063e-05
8.27085e-05
-6.0697e-05
-2.86415e-05
2.99658e-05
2.32502e-05
-2.45745e-05
-8.04204e-05
3.05452e-05
3.24603e-05
1.16124e-05
-3.50834e-05
-0.000301349
-0.000107933
6.44706e-05
3.27895e-05
-1.56105e-05
-8.16496e-05
-1.58724e-06
-2.4088e-05
-1.51001e-05
3.94806e-05
1.81525e-05
5.82828e-05
8.67823e-05
-9.73655e-05
-4.76996e-05
5.34997e-05
-0.000272087
0.000308241
-6.29561e-05
8.19029e-05
9.02028e-05
-0.00010915
-5.10609e-05
3.79495e-05
2.67273e-05
3.59817e-06
-2.07816e-05
8.67359e-06
-8.41703e-06
2.0525e-05
-3.01224e-05
-9.20691e-06
-4.54627e-06
8.55577e-06
5.19741e-06
5.57543e-05
-1.19218e-05
-5.27532e-05
1.02319e-05
5.76556e-05
-2.33279e-05
6.73536e-06
1.86315e-06
1.47293e-05
4.94872e-06
2.7296e-05
-3.20903e-05
-1.54429e-07
6.86645e-06
4.90938e-05
-2.39335e-05
2.08025e-05
0.000153771
0.000197485
2.48871e-05
-0.00024624
0.000226804
-4.52824e-05
8.4733e-06
5.17426e-05
6.37705e-05
-2.34471e-05
4.3635e-07
1.56171e-05
1.64057e-05
-1.22496e-05
-3.86884e-05
4.09436e-05
3.08937e-06
5.21685e-05
-5.53063e-05
-8.68169e-06
-4.72211e-05
0.000149803
3.17052e-05
8.38786e-06
-4.31916e-05
4.81676e-06
-7.38754e-06
-3.16087e-05
2.69323e-05
-1.16983e-05
9.69539e-06
1.90749e-05
1.42335e-05
-9.10982e-07
-1.82321e-05
5.00974e-05
-4.44955e-05
-5.60181e-06
-4.49135e-05
4.78433e-05
-2.92976e-06
-9.50653e-05
9.61928e-05
-1.12752e-06
-1.08379e-05
1.70201e-05
-6.18221e-06
5.99167e-05
-3.20649e-05
-2.78518e-05
-9.07181e-06
-1.35447e-05
2.26165e-05
-9.33414e-05
-8.45836e-06
0.0001018
-5.27043e-06
2.12543e-05
-1.59838e-05
3.42215e-05
-4.26264e-05
8.40492e-06
-3.11118e-06
-7.72668e-06
6.92196e-05
-6.56404e-05
-3.5792e-06
-3.52389e-05
-9.67464e-06
4.93547e-05
7.42706e-07
-2.80183e-05
2.72089e-05
8.09416e-07
-0.000182707
5.62038e-05
-5.99668e-05
3.76304e-06
-9.79461e-05
2.41582e-05
-2.94286e-05
2.2686e-05
1.15355e-05
-9.17615e-05
7.97158e-05
1.20457e-05
-2.30304e-05
-6.58906e-06
2.96194e-05
-0.000101998
6.93289e-06
0.000107477
1.31201e-05
-5.11258e-05
6.36028e-05
-1.2477e-05
3.71189e-06
-1.66638e-05
1.29519e-05
2.8681e-06
-2.00536e-05
-3.59613e-06
1.21705e-05
-3.16951e-05
-9.11695e-06
4.25938e-05
2.33457e-05
4.45993e-05
-4.85327e-07
4.70617e-05
2.81144e-05
-2.25088e-05
-2.45656e-05
4.47419e-05
2.33253e-06
4.72287e-05
1.13485e-05
-1.6165e-05
4.21806e-05
0.00026792
0.00031084
-4.77116e-05
-5.8018e-05
3.1439e-05
-4.73771e-05
4.5904e-05
2.77685e-05
9.78194e-06
1.44193e-05
3.1933e-05
3.72866e-05
-6.72171e-06
-7.54793e-06
1.42697e-05
-4.20815e-05
-6.01032e-06
-1.2183e-05
2.63978e-05
-2.69676e-05
9.53047e-06
-2.98161e-05
1.31523e-05
8.17556e-05
-1.81528e-05
6.72827e-06
-6.69761e-05
1.3357e-06
-1.39846e-05
4.43136e-06
-3.28483e-05
-1.31565e-05
2.43605e-05
-2.14925e-05
-2.03645e-06
6.88002e-06
1.0065e-05
1.30303e-05
4.71752e-05
-3.49518e-05
-2.52537e-05
-3.94102e-05
-1.24612e-05
1.10561e-05
-6.86284e-05
-3.6068e-05
-2.80163e-05
3.38728e-06
5.43654e-05
3.48038e-06
1.19396e-05
-6.78778e-06
-5.5939e-05
-5.72891e-06
4.29106e-06
-2.20476e-05
2.34854e-05
-2.27123e-05
2.02893e-05
-3.30589e-06
-5.70351e-05
-4.40588e-06
3.61034e-05
2.53375e-05
-1.17101e-05
1.16074e-05
1.06308e-05
1.3654e-05
-8.12306e-05
0.000102072
-3.44956e-05
-1.91167e-05
-3.79899e-05
3.98513e-05
-1.37947e-05
1.28336e-05
-1.0749e-05
-1.38425e-05
0.000178535
-1.33182e-05
3.75744e-05
-2.38465e-05
-4.17178e-06
4.45499e-05
1.16539e-05
-1.54097e-05
3.28332e-05
-2.96065e-05
1.63885e-05
5.27673e-06
-1.00578e-05
2.30332e-05
3.769e-05
4.28953e-05
2.54914e-06
-4.70317e-05
-3.03244e-05
1.72403e-05
5.16462e-05
-1.27635e-05
-2.07642e-05
3.30492e-06
-0.00019457
-0.000287457
0.000226427
-6.51819e-06
2.75227e-05
1.63392e-05
-3.73437e-05
-4.29247e-06
-4.62068e-05
-8.44515e-06
5.89445e-05
-1.65617e-05
2.4714e-05
2.05452e-05
-1.41589e-05
1.00022e-05
3.30341e-05
2.51707e-06
3.39501e-05
-9.78491e-05
8.41509e-05
-2.0252e-05
-2.55593e-06
9.75862e-06
1.97238e-05
-2.69265e-05
-1.92211e-05
-2.24717e-05
2.89293e-05
7.3785e-05
1.79566e-05
-0.000105368
1.36267e-05
-7.53104e-06
1.23684e-05
-2.75496e-05
2.25613e-05
-3.26483e-05
-1.42228e-07
6.12411e-05
1.26861e-05
2.7476e-05
-2.31849e-05
-1.42178e-05
4.70082e-05
-4.62043e-05
-4.59312e-05
1.87857e-05
-2.41747e-05
5.13202e-05
-1.79461e-05
-4.22029e-05
3.91016e-05
-3.57954e-05
-2.12524e-05
-5.19636e-05
-1.74745e-05
5.79335e-05
1.38304e-05
-2.46966e-05
3.96235e-05
-2.22044e-05
2.89671e-05
-3.14592e-05
-3.59395e-05
1.13151e-05
4.39044e-05
-1.16739e-05
-2.70894e-05
2.04197e-05
-1.25514e-05
4.02222e-05
-3.59403e-05
-1.78202e-05
1.35383e-05
0.000338594
-0.000285095
2.87928e-06
2.72905e-05
1.00525e-05
9.53419e-05
6.49334e-06
-6.78851e-05
-3.73732e-05
-0.000181239
0.000106162
1.90441e-05
5.60333e-05
0.000125966
-0.000116492
-0.000143564
0.000134089
1.41408e-05
-5.22323e-05
3.80915e-05
4.84084e-06
-1.45201e-05
-3.61824e-05
-1.68694e-05
1.71115e-05
7.65131e-05
-4.78649e-05
-9.20967e-05
6.34485e-05
7.37832e-05
-0.000129056
1.66618e-05
5.36618e-07
7.81435e-05
-0.000134333
6.33625e-05
-7.35628e-05
0.000144534
-0.000103045
5.22635e-05
-8.3552e-05
-2.19415e-05
6.39403e-05
-3.1754e-05
-1.02449e-05
5.25908e-05
9.0893e-05
-0.000125527
-7.48763e-05
5.0466e-05
2.46881e-06
0.000125545
-0.00014464
3.57566e-05
-2.83471e-05
5.08735e-05
5.39868e-05
3.70358e-05
-1.72116e-05
-4.10978e-05
2.12736e-05
3.69577e-05
4.1803e-06
-3.46447e-05
-1.09587e-05
7.14968e-05
4.56235e-05
0.000115033
-4.47632e-05
-0.000173315
-9.8976e-06
0.000106298
2.91446e-05
-5.31217e-05
-6.42935e-06
5.95511e-05
8.26723e-05
6.54105e-05
-9.5492e-05
3.09567e-06
3.43987e-05
1.1834e-05
-7.5247e-06
-3.13987e-05
-2.12086e-05
2.55108e-05
3.27336e-05
1.45821e-05
7.61687e-05
2.26669e-05
-4.47086e-05
5.81277e-05
7.56011e-06
-6.56878e-05
-2.69343e-05
1.29111e-05
1.69025e-05
3.7894e-05
-2.54125e-05
-3.07332e-05
3.13548e-05
-8.17619e-05
-2.67293e-05
0.000108491
-2.20875e-05
9.24275e-05
-0.000121248
3.4274e-05
-1.6245e-05
-2.00388e-05
-3.46387e-05
4.44441e-05
-3.73178e-05
3.15053e-05
-7.76181e-05
8.91852e-05
3.8137e-05
-0.000253581
0.000211085
5.41278e-05
5.07416e-05
-4.31721e-05
-0.000120343
0.000142235
-8.27538e-06
7.62573e-05
-3.90097e-05
1.93268e-05
5.11883e-05
-5.06117e-05
8.23969e-05
5.08696e-05
-6.56632e-05
-8.93826e-05
8.93538e-05
-2.18692e-05
2.1898e-05
5.73926e-05
-2.47328e-05
6.13706e-06
-3.43292e-06
-1.18917e-05
-2.36852e-05
-2.08557e-05
3.98999e-05
3.84924e-05
-8.83298e-05
1.89535e-05
-2.00063e-05
-2.17976e-05
4.23429e-05
-2.77131e-05
-5.33379e-05
0.000104508
3.25484e-06
-5.34906e-06
6.27452e-06
5.82075e-05
-7.97877e-08
5.97518e-06
-5.63913e-05
4.85783e-06
4.30883e-05
2.45224e-05
1.39399e-05
-2.21231e-05
-7.52797e-06
2.14867e-05
-8.16338e-05
-2.81827e-05
-1.8853e-05
2.40739e-05
5.58131e-08
-3.98567e-05
-7.45898e-05
7.74245e-05
-9.49314e-05
0.00012245
-7.63956e-05
-9.52809e-05
4.92261e-05
-0.000122055
0.000219222
1.28621e-05
-0.000168721
-3.44211e-05
-5.18375e-06
0.000142589
-3.98589e-05
6.98536e-05
7.29814e-05
-5.92411e-05
7.59101e-05
0.00010699
-9.34576e-05
-1.0553e-05
4.03482e-05
2.40742e-05
-1.16068e-05
5.56362e-05
7.20591e-05
-1.55531e-05
4.99808e-05
1.50921e-05
-9.24035e-05
-2.05376e-05
4.82291e-05
-4.79812e-05
-3.27703e-07
0.000231091
0.000107503
6.16587e-05
0.000169432
1.49333e-05
1.32763e-05
-4.72413e-06
9.49569e-06
1.69586e-06
5.98351e-06
6.68915e-05
1.34274e-05
-5.88322e-05
-4.28875e-05
4.16397e-05
5.2894e-05
-1.54347e-05
1.1422e-05
-9.36066e-05
-9.68168e-05
-9.66834e-05
7.40609e-05
2.12653e-05
-1.63146e-05
-4.69038e-05
4.28853e-05
9.19882e-07
-2.15409e-05
8.94902e-06
1.02852e-05
-1.5725e-05
8.63192e-07
-6.0325e-07
-4.23929e-07
-3.5971e-06
-3.06237e-05
6.31621e-05
-2.16918e-05
-6.37624e-06
-0.000111881
-4.32929e-05
9.24737e-05
3.80927e-05
-1.07784e-05
-0.000122257
6.927e-06
0.000126109
-5.63902e-05
-4.87104e-05
1.66351e-05
3.69331e-05
1.22165e-05
1.49231e-05
-1.31996e-05
1.00608e-06
7.61056e-05
-7.60785e-05
1.00719e-05
-7.49912e-06
-1.46338e-05
-1.38522e-05
9.86243e-06
1.86236e-05
-1.58993e-05
6.1819e-06
-1.53515e-05
0.000105668
-0.000135079
-6.18608e-05
1.78697e-05
4.39695e-05
-1.46998e-05
2.18275e-05
-3.24652e-05
-8.63867e-05
8.73566e-05
-1.65559e-05
-3.17821e-05
3.20103e-05
1.63277e-05
-5.4184e-06
-1.68434e-05
1.38448e-05
-1.49678e-05
-1.49772e-06
-0.000155974
-7.17634e-07
0.000145913
-4.74098e-06
-1.82253e-05
-1.64896e-05
-3.98696e-05
1.95514e-05
1.95117e-05
-1.12457e-05
-3.13928e-05
-0.000112593
-9.59715e-05
-3.16573e-07
-0.000108287
7.88726e-06
-1.46369e-05
8.52415e-05
-7.84919e-05
3.30512e-05
-7.39298e-05
7.23176e-05
-0.000112383
-7.66055e-05
-3.97254e-05
5.1224e-06
-5.46496e-06
-9.09359e-05
-6.14857e-05
6.13396e-05
-6.90673e-05
2.56648e-05
-5.18784e-05
-1.27305e-05
2.13753e-05
-8.64481e-06
-7.11067e-05
2.96303e-05
-0.000105674
-8.37555e-05
-8.24737e-05
-9.89769e-05
-6.99993e-08
-9.82476e-06
3.59907e-06
6.29567e-06
1.28141e-05
-2.35836e-05
4.29468e-05
-1.65251e-05
1.55439e-05
2.99106e-05
-1.60772e-05
-8.22387e-05
4.18915e-05
8.62052e-05
-2.37246e-05
0.000104763
9.97e-05
-1.02845e-05
6.87342e-05
-6.53892e-05
6.93946e-06
-4.25118e-05
3.59003e-05
-7.46191e-05
-6.57061e-05
1.22988e-05
1.63616e-05
3.70457e-05
-3.99625e-05
2.09887e-05
3.17521e-05
-2.34454e-05
-4.89186e-05
1.26274e-05
6.86652e-05
-1.9188e-06
4.22802e-05
1.00711e-05
7.8594e-06
-3.57571e-06
7.81254e-06
1.65956e-05
1.40375e-05
-1.86927e-05
5.59864e-05
-4.79471e-05
5.5901e-05
-3.35728e-05
2.13176e-05
2.88903e-05
-1.49486e-06
1.82252e-05
-1.80729e-06
8.98398e-06
-5.62852e-05
-2.19777e-05
9.9006e-06
9.19962e-05
-2.45951e-05
2.29042e-05
2.47529e-05
3.03928e-05
-2.50904e-05
-6.35024e-05
5.04269e-05
-9.62253e-05
3.57364e-05
0.000168324
1.10376e-06
-8.99512e-05
-7.94765e-05
2.16721e-06
4.30125e-05
0.000300614
-0.000281968
-0.000160915
5.34072e-05
0.000129512
-0.000250291
6.83499e-06
-1.24249e-05
-3.61703e-06
3.80675e-05
-4.66338e-05
-6.25404e-05
0.000152146
-4.65748e-05
-2.92432e-05
6.41713e-06
5.64251e-06
1.84572e-05
-8.49524e-07
1.20041e-05
-1.98237e-05
1.27683e-05
-3.08285e-05
-2.40433e-05
3.15439e-05
-2.46333e-05
1.42962e-05
-3.19918e-05
-1.33205e-05
4.53122e-05
9.44972e-06
-1.87684e-05
2.74712e-05
4.64509e-06
7.17902e-05
-7.70111e-06
-7.89161e-05
2.27739e-05
-3.79911e-05
2.01745e-05
2.26208e-05
-1.62201e-05
-2.11536e-05
4.6121e-06
1.03045e-05
2.52316e-05
-2.2625e-05
5.58715e-06
-2.19076e-05
1.20333e-05
7.85037e-05
2.21007e-05
-8.79769e-05
-1.20656e-05
1.42887e-05
9.58221e-06
-2.65403e-06
-8.48171e-06
1.32038e-06
-2.18721e-05
5.31067e-07
4.54304e-05
-2.05443e-05
-4.55441e-06
-2.86182e-06
-4.48506e-06
-8.79104e-05
2.12499e-08
0.000123331
-9.19208e-05
0.000102679
-4.87677e-06
-2.40776e-05
-5.1279e-05
5.9065e-06
-4.61095e-05
9.91049e-05
2.55082e-05
-6.08753e-05
5.81118e-05
-2.1811e-05
0.000233605
9.79762e-06
-1.89398e-05
-0.000224463
-2.08481e-05
-1.32222e-05
9.04629e-06
-2.17582e-06
1.57503e-05
4.99024e-05
-3.64278e-05
-1.14296e-05
2.85117e-07
6.79608e-05
-2.01958e-05
5.18434e-05
9.64658e-06
-1.67899e-05
0.000235269
-5.47654e-05
8.94778e-07
3.31814e-05
-2.09676e-05
-2.17886e-05
-7.68e-05
5.27911e-05
-9.31557e-06
1.99716e-05
3.24203e-05
-3.84741e-05
-2.08109e-06
-1.06165e-05
0.000258697
-5.19483e-05
1.97079e-05
4.91155e-05
2.80449e-05
-5.18147e-05
-2.53457e-05
1.75175e-06
2.88848e-05
-2.43477e-05
-6.28885e-06
4.06384e-05
-7.57127e-06
3.03638e-06
-1.99185e-05
-2.97575e-05
7.97101e-05
-8.91624e-05
-1.89228e-05
2.83751e-05
-4.77774e-06
-3.73646e-05
1.71407e-05
2.50016e-05
8.61127e-05
2.19761e-05
7.88078e-06
-1.27434e-05
-4.60429e-06
3.58263e-06
2.07202e-05
7.40542e-05
-2.29841e-05
1.71306e-05
-2.99112e-06
1.54067e-06
-6.91896e-06
-5.00007e-05
-3.59197e-05
5.50918e-05
6.35353e-05
3.17367e-05
-6.25136e-05
-2.32987e-05
3.05845e-05
3.13484e-05
-6.24183e-06
-1.73118e-05
-5.76066e-06
-8.11889e-05
8.01326e-05
-6.20861e-05
-1.80465e-05
-0.000160643
1.87221e-05
2.05472e-05
-1.78966e-05
-3.45138e-05
0.000108626
7.07377e-05
-3.36998e-05
2.19601e-05
4.74345e-05
-4.59948e-05
1.80089e-05
-3.13464e-05
5.03399e-05
2.8268e-05
-9.5855e-06
2.14103e-05
1.12084e-05
-1.254e-06
-7.22826e-06
-2.08544e-05
2.41957e-05
-0.000169728
-4.42345e-05
5.39935e-05
3.43274e-05
6.50837e-06
-4.67062e-06
4.64736e-05
2.29848e-05
-1.41967e-05
-3.17624e-05
-0.000136165
1.24737e-05
1.61499e-05
6.21143e-05
1.76014e-05
-4.77477e-05
2.98313e-06
4.98847e-05
1.39676e-05
1.03318e-05
1.84735e-05
-2.78817e-05
4.15542e-05
-7.12828e-05
-3.37411e-05
-9.31566e-05
6.97052e-05
2.95514e-07
-1.84728e-05
-1.28178e-05
5.80897e-06
2.54817e-05
1.11902e-05
-1.81446e-05
2.03652e-05
-6.16802e-05
3.56687e-05
2.38065e-05
7.1818e-06
1.49566e-05
-5.01204e-06
-3.67525e-05
-3.24683e-07
2.88356e-05
5.7512e-05
1.81828e-05
-1.98918e-06
-4.06845e-07
2.39602e-06
-6.76692e-06
0.00024199
-1.37728e-05
-1.79187e-05
-0.000210298
-2.12157e-06
-1.76324e-05
1.08655e-05
-3.89763e-05
-0.000143731
1.17529e-05
1.98674e-05
1.7468e-06
-3.86837e-06
-1.34492e-05
-4.18328e-06
-3.09718e-05
1.45259e-05
1.64459e-05
0.000167525
-8.70834e-05
-8.04418e-05
9.14599e-05
-6.26396e-05
-8.68383e-05
8.35431e-06
6.91974e-07
-4.83713e-05
3.99432e-05
4.51368e-05
-3.67088e-05
-4.52529e-05
-5.22184e-05
1.39106e-05
-4.11414e-05
4.01314e-05
-8.99259e-05
-2.09609e-09
4.32818e-06
-4.3261e-06
7.49938e-06
1.29821e-05
1.16011e-05
6.81217e-07
-1.5858e-05
2.04308e-05
0.00017403
7.22276e-05
0.000209781
-0.000136432
0.000170169
-2.98875e-06
-8.26465e-05
-5.68823e-05
-1.56459e-05
-1.29719e-05
-1.41768e-07
-3.34554e-06
5.38113e-06
-2.0356e-06
3.19512e-05
1.42517e-05
-3.19142e-05
5.33565e-06
-6.65965e-06
-2.75599e-05
4.10219e-05
4.70984e-06
-4.55749e-05
-2.32058e-05
-2.48924e-05
-1.82373e-05
-3.34764e-06
-6.21537e-05
1.332e-05
7.45981e-05
-2.57644e-05
-3.09663e-05
2.79291e-05
2.70643e-05
-2.4027e-05
0.000103481
-0.000141803
0.000113804
-0.000104118
7.18929e-05
-3.05755e-06
7.25772e-06
-3.53325e-06
-1.97274e-06
-8.16249e-06
2.27561e-05
1.07624e-05
-2.03258e-05
-7.56371e-05
-3.9993e-05
6.22923e-05
-0.000398829
0.000187132
-2.98873e-06
9.82081e-06
-3.72673e-06
4.4312e-06
-8.50202e-05
9.06625e-05
1.29715e-06
-2.83858e-05
2.79944e-05
-5.56816e-06
-2.24262e-05
8.49537e-05
4.22217e-05
-4.74653e-05
2.59471e-05
1.33089e-05
-3.25207e-05
-1.69804e-05
1.92243e-05
2.5052e-05
2.45894e-05
-3.36165e-05
-6.72269e-05
1.36542e-05
3.51488e-05
-0.000168259
2.5684e-05
1.10815e-05
-4.86242e-05
-4.2248e-06
-5.48238e-05
-1.86369e-05
2.14768e-05
-7.55078e-05
1.08529e-05
-2.10844e-05
1.06733e-05
-5.05399e-05
-3.02918e-05
0.000110424
4.85765e-05
-7.18012e-05
-7.12907e-05
1.5076e-06
5.64649e-05
9.41912e-05
-1.12299e-05
2.16399e-05
-2.84287e-05
-0.000309316
0.0003327
1.76281e-05
4.44862e-05
5.33115e-05
4.69329e-05
-7.92787e-05
8.09224e-05
-5.76191e-05
-8.44887e-06
2.3942e-05
6.96367e-06
-7.61007e-07
-4.87661e-05
-9.54148e-05
0.00012019
-0.000176112
0.000148106
-3.4998e-05
7.31325e-05
-1.895e-05
-2.46195e-05
3.00571e-05
-2.83244e-05
-6.72676e-06
-7.01983e-05
7.80855e-05
-6.28014e-05
-7.39683e-06
2.05896e-05
-4.37516e-05
-0.000104559
0.000127721
1.80142e-05
5.30702e-06
-1.71397e-05
2.88318e-05
5.72959e-06
-1.74216e-05
4.45771e-05
-9.46324e-05
6.10235e-05
-1.09683e-05
2.02872e-06
-2.32852e-05
-2.92412e-05
-9.49192e-05
-2.44879e-05
-7.22873e-05
-1.1668e-05
9.08881e-05
-8.94341e-05
-9.90917e-06
-1.16913e-05
1.89824e-05
1.43488e-05
1.21472e-06
2.26104e-05
2.19394e-05
-6.72557e-06
-1.7121e-05
-1.36234e-05
-5.69519e-07
-2.94683e-06
-5.0418e-05
5.0019e-05
-0.000228129
0.000157214
-4.97058e-05
2.32067e-05
3.81106e-05
-2.23197e-05
-2.33156e-05
4.78598e-05
5.19385e-05
-2.4453e-05
2.72151e-05
4.63535e-05
-2.76517e-06
-1.40284e-05
-2.03148e-06
-7.27996e-05
9.96189e-06
7.04958e-05
4.85888e-05
-2.15445e-05
-1.05205e-05
-9.50799e-05
5.06439e-05
6.05245e-06
1.85917e-05
-3.5275e-05
-3.30225e-05
-2.77199e-05
-3.66999e-05
-1.60618e-05
-6.98478e-05
7.66981e-06
4.52518e-06
-3.20064e-05
1.38838e-05
6.90451e-06
-1.51944e-06
1.57861e-06
1.69035e-05
2.48798e-05
1.99874e-05
-0.000101047
4.8337e-05
-5.58704e-05
-6.47539e-05
3.05335e-06
-3.91213e-05
5.76675e-05
2.18396e-05
3.20472e-06
8.52402e-05
-2.86886e-05
-1.0757e-05
9.29469e-06
-5.53592e-05
6.19741e-06
-5.63528e-05
0.000239462
0.00028037
4.60817e-05
1.5346e-05
-4.7801e-05
1.04253e-05
-2.67476e-05
6.96117e-05
-4.19809e-05
1.18812e-05
-4.48081e-05
4.09946e-05
-9.64031e-06
5.44192e-06
-1.13333e-05
-1.27778e-05
1.35152e-05
-1.75696e-05
1.9853e-05
1.9043e-05
-2.13264e-05
-3.97546e-05
5.94681e-05
3.62854e-06
-1.70088e-06
-1.8743e-06
1.07803e-05
-3.88388e-05
0.000201003
0.000184154
-7.69165e-05
-8.84192e-05
6.0552e-05
3.77678e-05
-0.00010792
3.42975e-05
-0.000101415
5.52378e-06
-1.17284e-05
1.38526e-05
6.05272e-05
2.70404e-05
6.20266e-05
-3.30896e-06
-6.85685e-05
-2.64238e-05
2.37238e-05
2.75798e-05
-1.68887e-05
1.39357e-05
2.12556e-06
7.31612e-05
-6.89971e-05
5.26489e-05
-4.6839e-05
-4.57667e-05
-3.96472e-05
-1.32804e-05
0.000143261
1.29452e-05
1.96946e-05
-6.81222e-05
3.87147e-05
2.94075e-05
-1.66562e-05
3.57043e-06
-6.98063e-06
3.4102e-06
4.4062e-06
-3.45876e-05
3.59952e-05
6.52397e-05
-2.76932e-05
1.74739e-05
-2.71269e-05
1.4967e-06
-3.40009e-05
7.16693e-05
-7.15067e-05
7.7273e-05
8.8915e-05
-2.2797e-05
-5.03891e-06
2.99448e-06
3.87503e-05
-3.06982e-05
-1.46455e-06
-0.000148549
-5.38125e-05
5.25906e-05
-7.77043e-05
0.000236934
-3.84124e-05
5.63285e-06
-8.80791e-06
1.49452e-05
2.92154e-05
-2.54082e-05
2.18223e-05
-3.96951e-05
3.98391e-05
-1.43988e-07
-3.64985e-05
-3.19661e-06
3.12482e-05
-2.37326e-05
-7.51563e-06
-5.25028e-06
0.000140136
-0.000156793
1.66572e-05
0.000109284
3.08517e-05
-0.000154575
-0.000139903
-1.46718e-05
3.56216e-05
-0.000134394
-5.50946e-06
-0.000136146
1.75228e-06
2.71401e-05
8.48149e-06
1.68287e-05
7.51317e-06
3.32619e-05
7.66971e-05
8.66494e-07
6.64668e-06
4.43692e-06
-4.02868e-06
2.77984e-05
1.49659e-05
-9.09068e-06
1.68635e-05
7.91608e-05
1.64828e-06
-8.08091e-05
-0.000133754
-1.62025e-05
3.35859e-05
-3.05398e-05
3.91739e-05
-8.40818e-06
1.78231e-05
-1.03652e-05
1.78301e-05
1.79943e-05
3.52833e-06
1.21747e-05
-4.16661e-06
0.00010931
-1.16305e-06
6.2104e-07
-3.3986e-05
5.00205e-05
-1.60345e-05
2.73416e-05
-8.82342e-06
-9.81344e-06
-0.000111993
0.000106112
-8.20575e-05
1.18681e-05
5.45789e-05
-2.09059e-05
-1.30801e-05
1.09886e-05
-5.12611e-06
-2.59311e-05
2.28149e-05
-0.000123444
-1.03105e-05
-4.09644e-05
-1.73337e-05
2.90549e-05
8.49069e-05
0.000215598
0.000121488
0.000145389
-6.30759e-06
-2.31513e-05
1.75062e-05
-2.36695e-05
-3.11252e-05
-4.0918e-05
4.50756e-05
3.29058e-05
7.82634e-06
-1.43343e-05
2.55516e-05
6.6549e-05
1.48598e-05
0.00016881
-0.000171668
-2.20235e-06
2.03365e-05
6.83745e-05
-1.8354e-05
-0.000107323
-1.6121e-05
7.63582e-05
-2.60246e-05
-1.21072e-05
1.11588e-05
-6.04372e-05
-0.000128623
-0.000248539
8.67332e-05
-1.83587e-05
-9.59041e-06
-3.68373e-05
-1.99571e-05
4.94647e-05
3.20448e-05
-8.56718e-05
0.000278353
-4.24115e-05
-1.37386e-05
3.29917e-05
-4.27387e-06
1.95817e-06
3.48375e-06
-1.62784e-06
-1.04793e-05