/*--------------------------------*- C++ -*----------------------------------*\
| =========                 |                                                 |
| \\      /  F ield         | OpenFOAM: The Open Source CFD Toolbox           |
|  \\    /   O peration     | Version:  v1912                                 |
|   \\  /    A nd           | Website:  www.openfoam.com                      |
|    \\/     M anipulation  |                                                 |
\*---------------------------------------------------------------------------*/
FoamFile
{
    version     2.0;
    format      ascii;
    class       volScalarField;
    location    "0.37";
    object      nut;
}
// * * * * * * * * * * * * * * * * * * * * * * * * * * * * * * * * * * * * * //

dimensions      [0 2 -1 0 0 0 0];


internalField   nonuniform List<scalar> 
1431
(
0.00182856
0.00290103
0.00243084
0.00174266
0.00115979
0.00266225
0.00416155
0.000787718
0.00393259
0.00473502
0.0011501
0.00120765
0.0013869
0.00131562
0.00425492
0.000644048
0.00457298
0.00275596
0.000545086
0.00136519
0.000711599
0.00374823
0.00438377
0.00140978
0.00147032
0.00151991
0.00155421
0.00122811
0.00100118
0.00175106
0.00137254
0.000722192
0.00195085
0.00109349
0.00122719
0.00226282
0.00190121
0.000859487
0.00262517
0.000858946
0.00223855
0.00052905
0.00194023
0.00458089
0.00369673
0.00163361
0.00271134
0.000808297
0.000857432
0.00087123
0.00197155
0.00456104
0.00389315
0.00243092
0.0051671
0.000769641
0.00483104
0.00328935
0.00101763
0.000569277
0.00388916
0.000949644
0.0026783
0.000783695
0.000903501
0.00247913
0.00242284
0.00153475
0.00313938
0.000751286
0.00102138
0.00126331
0.00137972
0.00258835
0.00130544
0.00118673
0.00111158
0.00308547
0.000786209
0.00222057
0.000806313
0.00263446
0.000966598
0.0031732
0.00242954
0.00131966
0.00135518
0.000896512
0.00151061
0.00194761
0.00222413
0.000893014
0.00131576
0.000862675
0.00291089
0.00107696
0.0011414
0.000730851
0.00104105
0.00105249
0.00318891
0.000808051
0.00254009
0.00124765
0.00117135
0.00208601
0.000786876
0.00281476
0.00190473
0.00103535
0.00265474
0.00206462
0.000756612
0.00214307
0.00108667
0.00120254
0.00236151
0.00381675
0.00162029
0.00290227
0.000860802
0.00387268
0.00499592
0.00132214
0.000831467
0.0030481
0.00174563
0.00143792
0.00179605
0.000811484
0.00130708
0.00266198
0.00100275
0.00254641
0.00131866
0.000930423
0.00133873
0.00240062
0.00202076
0.00263428
0.00433004
0.000537297
0.000770513
0.000904733
0.00103671
0.000776231
0.000735318
0.0029143
0.00128022
0.000786411
0.000820716
0.000954148
0.00265839
0.00046338
0.000390124
0.00134026
0.000803695
0.00236071
0.000757346
0.00071078
0.0028742
0.00171384
0.00241242
0.000997672
0.00138135
0.00331413
0.00117861
0.000864435
0.00172305
0.00266536
0.00104659
0.000941172
0.00129493
0.000770141
0.000772351
0.000408014
0.000614137
0.000875017
0.00171392
0.000717764
0.000840152
0.00472826
0.00075223
0.00236056
0.000773858
0.000799175
0.000754397
0.0012632
0.00159481
0.00079997
0.00489928
0.00482527
0.00104352
0.000791366
0.00430573
0.000847893
0.000786449
0.000837816
0.000470054
0.000392712
0.00047875
0.000659605
0.00074426
0.00220778
0.000787006
0.0020546
0.00132133
0.000834667
0.00126189
0.000880622
0.00079043
0.000784864
0.00156603
0.000831856
0.00416592
0.00141392
0.000758123
0.00438214
0.0017542
0.000833911
0.000830617
0.00235657
0.000778434
0.00220811
0.000825226
0.000872584
0.000938448
0.0025572
0.000825031
0.00148217
0.00148305
0.00117091
0.000748015
0.000798132
0.000791535
0.000785187
0.000738023
0.00225931
0.000827477
0.00234235
0.000844327
0.000722064
0.00434484
0.00415436
0.00109383
0.00103406
0.000830158
0.00247787
0.001727
0.000956825
0.00072504
0.00399998
0.00411537
0.00120486
0.00300407
0.00108209
0.000682815
0.00248673
0.00111754
0.00109137
0.0010705
0.00100402
0.00117058
0.00448627
0.000791335
0.00080697
0.00102039
0.000746364
0.0010208
0.00475248
0.000744438
0.000908525
0.000728524
0.000728725
0.00106007
0.000765865
0.00239412
0.00361625
0.002796
0.00515545
0.0042503
0.00232727
0.00187233
0.00238931
0.00101683
0.00137425
0.0014492
0.000757097
0.000895155
0.000833643
0.000777265
0.000870662
0.000752015
0.00379872
0.000730997
0.000744406
0.00111819
0.000768109
0.00239959
0.000709102
0.0008458
0.000970615
0.00117052
0.000736211
0.00180218
0.00233493
0.000829086
0.00108932
0.00109959
0.00159696
0.000837113
0.000784012
0.00311178
0.000758646
0.00115906
0.00243961
0.00460122
0.00210142
0.000796492
0.00251118
0.00220545
0.00248119
0.00345662
0.00208238
0.00546355
0.00270776
0.000807533
0.00299448
0.00166886
0.000831437
0.00315278
0.00150405
0.00269817
0.00493288
0.00078693
0.00473294
0.00146082
0.00236384
0.001762
0.0021314
0.000413619
0.000823172
0.00311165
0.00093213
0.00200512
0.00042679
0.000825911
0.000808068
0.000240118
0.000450151
0.000969078
0.000640439
0.00095838
0.000684256
0.000570867
0.000919752
0.000774245
0.000454091
0.000554928
0.000577963
0.000656196
0.000804305
0.000719988
0.000248616
0.000278946
0.000791191
0.000712211
0.000790408
0.00242522
0.0031458
0.00261555
0.00264435
0.00254815
0.000755392
0.00356979
0.00167663
0.00349982
0.000842588
0.000848867
0.000581349
0.000614839
0.000810016
0.000325733
0.000869932
0.000900263
0.000728191
0.000838316
0.000487762
0.000626986
0.0002416
0.000840123
0.00303922
0.000864935
0.000848696
0.0026939
0.00114846
0.00203645
0.000834678
0.00533702
0.000772984
0.000662288
0.00306288
0.000832776
0.00230543
0.00251916
0.000788661
0.00215688
0.00071819
0.00133027
0.00352263
0.000832397
0.000580978
0.00284127
0.00233156
0.000962346
0.00105638
0.00345184
0.00438797
0.00271965
0.00180446
0.00205864
0.00422069
0.00441989
0.00215311
0.00319516
0.00354186
0.00219738
0.0038999
0.00596665
0.00292693
0.00488072
0.00175863
0.000495736
0.00481507
0.00235161
0.00338486
0.00467848
0.00408593
0.00197789
0.00297813
0.00494577
0.00103396
0.00450401
0.00409172
0.000485324
0.00555372
0.00558098
0.00131161
0.000978104
0.00475773
0.00506552
0.00409474
0.00552962
0.00402183
0.00418562
0.00360439
0.00355092
0.00389498
0.00361059
0.00239899
0.00328198
0.000724003
0.002792
0.00310683
0.00241115
0.00228881
0.00100759
0.00308154
0.00235706
0.00267817
0.00269567
0.00277543
0.000735368
0.0011024
0.00233888
0.00237413
0.00296795
0.00308651
0.00467361
0.000778478
0.00333029
0.00274575
0.0011147
0.000802076
0.000805197
0.00468236
0.00288483
0.00510588
0.00395373
0.000777578
0.000601983
0.000766644
0.00233093
0.00373982
0.000781514
0.00262594
0.00129982
0.00339539
0.000837183
0.00264428
0.00238242
0.00155288
0.00318392
0.00286167
0.00258818
0.00169598
0.00214269
0.00484523
0.00321329
0.00098046
0.00088566
0.00140073
0.000743293
0.002114
0.000792863
0.00309275
0.00421183
0.00141981
0.00331492
0.00217767
0.00228428
0.00164096
0.00309225
0.00114413
0.0025596
0.00449615
0.00247438
0.00374019
0.0018898
0.00343538
0.000791887
0.000738226
0.00185254
0.00234374
0.00422827
0.00401227
0.00262997
0.00267338
0.0055634
0.0024953
0.0024664
0.00430124
0.00337103
0.00399519
0.000598395
0.00528834
0.00333791
0.000797443
0.00452021
0.00208327
0.00211167
0.000601159
0.00106723
0.00425753
0.00282081
0.00237657
0.00293052
0.00362495
0.00102863
0.000759379
0.00541931
0.00204295
0.00365018
0.00468819
0.002512
0.00132671
0.00537009
0.00074468
0.00312959
0.00217679
0.000834855
0.00537412
0.00293451
0.00533084
0.00354486
0.00218759
0.00483267
0.0028057
0.00213748
0.00103059
0.00241376
0.000799371
0.00221453
0.00339796
0.00160095
0.00213073
0.0027444
0.000789143
0.00233858
0.000794468
0.00485957
0.00341546
0.000848242
0.000779835
0.000769985
0.0019458
0.000842816
0.00420544
0.00074329
0.000461401
0.00293497
0.00259152
0.00193867
0.0026127
0.00255478
0.00524229
0.00157142
0.00189231
0.00532516
0.00221593
0.0018589
0.00545678
0.00178582
0.00414371
0.00208433
0.000747761
0.00346419
0.00289276
0.00308006
0.0048354
0.00170625
0.00184148
0.00268911
0.00138616
0.00408345
0.00092885
0.00161531
0.000867898
0.00501927
0.000805779
0.00536432
0.00266444
0.000561421
0.000806508
0.00214522
0.00453347
0.00174302
0.000737107
0.00110676
0.00254131
0.00212779
0.00491108
0.000807524
0.00538953
0.00385473
0.00243946
0.00199491
0.00395306
0.00398536
0.00247488
0.00312518
0.00209392
0.000766249
0.0011347
0.00416392
0.00478563
0.000821135
0.000841212
0.00473047
0.00524459
0.00332366
0.000764301
0.00242197
0.0024111
0.000828091
0.000405401
0.00084824
0.00516233
0.00505724
0.00345755
0.000850447
0.000822592
0.00257849
0.00367101
0.00078341
0.000749449
0.0019029
0.00507202
0.0014148
0.00107011
0.00461628
0.000634161
0.000999276
0.00239597
0.0042995
0.00254272
0.00362913
0.00251792
0.00387156
0.00213852
0.00178036
0.00349109
0.00216279
0.00246742
0.00521657
0.00154769
0.00024877
0.000869006
0.000825058
0.000727118
0.00219205
0.00163756
0.000765883
0.00141315
0.00113942
0.00141322
0.0011309
0.00541218
0.00085064
0.00231501
0.00213565
0.00074644
0.0018224
0.00489166
0.00362859
0.000635327
0.00313297
0.00400926
0.000720358
0.0021362
0.000644383
0.000841441
0.00080533
0.00389905
0.00216339
0.000626026
0.00418701
0.00462704
0.000683113
0.000625916
0.00262752
0.000591531
0.000702675
0.000720467
0.00466941
0.00076815
0.00211373
0.00363014
0.00555343
0.00221367
0.00285703
0.00474636
0.000687983
0.00168911
0.000784472
0.00066347
0.00074751
0.00085347
0.0011625
0.00112392
0.0045155
0.000755805
0.000740819
0.000761997
0.00232622
0.00156189
0.000845061
0.000843003
0.000874969
0.00189006
0.00126292
0.0011926
0.00187263
0.00211968
0.00085584
0.00406128
0.0005274
0.00202878
0.000792601
0.000755142
0.00395529
0.00411899
0.000832219
0.00196051
0.000504269
0.000776382
0.000814678
0.0033101
0.00505551
0.00132234
0.001364
0.000549634
0.000769447
0.00417956
0.00152398
0.00417953
0.000774793
0.00199458
0.00118594
0.00206354
0.00230834
0.000773316
0.000872091
0.00095235
0.000847828
0.000834658
0.000845498
0.00192744
0.00479268
0.000810075
0.0054845
0.00329471
0.000715856
0.00158032
0.000238194
0.00194156
0.00233903
0.0029788
0.00365522
0.00119847
0.000829922
0.000811908
0.00409553
0.000826699
0.00187262
0.000833437
0.000673285
0.000597009
0.000538593
0.000648806
0.000837405
0.000732326
0.000773803
0.0021552
0.001089
0.000777352
0.00140651
0.00308095
0.0016984
0.00080424
0.00105532
0.000586354
0.00221112
0.000673562
0.00188039
0.00104596
0.00517529
0.00111378
0.000745974
0.00531059
0.000779835
0.000722419
0.000733703
0.000663876
0.00235082
0.000714107
0.00195154
0.0025348
0.00195458
0.000821964
0.00308427
0.00263915
0.00257394
0.000561754
0.00187216
0.00165953
0.0041101
0.0039734
0.000837849
0.000868446
0.000807222
0.00230332
0.0017783
0.00258703
0.00198318
0.00136008
0.000805387
0.000759234
0.000714638
0.00234729
0.000767887
0.0021959
0.00206624
0.00305823
0.000617358
0.000776567
0.00234299
0.00517728
0.00299153
0.000818894
0.000886823
0.00160864
0.00206464
0.00142529
0.000747068
0.00170754
0.00165454
0.00313307
0.00380753
0.000703547
0.000878964
0.00340306
0.00306322
0.000826435
0.00250873
0.00340098
0.000631263
0.00203613
0.00236845
0.00132811
0.00181793
0.00191169
0.00345732
0.00341953
0.000952712
0.000938689
0.0008459
0.00257353
0.000833501
0.000632493
0.00246783
0.000807122
0.00481847
0.00259608
0.00323887
0.00384963
0.00272514
0.000865572
0.00101934
0.00118513
0.00482344
0.00078547
0.00189578
0.000815344
0.000795632
0.00105222
0.0011733
0.000729695
0.00514583
0.000683262
0.00314376
0.000751695
0.00127917
0.000317398
0.000360368
0.000342554
0.000326234
0.000367785
0.00036177
0.00198401
0.00022572
0.000737094
0.000820233
0.000342924
0.00155538
0.000440607
0.00264
0.00107436
0.00301711
0.000330983
0.00533478
0.000386389
0.000714412
0.00526528
0.00438726
0.0019171
0.000323286
0.00275156
0.0054842
0.00245645
0.0042912
0.00504345
0.00280588
0.00287731
0.00223178
0.000329047
0.000329726
0.000968051
0.00031298
0.00277766
0.0055527
0.00315893
0.00216971
0.000969856
0.00422491
0.00325049
0.000817172
0.000329388
0.000339889
0.00116392
0.00322977
0.00078033
0.00533967
0.00317414
0.0030229
0.000781157
0.000311203
0.00362848
0.000354546
0.0010884
0.000428025
0.000825881
0.00507568
0.00279001
0.000829967
0.00197188
0.00346503
0.000895655
0.00265495
0.00103714
0.000714076
0.00106321
0.000811373
0.00234656
0.00515712
0.000778173
0.00253021
0.00486585
0.000846087
0.00227345
0.00479022
0.00415131
0.000813748
0.000729489
0.0009759
0.00342536
0.00272837
0.00311648
0.00288077
0.005143
0.00363538
0.00444983
0.00292729
0.00275005
0.00107137
0.0022101
0.00198714
0.00230186
0.000558359
0.00246149
0.00537318
0.00373613
0.00253933
0.00311208
0.00102848
0.00421567
0.00307515
0.000837811
0.00347846
0.00250553
0.00135352
0.00121444
0.000760328
0.00231162
0.00451179
0.00299503
0.00306858
0.00516018
0.000753804
0.00396876
0.0028402
0.000624458
0.00481173
0.00444287
0.00176408
0.0046559
0.00247369
0.000785203
0.000797018
0.000755033
0.00422682
0.00489345
0.000846627
0.000798829
0.000775159
0.00204543
0.00101593
0.0007777
0.000840736
0.0047967
0.00230471
0.000799058
0.00082308
0.00234885
0.000823525
0.00321381
0.000236844
0.000777559
0.000791175
0.000802605
0.000389207
0.00107344
0.00226684
0.00122708
0.000743512
0.000450767
0.00105262
0.00101876
0.000795254
0.00382132
0.00247011
0.000743928
0.00190339
0.000770794
0.000534545
0.000325895
0.0015908
0.000833358
0.00205936
0.00275781
0.00204413
0.00035805
0.000956353
0.000931661
0.000528346
0.000867156
0.0036148
0.000834033
0.00187543
0.000808118
0.00147163
0.00468114
0.003226
0.000689978
0.00211872
0.000898559
0.00277469
0.00278183
0.00112786
0.000797659
0.00279731
0.00212433
0.000790758
0.00032194
0.00096753
0.000356005
0.00285804
0.00207512
0.00264231
0.00458582
0.000788403
0.000653968
0.00188498
0.00339483
0.000522604
0.00168499
0.00132891
0.00103949
0.00274742
0.000666075
0.00224448
0.00216276
0.00378545
0.00529201
0.00226612
0.000801239
0.000824704
0.000343842
0.00179124
0.000823085
0.00318022
0.000765059
0.00228352
0.00389061
0.00212183
0.00281282
0.00457579
0.00114608
0.000508268
0.000837989
0.00135133
0.000272813
0.000750261
0.00216322
0.00523792
0.00147902
0.000760784
0.00073696
0.00227498
0.000350987
0.000840553
0.0025306
0.00456769
0.000858351
0.00084055
0.000839713
0.00078422
0.000627178
0.000680047
0.00362738
0.000613357
0.00343933
0.00075081
0.00137089
0.00296562
0.000829127
0.00357416
0.00292667
0.000591661
0.00067965
0.00210902
0.00247471
0.00087026
0.000351515
0.0049807
0.00508399
0.000910457
0.0033306
0.00141342
0.000740442
0.00375858
0.00382474
0.0030571
0.00214665
0.00469468
0.000880695
0.000852537
0.00126237
0.00536588
0.000842376
0.000819678
0.00176926
0.00481602
0.00177575
0.00216595
0.00159602
0.00287683
0.00121501
0.00188297
0.00161831
0.00269587
0.00516884
0.000473248
0.000303964
0.00485253
0.000751198
0.00138384
0.000736508
0.000774211
0.000844477
0.000908205
0.0023225
0.00107961
0.000955815
0.000293017
0.00553421
0.00116765
0.00126085
0.00319135
0.00156056
0.00303626
0.003429
0.00171481
0.0023049
0.00451149
0.00337394
0.000897322
0.00138562
0.00299407
0.000721968
0.0013738
0.000960619
0.000792282
0.00273128
0.00353895
0.0054955
0.00228493
0.000622186
0.00523909
0.00271784
0.00129953
0.00271711
0.00428806
0.00447453
0.000770867
0.000844455
0.00375159
0.0025266
0.00177672
0.00499172
0.00338813
0.00337572
0.00107571
0.000831041
0.000969825
0.000816381
0.000874067
0.00213041
0.000840967
0.00100858
0.000436469
0.00151562
0.000811336
0.000947534
0.00259231
0.0029275
0.00532032
0.00425619
0.00419409
0.00254311
0.00292179
0.00120174
0.00368597
0.00142215
0.00191879
0.000845931
0.00250865
0.00445072
0.00163831
0.00079704
0.0051
0.000786458
0.00441794
0.0041356
0.00469623
0.00520971
0.00367702
0.000775249
0.00247945
0.00532794
0.000846122
0.000783064
0.000604391
0.00280193
0.00245443
0.000721078
0.00363513
0.00357785
0.00123492
0.00280414
0.000965059
0.000352108
0.00299455
0.0051557
0.00288094
0.00272543
0.00103161
0.000855706
0.00334411
0.00221182
0.00250887
0.00254541
0.00169427
0.00278049
0.000760712
0.00139285
0.0021154
0.000820971
0.0011874
0.00138919
0.0007204
0.00168454
0.00250905
0.000855248
0.000276521
0.0014904
0.00197775
0.000803292
0.00118012
0.00160145
0.00125929
0.000683124
0.00190782
0.00267482
0.00247716
0.00273679
0.00226919
0.000857022
0.00176506
0.00253037
0.00219352
0.00313881
0.000716695
0.00296723
0.00334583
0.00225724
0.00164424
0.000755762
0.00122893
0.000696409
0.000946949
0.00176732
0.00128237
0.00127177
0.00275294
0.00184584
0.00377099
0.00127703
0.000788284
0.0053352
0.00090568
0.00228634
0.00319083
0.00262303
0.000813968
0.00102699
0.00192541
0.0008432
0.000883191
0.00120984
0.000987355
0.00244825
0.00137735
0.00188049
0.00535745
0.00122611
0.00118296
0.00126757
0.00106238
0.000968643
0.00179514
0.000837141
0.000834583
0.00132733
0.00301302
0.00164368
0.000879053
0.000910966
0.000914924
0.00079383
0.00276282
0.00319945
0.00400566
0.00477311
0.000742347
0.000665182
0.00356314
0.00525551
0.00384435
0.00480183
0.00378743
0.000803918
0.000761439
0.00117791
0.00074063
0.00101397
0.00105358
0.00171396
0.00127717
0.00191192
0.00117791
)
;

boundaryField
{
    frontAndBack
    {
        type            empty;
    }
    wallOuter
    {
        type            nutkWallFunction;
        Cmu             0.09;
        kappa           0.41;
        E               9.8;
        value           nonuniform List<scalar> 
90
(
7.68263e-05
7.67281e-05
7.77946e-05
7.56312e-05
8.23459e-05
8.46487e-05
8.67267e-05
9.40943e-05
8.00368e-05
8.90878e-05
9.15273e-05
9.50247e-05
9.07413e-05
9.31679e-05
9.23806e-05
0.000104137
9.97032e-05
8.11854e-05
7.21945e-05
6.52159e-05
7.83117e-05
0.000100156
8.80634e-05
9.28765e-05
8.00816e-05
0.000113319
0.00011164
8.77587e-05
8.23164e-05
3.99928e-05
4.56089e-05
4.33305e-05
3.93397e-05
4.6534e-05
4.57191e-05
4.31649e-05
4.12537e-05
4.86341e-05
8.54799e-05
4.04856e-05
4.09862e-05
4.12639e-05
0.000114769
3.88659e-05
4.10482e-05
4.25272e-05
4.38918e-05
0.000128259
5.39832e-05
0.00010678
0.000115883
6.60194e-05
7.54434e-05
9.56508e-05
9.82317e-05
4.89702e-05
5.68695e-05
0.000124235
0.000120612
8.94112e-05
6.47297e-05
4.03235e-05
4.43424e-05
0.000110684
9.68023e-05
8.31535e-05
0.000107156
3.97422e-05
0.000114697
4.41281e-05
6.15453e-05
3.33082e-05
9.13562e-05
4.34269e-05
0.000102344
7.41275e-05
7.15609e-05
0.000103901
4.35477e-05
0.000108306
5.73099e-05
0.00011339
3.5963e-05
7.51751e-05
5.10843e-05
4.35633e-05
0.000102
3.38852e-05
8.23352e-05
8.38894e-05
)
;
    }
    inlet
    {
        type            calculated;
        value           uniform 0.000851986;
    }
    outlet
    {
        type            calculated;
        value           nonuniform 0();
    }
    wallInner
    {
        type            nutkWallFunction;
        Cmu             0.09;
        kappa           0.41;
        E               9.8;
        value           nonuniform List<scalar> 
138
(
0.000140638
6.79163e-05
0.000221743
0.000129907
0.000148015
6.40526e-05
0.000270274
0.000176087
0.000122152
0.00015325
0.000139717
0.00011886
5.57932e-05
4.87235e-05
4.96386e-05
7.42588e-05
5.92353e-05
4.95007e-05
5.91895e-05
7.95761e-05
0.000248039
0.000127738
8.22379e-05
0.000131713
0.000128789
0.000126443
0.000120921
0.000125275
0.000120522
0.00012855
0.000129712
5.15625e-05
5.30085e-05
9.79544e-05
2.83436e-05
5.17652e-05
0.000116492
7.44612e-05
0.000111664
8.08996e-05
7.09923e-05
0.000110551
8.98535e-05
5.66644e-05
6.6018e-05
7.11554e-05
7.90837e-05
9.84677e-05
8.55871e-05
2.93817e-05
3.35864e-05
9.59712e-05
8.56965e-05
9.65401e-05
6.9762e-05
7.22034e-05
9.81287e-05
3.78062e-05
0.000101088
0.000109599
8.71292e-05
0.000102376
6.1087e-05
7.41387e-05
2.86283e-05
0.000101704
8.12635e-05
7.04821e-05
0.000125281
6.01522e-05
0.000120634
5.86353e-05
0.000113798
9.18006e-05
0.000130376
9.83659e-05
0.000131742
9.07329e-05
7.11212e-05
9.75287e-05
9.9154e-05
0.0001522
0.000179348
0.0001141
0.000103072
0.000165068
7.04491e-05
7.45759e-05
0.00012614
0.000121838
0.000100783
5.50867e-05
6.83304e-05
4.91873e-05
7.83003e-05
2.90113e-05
0.000105177
7.5628e-05
7.14597e-05
8.29881e-05
0.000146204
6.42668e-05
6.11856e-05
6.54906e-05
0.000113636
2.75297e-05
0.000123245
0.000131304
9.1132e-05
6.7318e-05
7.89218e-05
0.000124394
2.60777e-05
8.89898e-05
5.50935e-05
0.00011529
9.36649e-05
3.81341e-05
8.3949e-05
0.000126183
9.8314e-05
2.87448e-05
9.32856e-05
6.41104e-05
8.12524e-05
6.345e-05
9.86724e-05
4.29372e-05
7.70358e-05
8.24133e-05
3.61862e-05
8.03068e-05
0.000138666
8.9143e-05
0.000120367
0.000196435
0.000156383
0.000137117
)
;
    }
    procBoundary0to1
    {
        type            processor;
        value           nonuniform List<scalar> 
29
(
0.00336745
0.004753
0.00349391
0.00349391
0.00514421
0.00514421
0.00277735
0.00173922
0.00197162
0.00268736
0.00255001
0.0019535
0.0013746
0.00151286
0.00206435
0.00119532
0.00769037
0.00532915
0.0032067
0.00458497
0.000838474
0.000724319
0.00314907
0.000736005
0.000723884
0.00532915
0.000721356
0.000906224
0.000736005
)
;
    }
    procBoundary0to2
    {
        type            processor;
        value           nonuniform List<scalar> 
42
(
0.00373294
0.00332369
0.001311
0.0011988
0.00234207
0.00373294
0.001311
0.000980303
0.00211073
0.00163337
0.0023886
0.0025433
0.0023886
0.00278471
0.00332173
0.00357192
0.00332173
0.00133536
0.00187758
0.0038419
0.0038419
0.00133536
0.000915463
0.00383218
0.00383218
0.000738083
0.00296195
0.000795291
0.00332823
0.0033924
0.0033924
0.000869945
0.000884478
0.00085193
0.000820665
0.001311
0.00327141
0.000423249
0.00332823
0.000980303
0.000819584
0.000797042
)
;
    }
}


// ************************************************************************* //
