/*--------------------------------*- C++ -*----------------------------------*\
| =========                 |                                                 |
| \\      /  F ield         | OpenFOAM: The Open Source CFD Toolbox           |
|  \\    /   O peration     | Version:  v1912                                 |
|   \\  /    A nd           | Website:  www.openfoam.com                      |
|    \\/     M anipulation  |                                                 |
\*---------------------------------------------------------------------------*/
FoamFile
{
    version     2.0;
    format      ascii;
    class       surfaceScalarField;
    location    "0.37";
    object      phi;
}
// * * * * * * * * * * * * * * * * * * * * * * * * * * * * * * * * * * * * * //

dimensions      [0 3 -1 0 0 0 0];
oriented        oriented;


internalField   nonuniform List<scalar> 
2708
(
-3.84957e-05
3.2675e-05
1.93637e-05
-1.35431e-05
-7.71596e-05
9.85991e-05
-3.31781e-06
-1.81217e-05
0.00124954
0.000245018
-0.000886857
-0.000607706
-0.000333141
0.000178447
5.68903e-05
9.78029e-05
-1.51004e-05
1.35037e-05
8.95357e-05
-8.7939e-05
0.000695254
0.000556321
-0.0005167
-0.000734874
-0.000153163
-0.000257619
0.000594118
-0.00081819
0.000998149
-0.000774077
0.000286856
0.000236285
-0.000289569
-0.000233572
3.3777e-06
-1.10774e-05
-2.4503e-05
3.22027e-05
-0.00010404
2.83204e-05
-2.0105e-05
9.58243e-05
-0.000127767
-4.16492e-05
0.000169417
7.09968e-06
6.22294e-05
5.2436e-05
-0.000121765
0.000851974
-0.00086497
3.80334e-05
-2.50369e-05
9.4035e-05
-6.34387e-05
1.5673e-05
-4.62693e-05
7.50119e-05
-0.000174667
9.96556e-05
-0.000138465
0.000141934
9.05662e-05
5.28675e-05
-9.93733e-05
2.75576e-05
1.89482e-05
0.000175547
-4.13034e-05
-0.000134244
-0.000101904
4.77381e-06
-6.90916e-06
1.19106e-05
2.79901e-05
-5.74744e-06
-3.41533e-05
8.75423e-05
8.36473e-05
-0.000112356
0.000139331
0.000383726
-0.000410701
0.000824505
5.46908e-05
-2.72214e-05
0.000406047
7.80205e-05
-0.000425088
-5.89795e-05
-9.14677e-05
4.83258e-06
-1.52693e-05
-0.00041682
0.000340629
-0.000195519
0.000271711
3.16988e-05
-1.77108e-05
-0.000878958
-0.00103631
9.32857e-05
0.000958367
-1.53398e-05
-6.77435e-05
-0.000242137
0.000131155
0.000178725
-0.000443009
0.000993417
-0.000570737
2.03284e-05
0.000918484
0.000445067
-0.000608237
-0.000755314
0.000207363
0.000182994
-0.000390357
0.000234167
-0.000299562
6.53949e-05
-0.000313138
0.000379693
-6.65548e-05
-0.000836308
0.000866616
0.000601153
-0.000631461
-4.64542e-05
1.36266e-05
8.42198e-05
-5.13921e-05
-0.00116746
0.00112517
-5.199e-05
9.42792e-05
0.000238545
-0.000330687
-0.00059795
-0.00137846
-3.49525e-05
0.000245959
-0.0003761
-0.00026815
4.61323e-05
0.000598118
-6.76441e-05
1.30302e-05
5.4614e-05
-8.64232e-05
0.000166404
-0.000221245
0.000141264
0.000100201
-0.000117874
0.000253067
-0.000235394
0.000129006
-3.51747e-05
-0.000205616
0.000111785
-1.67503e-05
-8.92161e-05
2.03853e-05
8.5581e-05
5.30504e-05
0.000618155
-0.0003399
-0.000331306
-2.09818e-05
3.13409e-05
-0.000949854
0.000939495
-0.000652388
0.00116043
-0.000865775
0.000357734
3.10131e-05
-0.0010626
0.00108918
-5.75878e-05
5.63956e-05
-7.81799e-05
-5.83906e-05
8.01749e-05
-2.16861e-05
7.33829e-06
1.77255e-05
-0.000346819
0.00020837
0.000425306
0.000103586
-1.32547e-05
-0.000160432
7.01002e-05
9.18418e-05
-0.000111432
0.000151507
-0.000131916
-0.000961949
0.000106628
0.00094622
-9.08997e-05
-7.69411e-05
0.000116739
5.99084e-05
-9.97066e-05
-0.000315838
0.00010773
0.000686714
-0.000478607
-0.000591992
0.000581219
1.51055e-05
3.21196e-06
-6.40686e-06
0.000268407
-0.000221142
5.78523e-06
-5.11746e-05
-8.06692e-05
6.50524e-05
6.67914e-05
0.000408444
-0.0006897
-0.000555052
-0.000424436
0.000470233
0.00100794
-0.00105374
0.000843901
-0.000169848
-4.79188e-05
-0.000626134
-7.77028e-05
9.59926e-05
0.000142505
-0.000160795
0.000224962
-6.02305e-05
-0.000168919
0.000190465
-0.000154152
0.000132606
-0.000621592
0.00102483
-0.000731551
0.000328311
0.000147744
-0.000212937
-9.57762e-05
6.77016e-05
9.46439e-05
-6.65692e-05
-4.2407e-05
0.00014345
-9.09806e-05
-1.00624e-05
6.21037e-05
0.000145259
-3.04022e-05
-9.03572e-05
0.000113464
7.29544e-06
3.7228e-05
0.000706759
-0.000498969
0.000961614
6.34327e-05
-0.00100938
-1.56627e-05
0.0001299
-0.000257896
-7.52853e-05
0.000203281
-0.000949226
0.000921027
-0.000396238
-7.54434e-05
5.14471e-05
5.50579e-05
-3.10616e-05
0.000186015
-0.000127991
7.8587e-05
-0.000136611
1.7454e-05
-0.000115949
0.000155985
-5.74908e-05
-0.000268424
-4.88095e-05
0.000190212
0.000127021
-6.40026e-05
7.61146e-05
-3.51835e-05
2.30715e-05
-3.70832e-05
-1.29603e-06
5.32011e-05
-1.48218e-05
-0.000215911
-2.48921e-05
0.000198433
4.23703e-05
0.000786966
7.34998e-05
-3.59613e-05
2.94524e-05
-4.87973e-05
8.8649e-05
-6.93041e-05
-7.85044e-05
-5.05109e-05
4.59089e-05
8.31064e-05
-0.000353162
0.000221796
-8.45452e-05
-2.73748e-05
-5.70707e-06
-4.00137e-06
0.00111267
-1.77739e-05
3.02676e-05
5.29341e-05
-9.62148e-05
-4.90308e-05
9.23116e-05
5.08616e-05
-6.4619e-05
2.88629e-05
0.000204183
-0.00011041
-0.000136181
-6.31839e-05
-0.000997988
0.0010257
3.54678e-05
5.07747e-05
-3.43276e-06
-3.94315e-05
-7.91042e-06
-0.00080834
-0.000287057
8.21159e-05
-0.000225485
-2.55501e-05
2.90405e-05
-0.00107289
0.0010731
-2.92493e-05
1.03626e-05
-2.69779e-06
-7.43754e-05
6.67105e-05
0.0001002
-2.03965e-05
1.69352e-05
-9.67384e-05
0.000255037
1.60886e-05
3.33533e-05
-0.000304479
-0.000284005
0.000286703
4.80197e-05
-5.07184e-05
0.00103411
-0.00145598
0.000183588
0.000238284
0.000499937
9.43002e-06
1.21369e-05
-0.000521504
8.96602e-05
8.93328e-05
-0.000982703
-2.982e-05
-7.18728e-05
0.000104195
-2.50253e-06
1.74763e-05
0.000171142
-0.000228759
4.01407e-05
-4.80285e-05
0.000150446
-0.000180121
0.000836311
-0.000573469
4.70137e-05
-0.000309857
7.52329e-05
-4.19052e-05
-8.45023e-05
4.96875e-05
-4.17278e-05
0.000247078
2.01925e-06
-6.36285e-06
0.000104543
4.01601e-05
4.70722e-05
-3.43648e-05
3.52593e-05
4.26305e-05
-5.30279e-05
-2.48618e-05
0.000735665
9.48051e-05
-4.35042e-05
0.000149233
0.000162767
-0.00112132
0.0011234
9.34531e-05
-9.55377e-05
-0.000408133
-0.000254524
-6.46017e-05
-3.40255e-05
0.000782053
0.000173498
-0.000829276
-0.000126275
-0.000987725
-0.000636711
0.00105154
0.000572895
1.10591e-05
-2.15791e-05
5.2813e-05
-4.2293e-05
0.000113232
-4.31667e-05
0.0006656
9.68515e-05
9.41967e-05
-4.75982e-05
2.95076e-05
-3.35866e-05
4.51436e-05
-4.10646e-05
0.0008204
-0.00103754
0.000354327
-0.000137189
0.000123451
-0.000137246
2.30043e-05
-9.20911e-06
-0.000373245
2.09756e-05
-0.000108587
-0.000731698
0.000840285
1.63975e-05
7.48559e-05
-8.08907e-05
-2.82922e-06
1.53758e-06
-2.60832e-05
-6.43176e-05
1.75027e-05
-0.000306347
-9.38741e-05
3.0772e-05
-3.26741e-05
0.000111151
-2.69016e-05
-0.000303802
0.000219553
8.47733e-05
-8.72043e-05
4.50502e-06
-2.07403e-06
-0.000351891
-8.62569e-05
6.4903e-05
-0.000197526
2.64736e-05
0.000172307
-1.25394e-06
4.65263e-06
-1.2729e-05
5.24719e-06
0.000895294
-2.31419e-05
-0.000762958
-0.000109194
-0.000102515
0.00111121
0.000151733
-0.00111074
9.1398e-05
0.000857475
-0.00102437
-0.000261406
0.0004283
-0.000227408
-0.000983203
0.00118353
2.7077e-05
0.000162184
-1.41379e-05
-9.37874e-07
-2.61806e-06
-9.03182e-05
-0.000912761
0.000879058
-0.000270231
0.000303935
0.00126432
7.60855e-05
-0.000314344
-0.00102606
-4.87359e-05
0.000902789
-1.0152e-05
9.29223e-05
-0.000154242
0.000143143
-8.18229e-05
7.84824e-05
0.000107532
-2.06234e-05
-6.00458e-05
-2.32369e-05
0.000324272
-0.000926555
-0.000375329
0.000352658
8.38127e-05
2.03079e-05
-8.77231e-05
0.000899899
0.000111288
-0.000174876
-0.000181535
0.000894551
-0.000879803
0.000166788
-6.83472e-05
-7.82751e-05
4.7249e-05
0.000103863
-0.000100027
6.49866e-05
8.55796e-06
-7.62423e-05
7.15412e-06
0.000167443
-0.00012491
1.24431e-05
-6.22259e-05
-3.98191e-05
-5.24872e-06
6.25441e-05
6.23825e-05
-4.13409e-05
2.03956e-05
-0.00017051
0.000159162
2.85383e-05
-2.37614e-05
7.00789e-05
-0.000948417
0.000176512
0.000885137
0.000139761
0.000157681
-0.00022243
0.000367687
-0.000588023
-0.00056059
0.000780925
1.39696e-05
0.000237333
-0.000872895
-3.37299e-05
0.000914604
1.44193e-05
-7.03678e-05
-3.56821e-06
7.3936e-05
0.000101579
-0.000165897
0.00105992
-0.00123539
-0.000167346
0.000342814
0.000275065
-0.000296708
-0.000220493
-0.000817233
-0.000342559
0.000848869
0.000310923
-7.58031e-05
0.00103859
-0.000945435
-1.73474e-05
-1.54962e-05
5.03622e-05
-2.0038e-05
-1.48279e-05
0.000118301
-0.000970042
0.000937849
-8.61086e-05
-6.52089e-05
6.6054e-05
7.43878e-05
-0.000331796
0.000246181
0.000943089
-0.000921439
0.000911393
-0.00017149
0.000619308
-0.000598659
-3.23863e-05
0.000596472
-0.000546583
1.16931e-05
-7.37084e-05
-0.000330597
-0.000906196
0.000310238
6.97826e-05
-0.000122655
0.000117325
-6.44523e-05
-0.000270376
0.000280369
-5.90881e-05
4.90947e-05
-6.70311e-05
0.00101177
-0.000888097
-0.000157404
0.000265863
7.24269e-05
-9.97928e-05
-0.000238497
-0.000149866
0.000162109
0.00111116
7.72923e-06
2.34993e-05
0.00100288
0.000120095
0.000927393
-0.000993152
-5.43362e-05
3.21353e-05
3.29171e-05
2.95173e-05
-6.02892e-05
-0.000227018
0.00029393
-6.69123e-05
-0.000193844
-0.000911726
0.000192808
-0.000343152
-8.04452e-05
4.74971e-05
-0.000197023
-0.000247183
-1.6555e-05
1.49349e-05
4.55374e-05
0.00101662
-9.00033e-05
-0.000972153
0.000103643
-8.49132e-05
5.22944e-05
-7.10245e-05
-8.35505e-05
0.00103488
-0.00064769
-0.000263549
0.000669921
-1.31759e-05
-0.000884153
0.000128705
0.000848661
-0.000195313
0.000972194
0.000151294
-0.000161012
-0.000962476
3.07146e-05
0.000213949
-0.000127924
0.000551977
6.41811e-05
-0.000508427
0.000198826
0.000890596
-0.000189523
0.000140217
0.00012487
-0.000195304
-5.6357e-05
0.000101204
2.25441e-05
-6.7391e-05
0.000369295
-9.27777e-05
0.000581603
-0.00085812
0.000353764
-0.000122748
0.00051213
0.00122242
-0.000516509
-0.000370348
0.000809471
-0.000882507
-1.97414e-05
-0.00102798
-0.000813254
0.000605852
0.000838333
-0.000903472
7.04458e-05
-0.001007
4.56309e-05
0.000999401
0.000900332
-6.25518e-05
7.53034e-06
4.93144e-05
-0.000214522
0.000213675
0.000222643
0.00100798
0.000200439
-0.000525096
0.000948614
-0.00124171
-0.000412297
-0.000915105
0.000802305
-0.000611914
0.000869538
-8.25666e-05
-0.000986786
8.61491e-05
-1.33699e-05
-7.6581e-05
5.14553e-05
-0.000933076
0.00066071
-5.82304e-05
0.000188223
-0.000190288
8.00423e-05
-7.79774e-05
-0.00109579
-4.25526e-05
0.0010548
-0.000181419
0.000164244
-0.000203505
-0.000173837
0.00021793
0.000159413
-0.000427651
0.00056572
-8.33391e-05
-0.00018862
0.000248722
-0.00012113
-9.91212e-05
0.000136913
0.000754363
-0.000338019
0.000316282
-0.00100182
0.000148207
-0.00096806
-8.1404e-05
0.00116671
-0.000117248
0.000238729
-0.000205949
7.84437e-06
2.18122e-05
0.000782928
0.000471237
-0.00113407
0.00017474
-0.000246285
-0.000950549
0.000974771
-2.42214e-05
0.000224174
-0.000228808
4.6337e-06
0.000114144
-7.30342e-05
0.000147113
-0.00103531
-2.3959e-05
0.00105927
-0.000992588
0.00100394
-1.135e-05
-0.000919536
-0.000106877
-0.000296837
0.000147593
-4.82822e-05
0.000241348
-0.000866437
-0.00101995
4.46503e-05
-0.000974951
0.0010684
0.000896948
-0.000230626
-0.000915769
-0.000107583
0.000925559
9.77936e-05
-0.000127149
6.60522e-05
0.000197984
-0.000136887
0.000987187
2.10492e-05
0.000438405
-0.000974667
5.09762e-05
-4.43694e-05
8.42817e-05
-0.00101332
-3.565e-05
-0.000883886
0.00101301
-0.000663052
-2.2835e-06
-7.11708e-05
-9.21117e-07
-0.000169633
-0.000189484
0.00023135
-8.96653e-06
1.1971e-05
0.000282693
-0.000285697
-0.000112426
2.3321e-05
-0.000218111
-0.000479591
-0.000111195
0.00012519
-0.000204282
3.58099e-05
-5.59064e-05
-3.62605e-05
-2.39858e-06
-8.07757e-05
-0.000954556
-0.000404816
-0.000839037
0.00052899
0.000714862
-0.00100972
-0.00104157
-9.58489e-05
5.91205e-05
0.0010783
0.000550394
3.13746e-05
0.00113971
-1.36179e-05
-0.00115746
-0.000678763
-0.000543286
0.000289558
9.86806e-05
-6.54432e-05
-0.000322796
0.00097236
-0.00102622
-0.000373632
0.000195232
0.00120462
3.35712e-05
-6.19467e-05
-3.86556e-05
0.000181062
-0.00105224
0.000989477
7.48016e-05
-0.000116607
0.000155949
-0.000227433
0.000196499
-0.00133894
-1.99209e-05
0.000293664
-0.000303165
8.79833e-05
0.000301651
0.00100958
-6.35483e-05
-0.00124768
-8.48179e-05
0.000143078
-0.000210233
0.000141957
0.00037611
-0.000257645
-1.78178e-05
9.43324e-05
-0.000108178
-0.000110389
0.000861882
-3.47101e-05
-1.55511e-05
5.62076e-05
-5.9465e-06
-2.18556e-05
2.25069e-05
-0.000101003
0.000118037
0.000101779
-3.08221e-05
7.21214e-05
3.58716e-05
-0.00013242
-1.58777e-05
-0.000249428
0.000264794
8.44476e-05
-9.98142e-05
0.000299971
-0.000973729
3.42543e-05
0.000165042
-0.000238057
-8.87842e-05
7.58827e-05
-3.66088e-05
8.10932e-05
2.11419e-05
-0.000219943
0.000225275
-0.000259423
0.000239414
-9.11854e-05
-2.38837e-05
2.85704e-05
4.34274e-05
-4.81141e-05
2.15013e-05
0.00020848
0.000402703
0.000917498
-0.000399173
-0.000234247
1.55062e-05
-4.28655e-05
0.000261606
0.00107206
7.85354e-06
-7.48894e-05
1.65925e-05
5.04434e-05
0.000208751
-0.000309125
0.000205531
-0.000105157
0.00011881
-0.000115933
0.000122313
0.000152403
4.26505e-05
-0.000317708
-0.000131753
-0.000157575
0.000115491
-0.000142239
-8.22472e-05
5.39761e-05
8.36309e-05
-6.02507e-06
-5.56211e-05
-0.000164797
3.15115e-06
-3.03181e-05
-1.45347e-06
2.86205e-05
0.00117046
-0.00088508
3.37331e-05
-6.55992e-05
0.000140397
0.000110319
-0.000242403
-0.000529333
0.000661417
-2.70098e-05
1.00136e-05
1.69962e-05
0.000106724
-0.000914981
-7.42506e-05
0.000104612
-2.0095e-05
-8.45174e-05
3.25884e-05
-4.39921e-05
1.14037e-05
1.26986e-05
-4.47836e-05
3.2085e-05
0.000296482
-0.000221233
-7.52497e-05
-0.000224123
3.49315e-05
0.000189191
0.000276743
-3.39373e-05
-0.000242806
0.000100433
-5.19194e-05
-4.85134e-05
-0.000109968
6.28093e-05
4.71583e-05
0.000182293
0.000114189
-0.000269533
4.54101e-05
-3.72058e-05
1.0196e-05
1.57711e-05
1.22979e-05
-2.8069e-05
-7.28487e-05
9.42244e-05
-2.13757e-05
0.000168553
-0.000200233
9.02658e-05
0.000153367
4.19484e-05
-2.88123e-05
-1.31362e-05
1.0721e-05
2.18674e-05
0.000169031
-6.44185e-05
-0.000200185
-2.86234e-05
0.000192002
-0.000170349
-2.16531e-05
5.58412e-05
-4.62873e-05
-2.37223e-05
1.41683e-05
-2.6526e-05
5.18336e-05
-0.000117554
0.000102783
-6.23886e-05
0.000125818
-2.29386e-05
0.000151372
-0.00017271
0.00023916
0.000223108
-8.13318e-05
2.42213e-05
0.000158314
1.25103e-05
-3.92374e-06
-8.3476e-05
1.41242e-05
-0.000322707
-0.000636852
-0.000339435
0.000388645
0.0010619
4.43872e-05
-2.86161e-05
0.000137295
2.40104e-05
-0.000161305
-5.22017e-05
2.34196e-05
7.21021e-06
-8.23108e-06
-4.68178e-05
-0.000159744
-1.06052e-05
2.56035e-05
-3.96215e-05
-2.04367e-06
7.46502e-05
-9.47452e-05
-0.000323216
-0.00065851
0.000341245
0.000640481
0.00103909
-0.000267414
0.000201047
-3.01648e-05
0.000164235
-0.000189903
5.58324e-05
0.000102726
-8.65278e-05
0.000912408
-0.000922385
9.4962e-05
-8.49846e-05
-5.73501e-05
-5.89658e-05
0.000109107
7.2093e-06
-2.42763e-05
-4.85725e-05
-9.02718e-05
3.26934e-05
7.41709e-05
-1.90507e-06
-0.000158259
6.62362e-05
-6.78887e-05
-4.36522e-05
4.53047e-05
0.00107303
-0.000290646
2.96034e-06
-0.000198814
-5.35746e-05
0.000419257
-0.00107184
0.000954233
8.58516e-05
-7.78229e-05
1.3669e-05
-2.76848e-05
0.000155881
-0.000367143
0.000723392
-5.87878e-05
-0.000301865
0.000300109
0.00073063
0.000603704
-0.000467718
8.02827e-05
-7.98122e-05
0.000649518
-0.000361036
-0.000288482
-7.31408e-05
8.68131e-05
2.759e-05
-4.12624e-05
-0.000230172
-0.000177366
0.00028039
8.90859e-05
4.0664e-05
-7.42866e-05
-5.54633e-05
-0.000122473
0.00011397
-0.000108599
1.27929e-05
-8.57234e-05
-0.000279053
0.000351983
0.000197001
-0.000228715
0.000140418
-0.000108705
0.000136235
-9.20343e-05
8.19593e-05
-0.00012616
-0.000259006
5.32068e-05
0.000218592
-6.25238e-05
4.15683e-05
-5.21853e-05
6.17872e-05
0.000115224
-4.07764e-05
-0.000133524
-5.86045e-05
0.000113975
7.81527e-05
5.52933e-05
6.39096e-05
-2.39155e-05
0.000109093
-0.000149088
-0.000186357
-6.01039e-07
-4.06529e-05
-5.07804e-05
-2.29778e-05
-5.64478e-05
8.92632e-05
3.73089e-05
-7.01242e-05
-0.000211173
0.000120861
2.55241e-05
-9.46665e-05
7.43065e-05
-5.16407e-06
-0.000260002
0.000313046
-0.000138767
-4.10706e-05
-6.85315e-05
-2.39214e-05
-4.74442e-05
3.18856e-05
9.75178e-05
-0.000120089
0.000252233
-0.000231091
-1.65709e-05
-8.09476e-05
3.96333e-06
-8.90657e-05
2.5249e-05
-3.2054e-05
6.80497e-06
1.79105e-05
5.37703e-05
1.88482e-05
-9.05291e-05
-1.83765e-05
9.9267e-06
2.63604e-05
-4.69356e-05
7.15836e-05
0.000106603
5.43711e-05
-0.000160974
-1.66703e-05
-1.04524e-05
0.000116386
-5.19699e-05
7.26085e-05
-0.000130682
0.000179736
0.000147948
-2.91811e-05
-2.1786e-05
3.25906e-05
-0.000104297
3.01183e-05
-0.000154537
8.58113e-05
-0.000124461
-0.000240403
0.000144227
-0.000155598
-9.2926e-05
-0.000243313
0.000197378
-8.47473e-05
0.000154971
-7.75421e-05
0.000102308
-6.89678e-05
-0.00021161
8.4885e-05
0.000309875
-0.000311956
0.00030157
-0.000299489
7.01647e-05
-8.06655e-05
1.05008e-05
-0.000331278
-0.000119498
-8.28243e-06
-0.000700106
0.000596032
-0.000266723
5.80726e-05
-0.00010874
0.000136213
-0.000294195
-6.85638e-05
-0.000517406
-9.8519e-05
0.00029271
-0.00060505
3.02433e-05
0.000566524
-9.32511e-05
7.35967e-05
0.000482029
-0.000268805
-0.000109254
0.000113336
0.000114299
-0.000118381
-4.22142e-05
1.71193e-05
0.000855898
-0.00020638
8.4429e-05
-0.000295411
-0.000394068
-0.000154709
0.000102122
-0.000798582
0.000622101
0.000570585
-0.000765463
0.000498901
-0.00040141
0.000182878
-5.89574e-05
-0.000201037
0.000259994
-0.000232152
-0.00010208
-0.000130119
0.000122944
-0.000138585
0.000994483
-0.0010916
-0.00112775
-6.24618e-05
-6.39125e-06
0.000104354
-0.000449562
-0.000166115
-0.000111815
-0.000131034
8.84498e-05
0.000154399
0.000131766
-0.000150185
0.000201407
-0.000182988
6.19919e-05
4.46113e-05
2.99379e-05
0.000138481
-6.83165e-05
9.63175e-05
-9.65878e-05
-7.40163e-05
-0.000707598
0.000788067
0.000541632
-6.25555e-05
-0.000120866
-9.34443e-05
0.000112231
-0.000478075
-1.43233e-06
0.000479508
3.86928e-05
-9.33676e-05
0.000101935
-4.72601e-05
9.73798e-05
-9.1056e-05
-0.000928709
-9.83241e-05
0.00011206
2.49567e-05
-0.00053688
-0.000208094
0.00049178
0.000100957
-0.000592737
-0.000114227
-6.2798e-05
0.00011842
-0.00010908
5.86566e-05
0.000114333
1.7377e-05
-0.000150373
8.2945e-05
-0.000115824
7.749e-05
-0.000179071
0.000120679
0.000164629
-0.000136026
-0.000150513
0.000190244
-0.000108047
0.000256512
-4.27931e-06
6.70041e-06
0.000249812
6.59473e-05
0.000159788
-5.31675e-05
4.16177e-05
-0.000125751
-0.000105427
0.000361888
1.37041e-05
-0.000104464
0.000162246
-0.000224847
7.61787e-05
-0.000137631
-3.73866e-05
6.1526e-05
8.19022e-05
-9.90911e-05
-0.000123532
0.000100116
-5.44072e-05
0.000202878
-0.000114134
-0.000209611
-0.000225304
-0.00015916
3.93292e-05
-4.13735e-05
-1.84353e-05
2.04795e-05
0.000209704
-0.000185986
-6.10681e-05
8.96288e-05
-8.71569e-07
0.00010677
-0.00111102
-6.18115e-06
-0.00091657
-0.000324931
-4.3239e-06
9.77355e-05
-0.000169168
0.000173954
-0.000135163
-0.000127856
9.47281e-05
-9.362e-05
0.000126748
-9.30494e-06
0.000120494
-3.97054e-06
2.85598e-05
-0.000227367
0.000303363
0.000396098
-0.000472094
-0.00016184
5.15129e-05
0.000168984
-7.38241e-06
-3.66632e-06
0.00010713
5.30345e-05
-7.48631e-05
-0.000109205
-3.13785e-05
-0.000954114
-2.35288e-05
0.000985372
0.000143409
0.000137965
-0.00014026
-9.42931e-05
0.000110262
-8.69787e-05
2.72091e-05
5.97697e-05
0.00097233
-0.00102432
-0.00015906
-0.000128511
0.000133439
6.97447e-05
-4.97957e-05
9.98854e-05
-0.000122793
-0.00010155
0.000124457
2.67308e-05
-8.26168e-05
-0.000322072
-1.16161e-05
-4.66196e-05
3.64497e-05
6.90585e-05
9.02466e-05
0.000164639
-0.000132146
6.73932e-05
0.000453495
-0.000230073
8.89197e-05
-0.000219006
0.000189914
-5.98272e-05
-0.000161552
0.000111555
6.8845e-05
-0.000853276
5.72656e-05
0.000136252
5.41578e-05
-0.000138577
-0.000189465
4.50013e-05
-0.000159552
-3.72441e-05
0.000196797
-3.63851e-05
-7.23344e-05
5.13694e-05
0.000222299
-0.000313414
0.000106546
-8.98962e-05
-8.84144e-05
-1.70729e-06
-0.000105509
0.000228479
0.000190075
-0.000276729
0.000202699
-5.18264e-06
0.000246798
-0.000981505
-8.53083e-05
-8.35794e-05
-0.000735333
1.95025e-05
4.79e-05
8.67175e-05
0.000137253
0.000110014
-0.000221159
-2.61081e-05
-2.76574e-05
0.000128614
-5.15663e-05
-3.96028e-05
0.00108142
1.26604e-05
-8.84858e-06
-0.00104911
-3.40262e-05
8.79209e-05
-3.16789e-05
0.000224721
0.000597188
-0.000135195
0.000252303
0.00124745
0.00108377
0.000157434
0.00019164
0.00108736
0.000160325
2.03167e-05
-2.72561e-05
-6.13274e-06
-8.35339e-05
-5.2792e-05
-0.000914681
0.000112381
3.22564e-05
7.52757e-05
-8.67617e-05
6.80573e-06
-2.99609e-05
-1.64477e-05
-0.000207031
0.000165926
0.000125604
-3.64885e-05
-6.50504e-05
0.00013603
9.9509e-05
0.000185544
-0.000204616
-0.000121188
-7.75491e-06
-9.94233e-06
-7.21989e-05
0.000804058
-0.00015878
-0.000618163
-2.71158e-05
-0.000724283
0.000671501
0.000299581
-9.52024e-05
4.47182e-05
-4.00448e-05
-0.000170639
0.000173031
-2.97792e-05
0.000133302
-0.000229472
0.000309247
0.000148676
-0.000979076
-3.37766e-05
0.000573716
-0.000541372
1.77216e-05
0.000201863
-0.000212884
8.44519e-05
0.000128697
0.000167067
0.000130741
-0.000220275
-0.00021554
0.000237308
0.000198507
0.000297453
-0.000268799
-0.000110586
5.39329e-05
8.42111e-05
0.000286052
0.000340469
-0.00041777
-4.24083e-05
7.37301e-05
0.000832681
-0.000251223
0.000208694
-0.000177746
1.84446e-05
2.43351e-05
-0.000186735
-0.000174375
0.000222343
-0.00100009
0.0010324
-0.000279493
-4.21839e-05
-3.79054e-05
4.16818e-05
-4.22443e-05
-0.000110024
-8.36418e-05
1.32741e-05
-0.000960014
-0.000197482
-7.66201e-05
0.000181961
-0.000237027
0.000784221
5.56919e-05
0.00102302
-0.00099016
-8.08852e-05
9.20633e-05
3.05037e-05
-4.57918e-05
0.000137917
6.863e-05
-3.79452e-05
6.29592e-05
-9.3644e-05
-0.000306065
-3.75688e-05
-7.35053e-05
1.58717e-05
-5.51693e-05
-8.15397e-05
-0.000134873
0.000159534
0.00029429
0.000152809
1.02538e-05
-0.000116634
-6.4956e-06
-0.000279529
-5.62734e-05
9.93889e-05
-0.000169876
-1.82972e-05
0.000187957
-0.000152831
0.000976892
-0.00122657
0.000262339
0.000282047
-0.000163934
0.000717292
5.69307e-05
0.000943154
0.000279599
-0.000102014
-0.00112074
-1.64146e-05
-0.000102837
8.09288e-05
8.13046e-05
1.64809e-05
-1.30758e-05
1.87706e-05
-2.21757e-05
8.15668e-05
-5.74608e-05
6.91965e-05
-9.33025e-05
6.54624e-05
-6.23999e-05
0.00132552
0.000100312
4.227e-05
3.70933e-05
0.00132632
-9.87005e-05
-0.000112189
-1.97172e-05
8.75441e-05
2.17658e-05
4.72285e-05
-0.00102459
8.12773e-05
8.85354e-05
-1.18169e-05
6.17162e-05
3.10296e-05
-0.000965465
-0.00115337
0.000726005
0.000239818
0.000112244
0.000153663
0.000196488
-0.000270185
-7.99666e-05
2.65334e-05
-1.00971e-05
-7.68816e-05
0.000159269
-9.09467e-05
0.000277569
6.79495e-05
0.000196259
3.8852e-05
-7.20892e-05
0.000172213
0.000243568
-6.37974e-05
-0.000149041
-5.04582e-05
0.00011796
-2.06711e-05
-2.61532e-05
-0.000150511
-1.17372e-05
8.1225e-05
6.20061e-05
9.5266e-06
4.209e-05
-0.000247212
-0.000241038
-9.16435e-06
-1.96479e-05
-8.49023e-05
4.32837e-05
0.000854815
0.000125906
-0.000165776
-0.000808092
0.000253094
-2.41526e-06
1.47232e-05
0.000456842
0.000399817
0.000144165
-1.49266e-05
0.00108261
-0.000512131
-2.63341e-05
-0.000204243
0.000104765
0.000230634
-3.66381e-05
-3.77272e-05
0.000162947
0.000240287
-0.00013375
-7.3655e-05
0.000132825
-0.000724762
0.000674476
5.02863e-05
5.51623e-05
-3.18728e-05
-6.45519e-05
-0.000140683
0.000269895
0.000136651
0.000884722
0.000136881
-0.000787645
6.28836e-05
5.5051e-05
0.00105886
-8.88581e-05
-0.000940993
0.00100632
-0.000258407
0.000453771
2.63353e-05
-0.000221699
2.13517e-05
8.57095e-05
-0.00010391
5.86984e-05
0.000615777
0.000107855
-0.000107941
-6.39183e-05
6.40044e-05
0.000140237
-0.000177041
0.000168979
-0.000132175
-0.00021472
4.38657e-05
0.000170854
8.63061e-05
0.000118385
0.000144713
-0.000111726
-5.65131e-05
-2.71288e-05
-0.000259289
4.45691e-05
-0.000302456
0.000235476
-0.000282396
-0.000211487
-0.000885234
-8.18879e-05
3.02624e-05
-3.67888e-05
-0.000257793
1.33771e-06
-2.55108e-05
6.08401e-05
-7.35315e-05
0.000106789
0.000119855
-0.000137809
0.000387793
0.000530691
-0.000107813
2.6229e-05
9.48583e-05
-0.00047981
0.00046302
1.679e-05
8.34323e-05
-0.000871078
8.17516e-05
-0.000115629
0.000237111
0.000131829
4.96043e-05
0.000852305
-0.00034596
0.000381921
-0.000409142
7.39784e-05
5.23241e-05
0.000123226
-9.87178e-06
0.000877842
-0.000195795
0.000357044
-0.000954901
0.000653894
0.000629318
-0.00104633
-5.19239e-05
0.00059454
0.00042274
-0.000283409
-0.000615903
0.000552753
0.000508243
-0.00058976
0.000318965
0.000537152
-0.000262716
-0.000569938
-0.00013301
0.000536833
-8.30978e-05
1.54536e-05
-0.000619578
0.000732163
-0.000500615
2.0805e-05
-0.000231167
-1.17101e-05
0.00035742
0.000442357
8.49901e-06
-1.44948e-05
-1.36909e-07
0.000216366
-0.000171144
0.000153285
-1.02735e-05
-1.27043e-05
0.00045189
1.113e-05
3.47942e-05
1.82206e-05
-3.65339e-05
8.87008e-05
-8.13239e-05
-5.21498e-06
-0.000138025
-0.000354758
0.000183658
-0.000130381
2.10395e-05
8.60907e-05
-0.000434179
-0.00013882
6.64705e-05
-3.5166e-05
-0.000209993
-0.000509104
0.000106697
-0.000114102
-4.59149e-06
-2.35476e-05
0.000256232
0.000123081
-2.34651e-05
-4.82802e-05
5.74537e-07
-0.000911434
0.000157704
-0.000111572
9.58056e-05
-0.000169765
0.00101346
-0.000957518
-1.1774e-05
2.16142e-05
-0.000124476
0.000162025
0.000153931
0.000287854
-0.00107349
3.08605e-05
5.37143e-05
5.38702e-05
6.52434e-05
5.31234e-05
-1.1578e-05
0.00092037
0.000128596
-5.42776e-05
0.000129625
-1.72176e-05
8.05321e-06
0.000217415
-1.11472e-05
-0.000944322
0.000633493
6.45446e-05
-9.44978e-05
-4.78581e-05
7.40087e-05
-0.000180844
-7.39804e-05
1.71944e-05
0.00110678
7.1828e-05
-0.00106807
-0.00044292
0.000544124
5.02619e-05
2.67161e-05
6.08733e-05
-0.000102242
0.000171269
0.000500962
-0.00072355
0.000222588
0.000434417
6.65452e-05
0.000446338
-1.19215e-05
-0.000307095
0.000462976
-0.000674238
-0.000598153
-0.000500323
-9.783e-05
2.60545e-05
-3.7684e-05
-8.86643e-05
0.000115581
-0.000936194
-0.000121086
6.16763e-05
8.1653e-05
0.000163562
3.5623e-05
1.56312e-06
-7.33894e-05
1.49189e-05
2.91163e-05
-2.21679e-05
-9.04015e-05
-0.000226564
0.000264764
-7.76088e-06
4.67582e-06
-0.000100421
-3.08997e-05
0.000427152
0.000803361
-0.000103126
3.84051e-05
-6.26814e-05
0.00010556
0.000136116
-0.000187962
-0.000223141
-0.000989504
0.000140065
-2.63998e-05
0.000211946
-0.000473019
-2.7304e-05
0.00031789
-0.000152907
-0.000632701
0.000123674
0.000118174
0.000242792
-8.04758e-05
6.47003e-05
0.000146967
-7.76658e-05
3.00877e-05
9.67997e-05
-0.0011381
0.00102768
-3.89818e-05
3.34594e-05
5.98102e-06
0.000164953
-0.000204393
-9.91648e-05
0.000100872
5.28153e-05
-9.75989e-05
-8.68013e-05
2.76129e-07
8.30161e-05
-0.00117027
1.45424e-06
0.000676446
-0.000379378
0.000107016
-6.72615e-05
0.00018391
0.000254626
-0.000145955
-5.65725e-05
-3.47954e-05
1.73874e-05
-0.000114037
0.000102822
-0.000126922
1.06445e-05
-5.19557e-05
-1.32637e-06
-0.000606405
-0.000350745
-8.32157e-05
-7.51085e-05
-0.000132925
-3.01695e-05
6.84277e-05
2.57327e-05
4.96494e-05
-6.04631e-05
0.000984715
-7.77853e-05
0.000230934
-0.000156357
-7.29485e-05
-0.00022734
-0.000209381
0.000247238
-0.000795809
0.00111393
-4.32369e-05
0.000104013
4.75975e-05
0.000125853
-0.000153129
-8.07925e-05
-3.51563e-06
0.001035
4.43936e-05
1.8045e-05
-2.97636e-05
-9.6381e-05
0.000190328
-0.000139614
-0.000171081
9.6509e-05
-0.000849782
4.36014e-05
0.000522119
3.26087e-05
-7.15917e-05
0.000150924
0.00107788
7.21824e-05
-4.12174e-05
0.00010089
-0.000398721
5.02575e-05
-0.000205907
6.28861e-05
0.000349369
7.52486e-05
-7.49709e-05
0.000158884
8.055e-05
7.48734e-05
0.000201952
-0.000121272
0.000167334
-9.62939e-06
-0.000189915
0.000175777
-0.000960143
0.00102639
-0.000247246
0.000180999
5.24757e-05
8.1202e-05
0.000192592
-1.7045e-05
-5.70802e-05
-0.000245044
0.00041012
-0.000371469
-0.000131824
-0.000163669
-0.000146563
7.07623e-05
-4.81698e-05
-4.19136e-06
-4.9997e-05
-0.00113809
1.73399e-06
0.000309874
-0.000277591
-5.10532e-06
-4.66869e-05
-0.00106174
0.000961059
1.83341e-05
-1.85074e-05
0.000985545
0.000191083
0.000554713
-0.000478571
-7.61421e-05
3.62898e-05
6.82118e-05
0.00014452
0.0001405
-0.000132017
0.000120213
-0.000892102
0.000902061
-8.40481e-05
2.66471e-05
-4.03169e-05
9.16511e-06
3.11518e-05
7.10691e-05
-9.1174e-05
3.07522e-05
-1.3867e-05
2.30321e-05
-9.80832e-05
-9.32506e-05
0.000317651
-0.00105653
-8.15575e-05
1.73287e-05
-2.42102e-05
2.50271e-07
5.16077e-06
2.15687e-05
2.76551e-05
-1.04176e-05
-1.72376e-05
-8.70498e-05
-3.20979e-05
-0.000126228
-6.79759e-06
-0.000240967
6.6299e-05
-6.8801e-05
-0.000561498
0.000409814
4.59754e-05
-6.01472e-05
-7.26206e-05
-8.93697e-06
0.00011483
3.58104e-05
7.34685e-05
0.000460718
-5.0607e-05
5.90916e-05
2.98862e-07
7.87876e-05
-8.73175e-05
8.63302e-05
-2.92264e-05
-4.21862e-05
4.14517e-05
3.85284e-05
-1.08733e-05
-6.59624e-05
-6.65818e-06
3.55066e-05
0.000142941
0.000118167
-0.000104663
6.03137e-06
-1.26193e-05
1.59015e-05
-0.000222436
8.69185e-05
0.000451374
-0.000152643
0.000136128
0.000261817
-0.000253879
5.23358e-05
-1.38073e-05
-0.000192794
4.20248e-06
0.00104836
-1.13842e-05
-0.0010099
-7.44959e-05
-6.718e-05
0.000715392
-2.81769e-05
0.000214162
-0.000252233
-5.41136e-05
8.82212e-06
-3.57493e-06
0.00032138
-2.552e-05
4.3565e-05
-0.000231099
0.000266606
-3.48202e-05
0.000152987
0.00139052
-0.00112287
0.000109362
-0.000923937
-7.60281e-05
5.89303e-06
-5.42107e-05
0.000184034
-0.000119188
0.000549351
-0.000719199
-0.000127174
8.86277e-05
-1.96883e-07
6.92087e-05
0.000221635
0.000405012
-8.07789e-05
-0.00088288
-0.000232035
6.02415e-05
-0.000365014
0.000393243
-0.000110634
0.000587525
0.000926715
-0.000266788
4.99528e-05
-6.16829e-05
1.02745e-06
7.09234e-05
-0.000117605
0.000675736
5.83066e-06
5.70362e-05
0.000177778
-1.04448e-05
-5.54848e-06
0.000144899
8.11123e-06
-8.80096e-05
-9.5346e-06
-7.83039e-05
-2.52918e-05
6.14117e-05
-1.16105e-05
3.28891e-05
-8.8967e-05
0.000215099
5.54841e-05
-9.91104e-05
9.0529e-05
0.000134342
2.7145e-05
0.000901854
-0.000912209