/*--------------------------------*- C++ -*----------------------------------*\
| =========                 |                                                 |
| \\      /  F ield         | OpenFOAM: The Open Source CFD Toolbox           |
|  \\    /   O peration     | Version:  v1912                                 |
|   \\  /    A nd           | Website:  www.openfoam.com                      |
|    \\/     M anipulation  |                                                 |
\*---------------------------------------------------------------------------*/
FoamFile
{
    version     2.0;
    format      ascii;
    class       volScalarField;
    location    "0.75";
    object      p;
}
// * * * * * * * * * * * * * * * * * * * * * * * * * * * * * * * * * * * * * //

dimensions      [0 2 -2 0 0 0 0];


internalField   nonuniform List<scalar> 
1431
(
91.7711
90.0908
88.6726
91.846
91.7715
88.0138
89.0033
97.3634
91.1182
90.7631
89.9535
90.1375
89.6971
103.022
89.8818
90.0437
90.2141
90.4696
91.9277
90.3389
91.4395
90.5775
89.2367
103.932
80.0282
90.8738
73.7407
102.166
91.3954
90.8093
113.494
120.208
82.1567
88.1143
89.8901
87.9495
91.8032
96.44
87.9184
96.532
110.379
90.2895
88.2656
90.2692
81.529
91.4224
91.4194
118.569
114.487
97.8581
90.5762
91.045
90.5758
87.9511
89.3894
111.501
91.069
88.9053
80.2758
91.4321
90.3073
89.7939
90.9636
97.2822
99.3007
90.1735
87.2495
87.8412
90.7719
97.6837
88.2375
90.1872
89.5407
88.2871
89.5161
82.3288
91.5888
82.2982
97.6872
74.6955
97.3082
90.3663
89.5391
90.4616
82.6123
91.6729
91.8843
89.7549
104.87
90.7514
91.0274
90.1498
91.8339
96.17
90.5585
91.5446
89.5265
99.4703
91.9666
113.459
90.6955
96.3269
91.8377
91.8967
90.3395
89.6651
97.4133
113.716
115.375
91.6272
76.871
90.1183
97.8871
90.4695
90.009
91.9475
90.4747
89.9818
105.77
82.575
94.8021
89.7003
90.7129
108.616
97.021
89.4817
106.601
89.4461
91.632
97.1675
90.0318
114.655
103.991
91.7427
91.7343
91.2322
89.5296
89.9774
91.4546
114.219
91.5807
91.7481
96.4207
114.58
115.793
95.2956
98.941
114.151
89.5892
113.001
97.9899
100.414
89.5205
89.4758
89.6171
89.399
97.3164
91.0929
98.6644
107.868
90.3892
89.8021
91.7846
89.7924
91.9524
73.1176
91.6022
95.5695
90.7137
91.8857
106.486
89.5366
112.355
98.1835
96.9259
90.3655
89.5015
98.91
90.9607
104.507
97.3758
90.2552
104.689
91.0688
96.7099
107.539
96.3631
87.5361
91.3764
97.2877
90.7206
90.2172
91.5396
97.1054
90.6989
94.5053
97.4212
117.02
89.7119
89.6389
89.5978
117.054
111.436
109.082
97.3349
77.0417
91.6272
97.7713
89.5474
101.269
97.1041
97.9689
109.304
97.6707
91.118
88.6214
99.585
90.3536
90.0571
97.3679
97.3601
70.2904
96.5877
102.15
98.0467
92.2041
110.355
91.4272
102.246
113.814
91.8159
90.9196
97.5702
95.7533
97.0408
97.6918
98.7098
91.7647
97.2645
89.3678
99.1601
109.727
91.3538
90.0844
89.4855
89.6458
96.6169
89.5433
87.9912
105.374
103.229
91.3532
90.7634
117.312
90.9426
98.2019
90.8286
89.3626
97.0406
97.5521
98.0477
89.8481
91.9727
91.4383
97.2702
101.35
92.4521
96.2172
103.327
91.2833
97.4106
113.418
102.208
101.215
97.6437
94.3864
91.6467
90.2761
90.0007
90.7145
90.7522
89.366
90.2956
91.477
94.4095
89.4339
91.7655
103.142
104.197
98.463
95.2136
97.2523
103.016
90.9206
104.724
99.8648
91.5386
102.64
89.4946
106.105
97.5124
112.006
89.4113
116.314
90.0523
89.7087
97.4324
97.906
97.2669
91.2791
98.2716
96.7753
90.3126
91.9228
89.7517
89.8898
90.9477
89.5906
96.6433
90.9659
89.6835
91.2534
91.9787
89.4742
91.2246
90.7695
97.2043
90.6241
110.872
97.9727
90.3213
89.658
89.3069
90.856
97.0393
91.4101
90.9563
91.311
90.8136
89.7616
89.5707
97.3023
90.6202
90.1694
102.131
89.6776
98.0093
89.6657
91.7436
91.4503
89.7501
90.0129
90.2137
90.6276
89.7329
89.8018
90.0414
89.6853
90.6227
89.4622
90.9191
89.7488
90.661
91.8729
91.6309
89.6577
90.746
89.7207
90.3806
90.3483
89.9245
89.2923
91.0522
106.128
90.5844
90.0643
90.2208
96.7783
96.0425
90.6644
90.0112
89.6888
91.5285
90.1226
89.7597
90.6886
89.6266
89.705
90.5969
91.8183
89.701
88.9807
109.024
96.7782
90.7927
90.041
91.2973
97.7192
91.0046
97.3609
89.3835
90.3213
97.6342
90.6876
90.41
94.1384
89.6538
116.075
91.2957
90.2132
94.5068
90.1734
90.0719
86.6198
115.191
130.272
90.1509
91.2666
89.6719
91.2808
89.5096
91.1711
90.5417
89.502
91.1689
90.1068
89.6552
90.8279
81.1286
89.946
81.3707
89.39
90.3747
91.0178
89.4291
89.9518
91.0921
90.8463
89.563
87.8612
88.898
92.7576
90.7941
90.6093
89.0896
91.229
91.2507
89.1794
88.6043
91.2188
91.1539
90.64
91.3091
90.4854
91.0473
90.4116
90.5346
90.7133
90.4845
89.5386
84.1956
90.1438
87.9529
88.384
89.6253
89.6558
91.319
85.1805
88.1836
89.6506
85.8536
90.1788
116.025
113.539
88.323
89.6344
88.9752
88.7034
90.1372
90.8849
91.02
90.1074
99.7915
95.6249
115.986
90.4618
88.4159
90.768
90.8083
88.8897
88.9221
90.6217
89.6487
93.3928
90.869
90.0694
88.8391
90.1357
97.8008
89.8315
88.3804
84.4359
90.63
89.8718
89.9073
89.0001
89.6249
90.6512
90.8171
91.8933
91.7082
88.9547
98.4456
90.2559
97.37
90.7167
90.926
85.2311
90.9354
89.6982
89.2038
89.3856
89.7637
91.3363
89.9387
90.997
90.2874
90.8561
89.3373
90.37
115.977
116.832
89.6201
89.43
90.7642
90.9531
90.4334
90.0982
91.2728
95.52
89.8399
89.893
90.2306
90.8425
90.0284
90.7518
90.5415
97.209
90.7115
89.6404
89.6687
89.891
96.5876
90.9081
89.395
90.3861
90.2244
90.1437
95.5844
100.963
91.2477
89.7194
90.2824
91.2297
81.6427
91.4789
91.234
102.331
90.5699
89.8461
89.7733
90.967
91.6431
90.8681
89.2391
90.7555
91.2252
90.7393
89.7799
99.0872
90.0877
97.2735
90.3312
89.9875
89.7249
89.9041
90.299
95.5634
90.4491
100.488
90.9793
88.9844
95.0628
96.09
97.1281
89.7882
91.7377
90.4726
101.297
89.5675
90.3144
90.2646
89.6215
90.2632
90.3673
90.8828
89.6495
89.6446
90.9023
90.7842
94.95
91.1286
91.3768
90.9958
92.6943
100.328
90.6079
91.0927
90.7125
90.8085
89.6299
89.6176
90.4877
89.6423
90.1917
122.643
89.6568
91.8619
91.034
97.1359
91.0678
90.2804
90.6609
97.1285
89.5053
90.8546
89.6312
104.636
93.7221
90.2165
90.055
90.8764
97.1747
91.0739
89.8215
90.177
89.9252
91.1726
91.0603
90.1576
90.1653
89.784
99.507
94.3862
91.3036
90.9483
97.4488
97.1795
90.7374
91.0329
89.8035
92.018
90.5725
90.8637
97.7332
89.6711
93.6679
90.632
90.9158
90.1967
91.9355
97.3614
90.5011
89.8703
115.851
115.181
88.4358
90.8689
89.6593
96.0888
89.9131
89.8614
89.7168
90.0041
90.4939
89.4661
91.173
89.9691
90.169
91.4374
114.172
89.7932
89.9594
91.8426
91.1619
89.6447
91.9329
89.7843
97.4692
106.191
90.1348
89.6488
101.384
89.6529
91.5266
128.662
93.3848
91.0415
92.0168
109.08
90.7338
91.5836
89.6139
90.4948
90.9418
98.1066
90.1442
90.993
108.282
91.6767
97.9429
98.8925
97.0388
89.6241
89.7401
98.5353
90.4956
91.3243
107.38
90.9879
91.2084
90.5705
106.82
106.193
90.3653
100.408
90.6297
89.6767
91.224
90.6256
89.8532
91.2685
117.366
90.9035
99.6886
98.6067
102.1
103.17
107.541
89.5189
91.1052
103.703
105.517
103.938
91.0107
89.9226
97.2546
97.4865
97.865
107.362
89.6275
105.706
110.489
102.109
96.943
89.9898
89.9892
108.952
99.2491
104.757
90.2158
97.7381
91.779
89.6373
90.4832
101.116
92.0156
90.1638
91.0084
89.6013
89.4613
90.0312
103.111
91.8067
91.599
105.937
91.6472
89.6181
90.066
108.079
91.4148
99.4776
110.431
140.361
96.5875
97.6039
91.8732
89.6728
92.3883
96.7091
91.2558
89.8749
110.513
89.6826
91.9783
89.6312
93.6487
90.3934
89.3265
91.6027
97.9815
96.8184
90.5502
91.9734
79.7901
98.6867
98.4532
95.8715
96.014
96.1493
99.4133
97.5618
102.26
90.2477
89.8006
98.1969
89.4887
89.996
89.7023
91.9679
90.2613
91.5618
89.648
92.0189
89.8339
91.5826
91.0076
96.9454
89.3712
91.201
98.661
114.374
99.1233
95.8956
85.3881
112.606
89.6161
89.8578
89.9263
97.216
90.2357
89.8686
89.5012
91.4488
121.188
89.9032
91.0671
89.9787
97.4135
97.4722
97.119
91.2193
89.6629
89.9919
89.708
91.6369
95.868
107.879
91.9689
89.775
115.722
98.3228
90.8065
90.0046
91.446
106.528
88.1535
90.0793
90.3135
97.3796
92.0164
89.659
90.1123
91.3236
97.6809
91.73
89.8429
83.5212
82.1756
114.683
99.1372
88.1941
88.2361
97.6079
91.6497
87.4861
91.5225
89.6262
90.9269
89.3727
90.4493
90.3023
90.6315
90.8211
111.587
113.819
99.2885
91.8932
91.3655
91.9098
90.702
97.0398
90.9098
90.6003
90.5357
90.1379
90.3859
97.7662
89.6026
89.418
91.0711
97.8234
90.0367
97.1978
97.223
99.0102
89.5441
97.5918
90.7834
108.201
90.7922
108.328
89.7736
89.8966
90.5403
90.1508
89.7956
90.9747
91.3543
90.3222
92.0302
89.9909
97.5537
91.6104
91.684
89.89
73.9032
91.6157
90.3517
91.8126
90.7691
91.9583
90.617
91.138
108.539
89.6616
91.7424
90.2613
91.2091
90.2089
91.3265
91.4665
89.7035
90.339
90.1215
91.8078
91.7943
96.1589
91.7589
90.4089
91.2133
90.5522
90.0553
86.4382
90.9546
90.4971
97.3159
91.7849
91.7577
90.0118
90.0769
100.208
91.0984
90.7009
91.118
88.1145
91.2498
97.0528
91.7283
94.8294
91.8139
97.6561
91.2405
89.9952
98.1547
89.6617
90.5857
103.456
81.3297
91.6678
91.6754
89.888
98.0836
88.3684
90.5815
97.8194
88.2661
90.0471
95.7196
91.1652
91.3116
90.5066
97.1229
100.277
112.537
89.1727
91.9466
91.4719
90.545
91.0787
90.0018
91.7877
89.5226
82.9657
100.232
89.6636
89.6874
90.006
89.7896
111.53
91.3481
90.4776
89.7593
90.7081
89.319
91.2714
91.0934
97.2878
91.1012
89.9462
92.4455
91.8138
91.921
89.7452
91.185
89.654
82.2372
91.0883
105.713
89.8055
89.68
96.3589
91.3757
90.19
88.0739
89.7199
90.5603
100.073
91.0467
116.516
91.1845
90.5701
93.7979
82.684
118.812
91.2024
89.4671
97.5536
96.9097
91.235
90.1342
96.6262
91.3322
95.9085
97.3999
90.3839
91.4022
96.0212
98.3293
98.2999
91.9246
91.0653
90.4135
91.4051
117.426
91.8733
92.4591
113.279
97.3877
90.0136
91.4099
101.544
90.5719
117.95
94.9579
91.7974
89.7668
98.3861
91.7171
93.5861
91.0446
91.6416
89.428
79.1437
89.9664
97.9523
89.9442
91.9392
89.7144
101.266
89.5003
90.1534
91.2358
113.802
89.9772
114.768
89.9235
89.4076
108.873
111.234
89.3158
90.1679
98.2309
91.626
82.1203
91.7676
90.2214
91.4943
88.0382
89.7249
98.3169
91.7347
91.8085
90.8905
89.809
90.1891
89.9083
92.6857
89.3308
91.7065
89.6303
90.0385
91.0749
90.6344
91.601
96.7845
82.3632
91.3142
91.0021
97.5467
82.6605
91.8661
89.6915
89.8227
89.7471
90.5671
91.1976
101.17
108.367
98.0351
83.1158
91.6688
91.4071
89.6934
90.8145
112.055
114.373
91.806
89.6505
91.6926
97.7431
88.1479
90.4033
93.6982
95.7926
96.0391
115.307
91.5437
89.8091
90.7274
109.28
82.8025
111.161
91.5632
90.6948
93.141
96.9296
90.4993
98.7169
91.447
89.6296
95.3226
99.9001
91.6266
90.6912
91.274
81.8456
90.4906
89.4452
97.8387
89.7458
90.7669
89.2253
90.2762
90.2554
98.8931
93.1535
89.542
91.1285
97.769
97.4824
98.4347
91.058
90.1662
90.1337
91.335
85.1988
89.7814
89.6707
90.4569
89.9367
90.9633
95.9546
91.2505
90.1728
113.914
89.5985
116.604
96.3628
96.7252
99.0605
88.4661
91.7122
78.9138
91.6403
91.3903
82.6186
91.5838
89.5589
91.0936
90.3781
90.217
92.5958
88.4041
90.5811
90.4366
91.9495
89.7528
90.3616
115.421
91.9227
89.7967
97.1913
90.5305
90.7449
91.1776
90.9112
92.4899
91.1937
90.3089
89.6023
89.3594
96.2229
92.0466
97.274
95.5163
90.117
82.6388
89.7739
90.6904
90.0814
90.243
91.3827
97.738
89.7269
96.9024
94.2217
91.2995
97.7309
100.131
89.7723
89.9776
120.742
126.459
89.5859
90.6927
91.306
91.3615
90.5748
90.0777
95.8587
92.6287
93.5301
89.6721
91.8433
96.4283
90.5455
90.032
89.6747
91.9959
91.3474
97.6422
89.9531
91.1682
90.4711
91.2831
90.4349
97.3813
89.6575
90.6629
96.1835
99.6853
91.0593
90.848
89.986
91.4102
90.0858
91.0106
90.5598
90.1105
91.4007
91.6644
89.2938
90.5996
89.2861
92.1906
86.903
91.9698
90.4392
91.3725
89.346
89.7548
91.5223
89.6081
98.4148
89.6773
73.4331
97.051
90.4866
91.8488
117.048
90.1341
90.5499
88.208
91.7068
89.7103
91.275
96.9593
90.0069
89.6737
89.6924
95.6452
91.1509
90.1691
89.9369
89.6788
90.5602
97.2058
91.8408
89.864
90.0583
89.3929
116.713
89.6237
92.0522
90.9647
91.6347
99.4452
89.6505
100.076
98.6741
91.8409
89.5286
91.0452
90.1259
90.6016
89.8316
89.4566
121.357
90.7055
89.5914
101.263
89.6382
112.994
96.7312
100.715
91.2494
96.5712
90.2389
91.9831
89.7453
91.8293
82.7045
91.6569
91.3218
89.4606
95.2256
89.5763
91.8206
89.5329
91.8932
98.4613
97.7268
97.6565
90.867
85.1577
95.7072
96.998
97.8446
97.2086
89.4283
90.504
91.2473
90.507
98.1833
113.631
91.0947
90.5897
91.221
90.581
90.0511
97.233
98.8337
79.3069
123.317
88.3435
88.7464
116.63
90.3533
90.789
95.6054
)
;

boundaryField
{
    frontAndBack
    {
        type            empty;
    }
    wallOuter
    {
        type            zeroGradient;
    }
    inlet
    {
        type            zeroGradient;
    }
    outlet
    {
        type            fixedValue;
        value           nonuniform 0();
    }
    wallInner
    {
        type            zeroGradient;
    }
    procBoundary0to1
    {
        type            processor;
        value           nonuniform List<scalar> 
29
(
89.2488
88.7755
87.8873
87.8873
80.9044
80.9044
115.511
88.0398
84.8552
87.8663
88.1638
81.1001
88.0039
89.604
115.844
116.171
80.4613
81.1561
87.8349
88.6818
116.032
115.915
82.4622
116.237
116.372
81.1561
116.992
115.415
116.237
)
;
    }
    procBoundary0to2
    {
        type            processor;
        value           nonuniform List<scalar> 
42
(
90.7729
90.6116
91.9828
92.0144
91.3249
90.7729
91.9828
92.0097
91.283
91.2673
91.1788
90.9427
91.1788
90.8046
90.6605
91.1927
90.6605
91.2757
91.2684
89.2844
89.2844
91.2757
91.3457
90.1852
90.1852
91.4212
90.683
91.5485
91.1962
90.5215
90.5215
91.7004
91.8349
91.9163
91.9665
91.9828
90.576
91.9611
91.1962
92.0097
92.0289
92.0141
)
;
    }
}


// ************************************************************************* //
