/*--------------------------------*- C++ -*----------------------------------*\
| =========                 |                                                 |
| \\      /  F ield         | OpenFOAM: The Open Source CFD Toolbox           |
|  \\    /   O peration     | Version:  v1912                                 |
|   \\  /    A nd           | Website:  www.openfoam.com                      |
|    \\/     M anipulation  |                                                 |
\*---------------------------------------------------------------------------*/
FoamFile
{
    version     2.0;
    format      ascii;
    class       volScalarField;
    location    "0.86";
    object      k;
}
// * * * * * * * * * * * * * * * * * * * * * * * * * * * * * * * * * * * * * //

dimensions      [0 2 -2 0 0 0 0];


internalField   nonuniform List<scalar> 
1466
(
0.0582511
0.0843795
0.137948
0.0328938
0.124756
0.398457
0.0762454
0.0969542
0.44101
0.0425129
0.263544
0.0823056
0.0095615
0.0433241
0.0571318
0.0400621
0.0983889
0.0269051
0.184063
0.0354228
0.107137
0.109044
0.0445818
0.105387
0.0458114
0.401317
0.455356
0.0666591
0.0453956
0.0673845
0.105217
0.269688
0.116262
0.0788909
0.0305402
0.0627675
0.0323725
0.0474746
0.716622
0.100186
0.0793899
0.0369488
0.293621
0.100703
0.0755064
0.201623
0.0615935
0.0237108
0.0335799
0.108827
0.177356
0.0308798
0.0970185
0.333492
0.0504843
0.0884396
0.0436278
0.311709
0.034438
0.0846978
0.0310513
0.0595586
0.107993
0.313299
0.0801784
0.0411793
0.092063
0.10088
0.036198
0.0887447
0.31006
0.0412514
0.0400903
0.0542523
0.0263444
0.0698387
0.0499095
0.041375
0.0778122
0.0900176
0.2055
0.0537391
0.0606451
0.0323566
0.0407744
0.100921
0.0394354
0.0890883
0.0464506
0.0539834
0.0416705
0.0451479
0.0873524
0.0318467
0.162823
0.0881318
0.0860548
0.044951
0.102629
0.0410567
0.0552705
0.0662452
0.0900282
0.0489679
0.0583651
0.310633
0.0900113
0.060776
0.100676
0.0521913
0.0268271
0.043436
0.0435963
0.0491746
0.010866
0.795209
0.0319659
0.0359536
0.0659486
0.338356
0.0829297
0.0366696
0.0247365
0.102804
0.0443863
0.0744643
0.0424587
0.0704301
0.0869325
0.384857
0.0371514
0.047677
0.0431918
0.0921746
0.213995
0.088915
0.0425468
0.0403948
0.0742317
0.0292982
0.0332692
0.0433119
0.0854331
0.100011
0.0747957
0.0314604
0.0445962
0.0813249
0.0924929
0.040218
0.0837455
0.0647915
0.0455101
0.0844403
0.052967
0.426101
0.0417962
0.284336
0.0925274
0.0681354
0.0700205
0.0424867
0.0704633
0.0876451
0.0604598
0.0865677
0.308279
0.0169678
0.0360131
0.474576
0.0872198
0.0990715
0.0522748
0.0839766
0.427584
0.0826282
0.0532922
0.0866813
0.0559033
0.0869478
0.0364234
0.0759959
0.0527813
0.042851
0.0999667
0.0383552
0.0783924
0.766213
0.0701688
0.0626537
0.0465304
0.0324896
0.0431596
0.0743914
0.0703946
0.0482148
0.0731668
0.0588035
0.0493127
0.0451175
0.0682397
0.134555
0.0600434
0.0383973
0.0719765
0.0395573
0.0783699
0.0909573
0.0557163
0.0853321
0.077191
0.108935
0.129445
0.0598046
0.0826569
0.0758016
0.0744197
0.0143748
0.0361159
0.0481546
0.578921
0.0468615
0.0356841
0.0648401
0.0732474
0.0734172
0.0423935
0.0618561
0.0473821
0.347784
0.0478646
0.0742643
0.0498023
0.030215
0.0593755
0.0727994
0.0307919
0.0801023
0.0365459
0.0537873
0.394924
0.0493736
0.0473471
0.0494962
0.0467394
0.0281601
0.224847
0.040517
0.0178198
0.0331393
0.0535483
0.269942
0.0387883
0.0756244
0.047308
0.235571
0.04855
0.308151
0.86063
0.0555891
0.060256
0.0549777
0.221279
0.0568556
0.498911
0.0667389
0.481392
0.0555459
0.119387
0.046005
0.156144
0.0318276
0.041849
0.0491819
0.050973
0.0351011
0.0708822
0.0459242
0.0970847
0.0420873
0.0648603
0.0227013
0.0372776
0.0349129
0.103424
0.0330176
0.193201
0.0514101
0.549562
0.0439866
0.0783434
0.506934
0.240914
0.0644185
0.0542159
0.172244
0.732395
0.866544
0.146444
0.0346571
0.0549254
0.169131
0.046633
0.202681
0.0714408
0.0738239
0.0387834
0.030942
0.0227908
1.09644
0.410695
0.134348
0.156906
0.0801145
0.0382967
0.0895136
0.0482711
0.360658
0.0759593
0.0538637
0.0884736
0.0909296
0.0656968
0.0406817
0.0228506
0.0503002
0.0954972
0.0593656
0.140564
0.101022
0.0349656
0.0390867
0.106204
0.0600772
0.0279639
0.0408902
0.0143347
0.275131
0.027945
0.121519
0.0388723
0.0406341
0.0370706
0.0776738
0.0558719
0.18454
0.0337556
0.0320258
0.0490969
0.577821
0.0537713
0.0586768
0.0538529
0.0317849
0.0304207
0.107101
0.0604179
0.0389765
1.05004
0.198027
0.518998
0.093958
0.0852919
0.0458361
0.0295859
0.0606341
0.0864762
0.122202
0.037518
0.0360592
0.150629
0.0258039
0.032109
0.0398879
0.0760049
0.0319948
0.0442503
0.53246
0.0469316
0.025854
0.0363864
0.0674743
0.168261
0.153976
0.0555817
0.227848
0.0597167
0.13826
0.0377875
0.049286
0.0633729
0.306143
0.0694247
0.740871
0.0317806
0.0508816
0.0779809
0.321447
0.0562949
0.0127799
0.0252608
0.273187
0.0743812
0.0511981
0.0738836
0.0972402
0.103337
0.884037
0.0967384
0.0490785
0.118715
0.0687948
0.0297919
0.0363842
0.65424
0.0855257
0.122777
0.346457
0.0680946
0.0798541
0.322743
0.0282084
0.123007
0.120651
0.125659
0.127375
0.117512
0.12199
0.118825
0.116964
0.0556978
0.101505
0.123443
0.486275
0.664971
0.573843
0.645915
0.10261
0.553706
0.481282
0.236417
0.0518085
0.394726
0.464628
0.505822
0.614816
0.441428
0.428979
0.735837
0.376131
0.789539
0.590869
0.442883
0.263792
0.639798
0.585218
0.450208
0.564469
0.333522
0.396646
0.619775
0.157814
0.224576
0.348297
0.438476
0.368374
0.6102
0.0900158
0.0586952
0.186411
0.545306
0.529023
0.366937
0.542696
0.188651
0.113908
0.25415
0.213021
0.145107
0.46362
0.0608527
0.087328
0.243649
0.0925953
0.122963
0.0514415
0.0887256
0.213053
0.222911
0.0755236
0.109581
0.0492311
0.0999759
0.243748
0.0541416
0.133868
0.518959
0.624976
0.307837
0.268589
0.0450215
0.0968667
0.0357288
0.0557003
0.276335
0.0842259
0.0761893
0.453139
0.378821
0.493696
0.427732
0.103754
0.444772
0.406986
0.367512
0.458545
0.0422164
0.0993173
0.291643
0.317151
0.255926
0.681497
0.511199
0.560494
0.436891
0.0538536
0.48096
0.542779
0.0257429
0.26464
0.0960351
0.083473
0.427756
0.397353
0.401777
0.597795
0.0714862
0.57717
0.105748
0.0488532
0.587632
0.655581
0.458757
0.62918
0.452885
0.316035
0.0691413
0.722838
0.672321
0.0447889
0.0928714
0.0523
0.633566
0.0936201
0.087673
0.498283
0.0480539
0.0729505
0.159728
0.464834
0.0943517
0.066233
0.0902254
0.723936
0.0751759
0.0822855
0.090014
0.0758375
0.415744
0.759239
0.0526697
0.494474
0.390998
0.075002
0.0786645
0.364739
0.12576
0.311126
0.418991
0.370611
0.0798513
0.0840434
0.126136
0.08097
0.0571935
0.836142
0.136874
0.0873733
0.77549
0.294813
0.0162576
0.0355414
0.0765641
0.120294
0.0432725
0.0939503
0.0960588
0.0826113
0.712548
0.0872201
0.772779
0.046527
0.085498
0.0863467
0.37068
0.164247
0.157989
0.127136
0.617712
0.810145
0.0852921
0.534598
0.285214
0.793669
0.0356853
0.346637
0.683319
0.042061
0.542939
0.0420936
0.0719307
0.0889672
0.152503
0.0716215
0.0776623
0.355389
0.0301554
0.0798642
0.095141
0.664589
0.254515
0.768818
0.133864
0.0241063
0.090514
0.0844279
0.081981
0.66841
0.048289
0.0848664
0.0954889
0.604103
0.0461397
0.502113
0.310934
0.0682901
0.117363
0.541928
0.644304
0.0931035
0.0795487
0.736905
0.0814482
0.589582
0.160888
0.225223
0.255747
0.0855547
0.0875585
0.13019
0.0473859
0.695097
0.0736197
0.144132
0.232301
0.643863
0.311333
0.0597843
0.712176
0.073446
0.0787959
0.053987
0.0265734
0.0984291
0.018126
0.0388944
0.278878
0.684039
0.0683633
0.0589812
0.0480052
0.0681199
0.0269779
0.0978179
0.0322406
0.233885
0.0930234
0.145069
0.045529
0.0719515
0.0522817
0.0686957
0.535806
0.0804897
0.383195
0.0529382
0.0555791
0.064124
0.0772912
0.0899457
0.410494
0.0804476
0.0708554
0.615575
0.0799833
0.0523514
0.102432
0.665606
0.396135
0.0500992
0.0756453
0.0282014
0.0641303
0.046069
0.0786188
0.0418165
0.0714821
0.792956
0.0592852
0.468388
0.102258
0.201168
0.0940452
0.089725
0.649433
0.0797593
0.109442
0.0640113
0.579473
0.0716761
0.310001
0.0385169
0.0648747
0.0108429
0.0098645
0.465955
0.0128896
0.0103185
0.332236
0.73348
0.0335867
0.0157559
0.0120042
0.0239296
0.0625126
0.206605
0.04583
0.0613629
0.506753
0.0638832
0.0840963
0.0367931
0.0293352
0.0774153
0.0948623
0.10705
0.990866
0.340432
0.0734478
0.0447861
0.0305393
0.0432978
0.0813448
0.0324221
0.0575073
0.238551
0.114408
0.0339443
0.0833764
0.0985101
0.131581
0.661399
0.127624
0.0277813
0.0815401
0.0711306
0.063603
0.0590957
0.0733176
0.164044
0.71252
0.600155
0.0158249
0.0416154
0.0822116
0.0317863
0.0733118
0.0868967
0.4998
0.0310243
0.0565294
0.0676421
0.0321914
0.0379824
0.104027
0.296
0.787694
0.0987827
0.119907
0.0254285
0.0578154
0.0944593
0.0807564
0.115991
0.0642848
0.043347
0.478564
0.0483501
0.0650145
0.189392
0.876866
0.0192248
0.0724392
0.503
0.0341491
0.123215
0.037011
0.0518934
0.0934519
0.164624
0.795645
0.0620666
0.246174
0.101367
0.0411867
0.044583
0.10625
0.0808853
0.0849188
0.183714
0.0505603
0.0735855
0.0551762
0.179717
0.0728458
0.0460008
0.169078
0.0788044
0.0393931
0.0515671
0.0179038
0.0845255
0.077023
0.342326
0.0268994
0.161978
0.0737981
0.0772243
0.326589
0.126521
0.599396
0.0737186
0.0924587
0.566757
0.0267728
0.234708
0.164895
0.0577022
0.0811093
0.0268462
0.187456
0.0268149
0.403777
0.0848377
0.0784756
0.0448747
0.0394683
0.0594067
0.119601
0.048707
0.0847597
0.0465824
0.51638
0.102282
0.0833365
0.0959575
0.051431
0.0690365
0.801071
0.318491
0.0544591
0.139679
0.461448
0.102302
0.0505265
0.0744463
0.083765
0.192941
0.304673
0.132653
0.0747285
0.0990738
0.0328631
0.0701708
0.0853694
0.696708
0.390726
0.418848
0.481427
0.063216
0.0594585
0.092633
0.0609504
0.349338
0.136465
0.046867
0.105078
0.0586523
0.0801832
0.0768707
0.0734752
0.278476
0.286411
0.0502764
0.0700064
0.0199622
0.069844
0.0499322
0.0776727
0.0770852
0.0671293
0.0527026
0.396259
0.226122
0.544131
0.0348449
0.0958079
0.115854
0.0677373
0.44903
0.0535099
0.0692265
0.0309732
0.347064
0.0142937
0.590885
0.106842
0.286283
0.0632307
0.0158226
0.0176845
0.0215909
0.0196209
0.0621907
0.0597286
0.0639395
0.0653571
0.0145556
0.0644493
0.0641971
0.0145584
0.0157949
0.0176408
0.0691461
0.0189762
0.0199926
0.0780567
0.0170167
0.0872807
0.029956
0.0648297
0.563109
0.128607
0.0693206
0.0450814
0.0481078
0.492793
0.0335739
0.182084
0.0743534
0.0463228
0.0932127
0.0243691
0.236422
0.24194
0.0428744
0.0819267
0.047887
0.0656592
0.0473676
0.523847
0.213334
0.810515
0.442218
0.102885
0.151992
0.0448429
0.0501453
0.0591773
0.304226
0.112575
0.0541321
0.05058
0.0645046
0.489921
0.270193
0.0207993
0.827527
0.416731
0.576966
0.0551126
0.0610225
0.126727
0.0857325
0.0805594
0.0472931
0.039972
0.47669
0.0667867
0.0234457
0.0766055
0.0337442
0.0237773
0.076372
0.0300793
0.0662469
0.084498
0.0491629
0.0307304
0.253162
0.0497574
0.0305013
0.308576
0.0993765
0.0957765
0.0719868
0.108171
0.0450823
0.135999
0.478025
0.106584
0.0674352
0.525929
0.0433436
0.0291412
0.264007
0.599852
0.024807
0.0518105
0.212202
0.853351
0.0219195
0.0695482
0.0501318
0.0389353
0.0982251
0.0939021
0.0103138
0.169618
0.0852111
0.0502881
0.183909
0.318671
0.449207
0.0230411
0.0987948
0.558041
0.243126
0.0393546
0.215452
0.642533
0.0350518
0.0513116
0.0189348
0.0703808
0.0509091
0.0492873
0.840949
0.0680609
0.0788572
0.0298713
0.0443516
0.0772697
0.0519113
0.827068
0.0730031
0.0725179
0.082719
0.0992268
0.392927
0.106587
0.0546961
0.042678
0.497339
0.0503652
0.0781705
0.737349
0.0776812
0.098135
0.0550152
0.506041
0.111463
0.0814458
0.703426
0.0198545
0.0233343
0.535959
0.449588
0.0737977
0.0924393
0.0233997
0.0433296
0.0895989
0.377022
0.169003
0.0292622
0.0167429
0.0394755
0.0669783
0.0401955
0.446852
0.108911
0.0811455
0.0395332
0.494124
0.0275308
0.0324625
0.0759587
0.0381995
0.0654318
0.0281507
0.060345
0.265645
0.0585736
0.0349486
0.0242744
0.0321151
0.2005
0.0411727
0.502479
0.0251022
0.0325288
0.0370772
0.300417
0.0237199
0.0306377
0.129704
0.0240955
0.66413
0.356798
0.0368803
0.0393746
0.0777866
0.149896
0.0634732
0.117227
0.0136758
0.109873
0.164014
0.0492628
0.0637695
0.0283333
0.0417056
0.059036
0.0540809
0.280403
0.0561082
0.0389077
0.0632575
0.0655681
0.117821
0.345412
0.502629
0.0427962
0.200936
0.0485358
0.0221185
0.0343695
0.0545381
0.238204
0.0209927
0.0851662
0.571218
0.0592945
0.0314806
0.120336
0.350593
0.118673
0.029796
0.365708
0.0549818
0.0621499
0.0302389
0.0299591
0.048656
0.0265411
0.278776
0.0991876
0.331735
0.0994947
0.0960247
0.0441634
0.0587461
0.0257092
0.0418997
0.928081
0.330136
0.342641
0.0217655
0.138947
0.0334663
0.412398
0.351238
0.0902043
0.0579876
0.0585764
0.03934
0.827493
0.378765
0.697565
0.0323593
0.113209
0.27639
0.0933941
0.752721
0.05536
0.119969
0.278383
0.113143
0.0165118
0.07903
0.110467
0.106306
0.053162
0.34017
0.0310173
0.0225307
0.882497
0.414246
0.0444076
0.0545352
0.0469653
0.0206
0.0377714
0.0352024
0.194639
0.208073
0.076867
0.0537487
0.101618
0.112619
0.0543954
0.686352
0.814315
0.325192
0.872246
0.0622295
0.0495373
0.155967
0.0706977
0.261044
0.830736
0.0999201
0.41136
0.295349
0.0730353
0.097377
0.138194
0.237864
0.366672
0.0815466
0.025937
0.0894329
0.0546541
0.14135
0.0714148
0.0521558
0.115496
0.0560933
0.0228065
0.0558151
0.328942
0.0586259
0.030848
0.923058
0.421683
0.434862
0.0301655
0.0500208
0.0730465
0.205528
0.213443
0.114274
0.790793
0.0718251
0.0373371
0.123974
0.096787
0.0748323
0.0597149
0.067206
1.00258
0.39553
0.108682
0.569241
0.50684
0.14567
0.00991915
0.197741
0.0162887
0.343162
0.428512
0.026342
0.0244689
0.379607
0.130189
0.255598
0.296786
0.0153818
0.12654
0.0797252
0.0784834
0.0212929
0.0292698
0.0304514
0.204922
0.0663817
0.0620257
0.0738622
0.61278
0.0539263
0.0432129
0.135766
0.0621391
0.0688069
0.219915
0.0564948
0.101788
0.0582461
0.27965
0.0294378
0.643865
0.0448059
0.0434339
0.131382
0.0192961
0.060811
0.0720782
0.0504011
0.0435575
0.118464
0.480259
0.0200356
0.0707119
0.0525816
0.037927
0.0311989
0.175376
0.0728126
0.0450852
0.293594
0.0310454
0.292089
0.0696661
0.0528851
0.557822
0.206012
0.114522
0.294118
0.0359182
0.0488491
0.0457584
0.0380385
0.0976103
0.0338526
0.111449
0.187536
0.10052
0.657166
0.0110444
0.0460075
0.0425829
0.0748661
0.0532927
0.0322199
0.185734
0.0543721
0.329389
0.0677363
0.0287875
0.0408229
0.0560864
0.055045
0.0927371
0.115602
0.0586323
0.0400153
0.0687381
0.040558
0.0601417
0.0563119
0.0796266
0.0526323
0.502568
0.095098
0.0287356
0.0598961
0.0346211
0.121986
0.0293464
0.0726683
0.0716978
0.667632
0.0567669
0.0491752
0.114161
0.0247738
0.0547277
0.0419318
0.0502326
0.0534183
0.0375953
0.0829839
0.0930941
0.0904674
0.0548772
0.115771
0.0898876
0.929976
0.386657
0.25067
0.0593237
0.04805
0.040315
0.0596553
0.146597
0.151044
0.0606088
0.0652807
0.0402764
0.0946066
0.0688382
0.0449772
0.0317946
0.0731965
0.0829601
0.106695
0.0334908
0.280982
0.0959142
0.093425
0.0612315
0.0546441
0.127193
0.131879
0.159334
0.0813661
0.0639758
0.0743496
0.0683001
0.189118
0.0239196
0.185139
0.502606
0.540157
0.0389109
0.0505273
0.466326
0.167651
0.579767
0.0548161
0.125078
0.156969
0.0541232
0.0619219
0.0381584
)
;

boundaryField
{
    frontAndBack
    {
        type            empty;
    }
    wallOuter
    {
        type            kqRWallFunction;
        value           nonuniform List<scalar> 
102
(
0.0095615
0.0095615
0.0445818
0.0263444
0.010866
0.0227908
0.0317806
0.0269779
0.0108429
0.0098645
0.0128896
0.0103185
0.0157559
0.0120042
0.0239296
0.0625126
0.04583
0.0367931
0.0305393
0.0339443
0.0277813
0.0158249
0.0416154
0.0254285
0.0578154
0.0411867
0.044583
0.0267728
0.0268462
0.0502764
0.0199622
0.0158226
0.0176845
0.0215909
0.0196209
0.0621907
0.0597286
0.0639395
0.0653571
0.0145556
0.0644493
0.0641971
0.0145584
0.0157949
0.0176408
0.0189762
0.0199926
0.029956
0.0648297
0.0463228
0.0243691
0.0428744
0.0656592
0.05058
0.0645046
0.0207993
0.0551126
0.0610225
0.0337442
0.0237773
0.0433436
0.024807
0.0219195
0.0103138
0.0230411
0.0189348
0.0443516
0.0546961
0.042678
0.0233343
0.0233997
0.0433296
0.0167429
0.0394755
0.0401955
0.0275308
0.0281507
0.0349486
0.0411727
0.0240955
0.0368803
0.0136758
0.0540809
0.0561082
0.0427962
0.0209927
0.0314806
0.048656
0.0257092
0.0225307
0.0560933
0.0228065
0.00991915
0.026342
0.0153818
0.0292698
0.0192961
0.0200356
0.037927
0.0110444
0.0322199
0.0543721
)
;
    }
    inlet
    {
        type            fixedValue;
        value           nonuniform 0();
    }
    outlet
    {
        type            zeroGradient;
    }
    wallInner
    {
        type            kqRWallFunction;
        value           nonuniform List<scalar> 
138
(
0.263544
0.0983889
0.0453956
0.0673845
0.0308798
0.0970185
0.333492
0.0504843
0.0595586
0.0451479
0.0552705
0.0489679
0.0247365
0.0332692
0.0433119
0.0314604
0.0445962
0.0169678
0.0626537
0.0465304
0.0324896
0.0143748
0.0473471
0.0281601
0.224847
0.040517
0.0178198
0.0331393
0.498911
0.0227013
0.0372776
0.0514101
0.0406817
0.0228506
0.0503002
0.0954972
0.0593656
0.140564
0.101022
0.0349656
0.0390867
0.106204
0.0600772
0.0279639
0.0408902
0.0143347
0.275131
0.027945
0.121519
0.0388723
0.0406341
0.0370706
0.0776738
0.0558719
0.18454
0.0337556
0.0320258
0.0389765
0.0458361
0.0295859
0.0606341
0.0864762
0.122202
0.037518
0.0360592
0.150629
0.0258039
0.032109
0.0398879
0.0760049
0.0319948
0.0442503
0.025854
0.0127799
0.0252608
0.0297919
0.0363842
0.0282084
0.664971
0.236417
0.333522
0.368374
0.186411
0.25415
0.213021
0.0541416
0.307837
0.268589
0.0357288
0.560494
0.436891
0.0257429
0.0691413
0.12576
0.0162576
0.0355414
0.152503
0.0241063
0.144132
0.018126
0.0388944
0.045529
0.0282014
0.332236
0.0335867
0.127624
0.0310243
0.043347
0.0192248
0.0518934
0.179717
0.0515671
0.0179038
0.0577022
0.0465824
0.046867
0.0142937
0.0170167
0.0481078
0.0234457
0.308576
0.0993765
0.0291412
0.392927
0.0198545
0.060345
0.0492628
0.0283333
0.0221185
0.0549818
0.0165118
0.0547277
0.579767
0.0548161
0.156969
0.0541232
0.0619219
0.0381584
)
;
    }
    procBoundary2to0
    {
        type            processor;
        value           nonuniform List<scalar> 
42
(
1.02134
1.02134
0.0676088
0.0694743
0.085711
1.19665
0.0681836
0.0681836
0.068946
0.0680704
0.248202
0.248202
0.152584
0.349852
0.460691
1.1002
0.644872
0.0663006
0.0670115
0.16081
0.138417
0.0595829
0.0595829
0.330302
0.138417
0.0495251
0.635095
0.0405797
0.635095
0.920394
0.739805
0.0425433
0.0500596
0.054783
0.0553094
0.0694743
0.644872
0.0519455
0.906915
0.0623172
0.0623172
0.0575048
)
;
    }
    procBoundary2to1
    {
        type            processor;
        value           uniform 0.211342;
    }
    procBoundary2to3
    {
        type            processor;
        value           nonuniform List<scalar> 
29
(
0.090121
0.0961195
0.0343823
0.0432702
0.279668
0.0718476
0.0319088
0.09515
0.114749
0.107221
0.0937251
0.267247
0.0662944
0.0735119
0.0699289
0.0597141
0.108219
0.108219
0.0961195
0.0735119
0.0748558
0.101271
0.0392501
0.112352
0.0573562
0.0784187
0.114749
0.233997
0.267247
)
;
    }
}


// ************************************************************************* //
