/*--------------------------------*- C++ -*----------------------------------*\
| =========                 |                                                 |
| \\      /  F ield         | OpenFOAM: The Open Source CFD Toolbox           |
|  \\    /   O peration     | Version:  v1912                                 |
|   \\  /    A nd           | Website:  www.openfoam.com                      |
|    \\/     M anipulation  |                                                 |
\*---------------------------------------------------------------------------*/
FoamFile
{
    version     2.0;
    format      ascii;
    class       volScalarField;
    location    "0.02";
    object      epsilon;
}
// * * * * * * * * * * * * * * * * * * * * * * * * * * * * * * * * * * * * * //

dimensions      [0 2 -3 0 0 0 0];


internalField   nonuniform List<scalar> 
5794
(
7.73219
5.2049
8.29123
8.10097
5.74896
6.03297
5.37183
5.35399
5.89309
5.58627
4.98714
5.27887
5.12792
5.50541
5.07299
4.88994
13.9968
5.30872
5.59434
5.42028
412.129
6.69596
5.4143
5.33084
5.50562
82.947
8.45709
5.37133
5.59418
8.22557
4.97451
5.54408
4.94896
5.10602
5.05521
5.11719
5.91282
5.04227
4.92525
5.11843
5.07491
5.13515
6.03051
20.4749
5.04524
4.99274
5.54023
5.04106
5.92445
6.37792
6.85816
5.31162
62.579
6.24515
6.26505
5.06945
6.55557
5.42822
4.91173
171.783
11.0102
5.28327
4.87769
5.11183
4.86672
4.8629
5.25143
37.157
6.37124
5.11381
4.89914
5.36541
31.0558
5.2315
5.65775
6.25145
7.91327
43.4291
15.6885
7.27162
9.53664
6.11377
4.93442
4.87492
4.89104
9.89306
15.1796
8.10468
6.06067
6.75744
5.08078
9.17237
5.85746
5.46337
6.58076
5.00838
5.05876
5.73162
8.56134
10.6028
66.1331
10.0816
5.12007
5.01771
6.05621
4.87583
5.03539
4.97065
5.10774
12.8529
5.13864
5.71116
106.759
4.86111
5.87019
5.21758
5.23818
5.24915
11.347
17.0561
4.97322
8.47913
5.94948
5.83618
4.92515
5.03182
7.91281
5.68633
5.29892
4.99463
5.1994
5.05159
8.56612
30.0787
4.89001
4.94023
5.84797
5.1015
5.07428
4.88602
6.09328
5.72854
4.98629
5.51099
5.48376
6.85897
6.83345
5.41181
5.41783
7.32883
6.9796
5.01057
4.87319
7.66559
8.09348
6.1817
5.32447
5.63412
5.53926
5.31703
5.81158
5.55546
5.99195
5.59299
6.05583
6.59532
6.27392
6.16746
5.59595
7.08018
7.11635
5.56358
6.61849
6.57555
6.69144
5.8115
7.45725
5.83228
5.90087
6.65307
5.93013
6.92224
5.893
5.97167
5.79852
8.12547
6.95318
5.98746
6.58439
7.58811
5.67091
5.79826
5.32541
5.35457
6.14222
6.35233
6.22676
6.01018
5.375
5.81564
6.29453
5.97401
5.54388
5.83865
6.09119
5.48973
6.29116
4.94111
6.32122
7.4151
9.82297
8.07676
4.94531
4.93279
5.0263
5.08149
5.18323
8.20122
4.87024
4.86733
8.97799
5.29774
5.05696
5.76158
7.73549
8.02964
6.71131
5.03619
5.07741
4.97954
7.21324
7.0926
6.5445
5.94214
5.92251
6.02245
6.30447
4.88868
5.86619
10.6397
6.14578
5.06649
6.03135
7.34073
7.27695
5.15335
4.93228
5.36667
7.75673
10.1978
16.429
4.86178
9.57429
4.94775
6.32048
6.49003
5.14503
5.25088
4.94536
5.00743
5.04454
4.95788
4.9507
4.88505
6.18663
6.14904
7.17641
5.02617
5.27659
4.88964
5.16025
4.90711
6.23962
5.06074
39.031
5.23553
5.97201
5.07315
4.99189
6.0771
5.35791
5.16903
5.44389
5.42304
5.47401
6.62988
15.6013
8.38816
5.87287
4.97666
6.0084
6.01703
5.5735
5.01617
6.62695
51.2136
6.26181
6.17769
6.38582
4.86105
6.82742
130.792
10.2822
6.26286
13.9661
5.31869
4.98942
6.4682
4.96911
5.46686
5.00241
5.45092
6.76527
4.86172
12.2143
13.3306
4.90758
5.13366
5.15407
6.87416
6.49236
6.01788
5.77327
5.56074
4.86688
4.93217
4.94394
5.21427
5.31002
5.25358
6.77092
6.67433
5.6241
5.50105
6.20953
6.15483
6.91895
6.49032
7.04434
6.13784
6.53164
6.66637
5.66501
6.5005
6.55311
5.85018
5.94958
6.87326
6.13383
5.70951
5.43749
10.1932
5.93944
6.75944
5.90236
10.83
6.68882
6.55658
5.82671
5.78452
4.91706
5.1426
5.14785
4.95798
4.96992
5.17306
6.70521
6.17574
7.384
6.2753
5.03098
5.00229
5.0163
5.27914
4.87825
5.35192
5.83891
10.2795
6.99503
5.12798
6.06391
4.97851
11.7936
5.09847
5.0481
5.10407
5.17594
4.93504
4.9546
6.04788
5.93941
6.46141
5.03038
4.95938
6.57834
6.62984
6.57283
31.9937
4.98684
5.11441
5.05482
5.08056
5.65288
6.3339
5.76424
4.96122
72.2847
5.63862
4.98478
4.99611
5.43988
7.66085
4.96367
7.54772
6.03436
6.90721
6.25847
8.30482
6.06619
5.12848
8.6509
5.92232
4.87325
5.13547
5.95394
5.8713
6.04024
4.86114
5.21881
6.28761
5.43157
6.32337
6.2207
261.611
4.99993
5.57029
6.10241
5.76745
5.21317
5.1579
5.27803
10.7204
5.39186
5.42914
4.89982
5.25356
6.13989
4.88511
53.9478
12.4377
6.57873
5.24016
440.336
6.3454
5.70852
5.00514
4.91839
5.2061
8.82689
6.04818
6.23659
5.48607
124.666
5.00955
10.1522
4.98107
6.17152
6.265
4.88578
10.5952
6.9961
6.42629
4.98094
4.87913
5.09938
5.98129
8.1704
5.16774
10.1766
5.49389
130.995
6.1057
5.50965
4.9041
4.88594
4.86921
7.36547
4.92209
8.69991
7.58985
5.43527
6.54296
6.18603
5.48272
92.212
4.93702
5.97494
4.93836
4.90047
4.93079
6.09606
6.42494
6.37543
4.97788
5.7173
5.61017
6.93844
5.43357
4.96031
4.86069
5.08956
4.98636
5.40007
4.91433
4.8654
6.11845
5.38757
4.90482
5.98239
5.48153
6.2402
5.0364
5.9499
5.15085
4.89307
5.66918
8.98731
5.495
5.46341
6.40593
277.608
6.30342
6.15551
4.87876
4.95766
5.01982
7.95312
5.78584
4.94238
5.05011
6.86493
421.983
5.57414
6.26645
4.99432
4.87966
6.63669
5.36539
4.91369
6.0673
5.0035
5.16895
7.0249
10.9322
5.78403
5.18108
268.42
6.49522
5.53401
7.63696
59.0698
6.75301
5.04073
5.07807
5.92391
5.44746
4.9512
6.09823
8.32914
4.85956
9.68546
6.98926
8.35118
10.5375
24.8415
6.84657
6.17289
5.6887
5.63591
5.64246
5.67054
7.85324
5.26114
6.99127
5.54871
6.79488
4.86159
5.36159
9.46139
4.90152
4.85987
5.45416
4.90444
5.33105
6.38976
4.91178
5.09696
10.4364
4.95197
5.0795
5.04372
9.23372
5.68161
5.08834
4.86935
5.10574
157.9
6.79886
6.3008
4.95754
6.64836
6.79963
5.09514
61.5914
5.40314
5.14617
4.90617
6.56973
6.06977
7.09115
6.10293
5.0355
5.0155
4.91497
5.53283
5.85624
5.03547
6.23579
5.33865
4.91629
6.91645
5.20626
6.40612
7.25565
5.14397
5.22644
28.0577
32.9038
5.04692
5.33082
5.56767
4.87511
4.87659
11.3574
6.2298
5.23528
6.42042
83.717
4.97521
4.93858
7.68574
8.98391
4.88899
5.60142
6.10737
5.43025
5.68702
6.20005
13.717
4.88086
4.98974
6.2324
6.21033
146.925
5.36238
8.12943
5.59721
7.28028
15.7717
5.40125
4.88056
24.4778
7.36185
6.36404
9.16725
6.09359
5.06045
4.89296
5.25913
11.3923
5.98888
5.00989
5.38532
4.86716
6.7015
7.11151
6.76518
4.89707
4.99584
4.88487
5.19723
5.66499
22.8167
7.10505
4.9249
5.8857
4.89667
6.71697
8.74658
11.6972
6.76427
6.82306
6.36837
5.08222
8.17743
5.44908
7.66464
4.97689
4.89085
5.29057
4.93659
6.23843
8.91861
5.81911
4.96473
19.7087
6.60006
7.28037
5.04886
4.95307
4.98233
29.4316
5.73687
4.89778
6.23994
18.8859
5.77606
30.2402
5.18239
12.9863
6.55721
17.3747
5.47244
5.08742
4.96408
7.07952
16.4289
4.89548
8.9925
5.66979
5.02986
6.77628
8.60507
49.4076
10.9619
5.88631
18.9256
4.99551
69.2638
11.4244
7.03138
9.40266
5.44489
4.95746
5.60711
5.09932
6.79242
5.39232
6.49536
6.38968
4.98947
6.72096
6.62575
7.66534
5.31982
7.54493
16.1358
5.53976
16.137
5.38644
8.72135
4.92708
6.42042
4.90971
4.95874
4.91612
5.49138
9.06427
5.37874
6.02303
4.86652
6.13402
144.568
6.26312
5.31753
6.30817
14.5333
4.90994
5.56459
7.27394
5.8102
5.43837
5.0693
7.12544
6.21791
13.5384
5.24795
310.872
6.63194
29.2623
6.91843
4.9024
6.09926
5.27444
6.81273
5.0615
4.86462
5.12115
5.49255
5.66121
6.81869
5.34767
8.608
7.24629
4.88441
4.92841
5.5458
4.9668
5.11814
5.15176
5.8424
168.716
5.92021
6.19003
4.91528
15.4844
5.06575
4.87375
4.89735
10.3376
5.482
4.89313
10.8711
4.87281
5.09927
4.87265
4.92768
11.6406
11.1559
8.06406
24.4927
4.92031
4.93582
5.59462
48.7179
4.90231
6.54375
6.57039
12.6204
7.52978
5.80387
5.0726
9.08792
6.32856
5.00892
5.05438
5.52036
6.13209
4.86958
4.94846
7.21982
6.86663
9.60551
4.92166
6.37527
9.05026
25.3467
4.93544
5.27463
4.9428
5.3378
17.0457
5.02766
6.49139
306.649
5.04615
4.92334
26.3093
6.52538
6.79666
7.40403
6.75139
4.97642
5.04247
4.86676
4.89631
127.988
5.01754
11.5109
12.2947
5.04466
6.08625
6.98427
5.14979
5.65324
4.88095
5.53886
7.56071
5.40302
6.07591
4.8588
4.98995
5.00728
6.57853
5.06247
5.48947
9.6642
4.85892
4.97309
6.46901
5.27858
7.11192
5.07264
4.87153
8.12668
6.5377
5.58393
7.29324
4.86016
7.38611
5.84115
12.8374
6.77699
8.90673
12.6004
8.06012
9.24081
6.74515
7.27633
16.2277
22.1911
39.3672
12.3444
8.04537
287.75
5.27232
4.97535
5.16469
8.45689
6.02196
6.14523
5.98219
5.04651
5.7238
5.21117
4.85962
6.43675
4.8608
9.96125
8.73549
5.07371
185.302
5.18678
6.44135
6.8782
8.6435
11.0805
39.7745
85.9905
5.07246
4.91007
6.00864
4.88136
6.16469
6.22798
4.88523
4.94036
5.68767
5.0761
4.85949
4.95051
4.92263
10.4844
4.95452
5.81427
5.00239
4.85877
6.59549
10.3326
8.34007
7.75176
8.72409
4.86545
6.72975
6.97874
7.12381
5.0982
25.3437
4.98262
4.88757
10.7416
5.99301
5.11745
10.1512
94.4473
22.221
6.482
7.15093
4.87276
11.9859
30.0442
6.17111
6.1633
12.5903
6.12634
5.44292
5.90054
9.28253
4.85934
5.86111
7.63962
5.56712
29.1429
8.47979
11.0402
6.62732
8.06892
8.98551
12.1774
7.23879
5.18199
5.22057
6.05604
5.24492
189.341
10.1816
5.70266
5.92445
5.89547
5.62781
5.66529
7.19821
7.10616
5.16077
7.29653
5.43868
6.11349
4.90555
4.92616
10.1718
13.6269
4.86841
4.8751
5.05596
5.73769
4.88458
4.87227
4.92968
5.04562
19.3011
4.8856
5.09021
6.08426
6.19907
4.92794
5.03071
5.02155
4.88558
5.86433
78.7236
6.87966
5.219
87.6065
4.93994
4.86177
11.2286
4.90771
4.94938
5.63643
5.52102
5.67217
4.8777
7.41165
6.63106
5.21994
6.01535
4.96946
4.98073
5.07243
5.10114
5.03818
4.93193
4.98671
7.08802
6.17397
5.94637
5.02592
5.0055
5.03657
7.56622
5.89391
6.51419
27.6732
6.80507
6.15733
6.37276
7.56408
15.6451
19.8425
6.42388
34.7398
6.56658
6.49423
100.615
5.35956
6.68151
5.28225
4.9634
4.86288
6.65318
40.0586
4.988
6.95221
5.19546
5.63781
5.11417
7.74958
5.04174
14.2615
7.211
8.12252
6.96535
5.00691
4.90077
4.91859
5.01917
5.07044
5.31431
7.55573
5.13944
4.88756
4.96913
5.61136
5.05521
6.56446
6.4525
5.28969
5.04071
4.95142
4.8848
247.419
44.914
4.86967
5.22104
4.9748
4.96323
7.7775
6.40498
9.86673
6.63973
6.52956
4.90292
6.11692
4.9423
5.093
5.13731
5.13939
5.22075
4.97574
5.26825
18.6584
9.17571
15.2007
5.23262
217.061
6.09597
6.85528
5.2372
5.57928
6.84679
7.53294
11.9978
21.2612
13.0442
6.55952
5.48485
6.48527
7.22138
6.66238
7.64279
5.50703
7.61424
5.17609
5.03845
4.9556
6.4362
6.43488
7.93576
7.43189
4.88423
6.50977
6.61339
7.12069
17.1369
5.98238
4.88814
5.13627
4.94396
8.30789
4.86922
4.99238
65.9776
7.75074
5.30394
4.89308
4.91526
4.97941
7.08166
10.986
7.27051
10.5161
18.2928
5.02437
4.89482
5.02798
4.97924
4.99354
4.86212
7.79828
10.2235
6.53242
5.09273
4.87665
4.94626
4.86492
6.25979
4.90642
22.9463
4.91374
6.45298
5.83989
5.19175
17.4373
5.80154
5.50359
4.86745
5.01088
5.11334
6.76179
5.1271
25.348
4.91332
4.87949
4.99384
12.3707
6.69833
4.89942
15.2627
15.6171
5.41585
5.80427
5.52943
7.53411
6.30314
60.8032
8.74503
5.74251
4.87332
5.12042
5.07287
4.88902
8.7415
4.9835
5.06969
5.60835
5.64819
5.12576
5.55252
4.93404
11.6525
5.38808
6.17588
5.78722
4.97931
6.6634
7.53413
5.42413
4.97847
7.1998
5.31237
6.43449
6.23872
6.10993
5.32921
4.89922
4.89398
5.66241
6.62603
5.23296
5.46526
10.1288
5.4105
5.55976
6.26445
6.28645
10.6259
4.9741
5.02047
6.49204
5.15334
4.94506
5.12364
5.02593
14.0754
4.88122
4.89976
4.88205
6.91854
4.93446
21.4781
5.25502
5.89659
4.97517
4.8773
8.00342
13.2436
5.36081
14.3888
5.66535
5.88905
11.3182
6.63753
4.98874
4.97278
4.95325
5.13211
5.71012
4.94997
5.18768
4.86443
7.29206
9.49191
9.44831
7.77397
15.0547
5.36338
5.09593
5.82793
4.86188
6.63775
5.17704
4.98348
4.97035
5.23227
5.07532
5.08447
5.19522
20.4662
5.04755
4.95936
29.8553
4.92323
4.99807
9.75578
5.23699
5.02516
4.86731
4.86294
16.2963
4.87734
5.30154
15.7989
4.91781
7.90331
4.98248
6.49346
6.48657
11.1819
126.793
12.0143
5.3953
7.50211
5.16745
68.4311
5.12785
7.82725
6.41488
6.38182
6.30748
6.20799
6.13754
7.09229
6.32181
6.26364
5.94657
5.91536
6.54929
7.81729
6.56968
6.55758
6.05868
6.25389
6.53571
5.95229
9.12437
6.62702
6.54045
6.56276
7.83583
5.87862
9.15883
6.90023
8.26511
6.17674
5.93574
6.55833
6.59853
5.9179
6.63768
6.55641
5.83792
6.3855
7.16426
5.8179
6.1083
6.70436
6.62445
6.73515
7.62364
4.96965
4.90348
6.3052
5.6477
5.28171
4.89396
4.9556
5.72104
4.98548
4.89592
7.53226
5.00914
19.0958
5.788
8.43747
6.19317
5.6541
11.5836
4.9626
4.96128
5.05677
5.61462
9.19546
5.15836
5.66849
7.57329
5.67566
5.68243
4.91391
9.2423
6.51566
6.02675
5.49275
19.4966
4.98096
5.30619
5.40938
6.62906
5.02506
6.78156
89.3533
5.39187
5.10745
9.20569
12.401
4.8792
4.89075
12.9194
13.9436
207.672
4.87868
6.46071
5.83043
5.40101
5.07425
7.91072
5.17327
6.57704
5.78906
6.323
7.16513
6.88052
5.79649
6.40815
5.98679
5.88502
5.91659
6.1534
6.5703
6.66374
6.53639
7.39955
6.65542
8.30145
6.5229
6.60396
6.74882
6.59634
6.55064
9.90114
6.50355
4.95712
7.2718
6.51614
6.35373
5.11008
13.9308
5.2599
4.87017
4.9891
5.41465
5.05215
5.01792
5.1002
5.95909
7.10708
5.1368
4.8834
4.88114
7.7175
5.2825
6.28057
4.89751
4.9531
5.22926
6.21047
4.9331
6.90992
5.21734
4.96608
5.02264
4.94055
5.36694
5.50637
5.18382
6.08753
5.49232
5.04694
5.18907
5.07632
5.22194
4.96797
4.94498
5.66235
5.68747
5.20157
4.92889
4.98832
4.89924
11.0116
6.50506
10.5465
4.89716
4.95107
7.40083
6.7138
10.171
5.89166
5.11436
5.00746
8.52791
4.87188
6.29074
14.6954
5.00903
10.7363
4.89725
4.95066
5.02386
15.7711
4.86173
5.60531
7.48132
7.17102
7.73514
5.27016
4.8728
8.85308
5.10239
4.87053
4.95544
5.01153
6.46776
4.96129
4.99764
6.11384
4.9594
4.8834
4.89608
4.95799
5.405
6.31482
5.33051
4.96807
4.89954
5.26866
8.01705
4.88301
4.86925
4.89229
10.5237
5.18195
4.97614
5.1361
5.73273
32.1073
5.48123
14.4401
5.14652
5.12247
7.42604
6.72253
5.54612
4.88343
4.96463
4.96625
4.87022
7.28407
5.04454
7.79986
4.90087
4.99165
4.87012
4.89652
4.87847
9.498
5.32013
4.97963
6.4082
7.43797
5.57061
5.34282
15.6304
10.9251
5.10927
5.23153
4.86288
4.86596
5.15926
4.92492
4.98445
4.90294
5.08616
5.06692
4.95175
4.96828
5.10618
4.96526
4.96833
4.89768
5.22007
4.96848
4.99093
4.96796
5.07364
5.031
5.09835
4.97743
5.05082
4.95665
4.86251
4.86356
4.86808
6.70016
4.86849
4.87912
4.90905
4.88597
7.02016
8.75684
7.13637
5.2112
4.90519
4.90454
4.91802
4.90022
5.3982
5.22906
6.50991
4.94285
4.94464
5.00722
7.34472
4.95731
7.41005
7.50629
8.98317
8.79707
4.92343
5.82534
5.26513
5.43536
4.9988
7.94048
4.9296
6.79671
5.03152
5.06834
5.49124
5.07489
5.36072
5.22157
5.23928
5.54001
6.72305
5.90236
5.03266
5.19317
4.88412
5.51954
5.32054
5.1336
6.64776
4.89701
4.88104
4.91056
4.88826
4.86935
5.35991
6.12426
4.9204
5.4134
4.87809
5.03733
4.9656
5.04551
4.89897
5.14021
4.8845
5.71914
5.1663
5.05541
4.87094
6.27962
5.39013
4.87451
4.93407
5.04036
4.86388
4.87415
5.75918
4.90987
4.88479
4.89958
7.11241
4.87366
4.8817
4.87991
5.69385
4.8678
5.96956
4.89196
4.88011
4.88732
5.0816
6.3466
4.88691
7.17795
5.4205
5.3716
4.97743
4.94263
4.90013
4.86841
4.86323
4.91718
5.52695
5.93154
6.0996
9.5458
6.01203
12.8459
6.64294
5.22721
4.99538
4.9265
9.19383
4.98934
5.09704
4.9008
4.86241
8.60132
6.1255
5.81396
4.9658
5.18468
4.91604
6.33902
8.15169
7.25526
5.16372
5.28279
4.98339
5.15641
5.30622
5.24169
4.93484
11.097
5.33472
5.66094
6.0038
5.02842
10.271
7.69897
10.1087
4.98905
5.86565
4.87205
4.91794
4.86293
8.14395
5.11457
5.57159
4.92817
5.74622
5.16491
9.15223
4.9967
4.92805
4.89883
9.13859
4.99894
4.92386
6.33419
4.92277
4.9086
4.95048
6.65906
5.08019
5.0429
8.47336
4.93627
5.08574
7.68631
4.91498
4.96473
4.96828
4.95339
9.07593
7.66957
4.9939
5.07369
4.93836
4.94582
4.97149
5.09962
5.25185
5.23972
4.93802
8.12279
8.17449
5.02571
5.76787
5.24379
4.87799
5.03556
4.91707
8.0607
4.97349
4.88724
4.87064
5.11189
5.08662
6.54535
6.02793
4.99063
4.86017
6.45633
4.9242
4.93419
7.35241
9.19129
5.41897
5.1804
5.44793
8.17091
5.17476
7.86482
7.16919
4.90877
5.61975
6.03956
6.24637
5.03024
4.9819
4.8908
4.87246
4.85989
4.96973
5.00012
5.94683
5.45514
4.98518
4.87112
4.8655
4.88172
5.18901
4.93708
4.86125
8.07758
5.18039
5.27009
9.51017
8.11635
4.88263
5.74909
6.46356
6.33015
8.25417
5.18043
7.17864
8.79668
5.27489
6.02244
6.58453
5.02839
4.86628
4.8635
6.23877
8.5185
9.6109
4.86121
8.10121
4.86101
8.69108
6.87632
4.8815
4.9181
4.87699
4.90506
7.49649
7.06824
5.405
5.44673
7.27397
5.66576
5.64156
6.79751
5.85786
4.9517
5.26455
9.58019
5.13637
5.27161
12.1848
4.95887
4.90766
5.47112
7.51043
7.83747
5.51768
6.41479
7.42319
7.77109
9.48935
5.50343
5.76751
5.20874
4.86266
4.85994
6.20061
4.97309
5.48354
4.86121
7.3939
6.98484
5.84456
5.22401
5.46207
11.217
8.91297
4.86069
7.69743
4.87178
9.95657
4.94717
5.89178
4.90709
4.95587
6.58103
6.21919
8.09549
6.56947
7.23765
4.94976
8.45113
5.04522
5.9019
6.83411
4.88156
4.89073
5.29023
5.87419
8.65864
8.53979
8.88244
8.34093
8.89603
6.49832
5.59533
4.86762
4.86143
6.38679
5.57638
4.87384
7.3802
4.97178
4.98504
5.03615
5.29941
6.90071
5.47842
5.96246
9.47278
4.86625
10.1063
4.87696
4.94452
4.97566
4.87043
4.8666
10.2915
6.93924
4.96969
5.21415
5.75663
4.86878
4.86275
7.57397
11.511
5.23689
4.88456
5.25103
4.89925
5.34174
5.02731
7.22633
6.85226
8.03754
5.0079
6.10639
4.88
5.02846
6.42831
4.93218
5.02309
5.18249
6.35877
10.4692
4.87668
4.95694
4.93289
5.79173
6.12619
5.03661
5.14136
5.26769
9.8225
4.97372
5.59959
4.8688
4.86062
4.94005
4.96816
4.96812
10.3022
5.08961
6.86919
4.92519
4.89496
4.94794
6.90576
8.09262
9.97592
7.9892
9.78214
9.27055
9.59941
7.7373
4.87418
27.25
13.3716
5.61483
5.2229
7.33519
6.45469
7.54587
4.86683
6.21222
5.54613
5.99317
9.29927
10.2863
8.33844
5.01292
6.66434
4.86517
9.21444
8.40458
4.90849
7.51139
4.87893
4.86908
4.86084
4.87866
6.09791
4.99383
4.87078
11.0481
4.99759
4.91119
20.7774
4.9068
8.4087
6.45647
5.57597
5.73947
4.88002
4.87626
5.19193
6.69394
8.17829
6.20964
7.20459
5.77561
4.86291
4.95688
5.10335
5.70783
7.52297
5.9143
7.69784
4.87349
5.10669
5.30389
4.95417
7.18447
4.87114
4.96065
5.37622
4.87695
4.91069
5.88395
5.0452
5.0913
4.99681
4.93589
7.67313
7.89403
7.03847
5.05559
4.98416
5.00573
5.73732
5.92937
8.20508
13.1454
6.95885
6.87297
6.40283
4.98204
4.88059
4.91057
5.23194
6.66279
8.03558
6.68334
6.46118
6.14557
6.84164
10.6787
4.97201
5.04556
6.89793
4.8851
4.86551
6.41245
11.594
6.38855
7.49103
4.86699
4.96526
7.49742
8.55974
4.88062
5.0074
4.92109
5.01854
6.34116
15.2359
6.04583
5.40382
5.08404
4.94322
4.87698
7.80803
4.92448
8.40737
5.1732
5.09931
6.72821
5.50159
5.01212
17.1537
5.06209
4.94331
5.91184
10.1936
5.01714
14.2707
5.18716
7.5393
4.86823
4.94746
4.92222
6.03701
4.8743
4.91488
5.68574
15.5011
7.03739
4.97177
8.11572
5.02861
5.05985
5.67605
5.02284
4.91611
4.86284
10.9835
4.94508
5.32427
5.68684
280.595
4.94016
5.71702
6.23397
4.98077
5.01499
8.30889
5.3297
5.12518
5.0306
5.11275
5.27799
4.87235
4.89308
4.93317
4.90037
4.89346
10.7737
6.8978
4.88176
5.02509
4.93818
7.73502
8.11431
263.624
6.40105
5.11242
8.34558
4.90895
7.763
4.86061
9.48294
5.21967
4.95637
5.0206
4.92762
12.4877
6.92971
4.86102
4.92483
4.9442
5.07211
4.90896
7.95007
4.88414
4.92062
4.8706
5.03831
5.19721
6.40953
5.01283
4.96501
5.6356
4.87918
5.08563
7.06955
8.83697
5.17126
5.09442
4.89322
5.43444
5.26591
4.93321
6.8983
4.94531
4.86824
5.45791
6.74717
4.8802
14.5928
4.98736
4.91268
4.87042
5.03576
5.85188
9.1058
8.43741
4.89587
5.42482
7.21289
5.04191
23.0239
5.51133
5.06257
4.8748
6.64615
4.88375
5.49495
4.92045
5.51275
5.51597
5.88485
5.09163
15.6481
5.01571
4.88705
4.95176
4.89155
11.0154
9.47224
4.88379
4.95265
5.32689
4.8848
4.86187
4.92152
7.96011
4.93479
4.91199
6.3157
6.76869
6.73887
5.13125
13.8424
9.531
9.11109
5.72198
4.9131
4.86885
11.5958
5.08986
4.89569
5.0371
5.06973
5.37079
4.96214
4.96834
6.39752
6.28739
8.00911
4.97668
26.2759
7.2916
6.33413
5.33664
4.94841
5.67302
14.7173
14.314
5.78086
4.89436
4.96604
7.46255
5.43168
6.38368
14.0912
5.08354
4.92455
6.06848
9.75619
6.83596
4.89391
4.86592
6.32998
5.08834
5.25773
5.82409
4.92871
5.9561
5.04082
4.88967
4.9564
11.8102
21.3058
5.39606
4.88107
5.70587
5.14698
5.75464
4.90034
10.0944
4.93312
4.87563
5.12223
5.25449
4.90059
13.8325
5.56702
4.92081
5.55067
6.30939
4.94623
5.34608
5.60651
4.96699
5.88667
10.3277
4.86049
4.96297
4.97323
5.02989
5.38297
4.91672
4.95296
5.16791
5.01492
4.93642
4.90939
4.99279
4.89841
6.35584
5.51441
13.4943
4.90384
5.2923
12.3839
5.95741
6.24694
4.93288
6.10302
6.8537
4.98798
5.4886
5.45003
5.52312
5.06691
5.47096
5.12104
4.95825
5.05683
9.0614
4.99078
4.90833
4.89164
6.09956
5.02373
5.16512
5.11179
6.57279
5.37384
5.00835
4.98945
5.92983
5.6988
5.55266
4.95622
24.1303
7.26606
55.044
4.85889
5.00414
6.57446
8.61245
4.97097
5.8906
6.90585
5.05047
14.1426
5.06399
4.88938
4.89206
4.94692
4.94069
4.90396
4.95016
4.87414
4.89013
4.85864
5.02201
5.20736
8.0824
4.86287
5.07475
5.07582
8.67098
4.88768
4.91197
5.42561
4.92427
6.89215
7.16705
4.99974
5.2008
4.92352
5.26135
8.04167
4.8879
5.12604
4.92395
8.8449
6.04092
10.6144
5.3531
5.11778
9.89785
4.97675
4.8795
6.67409
4.85864
4.91295
9.36106
4.89145
5.61368
4.99704
5.22653
5.05085
11.7047
5.17363
5.35129
7.0182
4.97605
4.99317
5.05885
6.18396
5.23523
4.87716
5.24822
4.99386
4.9813
4.93915
4.85873
9.5191
5.02103
4.92122
4.92962
5.18337
5.04578
8.29484
4.95326
5.01782
5.21979
5.25539
4.96583
5.73786
6.16472
7.86893
5.06017
5.36387
8.3725
5.19434
5.29722
5.2428
5.25573
5.05166
6.9751
4.91968
4.89647
5.5249
4.85907
5.50563
4.93654
5.19943
5.10104
6.40261
8.85426
4.97844
5.05791
5.15776
6.48055
7.71006
8.53011
11.1886
9.32956
6.05639
5.20821
5.14941
5.12274
5.32546
9.6412
12.0478
4.91379
5.86175
6.17684
4.97523
4.9377
5.00728
4.97836
5.19906
4.85989
8.04553
5.88409
5.04842
7.28676
5.41317
8.3642
9.54172
10.1535
15.8795
6.61918
6.39
5.0205
5.07776
14.0218
4.914
5.36961
5.04839
4.99821
5.06863
4.9657
5.52674
11.5122
5.20063
6.25964
6.63644
4.99502
8.57094
5.62902
4.95747
5.53091
6.13381
5.02294
9.71719
6.5203
5.98272
6.64386
5.07971
6.85429
5.14676
5.04295
5.46124
4.97237
4.93274
5.29628
5.45197
8.50428
8.4942
7.43398
23.2419
4.88078
10.4252
4.95064
5.11884
5.15966
7.71608
4.99153
5.77326
4.94822
6.49146
5.98981
131.964
6.22294
5.20703
5.0278
4.86185
6.72518
6.8966
6.56491
5.65547
5.21216
5.89476
10.2164
5.16018
4.87785
5.04169
4.92845
4.97004
8.67483
5.87293
8.14976
5.91996
5.00106
5.12844
5.06006
5.08181
4.87607
15.2295
5.51731
4.97181
4.87969
5.03454
5.90539
7.54125
4.90021
5.20568
4.91606
4.97732
4.99373
5.22134
4.92068
4.87316
10.8809
5.94841
5.2624
7.8927
5.09042
4.93659
4.90635
4.89129
5.01251
5.12158
4.88536
4.88699
5.18558
15.297
5.27484
4.9179
6.86862
12.5759
6.56129
5.9549
5.1164
7.92875
4.92541
5.58749
5.98482
6.11481
9.89399
6.56455
9.01475
5.03816
4.87336
7.72865
5.42778
4.97316
16.0917
5.0831
4.89958
4.91515
6.6302
19.8944
7.49094
5.45417
5.00069
5.76117
5.1104
7.34316
6.92341
5.35139
4.95398
4.98837
12.1302
4.91584
4.89336
15.1469
6.0539
6.44574
8.12693
7.36228
4.86679
5.60164
4.93948
4.93734
6.68898
5.10808
8.76889
5.95474
6.30035
5.65028
5.72276
4.94841
4.87668
6.42535
4.86282
4.87801
4.92467
4.90173
4.96266
4.92088
4.89086
4.97819
5.62088
24.558
15.125
4.90072
4.88291
4.93536
4.92881
4.94238
5.60203
7.78123
11.0448
4.99166
4.91379
4.96858
5.2945
6.41407
6.84453
6.7147
5.32052
9.08113
5.52623
5.16519
23.627
15.6864
4.86586
4.95222
4.85979
7.05356
5.75881
19.2394
6.57848
5.69665
6.28871
8.01759
16.3353
5.06675
7.71044
5.53843
7.39678
25.1458
14.7762
4.93508
4.94906
4.94605
4.99013
4.9579
4.96665
7.86656
12.3371
7.16019
6.61373
6.4867
5.28503
5.54378
5.73469
4.92843
6.88357
6.31453
6.31943
7.97654
6.91669
8.57227
10.8742
12.6166
6.17348
12.9692
4.87389
4.88411
10.3789
5.73729
5.24301
5.92332
7.12354
6.48881
5.14361
14.8769
6.60017
8.84445
5.32853
7.13141
8.55963
7.9584
4.91309
10.052
7.25494
5.63031
10.0179
8.21604
7.27896
4.96863
12.4901
5.1279
5.24451
6.33092
9.1277
8.32902
10.4021
8.61118
4.99461
5.00545
4.87698
5.65323
10.8489
4.98733
7.72832
11.8578
5.03911
4.95936
4.97495
5.13409
8.28799
4.88049
6.86605
5.17965
5.04695
5.33737
5.17651
8.41932
7.81249
5.15184
7.1496
9.89035
5.69664
9.57967
15.7563
8.94495
5.13222
5.32313
22.1255
16.5566
5.00572
8.50567
4.90953
7.5428
4.97727
7.58463
10.6241
7.86669
7.48938
12.2111
7.03818
6.18711
44.3004
6.77929
5.17735
5.27784
5.09899
6.81673
7.71214
13.2779
14.0259
8.50577
6.21277
10.3862
4.86654
4.92703
6.53467
5.12186
13.087
5.02675
16.6903
54.1943
5.26095
8.83646
7.06381
6.7827
7.07668
4.8804
6.13833
161.011
4.93103
8.14551
7.06786
6.72569
6.99206
4.97059
5.03756
4.96984
5.07652
4.99543
7.05148
10.334
4.91625
8.88633
5.08568
5.16643
10.8274
5.44755
6.21118
6.33187
7.24431
6.14696
5.95167
7.01918
5.3207
4.96089
6.24172
6.49812
6.58502
5.33491
7.23334
16.3873
5.53773
6.53154
6.81322
5.71693
13.6259
7.80331
5.79839
8.26805
4.94664
6.57795
12.4645
4.87022
5.99362
4.96229
4.98141
7.07258
4.95312
8.26151
4.87908
5.07147
5.58155
5.02954
4.91115
6.62748
4.89646
12.573
7.43145
6.58239
5.65845
15.252
16.0769
5.11024
6.48149
8.46646
5.94507
7.19056
6.01918
9.25293
29.382
162.794
5.46137
4.89109
4.95909
6.04874
5.01476
5.97105
32.3837
5.59743
8.93119
58.3613
6.05967
6.65903
6.7017
5.19614
5.34918
6.6042
5.20877
6.51113
5.34489
4.89119
14.3639
5.46755
6.60711
6.63879
5.19257
5.199
12.9982
6.49068
6.241
12.6394
14.7963
5.50115
5.14936
8.62182
5.2871
5.26165
4.87541
7.0542
8.66414
11.1145
8.82912
6.92415
5.47157
4.89942
5.01234
4.89102
6.08794
4.86828
5.15044
4.98075
7.54441
8.46539
5.33976
5.95687
5.03223
6.43723
10.5727
4.87451
6.05202
4.862
4.93726
4.86652
4.93282
7.20479
4.911
5.43524
5.00995
5.06308
6.29339
6.95391
10.4935
8.89575
9.96038
7.4546
5.26986
6.78124
4.97439
6.63456
4.88428
4.99665
5.02807
13.9627
68.9462
10.7775
5.69501
6.51793
4.87125
5.20148
4.91416
12.2478
5.24151
5.80593
5.57401
5.49688
5.44397
6.31448
5.14347
5.00856
4.9753
6.19748
5.59249
7.7318
18.3077
7.0124
6.58456
4.91956
5.88552
5.70952
5.39488
10.4444
27.8681
5.59961
17.4217
7.54408
4.9694
7.22879
5.35375
5.14822
8.92704
6.30976
4.91215
4.92826
4.91018
4.9377
7.38473
7.18497
4.90687
6.17429
6.89719
4.90582
5.19243
6.2935
6.42571
7.44237
11.5301
5.06326
6.70162
6.79372
6.28949
17.7261
6.34635
5.63377
7.03352
5.36317
5.39429
5.76661
5.60265
5.75099
4.90085
6.98578
5.17109
4.98095
4.9896
9.89329
4.88775
69.5842
17.4832
20.5674
6.9866
22.0444
6.77313
34.4508
27.8368
23.2879
28.6298
9.38212
4.91064
6.07697
5.70049
5.10495
14.7579
4.89848
5.073
5.17676
16.3002
5.7186
20.2841
5.54268
4.94094
41.2209
10.7536
4.86489
4.95676
4.89044
5.00252
4.90856
11.608
18.2731
6.91261
5.34754
6.21963
5.88245
4.93141
5.22649
4.91379
7.61627
15.9993
6.27106
5.05799
7.0274
5.00876
12.2541
5.78631
5.55289
14.9924
8.55799
5.29468
5.18806
5.22867
5.69448
5.28529
5.29021
5.24422
5.01817
8.14084
6.05911
7.93169
7.0018
5.11003
6.68876
5.16435
4.86626
6.09292
5.96346
5.68222
5.06521
4.90477
4.8981
4.90234
4.8842
4.97911
5.02052
6.39726
5.26541
6.2071
10.6006
32.7845
4.87934
8.18922
5.03164
12.1673
4.88974
4.94541
5.04557
5.11857
5.95079
7.99091
4.89229
5.52523
5.45141
5.79507
5.88976
5.66859
4.91315
5.11953
5.45567
5.19468
5.91699
8.04514
7.32359
4.90774
4.86718
5.01084
4.86077
5.11132
4.87835
5.56357
4.87475
4.87279
4.88415
5.03829
5.12134
5.36891
11.3851
5.09738
6.99847
9.50533
13.4717
236.432
4.93927
6.25187
5.48463
7.17529
7.02197
4.86135
6.62696
5.06603
6.35315
6.38384
5.31329
8.6211
7.38745
5.9349
4.86297
7.01906
9.52481
8.26497
5.43848
5.59548
5.56752
41.2219
5.0436
11.364
4.98755
5.52143
4.95266
5.04167
4.90126
5.14307
6.26815
16.1404
7.64021
9.76465
6.98602
6.61117
4.89263
13.6665
5.00398
5.98444
5.62337
4.8759
4.97696
4.9853
5.91463
6.09778
6.32936
4.92131
5.17134
6.35213
4.87288
4.86493
4.92258
5.86277
6.88501
6.38214
4.95628
5.72966
5.33853
5.13273
17.9621
4.98149
6.74694
4.87909
5.54998
4.99192
6.73136
6.68704
14.8243
5.56797
4.94877
5.18095
11.3018
6.98455
7.95979
10.7393
8.50797
5.10036
5.20527
6.28352
4.99243
5.29298
7.32615
4.87575
4.86968
4.93261
6.63349
4.90522
4.8911
5.0926
4.97401
12.816
15.4604
7.39243
6.31065
5.35827
7.03498
7.22191
6.27673
5.17533
5.61208
5.51415
4.8736
5.32623
7.0038
4.90272
5.89478
4.98846
5.72917
4.93103
6.62226
6.43267
6.44117
5.06747
4.91835
5.13789
6.34411
9.52032
4.87021
5.56911
7.60329
23.9894
4.91512
5.2695
5.48658
5.01915
6.5079
5.50756
4.87812
4.9019
4.87207
4.87378
5.31553
4.99482
5.69778
8.10628
5.12844
9.13324
7.01792
5.1423
5.05428
6.64485
5.1622
6.36396
6.17502
7.06889
8.29838
6.3251
6.42006
9.38432
9.08563
5.82084
4.92809
5.31841
7.30018
5.06115
5.02619
6.62889
6.68788
4.91619
9.38766
6.07891
5.50239
4.88286
5.22235
5.20767
5.28671
4.92969
4.90667
73.1313
6.06865
5.27429
5.56167
11.1105
5.02895
4.86295
5.15787
5.12081
8.75942
7.89692
6.19916
5.74901
5.1962
9.31888
4.86999
4.90758
6.06221
5.51982
4.87217
5.3808
4.8635
4.94038
4.93348
4.92856
6.67476
5.67145
5.16915
60.2128
5.26877
5.04367
8.1178
5.81692
4.97997
5.38417
6.24169
5.11308
9.19932
8.96246
5.55522
5.20437
9.24125
4.93343
12.0723
5.39775
8.29151
4.86495
4.86122
6.85487
5.42385
5.38036
5.26262
5.056
6.5397
4.89538
7.67872
4.86041
5.91771
4.86996
6.65681
5.24804
5.23902
7.52171
5.09919
7.11531
5.04231
5.11509
5.47603
5.08305
5.04318
5.22984
4.95823
4.9921
5.3007
4.96073
4.9853
5.16779
4.91119
6.33648
6.89806
4.89572
5.02288
4.96095
4.94886
5.43909
15.4336
256.298
20.7037
7.44143
5.16783
7.2054
6.5019
5.09017
6.18251
113.627
4.90382
56.9861
7.23078
5.21084
5.65082
4.88317
6.01357
4.92651
4.91772
11.9301
6.01755
4.99991
4.93565
7.16862
4.8763
5.08098
4.88338
8.45478
5.52414
4.87332
4.88687
6.24702
4.87308
4.8589
5.04704
5.22519
5.46323
4.93067
9.51154
5.19326
5.61797
9.68607
7.47091
5.67192
5.03534
4.87089
58.989
5.26225
7.19453
56.3136
22.0338
4.97731
4.93894
4.94103
4.87282
6.70893
6.2609
7.25817
4.95006
4.93779
12.1658
5.25886
6.29629
5.01424
4.86003
4.89209
5.92619
4.92904
4.92908
16.0054
100.139
4.98704
7.11126
4.86384
17.0203
6.48951
6.52845
14.8544
4.88566
7.43789
7.48431
8.07183
7.60154
9.88046
10.7579
9.90363
10.6807
7.42791
11.3961
29.3685
10.816
11.0248
11.7349
11.4054
31.8214
11.0593
9.41574
15.6871
12.3313
14.1655
15.6025
26.0757
34.8928
14.7287
20.5703
22.93
14.4236
11.7053
18.0236
15.4933
16.5462
19.773
9.78007
11.0519
15.051
9.50436
7.42581
10.7288
10.7156
9.66838
11.3211
15.3074
8.52968
7.36388
7.35035
12.2338
8.4108
8.9051
14.7547
9.16279
8.61293
7.47176
7.46122
9.23594
8.95363
7.67063