/*--------------------------------*- C++ -*----------------------------------*\
| =========                 |                                                 |
| \\      /  F ield         | OpenFOAM: The Open Source CFD Toolbox           |
|  \\    /   O peration     | Version:  v1912                                 |
|   \\  /    A nd           | Website:  www.openfoam.com                      |
|    \\/     M anipulation  |                                                 |
\*---------------------------------------------------------------------------*/
FoamFile
{
    version     2.0;
    format      ascii;
    class       volScalarField;
    location    "0.02";
    object      k;
}
// * * * * * * * * * * * * * * * * * * * * * * * * * * * * * * * * * * * * * //

dimensions      [0 2 -2 0 0 0 0];


internalField   nonuniform List<scalar> 
5794
(
0.23585
0.212717
0.301176
0.302251
0.240947
0.221138
0.232808
0.23233
0.235262
0.240032
0.218292
0.217667
0.213259
0.234312
0.216123
0.216067
0.417227
0.228607
0.217438
0.213798
3.5875
0.236084
0.22519
0.219846
0.22062
1.27896
0.303857
0.228164
0.236962
0.262165
0.220167
0.244455
0.223008
0.21997
0.219473
0.221481
0.243615
0.222986
0.220276
0.222992
0.22172
0.223531
0.215237
0.427215
0.216518
0.222094
0.237866
0.222752
0.230623
0.218362
0.213855
0.23204
0.919195
0.253777
0.160565
0.218078
0.260754
0.229142
0.215149
2.08349
0.307319
0.225485
0.217113
0.228247
0.217099
0.215073
0.226325
0.636796
0.258854
0.208349
0.217079
0.229871
0.614122
0.226052
0.238716
0.251939
0.172128
0.873552
0.368189
0.161888
0.302274
0.227985
0.217469
0.216575
0.218471
0.219232
0.306141
0.190648
0.247555
0.266408
0.212096
0.318475
0.233586
0.215891
0.245674
0.221788
0.209726
0.219899
0.292721
0.304477
0.912822
0.345628
0.214458
0.219992
0.24912
0.215685
0.211059
0.210114
0.232959
0.330149
0.230456
0.218611
1.19886
0.215074
0.221509
0.21066
0.224004
0.226177
0.308335
0.421484
0.218317
0.215208
0.235821
0.237998
0.220477
0.220299
0.277743
0.216994
0.223739
0.210461
0.220413
0.216676
0.309114
0.703431
0.216105
0.216587
0.209757
0.221825
0.221732
0.216381
0.250914
0.239847
0.21788
0.232921
0.233655
0.277945
0.25808
0.225005
0.231543
0.271928
0.23625
0.219294
0.215596
0.275821
0.293573
0.238259
0.231581
0.219808
0.222333
0.236298
0.243021
0.233742
0.228662
0.234777
0.238374
0.239277
0.232228
0.22954
0.23564
0.219995
0.232983
0.253517
0.224866
0.220536
0.223452
0.229223
0.224581
0.224932
0.228731
0.239706
0.225501
0.239778
0.213633
0.216204
0.217547
0.318529
0.269658
0.221565
0.242035
0.265696
0.218045
0.248097
0.232889
0.231102
0.215431
0.223881
0.225502
0.229834
0.236714
0.239762
0.227351
0.24267
0.226053
0.224161
0.245073
0.228239
0.229429
0.217161
0.250662
0.273779
0.286477
0.284907
0.220609
0.220188
0.219948
0.221572
0.224389
0.303605
0.216311
0.215412
0.303606
0.22862
0.2209
0.239163
0.236382
0.26465
0.208019
0.22193
0.211035
0.218495
0.267723
0.264656
0.253172
0.243784
0.245497
0.236642
0.250136
0.215713
0.231241
0.360701
0.250896
0.218087
0.248211
0.271427
0.279373
0.227397
0.217441
0.229152
0.183141
0.222858
0.308513
0.215225
0.326816
0.213333
0.257112
0.26205
0.226677
0.225356
0.214702
0.224634
0.214177
0.220025
0.219625
0.213485
0.216396
0.244206
0.2706
0.216733
0.2337
0.216348
0.225185
0.215999
0.255333
0.224497
0.761977
0.217572
0.246751
0.221635
0.219152
0.246903
0.224834
0.216613
0.232086
0.231721
0.232948
0.250599
0.411415
0.288572
0.233055
0.218631
0.244993
0.244937
0.234179
0.219639
0.265442
0.922446
0.252211
0.250956
0.255766
0.215138
0.214798
1.21395
0.281632
0.253067
0.377216
0.214096
0.219075
0.261693
0.218977
0.22976
0.218318
0.228592
0.260269
0.215107
0.346349
0.326419
0.213785
0.22255
0.232006
0.271638
0.261539
0.248752
0.241449
0.235725
0.215376
0.217717
0.217823
0.235106
0.230275
0.232945
0.239814
0.227721
0.221655
0.230917
0.257253
0.248784
0.245639
0.227564
0.233816
0.217963
0.21899
0.213326
0.239903
0.219205
0.22461
0.207921
0.210472
0.233191
0.24114
0.227544
0.226243
0.290444
0.222459
0.24365
0.220005
0.335395
0.244013
0.236102
0.236206
0.234929
0.216712
0.223991
0.212188
0.218848
0.219115
0.218797
0.237531
0.216944
0.245012
0.219183
0.220329
0.207274
0.219604
0.226411
0.215625
0.234504
0.221064
0.312324
0.251291
0.214523
0.248213
0.218752
0.32991
0.221223
0.219797
0.219918
0.22467
0.217753
0.218373
0.229564
0.226703
0.250973
0.208915
0.218497
0.23165
0.225148
0.228731
0.62864
0.219947
0.220505
0.217602
0.217836
0.235509
0.222099
0.228962
0.217673
1.03423
0.230486
0.215333
0.211533
0.21691
0.268128
0.217751
0.243103
0.215744
0.236391
0.210036
0.307518
0.243118
0.208005
0.283914
0.21667
0.214311
0.22347
0.22961
0.227436
0.227912
0.21506
0.215838
0.235052
0.230636
0.245617
0.249208
2.56538
0.22041
0.22749
0.233257
0.2268
0.224633
0.223398
0.222906
0.332415
0.227783
0.231837
0.216348
0.211241
0.227984
0.215938
0.927932
0.399208
0.247168
0.214269
3.63364
0.233421
0.237282
0.208749
0.215705
0.227733
0.318994
0.247811
0.242382
0.229806
1.40544
0.22023
0.299127
0.211096
0.244569
0.255603
0.215805
0.306767
0.172698
0.253869
0.21772
0.215679
0.220726
0.22992
0.30295
0.223345
0.351814
0.228627
1.38907
0.237044
0.210675
0.214304
0.214726
0.215861
0.270286
0.215126
0.29097
0.264523
0.21796
0.263292
0.25249
0.232827
1.23925
0.218262
0.238674
0.217547
0.215047
0.216887
0.251046
0.259302
0.240713
0.218791
0.238423
0.232613
0.258235
0.228225
0.21814
0.215107
0.224774
0.218981
0.230814
0.213327
0.215301
0.242032
0.222196
0.21418
0.243439
0.231498
0.25269
0.22009
0.246757
0.223196
0.213992
0.237681
0.303703
0.231837
0.217008
0.23467
2.75712
0.20177
0.241806
0.215752
0.217797
0.219933
0.280001
0.216738
0.212164
0.217019
0.235247
3.90611
0.211834
0.254196
0.219429
0.215504
0.262464
0.229392
0.213907
0.239504
0.219518
0.215941
0.223457
0.32504
0.237935
0.218533
2.71909
0.232765
0.215047
0.285044
0.925066
0.246127
0.219971
0.22172
0.245394
0.23133
0.217821
0.247533
0.253106
0.215065
0.291479
0.268232
0.226133
0.266092
0.474929
0.262618
0.253128
0.238329
0.237295
0.236932
0.238283
0.29852
0.225572
0.24812
0.235778
0.250462
0.215047
0.223173
0.32393
0.214343
0.215102
0.226794
0.216518
0.228499
0.257602
0.216768
0.213842
0.316479
0.216288
0.219666
0.219115
0.282957
0.234079
0.219866
0.214556
0.209903
1.91087
0.243153
0.170775
0.218196
0.266233
0.270519
0.222241
0.951102
0.226413
0.217671
0.216243
0.205444
0.232426
0.268324
0.198336
0.22043
0.219623
0.216047
0.217723
0.242036
0.220333
0.252955
0.209449
0.213588
0.265027
0.224202
0.208306
0.280464
0.222887
0.211092
0.678979
0.574111
0.214319
0.22909
0.236095
0.215332
0.215527
0.369006
0.21077
0.224912
0.253708
1.04252
0.218521
0.214875
0.238302
0.295624
0.216062
0.221826
0.237784
0.214246
0.238655
0.25417
0.369335
0.215835
0.219075
0.211696
0.236195
1.45089
0.221715
0.288405
0.228772
0.262607
0.415385
0.219618
0.215316
0.530584
0.28047
0.244657
0.328289
0.24469
0.218508
0.21551
0.227046
0.377848
0.247496
0.214255
0.230882
0.215124
0.257835
0.216096
0.268016
0.216306
0.219278
0.215372
0.225454
0.237385
0.588753
0.277256
0.216596
0.241071
0.21598
0.216246
0.252865
0.339404
0.236688
0.206562
0.199964
0.220858
0.298334
0.228991
0.277789
0.212549
0.216113
0.213382
0.216921
0.254056
0.323388
0.243416
0.217502
0.426456
0.244247
0.28086
0.220796
0.217948
0.218734
0.696143
0.214308
0.216338
0.255111
0.452728
0.239319
0.554288
0.219024
0.321435
0.255898
0.482781
0.22534
0.221994
0.217703
0.277694
0.468936
0.214855
0.314138
0.228555
0.21136
0.199612
0.243028
0.747955
0.278233
0.236668
0.49002
0.214059
1.02994
0.338223
0.25678
0.294057
0.232596
0.210952
0.230568
0.218831
0.267569
0.219838
0.251758
0.255273
0.21909
0.267815
0.262278
0.281677
0.223573
0.277339
0.44529
0.224982
0.385756
0.220146
0.303308
0.213497
0.255542
0.216689
0.218156
0.215911
0.23337
0.312843
0.229725
0.242706
0.215262
0.251829
1.66569
0.242247
0.222587
0.255991
0.438667
0.216632
0.235692
0.28258
0.239336
0.229826
0.220452
0.277565
0.252353
0.425218
0.214719
2.87027
0.242413
0.689445
0.261745
0.214858
0.250784
0.227361
0.260387
0.221168
0.215119
0.209998
0.214439
0.238348
0.270437
0.229945
0.287477
0.260474
0.215929
0.2179
0.235411
0.218188
0.222348
0.214818
0.227866
1.91303
0.237062
0.249239
0.213718
0.374873
0.22137
0.215458
0.215409
0.346553
0.229664
0.214832
0.326912
0.215575
0.222456
0.215335
0.217277
0.354482
0.301076
0.215985
0.453407
0.214907
0.217288
0.236922
0.849921
0.215321
0.263531
0.259738
0.357222
0.288889
0.238028
0.219837
0.317987
0.252254
0.21629
0.220994
0.231905
0.249089
0.215466
0.215582
0.281173
0.263126
0.300308
0.216578
0.257178
0.325641
0.635877
0.215407
0.227531
0.217705
0.229509
0.396535
0.219612
0.253089
3.12278
0.220786
0.217094
0.643997
0.254048
0.264904
0.212452
0.269556
0.210507
0.224224
0.21523
0.21628
1.40135
0.217817
0.307212
0.344652
0.220711
0.248613
0.266359
0.220095
0.237011
0.215825
0.23489
0.273476
0.223545
0.245352
0.215133
0.219082
0.21853
0.261423
0.22125
0.225313
0.313799
0.215141
0.218702
0.256424
0.227758
0.271813
0.209505
0.215272
0.301
0.253406
0.22513
0.266113
0.215176
0.282435
0.2406
0.401619
0.269567
0.23044
0.291239
0.258575
0.247763
0.226933
0.200601
0.410112
0.488972
0.742098
0.269962
0.199987
1.72463
0.227001
0.218693
0.206594
0.277501
0.215167
0.252597
0.244724
0.215883
0.23087
0.225382
0.215139
0.260302
0.215147
0.256846
0.295609
0.22163
1.90284
0.214902
0.239336
0.272601
0.263176
0.329267
0.673613
1.25777
0.221072
0.215951
0.247859
0.215765
0.196273
0.203367
0.215944
0.217556
0.23915
0.221601
0.215087
0.215395
0.216699
0.327144
0.218074
0.235733
0.219472
0.215135
0.24378
0.314022
0.252904
0.254695
0.263736
0.21534
0.188545
0.273214
0.273652
0.201965
0.555097
0.218634
0.214749
0.318062
0.247637
0.222908
0.31295
1.22624
0.461237
0.26183
0.244084
0.215551
0.330031
0.613758
0.249527
0.245116
0.390254
0.239587
0.22065
0.242334
0.297258
0.215153
0.243545
0.257151
0.236037
0.558006
0.237033
0.28491
0.197843
0.305257
0.232077
0.281735
0.200975
0.220227
0.213549
0.233342
0.221217
1.97289
0.305873
0.237145
0.244183
0.238564
0.234875
0.233861
0.253763
0.232164
0.222605
0.270803
0.231836
0.25158
0.215153
0.213748
0.321282
0.408733
0.215397
0.215276
0.221076
0.240829
0.213874
0.215538
0.217244
0.220282
0.485194
0.21549
0.218123
0.25034
0.250428
0.21323
0.220392
0.220116
0.215921
0.242022
1.11382
0.267637
0.225439
1.17976
0.217526
0.215094
0.322186
0.216538
0.217874
0.227017
0.22566
0.231087
0.215723
0.262832
0.254214
0.224966
0.245994
0.218474
0.21868
0.221632
0.222511
0.220622
0.217305
0.218955
0.277674
0.205371
0.246792
0.220114
0.21828
0.220493
0.290546
0.24449
0.196802
0.58627
0.216528
0.218371
0.258578
0.246296
0.412362
0.475885
0.198574
0.668597
0.197029
0.196948
1.27217
0.227084
0.255787
0.227973
0.218346
0.215165
0.23641
0.656939
0.219039
0.272786
0.225045
0.233773
0.222863
0.255044
0.220699
0.363136
0.276989
0.303223
0.274971
0.219628
0.216405
0.217001
0.22005
0.221576
0.228458
0.287195
0.223442
0.215999
0.215253
0.233967
0.2205
0.250399
0.245711
0.222809
0.221527
0.218087
0.215921
2.71902
0.770558
0.215387
0.226047
0.218546
0.21827
0.284807
0.254837
0.329117
0.22256
0.256718
0.2123
0.251011
0.216951
0.222234
0.22354
0.223608
0.226037
0.218665
0.227417
0.499238
0.306218
0.374285
0.218416
2.11791
0.231346
0.271945
0.220488
0.225237
0.27002
0.262965
0.35796
0.440784
0.379024
0.260843
0.233753
0.259631
0.269682
0.256391
0.291563
0.227309
0.278271
0.224578
0.220618
0.217981
0.235653
0.236936
0.299387
0.285446
0.215296
0.258147
0.222695
0.200298
0.44024
0.241572
0.216007
0.223192
0.217558
0.306232
0.215132
0.218509
1.10163
0.293202
0.22638
0.216185
0.215173
0.218043
0.243591
0.31057
0.210795
0.253067
0.375037
0.220125
0.216182
0.222054
0.218371
0.218876
0.215153
0.29333
0.318629
0.196902
0.222153
0.21675
0.22176
0.216234
0.176678
0.216126
0.522997
0.216785
0.197722
0.243801
0.223396
0.43939
0.240301
0.232416
0.215429
0.209551
0.222838
0.268928
0.223215
0.489313
0.216785
0.215749
0.219127
0.358632
0.226211
0.215955
0.372657
0.441748
0.229714
0.213637
0.232583
0.248171
0.231318
0.864415
0.314154
0.24049
0.215583
0.222891
0.221579
0.21608
0.319461
0.21898
0.221408
0.234281
0.238254
0.222881
0.235664
0.215813
0.364486
0.224533
0.248883
0.24154
0.218752
0.262952
0.28686
0.227315
0.218753
0.280749
0.226971
0.255121
0.252054
0.249232
0.228633
0.216408
0.216244
0.237527
0.260403
0.225872
0.218699
0.327072
0.231148
0.220768
0.253391
0.239919
0.32485
0.218629
0.219987
0.260586
0.207681
0.217545
0.222837
0.220152
0.428857
0.215854
0.216453
0.214099
0.266777
0.217261
0.52419
0.226938
0.245109
0.218642
0.215816
0.275657
0.404006
0.230164
0.37916
0.23446
0.243297
0.337052
0.165322
0.219129
0.21864
0.218037
0.223181
0.239104
0.214118
0.225499
0.215527
0.204044
0.239657
0.255278
0.222657
0.327859
0.229456
0.221954
0.242144
0.215044
0.262634
0.22412
0.2189
0.218523
0.226425
0.221602
0.221745
0.223643
0.503599
0.222232
0.217827
0.597998
0.216954
0.210219
0.319944
0.226345
0.220148
0.214746
0.21527
0.450338
0.215634
0.228339
0.39523
0.216945
0.297364
0.218845
0.188229
0.18839
0.30237
1.62169
0.330961
0.217415
0.269259
0.216453
1.11697
0.22315
0.228406
0.201534
0.200985
0.207865
0.199847
0.224885
0.190191
0.208357
0.198728
0.202844
0.211225
0.210903
0.214688
0.19054
0.190346
0.203418
0.227854
0.194051
0.209561
0.247506
0.209342
0.186688
0.187042
0.191722
0.226057
0.211468
0.221168
0.199127
0.210279
0.209573
0.222236
0.212035
0.209171
0.200855
0.19908
0.215079
0.198295
0.213477
0.214625
0.215077
0.208534
0.206931
0.214175
0.223986
0.216752
0.215438
0.243671
0.227302
0.22678
0.21622
0.217872
0.238647
0.218965
0.216259
0.247692
0.219672
0.451822
0.242398
0.306981
0.253444
0.235808
0.3806
0.218178
0.218212
0.221106
0.237454
0.259184
0.224174
0.233788
0.285485
0.239406
0.237702
0.216675
0.293818
0.252813
0.248743
0.233773
0.462334
0.218837
0.229465
0.232544
0.25617
0.219816
0.265621
1.15797
0.230851
0.222593
0.274185
0.394497
0.216155
0.217161
0.357485
0.362866
2.39232
0.215763
0.216462
0.210792
0.231331
0.2214
0.219456
0.22237
0.262628
0.22007
0.198013
0.191232
0.213985
0.220179
0.197756
0.204956
0.216892
0.217647
0.211812
0.229279
0.212972
0.204398
0.221467
0.206914
0.222433
0.20958
0.186813
0.190007
0.186653
0.199366
0.275014
0.19858
0.218139
0.282164
0.168255
0.24995
0.222721
0.362522
0.227131
0.215313
0.214996
0.23003
0.220734
0.219845
0.222147
0.244507
0.203338
0.22317
0.215209
0.215271
0.293772
0.22651
0.252399
0.215692
0.217948
0.225318
0.25045
0.217316
0.255861
0.222733
0.218388
0.216442
0.213627
0.229919
0.231416
0.224963
0.250596
0.230869
0.220324
0.214641
0.221001
0.225878
0.21833
0.217741
0.238849
0.227052
0.223484
0.217313
0.219056
0.216299
0.320548
0.255399
0.237466
0.216337
0.217981
0.286582
0.165207
0.314628
0.245111
0.222928
0.219518
0.221911
0.21554
0.255595
0.437218
0.219687
0.316885
0.21634
0.217304
0.218303
0.436023
0.215034
0.237009
0.205966
0.197654
0.209507
0.22623
0.215566
0.312846
0.22217
0.215507
0.215545
0.219765
0.261164
0.218328
0.219334
0.246404
0.218223
0.215886
0.21628
0.218275
0.229738
0.255904
0.217024
0.218566
0.216399
0.227181
0.212406
0.215927
0.215481
0.216172
0.356411
0.224997
0.218674
0.223506
0.239899
0.561757
0.230798
0.313223
0.22378
0.223068
0.20749
0.266458
0.235178
0.215902
0.218322
0.218349
0.215493
0.20909
0.214008
0.287009
0.21645
0.218322
0.215437
0.216041
0.215756
0.255712
0.22907
0.218813
0.262033
0.210764
0.236465
0.229774
0.415209
0.360864
0.222741
0.226354
0.21525
0.215352
0.223368
0.217091
0.218904
0.216428
0.221793
0.221349
0.217979
0.218474
0.222628
0.218379
0.218477
0.216338
0.22474
0.218479
0.219146
0.218463
0.221664
0.220324
0.222405
0.218678
0.220698
0.218066
0.215286
0.215441
0.216187
0.26239
0.215479
0.216039
0.216857
0.216048
0.193595
0.229425
0.265665
0.225417
0.216596
0.216495
0.216955
0.216388
0.230745
0.225438
0.25344
0.217798
0.217795
0.219833
0.281551
0.218146
0.285132
0.215724
0.308836
0.312355
0.21709
0.243235
0.225487
0.230808
0.219045
0.216151
0.217283
0.223726
0.220471
0.22147
0.234499
0.221404
0.230688
0.225939
0.226511
0.233173
0.267031
0.24436
0.220305
0.225169
0.216925
0.234401
0.228674
0.222542
0.264161
0.216665
0.216173
0.216648
0.216849
0.215487
0.229943
0.251159
0.217041
0.230188
0.216648
0.220431
0.218095
0.220266
0.216139
0.223385
0.215812
0.239081
0.223887
0.221055
0.215576
0.249577
0.230364
0.215699
0.216631
0.220495
0.215312
0.215708
0.238899
0.218412
0.215953
0.218663
0.262423
0.215645
0.215902
0.215834
0.234936
0.215416
0.243657
0.216332
0.215943
0.216097
0.224278
0.252653
0.216326
0.212105
0.230731
0.229141
0.218405
0.217303
0.217492
0.215504
0.215355
0.218265
0.233789
0.242722
0.246947
0.319353
0.245184
0.312004
0.216983
0.226174
0.218858
0.217289
0.239573
0.219146
0.222329
0.216428
0.215351
0.22247
0.247857
0.242538
0.2184
0.225076
0.216889
0.255609
0.255939
0.280971
0.224604
0.227607
0.218915
0.223459
0.227468
0.225625
0.217908
0.264983
0.229361
0.238771
0.244564
0.22028
0.268425
0.24506
0.25521
0.219067
0.2306
0.215794
0.219034
0.215452
0.287667
0.222861
0.236817
0.21727
0.235874
0.223694
0.295834
0.219305
0.217251
0.216385
0.248842
0.219449
0.217154
0.252986
0.217062
0.216695
0.217932
0.241476
0.221832
0.220699
0.221389
0.217495
0.221834
0.263932
0.21687
0.218356
0.218455
0.218031
0.234014
0.283538
0.219092
0.221519
0.217564
0.217784
0.218566
0.222325
0.226805
0.226807
0.217528
0.273176
0.22885
0.220161
0.242277
0.226554
0.215727
0.220464
0.216926
0.210396
0.219709
0.216078
0.215542
0.221584
0.222207
0.256947
0.241635
0.219045
0.215199
0.260024
0.217207
0.21751
0.249819
0.230588
0.230706
0.224279
0.23155
0.219114
0.224857
0.213005
0.273965
0.215932
0.236744
0.249376
0.253128
0.220435
0.218863
0.216125
0.215559
0.215255
0.218652
0.219582
0.244502
0.233048
0.218925
0.215532
0.215352
0.215905
0.226252
0.217642
0.21522
0.300636
0.224913
0.227599
0.251135
0.297118
0.215736
0.239527
0.257398
0.253823
0.220594
0.224398
0.27996
0.277529
0.227519
0.247896
0.26461
0.220079
0.215377
0.215286
0.254225
0.225555
0.245017
0.215221
0.298767
0.21521
0.310701
0.266825
0.21585
0.216434
0.215741
0.216938
0.26892
0.269839
0.231444
0.233187
0.283232
0.238449
0.238846
0.267819
0.245573
0.217961
0.227429
0.258602
0.223644
0.227706
0.268445
0.217644
0.216486
0.233253
0.259427
0.272592
0.234699
0.255495
0.278266
0.259329
0.293548
0.234187
0.242245
0.225071
0.215269
0.215179
0.25564
0.218566
0.233661
0.215209
0.284267
0.271962
0.24239
0.226378
0.233263
0.268524
0.287159
0.2152
0.287059
0.215539
0.26339
0.217807
0.242886
0.216508
0.21808
0.220826
0.251982
0.286434
0.263594
0.276329
0.217937
0.303186
0.220748
0.245818
0.271591
0.215852
0.215297
0.227431
0.243839
0.233871
0.232758
0.230295
0.228881
0.238364
0.262541
0.234123
0.215419
0.215218
0.256293
0.234235
0.215695
0.217024
0.218553
0.218958
0.220463
0.226023
0.272379
0.233891
0.246923
0.241022
0.215369
0.343615
0.215692
0.217772
0.218362
0.215502
0.215389
0.257118
0.271489
0.218497
0.210537
0.219747
0.215654
0.215302
0.21087
0.327712
0.225404
0.215934
0.225546
0.21639
0.229477
0.220114
0.277813
0.263899
0.287944
0.219627
0.25013
0.215799
0.220307
0.256355
0.217389
0.22007
0.224209
0.241873
0.272022
0.215696
0.21813
0.217401
0.242238
0.251691
0.22064
0.223049
0.22678
0.319196
0.218479
0.235154
0.215459
0.215198
0.217604
0.218421
0.218434
0.351526
0.221915
0.266464
0.217148
0.216282
0.217875
0.25462
0.281059
0.254169
0.25332
0.248065
0.247369
0.303802
0.293057
0.215613
0.568482
0.353594
0.230073
0.222794
0.257973
0.248648
0.274166
0.215381
0.253092
0.235706
0.248251
0.296951
0.263037
0.277226
0.21975
0.218958
0.215321
0.314434
0.294047
0.216657
0.281516
0.215845
0.215489
0.215203
0.215709
0.249136
0.219211
0.215522
0.293682
0.219134
0.216706
0.52578
0.216583
0.228902
0.261362
0.233278
0.23868
0.215798
0.215675
0.225127
0.262161
0.288785
0.248398
0.271181
0.242051
0.215167
0.217932
0.221369
0.228619
0.284294
0.242254
0.281874
0.21545
0.222367
0.228241
0.218013
0.27209
0.215412
0.218327
0.229574
0.21622
0.217704
0.245019
0.220685
0.222152
0.219065
0.217501
0.240912
0.294614
0.274707
0.220908
0.218927
0.219559
0.239508
0.234744
0.294404
0.408355
0.273427
0.201695
0.200019
0.21885
0.215826
0.216753
0.226506
0.264744
0.292778
0.257325
0.237028
0.252401
0.271528
0.340153
0.218582
0.220774
0.263319
0.215959
0.215337
0.256128
0.29183
0.25748
0.283063
0.21432
0.218358
0.262779
0.231115
0.21578
0.219615
0.217064
0.219856
0.251741
0.388837
0.247947
0.230041
0.221893
0.217725
0.215702
0.283721
0.217122
0.233156
0.22121
0.222448
0.262273
0.234236
0.219756
0.440987
0.219941
0.217781
0.240534
0.345479
0.219891
0.422745
0.223512
0.273359
0.215437
0.217831
0.217029
0.24835
0.215687
0.216847
0.238809
0.382233
0.275318
0.218527
0.271352
0.220278
0.221127
0.239333
0.22013
0.216865
0.215248
0.286632
0.217842
0.229339
0.238963
2.97608
0.217626
0.239305
0.252154
0.218868
0.219828
0.228036
0.244916
0.217599
0.21385
0.222736
0.224097
0.215559
0.216196
0.217429
0.216413
0.2162
0.358689
0.237285
0.215866
0.22011
0.217549
0.295178
0.285
2.86403
0.254722
0.222052
0.264967
0.216562
0.268005
0.215182
0.333405
0.225819
0.218085
0.219966
0.213465
0.330988
0.261533
0.215205
0.217187
0.217331
0.221662
0.216629
0.296862
0.215933
0.217059
0.215448
0.220291
0.225244
0.255587
0.206049
0.21836
0.237326
0.215774
0.221907
0.26301
0.29065
0.221458
0.22203
0.216213
0.232274
0.226355
0.217413
0.270342
0.217508
0.215447
0.23265
0.244128
0.215797
0.441581
0.219005
0.216748
0.215509
0.22026
0.244474
0.326588
0.226406
0.21627
0.231195
0.269588
0.219628
0.538053
0.234424
0.220581
0.215638
0.255705
0.215923
0.231867
0.217025
0.224414
0.224176
0.245008
0.22204
0.435908
0.205759
0.21602
0.217971
0.216179
0.287246
0.330437
0.215919
0.217966
0.228123
0.215937
0.214993
0.217076
0.255271
0.217475
0.216771
0.255932
0.267271
0.266765
0.22311
0.361896
0.334775
0.326856
0.240828
0.216783
0.215428
0.379422
0.22194
0.216288
0.220553
0.221388
0.23049
0.218269
0.218345
0.257848
0.25061
0.290377
0.218647
0.547917
0.217704
0.194816
0.22926
0.217845
0.238913
0.429826
0.420482
0.233165
0.216245
0.218261
0.284217
0.229368
0.255209
0.424889
0.219245
0.217164
0.250313
0.257573
0.26475
0.216236
0.21536
0.25775
0.222085
0.22728
0.238778
0.217253
0.243449
0.220781
0.216119
0.218139
0.281441
0.453325
0.230512
0.215835
0.238981
0.223801
0.238463
0.216438
0.32892
0.217442
0.21565
0.222903
0.226655
0.21645
0.422059
0.234236
0.217041
0.23569
0.257309
0.217668
0.229437
0.234092
0.218424
0.245384
0.353573
0.215197
0.21832
0.218624
0.220314
0.232485
0.216833
0.217158
0.223479
0.219737
0.2175
0.216712
0.219265
0.216367
0.258292
0.233057
0.32559
0.216509
0.227531
0.397075
0.246975
0.255489
0.217403
0.245197
0.265214
0.21902
0.2295
0.227681
0.230949
0.221486
0.233359
0.207749
0.218242
0.221099
0.318359
0.219006
0.216658
0.216158
0.23974
0.220095
0.218217
0.220936
0.263925
0.229704
0.219621
0.21908
0.238699
0.23917
0.235437
0.218098
0.576452
0.277857
0.832219
0.215142
0.219436
0.263973
0.238975
0.218519
0.233694
0.273153
0.220498
0.421784
0.221163
0.216036
0.216161
0.217815
0.21969
0.217336
0.217326
0.215689
0.215202
0.215135
0.220088
0.225517
0.290688
0.215224
0.221459
0.221659
0.282978
0.216044
0.216792
0.231727
0.217142
0.199547
0.25574
0.219434
0.22493
0.217099
0.226394
0.284525
0.215122
0.222897
0.217146
0.306029
0.248549
0.282969
0.229557
0.222596
0.330964
0.218733
0.215777
0.264664
0.215135
0.216811
0.249958
0.216086
0.235761
0.207415
0.226181
0.218495
0.381996
0.224588
0.22723
0.272356
0.218704
0.218792
0.221081
0.252454
0.226614
0.21571
0.226043
0.219258
0.218911
0.217639
0.215138
0.31842
0.207682
0.217062
0.217336
0.224865
0.220718
0.298266
0.217986
0.219912
0.225335
0.226098
0.218472
0.240848
0.251829
0.214909
0.221155
0.229068
0.297879
0.225339
0.228129
0.226651
0.226967
0.220964
0.272955
0.216963
0.216311
0.234878
0.215148
0.234168
0.21748
0.207352
0.216236
0.259466
0.316405
0.218772
0.220613
0.224113
0.236998
0.293608
0.313821
0.356615
0.317754
0.25029
0.225654
0.223926
0.223058
0.228725
0.320956
0.33733
0.21684
0.24352
0.249337
0.218371
0.217569
0.219654
0.218719
0.224225
0.215174
0.286332
0.239022
0.213989
0.22708
0.231007
0.30682
0.33561
0.319691
0.398396
0.195954
0.190529
0.219832
0.221579
0.365566
0.216846
0.228705
0.220845
0.219381
0.221437
0.218351
0.23479
0.372562
0.224831
0.254883
0.252666
0.219269
0.310994
0.236717
0.218019
0.230708
0.250847
0.220027
0.320542
0.259463
0.247663
0.183104
0.221813
0.269742
0.223032
0.220369
0.231545
0.218548
0.214799
0.224318
0.231642
0.284956
0.278494
0.268586
0.568607
0.21574
0.356193
0.217941
0.221158
0.22396
0.294835
0.219179
0.239938
0.217861
0.205052
0.244004
1.59183
0.244714
0.221989
0.212168
0.215234
0.263375
0.273121
0.264054
0.238593
0.22553
0.245469
0.26867
0.222764
0.21572
0.220646
0.217196
0.218534
0.312671
0.240767
0.30345
0.245999
0.219318
0.217357
0.220664
0.221854
0.21568
0.438869
0.230417
0.218556
0.215784
0.220491
0.245016
0.273748
0.216419
0.225568
0.216902
0.218715
0.219257
0.22563
0.216961
0.215503
0.277612
0.246747
0.224262
0.280392
0.221327
0.220759
0.218775
0.216137
0.219785
0.223074
0.215957
0.216011
0.224772
0.435839
0.22735
0.216937
0.208491
0.330717
0.200427
0.247168
0.215222
0.297144
0.217178
0.23594
0.24664
0.246545
0.319761
0.261903
0.240424
0.220684
0.214717
0.294175
0.233373
0.218595
0.440724
0.221945
0.216385
0.216818
0.263362
0.516319
0.258992
0.215527
0.219419
0.240022
0.214159
0.283203
0.249993
0.229371
0.218025
0.215209
0.385482
0.216921
0.21621
0.385037
0.246811
0.255474
0.25496
0.263417
0.215385
0.236615
0.217603
0.217509
0.265511
0.222178
0.321579
0.246769
0.257051
0.238777
0.238251
0.21787
0.215684
0.257084
0.215253
0.21573
0.217156
0.216467
0.218358
0.21725
0.216251
0.218725
0.237004
0.415448
0.326238
0.216278
0.215874
0.21748
0.217197
0.217644
0.233982
0.282097
0.362225
0.216837
0.216861
0.218535
0.227717
0.258096
0.260737
0.261097
0.221452
0.320359
0.234777
0.223363
0.410875
0.333873
0.215587
0.220065
0.215468
0.268698
0.239392
0.493621
0.256973
0.238559
0.251585
0.291975
0.457049
0.206744
0.188137
0.234688
0.189712
0.41651
0.320425
0.217469
0.217913
0.217809
0.218881
0.217646
0.218897
0.187397
0.260444
0.229636
0.189713
0.229894
0.227883
0.229304
0.238418
0.217301
0.249817
0.195526
0.219538
0.187977
0.179759
0.187765
0.223354
0.270603
0.253278
0.279524
0.215772
0.217228
0.23985
0.240684
0.201018
0.232142
0.155835
0.259224
0.223643
0.445631
0.262776
0.304424
0.229059
0.269948
0.284042
0.196332
0.216825
0.234985
0.236381
0.235113
0.227307
0.201688
0.180411
0.218486
0.268769
0.22323
0.226451
0.252159
0.321099
0.304601
0.225462
0.200861
0.214184
0.219485
0.215702
0.232688
0.366186
0.218882
0.182368
0.256775
0.220628
0.218225
0.218714
0.223347
0.227751
0.215798
0.265492
0.224809
0.219425
0.229405
0.22441
0.196212
0.199818
0.223804
0.180932
0.230613
0.236512
0.339892
0.321784
0.259717
0.223293
0.228175
0.403712
0.347791
0.219397
0.203448
0.216681
0.289467
0.218762
0.260315
0.270089
0.201076
0.180506
0.262638
0.256335
0.251368
0.854235
0.267636
0.222211
0.227757
0.222431
0.269713
0.261059
0.287208
0.298431
0.198732
0.251887
0.351214
0.214804
0.217223
0.263182
0.219716
0.350684
0.220278
0.385115
0.947302
0.227232
0.274238
0.272897
0.204391
0.20748
0.215818
0.197406
1.80151
0.217284
0.29133
0.27702
0.267709
0.263502
0.218473
0.21971
0.215977
0.221695
0.209557
0.181546
0.330485
0.216904
0.262017
0.221745
0.223909
0.354287
0.230383
0.247236
0.251475
0.282234
0.252336
0.247331
0.189913
0.225454
0.218245
0.255251
0.253844
0.261316
0.228586
0.279357
0.331703
0.231396
0.164202
0.162779
0.230088
0.29343
0.275739
0.241046
0.301893
0.21777
0.247755
0.390879
0.215497
0.243877
0.218074
0.218833
0.277506
0.217686
0.30319
0.215449
0.216892
0.235548
0.215553
0.214279
0.233296
0.216839
0.346091
0.195231
0.244992
0.231581
0.313843
0.45795
0.22227
0.25757
0.295149
0.241753
0.277095
0.242516
0.243504
0.656887
1.98471
0.232508
0.216324
0.21819
0.240131
0.219709
0.2473
0.690851
0.213217
0.285354
0.960769
0.249708
0.265961
0.208575
0.225014
0.229573
0.16975
0.224588
0.23671
0.226748
0.215592
0.302928
0.233052
0.263795
0.263225
0.224112
0.22543
0.413621
0.261656
0.249006
0.274673
0.317705
0.225001
0.215126
0.31044
0.227502
0.227111
0.215696
0.198879
0.230965
0.247124
0.205126
0.271968
0.231426
0.216396
0.219718
0.215921
0.249393
0.215233
0.222207
0.215591
0.283817
0.264817
0.228533
0.245688
0.220393
0.257823
0.351217
0.215631
0.249538
0.215273
0.217688
0.215411
0.217401
0.268038
0.217612
0.220106
0.219424
0.220965
0.253767
0.272677
0.22208
0.210305
0.259761
0.280556
0.225847
0.156402
0.218551
0.206679
0.216499
0.218666
0.220172
0.362647
1.03355
0.319701
0.232299
0.253815
0.214064
0.224718
0.216401
0.389091
0.226612
0.242784
0.231802
0.234197
0.232592
0.251368
0.223547
0.207887
0.218624
0.2524
0.235708
0.293842
0.495435
0.215561
0.204299
0.213451
0.244204
0.239707
0.228143
0.258375
0.560719
0.236717
0.501882
0.289652
0.218245
0.27879
0.229546
0.223609
0.300152
0.240763
0.216139
0.215867
0.214072
0.217548
0.274525
0.26519
0.216587
0.252723
0.272099
0.216569
0.216175
0.232278
0.203606
0.263157
0.355044
0.215188
0.254982
0.262922
0.245284
0.457852
0.252175
0.23488
0.259751
0.228922
0.231235
0.241972
0.237279
0.239594
0.21641
0.271411
0.223965
0.218836
0.219109
0.226196
0.216039
0.976034
0.382124
0.368204
0.162346
0.355214
0.160441
0.456323
0.450323
0.472332
0.492895
0.30554
0.216739
0.250594
0.216472
0.222389
0.30778
0.216338
0.221042
0.217297
0.46149
0.211219
0.430239
0.234196
0.217469
0.737206
0.245124
0.215226
0.218155
0.21605
0.219111
0.216657
0.37689
0.492858
0.267271
0.227741
0.203551
0.214576
0.215744
0.223401
0.215284
0.260841
0.441078
0.237947
0.221091
0.273132
0.219501
0.336421
0.240963
0.234733
0.397481
0.245777
0.227836
0.224642
0.217396
0.228459
0.223821
0.226776
0.226626
0.219986
0.304576
0.248869
0.235611
0.213162
0.219807
0.258611
0.220833
0.215371
0.248302
0.244985
0.238383
0.221221
0.216811
0.216627
0.216471
0.215933
0.223271
0.213512
0.240695
0.226661
0.251316
0.225496
0.502289
0.216127
0.279677
0.220355
0.372043
0.216722
0.21777
0.220767
0.222957
0.245747
0.19133
0.216179
0.234819
0.233
0.231248
0.242923
0.236437
0.216806
0.222777
0.23205
0.211326