/*--------------------------------*- C++ -*----------------------------------*\
| =========                 |                                                 |
| \\      /  F ield         | OpenFOAM: The Open Source CFD Toolbox           |
|  \\    /   O peration     | Version:  v1912                                 |
|   \\  /    A nd           | Website:  www.openfoam.com                      |
|    \\/     M anipulation  |                                                 |
\*---------------------------------------------------------------------------*/
FoamFile
{
    version     2.0;
    format      ascii;
    class       volScalarField;
    location    "0.02";
    object      nut;
}
// * * * * * * * * * * * * * * * * * * * * * * * * * * * * * * * * * * * * * //

dimensions      [0 2 -1 0 0 0 0];


internalField   nonuniform List<scalar> 
5794
(
0.000647458
0.000782412
0.000984608
0.00101494
0.000908859
0.000729521
0.00090806
0.00090735
0.000845288
0.000928234
0.000859939
0.000807772
0.000798205
0.000897519
0.000828671
0.000859247
0.00111933
0.000885994
0.000760613
0.000758977
0.00281056
0.000749138
0.00084294
0.000815988
0.000795661
0.00177481
0.000982562
0.000872278
0.000903363
0.000752012
0.000876992
0.000970086
0.000904422
0.00085288
0.000857563
0.000862749
0.000903352
0.000887508
0.000886643
0.000874352
0.000871817
0.000875719
0.000691391
0.000802256
0.000836277
0.000889154
0.000919132
0.000885859
0.00080798
0.000672848
0.000600167
0.000912304
0.00121515
0.000928118
0.000370356
0.000844316
0.000933459
0.000870555
0.000848175
0.00227428
0.000772015
0.000866116
0.000869758
0.000917222
0.000871609
0.000856088
0.000877872
0.000982203
0.000946513
0.000763977
0.000865685
0.000886356
0.00109297
0.000879089
0.000906486
0.000913801
0.000336971
0.00158139
0.000777682
0.000324369
0.000862281
0.000765151
0.000862582
0.000865947
0.000878271
0.000437241
0.000555681
0.000403617
0.000910047
0.000945267
0.000796851
0.000995202
0.000838355
0.000767806
0.000825438
0.000883937
0.00078253
0.000759295
0.000900758
0.000786921
0.00113396
0.00106643
0.000808445
0.000868063
0.000922273
0.000858687
0.000796192
0.000799357
0.000956249
0.00076324
0.000930191
0.000753118
0.00121163
0.000856416
0.000752268
0.000765489
0.00086213
0.000877107
0.000754061
0.0009374
0.00086254
0.000491595
0.00084126
0.000873494
0.000888277
0.000868048
0.000877403
0.000745257
0.000850231
0.000798142
0.000840938
0.000836442
0.00100391
0.00148056
0.000859531
0.000854597
0.000677125
0.000868089
0.000872017
0.000862432
0.000929908
0.000903786
0.00085684
0.000885991
0.000896015
0.00101368
0.000877226
0.000841947
0.000890591
0.000908064
0.000719708
0.000863795
0.000858441
0.000893205
0.000958384
0.000826479
0.00090651
0.000771796
0.000803151
0.000945132
0.00091461
0.000885109
0.000785347
0.000886972
0.000844477
0.000781284
0.000773632
0.000768869
0.000893029
0.000615209
0.000686489
0.00103969
0.000687593
0.000665686
0.000671573
0.000813713
0.000608707
0.000780741
0.000797954
0.000777282
0.000771747
0.000747507
0.000697015
0.000704487
0.000734564
0.00112381
0.00094121
0.000737909
0.000800728
0.000837298
0.000754542
0.000955407
0.000916617
0.000897692
0.000680038
0.000710139
0.000734988
0.000791016
0.000938237
0.000889626
0.00073905
0.000887172
0.000829566
0.00077455
0.000887421
0.000854029
0.000753024
0.000858976
0.000894579
0.000909756
0.000751935
0.000904507
0.000885719
0.000884583
0.000866233
0.000869527
0.000874271
0.00101154
0.000864665
0.000858012
0.000924026
0.000887933
0.000868445
0.000893487
0.000650106
0.000785038
0.000580284
0.000880183
0.000789422
0.000862852
0.000894302
0.000888793
0.000881449
0.000900137
0.000915861
0.000836858
0.000893194
0.000856651
0.000820379
0.00110055
0.000921831
0.000844881
0.000919329
0.00090325
0.000965298
0.000903075
0.000862733
0.000880612
0.000389166
0.000438321
0.000521408
0.000857494
0.00100402
0.000827847
0.000941321
0.000952275
0.000898815
0.000870459
0.000838913
0.000906944
0.000818403
0.000878802
0.000876879
0.000839672
0.00068122
0.000872869
0.000918316
0.000841115
0.000931553
0.000861536
0.000884403
0.000855699
0.000940365
0.000896294
0.0013388
0.000813748
0.000917572
0.000871451
0.000865901
0.000902817
0.000849126
0.000816962
0.000890497
0.00089111
0.000892185
0.000852504
0.000976431
0.000893481
0.000832354
0.000864427
0.000899065
0.000897361
0.000885544
0.000865543
0.0009569
0.00149534
0.000914266
0.000917515
0.000921962
0.000856932
0.000608199
0.00101406
0.000694259
0.000920324
0.000916951
0.000775628
0.000865717
0.000952888
0.000868478
0.00086907
0.000857515
0.000862766
0.000901163
0.000856571
0.000883898
0.000719354
0.000838167
0.000868305
0.000939923
0.000966057
0.000948229
0.000925402
0.000908805
0.000899331
0.000857801
0.000864947
0.000863729
0.00095406
0.00089875
0.000929597
0.00076444
0.000699265
0.000786219
0.000872385
0.000959191
0.000905051
0.000784866
0.000718099
0.000698474
0.000696612
0.000660796
0.000614384
0.000914352
0.000665271
0.000692871
0.000665072
0.00067011
0.000712039
0.000853197
0.000816158
0.000847214
0.000744826
0.000749889
0.000790435
0.000738042
0.00093482
0.000801162
0.000765183
0.00086179
0.000858715
0.000859613
0.000878053
0.00078715
0.000869402
0.000869432
0.00083287
0.000757305
0.000685882
0.000731686
0.000689003
0.00086843
0.00077297
0.000865247
0.000873923
0.000857782
0.000924768
0.000753265
0.000854044
0.000812466
0.000807689
0.000914404
0.000865066
0.000830588
0.000863899
0.000861306
0.000852801
0.000877691
0.000864732
0.000866225
0.000784239
0.00077878
0.000877346
0.000780874
0.000866372
0.000734157
0.000688138
0.000716375
0.00111169
0.000873076
0.00085563
0.000843064
0.000840606
0.000883053
0.000700917
0.000818516
0.000859535
0.00133177
0.00084793
0.000837182
0.00080606
0.00077842
0.000844595
0.000859728
0.000704706
0.000694209
0.00072812
0.000634401
0.00102483
0.000876919
0.000759279
0.0008386
0.000713427
0.000848231
0.000875188
0.000796925
0.000792918
0.000773965
0.000856293
0.000803391
0.000790836
0.000881398
0.000858643
0.000898517
0.00226407
0.00087446
0.000836157
0.000802434
0.000802681
0.000871136
0.000870818
0.000847252
0.000927673
0.000866058
0.000890998
0.000859741
0.000764443
0.000761886
0.000859063
0.00143649
0.00115319
0.000835768
0.000788525
0.00269862
0.000772794
0.000887661
0.000783562
0.000851415
0.000896563
0.00103753
0.000913813
0.000847802
0.000866375
0.00142599
0.000871361
0.000793226
0.000805156
0.000872278
0.000938545
0.000857892
0.000799371
0.000383673
0.00090261
0.000856504
0.000858053
0.00085987
0.000795427
0.00101098
0.00086875
0.00109463
0.000856286
0.00132567
0.00082826
0.000725011
0.00084284
0.000849307
0.000861259
0.000892668
0.000846211
0.00087584
0.000829726
0.000786636
0.000953549
0.000927515
0.000889839
0.0014989
0.000868425
0.00085806
0.000862518
0.00084932
0.000858606
0.000930464
0.000941859
0.000817962
0.000865479
0.000894848
0.000868031
0.000864992
0.000862751
0.000863381
0.000856751
0.000893414
0.000865508
0.000887908
0.000833434
0.000857462
0.000861684
0.000824752
0.000841738
0.000891558
0.000879907
0.000920916
0.000865612
0.000921026
0.000870437
0.00084228
0.000896835
0.000923658
0.000880319
0.000775763
0.000773707
0.00246446
0.000581275
0.000854895
0.0008587
0.000861135
0.000867235
0.000887203
0.000730713
0.000819693
0.000839336
0.000725528
0.00325414
0.000724531
0.000928023
0.000867672
0.000856569
0.000934179
0.000882669
0.000838082
0.000850885
0.000866779
0.000811917
0.000639722
0.000869774
0.000880902
0.000829576
0.002479
0.000750728
0.000752087
0.000957518
0.00130384
0.000807356
0.000863934
0.000871273
0.000914872
0.000884124
0.000862446
0.000904286
0.000692225
0.000856613
0.00078947
0.00092647
0.000551091
0.00060474
0.000817188
0.000906609
0.000934185
0.000898634
0.0008992
0.000895406
0.000901163
0.00102127
0.000870427
0.000792522
0.00090169
0.000830891
0.000856109
0.000836052
0.000998135
0.00084359
0.000856854
0.000848743
0.000860284
0.000881453
0.000934666
0.000860984
0.000807457
0.000863735
0.000850216
0.000854966
0.000856715
0.000780381
0.000867951
0.000855035
0.000850854
0.000776645
0.00208124
0.000782648
0.000416577
0.000864311
0.000959519
0.000968616
0.000872442
0.00132183
0.000853882
0.000828629
0.000857799
0.000578203
0.000801017
0.00091379
0.000580105
0.000868445
0.000865533
0.000854706
0.00077109
0.00090029
0.000867684
0.000923504
0.000739548
0.00083514
0.000913987
0.000868954
0.000609608
0.00097571
0.000869184
0.000767327
0.00147878
0.000901546
0.000819098
0.000886056
0.00090104
0.000856003
0.000857292
0.00107902
0.000641782
0.000869617
0.000902294
0.00116843
0.000863809
0.000841418
0.000664985
0.000875499
0.00085937
0.000790626
0.000833206
0.00076076
0.000901358
0.000937766
0.000895003
0.000858996
0.00086567
0.00064716
0.000808482
0.00128949
0.00082504
0.000920849
0.000841542
0.000852524
0.000984612
0.000803681
0.000854922
0.00103509
0.000961678
0.000846496
0.00105808
0.000884307
0.000849161
0.000854289
0.000882181
0.00112789
0.000920523
0.000824662
0.00089086
0.000855743
0.000892803
0.000590983
0.00095562
0.000859893
0.000866212
0.000854608
0.000880212
0.000895263
0.00136727
0.000973725
0.000857327
0.000888656
0.00085737
0.000626564
0.000657933
0.000886325
0.000745373
0.000562811
0.000565091
0.000863807
0.000979562
0.000866076
0.00090611
0.000816965
0.000859449
0.000774562
0.000857865
0.000931164
0.00105534
0.000916395
0.000857577
0.000830484
0.00081349
0.000975144
0.000869021
0.000863128
0.000864254
0.00148192
0.000720515
0.000860019
0.000938683
0.000976745
0.000892412
0.000914385
0.000833099
0.000716052
0.00089879
0.00120733
0.000835097
0.000871819
0.000859279
0.000980328
0.00120465
0.000848673
0.000987652
0.000829194
0.000799339
0.000529204
0.000617733
0.00101906
0.000635587
0.000856406
0.00114188
0.000825525
0.00137834
0.000901186
0.000843962
0.000827666
0.000894251
0.000807884
0.000853299
0.000845182
0.000948613
0.000806625
0.000878224
0.000917855
0.000865834
0.000960462
0.000934399
0.000931567
0.000845636
0.000917504
0.00110596
0.000822333
0.000829936
0.000809771
0.000949348
0.0008326
0.000915382
0.000860713
0.000863788
0.000853433
0.000892587
0.000971768
0.000883035
0.000880217
0.000856959
0.000930481
0.00172727
0.000843272
0.000838559
0.00093495
0.00119165
0.000860223
0.000898458
0.000987999
0.000887295
0.000874121
0.000862826
0.000973105
0.000921753
0.00120198
0.000790667
0.00238509
0.00079747
0.00146196
0.000891235
0.000847493
0.000928038
0.000882064
0.000895692
0.00086978
0.000856156
0.000775009
0.000753491
0.000903143
0.000965325
0.000889865
0.000864067
0.000842664
0.000859113
0.000867059
0.000899354
0.00086264
0.000869355
0.000806174
0.000799855
0.00195222
0.000854334
0.000903196
0.000836325
0.000816799
0.000870637
0.000857247
0.000852727
0.00104559
0.000865945
0.000848898
0.000884772
0.000858341
0.000873419
0.000856456
0.000862242
0.000971531
0.00073129
0.000520636
0.000755409
0.000844794
0.000860907
0.000902992
0.00133448
0.000851166
0.000955165
0.000924106
0.000910013
0.000997521
0.000878579
0.000857457
0.00100138
0.000904926
0.000840568
0.000869633
0.000876793
0.000910632
0.00085804
0.000845272
0.000985514
0.000907454
0.000844997
0.000857745
0.000933708
0.00105453
0.00143571
0.000846127
0.000883344
0.000862994
0.000888133
0.000830216
0.000863351
0.000888077
0.0028621
0.000869415
0.000861548
0.00141873
0.000890162
0.000929232
0.00054865
0.000968604
0.000801417
0.000897355
0.000856658
0.000859816
0.00138091
0.000851011
0.000737916
0.000869532
0.000869074
0.000913987
0.000914231
0.000846593
0.000894295
0.000858896
0.000896502
0.00089026
0.000832406
0.000891683
0.000857292
0.000865683
0.00085835
0.000934978
0.000870253
0.000832307
0.000917021
0.00085733
0.000865608
0.00091479
0.000884445
0.000934963
0.000778748
0.000856158
0.00100337
0.000884001
0.000816902
0.000873886
0.000857395
0.000971996
0.000891936
0.00113082
0.000965028
0.000536586
0.000605841
0.000746576
0.000597869
0.000687143
0.000497732
0.000932804
0.000969686
0.00125902
0.000531346
0.000447404
0.000930289
0.00087962
0.000865141
0.000743759
0.000819522
0.000691922
0.000934457
0.000901024
0.000831165
0.000838091
0.000877298
0.000857191
0.000947392
0.00085705
0.000596041
0.000900305
0.000871309
0.00175861
0.000801354
0.000800353
0.000972351
0.000721181
0.0008806
0.00102674
0.00165575
0.000867147
0.000854799
0.000920189
0.000858345
0.000562408
0.000597664
0.000859094
0.000862237
0.000905004
0.000870672
0.000856805
0.000843458
0.000858539
0.000918709
0.000863868
0.000860175
0.000866608
0.000857314
0.000810947
0.000858917
0.000690215
0.000753153
0.000717565
0.000857765
0.000475417
0.000962657
0.000946081
0.000720076
0.00109423
0.000863418
0.000849203
0.000847608
0.000920933
0.000873856
0.00086831
0.00143286
0.000861645
0.000951862
0.000749821
0.000858155
0.000817867
0.00112843
0.00090806
0.000877346
0.00108868
0.000843275
0.000805043
0.000895735
0.000856726
0.000857353
0.000910797
0.000779015
0.000900681
0.000961585
0.000596316
0.000661729
0.000531552
0.00103934
0.000539468
0.00058664
0.000502182
0.000842336
0.000786178
0.000809168
0.000839733
0.00185014
0.000827007
0.00088755
0.000905788
0.000868827
0.000882218
0.000868835
0.000805148
0.000682647
0.000864169
0.000904554
0.000889428
0.000931763
0.000849275
0.000834711
0.000913311
0.00110338
0.000857694
0.000855558
0.000870001
0.000909751
0.000842812
0.000858143
0.000861624
0.000865541
0.00109772
0.000855416
0.000841216
0.000927029
0.000910504
0.000830372
0.000868968
0.000868379
0.000858846
0.000898945
0.0014183
0.000937059
0.000876418
0.00142986
0.000862071
0.000856455
0.000832016
0.000859871
0.000863184
0.000822915
0.000830102
0.000847315
0.000858659
0.000838848
0.000877121
0.000872588
0.00090538
0.000864437
0.000864109
0.000871544
0.000873531
0.000869496
0.000861716
0.000865245
0.000979011
0.00061483
0.000921836
0.000867608
0.00085669
0.000868755
0.00100414
0.000912773
0.000535108
0.00111784
0.000620064
0.000697013
0.000944274
0.000721777
0.000978185
0.00102719
0.000552446
0.00115809
0.000532063
0.000537549
0.00144768
0.00086594
0.000881299
0.000885503
0.00086448
0.000856823
0.000756041
0.000969609
0.000865683
0.000963304
0.000877314
0.000872407
0.000874062
0.000755433
0.000869485
0.000832177
0.000957576
0.00101877
0.000976951
0.000867062
0.000860032
0.000861638
0.000868265
0.000871449
0.000883914
0.00098247
0.000874294
0.000859121
0.000839194
0.000877981
0.000865606
0.000859623
0.000842101
0.000844653
0.0008762
0.000864513
0.000858981
0.00268928
0.0011898
0.000857398
0.000880807
0.000864079
0.000863903
0.000938649
0.000912534
0.000988029
0.000671406
0.000908389
0.000827351
0.00092703
0.000857107
0.000872752
0.000875423
0.000875601
0.000880784
0.000864859
0.000883532
0.00120222
0.00091974
0.00082944
0.000820528
0.00185985
0.000790179
0.000970915
0.000835434
0.000818358
0.000958403
0.000826179
0.000961196
0.000822447
0.000991196
0.00093353
0.00089659
0.000935465
0.000906411
0.000888011
0.00100105
0.000844423
0.000915278
0.00087695
0.000869416
0.000862943
0.000776532
0.00078517
0.00101653
0.00098671
0.000854116
0.000921319
0.000674902
0.000507076
0.00101786
0.000877933
0.000859082
0.000872872
0.000861624
0.00101591
0.000855449
0.000860744
0.00165547
0.000998238
0.000869598
0.00085963
0.000847757
0.000859307
0.000754101
0.000790171
0.000550046
0.000548097
0.000692007
0.00086796
0.000859297
0.000882604
0.000861925
0.000863433
0.000856865
0.000993016
0.00089375
0.000534159
0.000872156
0.000867044
0.000894816
0.000864995
0.000448792
0.000856827
0.00107282
0.000860775
0.000545246
0.00091603
0.000865127
0.000996469
0.000895799
0.00088334
0.000858125
0.000788691
0.000874008
0.000962612
0.000874617
0.000850103
0.000860844
0.000858553
0.000865362
0.000935717
0.000687549
0.00085669
0.000818897
0.00112458
0.000876899
0.000707701
0.000880478
0.00073572
0.00076402
0.00110602
0.0010157
0.000906432
0.000858311
0.000873216
0.000871057
0.00085951
0.00105074
0.000865995
0.000870258
0.000880808
0.00090451
0.00087223
0.000900199
0.000849559
0.00102609
0.000842113
0.000902679
0.000907299
0.000864921
0.000933897
0.000982989
0.000857367
0.000865076
0.00098528
0.000872763
0.000910376
0.000916504
0.000914988
0.000882788
0.000860322
0.000859939
0.000896743
0.000921048
0.000877448
0.000787638
0.000950543
0.00088876
0.000788964
0.00092245
0.000824076
0.000893806
0.000864855
0.000867548
0.000941376
0.000753265
0.000861329
0.000872243
0.000867904
0.001176
0.000859085
0.00086059
0.000845023
0.000925813
0.000860925
0.0011514
0.000882025
0.000916984
0.00086477
0.000859466
0.000854488
0.0011092
0.00088938
0.000899212
0.000873282
0.000904627
0.000903357
0.000370594
0.000866266
0.00086517
0.000863798
0.000873495
0.000901097
0.000833579
0.000882185
0.000859436
0.000513853
0.000544589
0.000620748
0.000573947
0.000642604
0.000883489
0.000870049
0.000905476
0.000856038
0.00093524
0.000873217
0.000865366
0.000864669
0.000881864
0.000870814
0.000870374
0.000866463
0.00111526
0.000880594
0.000861074
0.001078
0.000860451
0.00079576
0.00094434
0.000880444
0.000868008
0.000852714
0.000857654
0.00112003
0.000858017
0.000885117
0.000889847
0.000861333
0.00100696
0.000865107
0.000491068
0.00049243
0.000735875
0.00186674
0.000820532
0.000788508
0.000869763
0.000816006
0.00164086
0.00087398
0.000599857
0.000569834
0.000569674
0.000616521
0.000579009
0.000741598
0.000459023
0.000618039
0.000567459
0.000622733
0.000678814
0.000611244
0.000530642
0.00049736
0.000497265
0.000614669
0.000747144
0.000518537
0.000664019
0.000604241
0.000595165
0.000479586
0.000479772
0.000422184
0.000782357
0.000439431
0.000638004
0.00043177
0.000644283
0.000665943
0.000677763
0.000613212
0.000665389
0.000547005
0.000544043
0.000713149
0.000554205
0.0005725
0.000712588
0.000681568
0.000583766
0.000581759
0.00061296
0.000592274
0.000850831
0.000851885
0.000847524
0.000823335
0.00087635
0.000859752
0.000862086
0.00089594
0.000865539
0.000859719
0.00073306
0.000867019
0.000962144
0.00091363
0.00100521
0.000933457
0.000885106
0.00112547
0.000863286
0.000863785
0.000870106
0.000903815
0.000657486
0.000876798
0.000867803
0.000968555
0.000908856
0.000894903
0.000859867
0.000840659
0.000882844
0.000923974
0.000895448
0.000986726
0.000865305
0.000893087
0.000899715
0.000890938
0.000865409
0.000936348
0.0013506
0.00088954
0.000873092
0.000734974
0.00112946
0.000861839
0.000867819
0.000890263
0.000849886
0.0024803
0.000858807
0.000652719
0.000685885
0.000891733
0.000869415
0.000547927
0.000860261
0.000943833
0.000752934
0.00055809
0.000459345
0.000598947
0.000752713
0.000549247
0.000631492
0.000719422
0.000720568
0.000656185
0.000720086
0.00061259
0.000575254
0.000596559
0.000578959
0.000536399
0.000606041
0.000475612
0.000481451
0.000475347
0.000546085
0.000687489
0.000545714
0.000863928
0.000985378
0.000391012
0.000884952
0.000873647
0.000849053
0.000882712
0.00085672
0.000833834
0.000879513
0.000867972
0.000866869
0.000870835
0.000902913
0.000523587
0.00087261
0.000853571
0.000854463
0.00100644
0.000874133
0.000912892
0.000854942
0.000863121
0.000873764
0.000908993
0.000861603
0.000852661
0.000855779
0.000864347
0.000839445
0.000831343
0.000886475
0.000875315
0.000878646
0.000928433
0.000873411
0.000865643
0.000799059
0.000865929
0.000879345
0.000863554
0.000862895
0.000906763
0.000815784
0.000864171
0.000862314
0.00086576
0.000859457
0.000839807
0.000902466
0.000481213
0.000860123
0.000863736
0.000998756
0.000365875
0.000875943
0.000917762
0.000874538
0.000866093
0.000519704
0.000858228
0.000934643
0.00117073
0.000867155
0.000841768
0.00086013
0.000858451
0.000853736
0.00108492
0.000855984
0.000901929
0.000510334
0.000490312
0.000510707
0.000874015
0.000858272
0.000994966
0.000870644
0.000858198
0.000843793
0.000867339
0.000949111
0.000864706
0.000866339
0.000893766
0.000864203
0.000858954
0.000859858
0.000864856
0.000878845
0.000933333
0.000795223
0.000865409
0.000860197
0.000881628
0.00050648
0.000859344
0.000858221
0.000859663
0.00108637
0.000879233
0.000864854
0.000875362
0.000903521
0.000884578
0.000874636
0.000611477
0.000875736
0.000874258
0.000521768
0.000950535
0.000897524
0.000859075
0.000864077
0.000864003
0.000858143
0.000540178
0.000817115
0.000950491
0.000860372
0.000859395
0.000857715
0.00085788
0.000858786
0.000619604
0.000887677
0.000865351
0.000964312
0.000537504
0.000903389
0.000889352
0.000992669
0.00107276
0.000873946
0.000881433
0.000857503
0.000857774
0.000870356
0.000861246
0.000865231
0.000859831
0.000870462
0.00087027
0.0008636
0.000864639
0.000873585
0.000864416
0.00086466
0.000860039
0.000870818
0.000864647
0.00086602
0.000864614
0.000871589
0.000868388
0.000873177
0.000864666
0.000867916
0.000863434
0.000857854
0.000858909
0.000864062
0.000924811
0.000858338
0.000860924
0.000862165
0.000859789
0.000480492
0.000540973
0.000890088
0.000877565
0.000860768
0.000860083
0.000861374
0.000859988
0.000887685
0.000874727
0.000888007
0.000863717
0.000863384
0.000868622
0.000971362
0.000863954
0.000987443
0.000557975
0.000955585
0.000998161
0.000861502
0.000914058
0.000869117
0.000882093
0.000863864
0.000529553
0.00086195
0.000662793
0.00086945
0.000870975
0.00090127
0.000869336
0.000893453
0.000879879
0.000881354
0.000883258
0.000954551
0.000910494
0.000867947
0.000878671
0.000867116
0.0008959
0.000884546
0.000868252
0.000944725
0.00086276
0.000861654
0.000860244
0.00086577
0.00085825
0.000887821
0.000927013
0.000861641
0.000880923
0.000865972
0.000868138
0.000862105
0.000865428
0.000858234
0.000873712
0.000858171
0.000899498
0.00087321
0.000869936
0.000858681
0.000892728
0.000886077
0.000859031
0.000856013
0.00086812
0.000857823
0.000859161
0.00089189
0.000874429
0.000859241
0.000878283
0.000871422
0.000858751
0.000859382
0.000859154
0.000872437
0.000857957
0.000895071
0.000860997
0.000859988
0.000859939
0.000890869
0.000905215
0.000861834
0.000564082
0.000883924
0.000879718
0.000862505
0.00085984
0.000868806
0.000858553
0.000858275
0.000871953
0.000890033
0.000893907
0.000899805
0.000961551
0.000899922
0.000682019
0.000637871
0.000880763
0.000862974
0.000862537
0.000561852
0.000866295
0.000872803
0.000860209
0.000858389
0.000517868
0.000902616
0.000910606
0.00086449
0.000879382
0.000861194
0.000927629
0.000723214
0.000979295
0.000879254
0.000882572
0.0008655
0.00087155
0.000877599
0.00087407
0.000865993
0.000569473
0.000887506
0.000906395
0.000896605
0.000868481
0.000631357
0.000702029
0.000579887
0.000865722
0.000815915
0.000860218
0.000877975
0.000859101
0.000914506
0.000873978
0.000905916
0.000862098
0.000871404
0.000871942
0.000860619
0.000866273
0.00086197
0.00086021
0.000609834
0.000867026
0.000861927
0.000909377
0.000861392
0.000860959
0.00086345
0.000788095
0.000871787
0.000869285
0.000520595
0.000862464
0.00087085
0.000815659
0.00086123
0.000864321
0.000864488
0.000863729
0.000543046
0.000943393
0.000865077
0.000870444
0.000862647
0.000863091
0.000864811
0.000872327
0.000881529
0.000883583
0.000862421
0.000826843
0.000576613
0.00086801
0.000915905
0.000880929
0.000858642
0.000868699
0.000861309
0.000494249
0.000873531
0.000859802
0.000858459
0.000864448
0.000873633
0.000907815
0.000871752
0.000865272
0.000857571
0.000942505
0.000862296
0.00086295
0.000763946
0.000520644
0.000883985
0.000873889
0.000885726
0.000528824
0.000879358
0.0005192
0.000942239
0.000854877
0.000897601
0.000926715
0.000923197
0.000869393
0.000865353
0.000859554
0.000858272
0.00085807
0.000865794
0.000867871
0.000904733
0.000896041
0.000865269
0.000858298
0.000857853
0.000859398
0.000887855
0.000863491
0.000857548
0.00100703
0.000878837
0.000884641
0.000596853
0.000978901
0.000857897
0.000898153
0.000922533
0.00091599
0.000530585
0.000874812
0.000982635
0.000788025
0.000883213
0.000918355
0.000957037
0.000866903
0.000857912
0.000857678
0.000932354
0.000537505
0.000562173
0.000857566
0.000991646
0.000857512
0.000999663
0.000931835
0.000859002
0.000857227
0.000858929
0.000863518
0.00086822
0.000927127
0.000891946
0.000898491
0.000992555
0.000903185
0.000910076
0.000949673
0.000926545
0.000863463
0.000884247
0.000628249
0.000876398
0.000885213
0.000532274
0.00085971
0.000859462
0.000894992
0.000806506
0.000853282
0.000898482
0.000915848
0.000938801
0.000778867
0.000817269
0.000896884
0.000915721
0.000875282
0.000857691
0.000857457
0.000948561
0.000864533
0.000896094
0.000857471
0.000983607
0.000953021
0.000904732
0.000882894
0.000896555
0.000578536
0.000832654
0.000857489
0.000963475
0.000858237
0.000627094
0.00086304
0.000901156
0.000859737
0.000863678
0.000666881
0.00091886
0.000912111
0.000951886
0.000949503
0.000863618
0.000978919
0.000869276
0.000921464
0.000971384
0.000859008
0.000852991
0.000879966
0.000910965
0.000568518
0.000570958
0.000537377
0.000565258
0.000574813
0.000954629
0.000881666
0.000858016
0.0008575
0.000925621
0.000885507
0.000859113
0.000574369
0.000864654
0.000865554
0.000868592
0.000867606
0.000967597
0.0008987
0.000920325
0.000551924
0.00085786
0.00105146
0.000858542
0.000863224
0.000862471
0.000858176
0.000857953
0.000578135
0.000955953
0.000864578
0.000765098
0.000754952
0.000859681
0.000857938
0.000528382
0.000839679
0.000873154
0.00085913
0.000871903
0.000860177
0.000887237
0.000867367
0.000961234
0.000914708
0.000928401
0.000866876
0.000922126
0.000858856
0.000868692
0.000920085
0.000862345
0.000867744
0.000872991
0.000828025
0.000636121
0.000858625
0.000863894
0.000862311
0.000911842
0.000930651
0.000869903
0.000870892
0.000878684
0.000933543
0.000863735
0.000888773
0.000858127
0.00085749
0.000862673
0.00086424
0.000864353
0.00107951
0.000870823
0.000930283
0.000861652
0.000860073
0.00086344
0.000844922
0.000878511
0.000582819
0.000722897
0.000566162
0.000594057
0.000865327
0.000998984
0.000858406
0.00106736
0.000841529
0.000848474
0.00085534
0.000816544
0.00086206
0.000896523
0.000857852
0.000928013
0.000901562
0.000925482
0.000853418
0.000605364
0.000829519
0.000866979
0.000647449
0.000857666
0.00096568
0.000925892
0.000860675
0.000949571
0.000859415
0.000858312
0.000857483
0.000858379
0.000916086
0.00086603
0.000858278
0.000702607
0.000864773
0.000860594
0.00119745
0.000860389
0.000560809
0.000952212
0.000878353
0.000893309
0.000858849
0.000858531
0.000878552
0.000924054
0.000917761
0.000894279
0.000918655
0.000912974
0.000856839
0.000862338
0.000864217
0.000824132
0.000966914
0.00089306
0.000928933
0.000857227
0.000871454
0.000883965
0.000863451
0.000927411
0.00085734
0.000864804
0.000882293
0.000862753
0.000868628
0.000918273
0.000868781
0.000872394
0.000864361
0.000862577
0.000680751
0.00098958
0.000964946
0.00086875
0.00086546
0.000866717
0.000899856
0.000836419
0.000950711
0.00114168
0.000966912
0.000532705
0.000562358
0.00086522
0.000858973
0.000861078
0.000882549
0.000946759
0.00096007
0.000891689
0.000782584
0.000932961
0.000969869
0.000975153
0.000864847
0.000869419
0.000904669
0.000859235
0.000857732
0.000920729
0.000661102
0.000933956
0.000962647
0.000849386
0.000864246
0.000828917
0.000561614
0.000858601
0.000866873
0.000861703
0.000866843
0.00089946
0.00089312
0.000915171
0.000881356
0.000871606
0.000863077
0.000858615
0.000927862
0.000861566
0.000581934
0.000851322
0.000873348
0.000920133
0.000897557
0.000867167
0.00102032
0.000860054
0.000863504
0.000880795
0.0010538
0.000867366
0.00112708
0.000866791
0.000892024
0.00085805
0.000863178
0.00086123
0.000919491
0.000858974
0.000861062
0.000902728
0.000848276
0.000969392
0.000864451
0.000816549
0.000868436
0.000869734
0.000908242
0.000868266
0.000860995
0.000857496
0.000673214
0.000863682
0.000889074
0.00090372
0.00284088
0.000862822
0.000901524
0.00091793
0.000865586
0.00086724
0.000563255
0.00101292
0.000831471
0.000818164
0.00087331
0.00085634
0.000858296
0.000859716
0.000862483
0.000860161
0.000859679
0.00107476
0.00073464
0.000859084
0.000867715
0.000862562
0.00101379
0.000900909
0.00280036
0.000912274
0.000868009
0.000757128
0.000859844
0.000832722
0.000857358
0.00105498
0.000879267
0.000863637
0.000867354
0.000832256
0.000789557
0.000888342
0.000857473
0.000862026
0.000859784
0.000871839
0.00086037
0.000997659
0.000859198
0.00086174
0.000857717
0.000866861
0.000878577
0.00091726
0.000762257
0.000864309
0.000899479
0.000858803
0.000871443
0.000880631
0.000860357
0.00085355
0.000870903
0.000859825
0.000893487
0.00087569
0.000862347
0.000953517
0.000860992
0.000858125
0.000892529
0.000794982
0.000858811
0.00120261
0.000865521
0.000860664
0.000858235
0.000867058
0.000919209
0.0010542
0.000546777
0.000859817
0.00088678
0.000906846
0.000861042
0.00113166
0.000897411
0.000864979
0.000858496
0.000885426
0.000859183
0.000880557
0.000861506
0.000822194
0.000819972
0.00091805
0.000871463
0.00109287
0.000759675
0.000859374
0.000863532
0.000859848
0.000674143
0.00103745
0.000859145
0.000863341
0.000879236
0.000859111
0.000855634
0.000861718
0.000736763
0.000862563
0.000860973
0.000933407
0.000949819
0.000950414
0.000873086
0.000851529
0.0010583
0.00105532
0.000912245
0.000860866
0.000857867
0.00111734
0.000870976
0.000859991
0.000869133
0.00087009
0.000890246
0.000864091
0.000863612
0.000935314
0.000899018
0.000947505
0.000864552
0.00102829
0.000584994
0.000539266
0.000886399
0.000863121
0.000905542
0.00112979
0.00111167
0.000846405
0.00085988
0.000863344
0.000974213
0.000871714
0.000918253
0.00115304
0.000851015
0.000861893
0.000929245
0.000612018
0.000922819
0.00085989
0.000857846
0.000944579
0.000872381
0.000884233
0.000881051
0.000861871
0.000895564
0.000870289
0.000859704
0.000864056
0.000603615
0.000868091
0.000886239
0.000858959
0.000900841
0.000875823
0.00088934
0.000860363
0.000964594
0.000862598
0.000858442
0.000873002
0.000879921
0.000860413
0.00115901
0.00088701
0.000861565
0.000900699
0.000944422
0.000862096
0.000886208
0.000879675
0.000864468
0.000920588
0.00108943
0.000857498
0.000864347
0.000864965
0.000868496
0.00090367
0.000860634
0.000856901
0.00086976
0.000866536
0.00086248
0.000860955
0.000866634
0.000860143
0.000944692
0.000886481
0.000707025
0.000860314
0.000880401
0.00114586
0.000921491
0.000940417
0.000862329
0.000886602
0.000923656
0.000865535
0.000863666
0.000856046
0.000869139
0.000871349
0.000895836
0.00075851
0.000864551
0.000870036
0.00100666
0.000864937
0.000860712
0.000859671
0.000848057
0.000867836
0.000829737
0.000859412
0.000953794
0.000883681
0.000866753