/*--------------------------------*- C++ -*----------------------------------*\
| =========                 |                                                 |
| \\      /  F ield         | OpenFOAM: The Open Source CFD Toolbox           |
|  \\    /   O peration     | Version:  v1912                                 |
|   \\  /    A nd           | Website:  www.openfoam.com                      |
|    \\/     M anipulation  |                                                 |
\*---------------------------------------------------------------------------*/
FoamFile
{
    version     2.0;
    format      ascii;
    class       surfaceScalarField;
    location    "0.12";
    object      phi;
}
// * * * * * * * * * * * * * * * * * * * * * * * * * * * * * * * * * * * * * //

dimensions      [0 3 -1 0 0 0 0];
oriented        oriented;


internalField   nonuniform List<scalar> 
2776
(
2.36506e-05
0.000230075
-1.17842e-05
-0.000241942
-1.04069e-05
-8.9568e-06
-0.000228177
0.000247541
-2.7749e-05
0.000100902
-9.58442e-05
2.26907e-05
-4.17654e-05
2.21286e-05
0.00017913
-0.000159493
0.000296866
0.000307459
-0.000188488
-0.000415837
0.000180881
0.000182899
-0.000299314
-6.4466e-05
-0.000108463
6.53368e-05
-2.10264e-05
6.41526e-05
0.00014773
-2.49928e-05
0.000152982
0.000303932
-0.000329431
-0.000127484
7.19799e-05
-0.000115577
0.000135644
-9.20469e-05
-1.05622e-05
1.52102e-05
-4.648e-06
0.000426246
-0.000410871
3.90728e-05
-5.44477e-05
-2.1691e-06
2.1691e-06
0.000154498
-5.55154e-05
-8.74513e-05
-1.15318e-05
7.7619e-06
-0.00010244
8.17398e-05
1.29381e-05
-3.603e-06
0.000103912
3.33874e-06
-0.000103648
-3.77134e-05
7.0877e-06
3.06257e-05
0.000178908
6.40861e-05
-1.3616e-06
-0.000241633
-1.43669e-05
5.86331e-05
0.000212576
-0.000256842
5.92651e-05
-5.31373e-05
0.000145102
-0.00015123
6.92875e-05
-6.59767e-05
6.94811e-06
-1.02589e-05
-0.00022975
-0.000267836
0.000417134
8.04525e-05
0.000331982
-0.000298539
-3.3443e-05
1.02553e-05
0.000207777
-0.000190212
-2.78199e-05
9.06214e-05
0.000102286
-3.84089e-05
-2.28209e-06
-6.61596e-06
-3.77961e-06
1.26777e-05
6.53695e-06
-1.15964e-05
2.03266e-06
3.02684e-06
-1.98682e-05
2.38084e-05
-0.000237784
0.000233844
0.000231267
-2.25082e-06
0.00019718
-0.000196052
-1.12815e-06
-3.53602e-05
-1.69799e-05
-0.000176241
-2.6538e-05
5.28221e-05
-0.000172501
0.000146217
0.000199146
-0.00015597
-0.000411558
-5.48714e-05
6.38889e-05
-0.00016708
0.000158063
-0.000346319
3.01535e-07
0.000241883
0.000104135
8.33165e-05
-9.16076e-05
1.6053e-05
2.10335e-05
-1.54411e-05
2.45344e-05
-3.01268e-05
1.67017e-05
5.45141e-05
-4.48575e-05
-2.63583e-05
2.21079e-05
0.000175139
-0.000216223
1.89762e-05
1.70251e-05
-0.000262034
6.17188e-05
0.000395164
-3.06372e-05
-0.0001478
0.000202892
-2.29472e-05
-3.21453e-05
-0.000378815
0.000239834
0.000291964
-7.47313e-05
5.24498e-05
1.29101e-05
9.37146e-06
0.000382129
-0.000341597
-5.41321e-05
1.36002e-05
-8.29412e-05
-6.73685e-05
0.000397889
-0.000247579
2.62711e-05
6.09503e-05
-1.45979e-05
-7.26234e-05
9.48258e-05
-0.00018592
0.000270003
-0.000109117
-3.54819e-05
-3.20138e-06
6.48636e-06
7.14997e-05
-8.69864e-06
4.89638e-05
-5.76674e-05
1.21029e-05
-3.39927e-06
2.87355e-06
3.34127e-05
4.28848e-05
-0.000409598
-0.000162152
0.000194079
-0.000160034
0.000128107
-5.6127e-05
3.01811e-06
5.28172e-05
2.91732e-07
-0.000140264
9.34959e-05
9.10476e-05
-4.42798e-05
-3.06074e-05
0.000118621
-0.000103962
1.59475e-05
-0.000150061
-0.000141392
0.000129301
-1.2957e-05
9.39571e-06
0.000101291
-9.773e-05
0.000142308
0.00011136
-0.000317651
0.000176085
3.02062e-05
9.46186e-05
-0.000199165
0.000102538
2.00867e-06
0.000252394
-0.000190733
0.000132417
-6.30502e-05
9.71497e-06
-1.26415e-05
-1.57741e-05
-0.000219474
0.000242674
-7.42637e-06
-0.000239093
0.000337787
-0.000328444
8.26175e-06
-7.42472e-06
-1.45279e-05
1.36909e-05
-0.000223004
0.000246637
-7.44752e-05
5.08422e-05
3.41445e-06
5.41951e-05
-4.09079e-05
-0.000287147
0.000107897
0.000260515
-8.12641e-05
5.43599e-05
-5.09454e-05
0.000173455
-0.000367964
-0.00024504
-0.000293298
-3.41015e-05
4.02516e-05
0.000157454
-0.000301134
0.000238505
0.000205574
0.000106101
-8.04083e-05
-0.000167902
-0.000124963
0.000142805
-7.00005e-06
1.33915e-05
-2.72409e-05
2.08495e-05
0.000188635
0.000177696
-0.000226139
-0.000140192
6.62243e-05
8.74236e-06
-7.15839e-05
-3.38278e-06
-5.25771e-05
-5.985e-05
3.31048e-06
7.82284e-05
-6.48377e-05
-2.69405e-05
1.35499e-05
1.35145e-05
6.65012e-05
-7.21083e-05
-7.90735e-06
1.38406e-05
5.02741e-05
1.41137e-05
0.000303486
0.000113162
-0.000143153
-0.000273496
0.000260297
1.35605e-05
-3.31803e-05
-0.000240677
-0.000290486
0.000298978
-1.946e-05
1.09679e-05
0.000200949
-4.23788e-05
8.83649e-05
-0.000246935
-3.47454e-06
-6.96819e-05
7.31565e-05
-9.70788e-05
0.000109159
0.000177198
-0.000189278
-5.04754e-05
-0.000136211
0.000191998
-5.31107e-06
3.49652e-05
3.07612e-05
-1.67626e-05
-6.95469e-05
7.25587e-05
-4.14829e-05
-0.000266295
4.30552e-05
0.000264722
1.70535e-05
-3.25391e-05
-0.00013734
0.000152826
1.48265e-05
0.000287691
-2.8113e-05
-0.000274405
4.12667e-05
-2.33899e-05
0.000183072
9.71111e-05
0.000279399
-0.000279861
-1.94062e-05
7.47173e-05
1.80752e-05
-0.000159164
6.63716e-05
0.000196069
-0.000237552
1.58773e-05
-5.86721e-05
5.18844e-05
-9.08962e-06
-0.000219296
-0.00024246
1.45579e-05
-1.75216e-05
-6.00864e-05
1.0006e-05
6.24817e-05
-6.26343e-06
-0.000283872
1.29662e-05
0.000285732
8.76441e-05
-5.76954e-05
4.16566e-05
-7.16054e-05
-1.80575e-05
1.00482e-05
-8.54764e-05
9.34857e-05
1.56663e-05
-3.17032e-05
-3.61559e-05
5.21928e-05
-4.31458e-05
5.39511e-05
4.19182e-05
-5.27235e-05
1.97251e-05
6.10601e-05
-5.88172e-06
3.71262e-06
-0.000228538
-0.000202127
0.000129192
0.000301473
0.000151094
5.18861e-05
-8.37168e-05
-0.000119263
0.000170603
-0.000130274
0.000110764
-1.04441e-05
-0.000290294
1.02523e-05
-0.000119548
0.000150661
0.000133736
-0.000164849
6.57932e-05
4.89334e-06
-6.09716e-05
-1.81911e-05
-0.000172298
0.000222832
-3.23437e-05
8.13787e-05
-2.94927e-05
0.000192449
-0.000106702
0.00021774
9.66118e-05
-1.88289e-05
0.000182514
-6.07283e-05
-1.20228e-05
-7.77637e-05
0.000150515
2.45905e-05
-3.41721e-05
2.21288e-05
-1.25471e-05
-0.000168222
0.000177195
2.59715e-05
-3.49443e-05
-7.83681e-05
0.000175927
-0.000194638
0.000250763
0.000211163
-0.000240838
-0.000221089
-8.10734e-05
-5.41827e-05
7.09334e-05
6.43227e-05
-2.92992e-06
3.03551e-05
-0.000320723
2.02391e-05
1.69704e-05
-0.000221068
0.000183859
-0.000268302
0.000134993
0.000385704
-1.99676e-05
-2.24358e-06
1.43138e-05
7.89741e-06
-0.000178507
-0.000113309
0.000123914
0.000182609
-1.28889e-05
3.31726e-05
1.68401e-05
-7.38889e-05
7.7162e-05
-2.01132e-05
-0.000479277
0.000395553
8.57464e-05
-2.02223e-06
0.000222278
-3.60044e-05
-0.000189203
-9.29689e-05
-2.26081e-05
-3.19443e-06
-6.64875e-05
0.000200086
-0.00017982
-0.000104963
8.46974e-05
-0.000196514
-0.000155782
0.000162259
0.000190037
-0.000160922
6.37739e-05
-0.000110013
9.5752e-05
1.42607e-05
-0.000122035
7.73039e-05
4.47314e-05
0.000202073
1.44445e-05
-0.000185019
-3.14986e-05
-0.000253827
0.000170321
-0.000184796
9.08246e-06
0.000167317
-4.55994e-05
-3.73609e-05
2.29828e-05
3.89686e-05
6.36427e-06
0.000310284
-1.76702e-05
1.50791e-05
-0.000223911
0.000161792
4.70399e-05
0.000100018
0.000149936
-0.000208688
9.61536e-06
1.00194e-06
2.25344e-07
-1.08426e-05
0.000224422
-0.000117443
0.000172952
-0.000272922
-7.2911e-06
0.000107261
3.33867e-05
-2.80078e-05
1.17777e-05
-1.71566e-05
0.000217053
-2.54238e-05
1.97565e-07
0.000291338
-1.21373e-05
0.000225366
-1.73733e-05
-1.65348e-05
-0.000191458
0.000317544
1.69627e-05
-9.25191e-05
-0.000299983
-4.31406e-05
6.32631e-05
0.000113844
-0.000183192
0.000413624
-0.000314139
1.04642e-05
-0.000109949
0.000133209
-0.000115592
-1.76175e-05
-0.000157307
9.82381e-05
1.05184e-05
4.85506e-05
-2.53248e-05
5.52286e-06
2.63389e-05
1.61174e-05
-7.55099e-05
7.29071e-05
-5.41259e-06
2.59786e-05
4.59351e-05
2.72737e-05
-4.85386e-05
-1.29073e-05
-0.00023405
0.000106577
-0.000126355
-6.27787e-06
-7.60067e-06
0.000355633
-0.000234307
-0.000131732
-3.53069e-05
-0.000226495
-3.81813e-05
-0.000162289
0.000147019
-0.000109693
6.87473e-06
-2.45998e-05
-8.47148e-05
-9.84002e-05
-0.000252822
6.09801e-05
-6.23517e-05
1.72489e-05
-3.98098e-05
8.00525e-05
-0.000121316
3.17126e-05
0.000159518
8.35941e-05
0.000220215
8.40563e-06
0.000106682
6.44655e-05
-6.79887e-05
1.35293e-05
0.000138025
-0.000252035
-0.000143556
0.000257567
7.4161e-05
-7.1934e-06
1.63489e-05
2.78478e-05
0.00018347
-6.95768e-06
-0.000176512
-0.000147073
0.000116105
3.0968e-05
3.97617e-05
0.000113055
-2.99952e-05
6.05528e-05
3.04226e-05
-0.000102118
0.000103535
4.61524e-05
-1.80758e-05
0.000367477
-2.35367e-05
1.78955e-05
-7.75001e-05
8.31413e-05
-2.97468e-05
9.38542e-05
-7.59021e-05
-7.98479e-05
9.80546e-05
5.12351e-07
3.19824e-05
2.09373e-05
3.09332e-05
-4.3919e-05
1.57601e-05
-2.77426e-06
1.14635e-05
-7.65384e-06
1.1432e-05
-0.000129022
-3.97169e-05
4.44033e-05
-5.44904e-05
-0.000129033
0.00016436
-7.08092e-05
1.35772e-05
0.000181929
-9.09729e-05
-0.000158324
-9.49125e-05
1.01797e-05
-2.44414e-05
6.10145e-05
-4.11755e-05
4.60243e-06
-7.76056e-05
7.10597e-05
-0.000140632
4.39308e-05
9.72138e-05
4.3475e-05
-2.76532e-05
1.51114e-05
5.87246e-05
-3.90434e-05
-2.98595e-05
1.01783e-05
1.18414e-05
1.49147e-05
-1.52304e-05
-6.60405e-05
2.26814e-05
5.85895e-05
-2.3772e-05
-1.36086e-05
3.73806e-05
0.00013131
-5.5325e-05
-0.000159702
-0.000235226
2.66831e-05
0.000174442
-0.000179526
-3.79689e-05
0.000224622
-7.12719e-06
-0.000303823
1.57958e-05
0.000311678
-0.000102558
0.00015822
3.98101e-05
2.48209e-05
-3.6808e-06
8.00191e-05
-0.000215615
-9.84539e-05
2.99729e-05
5.8567e-05
-4.87297e-05
9.86743e-05
-8.3955e-05
9.61062e-05
5.81614e-05
-0.000136225
-1.80431e-05
1.93646e-05
4.57557e-05
-2.99035e-05
-3.52168e-05
-0.000313879
-0.000174182
0.000182651
0.000305409
-4.60594e-05
6.34181e-05
-5.18549e-07
0.000170844
-0.000221345
0.000146407
-9.59053e-05
0.000197545
-0.000215486
4.10766e-05
-2.31357e-05
-7.89784e-05
6.1863e-05
4.52234e-05
-2.8108e-05
2.96248e-06
6.31369e-05
-5.32051e-05
3.44714e-05
-5.35825e-05
5.40233e-05
-7.94192e-05
0.000155298
-4.83851e-05
-5.938e-05
7.49653e-05
-5.25272e-05
0.000136271
-0.000146217
-4.13396e-05
-4.68553e-05
7.86701e-05
-5.51365e-06
0.000149299
-1.99701e-06
-0.000196633
-4.27512e-05
4.03245e-05
-2.09599e-05
1.33376e-06
-4.93045e-06
3.59669e-06
-6.15942e-05
-2.7385e-06
5.35329e-05
-1.32084e-05
6.28913e-05
0.000225762
0.000328174
-4.91875e-05
-0.000291035
1.20488e-05
-9.29262e-05
-8.86837e-05
0.000210398
-0.000182707
0.00022143
-5.70657e-05
-1.72944e-05
-2.63166e-05
0.000371785
-3.33026e-05
0.00010161
6.2377e-05
0.000318472
3.27747e-05
-0.000262139
0.000199729
0.000347907
-0.000285497
4.16988e-05
-2.90336e-05
-5.89405e-05
4.987e-05
-0.000380837
0.000411677
-4.81336e-05
-2.36678e-05
0.000221261
-0.000233473
-6.58408e-05
7.07597e-05
3.68168e-05
-9.46383e-05
-0.000501133
-4.75943e-05
-1.59644e-05
3.4615e-05
-2.25312e-06
6.8204e-06
-4.84863e-05
-0.000234597
-0.000183847
0.000314793
0.000103651
1.00939e-05
-0.000241656
-2.12595e-05
2.11129e-06
-1.50086e-06
6.28077e-05
-3.20344e-05
9.7406e-05
8.70883e-05
-0.000113059
-4.63711e-06
-1.83395e-05
9.25885e-05
-3.59376e-05
-5.52198e-05
2.72934e-05
-2.36984e-05
-8.06128e-06
1.0964e-05
2.31753e-05
-1.20105e-05
-4.51734e-05
4.83403e-05
-7.25703e-06
4.09013e-06
-6.16997e-05
-8.73918e-06
6.24737e-05
7.96516e-06
4.54852e-05
-5.45216e-05
-3.81097e-05
4.71462e-05
9.47875e-05
-0.000189992
0.000158867
-0.000148866
0.000179991
-2.35131e-05
0.000286042
5.51637e-05
-2.64562e-05
-0.000153542
-0.000335178
-1.2413e-05
0.000117417
-3.97975e-05
8.14818e-05
-0.000159102
-0.000173391
-0.000286619
9.99348e-05
0.000117581
-0.000137464
1.88123e-05
-6.26691e-05
5.11728e-05
-7.31598e-06
8.74494e-05
-0.000231568
0.000282143
-0.000232382
0.000230308
0.000252947
-0.000250872
4.16628e-05
2.06245e-05
5.69919e-05
3.27924e-05
3.1515e-05
-1.7163e-05
2.33702e-05
-3.77222e-05
0.000186888
4.59214e-05
-5.37345e-06
1.81172e-05
-5.86651e-05
0.000114723
4.81796e-05
-6.99259e-05
-6.78347e-06
5.21096e-05
1.70917e-05
-0.000131148
0.000137252
-2.31959e-05
2.7157e-05
-7.95351e-06
3.74782e-05
-5.66817e-05
7.51747e-05
4.9782e-05
2.0999e-05
-1.0035e-05
0.000263792
0.000296356
-0.000143829
-0.000303907
0.000273555
-2.40197e-05
1.75037e-05
4.14812e-05
-5.01193e-05
3.21024e-06
-0.000294423
0.000111374
0.00035337
7.13314e-05
4.03388e-05
-4.80097e-05
5.41779e-06
-3.97069e-05
4.29014e-05
-1.91589e-05
-7.58938e-06
-5.30444e-06
0.000289505
0.000143164
-0.000386516
1.11728e-05
3.49853e-05
-6.603e-05
1.36195e-05
0.000179424
-0.00018586
0.00013035
-2.24602e-05
-7.29268e-05
-2.59292e-05
0.000126419
-0.000147668
2.12489e-05
6.0288e-05
-0.000117529
5.72412e-05
3.80874e-06
1.91107e-05
-2.29195e-05
-3.31796e-06
8.44277e-06
-5.12481e-06
-3.35606e-05
3.52258e-05
-1.66523e-06
-3.69774e-06
-2.09607e-06
5.79381e-06
1.89302e-05
1.66394e-05
-3.55696e-05
-4.28838e-05
2.7684e-05
1.51998e-05
6.82141e-05
-7.75256e-05
9.31154e-06
8.24166e-07
-4.14213e-06
-0.000159516
6.38393e-05
9.5677e-05
3.78921e-06
5.64988e-05
9.91581e-05
2.72612e-05
3.78674e-05
-3.67237e-05
-1.14371e-06
-6.25562e-06
-9.0381e-05
7.63143e-05
1.40667e-05
1.19301e-05
-6.42046e-05
2.13207e-05
8.1235e-05
-1.3021e-05
-4.74176e-05
7.44539e-05
-2.70363e-05
-1.57518e-05
-1.11657e-05
2.69175e-05
2.92437e-05
-2.5435e-05
-8.31011e-06
3.37967e-06
6.06799e-05
-6.02324e-05
-4.47501e-07
-5.63236e-05
4.53231e-05
1.10005e-05
-5.27242e-07
1.1255e-05
2.07873e-05
-0.000192109
-0.000200753
0.000202871
0.000144847
-0.00011595
7.53856e-05
-3.42054e-05
0.000175065
-0.000101027
-0.000102951
-9.42734e-06
4.48303e-05
6.75477e-05
3.4087e-05
9.91136e-06
2.51612e-05
-5.40827e-05
0.000272984
0.00032963
2.38363e-05
-2.71851e-05
0.000110974
0.000135672
-8.77796e-05
0.000162195
-0.000183077
0.000111061
-0.000184401
2.48846e-05
-5.32262e-05
0.000303351
-0.000250125
-4.31685e-06
-7.30908e-06
-2.87358e-06
2.49114e-05
-3.52467e-06
3.62003e-06
5.05058e-05
-5.18269e-06
-8.12839e-05
2.10516e-05
2.16325e-05
3.90844e-05
2.47549e-05
3.14732e-05
-2.83069e-05
3.7123e-05
0.00049267
-2.83184e-05
2.77911e-05
1.75735e-05
-0.000267899
8.00528e-05
-2.71562e-05
0.000218445
-0.000126849
-6.44402e-05
-1.26192e-05
-2.25662e-05
-0.000241106
-5.40709e-05
7.06003e-05
4.90379e-05
-2.48506e-05
-4.93342e-05
6.03527e-06
-2.8389e-05
3.42655e-05
-6.52565e-05
2.17394e-05
-4.043e-05
-5.92149e-05
7.79055e-05
-7.5213e-05
8.47308e-05
1.22216e-05
-0.000272777
4.7796e-05
1.70488e-05
0.000207932
-8.24704e-05
-0.000190353
5.7208e-05
8.25139e-05
-0.000299046
0.000382036
-0.000165504
3.21717e-05
-5.18517e-06
4.12686e-06
-0.000109731
-0.00016947
0.00019673
9.98734e-06
-1.16951e-05
-8.93137e-06
3.08206e-05
4.51501e-05
-7.28276e-06
-0.000105591
1.52103e-05
9.43691e-06
-5.62862e-06
-6.68188e-06
2.94537e-05
-0.000152978
-6.68287e-05
1.40875e-05
5.97972e-05
0.000503236
-0.000109104
-0.000567523
-7.65456e-06
-3.76345e-05
1.1562e-07
-0.000314084
-0.000108093
0.000225662
-0.000280431
-0.000239797
0.000258088
6.93681e-05
2.9223e-05
-6.65246e-05
-3.20664e-05
-2.69589e-05
2.21226e-05
3.08853e-05
-2.6049e-05
-6.49968e-06
5.5058e-06
5.56023e-05
0.000219337
-0.000245486
-4.54814e-05
0.000383404
-1.53307e-05
-0.000303824
0.000286301
3.28535e-05
-3.34874e-05
6.44126e-05
0.000132833
-0.000163758
-8.52188e-05
-0.000296509
6.76438e-05
0.000234705
-0.000212059
-0.000236718
0.000214072
2.00432e-05
-1.7511e-05
-7.77452e-05
9.83998e-05
-0.000111844
-0.000167103
0.000219417
0.000182392
-1.35596e-05
-2.68705e-05
-0.000326952
0.000356042
-0.000296926
-0.00025584
0.000291732
-0.00028316
0.000247268
-0.000356549
-0.000226242
9.93087e-05
-8.69252e-05
-0.000368933
-0.000399958
-0.000180098
0.000424086
0.000247816
-0.000217917
3.4065e-05
-0.000192261
-5.30843e-05
2.74284e-05
3.86683e-05
-3.30561e-05
-4.97367e-05
-5.24929e-06
-0.000257909
0.000255778
-8.30871e-05
-5.91362e-05
7.16116e-05
0.000277126
-0.000289602
0.000308116
-0.000220667
0.000334635
4.86766e-05
-0.000442448
0.000373971
-8.02564e-05
-0.000309045
-0.000100682
8.14629e-07
2.44457e-05
0.000152099
-0.000177359
0.000354666
0.000229011
-0.000396569
-0.000187108
-1.10595e-05
0.00011132
-0.00010026
-3.62188e-05
-4.0507e-05
0.000176328
1.46567e-05
-0.000119373
-1.99753e-05
-0.000142427
2.62215e-05
0.000136181
0.000249607
0.000105874
0.000245016
-0.000150334
0.000279289
-6.67911e-05
0.000401069
-0.000300916
-3.33613e-05
-0.000352483
0.000225373
6.03186e-05
-0.000189986
0.000357434
-0.000237312
6.98635e-05
-9.37141e-05
0.00023629
-0.000354635
-0.000447951
0.000231026
2.69386e-05
0.000277054
-0.000274637
0.000242599
-8.24323e-05
-1.67932e-05
7.92502e-05
0.000221865
-0.000175254
-0.000225603
0.000178992
0.000273818
-6.33716e-05
-0.000290703
7.73785e-05
-2.771e-06
-5.01618e-05
8.56456e-05
-0.000276844
-0.000161284
-0.000232024
0.000244683
0.000264395
1.2444e-05
2.47826e-05
-3.72265e-05
0.000207222
-5.04416e-05
-0.000250494
-0.000105729
0.000229213
3.70306e-05
-5.99898e-05
-0.00023495
-0.000175114
0.000192783
0.000204195
-0.000124386
0.000193573
-2.49243e-05
0.000190193
-0.000113104
9.18605e-06
0.000103918
7.88911e-05
1.46989e-05
0.000241045
-4.63145e-05
-1.06792e-05
3.86308e-05
-2.65932e-05
2.73186e-06
1.07738e-05
-1.35056e-05
0.000331093
-7.39024e-06
1.70618e-05
-3.67129e-05
-3.79976e-05
-3.47699e-05
-8.28924e-05
7.98938e-06
1.07212e-05
5.5605e-06
-0.00025109
0.000231163
3.80869e-05
-0.000147534
0.000131555
-2.56087e-05
-3.75402e-05
-1.64288e-05
-5.40169e-05
5.41061e-05
-7.22379e-05
-2.93678e-06
-0.000121873
-1.79895e-07
0.000127613
5.21874e-05
-6.25393e-05
-3.61535e-05
3.32837e-05
1.35151e-05
-1.85552e-05
-3.07915e-05
3.58315e-05
6.93359e-05
-0.000181171
-4.51953e-06
7.62351e-05
-3.61789e-05
-0.000161929
4.28572e-05
-5.60988e-05
4.91683e-05
1.12256e-05
2.22174e-05
-1.99279e-05
0.000214686
-0.000159083
-0.000162395
-1.24605e-05
7.52987e-05
-2.75463e-05
-0.000262437
0.000226612
-0.000115652
2.54863e-06
-4.33268e-06
4.56823e-05
2.09083e-05
-3.57052e-05
5.21623e-05
-7.78955e-05
-4.07915e-05
-3.54392e-05
1.41691e-05
1.01012e-05
-1.30447e-05
7.21052e-05
1.11404e-05
-0.000236223
-0.000418775
-0.000214919
0.000194233
4.69076e-05
-3.5689e-06
-0.000290298
-5.82717e-05
0.000352139
5.17498e-05
0.000256164
0.000281139
-0.000136234
-0.000197521
-1.05246e-06
0.000274289
0.000210886
-3.15173e-05
0.000175309
2.7686e-05
6.22854e-05
0.000271931
0.000108232
4.44846e-05
-6.09256e-05
5.69891e-05
-0.000167667
0.00021183
0.000176567
-0.000161545
0.000198261
-2.06571e-05
-0.000315041
3.18741e-05
-0.000183159
0.000174976
1.0732e-05
0.000244466
6.36503e-05
2.72371e-05
0.000217229
5.67663e-07
5.19555e-05
2.53823e-05
2.70078e-06
4.63577e-06
1.42316e-05
-3.25068e-06
1.31567e-05
4.26305e-06
4.61828e-05
-4.80478e-05
1.98065e-06
-0.000118218
-0.00017459
6.19006e-05
-0.000265487
-0.000296303
0.00013235
-0.000226654
0.000203744
-0.000312273
0.000325311
-3.24442e-05
0.000256039
7.77544e-05
8.46486e-06
-9.07346e-06
2.60542e-05
4.01172e-05
-5.7371e-05
4.09684e-05
-0.0002743
-2.23511e-05
-0.00019292
-0.000279691
5.81938e-05
3.4167e-05
3.88922e-05
4.44212e-05
4.50019e-05
-0.000313461
-3.96612e-05
0.00030812
-0.000288734
7.11101e-05
1.23838e-05
-6.25856e-05
6.77761e-05
-9.38668e-05
-5.18048e-05
-3.6791e-06
5.64008e-05
-6.03756e-05
9.80159e-05
-0.000299953
-8.76633e-05
-0.000230901
0.000208653
0.000109911
-0.000111672
-0.000189738
-0.000248409
0.000169207
-0.000197642
5.70722e-05
-4.72269e-05
-5.97414e-05
6.48234e-06
7.00268e-05
-0.000329505
-0.0002873
-0.00014263
-3.55533e-06
4.87507e-05
-4.69741e-05
1.77876e-06
4.29211e-05
-1.96369e-05
8.60508e-08
-9.87125e-05
-0.000202238
-0.000300107
6.9117e-05
0.000275992
-0.000160579
-0.00012604
0.000131668
-8.7489e-05
6.86106e-06
4.98451e-05
-3.07578e-05
-7.35777e-05
1.90593e-05
-0.000257169
5.07904e-05
-0.000281737
1.25288e-06
5.08432e-07
6.30345e-05
-6.47958e-05
6.27335e-05
9.49662e-05
-4.67256e-05
-9.49296e-06
-0.000261746
-0.00032425
-2.36269e-05
6.27983e-06
-6.6395e-05
0.000115201
-8.0305e-05
-0.000270735
0.000204489
7.97441e-06
7.6415e-05
-0.00048219
0.000405775
9.56037e-06
8.80259e-06
-0.000169151
2.02142e-05
-0.000280751
5.2289e-07
5.68347e-05
-6.66272e-05
5.6738e-05
-4.69455e-05
3.87367e-06
-3.6872e-06
6.0828e-05
-0.000361779
0.000263301
0.000166122
-0.000164193
-5.69281e-05
0.000294844
0.000384227
-2.11053e-05
0.000343996
7.49985e-05
-7.32826e-05
-3.16153e-05
3.70919e-05
6.7806e-05
-0.000180715
0.000136583
-0.000254915
-0.000312559
0.000108934
-6.23408e-05
0.000265966
0.000130065
-5.27606e-05
0.000147651
-5.18994e-05
-0.000461348
9.72116e-05
-5.02432e-05
5.35998e-05
-6.64321e-05
-0.000213333
8.16161e-05
-6.59226e-05
0.000151623
2.73339e-05
-0.00020515
-0.000133634
0.000335597
-0.000205293
0.00022713
8.95173e-05
1.53783e-05
-9.25118e-05
7.46292e-05
-0.000106139
-6.23569e-05
-6.62181e-06
-1.10228e-05
2.41424e-06
6.35379e-06
-1.46071e-07
-0.000485826
0.000396172
-0.000144944
2.30679e-05
-0.00031482
5.20618e-05
-4.95818e-05
-0.00018793
0.000199594
0.000346258
-2.7738e-05
-0.000120031
-0.000198489
0.000159143
-1.75321e-05
0.000342016
-0.000297247
-0.000455289
0.000205106
0.000165376
-0.000217682
1.52507e-05
3.48781e-05
-4.20741e-06
7.10745e-06
-6.65594e-06
9.10886e-06
0.000340191
-1.96764e-07
-4.55924e-05
4.66291e-05
-0.000152881
-7.85707e-05
8.2586e-05
1.32714e-06
-3.686e-05
6.26899e-05
8.1732e-06
0.00011114
-0.000102222
-6.84805e-05
1.14141e-05
0.00032698
-8.14346e-05
-0.000245546
-0.000125884
-0.000142423
0.000130844
-7.74114e-05
-2.34486e-05
6.92448e-05
-0.000140896
0.000256317
-9.66689e-05
6.91841e-05
4.43015e-06
-5.47423e-05
-6.49762e-05
1.37446e-05
0.000203634
0.000141773
-0.000330708
-8.21643e-05
-0.000347861
9.69411e-05
3.55749e-05
5.64543e-05
5.18237e-06
0.000180463
-4.72543e-05
-0.000209338
0.000143827
-9.43775e-05
1.62182e-05
-0.000192503
7.28571e-05
-6.92144e-05
-6.52837e-05
1.38847e-05
1.71443e-05
0.00014863
-5.932e-05
-4.86082e-07
0.000167441
-0.000238129
-0.000116419
1.32364e-05
-5.89553e-06
-0.000290033
-6.53803e-05
7.9745e-06
6.37543e-05
-3.61539e-05
-0.000221515
0.00020803
0.000193476
0.000290452
8.06334e-05
-9.56223e-05
-0.000275464
-6.81847e-05
1.64303e-05
3.92321e-06
-4.53502e-05
4.58572e-05
0.000316689
-0.000161807
-0.000108098
-0.00019475
0.000242015
3.56097e-05
5.31992e-05
0.000437564
-0.000443314
0.000354241
2.18635e-05
-0.00017076
-6.35861e-05
-7.37478e-05
2.04778e-05
-2.40416e-05
8.84703e-05
-2.82139e-06
8.85623e-06
9.78776e-05
-0.000245182
1.25841e-06
-0.00015521
0.000484758
5.21338e-05
0.000144726
0.00013817
0.000311758
-0.000351612
-9.83159e-05
-8.80969e-06
7.39635e-05
-2.30722e-05
-4.20816e-05
0.000292958
-5.6335e-05
-0.000108549
-8.16822e-05
2.42832e-05
7.02133e-05
-4.30361e-05
-8.47422e-05
5.75649e-05
4.72715e-06
-8.11539e-05
-6.33117e-06
8.2758e-05
5.31355e-05
3.99699e-06
1.25354e-05
-1.68619e-08
-0.000280621
0.00030812
-5.5095e-05
-1.30578e-05
4.47042e-05
4.32172e-05
3.47925e-05
-9.50594e-05
0.000109184
6.61667e-05
-3.7141e-06
-5.42794e-05
6.34424e-05
-1.21953e-05
-3.49813e-05
-9.86609e-05
0.00014029
6.42402e-07
-1.04131e-05
-3.66977e-05
1.39365e-06
5.38784e-05
9.42309e-05
-8.89374e-05
-5.29351e-06
0.000219608
0.000216135
-3.30776e-06
-9.04629e-05
2.48337e-05
-7.05792e-05
6.06611e-05
-3.87574e-05
-5.60117e-06
-0.000225956
0.000109306
9.80239e-05
-1.59862e-06
0.000208751
-8.89061e-05
-6.97949e-05
5.7581e-05
2.63015e-05
-8.99714e-05
-3.92903e-05
-0.000203071
0.000191203
-0.000149469
1.91419e-06
-1.16953e-05
0.000146562
0.000138028
-3.28578e-05
-0.000292874
-4.58427e-06
-8.32161e-05
-0.000443838
-5.03285e-05
-6.67428e-05
-5.81427e-05
8.92259e-05
-1.4772e-05
-0.000383167
-1.22931e-05
0.000377384
-8.82246e-05
-5.31414e-05
-6.53863e-05
0.000201774
0.000174836
-0.000172892
1.77407e-05
2.34182e-05
-7.66157e-06
-1.3724e-05
-0.000208009
0.000103147
0.00017223
-6.73679e-05
3.87554e-05
-0.000175477
5.20911e-05
4.19899e-05
0.000185115
5.47005e-05
-2.85704e-05
-0.000100489
-0.000120368
-0.000317803
-5.12071e-05
0.000208089
-1.6646e-05
9.80903e-05
-7.44515e-05
8.22135e-05
-7.76192e-06
-6.97244e-05
0.000382702
-0.000227898
0.000141336
-0.00029614
9.22617e-05
-6.68247e-05
-2.89968e-06
3.12833e-06
-9.38395e-06
0.000336072
-3.93756e-06
-1.31973e-05
0.000105459
-3.61796e-05
-3.06451e-05
-8.04688e-05
5.37901e-05
2.66787e-05
-0.000181347
0.000103436
7.79113e-05
-5.0281e-05
-2.56214e-05
4.87173e-05
-4.05045e-05
4.44277e-05
6.1529e-05
-4.35177e-05
-4.71483e-05
2.9137e-05
8.62282e-05
-0.000248823
-7.93919e-05
5.98649e-05
-4.19754e-05
-8.42845e-05
-0.000196588
0.000214615
-1.80272e-05
-1.73662e-05
-1.16835e-05
0.000130489
-5.83429e-05
-0.000138069
0.000133335
-0.000267589
1.91561e-05
0.0002743
-0.000281747
0.000185735
-0.000194465
-4.69598e-05
0.000136737
-7.97189e-05
-2.33142e-05
7.09987e-05
0.000174846
-0.000156083
-1.87631e-05
-9.1472e-05
-6.85684e-05
0.000112786
7.93474e-05
-0.000112484
5.30583e-05
-0.000124158
0.000132039
-9.13497e-05
3.99339e-05
9.33529e-05
-0.000220277
-2.17417e-05
-6.75999e-05
2.12602e-05
9.25275e-05
-4.61879e-05
0.000121172
-0.00012124
0.000268562
-0.000268494
0.000117147
-0.000175481
0.000292107
-0.000233474
7.69922e-05
-0.000137299
5.1102e-05
-1.5712e-05
-4.41996e-05
-6.40458e-05
-8.28226e-05
8.33275e-06
-1.86977e-05
-0.000338011
-2.2078e-05
0.000347628
-0.000256665
0.00011574
0.00016629
-7.86586e-06
-8.00528e-05
6.12634e-05
1.13786e-05
4.58017e-06
5.18472e-05
2.28677e-05
0.000133863
-1.71546e-05
-0.000116708
0.000186888
-0.0001678
5.11254e-05
1.83447e-05
-0.000109927
-3.95659e-05
2.16726e-05
2.35211e-05
-5.31472e-05
4.97018e-05
6.27203e-05
0.000199751
-0.000164271
8.8756e-05
-0.000124192
5.8e-05
9.34215e-07
4.92101e-05
-0.000292228
-0.000243791
-9.78421e-05
6.02566e-05
2.26783e-05
4.07913e-05
-4.93747e-05
2.3256e-05
0.000135751
2.38567e-05
7.03742e-05
-0.000141293
-0.000168358
-5.03293e-05
2.43997e-06
3.8958e-05
2.26183e-05
5.12066e-05
-9.30625e-05
1.89134e-05
-0.000197384
0.000287218
1.20694e-05
7.71565e-05
-5.4475e-05
-0.000162908
-0.000221049
0.000242664
-0.000165315
9.61953e-06
4.93256e-06
-0.000207741
-1.63903e-06
-6.76772e-05
0.000157673
-0.000196676
-0.000388826
0.000445892
-1.07669e-05
-6.00504e-06
-0.000144386
-0.000274258
0.000392327
-0.000230512
-5.57754e-05
-4.85201e-05
4.97729e-05
-5.0885e-05
2.36495e-06
7.7872e-06
-1.13492e-05
0.000234776
-0.000231214
5.63121e-05
-3.58171e-05
6.07214e-05
-6.32033e-05
-2.76785e-05
3.01604e-05
5.03922e-05
3.55435e-05
-6.30747e-05
-2.28611e-05
9.17197e-05
4.0877e-06
-1.60654e-05
-3.77376e-05
1.14581e-06
7.07164e-06
-2.32103e-05
-9.29629e-06
-6.71031e-05
-4.11522e-05
-0.000445163
-9.19633e-05
0.000444064
-6.20479e-05
-5.43102e-05
-5.1281e-05
6.12282e-05
-1.60781e-05
3.67126e-05
-3.5971e-05
5.99797e-05
-0.000506678
0.000261399
-0.000278532
0.000267896
-8.28394e-05
-1.21425e-06
0.000255585
-0.000134701
-0.000180874
0.000214037
0.000263631
-0.000294704
0.000281954
0.000150921
-5.80138e-05
-8.57541e-05
0.00022337
-5.23514e-05
1.40599e-06
-1.00087e-06
0.000123176
-1.93455e-06
3.71603e-05
-8.08127e-05
-3.54299e-05
-0.000139029
-2.85861e-06
-4.50613e-05
-3.49195e-05
0.000276203
9.98436e-05
2.91918e-05
0.000102529
0.000127592
-4.34808e-05
3.95076e-05
-9.0254e-05
-0.000198249
-2.68725e-06
-6.80429e-06
-2.19277e-05
-0.000179594
0.000245226
-7.10991e-05
-2.93891e-05
-1.02525e-05
4.67132e-05
-8.30185e-06
7.89021e-05
0.000180794
9.07604e-05
2.55783e-05
9.89313e-05
-1.16973e-05
-7.58855e-05
4.40167e-05
-0.000139381
0.000149657
7.76276e-05
0.000174406
0.000228552
0.00021948
0.000177366
-0.000182774
0.000225203
-6.83158e-05
4.97023e-05
4.70906e-05
-1.46075e-05
4.74646e-05
2.80835e-06
0.000206341
-1.25137e-05
3.62486e-05
5.31705e-05
-5.57326e-05
-8.77906e-05
0.000191919
0.000120335
-0.000224464
-8.88455e-05
0.00013152
6.85496e-05
-7.01734e-05
-7.88789e-06
4.91093e-05
-2.99211e-05
0.000226925
0.000184276
-0.000129058
6.39845e-06
-6.8889e-06
6.84424e-06
1.02327e-05
8.84345e-06
6.08269e-05
2.35238e-05
-0.000221963
0.000222247
-0.000291351
9.44455e-06
-6.12371e-05
4.43676e-05
2.62532e-05
-0.00036412
0.000264555
-8.00287e-05
-3.98733e-05
2.15994e-06
-7.23858e-05
6.345e-05
-6.63244e-05
0.000319232
6.71493e-05
-3.7061e-06
-9.44977e-05
-3.16071e-05
-1.57401e-05
0.000159864
0.000153898
-6.91013e-05
3.45142e-05
3.45871e-05
-9.97294e-05
-5.22485e-05
4.18782e-05
1.03704e-05
6.55891e-05
-0.000465819
0.000461949
-0.000119818
2.06387e-05
-8.35276e-05
-0.000182038
0.000123009
1.9631e-06
0.000342833
0.000109573
-0.000195607
0.000219644
-8.00334e-05
6.49414e-05
-6.60327e-05
-2.89337e-05
2.15505e-05
3.31533e-05
1.05052e-06
-5.55165e-05
-0.000138096
-0.000231111
0.000267007
-0.000130096
-6.96703e-05
-0.000132975
9.68721e-05
-3.0202e-05
5.81278e-05
-5.78294e-05
-4.24187e-05
5.16877e-05
-9.26898e-06
-3.44211e-05
-7.99763e-06
2.991e-05
-2.82684e-05
-1.64159e-06
-4.51112e-06
-0.000115084
0.000121804
-6.71943e-06
-9.76364e-05
-1.74478e-05
0.000112847
9.317e-05
1.96769e-05
6.10834e-05
8.67098e-05
6.46014e-06
9.33527e-05
-6.64283e-06
6.8346e-05
-7.26259e-06
7.16847e-05
6.88633e-05
5.39113e-06
-0.00028649
6.19859e-05
6.87749e-06
9.73731e-06
-7.29551e-05
0.000220696
0.000247423
0.000107955
-0.000133123
5.1786e-05
-1.68194e-06
-5.01041e-05
0.000103608
0.000376061
0.00018581
-6.92006e-05
0.000115412
2.89596e-05
-2.11955e-05
-2.53461e-05
3.40461e-05
8.74062e-05
-1.01e-05
-0.000192071
-1.09797e-05
-2.58304e-05
6.94413e-05
-7.53601e-05
0.000152337
-0.000147369
-4.96758e-06
-3.73648e-06
-0.000109536
1.16938e-05
1.88432e-05
-2.53796e-05
-0.000209696
0.000132628
0.00015855
0.000158311
-5.97416e-06
0.000109852
-4.46174e-05
1.96752e-05
-7.26794e-05
0.000113556
-9.94774e-06
-0.000111751
-1.29669e-05
7.91257e-05
0.000463748
0.000214813
2.81872e-05
0.000210685
6.61847e-05
-8.02545e-05
0.000167379
-0.000194758
-4.69061e-06
5.52797e-05
-5.41138e-05
5.34682e-05
-9.06956e-05
6.21388e-05
0.000194675
3.25573e-05
2.47939e-05
-0.000251743
0.000270004
0.000229204
0.000265574
-0.00014115
-6.21878e-06
0.000123884
-1.03286e-05
-0.000138096
-8.72944e-06
0.000123249
-0.00010112
-0.000206649
-0.000151698
-0.000272077
-0.000131672
-9.47857e-06
-0.000247789
-0.000270681
2.38863e-05
0.000361807
8.14746e-05
-6.89334e-05
0.000398537
-0.000103989
-2.89178e-05
-0.000204616
1.54132e-05
-0.000147023
0.000134509
-5.2056e-05
0.000175305
9.63651e-05