/*--------------------------------*- C++ -*----------------------------------*\
| =========                 |                                                 |
| \\      /  F ield         | OpenFOAM: The Open Source CFD Toolbox           |
|  \\    /   O peration     | Version:  v1912                                 |
|   \\  /    A nd           | Website:  www.openfoam.com                      |
|    \\/     M anipulation  |                                                 |
\*---------------------------------------------------------------------------*/
FoamFile
{
    version     2.0;
    format      ascii;
    class       volScalarField;
    location    "0.05";
    object      k;
}
// * * * * * * * * * * * * * * * * * * * * * * * * * * * * * * * * * * * * * //

dimensions      [0 2 -2 0 0 0 0];


internalField   nonuniform List<scalar> 
1466
(
0.135267
0.17467
0.135514
0.135966
0.165106
0.163722
0.289479
0.170166
0.145301
0.166267
0.120403
0.202324
0.0714113
0.140511
0.131867
0.117496
0.082753
0.16847
0.246527
0.123063
0.131974
0.166724
0.135353
0.167223
0.144957
0.142135
0.178933
0.146796
0.148593
0.144768
0.172521
0.174594
0.159144
0.191368
0.209293
0.132914
0.129335
0.127985
0.234281
0.146247
0.198028
0.144739
0.152919
0.169825
0.153844
0.15732
0.13206
0.15378
0.144497
0.132048
0.134834
0.153749
0.142912
0.136179
0.144581
0.143245
0.11724
0.164113
0.133844
0.140936
0.118051
0.142926
0.15125
0.14993
0.177725
0.13187
0.148448
0.131922
0.138259
0.160757
0.133268
0.135297
0.121095
0.138483
0.086715
0.168832
0.13565
0.149744
0.189682
0.137691
0.129467
0.14399
0.13183
0.143939
0.126508
0.132412
0.127278
0.200361
0.149414
0.167063
0.133841
0.106983
0.134665
0.135706
0.135121
0.12807
0.188716
0.136815
0.16717
0.13219
0.166116
0.151351
0.141025
0.19282
0.131805
0.154552
0.131902
0.131902
0.154027
0.138984
0.130775
0.13123
0.132773
0.129955
0.0799016
0.140917
0.108884
0.12325
0.163306
0.149104
0.127533
0.151605
0.111118
0.249074
0.154122
0.141783
0.12875
0.176129
0.135485
0.136473
0.143837
0.135729
0.214811
0.161036
0.132256
0.135241
0.145452
0.131577
0.145387
0.13336
0.159827
0.105685
0.137344
0.136427
0.148628
0.125023
0.236721
0.163859
0.159473
0.123438
0.137065
0.133091
0.17296
0.184991
0.13947
0.15111
0.140464
0.215095
0.163194
0.166268
0.150933
0.13094
0.187995
0.127754
0.150273
0.134217
0.137988
0.172596
0.131023
0.192483
0.129975
0.132694
0.130752
0.150669
0.155821
0.196176
0.148551
0.137564
0.132311
0.135485
0.154779
0.132447
0.145966
0.142719
0.217507
0.13171
0.132514
0.158838
0.132658
0.17753
0.228369
0.124716
0.132597
0.182616
0.132299
0.138532
0.142408
0.13489
0.136811
0.14246
0.180369
0.144887
0.131902
0.13257
0.135812
0.145308
0.132489
0.161095
0.133521
0.110798
0.131076
0.214667
0.153117
0.133062
0.162925
0.132555
0.192303
0.104144
0.122217
0.13483
0.226896
0.149923
0.125961
0.13238
0.142155
0.132755
0.143673
0.130639
0.127456
0.140794
0.134015
0.193337
0.157602
0.139178
0.131777
0.137065
0.140106
0.169734
0.142416
0.14372
0.142863
0.145655
0.109574
0.146348
0.147537
0.103865
0.120644
0.104759
0.104551
0.103765
0.146419
0.137864
0.14453
0.224554
0.162294
0.140573
0.139461
0.137329
0.145774
0.167791
0.133717
0.132315
0.148967
0.176218
0.183061
0.124735
0.148845
0.149505
0.13794
0.133845
0.163592
0.156883
0.134624
0.141035
0.13127
0.140689
0.307281
0.166419
0.169951
0.146436
0.136328
0.104266
0.104152
0.120774
0.133175
0.133346
0.166391
0.115859
0.173909
0.132005
0.133107
0.150774
0.160881
0.180795
0.144777
0.157438
0.197534
0.137139
0.161242
0.121664
0.164933
0.204797
0.117194
0.159888
0.128575
0.142835
0.208271
0.142123
0.0817526
0.139024
0.138052
0.131699
0.144776
0.198723
0.14407
0.138371
0.15161
0.138509
0.153384
0.123772
0.132676
0.136037
0.147749
0.100196
0.119497
0.106213
0.104435
0.114161
0.1114
0.114561
0.0978905
0.0983142
0.107455
0.115424
0.1047
0.0972713
0.106893
0.128586
0.107688
0.113811
0.110357
0.111333
0.107126
0.102923
0.116295
0.117485
0.111874
0.113151
0.163867
0.170981
0.144391
0.134666
0.14499
0.140953
0.141013
0.144834
0.190971
0.209017
0.145377
0.164062
0.177238
0.13944
0.134354
0.11788
0.142549
0.12085
0.102787
0.109809
0.117475
0.117042
0.114889
0.11206
0.110959
0.0961165
0.103436
0.0981943
0.105043
0.159684
0.13215
0.102301
0.13247
0.180945
0.14742
0.12894
0.15551
0.171913
0.119671
0.13713
0.140432
0.142146
0.149454
0.137151
0.139276
0.137983
0.082545
0.134803
0.1352
0.133558
0.131509
0.111241
0.120657
0.130599
0.138324
0.135734
0.174374
0.132829
0.136759
0.152239
0.132535
0.133549
0.134129
0.147316
0.0996493
0.153269
0.136656
0.141702
0.138163
0.137241
0.156422
0.147944
0.138805
0.131255
0.184672
0.189226
0.199958
0.207843
0.172943
0.181077
0.185025
0.175273
0.137701
0.134647
0.13911
0.200881
0.212925
0.160954
0.142603
0.168071
0.186372
0.153285
0.18692
0.153799
0.248922
0.169404
0.155352
0.144211
0.141785
0.139222
0.142259
0.139893
0.141114
0.139356
0.176928
0.139456
0.150843
0.205345
0.140352
0.142748
0.155303
0.145379
0.152246
0.140553
0.140728
0.141266
0.221055
0.134556
0.158535
0.133523
0.134727
0.115751
0.196971
0.178136
0.145635
0.178416
0.195415
0.177642
0.124695
0.108548
0.213632
0.235178
0.133547
0.13301
0.21534
0.132722
0.196201
0.133326
0.132647
0.133034
0.19926
0.151255
0.188084
0.134206
0.132752
0.132796
0.145935
0.213306
0.213537
0.162056
0.125611
0.155541
0.135703
0.132789
0.140755
0.148115
0.132874
0.138261
0.15887
0.155496
0.136289
0.156751
0.1394
0.185945
0.144328
0.153509
0.191727
0.145862
0.137001
0.133086
0.140822
0.144105
0.143041
0.136665
0.216996
0.201199
0.188239
0.142844
0.206047
0.232843
0.118825
0.132761
0.132387
0.134259
0.145606
0.139729
0.165272
0.181647
0.159286
0.190922
0.132171
0.154826
0.186522
0.150539
0.143598
0.16343
0.145968
0.20105
0.104511
0.135632
0.142379
0.142135
0.133368
0.128741
0.161931
0.136335
0.134347
0.142939
0.138457
0.134991
0.139507
0.14999
0.127215
0.162908
0.13481
0.135524
0.165769
0.140575
0.132591
0.137919
0.140683
0.136297
0.113393
0.184316
0.137651
0.157348
0.157477
0.134831
0.172338
0.13326
0.141469
0.135381
0.156056
0.113854
0.139092
0.135573
0.131455
0.139769
0.168086
0.135069
0.137861
0.143789
0.191884
0.113887
0.15882
0.143052
0.145384
0.134189
0.144383
0.13848
0.136944
0.135119
0.139591
0.157774
0.135172
0.188675
0.136403
0.174
0.140122
0.134034
0.135952
0.136666
0.136436
0.171478
0.14514
0.165143
0.116911
0.134126
0.135124
0.127027
0.188422
0.215063
0.14997
0.132538
0.189313
0.144477
0.13979
0.135309
0.138376
0.132755
0.132553
0.146776
0.14358
0.136077
0.146266
0.134142
0.13935
0.13874
0.136071
0.1496
0.162801
0.137457
0.132564
0.179471
0.116618
0.168472
0.133883
0.157022
0.162826
0.160972
0.144327
0.132586
0.120279
0.140556
0.141895
0.148655
0.164631
0.152532
0.149151
0.144518
0.13265
0.149576
0.11635
0.142727
0.15946
0.17373
0.146414
0.152033
0.136111
0.144667
0.141216
0.146693
0.132824
0.143397
0.126866
0.174357
0.147079
0.105409
0.16374
0.144165
0.148604
0.145067
0.204401
0.156269
0.0933077
0.17415
0.142532
0.129366
0.165319
0.13914
0.122991
0.182188
0.141998
0.133265
0.185665
0.159719
0.200256
0.136366
0.146588
0.138026
0.149987
0.138077
0.1405
0.188763
0.143267
0.161396
0.140409
0.150973
0.137576
0.146872
0.138842
0.185501
0.144926
0.111787
0.137084
0.184631
0.14003
0.145988
0.143666
0.136777
0.134302
0.184771
0.138843
0.140045
0.133335
0.135615
0.135071
0.133613
0.138747
0.140059
0.195794
0.14344
0.136886
0.182407
0.145052
0.102185
0.100862
0.137258
0.103655
0.0993217
0.136264
0.142645
0.115128
0.105631
0.0954093
0.104421
0.150887
0.157946
0.077449
0.194299
0.214802
0.153027
0.156944
0.121452
0.129763
0.142541
0.135558
0.175555
0.14197
0.138922
0.167361
0.13677
0.115794
0.206094
0.149946
0.283712
0.156849
0.145692
0.170051
0.118828
0.174215
0.148939
0.159241
0.273681
0.140167
0.102369
0.145035
0.151229
0.131793
0.149136
0.123447
0.219921
0.20108
0.169781
0.0785486
0.0810931
0.141566
0.143214
0.135243
0.128639
0.166899
0.112026
0.151984
0.154675
0.247649
0.138961
0.270768
0.17109
0.213851
0.127659
0.179507
0.110896
0.158633
0.136455
0.133094
0.137977
0.184829
0.122676
0.148864
0.128594
0.140071
0.160139
0.161157
0.111291
0.127346
0.155818
0.127971
0.184705
0.136425
0.11529
0.216394
0.159899
0.17509
0.157941
0.138296
0.139339
0.0792876
0.0786476
0.15391
0.13444
0.130206
0.132376
0.137771
0.145399
0.146638
0.121985
0.129545
0.13048
0.185031
0.146786
0.135506
0.158864
0.125666
0.139576
0.166747
0.136142
0.124579
0.142169
0.145788
0.149897
0.134779
0.140893
0.158111
0.154508
0.135165
0.156064
0.0837737
0.132805
0.157241
0.10685
0.153949
0.11309
0.157247
0.122219
0.184004
0.189499
0.136096
0.171678
0.133808
0.127293
0.141412
0.13792
0.131548
0.105286
0.166068
0.167128
0.154594
0.132985
0.153416
0.189261
0.188048
0.136387
0.153943
0.141281
0.16023
0.132229
0.132886
0.152085
0.194562
0.163502
0.13545
0.191588
0.152121
0.132722
0.126201
0.097508
0.132491
0.181984
0.137369
0.145625
0.191112
0.141083
0.150822
0.132568
0.153924
0.163208
0.144663
0.0918583
0.132611
0.127644
0.157605
0.169835
0.14014
0.131709
0.14283
0.0820619
0.147914
0.0850567
0.191829
0.146235
0.184224
0.133905
0.222283
0.165231
0.137171
0.20691
0.147537
0.128876
0.132528
0.162256
0.143833
0.175734
0.160228
0.197811
0.142645
0.134376
0.102461
0.141244
0.132555
0.139837
0.132231
0.0929174
0.0919208
0.0905399
0.0907937
0.136894
0.137676
0.135077
0.13281
0.0935563
0.133432
0.136626
0.0939344
0.0939023
0.0929431
0.150751
0.090795
0.0879117
0.189703
0.113664
0.193574
0.0818192
0.138965
0.159443
0.153525
0.132166
0.131744
0.120106
0.146391
0.136791
0.134093
0.132855
0.132664
0.137877
0.112543
0.132472
0.148818
0.128119
0.133211
0.148138
0.140105
0.125933
0.151742
0.167962
0.173195
0.137403
0.13251
0.139507
0.175816
0.130303
0.130247
0.15346
0.168854
0.164494
0.136372
0.140358
0.160811
0.132714
0.115948
0.138506
0.137728
0.15845
0.138724
0.139933
0.190161
0.132607
0.169225
0.132822
0.12621
0.161785
0.140776
0.13649
0.131965
0.11779
0.119684
0.140542
0.135832
0.13872
0.131973
0.137035
0.137748
0.154951
0.128815
0.134493
0.17932
0.172527
0.169291
0.148688
0.21312
0.14333
0.174111
0.22886
0.13252
0.203117
0.137385
0.131097
0.104603
0.147829
0.180087
0.0988981
0.143985
0.265167
0.260352
0.09321
0.133506
0.134815
0.142444
0.143054
0.182732
0.0810384
0.147012
0.131797
0.133968
0.127987
0.133454
0.138706
0.110632
0.150138
0.163767
0.132148
0.132587
0.205382
0.167517
0.13765
0.13991
0.0829837
0.132241
0.13252
0.11563
0.137646
0.143069
0.17483
0.136271
0.137421
0.130806
0.131384
0.144889
0.148621
0.14595
0.17352
0.155657
0.147576
0.183453
0.0873569
0.128507
0.173808
0.216747
0.172627
0.152892
0.174567
0.16239
0.135063
0.178868
0.164077
0.124411
0.137891
0.157719
0.116207
0.167903
0.168521
0.206434
0.127678
0.119261
0.133093
0.13139
0.136119
0.146177
0.12141
0.0816451
0.124452
0.141428
0.123755
0.167125
0.143226
0.136287
0.147652
0.1842
0.119739
0.116586
0.182526
0.128112
0.140213
0.0833416
0.1079
0.137985
0.14547
0.0794883
0.116694
0.118256
0.128063
0.140137
0.198582
0.134479
0.15487
0.135431
0.13618
0.125876
0.132804
0.145298
0.120995
0.146288
0.134501
0.12014
0.135638
0.158197
0.12562
0.133531
0.178441
0.0810364
0.162678
0.142224
0.0969061
0.138876
0.105455
0.11832
0.116876
0.0804887
0.147603
0.0846479
0.149809
0.213352
0.129587
0.152598
0.134825
0.138518
0.139103
0.140247
0.192061
0.144272
0.118194
0.137358
0.130445
0.118533
0.130549
0.138536
0.1322
0.117055
0.190346
0.200469
0.157746
0.117351
0.152084
0.101702
0.146788
0.155756
0.116725
0.0786292
0.116884
0.162157
0.171443
0.135497
0.173559
0.13278
0.136721
0.13826
0.120647
0.136402
0.139206
0.137131
0.134472
0.115931
0.201961
0.13675
0.146839
0.157175
0.133937
0.164774
0.208773
0.120416
0.13702
0.13664
0.14793
0.139952
0.13245
0.132409
0.150544
0.139161
0.128423
0.149292
0.136398
0.15659
0.179494
0.190456
0.229332
0.172582
0.139409
0.134949
0.13535
0.120346
0.137407
0.137456
0.140186
0.13254
0.133466
0.110409
0.250634
0.118119
0.14157
0.132305
0.181276
0.137575
0.113592
0.186507
0.13959
0.135131
0.137495
0.13493
0.137573
0.165486
0.211108
0.137161
0.142002
0.190011
0.233332
0.157648
0.185601
0.137959
0.133068
0.156819
0.227339
0.139142
0.145223
0.149071
0.129093
0.129002
0.14586
0.172094
0.132737
0.132995
0.164404
0.140447
0.092855
0.115741
0.135053
0.186728
0.115501
0.137882
0.137757
0.138276
0.132566
0.12973
0.13006
0.133242
0.212217
0.168267
0.232824
0.133359
0.176807
0.165398
0.151468
0.144759
0.158957
0.140537
0.138169
0.137669
0.127662
0.135752
0.13948
0.153072
0.0810622
0.144521
0.198622
0.135395
0.184988
0.10002
0.174668
0.142297
0.201081
0.178011
0.19669
0.0857501
0.160451
0.174024
0.177084
0.181681
0.117889
0.134473
0.140707
0.146965
0.202323
0.147134
0.13535
0.138601
0.15382
0.197553
0.126474
0.19946
0.144187
0.205076
0.271441
0.168698
0.258373
0.176005
0.135719
0.12882
0.12923
0.204988
0.108037
0.149076
0.126574
0.131103
0.136601
0.16321
0.182668
0.116388
0.126956
0.127246
0.0794767
0.138199
0.127995
0.128676
0.145426
0.136447
0.11581
0.139839
0.125275
0.126333
0.226111
0.149509
0.166316
0.133009
0.143084
0.129158
0.129093
0.122403
0.131768
0.122243
0.158175
0.132931
0.143283
0.147169
0.0810748
0.134025
0.138638
0.132832
0.133422
0.0800966
0.143842
0.0811702
0.135005
0.142782
0.230513
0.121066
0.133621
0.139799
0.132229
0.159485
0.115513
0.133067
0.146516
0.138424
0.14095
0.109921
0.185356
0.167781
0.214001
0.133573
0.107292
0.165983
0.252584
0.171409
0.124621
0.184901
0.139856
0.137086
0.13206
0.132361
0.17259
0.111588
0.151546
0.131501
0.137892
0.115559
0.128406
0.151794
0.133223
0.173498
0.127912
0.127821
0.163988
0.137293
0.136945
0.157244
0.169837
0.227469
0.13786
0.104712
0.18631
0.196009
0.116235
0.16285
0.232947
0.174147
0.142006
0.134563
0.115548
0.179846
0.147502
0.23283
0.119748
0.190937
0.247751
0.176933
0.135799
0.116831
0.18078
0.177896
0.132452
0.114817
0.141012
0.121795
0.159669
0.240149
0.106997
0.144769
0.136653
0.136795
0.131173
0.144092
0.138197
0.127284
0.190735
0.137831
0.173883
0.153152
0.150215
0.154851
0.16286
)
;

boundaryField
{
    frontAndBack
    {
        type            empty;
    }
    wallOuter
    {
        type            kqRWallFunction;
        value           nonuniform List<scalar> 
102
(
0.0714113
0.0714113
0.135353
0.086715
0.0799016
0.0817526
0.082545
0.0933077
0.102185
0.100862
0.103655
0.0993217
0.105631
0.0954093
0.104421
0.150887
0.077449
0.121452
0.115794
0.118828
0.102369
0.0785486
0.0810931
0.110896
0.158633
0.0792876
0.0786476
0.0837737
0.11309
0.0820619
0.0850567
0.0929174
0.0919208
0.0905399
0.0907937
0.136894
0.137676
0.135077
0.13281
0.0935563
0.133432
0.136626
0.0939344
0.0939023
0.0929431
0.090795
0.0879117
0.0818192
0.138965
0.132664
0.112543
0.128119
0.140105
0.136372
0.140358
0.115948
0.138724
0.139933
0.11779
0.119684
0.131097
0.0988981
0.09321
0.0810384
0.110632
0.0829837
0.137421
0.0873569
0.128507
0.116207
0.119261
0.133093
0.0816451
0.124452
0.123755
0.119739
0.0833416
0.0794883
0.140137
0.120995
0.12014
0.0810364
0.0804887
0.0846479
0.139103
0.118533
0.117055
0.0786292
0.120647
0.120346
0.140447
0.092855
0.0810622
0.10002
0.0857501
0.117889
0.108037
0.116388
0.0794767
0.0810748
0.0800966
0.0811702
)
;
    }
    inlet
    {
        type            fixedValue;
        value           nonuniform 0();
    }
    outlet
    {
        type            zeroGradient;
    }
    wallInner
    {
        type            kqRWallFunction;
        value           nonuniform List<scalar> 
138
(
0.120403
0.082753
0.148593
0.144768
0.153749
0.142912
0.136179
0.144581
0.142926
0.106983
0.166116
0.19282
0.111118
0.159827
0.105685
0.125023
0.236721
0.172596
0.17753
0.228369
0.124716
0.104144
0.109574
0.103865
0.120644
0.104759
0.104551
0.103765
0.183061
0.104266
0.104152
0.115859
0.100196
0.119497
0.106213
0.104435
0.114161
0.1114
0.114561
0.0978905
0.0983142
0.107455
0.115424
0.1047
0.0972713
0.106893
0.128586
0.107688
0.113811
0.110357
0.111333
0.107126
0.102923
0.116295
0.117485
0.111874
0.113151
0.209017
0.11788
0.142549
0.12085
0.102787
0.109809
0.117475
0.117042
0.114889
0.11206
0.110959
0.0961165
0.103436
0.0981943
0.105043
0.102301
0.111241
0.120657
0.0996493
0.153269
0.131255
0.212925
0.18692
0.155303
0.134556
0.115751
0.124695
0.108548
0.145935
0.125611
0.155541
0.140755
0.201199
0.188239
0.118825
0.104511
0.172338
0.191884
0.113887
0.189313
0.134142
0.17373
0.147079
0.105409
0.122991
0.111787
0.136264
0.115128
0.140167
0.112026
0.122676
0.111291
0.11529
0.121985
0.158864
0.125666
0.10685
0.105286
0.0918583
0.102461
0.113664
0.120106
0.13649
0.17932
0.172527
0.104603
0.147576
0.157719
0.1079
0.0969061
0.105455
0.144272
0.101702
0.179494
0.151546
0.190735
0.137831
0.153152
0.150215
0.154851
0.16286
)
;
    }
    procBoundary2to0
    {
        type            processor;
        value           nonuniform List<scalar> 
42
(
0.137139
0.137139
0.185841
0.193675
0.173118
0.140308
0.187464
0.187464
0.14715
0.134094
0.20115
0.20115
0.196303
0.193301
0.168484
0.147704
0.147356
0.133244
0.13699
0.176788
0.192567
0.13311
0.13311
0.174119
0.192567
0.134248
0.183276
0.137891
0.183276
0.137721
0.143202
0.14662
0.162897
0.179748
0.189599
0.193675
0.147356
0.164049
0.159973
0.198379
0.198379
0.194193
)
;
    }
    procBoundary2to1
    {
        type            processor;
        value           uniform 0.160025;
    }
    procBoundary2to3
    {
        type            processor;
        value           nonuniform List<scalar> 
29
(
0.164694
0.158988
0.145837
0.139968
0.131695
0.137646
0.152834
0.159745
0.154258
0.143086
0.142391
0.140985
0.13714
0.158691
0.137917
0.161488
0.167457
0.167457
0.158988
0.158691
0.147778
0.173924
0.140453
0.155775
0.134736
0.17555
0.154258
0.146005
0.140985
)
;
    }
}


// ************************************************************************* //
