/*--------------------------------*- C++ -*----------------------------------*\
| =========                 |                                                 |
| \\      /  F ield         | OpenFOAM: The Open Source CFD Toolbox           |
|  \\    /   O peration     | Version:  v1912                                 |
|   \\  /    A nd           | Website:  www.openfoam.com                      |
|    \\/     M anipulation  |                                                 |
\*---------------------------------------------------------------------------*/
FoamFile
{
    version     2.0;
    format      ascii;
    class       volScalarField;
    location    "0.05";
    object      nut;
}
// * * * * * * * * * * * * * * * * * * * * * * * * * * * * * * * * * * * * * //

dimensions      [0 2 -1 0 0 0 0];


internalField   nonuniform List<scalar> 
1466
(
0.000636776
0.000685323
0.000871299
0.00066128
0.000830213
0.0007361
0.000931193
0.000955113
0.000910677
0.000749193
0.000456281
0.00103927
0.00024845
0.000794308
0.000860177
0.00064242
0.000239706
0.000730924
0.00116618
0.000678154
0.000862484
0.000884827
0.000395738
0.00074081
0.000852327
0.000906066
0.00101181
0.00091139
0.00054681
0.000558625
0.000951559
0.000962783
0.000905396
0.00087934
0.00105306
0.000871282
0.000785424
0.000814028
0.00117003
0.000746567
0.00103823
0.000912877
0.000913649
0.000889626
0.000941125
0.000858829
0.000864292
0.00054548
0.000912101
0.000863193
0.000878212
0.000574461
0.000551867
0.000506286
0.000568732
0.000908291
0.000683879
0.000885385
0.000781207
0.000900089
0.000658344
0.000579624
0.000834332
0.000793948
0.000775955
0.000761459
0.000926233
0.00086184
0.000749264
0.000774952
0.000871765
0.000694942
0.000720533
0.000751133
0.000274966
0.000904742
0.000731192
0.000723004
0.000890824
0.000889001
0.00081385
0.000757429
0.000861781
0.00091004
0.000788814
0.000866011
0.000796815
0.000888784
0.000879211
0.00087143
0.000664029
0.000424097
0.000878058
0.000661591
0.000873851
0.000801603
0.000813737
0.000794136
0.000808016
0.000635008
0.000667047
0.000936305
0.000882417
0.000625406
0.000861941
0.000893133
0.000861289
0.000862896
0.000803346
0.000886191
0.000766938
0.000825773
0.000833295
0.000838629
0.000286419
0.00090124
0.00044381
0.000626032
0.00084039
0.000898641
0.000795303
0.000851469
0.000446266
0.00104503
0.000910073
0.000879993
0.000788101
0.000574819
0.000879699
0.000884706
0.000906775
0.000708214
0.00104976
0.000965662
0.000863385
0.000880502
0.000915375
0.000845592
0.000902868
0.000498612
0.000622324
0.000411877
0.000883964
0.000885261
0.000915701
0.000431334
0.000633396
0.000688327
0.000959825
0.000750227
0.000881318
0.000839087
0.00091324
0.000880979
0.000742588
0.000891539
0.000721052
0.00108869
0.000960868
0.000763149
0.000933988
0.000686078
0.000741998
0.000798005
0.00093258
0.000876932
0.000891435
0.000491208
0.000794116
0.00105058
0.000822322
0.000867875
0.000800231
0.000931232
0.00094539
0.000881757
0.00092669
0.00088803
0.000862322
0.00088086
0.000798115
0.000869236
0.000911172
0.000856396
0.000954074
0.000698183
0.000869834
0.000957332
0.00087029
0.000522038
0.000505058
0.000361799
0.000742827
0.000769327
0.000867489
0.000714351
0.000886053
0.000875202
0.000882961
0.000884886
0.00101771
0.000911239
0.000863013
0.000794779
0.000857671
0.000915106
0.000869685
0.000579126
0.000873535
0.000596505
0.00083767
0.00108289
0.000936102
0.000870343
0.000819548
0.000869943
0.000973427
0.000386958
0.000667268
0.000727247
0.000946776
0.000816358
0.000750213
0.000867036
0.000904022
0.000870294
0.000854322
0.000758436
0.000790019
0.000900078
0.000873105
0.000821564
0.000884876
0.000890508
0.00086051
0.000876423
0.000895692
0.000907709
0.00090058
0.00087996
0.000905409
0.000904877
0.000449502
0.00091734
0.000923206
0.000390591
0.000516514
0.000402515
0.000389923
0.00039177
0.000789266
0.000889335
0.000911847
0.000958701
0.000936487
0.000899123
0.000885425
0.000889474
0.000914263
0.000850116
0.000873922
0.000864027
0.000919238
0.00084797
0.000647653
0.000773383
0.000917874
0.000934005
0.000889813
0.000710427
0.000967654
0.000832411
0.000875806
0.000870262
0.000853271
0.000886045
0.00119144
0.000946955
0.00062871
0.000919221
0.000878969
0.000390882
0.000397109
0.000702728
0.000871193
0.000856422
0.000902186
0.000520558
0.000909912
0.000589532
0.000872209
0.00091981
0.000927835
0.000892613
0.000910789
0.000896227
0.00102394
0.000887807
0.000936632
0.00060205
0.000839736
0.00102774
0.000632884
0.000934544
0.00081843
0.00089857
0.00104331
0.000902822
0.000264444
0.000894237
0.000891305
0.000818338
0.000904761
0.00102687
0.000909276
0.000891131
0.000941562
0.000865898
0.000930788
0.000734703
0.000870732
0.000883605
0.000914585
0.00036283
0.000419146
0.000415507
0.000419465
0.000457593
0.000464605
0.000500069
0.000358638
0.000359097
0.000447461
0.000495067
0.000372802
0.000349058
0.000316868
0.00058866
0.00031567
0.000473651
0.000482036
0.000485374
0.00040319
0.000400221
0.000524218
0.000502508
0.00042595
0.00043016
0.000797624
0.000910201
0.000911051
0.000877511
0.000913933
0.00089689
0.000898789
0.000913101
0.00104568
0.00061119
0.000901345
0.000865863
0.000937327
0.000895318
0.000877722
0.000517266
0.000448501
0.000555984
0.000403005
0.000463048
0.00052776
0.000525918
0.000482505
0.000426894
0.000422476
0.000343547
0.000358987
0.000350636
0.000399299
0.000937149
0.000859182
0.000371586
0.00084954
0.000975362
0.000915424
0.000804795
0.000911311
0.000897095
0.000624225
0.000883985
0.000893835
0.0006972
0.000858086
0.000889178
0.000894623
0.000890121
0.000262921
0.000877771
0.000881151
0.000849634
0.000858387
0.000370587
0.000387955
0.000826899
0.000892132
0.000881245
0.00093938
0.000870186
0.000886115
0.000930323
0.000868879
0.000870596
0.000874256
0.000904371
0.000350885
0.000448661
0.000885539
0.000897378
0.000890884
0.000884923
0.00091167
0.000908398
0.000889432
0.000510545
0.00103013
0.00096223
0.00106714
0.00106649
0.000955019
0.000989365
0.000858784
0.000713212
0.000891727
0.000878248
0.000893432
0.00105789
0.000675963
0.000953254
0.000897797
0.000929997
0.00100059
0.000931382
0.000510651
0.00077737
0.00106416
0.000844179
0.000933503
0.000899685
0.000896229
0.0008908
0.000901696
0.000889552
0.000898911
0.000890894
0.000702789
0.000893205
0.000904872
0.000876147
0.000892948
0.000897062
0.000449536
0.000893425
0.000906904
0.000897511
0.000897012
0.000892819
0.000877114
0.000443136
0.000949063
0.000873942
0.000879182
0.000371025
0.000996043
0.000904037
0.000896118
0.000720716
0.000984258
0.000953733
0.000401971
0.000370573
0.00105308
0.00114113
0.000874199
0.000871892
0.00101702
0.00087071
0.000961427
0.000872445
0.000870275
0.000871996
0.000868218
0.000917576
0.000885126
0.000876065
0.000871246
0.000871266
0.000552343
0.00101483
0.00104276
0.000906623
0.00042141
0.000475715
0.000878461
0.000870746
0.000470612
0.000895098
0.000871664
0.000892323
0.000927039
0.000891486
0.000883279
0.000913753
0.000891359
0.0008579
0.000906693
0.000883279
0.000767069
0.000909974
0.000884872
0.000872495
0.000894701
0.000898075
0.000900314
0.000885844
0.00083778
0.000661067
0.000531485
0.000726114
0.000810543
0.000905532
0.000474304
0.000870807
0.000862405
0.000877458
0.000896345
0.00089018
0.000834522
0.000901449
0.000962631
0.000941365
0.000864217
0.000711552
0.000906631
0.000905721
0.000898064
0.000910586
0.000903742
0.000836821
0.000407921
0.000882567
0.000899491
0.000894661
0.000872838
0.000826502
0.000920435
0.000884032
0.000877522
0.000896458
0.000892886
0.000878215
0.000895091
0.000916129
0.000777351
0.000889624
0.000878812
0.000882595
0.000934763
0.000898165
0.000870359
0.000861017
0.000894576
0.000884774
0.000641561
0.000983016
0.000887509
0.000956022
0.000709362
0.000879197
0.000683629
0.000873246
0.000898397
0.000880921
0.000918471
0.000642222
0.000894467
0.000882601
0.000857479
0.000895259
0.000920111
0.000877156
0.000889588
0.000912408
0.000582461
0.000422611
0.000949121
0.000903025
0.000908278
0.000876106
0.000912559
0.000885623
0.000887094
0.00088067
0.000894472
0.000933499
0.000879192
0.000995952
0.000883791
0.000986292
0.000897692
0.00086124
0.000883493
0.000886375
0.00088279
0.000866817
0.000916802
0.000974808
0.000640163
0.000876736
0.000880808
0.000722537
0.000893405
0.00105942
0.000920092
0.0008702
0.00054213
0.000909485
0.000887485
0.000880457
0.000877859
0.00084993
0.000870439
0.000916389
0.000900981
0.00088451
0.000910835
0.000445209
0.000895533
0.000890612
0.000884174
0.000908446
0.000952691
0.000885574
0.000870518
0.000909769
0.000678013
0.000974624
0.000838651
0.000954489
0.000949394
0.000910741
0.000912775
0.000870612
0.000701749
0.00089754
0.000901028
0.000904583
0.000926172
0.000889078
0.000916761
0.000913174
0.000870851
0.000919967
0.000614115
0.000903013
0.000963738
0.00068331
0.000915379
0.000931194
0.000884477
0.000885825
0.000900175
0.000913728
0.000871466
0.000732497
0.00075279
0.000952478
0.000490183
0.000387477
0.000952646
0.000908788
0.000899884
0.000751035
0.00102102
0.000924166
0.000327094
0.000980211
0.000904501
0.000819385
0.000708653
0.000870047
0.000458793
0.000764355
0.000774589
0.000872914
0.00103235
0.00094937
0.00105483
0.000880815
0.000919871
0.000883519
0.000917829
0.000888745
0.000895949
0.00101836
0.000907111
0.00090917
0.000888703
0.000798928
0.000888528
0.000915187
0.000891217
0.00100213
0.000903919
0.000418254
0.000780296
0.000997317
0.000894087
0.000680967
0.00090934
0.000886342
0.000875918
0.00100234
0.00089405
0.000896241
0.000872515
0.000880722
0.000880621
0.000874069
0.000893467
0.000882737
0.00092123
0.000877318
0.000888137
0.000971751
0.000841411
0.000307394
0.000322214
0.000887862
0.000302135
0.000358377
0.000565289
0.000903075
0.00043162
0.000302671
0.000310519
0.000278807
0.000347937
0.000793939
0.000220511
0.0010392
0.000798139
0.000942014
0.000820768
0.000333112
0.000762315
0.000886029
0.000881774
0.000804843
0.000898865
0.000894044
0.000794623
0.000802897
0.000321024
0.00104402
0.000916016
0.00119105
0.000913542
0.000916665
0.000593805
0.000328216
0.000891228
0.00088177
0.000961783
0.00121056
0.000483153
0.000413327
0.000907898
0.000893497
0.000798876
0.000928893
0.000734228
0.00111277
0.00106145
0.000913113
0.00025978
0.000251441
0.000896283
0.000907072
0.000870432
0.000807816
0.000705954
0.000355532
0.000774448
0.000932403
0.00112341
0.000678491
0.000930302
0.000994039
0.00106683
0.000772816
0.0010207
0.000380246
0.000471563
0.00088556
0.000865435
0.000845014
0.00089808
0.000452331
0.000907989
0.000824064
0.000878619
0.00095047
0.000949116
0.000427556
0.000792649
0.000918844
0.000769305
0.00099384
0.000736099
0.000445499
0.000850638
0.000954879
0.000966586
0.000894032
0.000891376
0.000893821
0.000240942
0.000243673
0.00071797
0.00087593
0.000764853
0.000860387
0.00087599
0.000889922
0.000827236
0.000532009
0.000809748
0.00061411
0.000924757
0.000903545
0.000740574
0.000526224
0.000452338
0.000824307
0.000973828
0.000884142
0.00073785
0.000901941
0.000917013
0.000931277
0.000879399
0.000898685
0.000910937
0.000905057
0.000880614
0.000906138
0.00026238
0.000870968
0.000933785
0.000410823
0.000641236
0.000317723
0.000936893
0.000712115
0.00096157
0.000882284
0.00087599
0.000948711
0.000708763
0.000790949
0.000902919
0.000749427
0.000849275
0.000369925
0.000931547
0.000813055
0.000883268
0.000871854
0.000838697
0.000778994
0.00103545
0.000883587
0.00082197
0.000891894
0.000823929
0.00085867
0.000652768
0.000813122
0.000851446
0.000897819
0.000881477
0.000984216
0.000913827
0.000870916
0.000697134
0.000434891
0.000864033
0.000988931
0.000889776
0.000920037
0.00102649
0.000807462
0.000787407
0.000868381
0.000822418
0.000858403
0.000914182
0.000315526
0.000870373
0.000813315
0.000956285
0.000978462
0.000856973
0.000841851
0.000908797
0.000233313
0.000868532
0.000255298
0.000906149
0.000829606
0.000801376
0.000853605
0.000943837
0.000941559
0.000886006
0.00105067
0.000901095
0.000762872
0.00086981
0.00095444
0.000841857
0.000990795
0.000895399
0.00083712
0.000905244
0.00087782
0.000386274
0.000902552
0.00087011
0.000894215
0.000860887
0.000276775
0.000265892
0.000228762
0.000251018
0.000325456
0.000295609
0.000327881
0.000303464
0.000283155
0.000285841
0.000300406
0.000286417
0.00028457
0.000277528
0.000783828
0.000266416
0.000258692
0.00102409
0.000435421
0.00100973
0.000251751
0.000324856
0.000940548
0.000928262
0.000767854
0.000672632
0.000447945
0.000900877
0.00070981
0.000875506
0.000870618
0.000350053
0.000890976
0.000355872
0.000866321
0.000913149
0.000345806
0.000864918
0.000888815
0.000346035
0.000737835
0.00090589
0.000988024
0.000996265
0.000888561
0.000869816
0.000892764
0.00070853
0.00081412
0.000818807
0.000905067
0.000813292
0.000576442
0.000357597
0.000357857
0.000940904
0.000868627
0.000317998
0.000891624
0.000887666
0.000936057
0.0003611
0.000362782
0.00105814
0.000869999
0.000982423
0.000732596
0.000751776
0.000809466
0.000836359
0.000428519
0.000860982
0.000324592
0.000412267
0.000877656
0.000871005
0.00081934
0.000858108
0.000861316
0.00087746
0.000926274
0.000827115
0.000634219
0.00043703
0.000492496
0.000763209
0.00091712
0.000929412
0.000898303
0.000780972
0.00112545
0.000869927
0.00103837
0.000887193
0.000404373
0.000288608
0.000913034
0.000877698
0.000298056
0.000894312
0.00122384
0.00119289
0.000278063
0.000872526
0.000877986
0.000895852
0.000909374
0.000797853
0.000284318
0.000922272
0.000858365
0.000861663
0.000788655
0.000872523
0.000890657
0.000314561
0.00092172
0.000953912
0.000862971
0.000550113
0.000773468
0.000956014
0.000677821
0.000813658
0.000256875
0.000860529
0.000860144
0.000668821
0.000889954
0.000851952
0.00100584
0.000871672
0.000426316
0.000844064
0.000843348
0.000913195
0.000795743
0.000896262
0.000908636
0.000940184
0.000402165
0.000948692
0.00029753
0.000378782
0.000967946
0.00108063
0.00100049
0.000939587
0.000996492
0.000918276
0.000874514
0.000907392
0.000978513
0.000704191
0.000891497
0.000410509
0.000367961
0.000573548
0.00097132
0.000893955
0.000783032
0.000431147
0.000377321
0.000841331
0.000883109
0.00083266
0.000682636
0.000259853
0.000341735
0.000824006
0.000344248
0.000981646
0.000909538
0.000875353
0.000819525
0.00101449
0.000347051
0.000466456
0.000557529
0.000789787
0.000807728
0.000262169
0.00042335
0.000889626
0.000873317
0.000240945
0.000558078
0.000576425
0.000802579
0.000415841
0.00106915
0.000787835
0.000870978
0.000879188
0.000883808
0.000704436
0.000746137
0.000910442
0.000332307
0.000911357
0.00087799
0.000335943
0.000790912
0.000890443
0.000569275
0.000872099
0.000918474
0.000265574
0.00074354
0.000905475
0.000359347
0.000628823
0.000309919
0.000694871
0.000607669
0.000237614
0.000905006
0.000225266
0.000871546
0.00106814
0.000804392
0.00091816
0.000879543
0.000893305
0.000428359
0.000897608
0.000943376
0.000497548
0.000660132
0.000823832
0.000827776
0.000289896
0.000816618
0.000893172
0.000810705
0.000322111
0.000980114
0.00102743
0.000808548
0.000639235
0.000890864
0.00038545
0.000912383
0.000858866
0.000610712
0.000193523
0.000648301
0.00091455
0.000732159
0.000882193
0.00081048
0.000870679
0.000884836
0.000794281
0.000352281
0.0008425
0.000893364
0.000887868
0.000878266
0.000645844
0.000992223
0.00088403
0.000921398
0.00080674
0.000859035
0.000896514
0.00085888
0.000716934
0.000887172
0.000886623
0.000924259
0.000885296
0.000857557
0.000864402
0.000688081
0.000895754
0.000823009
0.000930273
0.000884844
0.000954745
0.000505555
0.000946739
0.000865464
0.000817488
0.000890128
0.000875903
0.000645909
0.000308383
0.000888778
0.000887782
0.000697034
0.000857858
0.000861157
0.00059574
0.0011398
0.000582714
0.000899642
0.000862979
0.000731648
0.000685116
0.000562285
0.000935866
0.000748026
0.000881235
0.000888536
0.000880225
0.000888916
0.000920741
0.000963847
0.00088472
0.000860457
0.00105414
0.00112469
0.000938044
0.000999447
0.000888584
0.000783208
0.000949512
0.00113204
0.000893427
0.000862243
0.000647981
0.000760826
0.00079377
0.000908752
0.000997606
0.000793823
0.000860681
0.000906811
0.00024004
0.000187567
0.000537293
0.000880674
0.000846494
0.000574775
0.000890086
0.000888917
0.000892162
0.000774194
0.000837125
0.00083264
0.000872656
0.00106496
0.000507827
0.00087126
0.000814682
0.000901912
0.000983187
0.000937399
0.000629355
0.000838544
0.000828578
0.000891492
0.000889645
0.000763809
0.000883084
0.0008918
0.000940978
0.000278633
0.000913177
0.000795282
0.000881552
0.000978982
0.000292065
0.000763899
0.000898986
0.00108382
0.00087801
0.000997322
0.000192896
0.00093409
0.00100056
0.000640507
0.000886188
0.000330425
0.000862434
0.00089985
0.000883578
0.0010825
0.000915471
0.000881883
0.000880317
0.000940236
0.00106919
0.000797571
0.000883567
0.000904972
0.00100588
0.000979091
0.000949993
0.00120074
0.000941508
0.000883526
0.000784101
0.000784877
0.00102955
0.000308352
0.000911521
0.000777338
0.000753467
0.000713992
0.000810782
0.000964667
0.000290388
0.000785687
0.000779
0.00024317
0.000888984
0.000799957
0.000790598
0.000795691
0.000884434
0.000567935
0.000898255
0.000764146
0.000746891
0.0010923
0.000918052
0.000942573
0.000871777
0.000905438
0.000790688
0.000785622
0.000603106
0.000803411
0.000712906
0.000741119
0.000866184
0.000904802
0.000914415
0.000273776
0.000853962
0.000874792
0.000868249
0.000870439
0.000242719
0.000534367
0.000249672
0.000879805
0.000856363
0.00107532
0.000727566
0.000870672
0.000806621
0.000847224
0.000511399
0.000585143
0.000791008
0.000908084
0.00088961
0.000812565
0.000590721
0.000836122
0.00093873
0.00107266
0.000869167
0.000504833
0.000956744
0.00106692
0.00100341
0.000737352
0.000942975
0.000869743
0.000888653
0.000854351
0.000854383
0.000998367
0.000566517
0.000543653
0.000646127
0.000796841
0.000592897
0.000702748
0.000793711
0.000871832
0.000689606
0.000741087
0.000722515
0.000955688
0.000888621
0.000886872
0.000926366
0.000944076
0.000954919
0.000784335
0.000497838
0.00103
0.000951639
0.000594573
0.000944203
0.00105505
0.000714002
0.000623223
0.000857515
0.000518709
0.000597142
0.000653395
0.000953959
0.000450324
0.000852832
0.000919027
0.000788179
0.000744823
0.000617226
0.00103264
0.00102016
0.000849548
0.00065419
0.000800548
0.000734809
0.000940503
0.00117391
0.000476656
0.000908265
0.000886346
0.000886986
0.0006548
0.000898339
0.000892134
0.000782091
0.000551746
0.000596539
0.000514048
0.000492866
0.000446275
0.000646371
0.000565473
)
;

boundaryField
{
    frontAndBack
    {
        type            empty;
    }
    wallOuter
    {
        type            nutkWallFunction;
        Cmu             0.09;
        kappa           0.41;
        E               9.8;
        value           nonuniform List<scalar> 
102
(
3.17256e-05
3.17256e-05
4.98348e-05
3.488e-05
3.68647e-05
3.34204e-05
3.3131e-05
4.19769e-05
3.90125e-05
4.11041e-05
3.8203e-05
4.59856e-05
3.81824e-05
3.94827e-05
3.50214e-05
4.29102e-05
2.71628e-05
4.18487e-05
4.03702e-05
4.12581e-05
5.34623e-05
3.29656e-05
3.15238e-05
4.86074e-05
5.84779e-05
3.01694e-05
3.05142e-05
3.31881e-05
3.99942e-05
2.90316e-05
3.20851e-05
3.47838e-05
3.3258e-05
2.80545e-05
3.11816e-05
4.01534e-05
3.6163e-05
4.0648e-05
3.76096e-05
3.56991e-05
3.52661e-05
3.7115e-05
3.62117e-05
3.59903e-05
3.5036e-05
3.35175e-05
3.24865e-05
3.17094e-05
4.02957e-05
4.35649e-05
4.52723e-05
4.30582e-05
4.30636e-05
4.45632e-05
4.46177e-05
3.98435e-05
4.50514e-05
4.52868e-05
4.075e-05
5.2227e-05
5.10322e-05
3.77867e-05
3.50817e-05
3.6499e-05
3.96319e-05
3.23921e-05
5.37574e-05
3.79907e-05
4.7714e-05
4.67513e-05
5.48433e-05
4.74923e-05
3.28906e-05
4.29261e-05
4.29867e-05
4.39014e-05
3.31606e-05
3.02142e-05
5.2384e-05
4.19609e-05
4.20759e-05
3.37586e-05
2.95253e-05
2.76718e-05
5.40077e-05
3.61627e-05
4.05242e-05
2.32343e-05
4.46215e-05
3.87163e-05
2.86757e-05
2.21981e-05
3.56706e-05
3.70786e-05
2.30847e-05
4.16825e-05
3.88678e-05
3.61724e-05
3.05154e-05
3.49569e-05
3.04654e-05
3.13195e-05
)
;
    }
    inlet
    {
        type            calculated;
        value           nonuniform 0();
    }
    outlet
    {
        type            calculated;
        value           nonuniform 0();
    }
    wallInner
    {
        type            nutkWallFunction;
        Cmu             0.09;
        kappa           0.41;
        E               9.8;
        value           nonuniform List<scalar> 
138
(
5.82138e-05
2.95641e-05
6.9673e-05
6.94962e-05
7.20397e-05
6.84366e-05
6.30794e-05
7.10968e-05
7.2826e-05
5.48262e-05
8.3508e-05
7.61644e-05
5.7656e-05
7.76372e-05
5.32268e-05
5.39744e-05
7.60933e-05
5.9223e-05
6.42205e-05
6.14541e-05
4.52245e-05
4.99365e-05
5.81283e-05
5.03645e-05
6.66767e-05
5.19912e-05
5.02084e-05
5.05533e-05
7.72034e-05
5.03578e-05
5.12768e-05
6.72336e-05
4.643e-05
5.08562e-05
5.36621e-05
5.42877e-05
5.9052e-05
5.97826e-05
6.45683e-05
4.62053e-05
4.63088e-05
5.78934e-05
6.36539e-05
4.65715e-05
4.48195e-05
4.03045e-05
7.55737e-05
4.0551e-05
6.12223e-05
6.2543e-05
6.28182e-05
5.17309e-05
5.17806e-05
6.76745e-05
6.494e-05
5.51958e-05
5.55125e-05
7.42123e-05
6.61927e-05
5.64085e-05
7.17285e-05
5.21556e-05
5.98315e-05
6.82293e-05
6.81053e-05
6.23869e-05
5.5018e-05
5.4753e-05
4.41822e-05
4.58927e-05
4.46791e-05
5.144e-05
4.79898e-05
4.73823e-05
4.97325e-05
4.45532e-05
5.6297e-05
6.5172e-05
8.22385e-05
6.28899e-05
5.63547e-05
5.66835e-05
4.7192e-05
5.13112e-05
4.77245e-05
6.91735e-05
5.38301e-05
5.93804e-05
5.91554e-05
8.07347e-05
6.5432e-05
6.14438e-05
5.27122e-05
8.4471e-05
6.96517e-05
5.33668e-05
6.67147e-05
5.48741e-05
8.42127e-05
5.84637e-05
4.92917e-05
5.83162e-05
5.33727e-05
7.21652e-05
5.41454e-05
5.91042e-05
4.50047e-05
5.76686e-05
5.47465e-05
5.66376e-05
6.8314e-05
6.58352e-05
5.77125e-05
5.29794e-05
4.734e-05
4.03112e-05
5.03142e-05
5.66569e-05
5.7332e-05
5.37006e-05
5.40831e-05
6.13319e-05
3.63069e-05
5.06758e-05
5.01761e-05
5.44158e-05
4.61877e-05
3.9111e-05
6.18303e-05
4.96898e-05
6.15594e-05
6.7552e-05
6.72961e-05
7.55505e-05
5.9576e-05
5.5691e-05
8.03146e-05
7.08088e-05
)
;
    }
    procBoundary2to0
    {
        type            processor;
        value           nonuniform List<scalar> 
42
(
0.00088825
0.00088825
0.000760563
0.00073043
0.000971605
0.000897795
0.000754599
0.000754599
0.000921532
0.000876413
0.000982913
0.000982913
0.00098179
0.000961138
0.000947155
0.000892349
0.00091494
0.000873217
0.000887604
0.000953394
0.000907002
0.000872587
0.000872587
0.000701211
0.000907002
0.000876297
0.000916437
0.000888045
0.000916437
0.000889671
0.000904137
0.000913761
0.000956432
0.00098812
0.000968679
0.00073043
0.00091494
0.000444867
0.000903953
0.000786965
0.000786965
0.000861762
)
;
    }
    procBoundary2to1
    {
        type            processor;
        value           uniform 0.000932225;
    }
    procBoundary2to3
    {
        type            processor;
        value           nonuniform List<scalar> 
29
(
0.000935738
0.000923629
0.000596607
0.000489043
0.000603025
0.000627435
0.000641261
0.000926748
0.000899263
0.000791721
0.00083791
0.000822408
0.000600125
0.000906437
0.000858423
0.000857308
0.000934403
0.000934403
0.000923629
0.000906437
0.000908045
0.00094478
0.000403367
0.000912662
0.000703864
0.000933706
0.000899263
0.000903006
0.000822408
)
;
    }
}


// ************************************************************************* //
