/*--------------------------------*- C++ -*----------------------------------*\
| =========                 |                                                 |
| \\      /  F ield         | OpenFOAM: The Open Source CFD Toolbox           |
|  \\    /   O peration     | Version:  v1912                                 |
|   \\  /    A nd           | Website:  www.openfoam.com                      |
|    \\/     M anipulation  |                                                 |
\*---------------------------------------------------------------------------*/
FoamFile
{
    version     2.0;
    format      ascii;
    class       volScalarField;
    location    "0.05";
    object      p;
}
// * * * * * * * * * * * * * * * * * * * * * * * * * * * * * * * * * * * * * //

dimensions      [0 2 -2 0 0 0 0];


internalField   nonuniform List<scalar> 
1466
(
90.2828
89.885
90.4026
89.8251
90.552
91.9871
84.4194
89.561
89.5012
83.8638
89.9137
85.8033
90.2183
90.0183
89.8745
90.0108
89.6461
89.6482
90.9461
89.9164
89.7131
88.3663
85.5931
89.6834
90.057
90.5021
90.5563
87.1103
86.5166
88.8939
90.1812
91.5083
87.6488
87.246
90.6732
89.8616
89.7634
89.6827
92.2605
87.7682
85.2356
88.6045
89.498
88.7312
85.8204
88.4658
89.6766
89.4838
88.8193
89.6919
90.2554
84.1068
90.5444
91.854
88.1119
88.4955
89.7486
89.4438
88.7415
88.7786
90.0618
87.7392
90.2934
91.6976
89.9431
90.2343
88.0939
89.7337
89.8276
88.9096
90.4012
89.7212
89.6745
89.8026
89.6655
84.1364
89.5608
89.5719
85.7752
88.837
90.3999
90.0228
89.8141
88.9693
89.6327
89.6495
89.6102
90.1551
90.3242
90.2264
89.9845
89.6722
89.1218
89.75
90.1891
89.6875
89.5601
88.3151
89.2446
90.0981
85.1788
87.047
90.5219
89.4322
89.7445
88.9848
89.7529
89.789
89.6004
90.0489
89.0644
90.0043
90.6762
89.666
90.2135
90.0486
89.5939
89.8766
89.8452
89.4337
89.7286
90.2415
89.1647
90.6659
90.3315
89.2468
90.1989
89.1434
89.1873
89.7028
89.2414
89.4551
90.9714
87.4826
90.2584
88.9289
88.3473
89.5758
85.2215
89.0971
83.9055
89.6944
89.2682
89.2374
85.5058
90.622
92.2433
88.9659
87.6027
89.6568
89.2238
90.1695
90.5102
89.7275
90.1577
90.1086
89.6256
90.876
89.7876
89.5658
86.6507
90.1942
89.4847
89.7089
87.484
89.0348
89.8387
91.3756
90.089
90.5962
89.6429
89.6303
90.1957
88.1688
90.5825
89.9693
87.896
89.0138
89.9133
89.0598
89.793
89.7368
89.275
90.222
90.0903
89.8064
89.7815
90.1927
89.8312
89.3938
88.5009
89.8028
90.2132
89.6472
89.7141
89.6323
85.0208
90.0101
89.9848
90.0202
90.6215
89.9776
89.7656
90.1675
90.1654
88.7791
89.7587
87.313
89.8961
90.0314
90.0277
90.8976
90.0094
89.6128
89.4448
89.8052
90.0361
89.6898
89.8398
89.758
89.5147
90.4274
89.9677
89.6584
88.6302
89.641
89.9623
90.0827
89.7721
89.8126
89.5735
89.6866
90.3014
89.2462
89.8415
90.122
89.3006
89.2247
89.3466
90.0939
89.7028
89.367
89.6504
88.0553
88.2618
89.7652
90.4996
89.716
89.7524
89.7539
90.1841
88.8221
88.9693
90.5053
90.4267
88.7074
89.9473
89.7384
90.5645
83.9917
89.5946
89.6246
88.3528
90.1665
92.4883
89.8701
89.2294
90.6049
89.9813
89.6989
88.4818
89.9969
89.5469
89.8828
89.6453
88.7694
91.5403
90.5528
88.8088
88.5451
90.0668
89.7678
89.7363
90.2021
89.9622
89.4981
89.8072
89.6242
89.9777
89.2115
89.6272
89.3567
89.6944
83.9744
89.1521
89.9427
89.8218
90.359
89.9817
89.5208
89.3517
90.7087
90.1891
89.7511
89.9365
90.2451
90.0219
89.2011
90.2072
90.6434
89.7928
90.1454
89.9577
86.4409
89.1209
90.0002
90.7679
90.5545
84.8828
90.1737
89.6578
88.7505
89.3696
90.2521
90.4288
89.9053
90.2339
89.9309
90.1529
90.4171
90.3174
90.0655
90.2293
90.529
90.3226
90.1583
89.9826
90.558
90.8664
90.4127
90.3599
90.0386
89.7815
90.1876
89.9269
90.4531
90.5398
90.0165
89.0593
89.8655
88.9741
89.5806
88.7609
89.0301
89.1305
90.0064
90.8766
89.0968
90.8561
89.823
90.2107
88.59
88.9252
90.6618
88.305
89.9329
90.2199
90.2052
90.0224
90.4329
90.4249
90.0048
90.6586
90.1017
90.463
90.3072
89.8674
90.5584
89.6017
88.9782
89.5393
87.6705
89.6701
90.201
88.4181
89.7506
89.6088
89.9515
89.4358
88.8714
89.2504
89.2319
89.0156
90.0311
90.179
89.9339
89.0341
90.4855
89.7268
89.927
90.9961
90.2265
89.2228
89.5623
84.728
89.9687
89.2957
90.9234
90.0197
90.25
89.9542
89.4546
89.231
86.8361
89.7707
89.4048
89.3088
89.2755
89.4419
89.4686
89.3296
88.3564
88.2347
87.3012
87.949
87.5602
87.3011
87.7592
86.6356
85.7581
90.5279
89.9783
89.3867
90.3534
88.6138
90.3798
89.7683
89.5442
89.5438
89.8039
88.1259
89.2621
90.0203
88.9661
89.6416
89.8108
89.8375
89.8173
90.3821
89.2934
90.4221
89.8193
88.5519
89.3218
89.7128
89.1605
89.8475
89.8745
87.6388
89.2451
89.7737
89.3836
89.3766
89.3518
89.261
88.8448
90.0723
89.9806
90.4488
88.8032
89.8993
89.1602
89.3031
88.5326
90.9569
89.6898
88.377
88.4826
90.5134
91.9023
90.372
89.9825
91.3075
89.9807
89.6547
90.2845
89.9992
90.3244
90.3493
84.7927
89.2178
90.1722
89.9965
90.334
89.8816
90.3315
91.253
89.6292
88.9165
88.645
90.178
90.0336
89.2972
89.0572
90.3451
89.254
84.6922
89.1699
89.3207
89.3562
89.7656
89.6146
89.6829
89.1681
88.5995
89.5656
90.082
90.0062
89.3978
89.444
89.4683
89.8081
88.9285
88.5781
89.079
89.1011
89.0493
88.9863
88.746
90.3063
89.9541
89.0801
89.2542
89.3137
88.9767
89.4351
86.8317
89.5312
89.6706
88.917
89.3849
89.728
89.875
89.6197
89.3873
88.917
90.1314
89.8921
89.793
90.1041
90.0543
89.768
89.68
89.2999
89.1333
89.8929
90.6488
89.9939
89.3019
89.9315
89.8645
89.3727
89.1892
89.8538
84.6808
88.9881
89.6797
90.158
89.4162
90.0218
89.8205
90.4252
89.4334
86.0867
88.6237
89.3328
88.003
90.3541
89.5298
89.4444
89.4745
89.9907
89.2499
89.1737
89.695
90.5011
89.182
89.9712
90.1679
89.5792
91.4535
90.5186
85.0011
90.3999
89.9644
90.0178
88.213
89.2173
89.9023
89.184
90.3272
89.996
90.0816
90.1417
90.4569
87.9846
89.1869
89.9027
89.7883
90.138
89.1542
89.4473
89.9887
90.6584
90.2012
90.3578
89.796
89.9302
89.8767
89.3886
90.1806
89.7043
89.3013
89.1571
89.9492
89.255
89.0661
90.0773
89.7283
90.1156
88.6112
89.986
90.2703
91.1528
88.5028
89.1424
88.7898
89.7849
89.7637
90.0274
89.7505
89.6468
89.77
90.1522
90.1659
87.344
90.1942
90.0129
89.6932
89.7724
90.0974
90.2265
89.1474
89.8675
89.9254
88.2829
89.708
89.4033
89.794
90.1261
90.0129
89.8615
86.3982
88.4877
89.9159
89.8329
89.0497
89.5053
90.0545
89.2824
89.8162
89.3149
89.2993
89.8173
90.7776
90.3864
89.5642
89.886
89.8784
89.1159
88.6237
90.0394
89.6457
90.3412
88.9024
90.2478
88.334
89.8693
89.4594
89.508
90.213
89.841
90.0126
89.6104
90.7232
89.9003
88.5048
89.5686
89.3897
89.3483
89.6017
90.4249
88.9791
89.7156
89.3002
90.3618
89.3605
90.2987
89.5261
89.3217
90.0276
89.4924
85.118
89.7582
90.1194
89.4981
88.7587
90.1394
89.8693
90.5122
89.2363
89.2921
89.9746
89.2374
89.7534
89.6122
89.2615
90.1124
89.8466
85.7819
89.5033
90.6812
89.2107
89.2042
89.3114
89.7642
89.0587
89.372
90.6012
90.4891
90.8891
88.8954
89.4381
90.1362
89.3413
89.6778
90.1012
90.7766
89.6596
87.8122
88.879
87.2991
89.7161
89.2532
89.2498
89.3361
90.7228
89.8387
89.3265
89.7672
87.9608
91.1161
89.3799
91.2553
90.5132
90.0492
84.8918
87.6407
89.4317
89.8503
88.8839
92.5133
90.6088
89.6241
89.273
89.5765
90.1896
88.1924
90.1369
90.846
91.7086
89.8651
90.2211
90.1424
89.2401
89.0897
89.9197
89.6654
89.716
89.915
89.6573
90.3622
90.1379
90.2035
90.4113
90.111
90.6358
89.7959
88.7968
90.1533
89.4994
89.2102
89.9413
90.0441
90.0574
88.999
89.9535
89.7302
89.8638
88.1246
91.1327
89.1037
89.7471
90.0773
89.9873
90.0978
89.9964
89.85
89.5158
90.0517
91.0837
89.7944
88.961
89.4273
89.8095
89.8219
89.7301
89.6004
89.5778
90.3675
89.8532
89.3258
89.4767
90.0281
89.9349
88.9413
87.1655
89.3166
89.8333
90.9752
89.7301
89.5924
85.2196
89.6637
89.3838
89.4976
88.482
88.1339
89.1094
89.4846
89.8612
89.3649
89.203
89.9014
89.6831
90.2937
89.7835
89.9159
88.4286
88.2458
89.555
89.4487
90.658
89.8602
90.161
90.1133
90.1275
89.7623
89.199
89.201
89.9439
89.5705
90.194
88.0157
89.37
89.6364
90.2792
89.2485
91.7096
89.2072
90.0842
90.1156
89.8749
89.9431
90.2688
88.6703
89.6348
87.7934
89.0705
90.476
89.4878
89.6557
89.6241
90.0612
89.9512
89.5721
90.4234
90.4638
90.5461
87.0922
90.2044
89.9649
89.1719
89.1942
89.099
89.7586
89.6775
89.8164
87.6918
90.6044
90.1429
90.4375
89.1747
89.8874
89.246
90.1012
83.9536
90.2553
89.6393
90.1291
90.0059
90.3977
89.6437
90.946
89.9212
90.0417
89.7633
89.9039
89.202
90.6098
90.3078
89.3798
89.0369
89.2203
89.5526
89.5836
89.6995
88.8396
89.784
90.1252
90.1597
90.1369
90.1619
89.6891
89.4391
89.857
89.8739
90.0874
89.823
89.7504
90.0634
90.0511
90.0464
89.98
90.0525
90.0721
85.2745
88.7572
86.7951
89.7204
89.7161
90.5372
89.722
90.1214
90.2043
88.8126
89.933
89.7116
90.317
89.8009
90.0219
89.2593
90.101
90.3717
89.6142
90.071
90.1097
90.1876
89.7434
89.9927
89.986
90.471
91.1893
89.7989
89.7428
90.211
82.7509
90.3915
90.0218
89.4878
89.5927
84.3432
89.983
89.8129
90.1589
90.3826
89.8466
90.3892
89.7792
89.5539
89.9463
89.887
88.5076
89.7824
87.1469
90.0432
89.9486
89.0998
90.1177
89.3366
89.7698
90.1962
89.953
89.2276
89.3708
85.3324
90.0762
90.2222
89.1753
88.9723
89.7476
89.7577
88.9705
87.2188
87.7902
86.3094
85.6793
88.3512
90.5128
92.2378
89.7213
90.4925
89.7975
86.1944
89.732
88.6559
89.3703
89.5524
89.4491
91.4977
92.4666
89.5023
89.9961
90.5329
88.5558
89.3707
89.4584
90.2088
88.7127
90.051
90.2522
90.3971
90.3038
89.8105
88.4943
89.5969
90.506
90.2736
89.2738
90.2324
89.6498
89.8658
89.5643
90.131
90.0056
90.3743
89.7952
90.224
86.4514
85.9208
89.2801
85.3341
90.0296
90.3135
90.2972
89.5875
86.044
88.4471
90.4758
90.4667
86.8281
89.9272
86.5547
90.3585
90.9478
85.7078
89.8721
85.5581
89.5173
89.8388
90.0549
89.3281
89.5937
89.7928
88.8946
90.0707
89.1967
90.2854
85.6268
89.9067
90.0093
85.9147
89.6236
89.5463
89.8041
89.5245
90.1569
86.95
86.2536
90.1266
90.4579
89.2526
89.5937
90.3763
90.4486
90.037
90.1179
89.2346
89.7751
85.9717
89.7007
90.0307
89.1394
89.7111
89.7623
89.9893
90.7561
90.2476
85.0753
90.4715
89.9723
91.0108
89.5077
88.9757
89.9893
90.8606
89.5868
89.9104
90.4315
90.4113
90.1735
88.5404
89.5507
89.521
89.8205
89.0454
90.1777
89.6887
89.0141
89.8388
90.2438
89.8419
89.7282
90.1421
90.0036
89.5454
90.0432
89.9192
91.1774
89.9164
89.9336
89.4509
89.5028
85.1978
89.143
90.6247
89.5696
90.0281
89.8024
90.4111
89.7865
89.938
89.6172
89.8834
90.1734
90.1057
91.8258
89.5645
90.1098
89.2798
89.889
87.4843
90.1739
90.1638
89.8519
90.2088
89.6567
89.712
89.6187
89.6708
89.9742
89.5271
90.0919
89.9742
89.7769
90.4973
89.7428
89.3107
90.213
86.909
89.4564
90.3542
88.6572
89.596
90.2207
88.5576
89.6923
90.2174
90.3568
89.7808
88.911
89.9261
90.2811
89.7894
89.9103
89.7906
89.1255
88.9742
89.2165
88.978
86.5068
89.3058
89.6273
89.5335
90.2782
89.8082
89.8427
90.4577
89.7985
89.4819
90.0032
90.56
90.2163
91.244
89.8486
89.4619
90.3662
86.6796
89.6599
90.437
86.6323
90.0203
89.7582
90.264
89.2469
90.3068
90.0982
88.1765
90.3086
89.5689
90.5693
91.4413
89.7347
90.8177
89.2517
90.1554
89.9477
91.0559
89.2383
90.0379
88.1631
89.1955
89.929
87.7843
88.4804
90.1776
89.7958
88.0139
89.3357
90.1316
89.5315
89.466
83.8986
89.5536
90.5288
89.8211
89.7249
88.9128
89.7124
89.9781
90.2768
90.5679
85.0715
90.847
90.2773
90.3886
88.941
89.4431
90.0254
89.8137
85.6535
90.591
89.8042
90.4586
89.7541
89.859
88.8755
90.2023
88.6696
90.2369
89.5632
90.6966
89.5911
89.7464
90.2207
88.1487
89.6491
90.7625
89.4877
89.8494
86.4321
89.814
90.1575
90.1155
89.4462
88.9788
90.6645
91.051
89.9864
89.7212
89.9995
90.9127
87.954
89.8426
83.6766
89.5349
90.5909
84.5105
89.5773
90.7072
90.3586
89.7056
90.0146
90.5897
87.194
88.7092
89.4491
90.1302
90.3018
89.8921
89.5743
90.3455
89.7901
90.0525
90.3108
89.7875
89.392
90.2326
90.1914
90.3137
89.115
90.1859
88.9719
90.0853
90.299
89.8701
89.659
87.2945
90.3137
88.7371
90.0201
90.4961
89.9756
90.4922
89.5767
89.7072
90.2315
89.5007
90.4007
90.1924
90.0006
90.7639
89.9954
90.4237
89.7403
89.4626
89.9616
89.1694
90.3949
90.695
89.7083
89.9588
87.7519
89.6058
84.2143
90.0731
90.1979
86.774
89.4724
87.4365
89.843
89.9453
90.8911
90.4773
89.6071
89.6151
90.4821
90.5391
89.0675
89.4936
84.6352
84.8792
89.708
90.0064
90.4674
89.3022
89.4854
88.6454
90.1627
88.0475
90.0367
90.0593
89.7475
89.6203
89.7504
90.0546
89.6781
89.7094
90.4785
89.7652
91.5461
90.3504
89.3958
90.1529
89.8615
87.8342
86.721
90.1093
90.2746
89.201
89.7592
90.156
89.7973
90.1707
89.5806
89.8893
90.1606
89.911
89.3968
89.2492
89.6743
84.9666
90.1693
88.6128
88.55
90.411
89.952
86.751
89.9128
89.7919
91.008
89.4966
89.5696
89.6891
89.6566
90.0293
88.0979
89.6094
90.4031
93.1246
87.0828
87.7012
91.9179
83.0983
89.8295
78.7699
)
;

boundaryField
{
    frontAndBack
    {
        type            empty;
    }
    wallOuter
    {
        type            zeroGradient;
    }
    inlet
    {
        type            zeroGradient;
    }
    outlet
    {
        type            fixedValue;
        value           nonuniform 0();
    }
    wallInner
    {
        type            zeroGradient;
    }
    procBoundary2to0
    {
        type            processor;
        value           nonuniform List<scalar> 
42
(
90.5673
90.5673
89.218
89.4519
90.4225
90.5685
89.0966
89.0966
90.4405
90.3634
90.5183
90.5183
90.2612
90.4127
90.4463
90.656
90.4886
90.3131
90.4102
90.9211
89.9346
90.2826
90.2826
89.384
89.9346
90.1124
90.4438
89.9904
90.4438
90.5171
90.4827
89.8277
89.5506
88.954
88.0183
89.4519
90.4886
89.4122
90.5191
88.0544
88.0544
87.5111
)
;
    }
    procBoundary2to1
    {
        type            processor;
        value           uniform 91.3636;
    }
    procBoundary2to3
    {
        type            processor;
        value           nonuniform List<scalar> 
29
(
89.9979
89.8385
87.0534
87.7556
91.8206
90.3094
84.1764
90.1622
87.5013
87.549
90.2281
91.7292
89.9898
84.3808
84.7145
84.1889
87.1763
87.1763
89.8385
84.3808
84.6104
87.2605
84.9149
87.4963
84.7834
87.1031
87.5013
91.7225
91.7292
)
;
    }
}


// ************************************************************************* //
