/*--------------------------------*- C++ -*----------------------------------*\
| =========                 |                                                 |
| \\      /  F ield         | OpenFOAM: The Open Source CFD Toolbox           |
|  \\    /   O peration     | Version:  v1912                                 |
|   \\  /    A nd           | Website:  www.openfoam.com                      |
|    \\/     M anipulation  |                                                 |
\*---------------------------------------------------------------------------*/
FoamFile
{
    version     2.0;
    format      ascii;
    class       volScalarField;
    location    "0.9";
    object      epsilon;
}
// * * * * * * * * * * * * * * * * * * * * * * * * * * * * * * * * * * * * * //

dimensions      [0 2 -3 0 0 0 0];


internalField   nonuniform List<scalar> 
5794
(
0.355578
0.329328
4.33284
114.076
42.4593
1.01058
9.42128
2.16029
93.8632
0.240374
36.5668
5.06586
9.1224
39.1
0.408973
1.13005
369.837
53.2399
0.387197
0.183399
61.3233
0.941442
28.0207
1.37269
15.1912
109.702
274.4
40.1748
94.8761
0.491441
5.24638
11.8154
21.5044
0.547529
1.64837
2.94211
4.42729
25.708
41.2723
94.9594
24.9827
7.32473
9.35479
13.19
0.374066
47.2175
23.9544
10.4003
0.197448
1.85656
6.94597
59.8726
0.701624
0.27542
0.0895624
43.1144
20.6534
15.7938
5.84156
229.947
59.391
0.280078
4.52929
14.5695
25.7899
0.320279
52.6625
27.6021
57.1449
0.232474
80.8337
60.0942
315.95
2.06309
57.5206
23.7264
2.85475
72.1348
11.5956
2.97912
0.618657
0.163371
13.18
24.6823
13.3882
69.5138
33.2134
100.369
1.69357
32.8039
110.525
24.6633
65.7463
110.785
36.3527
65.6518
82.4077
54.0583
22.3167
66.0216
50.7578
7.4287
7.36073
44.8804
7.57434
88.9205
0.202075
8.92599
43.8881
10.311
0.515191
0.263832
54.8764
0.560285
29.317
85.5493
0.471256
81.3902
53.5499
22.1003
84.5799
0.60042
5.81762
33.5378
0.27566
50.9143
61.854
1.26265
69.7549
11.0227
4.88356
9.08024
27.2712
59.5033
94.8688
0.408701
124.112
0.285786
3.15685
0.386303
1.10891
32.2262
0.328802
37.1178
3.09602
305.955
56.6518
50.2817
29.6655
23.3213
12.2465
0.198466
91.3554
5.82958
301.862
42.4733
30.7763
17.2755
81.5316
16.6335
0.313559
1.71139
0.498303
3.06043
60.5918
73.9281
4.23268
1.84261
0.471058
0.295492
0.483255
30.9566
2.51681
1.63696
0.800739
20.4876
0.425216
8.97012
0.908578
79.6293
2.79858
20.4034
3.32693
48.6125
4.16115
315.761
9.93605
16.4273
0.220721
6.62245
46.4808
14.7382
27.9635
4.0404
13.7563
6.8838
4.62702
1.24922
0.407011
6.80451
14.3997
64.4695
6.59569
6.32546
29.1926
56.1909
4.12721
19.0361
161.318
45.8286
9.31677
10.2625
3.55766
1.85075
0.716906
5.30474
9.72672
34.5756
29.4486
77.5866
9.825
31.6771
157.988
56.8595
147.958
164.717
7.61326
0.2679
0.24755
0.442636
1.60577
1.23546
0.444495
33.0599
26.5961
195.779
219.915
33.8488
10.4625
0.843141
0.18021
56.4488
36.6686
37.759
6.70313
1.00805
0.359195
26.9331
147.879
84.6866
36.3591
0.334685
312.887
0.193923
4.95422
124.288
6.94136
18.4977
14.8461
0.276371
79.963
3.58721
1.9325
0.309553
21.5624
14.685
31.1171
71.5302
0.271836
58.3461
29.7855
7.16547
16.3774
74.9466
16.3614
0.446228
0.258538
1.1723
0.114426
9.6697
3.12175
81.8367
25.4662
7.15396
70.353
97.7815
39.2785
49.6963
145.677
86.3845
2.11204
1.26655
0.50401
0.21155
4.82978
117.773
28.2637
6.03548
54.4152
0.371554
0.197767
54.1477
0.826989
41.8916
4.0817
75.0237
0.118632
50.2177
65.4877
33.9767
11.6019
43.3282
48.5569
0.573844
9.82828
35.1226
12.0703
47.5645
46.3251
127.525
3.49616
5.89669
82.676
40.2331
1.11202
17.7
1.97607
5.62909
10.8337
34.1046
72.1656
8.62732
5.30804
22.4665
13.1709
0.274328
0.378536
0.494703
0.225682
11.0481
1.62319
14.0996
77.5623
29.5171
0.487017
2.93605
76.1904
26.92
84.0689
39.1199
59.2194
388.504
36.3715
17.4472
3.82601
258.994
0.567246
78.7768
10.9316
2.69966
14.9495
14.9712
98.3005
9.07416
3.14393
2.73503
65.5927
56.204
27.7007
15.2904
0.285821
0.37974
2.75714
2.18577
21.1161
50.2058
41.4209
21.4433
27.228
0.136899
1.71715
0.281158
12.5111
2.8242
1.53422
0.519132
94.3863
4.86441
1.73365
5.06408
1.70031
62.6905
0.184682
2.65359
1.6329
1.18451
0.614302
2.04793
0.342403
21.9436
1.10881
9.5327
168.167
1.12803
0.691252
43.8451
11.0269
1.13153
0.212825
79.8927
50.8561
20.4302
32.4241
28.4821
75.0874
39.976
4.43103
66.5673
54.6696
81.2247
22.4144
52.7707
14.2328
0.296029
3.17985
1.8353
0.740856
0.5233
0.192285
0.513942
60.1594
5.76506
33.8744
80.1875
0.373439
0.478918
8.04785
19.5736
2.74816
1.51779
0.500962
8.11852
5.22063
3.47407
1.28981
93.955
31.8257
2.33755
0.507258
54.1173
0.437369
0.231156
88.1889
0.749008
69.8995
0.299653
75.2549
69.8275
41.9711
164.59
0.785538
0.323596
15.688
1.24985
73.8665
11.013
160.004
69.7238
17.5138
7.93967
0.369027
201.36
50.3271
0.213754
0.231138
95.4588
195.237
47.7805
3.61107
0.304693
38.2748
0.755187
0.283842
0.217351
14.0611
32.993
10.1575
1.61747
255.451
0.530394
0.219064
98.0542
89.6232
37.8153
10.3872
0.39603
0.418347
0.277573
2.05162
38.8789
87.0492
197.295
8.69771
9.30367
39.2634
0.323443
0.854595
31.295
39.0445
0.378119
63.7721
0.12496
2.21195
0.24964
0.536655
25.4035
74.8436
0.231296
5.54717
172.144
1.45257
0.216722
55.5781
79.6162
11.5949
0.320179
6.57444
46.6935
0.255412
1.05442
22.0337
0.6233
159.227
0.244891
0.800446
0.938745
6.61229
160.543
10.3621
65.313
0.716895
96.5944
0.184531
46.5823
3.00272
0.987055
5.49941
36.6379
0.485786
1.24083
44.8731
0.168945
0.530699
4.73775
0.841543
0.596699
19.4516
1.09807
0.254243
28.4485
480.694
0.568952
58.0658
0.174767
43.2126
1.9345
0.857931
20.0117
1.1009
0.378347
83.5751
26.8862
129.182
96.4574
138.587
8.93446
72.4465
63.8221
8.11612
28.1328
81.4618
26.593
104.033
194.016
81.6318
54.9971
0.466445
60.8246
21.107
89.6491
0.389122
0.829689
0.30244
92.9794
29.6805
39.7318
0.138886
9.33507
0.210956
0.608014
0.203699
96.0151
29.8358
103.728
0.29805
8.42045
152.505
0.331556
0.101247
10.0245
83.8885
121.029
37.8077
2.4012
2.24469
3.23839
35.176
29.9536
7.52299
76.2408
0.268732
42.6555
61.1632
12.9044
0.239296
0.403721
2.10901
33.8886
73.7818
0.463584
0.48276
0.153229
0.206447
1.70849
0.199723
0.260111
77.999
26.4157
0.335838
42.1732
3.70625
8.84103
27.9656
22.995
126.893
129.715
42.4776
48.3979
0.232341
0.220776
1.05907
5.84976
0.245963
2.98692
2.5759
77.3563
199.728
39.1581
190.029
4.45733
0.150204
0.333977
0.736585
62.5595
0.279516
46.575
147.476
101.128
40.7438
47.8607
35.7346
2.50977
184.297
37.2508
25.7182
32.9285
115.346
2.90456
38.3516
1.82209
0.324668
24.4733
0.304474
1.32416
28.2618
138.779
118.296
0.25711
0.118523
0.216947
40.4568
173.478
68.0758
41.8773
0.22044
42.8536
17.5982
0.20041
0.926322
9.83023
0.254081
10.2083
0.612132
18.9935
27.8254
159.597
72.7628
0.228978
0.260348
112.143
21.4473
186.505
45.194
74.8753
40.9873
16.2214
8.75747
256.799
47.1284
28.9639
42.8758
102.043
159.701
0.322427
104.727
3.60361
14.8745
28.2484
92.8185
38.512
42.0489
41.8992
128.801
28.0706
0.216166
1.74773
314.483
11.4464
23.5974
60.967
96.8
0.415606
0.852148
0.341953
3.31133
86.8134
37.5831
129.608
1.68246
8.99034
0.525728
4.36381
0.319691
0.273055
28.0539
94.819
5.09588
115.69
37.592
8.5686
1.88034
196.2
78.8169
42.8716
146.514
99.691
39.2786
54.5186
8.77278
56.1847
20.47
85.5337
24.2984
0.240534
1.23323
0.385175
0.271565
4.20699
41.1646
1.12471
22.5662
222.648
12.0471
0.976798
0.299232
82.6836
30.6221
21.6224
87.0725
28.4302
2.92172
81.0565
58.6974
37.7604
3.48352
35.0106
0.238294
133.438
0.601848
81.3245
9.6215
13.0566
1.72176
0.515531
0.410796
0.190582
21.5993
42.3855
82.3742
187.944
44.431
1.13343
7.0387
33.9407
139.495
0.650901
9.89792
14.3735
71.6361
0.243181
1.05166
18.5777
49.4276
162.145
0.483713
17.4425
0.155795
0.208218
0.229602
21.8945
65.8578
82.7625
9.33197
0.244003
70.7805
0.212331
4.82934
308.718
0.666155
0.166619
3.31259
0.181731
20.725
3.24579
25.4961
0.476191
1.24641
6.04798
10.7438
171.008
32.1107
111.872
41.6913
51.6721
70.2907
39.2143
166.471
32.1024
0.536267
0.285163
5.11059
28.4856
6.13995
0.330737
199.921
50.459
90.3096
16.9036
0.291791
55.174
3.50529
14.1415
53.1874
1.05529
231.095
0.137563
0.269207
56.0038
16.8621
6.3669
5.82386
54.7529
10.6514
6.93271
0.299463
0.249456
49.5997
71.3809
9.70312
10.0892
34.3795
1.09515
38.6926
133.575
74.5991
84.1426
32.8264
0.474994
0.188728
16.8032
0.468838
0.210232
0.194071
1.60164
25.1763
0.253628
7.3644
0.469734
102.485
50.0436
11.4233
8.09683
8.05976
15.8835
187.262
25.4815
74.4443
6.29943
0.386589
177.544
11.9621
40.0915
7.35431
114.454
55.0342
61.0011
1.81572
122.685
91.3364
2.80597
1.32173
0.660877
1.3371
0.427203
72.8446
44.2753
78.3167
79.5812
22.3992
52.3653
25.8146
12.4338
0.226913
1.10915
13.6742
0.43851
147.783
21.5013
164.112
6.95379
74.5785
64.502
0.272794
0.633776
146.825
181.644
10.0444
9.8816
23.0112
64.9201
0.22361
43.1946
0.32921
3.39678
2.1896
0.276142
0.271098
0.234471
0.836223
0.388525
0.190355
0.431769
7.96718
57.7027
5.35747
0.13221
0.479435
76.6795
9.7193
26.8579
1.58188
32.7528
0.29153
39.2858
4.76531
0.977039
0.681233
11.1916
43.8073
0.480298
9.99696
0.424683
0.793011
9.23166
63.9639
21.5118
104.764
145.34
0.327536
11.0609
29.0308
38.1687
26.7981
29.3036
43.8405
100.791
0.556834
5.48426
0.434763
0.48071
18.862
11.7093
171.716
157.163
111.356
0.112016
22.9967
136.954
63.074
56.8728
50.7748
0.212882
0.873698
0.278762
39.6451
11.0317
37.7998
4.55886
4.43263
4.40884
4.82133
10.0847
12.8958
0.238138
0.800415
24.869
31.5082
12.107
0.189484
8.20352
50.2739
0.384949
0.220816
0.251785
0.740065
13.2331
0.420618
26.0036
0.268893
10.365
17.134
0.409326
55.082
10.2634
0.305393
5.79708
76.8102
0.252833
65.4988
1.95771
1.13651
0.266568
2.58874
0.151923
0.351453
10.3685
0.439536
0.137816
0.581852
1.47981
2.45957
58.7999
27.4232
8.93169
100.627
31.6204
0.158068
0.328142
89.3065
6.57248
20.9807
85.1419
0.20961
19.5201
0.621184
69.8855
0.133524
55.6976
0.128238
94.7724
45.0806
0.36122
36.1595
0.657265
5.59823
0.867899
3.39778
30.6806
33.8534
0.575148
38.0537
0.173878
0.45119
5.57394
0.305409
0.981065
45.7196
1.32221
19.3203
0.291365
96.8666
0.140358
1.16891
0.232799
4.50119
51.2331
18.2145
1.0806
28.7014
7.53759
16.2229
113.742
39.0556
0.280167
4.04163
52.2958
12.7388
21.0498
6.92469
55.5026
78.028
64.4942
23.228
62.6394
8.76153
8.6748
0.20982
1.54463
2.89748
0.325536
739.084
40.325
0.304165
1.02423
55.1709
51.3086
8.65481
0.34989
6.25119
23.6381
1.43127
0.44901
52.2817
1.9725
28.7041
8.19296
92.2479
0.193258
0.7109
0.646435
4.40646
4.96602
31.667
0.264804
46.2844
0.795772
99.9506
6.63013
8.27378
4.35452
23.1443
9.25162
17.7909
11.4948
4.50493
0.587876
1.04826
33.9654
10.4514
5.55193
0.156297
0.449399
19.9555
38.9644
23.1935
1.51871
9.34599
7.50095
1.31599
7.45567
7.29863
11.624
12.1905
11.1125
27.2821
0.213896
60.1643
0.284585
294.609
0.292322
0.124594
0.289445
1.07397
0.231645
46.2905
0.236125
6.44197
0.802922
3.82596
38.0897
223.601
89.3575
0.126833
0.379267
2.41742
4.46032
56.9391
18.6989
1.84594
8.61781
0.262321
58.287
3.47257
17.6385
33.5454
5.84655
8.27203
34.7711
0.376409
0.521299
31.4174
83.2667
32.2338
11.0374
7.06109
11.1673
0.221958
59.0886
186.116
39.3085
101.064
0.284398
0.555235
38.1851
9.98782
6.05879
0.17567
13.0849
40.5589
1.29607
0.603911
3.5055
0.820125
0.307999
2.74393
2.15587
31.9331
0.448679
9.29125
31.875
121.491
76.505
0.834793
31.3821
4.42801
77.3407
1.52409
49.9982
109.8
28.1917
59.3172
1.09822
35.4606
34.6036
172.847
1.43183
0.233826
0.206012
75.658
1.2555
0.581155
42.2018
12.9035
0.858691
21.329
8.82392
1.71821
36.9476
0.927074
0.256535
7.39539
2.09306
0.227258
0.705612
79.5904
9.35931
49.7825
43.3728
41.5277
0.25946
105.405
1.24445
32.6031
11.0926
5.347
3.39949
0.428167
34.4337
0.358258
0.293843
0.171917
55.4058
0.130085
5.89488
24.9036
179.288
0.538535
139.651
153.033
1.08153
8.84649
0.32847
16.951
5.43216
60.5496
77.58
1.25509
0.919383
17.0953
28.545
36.896
169.18
78.7177
114.688
74.6503
17.3499
1.05614
0.288373
16.5947
0.314277
83.6741
0.146275
0.525674
0.179976
16.8055
3.74821
1.28854
0.335756
1.87023
3.30801
0.703326
0.220523
0.351743
7.60563
2.49715
33.6851
13.9591
0.512846
144.157
31.2929
57.9893
18.3767
0.270472
45.9145
0.273261
0.590393
0.2695
0.608309
586.195
11.3846
45.357
20.1038
75.0505
100.827
18.117
0.205521
0.222909
0.726218
0.599295
1.86564
1.38171
2.65162
0.877803
1.95912
3.06722
2.11688
0.86752
0.986532
0.440196
0.492812
2.05343
1.8716
2.17307
1.07306
0.759254
1.17311
0.335604
0.579682
0.115137
6.73806
1.1803
0.632984
0.410095
2.73968
0.414822
0.960191
0.783223
0.389641
0.554615
0.513779
0.198285
1.55845
0.3554
0.702662
4.36414
0.396009
0.294299
0.687273
1.11419
6.69665
10.7716
210.116
0.180473
3.75761
36.1367
93.2098
37.4784
0.193706
0.314797
16.1072
0.181278
18.0853
71.9104
358.88
62.1187
103.454
25.5774
0.137736
0.13887
0.655137
0.22776
0.834078
19.0262
1.52435
3.4375
0.60078
3.25176
19.1483
17.358
0.936377
15.0693
9.75716
436.38
0.29211
4.16262
1.57006
13.314
54.8265
0.970619
58.567
39.7519
31.1852
26.3147
8.41245
20.7256
8.35113
11.4955
13.9057
757.327
0.247421
1.35279
0.704985
44.8253
41.4877
0.313154
69.6214
50.9201
0.771201
1.71447
3.20496
0.897872
0.370304
2.04952
2.49215
0.325785
0.363458
3.48557
1.01382
0.726713
0.197514
1.08485
0.378516
0.89681
0.995821
0.541309
1.96018
0.397889
0.361844
0.233561
0.635304
41.3225
63.8474
6.7411
21.5502
3.06549
13.9162
35.2628
0.251972
62.4065
37.4244
4.30457
41.9855
43.8243
1.4276
0.27154
44.0638
39.6864
0.229118
188.165
93.35
35.9292
0.191342
56.1401
31.3902
0.29353
58.4391
13.0872
62.7661
0.935621
3.74969
1.05833
62.2946
0.240325
41.0305
59.4328
1.64002
116.147
0.49814
77.5433
0.238869
0.864846
0.174158
66.9794
0.193912
0.22937
2.45466
0.24064
109.895
10.7396
88.2739
19.8684
5.59987
6.46281
142.898
0.515098
9.12128
8.09044
67.2733
41.214
0.798922
0.271624
13.7014
6.82582
53.7799
10.2529
0.241046
3.18403
1.33998
8.28792
0.365224
40.2135
28.2472
0.139458
0.288866
86.579
96.7475
12.2534
7.40845
70.2172
2.01241
52.7894
70.5241
39.5113
51.9568
34.5605
0.255986
44.7853
0.264531
0.842062
0.235871
48.228
7.83201
6.13215
7.06454
45.3807
37.9046
0.299825
0.488846
0.362694
14.6928
39.3075
51.3253
189.405
54.4428
41.3819
40.5021
11.4477
27.7253
26.7568
64.7278
26.5844
49.7104
39.7233
50.8629
35.0441
113.059
106.846
2.42175
62.6415
31.2857
20.1071
13.3054
9.5386
91.8037
42.6208
7.51472
52.8918
27.1963
109.859
2.39823
5.45059
251.686
7.07579
63.7434
14.9468
0.438575
0.203619
0.62686
58.0563
0.249872
0.68761
0.830401
60.5035
65.876
52.5154
41.6591
71.2503
60.0965
72.2833
0.293044
72.6276
67.609
66.022
48.4261
63.3082
45.7741
69.5032
63.1084
67.6254
16.5379
14.6391
8.35936
166.068
8.9899
4.24169
2.42391
4.06734
0.379561
0.499899
14.1404
29.0314
5.18734
0.334202
0.507665
36.238
27.5062
17.4692
5.64102
3.50369
4.0751
1.97713
1.28037
6.02228
1.6856
107.945
1.11057
8.68701
2.02914
2.27965
0.29893
13.6645
0.341823
10.9911
1.80064
0.319673
13.6488
2.75942
1.29167
2.22947
1.34943
0.442921
69.6835
0.429752
32.083
15.5542
5.93162
47.6206
101.27
0.434527
84.8803
29.5581
16.1789
123.457
0.426168
0.388316
111.401
25.5579
98.3449
0.452335
8.47993
123.305
109.538
73.8982
0.396694
0.422317
0.38274
19.1042
6.43211
265.316
0.436391
10.382
3.83081
0.448188
16.6751
0.464065
5.37688
50.6026
33.0227
11.5413
254.658
80.888
0.356144
83.0556
0.484797
3.61814
10.3605
0.543722
129.625
7.44854
248.35
6.37541
2.46183
0.509319
56.5221
241.06
0.309137
100.908
43.1941
10.4458
4.56001
2.23793
0.300551
4.65706
53.9106
26.4595
53.3705
169.196
157.183
1.88407
8.03124
7.4944
88.3324
3.90992
0.59295
1.59493
220.081
0.202868
0.657381
0.574025
32.162
7.57151
11.2284
1.45272
6.7628
4.76341
0.558263
3.17317
34.3953
1.15313
1.42015
3.41687
4.69793
0.550998
2.86792
1.50403
0.370716
132.689
2.7509
2.10576
4.44598
3.68606
1.13892
6.24017
6.08324
3.36406
0.238069
3.77088
23.6346
48.1042
3.3187
6.45592
1.73419
8.07588
3.82616
3.91002
1.48643
4.42877
3.90759
4.16077
1.68811
9.8152
5.14168
174.228
2.42299
6.27297
4.7647
4.9548
5.22375
3.96997
16.0401
1.36305
4.34332
5.81914
4.24291
4.3875
7.12205
6.17779
14.1424
1.42542
2.64973
4.19341
0.77689
1.15387
5.57213
3.43944
2.80764
3.78483
2.09375
3.83677
12.5888
4.48552
4.68977
3.7309
0.47676
0.69488
0.231655
6.52771
24.4808
4.18809
53.1198
12.27
3.39859
3.52969
4.5212
2.33124
27.8928
50.1965
8.64457
2.46727
6.51997
3.19998
2.48473
0.683136
4.5261
9.74516
4.00255
7.64906
189.611
26.2773
1.01047
10.9708
12.8029
1.4261
0.720412
0.254171
0.432086
33.7173
7.44754
2.06202
5.13695
4.81981
0.727606
0.259292
0.430019
60.3417
27.0183
3.82613
34.0182
80.263
6.68215
1.76737
6.46627
196.457
11.2183
0.652306
4.20197
18.2411
13.4332
3.73229
34.4038
22.3267
9.41966
30.1586
11.3993
0.661111
0.216177
0.379965
23.7647
9.96832
34.0574
29.949
79.418
1.44553
191.212
162.527
1.47305
6.1032
8.45268
4.13414
11.7328
5.37998
8.42729
7.34513
13.5191
11.5628
5.30204
48.5936
31.3501
52.5178
2.32177
45.6421
5.9307
1.66823
37.5253
0.22837
0.223331
30.4374
9.06042
5.27004
27.9357
0.56672
6.52334
6.61766
18.924
21.7032
7.61423
0.66625
0.20621
0.433167
39.3688
51.886
2.203
29.1856
62.5337
57.0076
79.3054
4.97712
1.78087
1.31454
1.24611
1.65298
170.883
1.32796
48.0664
54
4.82032
10.674
116.522
0.533155
1.0068
10.8805
13.6639
16.2489
6.05748
48.9123
51.2193
12.4054
35.1336
36.3301
0.235062
4.15897
2.04734
0.618341
0.595469
1.86387
9.48952
7.42143
13.8864
0.544523
0.179067
0.433231
96.8694
88.328
0.224375
0.323442
106.45
78.7252
23.0852
0.244929
62.8238
4.26322
2.73306
1.25801
1.87831
185.6
1.20821
0.270856
0.227768
125.001
75.2445
94.694
1.16253
89.0873
83.011
28.9284
10.0156
17.9254
23.1204
11.3717
3.35648
2.77296
3.8265
3.95386
32.8994
27.5522
1.08454
0.74628
23.7091
41.9399
40.0773
77.9443
49.7704
25.4121
3.8731
42.6829
2.84242
3.82554
128.249
53.931
71.0042
92.2069
53.2646
24.3368
15.4385
14.6941
7.98747
1.17336
3.81623
0.559466
0.177294
0.435587
1.59163
1.84585
1.38922
83.1803
85.0446
14.0231
66.0314
5.30452
6.05167
4.61766
1.6029
99.528
26.6955
81.3439
22.8841
1.26667
6.27153
71.3796
13.9839
11.3199
0.17837
66.6776
4.17868
4.9959
1.73396
34.619
69.6155
4.94916
3.65364
24.4599
111.81
1.38482
0.886852
0.22585
1.69088
1.18996
1.10222
59.7502
1.00802
0.35034
0.491328
26.2739
1.50779
1.70456
67.3939
0.243872
163.908
3.07943
2.82846
3.59834
34.9201
171.829
15.0331
3.11524
4.21258
77.7248
50.1997
0.193795
1.69306
0.960797
3.78703
12.2378
2.1015
0.559127
11.0186
6.80953
0.17186
1.1355
4.04434
0.951188
10.0448
4.37059
2.73249
4.03925
1.56634
19.9978
34.1551
4.09215
30.219
17.3722
2.17994
3.21056
50.9397
3.54946
71.9239
43.2845
6.04228
41.6617
16.341
132.228
27.5664
53.5627
3.08925
86.5016
6.27071
18.5436
2.56429
1.40888
58.3527
6.27906
9.79247
5.58755
15.6341
7.81959
5.34205
64.1845
19.8086
57.1958
22.5021
4.78483
3.96466
0.447011
0.173657
0.42658
32.9388
143.657
18.4935
1.06445
0.359408
98.3103
8.98397
200.114
116.732
53.6427
71.8884
40.5046
0.63955
31.466
1.9059
3.99015
39.0409
54.5407
0.303939
9.59721
34.4973
35.9253
75.3656
0.567871
15.315
62.9936
49.2002
6.24804
0.469596
52.4363
99.8199
9.25055
21.5964
83.7908
93.0199
24.6686
0.251097
4.25221
29.9876
21.6501
0.218877
31.0159
25.005
32.2452
4.44044
23.9773
24.875
120.316
4.59207
2.0862
0.180552
0.400435
31.7329
146.954
74.4814
84.3618
68.0437
313.853
0.740951
4.95129
6.20411
51.7593
3.71244
183.186
39.0315
0.558896
0.770953
1.76017
0.232817
0.259218
67.4025
73.3502
61.3499
42.3556
172.031
57.9987
7.1864
17.5491
93.8971
116.238
33.0239
532.361
4.96304
0.229019
34.8352
95.224
25.3312
23.4047
42.0582
7.37399
0.283444
38.7643
0.219364
0.483022
28.3302
0.518264
10.5937
0.469589
63.2286
3.37183
47.2941
6.67923
10.1434
15.381
23.3611
35.8462
60.7095
0.470393
130.77
3.06727
3.30469
0.206509
0.490162
3.55832
78.6936
47.4987
102.246
1.39414
87.7921
130.23
0.97106
26.4405
2.8768
4.01603
1.94694
2.10348
90.7896
51.2677
3.75135
3.35383
60.0921
14.952
17.9733
58.5642
1.11049
17.0759
5.62774
109.024
5.02392
35.0163
0.307264
0.232536
12.8571
90.8491
13.3292
57.4856
72.0801
2.49988
2.28713
39.3361
3.96364
0.654534
101.203
0.495754
0.252388
165.856
11.3792
75.6372
1.22086
49.8965
60.6783
0.352534
7.60633
18.096
59.3279
54.8545
3.39786
23.7811
49.1504
47.9182
13.7243
10.1052
8.90543
2.32077
0.213327
0.400041
65.1463
30.8078
6.23686
2.69368
98.5037
8.75321
44.8439
28.6007
1.24798
5.11507
59.897
85.1083
0.370435
0.147184
0.50528
44.8761
26.3389
50.765
5.03751
3.40966
52.4199
73.2527
0.220479
36.5723
132.704
76.0976
27.2782
73.2671
0.951416
24.052
81.2792
0.437571
0.183346
0.426027
21.2539
0.309689
6.31863
57.0023
0.240832
36.5935
16.8319
5.40026
6.10101
254.298
8.87999
24.9933
0.261654
31.2319
67.4586
33.2738
5.90138
0.360813
0.186636
0.399007
42.4704
14.1928
16.7046
81.0703
15.3405
30.093
206.825
48.4977
59.0652
0.579211
61.6044
2.87011
0.641113
51.8019
27.9481
3.46728
0.684547
1.81183
23.6208
38.7993
0.874184
0.346571
41.6597
85.2056
5.15655
16.6523
8.51259
90.5195
183.614
165.306
0.245636
14.4683
66.8324
120.961
23.2361
51.7122
5.10975
23.2308
22.6573
66.1905
14.2025
37.3733
3.55194
12.6396
0.182506
32.3876
3.82956
0.331605
37.0811
2.30065
6.01337
110.771
32.2214
0.246477
1.18232
44.2895
39.9151
52.5981
27.6622
3.60618
2.23594
0.197927
0.350646
0.254011
1.04097
98.0786
0.51554
25.0289
60.1377
3.29663
0.275842
4.19167
9.11204
102.75
0.254549
0.26051
0.37315
2.27387
29.3293
2.07277
3.62624
0.151222
0.229406
0.506151
0.546983
4.1248
2.07044
5.91486
23.9214
19.97
1.26286
29.6922
7.80874
18.4016
2.12776
0.90343
0.302274
0.54904
0.285073
44.0018
0.265061
48.9786
70.1617
39.3596
59.5651
0.252697
6.35259
1.00954
219.475
2.57269
4.37449
0.333796
0.21329
0.397647
4.83938
0.532182
71.7828
224.157
0.239109
4.16059
0.401806
3.51187
2.44602
24.4533
0.185484
59.464
19.6179
44.2035
73.2394
0.755892
2.42488
6.77837
93.2631
3.6245
63.8525
8.53854
29.7849
0.495993
6.81878
0.583858
5.1529
4.86756
22.9357
25.7434
1.1543
0.290339
4.14429
1.01039
1.28438
33.1798
53.7518
44.2062
47.3164
46.8957
16.6853
31.5477
6.80233
76.2224
5.91326
22.3096
0.294948
42.8678
62.84
90.4826
12.0135
0.440422
2.33726
0.810725
0.296943
2.08793
7.59597
1.49859
4.83717
94.8593
0.200447
2.20277
58.2224
8.06863
30.6952
23.0106
33.4047
72.0524
4.93507
3.95405
2.32942
7.23546
11.8066
1.95813
1.36354
31.0529
0.278636
4.79055
3.69537
0.29382
18.1952
0.381172
0.588335
0.324672
0.189319
0.337453
0.617475
2.97754
3.69263
8.69484
0.476626
0.190077
0.564158
57.2888
47.2987
13.6837
9.49884
2.53983
3.65948
4.4525
77.7621
48.1497
41.5626
315.492
10.1195
74.1834
89.8046
127.058
29.245
0.30321
0.344653
0.181255
0.27143
0.339446
7.65071
31.2626
82.1261
0.328503
0.692544
2.60559
24.9588
11.5841
64.8574
0.124151
1.67811
58.5543
11.7851
24.9898
20.5779
0.846803
0.217867
23.3621
20.9772
106.5
1.15604
14.4025
133.253
2.0203
36.7531
51.2789
1.00845
0.965761
10.9591
1.08278
0.288567
2.77406
0.326205
0.999477
1.77675
1.33497
3.90632
0.416876
2.6856
195.596
59.3646
0.273699
0.173047
0.326211
29.9736
14.9074
0.419535
28.4163
37.4581
0.317355
65.3618
24.4662
37.0049
104.56
234.065
59.6458
28.6951
0.317184
17.1237
49.6323
25.84
3.98646
0.580445
91.4111
0.258387
78.7977
4.10119
0.263925
11.2109
140.014
48.4681
0.285564
2.7078
33.7048
3.36397
6.66845
0.395343
4.1142
1.83662
117.865
3.7095
37.5963
0.269837
0.241135
0.365847
0.775277
0.299486
0.369704
53.9012
0.263823
47.6218
101.704
5.69411
9.53712
191.974
8.10969
5.15311
174.177
17.2806
14.3978
196.337
6.11888
136.368
0.298107
0.200815
0.373805
60.1777
4.17747
0.234775
0.627086
0.236859
0.245678
29.7887
92.3728
29.4402
4.88467
14.3152
93.598
30.0272
27.9432
8.87614
7.26853
13.9287
107.038
37.5873
168.163
28.0768
0.284217
2.94158
0.330887
36.4871
0.975428
55.6618
43.99
17.5559
6.0201
5.09617
34.2785
0.978963
0.19506
0.471453
0.417407
0.263121
9.51164
5.68455
27.8294
4.57562
13.4085
50.1378
51.4646
25.1491
287.205
17.2116
0.450749
0.376138
0.385788
65.3852
3.83455
22.9862
5.57414
0.230214
3.14377
108.662
56.4809
5.52993
6.54947
28.227
54.3428
1.5047
0.232061
0.203544
23.8913
296.738
4.00545
19.2329
35.7278
51.4131
21.6421
9.61851
5.32787
29.1817
72.6903
22.8657
0.228663
6.04467
0.0792877
46.5532
0.07115
26.2656
291.788
12.5437
5.30459
47.305
0.469584
5.3158
14.0496
0.101
29.928
0.609462
0.0765455
9.46838
19.1373
84.2231
38.0142
5.37931
0.984204
0.508032
0.569173
0.133248
0.11558
0.33778
1.9843
28.3705
61.3246
28.1911
13.3422
7.29998
76.4304
60.9093
10.0512
1.96682
0.921687
4.24539
151.162
99.0518
43.5023
3.15426
0.492439
81.9354
1.32572
18.231
7.76674
50.7138
5.26496
117.337
16.6643
25.8837
8.18361
75.8356
298.776
0.176877
36.8875
0.513353
3.07951
51.3043
7.63007
0.462505
0.150815
0.228899
0.290806
1.23934
103.677
26.3039
11.5073
193.331
15.5389
5.48844
61.5566
41.6054
13.0266
116.189
0.440909
18.6032
0.252008
16.0138
62.5747
0.339794
19.4908
48.5358
7.69507
31.3121
0.393241
1.11405
40.174
155.184
51.8746
75.4564
22.2179
313.075
0.305325
27.9659
54.725
5.34551
114.809
20.462
118.255
22.7768
9.46784
244.643
42.5038
37.7219
0.256396
0.188166
0.309781
52.4916
4.02314
4.3399
0.539512
28.7196
31.4305
0.401508
0.509088
4.28253
14.2295
77.5255
3.30494
0.685413
13.0553
46.1048
29.1407
18.294
0.451769
112.15
22.0731
2.66822
54.3436
63.4914
0.28569
47.4543
27.8378
63.5912
34.0361
34.4129
4.94844
0.29888
0.307353
0.371467
0.171562
0.513004
7.8226
9.87284
67.0857
27.6518
16.9103
135.742
33.9271
46.0188
2.17484
7.4866
38.6306
1.6716
16.1328
6.51472
67.8514
129.42
89.1206
31.125
73.5735
3.95241
39.3347
42.748
8.79845
0.195109
0.744708
94.8878
29.8237
1.12279
72.5967
89.7374
0.261582
49.4334
24.1982
75.7982
159.198
72.581
0.127331
65.0437
0.255535
0.330364
0.373561
57.9331
42.8294
68.9528
0.477112
4.31968
101.495
7.58858
0.344276
14.467
53.8724
37.765
72.6839
156.212
55.7475
0.736588
0.333138
39.0106
34.4621
198.564
111.174
157.464
1.81558
0.821719
107.692
87.9893
0.337346
0.146239
0.258299
0.242488
1.80832
0.76681
104.274
12.9842
2.21572
18.971
24.0593
7.59455
64.8714
112.474
66.1154
5.32433
33.219
3.25417
43.234
14.026
6.47579
133.076
129.515
40.2781
76.5938
355.669
301.267
0.665099
1.06607
149.112
81.0376
0.438015
0.216086
0.294226
1.347
39.5046
117.793
54.9693
13.5095
0.29302
85.2082
0.221908
0.522177
0.395472
3.80794
0.795578
57.9083
133.082
49.2613
4.35528
112.941
0.402883
5.95378
92.2736
39.5238
55.4249
28.1568
8.28126
96.3355
66.3395
0.326623
4.42283
2.36737
5.3759
4.30966
17.5152
81.5875
32.884
35.9065
26.3843
18.158
19.8375
22.7532
1.00836
0.31429
48.666
3.85216
13.9624
392.956
10.3416
85.4233
62.0615
0.330645
0.322552
0.351905
0.240305
58.3732
65.1932
67.1699
0.801399
16.9874
5.87677
1.7924
9.94789
38.6153
6.08832
5.56973
4.82717
0.227563
1.00042
0.222029
0.425201
116.636
42.7334
1.20032
56.2215
381.146
113.24
135.614
42.8145
0.385785
40.277
5.42962
3.62348
52.1463
160.081
0.341986
0.380314
0.178477
52.2903
19.9644
89.9481
1.72121
1.9083
44.3293
14.2097
0.188682
0.454555
1.10989
1.52982
8.5576
108.01
30.512
6.10701
92.704
38.5659
59.8958
69.0633
4.70723
62.0039
3.44396
18.5806
54.1579
33.3308
28.6771
0.349146
0.324176
44.7653
1.16368
1.21544
0.432241
79.57
31.1971
37.1437
0.82094
40.4905
0.874794
46.6154
35.1067
27.8212
31.8706
32.7113
57.7261
27.714
1.09398
42.6764
35.3364
0.447308
3.93931
0.451875
3.13905
3.766
17.1876
42.8278
0.508354
2.1495
108.262
1.41869
44.8823
0.243477
0.264565
143.996
171.267
0.215062
0.457072
0.325939
1.92911
4.06768
0.252899
0.825701
0.463483
0.74755
0.440365
0.337915
46.1186
0.786481
0.256133
28.2312
42.6606
1.25849
30.4917
0.634414
1.32235
38.2455
77.6402
26.2803
0.264537
37.9787
120.946
71.215
68.7966
11.4715
0.44763
0.300326
0.402262
41.0535
136.261
26.682
4.36721
8.49743
8.42841
0.222684
1.98153
6.04444
59.9541
4.60398
59.5579
0.199354
8.55018
113.61
36.5383
3.17362
34.6963
0.235468
92.8238
40.4121
35.9267
0.232989
0.835958
0.239557
0.240368
6.96369
16.3908
1.95045
40.7306
24.7475
116.958
18.7855
9.64801
0.619367
3.98129
0.626917
88.4137
30.1161
33.8359
2.39617
90.671
5.61243
21.0546
39.1502
0.245818
0.275923
11.5381
87.8995
75.0724
38.2944
52.6485
35.9104
50.5637
2.3574
3.87855
0.406788
6.1786
4.90258
691.656
93.4888
3.68398
101.533
35.3753
1.54519
1.48113
5.36399
0.972856
0.815201
0.900017
42.8364
33.9998
40.2698
44.1097
32.4653
0.65935
3.00063
0.275345
4.85589
21.6072
59.4598
512.122
16.234
11.0458
0.20929
2.14738
110.789
60.2288
9.05223
0.559578
1.09179
12.3215
5.66204
4.46477
32.1459
170.682
0.372056
0.347156
0.188315
8.98185
6.27851
1.66074
72.4605
1.03656
282.821
35.2874
62.7195
101.123
0.195967
0.421608
7.58466
12.2611
0.368864
5.20544
4.92166
39.5272
81.8754
64.8551
1.84206
2.88941
83.5207
0.4299
12.4312
13.971
41.4168
63.0115
90.1554
0.612428
0.318985
0.364712
60.7724
11.668
146.614
37.7635
1.86931
40.7547
121.859
64.6309
56.9766
6.81938
77.4615
47.3662
19.9609
0.32187
0.445023
34.0173
0.669303
6.77641
11.6628
1.60204
72.6979
401.4
327.363
7.12834
85.1845
3.39734
1.71138
1.37109
0.477221
83.5163
27.9122
0.597261
0.531754
0.296693
1.00273
13.4016
15.8208
93.227
42.4251
1.72625
288.338
1.16399
47.1589
101.548
81.7669
49.4613
20.9621
6.78333
82.7781
0.320927
0.769924
0.254131
0.846312
2.93239
21.9742
61.6163
3.24214
42.8149
0.564947
0.36948
3.38895
9.89344
2.53292
1.99345
92.8112
41.2252
46.4671
10.3823
0.35807
0.254362
12.7876
199.639
5.14343
329.415
0.558012
2.80286
49.9161
40.979
1.15194
31.31
169.99
1.04346
17.9239
45.9494
20.0527
75.7836
72.0809
10.8521
23.7115
1.60535
24.8545
88.675
13.0374
122.603
16.662
6.95907
0.655487
26.8459
15.2769
20.5191
79.8054
1.06375
19.832
7.93527
0.314092
0.549517
6.02579
0.172435
7.12391
13.9665
7.48278
10.7551
17.8268
56.3748
109.136
94.2988
58.5169
0.678149
0.244247
0.741276
0.417747
3.4757
10.0829
1.86397
1.0928
11.6615
82.0557
0.388447
0.928346
0.973152
25.3198
81.523
2.63012
2.50495
1.76918
2.77528
59.6174
34.293
3.02442
0.256033
53.1581
95.2138
25.5885
0.346327
6.40738
0.288948
0.43223
1.91891
0.192338
2.51575
43.8656
0.504592
0.750758
36.9767
56.1387
0.580132
33.0215
0.396287
60.8262
0.244874
89.7888
2.66931
0.626623
5.55787
60.9694
93.8179
102.04
34.2318
26.0246
46.9602
1.41918
51.5636
44.7794
0.541313
0.468021
2.8726
2.75799
168.387
16.5218
24.911
2.09571
49.7794
61.121
68.579
13.1313
561.4
13.2512
1.04477
0.211363
0.221652
0.267736
0.25656
1.21021
10.3952
0.480681
0.432288
0.841566
0.26604
1.12737
4.16242
5.54581
22.6752
60.0761
111.513
1.15461
4.07776
0.182669
2.73082
65.4408
33.2758
14.0218
6.01203
100.002