/*--------------------------------*- C++ -*----------------------------------*\
| =========                 |                                                 |
| \\      /  F ield         | OpenFOAM: The Open Source CFD Toolbox           |
|  \\    /   O peration     | Version:  v1912                                 |
|   \\  /    A nd           | Website:  www.openfoam.com                      |
|    \\/     M anipulation  |                                                 |
\*---------------------------------------------------------------------------*/
FoamFile
{
    version     2.0;
    format      ascii;
    class       volVectorField;
    location    "0.92";
    object      U;
}
// * * * * * * * * * * * * * * * * * * * * * * * * * * * * * * * * * * * * * //

dimensions      [0 1 -1 0 0 0 0];


internalField   nonuniform List<vector> 
1431
(
(0.00291856 -0.266352 -3.47376e-17)
(-0.199872 -1.40149 -1.34355e-16)
(5.78211 0.81941 1.00063e-16)
(-2.99162 1.77898 -4.58579e-17)
(0.226972 -1.04545 -1.48712e-16)
(3.15075 -0.0480337 2.45574e-16)
(-0.875898 0.28729 -2.15487e-16)
(9.76335 0.603905 -2.17974e-16)
(0.045417 3.46369 0)
(0.138648 2.47127 -1.04991e-16)
(0.257455 2.61014 0)
(1.23625 -0.207612 6.44219e-17)
(-0.0948369 -0.307666 0)
(9.11567 0.482833 1.91189e-18)
(0.229755 0.922197 -2.30764e-16)
(-0.136848 3.62845 0)
(0.349989 2.48468 -2.87827e-16)
(1.94277 0.0758871 0)
(-0.0114042 -0.109515 1.46464e-16)
(0.379533 2.69826 3.73189e-17)
(0.0995601 -1.34796 -1.78482e-17)
(0.143278 1.29727 -8.62609e-20)
(2.13093 1.18546 -4.6033e-17)
(8.83381 0.532977 -3.0955e-17)
(1.7333 3.24652 -1.23676e-16)
(0.53792 2.76582 -1.01342e-16)
(-1.4391 4.71282 1.14175e-16)
(9.36752 0.433498 -2.39227e-20)
(10.8424 0.607175 6.05493e-18)
(1.4009 -0.33215 -5.0322e-16)
(7.69297 0.283574 2.36294e-16)
(7.21222 -0.173286 -1.75495e-16)
(-1.85221 0.414301 -1.15883e-16)
(-1.04985 0.221587 0)
(-0.991078 0.25299 1.04436e-16)
(1.91412 8.7078 1.24395e-16)
(0.753108 1.42103 1.06437e-16)
(9.73245 -0.00935836 0)
(0.892311 0.23193 -1.79434e-16)
(9.64962 -0.00567589 0)
(5.10049 0.123885 1.32998e-16)
(-0.900696 -0.235619 -7.30198e-17)
(-0.992697 0.374202 0)
(-0.979013 0.391437 -7.01801e-17)
(-1.06752 0.741722 1.53356e-16)
(0.76756 -1.03247 -3.84569e-16)
(1.47277 4.68219 2.15955e-16)
(7.26211 1.19643 -5.79843e-17)
(8.995 0.527035 1.59384e-16)
(9.49024 0.0885031 3.65171e-17)
(1.49317 -0.242277 -8.62089e-17)
(0.258689 3.24017 9.96676e-17)
(0.272646 4.80406 4.71745e-17)
(-0.64196 0.413136 -1.80554e-17)
(-0.61175 0.48093 -1.46549e-16)
(8.04527 1.71696 0)
(0.291468 3.46118 5.89653e-17)
(0.245203 4.55387 -2.05197e-16)
(-0.460821 6.34631 0)
(0.0954686 -1.32993 -6.95025e-16)
(0.739203 2.07377 0)
(0.545029 0.709165 -1.71738e-16)
(1.34187 7.59599 -1.3805e-16)
(10.5887 0.119883 0)
(10.0087 0.301493 -1.82307e-17)
(1.99749 -0.113461 0)
(6.31104 0.373706 0)
(3.18933 -0.0950101 0)
(0.18488 -0.376418 1.73757e-16)
(10.7718 0.0877426 0)
(-0.662718 0.241053 9.29916e-17)
(-0.566472 0.24389 -1.00148e-16)
(-0.0715386 0.699306 0)
(2.68354 0.0486214 -2.65872e-16)
(-0.0709116 1.03728 1.16683e-20)
(-0.961669 0.313874 2.80885e-16)
(-0.00201791 -0.729924 5.68653e-17)
(3.61751 0.673673 3.22103e-16)
(9.99671 0.165499 1.29611e-17)
(0.979667 -3.03966 -2.11897e-17)
(9.94583 0.0983224 -2.52894e-16)
(1.69463 -0.190788 -2.11976e-18)
(-0.393464 0.300523 2.4742e-16)
(1.31232 0.397344 -8.12648e-17)
(-2.75794 1.3204 4.65376e-17)
(0.219546 -1.19205 -5.05282e-16)
(0.538765 -1.61304 -1.01913e-16)
(-0.27296 0.391099 1.9016e-16)
(8.47781 0.576779 9.30735e-17)
(0.773585 2.22886 -5.01739e-17)
(1.73069 0.127849 1.76481e-16)
(-1.02692 0.573201 2.77329e-16)
(0.571296 -1.50408 0)
(9.7954 0.0319761 0)
(1.37935 -0.0674491 2.21831e-18)
(0.0836271 -1.31272 -8.01275e-20)
(-0.0852954 0.878445 -5.89609e-21)
(10.375 0.534455 3.28573e-18)
(0.420146 -1.40704 1.99799e-16)
(8.90977 0.492292 -4.49299e-16)
(0.195954 -0.271785 -1.79819e-16)
(9.9005 0.166728 -6.70207e-17)
(1.00445 0.525415 0)
(0.364275 -1.65594 -1.6049e-19)
(-0.805233 2.09846 1.82488e-16)
(-0.711226 0.440209 8.43455e-17)
(10.0252 0.0653947 -1.05634e-16)
(4.77508 -0.0325646 7.63151e-17)
(6.95589 0.0235538 9.61046e-17)
(0.0243664 -0.684171 8.81178e-17)
(-0.723585 -2.58404 1.84345e-16)
(1.29863 -0.123243 -7.37797e-17)
(9.70734 0.826863 0)
(1.13749 1.38301 -1.51295e-16)
(-0.282944 2.25174 0)
(0.326783 -1.79099 0)
(1.57075 0.107504 0)
(0.315908 -0.0560923 -6.35299e-21)
(8.02611 0.596259 -6.39226e-17)
(-1.60621 0.694291 -1.54406e-16)
(9.92383 0.259448 -2.0199e-17)
(0.213193 5.34274 -1.29228e-16)
(0.246977 3.63408 -4.35945e-16)
(8.86812 0.822543 -1.18503e-16)
(10.126 0.168991 0)
(0.436833 0.0346659 -1.12896e-16)
(7.49331 0.585787 1.68713e-17)
(-0.131298 0.336146 7.65302e-17)
(0.230597 -0.680333 1.01171e-16)
(10.6477 0.424426 -7.32445e-17)
(0.473572 -0.0401704 -1.46579e-16)
(4.22391 -0.153217 2.49795e-16)
(7.22931 0.309147 0)
(1.5634 1.11577 -1.59163e-16)
(0.47121 -1.40167 -1.01322e-17)
(-2.01954 1.14354 -2.84846e-16)
(-0.00596859 0.729258 0)
(1.1927 -0.234833 1.2386e-16)
(1.09024 -0.290837 4.80999e-17)
(3.44904 -0.0736722 -4.09908e-16)
(0.106459 3.05825 0)
(0.550735 -0.916749 3.17107e-17)
(10.5342 0.0572592 -7.62636e-18)
(8.95342 0.37811 -2.05355e-17)
(8.63442 0.157749 0)
(11.3881 0.283124 4.43403e-17)
(10.3606 0.356672 3.42282e-17)
(4.55811 -0.0607996 0)
(0.0858261 0.796663 -1.32269e-16)
(9.35538 0.928859 -5.26614e-17)
(10.8689 0.0436819 7.9428e-17)
(9.92239 0.419614 -1.58008e-17)
(-0.112162 -0.796737 -1.93116e-16)
(-0.523542 0.0217218 1.08016e-16)
(0.23125 0.131979 1.81063e-16)
(-0.156885 0.13863 -4.91039e-17)
(10.091 0.110593 8.73135e-17)
(1.62755 1.29972 -3.59729e-16)
(9.6019 0.933584 0)
(9.49942 1.15607 -9.72263e-17)
(2.02099 0.0162504 -4.54055e-20)
(0.226554 1.60339 3.8876e-17)
(0.520662 -0.0168286 0)
(-0.0814539 0.839517 -4.52104e-17)
(0.396199 -1.84505 -1.95379e-16)
(-0.885777 -0.408063 -1.92055e-16)
(0.0606116 -1.13483 -1.21399e-16)
(9.85318 0.10474 0)
(1.3869 -0.273992 3.99759e-16)
(1.19429 1.176 -1.50678e-16)
(9.73813 0.916277 -1.36382e-17)
(0.0975803 2.30603 2.70402e-17)
(8.56075 0.559747 -1.16273e-16)
(11.0622 0.0498386 0)
(10.5179 0.0382908 1.4465e-17)
(0.847753 -0.822241 0)
(0.729265 0.0515805 9.53483e-17)
(9.34841 0.63437 -1.79416e-17)
(1.07734 -0.305324 3.20945e-16)
(9.52419 1.08987 9.96014e-17)
(9.74343 0.308871 4.15238e-17)
(0.520636 0.856517 1.10869e-16)
(8.86029 1.71393 0)
(1.14228 2.01045 2.8837e-16)
(11.2531 0.115925 9.69264e-17)
(9.89551 1.09664 -1.35828e-17)
(9.85839 0.69262 1.03283e-16)
(-2.76467 4.57575 -1.32419e-16)
(0.680637 2.68724 1.40152e-16)
(10.2773 0.105992 -2.05852e-20)
(1.29861 -1.06981 -2.83545e-19)
(0.619611 2.43622 -1.13475e-16)
(0.0865367 -1.18675 -3.43332e-16)
(10.0697 0.0429706 -6.38576e-17)
(-0.283408 2.50751 4.33844e-20)
(10.0684 0.420396 4.01009e-17)
(10.0264 0.0861079 0)
(7.3123 2.1221 -1.06876e-16)
(0.150204 0.307274 0)
(0.0343052 0.175431 0)
(-0.155088 0.370487 -2.13156e-16)
(2.8591 2.65064 -2.79974e-16)
(9.36425 1.03419 -2.74687e-17)
(3.74004 0.131811 -4.62826e-16)
(10.0451 0.0524492 3.5104e-17)
(-2.38091 2.45569 -2.98165e-16)
(0.157364 -1.3178 8.97353e-16)
(9.78889 0.219232 2.4945e-17)
(-0.0248174 1.28523 1.55335e-17)
(9.24125 0.25875 0)
(10.1349 0.0669066 7.9212e-18)
(9.94229 0.331643 6.2736e-17)
(8.06266 0.668355 1.38249e-17)
(9.86617 0.1992 2.39651e-17)
(0.325128 1.63509 0)
(0.201619 1.27842 3.61187e-16)
(9.48998 1.03132 0)
(1.47691 -1.16579 0)
(-0.233069 -0.698094 0)
(10.1191 0.236294 -6.26391e-17)
(9.88817 0.169276 0)
(0.224167 1.15311 1.45004e-16)
(11.1308 0.0293938 -1.27507e-16)
(4.4552 1.23321 -7.41322e-17)
(10.7251 0.352754 0)
(9.38121 0.943564 0)
(9.45241 0.941279 -7.30571e-17)
(1.50368 1.68536 0)
(10.568 0.629403 0)
(7.74315 0.22411 -7.22718e-17)
(0.447487 -1.5829 0)
(-2.43211 1.92469 3.37071e-16)
(10.6318 0.0872754 6.18965e-20)
(9.90286 0.483642 -1.88372e-16)
(9.79449 0.421136 8.66003e-17)
(9.82312 0.375249 4.87613e-17)
(10.4965 0.247643 -2.63131e-17)
(0.195961 -0.318073 2.3643e-16)
(9.85664 0.108747 0)
(-0.140073 -0.290802 2.16832e-16)
(9.5354 0.201296 -3.18716e-17)
(9.44386 1.12374 8.2468e-17)
(0.156749 2.38275 -2.22311e-16)
(0.920539 4.51928 -2.82024e-16)
(-0.0962761 0.0665932 -6.99447e-21)
(-0.0756281 0.0341193 -5.87686e-21)
(10.5381 0.273695 -1.7741e-16)
(-1.29095 0.194271 0)
(-1.30668 0.180903 0)
(10.0502 0.887459 0)
(10.1072 0.954719 -9.37873e-17)
(0.12286 2.84935 0)
(0.144279 2.11284 1.09028e-16)
(6.38279 3.20917 2.09404e-17)
(1.30647 5.50924 -1.59687e-16)
(8.18449 0.05553 -4.45445e-17)
(0.504026 -0.0415774 1.97407e-17)
(-0.104581 -0.383367 1.67561e-19)
(8.32738 0.00573976 6.99169e-20)
(8.27728 0.0211406 8.64251e-17)
(8.14762 0.0738743 8.56379e-17)
(-0.106495 0.0440461 3.55791e-17)
(0.360263 -1.63454 3.79825e-16)
(0.27265 3.23765 -4.27352e-17)
(9.78205 0.310415 -7.62039e-17)
(10.6817 0.533888 6.74514e-18)
(8.21154 0.00842689 -8.00298e-17)
(9.92551 0.875111 0)
(8.45189 2.71188 2.77809e-17)
(0.246438 2.43109 -1.46122e-17)
(9.82598 1.01344 0)
(9.16822 0.727539 3.04497e-16)
(10.2473 0.82843 2.72735e-17)
(10.2921 0.725816 0)
(8.09965 0.0856143 -5.30245e-17)
(10.0206 0.631938 1.09485e-18)
(1.40265 0.526925 -1.08305e-16)
(1.50752 -0.49918 1.16801e-19)
(1.49932 -0.349482 -3.5058e-17)
(0.0998762 2.84689 1.72759e-16)
(-0.107317 4.23869 0)
(-0.139353 -0.149358 -4.47682e-17)
(-0.269823 -0.795509 0)
(1.82835 0.916829 2.58553e-16)
(8.2712 -0.00624918 -4.37521e-17)
(-3.3716 3.31321 5.76669e-17)
(0.358818 -1.45492 1.02983e-16)
(9.20079 1.16756 5.13833e-17)
(10.2712 0.819753 2.04638e-19)
(9.65825 0.183646 6.65225e-17)
(11.1641 0.435223 1.51846e-16)
(9.5616 0.00745068 -5.96915e-17)
(9.43884 1.02751 0)
(1.41093 -0.626309 0)
(10.067 1.03135 -4.36343e-17)
(9.46381 1.34967 4.67722e-18)
(0.119911 -1.04012 0)
(9.0941 2.04107 1.58528e-18)
(-0.242062 -0.562978 -1.99964e-16)
(9.54267 1.14447 2.80771e-17)
(9.65885 0.366772 2.84269e-17)
(9.26301 0.818299 7.32966e-17)
(-0.424481 0.00774899 0)
(8.03377 0.142051 0)
(1.01198 0.763697 -2.31455e-16)
(-0.431887 -0.963912 1.67449e-16)
(9.9308 0.124576 8.06703e-17)
(8.2337 0.0363435 -8.73663e-17)
(8.2873 0.0117895 -8.40869e-17)
(0.198944 0.209025 1.94152e-16)
(9.66845 0.250543 -1.32857e-17)
(10.8099 0.208566 5.36655e-17)
(0.749065 -0.120493 -1.64202e-17)
(0.624065 -1.03408 -1.66352e-17)
(0.0716903 -0.445431 -6.90267e-19)
(-0.443104 -1.13432 -1.59576e-16)
(0.0553224 3.06716 -4.76281e-17)
(-0.452727 0.0918143 -8.6289e-17)
(9.81941 0.319843 -4.56563e-17)
(0.340046 -0.533107 -1.70784e-16)
(-0.418684 -0.675388 -2.68407e-16)
(0.232923 -0.459873 2.59206e-16)
(0.0703952 3.64845 2.14642e-19)
(-0.432548 -0.171887 -2.49393e-20)
(0.186738 0.747905 -1.64367e-16)
(0.313844 -0.443965 -8.94806e-17)
(9.85325 0.0741119 1.72901e-16)
(0.250382 -0.343856 -7.71834e-17)
(7.78311 0.473809 0)
(9.77673 0.177918 -6.68466e-17)
(0.323648 -0.362985 -9.56657e-17)
(-0.413543 0.0706392 0)
(0.0975619 -0.139011 0)
(1.38668 -0.811896 1.84387e-16)
(10.2975 0.114186 0)
(0.154437 1.37161 -1.28519e-16)
(0.941554 -0.17481 -6.14772e-17)
(0.230069 -0.321083 0)
(1.01291 -0.135726 -1.75264e-17)
(-0.212836 -0.202537 1.78136e-16)
(-0.04089 0.159555 0)
(9.834 0.0908079 -7.7973e-17)
(0.29067 -0.264681 8.79776e-17)
(10.0705 0.216769 3.26965e-17)
(6.62176 3.53302 -2.58675e-16)
(-0.464763 0.0557008 1.83922e-16)
(10.5231 0.241983 1.42866e-17)
(-0.0145311 0.0328493 1.81396e-16)
(0.395275 0.0934275 -8.36339e-17)
(-0.167531 0.079027 -7.94212e-17)
(-0.744623 0.167336 -1.20312e-16)
(-0.00711847 0.016464 -4.56685e-16)
(0.620956 -0.132656 0)
(0.739063 0.00272391 -1.5558e-16)
(0.029237 0.088933 0)
(-1.01693 0.145999 0)
(0.225138 -0.0597075 0)
(-0.344154 0.0826383 -3.75212e-16)
(0.670183 0.0126878 0)
(0.592673 -0.029224 4.84331e-16)
(0.420714 -0.052311 -1.95227e-17)
(0.215892 0.113897 1.41617e-16)
(0.697603 -0.012936 2.4246e-18)
(0.903404 0.0804765 -8.26933e-17)
(0.227469 0.0942008 2.75093e-16)
(-0.112161 0.0559964 -1.75458e-16)
(0.579371 -0.0344998 0)
(0.543121 0.011274 0)
(0.0449552 -0.293095 -2.47973e-17)
(0.554362 0.0803684 0)
(-0.306479 -1.46494 5.03781e-16)
(0.0616129 -0.256759 1.45195e-16)
(0.241547 -0.520498 -1.51945e-16)
(10.0109 1.08348 5.07586e-17)
(1.66286 -0.717303 0)
(-0.709236 -1.68105 1.83644e-16)
(0.288556 -0.426953 9.11894e-17)
(9.81872 0.295975 3.08588e-17)
(10.0045 0.0333305 8.06434e-17)
(0.618401 0.0184466 6.08748e-16)
(-0.0863693 -0.164973 2.81786e-17)
(-0.346437 0.130476 3.99056e-17)
(0.0610701 0.102744 -2.57205e-16)
(0.408493 -0.106924 0)
(0.411335 0.0620163 1.33042e-16)
(0.642079 -0.0252078 0)
(0.588412 -0.0111455 0)
(-0.17624 0.0936604 1.91028e-16)
(0.74271 0.0143319 1.46872e-16)
(0.610827 0.0995201 1.57316e-16)
(0.0595112 0.0505346 0)
(2.1511 4.96934 1.79026e-16)
(9.74173 1.0568 -2.75594e-17)
(9.98783 0.00176459 0)
(0.250792 -0.486038 -8.0194e-20)
(0.408807 -0.147041 -1.69135e-16)
(0.189906 -0.139475 -1.72262e-16)
(9.95736 0.193341 0)
(0.126547 0.305995 0)
(10.4522 0.076782 0)
(0.534809 -0.0432257 -5.95467e-17)
(0.135474 -0.615148 1.62632e-16)
(10.0175 0.210168 2.71397e-17)
(1.1218 -0.118567 3.13378e-17)
(0.0220206 -0.61538 1.11128e-17)
(10.0272 0.846342 0)
(-0.461171 0.208121 1.16814e-16)
(8.75802 0.020275 1.6391e-16)
(0.223711 0.345706 -3.23089e-17)
(0.441132 -0.0587518 -1.30512e-16)
(9.71834 0.0779468 6.362e-17)
(-0.0408335 -0.903062 0)
(0.960526 -0.258085 6.73195e-21)
(1.98831 7.58087 -3.88548e-16)
(8.81304 0.225986 -2.17673e-17)
(1.76828 4.52804 6.48592e-17)
(0.117726 -0.792796 -1.42728e-16)
(0.304211 3.004 1.94734e-16)
(-0.0760541 0.408452 -2.40407e-17)
(0.189478 0.0360859 -1.28986e-20)
(-0.449349 -0.0282069 4.90724e-17)
(0.136922 -0.183116 1.7126e-16)
(0.138431 0.368219 5.75687e-17)
(-0.129439 -1.28686 -2.69828e-16)
(0.061484 -0.151264 0)
(0.13419 -0.78527 1.41516e-16)
(-0.144204 -1.72319 4.28828e-17)
(0.419321 -1.01328 1.06428e-17)
(-0.327277 0.654891 -1.15262e-16)
(0.038644 -1.41719 -3.03248e-16)
(0.865626 0.69533 0)
(-0.099388 -0.430057 -2.25589e-16)
(-0.232332 -0.671159 0)
(0.721316 -0.921731 2.67852e-16)
(-0.1453 -0.021201 -1.02604e-17)
(0.112946 -1.05249 0)
(0.166216 -0.162023 -2.45351e-16)
(0.633841 -1.27002 2.60742e-18)
(-0.0356441 -1.52335 5.79837e-16)
(-0.295023 0.318382 1.99014e-16)
(-0.202403 0.353315 -1.014e-18)
(0.154546 3.51515 -3.70128e-17)
(0.84419 -1.16837 0)
(0.819773 -1.42899 4.96694e-17)
(-0.0819637 0.255049 0)
(0.413937 -0.00811414 1.03627e-17)
(0.372387 0.156827 -5.37316e-18)
(-0.063931 -0.496075 -1.3149e-16)
(0.676585 -0.561293 0)
(0.526209 -0.662533 1.63502e-16)
(0.664831 -0.578678 -1.13846e-16)
(0.155512 0.0775654 4.37715e-16)
(0.466433 -0.0439842 -1.66329e-16)
(0.155583 0.392739 -1.51455e-16)
(0.0779981 -0.232228 9.1935e-17)
(0.183793 0.321052 -2.2692e-16)
(0.193207 -0.00741845 -3.23473e-16)
(0.161651 -0.113632 -7.50124e-18)
(0.188834 0.148915 0)
(-0.162394 0.0971723 0)
(2.51509 2.19568 2.85481e-16)
(0.0980563 -0.296532 0)
(0.132185 0.337882 0)
(1.15815 0.620997 -2.10684e-16)
(-0.203777 0.229278 2.15791e-16)
(-0.322509 0.354096 -4.64453e-16)
(0.306911 0.451361 -1.68346e-16)
(1.56487 2.91397 1.07992e-16)
(0.107439 0.44377 -2.51613e-16)
(-0.0954089 0.377265 -6.1438e-16)
(1.57339 5.08416 1.61759e-16)
(2.17248 -0.159899 0)
(8.07686 0.0919752 -1.52254e-17)
(1.05813 7.05627 -5.69253e-17)
(-0.081133 0.715194 3.25491e-16)
(-0.273273 0.499307 -2.00446e-16)
(2.21353 7.26197 -2.6949e-16)
(2.02038 8.04421 2.41784e-16)
(0.961247 4.38136 1.60206e-16)
(-0.0403752 -0.0917149 0)
(0.0194633 -0.193666 -5.43414e-17)
(2.11541 -0.212713 0)
(0.681291 8.44904 -4.70298e-17)
(9.95383 0.362856 -1.79592e-17)
(8.76607 0.142174 -3.17057e-17)
(0.245166 0.969265 -1.66347e-16)
(0.969043 1.31419 -1.36518e-16)
(0.102938 0.319374 1.43068e-16)
(0.160622 -0.245431 -1.16699e-16)
(-0.024674 0.421142 0)
(-0.119314 0.239658 -1.27465e-17)
(0.0539525 -0.15476 0)
(-0.190109 0.466303 2.44011e-17)
(1.95855 6.94193 5.59075e-17)
(0.00537409 -0.0884482 0)
(2.05115 -0.24981 0)
(-0.52839 4.26262 0)
(0.883307 -1.64268 3.98313e-17)
(9.9272 0.156445 -1.33787e-17)
(0.589603 -1.77484 0)
(0.623077 1.51405 -1.05474e-18)
(-1.19543 5.81967 1.2839e-17)
(0.305972 -1.21388 -2.34333e-20)
(0.081086 -1.31094 0)
(-0.0137474 -1.66639 1.81633e-16)
(0.455471 -0.693431 0)
(-0.335984 0.53584 1.57265e-20)
(0.116584 0.344004 -7.62485e-17)
(0.109246 -0.319188 -4.87185e-17)
(0.122971 3.75707 -6.95558e-17)
(0.0529743 3.77311 0)
(0.110471 -0.473687 3.73635e-17)
(9.68799 1.18632 0)
(-0.227854 -0.405703 4.13794e-17)
(10.519 0.119098 -9.30032e-17)
(0.129938 -0.387327 0)
(1.40045 6.34635 -3.63297e-16)
(-0.737038 5.18652 7.34579e-18)
(0.0646747 -0.253444 5.04193e-17)
(-0.570034 0.314706 0)
(1.00643 -1.16283 1.59442e-20)
(0.0427104 -1.23808 -1.33759e-16)
(1.02431 -1.49167 5.87057e-17)
(0.142747 0.360346 -1.77395e-16)
(1.9009 -0.291877 9.83869e-19)
(0.119141 -0.208671 0)
(-0.322349 -0.759919 1.4767e-16)
(0.147565 -0.324201 0)
(0.297746 -1.35164 4.16229e-17)
(0.66776 -1.65148 -1.02906e-16)
(8.73478 0.180824 4.36462e-17)
(7.99703 0.165075 -1.26535e-16)
(0.103729 -1.78546 5.31004e-17)
(0.63743 -1.45831 -1.60123e-17)
(0.156265 -0.116988 2.27346e-17)
(0.110536 -0.287352 -4.61631e-17)
(0.0792018 -0.806521 3.71401e-17)
(0.446157 -1.8379 0)
(0.566886 -0.182063 4.22155e-16)
(3.04407 4.03334 0)
(0.0573707 -1.38191 -1.17001e-16)
(0.740443 2.63318 1.72462e-16)
(0.118619 -0.724523 1.49977e-16)
(0.569058 2.45126 0)
(-0.249549 -0.137335 4.53277e-17)
(0.0679541 0.661221 5.96824e-17)
(0.471791 -1.51803 2.56492e-17)
(9.79305 0.0992566 0)
(0.143159 0.0740201 0)
(-0.274222 0.423668 9.92079e-21)
(0.314349 -1.79149 -4.45781e-17)
(-0.218163 0.111166 2.2461e-16)
(8.19686 -0.0458049 4.22925e-17)
(0.136688 -0.236334 8.73809e-17)
(0.13465 -0.0143713 3.65833e-17)
(-0.167011 -0.682064 -5.44568e-17)
(-0.0393432 -0.0849588 -7.53519e-17)
(0.274615 -0.426057 -1.65508e-16)
(8.11071 -0.0421023 -4.99841e-19)
(9.30477 1.18434 4.57496e-17)
(0.632331 -0.349463 -3.91523e-16)
(-0.0513194 -1.87718 0)
(-0.16419 0.958838 0)
(0.829125 4.15065 6.3078e-16)
(-2.22265 0.448648 -1.17539e-16)
(-0.209025 0.00484275 -5.2453e-16)
(0.511418 -0.149696 0)
(9.70235 0.939627 1.29682e-16)
(1.177 0.922996 0)
(-0.00965207 -1.81033 1.19017e-16)
(0.201962 0.0699627 -6.32395e-16)
(0.103984 0.592972 1.98662e-16)
(2.00571 2.37926 0)
(0.0720351 0.628921 1.06441e-17)
(1.49572 6.95243 0)
(1.67209 0.897704 2.1858e-16)
(0.380411 -0.167028 1.32826e-16)
(1.56853 -0.557135 1.06485e-16)
(-0.102591 -1.88628 -1.22542e-16)
(8.85052 2.37088 -2.86248e-17)
(1.98214 -0.280636 -4.07778e-18)
(9.79317 0.0789229 2.19188e-16)
(-0.274418 -0.721173 0)
(0.133886 -0.998082 4.68971e-20)
(-1.10704 0.0166949 -2.35272e-17)
(0.231266 -1.93326 0)
(-0.243568 -0.823751 2.92435e-16)
(9.92972 0.978145 0)
(1.59494 -0.215624 4.26914e-18)
(10.7791 0.440193 -3.25046e-18)
(0.433926 3.15041 0)
(0.469562 4.30523 -8.53631e-17)
(10.0003 0.0721882 -1.09838e-16)
(9.87017 1.22115 0)
(9.73049 1.51337 -5.10654e-18)
(0.0548385 -1.97601 0)
(0.37383 0.388075 -8.78522e-17)
(1.10013 -1.41821 -1.73063e-17)
(9.7502 0.845032 7.01704e-18)
(-0.511693 0.00309518 -2.13443e-16)
(-0.0601232 -0.796907 -1.94537e-16)
(-0.333053 -0.940335 -3.36176e-16)
(-0.347925 0.461976 -4.32223e-17)
(0.301019 -1.71308 -5.38331e-18)
(0.183073 -1.37169 5.79329e-19)
(0.105053 0.303687 -1.01e-16)
(0.0912556 1.45386 0)
(-0.331538 0.308728 3.10027e-21)
(0.0439015 1.06068 5.60903e-17)
(5.79759 1.23592 -4.44592e-17)
(7.0875 2.38876 6.15894e-18)
(0.286091 0.0605251 -1.73819e-16)
(-0.00689422 -0.0784055 0)
(0.386663 -0.667218 -1.64511e-16)
(6.46429 1.75653 0)
(9.80037 0.733332 -1.30383e-17)
(-0.430252 6.07422 0)
(-0.0252065 3.67891 4.2338e-17)
(0.151124 -0.695307 -1.00252e-16)
(0.128426 0.0601815 -1.41587e-20)
(-0.307822 0.289646 1.09953e-16)
(-0.757933 -0.0344099 0)
(2.2055 0.0990862 2.64333e-16)
(-0.351124 0.0425718 -7.25351e-17)
(1.34836 -1.32118 1.02335e-19)
(6.68212 1.65219 -6.16614e-17)
(-0.247154 0.16036 9.58967e-17)
(0.37541 0.341315 8.84291e-17)
(0.172929 -0.0756444 -1.57429e-17)
(9.79799 0.053671 0)
(0.0851528 0.992757 5.15762e-17)
(2.28016 0.0504284 -8.46539e-17)
(0.664858 -0.128192 -1.26846e-16)
(9.80357 0.0460421 -4.58358e-17)
(-0.399551 -0.383124 6.93664e-17)
(0.141135 -0.12148 4.23763e-17)
(-0.333189 0.316736 -8.61594e-17)
(9.1344 1.20748 3.65342e-17)
(9.01515 1.64267 2.03237e-17)
(2.26004 0.126522 1.99687e-16)
(0.149094 -1.82542 -1.76158e-17)
(0.00557597 2.2803 0)
(9.81555 0.0577778 1.81312e-16)
(0.190799 0.16702 4.08467e-16)
(1.5435 -1.10835 -1.92012e-17)
(0.0374334 -0.878745 0)
(0.0367939 -1.87669 2.88696e-17)
(0.378239 4.08827 -6.20042e-17)
(0.30896 2.82966 5.52456e-17)
(2.12844 0.0473686 2.72265e-16)
(1.12374 -0.293569 0)
(-0.572449 -0.610426 2.49163e-17)
(9.46622 1.79334 4.27346e-17)
(8.73093 0.994531 0)
(0.400624 3.63499 8.60967e-17)
(0.13402 -0.114908 -7.80785e-17)
(9.79183 0.06936 8.1482e-17)
(9.91603 0.16251 -2.2379e-17)
(1.12215 -1.17814 -2.75073e-16)
(0.150298 0.079247 -4.62067e-16)
(0.147104 -0.821293 1.73052e-17)
(0.525797 -0.393252 9.18266e-17)
(2.2744 0.310925 -2.78997e-16)
(2.10215 0.308023 -4.90117e-19)
(9.79709 0.132719 0)
(-0.528472 0.0187189 1.85943e-16)
(10.0122 0.0740335 3.86946e-17)
(0.0807416 0.694943 -5.92004e-17)
(0.12536 0.0563187 1.7051e-16)
(0.642397 0.519455 -4.98095e-17)
(0.373387 0.232692 -8.81007e-17)
(9.81634 0.0865406 -2.55116e-17)
(2.27843 0.186107 -1.46462e-16)
(0.178606 -0.258987 -2.1017e-17)
(8.68607 0.27897 0)
(8.82184 0.734141 7.92848e-17)
(0.276669 1.26951 6.65347e-17)
(0.41857 1.40739 1.90392e-16)
(-0.241836 -0.0541036 0)
(9.00839 1.99877 -3.06836e-17)
(0.475199 0.801139 -1.44989e-16)
(-0.323168 -0.041082 1.65416e-18)
(-0.0703569 0.783484 -3.35144e-17)
(0.798988 -0.229109 2.01106e-17)
(1.63248 -0.861227 -1.80875e-16)
(-0.119016 -0.937695 1.76139e-20)
(0.372951 -0.158083 4.69805e-16)
(0.0387106 -0.890856 -3.53729e-17)
(0.462324 0.0524885 0)
(0.0267552 -0.23289 1.64688e-16)
(7.15739 0.107476 2.20965e-17)
(0.133655 -0.540459 0)
(0.0489462 -1.48427 -1.6114e-17)
(0.0591352 -0.0739833 -7.626e-17)
(0.297966 -0.0758079 1.2927e-16)
(-0.311643 0.169012 -4.39552e-17)
(1.14913 -0.00261832 -6.89402e-17)
(0.167652 0.0788189 3.52099e-16)
(9.80983 0.112135 0)
(9.02967 1.24164 -5.91156e-17)
(0.0918304 -1.46647 0)
(-0.358622 0.174042 1.69199e-16)
(9.42484 1.01887 -6.51164e-17)
(-0.288527 0.0370849 8.38027e-17)
(0.147246 -1.33931 2.66865e-16)
(4.82901 2.87646 9.55219e-17)
(8.91697 1.29703 -3.20507e-19)
(0.144127 0.41475 -2.06435e-16)
(10.008 0.0820088 -1.12416e-17)
(5.48015 0.330671 2.42013e-16)
(1.56161 -0.436274 2.38635e-16)
(0.374356 0.418247 4.14201e-18)
(-0.40251 0.439861 -1.05357e-16)
(0.0938199 0.713576 -3.81162e-17)
(0.236013 -0.582172 -9.25354e-17)
(8.11726 0.300055 5.11399e-21)
(-0.0542165 -1.08444 2.6359e-16)
(-0.249933 2.50614 -1.07631e-16)
(8.89462 1.23826 -8.87193e-19)
(0.618093 -0.455575 8.33251e-17)
(8.49747 0.332261 0)
(9.55043 0.116983 2.22153e-17)
(9.79802 0.102508 1.24571e-17)
(-1.29715 5.54802 1.32349e-16)
(-0.163109 -0.0893596 -4.92752e-16)
(7.6903 0.296496 -2.31488e-17)
(0.129571 1.11368 0)
(0.196582 0.597551 1.17096e-16)
(1.99926 0.156869 -2.62911e-16)
(0.324152 -0.044939 0)
(0.129131 -0.436412 0)
(0.417304 0.106781 1.51866e-16)
(2.50107 0.168496 2.44841e-16)
(2.91322 0.199552 0)
(-0.375396 4.51505 -1.69724e-16)
(9.51993 0.909852 -7.05109e-18)
(1.80895 0.607451 1.44939e-16)
(1.6112 -0.724131 1.08074e-16)
(0.221463 0.279991 0)
(2.08001 0.435951 -2.70714e-16)
(0.0969569 -0.825694 1.30948e-16)
(0.163581 1.96332 1.16178e-16)
(6.02662 -0.272533 0)
(1.4386 -0.223845 0)
(5.26339 0.106297 0)
(8.92603 0.35399 7.75357e-18)
(9.18726 1.56286 1.07239e-17)
(10.435 0.724342 -1.3353e-17)
(9.33648 0.903249 7.23898e-17)
(-0.477318 -0.0298016 2.462e-16)
(0.417416 3.44631 4.4507e-17)
(9.03828 1.32596 -1.31364e-16)
(3.35685 0.206632 0)
(4.13446 0.176844 4.8509e-17)
(2.12444 0.502333 0)
(0.774258 0.0525227 -1.12139e-16)
(9.94517 0.0381459 5.87618e-18)
(10.939 0.0519903 0)
(9.46824 0.10684 5.34591e-18)
(6.88701 0.539127 -1.62168e-16)
(2.79942 -0.13699 -3.07223e-16)
(6.96201 0.79154 1.21706e-16)
(4.58016 4.52275 0)
(3.09775 5.40728 1.70511e-18)
(9.58747 0.0088272 1.01557e-16)
(1.05828 3.01881 -1.60985e-16)
(-1.13489 -0.0795125 -6.06806e-18)
(2.25122 6.55275 -3.61938e-17)
(5.44004 0.165034 6.78063e-19)
(3.77769 0.198625 7.87437e-19)
(1.6505 -0.806207 5.38402e-19)
(0.776713 6.50804 0)
(0.573401 0.36003 1.59952e-16)
(-0.248652 0.218351 1.77166e-16)
(-0.423276 -0.399401 -1.67243e-16)
(4.99327 0.0998755 0)
(0.42749 -0.785806 8.13543e-17)
(1.02973 1.86407 3.03788e-17)
(0.99205 -0.914275 -1.76701e-16)
(-0.412869 -0.010427 -2.1374e-17)
(-0.308001 0.207243 -1.42245e-16)
(-0.355241 -0.103542 6.14323e-17)
(4.44603 0.14797 -5.01682e-17)
(0.293203 3.69761 0)
(-0.181566 -0.127672 1.79007e-16)
(3.58036 2.57297 -4.53791e-16)
(0.505187 0.361983 -9.22748e-17)
(-0.41337 0.349418 -1.47121e-16)
(0.411359 -0.114096 2.71943e-20)
(6.14431 0.456852 -1.17982e-18)
(1.69358 0.497542 1.52675e-16)
(9.59184 0.812601 0)
(1.55984 0.0428952 0)
(3.34281 1.64908 -9.70934e-17)
(9.99391 -0.0110759 2.79767e-18)
(9.86247 0.213546 0)
(0.638881 0.318519 -8.25489e-17)
(-0.16257 0.133175 0)
(0.130133 4.69567 -1.08674e-16)
(9.861 0.112737 2.49612e-17)
(0.68561 -0.296518 2.65068e-16)
(0.0720498 -0.157983 0)
(8.76242 1.18354 2.80252e-17)
(-0.226973 0.0588877 -1.39423e-16)
(1.12639 -0.167221 7.66044e-17)
(-0.737967 -0.166256 -1.9842e-16)
(1.67917 7.82962 9.90241e-17)
(2.0021 -0.041057 -3.375e-17)
(0.7527 3.92591 3.81485e-16)
(0.0200841 -0.64348 0)
(9.69849 0.144838 -8.36578e-17)
(9.83089 0.0774235 -2.70704e-18)
(0.713133 4.50694 -7.25587e-17)
(0.363392 0.0406738 9.63967e-17)
(2.44528 -1.77891 -1.20997e-16)
(6.148 0.0478328 3.26284e-17)
(5.65683 0.218548 -4.51341e-17)
(4.61777 -0.295007 -2.0393e-16)
(5.23562 0.171814 0)
(5.60477 0.056471 -1.50039e-16)
(7.24429 -0.0460775 0)
(6.1063 -0.079106 3.73775e-17)
(4.72819 0.119827 5.75889e-18)
(-0.445837 -0.784442 -6.753e-16)
(-1.18169 -0.0420464 -3.61497e-16)
(11.1074 0.438784 5.15421e-17)
(-0.166098 0.604209 -3.30197e-17)
(-0.0112721 -0.130885 2.00643e-17)
(-0.190339 -0.021505 7.12118e-16)
(0.612665 -0.0638589 -1.68671e-20)
(0.902929 -0.177851 0)
(0.408959 0.235471 -2.00444e-16)
(-0.620753 0.343085 -3.99694e-17)
(0.798681 -0.391328 0)
(-0.256845 0.0443561 3.35529e-16)
(9.06193 0.542861 2.98576e-16)
(1.16565 -0.844969 -2.62258e-16)
(8.33375 -0.018866 4.09366e-17)
(0.458231 -0.0619144 -6.92159e-17)
(0.932696 -0.462515 -1.39428e-16)
(9.66532 0.710069 0)
(8.62581 0.896638 -4.04612e-17)
(10.3681 0.449748 0)
(5.92308 0.116902 0)
(0.933328 3.86321 1.17744e-18)
(8.66635 1.071 1.06954e-19)
(-0.485751 0.53552 4.1479e-17)
(-0.352864 -1.36647 -3.51042e-16)
(-0.591757 -0.884397 3.08332e-16)
(9.71644 0.0252894 1.0758e-17)
(-0.0880449 -0.967255 1.18878e-16)
(-0.242459 -1.66141 2.2644e-16)
(-0.165983 -0.716858 1.57342e-16)
(-0.341791 0.0567728 -3.40636e-16)
(3.25519 4.87264 3.56154e-17)
(0.817022 0.363025 2.17584e-16)
(0.423638 3.36507 -4.63805e-17)
(0.551245 4.9013 0)
(9.88625 0.203052 0)
(9.53889 0.0184745 5.85673e-17)
(9.7805 0.0570805 -8.57215e-17)
(2.0261 0.695509 -1.84931e-16)
(-0.382312 0.169675 -4.294e-17)
(1.91682 -0.251496 3.17361e-17)
(-0.706985 0.204988 0)
(0.0775058 -0.546879 0)
(9.93837 0.250505 6.39129e-17)
(8.47548 1.76419 0)
(0.941783 0.0443841 -7.88165e-17)
(-0.0928406 -0.0117184 -2.96963e-16)
(8.59156 0.412646 1.60153e-17)
(1.80085 7.36077 0)
(1.70669 -0.0145313 2.4719e-16)
(-0.0535436 -1.42973 0)
(0.279314 0.318691 1.9557e-16)
(8.61001 2.22653 -9.94277e-17)
(-0.559773 0.538927 0)
(-0.606444 0.609979 -1.3746e-16)
(1.74679 -0.546109 -7.03921e-17)
(9.78179 0.0582779 -7.69796e-17)
(0.260018 -0.940981 1.63043e-16)
(-0.226343 -0.204014 0)
(1.40161 -0.0311125 7.63272e-17)
(0.0359847 0.243015 -8.97365e-17)
(10.5339 0.0939541 0)
(0.0970926 -0.338097 0)
(0.805203 0.192307 2.25399e-16)
(-0.363867 0.751669 -1.23221e-16)
(0.337872 0.888207 0)
(6.9197 0.075425 1.81364e-16)
(9.36591 0.125912 0)
(-1.11826 6.2729 -1.25005e-17)
(1.71531 0.380812 -1.29228e-16)
(9.73103 0.121022 6.29893e-17)
(1.24323 1.83435 -1.56704e-16)
(4.13523 1.69774 -2.85091e-16)
(0.381525 0.375188 -1.2282e-16)
(-0.609332 0.4623 0)
(1.3336 -0.4275 -2.28993e-16)
(-0.323746 -0.0506487 3.58149e-17)
(1.74419 -0.377834 0)
(1.82617 -0.343431 -1.74523e-17)
(0.186664 -0.183315 2.11513e-16)
(0.165897 -0.349899 7.92145e-17)
(1.52751 0.0705033 0)
(1.81529 -0.00274992 6.36687e-19)
(11.2022 0.182031 -4.81857e-17)
(0.507907 0.36417 3.98279e-17)
(0.261665 0.444331 5.85664e-16)
(-0.311498 -0.0673814 1.04195e-16)
(2.02163 0.158558 2.88149e-16)
(9.79134 0.0812227 5.9948e-17)
(-0.294106 4.47935 0)
(1.2149 -0.103449 2.23824e-18)
(0.221621 -0.143228 -2.17103e-16)
(0.285553 -0.135933 -2.96384e-16)
(0.240107 -0.470193 -9.68667e-17)
(9.51491 0.034303 9.47403e-20)
(-0.0753743 0.795669 0)
(-0.236776 -0.147974 6.23393e-18)
(1.2247 -0.607578 -1.01982e-16)
(9.96545 0.229064 2.83292e-17)
(1.37445 0.15761 2.14531e-16)
(9.78068 0.0354507 3.48395e-21)
(9.79157 0.133176 0)
(7.85508 0.125388 4.85924e-17)
(-0.179362 -0.238183 0)
(5.82857 -0.0447937 -2.00087e-16)
(0.0194189 2.23739 -1.71602e-16)
(1.95461 0.0745939 0)
(0.0237011 0.0472021 -7.91569e-17)
(8.53424 1.40107 -1.97601e-17)
(0.289134 0.990826 9.92828e-17)
(0.0161925 3.34047 -6.58049e-18)
(0.10732 3.04743 0)
(0.0510756 3.2242 6.54416e-18)
(-0.00712046 3.42956 1.47331e-17)
(0.187336 2.77632 2.74769e-17)
(0.269773 2.37772 -5.99972e-17)
(-0.309331 -0.715213 1.80069e-16)
(0.78603 -0.461068 0)
(0.172143 -0.100688 3.42935e-16)
(9.75457 0.0695629 1.1023e-17)
(0.309477 1.82577 4.64263e-21)
(0.129499 -0.443061 0)
(-0.208408 0.0175303 7.81743e-17)
(0.193317 -2.63728 1.42465e-18)
(-0.000318348 -0.748681 -2.2773e-16)
(1.87711 -0.132081 -4.17478e-18)
(-0.128944 -0.25498 -2.19025e-16)
(0.0352918 1.09297 -9.32794e-17)
(0.10353 -1.20231 -1.11726e-16)
(-0.257155 3.60818 4.99126e-17)
(0.841071 -0.616375 3.84067e-16)
(1.72901 4.83321 0)
(-0.304198 0.268606 -1.90466e-16)
(0.319028 1.19174 -1.03309e-17)
(2.21845 -0.0958308 3.33386e-17)
(0.717617 -0.37328 -1.39567e-16)
(2.0499 -0.0300866 -3.68958e-17)
(0.742353 4.15432 1.26641e-16)
(0.223383 0.616491 7.86648e-17)
(0.250944 0.243768 1.35051e-16)
(1.79032 -0.164901 2.10719e-18)
(-0.433376 -1.02327 -2.11512e-17)
(-0.139979 -0.303067 2.00563e-16)
(0.246388 0.620165 -2.24099e-17)