/*--------------------------------*- C++ -*----------------------------------*\
| =========                 |                                                 |
| \\      /  F ield         | OpenFOAM: The Open Source CFD Toolbox           |
|  \\    /   O peration     | Version:  v1912                                 |
|   \\  /    A nd           | Website:  www.openfoam.com                      |
|    \\/     M anipulation  |                                                 |
\*---------------------------------------------------------------------------*/
FoamFile
{
    version     2.0;
    format      ascii;
    class       volScalarField;
    location    "0.99";
    object      p;
}
// * * * * * * * * * * * * * * * * * * * * * * * * * * * * * * * * * * * * * //

dimensions      [0 2 -2 0 0 0 0];


internalField   nonuniform List<scalar> 
1431
(
93.0497
90.8942
89.7254
92.2976
92.8257
88.5161
89.5266
98.5867
92.1387
92.3095
90.9159
91.3075
90.5426
104.359
90.7855
91.1628
91.2219
91.5767
92.3923
91.1429
92.7997
92.5084
90.464
105.276
80.7134
91.5229
73.7605
103.494
91.9603
92.135
114.84
121.659
84.083
88.9089
90.2104
89.3935
92.9092
97.6387
88.5315
97.7376
111.752
90.8391
89.2101
90.5528
83.4377
92.7872
92.6113
120.003
115.838
99.0719
92.0489
92.2481
91.6475
88.6291
89.9621
112.906
91.2979
90.0082
80.6073
92.8142
91.3051
91.03
92.2197
98.4972
100.581
91.4013
88.4736
88.271
92.3117
98.9168
89.1639
90.4498
90.7079
88.8664
90.7899
84.271
92.8888
84.0434
98.919
75.1645
98.5219
91.9314
90.7204
91.4707
82.2258
92.8783
92.4757
90.4973
106.218
91.5352
92.1888
91.0558
92.6187
97.3604
91.8542
92.882
90.7719
100.744
92.2335
114.803
92.348
97.5189
93.2186
92.6076
91.0727
90.3559
98.6381
115.045
116.769
92.825
76.6103
91.2811
99.1071
91.3594
90.8222
92.5003
91.4951
90.8682
107.119
84.5116
95.9653
90.7796
91.8658
109.972
98.2111
90.1358
107.948
90.7532
92.9883
98.3355
91.148
116.065
105.521
92.7862
92.8879
91.9054
90.743
91.3985
92.9525
115.614
92.8287
92.9255
97.6391
115.956
117.194
96.4913
100.194
115.509
90.8039
114.378
99.1966
101.697
90.2411
90.7056
91.0529
90.7311
98.5261
91.8484
99.8916
109.223
91.5972
90.8904
93.3226
90.5721
92.3435
73.1308
92.8669
96.7474
92.0933
92.9351
107.838
90.6762
113.695
99.4129
98.1501
90.474
90.1192
100.074
92.1659
105.823
98.4922
91.1475
106.023
91.8101
97.909
108.893
97.5802
87.6503
92.0079
98.4936
91.9268
91.1256
92.8853
98.327
91.945
95.6382
98.6481
118.431
90.9121
90.811
90.6445
118.164
112.811
110.463
98.5591
76.7778
92.9294
98.9259
90.7749
102.569
98.3222
99.2045
110.659
98.839
91.226
89.7602
100.832
91.4913
91.0656
98.5404
98.5458
70.6971
97.8082
102.37
99.214
93.2123
111.713
92.1496
103.567
115.162
92.7042
91.7476
98.8003
96.9504
98.2557
98.9209
99.9591
93.1494
98.472
90.1211
100.374
111.095
92.3023
91.0518
90.7084
90.6611
97.7999
89.932
88.628
106.721
104.549
92.3334
92.4615
118.741
92.1359
99.4311
92.0408
90.1311
98.2513
98.7791
99.2654
90.6913
92.1847
92.6384
98.4908
102.66
93.594
97.4243
104.72
92.3421
98.6152
114.776
103.514
102.51
98.9089
95.5781
93.0102
91.5482
91.6514
92.1309
91.8245
90.1076
91.3292
92.502
95.5833
89.7603
92.8491
104.445
105.538
99.6833
96.3924
98.4661
104.32
92.125
106.055
101.127
92.9222
103.97
90.1632
107.441
98.6349
113.368
90.7245
117.762
91.1543
90.3372
98.6328
99.141
98.4835
92.2542
99.4513
97.9623
91.3395
92.4633
90.4171
90.5068
92.3839
90.1327
97.8479
92.3853
90.268
92.2732
93.1373
90.1525
92.2145
92.4224
98.4192
92.3924
112.22
99.1613
91.2768
90.6489
90.1008
92.0275
98.255
92.3468
92.1704
92.215
92.1008
90.5511
90.7488
98.514
92.4443
90.6181
103.584
90.7093
99.1602
90.5911
92.293
92.3412
90.4595
91.5998
91.7061
91.77
90.6129
90.3667
91.6159
90.7196
91.6755
90.1117
92.0953
90.4713
91.8557
92.0887
92.3438
90.5734
91.9839
90.2631
91.4141
91.3088
90.6331
90.115
92.3321
107.471
91.8337
91.0951
91.141
97.8432
97.0576
91.7031
91.4213
90.5366
92.3545
91.6882
90.3516
91.9242
90.1861
90.6925
91.6908
92.2005
90.5945
90.373
110.383
97.8272
92.3696
91.2987
92.1867
98.8545
92.2149
98.5904
90.1183
91.2911
98.7916
92.0442
91.4207
95.3203
90.1552
117.527
92.2818
91.1298
95.7384
91.2194
91.6461
88.3012
116.587
131.611
91.0528
92.318
90.3859
92.2061
90.1276
92.2083
92.3676
90.218
92.2177
90.9953
90.3173
92.2811
82.9967
90.8607
83.2519
90.1803
91.4556
92.3276
90.1032
90.805
92.1775
92.252
90.2106
88.4082
89.6212
93.7791
92.1153
91.9046
89.8758
92.1827
92.1898
90.0831
89.6165
92.4948
92.3492
92.3465
92.2802
92.4148
92.2144
92.4177
92.3523
92.3079
92.3839
90.1216
85.9106
92.2444
88.6085
89.2608
90.1545
90.2213
92.2877
86.9696
88.9733
90.2685
87.6578
91.5925
117.463
115.054
89.2292
90.3451
90.368
89.9631
91.0966
92.2142
92.2206
91.6646
101.382
96.804
117.41
90.6658
89.3283
92.2653
92.2548
89.9872
89.8759
92.2411
90.4812
94.628
92.2296
91.7491
90.0529
91.1469
98.9131
90.6923
89.3317
85.6216
92.0578
90.8028
90.8285
89.9729
90.453
92.3094
92.2544
92.8338
92.6917
89.9165
99.6675
91.259
98.5675
92.2788
92.0472
86.3256
92.2357
90.2056
90.1595
90.0187
90.6599
92.3085
91.6274
92.1974
91.2635
92.2574
90.051
91.5907
117.402
118.272
90.3693
90.211
92.264
92.233
91.7993
91.2006
92.2628
96.9115
90.8183
90.8588
91.164
91.2199
91.3224
92.2902
91.9113
98.4283
92.2875
90.5827
90.4353
91.1225
97.7829
92.2259
90.1005
91.3881
91.4873
91.0391
96.7734
102.237
92.3159
90.4111
91.5296
92.2952
83.5475
92.2114
92.1924
103.634
91.5934
90.7681
90.6184
92.2033
92.825
92.2498
90.3092
91.6145
92.1898
91.9936
90.5539
100.394
91.8218
98.4916
91.3319
90.9137
90.2441
90.8834
91.2655
96.7452
91.993
101.786
91.2585
90.0228
96.0266
97.2875
98.3647
90.6628
91.9218
91.6634
102.583
90.6901
91.2949
91.1945
90.5595
91.5439
91.7253
92.2292
90.7913
90.6311
92.2973
91.8897
96.1842
92.1457
92.1873
92.3351
93.8294
101.599
91.8421
92.1945
92.1226
92.2409
90.593
90.1776
91.551
90.6221
91.2857
124.031
90.5885
91.813
92.1594
98.3566
92.3032
91.4157
91.4057
98.3468
90.1969
92.2261
90.606
105.953
94.907
91.2968
91.2104
92.3731
98.39
92.1629
90.8712
91.4442
90.9325
92.2192
92.5825
91.2788
91.6706
90.3774
100.788
95.4959
92.3363
92.1915
98.6678
98.2634
91.9854
92.1836
90.7038
92.0357
91.5353
91.9268
98.9375
90.6926
94.5427
92.3217
92.2048
91.1476
91.7984
98.5688
91.5302
90.8193
117.262
116.563
89.4888
91.1127
90.5847
97.3212
90.7598
91.0806
90.6575
91.5856
91.6861
90.1863
92.1938
91.1085
91.0739
92.2019
115.549
90.7459
91.0649
93.1802
92.1622
90.6044
92.0842
90.5837
98.675
107.53
91.3794
90.6333
102.668
90.5911
93.0363
129.983
94.5378
92.1935
92.7335
110.426
92.0642
92.0984
90.5558
92.3124
92.3379
99.2399
91.0302
92.2217
109.645
93.2354
99.0646
100.151
98.2517
90.8345
90.5506
99.6782
92.4685
92.3715
108.725
92.1429
92.3014
91.3156
108.16
107.533
91.6106
101.675
91.5394
90.729
92.2003
91.5403
90.8827
92.2228
118.827
91.8921
101.011
99.7167
103.396
104.501
108.896
90.6804
92.2459
105.018
106.857
105.278
92.0578
91.0935
98.3199
98.7273
99.1055
108.71
91.0391
106.91
112.022
103.623
98.1559
91.2095
90.5232
110.497
100.561
106.097
91.4247
99.0984
91.9604
90.5958
91.5891
102.442
92.0648
91.1858
92.2533
90.6503
90.7871
91.2214
104.447
93.0483
92.2117
106.648
92.1476
90.5778
91.2097
109.43
92.6817
100.728
111.801
141.543
97.6578
98.7442
91.839
90.5867
93.6009
97.9088
92.2492
90.9425
111.895
90.5763
92.3488
90.2395
95.0725
91.6645
90.358
92.9286
99.2065
98.0282
91.6785
91.8502
80.3267
99.9315
99.7052
97.1449
97.2461
97.3709
100.617
98.766
103.59
91.1798
90.2979
99.3587
90.7433
91.145
90.5594
91.9085
91.6129
92.3316
90.5295
92.2433
90.4684
92.6826
92.2296
98.1474
90.1324
92.2278
99.898
115.772
100.385
97.1009
87.3201
114
90.4491
90.4449
90.6231
98.4391
91.1725
90.5742
90.186
92.3018
122.649
91.1172
91.843
91.0263
98.5232
98.6926
98.3356
92.2415
90.6601
91.5187
90.1924
92.9661
97.0541
109.252
91.9926
90.5066
117.106
99.8256
91.8306
90.8551
92.3677
107.911
89.0134
90.4512
91.7189
98.5973
92.0442
90.5776
91.2319
92.2821
98.9149
93.0236
91.0626
85.4799
84.056
116.161
100.438
89.3663
88.9871
98.8221
92.484
88.7486
92.2737
90.492
92.1163
90.7157
92.0011
91.9461
92.3246
92.2888
112.927
115.16
100.539
93.1284
92.3086
92.2701
91.7387
98.2565
92.1357
91.985
92.3695
91.0278
91.3861
98.9898
90.7307
90.6787
92.1553
99.0565
91.0783
98.4147
98.4422
100.437
90.6242
98.8264
92.3877
109.545
92.1471
109.699
90.9241
90.9356
91.3185
91.0644
90.9261
91.6478
91.9992
91.3526
92.8476
90.6466
98.7718
92.3227
92.999
91.1144
74.0321
92.8771
91.7925
92.9975
92.3208
92.4642
91.6292
92.2918
109.708
90.655
92.62
91.5426
92.2618
91.3525
92.5926
92.4193
90.3374
91.8649
90.8998
92.9622
92.861
96.9484
92.81
91.4498
92.1856
92.4214
90.7424
87.4498
92.3333
92.4716
98.5316
92.9398
92.9405
91.4334
90.9402
101.481
92.2167
91.9746
92.0839
88.3928
93.4441
98.1085
93.0229
95.8292
92.7816
98.8834
92.1961
90.7496
99.2876
90.6108
91.8798
104.721
80.9593
92.8531
92.6452
91.1818
99.3267
89.3588
90.7662
99.0515
89.1169
90.9562
96.7236
92.3551
92.4668
92.4701
98.341
101.561
113.857
90.3509
93.194
92.6143
91.7805
92.3215
90.8897
93.4658
90.1322
84.9382
101.54
90.5121
90.3024
91.752
90.9816
112.875
92.3288
92.4887
90.4742
91.7638
90.1176
92.5715
92.1936
98.3997
92.1931
91.5515
93.2748
92.7278
91.8413
90.5637
92.1875
90.2442
83.9711
92.2211
107.053
90.755
90.4011
97.5377
92.5149
91.0842
88.8643
90.181
91.5388
101.359
92.1788
117.945
92.1754
91.8098
94.7041
83.0144
120.245
92.4926
90.7504
98.7628
97.9899
92.4921
91.1698
97.8304
92.2853
97.3153
98.6253
91.7186
92.8414
96.8096
99.4467
99.4025
92.6226
92.2069
91.8994
92.2605
118.847
92.7526
93.4315
114.604
98.6491
91.1637
92.2508
102.642
92.0495
119.373
96.1624
93.0722
90.2411
99.5004
93.1144
94.8758
92.1534
92.9292
90.7014
79.4583
91.1397
99.171
90.8412
91.8368
90.5708
102.554
90.1389
91.2821
92.2215
115.18
91.5207
116.177
90.7578
90.1311
110.339
112.651
90.1333
91.8857
99.3781
92.8662
82.0314
93.0492
91.7216
92.3114
88.7834
90.2631
99.4495
92.2368
93.0545
92.1767
90.28
91.1885
90.4969
93.7902
90.1579
92.2386
90.5942
91.1619
92.2155
92.334
93.1024
97.9897
82.4025
93.1242
92.0746
98.7584
84.5858
91.8904
90.5927
90.851
90.2691
91.9229
92.4149
102.489
109.739
99.2834
83.5842
92.8267
92.3508
90.3841
92.3585
113.399
115.766
92.0605
90.6018
92.9953
98.8322
88.8595
91.6333
94.0914
96.992
97.1241
116.733
92.2576
90.2873
92.2817
110.658
84.5977
112.558
92.9367
92.3525
94.3438
97.574
91.8375
99.8675
92.2442
90.3093
96.6319
101.133
92.8974
91.9246
92.2606
82.2416
92.4082
90.7484
99.0864
90.7165
91.4532
90.3684
91.8644
91.4433
100.163
94.1175
90.614
92.2486
98.849
98.5734
99.7828
92.4275
91.1116
91.8145
92.2193
87.1233
90.3356
90.1712
91.5116
91.6013
92.3575
97.1174
92.5006
91.3023
115.329
90.7634
117.998
97.5851
97.7854
100.29
88.3941
92.8281
79.0085
92.836
92.2746
82.5237
93.0727
90.1515
92.1568
91.7248
91.2255
94.137
89.4377
90.6874
92.4693
92.271
90.5096
91.3515
116.901
92.4126
90.5236
98.4108
91.7172
91.8079
92.2198
91.9968
93.6925
92.2548
91.4908
90.601
90.1333
97.716
93.4662
98.5005
96.5123
90.9988
84.5914
90.2666
91.917
90.9693
91.6348
92.3239
98.9609
90.8111
98.1199
95.3429
92.1052
98.9318
101.426
90.9622
90.6261
122.185
127.826
90.2097
91.7688
92.2362
92.3583
92.4729
91.4423
97.2932
94.2538
95.027
90.6761
93.0042
97.469
91.6997
91.0757
90.5733
91.9339
92.2691
98.8712
90.8221
92.4076
92.4074
92.3767
92.4624
98.5857
90.2999
92.36
97.2171
100.949
92.0699
92.3252
90.7345
92.8028
90.9764
92.3265
91.4594
91.7011
92.7564
92.9648
90.1094
92.4124
90.1221
93.3494
87.6299
92.765
92.4394
92.7076
90.1453
90.3567
92.8864
90.1945
99.6564
90.6782
74.0314
98.2695
91.178
92.6697
118.51
90.9234
91.9226
88.2035
92.8155
90.52
92.2938
98.1674
91.4895
90.6899
90.6278
96.8838
92.236
91.0617
91.6942
90.2583
91.6729
98.4755
92.8352
90.6985
91.3366
90.1149
118.141
90.1812
93.1506
92.2732
92.4329
100.703
90.6671
101.177
99.9237
92.9462
90.7917
92.1861
90.9626
91.4308
90.7082
90.6715
122.807
92.3848
90.7739
102.757
90.2036
114.314
97.9511
101.962
92.3424
97.6269
91.0039
92.3488
90.6983
92.865
83.5069
92.2587
92.2546
90.6474
96.2104
90.6232
93.0209
90.7761
93.0301
99.5571
98.9548
98.5724
92.3054
86.989
96.9374
98.2493
99.0723
98.4275
90.1764
92.4484
92.3913
92.4153
99.4221
115.138
92.3195
92.3916
92.2866
92.3943
90.9654
98.4717
100.084
81.3266
124.81
89.364
89.8542
118.016
90.5702
91.0824
97.9575
)
;

boundaryField
{
    frontAndBack
    {
        type            empty;
    }
    wallOuter
    {
        type            zeroGradient;
    }
    inlet
    {
        type            zeroGradient;
    }
    outlet
    {
        type            fixedValue;
        value           nonuniform 0();
    }
    wallInner
    {
        type            zeroGradient;
    }
    procBoundary0to1
    {
        type            processor;
        value           nonuniform List<scalar> 
29
(
89.4681
89.3146
88.3331
88.3331
82.7753
82.7753
116.905
88.3546
86.4097
88.3665
88.6402
82.9872
88.4278
89.7224
117.231
117.577
82.3188
83.0101
88.2778
89.4196
117.45
117.345
84.2157
117.675
117.812
83.0101
118.404
116.814
117.675
)
;
    }
    procBoundary0to2
    {
        type            processor;
        value           nonuniform List<scalar> 
42
(
92.5019
92.5212
92.2299
92.2025
92.247
92.5019
92.2299
92.0474
92.2155
92.2635
92.3365
92.4358
92.3365
92.4612
92.4818
92.6204
92.4818
92.2985
92.2239
89.963
89.963
92.2985
92.2884
90.5301
90.5301
92.2413
91.223
92.1128
92.275
92.5024
92.5024
91.9598
91.8575
91.831
91.8583
92.2299
92.4923
92.2269
92.275
92.0474
91.9828
91.9231
)
;
    }
}


// ************************************************************************* //
