/*--------------------------------*- C++ -*----------------------------------*\
| =========                 |                                                 |
| \\      /  F ield         | OpenFOAM: The Open Source CFD Toolbox           |
|  \\    /   O peration     | Version:  v1912                                 |
|   \\  /    A nd           | Website:  www.openfoam.com                      |
|    \\/     M anipulation  |                                                 |
\*---------------------------------------------------------------------------*/
FoamFile
{
    version     2.0;
    format      ascii;
    class       volScalarField;
    location    "0.92";
    object      p;
}
// * * * * * * * * * * * * * * * * * * * * * * * * * * * * * * * * * * * * * //

dimensions      [0 2 -2 0 0 0 0];


internalField   nonuniform List<scalar> 
1466
(
93.2162
91.261
92.9826
93.4573
92.4767
89.9803
93.4531
92.3823
92.542
93.7581
92.454
93.7283
93.6037
93.5195
93.3785
93.5426
93.1299
93.2585
92.4675
93.4956
93.2548
93.4336
93.7942
91.7075
93.5346
92.6717
92.5443
93.7205
93.4067
92.4107
92.2969
89.3773
93.3967
92.3392
93.241
93.3474
93.4128
93.3726
92.5543
93.3839
93.7365
93.6592
92.691
92.2782
93.7508
92.5902
93.3855
93.2833
93.6671
93.3099
92.908
93.7594
92.5301
89.9769
93.4017
93.707
93.2908
93.6515
93.6452
93.7011
93.5335
92.3831
92.4016
89.5598
91.2497
93.5087
93.7112
93.2206
93.2662
93.4589
92.7524
93.402
93.4162
93.504
93.422
93.7591
93.4718
93.2976
93.4117
93.6927
92.8579
93.5165
93.2533
93.6745
93.4878
93.433
93.5233
91.2404
93.5015
93.1005
93.5306
93.3856
93.6744
93.347
92.9064
93.3365
91.1404
93.6584
92.5814
93.5476
93.4336
93.7171
93.0517
90.6647
93.2325
92.4166
93.2074
93.22
92.7541
93.5436
93.6471
93.6132
91.5283
93.4235
93.5936
91.7363
93.4595
93.5004
93.0028
93.634
93.2313
93.2102
93.4066
91.2852
93.4736
93.6798
93.5513
91.8071
93.6755
93.1453
93.6584
93.4182
93.195
93.7134
92.846
93.6834
93.6628
93.541
93.7697
93.3681
93.7491
93.3285
93.6755
93.6322
93.761
93.5152
91.3289
92.7985
93.7135
93.4485
93.6762
93.5626
93.1608
91.1119
93.5402
92.4742
93.3286
91.6721
93.678
92.9642
93.732
93.5484
91.4472
93.2772
93.7006
93.6746
93.2174
93.1789
93.499
92.5604
93.4533
93.4759
93.5484
93.7017
92.6008
91.1976
93.6831
93.6872
93.4569
93.6803
93.2648
93.2173
93.6612
93.4931
91.2621
93.5112
93.1953
92.0457
93.2795
90.0531
90.7612
93.4277
93.5194
91.3909
93.2706
93.3677
93.7752
93.5644
93.5071
93.5126
91.5122
93.6293
93.2126
93.5018
93.5553
93.6805
93.1915
92.4645
93.4133
93.683
93.6362
91.5865
93.6506
93.5163
92.8377
93.2261
93.0413
93.4148
93.4997
93.4826
91.916
93.1912
93.5182
93.437
93.687
93.4606
93.4951
93.5534
93.2926
92.9003
93.5443
91.2933
93.5203
93.64
93.3077
93.5756
93.6434
92.3946
93.6422
93.5487
92.7
93.6426
93.4412
93.6744
93.6768
93.307
92.7463
93.2853
93.3967
93.2716
93.5375
93.4676
93.683
91.2548
93.4868
93.4887
93.4774
93.3458
91.8986
93.7645
93.5322
93.4892
93.4651
93.0671
91.5401
93.4012
92.3702
91.4509
93.6117
93.4476
93.5062
93.2355
93.5731
93.4705
93.4701
93.6495
91.2931
93.4745
92.5383
93.6757
93.5855
93.3542
93.263
93.5586
93.5186
93.5998
93.6694
93.481
92.045
93.4467
93.494
92.2626
93.6584
93.7535
93.6835
93.6361
92.2044
91.6637
93.6614
93.458
93.6516
91.6179
93.5596
93.6635
93.5411
93.2832
91.2658
93.6599
93.5863
91.7935
92.654
92.9171
93.6078
93.7127
93.6753
93.6401
91.4988
92.6377
93.77
93.5744
93.4122
93.6886
93.6734
93.3111
91.4101
93.3855
92.8391
93.5041
92.6787
92.8967
91.6483
93.3134
92.7907
93.0347
91.5019
93.2679
93.6378
92.6311
91.6336
92.8487
91.6661
93.3917
93.3776
92.9132
93.4102
92.7671
91.6314
93.5634
93.6628
91.8697
93.6929
93.5547
93.6954
93.6485
93.6582
93.6582
91.5492
90.7612
91.8973
93.6428
92.1961
93.6993
93.6771
93.0823
93.6991
93.4548
92.8793
92.734
93.4844
91.6545
92.7973
93.6055
91.598
93.2697
93.0011
91.5857
93.3677
91.7415
93.5039
93.6639
93.5706
93.7111
93.6629
92.8895
93.6934
93.6637
93.498
93.566
93.6258
93.6835
93.6812
93.4018
93.6703
91.4993
93.6045
93.4627
93.6664
92.7175
93.2689
93.6694
91.6699
92.716
93.6513
93.5817
93.7519
93.4705
93.6451
92.0518
93.303
91.574
93.546
93.6432
93.6482
93.7271
91.5613
93.6738
93.6249
93.5248
93.679
93.6796
93.5638
93.6923
93.4423
93.4263
93.4456
93.4528
93.4
93.4213
93.4367
93.4489
91.4246
93.5892
93.639
91.5746
92.1336
91.5641
91.5718
92.2954
93.3834
92.9996
91.642
93.6831
91.6296
93.7645
93.3996
91.6405
92.7157
92.642
91.6362
93.5727
91.6638
91.7505
93.9154
93.5784
91.5699
93.4787
92.3979
91.8497
94.2882
93.6211
91.6448
93.6265
93.5997
93.5935
91.5682
91.595
91.4979
93.5566
91.4451
93.7805
91.5221
93.7234
93.6228
93.9673
89.4672
92.2725
94.0725
93.9609
92.4044
90.7199
91.4951
93.4847
89.786
93.4019
92.311
91.5455
93.3562
92.8793
89.9859
93.7721
92.3586
91.5519
93.2756
92.8431
93.6331
92.4439
90.6744
91.5853
91.5575
91.5921
91.5396
93.2329
93.6713
93.6724
92.8039
93.6289
93.769
93.6779
93.5021
93.6289
93.0236
92.3982
93.1772
93.6666
93.8209
93.4248
91.5239
93.2235
93.5938
93.6141
93.6173
91.5257
91.5619
92.1696
92.547
93.6763
91.5292
91.7051
93.6791
92.806
93.4372
93.6648
93.6188
93.5685
93.7261
91.6244
93.7201
91.4858
93.3727
93.671
91.5268
91.499
92.4519
91.5092
93.584
93.7292
92.9411
91.5527
91.4925
91.4841
93.1991
93.2426
91.4816
93.6639
93.6652
92.1423
91.4687
93.6147
93.6059
92.7093
93.4354
93.6583
93.6678
91.632
93.7598
93.694
93.3498
93.5526
93.5401
91.5504
93.3217
92.3375
93.4738
93.7419
92.8618
93.4631
93.4244
92.7655
93.455
93.4341
93.6578
93.6513
93.608
93.648
93.3314
91.781
92.5354
93.2137
91.5623
93.3747
91.3274
93.4617
93.7629
93.0198
91.4629
93.1938
93.7059
93.6777
91.5045
93.6501
91.5924
91.3998
93.1926
93.0289
92.716
93.4874
93.5829
93.4999
91.6596
91.6337
93.6787
92.4642
93.3106
92.1376
93.5542
92.7335
91.5983
93.518
92.1167
91.1924
93.2804
93.287
93.3489
93.6853
93.2177
93.5099
93.6515
93.6312
93.2185
91.5159
93.4455
91.6095
92.9832
93.1706
93.6948
93.683
93.6815
91.4821
91.3672
93.1929
93.1876
91.7452
93.2791
92.8493
92.6449
93.7087
92.9903
92.05
91.9304
93.187
93.676
91.5654
93.6866
91.7556
93.676
93.4314
92.7949
93.607
93.2151
92.9638
93.5438
91.4646
93.7314
93.392
92.9888
91.4701
93.4219
93.6193
91.509
93.6764
93.268
93.4299
93.6395
92.9874
91.342
93.3841
93.3612
91.4611
93.2601
93.6725
91.1434
93.2973
93.459
93.0275
93.6572
92.7626
92.3796
93.5216
92.9279
91.4579
93.5444
93.3355
93.0761
93.688
91.624
93.4446
93.6946
93.5864
93.6627
93.6687
93.3318
93.0674
93.6964
91.683
93.6758
93.1807
93.6534
91.5549
93.3825
91.2444
93.2278
93.3973
93.7833
91.2924
93.2201
93.3382
93.7034
91.6044
93.3995
92.4612
93.6139
93.5914
93.2424
93.6716
91.6364
93.5204
93.6195
93.56
91.8906
93.7721
93.397
93.2084
93.6786
93.64
93.6342
92.1707
93.6442
93.6312
92.38
91.7163
93.1296
93.6466
93.6312
93.5552
91.4979
93.5809
93.706
93.1348
92.0049
93.6985
92.9133
93.7371
93.4402
93.6759
93.6582
92.1587
91.8488
93.1741
92.968
93.4724
93.6921
93.1934
93.6707
91.27
93.4414
93.1618
93.4619
93.7145
92.9793
92.9432
93.5272
92.8495
92.4753
93.4972
93.6797
93.6544
93.5512
93.6948
93.6163
92.6204
91.9708
91.7523
93.5894
93.646
93.6792
93.6697
93.257
93.3983
92.2494
93.4807
93.4893
93.3526
91.2093
93.4553
91.3125
93.1392
92.3518
93.3661
93.4629
93.5671
91.5148
93.6275
93.279
92.9371
93.0518
92.8191
92.4274
93.2914
93.2689
93.4801
92.0186
93.399
93.2187
92.3077
93.5073
92.5532
93.2399
92.9602
90.8224
92.7883
91.6467
93.3331
93.5165
93.6607
93.3289
93.3351
92.646
93.5548
93.5858
92.9276
93.4467
93.6804
93.378
92.538
93.3528
93.4257
93.4664
93.6746
93.494
91.7204
93.6991
93.6066
93.7541
93.3389
93.6374
93.6411
93.7067
93.7084
93.4398
93.65
91.7356
93.6674
93.6523
91.8903
93.3922
92.8419
93.6688
93.521
92.758
93.673
92.6817
93.633
91.7233
91.0576
93.2307
91.3563
93.2255
93.2399
93.5854
93.407
93.3454
93.4698
92.2167
92.2826
92.9247
93.4744
93.5085
91.2344
92.6879
93.5091
93.4913
92.9303
92.3513
93.4838
93.2158
92.8627
91.2091
93.4561
93.4783
92.379
93.6496
93.4295
93.4656
93.6853
93.3106
91.9846
92.6712
92.6238
92.4687
93.7333
93.1443
93.3535
93.6663
93.6826
93.5624
93.3955
93.3575
93.2864
93.7111
93.0891
93.5539
92.7696
93.3769
93.4861
93.6717
93.5526
93.7398
93.5327
91.3082
93.5951
91.2402
93.4511
93.2595
91.6679
91.9725
93.5016
93.1922
93.6729
93.6752
92.5666
93.4829
91.2061
93.6657
93.4821
93.4548
91.9701
93.2935
93.4251
93.2779
93.545
93.5365
93.5311
93.53
91.4895
91.55
91.3929
91.3938
93.5514
91.5226
91.7018
93.5524
93.5485
93.5449
93.0692
93.5447
93.5486
93.7441
93.3857
93.7242
93.3357
91.9198
91.6671
93.6728
93.5589
93.2188
92.5137
92.2431
93.3084
92.9202
93.2679
93.1972
93.6203
93.5634
92.8502
93.6462
93.2461
93.21
91.4505
92.1879
93.5332
92.122
92.932
92.4162
92.3919
93.1977
92.9367
93.7509
91.6115
93.4265
93.6327
91.6981
93.7222
93.1034
92.4884
92.5451
92.8033
93.456
91.6557
92.9332
92.1833
92.9576
92.7552
93.4633
93.2162
93.7178
93.5285
93.5254
92.6233
93.5568
93.3223
93.2269
93.2433
93.4944
93.6776
93.6314
93.7781
93.2252
91.5278
93.6516
93.379
93.2586
93.3918
92.627
93.4606
92.3476
93.7453
93.4228
93.6577
92.4654
91.002
93.2329
93.0956
91.9485
93.7851
93.475
93.4001
92.1052
93.5806
93.6301
92.5936
94.0215
93.5752
93.5846
91.4781
93.6554
93.5929
91.4256
93.5741
93.5222
93.2563
91.5713
92.904
92.7395
92.3076
93.6593
93.6752
91.6221
92.814
93.6928
91.7188
92.0398
93.4981
93.3802
93.5559
93.4335
91.5611
93.2923
91.6857
93.7478
93.7334
93.6415
93.7933
93.3325
91.5975
91.9065
93.6205
93.7591
92.3272
93.0488
92.266
93.3918
93.5793
93.7727
92.3988
93.1703
93.7415
91.8899
93.7458
92.9453
93.4033
92.2611
93.5223
93.5434
91.7629
93.2758
93.5514
93.4067
92.5206
93.7186
93.477
93.528
93.7937
93.5009
93.3338
93.5509
93.5716
93.5585
93.7574
93.7689
93.2609
92.5826
93.5857
93.5773
93.2013
92.5971
93.2494
93.5377
91.5249
93.3585
93.7768
93.364
92.9593
93.5328
93.3169
93.31
93.6275
91.5983
92.8185
93.8064
92.7465
93.6629
91.6458
93.5924
93.4473
93.6423
91.597
93.6635
93.3042
91.6934
92.7357
93.2549
93.6483
93.638
93.3962
93.3374
92.2673
93.5598
91.9729
93.5524
93.3503
93.2164
93.4775
93.3176
93.5606
93.6959
93.6382
93.7373
93.683
91.7038
93.3275
92.9466
93.4183
92.0814
93.7985
93.5654
93.1375
93.3145
93.5409
93.3387
92.8091
93.3791
93.4268
91.8987
93.3167
93.2375
92.3121
89.8411
92.5131
93.5253
93.6457
93.5031
93.6998
93.2184
93.5221
93.4071
93.5514
93.6535
91.5388
93.3166
91.371
93.2927
93.594
93.5518
93.271
93.45
91.7906
93.1701
93.4385
93.5567
93.4701
93.6054
92.6103
92.5714
93.5657
93.4443
91.1405
93.3831
91.6265
92.6762
91.8888
93.6538
93.5002
92.7886
92.8677
91.7511
93.2525
93.5527
93.4914
93.5381
93.2483
93.3855
90.8896
91.5164
93.6008
92.6891
93.4218
93.339
91.7846
92.7764
93.381
93.5791
91.5234
93.5705
93.2255
93.4921
93.6312
92.8909
92.3954
93.4859
92.9615
93.4061
93.5276
91.6605
91.5964
93.4095
91.7065
93.3839
91.1078
92.9506
93.6074
93.0172
92.9136
93.6817
91.6543
93.5452
93.5609
93.6691
91.6667
93.5712
92.5359
93.4173
93.6453
93.4719
93.6852
93.5039
93.5565
93.3481
93.4179
91.4588
93.5464
93.5689
93.3853
93.7457
93.5541
91.7685
92.6029
92.447
93.646
93.3193
93.5891
92.8757
92.9896
93.4609
92.9684
93.3002
91.3296
93.5161
93.5603
93.1357
93.404
93.7769
91.7754
92.8617
92.9794
91.8241
92.0387
93.5335
93.5624
93.5055
93.2365
93.3867
91.6698
93.5754
93.2363
92.6136
93.4689
93.6315
91.6812
93.6049
93.6793
93.7248
91.3052
93.2168
93.2386
93.6161
93.5352
93.0938
91.6222
93.668
91.7668
93.6545
91.568
93.4776
93.3354
93.7261
93.6344
93.1181
93.4377
93.6878
91.7141
93.209
91.7355
93.5883
91.5578
93.462
93.6505
93.6587
93.2361
91.5102
93.509
92.0975
92.3724
93.4167
93.3043
91.6339
93.3198
93.6251
92.8572
93.2518
91.4198
93.5024
93.524
93.4018
93.2579
91.5856
93.1949
93.6574
93.3836
92.7678
93.651
93.5378
91.5904
93.4855
93.0172
93.5393
92.3213
92.8781
93.6684
91.6474
93.5594
93.6316
91.5249
93.5228
91.5162
93.3143
93.4789
93.6393
93.4796
93.3673
91.2705
93.3478
93.5136
93.693
93.5279
93.468
93.5563
93.5082
93.7375
93.6004
93.7128
93.3572
91.2921
93.1484
92.7605
93.5444
93.5478
93.4219
91.2068
93.5014
93.6138
93.7477
93.78
91.7992
93.5249
91.5537
93.4828
93.6222
93.4391
93.5549
93.6742
93.5489
93.4929
92.9423
93.5064
91.3291
93.5551
93.3756
93.5469
91.7532
92.9985
89.1623
93.4176
91.1611
93.48
93.4123
93.485
93.4724
93.5596
93.3557
91.1439
91.4251
93.1943
93.4114
93.5278
91.3863
93.0298
91.0884
93.4641
93.6421
90.9384
91.295
93.7882
93.5621
93.4838
93.4958
92.966
93.6006
93.7507
93.5167
93.6786
91.7487
93.5826
93.6387
92.0374
91.9387
93.4711
93.6691
92.2598
92.9415
95.8194
92.4232
92.5394
92.3396
93.4708
93.4567
93.7185
)
;

boundaryField
{
    frontAndBack
    {
        type            empty;
    }
    wallOuter
    {
        type            zeroGradient;
    }
    inlet
    {
        type            zeroGradient;
    }
    outlet
    {
        type            fixedValue;
        value           nonuniform 0();
    }
    wallInner
    {
        type            zeroGradient;
    }
    procBoundary2to0
    {
        type            processor;
        value           nonuniform List<scalar> 
42
(
91.8155
91.8155
91.6094
91.616
91.4887
91.8051
91.4114
91.4114
91.4253
91.4374
91.6679
91.6679
91.5665
91.7156
91.7479
91.9074
91.7382
91.4851
91.4097
89.1958
89.7353
91.5228
91.5228
90.1066
89.7353
91.5722
90.6614
91.5399
90.6614
91.824
91.7855
91.4731
91.3649
91.2285
91.1294
91.616
91.7382
91.745
91.25
91.2251
91.2251
91.1277
)
;
    }
    procBoundary2to1
    {
        type            processor;
        value           uniform 89.0298;
    }
    procBoundary2to3
    {
        type            processor;
        value           nonuniform List<scalar> 
29
(
92.494
92.3336
93.3659
93.3694
89.58
92.5246
93.7737
92.3586
93.3803
93.3686
92.4688
89.3643
92.5386
93.7709
93.7875
93.7706
93.3777
93.3777
92.3336
93.7709
93.7817
93.3734
93.8149
93.3693
93.7928
93.3688
93.3803
88.9576
89.3643
)
;
    }
}


// ************************************************************************* //
