/*--------------------------------*- C++ -*----------------------------------*\
| =========                 |                                                 |
| \\      /  F ield         | OpenFOAM: The Open Source CFD Toolbox           |
|  \\    /   O peration     | Version:  v1912                                 |
|   \\  /    A nd           | Website:  www.openfoam.com                      |
|    \\/     M anipulation  |                                                 |
\*---------------------------------------------------------------------------*/
FoamFile
{
    version     2.0;
    format      ascii;
    class       volScalarField;
    location    "0.33";
    object      epsilon;
}
// * * * * * * * * * * * * * * * * * * * * * * * * * * * * * * * * * * * * * //

dimensions      [0 2 -3 0 0 0 0];


internalField   nonuniform List<scalar> 
5794
(
4.67636
2.83419
4.53698
114.555
28.9076
4.85372
8.76016
36.0292
113.454
12.4719
36.6188
1.69105
7.98029
3.20457
5.62766
0.572386
111.452
13.173
5.03546
1.15322
77.1357
5.09479
29.7164
8.23228
21.4451
94.2316
82.6886
39.9413
98.9519
1.52236
10.5261
4.82838
29.2517
7.14147
33.8306
27.269
4.41109
1.28234
56.5358
18.0351
29.8302
4.65549
9.24115
5.30365
5.10482
45.636
4.52427
12.1915
6.53759
17.2673
0.360622
69.3707
11.5526
5.46394
0.176686
44.6053
5.94797
16.5416
5.50581
205.415
57.1363
1.29802
7.08817
5.76445
33.4207
0.970697
40.2482
16.3128
3.74168
2.04858
87.7348
58.8423
98.2906
2.60732
8.87503
45.9318
53.8046
61.1732
5.14087
0.389584
2.2636
2.26911
19.5122
33.965
8.75012
76.1598
35.1687
104.633
3.47393
33.569
125.171
35.6366
71.1155
111.171
42.3447
79.476
93.4658
59.3304
35.8907
62.9698
53.0757
2.29411
7.06168
6.74767
24.2261
54.295
0.875384
11.2635
51.491
5.28717
1.13092
22.4272
61.8468
0.773175
36.3206
86.1786
3.49553
88.0627
51.9092
21.7425
72.2758
8.82544
4.6849
43.4199
8.56058
49.5702
3.16013
4.12934
80.5768
13.4956
3.62702
8.32676
2.93599
50.4777
70.8118
6.19933
119.041
1.33365
0.207883
5.71219
13.0957
22.2932
11.701
19.8338
0.571776
147.72
64.7372
43.0324
17.1164
53.0051
12.3532
3.95949
59.378
1.4987
120.505
6.39015
40.0233
2.46344
76.3733
2.6605
10.2733
18.4937
2.39837
10.0385
72.4087
94.4326
7.46022
9.25656
1.30311
34.4505
2.45727
35.1543
15.1218
40.8572
2.7385
24.9939
5.29147
23.4391
19.0831
98.8217
2.62398
11.8712
11.1653
70.4963
6.21227
87.4263
3.19592
18.08
9.67105
2.06986
46.0995
6.52478
38.4036
11.6689
8.21373
2.41709
32.0138
47.0464
5.17083
6.6677
14.6611
76.4103
10.1101
6.40726
5.17554
53.8658
17.8031
25.2652
13.3382
55.5291
5.6313
10.2062
16.9514
18.8702
11.5038
24.9569
23.6612
3.03967
30.3537
79.249
9.75839
43.6896
172.948
67.268
135.573
38.5868
3.46419
18.0756
5.54698
4.83502
33.1362
42.4319
2.53152
39.7751
1.06279
21.9427
18.4128
28.6421
8.89716
1.82941
2.87758
66.7353
45.1042
1.75772
1.09081
2.32876
5.13588
9.64264
168.342
92.6483
34.7192
0.804503
128.163
0.443325
4.88668
27.7025
6.59801
16.1677
22.812
10.5036
69.9877
12.8771
14.827
1.0246
20.5197
26.2845
35.2304
71.9508
13.4102
53.3735
4.92298
10.3385
21.2225
86.1721
16.203
4.61206
5.28617
6.28226
0.737752
9.14199
52.1223
91.8412
30.277
4.73887
25.1631
104.987
32.4995
58.0434
146.613
77.9144
28.713
38.1193
4.33965
7.07968
4.78772
92.1977
57.8026
4.86595
42.7507
0.78343
2.97517
55.4894
2.04191
54.9716
3.73806
75.4811
0.451728
2.04846
60.6698
5.38436
8.10086
44.3728
62.471
0.724782
9.85082
34.8476
15.2302
38.5885
53.9573
137.695
25.6652
6.88146
101.635
19.4476
0.311242
27.6412
3.33402
1.71292
7.1875
34.4776
88.6487
8.50064
8.28613
27.6458
4.68049
11.9527
16.0699
1.75469
7.7094
9.55767
10.5434
24.1451
97.0426
38.0866
5.53591
9.56394
106.844
16.4349
111.144
1.19217
77.8535
139.448
52.4016
8.97063
12.172
42.6939
4.91245
90.9949
10.5784
32.472
19.5082
1.0345
92.1351
8.67794
28.7
6.06026
81.4252
56.7658
6.06703
17.7393
4.64165
1.67291
8.08019
0.225331
25.9294
58.9805
43.6793
10.3149
27.3377
0.0979294
12.5569
3.66259
12.5332
27.9122
27.8548
8.39649
105.798
9.97006
13.9376
7.4095
7.01661
69.4151
1.84305
28.8072
10.6082
50.2695
2.41503
4.03621
7.75235
24.3902
13.7818
21.4327
33.4686
1.37177
25.6097
38.6041
12.1359
5.30794
0.876995
89.0221
57.9804
31.0999
34.2864
32.8464
70.1513
6.50628
8.66933
2.30571
62.6302
92.3621
36.0167
58.0861
18.3785
5.47487
20.5588
31.7894
2.63291
0.763187
1.81818
3.14777
68.3297
5.77516
26.7945
92.7694
4.63976
5.59653
10.2249
19.9453
16.9845
23.4875
4.20123
8.13442
6.88711
3.02249
4.99349
94.1656
38.1391
0.226737
5.37526
68.5914
17.6429
1.23642
117.66
5.31633
80.3679
1.23706
85.7064
92.2018
49.7002
171.976
3.85986
0.980006
22.2497
4.28617
69.7683
12.9356
29.8036
31.427
17.6987
4.73038
0.371824
16.5073
53.0319
8.71586
13.3189
91.9445
32.467
38.8189
1.92318
1.12692
32.3942
3.44525
6.4386
5.4115
17.9956
33.6129
10.1214
5.93026
94.8986
3.13865
1.72984
125.752
113.61
10.931
20.111
2.82946
2.38744
3.84735
0.456972
33.5309
24.3346
26.4243
8.5888
16.6139
19.2947
1.05916
1.54975
27.0011
41.2393
0.833844
75.6977
0.282283
11.8862
0.676075
0.484594
33.8196
78.4299
0.532221
5.53392
34.0305
2.62673
0.692017
30.91
81.1447
12.1486
3.80818
2.54874
48.2529
0.900999
6.55417
25.4504
0.545112
28.5541
2.7995
6.39817
10.3834
6.6244
148.244
11.7025
56.0262
3.51354
114.367
1.47673
3.49834
3.59233
0.305185
5.49506
17.8953
0.599881
4.23354
7.85272
0.241271
6.50949
3.24797
4.82911
21.9829
21.9177
6.51853
0.920528
40.6141
204.136
1.36964
54.1563
5.65835
3.79105
2.82972
0.768472
14.4748
3.10867
0.875093
78.1054
32.3645
113.73
107.057
111.6
8.92712
31.387
36.3768
4.9642
61.1282
88.685
27.9585
115.659
28.5918
109.945
48.4521
0.712758
71.1188
24.1564
103.386
0.823112
4.01732
1.4327
99.879
31.0452
38.2262
0.0885101
9.34579
0.453634
13.5253
2.67704
88.7699
32.8877
110.505
0.829336
8.32631
124.913
14.4793
0.221599
4.26499
25.9106
32.1021
5.04764
10.262
2.34149
5.21071
29.8714
33.0287
7.22517
50.6373
1.18326
40.8297
61.479
16.8902
1.12544
4.26472
0.431644
36.6379
89.5465
0.656844
2.97006
2.25337
0.737994
2.02691
0.733616
6.20816
56.0325
26.5127
4.89694
35.9374
2.85223
7.92519
29.4042
23.8245
120.699
139.184
46.0848
47.977
0.85292
0.93433
2.4518
2.46957
2.12115
5.28184
2.78298
75.928
47.8823
42.215
47.8886
4.18157
0.146415
7.22578
4.31548
49.3232
1.29039
54.0745
151.9
106.528
34.581
53.0516
30.3859
4.01467
40.1544
29.8331
36.5876
37.0831
120.513
5.14077
5.64796
1.84094
2.27895
34.0395
6.05241
0.352026
40.7058
132.18
144.582
3.76138
1.21475
0.31317
8.30459
183.581
48.2856
49.6897
6.5698
44.7643
21.7816
1.94222
0.784662
9.85213
6.32477
8.41754
0.648527
16.444
38.8773
156.332
8.40202
5.82247
1.31732
132.477
18.407
196.8
53.8866
94.5632
43.1782
16.2699
8.72583
77.1789
44.6615
48.4103
48.641
72.59
148.324
2.99778
25.6066
4.20684
13.0042
28.3586
107.704
38.0701
48.9943
37.7038
132.282
25.5268
6.86321
6.12108
46.6347
11.4566
35.8331
66.2825
109.278
1.45295
1.02057
8.31027
4.22874
97.2572
28.3401
144.627
15.3654
9.01072
2.47393
2.35371
5.44696
0.943616
32.0748
100.487
5.08791
117.39
43.7896
7.82335
2.7759
25.6927
87.1232
49.3933
152.461
104.176
34.7146
59.4746
4.28988
65.2802
25.7887
97.9499
34.8679
1.49124
12.2827
1.70679
3.35198
2.44934
18.8166
4.20018
27.2666
59.5464
17.4787
5.21833
0.828247
90.5565
29.3336
26.1027
94.6378
28.8353
0.300557
89.0393
76.0034
29.5263
9.96794
32.2124
1.47362
171.918
3.8905
60.2723
9.59862
16.5641
5.21868
0.310686
2.65684
6.31836
26.5683
55.2421
79.0439
201.922
53.2133
8.51529
3.55212
30.6407
165.492
2.52373
0.795547
14.2232
79.9645
0.923487
5.47936
19.7911
42.8179
28.6896
0.658767
17.4799
4.66944
8.35534
5.57849
23.5506
76.5403
95.5291
9.35171
3.54851
69.7087
8.04334
4.829
106.047
2.77341
3.84181
9.72449
0.836441
21.6658
1.5047
25.1998
0.377261
15.1278
5.74227
10.7539
30.3415
35.2324
119.089
45.1265
38.5083
69.392
37.1428
32.2863
40.0199
0.384364
1.32766
5.11632
41.8559
4.25118
5.58552
211.748
60.4711
57.448
17.5742
4.72795
31.9815
0.428659
14.1801
48.5514
3.981
201.513
3.70113
2.99977
47.6476
15.0774
6.36787
1.68085
1.79368
13.7552
6.51989
1.0819
3.00084
52.239
74.061
5.57538
10.114
32.0675
8.19554
44.3113
138.836
99.1561
86.7953
26.0403
2.45883
1.6523
27.3695
0.78014
0.197779
0.749727
3.12044
22.8592
1.16132
7.37945
0.761895
22.6776
74.7339
7.25104
8.1021
7.86129
16.1246
32.5847
34.3871
78.2935
6.31158
0.788471
31.9327
11.4097
26.3354
7.45447
109.098
59.1318
67.6452
3.19684
109.484
97.7411
5.93099
4.98953
6.25755
4.38948
1.82564
73.1812
18.3121
45.7439
90.5451
36.2159
57.7597
41.2749
10.9985
0.877219
5.13565
12.9464
0.806108
21.5192
25.8913
152.813
6.96581
69.1819
80.8423
1.36666
5.17397
29.366
40.3144
10.0492
5.27733
22.7971
67.8864
6.22932
35.5778
1.52205
5.79187
2.04366
1.1534
1.1976
7.06613
0.231873
0.840548
0.826753
2.05324
7.98408
43.574
5.36497
1.21912
0.760264
67.538
9.72178
63.8101
3.91216
51.3084
0.855546
40.9459
4.75087
7.4174
2.88654
14.9935
46.22
2.21069
10.0069
6.31376
0.245529
9.237
76.2772
21.5836
32.6882
180.247
0.444909
11.077
28.6682
24.0482
23.3034
30.4247
50.3849
101.126
4.63946
3.29563
0.775074
0.46982
18.0141
10.5982
138.683
144.357
125.034
0.385541
25.8777
128.065
65.8937
61.8287
43.0189
1.0015
6.2497
0.967348
37.4574
11.047
21.1719
4.54394
2.56983
4.39996
4.82249
10.0494
98.9995
2.51287
3.108
23.342
36.1694
12.1872
0.998128
8.21471
38.1165
0.728432
7.75845
4.53031
6.56848
17.0057
0.635223
31.2406
1.14862
10.3956
21.2719
1.9893
34.5173
9.20962
0.495362
4.77548
13.8331
0.266502
88.9734
18.13
1.27645
0.850183
15.1817
0.0957309
0.892605
10.3814
2.16311
0.105829
4.22981
30.7475
16.5101
60.4904
25.0889
8.44364
107.159
33.5527
0.119559
1.59226
14.3743
4.45521
21.1262
64.9428
0.1333
22.2805
0.425469
23.5175
1.7676
58.1066
2.77731
19.5485
57.5794
0.620984
35.7605
5.34065
0.133657
6.28856
4.7305
30.3909
33.5002
0.706028
37.6311
0.485265
0.676725
16.2714
0.907639
2.72325
10.3477
3.8404
21.5037
6.34732
76.5869
0.608022
0.866933
0.815087
4.49864
17.1693
17.6141
3.68528
28.4865
7.63442
18.0981
30.5089
5.24956
1.06879
5.19037
11.7815
11.4876
15.0408
7.00653
104.185
82.8374
60.4006
20.2225
98.1107
8.43516
8.4463
10.0147
3.30424
2.16221
0.360791
561.798
39.8825
0.569205
4.57588
57.3345
53.4754
8.65806
2.63806
2.04331
24.2236
12.0629
1.65267
30.3899
7.87865
50.8169
4.98192
27.7085
5.44897
0.293975
6.95018
4.82095
2.02044
31.3946
1.07188
50.3337
6.07613
28.6838
11.0211
22.1069
4.31039
21.4697
9.26083
17.8417
11.3913
4.42149
4.5506
12.7596
27.0602
9.7064
5.58607
1.81879
2.20995
17.9955
3.92398
19.9818
45.996
8.94348
7.70422
6.05747
6.75911
6.78565
27.6292
16.1085
11.1403
23.3822
0.203518
55.9073
1.07214
173.845
0.671218
0.114066
6.64981
0.730409
0.933911
47.3954
5.62419
5.94344
2.33624
2.3605
41.1099
199.37
87.8044
1.94743
1.85772
3.80086
3.68717
58.7233
22.8193
6.02654
8.62918
0.558811
40.0935
5.35309
6.54523
41.838
8.90561
7.48973
34.3959
10.3208
0.712206
37.3639
84.6609
31.9145
11.6105
7.23383
6.43114
0.703232
91.6004
24.7789
3.87049
78.8866
2.06275
0.549279
36.8198
9.99844
78.2067
0.167707
13.1159
52.9497
0.215937
0.347011
2.25064
0.629678
1.60558
8.74496
5.70629
38.8961
0.522047
4.39734
24.8829
129.679
13.1269
8.83351
27.7948
4.41777
96.6147
0.223003
8.40795
121.728
23.8448
69.5939
6.52125
34.1035
35.5783
29.5706
6.65137
9.49022
0.478961
14.7099
0.206951
8.26154
10.3661
7.01999
7.97772
11.3036
5.44496
5.94694
29.1819
0.243275
1.13252
7.40662
7.21469
0.187139
6.91009
69.1652
9.36358
49.6815
41.5853
7.24259
1.33786
128.826
0.251062
30.3166
12.8857
5.12164
10.2331
1.85994
24.2868
0.603269
12.1458
0.73218
18.3162
0.118252
10.0186
58.3131
30.0443
7.42172
37.764
27.0844
9.71267
8.86597
0.876328
21.306
4.94426
12.2534
77.1152
8.29767
0.308739
6.22034
35.0291
40.9276
154.597
87.0777
93.2431
75.666
20.8027
0.239593
8.2068
19.9569
4.62021
90.4165
0.265642
0.245092
4.6229
15.5165
0.226086
6.11312
14.198
3.01415
3.17398
5.28688
5.08541
1.34252
7.61016
5.42207
31.287
16.6312
0.677482
26.7512
34.9645
21.3945
18.2253
4.38831
56.1311
0.20643
1.28262
0.406651
5.72248
298.669
11.3955
51.3333
27.5487
79.2945
79.5041
16.5064
19.4132
0.543664
0.797146
0.334537
0.216065
12.755
7.642
0.909185
12.7095
0.167711
0.622192
4.23692
12.372
2.1628
1.16948
0.169259
10.0612
8.53231
1.09069
7.56184
3.25551
0.76216
1.28297
0.100978
0.324011
19.4051
4.04905
5.14123
0.447659
2.16407
12.5674
5.04036
0.881951
0.5219
0.563652
0.419468
0.357128
17.6788
0.770667
0.122214
3.26359
0.686538
5.94731
18.2476
2.26771
13.0794
21.7829
0.154619
2.94774
36.1615
100.383
24.2429
1.18589
0.260941
16.4381
2.15694
22.8779
97.296
172.083
24.8833
113.622
30.0028
0.10534
0.10679
0.211229
6.03261
3.51923
21.9753
0.19467
4.8319
6.81725
2.08449
19.7699
22.8302
7.93585
14.3737
9.51965
227.695
4.65457
6.4921
6.41554
12.1182
38.8675
11.7859
69.333
3.57463
28.5191
55.7905
8.92328
22.6882
12.094
11.5045
13.9063
495.814
4.06659
3.32532
1.30492
4.83751
10.9775
11.2734
65.3922
3.76093
0.857422
0.300227
8.57092
15.4252
0.29231
10.2852
0.154617
0.752155
2.32139
0.237867
14.626
5.74054
0.344737
21.4704
4.06833
9.78865
3.60086
1.25739
1.10976
1.46111
0.583329
20.1151
0.697009
39.6158
66.4863
9.80584
18.9706
4.57864
13.9164
3.84571
0.433866
57.8379
19.9259
14.943
39.5179
12.0159
7.36879
0.161798
12.8222
33.8895
7.4382
31.3426
100.428
21.7303
0.225704
45.3909
31.6572
4.86855
48.6806
12.9936
63.7294
0.407114
4.04075
0.342171
34.3475
5.50745
3.54937
14.0079
0.19492
131.043
0.279353
103.019
6.56966
0.333882
0.120281
99.9013
0.231718
0.449123
4.70855
4.62051
123.573
10.743
108.331
21.4349
9.05024
17.1746
31.1542
1.5935
9.13829
7.38531
74.9649
39.2976
17.0734
0.967079
68.1746
6.22196
34.88
10.2591
4.03512
0.139909
6.71096
9.22536
0.915059
2.74158
16.5031
0.108488
6.58645
107.927
105.64
12.5414
10.599
71.9909
0.121644
30.5754
19.082
4.2747
26.7099
39.2377
4.55997
57.2862
0.197398
9.27568
7.39969
2.88885
7.68013
14.9505
8.68457
11.7493
40.1689
1.07627
0.545842
2.04806
18.6671
3.53379
23.2988
210.053
65.1296
41.4141
39.9234
14.6582
25.0622
23.8923
85.6512
39.0601
14.1791
39.1005
20.5483
33.9297
127.875
98.5869
8.80245
64.793
30.5961
17.3608
18.7898
3.90762
52.7592
48.263
10.5728
56.6998
15.5097
101.552
14.634
7.41224
69.324
4.62883
14.0213
25.8613
0.494551
0.731537
14.2627
60.2986
4.05847
0.457129
8.44567
29.0967
28.8842
43.8794
23.6655
34.0585
47.8753
30.1351
6.38685
35.6981
35.247
47.8664
22.1902
31.7278
23.709
41.298
34.8816
41.8685
17.0841
13.0709
6.74103
32.6917
4.81422
7.61062
7.32235
3.46052
0.285395
9.82134
17.5358
11.784
9.06021
0.823088
1.84766
57.4828
10.4428
25.8321
13.7343
8.92518
2.36479
4.38381
15.3726
22.1715
6.58815
100.093
21.6456
5.30981
3.83475
5.55929
0.392679
31.9328
0.609331
10.3062
1.8943
0.271357
5.3843
2.10015
2.98925
2.19747
2.84006
2.92352
70.0337
3.11007
4.63129
5.48792
3.03713
46.6682
118.274
3.18117
85.4289
26.7035
4.87477
142.723
9.15483
5.90403
123.672
24.4964
101.303
4.39409
3.93013
126.37
124.308
73.1396
4.85976
4.22214
6.36079
6.04116
5.88494
99.741
3.59526
2.54605
33.0849
2.44432
5.76706
18.8097
4.90531
49.4883
32.865
14.7044
91.2502
93.5051
7.11753
96.9586
3.42018
35.3405
16.4219
19.3652
133.196
7.51493
85.6775
17.7221
39.8061
15.8421
67.0785
80.7373
6.74767
93.1829
51.5375
5.01999
20.6088
42.4699
7.44326
6.21848
54.4784
7.36433
60.3606
33.9662
30.2647
8.5473
20.6394
6.0246
121.608
7.85618
11.3628
15.8739
220.904
3.40689
7.22756
0.423302
32.9699
15.3461
5.20658
14.0677
4.62905
5.92979
1.17778
6.33503
8.94613
6.58787
4.0179
6.64281
10.0167
6.63884
22.4478
37.9853
6.7096
35.7571
6.57935
5.58141
4.47563
2.99219
4.69939
19.0474
7.6512
12.0371
0.239022
6.02643
7.71461
55.7101
5.87416
3.94325
5.00914
11.8965
2.27752
4.57617
6.53299
7.97985
3.19075
4.42377
20.3454
8.81733
5.00719
35.0534
3.53982
5.36457
7.63894
1.08936
9.53148
19.6623
12.2525
1.49311
8.88503
3.44615
4.92714
6.65862
11.9452
17.5216
1.8232
17.3559
2.60717
6.75892
1.09686
1.03984
16.6369
15.4212
18.5219
16.0379
1.44169
5.85563
3.08422
16.2998
10.4601
7.74668
0.559794
7.37768
1.87863
0.400539
7.1772
5.203
55.524
10.0413
9.03229
6.71842
4.04914
1.0095
29.1722
59.1019
10.2496
23.249
2.20902
58.2803
30.6375
7.84491
24.5828
0.857989
28.6704
0.387879
38.989
22.4786
3.74109
21.204
32.4173
12.966
7.40841
1.07808
0.587
35.2472
8.90588
19.3157
23.539
35.194
7.64073
0.705995
0.451666
63.1976
8.20386
6.36514
36.6107
80.9486
7.93618
17.7446
7.02833
41.1114
9.87455
4.92038
29.0813
12.0894
8.91418
36.3413
1.47557
55.7488
11.2415
40.176
45.2267
10.985
0.712565
0.454767
21.6619
6.38097
96.076
32.4222
75.8394
0.385049
39.8187
31.1379
3.4499
5.62172
5.3033
5.82687
14.3184
27.9173
56.5256
66.5015
0.933618
13.0379
40.3643
75.9234
27.3899
61.3215
7.20226
51.7747
8.25885
14.3519
123.572
10.8454
5.65618
13.4305
12.3026
7.66609
15.162
3.82812
33.4156
8.18322
58.1347
27.1445
38.1368
9.99873
0.616407
0.48292
35.4843
66.2055
7.64409
32.8146
67.7801
71.664
107.031
7.32868
9.53412
43.8205
23.8365
0.388552
32.7691
3.94589
54.8522
85.6044
4.80565
9.43399
170.859
14.5532
3.65841
37.511
21.5754
33.5153
23.2202
2.4633
107.818
68.5336
1.25111
35.4897
6.8729
5.73325
18.3984
12.3298
6.40452
53.0292
3.72056
5.16388
41.0627
13.9343
0.770535
0.481395
124.571
104.761
13.0673
13.4009
157.864
138.776
21.0314
6.29376
79.9039
6.61195
7.97842
48.0651
0.329768
37.3739
4.45633
3.62325
7.15206
143.706
76.8635
111.032
5.5856
150.926
83.6642
37.0067
8.09602
25.4357
10.8048
11.3734
3.8201
5.04158
5.35605
3.10449
11.9745
52.4774
5.58619
3.84971
35.8893
12.4583
36.5274
36.1593
20.3217
41.7198
2.98654
41.1795
1.66928
0.484381
149.705
66.0804
45.9808
74.5382
70.0492
39.2333
4.44932
5.11668
4.67391
7.76208
4.35034
10.1468
0.642394
0.449982
0.988557
0.654738
0.632802
85.8927
105.083
15.6034
47.7848
10.3491
25.2524
3.46978
31.2361
22.9544
4.68727
16.86
3.58205
6.77834
6.33327
80.2434
17.8458
11.3469
0.214865
63.0772
4.46293
2.92201
30.4857
38.3711
96.0003
7.20745
9.52141
43.8946
127.345
27.6931
9.94597
0.214234
0.299998
8.16868
6.74767
20.5983
6.24389
0.84009
0.639777
26.7906
5.20859
15.7838
120.454
3.7327
15.1434
5.11838
5.66885
3.40691
50.062
174.816
39.7806
0.8871
3.32328
34.4912
62.793
6.99115
20.9611
6.44178
5.38858
8.2238
5.05468
0.604832
9.73945
6.2974
0.167676
6.3388
4.17995
6.31097
8.87385
10.1139
19.3356
3.80745
19.7808
17.1116
4.24179
6.82189
43.7577
5.15167
5.04749
11.8574
37.6349
5.65991
41.089
86.7415
7.81661
50.6593
4.73429
171.83
25.5039
71.8624
0.28195
122.769
4.50766
25.9471
5.39787
0.35881
100.683
7.98197
24.6187
4.732
10.6652
7.90853
5.34251
81.2908
61.5332
2.75635
31.2937
11.0828
21.6263
13.8497
0.838544
0.51379
31.8334
22.1966
9.38674
6.02764
1.13816
142.801
38.5521
201.529
138.562
41.9092
48.6195
9.97015
2.57042
31.1764
17.5873
8.50618
11.3989
18.4297
1.55699
7.55023
34.8572
88.3456
70.9162
8.28623
9.62135
103.039
13.8894
6.86449
4.47805
6.10483
121.275
8.90896
19.9719
85.0731
113.539
26.1176
3.29586
5.18073
53.4909
8.90477
13.8149
31.0265
9.32124
31.9451
4.4158
23.6134
53.9473
143.719
11.4825
5.59299
2.90106
0.400874
36.2614
17.4376
11.9439
121.165
84.6698
277.959
1.66481
6.82872
9.11787
18.9356
2.64829
184.887
44.465
8.36964
0.497401
13.112
0.184511
2.51617
27.045
46.9629
21.2016
58.9247
32.5047
66.0141
5.5465
16.6207
129.237
23.7516
32.7573
460.918
4.85697
7.57294
44.9331
123.813
55.1501
25.7768
52.0609
4.55167
2.6537
36.0911
5.5954
16.014
37.903
0.732469
14.7604
2.29401
81.1946
5.26206
58.4119
6.97643
18.6736
13.2152
46.0346
11.2737
83.0112
1.76099
166.096
2.21646
4.34129
7.31977
0.702663
1.99156
73.8532
23.7293
73.4371
13.176
95.4983
160.513
12.8252
27.9536
4.15772
5.00283
11.5294
0.225488
18.5664
50.8219
4.11312
3.6432
35.5838
73.1911
19.9335
126.06
5.01311
42.213
5.6298
120.071
5.63194
4.70157
0.206449
10.6573
12.7142
53.1805
6.0878
19.3355
87.6704
10.8604
5.3526
84.7935
3.46724
2.76036
71.9571
2.69487
3.80486
3.42854
11.6833
34.3822
5.38874
29.4373
75.0076
0.870515
12.2943
17.67
23.4728
60.6193
4.49972
40.1326
36.3666
26.2733
13.7258
10.3963
9.16912
5.40051
0.678464
0.47643
16.4681
64.3755
7.29865
6.72226
110.358
7.73985
14.1423
43.5863
6.19026
5.00457
2.71767
75.4548
4.32415
0.450087
1.27935
9.07228
25.9328
10.9982
3.94852
2.97105
75.7609
34.3509
5.18997
42.7978
136.526
85.2431
27.8621
80.6645
0.534493
45.5966
149.15
10.2801
0.719342
0.496421
0.964376
5.20363
4.59959
55.2027
1.55375
29.6656
4.25206
10.4302
19.503
194.438
4.2101
58.2266
3.43412
25.494
71.7313
22.7266
5.76203
13.1919
0.898149
0.540229
40.4089
13.2739
15.399
94.2575
14.9403
29.6838
227.926
58.6397
46.1871
0.382132
83.4517
0.130265
5.37282
61.9462
28.4248
12.431
2.43268
6.59772
16.9487
50.224
0.412788
7.79652
9.49916
73.4864
7.94269
5.78318
4.73022
32.4482
39.7877
30.2599
2.28183
35.7577
78.9568
130.886
37.9192
16.1662
5.03097
52.518
21.6436
68.9018
6.84142
8.35597
6.44248
14.5642
0.861342
4.32784
20.726
9.00112
37.6547
0.152695
8.53532
131.375
29.9333
1.25513
9.68532
8.23056
3.53384
51.7743
26.0032
2.05166
2.26756
0.630815
0.553002
10.1091
6.45943
93.2981
0.777643
21.6862
11.1588
14.0621
0.958001
16.4112
9.17841
114.437
9.52655
0.711541
0.475955
4.6872
28.7169
4.90842
2.91237
0.0885309
12.0121
2.36426
0.779115
8.09271
14.797
5.91757
24.1112
19.5093
4.46731
43.0042
4.77843
11.8055
2.38936
0.367767
2.69732
2.64602
4.70276
13.8688
2.16374
31.1837
2.54123
33.4394
74.2882
4.32142
6.3579
7.34867
45.1229
18.5111
10.9119
9.96612
0.77568
0.505202
4.6915
0.762727
36.4382
258.408
9.26558
2.84084
1.65514
3.05445
0.128987
26.5154
6.32044
84.2594
20.2228
7.15673
102.474
0.292037
2.35833
4.66101
54.2754
2.85792
126.931
4.68516
12.7274
0.760287
6.82658
2.47215
7.24272
13.9633
20.6022
22.4057
6.87148
1.67331
6.09208
0.239899
7.00934
4.41653
21.7972
34.2777
106.03
11.8083
16.1033
35.2336
4.56835
18.4804
4.52123
22.3285
4.07702
8.99231
51.1441
55.5116
10.7282
0.752986
2.64612
0.292158
2.13206
10.1399
0.794363
7.1051
11.1497
105.151
7.28418
13.2394
10.6379
8.30346
32.2682
36.0051
34.6304
16.3496
4.82704
8.47218
16.7365
7.23908
11.8084
3.97944
7.36655
29.6957
0.12996
9.17821
16.3457
0.467462
6.32939
0.73259
0.343849
0.79026
0.103153
23.4721
0.292053
2.11155
1.98678
8.6984
3.99538
0.327389
1.26786
36.0256
22.1736
13.6875
30.1237
8.50764
18.4103
10.5266
83.9228
50.1337
7.01664
81.8878
17.973
8.91896
95.6555
151.139
36.0217
0.634338
0.475209
0.219541
0.556185
0.509296
7.65134
36.9056
83.4352
0.384756
0.431353
2.14269
10.3305
10.2288
51.5771
0.165767
0.15401
57.9398
10.4189
40.5402
48.8421
3.66922
10.2947
27.6489
23.0636
96.2837
0.284435
13.6193
27.7889
19.2312
42.3751
14.374
0.244123
2.91735
17.0568
4.51401
0.798185
7.63122
0.720957
9.05001
6.31261
15.8894
3.68801
0.341954
5.2672
111.997
88.2282
0.886617
3.15919
0.162712
4.90656
19.8016
10.1357
38.2775
6.18824
0.233047
56.8255
7.90554
3.73902
118.498
37.4707
57.4624
27.5909
1.1122
4.32199
23.2357
34.6202
3.0177
0.524821
61.2694
1.9794
57.0295
4.62116
0.974326
9.84249
2.88362
8.82173
2.77897
3.55007
33.4198
4.60632
4.66826
1.33419
6.44442
14.0234
154.197
3.4597
3.56218
9.44331
0.714211
0.507614
0.425536
19.4811
0.417046
5.97171
6.08959
11.335
93.9528
7.5917
10.779
24.4801
8.11173
4.92296
204.007
4.23023
16.2188
32.135
5.79895
176.994
11.743
0.837295
0.555495
52.1651
4.12298
9.24938
3.83898
1.76133
3.06681
40.6396
87.6628
32.4033
12.6851
13.0999
152.143
31.3933
29.7891
14.0634
6.27664
13.9378
117.945
26.4616
152.657
52.1918
0.759138
1.09247
3.21213
38.3203
12.5589
60.3532
49.9905
18.7739
12.8654
7.1675
23.4232
1.55953
0.595676
8.59044
0.466018
1.83779
29.3316
8.26078
5.06168
14.1258
9.12607
18.7339
12.418
25.1354
69.7778
17.5923
0.398869
2.93358
1.91924
42.4758
2.38585
28.4919
3.77907
6.69591
4.9455
16.8245
97.9723
5.20283
13.4034
23.0622
71.4736
2.16179
2.93311
0.463636
23.8846
72.54
5.533
6.48035
41.3482
3.4524
28.1641
9.6439
5.32142
32.361
83.3567
61.4942
16.0656
9.34954
0.132365
18.1481
0.128813
26.2416
68.7755
19.392
5.29748
9.26506
30.4108
22.1157
15.0229
0.13882
29.5565
3.40733
0.123498
0.818503
17.0537
91.6794
32.0934
5.16438
10.0473
1.99415
3.51548
0.150899
0.153001
0.956089
9.19475
28.4797
5.21894
28.4928
10.5447
5.14745
9.17794
66.6212
12.0579
0.195596
3.39547
4.19766
179.1
75.5804
46.8929
1.97139
0.869881
116.311
9.92825
18.5905
12.7028
8.47957
2.28087
135.669
7.84325
25.6856
8.30713
39.8587
16.6209
5.29061
81.8116
0.269031
2.05215
2.58838
7.71937
1.82151
0.409082
0.87961
2.24357
4.87106
17.3354
5.80329
12.1313
12.6365
22.4169
5.01969
13.367
7.69617
13.0769
145.224
0.909764
16.2948
0.945043
14.3424
60.9796
0.504171
19.6798
29.5671
7.4146
8.09869
1.57982
1.98044
40.0896
59.2569
50.6096
113.201
22.2154
75.9589
0.378565
27.425
76.835
5.36433
112.851
19.2616
2.56342
22.8433
9.95785
14.4825
37.8766
28.3196
7.90545
0.351809
0.784297
12.708
5.61256
4.30314
5.51089
29.0597
31.6772
0.960258
0.347831
1.93766
17.2561
71.7108
2.52733
0.233293
13.0557
7.7732
29.1261
18.1248
4.37885
102.677
22.0555
4.02345
40.1185
71.3109
0.327478
47.2306
29.2261
3.04676
39.9062
40.3848
13.6368
0.876113
0.135765
1.8076
4.19156
2.14205
7.2982
9.79584
67.4454
65.7209
38.5952
144.49
25.1961
54.6919
48.4962
6.93433
29.2053
4.49931
19.9906
7.53111
68.664
152.645
116.609
39.2419
4.31008
3.19103
43.4725
42.5951
22.4534
0.452903
2.58756
108.696
30.1333
9.84525
26.1625
118.092
1.32787
53.7236
24.7037
81.3905
28.2675
107.639
0.166721
85.0841
0.678369
12.284
0.467326
61.1914
28.7105
59.3107
0.4789
1.48067
113.438
3.04793
1.46895
77.4802
7.05798
37.7604
57.7848
177.215
62.5399
0.379657
1.2518
49.1126
43.3155
232.024
84.0185
133.997
8.72485
9.66174
94.013
94.6871
0.60272
0.47175
9.9869
0.948052
1.76266
6.71638
16.7189
12.2359
3.93468
11.6051
14.7358
10.2298
102.154
131.647
91.7867
7.38731
33.3848
7.99678
12.2665
14.8236
21.4238
156.634
119.708
41.7779
101.766
19.3348
68.4441
13.0686
0.342828
171.896
88.0079
4.15605
14.3311
0.814639
7.3996
35.6661
122.631
4.48712
23.9933
3.27385
92.9115
0.616048
11.4051
0.489293
3.3258
0.264897
2.71741
120.972
25.222
2.01104
133.506
1.10743
1.89559
57.0431
4.25178
48.1009
6.28056
8.61624
76.6266
2.34228
8.89001
4.40167
39.6349
19.7365
4.27392
42.8967
79.5941
31.379
40.3679
37.878
8.54796
30.3327
45.7805
0.217187
7.86487
43.6891
3.12602
13.9622
148.581
10.3433
92.2967
2.51445
1.18327
0.670748
0.45705
13.1366
100.461
79.4914
88.0792
4.74244
22.0254
5.86318
12.5043
12.4419
8.2194
5.63252
4.36616
6.55555
10.4138
0.346069
0.299474
0.610877
127.654
2.41992
9.15334
82.264
148.587
117.271
153.422
44.5609
5.52887
47.3812
2.60742
2.70871
61.1853
162
5.96703
5.93447
0.889906
19.1329
31.6539
95.2485
3.21757
4.52625
31.0295
12.0762
2.16819
3.39629
0.283354
2.9161
8.56426
120.272
48.2105
6.09069
101.716
30.4534
2.95387
83.7107
21.5199
76.7763
5.27978
20.0261
19.8307
20.0192
32.8768
0.501687
0.493746
45.5241
3.52932
7.33652
0.916305
89.326
31.1459
37.0735
2.45171
40.4172
2.78805
46.5738
35.0677
27.8056
31.8611
42.5023
44.7741
29.7165
3.47228
10.2691
35.4168
0.27836
39.5759
0.199197
2.82838
7.51896
17.2339
26.018
11.8526
4.69002
10.0261
0.482831
7.1974
0.728278
0.754007
176.067
31.6575
12.3056
0.434653
0.483134
14.9625
0.211044
0.504489
16.2234
0.601712
0.280184
11.9895
0.907483
43.8448
7.05635
0.63444
28.1482
3.21502
9.18865
30.2095
14.4257
11.7221
13.3951
80.8958
34.217
1.15722
15.8215
120.983
83.6961
73.9897
13.0408
8.15749
0.221179
0.168853
45.6717
147.038
27.4345
4.34205
29.4286
7.53917
5.38981
18.5591
11.5604
52.3264
4.35319
69.9243
0.117652
8.49059
120.336
38.1497
7.54887
34.6865
19.2828
91.3615
39.4911
30.9936
20.0808
0.715995
4.13836
5.16697
6.33177
16.7724
3.93567
34.9367
16.1786
114.086
14.188
17.1575
0.752144
4.51656
8.13966
88.9816
36.6978
62.5223
5.33705
125.141
7.00715
6.49649
40.1031
0.28157
3.09581
5.894
46.6989
80.4634
36.9185
23.7226
21.096
27.9151
5.13491
4.15608
0.390137
6.1782
3.2259
560.527
145.619
4.80534
105.326
34.8809
5.7904
0.366092
20.672
0.296008
1.23157
0.74651
3.90998
42.995
44.4623
3.38677
33.1025
0.542109
2.03453
0.304947
4.78527
25.0227
23.2299
339.155
13.9572
11.0475
0.13739
5.23451
125.341
66.1496
13.0103
4.73524
4.01528
12.207
5.66217
1.91347
36.3949
34.9666
0.60898
14.4696
1.02381
12.1684
5.77314
4.52136
62.5646
10.2517
115.303
26.5522
80.6405
86.2952
2.50123
3.94736
4.49469
12.5219
0.546196
5.19212
4.90449
41.7773
44.5172
15.0071
2.52775
3.68689
46.5446
3.26353
18.7055
11.9635
20.5063
73.8833
95.0806
0.335021
16.9553
0.457067
43.4646
10.3138
11.0531
42.9963
2.09299
37.5104
125.695
79.3823
59.5096
4.89025
85.1726
54.0245
30.3532
0.465902
0.612921
38.3755
0.405997
3.07226
10.9582
26.4342
41.6047
21.8327
70.7732
7.29545
98.4702
2.32055
34.129
39.7823
3.39052
86.3455
35.1615
0.214275
0.483744
0.925472
1.25522
17.7596
22.0596
102.093
22.8429
3.90628
151.543
11.4013
6.61761
98.8749
41.1315
33.4828
66.2859
6.78431
88.9606
1.0959
0.533913
11.8765
0.26155
3.07082
15.1773
63.6845
0.743842
31.6023
0.659797
1.98634
35.0117
15.3653
19.4607
14.0507
84.4161
41.5371
15.2553
10.3821
4.69305
2.79524
11.0446
26.3459
39.7851
193.566
0.225294
2.11286
65.8192
52.0714
3.6938
45.7767
30.032
7.17008
15.284
52.2051
28.9247
81.8332
73.7909
10.7888
37.9126
4.2363
41.5548
98.7766
39.2004
139.084
19.6657
23.539
32.3013
23.7333
16.4323
20.3377
91.2797
5.21618
30.7214
7.93956
0.151722
0.594485
6.79892
0.606069
4.35905
14.4646
24.6046
31.5291
45.1953
3.77375
108.452
119.888
69.6373
2.69121
0.55605
10.6891
0.537797
26.3903
9.88223
32.4135
13.5056
4.29162
113.409
11.4367
9.10208
7.01798
49.2794
77.3661
0.127032
15.0371
18.8547
0.167297
59.4605
32.5542
2.1786
2.63072
50.2016
82.4087
25.4904
3.0835
3.76322
0.512257
0.487971
27.6393
0.198064
0.354803
14.8767
3.31583
0.340898
36.7915
3.44104
0.696882
27.9043
1.22115
87.0759
6.15804
122.762
2.09167
0.703877
5.55319
56.2988
51.6408
105.904
14.2694
19.9023
37.1125
6.90243
17.0257
33.8739
5.1312
2.30052
11.166
0.198825
28.6778
12.8043
25.7173
6.32286
11.1067
40.3148
71.7363
15.0129
461.426
13.1248
3.67289
0.394498
0.855599
6.46669
0.735262
3.43081
19.843
2.22456
14.6471
0.463058
0.877029
11.3265
3.12932
5.55451
24.7972
54.5676
2.74275
6.02305
5.06994
0.845129
2.26611
58.1687
5.74285
7.16671
6.01037
105.687
154.534
71.6095
5.07403
9.06755
0.739411
5.9317
0.293479
12.5324
12.1989
69.1888
0.46329
114.837
293.637
25.2844
0.907375
10.5572
31.9631
42.4926
0.898703
0.598263
13.4782
34.602
0.148872
16.1622
43.2614
4.07187
0.326277
16.4721
72.0471
4.22513
28.785
34.5545
10.0888
73.63
17.8796
0.774821
11.7336
42.511
177.633
4.87033
48.6627
365.096
4.21223
117.227
0.578966
63.0935
12.8336