/*--------------------------------*- C++ -*----------------------------------*\
| =========                 |                                                 |
| \\      /  F ield         | OpenFOAM: The Open Source CFD Toolbox           |
|  \\    /   O peration     | Version:  v1912                                 |
|   \\  /    A nd           | Website:  www.openfoam.com                      |
|    \\/     M anipulation  |                                                 |
\*---------------------------------------------------------------------------*/
FoamFile
{
    version     2.0;
    format      ascii;
    class       volScalarField;
    location    "0.22";
    object      p;
}
// * * * * * * * * * * * * * * * * * * * * * * * * * * * * * * * * * * * * * //

dimensions      [0 2 -2 0 0 0 0];


internalField   nonuniform List<scalar> 
1466
(
92.0662
93.0985
91.1114
92.0503
89.7081
91.8884
89.6173
89.2393
88.94
82.7409
91.1053
87.5135
92.7496
91.981
91.7862
92.2871
91.9002
92.1688
90.536
92.1434
92.1017
91.0875
87.9961
92.5944
92.0949
90.919
90.6244
90.7291
88.7847
89.5102
88.9166
93.0162
89.1637
89.4467
92.0122
91.5204
91.1037
92.1091
92.1089
89.2716
86.6719
91.8811
89.7676
88.9965
88.1673
90.0568
92.1227
92.0714
91.9758
92.1232
91.3987
82.757
89.8711
91.3673
90.4111
91.8093
92.0776
91.7983
91.8988
92.0466
92.2272
89.4199
89.4889
92.2327
93.404
92.1854
91.3597
92.0478
92.0945
93.0251
91.1992
92.0361
92.1181
91.9186
92.1131
82.4795
91.9537
92.0071
89.3558
92.095
91.3863
91.7733
91.9029
92.0361
92.1186
92.1267
92.1144
93.6563
92.1174
92.0125
91.9935
92.1506
92.2699
92.0519
91.462
92.1373
92.4961
91.7318
92.1617
92.0383
89.5371
90.5693
91.0447
92.519
92.0789
89.712
91.9399
91.9856
92.2227
92.172
91.995
91.9704
94.3153
92.1195
92.7317
88.5034
91.721
91.9822
92.0741
91.7625
92.0836
92.0754
91.2732
93.606
92.2584
92.1917
92.7374
92.1163
92.2701
90.9867
92.1116
91.9632
91.9552
90.4951
91.3739
92.1624
91.7644
92.1035
86.7032
91.8964
82.8538
92.1508
92.2308
92.3357
87.3603
93.199
94.3107
92.1174
90.6271
92.1194
92.2504
92.7712
91.9848
92.7782
91.954
90.8495
92.0074
94.722
92.0718
92.024
89.9928
92.0975
93.4242
92.1245
91.0956
92.2388
91.6052
92.4184
92.257
90.5187
92.1298
92.1213
92.7007
91.1942
90.7814
93.13
91.4441
92.2016
91.8406
92.236
92.107
92.0771
92.1535
92.1868
93.3702
91.7283
91.9477
89.9173
91.6597
92.3479
92.5009
92.7027
92.1675
93.3528
92.1053
92.0626
86.1351
92.2423
91.8069
91.7728
95.375
92.0002
92.0426
92.2886
92.7119
91.9839
92.0288
90.0874
91.477
92.6135
92.5292
95.6304
92.0163
92.115
92.1308
91.8208
91.6101
91.2233
92.1434
92.0575
91.1371
92.0255
92.2851
92.1247
91.7073
92.1227
91.4938
92.4218
91.5888
90.2057
92.1089
93.6021
91.8891
92.0599
91.8169
92.6808
92.0841
89.3627
92.1158
92.3285
89.4778
92.1465
92.1424
91.6056
91.7085
91.7305
91.1228
92.1295
91.2965
91.9356
91.8763
91.6677
92.0628
93.782
92.0124
91.6308
91.356
91.8479
90.3741
82.4649
92.1153
92.119
91.4462
91.9388
92.1178
91.9002
88.44
95.0409
91.9993
92.0345
91.5456
92.123
92.1072
91.1325
92.1221
91.9228
94.0226
92.4022
92.1384
91.8684
92.5036
91.4823
92.0648
92.7676
91.9921
92.0965
91.975
92.1255
90.1522
91.8675
92.1199
87.9532
91.9317
82.382
92.1537
91.9759
90.289
90.0137
92.0106
91.3946
92.0606
95.5529
92.6343
91.9894
92.0966
90.9407
93.8498
92.0764
92.7941
91.8407
89.3003
91.5001
91.9833
88.975
92.1008
92.0059
95.0566
90.9383
85.4604
92.8136
92.1214
92.004
92.1921
91.1899
94.1819
91.4455
91.3305
91.9235
91.1216
91.4791
94.7861
91.7025
91.2549
91.3658
94.3993
91.1911
91.9957
90.974
95.7902
91.3944
94.9282
91.9098
91.2776
91.4717
91.66
91.2202
95.0938
91.8917
92.0775
89.9168
92.1006
92.1166
92.0017
92.0066
92.0427
92.0125
95.4844
92.5799
91.7352
91.9561
90.321
91.8762
92.1572
91.3698
90.978
91.8174
91.4044
91.1813
91.8837
95.0521
91.3052
91.9424
95.0494
91.4179
91.4584
94.633
91.2844
93.6762
92.1084
92.0955
92.0981
90.3955
92.0812
91.4537
91.3195
91.937
92.114
91.99
92.1202
92.1238
92.1422
92.0653
92.1866
87.8689
92.8499
91.5661
92.2629
91.1024
92.0979
92.0185
96.6837
91.1455
92.4921
92.1176
83.8168
91.9653
92.2782
91.2345
91.5521
94.7893
91.9966
92.8419
91.9317
89.1873
86.4592
92.1952
92.2378
91.5946
92.1281
92.1591
91.7212
92.1022
90.4435
89.541
90.0824
90.0519
88.9753
89.5462
89.6812
89.8967
94.5772
92.0039
92.1865
92.5135
90.2316
91.7332
86.9528
88.8263
91.1516
91.032
88.7132
92.1148
92.6508
91.5004
91.2464
87.3144
90.5249
90.2734
91.1862
91.5806
91.4785
86.9435
91.5045
91.8794
87.9134
91.2329
89.6446
87.8529
91.4047
91.5763
88.3561
92.0799
91.9829
91.6867
90.9967
91.9614
90.6775
91.9983
94.402
91.6064
91.0596
91.3717
91.6743
91.4284
93.2068
88.81
91.484
91.5584
89.9497
92.5211
94.6066
91.9433
92.7204
91.8827
89.337
94.856
91.7642
91.4151
93.1926
85.0502
89.8407
94.7991
91.4075
91.3601
93.3258
90.3008
92.7356
88.9705
91.3323
89.3607
94.6725
91.0204
92.233
92.1779
91.2889
92.5648
84.4244
91.4973
91.5022
91.3928
90.9527
90.3513
90.9083
91.587
91.6005
91.1845
94.6295
90.9435
91.8336
91.7874
91.9261
86.4915
91.321
89.4178
88.098
92.1327
90.689
91.6612
92.0725
91.296
91.9201
92.2994
91.4868
91.5069
91.5982
90.2269
90.1899
90.0432
92.129
92.1018
89.9675
87.9752
90.0845
88.8854
91.374
91.7175
91.5235
86.6603
87.184
94.5047
90.5858
92.0528
89.1158
92.2608
92.3019
89.0394
94.4105
92.0031
92.1298
90.7443
91.9804
92.1617
92.293
86.6787
84.018
92.1683
92.1169
92.6339
91.3828
87.4069
92.0063
90.3373
91.4268
88.7968
91.9568
91.6184
91.928
91.2138
91.2118
91.5508
92.2303
92.4196
92.2414
92.4233
92.1215
92.2457
90.4823
90.7312
88.7089
92.2748
94.1258
92.3012
85.621
90.9834
94.4509
90.5642
91.4436
92.2546
87.0373
92.3783
90.1807
94.2627
90.4474
91.3925
91.0593
91.0028
92.1085
91.9813
86.4101
88.2281
92.2597
88.3581
92.0477
90.8096
92.6568
91.135
86.1748
92.2533
90.5955
93.8428
90.9269
92.113
92.9789
92.1878
90.6917
91.6043
92.0082
92.6938
92.0791
89.8709
91.6502
87.3726
91.0346
91.9863
91.7064
92.2473
91.9936
88.2775
94.2368
90.4947
92.0203
90.2905
92.0623
90.7653
91.0578
90.8531
91.1794
89.779
87.4012
91.9161
92.8107
89.6321
92.2289
88.1713
92.0188
91.6771
90.1317
92.89
91.7457
91.2067
92.3237
87.6115
89.4677
92.4989
90.7384
89.31
91.7741
92.1469
88.7681
92.2205
91.5118
91.5679
92.0526
91.4219
94.1026
91.5401
92.6176
88.3272
90.8733
92.1441
93.871
91.0053
92.1141
91.1773
91.9826
91.2322
90.2541
91.9673
91.6999
93.5262
92.0217
91.2691
91.0313
92.102
93.5652
91.1439
91.8514
92.1264
92.2161
92.2297
91.0986
91.3436
92.1341
89.33
92.1993
92.0356
92.241
90.5973
91.2696
94.0159
90.689
91.4077
86.5988
93.9875
90.6073
92.0183
92.0204
88.2151
91.1205
90.4988
92.4432
92.0022
91.0305
92.2681
86.1666
92.1183
92.3813
92.5259
91.0448
88.287
92.0542
92.011
92.1582
92.0284
92.0525
87.7899
91.9911
92.0601
90.7596
92.0638
91.597
91.9455
92.0698
92.0972
93.2201
91.9185
92.8391
91.5349
91.7638
91.3218
91.7816
91.0444
91.0737
92.2351
92.2968
92.2253
91.1515
90.6162
91.8839
91.171
91.5545
91.8867
92.2601
93.9765
91.9761
91.4576
89.9156
91.3408
91.6864
91.5376
92.1806
92.1727
90.4718
92.1132
92.2576
92.1688
92.6594
91.6366
92.8377
90.9847
92.2812
90.1563
92.7594
92.8776
92.2614
92.0627
90.9713
92.137
90.8977
92.4252
91.7125
91.3031
93.8596
92.5816
93.3219
92.2949
91.1201
91.9651
92.3326
92.1278
93.397
92.392
91.1941
91.5139
91.8084
91.8498
90.252
92.0994
90.9468
91.2151
91.9013
91.5885
91.9909
90.2149
92.2176
90.7303
92.103
91.6007
92.6782
90.8358
92.3104
91.1658
91.7407
92.2068
92.0078
91.9457
92.3273
92.1185
92.1125
91.4372
90.9487
92.1642
91.3566
91.0832
91.5987
91.7296
90.65
92.2539
91.4508
97.6083
92.0544
92.1237
85.8905
91.3959
92.0687
92.0892
91.819
91.5022
91.6691
92.1679
89.1216
92.2235
92.3302
89.0686
92.1095
91.3624
92.0466
91.9685
91.9495
91.7053
90.4092
92.0859
94.4902
92.9372
90.6545
94.0371
92.0989
91.8327
92.345
91.5346
91.6859
92.0927
90.1996
89.2901
91.6501
92.1218
91.7944
93.6758
91.889
91.6607
91.646
91.4269
90.7888
91.9736
92.0844
91.8395
92.6068
91.2477
91.665
89.6097
92.1923
92.1253
91.2645
92.7026
91.492
89.4992
91.0174
90.878
90.3864
90.7574
92.069
91.7519
92.1526
91.7165
92.2324
91.9448
92.1223
91.9581
91.0106
91.2675
92.558
91.2095
92.2244
92.0516
92.203
92.4881
83.6632
92.032
93.5779
92.7812
93.7918
91.7074
91.1326
95.1561
88.8442
92.2914
91.911
92.0458
92.1798
90.687
91.7353
93.7443
92.0331
91.694
91.3507
87.1706
92.1134
91.7352
91.4924
92.2016
92.1928
92.1459
92.1761
93.1161
93.071
93.1053
92.9997
92.2216
92.8529
92.7046
92.2523
92.2898
92.3312
92.1234
92.3768
92.4307
86.5725
91.7153
89.379
92.0834
92.5813
92.9945
92.0886
92.5163
92.0896
91.8295
89.7718
92.0504
91.3549
91.4478
92.1739
92.5352
92.0908
91.3722
91.9636
92.132
90.5863
94.3669
92.4919
92.2931
89.6598
91.3412
91.4162
88.6057
92.0256
91.2779
83.3223
95.0194
91.8558
91.8264
92.4917
86.5615
92.226
92.4187
90.56
91.2906
92.0255
90.5793
90.6525
87.9065
92.2852
92.3478
91.375
91.7189
90.3987
92.2307
92.2739
88.4142
92.5055
92.0415
91.7553
92.0876
92.0913
92.2113
92.0761
87.1677
90.8552
94.6116
92.0315
92.387
92.0807
92.0327
87.2117
91.4488
89.7832
89.4186
89.3946
91.7621
89.9562
92.227
92.086
91.5604
87.2573
89.4509
91.8884
91.8056
89.0009
92.0996
92.1502
91.2241
91.7491
92.0595
91.9979
94.135
91.835
92.8368
92.3688
92.7046
91.6845
91.2637
94.7437
91.4495
91.1637
89.0191
91.811
92.1277
92.4822
91.3056
92.0936
93.8355
88.4235
92.0624
91.2991
92.5415
91.8233
94.8247
92.0458
88.7814
89.715
88.5612
92.0604
87.274
91.7658
94.9375
89.4645
92.1202
88.8843
89.2146
91.0579
90.681
88.5229
92.1997
90.0775
90.3609
91.7971
87.8956
88.9525
87.1104
91.5356
90.9524
90.5616
93.5257
92.116
86.9726
92.0449
92.0887
91.1757
90.7361
87.4982
91.9801
92.0788
88.774
92.1216
91.3746
91.948
92.0812
92.5873
90.6437
89.4027
92.1112
90.7091
92.5971
92.1217
92.0817
90.4905
92.1076
92.0921
93.0304
91.3104
88.7154
92.0998
91.5554
91.8135
91.1023
92.0532
91.9673
95.0084
91.3161
86.5701
90.648
92.018
95.9773
92.1046
91.6818
91.9915
95.1923
92.1159
92.1032
91.9914
91.1225
92.1007
91.8253
92.1797
91.8912
91.1534
89.0309
92.6229
92.4959
91.979
91.9691
92.078
92.166
92.094
92.5522
92.5325
91.8698
92.7304
92.0435
96.8014
91.3563
91.4119
91.6626
87.7152
86.8232
91.9301
91.9104
92.1467
92.2473
91.1524
91.3005
92.0067
91.8682
86.9482
91.1691
92.0738
89.1335
92.2234
92.2942
92.2086
91.6589
91.9774
91.1462
92.1042
92.2167
91.9922
92.6823
91.8908
92.7118
91.8522
92.7289
91.4756
92.1174
92.4399
92.1267
90.9707
90.2846
91.1889
91.7352
92.7099
90.1211
92.1009
90.9145
89.2874
92.1173
91.557
93.7549
92.114
88.8888
91.0404
88.0124
91.9598
91.987
91.2336
92.2532
87.6319
92.0138
92.5043
91.6911
92.9353
92.1776
88.7556
92.7542
92.601
92.1271
91.097
92.0469
92.0523
91.1447
90.0656
92.0515
91.9576
94.1691
92.7361
92.1035
92.0264
92.0554
91.4355
89.8799
91.825
91.5402
89.2393
91.8957
86.3512
89.4091
91.8667
89.4614
91.3088
93.788
91.162
92.1491
91.6877
91.4047
92.0975
93.9005
91.7761
92.5845
92.0383
95.5471
91.9106
90.9702
90.2941
92.0291
91.9495
91.3685
91.5669
92.6207
91.1909
89.9154
93.1179
92.1178
92.075
91.9084
82.2791
92.0862
91.7043
89.4902
88.6044
91.9512
92.1125
92.2754
91.4155
92.3818
90.3292
91.1823
91.0444
93.9527
92.4624
93.2206
92.1495
91.4374
87.9376
91.3487
89.9952
91.4182
86.6432
88.0531
91.9869
92.6763
91.6688
92.1083
91.3913
94.0432
92.1246
92.1618
90.9883
90.7804
91.8839
95.0621
92.0642
92.0611
89.442
93.1895
92.1057
92.0787
92.0893
91.8554
91.2412
95.8326
92.0252
86.3554
92.0068
95.3297
90.7075
91.8968
83.918
91.9972
91.7711
89.6134
92.0937
94.2405
92.0486
86.4177
91.9313
94.5565
90.1383
91.8876
92.1736
90.9602
94.5163
92.0142
92.3941
90.5067
92.0027
91.6683
94.8203
92.045
92.0944
91.3888
90.8377
94.1964
91.7075
92.2092
91.9208
91.3371
94.7129
91.1033
92.0051
88.1591
91.2308
91.9227
91.8851
94.9007
92.3159
91.1498
92.0962
92.4107
91.4346
92.1634
91.3176
92.6499
91.9848
94.5854
91.963
94.4699
92.064
91.8006
92.3116
91.6192
91.4455
93.9249
92.1084
91.9953
91.3855
92.1182
89.649
92.4411
92.2322
90.2758
92.1176
91.1299
91.9393
93.2666
91.553
90.7634
92.1197
92.1283
91.6787
93.8928
93.0486
92.09
83.8826
85.6954
86.6721
91.8997
94.5441
94.0838
92.0848
92.4034
92.0863
91.5868
92.3715
92.3793
92.1741
92.1185
92.9279
92.4416
91.9367
94.0278
90.6736
90.6036
91.1651
91.4859
93.7979
92.3466
91.933
90.7408
90.1358
92.4978
91.2454
93.8206
92.8295
92.1098
90.998
92.1698
93.1609
92.193
93.2656
92.4745
91.8274
92.8185
92.8122
86.1649
92.6034
91.8708
91.6279
91.411
92.2209
90.299
92.0761
92.0647
95.3834
92.0613
92.043
87.2082
86.9466
92.4847
91.6182
88.0147
91.4764
91.9525
89.2462
89.0711
92.074
89.561
96.1929
80.7945
)
;

boundaryField
{
    frontAndBack
    {
        type            empty;
    }
    wallOuter
    {
        type            zeroGradient;
    }
    inlet
    {
        type            zeroGradient;
    }
    outlet
    {
        type            fixedValue;
        value           nonuniform 0();
    }
    wallInner
    {
        type            zeroGradient;
    }
    procBoundary2to0
    {
        type            processor;
        value           nonuniform List<scalar> 
42
(
92.1275
92.1275
93.4424
93.4558
95.4253
92.217
93.5658
93.5658
95.1013
94.7099
95.4788
95.4788
95.6121
95.1136
94.5886
92.1275
93.2439
94.7963
94.8034
93.1875
93.7631
94.821
94.821
93.0707
93.7631
94.7635
92.7204
94.6056
92.7204
92.648
93.1483
94.4354
94.2423
94.0393
93.8754
93.4558
93.2439
93.3903
92.3935
93.6003
93.6003
93.7339
)
;
    }
    procBoundary2to1
    {
        type            processor;
        value           uniform 91.094;
    }
    procBoundary2to3
    {
        type            processor;
        value           nonuniform List<scalar> 
29
(
89.7307
88.9615
88.0485
88.8411
92.7339
90.2248
83.0663
89.1411
88.3042
87.8041
89.8006
91.6545
89.9176
83.0895
85.3914
82.6269
87.6819
87.6819
88.9615
83.0895
84.6743
87.5838
86.3405
87.3565
85.7721
87.8816
88.3042
87.8736
91.6545
)
;
    }
}


// ************************************************************************* //
