/*--------------------------------*- C++ -*----------------------------------*\
| =========                 |                                                 |
| \\      /  F ield         | OpenFOAM: The Open Source CFD Toolbox           |
|  \\    /   O peration     | Version:  v1912                                 |
|   \\  /    A nd           | Website:  www.openfoam.com                      |
|    \\/     M anipulation  |                                                 |
\*---------------------------------------------------------------------------*/
FoamFile
{
    version     2.0;
    format      ascii;
    class       volScalarField;
    location    "0.08";
    object      epsilon;
}
// * * * * * * * * * * * * * * * * * * * * * * * * * * * * * * * * * * * * * //

dimensions      [0 2 -3 0 0 0 0];


internalField   nonuniform List<scalar> 
5794
(
16.6464
2.46574
9.2015
5.75123
1.87089
5.4088
1.1206
1.14092
24.3618
2.09505
1.14627
1.90236
1.14846
1.57277
1.8203
1.28169
140.72
1.626
1.86382
1.72814
96.0181
6.63221
4.27952
3.23719
4.12159
46.4944
92.9443
4.67288
1.84782
9.64473
1.02006
5.65951
1.04168
2.19767
2.01184
2.21973
4.67749
3.02406
1.17357
20.3108
1.46457
1.27372
14.6443
15.1112
1.56939
1.06504
3.32889
1.01267
2.89959
2.60616
1.6214
1.37152
6.86461
2.84907
0.772139
1.17369
2.42176
1.25296
10.6268
114.082
98.4222
1.2148
0.966912
6.03618
0.983041
0.94947
17.5536
35.8156
2.20958
1.06289
1.9036
22.5085
31.7797
4.4326
1.97596
3.66354
1.76644
27.2117
15.3885
1.49316
9.18648
2.80205
1.09725
1.0201
1.54372
3.75944
8.90465
2.09398
5.33542
6.16286
2.01901
3.41651
1.65145
1.76929
1.94405
1.77215
1.61017
1.68027
3.04868
119.459
68.7518
3.96552
10.0129
1.60476
1.17027
1.03207
1.23969
0.970248
6.95879
16.2005
1.1566
1.6141
86.6408
0.937503
2.24103
1.85552
2.63065
1.68275
81.221
23.2008
1.33319
2.87535
1.46725
6.32516
1.55419
2.14013
3.91655
4.3723
1.24267
0.987344
1.08551
0.982427
5.83515
21.2625
1.11913
1.88297
41.9307
1.26672
1.0446
1.12764
3.26642
2.90084
1.33952
5.31294
1.75226
120.483
2.17674
93.1912
1.2682
1.47576
19.5046
1.39432
1.0522
2.29372
113.028
6.76105
1.25587
1.24474
1.21316
1.88654
2.08494
1.35555
1.68976
1.336
2.08145
1.5291
1.29503
1.32753
1.33834
2.16347
2.28544
4.50935
3.00274
2.61235
2.64254
2.01204
2.8772
1.87061
2.15904
9.24212
1.29529
2.04648
1.1929
1.20383
1.17307
64.6101
4.60302
1.32253
2.2385
3.96012
1.42139
3.17274
1.25148
1.19944
1.21686
1.31774
1.34911
1.47826
1.55419
7.98804
1.30499
1.75639
1.15898
1.23013
4.14305
1.22828
1.41354
1.14128
3.92426
34.9979
20.3016
10.2859
1.12219
1.13831
2.19993
2.4975
2.774
4.79101
0.980522
2.90958
10.1169
2.35305
1.53254
3.38792
144.258
17.2771
43.003
1.76246
1.63757
2.26959
2.17892
1.79775
2.08152
5.96145
3.65692
10.3106
8.41477
4.9874
1.42997
7.92379
2.86558
1.41556
20.516
3.32751
1.90382
1.08484
1.38659
1.19007
2.58522
3.66307
6.30691
0.972954
130.701
1.06079
9.07622
6.7982
6.5799
41.9631
1.10501
1.77625
35.1301
1.04757
1.05152
0.92051
1.36115
1.39054
3.58659
2.74723
2.03825
0.985113
5.29556
0.995517
3.48585
1.18294
18.0552
2.29459
2.76477
1.39873
1.31577
1.52336
1.24624
2.13332
2.14508
1.6603
18.1091
3.688
8.7591
3.7448
2.80644
1.37864
2.49632
2.03782
2.07369
1.6191
7.1748
25.1807
3.71027
2.39019
10.237
0.933939
3.72542
67.7205
11.4229
20.9711
20.323
5.30783
1.32851
2.40705
1.04216
5.92322
1.05853
2.41398
22.4858
0.937372
9.7881
39.3797
0.950168
3.20942
4.85993
3.14219
1.99057
2.28816
1.89687
1.49151
1.09952
1.43662
1.52422
1.384
1.1849
1.26587
2.95341
11.9713
1.25921
1.24426
5.50539
2.07463
2.29305
1.55037
2.78104
1.42212
3.38351
3.31444
16.0796
3.68505
2.83619
1.22695
1.16263
1.8076
1.47614
4.47017
1.51605
46.6159
1.27488
2.63722
1.20696
45.9366
1.80062
1.52149
1.28267
1.28843
1.07818
2.85034
24.185
1.01444
0.996341
1.21379
1.74581
1.44308
3.37029
1.24692
1.15521
0.89125
1.06702
2.87903
0.95867
2.898
1.68657
3.50175
2.06662
1.19696
3.59912
1.11778
12.5582
1.7574
1.75549
2.08553
1.37487
0.98294
0.969028
1.29754
1.31605
2.07418
1.12645
1.02351
2.63361
2.28613
2.20844
22.387
2.87706
3.32684
2.55635
2.96119
20.3981
1.54278
1.5674
3.14047
9.24783
3.99583
1.38558
1.33851
2.12609
3.80597
2.10336
5.62724
1.3515
6.24057
1.25808
3.82203
4.06293
1.5836
3.06631
1.79515
0.926905
1.25641
2.0656
1.84299
2.06673
0.938967
1.78527
9.65987
15.4217
5.83508
5.86017
123.741
1.39174
2.66148
1.57318
1.25404
1.51383
1.55441
1.98497
8.09247
1.17416
1.25331
0.998338
1.82077
2.1441
0.949806
35.7587
47.4527
2.13538
1.72662
150.708
7.01341
2.11715
0.919598
1.76886
1.88589
2.89465
2.74102
5.96554
1.53394
20.8757
1.00281
144.756
1.00566
12.6154
7.43596
1.25531
13.5393
1.23112
6.41393
2.23356
1.11994
2.61318
3.83908
17.0781
2.87045
2.58599
1.63721
37.56
6.7335
1.83188
1.29064
0.933851
1.00686
9.85843
1.03929
37.7479
8.51521
2.20074
2.75712
2.30425
1.29881
9.03542
1.11396
3.15697
1.05128
0.971729
3.58332
3.73503
13.8073
11.5001
1.599
8.38025
1.57662
5.8586
76.5838
2.04626
0.935411
2.41756
1.33576
2.29623
0.925469
0.939424
2.72418
1.61903
0.927474
5.52616
16.9334
3.72492
1.60164
3.2073
1.7998
1.13138
2.35123
11.1548
4.67241
1.63199
5.49536
25.1646
1.22261
12.7457
1.0476
1.08385
1.4429
6.6164
90.0988
1.03893
46.96
7.92552
145.924
1.78046
2.14644
1.36313
1.09717
5.45584
4.70125
0.940267
3.48105
2.3056
1.28629
2.45577
19.628
3.20094
1.30976
20.6268
5.49468
1.72574
11.2197
74.6545
3.24101
2.26703
1.49873
2.01077
5.27804
1.68391
22.9335
5.13844
0.930699
172.576
4.90222
3.42983
6.52401
16.4116
8.43864
5.25842
22.4418
1.90765
2.68511
1.7007
5.02994
2.10419
13.3988
1.49187
165.756
0.943411
2.04816
5.00674
1.47999
0.93299
2.41463
1.19372
1.84492
5.24252
2.05859
1.10298
9.31548
0.964665
9.3453
0.999268
196.88
3.67455
1.90495
0.925319
2.135
55.598
2.37988
0.88503
1.14932
8.11886
9.00671
1.94811
8.18618
1.11446
0.991182
4.16984
1.55019
6.05799
5.01106
1.37935
2.44592
2.04689
1.02973
1.18655
2.57848
1.55319
2.54838
1.55335
0.94164
11.4301
1.85573
1.27551
3.98416
1.75428
1.64757
22.8312
26.2146
1.41521
3.43483
1.67675
8.394
0.96497
5.14277
51.2669
2.89884
5.94763
57.9006
1.38467
1.02491
4.70701
12.1715
1.09167
1.16062
1.21735
6.67416
19.3498
4.32025
37.2676
1.07569
1.39787
2.24357
7.31988
62.7947
1.82171
3.7479
2.95603
3.80096
8.81626
2.25376
6.11017
20.9386
13.9308
2.00288
1.98412
3.11834
2.12583
0.993731
2.10341
4.34694
3.22088
1.2105
1.53628
0.960341
2.99559
64.4608
5.46226
1.02244
1.33007
0.949285
3.97526
1.82501
21.6643
2.27095
1.45367
4.64893
1.01486
2.70001
8.51303
9.83155
2.87607
1.76406
1.2286
36.2188
5.41125
4.70055
8.10736
1.4366
1.21068
1.7655
24.4658
2.7938
3.11053
2.7581
2.1835
16.1257
9.70909
27.7581
2.00933
1.33535
1.25185
22.0433
77.41
1.08231
4.80411
20.2036
54.3027
28.1221
1.68702
45.0344
2.23139
17.1366
1.5897
2.82265
1.51596
20.1073
95.5042
1.40269
3.27089
1.65523
1.84374
2.71144
6.6859
43.7165
7.0745
4.1533
10.2527
2.0308
6.73626
8.95311
3.72703
11.9751
1.46447
0.922412
3.36549
1.80991
5.25793
1.72262
2.00562
30.6645
3.42072
11.8711
2.01254
3.7835
2.94788
3.74377
8.64639
2.49604
12.8466
1.97123
4.76061
1.42308
1.83128
1.16211
1.05879
1.05761
2.24297
9.65299
5.50148
3.18248
0.943591
22.4404
13.0642
5.03591
1.52552
1.9786
6.75744
1.06627
1.78582
5.52922
1.20876
2.59804
1.24519
2.28834
1.27494
7.85843
1.8625
199.164
7.97747
21.5834
9.20552
0.981131
3.2729
1.86339
3.19895
1.49808
0.938476
1.31391
8.93179
1.73541
2.43736
2.10565
15.4883
107.898
2.86381
1.02828
2.35995
1.63999
1.56215
1.63513
4.87715
15.8531
126.028
16.9226
0.940148
17.4796
1.46545
1.15051
1.32143
5.04201
2.1131
1.60541
9.3339
1.02063
1.18341
1.18534
1.07466
37.6795
9.4182
6.10454
4.65537
1.1903
1.82055
2.43636
29.2103
0.945248
4.15899
15.999
10.7395
11.7977
3.77752
2.03323
4.29931
2.8758
2.87877
2.51007
17.6993
22.4681
0.941448
1.06718
5.62288
6.26093
15.5047
1.1251
3.01926
3.80799
23.9261
2.05953
1.28368
1.3762
1.27301
14.0672
2.46393
3.52857
118.09
1.41753
1.05948
20.3854
64.3377
6.03181
2.86993
3.45435
0.960915
5.85465
0.969409
1.04096
67.2637
2.49129
17.9925
10.0414
2.73826
10.9802
3.43618
2.606
18.5561
2.44055
1.41432
8.65935
1.93311
1.37758
0.937565
1.48036
1.4824
3.77298
3.17182
1.18021
7.34895
0.94082
22.6005
3.97415
1.45626
7.57964
1.48944
1.1185
18.1706
2.84526
1.6114
6.29913
0.954701
18.5988
4.01044
17.5291
8.4618
3.55526
7.48026
3.85604
5.24268
2.63158
2.04463
19.181
19.5661
20.4586
8.08352
3.03157
86.5397
4.41251
1.03498
1.57981
3.04617
1.88713
1.82661
46.6753
1.48998
4.2431
1.10116
0.935855
6.30707
0.937345
115.344
6.96405
1.23924
118.053
1.84033
7.39631
9.21768
19.0737
10.0386
10.9749
26.0141
4.99671
1.39918
2.54399
1.06223
1.2128
1.35749
1.13384
1.25411
1.98592
1.11425
0.931725
1.25981
1.11294
7.94501
1.37794
5.43034
1.35883
0.93877
179.942
9.71664
4.11422
3.84923
3.17597
1.00719
1.70377
5.21557
10.7585
0.977523
63.7498
2.09692
1.00375
9.97759
2.79312
1.3393
9.22355
118.619
21.4525
7.21845
38.7886
0.943994
11.0267
33.6377
4.96969
97.6363
13.8451
2.30056
1.33274
2.88246
17.5853
0.945307
1.94831
37.4294
3.56012
17.3627
3.85629
7.56529
1.28742
3.23074
4.56176
9.22675
2.01309
77.3057
1.14177
5.85321
1.52394
45.3245
11.107
6.77508
4.67542
5.13014
4.55131
4.93825
10.8361
1.63916
1.88551
12.056
1.26383
3.84385
1.59816
1.10137
8.18536
14.013
0.936279
1.22456
1.14063
34.5513
0.929253
0.939943
1.13858
1.2326
10.3749
0.9714
1.10031
5.08613
39.0248
0.979948
1.13228
12.7728
0.961069
19.0927
6.96723
4.22633
1.64307
7.69199
1.15825
0.94003
10.3428
1.13087
1.20287
2.13129
1.96087
2.20896
4.75701
81.1086
23.683
1.99342
5.10403
1.34013
1.27637
15.9334
1.19403
1.29141
1.18556
1.50669
13.3086
1.21108
2.94216
1.35331
2.24545
1.39292
7.85051
20.4148
1.29105
40.1859
1.33593
1.24775
30.212
2.01147
31.8564
36.3228
1.23805
43.0765
1.33384
1.26671
8.72599
1.53464
5.19709
5.27874
1.07467
0.945546
2.40525
20.252
1.36294
3.879
1.88732
4.62633
1.40726
30.8902
1.10249
28.1311
6.35882
9.67492
9.53257
2.05242
1.19262
1.06163
6.96841
1.28537
1.16201
5.97491
4.09725
5.23231
3.91894
66.5796
4.58752
18.2972
15.0127
2.87031
0.976548
0.996272
0.951703
331.559
46.514
0.936785
1.37168
2.1015
2.1246
7.96031
2.82592
4.81155
5.943
1.99084
0.918234
7.56609
0.997525
1.71407
1.3694
26.0973
1.29121
1.00261
33.4216
38.2424
4.62448
31.5355
1.59624
67.5716
6.36787
8.8891
1.04178
1.20657
6.02237
61.4877
9.2514
17.6884
12.2366
7.49882
1.70025
4.92565
7.93975
31.8896
5.36037
1.85056
9.59567
3.34561
1.58779
3.05531
1.47857
1.47544
6.38383
22.8734
9.63276
23.1887
1.39645
1.32996
11.1098
104.162
0.978108
1.61321
1.17563
102.651
0.930669
1.20438
16.9888
4.96833
2.26457
5.08973
1.33207
13.7142
4.1951
10.2889
2.61373
8.246
14.6088
1.37165
1.10846
1.00294
0.972595
2.10031
0.936612
16.0574
8.59802
1.31839
1.60499
0.953742
5.14636
0.966834
0.923296
6.18308
37.956
1.0731
1.2459
3.9568
1.74896
34.0174
5.36687
3.90395
0.950822
0.980048
1.21878
10.3316
1.60578
13.6232
0.958966
0.946102
2.51777
9.98387
1.5907
0.986975
13.0232
95.6722
2.25466
1.17311
2.87502
6.95461
2.14372
6.72167
14.4166
4.07894
0.943788
1.41558
2.04532
1.23026
6.18271
17.6439
2.23855
4.53983
1.62236
2.18459
1.52812
1.4021
10.8246
2.73528
3.35145
1.70571
2.22667
16.6854
22.3314
3.13652
1.37874
6.29396
1.44962
2.34603
4.7516
2.27927
38.3195
6.18259
1.08357
3.46881
3.63748
1.66762
1.1585
7.38273
2.69443
2.21543
2.84796
180.557
9.35544
2.31888
2.50739
2.27651
1.06945
3.98158
2.06635
2.7722
45.9603
0.956803
1.0109
0.945744
10.0081
1.5024
10.401
2.78469
6.79826
1.29524
1.1059
2.15467
25.6891
30.4003
22.8497
15.1123
7.92028
8.81541
1.15871
1.17678
1.04887
11.9538
1.40866
2.48911
1.08894
5.8465
0.98794
2.24457
6.13121
5.0172
2.86232
11.7161
1.17315
1.10391
1.49997
0.937369
2.49668
1.69284
1.37833
1.01271
1.4474
4.33899
1.03248
1.54476
5.59862
0.993967
0.971806
19.8655
1.72618
1.00729
7.60288
2.24023
2.95404
0.945431
0.939969
13.7722
0.983407
1.83339
18.6849
1.02552
18.5045
1.50098
1.51056
3.93167
20.0344
126.979
11.3615
2.23883
7.25839
1.15291
31.2911
3.85124
2.14397
1.33819
1.27211
1.20744
1.16069
1.59398
1.25176
1.30263
1.2479
1.2581
1.20832
1.29175
2.16494
1.27901
1.21076
1.16113
1.97486
1.19162
1.44365
14.1284
2.78791
2.70613
1.35451
1.68417
1.28502
10.9389
1.55818
1.42216
1.23135
1.0885
1.42061
1.23135
1.13846
1.82188
1.49824
1.20176
1.18847
1.86768
1.19288
1.21388
1.21696
1.34779
1.25627
2.58935
1.95801
1.06636
10.678
2.41313
2.77777
3.87782
4.68118
6.94324
1.3285
0.966984
4.80703
1.31574
64.2952
1.50346
77.4391
7.95301
5.76467
41.5341
1.20865
1.22458
1.12647
2.21826
5.95007
1.46041
2.02437
10.6006
33.9429
2.66366
1.6144
2.90806
3.34636
4.26813
3.31333
100.793
1.0747
1.16381
1.05862
46.4986
1.83235
6.47771
244.547
1.65062
2.54233
5.58023
36.7842
0.983485
1.22249
11.4894
13.9046
257.116
1.01023
5.4308
1.67456
1.38489
4.78046
2.94368
3.20527
1.8122
1.18554
1.16621
1.51529
1.75445
1.17227
1.19739
1.18412
1.15953
1.11966
1.21529
1.60093
1.22815
1.34987
4.47986
1.2132
6.69729
1.55321
1.26505
1.52358
1.74589
1.529
2.73051
1.35068
1.88147
17.8051
1.00203
83.6152
1.86091
13.916
1.57638
0.94019
4.55058
4.08619
1.05837
2.89933
4.61933
4.29299
1.38747
4.75464
7.60281
1.26733
13.931
4.89734
9.51843
0.969126
1.82278
5.05904
2.02886
1.71754
3.81981
3.14223
1.465
1.06546
0.99937
2.03557
1.47938
1.34662
5.61394
2.67647
4.44892
1.05272
5.22472
1.14533
0.990866
1.22441
1.43455
1.68155
1.67067
1.04792
1.09913
4.39387
10.7334
2.7268
6.03306
1.11243
2.74897
10.73
1.2314
9.14955
3.33003
1.15032
2.72855
10.1351
1.06415
1.16395
41.0129
1.76423
10.241
1.02688
0.972091
1.14954
53.4426
0.92918
1.60275
4.45803
1.59329
1.74951
6.1399
4.94658
9.67694
1.06953
4.25545
0.955432
1.74899
7.11613
1.65536
1.74822
3.71176
1.08904
1.18239
0.994255
9.52248
2.31038
1.74191
15.4154
1.02137
0.965132
4.16264
2.93143
0.950481
0.944083
1.10388
37.0891
1.43005
1.7986
1.54765
3.19293
41.6393
3.98123
74.6137
2.48004
2.27215
4.13654
2.15781
5.22459
3.58656
1.91157
2.3338
4.55175
6.10112
0.970133
55.1709
2.81358
29.9441
1.00866
1.81476
1.02798
29.212
1.50933
1.14499
2.68759
5.44166
1.31171
1.67573
22.4308
21.6075
9.03949
1.46123
0.955152
1.05852
1.5765
5.47405
1.0024
0.955959
29.379
1.29309
1.17737
1.41666
1.58556
1.11256
1.3022
1.11016
1.3266
1.09664
1.14517
1.21925
1.3583
1.21172
1.44624
1.15352
1.25669
1.18979
0.955732
0.948282
1.14847
23.5898
0.947657
1.01823
0.975518
0.955008
1.5818
3.44011
6.93645
2.73903
1.06997
1.39371
1.12061
1.42043
2.79766
2.52599
5.71102
0.983086
1.0067
0.968596
3.12344
1.28879
23.3038
4.83828
4.05498
18.6491
1.10504
17.2804
1.81406
2.78952
1.63101
2.57836
1.1323
1.78296
16.2504
1.31189
1.07785
1.1935
1.03781
2.71586
2.37016
2.69563
5.17415
4.0855
1.56267
2.07133
1.76119
2.67633
2.58472
2.37653
4.2309
1.22237
1.4685
2.23571
4.53021
1.13946
2.78707
2.49697
1.45779
3.35616
3.03393
2.92121
2.59027
2.49699
1.90396
4.27629
1.21285
55.2817
2.59948
1.66239
1.22844
3.09844
4.10758
1.38172
1.35647
2.53112
1.02201
1.16485
55.7991
6.32735
2.06228
3.8916
4.11016
1.49885
1.43167
1.6471
3.62945
1.05897
58.4231
1.41581
1.45022
1.72465
9.13724
62.207
1.5883
7.00629
8.23694
13.0004
1.92073
1.79173
1.44705
0.950849
0.955288
4.92383
11.1756
22.5672
19.6293
39.0921
4.42395
27.8145
4.37216
13.2621
1.8467
1.01816
9.49077
1.01853
26.7626
0.962178
0.963273
2.72646
13.2135
2.69547
1.0135
16.6199
1.17846
2.80201
5.5822
22.8107
0.994142
1.89756
1.22993
1.96553
2.37436
2.00134
1.32417
10.1057
15.0771
16.6934
2.4619
1.65969
40.7237
2.76888
6.13025
5.50566
1.82509
0.948982
5.00991
0.959517
3.87041
1.32639
1.09925
6.6068
2.46658
1.64357
36.1893
1.29477
1.28426
1.17926
16.1298
14.2547
1.24733
25.0987
1.20782
1.1995
1.1357
3.28553
12.6271
1.41369
3.14673
1.11129
1.48461
3.40694
1.20706
1.26402
8.27782
1.21918
3.70964
3.00404
1.39895
1.58786
1.19388
1.16073
1.24662
1.47192
1.58879
1.17922
1.23346
4.07201
2.16985
1.36056
1.08482
1.83537
0.949614
17.5518
0.965347
2.02625
4.3077
0.951579
0.962083
1.06019
0.998013
2.51406
2.42728
1.40383
0.948785
7.07469
0.980306
0.974721
3.14783
2.70743
2.21776
2.15146
2.72812
2.2174
1.03307
1.63244
31.9112
20.3214
2.92231
2.80575
3.80709
1.2107
8.3429
0.953079
0.945269
0.949333
1.01612
0.989586
2.45198
1.04859
3.23593
0.958865
0.945443
0.988166
3.27707
0.990759
0.948373
11.3848
1.18261
1.07059
4.70407
37.7508
12.088
2.33288
2.7115
4.32816
2.22292
1.16104
2.83583
5.37395
1.97535
2.00195
1.36923
2.02196
0.985097
0.949288
1.98788
2.77352
3.90473
0.943761
31.1163
0.994147
37.8934
21.6535
1.19048
12.2779
0.950239
1.01835
5.2821
2.3661
1.18657
1.13445
2.23165
1.82595
1.08355
2.37156
2.66865
1.1065
1.41153
30.9739
1.22091
1.08177
5.8098
2.11292
1.70503
1.72469
4.1389
4.04311
1.83338
2.36564
2.18052
3.95187
5.76324
2.20082
1.17802
1.51655
1.0398
0.965553
2.44402
1.15727
1.26584
0.940827
39.3681
44.2011
21.6549
1.37546
1.13825
7.77863
4.34389
0.959198
25.218
1.01994
32.0377
1.37639
4.88642
14.622
2.14224
2.66651
2.74689
2.78495
2.48757
3.2119
1.71246
5.99365
2.24665
1.18777
2.59632
2.95614
1.30428
1.94172
2.06747
22.4938
31.3328
3.24823
2.57761
4.14953
1.78012
2.38422
1.26848
0.982644
2.76134
2.18371
1.32952
2.79559
1.78404
2.2053
3.46707
1.34344
38.9038
2.09265
1.58611
5.14797
0.948188
36.6689
0.977872
1.09657
1.89746
4.01748
3.57678
34.4641
18.3595
2.62499
1.89125
2.26589
1.33711
0.985143
2.72685
11.3689
1.73115
1.10234
1.67798
1.20705
1.70649
1.45536
20.9682
2.54727
2.74708
1.7068
2.82058
1.06449
1.31506
1.69069
1.3585
2.54844
1.78911
3.91079
63.979
1.16812
1.15052
1.06876
2.16513
3.30132
16.8162
13.327
13.229
24.9054
1.38688
1.9665
1.20263
1.00445
1.18033
1.31706
1.2701
2.87502
1.655
2.06337
1.23518
1.07674
1.45202
4.11582
4.56609
8.30569
5.0778
7.33204
5.40354
30.1003
5.62446
1.11127
59.4157
11.2664
1.71764
2.51558
4.00271
4.76746
5.2486
0.949562
33.7351
2.55492
2.17068
5.11783
50.2946
4.42255
4.05129
1.3585
0.947803
19.2404
28.6552
1.23323
18.5569
0.957584
0.946547
1.05192
0.9705
2.31851
1.84327
1.01951
7.12874
1.38608
1.2107
32.3307
1.25014
4.85775
1.94371
2.64342
2.92417
1.06288
1.16385
1.68354
3.19593
24.5969
2.56777
3.47522
18.1334
0.937984
17.5206
15.4859
2.68651
23.4952
2.74743
22.406
10.5606
1.43143
1.65575
1.35798
3.03908
8.04719
16.3009
1.84302
1.06689
2.21237
19.2459
7.09072
2.18222
1.38539
1.12533
3.13185
3.73445
21.8282
13.8412
1.47862
3.28067
19.0425
4.63649
2.6759
28.3455
2.75308
1.4063
1.25089
1.5646
1.05106
1.71403
17.5954
2.46501
3.50494
5.39634
5.84341
1.35023
2.87685
4.44516
1.21368
1.52766
6.20861
1.65274
1.04684
9.08222
7.96308
2.43974
22.0503
0.91227
1.51495
4.37275
7.4744
4.21954
1.9814
1.08702
3.93931
2.09528
32.0449
2.12213
1.72332
1.75351
1.29075
1.13982
3.45498
5.2791
2.50148
2.78766
20.5207
3.72517
1.39884
2.06049
45.0098
1.474
16.2911
2.81385
30.9932
3.83265
3.89838
1.72962
2.3142
1.03455
1.31228
1.44755
2.52414
1.25941
4.19721
2.66934
32.6563
5.30008
5.21292
5.28651
1.46393
9.81031
17.6301
1.04738
0.967683
0.948737
7.33434
18.1783
3.14238
26.6569
158.217
1.12593
3.52041
3.69547
1.3006
1.58113
5.84619
4.76351
1.05326
0.94976
4.923
2.2822
1.06546
1.12889
1.07652
1.20939
1.40632
25.3329
10.2581
1.03973
4.84151
1.33898
9.06551
3.38282
288.105
8.81937
2.06933
3.10196
3.74353
4.1116
0.942647
31.7559
13.4613
1.12168
2.99292
1.35993
3.24551
4.01678
0.939293
2.77265
1.17289
1.12401
1.23817
24.6574
1.06822
2.13971
6.64687
1.86275
1.73198
26.5003
0.902515
1.33919
2.56093
1.14638
1.67949
2.10238
3.97063
3.04052
2.46253
1.03426
3.34857
1.58976
1.2627
5.1892
1.95062
1.05176
15.658
3.19095
0.94733
10.493
2.25802
1.25859
1.06952
1.33647
1.34726
10.026
2.60661
0.986502
1.83226
5.66703
1.72053
40.7969
1.76517
1.75791
1.48959
3.79511
1.03664
14.04
1.26732
1.54798
16.1365
19.5663
1.90631
28.2669
0.935528
1.03841
1.11337
1.04359
7.03046
8.76243
1.08283
1.09477
1.53816
1.16739
0.930137
1.13681
26.7386
1.26167
1.32781
2.11682
3.2593
6.96679
2.30453
13.7217
7.77685
7.01007
18.4213
1.44771
1.10638
7.2099
1.63494
1.11301
1.19869
1.44191
2.99505
1.60253
1.73891
15.6995
8.70949
4.72452
1.35305
30.5483
5.70532
2.14515
3.44262
4.33693
4.30426
30.7647
21.6682
5.05302
1.10164
1.84439
2.55684
2.34274
2.06749
5.61713
2.23604
1.64055
1.58758
2.98308
4.64446
1.53073
1.08771
2.36466
1.16207
17.7833
3.93907
1.14578
2.41814
16.7618
1.08863
2.1264
8.45646
12.6861
2.07179
1.0434
2.63809
2.05513
3.01672
1.1714
11.1447
2.11081
1.17123
3.11568
4.4806
2.41099
39.665
4.40722
3.0619
1.66783
2.7513
1.69491
1.88931
7.44634
0.976456
1.99733
20.4404
0.998188
4.18034
1.11128
1.03355
2.67494
0.998831
0.964529
1.08561
4.18058
1.10575
1.04386
15.1743
1.07404
6.33033
17.6458
9.97108
1.07802
1.7072
28.0678
2.28008
3.05271
1.55736
7.4941
1.43089
4.21041
49.5547
2.63146
3.55295
1.24035
1.5828
1.02512
16.4149
1.76323
6.24133
5.61377
0.954133
1.03575
3.48402
2.78179
1.10062
24.0685
3.05747
1.84478
2.18986
3.44104
3.32584
4.06369
2.33791
1.57949
9.02575
14.4849
41.4643
0.938875
2.74913
4.71036
5.20608
1.28494
1.47757
11.5065
1.55149
7.94548
1.73518
1.22471
1.06189
3.29865
0.974165
0.960289
1.13234
1.4098
1.03415
0.939589
1.32045
2.68238
5.93439
1.0526
5.49134
1.23135
2.91681
1.05463
3.24282
3.53508
1.49617
4.06343
6.6127
1.07421
5.04493
1.09566
1.6402
2.90048
13.8929
1.49232
1.02996
6.36194
37.2808
21.4893
1.81678
1.39136
8.82066
1.90049
1.22152
10.2179
0.940808
1.11471
6.46569
1.09422
2.98171
0.888845
2.13144
0.996948
13.6488
1.60115
5.88882
3.96009
2.39793
4.44213
1.71516
3.24585
17.2972
1.02383
2.20515
2.62288
1.20012
2.08821
0.94376
6.81862
0.990041
1.18282
3.75834
2.87803
2.45487
13.4354
1.16429
1.49487
2.13205
1.58925
15.7628
2.02667
5.75153
3.28637
2.66502
4.83166
3.6048
15.5623
14.0063
1.45582
1.68447
1.25172
2.75478
1.33917
1.04667
3.13104
0.95093
2.88758
1.55054
1.07723
1.03205
2.07226
30.6526
1.22113
1.96761
1.70794
3.29517
4.55167
6.54478
22.0382
3.60364
3.82226
10.7231
1.32461
1.54035
2.13975
7.23567
11.8039
1.03536
13.0608
2.32913
1.39645
1.19085
2.78689
1.36855
14.3755
0.966686
2.19687
1.45732
1.01671
2.44059
1.63151
2.91569
2.71825
8.69271
24.9201
4.95711
1.78523
1.43407
2.61455
13.678
1.44756
1.6965
2.16245
1.27484
2.06158
2.14423
2.562
121.987
1.08678
3.12282
3.17013
1.4424
30.3603
1.82031
1.3258
1.94795
1.98104
1.50039
7.65633
2.78639
4.45287
1.20652
1.94747
3.46663
16.7882
21.0107
2.09633
1.25657
0.943939
3.51479
32.6348
2.77546
3.62594
2.92259
7.87928
1.00006
11.3515
1.03926
1.02237
5.06051
10.2417
1.08063
21.9085
1.68288
1.80906
2.06087
10.8093
4.76879
1.51724
0.952169
0.997102
7.86191
22.7826
3.50526
2.45874
1.87828
3.04852
7.18306
4.99437
1.11732
1.33609
1.04712
15.1269
30.6843
1.23972
3.70801
2.21489
1.50986
60.1804
14.8843
1.57951
1.1236
65.8618
3.75326
3.43933
1.23307
15.1065
8.01131
3.98592
1.23281
2.16516
1.05556
1.22997
1.04527
2.01315
1.34191
6.69723
7.16472
3.3993
1.94103
13.2948
3.22248
1.00864
0.968325
1.159
1.3357
3.56883
3.87813
1.17952
1.65527
9.82817
2.07709
1.37334
1.98962
3.2091
1.57844
1.81874
1.40362
3.78118
1.05512
3.63871
4.34106
12.8402
8.11157
13.2055
4.78939
16.1703
0.975392
15.5186
3.47983
1.71236
11.4394
2.38337
1.36234
1.46026
6.06171
8.71219
8.62303
2.30147
1.21892
4.022
12.5999
20.6397
3.20791
3.86873
3.04814
2.51311
17.2739
3.61107
1.08274
13.9205
2.43431
3.89217
201.357
5.3918
1.04764
1.97962
1.12284
1.98961
3.77958
1.47536
3.04332
2.87803
3.26218
3.19292
4.19696
1.11779
1.17825
3.02643
1.01886
1.11905
1.29456
1.02858
16.1651
1.07308
0.969126
2.08754
1.52302
25.18
24.805
1.45392
0.949262
1.11457
1.21549
1.24754
4.051
3.88341
13.5523
1.40285
1.04915
21.5636
4.34843
16.3665
1.24777
2.00323
1.26804
8.22352
2.31407
1.5541
23.9064
25.206
0.953676
4.88027
0.961195
2.90651
1.43036
9.648
5.37031
1.5429
38.5176
1.73728
5.92866
0.972487
1.66384
6.32014
1.5122
26.3195
24.6511
1.13693
1.04038
12.8832
1.35547
1.19148
1.18493
1.78968
42.8786
2.20032
1.30602
1.6326
2.80069
3.34101
2.40299
1.23346
2.72585
2.66726
6.73088
1.90935
1.40372
2.00958
5.35086
35.8074
2.42362
29.159
0.951522
1.13293
3.16192
29.3214
1.03264
1.66272
1.31389
5.77756
1.88608
5.7641
3.63297
2.53287
2.63297
2.64168
8.71653
3.2607
4.91403
3.02337
4.12373
7.12692
2.9942
4.20476
1.99582
1.05794
5.11048
1.48181
2.39823
1.35838
2.60481
4.89256
3.11154
2.59392
1.08044
1.28288
1.08493
3.39706
9.21151
14.7934
2.4918
4.05323
1.27497
1.09069
10.2451
3.01039
22.9129
4.05621
2.17964
2.48786
1.1027
3.27837
2.4074
2.3604
3.44084
2.21158
1.83893
2.95717
3.80965
3.819
39.4204
5.95836
2.12251
3.92424
22.2237
25.5599
1.44063
4.62195
1.25243
5.27613
1.05527
47.4509
7.11665
3.74064
2.21416
4.51581
137.788
8.84714
13.3865
4.15945
2.02622
6.664
1.28302
6.44148
5.20276
26.0139
26.3938
2.47932
1.63751
2.58075
0.939902
1.15245
2.14879
1.47742
13.0546
1.2729
29.9246
20.3421
1.59402
207.906
5.7137
4.37131
6.02722
1.13424
1.14566
57.469
1.75237
2.74206
21.2331
23.357
4.34304
1.25853
1.67456
1.10874
1.38715
1.00568
1.69463
10.3665
1.2201
2.7152
1.60218
1.24576
14.7068
2.2894
1.39688
1.76003
4.89106
2.88076
2.34658
32.7151
3.18065
1.40318
2.16573
3.925
3.88851
2.48588
28.765
43.3837
1.21343
1.01088
1.25667
2.70175
25.2513
5.12448
2.78643
2.65685
1.17396
7.23852
5.16277
1.09108
16.3153
4.19621
1.33123
41.5834
1.38434
3.74661
1.10443
2.7265
3.02034
39.5426
0.941737
1.9321
1.36876
35.8469
2.10869
1.38747
1.39418
35.5697
10.2924
1.82942
4.21394
4.39221
1.72245
24.0735
5.14358
5.63278
19.8496
64.3716
11.3758
1.0381
1.06628
3.27521
1.79554
2.88267
8.17961
1.96356
4.99347
21.3343
3.16913
2.63205
1.54617
2.653
3.28343
1.05687
4.39767
3.91917
3.9927
1.05647
28.6969
1.81699
5.53254
2.57979
1.09929
1.96665
4.13914
4.05439
2.52531
5.90532
24.7916
1.1537
0.962101
51.0653
1.97528
2.63664
1.19943
1.69559
4.40363
5.03001
2.81681
2.06903
1.17423
1.07549
1.93634
1.15805
1.8948
1.02321
1.26887
1.27973
3.90194
202.705
1.5281
1.61989
1.49973
2.22883
2.84237
1.03649
2.04957
0.964637
4.7222
1.00374
1.05001
2.82657
2.25355
1.37932
2.0261
2.23517
5.31399
2.17129
41.8994
5.58987
27.1144
2.83238
1.14144
1.36633
1.50883
1.73831
1.84703
2.76437
1.56946
13.963
53.2915
10.34
3.30852
2.70272
0.914089
1.6295
1.20308
5.69386
1.30303
30.4343
2.29567
1.67259
1.7037
5.84941
6.58391
0.978372
15.3542
19.8291
1.80759
1.46278
7.71646
1.91304
1.47914
0.946031
2.23773
1.64149
42.0129
2.60754
54.1581
2.54899
6.30712
5.87649
3.03984
25.3448
1.77519
1.84738
3.78822
2.88907
1.52356
1.70747
1.13315
1.48536
1.87912
2.86139
1.8975
2.115
5.26164
3.79289
1.90991
11.2097
1.70486
4.22527
8.56277
2.17228
5.62459
6.13788
3.87171
9.33752
2.66739
2.25355
3.98693
1.86782
1.6093
2.15418
8.4709
2.93304
1.05154
1.75115
1.40369
2.30178
1.04999
2.90565
1.24652
121.472
31.4272
37.2743
1.18132
40.3717
1.16795
46.8926
35.2978
27.9356
31.9653
10.1499
1.32151
2.53712
3.1808
3.71946
31.8348
0.961399
1.09951
1.02758
28.4397
16.6402
17.0857
3.10057
1.72637
15.4584
3.35214
1.02892
15.701
1.11997
1.53004
2.41613
20.0332
6.77123
1.64428
1.24944
1.41162
1.32051
1.0312
1.27167
0.99047
2.73116
4.67135
1.48459
2.15508
2.2846
1.33685
26.2085
2.13873
9.24592
31.3144
29.0439
6.25205
4.30061
1.69187
2.70606
1.16198
3.53081
4.53303
1.47455
2.7382
2.28065
3.27012
1.78506
1.1588
4.42061
2.81874
1.16417
4.95611
2.61092
27.1185
2.02083
0.968397
0.968404
1.35181
1.05652
6.19437
0.996148
10.1557
2.32197
6.24108
3.15842
34.78
1.32536
52.4759
2.61874
13.5465
1.53602
1.25789
1.25227
1.3363
23.3481
3.04127
1.02187
3.49359
2.01443
3.93713
4.95936
4.89481
1.25458
1.90455
1.61012
1.80804
2.21761
4.50502
12.1946
3.79412
0.987902
4.56277
0.970956
1.68158
1.05643
2.11913
1.03701
1.09091
2.37882
1.43744
1.79213
1.47555
30.3239
1.95705
1.18946
6.24773
18.9845
344.657
3.4206
11.0474
2.26491
6.56168
19.3335
0.961507
3.68968
1.96991
1.2157
1.28234
1.35388
6.8888
27.1277
2.24658
1.01949
2.10732
3.29687
2.23277
1.61608
2.21691
11.5369
185.629
2.84318
11.0436
0.997915
2.98876
1.53659
10.0766
1.25162
1.37046
3.32154
13.2387
5.69651
2.73885
4.64642
12.9936
1.25087
12.4528
2.66292
5.30216
4.23778
1.00319
1.03083
6.01879
58.098
2.38775
5.34967
1.11291
2.09165
12.8267
1.42908
0.966658
0.957139
5.2122
6.33925
5.08614
1.02622
2.34796
1.0381
0.994343
17.8916
1.1575
1.20447
5.46263
5.59356
3.60904
2.18225
1.60858
4.30266
1.1843
1.5161
24.943
3.65308
26.5061
3.38896
4.90933
2.84867
1.13268
1.83153
10.8461
1.24042
2.07466
4.54646
0.980352
0.961805
1.13325
1.47568
1.52129
1.00114
1.1824
1.08989
6.84241
25.8668
6.55843
10.5613
2.26681
2.60167
2.15202
2.06873
1.81758
2.72203
1.45358
0.942731
1.56148
4.6932
0.935677
2.12352
1.80043
7.78399
1.06067
113.245
2.08539
6.95254
2.62053
1.0419
2.17775
1.61101
6.79605
1.09299
1.57769
4.78564
6.10004
1.28327
1.9072
2.28522
2.19597
1.27532
3.03639
0.944551
0.957614
1.10935
1.07985
1.0194
0.995222
2.95972
6.42492
3.38363
10.6756
15.5618
2.38528
3.05728
13.1438
1.06717
125.224
1.35244
2.34368
5.00305
6.51573
3.50346
6.23361
13.386
1.88772
3.35327
2.14474
5.88583
1.18636
2.635
18.5173
3.17409
1.0338
8.62851
7.6342
2.24664
1.5739
1.46864
1.45787
1.70462
1.81139
1.27499
22.9842
43.2363
2.92297
3.82745
7.94574
1.69884
0.940756
1.15312
1.12459
14.5667
2.77265
3.23108
2.97312
2.02998
5.82737
1.09728
1.22966
14.8451
1.05323
1.02722
1.33167
0.980861
1.00738
1.02637
1.07012
4.55009
1.9911
2.9157
7.61966
1.83082
1.29146
9.03498
3.40789
0.987818
1.76786
3.35161
1.09858
38.3163
5.94242
2.5497
1.42874
26.9295
1.17852
27.2642
2.01033
14.3989
0.972586
0.951674
1.49807
2.11679
2.88729
4.67217
1.18477
1.28868
1.20493
3.68058
0.939849
4.5907
0.913086
5.54318
1.51866
2.15154
3.2845
2.28276
5.6032
5.42291
32.3916
1.97141
2.14439
2.05173
2.37235
1.02171
1.33401
2.03933
1.27756
1.21967
1.81488
0.957432
15.9998
25.0695
1.36676
1.17332
1.32886
1.37889
4.57337
61.1324
282.561
14.3564
1.33827
1.5549
1.3246
2.87055
1.53421
4.14768
9.52976
1.06132
6.404
3.99413
1.83352
5.61048
1.1257
5.61076
1.03652
1.28174
8.05877
3.08195
1.52581
1.1977
2.44071
1.03396
5.13529
1.16429
6.04544
2.55476
3.41273
1.06047
5.1347
7.46109
0.944967
2.00774
1.77172
2.74831
1.00623
4.0611
1.51466
2.27603
7.29672
4.61179
1.86318
1.27948
1.19679
50.4811
1.64501
4.11138
6.62826
34.8582
1.28268
1.48492
1.67371
1.02542
1.1426
4.07465
69.2391
1.14538
1.66216
50.5925
1.04314
5.38704
1.5782
0.939472
1.2439
2.98118
2.56647
16.6033
69.1974
215.11
1.12379
100.76
0.976026
154.166
2.95841
9.18897
18.7615
1.1603
1.58752
1.62581
1.84921
1.68673
4.04143
4.84507
3.64294
3.65429
1.56366
4.01491
24.325
3.43617
3.56505
3.9624
3.75765
26.3591
3.47092
3.08758
6.49548
5.4635
6.08604
6.32956
20.6141
28.5584
5.82319
14.4999
16.9477
5.58063