/*--------------------------------*- C++ -*----------------------------------*\
| =========                 |                                                 |
| \\      /  F ield         | OpenFOAM: The Open Source CFD Toolbox           |
|  \\    /   O peration     | Version:  v1912                                 |
|   \\  /    A nd           | Website:  www.openfoam.com                      |
|    \\/     M anipulation  |                                                 |
\*---------------------------------------------------------------------------*/
FoamFile
{
    version     2.0;
    format      ascii;
    class       volScalarField;
    location    "0.47";
    object      k;
}
// * * * * * * * * * * * * * * * * * * * * * * * * * * * * * * * * * * * * * //

dimensions      [0 2 -2 0 0 0 0];


internalField   nonuniform List<scalar> 
1431
(
0.136313
0.232923
1.53032
1.13699
0.0836888
0.800643
0.75567
0.19661
1.89113
1.50237
0.143768
0.310558
0.239876
0.947279
1.51876
0.452263
1.69142
0.290267
0.213111
0.0928902
0.113156
0.876551
1.10914
1.03732
0.936896
0.0777774
0.999375
0.866451
0.493671
0.261509
0.934823
0.311045
0.814076
0.450472
0.390157
0.997929
0.0925566
0.31122
0.856503
0.304658
1.99804
0.130456
0.420384
0.830082
1.14851
0.164927
1.01297
0.211695
0.438544
0.396947
0.247715
1.54735
1.54784
0.605956
0.785758
0.202832
1.27728
1.1863
0.795372
0.0855741
1.36217
0.0780547
1.10389
0.29284
0.596017
0.248651
1.40989
0.728596
0.325927
0.323594
0.322738
0.315388
0.379018
0.798517
0.297472
0.605261
0.125797
1.40469
0.224666
1.51699
0.269922
0.29674
0.463772
1.48981
1.64912
0.0924198
0.0989616
0.353052
1.13991
0.0935346
0.165531
0.467049
0.0929885
0.309863
0.286824
0.106708
0.280641
0.266833
0.124638
0.640578
0.337641
0.222348
0.130152
0.0809072
0.47354
0.266963
0.240688
2.32046
1.25333
0.10275
1.79758
0.225369
0.213826
0.098041
0.427517
0.0789429
0.29592
0.684989
1.2605
0.905045
0.289731
1.426
1.49056
0.949434
0.293811
0.33812
1.40745
0.262332
0.165372
0.488572
0.189231
1.99119
0.738194
0.122955
0.088037
0.654403
0.256635
0.285995
0.147244
2.07048
1.17986
0.0589802
0.290459
0.457886
0.522139
0.374477
0.267958
2.3487
0.158525
0.376053
0.508443
0.642489
0.470657
0.39937
0.0624129
0.230913
0.283615
0.114971
0.20607
0.266009
0.28993
0.137397
0.139234
0.288325
0.107566
2.38752
0.103442
0.301591
0.247717
0.117038
0.656741
0.369841
0.895745
0.386921
0.283326
0.117781
0.208872
0.497753
0.26123
0.22196
0.316773
1.34441
0.205301
0.10243
0.349096
0.402592
0.22939
0.831116
0.076459
0.299771
0.583655
1.98826
0.120659
0.254723
1.99738
0.273506
0.234862
0.25959
0.0806893
0.107167
0.242378
0.738019
0.332178
2.06709
0.246844
1.26789
0.0975191
0.305242
0.341257
0.474214
0.264786
0.216422
1.21986
0.299742
0.701683
0.772484
0.19954
0.499698
0.482447
0.304474
0.291948
1.37647
0.432073
1.84437
0.318696
0.531069
0.558052
0.108717
0.424377
0.978742
0.0898831
0.62083
0.303181
0.200553
0.196839
0.205265
0.288103
0.153296
0.274783
0.326223
0.312123
0.295341
1.5864
1.6387
0.222905
0.230871
0.309444
0.499966
0.586759
0.561181
0.272764
1.7632
1.37951
0.479211
1.1454
0.659866
0.150182
0.373113
0.616119
0.640339
0.67385
0.253772
0.135796
1.24812
0.198972
0.410276
0.567879
0.247137
0.404123
1.34246
0.236669
0.508891
0.269368
0.267178
0.690928
0.268855
0.129798
0.412785
0.300208
1.47433
1.95
0.324204
0.254241
0.125783
0.595928
0.83689
0.0898855
0.191305
0.495685
0.292812
0.392405
0.332005
0.194754
0.425396
0.298034
0.212493
0.140769
0.248759
0.318377
0.243787
0.323411
0.576247
0.279235
0.23369
0.0982879
0.253243
0.281903
0.648764
0.62683
0.140402
0.304881
0.337954
1.34268
0.0830729
0.26215
0.227379
1.3598
0.295756
0.197753
0.286239
0.23615
0.21417
1.13023
0.26284
1.01149
0.322253
0.257774
0.314937
1.29088
0.294075
0.580763
0.242323
0.372007
0.553439
0.278399
1.25243
0.216905
0.166923
0.210124
0.267699
0.155583
0.263807
0.323626
0.435626
0.941438
0.198169
0.323384
0.241885
0.0221693
0.106033
0.217786
0.222665
0.263672
0.192331
0.104254
0.205144
0.236142
0.102035
0.19303
0.21389
0.131735
0.152943
0.18493
0.0277842
0.029537
0.226832
0.164032
0.205606
0.706685
0.986532
0.234845
0.390358
0.267213
0.344843
0.392836
1.08621
0.470738
0.328128
0.362159
0.197535
0.219278
0.218367
0.0739682
0.250505
0.182738
0.174959
0.233516
0.0842197
0.195295
0.0248532
0.257187
1.40277
0.477325
0.362257
0.30509
0.208214
0.148442
0.315636
0.922877
0.280227
0.230717
0.361352
0.308086
0.225205
0.417768
0.322781
0.30525
0.251081
0.136433
0.731574
0.619074
0.273886
0.331356
1.22519
0.486346
0.684841
0.302805
1.48891
0.277803
0.143637
0.279739
0.427091
0.787557
0.391542
0.328114
0.32351
0.359867
0.538713
1.69243
0.260492
1.76417
0.362297
0.148856
0.656427
0.33557
0.276006
0.555715
0.556907
0.372962
0.87874
0.760155
1.12158
0.598003
0.554737
0.195401
0.836955
0.894832
0.316363
0.367448
0.659742
0.702287
0.602913
0.842843
0.701464
0.414695
0.529314
0.450849
0.497439
0.504654
0.344276
1.28074
0.233799
0.863009
0.653456
0.341627
0.297437
0.123197
1.59844
0.603992
0.318982
1.51401
0.298181
0.227016
0.728999
0.603491
0.283286
1.35872
1.28202
1.91604
0.201219
0.335472
0.328264
0.753701
0.20658
0.318212
1.00164
0.676015
0.910554
0.439167
0.299483
0.239239
0.210158
0.261848
1.4823
0.201783
0.339838
1.17155
0.504325
0.325257
0.453695
0.7549
1.47375
0.458202
0.268654
0.27287
0.37842
0.256004
0.872472
0.331954
0.971404
0.855116
0.336732
0.225264
0.584261
0.316105
0.331768
1.6444
1.32465
0.332834
0.286546
0.426513
0.368235
0.468141
0.139703
0.320835
0.520287
0.233792
0.370103
0.390136
0.500821
0.3211
0.240851
0.378397
0.428938
0.551789
0.391973
0.444122
0.443766
0.813081
1.04595
0.279098
1.57448
0.307028
1.3988
0.193694
1.04459
0.480216
0.217651
0.695414
0.291387
0.406926
0.0522374
0.60924
0.478361
0.370161
0.34461
0.648825
0.474573
0.605291
0.193031
0.780993
0.345937
1.23854
1.77915
1.0332
0.180468
0.744457
0.203683
1.28558
0.287082
0.244526
0.997978
1.253
1.01885
1.41369
0.120475
0.591247
0.343051
0.32064
0.428076
0.319579
0.223671
0.300578
0.287735
0.209882
0.391554
0.24849
0.310311
0.270514
0.404063
1.39611
1.12743
0.359662
0.290289
0.270754
0.352074
0.0462542
0.556399
0.206575
0.350377
0.271716
0.212912
0.273634
0.415789
0.397324
0.918869
0.215567
0.300597
1.08696
1.35475
0.963586
0.850112
0.169111
0.583438
1.17491
0.206807
1.3911
1.03531
0.49171
0.755665
0.263225
0.228189
0.252172
0.217701
0.497673
0.305201
0.236497
0.0499394
0.707231
0.230198
1.04635
0.227863
0.130242
0.238703
0.250937
0.605417
0.278416
0.199896
0.522969
0.20551
0.361818
1.23776
0.247487
0.872092
0.470912
0.404305
0.317268
1.64302
1.47303
0.211577
0.351529
0.198715
0.257285
0.6064
1.6104
0.655841
0.256982
0.332206
0.605812
0.830575
0.32069
0.0896546
0.181633
0.175161
0.282871
0.287716
0.359144
1.04935
0.794979
1.1133
0.0576238
0.264432
0.20856
0.532996
0.327985
0.323659
0.754148
0.899571
0.217707
0.472826
1.40004
0.0693292
0.270582
0.315139
0.459381
0.449787
0.395486
0.368599
0.767863
0.189548
1.20816
0.41771
0.30679
0.139566
0.732868
0.238137
0.0319566
0.257056
0.272672
0.20553
0.348582
0.251915
0.18888
0.213104
0.0958925
0.643248
0.571065
0.940901
0.362885
2.15458
0.289817
0.0560994
0.25445
1.0279
0.551444
0.421281
0.238104
1.94748
0.212645
0.151713
0.413561
0.300135
0.218142
1.68582
0.26812
0.427317
1.03594
0.936265
0.47644
0.112108
0.265613
0.169095
0.467377
0.470345
1.68108
0.190575
0.125523
0.441467
0.925499
0.147129
0.350148
1.40259
0.312416
0.177064
0.590733
0.404697
0.20908
0.452291
0.778881
0.267844
1.34826
0.190654
0.481158
0.511611
0.142744
0.164204
0.350123
0.523302
0.42093
1.58768
0.814967
0.799473
0.804212
0.869158
0.305021
1.03178
0.156321
0.909633
0.613334
0.495424
0.424937
1.56343
0.0443872
0.275715
0.0989608
0.568917
0.116384
1.231
0.671751
0.223349
0.304036
0.161248
0.529413
1.22156
0.204701
2.46426
0.0458301
0.258478
0.198091
1.81095
0.131007
0.192506
0.882813
0.589272
0.362671
0.309699
0.0498068
0.266975
1.74735
0.22918
0.751486
0.591864
0.223291
0.237662
0.0364702
0.215972
0.961093
0.298724
1.06975
0.140228
0.280967
0.234032
1.34991
0.0701837
1.36242
0.537437
0.526864
0.51776
0.528243
0.503064
0.508866
0.509347
0.548503
0.183052
0.182391
0.385654
0.378997
0.612758
0.24665
0.070344
0.279364
0.0471823
0.280403
0.0745242
0.284801
0.567825
0.656692
0.612911
0.24118
0.666983
0.194451
0.26671
0.264683
0.50598
1.52749
0.239589
0.246377
0.263251
0.178077
0.237546
0.236349
0.291105
0.413668
0.126254
0.878114
0.100933
1.54707
1.39441
0.32068
0.343445
0.225387
0.128453
0.27481
0.310431
0.271987
0.149448
0.215037
0.202837
0.0621437
0.329928
0.325877
0.918512
0.20469
0.252534
0.11634
0.244434
0.483431
0.7863
0.317215
0.248448
0.141402
0.259417
0.208088
0.148348
0.294021
0.143593
0.116419
1.24862
1.31632
0.289524
0.447127
1.6235
0.737373
0.26997
0.106114
1.40369
0.0769439
0.250709
0.318894
0.219637
0.249359
0.257921
0.398718
0.348892
0.78151
0.746097
0.491521
0.127262
0.124958
0.180033
0.212756
0.223132
2.08884
0.247112
0.345748
0.636403
0.592374
0.355711
0.271323
0.218898
0.552603
0.220262
0.15469
0.233361
0.211868
0.711145
0.229166
0.529974
1.34536
0.53157
0.692052
0.191311
0.110799
0.141833
0.0488389
0.0661651
0.250456
0.0390921
0.0379349
0.191953
0.0418873
0.227704
0.250804
0.0389318
0.149094
0.0504021
1.81605
0.115909
0.315537
0.0614835
1.14077
0.0588142
0.494161
0.723543
2.06607
0.313656
0.0405031
0.269322
0.764391
0.224918
1.27923
0.949411
0.259686
0.314089
0.178255
0.0565562
0.0440275
0.8818
0.0651787
0.935515
0.925269
0.315187
0.178687
0.584463
1.20565
0.300749
0.240123
0.0511401
0.0467221
0.225998
0.250611
0.406702
0.697533
1.23544
1.0565
0.667959
0.0493643
1.4769
0.0836727
0.658839
0.0655206
0.253107
0.632991
0.245479
0.328129
0.27766
1.24176
0.660758
1.99972
0.0954581
0.76966
1.01541
0.457544
0.56781
0.809073
0.198691
0.895286
1.92117
0.350477
0.140898
0.742964
0.869342
0.228423
0.266488
0.767553
1.51878
1.07461
1.06923
0.298341
1.10379
0.371406
1.22664
0.372354
0.950166
0.732263
0.239091
0.20422
0.285023
0.40352
2.15182
0.868319
0.715946
0.348851
1.73268
0.26346
1.16325
1.48124
0.316574
0.399702
0.298313
0.71103
0.0811725
0.0525605
0.337116
0.521613
0.341979
1.45034
1.12456
0.19018
1.12812
0.264638
0.461378
1.23648
1.13424
0.501878
0.726865
0.267599
0.4021
0.141889
0.208915
0.486408
1.89694
0.349612
0.619503
0.216441
0.152937
0.354982
0.309863
0.327526
1.16754
0.187914
0.202021
0.534926
0.914234
0.244566
0.348319
0.0677361
0.785243
0.353226
0.355151
0.0603904
0.209904
0.27266
0.158821
0.251896
0.0630314
0.580981
0.797135
0.450478
1.18168
0.224158
0.385006
0.261823
0.211076
0.508105
0.0783987
0.216215
0.334501
0.161408
1.2889
1.34844
0.0918767
0.355953
0.963735
0.11697
0.374133
0.423363
0.0578884
0.274927
0.636762
0.264445
1.72337
0.377542
0.668731
0.294215
0.874629
0.265893
0.375799
0.440621
0.246757
0.416159
0.287109
0.367081
0.0809653
1.12946
0.0798196
0.297499
0.262867
0.601609
0.876976
0.356223
0.159998
0.123506
1.20634
0.168248
0.101756
0.161908
0.563697
0.475736
0.0367376
0.301038
0.195441
1.80581
1.41387
0.136065
0.206979
0.75395
0.0608347
1.12715
0.259716
1.31469
0.0449626
0.33899
1.09583
0.26149
0.269931
1.96431
0.79408
0.512539
0.288144
1.33162
0.0710294
0.130915
0.267275
1.20524
1.07351
0.966535
0.0388537
0.333053
0.0882152
0.336476
0.681454
1.99649
1.02413
0.605072
0.366333
0.204981
0.142416
0.188588
0.406096
0.849919
1.27838
0.194297
0.159389
0.313804
0.635941
1.58346
0.674221
0.432114
0.0938255
0.267774
1.21943
0.544533
0.0867134
2.08726
1.24908
0.849483
0.377857
0.303591
0.30166
0.771292
1.07367
1.16239
0.255526
1.89146
0.67808
0.346586
0.248834
1.04881
0.351665
0.360001
0.860043
1.17262
0.100965
0.262996
0.15675
1.59636
0.171383
0.25226
1.15079
0.305472
1.13699
0.430317
0.101328
1.7896
0.199449
0.302072
0.274148
0.413497
0.344146
0.612703
1.65037
0.088725
1.05318
0.0757613
0.950887
0.857357
0.0914785
0.356115
0.162247
0.307436
1.86025
0.846659
0.568925
0.770237
0.404448
0.106723
0.249924
1.05036
0.26916
0.103233
0.324183
0.202134
0.307321
2.18223
0.986122
1.30166
0.462436
1.10889
0.251119
0.223468
0.469304
1.57968
1.32717
0.396887
0.340963
0.554976
1.12152
0.238621
2.14916
0.27011
0.377556
0.146001
0.265603
0.242002
0.226424
0.386201
0.0933726
0.568742
0.683468
0.339511
0.159801
0.230011
0.386505
0.413289
1.71118
0.929579
1.40429
1.22527
0.282138
1.60475
0.764651
1.32379
0.27868
0.112185
0.350888
0.309911
1.59234
0.242431
0.0915958
1.13783
0.229558
1.57764
0.706695
1.06926
0.761648
0.607498
0.328983
0.313168
1.17932
0.334056
0.421728
0.125607
0.298685
0.201969
0.121572
0.351144
0.700017
0.252661
0.295176
0.147485
0.0917278
0.410208
1.18927
0.447356
1.42202
0.779878
0.356251
0.383657
0.136948
0.43833
0.31771
0.168837
0.299239
0.213755
0.264547
1.37361
0.231886
0.536623
0.0858207
0.240408
0.146756
0.306872
1.16038
0.0673113
0.172624
0.282619
0.212507
0.243286
0.277797
0.184716
0.521863
0.271072
0.19996
0.307259
0.282013
0.30513
0.538052
0.0863183
0.299616
0.254885
0.385441
0.243116
0.373789
1.417
0.30734
0.0772912
0.205773
0.270502
0.394969
0.627613
0.0941925
0.324316
0.216898
0.21125
0.25506
0.713526
0.216776
0.243392
1.27922
0.320004
1.03199
0.356449
2.23728
0.234605
0.713112
1.32707
0.336654
0.120961
0.0837425
0.395018
0.109503
0.931623
0.234542
1.06094
0.218969
0.78161
0.212102
0.0926543
0.353341
0.103699
0.342456
0.276692
0.923379
0.316641
0.935431
0.637078
0.588726
0.650501
0.206634
0.504997
0.307171
1.02645
1.243
0.313792
0.293899
1.12601
1.31144
1.59908
1.38727
0.83207
0.462106
0.20722
0.741262
0.381734
0.296871
0.818606
1.57975
0.266166
0.6031
0.924285
)
;

boundaryField
{
    frontAndBack
    {
        type            empty;
    }
    wallOuter
    {
        type            kqRWallFunction;
        value           nonuniform List<scalar> 
90
(
0.452263
0.421281
0.413561
0.427317
0.47644
0.467377
0.470345
0.590733
0.404697
0.481158
0.511611
0.613334
0.495424
0.568917
0.529413
0.882813
0.537437
0.526864
0.51776
0.528243
0.503064
0.508866
0.509347
0.548503
0.50598
0.78151
0.746097
0.529974
0.53157
0.141833
0.0488389
0.0661651
0.250456
0.0390921
0.0379349
0.0389318
0.0614835
0.0588142
0.494161
0.0405031
0.0565562
0.0440275
0.8818
0.0651787
0.0511401
0.0467221
0.0836727
0.658839
0.0655206
0.660758
0.767553
0.40352
0.461378
0.619503
0.534926
0.0603904
0.0630314
0.580981
0.797135
0.385006
0.508105
0.0783987
0.0918767
0.963735
0.636762
0.668731
0.874629
0.0809653
1.12946
0.0798196
0.512539
0.0710294
0.966535
0.0882152
1.02413
0.849919
0.432114
0.544533
0.0867134
0.849483
0.430317
1.05318
0.0757613
0.462436
0.339511
0.0917278
1.16038
0.0673113
0.521863
0.394969
)
;
    }
    inlet
    {
        type            fixedValue;
        value           uniform 0.375;
    }
    outlet
    {
        type            zeroGradient;
    }
    wallInner
    {
        type            kqRWallFunction;
        value           nonuniform List<scalar> 
138
(
0.310558
0.213111
0.814076
0.450472
0.390157
0.130456
1.40989
0.728596
0.322738
0.315388
0.605261
0.738194
0.39937
0.0624129
0.117781
0.208872
0.0806893
0.107167
0.242378
0.738019
1.84437
0.659866
0.150182
0.616119
0.640339
0.67385
0.567879
0.690928
0.595928
0.648764
0.62683
0.155583
0.198169
0.241885
0.0221693
0.106033
0.217786
0.222665
0.263672
0.192331
0.104254
0.205144
0.236142
0.102035
0.19303
0.21389
0.131735
0.152943
0.18493
0.0277842
0.029537
0.226832
0.164032
0.205606
0.197535
0.219278
0.218367
0.0739682
0.250505
0.182738
0.174959
0.233516
0.0842197
0.195295
0.0248532
0.257187
0.230717
0.273886
0.684841
0.148856
1.12158
0.195401
0.367448
0.233799
0.728999
0.201219
0.753701
0.299483
0.239239
0.210158
0.201783
1.17155
1.47375
0.971404
0.855116
1.32465
0.193694
0.0522374
0.60924
0.605291
0.244526
0.350377
0.130242
0.287716
0.0693292
0.0319566
0.257056
0.112108
0.169095
0.312416
0.814967
0.156321
0.0989608
0.161248
0.589272
0.0364702
0.279364
0.612911
0.24118
0.126254
0.180033
0.711145
0.0418873
0.227704
0.0504021
0.584463
0.667959
0.0493643
0.76966
1.01541
0.141889
0.0677361
0.785243
0.11697
0.159998
0.168248
0.75395
0.0608347
0.142416
0.188588
0.101328
0.293899
0.741262
0.381734
0.296871
1.57975
0.266166
0.924285
)
;
    }
    procBoundary0to1
    {
        type            processor;
        value           nonuniform List<scalar> 
29
(
0.692749
0.666213
0.922779
0.922779
1.56211
1.56211
2.00458
0.689937
1.28927
1.01963
0.815231
1.0785
0.612572
0.343803
1.33746
0.622262
2.1994
2.08609
1.14503
0.701482
0.332861
0.225647
1.45499
0.291255
0.288793
2.08609
0.257466
0.806974
0.291255
)
;
    }
    procBoundary0to2
    {
        type            processor;
        value           nonuniform List<scalar> 
42
(
1.09421
0.525305
0.123234
0.100235
0.151217
1.09421
0.123234
0.152849
0.134283
0.133225
0.225214
0.315419
0.225214
0.338152
0.329803
1.21973
0.329803
0.129474
0.133698
0.889951
0.889951
0.129474
0.116265
1.05659
1.05659
0.0886551
1.34724
0.0618836
1.46989
0.446099
0.446099
0.0503794
0.049575
0.0536262
0.0632177
0.123234
0.298205
0.0607346
1.46989
0.152849
0.123585
0.0859571
)
;
    }
}


// ************************************************************************* //
