/*--------------------------------*- C++ -*----------------------------------*\
| =========                 |                                                 |
| \\      /  F ield         | OpenFOAM: The Open Source CFD Toolbox           |
|  \\    /   O peration     | Version:  v1912                                 |
|   \\  /    A nd           | Website:  www.openfoam.com                      |
|    \\/     M anipulation  |                                                 |
\*---------------------------------------------------------------------------*/
FoamFile
{
    version     2.0;
    format      ascii;
    class       volScalarField;
    location    "0.47";
    object      nut;
}
// * * * * * * * * * * * * * * * * * * * * * * * * * * * * * * * * * * * * * //

dimensions      [0 2 -1 0 0 0 0];


internalField   nonuniform List<scalar> 
1431
(
0.00145194
0.00217161
0.00226209
0.00162358
0.000782297
0.00184213
0.00363061
0.000787133
0.00504391
0.00775231
0.000582848
0.000840787
0.0012485
0.00133658
0.00407505
0.000684558
0.00418976
0.00211362
0.000404322
0.000554944
0.000779561
0.00597226
0.00303337
0.00143739
0.00147351
0.000659763
0.00148984
0.00124378
0.00100429
0.00172635
0.00150955
0.000726429
0.00194162
0.00103504
0.000943637
0.00197158
0.00105562
0.000858183
0.00326238
0.000857325
0.00239711
0.000484562
0.00145799
0.00254647
0.00363644
0.00182224
0.00236941
0.000816376
0.000904848
0.000869398
0.0018358
0.00717502
0.00390748
0.00245743
0.00310748
0.000773821
0.00476958
0.00244164
0.00101752
0.000563929
0.00335908
0.000527007
0.00227917
0.000783444
0.0009064
0.00176498
0.00232021
0.00126075
0.00363504
0.000750931
0.000919157
0.000872119
0.00111545
0.00216082
0.000785134
0.00117072
0.00117049
0.0029862
0.00078547
0.00220787
0.000806051
0.00251405
0.00116439
0.00293332
0.00225651
0.000912424
0.00105285
0.000761222
0.0015466
0.000976196
0.00151281
0.000783894
0.000998287
0.000861413
0.00218722
0.000950456
0.000793209
0.00072933
0.00129311
0.00113697
0.00370146
0.000806993
0.00188839
0.000749
0.00101483
0.00191423
0.00078639
0.00301804
0.00213016
0.000918911
0.00256176
0.00134505
0.000756781
0.000961063
0.000980188
0.000708637
0.00219319
0.00329014
0.00166667
0.00278518
0.000858323
0.00334409
0.0061192
0.00141055
0.000831364
0.0022148
0.00180479
0.000804509
0.00189789
0.000810579
0.000840541
0.00284907
0.00101198
0.00176051
0.0009153
0.000867912
0.000908976
0.00228461
0.00174623
0.00281058
0.00465376
0.000502022
0.000770167
0.000964707
0.0011264
0.000775868
0.000734326
0.00311974
0.000716358
0.00081764
0.000820105
0.000958816
0.00323427
0.000648347
0.000309524
0.000828602
0.000803448
0.0014749
0.000757597
0.000712196
0.00207703
0.000678166
0.00194643
0.00080406
0.00107272
0.00314102
0.000989223
0.000862611
0.00165956
0.00173897
0.0010952
0.00084887
0.00140257
0.000769833
0.000771972
0.00045361
0.000538947
0.00087457
0.00162223
0.000711424
0.000839834
0.00423439
0.000755225
0.0012566
0.00077358
0.000825264
0.000754319
0.00119878
0.000748918
0.00079975
0.00589807
0.00422262
0.00106818
0.000791011
0.0054389
0.000845004
0.000785892
0.000841324
0.000402929
0.000433456
0.000628883
0.000663906
0.000762945
0.00232078
0.000786588
0.00191798
0.00095669
0.000834498
0.000899721
0.00087902
0.000790117
0.00078396
0.00168177
0.000831767
0.00157688
0.001341
0.00075829
0.00512534
0.00157714
0.000833839
0.00083049
0.00229663
0.000777981
0.00211645
0.000825395
0.000873473
0.000997379
0.00141876
0.00083756
0.00164491
0.000947516
0.00106056
0.000747617
0.000797807
0.000791197
0.000784525
0.000737332
0.0020222
0.000827243
0.00242236
0.000843384
0.000730807
0.00506105
0.00348174
0.000899491
0.000938798
0.000830233
0.00224744
0.00168904
0.000992265
0.000725504
0.00509121
0.00768472
0.00111624
0.00256609
0.00109097
0.000541512
0.00271473
0.00112509
0.0010996
0.00107964
0.000920686
0.00134439
0.00458892
0.000790902
0.000815685
0.00102516
0.000745626
0.000958485
0.00492585
0.000744297
0.000964114
0.000727684
0.000727366
0.00106946
0.000764833
0.00170252
0.00305156
0.00254063
0.00704724
0.00486011
0.0025124
0.00157126
0.00162045
0.0010224
0.00129169
0.000927953
0.000755323
0.000920704
0.000833214
0.000776908
0.000868967
0.000747374
0.00424583
0.000735954
0.000745942
0.0012485
0.000764018
0.00231225
0.000705733
0.000845083
0.00104168
0.000925481
0.000748009
0.000957745
0.00192814
0.000828888
0.0010979
0.00110744
0.00146003
0.000836722
0.000783857
0.00288253
0.00089802
0.0009962
0.00178413
0.00612382
0.00237097
0.000796189
0.00311941
0.00174399
0.00247049
0.0038402
0.00199058
0.00605722
0.00346814
0.000807251
0.00346859
0.00180989
0.000831244
0.00261205
0.000892009
0.00286296
0.00566702
0.00078666
0.00503978
0.00128439
0.00202377
0.00131061
0.00151505
0.000507904
0.000822946
0.00347764
0.000933709
0.00175826
0.000550637
0.00082603
0.000635625
0.000200392
0.000465545
0.000767472
0.000524346
0.000687933
0.000615827
0.000384434
0.000746612
0.000604058
0.000390479
0.000605963
0.000473786
0.000514444
0.000588905
0.000602899
0.000217003
0.00029166
0.000618427
0.000563719
0.000601526
0.00217998
0.00272808
0.00200032
0.00283649
0.00304501
0.000769429
0.00383986
0.00160172
0.00289946
0.000842357
0.000848858
0.000661025
0.000521403
0.000637177
0.0004673
0.000651659
0.000675382
0.000584211
0.000651309
0.000337219
0.000618746
0.000205267
0.000667459
0.00280197
0.000906441
0.000848694
0.00339671
0.000857652
0.0018988
0.000834661
0.00719255
0.000772524
0.000562891
0.00253517
0.000832738
0.00149332
0.00209966
0.000782558
0.00245848
0.000729892
0.00126221
0.00295097
0.000831913
0.000559006
0.00232973
0.00215968
0.00103602
0.00102499
0.00272303
0.0047784
0.00191821
0.00174355
0.00215958
0.00443176
0.00631383
0.00266732
0.00278641
0.0027853
0.00273545
0.00511344
0.00605523
0.00267317
0.00536374
0.00207366
0.000453495
0.00622164
0.0026982
0.00274372
0.00560342
0.00548428
0.00269444
0.00393625
0.00352642
0.00120421
0.00595728
0.00556865
0.000568973
0.00709652
0.00686287
0.00179878
0.000761865
0.00581948
0.00638781
0.00536648
0.00681376
0.00564995
0.00436122
0.00457456
0.00436933
0.00481479
0.00454513
0.00284637
0.00302494
0.000551495
0.00357694
0.00216317
0.0027848
0.00241065
0.00112387
0.00295574
0.00245355
0.00246259
0.00262007
0.0024343
0.000747828
0.00107241
0.00214054
0.00207435
0.00264551
0.00257874
0.00391592
0.000519237
0.00287855
0.00283244
0.0010836
0.000801489
0.000839198
0.003552
0.00196705
0.00720099
0.00458841
0.000678035
0.000616815
0.000544466
0.00156955
0.00310144
0.000531719
0.00299083
0.00127026
0.0049059
0.00083718
0.004126
0.00179709
0.00151211
0.00446663
0.00273863
0.00265937
0.00215105
0.00162525
0.00691192
0.00289041
0.00118303
0.00110105
0.00185897
0.000743952
0.00190616
0.000792691
0.00299735
0.00340642
0.00139258
0.00288086
0.00224253
0.00273609
0.00258892
0.00421885
0.00115321
0.00285573
0.00530259
0.00187309
0.00397103
0.00289987
0.00498272
0.000822793
0.000749324
0.00297229
0.00346691
0.00527355
0.00416349
0.00365971
0.00422503
0.00702698
0.00222136
0.00274351
0.00366882
0.00272005
0.00595438
0.000552013
0.00762886
0.00480416
0.000796975
0.00604926
0.00143576
0.00341718
0.00042408
0.00107391
0.00494362
0.0029712
0.00198481
0.00356667
0.0029908
0.00103489
0.000759028
0.00681009
0.00269303
0.00451226
0.00398083
0.00248433
0.0015876
0.00682488
0.000739555
0.00284821
0.00264564
0.000673342
0.00709025
0.00263465
0.00740857
0.0029131
0.00145928
0.00588404
0.00301931
0.00264725
0.00096999
0.00283817
0.00079894
0.00184839
0.0028079
0.00109714
0.00348524
0.00213425
0.00078141
0.00217287
0.000800509
0.00554197
0.00252232
0.000848217
0.000771827
0.000762779
0.00293731
0.000786686
0.00560387
0.00073812
0.00068596
0.00237096
0.00175739
0.00144612
0.00405128
0.00382828
0.00726345
0.000795611
0.00127884
0.00714662
0.00202368
0.00165249
0.00710033
0.00199816
0.00517266
0.00187433
0.000743597
0.00266473
0.00358831
0.00409676
0.00650713
0.00131875
0.00150597
0.00180723
0.000959017
0.00501714
0.000935904
0.00114093
0.000887178
0.00651235
0.000805437
0.00661124
0.00157081
0.000595529
0.000806179
0.0018656
0.00571918
0.00128493
0.000731198
0.00105335
0.00137165
0.00334706
0.00640673
0.000807215
0.00713247
0.00433472
0.0032964
0.00282855
0.00445028
0.00759762
0.0013528
0.00245684
0.00133026
0.000760346
0.001104
0.00471632
0.00612344
0.000820897
0.000841161
0.00607044
0.00702459
0.00278876
0.0011669
0.00127562
0.00139914
0.000827895
0.00064588
0.000848177
0.00763093
0.00680809
0.00300738
0.000950754
0.000822377
0.00150465
0.00290655
0.000812384
0.000769942
0.00161707
0.00265916
0.00130243
0.00101052
0.00428966
0.000485799
0.000819598
0.00220213
0.00469032
0.00304759
0.00383967
0.00302143
0.00328624
0.00220514
0.00197656
0.00286487
0.00286353
0.00194511
0.00672659
0.00107162
0.00023591
0.000688416
0.000824849
0.000720058
0.00326651
0.00103888
0.000762473
0.0010121
0.000850161
0.00132751
0.00108838
0.00704169
0.000850476
0.00243059
0.00217387
0.000705714
0.0014532
0.00738595
0.00454294
0.000635422
0.00231679
0.00548701
0.000713275
0.00196547
0.000644438
0.00084043
0.000804739
0.00349993
0.00156944
0.000626176
0.006976
0.00491945
0.000685732
0.000481198
0.00298808
0.00062983
0.000700652
0.000716253
0.00409578
0.000765147
0.00126905
0.00332034
0.00699032
0.0011028
0.00286962
0.00504477
0.000687232
0.001689
0.000784485
0.000663497
0.000749876
0.000871522
0.00122807
0.000850554
0.00458464
0.000754575
0.000736064
0.000758379
0.00124775
0.000847712
0.00084506
0.000842998
0.000873056
0.00196481
0.00112875
0.0012021
0.0016892
0.0019094
0.000853996
0.0027731
0.000449464
0.0018784
0.000793264
0.000750732
0.00390867
0.00334923
0.000757826
0.00145255
0.000437173
0.000775598
0.00133513
0.00293176
0.00647464
0.000872204
0.000910257
0.000542923
0.000766784
0.0042216
0.00181623
0.00370186
0.000662337
0.00154115
0.000830211
0.0021577
0.00150006
0.000771135
0.000874468
0.000920448
0.000847836
0.000834588
0.000859703
0.00132772
0.00404398
0.000808953
0.00687275
0.00314939
0.000710137
0.00114255
0.000259326
0.00145889
0.00208431
0.00223144
0.00261209
0.00129363
0.000829489
0.000810743
0.00389712
0.00103723
0.00184947
0.000833699
0.000673492
0.000597022
0.000538675
0.000648933
0.000837459
0.000732321
0.000772112
0.00133177
0.000714677
0.00077696
0.00102925
0.00334945
0.0013631
0.00103067
0.000736947
0.000511531
0.00165235
0.000938413
0.00135898
0.00104632
0.00640488
0.00112101
0.000656504
0.00644699
0.000778465
0.000728408
0.000732345
0.000663869
0.00229366
0.000712089
0.00163664
0.00213268
0.00111362
0.000821124
0.00231031
0.00256841
0.00289656
0.000469429
0.00173641
0.00108198
0.00744198
0.0036905
0.00083779
0.000866725
0.00080683
0.00139754
0.00101382
0.00269501
0.00199554
0.00142254
0.000804477
0.000762727
0.000876422
0.00165103
0.00079286
0.00199462
0.00181036
0.00251968
0.00086383
0.000774826
0.00200457
0.00265337
0.00271097
0.000818581
0.00148609
0.00159473
0.00116447
0.00133359
0.00074656
0.00150141
0.00105348
0.00295946
0.00393086
0.000707278
0.000877028
0.00297833
0.0021364
0.000826004
0.00145913
0.00307168
0.00068839
0.00167217
0.00252573
0.000925782
0.00182854
0.00207126
0.00414138
0.00381031
0.000946961
0.000952151
0.000846728
0.00186989
0.00103402
0.000466766
0.00168579
0.000806548
0.00475562
0.00177233
0.00365835
0.00326371
0.00231518
0.000863798
0.000815457
0.00114145
0.00560219
0.000784644
0.00096651
0.000814928
0.00079515
0.00106184
0.00128088
0.000729874
0.00722434
0.000695429
0.00400108
0.000747708
0.000712535
0.000389251
0.000234109
0.00026699
0.000504259
0.00020094
0.000185567
0.00148109
0.00028242
0.000618771
0.00081983
0.000174874
0.00150408
0.000326156
0.00262002
0.00107179
0.0026319
0.000210615
0.00764249
0.000268777
0.00072704
0.00670553
0.00378691
0.00125666
0.000168147
0.0020104
0.0069181
0.00146972
0.00396792
0.00528283
0.00162102
0.00268824
0.0012835
0.000206218
0.000179184
0.000934496
0.000249358
0.00252393
0.00670353
0.00341395
0.00124712
0.000968013
0.00530974
0.00311458
0.000816777
0.000192577
0.000188009
0.00091434
0.00247293
0.000783313
0.0066712
0.0023188
0.00328663
0.000770526
0.000268959
0.00312328
0.000279635
0.00105491
0.000318331
0.000825053
0.00620285
0.00229534
0.000830067
0.00133755
0.00462706
0.000897359
0.00254882
0.000842647
0.000899877
0.00101757
0.000811718
0.00211778
0.0024876
0.000777157
0.0017722
0.00438695
0.000846043
0.00137933
0.00542868
0.00639767
0.000813345
0.000727943
0.000979832
0.00282789
0.00241862
0.0036615
0.00220081
0.00593305
0.00285874
0.00321944
0.00299335
0.0025594
0.00107973
0.00134322
0.00135614
0.002498
0.000645081
0.00264322
0.00615989
0.00536401
0.00287767
0.00285124
0.00111535
0.00486555
0.00279394
0.000837675
0.00386614
0.00242213
0.00123248
0.000774591
0.000803306
0.0015966
0.00527366
0.00254765
0.00305991
0.00555824
0.000751245
0.00373208
0.00171184
0.000624335
0.00501812
0.00392345
0.00157312
0.00287234
0.00202536
0.000789399
0.000546704
0.000750886
0.00487429
0.00451043
0.000846499
0.000798937
0.000783723
0.00160137
0.000775366
0.000777475
0.000840627
0.00522593
0.00117653
0.000798655
0.000817577
0.00208386
0.00082269
0.00319825
0.000276452
0.000783651
0.000791226
0.000802652
0.000277104
0.000772176
0.00218514
0.00121214
0.000752444
0.000327375
0.00102974
0.00103699
0.000796734
0.00428323
0.00254077
0.000743931
0.00189301
0.000771523
0.000534445
0.000246411
0.00120229
0.000833439
0.00201903
0.00245174
0.00192594
0.000318569
0.000793956
0.000922259
0.000511544
0.000865356
0.00280828
0.000935118
0.00137192
0.000809292
0.00102803
0.00480275
0.00347659
0.000694759
0.00188335
0.0009005
0.00258365
0.0023338
0.00103472
0.00079884
0.00263083
0.00247306
0.000790656
0.000285806
0.000953525
0.000270911
0.0024607
0.00232811
0.00258105
0.00358883
0.00078841
0.000486269
0.0012807
0.00467177
0.000461496
0.000943566
0.000763083
0.00102273
0.00292703
0.000504289
0.00163607
0.00112417
0.00538889
0.00785144
0.00173439
0.000800747
0.000824587
0.000336431
0.00173958
0.000822666
0.00301582
0.000719528
0.00157313
0.00397165
0.00183127
0.00204617
0.00461684
0.00115759
0.000515462
0.000836984
0.00136582
0.000235502
0.000913198
0.00167783
0.00722013
0.00162084
0.0007674
0.000590056
0.00164093
0.000289452
0.000840553
0.00258779
0.00532863
0.000840691
0.000839767
0.000839722
0.000789573
0.000479882
0.000575012
0.00426621
0.000617715
0.00327767
0.000745768
0.00154384
0.0035176
0.000828424
0.00313924
0.00377402
0.000591873
0.000856265
0.00201992
0.00217825
0.000870505
0.00031383
0.00468827
0.0051996
0.000904687
0.00374817
0.000852979
0.000739895
0.00330398
0.00353638
0.00217696
0.00203864
0.00510848
0.000883061
0.000852062
0.00156524
0.00607321
0.000842406
0.000819706
0.00155524
0.00569004
0.000759305
0.00219771
0.00166496
0.00274571
0.000734662
0.00177491
0.00158711
0.00261487
0.00651963
0.000473485
0.000386229
0.00434448
0.000745879
0.000913075
0.000747561
0.000773807
0.000844433
0.000908227
0.00222532
0.00080061
0.000943352
0.00025712
0.00624294
0.00113359
0.000883451
0.0025039
0.0016518
0.00244352
0.00324162
0.00156999
0.0018537
0.00195473
0.00368512
0.00117994
0.00115546
0.00268251
0.000731343
0.00105318
0.000776432
0.000791833
0.00218156
0.00333461
0.00664488
0.00216584
0.000622134
0.00543486
0.0017551
0.00132486
0.00316549
0.00360366
0.00415128
0.00077053
0.000844321
0.00311436
0.00235785
0.00146428
0.00479025
0.00269804
0.00266258
0.00100704
0.000830094
0.000730077
0.000815763
0.000871936
0.00111156
0.000840251
0.00101473
0.000584882
0.000825545
0.000825854
0.000964882
0.00308555
0.00274604
0.00578446
0.00504507
0.00747448
0.00225478
0.00271385
0.00116306
0.00382218
0.000863529
0.0012826
0.000845911
0.0021435
0.00435911
0.00154278
0.00119131
0.00520561
0.000785808
0.00414392
0.00473034
0.00743834
0.0062193
0.00491488
0.000775014
0.00238248
0.00793602
0.000845785
0.000784873
0.000734159
0.00338739
0.00158969
0.000817926
0.0028687
0.00429197
0.00170174
0.00244806
0.00117845
0.000304014
0.00300838
0.00793335
0.00312008
0.002442
0.00103803
0.000855404
0.00368088
0.00152968
0.00253018
0.00256096
0.00188399
0.00168849
0.00075889
0.0011109
0.00209442
0.000820116
0.00103294
0.000876378
0.0007329
0.00089737
0.00255877
0.000840509
0.000231386
0.000827637
0.00186832
0.000802734
0.000894162
0.000942453
0.000920645
0.000683283
0.00169208
0.0017626
0.00276273
0.0016779
0.00211968
0.00085863
0.000946121
0.00269788
0.00175097
0.00285069
0.000728283
0.00289679
0.00300271
0.0023997
0.000771013
0.000752578
0.000826344
0.000696419
0.00094771
0.00101135
0.000825025
0.00108059
0.00186008
0.00193841
0.00314335
0.000922284
0.000803742
0.0078139
0.000788609
0.00202393
0.00251794
0.00281764
0.000812856
0.0010287
0.00184741
0.000843089
0.000570092
0.000784771
0.000918659
0.00150059
0.00138164
0.00204433
0.00557305
0.00124406
0.0011906
0.00105363
0.000677718
0.000788183
0.00119124
0.000837196
0.0008336
0.00134336
0.00335746
0.00157596
0.000878618
0.000911454
0.000914715
0.000793357
0.00314627
0.00326465
0.00468272
0.00787637
0.000741892
0.000665331
0.00465549
0.00809422
0.00519085
0.00802302
0.0033332
0.000804035
0.000759062
0.0011418
0.000738681
0.000911845
0.00105604
0.00164316
0.000822814
0.000923065
0.00112994
)
;

boundaryField
{
    frontAndBack
    {
        type            empty;
    }
    wallOuter
    {
        type            nutkWallFunction;
        Cmu             0.09;
        kappa           0.41;
        E               9.8;
        value           nonuniform List<scalar> 
90
(
8.25538e-05
7.67381e-05
7.78003e-05
7.56467e-05
8.26055e-05
8.43852e-05
8.62207e-05
9.40898e-05
8.00397e-05
8.85265e-05
9.11029e-05
9.50956e-05
9.02237e-05
9.30715e-05
9.20673e-05
0.000104346
9.97344e-05
8.12091e-05
7.21949e-05
6.52278e-05
7.83283e-05
0.000100166
8.80663e-05
9.26754e-05
8.00835e-05
0.000112596
0.000113037
8.77806e-05
8.36649e-05
4.52517e-05
2.60415e-05
3.06228e-05
5.99942e-05
2.26152e-05
2.11885e-05
1.98114e-05
2.46523e-05
3.19825e-05
8.76229e-05
1.88892e-05
2.40984e-05
2.0451e-05
0.000111619
2.90546e-05
2.23304e-05
2.17411e-05
3.35501e-05
0.000125136
3.81312e-05
0.00010697
0.000116214
7.77303e-05
7.54318e-05
9.58549e-05
9.816e-05
3.29759e-05
3.93956e-05
0.000122272
0.000122514
8.94115e-05
6.47211e-05
2.93301e-05
3.81532e-05
0.000110053
9.69326e-05
8.36291e-05
0.000107297
3.38134e-05
0.000113624
3.25046e-05
6.23617e-05
2.71796e-05
9.2058e-05
3.47017e-05
0.000100848
7.46075e-05
7.15827e-05
0.000103931
3.74618e-05
0.000108028
5.73349e-05
0.000112463
3.0046e-05
7.51712e-05
7.02701e-05
3.64305e-05
0.000100801
2.66357e-05
8.23551e-05
8.38906e-05
)
;
    }
    inlet
    {
        type            calculated;
        value           uniform 0.000851986;
    }
    outlet
    {
        type            calculated;
        value           nonuniform 0();
    }
    wallInner
    {
        type            nutkWallFunction;
        Cmu             0.09;
        kappa           0.41;
        E               9.8;
        value           nonuniform List<scalar> 
138
(
0.000102182
4.93467e-05
0.000220097
0.000122019
0.000111817
5.90727e-05
0.000259647
0.000149864
0.000108985
0.000102995
0.000137601
0.000119846
7.90917e-05
3.66079e-05
5.47832e-05
6.61129e-05
4.6036e-05
4.91111e-05
7.48516e-05
8.00803e-05
0.000238612
0.000128636
6.65893e-05
0.000132415
0.000129593
0.000127379
0.000121317
0.000126249
0.000121004
0.000129404
0.000130462
5.83577e-05
6.48144e-05
7.80987e-05
2.27701e-05
5.68875e-05
9.34768e-05
6.46998e-05
8.4433e-05
7.51951e-05
4.75284e-05
9.0987e-05
7.43787e-05
4.58927e-05
7.33987e-05
5.78372e-05
6.3403e-05
7.25556e-05
7.3811e-05
2.48292e-05
3.32638e-05
7.6062e-05
6.91922e-05
7.35911e-05
7.94014e-05
6.41862e-05
7.82306e-05
5.61748e-05
8.00931e-05
8.26596e-05
7.15993e-05
7.9296e-05
4.11824e-05
7.53096e-05
2.33571e-05
8.20681e-05
6.87625e-05
6.79411e-05
0.000121481
5.54396e-05
0.000140748
6.84486e-05
9.24221e-05
6.72436e-05
0.000126761
6.34049e-05
0.000128007
8.22769e-05
7.4571e-05
6.63702e-05
6.48592e-05
0.000148638
0.000174852
0.000137939
0.000128623
0.000161914
6.78911e-05
5.2081e-05
0.000126743
0.000122397
8.26304e-05
8.29577e-05
7.20325e-05
7.73541e-05
6.03469e-05
2.72324e-05
8.45632e-05
5.93876e-05
7.62053e-05
8.28004e-05
0.000134738
5.4983e-05
5.34818e-05
6.66801e-05
0.000109737
3.02807e-05
9.02325e-05
0.000131964
8.03825e-05
5.76176e-05
5.72227e-05
0.000125404
3.3562e-05
7.59497e-05
3.91137e-05
0.000114952
9.26396e-05
3.13253e-05
0.000106287
0.000120845
6.70184e-05
3.20191e-05
9.39909e-05
6.273e-05
5.9686e-05
5.64881e-05
9.87572e-05
3.96609e-05
5.89297e-05
7.04812e-05
4.61355e-05
8.02308e-05
0.000134461
8.87935e-05
0.000110195
0.000188912
9.78689e-05
0.000134249
)
;
    }
    procBoundary0to1
    {
        type            processor;
        value           nonuniform List<scalar> 
29
(
0.00344751
0.00351697
0.00374253
0.00374253
0.00507424
0.00507424
0.00296107
0.00147187
0.00189234
0.00401119
0.00249933
0.00193498
0.00137657
0.00107394
0.0023104
0.00131345
0.00784084
0.00581239
0.00495927
0.0035427
0.000880734
0.000737931
0.00320214
0.000742913
0.000725176
0.00581239
0.000731425
0.000909775
0.000742913
)
;
    }
    procBoundary0to2
    {
        type            processor;
        value           nonuniform List<scalar> 
42
(
0.00668521
0.00407639
0.00121709
0.000964829
0.00173458
0.00668521
0.00121709
0.00152189
0.00169119
0.00146339
0.00243828
0.00329438
0.00243828
0.00354277
0.00348922
0.00702865
0.00348922
0.0012685
0.001673
0.00410651
0.00410651
0.0012685
0.00111797
0.00428002
0.00428002
0.000872623
0.00615336
0.000754706
0.00735235
0.00378741
0.00378741
0.000767941
0.000842151
0.000910318
0.000976159
0.00121709
0.00298416
0.00029479
0.00735235
0.00152189
0.00138632
0.00113508
)
;
    }
}


// ************************************************************************* //
