/*--------------------------------*- C++ -*----------------------------------*\
| =========                 |                                                 |
| \\      /  F ield         | OpenFOAM: The Open Source CFD Toolbox           |
|  \\    /   O peration     | Version:  v1912                                 |
|   \\  /    A nd           | Website:  www.openfoam.com                      |
|    \\/     M anipulation  |                                                 |
\*---------------------------------------------------------------------------*/
FoamFile
{
    version     2.0;
    format      ascii;
    class       volScalarField;
    location    "0.16";
    object      k;
}
// * * * * * * * * * * * * * * * * * * * * * * * * * * * * * * * * * * * * * //

dimensions      [0 2 -2 0 0 0 0];


internalField   nonuniform List<scalar> 
5794
(
0.219561
0.156488
0.415082
0.175952
0.217347
0.130153
0.319959
0.0595083
1.26162
0.305381
0.719906
0.0908493
0.0502264
0.107837
0.174367
0.0909682
2.45459
0.0878824
0.164939
0.143912
1.30585
0.13365
0.14128
0.126099
0.113263
2.56901
1.8672
0.21851
0.199762
0.311683
0.0562109
0.301075
0.0561562
0.140834
0.138047
0.125294
0.196809
0.129051
0.0500532
0.549869
0.476462
0.152066
0.297137
0.253224
0.173574
0.0553422
0.32285
0.0436357
0.260433
0.636892
0.0521175
0.289496
0.331033
0.204744
0.0154745
0.228474
0.407401
0.0756718
0.234993
4.27144
0.965116
0.0667449
0.0617471
0.600721
0.0607315
0.0639294
1.13063
0.325987
0.110622
0.104945
0.4345
1.15689
1.70531
0.349758
0.0993459
0.219916
0.11401
2.0072
0.268889
0.0270333
0.143345
0.137641
0.461666
0.054679
0.119295
0.102465
0.193977
0.30297
0.154763
0.10297
0.465774
0.182074
0.171977
0.433115
0.134732
0.227606
0.411701
0.153147
0.173445
1.05983
0.985727
0.175272
0.280817
0.171004
0.127807
0.128929
0.0887825
0.0736871
0.333569
0.285334
0.0594692
0.232409
1.13009
0.0550801
0.132044
0.307281
0.188959
0.147472
0.880313
0.501014
0.15065
0.123159
0.0597764
0.231724
0.325779
2.35699
0.125468
0.139908
0.16791
0.261474
0.0975831
0.0482248
0.258524
1.87472
0.196065
0.189419
2.04332
0.0659879
0.0589639
0.13749
1.36456
0.17312
0.302773
0.20764
0.0887805
2.92817
0.0948314
0.973288
0.140352
0.174652
0.325736
0.189076
0.155057
0.0868205
2.47889
0.250491
0.0440261
0.0627353
0.0925454
0.122425
0.225335
0.0545201
0.0877486
0.0839632
0.166367
0.0925101
0.111304
0.0502357
0.0572885
0.160477
0.171049
0.192485
0.0780788
0.110861
0.106039
0.180111
0.173235
0.0716015
0.113807
0.901065
0.0420463
0.343786
0.0341486
0.040184
0.0436757
1.41745
0.192982
0.0539185
0.105438
0.14612
0.873758
0.277007
0.0436351
0.0415989
0.0441134
0.0809861
0.04199
0.0720529
0.153812
0.305739
0.247709
0.411386
0.0357742
0.0726281
0.288454
0.0409439
0.0699186
0.110687
0.157156
1.28776
0.278268
0.311963
0.139923
0.0723625
0.123481
0.109774
0.15951
0.201988
0.374797
1.12805
0.305748
0.0876483
0.827545
0.204093
2.03406
0.579126
0.274463
0.366746
0.119267
0.187836
0.081224
0.117091
0.102447
0.257145
0.121709
0.321522
0.248894
1.65873
0.0582332
0.131245
0.147067
0.183657
1.2065
0.154639
0.1171
0.057485
0.187377
0.107867
0.311321
0.104624
0.15023
0.0642473
2.64879
0.0628089
0.204293
0.27501
0.324159
0.450024
0.122651
0.383074
1.75055
0.156695
0.0617916
0.0454598
0.22099
0.0512856
0.17846
2.47115
0.26002
0.0510107
0.336223
0.0484956
0.203846
0.234631
0.401144
0.178325
0.212731
1.1774
0.14918
0.0753924
0.0629245
0.404023
0.422168
0.138846
0.141523
0.254049
0.355917
0.218819
0.527642
0.215907
0.123784
0.133684
0.116357
0.208716
0.197697
1.74475
0.218177
0.155134
0.0901856
0.050169
0.130374
0.825576
0.129988
1.49299
0.106839
1.95678
0.141121
0.120532
0.0606466
0.271731
0.0538705
0.360946
1.5552
0.0535161
0.292527
0.598947
0.0688223
0.183476
0.330192
0.124378
0.269632
0.489939
0.145756
0.15327
0.0868844
0.0610969
0.329835
0.0856007
0.0458218
0.548207
0.646099
0.303571
0.0487577
0.0511392
0.248651
0.167511
0.143964
0.0668168
0.109919
0.0567356
0.120544
0.0888224
1.1086
0.147879
0.178736
0.0350857
0.0441098
0.437795
0.110671
0.143907
0.0616449
1.3352
0.0392986
0.290633
0.0356081
0.916258
0.134473
0.188409
0.28194
0.0466146
0.0890371
0.122804
1.9516
0.301216
0.0598398
0.106796
0.118901
0.0729499
0.313394
0.0332789
0.1211
0.0373391
0.112065
0.195021
0.0835724
0.299805
0.335667
0.347002
0.121268
0.0748937
0.570291
0.129175
0.323403
0.114931
0.110764
0.136354
0.486597
0.326146
0.0924152
0.181339
0.0664854
0.0679965
0.114025
0.0807274
0.0731277
0.108145
0.0941555
0.160578
0.351607
0.162423
0.119127
0.102907
0.782182
0.0398077
0.0893353
2.16531
0.342981
0.140781
0.12868
0.480271
0.144554
0.193562
1.00297
0.173196
0.0386647
0.272607
0.0348413
0.147209
0.211543
0.390967
0.170006
0.148128
0.109722
0.118992
0.0835695
0.0864529
0.113317
0.0573652
0.146441
0.150494
0.977722
0.224805
0.208603
1.56641
0.155963
0.195323
0.102567
0.0495879
0.0943774
0.0740523
0.117169
0.26966
0.0449765
0.0542082
0.973518
0.368033
0.13678
0.0516763
0.161115
1.88837
0.151294
0.124796
1.90488
0.147674
0.144625
0.0408587
0.441774
0.579339
0.203276
0.510582
0.173624
0.109128
0.572449
0.0720699
1.16775
0.296635
0.564284
0.347001
0.625856
0.259546
0.0279118
0.208089
1.50282
0.132671
0.283146
0.850462
0.66418
0.188121
0.111036
0.109412
0.703044
0.176714
0.144224
0.119298
0.0726819
0.594776
0.310241
0.715646
1.21501
0.161309
0.119281
0.155366
0.15543
0.111817
0.483846
0.110485
0.210621
0.118029
0.0453113
1.99583
0.208083
0.444151
0.267909
0.0724254
0.218418
0.107146
0.15475
0.659156
1.2758
0.0574597
0.285494
0.130866
0.471356
0.0442477
0.0521584
0.139633
0.218845
0.044346
0.222554
0.747625
0.138462
0.10083
0.253502
0.253734
0.411301
0.155992
0.11324
1.49607
0.129333
0.138255
0.647246
0.0357792
0.530409
0.119384
0.107357
0.238956
0.240642
2.3709
0.323314
1.42664
0.135651
1.91358
0.140443
0.110757
0.216134
0.0813583
0.214191
0.197129
0.0489613
0.149328
0.216445
0.108497
0.166032
0.160399
0.16215
0.285693
0.569673
0.137639
0.134302
0.250601
3.54808
0.171915
2.63515
0.192286
0.115252
0.304033
0.0993741
0.95935
0.118181
0.0506364
1.29434
0.235989
0.59643
0.229134
0.650402
0.289608
0.293222
0.143323
0.155392
0.267422
0.192341
0.234413
0.368498
0.429137
0.240999
0.962515
0.0601469
0.135568
0.243096
0.507507
0.0545775
0.134871
0.0702882
0.231521
0.213123
1.25449
0.0531474
0.293627
0.047463
0.291214
0.170537
1.44819
0.172472
0.280428
0.0471358
0.434397
2.93155
0.170598
0.0194726
0.443937
0.362133
0.370878
0.223076
0.329148
0.0448598
0.0527449
1.82017
0.103728
0.330527
0.126596
0.0712111
2.1045
2.42572
0.0787954
0.0699381
0.161484
0.200182
0.314935
0.195726
0.0534313
0.185554
0.127776
0.0457837
0.135384
0.103464
0.140952
2.19888
0.487128
0.112406
0.214127
0.127507
0.383149
0.2478
0.265244
2.03559
0.338559
0.225592
0.761087
0.129652
0.0636118
0.114194
0.099125
0.139363
0.108631
0.0581972
1.90453
0.965493
0.118036
0.739695
0.0996458
0.101572
0.147075
0.172784
0.850329
0.112308
0.217516
0.479024
0.256387
0.367324
0.295934
1.57003
0.153768
0.744153
0.291676
0.115886
0.176009
0.335711
0.26189
0.233103
0.104505
0.12666
0.140078
0.133842
0.0591155
0.128431
2.08074
0.11605
0.107893
0.158806
0.0473885
0.637597
0.491744
2.387
0.161499
0.193574
1.35071
0.0744736
0.1125
0.1077
0.290139
0.1399
0.0522652
0.0362641
0.488217
0.246192
1.28723
0.276335
0.130521
0.154502
0.287076
0.625311
0.565059
0.216739
0.0968974
1.20733
0.373768
0.26859
1.44073
2.49857
0.8134
0.136905
1.84677
2.38023
0.0958697
0.227523
0.147085
0.373726
0.507
0.261391
0.646692
0.144499
1.74047
0.488867
1.89329
0.201267
0.31941
1.40348
0.482182
0.180941
0.164202
0.450739
0.103192
0.104749
0.165013
0.0775545
0.231551
0.37512
0.983808
0.422526
0.283271
0.134256
0.0982361
0.117381
0.0424455
0.161148
0.265594
0.206374
0.452246
0.138141
0.265443
0.419655
0.382224
0.169477
0.213428
0.426312
0.252524
0.393791
0.356724
0.21604
0.134509
0.231443
0.473633
0.285026
0.150684
0.135484
0.0726203
0.149277
0.126931
0.151951
0.145891
0.096549
1.1532
0.515824
0.164406
0.114097
0.181509
0.341773
0.0827864
0.205309
0.243006
0.0682098
0.432217
0.0982595
0.890492
0.0898511
0.386119
0.126635
2.5726
0.152824
1.89246
0.301651
0.0716295
0.796871
0.074043
0.137817
0.199305
0.113041
0.145646
1.8817
0.531561
0.171341
1.27185
0.147099
0.665437
0.964892
0.090001
0.1161
0.11234
0.223627
0.136541
0.14273
0.522337
0.91492
0.616086
0.0506775
0.386562
0.180975
0.137193
0.16805
0.253767
0.139722
0.472409
0.283075
0.101604
0.095777
0.142151
0.0887545
1.91896
0.0799239
0.114361
0.163997
0.107435
0.75684
0.135362
0.506952
0.0481591
1.22094
0.222784
0.316499
0.458416
0.180379
0.302636
0.253982
0.47125
2.43247
2.11292
0.731621
1.29849
0.0519293
0.0669358
0.203918
0.169267
0.221541
0.107701
0.666089
0.257758
2.74473
0.654964
0.0988716
0.0949729
0.0715732
0.348541
2.49857
0.13857
4.46487
0.170506
0.132488
1.92157
0.402476
0.229877
0.0688144
0.141711
0.205618
0.340179
0.0679325
0.125059
0.905261
2.39033
0.3007
0.299367
1.96106
1.41059
0.199341
0.390684
1.50954
1.1348
0.19014
0.157533
0.121363
0.266999
0.0538803
0.115645
0.110029
0.1383
1.70467
0.0657289
0.25455
0.0583064
1.11563
0.577139
0.406627
0.273252
0.391716
0.454489
0.713118
0.139195
0.201408
0.234876
0.0628332
0.708926
0.733903
1.60919
0.255507
0.242635
0.234706
0.191648
0.112348
0.448198
0.309711
0.102589
0.0913419
0.13257
0.124327
0.107692
0.756161
0.196108
0.0871237
0.380943
0.170581
0.14842
0.176593
0.329245
0.132451
0.141963
0.126838
0.0519513
0.233014
0.133817
2.11475
0.246739
0.106228
1.51696
0.119267
0.16006
0.351463
0.557544
0.305101
0.223526
0.480959
1.78012
0.184935
0.297277
0.0752986
0.0394875
0.034781
0.0675318
0.0619738
0.446529
0.0553409
0.0523186
0.112252
0.0734425
0.264559
0.0818453
0.216682
0.14787
0.0559326
1.24159
0.299678
0.153263
0.141051
0.0837432
0.065377
0.194524
0.199769
2.22977
0.0592237
1.18041
1.35121
0.0754845
0.304303
0.818901
0.0575775
0.291832
1.59188
0.431132
0.321526
1.53446
0.0510441
0.318528
0.542688
0.145946
0.55654
1.29355
0.132372
0.477549
0.16368
0.135748
0.0607646
0.0847319
0.429558
0.931805
0.826067
0.691974
0.25939
0.0372404
0.200534
0.268453
0.253415
0.164242
1.05513
0.0787279
0.151552
0.117358
0.793622
0.3031
0.228635
0.200666
0.269172
0.197079
0.205554
0.288696
0.0446462
0.125948
0.193438
0.17945
0.214373
0.558465
0.0929641
0.274558
1.0834
0.0505789
0.147526
0.0880344
0.33277
0.0785929
0.0518395
0.100894
0.0564016
0.311452
0.0736138
0.0843857
0.323559
0.293441
0.0648374
0.110124
0.190493
0.0507293
1.84792
0.490822
0.136022
0.0983715
0.454446
0.0688733
0.0607451
0.309299
0.0772305
0.0695321
0.116417
0.115028
0.0914184
1.1745
0.568834
0.273877
0.25647
0.202406
0.0762965
0.0690221
0.30884
0.129111
0.483926
0.123308
0.0856127
0.599404
0.0361045
0.195092
0.168919
1.81249
0.159566
0.417789
1.49907
0.0417581
0.670947
0.856716
0.0332127
0.291931
0.113217
0.619719
0.647174
0.0373119
0.687485
0.041128
0.0403156
0.484779
0.105566
0.159955
0.172743
0.0743181
0.258349
0.195624
1.73291
0.14128
0.120653
0.0967775
0.199246
0.084045
0.414656
0.0763179
0.568191
0.250297
0.45307
0.401545
0.220979
0.0575385
0.0811137
0.115717
0.432313
0.132999
0.239058
0.630439
1.29425
2.20589
0.514607
0.518274
0.270966
0.268719
0.313882
0.0732952
0.0925146
0.0516752
9.00003
0.707446
0.0498017
0.0846464
1.82629
1.70559
0.269666
0.135243
0.0933989
0.124713
1.65885
0.0530408
0.335999
0.406352
0.341195
0.180902
0.941964
0.243144
0.0541826
0.34726
0.744388
0.0889174
0.596443
0.119448
0.942425
0.14939
0.386948
0.121265
0.0602372
0.19173
0.502516
0.292553
0.391689
0.334056
0.195744
0.0991182
1.14615
0.130681
0.299139
0.213209
0.123197
0.157232
1.48499
0.167189
1.54022
0.0815561
0.362797
0.252562
0.297096
0.307657
0.244158
0.0487362
0.149117
0.322778
0.573698
0.0513335
0.0812932
0.0513495
3.54575
0.0484094
0.0932605
0.230091
0.121815
0.116399
1.25811
0.159205
0.236388
0.125163
0.112439
0.181307
0.345747
0.332577
0.153076
0.0772365
0.0772469
0.0693293
1.96018
0.152063
0.337133
0.281677
0.0424774
0.0823342
0.0557491
0.82424
0.0577008
0.0258373
0.411597
0.657578
0.129447
0.0387269
0.230024
0.180194
0.631886
0.270507
0.624133
0.087607
0.0555129
0.0801875
0.340612
0.151073
1.00772
0.0783896
0.057582
1.6094
0.304589
0.049722
0.0488471
0.337508
2.1992
0.0966133
0.0378452
0.211085
0.119832
0.11571
0.269846
0.338848
0.231461
0.0522814
0.224709
0.233845
1.27942
0.459828
0.37329
2.12385
0.197979
0.131216
0.17247
0.0878695
0.727701
0.342391
0.155541
0.74827
0.257445
1.29942
0.619116
0.378568
0.315753
0.140222
0.353183
0.0587698
0.724161
0.48572
0.376006
0.39856
0.196664
0.477597
0.630018
0.169007
0.0659963
0.0567136
0.257602
0.532472
0.060436
0.750398
1.32224
0.293942
1.93621
2.02353
0.176589
0.0606996
0.878475
0.153036
1.80546
1.09396
0.123587
0.112212
0.065346
0.16855
0.0807968
0.288176
0.0822992
0.22559
0.0901011
0.123218
0.106932
0.845462
0.286105
0.627806
0.579228
1.21598
0.278128
0.0316765
0.467372
0.124525
0.387635
0.124717
1.14767
0.0710762
0.738294
0.0701261
0.14946
0.301547
0.205075
0.517666
0.289691
0.172353
0.0553058
0.456667
0.182697
0.166937
0.339219
0.127134
0.052805
0.358152
1.17161
0.0501804
1.08734
0.260902
0.0633482
0.0758707
0.11033
0.195841
0.0650444
0.263711
0.517769
1.7988
0.238002
0.052864
0.655963
0.121404
0.0897149
0.437575
0.0952852
1.24705
0.118605
0.0913226
0.0764457
0.180327
5.0336
0.323286
0.12845
0.379207
0.400797
2.1855
1.31291
0.0554459
0.0393155
0.0495597
0.0408996
0.0312306
0.0893009
0.0788108
0.0354429
0.121007
0.0337176
0.0434844
0.505979
0.235142
0.0327976
0.0567297
0.0313554
0.105401
0.0869881
0.0898445
0.20927
0.264904
0.0597357
0.0835431
0.0314995
0.0397882
0.181839
0.904107
0.205945
0.0322039
0.0383785
0.253753
0.625295
0.0470246
0.0432443
0.0527865
0.0396626
0.0358082
0.0565013
0.0464046
0.0312811
0.0797543
0.0355238
0.799012
0.224655
0.125897
0.0570068
0.32187
0.0769753
0.234459
1.15127
1.54084
0.17238
0.145218
0.0522833
0.508765
0.144412
1.49021
0.118868
3.19367
0.313818
2.13159
1.24942
0.0884306
0.0850118
0.054207
0.607319
0.122907
0.432822
0.0700173
0.357088
0.275356
0.201538
0.769041
0.128455
0.788943
0.266247
0.647722
4.11194
0.106595
0.450778
0.196648
0.34554
0.149343
2.02586
1.92978
0.120015
2.05358
0.165794
0.975637
0.0629237
0.120012
0.327887
0.362145
8.04102
0.0895682
0.192234
0.0967787
0.0875174
0.205647
0.121549
2.78217
0.0965525
0.0400018
0.0324489
0.0797176
0.0634868
0.0412406
0.0974881
0.0316925
0.0404576
0.0497481
0.0306078
0.241896
0.723423
0.0339356
0.206963
0.131027
0.224463
0.378167
0.0714366
0.0709501
0.0354839
0.0411472
0.0579796
0.0527628
1.16916
1.24097
0.0286245
0.476494
0.515995
0.362254
0.178127
0.0488398
2.09881
0.136825
0.146348
1.92131
0.24811
0.65306
0.040581
0.248737
1.56263
0.152531
0.530408
2.05235
0.196002
0.0479163
0.130058
1.25816
0.133944
0.120122
0.568367
2.63772
0.173092
0.161416
0.0603006
0.090723
0.106346
0.10406
0.234312
0.108053
1.26084
0.0392717
0.684978
0.189375
0.0542903
0.062479
0.108996
0.0601568
0.0922869
0.0740957
0.085371
1.10154
0.315582
0.135591
0.412418
0.518395
0.312603
0.457708
0.0369061
0.28003
0.623789
0.0883419
1.7906
0.152607
0.0663096
0.220719
0.949174
0.138916
0.307981
0.0835642
0.0475135
1.01519
1.05197
0.0494208
0.0996183
0.0994603
0.0313873
0.286121
0.975517
1.06124
0.335257
0.119829
1.09986
0.0500134
0.147402
0.30006
0.194515
0.156057
0.266083
0.0852385
0.82384
0.0529635
0.359334
0.186802
0.094432
0.260158
0.0955339
0.126244
0.159355
0.0810464
0.0681164
0.0630822
0.112184
1.1367
0.121795
0.165715
0.78446
0.208688
0.618683
0.227597
0.727165
1.93201
1.93065
0.563491
0.147312
0.172465
1.14336
0.1761
1.44474
0.919567
2.05098
0.22548
1.18993
1.1854
0.546886
0.057015
0.141542
0.269424
0.829388
0.0935443
0.255222
0.80769
2.00109
0.253891
0.426709
1.22731
0.620266
0.111509
0.399384
0.0844917
0.0570203
0.429198
1.48292
0.10411
0.0550039
0.392272
0.115211
0.122535
0.780107
0.687694
0.108558
0.737643
0.148741
0.0998579
0.100985
0.0981297
0.658858
0.53492
0.105792
0.618835
0.0959068
0.107883
0.098258
0.065796
0.0632471
0.149962
0.781838
0.0739936
0.131912
0.111531
0.0951793
0.0375179
0.124619
0.350277
0.235254
0.323529
0.157491
0.112397
0.780035
0.277336
0.743674
0.873304
0.0948322
0.128785
0.0883633
0.543048
0.415366
1.13486
1.93903
0.702789
0.601625
0.107381
1.06447
0.0925926
0.782195
0.129951
0.635814
0.122918
0.0414094
1.08611
0.181649
0.0754708
0.130106
0.0692873
0.159072
1.97119
0.210666
0.216714
0.446165
0.091828
1.53899
0.315561
0.134752
2.04017
0.267759
0.325923
0.23461
0.156124
0.291814
0.553699
0.103878
2.36748
0.148962
0.0969143
2.05653
0.449454
0.658211
0.348787
0.220256
0.239736
0.676438
0.0910561
2.00039
0.176357
0.0936333
0.0766978
0.271104
0.534298
0.137063
0.0872224
0.452307
0.0836091
0.229057
1.86319
0.532588
0.301954
0.42098
0.258699
0.100186
0.218386
0.131884
2.25091
0.0859771
1.76318
0.199478
0.11285
0.146428
0.461704
1.69299
0.2723
2.0643
0.407928
0.746588
0.163346
0.136751
0.286127
0.0575838
0.0549416
0.997279
0.687508
0.808279
0.698722
1.19084
0.816657
0.478446
0.70921
0.952307
0.157818
0.0953966
2.55525
0.136714
0.355171
0.0542946
0.441629
0.60017
0.621458
0.443812
0.172152
1.10814
0.143045
0.768986
0.225434
1.31467
0.0765288
0.66462
0.333311
0.132753
0.141418
0.133839
0.225265
0.144039
1.14335
1.29765
0.210222
0.162262
0.817932
0.685604
0.572921
0.396466
0.0595574
0.0550849
1.10847
0.0595656
0.755556
0.229965
0.0768905
0.345416
0.218829
0.171653
1.44589
0.273731
0.129548
0.12587
1.55771
0.965864
0.517893
0.839559
0.132638
0.454895
0.228769
0.171558
0.91918
0.366293
0.326351
0.118632
0.360781
0.206278
0.138255
0.200703
0.563272
0.40825
0.103349
0.520872
0.168865
0.305701
0.146742
0.135723
0.398943
0.377577
0.37353
0.150558
0.149925
0.640166
0.191926
0.399223
0.0688703
0.657713
0.0559136
0.359664
0.0920151
0.0502323
1.00572
0.0544263
0.0679777
0.207379
0.0734042
0.687768
0.219928
0.181441
0.319364
1.07166
0.294543
0.070822
0.194001
0.782587
0.115659
0.148416
0.146285
0.0667212
0.0675352
0.050557
0.960697
0.788939
0.117608
0.161856
0.109248
0.187674
0.368384
0.0750506
0.0603029
0.294986
0.33618
0.103029
0.12356
0.0716781
0.363178
0.0632108
0.0709511
0.132672
0.949078
0.0605326
0.198052
1.30755
0.379595
0.168958
0.541724
1.0446
0.406845
0.113121
0.126301
0.323311
0.371178
0.215884
0.145999
0.289771
0.0858251
0.0819345
0.134027
0.416326
0.0622221
0.0771974
0.09373
0.43785
0.152635
0.215305
1.21881
0.0726972
1.02031
0.729699
0.55243
0.236373
0.0626422
0.129472
0.421608
0.12531
0.177961
0.228349
0.119044
0.0852843
0.0813712
0.110446
1.14104
0.191637
0.0836759
0.857134
0.402647
0.198616
0.212859
0.226091
0.18568
0.507993
0.521403
0.670133
0.586146
0.117354
0.115374
0.628276
0.302327
0.0891934
0.0803436
0.444616
0.0578879
0.0850807
1.07629
0.124432
0.0822581
0.164108
1.28926
1.44618
1.582
0.466743
0.256655
0.820266
0.696345
0.0602573
0.800194
0.644587
0.877841
0.868816
0.206675
0.357607
0.84272
0.13553
0.118269
0.161363
0.177494
0.102552
0.372359
0.216844
0.54876
0.210836
0.128827
1.13817
0.155759
0.383621
0.420529
1.26525
1.02928
0.782588
0.277314
0.403888
0.129959
0.448428
0.0599454
0.0900578
0.158599
0.170768
0.178364
0.126634
0.906563
0.648925
1.53136
0.100289
1.33961
0.512758
0.284649
0.791124
0.0551161
1.01307
0.739992
0.0856435
0.182712
0.873735
1.10071
0.756423
1.63109
0.572112
0.291406
0.132631
0.127232
0.0580124
0.0966951
0.325235
0.197439
0.0989062
0.185137
0.117249
0.429193
0.788558
1.48121
0.131418
0.104259
0.246577
0.327344
0.22415
0.454964
0.20575
0.132995
1.88271
0.206563
0.160297
1.22945
0.844646
0.560924
0.608288
0.0871627
0.215896
1.12092
0.902132
0.890412
2.1148
0.14154
0.460764
0.0623231
0.0901746
0.143479
0.173546
0.163934
1.56191
0.219966
0.18296
0.0965742
0.392912
0.395107
0.40534
0.705548
0.162448
0.17628
0.134386
0.148672
1.72632
0.22686
0.900778
1.2963
0.315688
0.0829508
2.38014
0.513497
0.326187
0.714024
0.148637
1.47792
0.474673
0.303576
0.179571
1.03196
0.70022
0.334214
0.0447465
0.0560076
2.60277
1.44378
0.221523
2.0226
0.0644433
0.0649493
0.629269
0.499882
0.414203
0.747029
0.087976
0.218463
0.158151
0.125984
0.670427
0.813345
0.873924
0.120352
0.214498
0.379167
0.190849
0.848435
0.190082
0.549099
1.60417
0.579448
0.473765
1.32563
0.0526145
0.343109
0.238805
0.0924019
1.33241
0.46661
1.80273
0.392166
0.434645
0.355182
0.14258
0.534085
0.877401
1.09977
0.46025
0.0540369
0.127623
1.24378
0.569811
0.168795
0.148985
0.47937
0.121931
0.65664
1.28282
1.11827
0.98202
1.5748
1.64633
0.161574
0.138972
0.780135
0.215016
0.0778677
0.0417854
0.831386
0.432181
0.418203
1.18232
0.561229
0.619627
0.2178
1.26943
0.203437
0.140322
0.183317
0.419862
0.348521
0.46258
0.0695542
0.0877697
0.206608
0.23862
0.482916
1.3976
0.045887
0.935182
0.807874
2.03882
0.862428
0.146765
0.0818507
0.177195
0.0681398
0.610799
0.412382
0.547227
0.295561
0.318212
0.137734
0.557613
1.28171
0.119955
2.70541
0.299238
0.390932
0.101544
0.187948
0.933305
0.14905
1.09674
0.185463
0.863493
1.36606
1.14384
0.208813
0.217532
0.0986714
0.160162
0.773278
0.403636
0.172793
1.19282
0.333055
0.606208
0.193223
1.20208
0.280263
1.08101
0.853841
1.21534
0.193108
0.0523033
0.115827
0.220511
1.08657
0.44027
1.26086
5.52054
0.11312
0.55659
0.295993
0.382321
0.1569
1.43761
0.22505
0.0957242
0.0481716
0.517675
0.102925
0.115958
0.171356
0.083756
0.193775
0.783334
0.90366
1.37482
0.405878
1.11284
0.928963
0.462993
0.119066
7.56716
0.204833
0.184766
0.0898605
0.689535
0.143329
0.231308
1.44564
1.09148
0.13942
1.91626
0.12475
0.0838922
0.278341
0.0531813
0.404008
0.072189
0.0800724
0.124335
1.48725
0.489189
0.416028
0.756081
0.747306
0.356917
1.72032
0.0390802
0.974295
0.191317
0.104983
0.207908
0.109406
0.0890305
2.91095
0.190387
0.329201
0.511611
0.372802
0.995323
1.6004
0.886196
0.0877221
1.09053
0.102511
0.0536934
0.676807
2.07442
0.123102
0.0910789
0.115064
0.167563
0.471057
0.0527587
0.855281
0.630541
0.223781
1.63344
0.836758
0.19892
0.109302
0.184782
0.585903
0.323843
0.77565
0.263915
0.21122
0.22031
1.24354
0.622696
0.713059
0.0563932
0.27578
0.0934959
0.0848177
0.14225
0.320822
0.278538
1.08005
0.135694
0.863889
0.0492883
0.434232
0.407666
0.138013
0.81414
0.146052
0.240058
0.100853
0.189538
0.359627
0.29864
0.277425
1.23954
0.0751967
0.0885284
0.491121
0.718175
0.531475
0.0786776
0.669771
0.732432
0.208706
0.743056
1.69932
0.207369
0.152863
0.193055
0.163287
0.0913438
0.0995243
0.204047
1.23773
0.207336
0.795987
0.62258
0.585034
0.337812
0.202394
0.182875
0.42832
0.158554
0.294095
0.430406
0.0965848
0.199057
0.0682836
0.498446
0.0734921
0.0882886
0.116248
0.102589
1.16049
2.01404
0.148114
0.201918
1.12744
0.462989
0.351692
0.160042
0.206997
0.566797
0.0880662
0.191266
1.38484
0.133151
0.513177
0.454727
0.0785969
0.0827945
1.96071
0.97873
0.455105
1.61442
0.842368
1.22761
0.62796
0.193618
0.124337
0.0830895
0.660775
0.053128
0.101522
1.18913
0.557351
0.313234
0.094598
0.0597141
0.848858
0.0901118
0.0529181
0.127976
0.209273
0.714555
0.27586
1.00822
0.500263
0.309168
0.836704
0.312653
0.141624
0.719557
1.4185
0.103705
0.194921
0.147375
0.2075
0.192423
1.27572
1.46286
0.260631
0.228521
0.0834337
0.382257
0.0569769
1.07958
0.328921
0.396198
1.39455
0.0539792
0.359868
0.186499
1.82469
0.0816171
0.335013
0.296295
0.137874
2.2417
1.49514
0.205899
0.264711
0.0827417
0.0710277
0.380911
2.05917
1.63433
0.0537015
1.71554
0.300667
0.110976
0.149318
0.249969
0.298163
1.03194
0.439257
0.085138
0.080772
0.0906085
1.31352
0.0960672
0.079435
0.0685455
0.183348
0.0780958
0.0554762
0.605666
0.343338
0.230258
0.57021
1.07374
0.0777654
0.111798
0.463096
0.437768
0.288913
0.101254
0.105068
0.0947093
0.0898248
0.237625
0.1449
0.145305
0.11491
1.27875
0.0818292
0.0842295
0.238687
0.381789
0.541177
0.344454
0.510996
0.527598
0.0825464
0.0814233
0.2004
0.0574495
0.404354
0.141352
0.12946
0.330587
0.0375263
0.190469
0.051401
0.56278
0.173403
0.573458
0.257955
0.231076
0.558917
0.0932416
0.215627
1.17534
0.219303
0.197359
0.514202
0.327818
0.334877
0.0594712
0.2474
0.0693745
0.556468
0.250144
1.69797
1.86162
2.96366
0.148378
0.235199
0.091512
0.0843802
1.11793
0.17276
0.326209
0.0683493
0.206604
0.938568
0.142178
1.1826
0.124888
0.120773
0.446247
0.0962823
0.219859
0.102305
0.384743
0.985222
0.0609517
0.220883
0.094799
0.0995583
0.303618
0.108892
0.399385
0.502867
2.35293
0.20182
0.101587
0.381622
0.262631
0.661183
0.171355
0.204146
0.108149
0.103166
0.619682
0.33706
0.256914
0.332156
0.0726066
1.24372
0.192976
0.0591372
0.557891
0.273609
0.148312
0.959701
0.0611249
0.102351
0.0954119
0.0426879
0.178387
0.0866836
0.143433
0.131507
0.282762
0.159148
0.0845399
0.0959287
0.124638
0.1927
0.359064
0.438675
0.0897771
0.305391
0.56251
1.5282
1.62788
0.248106
2.0077
0.159434
0.132337
0.301784
1.16917
1.25162
0.0908593
0.0705025
0.10489
0.0905771
0.0646159
0.2644
0.297343
2.68807
0.0299524
0.0866974
0.197994
1.05083
0.339039
0.0919771
0.110705
0.0497801
2.33889
0.323565
0.09889
0.162622
0.138248
0.4141
0.0774757
0.513382
0.673193
0.0526008
0.951653
0.486598
0.18153
1.25654
0.162602
0.049256
0.0745789
0.498378
0.160428
0.112218
0.198792
0.0597606
1.94027
0.667432
0.711605
0.19199
0.0843078
0.790596
0.146952
0.513403
0.0563435
0.14383
0.0533157
1.14495
1.13912
0.212764
0.160182
0.23845
0.124791
1.32789
1.08168
0.17505
1.03375
1.03152
2.11141
1.41688
0.156392
1.16797
0.257596
0.274011
0.116416
0.0825595
0.453681
0.144615
0.0878826
0.33454
0.155076
0.549919
0.139151
0.26762
0.128238
0.199692
1.40158
0.101293
0.0683014
0.139428
0.59864
0.391413
0.677794
0.108882
0.149592
0.519067
0.0861445
0.0716898
0.0438117
0.0670523
0.049891
0.0965301
0.166006
0.295497
0.789436
0.571602
0.292702
0.403958
0.272601
0.205823
0.148504
1.14348
0.31192
0.586181
0.356949
0.998379
0.4209
0.0815679
0.0762296
0.105992
0.189418
0.478384
0.16386
0.118288
0.138112
0.220992
2.0077
0.798375
0.724863
1.06776
0.528645
0.867325
0.615392
0.24225
0.517602
0.362738
0.0807231
0.150791
2.21048
0.276486
0.0576331
0.122617
0.0870348
1.24071
1.54759
0.436309
0.834235
0.166237
0.315463
0.521717
0.198928
0.114646
0.0643765
0.356507
0.0902651
0.138326
0.480018
0.305969
1.04637
0.108589
0.0858143
0.188217
0.119163
0.421483
0.496675
0.648048
0.0524076
0.0889036
0.0733393
0.102994
0.251708
0.265085
0.486613
0.190613
0.0764482
1.25938
0.603541
0.212316
0.100579
0.486328
0.0738258
0.131478
0.143202
0.100199
0.413664
0.519574
0.0598171
0.859737
0.0575701
0.119716
0.240591
0.299601
0.218383
0.248787
1.28693
0.106457
0.320979
0.0791025
0.0340093
0.178333
0.0323549
0.427659
0.479647
0.469708
0.163393
0.880939
0.109218
0.055597
0.22843
0.0367732
0.495052
0.941703
0.0316029
0.054247
1.49187
0.292169
0.207138
0.439598
0.843551
0.100534
0.125792
0.0410783
0.0311403
0.0619638
0.107502
0.478572
0.118006
0.47711
0.0591825
0.153067
0.104224
1.20494
0.0735329
0.0582178
0.0388392
0.191005
0.63022
2.14456
0.268229
0.0915455
0.0876873
0.130832
1.9364
0.24502
0.2485
0.103242
0.168411
1.46667
0.102784
0.502139
0.190145
0.0941072
0.121557
0.15683
0.544153
0.085107
0.107735
0.184273
0.103092
0.0902683
0.0563136
0.139255
0.113893
0.158203
0.605535
1.13453
0.188312
0.11144
0.448259
0.101273
0.15026
0.208934
0.329267
0.726071
0.110704
1.51673
0.0524485
1.27643
1.73812
0.0712689
0.316295
0.185969
0.192145
0.102809
0.113129
0.103689
0.594483
0.136531
1.56859
0.481963
0.404739
0.549851
0.141833
0.568302
0.865684
0.208763
0.710607
0.458331
0.136801
0.407607
0.188744
0.115819
0.788948
0.244553
0.240323
0.102682
0.1104
0.101249
0.0904421
0.190911
0.254675
0.485566
0.514646
0.0815361
0.0873463
0.105559
0.212479
0.807832
0.111891
0.0806745
0.350116
0.0966731
0.523415
0.425713
0.101047
1.63603
0.158388
0.121235
0.106507
0.888364
0.0324372
0.824733
1.02763
0.115819
1.02354
1.05042
0.95614
0.151772
0.0663644
0.0682684
0.146743
0.0697377
0.196603
0.306439
0.863394
0.112955
0.747214
0.543073
1.02152
0.145994
0.156729
0.438987
0.0941463
0.125596
0.243634
0.197046
2.38052
1.31184
0.148944
0.277761
0.164648
0.299147
1.05338
0.617101
0.261942
0.0237482
0.0392339
0.227888
0.498772
2.57084
0.109237
0.147474
0.150457
1.29774
0.273838
1.06542
0.601711
0.550985
0.112876
1.32759
0.0730029
0.218611
0.0888802
1.77344
0.204489
1.56271
0.0481545
0.129023
0.308892
0.383271
0.0922867
0.0533059
0.10662
0.572501
1.4052
0.806075
0.263762
0.120379
0.11703
1.34441
0.257594
0.143936
1.4046
3.26237
0.940049
0.107388
0.407303
0.300523
0.0835454
0.0901112
0.29969
0.116694
0.133188
0.240184
0.158449
0.622655
0.0749463
0.672317
0.193137
0.0340412
0.522883
0.152593
0.536659
0.0777654
0.53252
0.0967187
0.124009
0.356043
0.198546
0.648043
1.94417
0.294527
0.122037
0.129393
0.462056
0.117388
0.0468564
1.99767
0.305018
0.178783
0.167255
0.0694535
0.109914
0.118487
0.135323
0.103434
0.215336
0.088863
1.74833
0.0646232
0.205291
0.0895828
0.144192
0.0797569
0.144285
1.86745
0.132311
0.0840175
1.02971
0.105901
0.0923084
0.188818
0.152022
0.0629298
0.608543
0.0757799
0.537922
0.111849
0.374524
0.068332
0.124578
0.172306
0.192854
0.11539
0.976223
0.665822
0.72904
0.270309
0.106103
0.0654913
0.767631
0.0477293
0.326769
2.32932
0.15832
0.362679
2.54919
0.309649
0.288577
0.109062
0.0450064
0.0817506
0.0818689
0.261667
0.0876682
1.21894
0.305557
0.0945761
0.352594
0.229469
0.69242
0.0706632
1.13238
0.221834
0.29642
0.124969
0.453218
0.044487
0.0470018
0.0571462
0.0912712
0.094652
0.355996
0.0905388
2.62442
0.725349
1.32469
0.348453
0.338924
1.25411
0.0874283
0.176245
0.221746
0.564614
0.217344
0.202125
0.0980864
0.134395
0.244388
0.285023
0.52811
0.134955
0.0974444
1.01578
0.152332
0.162398
0.0501162
0.146139
0.280774
0.696033
0.271108
0.234381
0.244799
0.368101
0.108631
0.109565
0.878703
0.0950333
0.114804
0.31237
0.097914
0.149127
0.0859117
0.0970845
0.0651887
1.66521
0.0815644
0.105523
0.15893
1.42499
0.539092
0.52877
0.0298666
0.519787
0.0321582
0.529205
0.504063
0.509576
0.509889
0.14504
0.088196
0.0975331
0.145066
0.164125
0.551841
0.0523651
0.0593378
0.0451777
0.589026
0.184996
0.384931
0.191009
0.157138
0.187913
0.105798
0.0804694
1.11984
0.0498094
0.1254
0.998856
0.881018
0.387119
0.092656
0.0687329
0.226061
0.0370534
0.0567168
0.134481
0.0742873
0.0968715
0.176744
0.0993055
2.40181
0.0953822
0.14874
0.572403
0.12566
0.958509
0.615353
0.149778
0.769995
0.169835
0.244599
0.141284
0.0569358
0.139497
1.55518
0.317208
1.36298
0.157116
0.43415
0.0353581