/*--------------------------------*- C++ -*----------------------------------*\
| =========                 |                                                 |
| \\      /  F ield         | OpenFOAM: The Open Source CFD Toolbox           |
|  \\    /   O peration     | Version:  v1912                                 |
|   \\  /    A nd           | Website:  www.openfoam.com                      |
|    \\/     M anipulation  |                                                 |
\*---------------------------------------------------------------------------*/
FoamFile
{
    version     2.0;
    format      ascii;
    class       volScalarField;
    location    "0.64";
    object      epsilon;
}
// * * * * * * * * * * * * * * * * * * * * * * * * * * * * * * * * * * * * * //

dimensions      [0 2 -3 0 0 0 0];


internalField   nonuniform List<scalar> 
1466
(
4.04478
37.3539
7.22525
98.3619
5.73686
19.7026
5.85238
29.4563
9.47098
47.229
60.8563
42.8618
6.07374
6.18126
24.0272
84.5945
17.4463
95.212
104.414
62.286
108.878
67.5571
77.9527
50.1515
7.59869
8.5599
44.1266
83.7323
6.50367
53.0475
73.1275
10.3991
6.84127
89.6687
126.023
43.63
92.3527
19.6927
82.4692
6.97656
7.31292
60.4988
74.4228
9.30943
6.42337
8.14499
76.9071
5.0271
45.1283
4.84607
14.974
48.053
25.5775
6.09635
8.94974
6.93145
6.15683
64.1567
7.48236
56.2753
17.7189
4.81651
6.25034
28.6379
79.485
22.8549
150.823
48.8085
37.802
8.61682
52.3922
139.964
72.1007
7.22384
13.7735
86.2297
4.69373
6.19924
34.6949
71.7174
58.7351
79.0057
7.40608
77.4769
94.8544
142.246
77.0287
74.8605
66.1483
42.7227
11.4343
46.4478
129.213
14.1007
12.5585
7.71435
34.4447
70.6745
8.74936
7.05186
20.4844
10.1194
4.05908
71.2919
85.1271
41.5203
33.4739
6.42821
80.6679
4.50431
13.9728
101.587
4.74757
65.7213
55.9374
19.5133
50.1818
41.2511
5.69675
6.02991
85.5916
4.21759
4.47508
12.4919
6.19001
54.1606
47.9338
75.3444
45.5552
31.4843
75.4793
54.1655
76.8098
48.4801
13.1517
8.27113
8.23341
9.43448
6.05111
6.13262
5.74304
91.9995
64.2452
71.0916
74.1419
162.115
10.4017
16.8976
48.8567
94.6589
13.1757
32.6619
43.0416
6.68106
37.9507
65.3124
72.3958
73.7363
11.0233
47.4869
9.79849
61.3717
123.475
76.5567
97.5503
82.939
54.281
84.174
88.4983
41.635
100.868
8.14729
3.90417
39.2766
28.73
7.78597
45.4632
61.9251
12.1082
68.6478
9.51424
26.7421
127.822
3.45087
78.1345
144.936
98.541
45.7685
39.7137
50.5155
113.037
22.7276
104.875
170.481
43.6367
16.3794
8.87779
162.007
104.442
183.686
65.3353
39.7926
49.9024
25.6244
39.8264
86.4469
126.271
31.083
10.956
57.3569
91.5796
80.8187
122.238
91.9756
113.772
73.8511
144.369
95.8848
52.269
50.0294
80.4062
20.799
77.1717
20.0653
81.9428
77.0461
56.1508
3.97724
12.2984
19.873
39.4971
84.0806
183.815
142.842
13.533
66.7458
59.6384
77.849
20.1718
109.274
49.9852
71.1965
42.0548
195.674
16.532
56.9321
10.0308
7.26969
70.3157
37.5143
131.373
86.3438
28.0498
56.5763
7.65485
15.1903
71.7882
12.7595
107.755
119.723
86.4102
75.2647
48.0522
19.8439
65.7019
3.8956
38.4951
42.5792
97.8061
12.873
149.837
128.945
53.607
11.6922
12.3135
24.1426
15.9613
59.8592
97.0088
54.5926
18.1654
63.5537
79.4099
67.259
66.9425
2.95233
54.3129
50.4617
17.7396
22.2072
25.8824
3.73512
7.94978
26.5171
47.2523
36.906
213.067
3.95193
56.3918
17.2735
5.80283
31.8278
5.60308
8.88532
76.0969
24.4366
15.9848
6.97427
41.3533
109.998
34.65
103.327
51.8123
34.475
51.0389
46.2419
107.6
35.9944
8.19508
26.8686
34.7297
159.823
110.175
15.4948
75.6054
18.5121
3.1925
37.3332
13.1315
29.1782
71.1267
20.1024
8.54181
37.2212
94.7929
16.5865
104.701
18.6078
24.0473
7.31899
3.70116
34.2475
11.9403
76.0445
43.246
6.46904
65.4631
46.2728
43.921
94.3934
32.1369
13.6286
64.2742
119.338
78.6903
112.736
75.6593
20.2859
8.76305
45.0374
87.3602
98.9045
71.437
37.5519
13.9352
182.235
30.5075
29.5494
64.1067
40.7438
37.5346
116.082
118.606
32.7717
10.397
102.239
52.6844
121.614
10.1289
58.9892
50.1156
53.4955
60.283
69.7376
68.9816
61.6643
9.3247
7.63297
5.06183
5.35562
35.9021
58.1065
28.7109
58.6088
15.7591
11.0601
4.21668
119.115
13.8936
21.4018
2.65038
2.33113
71.8997
4.38641
49.7374
107.533
87.5602
29.3635
134.408
118.374
24.569
100.17
125.909
116.251
75.0616
5.18432
4.72073
51.6087
31.9387
6.71857
84.3289
86.5363
7.34147
132.731
6.78068
8.33695
57.931
112.145
6.5308
7.8476
52.7971
11.1076
87.7152
226.408
30.8191
13.627
8.88248
9.75816
6.16943
46.6418
7.03361
53.579
52.2207
18.6933
26.3385
4.62397
28.9649
31.7739
3.93046
59.8477
31.763
4.46605
58.5873
12.1485
45.6694
55.7482
5.94586
25.2272
56.79
27.9171
5.10549
37.7783
7.58263
31.0031
51.6906
6.53044
60.9275
38.0419
37.5422
55.284
38.5171
14.6451
50.0173
4.1305
26.958
6.92813
3.24717
49.7754
115.585
54.7229
37.5706
82.5483
85.8572
103.951
79.4478
25.7936
10.0783
5.74553
128.323
76.8145
90.6703
81.4129
13.3132
65.6321
26.0633
74.0704
98.5047
74.7802
45.348
43.7332
78.5445
89.8529
45.6747
82.1771
16.8399
62.4294
72.516
32.0148
12.1547
88.5948
25.2937
66.7883
29.6074
174.932
99.476
41.2147
44.0101
10.8707
22.215
22.8302
84.9206
36.6471
129.7
30.7033
55.9817
48.985
40.6488
64.5357
52.5772
94.0054
15.5768
205.235
120.103
72.4868
84.2043
42.5346
35.4639
82.1962
45.4265
97.4183
23.9459
89.3305
25.5492
24.7266
55.6485
32.2358
58.0752
25.0902
119.367
29.1844
96.8613
13.8407
13.6189
80.0191
187.297
92.3977
89.7189
33.0398
58.783
18.9459
87.7498
96.9965
21.8787
42.9841
17.0721
19.7747
69.6007
126.249
85.9255
101.858
78.7689
124.108
25.6648
52.7856
19.5454
103.374
13.3882
100.983
87.0787
77.6739
41.5284
100.301
97.2432
52.9846
45.4101
31.1776
90.3542
9.66154
75.4892
22.9153
74.3549
27.81
53.8999
94.0885
130.29
71.24
69.8018
59.1533
29.2576
68.6349
46.0417
15.3929
16.0872
31.7823
201.055
62.3615
26.7277
4.59268
37.1924
80.2106
15.094
120.318
24.5185
37.8658
104.476
35.5083
54.402
30.51
27.8972
95.8124
31.3614
4.32035
22.8471
20.8632
43.5674
89.861
200.793
60.5113
74.5582
102.416
68.0951
25.4676
28.7179
17.4255
98.6915
13.2797
91.5265
78.0616
47.4443
95.3668
124.319
84.0066
60.5716
21.5891
97.8444
15.4355
61.4126
95.1779
61.8561
31.1577
96.5602
12.2715
34.9225
4.5775
120.018
92.1233
18.1719
148.357
13.6025
6.40497
135.677
94.7831
8.61059
15.741
95.6162
29.2925
99.5275
35.5967
55.0176
16.682
9.34107
16.6662
65.0177
6.67695
51.423
6.21816
34.13
5.74633
6.08887
21.2503
92.2029
7.12494
9.49975
146.486
18.2396
120.485
26.4529
7.94301
42.086
11.45
118.611
20.7905
17.7894
65.759
19.7427
7.36402
54.3154
86.9415
28.7508
48.4662
102.79
23.1497
9.3242
13.3779
70.3305
52.7296
27.0164
9.29806
7.41679
58.3081
15.8956
129.829
8.00965
69.8052
125.015
91.1114
50.3794
65.4095
74.9516
56.2802
75.205
108.623
149.985
50.3488
172.689
99.0207
94.479
44.2542
25.7369
7.28574
73.1278
100.525
72.5595
5.14296
128.933
76.0606
111.519
84.319
4.47247
113.42
97.1616
55.1042
93.9849
5.91439
8.59023
6.77814
34.277
18.6311
19.7405
52.5886
92.7369
74.1667
9.45298
5.52692
112.253
110.718
156.162
94.6241
15.9986
102.079
88.2818
7.52727
26.502
45.1285
146.755
48.9368
75.3562
122.715
69.436
134.527
25.9024
10.2237
5.21578
4.29752
60.8865
110.037
42.4914
16.3912
48.6594
121.637
42.2282
11.5152
86.5287
42.7782
92.7849
5.26094
37.8933
101.418
64.0462
39.9069
44.7286
95.8649
97.1947
8.46879
32.0397
18.2061
106.418
59.2603
7.50393
20.4377
12.2416
63.5074
91.5959
7.66816
40.3266
3.08446
11.7526
15.5804
64.4213
93.7735
116.083
58.596
73.1072
42.327
31.5268
8.1525
86.5756
81.3886
12.359
90.99
103.1
73.2056
26.3623
60.9487
8.09579
6.55443
90.1939
14.2904
20.1387
71.6397
71.563
89.7688
13.8298
132.366
6.635
26.8236
14.1985
13.9733
10.1728
12.4999
16.711
97.7168
86.6724
5.02725
92.4947
87.7802
35.8768
84.8482
38.1491
59.719
102.188
64.0824
105.106
60.876
23.0356
24.0774
67.1382
21.6732
66.021
99.782
136.28
96.0422
11.0972
32.5212
8.40845
46.5435
113.313
238.222
31.0794
77.766
26.7487
8.00174
53.2017
11.0373
125.162
38.3401
89.2643
81.6125
92.031
75.8538
115.656
105.118
113.078
111.986
161.184
158.409
176.791
165.723
162.861
163.687
163.035
145.444
199.908
127.557
143.722
223.42
236.375
149.783
211.543
162.759
157.745
148.854
72.4334
99.2584
6.41942
7.87889
59.7362
15.5154
11.091
23.1502
6.37582
23.2955
110.664
71.6669
100.574
19.224
32.7258
13.5627
46.8004
31.2723
53.875
24.631
123.945
33.6124
49.5532
122.425
78.1982
139.128
5.22278
4.85105
8.53532
8.77259
8.2939
38.1146
51.6156
52.6034
79.5114
7.461
8.55264
6.98778
8.62378
12.8852
23.4454
88.9334
5.28784
6.45701
30.5179
93.4859
46.3357
17.5773
48.9026
46.9469
68.0724
85.4468
79.6838
68.8071
7.94242
57.2312
106.639
50.9321
122.28
33.7871
135.571
37.7858
67.0778
123.473
2.68819
52.5682
41.2536
64.5571
4.7565
94.681
74.0028
93.9264
27.6466
29.8005
27.2104
81.4861
16.041
11.6873
3.93899
72.0752
124.639
101.564
22.7158
136.77
100.294
26.9825
128.332
58.8909
9.73404
5.59443
32.8323
61.2313
122.36
203.741
63.0395
66.0027
5.84946
12.7201
39.2626
52.9508
80.3373
14.7369
61.5821
5.97023
7.05906
4.28674
34.5572
8.03928
42.2072
77.22
17.364
8.68422
137.847
11.287
83.6021
19.4558
59.1317
110.258
99.2128
124.959
86.8938
107.769
82.523
95.2589
56.8192
82.6487
53.2114
6.15223
4.788
120.794
31.2389
9.79719
26.995
65.7793
33.5576
10.7727
65.3198
7.98727
33.6888
42.0913
8.0129
4.19595
41.0976
9.75511
20.7387
12.3526
28.4217
117.543
5.62517
3.48904
9.50035
84.1586
41.3464
22.8703
26.7605
112.319
13.4984
23.9878
18.4766
7.93981
30.7871
43.3257
6.11837
87.5496
83.2086
4.45318
3.69518
2.38039
56.9477
35.3401
10.5501
10.3772
11.6824
5.44367
7.42203
11.7771
12.0626
8.23691
4.1463
8.37093
129.079
11.6248
11.9861
11.7146
12.0562
43.2838
47.4597
10.1911
10.5326
11.7002
12.1114
67.4285
91.5052
57.3127
27.7982
19.0708
98.9432
107.174
31.2475
108.107
63.7637
29.4854
5.94651
7.45335
4.79017
114.303
65.1582
126.009
32.6033
7.9059
130.656
45.399
47.3091
50.7995
122.159
100.366
121.552
21.6494
85.9229
30.1575
109.527
72.1395
135.367
7.55471
10.7257
13.7443
61.4741
44.725
66.5811
72.3442
54.3217
4.18945
40.8654
19.4444
38.0802
90.1808
74.5923
128.397
100.287
6.87374
5.28674
27.9557
50.6038
49.0447
22.0328
27.1725
10.1382
44.7896
99.8545
50.7354
59.9312
84.4158
7.67312
6.1676
21.4609
65.7798
38.0118
98.3197
24.5807
85.284
123.847
70.4009
86.551
128.09
39.9683
103.687
95.824
6.9555
5.28244
18.6251
58.5974
9.80157
5.13172
83.182
68.9297
73.9963
114.858
121.952
129.767
42.0108
28.5309
72.4754
75.1897
103.357
93.3104
10.395
21.3465
50.9218
68.3193
12.523
104.079
31.9481
5.87526
52.8626
47.1793
22.7862
17.1948
9.52177
57.2328
7.95723
17.6559
44.1913
39.566
22.0409
232.667
6.93967
16.1142
22.1158
38.4667
7.06991
39.9506
5.49119
4.16822
6.61165
52.5718
67.5918
113.972
96.1011
84.1951
6.49784
69.5288
7.39357
74.0813
57.3916
6.78449
47.0705
47.7387
86.6582
75.1825
64.1175
66.6257
91.247
9.61326
10.4045
113.761
15.8164
5.66771
30.8945
6.23011
98.6297
12.0204
125.247
8.45477
123.164
46.1737
3.4128
107.195
36.6263
7.75964
83.2895
72.2053
36.5102
72.1989
45.4822
115.325
46.9247
73.2078
8.90366
39.1541
29.1019
109.663
37.2101
127.838
142.759
67.6888
134.26
174.236
151.435
7.59684
30.2073
55.0564
9.82911
101.843
32.1115
70.1304
87.6387
7.27843
115.082
45.501
6.64149
36.8446
31.7043
6.12077
42.9226
10.0959
39.0398
12.5468
205.289
102.638
70.0277
93.9634
15.8357
11.2466
108.081
64.7521
65.6776
67.6551
67.5803
68.28
143.23
56.6474
46.5593
118.824
6.87636
51.2208
114.889
90.19
14.5779
10.954
10.3882
4.77413
5.69044
5.97912
21.0671
70.4302
9.69312
11.0735
52.2062
7.31574
76.7387
93.2802
95.28
4.49318
91.7787
35.3462
7.1437
5.1387
4.40908
8.28126
198.318
9.96129
82.9809
38.9126
15.0622
5.44626
4.24788
103.184
6.74018
9.95343
72.0836
10.425
105.818
88.8324
120.471
57.6366
41.0858
30.6728
23.8761
54.9751
14.0095
31.9837
82.5879
5.35518
61.0551
77.2959
28.8069
64.3757
50.1477
102.86
21.6354
49.842
10.4063
54.3875
108.253
42.2906
7.54353
7.19414
13.2638
12.7864
97.4055
79.6683
37.3836
53.0783
134.385
25.7175
109.742
52.8892
65.8595
58.1477
6.91355
71.1814
102.116
5.6724
34.1221
95.9908
16.2671
129.885
32.5959
70.9226
120.178
67.7433
104.638
100.272
97.8115
94.9181
6.49243
9.34428
9.32739
6.50044
24.5997
9.01608
71.3872
32.9232
72.9688
47.4936
105.603
68.858
115.296
9.6271
100.02
102.31
5.11354
7.28559
125.267
48.5652
6.66218
6.60482
69.8323
35.5455
170.988
30.8958
21.6015
9.25091
10.5501
68.4861
73.2347
63.803
12.1201
190.753
74.6847
47.6283
130.084
8.23413
17.7008
88.2062
73.1893
12.4138
27.2794
36.3004
11.1903
92.5673
108.165
28.6963
14.2843
45.6737
165.222
70.8022
60.535
34.5052
78.8559
10.6131
8.05825
7.29803
8.02248
8.56848
6.91449
62.3543
7.73058
5.84646
122.681
10.2683
71.0006
29.0152
22.9829
)
;

boundaryField
{
    frontAndBack
    {
        type            empty;
    }
    wallOuter
    {
        lowReCorrection 0;
        type            epsilonWallFunction;
        value           nonuniform List<scalar> 
108
(
95.212
139.964
72.1007
5.60308
6.46904
18.2396
26.4529
7.94301
11.45
19.7427
7.36402
28.7508
23.1497
9.3242
7.41679
7.28574
111.519
34.277
18.6311
16.3912
11.7526
116.083
13.9733
35.8768
81.6125
92.031
75.8538
115.656
105.118
113.078
111.986
161.184
158.409
176.791
165.723
162.861
163.687
163.035
145.444
199.908
127.557
143.722
223.42
236.375
149.783
211.543
162.759
157.745
148.854
72.4334
7.87889
32.7258
139.128
8.77259
93.4859
135.571
37.7858
136.77
61.5821
8.68422
99.2128
95.2589
56.8192
42.0913
41.0976
12.3526
41.3464
30.7871
43.3257
83.2086
2.38039
2.38039
10.5501
11.6824
11.7771
12.0626
129.079
11.6248
11.9861
11.7146
12.0562
43.2838
47.4597
10.1911
10.5326
11.7002
12.1114
67.4285
108.107
63.7637
7.9059
50.7995
72.1395
135.367
50.7354
59.9312
123.847
70.4009
67.5918
9.82911
108.081
67.6551
11.0735
35.3462
9.96129
7.19414
13.2638
134.385
)
;
    }
    inlet
    {
        type            fixedValue;
        value           nonuniform 0();
    }
    outlet
    {
        type            zeroGradient;
    }
    wallInner
    {
        lowReCorrection 0;
        type            epsilonWallFunction;
        value           nonuniform List<scalar> 
126
(
19.6927
82.4692
6.97656
7.31292
60.4988
74.4228
9.30943
6.42337
8.14499
76.9071
5.0271
45.1283
4.84607
14.974
48.053
25.5775
6.09635
8.94974
6.93145
6.15683
64.1567
7.48236
56.2753
34.6949
7.71435
34.4447
70.6745
8.74936
7.05186
20.4844
10.1194
4.05908
71.2919
85.1271
41.5203
33.4739
6.42821
80.6679
4.50431
65.7213
55.9374
12.4919
6.19001
75.4793
54.1655
8.27113
8.23341
9.43448
5.74304
123.475
28.73
8.87779
107.755
119.723
86.4102
3.8956
38.4951
149.837
128.945
53.607
3.73512
26.5171
36.906
213.067
34.7297
159.823
110.175
20.2859
64.1067
118.606
121.614
119.115
21.4018
112.145
87.7152
226.408
13.627
9.75816
53.579
58.5873
55.7482
56.79
174.932
205.235
187.297
200.793
148.357
172.689
46.5435
238.222
124.959
88.8324
54.9751
190.753
47.6283
130.084
8.23413
17.7008
88.2062
12.4138
27.2794
36.3004
11.1903
92.5673
108.165
28.6963
14.2843
45.6737
165.222
70.8022
60.535
34.5052
78.8559
10.6131
8.05825
7.29803
8.02248
8.56848
6.91449
62.3543
7.73058
5.84646
122.681
10.2683
71.0006
29.0152
)
;
    }
    procBoundary1to0
    {
        type            processor;
        value           nonuniform List<scalar> 
29
(
6.36094
6.36094
6.41342
5.70084
43.7203
38.5991
129.507
10.7554
73.8184
6.34424
7.26721
38.5991
6.41342
6.67019
71.2604
23.5485
43.7203
55.0036
5.70084
6.29261
11.4891
6.4095
61.0683
10.9186
10.9186
61.0683
7.47779
79.8998
7.47779
)
;
    }
    procBoundary1to2
    {
        type            processor;
        value           uniform 8.8714;
    }
    procBoundary1to3
    {
        type            processor;
        value           nonuniform List<scalar> 
48
(
92.8813
76.9083
75.9298
75.9298
45.7577
81.1414
81.1414
20.225
96.9734
4.73983
4.31452
4.73983
5.95628
7.78686
8.95357
5.95628
6.59591
6.59591
7.16058
7.16058
5.16602
4.16255
9.4966
14.071
14.071
7.33366
3.1855
3.1855
7.34618
41.1917
15.774
7.34618
20.225
81.3463
6.54721
41.1917
45.7887
4.31452
102.065
40.8397
6.25792
65.3548
81.3463
6.54721
8.87515
55.9132
41.5821
6.25792
)
;
    }
}


// ************************************************************************* //
