/*--------------------------------*- C++ -*----------------------------------*\
| =========                 |                                                 |
| \\      /  F ield         | OpenFOAM: The Open Source CFD Toolbox           |
|  \\    /   O peration     | Version:  v1912                                 |
|   \\  /    A nd           | Website:  www.openfoam.com                      |
|    \\/     M anipulation  |                                                 |
\*---------------------------------------------------------------------------*/
FoamFile
{
    version     2.0;
    format      ascii;
    class       surfaceScalarField;
    location    "0.64";
    object      phi;
}
// * * * * * * * * * * * * * * * * * * * * * * * * * * * * * * * * * * * * * //

dimensions      [0 3 -1 0 0 0 0];
oriented        oriented;


internalField   nonuniform List<scalar> 
2776
(
-0.000180459
9.33974e-06
9.95849e-05
7.15342e-05
-0.000852855
0.00092106
0.000296457
-0.000364661
-0.000323817
-0.000227678
0.000210387
0.000341107
8.00059e-05
3.19372e-06
0.000995458
-0.00107866
-0.000238993
-0.000275588
0.000412782
0.000101799
-0.000116912
-0.000441093
0.000371871
0.000186134
-0.000180416
-6.28185e-05
0.00031836
-5.57341e-05
-0.000507811
0.000245185
0.00101244
0.000891259
-0.000895496
-0.00100821
-0.00094316
0.000748896
-0.000227818
0.000422081
-0.000359073
-0.00119638
0.000539799
0.00101566
0.000425473
0.000175116
-0.000555682
-4.49076e-05
0.000893278
0.000115356
-0.00137835
0.00036972
-0.000159116
-2.54658e-05
-5.44109e-05
0.000114583
-3.7691e-05
-0.000193804
0.000496426
-0.000150145
-0.000705354
-0.000216605
8.33575e-05
0.000252424
-0.000119177
3.00424e-05
-0.000476376
0.000446333
0.000518367
-0.000153211
7.74977e-05
-0.000442654
0.000681382
-3.59014e-05
4.75433e-05
-0.000693024
-0.000695712
3.80869e-05
-2.72992e-05
0.000684925
-7.2299e-07
0.000222804
-0.000323587
0.000101506
0.000579516
2.25252e-05
-2.24582e-05
-0.000579583
0.000639538
4.65695e-05
-2.86285e-05
-0.000657479
0.000310421
-0.000385462
-0.00118015
0.00125519
1.3818e-05
3.79273e-06
2.09523e-05
-3.8563e-05
-0.00023984
7.15477e-06
0.000129173
0.000639043
-0.000724894
-4.33219e-05
0.000129135
-7.9967e-05
0.000138599
-0.000187767
-0.000343769
0.000397191
0.000607705
-0.000661127
0.000584249
-0.000875039
-0.000114463
0.000405253
4.03558e-05
-5.52621e-06
4.83267e-06
-3.96623e-05
5.37902e-05
0.000106279
-0.000134124
-2.59451e-05
-0.000370722
0.00033691
-0.000698708
0.000732519
3.49569e-05
9.40025e-06
0.000353695
0.000235618
-0.00010411
-2.37269e-06
-0.000480305
-2.83244e-05
-0.000394237
0.000101755
0.0009617
-0.0002319
-0.000729799
-0.000103301
0.000412603
-0.000309302
-7.00415e-05
0.000335117
-0.000265076
-0.000479942
0.000543964
-6.40219e-05
-0.000488051
0.000480665
7.38576e-06
-0.000160763
-5.2329e-05
0.000213092
-0.000126906
-8.99753e-05
0.000216881
0.000306789
-5.23866e-05
0.000971138
8.99515e-05
0.000121442
-2.42619e-05
-9.71804e-05
-0.000268911
0.000311356
-4.2445e-05
-0.000166628
0.000210767
-4.41388e-05
-0.000226948
0.000147926
7.90224e-05
-0.000206556
-0.000646299
-0.000355892
-8.52005e-05
-0.00010459
-0.000170998
0.000144173
-9.03828e-05
-0.00109328
0.0014037
0.000197095
1.90242e-05
-0.000216119
-0.000989285
-0.0002071
1.56858e-05
-0.000118301
0.000102615
-0.00079804
-0.00014512
2.48483e-05
-1.90045e-05
2.03394e-05
-2.61832e-05
-0.000182971
0.000163163
-5.0233e-05
-0.000196604
0.000191491
-9.81877e-05
-0.000200653
4.92118e-05
0.000581734
-0.000430293
0.000784741
-0.000680523
-0.000183015
7.87973e-05
0.000174992
-0.000207441
4.52631e-05
-1.28148e-05
0.000251577
3.67647e-06
-4.39401e-05
-0.000211314
-0.00018169
-6.04003e-05
-0.000435304
0.000852536
-0.000854395
6.88931e-05
-6.70336e-05
0.000178193
-0.000275596
-0.000155464
0.000252868
0.000161847
-0.000144203
-9.40853e-06
-8.23532e-06
5.27382e-05
-0.000536432
0.000483694
4.75704e-05
-0.000483048
0.000435478
0.00106476
-0.000455239
-0.000813518
0.000203999
8.32355e-06
-2.5157e-05
4.16817e-05
-0.000607542
-6.77777e-05
0.000292388
0.000382931
-6.06207e-05
-0.000174335
5.19841e-05
-0.000133117
-0.000155908
9.24209e-05
-0.000317719
0.000201234
0.000116485
0.000102159
-0.000378269
0.000332851
-5.67408e-05
-0.000595662
3.29547e-05
-5.62973e-05
0.000619004
-0.000308165
0.000498196
0.000349767
4.92999e-05
0.000228048
-2.9444e-05
-0.000247904
-0.000338414
-6.30513e-05
0.000296248
0.000105217
-0.000533612
1.99147e-05
0.000530843
-1.7146e-05
-3.82924e-05
0.000592722
-0.000580514
2.60844e-05
-0.000648217
0.00105373
-0.000776239
3.78249e-05
-1.53146e-05
0.000316368
-0.000338878
0.000765085
-0.000399047
2.68364e-05
2.58166e-05
7.65341e-05
-0.000129187
1.66889e-07
1.12655e-05
2.38563e-06
-0.000236859
6.34893e-05
-6.64701e-05
0.000174158
-0.000733544
0.000639392
0.000139725
5.51499e-05
-7.06929e-05
-0.000124182
-1.35898e-05
-0.000197251
0.000155106
-0.000179644
0.000785552
0.000135508
-1.81464e-05
-8.08323e-05
0.000319139
9.36432e-05
0.000144922
2.20697e-05
0.000125856
-3.72693e-05
0.000158712
-3.90583e-05
-0.000229853
-0.000520472
3.24206e-05
-4.50291e-05
-0.000462782
-4.45366e-05
-0.000128852
0.000386067
0.000629592
1.66362e-05
-1.23463e-05
-1.86691e-05
1.20109e-05
0.00049901
-0.000523951
2.40025e-05
9.38741e-07
7.48513e-05
-0.000132179
6.66671e-05
0.000275019
0.000473877
-8.79864e-06
-8.61643e-05
3.18262e-05
6.31367e-05
0.000423178
-0.000116073
0.000135326
-0.000428969
0.000719117
5.768e-05
-0.000157615
-8.04809e-05
7.03462e-05
-0.000203016
-0.000107727
-0.00107673
0.00096892
0.000111009
5.70051e-05
7.41814e-05
-0.000135039
3.8524e-06
-3.99903e-05
8.81879e-05
-9.47723e-05
4.65747e-05
-3.16368e-05
-0.000129126
-5.07224e-05
-7.61833e-05
0.000358957
-0.000131464
-0.000664217
0.000171483
0.000590428
-9.76947e-05
-0.000209485
0.00070429
4.47585e-05
-0.000539563
-0.000287918
0.000822882
5.36388e-05
-0.000588603
-6.20106e-05
5.5367e-06
8.4206e-05
-2.77321e-05
0.000110022
0.000522232
0.00012475
0.000562358
-7.45526e-06
6.64781e-07
4.28987e-06
2.50061e-06
-0.000273326
-0.000340576
0.000117441
-9.58234e-05
-0.000130988
-6.03491e-05
-7.90681e-05
0.000719179
1.74567e-05
-0.000657567
0.000633516
2.45434e-05
-1.89031e-05
-0.000639156
0.000508608
-2.56436e-05
3.10104e-05
-0.000513975
0.000221483
-0.000144676
-0.00013827
6.14626e-05
-0.000560196
-9.47003e-05
1.86533e-05
0.000636243
4.52242e-05
4.32681e-06
-9.19518e-06
8.90983e-05
-4.64623e-05
-3.60265e-05
-6.60957e-06
0.000134307
-0.00011218
2.92784e-05
-5.14048e-05
0.000177658
-0.000141088
-9.73335e-06
-2.98082e-06
-5.65093e-06
0.000225945
-0.000414348
0.00048486
-0.000796
-8.79205e-05
0.000219704
4.95976e-05
-6.08778e-05
-2.30954e-06
-0.000174493
-4.41595e-05
-1.87732e-05
0.000237425
0.000232801
-7.40187e-05
0.000104922
0.000661257
-6.09616e-05
-0.000705217
0.000695258
-0.000597115
-0.000746361
4.26552e-06
1.27432e-05
5.96354e-06
-2.29723e-05
-0.000741076
0.00023737
0.000482051
2.16553e-05
-5.70842e-06
-2.65826e-06
5.35909e-05
-0.000607628
0.000185018
0.000524769
-0.000269139
0.000230847
0.000497627
-0.000724945
-0.000164853
0.000392171
-4.0963e-05
0.000117885
-0.000342961
0.000266038
9.03874e-05
-0.000389376
0.000690703
-0.000646615
8.06614e-05
0.000544228
-0.000507458
7.32522e-05
0.00063615
-0.000536858
-7.81899e-05
-2.11021e-05
9.94923e-05
0.00153858
-0.00121029
-0.000427783
0.000594065
-0.00082554
0.000360648
-6.31592e-06
1.24162e-05
3.35062e-05
-3.96066e-05
0.000155637
-1.42005e-05
6.93301e-05
-3.49315e-05
9.14671e-05
0.000518636
-0.000625008
0.000106373
-0.000406714
0.000291299
-0.00128172
0.00139714
-0.000432415
-3.01e-05
0.000591248
-0.000128734
0.000217634
-0.000181822
-0.000379581
-7.95115e-06
-2.27451e-06
-2.12064e-06
5.01495e-05
2.08963e-05
9.08013e-05
-0.00134435
0.00117835
-0.000248714
0.000414717
0.000372474
-0.000318061
-0.000127889
7.3476e-05
0.000130943
-0.000560326
0.000542186
-0.000112803
-0.000168792
8.00159e-06
0.00010628
5.45101e-05
-2.6919e-05
1.18824e-06
0.00034621
-0.000320479
0.00060559
3.14378e-05
-4.43053e-05
-0.000525195
3.52684e-05
-4.36853e-05
-0.000361404
-0.000188636
0.000211627
-0.000959835
-0.00017028
0.00027572
-9.14753e-05
4.01305e-05
-0.000266374
0.000691625
-0.000179564
-0.000591129
3.29788e-05
-2.43642e-05
1.17249e-05
-0.000358996
0.000225451
0.000307703
0.000300144
0.000363523
-0.00058716
-7.65075e-05
0.000116135
0.000163297
-0.00102051
3.87064e-05
-1.81669e-05
-2.84907e-05
-0.000101128
-0.000174469
-0.000408442
0.000328359
0.000525179
-0.000445097
-0.000250423
4.32996e-05
4.84667e-05
0.000158656
-0.000729422
0.00046937
-0.000345307
-0.000130127
0.000116438
0.000109379
-3.70831e-05
-0.000484852
0.000428587
0.000351817
-0.000295552
-0.000302476
0.000309951
2.2044e-05
-2.95189e-05
-0.000130156
-3.74547e-05
2.34073e-05
-0.000241236
-0.000433357
7.18751e-05
0.000725005
0.000485745
0.000771852
-0.000416558
-0.000841038
-5.35482e-06
-1.22455e-07
1.18534e-05
-6.37611e-06
1.04834e-05
0.000671064
-1.65092e-07
4.36983e-05
0.000563068
-8.83986e-05
-3.34706e-05
6.22952e-06
-0.000539548
0.000566789
-2.36748e-05
2.38027e-05
-0.000262561
0.000262433
0.000436927
-0.000172215
0.000329353
4.72943e-07
-0.000694258
-1.92747e-06
6.37728e-05
-0.000557306
0.000736054
-0.000242521
0.000621633
0.00011926
-0.000135304
-0.000517919
5.64974e-05
-0.000246536
-0.000441659
0.000326791
-0.000163646
0.000643896
0.000210453
-0.000153219
0.000518668
0.000178779
-5.02677e-05
2.45362e-06
-3.83502e-05
-1.97945e-05
-3.98842e-05
5.88357e-05
-3.87984e-05
1.61275e-05
-0.000455088
0.000326437
-0.000114078
-0.000160473
6.81983e-05
0.000206353
-1.04344e-05
9.02161e-05
1.83238e-05
-9.81056e-05
-8.09294e-06
-6.28123e-06
-9.60727e-05
4.53466e-05
4.58455e-07
3.9718e-05
-6.79631e-05
1.88365e-05
-3.95668e-05
0.000289711
-0.000504407
0.000254263
7.73206e-05
-0.000431088
-0.000233393
-6.41552e-05
0.000416155
-0.000372799
2.07993e-05
0.000151796
9.54353e-05
-0.000134147
-0.000113085
-9.22002e-06
-0.000240251
4.91536e-05
-8.93095e-05
5.98159e-05
-1.966e-05
-2.97083e-06
0.000210977
0.000107497
-9.34171e-05
-0.000225057
7.73555e-05
-4.58105e-05
-0.000409814
0.000450521
-0.0003075
-0.000344601
2.38768e-05
9.88336e-06
-1.52877e-05
-1.84724e-05
7.20431e-05
-0.000602316
-3.05882e-06
2.77624e-06
-3.51685e-05
3.5451e-05
-0.000260208
0.000918251
-0.00027551
0.000235485
-2.49989e-05
6.5024e-05
-0.000309042
0.000729463
0.000601776
0.000197052
-0.000177195
0.000820078
-0.00042464
0.00088745
-5.03878e-05
6.58842e-05
0.000504311
-0.000519807
-2.48119e-06
4.3752e-05
-4.66256e-05
6.95193e-05
2.38445e-05
-8.03188e-05
0.000576722
-0.000790689
-0.000972965
0.00120134
0.000562314
-0.000397093
0.000403322
-0.000262284
0.000381545
6.51887e-05
-4.1386e-05
-2.57499e-05
0.000394763
-2.02009e-05
0.000418913
-3.74898e-05
-6.60382e-05
0.000442224
-0.000443446
-0.000505421
0.000506643
-1.31547e-05
-0.000413928
0.000490956
-7.70278e-05
-5.95766e-05
7.07477e-05
-0.000580612
-0.0001453
-0.0013048
0.000659412
0.000205844
-0.000474983
-0.000381254
-1.58387e-05
7.3232e-05
-8.04327e-06
1.10002e-05
-2.63961e-06
-8.48303e-06
-1.2631e-05
1.21038e-05
-3.62675e-05
6.892e-05
3.49987e-05
-0.000705006
0.000250428
-0.000160445
0.000615023
-0.000568558
0.000468627
0.000164567
-0.00020154
-7.52068e-05
-7.05881e-07
4.80184e-05
1.58154e-05
-6.31279e-05
-0.000350908
0.00025792
0.000197278
-0.00010429
0.00031863
-0.000182666
0.000430816
-0.000566781
-0.000535444
0.000485348
0.00022467
4.87505e-05
-0.000158282
-0.000115138
-2.04409e-06
-2.74305e-05
0.000106266
-7.67909e-05
0.000331634
-0.000411479
2.02689e-05
-2.25455e-05
0.00031002
-0.000137713
7.64095e-05
-5.69973e-05
0.000930553
-0.000839016
-0.000508095
0.00053302
0.000374157
-0.000735694
3.93635e-05
6.02214e-05
-0.000836537
6.35212e-05
-0.000809264
0.000422887
-1.01807e-05
-0.000178455
0.00036134
-0.000326071
0.000122096
-6.95788e-05
-9.6656e-05
-5.51389e-05
1.32843e-05
4.36485e-06
-0.000154847
-2.63734e-05
0.000190454
-9.23316e-06
-2.65382e-05
5.63503e-05
4.61644e-05
-7.59765e-05
5.55465e-05
-9.934e-06
-4.56125e-05
-0.000564412
0.00141599
-0.00111178
0.000477715
-0.000552873
-0.000633646
-1.883e-06
1.33883e-06
-6.04648e-06
-3.68512e-08
-6.64568e-05
7.66065e-05
-1.01128e-05
-9.2861e-05
5.18689e-05
0.000241601
-0.000200609
-0.000884503
0.000913809
0.000374734
-0.00040404
-0.000245208
0.000168544
-0.000857414
0.000934078
-0.00107551
0.000525508
0.000735018
-0.000133667
0.00044285
-0.000331071
0.000687049
0.000124416
0.000281325
-0.000148744
-0.000256998
7.02078e-05
-0.000440409
4.92211e-05
0.00032098
0.000620351
-3.62855e-05
7.18285e-06
-5.02407e-05
6.75794e-05
3.64525e-05
-5.37912e-05
0.000683376
-8.10513e-06
0.00031162
-0.00098689
-0.000146418
0.000181274
-0.000127717
2.57017e-05
1.04013e-06
8.7841e-05
-4.89455e-05
-1.19238e-05
5.73038e-06
-0.000940792
-9.04079e-05
0.000150672
0.000880528
-0.000982292
0.000479653
0.00100787
-0.000505229
0.000105851
-0.000452255
0.000567943
0.000567688
1.10003e-06
-4.86472e-06
-6.37055e-05
0.000142944
0.000378477
-0.000457716
5.93163e-05
-0.000530368
0.000501094
-0.000476379
-0.000226969
9.71341e-05
-9.78424e-05
0.000762967
-0.000858145
0.000345605
-0.000205461
0.000291176
0.000356508
0.00122238
-0.00056268
0.000264656
-0.000924351
0.000442801
-7.21685e-05
-0.000254498
9.17141e-05
-3.15604e-05
9.01013e-05
-1.11941e-05
-4.54542e-05
-3.34531e-05
6.79338e-05
-3.22322e-05
-7.46765e-05
3.89749e-05
3.36351e-05
-6.44226e-05
-2.13124e-05
5.20999e-05
-0.000409407
-2.56256e-06
-0.000429069
0.00023569
-3.48921e-05
0.000287728
-0.000449617
0.000506029
-0.000344141
0.000484159
0.00109565
-4.12212e-05
-7.0978e-06
6.26443e-05
-0.000554686
-1.56893e-05
0.000792712
-0.000679116
0.000389473
-0.000503069
-0.000151666
-0.000782893
-2.52766e-05
0.000236725
0.000504851
-0.000528221
-0.000704591
0.00156181
0.00036516
-4.47843e-05
-0.00114986
0.00131099
-0.000116348
-1.89763e-05
0.00012054
0.000119141
-0.000172101
0.000144963
0.000146825
0.000325227
-0.000236434
-8.04865e-05
-0.000482193
0.00135047
-0.00055005
-0.00150501
0.000363236
-0.000455027
8.05512e-05
2.10122e-05
0.000338109
-6.77372e-05
5.86026e-05
-4.40145e-05
0.000600435
-8.45149e-05
-0.000323135
0.000394833
1.28167e-05
0.000132886
-0.000202894
-4.97262e-05
0.000274937
2.63666e-05
0.000678068
-0.000630655
-0.000510659
0.000463246
0.000677532
-0.000864031
0.000635157
-0.000448658
-0.000174865
9.43789e-05
0.000211771
0.000609799
-0.000470853
0.00032281
0.00106185
0.00029881
-4.71544e-06
0.000490013
-0.000270315
-0.000219698
0.000583457
-0.00084254
-0.000290917
9.00692e-05
-2.61215e-05
-0.000465942
-0.000156689
0.000107849
0.000514783
0.000211865
0.000384318
-0.000421066
0.000702811
-0.000212798
-1.11984e-05
9.74312e-05
5.34922e-05
0.000489069
-0.000699341
0.000205428
-0.000158948
0.000107908
-0.000154389
-0.00010576
0.000150187
7.02254e-05
-0.000114652
0.000253835
-0.000154166
9.70543e-05
0.000303896
-0.000147115
-0.000185223
5.31637e-05
0.000211418
-7.93583e-05
6.20178e-05
0.00031277
-2.52112e-05
-2.24035e-05
0.00017652
0.000158654
-2.15619e-05
0.000240759
-5.59921e-06
0.000165311
-6.02438e-06
-3.77686e-06
6.80267e-05
-5.82254e-05
-7.54535e-05
-2.62243e-05
9.83979e-05
3.27983e-06
1.86844e-06
-0.000203705
0.000189561
1.22755e-05
-2.37585e-05
-5.53523e-05
3.65721e-06
-2.75838e-05
8.5615e-06
4.02613e-05
-2.1239e-05
-3.0536e-05
2.56527e-05
8.6972e-05
-8.20887e-05
1.42341e-05
-4.72639e-05
-0.000261707
0.000964518
-3.03708e-05
-1.35901e-05
1.63771e-05
7.34412e-05
-0.000103977
-6.28447e-05
5.79379e-05
1.91409e-05
8.5648e-05
-4.22272e-05
-0.000527886
0.000105328
-0.000514437
0.000936995
-0.000159014
7.34136e-05
-0.00113829
-0.000213385
0.0011271
0.000224573
-6.07767e-05
2.50295e-05
5.96253e-05
-2.38781e-05
0.000577774
-0.000283129
-0.000822531
3.02041e-05
0.000147409
-0.000304871
0.000120878
0.000236549
-5.25559e-05
0.00013018
-0.000101707
-0.000132996
0.000104524
1.26517e-05
4.01714e-05
-1.72918e-06
-5.10939e-05
-5.32267e-05
0.000736328
-0.000502299
0.000479276
-1.13404e-05
8.07435e-05
-0.00023699
-0.000313121
0.000283518
0.000266593
0.000158753
-4.74661e-05
0.000181612
-0.000181873
3.45469e-05
-0.000124128
2.83521e-05
1.00013e-05
-1.83859e-05
3.58071e-05
-5.83236e-05
4.09025e-05
-2.26754e-05
-8.05128e-06
-7.09806e-05
5.30969e-05
-8.71127e-05
1.88085e-05
-3.55676e-06
-3.36377e-05
-0.000708893
3.03701e-05
4.24554e-05
-5.4017e-05
2.40648e-05
6.52131e-05
-3.92224e-05
-9.53037e-05
8.24716e-05
1.74128e-05
3.53922e-05
-1.33012e-05
-8.49094e-05
4.8517e-05
-1.43678e-05
-0.000110008
3.81815e-05
-2.01766e-05
-6.89452e-05
5.09404e-05
-3.48294e-05
3.73321e-05
2.315e-05
2.82809e-05
-0.000203146
0.00109095
5.10472e-05
-0.00114199
0.000147206
-0.000165416
0.000244155
6.48937e-05
8.54746e-06
-7.79816e-05
-9.6999e-05
3.12814e-05
-8.05688e-05
4.92874e-05
0.000161515
1.71134e-05
-5.47013e-06
3.28078e-05
-5.28516e-05
9.55169e-05
-0.000101541
6.05615e-05
0.000102758
-0.000146206
0.00019637
-0.000176884
0.000140234
9.70415e-05
-9.00694e-05
5.52774e-06
0.000138883
-6.95591e-05
0.000176928
-0.00018293
0.00110299
0.000172261
-0.000233577
0.00020155
-1.65053e-05
0.000112264
-9.0231e-05
0.000137259
-0.000230794
9.7873e-05
-4.33764e-06
-0.000117083
0.000253002
0.000134496
-0.000270415
7.97006e-05
-0.000107404
-0.000124486
-2.25532e-05
0.000147039
0.00143142
-5.45245e-05
1.92024e-05
-1.54892e-05
-7.49005e-06
0.000108662
-1.31452e-05
-5.14563e-05
1.3158e-05
8.29023e-05
-4.4604e-05
2.41709e-05
0.000276921
-7.30436e-05
-1.58235e-05
0.000151292
-9.61144e-05
0.000138064
-3.14285e-05
7.13077e-05
-1.64262e-05
0.000106908
-0.000134194
0.000156702
-0.000242176
0.000170375
0.000115366
-7.38765e-05
0.000101522
7.56096e-05
-9.07905e-05
0.000107399
3.65547e-05
7.4848e-05
-1.93638e-05
-7.05837e-05
3.58971e-05
-1.43895e-05
4.90761e-05
3.79159e-05
-6.66885e-05
-1.82889e-05
-4.41481e-05
0.000164214
-0.00010225
0.000158547
5.03454e-05
-6.98545e-05
9.85383e-05
-3.52456e-05
8.93047e-05
4.74631e-05
1.27701e-05
3.18672e-05
5.40868e-05
-6.95155e-05
-0.000336444
4.17628e-05
0.000364196
0.000298173
-7.62825e-05
-0.000251028
2.91374e-05
0.000140051
0.000186221
-0.00010937
-0.000216901
0.000128548
0.00106471
-0.000316936
-0.000811371
-8.58193e-05
0.000348653
3.53388e-05
-0.000169382
0.00023315
0.00111686
0.000250244
-0.000148058
8.15167e-05
3.12958e-05
3.69176e-05
4.25129e-05
-4.84603e-05
2.13172e-05
0.000325953
-0.000106897
-0.000114914
5.24289e-05
0.00047958
-1.27523e-05
-6.37039e-05
-4.46061e-05
3.19763e-05
0.000120029
-0.000286139
-8.58522e-05
-0.000150146
-4.61827e-05
0.000170104
6.43418e-05
0.000482774
-0.000383546
-0.00016357
-5.08355e-05
0.000217647
0.000682453
-0.000291435
-1.90252e-05
0.000265891
4.45692e-05
-0.00018009
0.000404627
-0.000428154
-0.000225742
0.000473806
-0.000112535
0.00011614
-4.35883e-05
-0.000174802
-0.000171928
-0.000416532
-0.000135375
0.000467392
-0.000826243
0.00093927
0.000224261
0.000127278
3.35099e-05
-0.000128076
0.000272045
-0.000266745
5.9041e-05
0.000227222
-7.29788e-05
-0.000169082
1.48387e-05
0.000291184
-0.000143853
-2.12393e-05
8.05554e-06
-0.00106199
0.00101721
0.000273057
2.46521e-05
0.000185065
0.000105267
-2.42903e-05
3.07298e-05
-2.58033e-05
0.000710234
0.000707063
0.000200473
2.74587e-05
-0.000934995
-1.96867e-06
0.000127977
0.000329966
2.38255e-05
-3.52649e-05
6.26001e-06
6.4902e-05
-2.99325e-05
0.000496183
-0.00046339
-2.86034e-06
-0.000844483
0.000703847
7.32855e-05
-0.000118545
2.06464e-05
2.21046e-05
-4.83513e-06
-3.45455e-05
-1.51089e-05
4.57366e-05
-7.63329e-05
5.88772e-05
3.29108e-05
0.000392006
-2.29138e-05
-2.90707e-05
8.32658e-05
0.00106543
2.5513e-05
2.2156e-05
5.50699e-05
-4.19809e-05
-0.000131923
-0.000224326
0.000242102
-5.97567e-05
-0.000894586
0.000574391
-0.000675805
-2.30271e-05
-0.000696678
-0.00043163
-0.000633622
0.000905999
-9.86865e-05
5.43533e-05
0.000137713
-0.000219425
4.64573e-06
-0.000195534
4.186e-05
-0.000906794
0.000471537
-2.89815e-05
-0.000965338
0.000670881
-0.000600129
2.38133e-05
-4.16238e-05
0.000695351
-0.000677541
0.000231258
0.000295909
2.3384e-05
-0.000375114
5.58215e-05
-7.11659e-05
0.000104639
3.04641e-05
4.08756e-05
-4.75548e-05
3.44285e-06
-0.000206814
8.98834e-05
1.4598e-05
0.000155938
0.000404771
-0.000591093
9.15863e-06
0.000424611
6.85791e-05
-0.000100214
-0.00056079
-0.000676189
0.00123159
0.000107362
-9.41547e-05
0.000529155
0.000105686
0.000585608
-0.000547702
-0.000143592
-0.000116872
0.000168946
-0.000992866
-3.98825e-05
2.41145e-05
0.000544923
-0.00049924
0.000157057
-0.000181587
0.000189607
-0.000165077
0.00148691
-0.000957686
0.000377179
-0.000906399
0.000443541
7.55252e-05
-0.000435782
-7.08252e-05
0.000790254
-0.000588102
-0.000366642
0.00016449
0.000247628
-0.00020526
-0.000199015
0.000627934
-0.000346522
-0.000387235
-5.0537e-05
-0.000201638
0.000236478
0.000133115
-0.000167954
-0.00121883
1.81642e-07
0.000141917
0.00081695
9.07281e-05
0.000208105
-0.00111578
0.000188241
4.09045e-05
0.000111886
7.75121e-06
2.56295e-05
0.000475233
-0.000901719
0.000569316
-0.000157207
-0.000255345
0.00013661
0.000275941
-0.000330754
0.000654182
-0.0006604
0.000656467
-0.00043874
0.000497156
5.1322e-05
0.00114321
-0.00114349
-0.000128857
-0.00025799
0.000934678
-0.00092498
-0.000312415
0.000535963
-0.000443885
0.000970112
-0.00100261
0.000920752
-0.000900974
-0.000361943
-8.09664e-05
1.1821e-05
-0.000193702
0.000116206
0.000158047
-5.6748e-06
0.000186808
4.60893e-05
-4.07527e-05
8.71559e-05
-0.000102741
0.000116266
0.000145022
-0.000206653
-0.000368616
0.000215264
-0.000111509
-0.000725455
-0.000138216
0.000675161
-0.000792827
-0.000425582
-0.00050753
0.000818218
0.000769151
-7.07741e-05
-0.000165357
2.28656e-05
-0.000884464
1.89412e-05
-9.86117e-05
9.51522e-05
-0.00087907
1.12612e-05
1.39779e-05
0.000826116
-0.000851355
-4.83427e-05
5.40543e-05
0.00064255
-0.000696604
-0.000231768
7.25381e-05
-0.00017606
0.000597058
-0.000245845
-0.000143628
-7.26393e-05
-0.000570355
-0.000234314
0.000414186
-0.000416439
-6.76858e-05
0.000812453
-0.000766781
-0.000712048
-0.000838477
0.000966036
0.000584488
4.54017e-05
-3.13455e-05
0.000920622
0.00014508
0.000214161
0.000940236
-0.00100305
0.000700871
-9.83456e-05
-0.00105215
0.00109615
5.43415e-05
-0.00113738
-9.03603e-06
7.13169e-05
-6.48089e-05
-0.000553892
-0.000244218
0.000572368
6.54402e-05
-0.000483303
-0.000160905
0.000508833
-0.000371616
-2.09972e-05
-0.00104013
-0.000479214
0.000463081
0.000140549
-2.18503e-05
-3.75385e-05
8.0706e-05
-0.000528524
-0.000232021
-4.75214e-05
-0.000608875
-2.98768e-05
0.000638752
2.40875e-06
4.11493e-07
-8.34644e-06
0.000277826
-0.00127923
-5.38413e-05
0.00105525
-0.000441465
1.34139e-05
-1.1474e-05
-5.89715e-06
0.000508824
-0.000491453
-4.6612e-05
3.09369e-05
-0.000948388
-6.21427e-05
3.39537e-05
-8.67251e-05
-4.85849e-05
-1.80155e-05
2.95173e-05
0.000585943
-0.00030003
0.000120927
0.000261578
0.000350964
0.000168679
-0.000120447
5.71052e-05
0.00014372
-0.0004426
-5.20283e-05
0.000113161
-0.000186312
9.14746e-05
-0.000105735
0.000143477
3.04565e-05
0.000104757
-1.51723e-06
-8.26262e-06
3.81104e-05
-3.69456e-05
-0.000147014
0.000202236
-4.96874e-05
-5.53446e-06
0.00085933
-0.000777749
0.00055378
4.35192e-05
0.000180449
-3.4431e-05
0.000179522
-2.82419e-05
2.83068e-05
-1.26958e-05
8.27423e-06
-6.76134e-05
1.57509e-05
1.01515e-05
-2.65878e-05
1.64363e-05
-6.41972e-05
1.30409e-05
-5.60625e-05
3.57444e-05
2.03181e-05
-6.22942e-05
5.58713e-05
6.42288e-06
-4.55661e-05
-0.000300192
-4.98982e-05
4.43652e-05
5.53297e-06
2.85041e-05
-0.0011053
0.00116857
-0.00048228
-0.00150882
-1.32205e-05
2.33719e-05
-6.86101e-05
0.000214049
0.000110961
-2.9101e-05
-7.88454e-05
2.27829e-05
-9.94409e-07
0.000697855
-0.000680144
-0.000261929
2.25239e-05
5.97315e-06
4.99168e-06
-0.000300083
-0.0002227
-0.000203518
0.00026777
0.000149183
4.89075e-05
-7.29478e-05
4.33761e-06
-0.000222553
0.000189294
-3.54853e-06
-0.000425069
4.84405e-05
0.000435945
-7.87356e-07
-3.05421e-05
0.000691164
-9.22227e-05
-4.46269e-05
8.42604e-05
0.000661237
0.00103965
-0.00076997
0.000698523
7.14085e-05
0.000447082
-0.000339959
-1.85645e-06
-2.23535e-05
-0.000104956
0.000115919
0.00011391
-0.000169574
-6.0255e-05
-0.000116609
-8.67358e-05
-0.000453158
3.36742e-05
-0.000632211
-0.000175281
0.000127643
0.000679849
0.000883502
-3.82585e-05
1.83145e-05
2.66127e-05
-4.53964e-05
7.58967e-06
6.77613e-05
-5.11695e-06
0.000199487
-0.000356365
-0.000255276
-9.21063e-05
-9.5819e-06
0.000212649
-0.000231313
0.000285645
-3.83566e-05
-0.000109244
7.9987e-05
6.769e-06
-0.00035895
-0.000606784
0.000545823
0.000866959
-2.91501e-05
-0.000230148
-1.16653e-05
-0.000668736
0.000453663
-2.7875e-05
-0.000298574
0.000270151
-0.000233366
0.000335557
-0.000170486
0.000275208
-0.000159853
5.51308e-05
-1.42533e-05
-1.90272e-05
1.40824e-05
-0.00014437
0.000121962
2.2408e-05
4.90715e-05
-5.48939e-05
5.8224e-06
1.81536e-06
-8.26621e-05
7.58772e-05
-0.000108093
0.000646153
0.000252195
-3.15072e-05
6.60603e-05
0.000120332
-0.000100744
-0.000252047
0.00031196
6.47831e-07
-0.00109988
-6.20836e-05
0.000158914
0.00120854
-0.00115365
3.65841e-05
-2.93308e-05
3.73539e-05
0.000106348
-7.38292e-05
0.000118567
0.000416575
9.823e-07
-9.83118e-06
0.000425004
-0.000277696
-0.000385994
-2.23365e-06
-0.000781173
-0.000461201
-0.000260362
-0.000138115
5.56813e-05
-0.000323375
6.34086e-05
-2.11391e-05
-1.77199e-05
-2.45496e-05
5.74356e-05
0.000151269
0.000107598
8.82898e-05
-0.000169825
-0.000326977
0.000119067
0.000488605
-3.7218e-05
1.06302e-05
-3.47216e-05
-0.00101352
-1.69613e-05
1.31285e-05
-3.70395e-05
-2.81607e-05
-8.68583e-06
-0.000193159
-9.68086e-05
0.000260897
-9.40636e-05
0.000288133
-0.000328601
6.30892e-05
-6.98329e-05
3.2891e-06
3.0206e-05
-9.56378e-05
-0.000109509
0.000557033
-9.65062e-06
2.92273e-05
-0.000191978
-0.000228045
-0.000773191
0.000981991
-0.000717973
0.000369143
-0.000489647
7.50793e-05
0.000846257
-0.000160819
0.000185144
7.28098e-05
2.90324e-05
-3.56551e-05
7.96159e-06
9.48541e-05
-3.01359e-05
1.18884e-05
6.68534e-05
-6.46054e-06
-0.000136726
0.000726562
-0.000219101
-0.000706477
0.000214292
0.000121556
0.000162027
2.14782e-05
2.75933e-05
-0.000112677
0.00117398
-1.1474e-05
-9.29524e-05
-0.000609018
-1.12565e-05
-0.000925389
0.000563838
-1.66659e-05
0.000157117
-2.00964e-05
0.000187114
-6.00757e-05
-6.31944e-05
0.000197139
2.77595e-05
1.3227e-05
3.26387e-05
0.000538592
7.32855e-05
-0.000215752
0.000343185
0.000103946
-0.000102898
-9.25231e-05
-0.000267443
7.9937e-05
5.86511e-05
5.19859e-05
1.36461e-05
-2.98249e-05
0.000406839
-0.000494319
-2.20285e-05
-0.000692548
-0.000523301
0.000442658
-4.36394e-05
7.71097e-05
0.000102897
-4.55567e-05
-1.61023e-05
7.59623e-05
-0.000245469
0.000153889
-6.18792e-05
0.000221654
-3.75095e-07
0.000130357
-8.44807e-05
7.72452e-05
-0.000126911
7.1472e-06
6.54233e-06
0.000806416
-0.000469237
-0.000168635
0.000447731
-0.000167676
5.21331e-05
-0.000147237
7.85146e-05
0.000444379
-0.00117796
-0.000279936
-0.000159684
0.000316619
-0.000366296
-0.000122863
-0.000545176
0.000461483
-0.000161031
-4.85761e-05
2.40744e-05
-0.000507282
-0.000512712
-0.00121669
-6.85354e-05
4.03809e-05
-0.000125265
-3.45001e-05
7.00423e-05
1.74541e-05
-5.29962e-05
0.000169432
-0.000148353
-2.2842e-05
0.000231259
-0.000254228
-0.000156701
0.000462978
-0.000369983
0.000154885
-7.9886e-05
-0.000474046
0.000975528
-0.000967178
3.19514e-05
0.000384662
-0.00024644
-2.48444e-06
-2.8501e-06
-4.01196e-05
-1.61554e-05
4.51899e-06
9.36186e-06
-0.000143872
-0.00144587
-0.000758687
-0.000375545
0.000308363
9.19842e-05
-2.56919e-05
1.5137e-05
-0.000125362
-3.4362e-05
-1.30692e-06
-2.42459e-07
-0.000197616
5.00921e-05
-2.55175e-05
-8.6109e-05
-0.000506511
0.000516995
-0.000458968
0.000511677
5.31832e-06
-0.000465504
0.000403374
6.21294e-05
-0.00040305
-5.59184e-05
3.24578e-07
-0.000680424
0.000680897
-0.000544395
0.00055889
-1.44949e-05
-0.000500697
-0.000631024
-4.94003e-05
0.000653598
0.000626324
2.72737e-05
-0.000559149
-0.000423199
0.000488401
-0.000441726
-4.66756e-05
-0.000328535
-9.46647e-05
-0.000237589
-9.09456e-05
0.000178205
-0.000134905
-5.93844e-05
0.000612325
1.39998e-05
0.000628562
-1.62371e-05
0.000646018
2.0397e-06
0.000508232
-0.000374171
6.76707e-05
9.05524e-08
-8.89552e-05
-0.000171369
9.52466e-05
-0.000235434
0.000144419
-9.59102e-05
-5.79903e-05
-3.49555e-05
-0.00023284
-0.000690864
0.000210629
-2.17594e-05
7.0282e-05
0.000452571
-0.000588475
0.000173185
-0.000216922
0.000136177
0.000137798
0.000101687
2.02743e-05
-0.000838404
-3.93587e-05
-4.83026e-05
0.000127455
-7.63718e-05
9.77635e-05
-0.000770375
-0.000190075
-0.00149222
0.000543074
0.000277394
-0.00021862
-2.63537e-05
0.000637333
-9.58293e-05
0.000138374
-5.71493e-05
9.46149e-05
0.0010627
-0.00126707
7.54289e-05
3.50532e-07
-7.57795e-05
0.00126951
3.37994e-05
5.25461e-05
0.000224491
-0.000133688
2.62229e-05
2.04889e-05
0.00022923
0.000780473
-0.000798978
-0.000200596
-0.000273699
-1.95828e-06
-0.000366278
0.000199844
0.00068507
0.000818526
-0.00082486
0.000122935
-5.55956e-05
0.000152522
-9.20193e-05
0.000272946
-0.000160978
0.000169357
-0.000520015
-0.000766908
-0.000211426
-6.62803e-05
0.000173402
-7.51409e-05
0.000124935
-0.000223196
0.000230006
0.000216181
-0.000210701
9.23884e-05
-8.08974e-05
-7.32118e-05
-0.000176934
0.000475597
0.000124251
1.85316e-05
-1.22323e-05
-1.21857e-05
3.61832e-05
0.000165023
0.000299912
-0.000427687
-5.22124e-06
-0.000121654
0.00067503
0.000586398
-0.000204229
-0.000102744
-0.00051737
-0.000594011
0.000581258
-0.000168042
8.35718e-06
-0.000703761
0.000521803
-0.000149112
-0.000333548
0.000193681
6.19999e-06
0.000127801
0.000352007
-0.000510068
-6.97574e-05
0.000206762
3.211e-05
-0.000224066
0.000235192
-0.000576294
3.85799e-05
-3.88074e-05
-3.13313e-06
0.000389911
0.000117059
0.000407867
0.000426896
-0.000132412
0.000130739
0.00042381
-0.000467145
-6.72876e-05
1.59352e-05
-3.11463e-06
-7.09014e-06
-4.79703e-05
-5.63113e-05
2.13722e-06
-0.000487745
-0.00134574
0.001111
0.00026794
-0.000166003
0.000704479
0.000196754
6.69198e-05
5.39739e-05
5.29717e-05
-0.000183109
0.000251755
-3.17401e-05
1.09517e-05
3.40153e-05
0.00015705
-0.000225278
2.74754e-05
5.43651e-05
-5.90614e-05
0.000120962
0.00075897
0.00050311
-0.000397685
-3.85657e-05
0.00022869
-0.000167508
-0.000328625
-0.000197416
0.000292489
-0.000240892
8.33398e-05
-0.000104614
6.56551e-05
0.00027175
-0.000337325
-8.00801e-08
-7.47692e-05