/*--------------------------------*- C++ -*----------------------------------*\
| =========                 |                                                 |
| \\      /  F ield         | OpenFOAM: The Open Source CFD Toolbox           |
|  \\    /   O peration     | Version:  v1912                                 |
|   \\  /    A nd           | Website:  www.openfoam.com                      |
|    \\/     M anipulation  |                                                 |
\*---------------------------------------------------------------------------*/
FoamFile
{
    version     2.0;
    format      ascii;
    class       volScalarField;
    location    "0.33";
    object      nut;
}
// * * * * * * * * * * * * * * * * * * * * * * * * * * * * * * * * * * * * * //

dimensions      [0 2 -1 0 0 0 0];


internalField   nonuniform List<scalar> 
5794
(
0.00209728
0.000835986
0.00299352
0.00428111
0.00586059
0.00101622
0.00122799
0.0016767
0.00252135
0.00169414
0.00203487
0.000881625
0.00137099
0.00173848
0.00216748
0.000793749
0.0038719
0.00193458
0.00118107
0.000645344
0.00170592
0.00144959
0.00247598
0.000990412
0.00163554
0.00339225
0.00441978
0.00603083
0.00437623
0.000832894
0.00173019
0.00145198
0.0024285
0.00110497
0.00403848
0.00248133
0.00078708
0.000712867
0.00217558
0.00326765
0.00471574
0.00265148
0.000737648
0.00147786
0.0019735
0.00232372
0.0010987
0.00119656
0.00127598
0.00103599
0.000237863
0.00305094
0.00132361
0.00171817
0.000129933
0.00239909
0.00139134
0.00174173
0.000720524
0.00443611
0.00131046
0.000620412
0.00162394
0.00335491
0.00558511
0.000846417
0.0043344
0.000591667
0.000954341
0.000755412
0.00605942
0.00467959
0.00579472
0.0022823
0.00140906
0.00548983
0.000696833
0.00305576
0.00174843
0.000140669
0.000764424
0.000989468
0.00313791
0.00203662
0.00116693
0.000937417
0.000755137
0.00105069
0.000954886
0.0040465
0.00519299
0.00239906
0.00343433
0.00512651
0.002742
0.00837051
0.0041083
0.00320244
0.00247668
0.00140326
0.00146744
0.000832964
0.000741033
0.00222385
0.00269727
0.00734593
0.000532084
0.00407968
0.00523708
0.00190193
0.000624144
0.00368223
0.00152312
0.00100876
0.00244367
0.00402375
0.00171642
0.00467438
0.00122403
0.00100342
0.006137
0.000539321
0.000721373
0.00606167
0.00330926
0.00331357
0.00148708
0.00100761
0.003623
0.00408143
0.00100427
0.00161847
0.0020781
0.00291731
0.00808863
0.00238519
0.00273422
0.000688016
0.000526029
0.00136213
0.00165884
0.00245789
0.00346529
0.00280002
0.000764837
0.00622116
0.00193035
0.0013434
0.0049839
0.00219429
0.00072326
0.00275243
0.00759534
0.000513651
0.00532715
0.000893069
0.00192631
0.000635504
0.00208495
0.00082801
0.00117229
0.00149452
0.000713285
0.00120352
0.00205218
0.00201525
0.000874201
0.00100469
0.000606865
0.00110359
0.000508271
0.00201732
0.00102741
0.00134394
0.000581857
0.00152079
0.000577967
0.00129802
0.00140938
0.00202456
0.000663318
0.000957596
0.00091414
0.00171315
0.000801175
0.00230323
0.000772239
0.00116031
0.000980194
0.000555783
0.00164182
0.00105886
0.00189042
0.00121678
0.000856764
0.000571214
0.00131616
0.00172338
0.000969103
0.00100204
0.00112361
0.00220467
0.00108695
0.000874963
0.000889314
0.0019588
0.00110831
0.00601917
0.00360298
0.00235839
0.00228796
0.000859826
0.00280492
0.00316579
0.00129791
0.00358042
0.00234385
0.00225756
0.003636
0.00545631
0.000858989
0.00250529
0.00815406
0.00402789
0.00220645
0.00293724
0.000513932
0.00453389
0.00135521
0.00219179
0.00203154
0.00516833
0.00102377
0.0037988
0.000987877
0.00412119
0.0040978
0.00176706
0.000957002
0.00160385
0.00127871
0.00815405
0.00285388
0.000615327
0.000796788
0.000768902
0.0021769
0.00354957
0.00119155
0.000979328
0.000689942
0.000799517
0.00512172
0.00061
0.000804954
0.00565129
0.000888966
0.000846955
0.00354011
0.00283442
0.0022274
0.00276653
0.00325289
0.000564115
0.00108232
0.00146277
0.002797
0.00341654
0.00143088
0.00286044
0.00129541
0.00127217
0.00229775
0.00518215
0.000870969
0.00173952
0.00166055
0.00151228
0.0015024
0.00131115
0.00199527
0.00337583
0.00461142
0.00236041
0.00328547
0.00522476
0.00249276
0.0033032
0.00496295
0.00738704
0.00209399
0.00586575
0.000924163
0.00305941
0.000767995
0.0025996
0.00591025
0.0021696
0.00318184
0.000653998
0.000579207
0.00101504
0.000583743
0.00408661
0.00112166
0.00290316
0.00126629
0.000803917
0.00241182
0.00110216
0.00112279
0.00279145
0.00280346
0.000967475
0.00078337
0.000902329
0.00521631
0.00553095
0.00469155
0.00434679
0.00356844
0.00163584
0.00425213
0.00519388
0.000703893
0.00234453
0.00289653
0.000716838
0.00112342
0.00186734
0.00191129
0.000817434
0.000928245
0.00160982
0.000932302
0.00121097
0.0011114
0.000541387
0.000776197
0.000887884
0.000966662
0.000983715
0.00248651
0.00137308
0.00069775
0.000839303
0.00188064
0.00101262
0.00237336
0.000516006
0.00221689
0.00176565
0.0016532
0.000929682
0.000988064
0.00135462
0.000745336
0.0019584
0.00119452
0.0015755
0.00598415
0.00100576
0.00268464
0.00162134
0.00232206
0.00226585
0.00185256
0.0015375
0.000715788
0.00105771
0.00346171
0.000507687
0.0033442
0.000782467
0.00721093
0.00311514
0.00171158
0.00127584
0.00179008
0.000439754
0.0030524
0.00330167
0.000750814
0.00277741
0.0031004
0.00126265
0.00705482
0.00270333
0.00434811
0.000876575
0.000939792
0.00173218
0.000650626
0.00317446
0.000967028
0.00145712
0.000575585
0.00160861
0.00155817
0.00237547
0.00132349
0.00233474
0.0045014
0.000454297
0.00144301
0.0022526
0.00142851
0.00147363
0.000567336
0.0041471
0.00346657
0.00249982
0.00441315
0.00122308
0.00169624
0.000762696
0.000751966
0.000969657
0.00202019
0.00361766
0.00242504
0.00294247
0.00591671
0.00340845
0.00137638
0.00155316
0.000710331
0.0010272
0.000805059
0.00123704
0.00321624
0.00078549
0.00295399
0.00217317
0.00158581
0.00171129
0.00102078
0.00136971
0.00228844
0.00197147
0.00096153
0.000805979
0.00100259
0.000817426
0.00213586
0.00445173
0.00260287
0.000461318
0.000952772
0.00331129
0.0012449
0.000671707
0.00234744
0.00165077
0.00498443
0.000528006
0.00472394
0.00924404
0.00369596
0.00667939
0.00144479
0.000596834
0.000934786
0.00126335
0.00150243
0.00402886
0.00404716
0.00481443
0.00523059
0.00238619
0.000159515
0.00395357
0.00434819
0.0035459
0.00277386
0.00313881
0.00555327
0.00604148
0.00212813
0.000605048
0.000907803
0.00133994
0.00197637
0.00235898
0.00563569
0.00348183
0.000863233
0.00231644
0.00195776
0.00128015
0.000770689
0.00431391
0.00392918
0.0038198
0.00149277
0.000958846
0.00101419
0.00332156
0.000426864
0.00204178
0.00550828
0.0053948
0.000730378
0.00212747
0.00381419
0.000530427
0.00103596
0.00103461
0.00480932
0.000835323
0.00825292
0.00107766
0.00290024
0.000514741
0.000851535
0.00241877
0.00375655
0.000497036
0.000806964
0.00458821
0.00115593
0.000582016
0.00572463
0.00630805
0.00431614
0.00136346
0.00279533
0.00208755
0.000564443
0.00157493
0.00120774
0.000289253
0.00393862
0.00293588
0.00292158
0.00235261
0.000786306
0.00277031
0.00383755
0.00185154
0.00123602
0.00257389
0.000717666
0.00167648
0.00270781
0.000720757
0.000755558
0.00269595
0.000957377
0.00126296
0.00247821
0.000751751
0.000661581
0.00257256
0.00140269
0.00391815
0.00110169
0.00153408
0.000536894
0.00371632
0.00791227
0.000486829
0.00295677
0.00318516
0.00187625
0.00192623
0.000816153
0.00387176
0.000504177
0.000704938
0.00161009
0.00299271
0.00143994
0.00139363
0.00139542
0.000861576
0.00555585
0.00342454
0.00214303
0.00581382
0.00481357
0.00253174
0.00837164
0.00340828
0.00362893
0.00130367
0.00102651
0.00456216
0.00254278
0.00508542
0.000810689
0.0013396
0.000829373
0.00519667
0.00261682
0.00298071
0.000318536
0.000831338
0.000478233
0.00314267
0.00156848
0.00173297
0.00278619
0.00537268
0.000570739
0.00282952
0.00290704
0.00107734
0.000155103
0.00157304
0.00421514
0.00559212
0.00219548
0.00152565
0.000667486
0.00081745
0.0018724
0.00107181
0.00085154
0.00147558
0.0003421
0.00300879
0.00382641
0.00573033
0.000482633
0.0014058
0.0011168
0.00495575
0.00645729
0.000985169
0.00192087
0.00100739
0.000320091
0.00101777
0.000631762
0.00215656
0.0031586
0.00081064
0.00143991
0.0053441
0.00187377
0.00079953
0.00419527
0.00255308
0.00261938
0.00518749
0.00260202
0.00100696
0.00179651
0.000933866
0.000509759
0.00283873
0.0027488
0.000654378
0.000545126
0.00279997
0.00496058
0.0025434
0.00126361
0.00367222
0.000865791
0.00161851
0.00141351
0.000927503
0.000614252
0.00328208
0.00525832
0.00535441
0.00254713
0.00287679
0.00175976
0.00159088
0.00452751
0.00130342
0.00148027
0.00300766
0.00554365
0.00296487
0.00216862
0.00202838
0.00102419
0.00520652
0.00299659
0.000717822
0.00344477
0.00259692
0.00425187
0.00320291
0.00182004
0.000498997
0.00379307
0.00760964
0.00304921
0.00350266
0.00315449
0.00188727
0.00673885
0.000401414
0.000471241
0.000770157
0.000778732
0.000677306
0.000294533
0.000891025
0.00389136
0.00321316
0.00102458
0.00230012
0.00231276
0.00734121
0.0010142
0.00720141
0.00386157
0.00340391
0.00435451
0.000775819
0.000734756
0.00581683
0.00277861
0.00664762
0.00824981
0.00328356
0.00286876
0.0027123
0.00560829
0.00152326
0.000779705
0.000820007
0.00865856
0.000952585
0.00304058
0.00270873
0.00595603
0.00198229
0.00314625
0.00261207
0.00233882
0.00432224
0.00245632
0.00342194
0.00475892
0.000340864
0.000300552
0.000468039
0.000463692
0.0049908
0.0023935
0.00482589
0.00158238
0.00080339
0.000776945
0.00268078
0.00263687
0.000523146
0.00268504
0.00503258
0.000756308
0.00553834
0.00289657
0.000709811
0.00238416
0.00538268
0.00488962
0.00325972
0.00551467
0.00564222
0.00272467
0.00354666
0.00208692
0.00417139
0.00254748
0.00476712
0.00500944
0.00238796
0.00436008
0.00115294
0.00131118
0.00261881
0.00272324
0.00137373
0.00724029
0.00531535
0.00108313
0.00163234
0.000567945
0.00502877
0.00260186
0.00721451
0.00514679
0.00258712
0.000556169
0.00610982
0.00708074
0.00338293
0.00140938
0.00271108
0.000739134
0.00321131
0.00142041
0.00300033
0.000865169
0.00582908
0.00223984
0.000912268
0.000908696
0.00326153
0.00727514
0.00599934
0.00282098
0.00820128
0.00371395
0.00142955
0.00304324
0.00103587
0.0103314
0.000996903
0.00114846
0.00245457
0.00870644
0.000539361
0.00147531
0.00101913
0.00127259
0.00496562
0.00098608
0.00076953
0.00306846
0.00340973
0.00291148
0.0025575
0.00487037
0.00500956
0.000771977
0.00304078
0.00495026
0.00328041
0.00406591
0.0064566
0.000440419
0.000444138
0.000607971
0.000619459
0.00457124
0.001104
0.00087537
0.00084281
0.00166202
0.000718235
0.000839887
0.00557284
0.00287439
0.00552787
0.00170286
0.00206021
0.00325897
0.00267817
0.00450903
0.00483932
0.000807046
0.00101101
0.000750946
0.00361801
0.00285406
0.00265281
0.00705393
0.0041278
0.00323832
0.00397583
0.00230189
0.00378539
0.000673074
0.000773511
0.00270397
0.00131544
0.00357972
0.00292727
0.00312056
0.00289625
0.000793372
0.00075349
0.000361237
0.000991052
0.00415268
0.000872257
0.000857457
0.00308629
0.00123606
0.0037045
0.00200081
0.000799696
0.00243257
0.00378987
0.00320917
0.00558586
0.00502777
0.00594549
0.00588374
0.00112611
0.000926358
0.00545368
0.000770021
0.000955336
0.000601179
0.0012065
0.00185778
0.000518721
0.000790886
0.000843575
0.0038104
0.00437334
0.00204145
0.000848581
0.00282205
0.0055461
0.00542875
0.00228473
0.00327783
0.000785821
0.00083258
0.00532059
0.000977248
0.002439
0.000837912
0.00133054
0.00108174
0.00160861
0.000429766
0.00189496
0.00129457
0.000578993
0.000490611
0.000543919
0.000373226
0.000293335
0.000661476
0.00376839
0.00610085
0.00333377
0.00242755
0.0028183
0.00301205
0.000740007
0.00055721
0.00144834
0.00433183
0.000717866
0.00507295
0.00710113
0.00218535
0.000786499
0.00495844
0.00199245
0.000686877
0.00165916
0.0056216
0.00268029
0.000834531
0.00148625
0.000880298
0.00352985
0.00310434
0.00566994
0.000932903
0.000590859
0.000468537
0.000763436
0.000691058
0.0023448
0.000653514
0.00076207
0.000606936
0.00117738
0.000790008
0.00411886
0.000784078
0.00194905
0.000815853
0.00154214
0.000831779
0.00563109
0.00186429
0.00150444
0.000763447
0.000950186
0.000757148
0.00364478
0.00108727
0.00182843
0.00466886
0.00116431
0.000833819
0.00240769
0.00074979
0.000830494
0.00232108
0.000777836
0.00582861
0.00226077
0.000597897
0.000825282
0.000873575
0.00444825
0.000926193
0.002553
0.00276206
0.00494113
0.00142482
0.00297509
0.000847318
0.000751093
0.000821619
0.00111196
0.00165702
0.0016537
0.00157095
0.000224781
0.00200733
0.00140103
0.0011203
0.00112211
0.00144626
0.000534048
0.00178165
0.000626374
0.00117194
0.000747539
0.00306201
0.000797269
0.00102787
0.000790866
0.000784468
0.000737475
0.00173954
0.00107996
0.00247522
0.00573565
0.00546156
0.00418366
0.000653427
0.000827221
0.00224123
0.000665766
0.00315257
0.00212878
0.00256388
0.00538799
0.00069917
0.00743548
0.000606262
0.000843545
0.00661673
0.000902621
0.00521764
0.00071971
0.000842235
0.00344152
0.00423997
0.000549518
0.00434731
0.00140788
0.000923977
0.000580247
0.00119028
0.000588829
0.000841859
0.00083015
0.0011379
0.0006799
0.000912184
0.0024795
0.0016213
0.00410895
0.000948731
0.000724241
0.00526691
0.0026457
0.000770624
0.000825714
0.00361689
0.00299766
0.00373497
0.00613324
0.000811556
0.00124315
0.000283149
0.00540665
0.00210702
0.00413857
0.00270655
0.00353266
0.0031606
0.000268659
0.00108727
0.000649581
0.000212431
0.00263013
0.000723338
0.00112327
0.00109682
0.000293057
0.0010755
0.000244522
0.000277833
0.00113528
0.000539508
0.00125688
0.00419007
0.00277591
0.00654669
0.000793651
0.00116218
0.00146248
0.000792331
0.000622672
0.000790627
0.00244149
0.000804358
0.00278565
0.0010255
0.000745932
0.00104619
0.0050992
0.00223954
0.000690401
0.00396893
0.00451536
0.00248786
0.0046907
0.00074384
0.0090882
0.0050432
0.00279014
0.000896735
0.0116275
0.00072795
0.000728232
0.00244704
0.0011073
0.001253
0.000600221
0.00942335
0.00106491
0.000591003
0.0031141
0.00452666
0.00464424
0.000765942
0.000979073
0.00255567
0.00106059
0.00356399
0.000949439
0.00419084
0.00335262
0.00562177
0.00230795
0.00352444
0.00195792
0.000604786
0.00250911
0.00193149
0.00259563
0.001022
0.000641213
0.00134402
0.0017742
0.00473502
0.000826722
0.00117711
0.000756571
0.000889064
0.000833241
0.000776865
0.000870839
0.000752112
0.00283078
0.00325503
0.00457307
0.000729332
0.000743248
0.000969057
0.00112319
0.00153567
0.00215502
0.00149663
0.00152848
0.000984406
0.000770129
0.00266164
0.000758982
0.000709026
0.0011316
0.000706221
0.000845233
0.000956
0.000545227
0.00424115
0.00066214
0.00742954
0.000577012
0.000675773
0.00108356
0.00071291
0.000697104
0.00321814
0.0028033
0.000732866
0.000634151
0.00212078
0.00106283
0.00153301
0.00122076
0.00236952
0.00102371
0.00110063
0.00127786
0.00423618
0.00690219
0.00266984
0.000828873
0.000258345
0.0036587
0.001638
0.0038344
0.00681264
0.000563627
0.000814442
0.00109465
0.00397572
0.000288105
0.00554961
0.00515181
0.00110514
0.00417861
0.00264196
0.00114628
0.000727606
0.00529686
0.00530884
0.00211901
0.00120886
0.00100109
0.000709636
0.00265019
0.000836769
0.00166716
0.000469616
0.000783798
0.00325696
0.00094592
0.000308287
0.00128097
0.000707383
0.000470512
0.00117919
0.00273083
0.00565056
0.000692596
0.00132841
0.00418784
0.00928282
0.00282022
0.00239362
0.00193187
0.000795767
0.00448243
0.0010194
0.00159303
0.00568654
0.00237949
0.00421139
0.00242862
0.00596665
0.00441293
0.0052534
0.00261422
0.00201933
0.00135047
0.00291198
0.000771105
0.00264748
0.00320647
0.00169281
0.00249731
0.00430682
0.00260161
0.00231173
0.00482035
0.000852374
0.000456969
0.000807149
0.00241011
0.000320596
0.00251379
0.00163969
0.000831271
0.00399042
0.00320514
0.00243804
0.000827924
0.0103785
0.00107017
0.0025106
0.00327399
0.00105412
0.00147771
0.00108338
0.00422782
0.000897578
0.00166686
0.00057336
0.00301695
0.00076982
0.00138908
0.00396793
0.00313811
0.00270221
0.00118541
0.00451641
0.00356112
0.000786571
0.00021453
0.00315627
0.0038627
0.00452864
0.00488425
0.00121577
0.000731044
0.00321176
0.0055523
0.000994881
0.00146649
0.00139289
0.00146286
0.00115888
0.00552881
0.000671382
0.00244998
0.00654053
0.00150952
0.00706883
0.0010671
0.000564034
0.00191873
0.00138221
0.000407723
0.00161252
0.00194378
0.00102102
0.00127001
0.000491447
0.00248677
0.000986591
0.000822915
0.00225302
0.00250199
0.00594053
0.000763546
0.00241134
0.00590069
0.00243831
0.000932834
0.00320327
0.00210313
0.000953651
0.000312795
0.000221183
0.000495717
0.00856494
0.000825946
0.00276575
0.00242615
0.00371189
0.00307258
0.00144926
0.000858212
0.000268711
0.000313645
0.000281507
0.000210733
0.00102961
0.000527644
0.000357476
0.000800873
0.00020572
0.000350505
0.000593403
0.000658097
0.000375703
0.000306324
0.000204733
0.000959003
0.000636485
0.000420541
0.000536865
0.000511598
0.000268386
0.000304962
0.000106774
0.000330123
0.000620922
0.000609011
0.000395037
0.000292314
0.000512221
0.000902581
0.000634517
0.000383769
0.00025968
0.000264106
0.000313821
0.000233485
0.000838528
0.00039735
0.000198214
0.000494115
0.000299525
0.000668002
0.000864594
0.000875678
0.00180074
0.004261
0.000323227
0.00182424
0.00280689
0.00559129
0.00298636
0.00199735
0.000597413
0.000821207
0.0025805
0.00254732
0.00469495
0.00807843
0.00377123
0.00585356
0.00332379
0.00068105
0.000694468
0.000631774
0.00225857
0.000476271
0.00307529
0.000822705
0.00279741
0.00268611
0.00111228
0.0047468
0.00306821
0.00262738
0.00515229
0.00257106
0.00890767
0.0033696
0.00223586
0.00218375
0.000751946
0.00583106
0.00315794
0.0017416
0.00201299
0.00209834
0.00323688
0.00354694
0.00178751
0.00126114
0.000842407
0.000848862
0.0101021
0.0030457
0.000561642
0.000464436
0.00138358
0.00258344
0.000650248
0.00332609
0.00117749
0.000433031
0.000224864
0.000542461
0.000856038
0.000295556
0.000719734
0.000203167
0.000393285
0.000565951
0.000240581
0.00100814
0.00066186
0.000241597
0.000931891
0.000531184
0.000580711
0.000549312
0.000299836
0.000294625
0.000322352
0.000267329
0.000892357
0.00028566
0.00323327
0.00316309
0.000502372
0.000856113
0.00219693
0.000848695
0.00223444
0.000546482
0.00263674
0.00266133
0.00483244
0.00261593
0.00298828
0.00248738
0.000166096
0.00309246
0.0018166
0.0030277
0.00563684
0.00513924
0.00402528
0.000480849
0.00491193
0.00163984
0.0014029
0.0049823
0.000858846
0.00369652
0.00135182
0.00159679
0.000757253
0.00306364
0.00136821
0.00160598
0.00269966
0.000904046
0.00790554
0.000465404
0.0116569
0.00199836
0.000665024
0.000711245
0.00489746
0.00073352
0.0012649
0.00344043
0.00207074
0.00762639
0.000834654
0.00299275
0.000644999
0.00345042
0.00434314
0.00531734
0.000255348
0.000772601
0.000966267
0.00502449
0.00264809
0.000716718
0.00074561
0.00335743
0.00312364
0.0042488
0.000832726
0.00271738
0.000379519
0.0019446
0.00262858
0.000663254
0.00153637
0.000832027
0.000131946
0.000520818
0.0105528
0.00664751
0.000791599
0.00389111
0.00487105
0.000693369
0.00404175
0.00328637
0.00217837
0.0038442
0.00696734
0.0021648
0.00836535
0.000603402
0.00238497
0.00182773
0.00115264
0.000715533
0.00126197
0.00103988
0.00234942
0.00102771
0.000797585
0.00075481
0.0024726
0.0036577
0.00198962
0.00365862
0.00909236
0.00411792
0.000831689
0.00660384
0.00059376
0.00186454
0.00177636
0.00127047
0.0030801
0.0025807
0.00306612
0.00350922
0.00264986
0.00818128
0.00138449
0.00306117
0.00242036
0.00259015
0.000944711
0.00192774
0.000949813
0.00807549
0.00107813
0.00196568
0.0040991
0.0029245
0.00138346
0.00377958
0.00220029
0.00525017
0.00344496
0.00438141
0.00284695
0.000963706
0.00102433
0.00279704
0.00356502
0.00145183
0.000689793
0.00242712
0.00622001
0.006203
0.00672244
0.0047248
0.00647878
0.00722231
0.00633137
0.00160645
0.00655439
0.00645229
0.00735876
0.00477748
0.00639043
0.00482231
0.0059905
0.00643192
0.00580278
0.00172543
0.0015978
0.00123478
0.00453426
0.00111352
0.0013446
0.00143742
0.00105931
0.000187227
0.000588576
0.00268338
0.00385693
0.00400977
0.00190553
0.00233689
0.00792503
0.00324641
0.0041148
0.0026785
0.00167781
0.0012458
0.00138544
0.00384231
0.00425074
0.00182971
0.00142391
0.00334914
0.00354399
0.00243459
0.0019339
0.00121392
0.00490812
0.00160271
0.000587795
0.00194097
0.000240531
0.00333315
0.00131618
0.00114342
0.00121428
0.0010631
0.00197635
0.00266946
0.00175548
0.00238951
0.00272144
0.00104923
0.00276507
0.0113969
0.00192151
0.00263764
0.00267762
0.00261756
0.00959235
0.00160314
0.00196555
0.00923772
0.00400862
0.00297557
0.00196751
0.00106514
0.00315168
0.0104987
0.00323269
0.00167463
0.00196712
0.00238953
0.00297737
0.00135149
0.00599273
0.00203372
0.000720122
0.00524197
0.00163144
0.00281989
0.00209368
0.00138027
0.00286397
0.00523086
0.00219081
0.00557997
0.0093267
0.00226347
0.0104198
0.00136998
0.00517581
0.00223652
0.00194478
0.00292009
0.00139525
0.00523543
0.00225823
0.00561807
0.00179527
0.00778039
0.00490053
0.00311116
0.0014187
0.00606616
0.00301878
0.00225555
0.0052971
0.00303473
0.00142082
0.00684922
0.00349508
0.00496644
0.00448102
0.0046532
0.00143365
0.00381284
0.000504851
0.00179372
0.00436286
0.00139091
0.00242962
0.00168972
0.00148129
0.00244817
0.000616004
0.00504269
0.000646791
0.00344508
0.00398395
0.00119765
0.00370995
0.00207669
0.00204855
0.000805991
0.00180298
0.00139204
0.00228909
0.00424134
0.00106235
0.00207578
0.00577003
0.00258012
0.000910079
0.00412346
0.00380109
0.00213192
0.00198711
0.000510015
0.000995745
0.000527927
0.00408984
0.000777085
0.00178877
0.00384145
0.00724443
0.00147249
0.00141397
0.0013649
0.00440113
0.00169469
0.0022797
0.00128062
0.00415405
0.0027217
0.00366384
0.000828075
0.00431476
0.00266808
0.00447514
0.00226158
0.00261364
0.00426338
0.00113635
0.00455956
0.004071
0.000682581
0.00194366
0.00380859
0.00177183
0.00379562
0.0040177
0.00461245
0.0036332
0.000339356
0.00405485
0.00191616
0.0034444
0.00194928
0.00180028
0.0031151
0.00334349
0.00398802
0.00275893
0.00165637
0.00114207
0.000418844
0.00331785
0.00157926
0.00246307
0.000642567
0.00238148
0.00110719
0.000198602
0.0035109
0.0017906
0.00683075
0.0012419
0.00160991
0.00187946
0.00209179
0.00136825
0.00598857
0.00343929
0.00223378
0.00469607
0.00147843
0.00101989
0.00453233
0.00110324
0.00215381
0.000272887
0.00392835
0.000202512
0.00434222
0.00116466
0.00118741
0.00286402
0.00319966
0.00290203
0.00229434
0.000938361
0.000665591
0.00559489
0.00216451
0.00424239
0.0035642
0.00439329
0.00219485
0.000839601
0.000857227
0.00574269
0.00307653
0.00190333
0.00602132
0.00317793
0.00203691
0.00382967
0.000558209
0.0041641
0.000826711
0.00110767
0.00228365
0.00259878
0.000622674
0.00403095
0.000716065
0.00565106
0.00175263
0.00176076
0.00470261
0.00255851
0.000976909
0.000885967
0.00132228
0.000542706
0.00124006
0.00649051
0.00278507
0.000632468
0.00407703
0.00469007
0.00274765
0.000731907
0.00127325
0.00123411
0.00191756
0.00435633
0.00437693
0.00420072
0.000996417
0.00143897
0.00443543
0.00261317
0.00393772
0.0056434
0.00178908
0.0011241
0.00248488
0.00403256
0.00115279
0.00277756
0.00245335
0.00315551
0.00127559
0.000879454
0.0032177
0.00131742
0.00217933
0.000865259
0.0056093
0.00185489
0.00484648
0.00227656
0.000951686
0.000993507
0.00368276
0.00662705
0.00164899
0.00711418
0.00309748
0.0032306
0.00487443
0.00258157
0.00361261
0.000995486
0.00362429
0.000579392
0.00450674
0.00270927
0.00113619
0.0090416
0.000801113
0.000796288
0.0128714
0.000920503
0.00150287
0.0051032
0.00340805
0.00303969
0.00470295
0.00188429
0.00887444
0.0038671
0.000852174
0.00295721
0.00290067
0.00272425
0.0040963
0.000683395
0.000561127
0.00106481
0.000429335
0.000474884
0.0051765
0.00255268
0.000980851
0.00107018
0.00360025
0.00416514
0.00389305
0.000742217
0.0123826
0.0115728
0.00176957
0.0014008
0.0039361
0.00254442
0.00342479
0.00104326
0.000548603
0.00395576
0.00257008
0.00266391
0.00233674
0.00918385
0.00521763
0.00133038
0.00324503
0.0125472
0.00387757
0.00240745
0.00127555
0.00201512
0.000681771
0.000837175
0.00215268
0.00264978
0.00244245
0.00276308
0.0031899
0.00629085
0.00241343
0.00169314
0.00248835
0.00413834
0.00516313
0.00683987
0.00471747
0.00246808
0.00215931
0.00340431
0.00154284
0.000735083
0.00158455
0.00911903
0.00732372
0.00941641
0.00262602
0.00568598
0.00260147
0.00288636
0.00256709
0.00157274
0.00234238
0.00215125
0.000937877
0.00105022
0.00164003
0.00136201
0.00149274
0.00389116
0.00755405
0.00155958
0.00527797
0.00382078
0.00468453
0.00107885
0.00401495
0.000840465
0.000667993
0.000745696
0.000478314
0.00137685
0.000742444
0.00962985
0.00221693
0.000792638
0.000643621
0.00313482
0.0010649
0.00108965
0.0038655
0.00700303
0.00441378
0.00239386
0.00394422
0.00295706
0.00144727
0.00388046
0.00239063
0.00021872
0.000613947
0.00218121
0.00154228
0.00536865
0.00296281
0.000657
0.000865322
0.00576507
0.00299138
0.00411371
0.0104669
0.00292384
0.000747789
0.00249774
0.00268401
0.00250667
0.00739287
0.00163942
0.00538612
0.00113894
0.00167264
0.00673829
0.00893354
0.00317161
0.00415441
0.00178559
0.00180845
0.00134643
0.00313581
0.000913711
0.000784169
0.000734905
0.00042621
0.00171791
0.00173132
0.0021808
0.000815809
0.00382693
0.0042296
0.00302474
0.00419595
0.00116861
0.00220027
0.00278164
0.0021529
0.000949609
0.0023269
0.00421742
0.00470024
0.00258241
0.00699822
0.00155422
0.00142043
0.00261528
0.00237894
0.0118419
0.00205706
0.0045091
0.000483266
0.00475624
0.00337371
0.00412787
0.000540111
0.000235861
0.00954465
0.00284253
0.00480556
0.00286745
0.00200374
0.00124807
0.000796776
0.00469812
0.00334436
0.000735711
0.00272861
0.00414906
0.00441734
0.00230291
0.000886522
0.00111541
0.0033344
0.00079906
0.00199522
0.00191462
0.000692165
0.0118164
0.00228804
0.00169115
0.00973714
0.00481854
0.00532782
0.0023107
0.000694488
0.00107271
0.00418405
0.00280528
0.00371314
0.00487464
0.00240487
0.00117146
0.0023787
0.00132191
0.00328047
0.00273872
0.00183612
0.00505301
0.00303067
0.00246974
0.00105423
0.00267961
0.00372279
0.00363801
0.00168592
0.00262993
0.00807365
0.00155275
0.00289238
0.0036756
0.00755396
0.00220354
0.00414546
0.00239196
0.00264949
0.00103387
0.000758559
0.00170681
0.00578056
0.00957054
0.00455933
0.00183818
0.00152168
0.000570081
0.00752796
0.000756277
0.00341796
0.00945533
0.00487814
0.00502399
0.00218379
0.00248079
0.00380296
0.00473705
0.00209325
0.00167644
0.00259147
0.0013993
0.000874572
0.00398381
0.000460224
0.00275618
0.00608752
0.00549835
0.00553567
0.00803439
0.00419194
0.00195485
0.00197363
0.0013769
0.0113598
0.00411556
0.00507026
0.00697076
0.000744765
0.00214289
0.00486483
0.0118278
0.00390345
0.00659226
0.00328287
0.0020212
0.00295413
0.00254576
0.00232598
0.000867084
0.00678116
0.000777186
0.00416795
0.00115248
0.00525729
0.00257974
0.00307439
0.00268538
0.00444754
0.00104798
0.00638092
0.003381
0.00370801
0.000575527
0.0117777
0.00114208
0.00249048
0.00312113
0.000652714
0.00243488
0.00336457
0.00397123
0.00912754
0.00387934
0.00739179
0.011653
0.00279101
0.00457521
0.00261887
0.00193338
0.000980909
0.000527561
0.00301628
0.00384714
0.0023595
0.00258384
0.00631871
0.0042741
0.00105554
0.00151528
0.00232251
0.00424218
0.000798727
0.0068252
0.00229665
0.00227238
0.00067722
0.0032597
0.000879385
0.00812645
0.00349455
0.00512821
0.00429503
0.00197998
0.001901
0.00741578
0.00276827
0.00108826
0.00892592
0.0025822
0.00271092
0.000473953
0.000792592
0.00670278
0.00179034
0.00642364
0.00921691
0.000643147
0.00263718
0.000792425
0.00580603
0.00826614
0.0020599
0.00522849
0.00322787
0.00410703
0.000848228
0.000783162
0.000772867
0.0017817
0.000846971
0.000985653
0.00282993
0.00650991
0.00310812
0.00377824
0.00698861
0.000943999
0.00456799
0.00617845
0.0038904
0.000743452
0.00181394
0.0071204
0.000441061
0.00023814
0.000343285
0.00222939
0.00200177
0.00238439
0.00295857
0.00263935
0.0111881
0.0066291
0.00240374
0.00346474
0.00613012
0.00495925
0.00253356
0.00475531
0.000891377
0.00299862
0.00165696
0.0019959
0.00087926
0.00108081
0.00116011
0.00319499
0.00220273
0.00293498
0.00235551
0.00662439
0.00212773
0.00369979
0.00451304
0.00172382
0.00194805
0.0048022
0.00282804
0.00249184
0.00562458
0.00264623
0.00285013
0.00204773
0.000791072
0.00110773
0.00322065
0.00117801
0.00420586
0.00230936
0.00107646
0.0024333
0.00901229
0.00400366
0.0052041
0.000855167
0.0110298
0.000455482
0.00288523
0.00194537
0.00598149
0.00399449
0.0024664
0.00165466
0.00351828
0.00640859
0.000779863
0.00186727
0.00247161
0.00940275
0.00402999
0.00350747
0.00198578
0.00576896
0.00472661
0.000913378
0.00282646
0.00452109
0.00217796
0.00394532
0.00561534
0.00294304
0.000747748
0.00232194
0.00173509
0.0034646
0.0010666
0.00257176
0.00354774
0.00241686
0.00075594
0.00246536
0.00450314
0.00179605
0.0022408
0.000549645
0.00311437
0.00337971
0.00238701
0.000650215
0.00230402
0.00241883
0.00211961
0.00364488
0.00202442
0.000880521
0.00239943
0.000611391
0.000958247
0.00153687
0.0036704
0.00164983
0.000790459
0.00159625
0.00251424
0.000699473
0.00184328
0.00473137
0.000929159
0.00688877
0.00172741
0.000790418
0.000938524
0.00265682
0.00226309
0.00124092
0.00113824
0.000522371
0.00358832
0.00122163
0.000847083
0.003005
0.00411984
0.000805216
0.00592979
0.00133456
0.00311615
0.00541781
0.0018414
0.00396902
0.00262728
0.000957861
0.000421355
0.000590449
0.00296249
0.00321158
0.0027251
0.00650755
0.000932264
0.00161012
0.0047713
0.00280647
0.000806001
0.00257596
0.00237189
0.00430622
0.00375905
0.00181686
0.000801388
0.00105203
0.000737505
0.000885672
0.00668791
0.00192094
0.00372178
0.00162425
0.000519488
0.00175229
0.000650755
0.00113127
0.00324424
0.0116772
0.00576473
0.00243243
0.0122706
0.000908763
0.0026671
0.00188353
0.00801535
0.00189906
0.0105854
0.00125545
0.0038913
0.000912711
0.000807074
0.00115085
0.00315165
0.00409891
0.00166652
0.00166698
0.00349092
0.00239556
0.00352317
0.000947237
0.00328478
0.00217546
0.00532635
0.00438429
0.00143042
0.00292986
0.00113848
0.00526951
0.00182837
0.00349853
0.00259594
0.00376693
0.00259591
0.00247523
0.00521709
0.00822258
0.00113685
0.000924073
0.00277698
0.000854582
0.000788705
0.00329667
0.00126628
0.0025173
0.00401337
0.00664945
0.00313959
0.00100563
0.00258747
0.000768713
0.00115312
0.00372051
0.00528851
0.00397907
0.00284379
0.00300032
0.00424878
0.000820849
0.000841178
0.00302576
0.00405786
0.00272235
0.000711946
0.00351459
0.00427516
0.0013125
0.00340167
0.000910476
0.000670653
0.000811413
0.000282395
0.000991778
0.000860011
0.00252717
0.00236582
0.000827906
0.000437422
0.000208246
0.000325293
0.00628891
0.00388817