/*--------------------------------*- C++ -*----------------------------------*\
| =========                 |                                                 |
| \\      /  F ield         | OpenFOAM: The Open Source CFD Toolbox           |
|  \\    /   O peration     | Version:  v1912                                 |
|   \\  /    A nd           | Website:  www.openfoam.com                      |
|    \\/     M anipulation  |                                                 |
\*---------------------------------------------------------------------------*/
FoamFile
{
    version     2.0;
    format      ascii;
    class       surfaceScalarField;
    location    "0.1";
    object      phi;
}
// * * * * * * * * * * * * * * * * * * * * * * * * * * * * * * * * * * * * * //

dimensions      [0 3 -1 0 0 0 0];
oriented        oriented;


internalField   nonuniform List<scalar> 
11117
(
-3.04046e-05
0.000186788
1.24607e-05
-0.000168844
3.35181e-05
0.000234907
-1.92178e-05
-0.000249207
-0.000190666
0.00024497
-9.87695e-05
4.44662e-05
-0.000200065
5.19577e-05
3.69217e-05
0.000111186
7.88393e-05
0.000408523
-0.00036749
-0.000119873
-4.53316e-06
-1.02698e-05
-0.000244033
0.000258836
0.000180885
5.10678e-05
-0.000194615
-3.73374e-05
-4.98246e-05
-8.48661e-06
4.41439e-05
1.41674e-05
0.000222678
0.000158408
-0.000280036
-0.00010105
-0.000188772
0.000193954
-9.1258e-05
8.60758e-05
-0.000211489
0.000266429
8.78044e-05
-0.000142744
-0.000102531
-0.00012445
8.11053e-05
0.000145876
-6.39953e-05
-4.94308e-05
2.38326e-05
8.95936e-05
0.000662811
-0.000594375
0.00019472
-0.000263157
0.000275522
-0.000240702
0.000275288
-0.000310108
-4.48111e-05
8.91214e-05
-8.07745e-05
3.64642e-05
-4.1214e-05
0.000161606
-5.74967e-05
-6.28949e-05
-0.000286962
0.000289892
0.000408889
-0.00041182
0.000223496
0.000396228
-0.000344203
-3.98989e-05
2.12669e-05
0.000183854
-0.000165222
-0.000292134
0.000161185
3.25094e-05
9.84391e-05
-5.14164e-05
2.55476e-05
0.000189907
-0.000164038
1.35021e-06
8.08835e-05
4.90559e-05
-0.00013129
0.000260418
0.000272345
-0.000173149
-0.000359614
0.000184918
0.000182554
-0.000299299
-6.81732e-05
0.000902062
-0.000927537
0.000261882
-0.000236408
0.000202941
-0.000329091
0.000882901
-0.00075675
-0.00021628
0.000318148
-0.000207182
0.000105314
6.04061e-05
-3.19374e-05
0.000283981
-0.00031245
-0.000115867
6.9564e-05
-1.66045e-05
6.29071e-05
-1.55792e-05
-5.76339e-06
3.26718e-05
-1.13292e-05
-0.000132485
-0.000374352
0.000404395
0.000102442
-3.09629e-05
-3.5893e-05
6.588e-05
9.75922e-07
4.00668e-06
0.00014007
-6.26248e-05
-8.14515e-05
-2.19102e-05
0.000152638
-9.49654e-05
-3.57628e-05
-0.000139382
0.00022557
-0.000150715
6.45267e-05
0.000651582
-0.000811063
0.000994896
-0.000835416
0.000234236
-0.000351806
-7.52481e-05
0.000192817
1.69244e-05
1.26051e-05
-6.35779e-05
3.40485e-05
-0.000107665
0.000502247
-0.000525841
0.000131259
0.00018022
0.000334429
-0.000328226
-0.000186423
0.000162936
0.000298812
-0.000328924
-0.000132823
0.000976396
0.000914143
-0.000887538
-0.001003
4.30356e-05
6.87721e-05
-3.98906e-05
-7.1917e-05
0.000334155
0.000188368
-0.000299027
-2.1468e-05
2.22621e-05
-5.86175e-06
5.06769e-06
-0.000748556
0.000534639
-0.000172038
0.000385955
-1.42102e-05
2.81601e-06
3.85796e-06
7.53621e-06
9.99541e-05
-0.000143968
0.000147891
-0.000103877
-3.15834e-05
4.25318e-05
-1.09484e-05
5.11944e-06
2.74294e-05
-3.25488e-05
7.03924e-05
0.000153154
-5.2683e-05
-0.000170863
5.77867e-05
-5.58931e-05
0.000102931
-0.000104825
0.000406078
-0.000392235
2.42413e-05
-3.80851e-05
-3.30803e-06
3.30803e-06
3.07011e-05
-1.73648e-05
-1.91008e-05
5.76452e-06
0.000347817
8.10942e-05
-0.000420722
-8.18848e-06
-2.01231e-05
1.78342e-05
9.86288e-06
-7.57402e-06
0.000967162
0.000205375
-0.00148997
0.000317428
-0.00035609
0.000753161
0.000504991
0.000692026
-0.000739258
9.68418e-05
-4.96098e-05
0.000135935
-4.05804e-05
-8.11717e-05
-1.41825e-05
-1.06668e-05
-1.53341e-05
1.04217e-05
-5.4158e-05
-5.71483e-05
-2.11782e-05
-5.64158e-06
-2.01227e-05
-5.19862e-06
4.90916e-06
-9.00006e-05
7.22058e-05
1.28857e-05
0.000327271
-0.00107182
0.000903435
-0.000158888
1.98808e-05
-0.000221529
0.000201648
-0.00041744
-0.000170988
0.000348856
0.000239572
7.37852e-07
0.000106958
1.38628e-07
-0.000107834
-5.67948e-05
4.72177e-05
7.99695e-05
-0.000932264
0.000459411
0.000800124
-0.000264289
-0.0013857
0.0014155
0.00023449
-1.29877e-05
-8.12137e-05
0.000168388
-7.4186e-05
-0.000425744
-0.000278657
-4.40386e-05
-2.38525e-05
0.000140438
-7.25471e-05
2.47343e-07
1.03507e-05
-1.0598e-05
-0.000892509
-0.000161205
0.000126176
1.71863e-05
5.74154e-05
-3.15661e-05
-4.87663e-05
6.77927e-06
4.1987e-05
0.000150294
5.82724e-05
7.9421e-07
-0.000209361
0.000175135
6.83443e-05
-4.46483e-06
-0.000239014
0.000231139
-0.000245332
0.000339896
-0.000325702
-1.93064e-05
-4.73193e-06
2.35058e-05
5.32456e-07
-0.00012235
0.00010926
0.000108264
-9.5174e-05
2.90749e-05
-0.000242469
0.000213394
-3.22503e-05
-0.000457326
0.000489576
1.59533e-05
-0.000199244
0.00018329
1.00955e-05
5.09967e-05
0.000195506
-0.000256599
0.000147229
-3.82011e-05
7.57978e-05
-0.000184826
0.0003194
-5.89005e-05
2.8129e-05
-0.000288628
0.000435086
3.72323e-05
-4.02063e-05
-0.000432112
0.000296468
-3.62139e-05
2.97347e-05
-0.000289989
-0.0003076
1.68087e-05
-1.0604e-05
0.000301396
-0.000309181
2.37458e-05
-8.35969e-06
0.000293795
3.64952e-05
3.25358e-05
-4.77036e-05
-2.13274e-05
0.000328383
3.26947e-05
-2.50321e-05
-0.000336045
0.000294514
5.99175e-06
-4.01575e-06
-0.00029649
0.00042598
2.81218e-05
-1.90758e-05
-0.000435026
0.000625713
0.000113666
-4.73522e-05
0.000366294
6.42912e-05
-0.000392753
-3.78331e-05
-0.000303356
0.000173937
9.48245e-05
3.45941e-05
0.000250804
-0.000317861
-0.00118409
0.00125115
0.00053499
0.000105583
-0.000608274
-3.22987e-05
-0.000122405
0.000310602
-0.000222964
3.47671e-05
-0.00044944
0.000180062
0.00041416
-0.000144782
5.20144e-05
-5.14543e-05
0.000133139
-0.000133699
-6.67657e-05
6.24172e-05
-8.05461e-05
8.48946e-05
-0.000101193
-0.000140818
4.45567e-06
0.000237554
5.49717e-08
-1.63153e-05
3.34466e-05
-6.68745e-05
5.02895e-05
5.2954e-05
-3.63691e-05
-9.6157e-05
0.000160034
7.29182e-05
-0.000136795
-0.000393897
0.000318783
-0.000150743
0.000225857
6.73142e-05
-6.48173e-05
4.71056e-06
-7.20737e-06
3.38486e-05
0.000284276
-0.000315241
-2.88332e-06
6.74944e-05
0.000276347
-0.00032028
-2.35612e-05
-0.000209708
-0.00022985
0.000373035
6.65232e-05
-0.00024461
0.000218298
0.000326602
-0.00030029
8.66237e-05
-4.46024e-05
-0.00078128
-0.00103558
8.3054e-05
0.00095404
-1.5145e-06
0.000384273
-0.000249641
-0.000379242
0.000313983
-0.000283457
-3.05258e-05
8.47802e-05
-5.75228e-05
6.68363e-05
-9.40937e-05
-0.000125463
-0.000134856
-9.22545e-05
-0.000111419
5.84198e-05
0.000145254
-0.000276078
0.000283573
0.00053721
-0.000544705
-0.000474374
0.000482102
-0.000447651
0.000439923
1.69485e-05
0.000213406
-0.00019361
-3.67444e-05
-5.50702e-05
0.000165895
1.4367e-06
-0.000112261
-0.000143065
4.74185e-06
-6.1262e-07
0.000138936
1.72502e-05
1.07402e-05
-1.92116e-05
-8.77883e-06
3.00211e-05
-2.35067e-05
-1.74725e-05
1.0958e-05
0.000268292
-0.000306895
-0.000111973
0.000150576
-0.000831512
0.000104801
-0.000165798
-0.000116504
0.000116886
-0.000341875
0.000341492
0.000235457
-0.000268855
-0.000207304
-0.000162241
-3.01402e-05
3.11334e-05
0.000161248
8.63003e-05
8.68516e-05
-3.72173e-05
4.96593e-06
-6.55803e-06
-1.34269e-05
1.5019e-05
5.7694e-05
4.56813e-05
-7.87945e-05
-2.45808e-05
0.000188357
-0.00011722
-8.40248e-05
1.28879e-05
-0.000152127
-0.000240877
0.000281455
0.000111548
0.000180606
-0.000180952
-8.34074e-05
8.37536e-05
0.000194421
-0.000227104
-5.56432e-05
8.83257e-05
3.61352e-06
-1.58502e-05
6.38548e-06
5.8512e-06
-2.19048e-05
0.000180678
-0.000109129
-4.96448e-05
0.000123001
-3.11992e-05
-7.02131e-06
-0.000248798
0.000550458
-0.000294215
-7.44498e-06
5.15745e-05
0.000399151
-5.90617e-05
-0.000391663
0.000102716
0.000117531
-0.000137795
-8.24514e-05
0.000960404
0.000486811
-0.000658777
-0.000788437
-1.19411e-05
1.87213e-05
-0.000236212
0.000229432
-0.000266822
-6.59665e-05
-0.000116652
9.75037e-05
-0.000137235
-5.54846e-05
9.52154e-05
-0.000423855
-0.000355916
0.000556759
0.000223012
0.000932275
-0.00024422
-0.000688055
-2.382e-06
5.52444e-05
1.11597e-05
-6.64041e-05
5.97866e-05
7.3126e-06
-6.70992e-05
0.000111887
-3.23218e-05
-8.81649e-05
0.000120487
-2.22645e-05
3.36136e-05
-1.13491e-05
6.9819e-06
2.40283e-05
-3.10102e-05
-4.46784e-05
0.00022356
-0.000178882
-8.11636e-05
0.00014176
-6.05964e-05
-3.36295e-06
4.46684e-05
-4.13054e-05
-0.000136563
-1.81028e-05
0.000154666
1.26135e-05
-8.62578e-06
-3.98775e-06
-3.33753e-05
-3.34992e-05
-3.57641e-05
-6.03929e-05
0.000190501
-0.000182229
-8.27241e-06
0.000231876
0.000179029
-0.000410905
0.000322832
-0.000280879
-4.19535e-05
0.000174685
-0.000162022
-1.26636e-05
0.0001936
-0.000182458
-1.11421e-05
4.8276e-05
-0.000102623
5.43472e-05
-0.000369252
0.000199374
0.000169878
-0.000150927
0.00012993
2.09968e-05
-0.000233023
0.000229187
3.83621e-06
-7.61766e-05
-2.59219e-05
0.000102098
-1.46e-05
1.84296e-05
-3.82963e-06
-4.21739e-05
0.000119806
-7.76318e-05
1.99629e-05
-1.18494e-05
-8.11359e-06
-1.63207e-05
1.8928e-05
-2.60727e-06
1.22514e-05
-4.11898e-06
-8.13239e-06
-5.29126e-05
0.000232858
-0.000179945
-0.000320746
1.73902e-05
-8.16984e-05
0.000115282
-3.35832e-05
0.000118822
-0.000101757
-1.70648e-05
7.79527e-05
9.59845e-05
-7.87688e-05
-0.00013272
-0.000231925
-0.000142427
-2.46303e-05
-1.12627e-05
3.21677e-06
-8.98016e-06
3.96686e-05
-9.6475e-06
4.15935e-05
-2.43433e-05
4.61777e-05
6.7937e-06
-5.29714e-05
0.000138228
-1.20289e-05
-0.000126199
0.000268713
0.000127515
-0.00102388
0.00127468
-0.000143595
2.2442e-05
0.000121153
0.00011521
3.79445e-05
-1.81595e-05
3.94934e-06
1.25528e-05
-2.08346e-05
8.28177e-06
-0.000678699
-6.98569e-05
-2.12874e-05
-1.80587e-07
-6.96639e-05
6.61488e-05
3.51516e-06
-1.85658e-05
-8.47897e-05
8.393e-05
1.94255e-05
-0.000103477
5.53726e-05
0.000573402
-0.000525297
-0.000851307
0.000617876
0.000938463
-0.000705031
-5.52296e-05
2.70857e-05
-1.91742e-05
4.7318e-05
-0.00120488
0.00116098
-4.36999e-05
8.75999e-05
-0.000131553
0.000124003
-3.71281e-05
1.89867e-05
-1.19174e-05
-2.93338e-05
-3.36417e-05
-1.79852e-05
-0.00020407
0.000255697
-1.34455e-05
3.5647e-05
-0.00020578
0.000183579
-0.00014019
0.000147706
6.11111e-05
-6.86273e-05
-0.000411407
0.00047776
0.000201939
-9.56433e-05
3.23185e-05
0.000218274
-0.000154949
0.000660469
-0.000646503
-0.000330496
0.00031653
-0.0014215
-2.87276e-05
0.000245347
5.48661e-05
-7.83782e-05
6.64485e-05
-4.29364e-05
0.000290649
-3.79106e-05
-4.56375e-05
-0.0002071
0.000315854
-0.000100904
-1.55892e-05
-0.000199361
-0.000114861
-8.13158e-05
-1.44166e-06
0.000197618
-7.8772e-05
5.13217e-05
0.00129729
-0.00126984
9.36485e-05
-0.000189727
9.6079e-05
2.56426e-05
0.000324619
-2.95527e-05
-0.000320709
0.000334989
-1.1387e-05
6.94493e-06
-0.000330547
0.000168143
-0.000131051
-0.00037019
0.000333099
5.90598e-05
-0.000101185
-0.000301713
0.000343838
-3.17594e-05
3.0104e-05
-0.000158937
0.000160592
-4.21278e-05
4.60272e-05
-0.000146
0.0001421
0.000320229
-0.000241241
-0.000126742
4.77538e-05
0.000178359
-0.000203793
4.66811e-05
-2.12463e-05
8.58566e-06
3.01483e-05
-0.000967539
0.000928805
-8.01798e-05
2.50065e-05
-0.000734752
0.000789925
0.000807556
-0.000793306
0.000137886
-0.000152136
9.33932e-05
-0.00011451
-7.78436e-05
9.89604e-05
-0.000250803
-7.4634e-05
0.000182247
0.00014319
-0.000348996
1.08153e-05
0.000242484
9.56968e-05
0.000175093
-0.000139951
-0.000112973
7.78309e-05
0.00010599
0.00102882
-0.000631872
-0.000502934
2.07507e-05
0.000152073
-7.53196e-05
0.000125377
-0.000102066
-2.56026e-06
-3.50867e-06
-1.87683e-05
7.25665e-05
-0.000121411
0.000190064
-0.000280929
0.000212277
0.000392437
-0.00037686
3.59976e-05
3.81791e-05
-0.00027259
0.000234411
1.53408e-05
-0.000239946
0.000224605
2.35699e-05
-0.00034989
0.00032632
7.37353e-05
-8.0384e-05
1.15579e-05
-0.000273827
2.19705e-05
-2.87262e-05
3.58948e-05
-2.91391e-05
-3.81269e-05
2.50439e-05
-0.000988591
0.00100167
-0.00018576
-0.000454465
0.000506225
0.000133999
0.000962162
-0.000372634
-0.000746111
0.000156583
-0.000548667
0.00101378
-0.000844137
0.000379022
-5.79397e-05
7.65334e-05
-3.71595e-05
-4.84111e-05
-0.000159961
0.000116118
-0.000390954
-3.74921e-06
0.000198173
0.00019653
-2.12204e-05
-0.000134548
2.42159e-05
-2.3284e-05
2.69339e-05
1.53368e-05
1.64524e-05
5.15033e-05
-4.35342e-05
-2.44215e-05
-3.3223e-05
2.06319e-05
1.2591e-05
0.000101208
-8.33576e-05
-1.78508e-05
0.000164892
2.11804e-05
-8.33568e-05
6.80451e-05
-0.000487162
0.000460632
-4.15153e-05
5.49883e-05
-0.000135721
-3.52085e-05
-7.14627e-06
1.80997e-05
2.42551e-05
-0.000683784
-2.70445e-05
4.62827e-06
0.0007062
-2.72534e-05
-6.92595e-06
8.4234e-06
2.57559e-05
5.08683e-05
0.000190327
-0.000260203
1.90077e-05
7.94379e-05
-9.30816e-05
-3.90393e-05
2.96556e-05
-0.00109444
0.00112181
-5.70207e-05
1.15754e-05
0.000387425
-0.000230858
7.33243e-05
0.000373042
-4.02878e-05
-0.000177216
-3.95359e-05
0.000167204
4.9548e-05
-0.000152497
0.000208308
-1.10376e-05
-4.47738e-05
5.18798e-05
5.92836e-05
-5.60277e-05
-5.51357e-05
9.90085e-05
7.05405e-05
-3.13207e-05
-0.000312172
-2.8733e-05
0.000307186
3.37186e-05
-0.00038213
0.000275267
0.000287083
-0.00037169
0.000232861
0.000301765
-0.000330418
0.000222463
2.89627e-07
-0.000275454
-3.18103e-06
0.000270837
7.79819e-06
-0.000318755
-8.77725e-06
0.000322712
4.82028e-06
1.8566e-06
0.000306307
-0.000297137
-1.10269e-05
-2.06165e-05
0.000324992
-0.000313421
9.04512e-06
-0.000218598
0.00042463
-0.000322536
-0.000287778
0.000177359
0.000117683
-7.26387e-06
-0.000131645
7.31217e-05
4.60722e-05
1.24514e-05
-2.7089e-05
2.27971e-05
3.64387e-05
-3.21469e-05
0.000363719
-0.000326462
-5.72966e-05
2.00397e-05
-0.000968538
0.000148045
0.000963739
-0.000143247
-0.000149039
0.00063058
-0.000681927
0.000200386
-3.02937e-05
-0.000104213
0.000316533
-0.000182026
-0.000101503
-5.26434e-05
0.000415934
-0.000261788
0.00022435
-0.000330236
0.000100397
5.48878e-06
2.62289e-05
5.77905e-05
-1.58169e-05
-6.82025e-05
9.76819e-05
-0.000183869
0.000261322
-0.000552011
0.000524408
7.72095e-05
-0.000128854
0.000201938
0.000810546
-0.000750869
4.63135e-05
1.64089e-07
-0.000109887
8.0472e-05
2.92504e-05
-1.12301e-06
3.62749e-06
0.000409093
-0.000411598
-0.000114501
-2.68317e-05
-1.11639e-05
0.000364193
-0.000161451
-0.00037373
2.84337e-05
-3.85558e-06
0.000705743
-0.000457252
2.50855e-05
2.90552e-06
3.37196e-05
-2.78234e-05
8.21442e-05
-8.80404e-05
0.000773774
-0.000948801
-0.00067628
4.90592e-06
6.88998e-05
-6.49154e-06
-0.000424878
0.000468797
0.00101373
-0.00105765
0.000814165
-0.000173713
-3.23812e-05
-0.000608071
-7.31284e-05
6.32558e-05
-5.68931e-05
-0.000283937
0.000246311
0.000355773
-6.05637e-05
0.000109278
-0.000149906
8.92734e-05
-0.000208894
0.000180026
-1.28269e-05
9.51082e-06
-1.92739e-05
2.259e-05
0.000108304
-0.000150118
0.000136123
-9.43093e-05
-0.000228124
0.000215561
0.000230861
5.32921e-05
0.000424698
4.56484e-05
-4.86564e-05
-1.22218e-05
1.52298e-05
3.40883e-05
-6.18905e-05
4.04073e-05
4.0455e-05
-4.18096e-05
0.000130111
-0.000128756
-6.09375e-05
-2.43267e-05
0.000237104
2.93245e-05
3.90331e-05
-4.74791e-05
3.78603e-05
-5.18854e-06
-1.58183e-05
8.3649e-05
-6.99498e-05
0.000218348
-0.000192705
-2.63934e-05
-1.80301e-06
-2.78685e-05
0.00014315
2.73956e-05
3.3991e-05
0.000196756
4.96262e-05
-0.000357676
-7.94279e-06
2.79057e-05
-1.59027e-06
-1.47305e-05
-3.61112e-05
-6.06261e-06
4.62465e-05
-4.96094e-05
-4.99634e-05
-0.000301842
2.1321e-05
-8.48989e-05
-0.000116503
9.4598e-05
-5.70231e-06
-0.000112119
-8.63258e-06
3.24704e-05
0.000200387
0.000223362
4.53508e-05
-2.22254e-05
-0.000148638
3.72902e-05
-3.64698e-06
-8.67411e-05
-4.31489e-06
6.26627e-06
-4.3677e-05
-0.000204236
0.000172665
0.000337191
-0.000284645
3.79676e-05
-9.05141e-05
2.98695e-05
0.000136508
-0.000115309
7.72623e-06
-4.75028e-05
3.129e-05
-0.000183366
0.000318158
5.76757e-05
-0.000192468
-1.29966e-06
2.35617e-05
0.000194594
0.000340045
3.52343e-06
-7.07418e-07
-0.000159485
0.000189593
-0.000142117
0.000112009
-5.16298e-05
2.30931e-06
4.9171e-05
1.49487e-07
-0.000446404
-0.000105811
0.000368849
-0.000175461
0.000111367
0.000117454
-5.33598e-05
-3.54118e-05
-0.00018096
9.34841e-05
0.000122888
0.000190814
-0.000109618
-5.03189e-05
-2.93263e-05
0.000110346
1.73168e-05
-0.000331856
0.000662356
3.87554e-06
8.28144e-06
-3.22801e-05
-2.94256e-05
0.000126838
-0.00011257
1.5158e-05
0.000104238
-0.000349788
0.000240052
5.49889e-06
-0.000135051
-0.00014043
0.000115996
-0.000625631
0.00103355
-0.000730623
0.000322702
7.73641e-05
-0.000106393
-0.000110353
5.86991e-05
-8.93941e-06
-7.16699e-05
6.85417e-05
7.97173e-06
-7.25067e-05
-0.000378891
0.000328139
1.88154e-05
0.000128487
3.26088e-05
-0.000119584
-4.15114e-05
-4.344e-05
1.24053e-06
2.22954e-05
1.99041e-05
-1.09032e-06
-0.000135473
-8.69828e-06
2.13118e-05
0.000123226
2.2047e-05
-1.15756e-05
8.21176e-06
0.00010586
-0.000102496
-2.36088e-05
3.75926e-05
-9.39384e-05
7.99547e-05
0.000381892
0.000142926
0.000151472
-3.44964e-05
7.64822e-05
3.28909e-05
-7.48767e-05
9.28317e-05
-0.000143937
-3.70593e-05
-9.68001e-06
0.000266099
0.0002031
0.00140939
0.000100891
-0.00136725
-0.000143036
4.94454e-05
5.70048e-05
0.000103029
-0.000657705
0.000110431
0.000595284
-4.80096e-05
-8.63774e-05
5.86884e-05
-5.01296e-05
7.78186e-05
0.000143546
-0.000366131
0.000200004
2.25816e-05
7.96097e-05
-0.000182961
9.45119e-05
8.8392e-06
-0.000110777
0.000389462
1.59946e-05
-0.000294679
-0.00015917
0.000413879
3.26918e-05
-0.0002874
0.00044526
3.39731e-05
2.4417e-05
-0.00050365
-0.000205368
-5.65617e-05
0.00027158
-9.64962e-06
8.36117e-05
0.000148264
-6.38983e-05
0.000179271
0.000233482
0.000300092
8.11823e-05
0.00028538
6.56549e-05
0.000383895
4.34112e-05
0.000266444
7.10272e-06
0.000145375
-1.47159e-05
-0.000137761
0.000245153
-0.000170068
0.000114508
-0.000203928
0.000281292
-7.62123e-05
0.000134911
-9.45501e-05
0.000163092
-6.28291e-05
6.07385e-06
-8.06208e-06
-2.43501e-05
-0.000218363
0.000243427
-7.13838e-07
-1.28271e-05
-0.000212317
0.000237156
-1.20122e-05
0.000131967
4.68128e-05
-2.03715e-05
0.000973543
4.19373e-05
-0.00102007
4.59215e-06
-1.85651e-05
0.000177965
5.49193e-06
0.000135198
-0.000261322
-6.72927e-05
0.000193417
0.000340259
-0.000205908
0.000304148
-0.000307949
4.22228e-05
1.01708e-05
-8.6761e-05
-5.15381e-05
-6.255e-05
-0.000955222
0.000928608
-0.000398263
-1.12553e-05
-3.85974e-06
4.4039e-05
-0.000156627
-3.61297e-05
0.000148717
-3.28572e-05
0.000320052
4.13473e-06
-0.00029133
-4.93722e-05
0.000307365
1.66508e-05
-0.000274643
6.14125e-06
-5.78013e-06
-2.69595e-05
2.65984e-05
0.000280455
-0.000274824
0.000114003
-0.000119634
0.000241742
-0.000343258
0.000385141
-0.000283625
-6.11233e-05
0.000279471
-0.000220896
0.000242867
-7.38711e-05
5.18996e-05
-0.000245807
-7.17197e-05
0.000195484
0.000122043
-0.000221529
0.000247319
-7.74961e-05
5.17057e-05
0.0003035
-4.70313e-06
5.31319e-06
-0.00030411
3.72746e-06
5.16503e-05
-3.89253e-05
0.000348321
5.29113e-06
-4.59672e-06
-0.000349015
5.35827e-05
0.000174581
-0.000101949
-0.000126214
-0.000273282
-6.16526e-06
-3.36136e-05
0.00031306
-0.000277722
-3.58063e-05
8.43638e-07
0.000312685
-0.000294613
4.50183e-05
0.00030399
-5.43953e-05
-0.000269711
0.000115393
0.000240432
-8.61141e-05
-0.000110777
-1.43854e-05
9.57788e-05
2.93841e-05
-0.000100237
8.80255e-05
-6.55642e-06
0.000546695
0.000125691
-4.66732e-05
-0.000152338
6.32188e-07
8.64066e-06
-0.00129875
-0.000146477
0.00127105
0.000174179
0.000254626
0.000468689
-0.000415479
-0.000307837
0.000284113
-0.000172453
-8.8988e-05
-2.26722e-05
-4.65754e-06
6.41187e-06
-4.59411e-05
4.41868e-05
5.27374e-05
-4.90099e-05
-0.000100393
5.54231e-05
-0.000641241
0.000686211
0.000355402
-0.000255626
-2.63807e-05
-7.33952e-05
-0.000369256
0.000361
5.08714e-06
3.16864e-06
0.000182428
-0.000365545
0.000424574
-0.000241457
0.000140467
-0.000179714
7.29669e-05
0.00101894
-0.000880612
0.00015713
-0.00029546
-0.00024088
-0.000280855
0.000314554
-0.000104777
-4.55428e-05
4.03718e-05
0.000109948
-0.000280002
-3.87224e-05
4.90129e-05
-0.000238273
0.000157557
-3.00611e-05
-0.000273811
-6.14318e-06
-1.46596e-05
0.00037591
-0.000350334
-0.000177713
0.000152137
-2.85101e-06
-0.00037636
0.000375604
3.60755e-06
-0.000123918
1.53776e-05
0.000105203
-0.000209529
0.00019213
0.00115056
-7.30618e-06
1.77306e-05
-7.34094e-06
1.92846e-05
0.000139425
-0.000151369
-3.0356e-05
-8.61468e-05
0.000145866
-0.000285788
0.000217132
0.000160805
-0.000293103
0.000229979
-0.000329299
9.9969e-05
2.92643e-05
-0.000333779
-0.000223644
0.000404812
4.09164e-05
5.86325e-05
-0.00010479
-4.02199e-05
6.16779e-05
-3.74831e-05
0.000195145
4.26833e-05
-4.7327e-05
-0.000150547
-0.000126706
0.000142201
-6.99671e-06
1.28868e-05
-3.98053e-05
3.39152e-05
-0.000768302
-3.10616e-05
0.000141658
0.00046916
-0.000484573
-4.45555e-05
5.99686e-05
-0.000101321
-0.000879409
3.26505e-05
0.00094808
-0.000120814
-0.00100911
0.00104192
8.80046e-05
3.82823e-05
-5.34328e-05
4.92387e-05
-8.03759e-05
-0.000177394
0.000239204
0.000165942
0.00017871
-0.000202646
-0.000142006
0.000242879
9.38794e-05
-0.00024268
-9.40789e-05
-0.000606467
-0.000190999
-0.000314993
-9.22051e-05
5.14111e-05
0.000355787
6.02164e-05
4.97383e-06
-6.40418e-05
-1.14845e-06
2.45077e-05
-5.25683e-05
-4.8924e-05
-6.53064e-05
-2.70677e-07
-0.000277692
0.000204473
0.000177457
7.57287e-05
-6.21946e-05
-2.72876e-05
1.37534e-05
1.15635e-05
6.34972e-05
-6.9059e-05
-6.00177e-06
-8.99658e-06
0.000371745
-2.63712e-07
-0.000362485
4.55014e-05
0.00027676
-2.19951e-05
-0.000300266
1.17047e-05
4.95646e-05
1.44595e-05
4.89067e-05
-0.00110475
0.00110585
-5.00115e-05
0.000310086
-0.00174746
2.28446e-05
0.00141453
0.000381801
0.000106731
-0.000143073
-0.000345459
0.000225746
1.61523e-05
-2.58285e-05
-0.00021607
0.000482932
-0.000171161
9.67515e-05
0.00026884
-0.000206778
-0.00028066
7.93843e-05
-0.000170615
-1.51574e-05
0.000106388
-0.000316351
0.000318302
-3.29455e-07
-1.62093e-06
-0.000159094
0.000185437
-0.000109992
8.36489e-05
-0.000669003
0.000389013
0.00036624
-8.62507e-05
0.000196288
-5.06684e-05
9.36754e-05
-0.000239295
0.000263526
-2.45816e-05
6.34815e-05
-0.000302426
0.000164003
1.15506e-05
1.77564e-05
-0.00019331
-2.70429e-06
-6.71161e-05
6.98204e-05
0.000327742
-0.0013164
-0.000104461
0.000112763
0.00016073
-0.000169032
-6.76665e-05
-0.000387685
8.94704e-06
-9.05228e-08
-1.97152e-05
-1.599e-05
3.57958e-05
0.00104294
-0.00146707
0.000172634
0.000251496
0.000156934
1.62158e-05
-1.10776e-05
-0.000162073
2.13885e-05
9.73983e-06
-0.000183466
9.10223e-05
-1.15634e-05
-0.000545156
0.000465697
-4.55542e-05
-0.000135505
0.000192932
-1.18721e-05
6.82839e-06
0.000170419
-0.000225676
4.84285e-05
-5.506e-05
-0.000137944
0.000196238
-3.23385e-06
0.000564372
-0.000375935
3.56309e-05
0.000138139
-0.000133315
3.46153e-05
9.21291e-06
1.82025e-06
0.000850695
-0.000570622
8.94054e-05
-0.000369479
-0.000137216
0.000231106
0.000100531
-6.75226e-05
6.97242e-05
-5.31036e-05
-0.000297713
5.28217e-05
0.000297994
0.000395929
5.69266e-05
-0.00033682
-0.000116036
1.49492e-05
-2.8472e-05
-0.000144765
0.000158288
-0.000144829
6.03532e-05
6.6952e-05
-0.000127141
1.71465e-05
0.000320404
-3.02708e-05
-0.00030728
8.06405e-05
0.000172883
1.03124e-05
-1.0034e-05
0.000163724
1.00322e-05
-4.05151e-06
0.000257546
4.70242e-05
-2.86818e-05
0.000177945
4.51348e-05
-0.000121216
7.16806e-05
4.40112e-06
0.0012409
-0.00125592
-0.00024927
7.92782e-05
-0.000634292
0.000125339
0.000576999
0.000271563
-0.000274372
-9.1317e-06
0.000285522
-0.000195
0.00047385
0.000115802
-5.8217e-05
-7.05729e-05
7.3147e-05
1.22392e-05
-0.000157701
7.23151e-05
-0.000127215
-0.000525699
0.000132796
0.000520118
0.000234668
-0.000287772
1.32748e-05
-5.4776e-05
4.89642e-05
-7.46305e-06
0.000457081
0.000131066
-4.1453e-05
0.000294863
0.000204395
-0.000184292
0.000163676
-0.000204759
0.000206616
-0.00023472
8.56817e-05
-0.00116329
0.00117074
0.000116754
-0.000124206
9.01777e-05
0.000647381
0.000152189
-0.000258257
-0.000230508
-0.000242685
-0.000210294
-0.00020213
0.000226452
-0.00033835
-6.49347e-05
0.000176833
-0.0004243
0.00014283
-3.43455e-05
0.000315816
-0.000108969
0.000152677
-0.00019998
0.000156272
-4.75411e-05
-4.79015e-05
-0.00108334
0.00117879
-0.000110076
0.000209906
0.000460994
0.000191061
-0.000556215
-9.58403e-05
8.87442e-06
-1.1104e-05
-6.05996e-05
0.000342572
-0.000313729
1.4568e-05
0.000401053
-0.000416456
8.10582e-05
0.000342119
-0.000345272
8.43354e-05
6.56693e-06
5.7603e-05
-3.95356e-06
-0.000302532
1.58635e-05
0.000303815
7.67732e-05
-4.788e-05
3.3936e-05
-6.28292e-05
0.000298836
-0.000254775
-4.25426e-05
-1.51786e-06
0.000332573
-0.000285973
1.99406e-05
-6.65408e-05
0.000262611
0.000827506
-0.000667124
-0.000422993
-1.87628e-05
1.03305e-05
-9.34925e-05
0.000101925
-0.000993579
-0.000637451
0.00105607
0.000574957
1.72533e-05
-3.28891e-05
-3.61606e-05
5.17964e-05
0.000135221
-0.000223555
-0.000150757
0.000239091
-2.7929e-05
3.43798e-05
2.39613e-05
-3.04121e-05
0.000127989
-3.124e-05
0.000360332
0.000298549
-0.00040344
0.00013874
0.000276432
-0.000402397
0.000193459
1.98055e-05
5.79266e-05
1.13349e-05
-1.16633e-05
-0.000142696
0.000143025
0.000548104
-6.70348e-05
0.000149511
1.24882e-06
-8.01847e-06
4.71045e-06
-0.000217353
-0.000216093
0.000116507
0.000316938
0.000290851
0.000654286
-0.000476447
-0.000325532
-0.000280011
0.000419784
0.000522665
-0.000510657
3.50736e-06
-1.55151e-05
-2.31019e-06
4.87031e-05
1.22955e-05
8.77271e-06
-3.58981e-07
1.00159e-05
6.38273e-06
-9.66316e-06
-8.38547e-07
3.0274e-05
8.98038e-06
0.000217745
-0.000249993
3.22484e-05
-0.000330133
0.00027683
-0.00109413
0.00114744
-7.06038e-05
9.4603e-05
0.000106822
-0.000130821
0.000130448
5.98757e-05
-8.28921e-05
-0.000107431
-0.000298381
-2.57663e-06
0.000396173
-9.52149e-05
0.000340778
-0.000185993
-0.000430863
-2.48417e-05
-1.13527e-05
-5.05467e-05
0.00016106
-0.000124827
9.42154e-05
1.52565e-06
-0.000320748
2.87106e-06
-0.000128473
0.000163858
0.000155263
-0.000190648
0.0002746
-0.000166001
-0.000127016
1.84174e-05
0.000138789
-4.78588e-05
8.41623e-05
6.49434e-05
2.96024e-06
-6.18298e-05
6.73816e-06
-0.000155473
0.000202851
-5.41165e-05
-2.05561e-05
-0.000171545
0.000221514
-2.94124e-05
7.8722e-05
-1.88463e-05
0.00020494
-9.41681e-05
0.00027103
9.33579e-05
-2.25394e-05
0.000154928
-9.38467e-05
0.000375925
9.38315e-05
-0.000546313
-0.000416902
0.000705832
0.000257383
0.000822875
-0.00104099
0.000356478
-0.000138361
-2.10814e-05
0.000355243
-0.000340622
6.46004e-06
-8.31156e-05
0.00020738
-0.000261285
0.000137021
0.000179821
-0.000149372
-6.52901e-05
3.48414e-05
-0.00143179
0.00119548
-8.95395e-05
0.000325858
0.000142671
-0.000117031
-6.35348e-05
3.78953e-05
2.51386e-06
0.000404523
-0.000399942
-7.09445e-06
-9.09835e-05
1.97644e-05
5.29428e-05
-0.000309268
0.00030501
-4.86847e-05
9.52512e-05
-0.000296232
0.000270006
-6.90248e-05
-9.95535e-05
-0.000762969
0.000862523
-6.50559e-05
-2.02716e-05
-9.76172e-05
0.000182945
2.42332e-05
-3.08396e-05
2.01421e-05
-1.35356e-05
-0.000198424
0.00020609
3.18209e-05
-3.94873e-05
-0.000124602
9.07974e-05
-0.000125289
-9.10007e-05
0.000167615
-0.000181075
-1.34664e-05
-1.82748e-05
2.24262e-05
9.31492e-06
-8.71853e-06
-1.91324e-07
1.5766e-05
-6.8561e-06
-7.51589e-05
2.61373e-05
0.000396304
-0.000347283
0.0012863
-0.00131687
-6.364e-05
9.42033e-05
-6.70837e-05
4.84377e-05
3.62266e-05
2.48367e-05
-6.10633e-05
0.000240441
0.00020085
-0.000230919
-0.000210372
-9.2076e-05
-5.7874e-05
8.09097e-05
6.90404e-05
-6.97915e-05
0.000110463
-0.000391005
-3.18699e-05
4.92475e-05
-0.000291188
-1.52179e-06
2.27882e-05
-0.00025954
5.5352e-07
2.67445e-05
-0.0003073
0.000315678
2.33711e-05
-3.2742e-05
0.000333258
1.39069e-05
-2.21727e-05
-0.00027348
-2.31525e-06
3.41128e-07
-0.000279527
-4.76146e-05
8.38669e-06
-0.000303291
-0.000100946
9.20652e-05
-0.000882632
-0.000257079
0.000346404
-2.00347e-05
5.58134e-05
-7.02751e-05
-9.63981e-05
-0.00128543
0.00130306
-2.75173e-05
1.16217e-05
-1.73274e-05
-4.72596e-06
-3.86563e-05
0.000144591
0.000326054
-0.000104414
-0.000271012
0.000340601
-8.67872e-05
-0.000286671
-3.11766e-05
4.89344e-05
-0.000145383
0.000127625
0.000102613
0.000523285
-0.000103232
0.000115213
-0.000114049
-0.000139387
0.000138223
-3.16176e-06
5.08395e-05
-0.000233045
0.000185367
-4.07035e-05
4.42961e-05
8.03375e-05
-0.000242081
0.000116317
0.000370917
-1.83395e-05
1.27088e-05
1.42334e-05
-8.60263e-06
0.000200368
-0.000135502
0.000187776
-0.000252641
-9.30784e-05
6.35374e-06
-4.25886e-06
-9.17818e-05
9.07084e-05
9.03467e-05
-0.000158658
-0.000116702
0.000124813
0.000185457
-3.52073e-07
2.32033e-05
1.32475e-05
-7.24705e-05
7.71339e-05
-1.79108e-05
-0.000239561
0.000143348
0.000243001
-0.000146788
0.000173184
0.000162871
-0.000293006
-4.30494e-05
0.000214568
-0.000542901
-0.00021798
0.000230278
0.000163355
-0.000318863
-7.47699e-05
-0.00045486
0.000374521
8.59097e-05
-5.57081e-06
0.000236245
-2.71511e-05
-0.000878097
9.50611e-05
-7.50684e-05
-4.48344e-05
0.000216763
-3.55067e-05
-0.000180703
0.000156726
-6.17817e-05
-0.000126814
0.000899214
-2.0589e-05
-0.000764872
-0.000113752
-0.0001148
-2.91681e-05
-5.21857e-05
-6.23243e-05
-2.13134e-06
-6.49848e-05
-7.10623e-05
0.000946308
0.000138537
-0.000113179
5.92331e-05
9.90807e-05
-9.92195e-05
8.52515e-05
9.24006e-05
-7.84326e-05
0.000321873
-0.000341922
0.000472774
-0.000452725
-1.48924e-05
0.000383618
1.24421e-05
-0.000381167
0.00020195
-0.000174642
-0.000121518
9.42098e-05
-0.000206874
-1.58858e-05
8.24295e-05
0.00014033
-0.000937986
0.000934974
-8.55184e-06
-0.000363684
0.000259146
-0.000314058
0.000271055
-9.02294e-05
-5.98357e-05
5.82833e-05
0.00019606
-4.60264e-05
0.000859924
-0.00102759
-0.000262388
0.000430049
-0.000192498
-0.000996059
0.00119869
-1.01372e-05
-0.00126082
0.0012731
-0.00010868
-0.000447128
0.000434735
0.00026342
-0.000251026
-0.000369484
0.000358966
-0.00016842
0.000178938
-0.000135811
4.53859e-05
-4.95252e-05
-0.000502035
0.00066688
-0.000581747
6.87286e-05
-4.87253e-06
-0.000186605
-0.000132296
0.000153766
0.000165136
-7.08917e-05
8.55873e-05
-5.87481e-05
3.95886e-05
-8.7511e-07
-0.000860667
0.000762734