/*--------------------------------*- C++ -*----------------------------------*\
| =========                 |                                                 |
| \\      /  F ield         | OpenFOAM: The Open Source CFD Toolbox           |
|  \\    /   O peration     | Version:  v1912                                 |
|   \\  /    A nd           | Website:  www.openfoam.com                      |
|    \\/     M anipulation  |                                                 |
\*---------------------------------------------------------------------------*/
FoamFile
{
    version     2.0;
    format      ascii;
    class       volScalarField;
    location    "0.75";
    object      p;
}
// * * * * * * * * * * * * * * * * * * * * * * * * * * * * * * * * * * * * * //

dimensions      [0 2 -2 0 0 0 0];


internalField   nonuniform List<scalar> 
1466
(
93.5221
92.1942
93.3825
93.7671
93.0598
89.9224
94.3095
93.1303
93.1212
94.0281
93.3458
94.0668
94.2129
93.9637
93.8964
94.0139
93.6823
93.4912
92.756
93.9707
93.7285
94.6236
94.0307
92.5571
94.0179
93.446
93.4346
94.123
94.6505
93.0959
92.8906
89.1889
94.729
92.6923
93.382
93.8
93.6682
93.8794
91.2537
94.7694
94.034
94.1976
92.9148
92.7469
94.0161
92.9714
93.8399
93.5555
94.1962
93.7446
93.3657
94.0489
93.1568
89.867
94.7918
94.2697
93.8733
94.3816
94.2163
94.2981
93.9739
92.9528
93.0671
89.4798
92.094
93.9209
94.232
93.7392
93.5352
94.5841
93.4141
93.7148
93.9384
93.8096
93.9753
93.9984
93.8027
93.5803
94.5976
94.3151
93.4031
93.8171
93.8777
94.198
94.02
93.8486
94.0687
92.0395
93.8482
93.4205
93.7952
93.8441
94.3495
93.6368
93.3556
93.7574
92.0346
94.239
93.1174
93.8377
94.5481
94.1039
93.3847
91.7823
93.8361
93.056
93.7753
93.87
93.3307
94.054
94.1707
93.9978
91.3755
93.9031
94.2049
92.2217
93.8312
93.9383
93.387
94.4067
93.7186
93.4561
93.6251
92.0432
93.8629
94.3372
94.1865
92.5245
94.3472
94.0295
94.2212
93.7757
93.3882
94.1827
93.3917
94.3301
94.2027
94.0683
93.9946
93.7839
94.0384
93.7864
94.3667
94.407
94.0102
94.066
91.7622
93.2128
94.2309
93.9732
94.3411
94.2
93.4168
92.0525
93.8292
93.326
93.6299
91.1941
94.3494
93.3188
94.0738
93.8794
92.0144
93.7185
94.1374
94.3473
93.7072
93.3711
93.979
93.5084
93.9017
93.9148
94.19
94.28
93.4495
92.1044
94.1653
94.3264
93.9359
94.3344
93.5289
93.8071
94.2724
93.8993
92.0548
93.8549
93.8523
92.3764
93.8325
91.3933
91.9197
94.1321
93.8893
92.068
93.8042
93.6833
93.9929
94.0969
93.9153
93.8908
91.3249
94.285
93.852
93.9688
94.1953
94.2157
93.8283
92.8193
93.7852
94.2427
94.2094
91.3228
94.3515
93.9735
93.2909
93.8559
93.3524
93.6604
93.9865
93.7946
92.9773
93.4545
94.0225
93.8744
94.3156
93.8882
93.7549
94.1086
93.775
93.3723
94.0631
92.0152
93.7945
94.1453
93.8792
94.2041
94.1641
93.071
94.2137
94.1077
93.1708
94.2564
93.9271
94.1958
94.188
93.7643
93.4527
93.7635
93.6915
93.7749
93.8269
94.4513
94.226
92.0503
93.8036
94.4711
93.712
93.9644
91.7793
94.0215
94.0135
93.9503
94.4423
93.3671
90.5329
93.9385
93.194
91.283
94.1504
93.7746
94.4588
93.4754
94.1167
93.598
93.9386
94.1979
92.0015
93.8641
93.0291
94.2031
94.1706
93.7295
93.7667
94.1857
93.7908
94.1356
94.4433
94.0035
93.2463
93.8107
93.9178
93.1369
94.4207
94.0087
94.2796
94.409
92.6427
91.0516
94.4168
93.6859
94.3389
91.1788
94.186
94.4265
94.0587
93.7406
91.8997
94.178
94.2072
90.7729
93.4645
93.3491
94.2984
94.1942
94.229
94.1706
91.3229
93.4424
93.9889
94.2062
93.8337
94.3197
94.3177
93.7505
91.8733
93.7281
93.4197
93.7643
93.4175
93.4018
91.6486
93.6354
93.4394
93.4183
91.8349
93.6979
94.0952
93.4441
91.4148
93.4055
91.5102
93.6544
93.7535
93.3684
93.6908
93.4139
91.3932
93.8644
94.3244
93.1205
94.2647
94.074
94.2442
94.1749
94.1605
94.2814
91.3423
91.8252
91.1927
94.436
93.3374
94.2958
94.3408
93.4155
94.2736
93.6944
93.3921
93.4395
93.7508
91.4161
93.4
93.9607
91.3873
93.6507
93.4293
91.7596
93.7458
90.6605
94.0162
94.3106
94.1157
94.2576
94.4249
93.3688
94.2933
94.4451
94.0537
94.1149
94.207
94.2936
94.3231
94.2649
94.3458
91.7385
94.228
93.8188
94.3532
93.4511
93.8323
94.1569
91.4896
93.4209
94.364
94.1401
93.9998
93.6821
94.4282
91.6008
93.5784
91.4395
93.9439
94.3511
94.3141
94.2369
92.7048
94.3794
94.4426
94.4284
94.3348
94.3604
94.4344
94.2616
94.5971
94.5908
94.5622
94.517
94.6849
94.6418
94.5351
94.4513
91.2684
93.9855
94.4372
91.4063
92.8476
91.2753
92.7419
92.9176
94.188
94.0366
92.1089
94.2914
91.5983
94.4613
94.2417
92.9172
93.8841
93.8015
90.8361
94.4198
90.6654
93.1225
94.5639
94.452
92.6447
94.2358
93.7082
93.2753
94.8615
94.4146
92.8317
94.443
94.4456
94.421
91.9384
93.0427
91.5571
93.8295
91.2673
94.4548
91.7515
94.4237
94.4137
94.6001
89.2844
92.7902
94.6882
94.6186
92.5923
90.5286
91.2757
93.6822
89.9549
93.604
92.4912
91.3457
93.578
93.3872
90.1852
93.9794
92.4252
91.4212
93.5221
93.3972
94.2676
92.5395
90.683
92.6033
92.7724
92.4511
91.544
93.5542
94.2796
94.3255
93.4046
94.3632
93.9859
94.4165
94.3823
94.3736
94.0866
92.5038
94.1249
94.4209
94.5093
94.2539
91.5485
93.5346
94.433
94.4159
94.4313
92.4638
92.5517
93.0069
93.127
94.3084
92.2452
92.8148
94.2927
93.4048
93.6496
94.3607
94.3998
94.3995
94.4473
92.6516
94.0849
92.0567
93.7849
94.3106
92.3965
92.3765
93.7443
92.355
94.3557
94.4384
93.348
92.2858
92.3981
91.6829
93.5849
93.8696
92.0655
94.3992
94.3676
93.567
91.3008
94.0194
94.4551
93.9022
93.9868
94.3501
94.3722
92.4486
93.9896
94.3178
93.7915
94.1855
94.3466
91.9308
93.9136
93.4178
94.3235
94.0355
93.2399
94.3545
94.3117
93.4107
94.2693
94.2948
94.3479
94.1844
94.4539
94.3687
93.8333
90.5215
92.7334
93.5939
91.4529
94.1246
91.9301
93.891
93.9909
93.3764
91.7004
93.5779
94.2669
94.3305
92.1467
94.3748
90.9825
91.8035
93.6408
93.3502
93.4436
94.4411
94.4656
94.0495
92.9663
91.7702
94.3337
93.1606
93.8246
92.1356
94.1922
93.4185
92.6189
94.0299
93.1947
91.9329
93.7488
93.7771
94.4231
94.3094
93.6756
94.4352
94.1644
94.2304
93.7741
91.5219
94.4176
92.1057
93.3572
93.3954
94.3019
94.3316
94.3303
92.1332
91.8349
93.6499
93.7994
92.8217
93.8855
93.9017
93.3927
94.1208
93.3451
93.3594
92.844
93.8317
94.2721
91.2975
94.3315
93.0979
94.443
94.3572
93.0135
94.3592
93.8411
93.3424
94.0384
92.071
94.0562
94.3216
93.2007
91.7063
94.3661
94.2638
91.6349
94.3306
93.8032
93.8107
94.1418
93.3234
91.8599
93.799
94.1746
91.8015
93.747
94.3175
91.9665
93.7667
94.0267
93.3594
94.1843
93.4217
92.5617
94.204
93.2683
91.9828
93.8346
93.7277
94.0305
94.3386
91.2856
93.6384
94.2191
94.1782
94.3286
94.3919
94.2089
93.3767
94.2957
92.8052
94.3554
93.4849
94.4236
91.1952
94.2329
91.9163
93.7219
93.7605
94.0066
91.8837
93.7047
93.6436
94.2742
91.6796
93.6558
93.4002
94.4029
94.4618
93.5433
94.3719
92.8204
93.974
94.4266
94.1677
93.0388
94.0279
94.172
93.4058
94.3207
94.1616
94.146
93.3412
94.1858
94.1376
93.3392
90.576
93.4157
94.2163
94.1361
93.8895
92.0082
94.4048
94.2908
93.4029
93.1292
94.1573
93.2749
94.1916
93.6248
94.3289
94.3982
92.8039
91.2197
93.6733
93.3098
93.6048
94.2599
93.3994
94.3444
91.9707
93.8238
93.4648
94.3139
94.2304
93.3175
93.3057
94.4492
91.2438
92.9085
94.0832
94.34
94.3521
94.1914
94.1897
94.2379
92.7882
91.2033
92.9063
94.2032
94.2598
94.3338
94.1923
93.6505
93.8236
93.2111
94.1258
93.8375
93.769
91.9413
93.9888
91.9544
93.7087
92.3223
94.077
94.5614
93.9129
91.9611
94.3888
93.5892
93.3282
93.3535
93.1855
93.7454
93.8533
93.7203
94.4424
91.332
93.7715
93.7499
93.6118
93.9866
92.6878
93.5009
93.3041
91.8028
92.9246
91.1962
93.7873
94.475
94.414
93.9123
93.9016
93.3653
94.0651
94.1879
93.3893
93.5599
94.3465
93.7961
93.3791
93.5822
93.8029
94.3972
94.339
93.7216
91.3405
94.226
94.2434
94.0008
94.0882
94.1385
94.4335
94.243
94.2052
94.4035
94.4263
92.9776
94.3466
94.3869
93.2421
93.9333
93.3938
94.422
93.8712
93.1512
94.2726
92.86
94.1378
90.8046
92.0782
93.695
91.8545
93.4882
93.7817
94.4307
93.7843
93.552
94.1504
93.4626
92.5271
93.2781
93.8922
93.8153
92.0097
91.7047
94.4466
93.8111
93.3376
93.2665
93.7587
93.502
93.229
92.0438
94.4089
94.4545
92.7501
94.3335
93.8315
93.6441
94.2594
93.5577
92.8471
93.4253
93.4201
93.482
94.1437
93.5016
93.5592
94.3295
94.4125
94.4561
94.0752
93.7728
93.8966
94.1632
93.3889
94.1719
93.432
94.2397
94.0085
94.3291
94.1147
94.0256
93.8347
92.0111
94.2239
92.0505
93.7786
94.1704
91.1529
93.3958
93.9955
93.8061
94.3828
94.3234
93.4691
93.8044
92.0265
94.1796
94.4159
93.6934
92.9774
93.7468
94.387
93.7887
93.9473
93.9386
93.9141
93.9299
92.1607
92.1081
92.2188
92.2862
93.9627
92.3852
92.5391
93.9836
94.0081
94.0348
93.4943
94.0615
94.0887
94.0214
93.7913
94.1339
93.8832
92.7607
90.7171
94.4044
94.146
93.4909
92.9586
93.642
93.5911
93.3771
93.7943
93.6559
94.388
93.8813
93.4003
94.4246
93.6413
93.6386
91.7817
93.0266
94.0412
93.4994
93.1334
91.9853
93.536
93.7674
93.3536
94.024
91.3861
93.6302
94.4011
92.5339
94.1449
93.6406
93.2996
93.7434
93.4061
93.7557
90.8572
93.993
93.0284
93.5826
93.4826
94.5439
93.826
94.1197
94.0498
94.029
93.2865
94.1642
93.6993
93.8056
93.5443
93.796
94.3321
94.1376
94.0051
93.5979
91.6796
94.1517
94.276
93.8565
93.691
93.2045
94.3509
92.4645
94.0524
94.5611
94.2118
92.8885
90.5234
93.7436
93.3824
93.2934
94.0677
93.895
94.3109
92.9899
94.1479
94.2582
92.9653
92.1593
94.1328
93.873
91.2924
94.2074
94.4159
92.267
94.1941
94.4662
93.5641
91.5619
93.3983
93.4107
93.5285
94.2671
94.3829
90.9879
93.4111
94.2536
91.7187
92.8542
93.809
93.7713
94.1382
93.6371
91.3308
93.9026
91.7173
94.0684
94.0437
94.1417
94.0251
93.565
91.442
92.0339
94.3146
94.0367
92.8591
93.3704
93.3015
94.7093
94.0935
94.1015
93.5642
93.3979
94.0295
92.557
94.0057
93.3006
93.6097
93.2738
94.4285
94.1128
92.6527
93.4733
93.8644
94.1847
93.3598
94.1376
93.8692
93.8267
94.0562
93.9804
94.1847
94.3332
94.1263
94.159
94.1504
94.0573
93.6087
93.4098
94.4101
94.1406
93.4519
93.663
93.5249
93.8695
92.0724
93.728
94.0486
93.8987
93.3271
94.4712
93.7696
93.8952
94.0473
91.416
93.4119
94.0462
93.726
94.1771
91.4707
94.1423
94.4293
94.0991
91.4164
94.4152
93.6031
90.7563
93.435
93.5733
94.233
94.3451
94.1587
93.7102
92.5748
94.176
92.8301
94.4685
94.052
93.5536
94.0084
93.8702
94.1465
94.2296
94.4166
94.2999
94.2526
91.476
93.6641
93.3196
94.2658
93.1001
94.0393
94.4676
93.3853
93.6384
93.9901
93.7573
93.4113
93.6721
93.643
93.0386
93.7264
93.5238
92.7137
89.9008
93.1684
93.9587
94.4067
93.974
94.1523
93.4574
93.9534
93.9532
94.1882
94.4096
92.3968
94.065
92.2509
93.5385
94.167
94.1451
93.5583
93.581
91.3438
93.8469
94.3388
94.1847
94.3898
94.1493
93.3939
93.2874
94.1117
93.7946
92.0289
93.8966
91.4519
93.4138
92.6818
94.1821
93.8969
93.4268
93.4876
92.4089
93.8855
94.4281
94.4599
94.4093
93.3627
94.6655
91.9564
92.3583
94.208
93.409
93.7274
93.6389
90.8432
93.8407
93.7244
93.8799
91.3282
94.1891
93.3783
93.9498
94.4472
93.3938
92.677
93.8213
93.4058
94.633
93.8121
92.6886
91.1839
94.3077
91.4154
93.7867
92.0141
93.3696
94.2527
93.3954
92.2676
94.3747
91.1032
94.4514
94.172
94.3356
91.3798
94.4723
93.3484
94.714
94.1526
93.7472
94.1799
94.4515
94.1846
93.7228
94.6957
92.0551
93.899
94.2447
94.2114
94.0201
94.1319
90.6116
93.7066
93.2794
94.194
93.8506
94.1257
93.3796
93.715
94.1855
92.5236
93.7461
91.8798
94.445
94.4201
93.5893
93.8024
94.0206
90.8281
93.6792
93.4022
93.0988
93.4542
94.4681
94.1891
94.4878
93.3658
94.1782
90.8643
94.1622
93.4278
93.3814
94.4991
94.415
90.9427
94.1318
94.4054
94.0742
92.1459
93.4139
93.5157
94.1351
94.4892
93.3956
91.4504
94.2724
92.9546
94.182
91.4063
94.4624
93.9057
94.0458
94.4345
93.3815
94.4574
94.2857
91.5318
93.4276
92.9201
93.903
91.3757
94.458
94.2462
94.3077
93.6456
91.7743
93.7963
92.8555
93.3398
93.7126
93.5984
91.5592
93.9112
94.1522
93.3903
93.6977
91.842
94.462
93.9496
94.3026
93.6133
91.6786
94.0669
94.4269
94.7494
93.4071
94.2049
93.7794
91.3736
94.0409
93.3984
94.1064
93.1347
93.3737
94.4001
91.0055
94.186
94.0727
91.3661
93.7284
91.298
93.8834
94.1692
94.1491
94.4386
93.784
91.9146
93.8727
94.0062
94.2078
94.0404
94.1872
94.0978
93.9418
94.0929
94.1811
94.1768
93.9209
92.1141
93.4103
93.6842
94.0366
94.1582
93.7875
91.9828
94.482
94.141
94.0181
93.996
92.826
93.7548
91.3298
94.5325
94.1299
94.6522
93.8683
94.2309
94.0655
94.0272
93.4414
93.9529
92.2827
94.1137
94.1227
94.4184
90.9769
93.859
88.8455
93.7758
92.0226
93.9835
93.9535
94.4329
94.3648
94.1233
93.7695
91.9795
92.3295
93.581
93.6399
93.9279
92.1074
93.5637
92.006
94.0805
94.3791
91.8947
92.2231
94.0162
94.1699
94.4756
94.4601
93.3904
94.109
94.1132
94.0351
94.3004
91.4351
94.1181
94.4291
93.164
93.0428
94.0653
94.2076
93.1643
93.3942
92.7798
92.9818
93.2282
93.2427
93.8799
94.5445
93.9714
)
;

boundaryField
{
    frontAndBack
    {
        type            empty;
    }
    wallOuter
    {
        type            zeroGradient;
    }
    inlet
    {
        type            zeroGradient;
    }
    outlet
    {
        type            fixedValue;
        value           nonuniform 0();
    }
    wallInner
    {
        type            zeroGradient;
    }
    procBoundary2to0
    {
        type            processor;
        value           nonuniform List<scalar> 
42
(
90.5775
90.5775
91.9524
91.9831
91.311
90.7634
91.9727
91.9727
91.2973
91.2791
90.9659
90.9659
91.2534
90.7695
90.6202
91.0603
90.4971
91.2957
91.2808
88.898
89.7249
91.319
91.319
90.4618
89.7249
91.447
90.8425
91.5836
90.8425
90.4776
90.4366
91.7377
91.8619
91.9355
91.9734
91.9831
90.4971
91.9583
91.0671
92.0164
92.0164
91.9959
)
;
    }
    procBoundary2to1
    {
        type            processor;
        value           uniform 88.6818;
    }
    procBoundary2to3
    {
        type            processor;
        value           nonuniform List<scalar> 
29
(
93.3335
93.0851
94.7547
94.8413
89.6306
93.3265
94.0694
93.1371
94.7714
94.8174
93.2739
89.2193
93.3365
93.9913
94.0033
94.0309
94.7649
94.7649
93.0851
93.9913
93.9865
94.8001
94.0443
94.8143
94.0237
94.7741
94.7714
88.8212
89.2193
)
;
    }
}


// ************************************************************************* //
