/*--------------------------------*- C++ -*----------------------------------*\
| =========                 |                                                 |
| \\      /  F ield         | OpenFOAM: The Open Source CFD Toolbox           |
|  \\    /   O peration     | Version:  v1912                                 |
|   \\  /    A nd           | Website:  www.openfoam.com                      |
|    \\/     M anipulation  |                                                 |
\*---------------------------------------------------------------------------*/
FoamFile
{
    version     2.0;
    format      ascii;
    class       surfaceScalarField;
    location    "0.6";
    object      phi;
}
// * * * * * * * * * * * * * * * * * * * * * * * * * * * * * * * * * * * * * //

dimensions      [0 3 -1 0 0 0 0];
oriented        oriented;


internalField   nonuniform List<scalar> 
2776
(
-0.000228154
9.67619e-06
0.000129496
8.89818e-05
-0.00084983
0.000918223
0.000294854
-0.000363248
-0.000369316
-0.000245328
0.000238602
0.000376043
7.51854e-05
6.53374e-06
0.000983361
-0.00106508
-0.000260518
-0.000341197
0.000462073
0.000139642
-0.000116392
-0.000434853
0.000368347
0.000182898
-0.000218054
-6.84105e-05
0.000336514
-6.44877e-05
-0.000530684
0.000258658
0.00100507
0.000885411
-0.000889519
-0.00100096
-0.00092795
0.000734244
-0.000222563
0.00041627
-0.000345457
-0.00116567
0.000528497
0.00098263
0.000415972
0.000173256
-0.0005446
-4.46287e-05
0.000889882
0.00011534
-0.00137286
0.000367636
-0.000163317
-8.23223e-06
-8.89696e-05
0.00011191
-3.87119e-05
-0.000189589
0.000485762
-0.000143081
-0.000688139
-0.000231355
9.59235e-05
0.000267112
-0.00013168
3.04283e-05
-0.000476611
0.000446183
0.000515382
-0.000152657
7.73159e-05
-0.00044004
0.000666296
-3.48791e-05
4.65774e-05
-0.000677994
-0.000688697
3.89118e-05
-2.78114e-05
0.000677597
-1.23526e-07
0.000221082
-0.000320057
9.90977e-05
0.000576223
2.20758e-05
-2.2088e-05
-0.000576211
0.000625085
4.44887e-05
-2.6983e-05
-0.000642591
0.000308094
-0.000383394
-0.00117295
0.00124825
1.5133e-05
3.13815e-06
2.24112e-05
-4.06823e-05
-0.00024078
6.29003e-06
0.00012871
0.000629856
-0.000715203
-4.33639e-05
0.000130292
-7.92748e-05
0.000137634
-0.000188651
-0.000340493
0.000393751
0.000602743
-0.000656001
0.000573356
-0.000844248
-0.000114002
0.000384895
4.12081e-05
-5.27986e-06
4.66652e-06
-4.05947e-05
7.29805e-05
7.74285e-05
-0.000135462
-1.49468e-05
-0.000351851
0.000318168
-0.000684872
0.000718555
3.30286e-05
9.64733e-06
0.000344729
0.000241083
-0.000112091
1.30041e-06
-0.000466758
-3.5586e-05
-0.000364019
0.000105159
0.000950814
-0.000228505
-0.000722309
-9.99526e-05
0.000381648
-0.000281695
-7.38262e-05
0.00041888
-0.000345054
-0.000480673
0.00054501
-6.43366e-05
-0.000485335
0.000480797
4.53784e-06
-0.000240851
-5.42203e-05
0.000295071
-0.00012584
-7.3074e-05
0.000198914
0.000333257
-6.20925e-05
0.000951397
8.98439e-05
8.89732e-05
1.69238e-05
-0.000105897
-0.000262298
0.000304978
-4.26799e-05
-0.000135723
0.000179395
-4.36715e-05
-0.000225924
0.000148229
7.76941e-05
-0.00020591
-0.00064392
-0.000349919
-8.49341e-05
-0.00015414
-0.000187056
0.000171816
-9.88359e-05
-0.00108517
0.00139326
0.000239694
1.16477e-05
-0.000251342
-0.000966788
-0.000198883
1.82957e-05
-0.000107555
8.92592e-05
-0.000786415
-0.000141535
2.55204e-05
-1.77242e-05
1.89606e-05
-2.67569e-05
-0.000233587
0.000204842
-4.50807e-05
-0.000162948
0.000158069
-9.50739e-05
-0.000199961
4.93177e-05
0.000579187
-0.000428544
0.000780143
-0.000675286
-0.00017924
7.43826e-05
0.000180636
-0.00021922
4.11849e-05
-2.60064e-06
0.000251696
3.43568e-07
-4.25136e-05
-0.000209526
-0.000181236
-5.40775e-05
-0.000421673
0.000843585
-0.000844991
6.87006e-05
-6.72946e-05
0.000193345
-0.000290668
-0.000152499
0.000249822
0.000159963
-0.000142857
-7.16955e-06
-9.93627e-06
5.21704e-05
-0.000534558
0.000482388
4.54518e-05
-0.000473012
0.000427561
0.00105795
-0.000452277
-0.00080804
0.00020237
9.73041e-06
-2.74641e-05
4.32541e-05
-0.000596501
-6.56262e-05
0.000286512
0.000375616
-5.35156e-05
-0.000230054
4.99823e-05
-0.000113853
-0.000131875
8.27809e-05
-0.000312676
0.000191563
0.000121113
0.000100834
-0.000373114
0.000328257
-5.59769e-05
-0.00058904
3.14836e-05
-5.37228e-05
0.000611279
-0.000295769
0.000480809
0.000343457
4.8805e-05
0.000260707
-2.29859e-05
-0.000286526
-0.000334423
-6.24245e-05
0.000292365
0.000104482
-0.000524016
1.97577e-05
0.000521121
-1.68632e-05
-3.58007e-05
0.000585492
-0.000573432
2.37403e-05
-0.000625801
0.00104065
-0.000766704
3.70289e-05
-1.49796e-05
0.000311134
-0.000333183
0.000754932
-0.000393157
2.63209e-05
2.62054e-05
7.65526e-05
-0.000129079
1.21537e-06
1.09639e-05
2.95369e-06
-0.00023735
6.37875e-05
-6.72167e-05
0.000167595
-0.000722408
0.000629999
0.000160571
6.36528e-05
-8.31554e-05
-0.000141068
-2.32808e-05
-0.000205796
0.000164589
-0.0001975
0.000783552
0.000134671
-1.53912e-05
-8.00962e-05
0.000347013
0.00011506
0.000142423
2.19332e-05
0.000126296
-4.26565e-05
0.00013163
-3.8806e-05
-0.000223492
-0.000513973
2.86382e-05
-5.2228e-05
-0.000478456
-4.4941e-05
-0.000137217
0.000378716
0.000603915
1.15394e-05
-1.10659e-05
-1.86922e-05
1.20339e-05
0.00048845
-0.000511857
2.36592e-05
-2.52791e-07
8.09732e-05
-0.000148035
7.67377e-05
0.000271127
0.000463117
-8.93969e-06
-8.4405e-05
3.06457e-05
6.2699e-05
0.00042425
-0.00011659
0.000132792
-0.000418488
0.000701669
6.38822e-05
-0.000194413
-8.75228e-05
8.03677e-05
-0.000183065
-0.000115663
-0.00107042
0.000962856
0.000114098
8.1846e-05
8.93221e-05
-0.000166687
-4.48149e-06
-4.99093e-05
7.09335e-05
-5.98285e-05
3.88043e-05
-3.29036e-05
-0.000207947
-3.89373e-05
-8.69027e-05
0.000366285
-0.000124135
-0.000657003
0.000169417
0.000583796
-9.62094e-05
-0.000209314
0.000701048
4.50884e-05
-0.000536823
-0.000285502
0.000806031
5.51671e-05
-0.000575696
-6.06898e-05
5.74279e-06
8.24162e-05
-2.74692e-05
0.000108853
0.000519541
0.000120523
0.000550014
-7.20705e-06
-1.11385e-06
4.18021e-06
4.14069e-06
-0.000330189
-0.000331552
0.000123454
-0.000105722
-0.000132969
-5.82947e-05
-7.71448e-05
0.000710057
1.66764e-05
-0.000649588
0.000620302
2.37294e-05
-1.77748e-05
-0.000626256
0.000504166
-2.54568e-05
3.10029e-05
-0.000509712
0.000218998
-0.000134145
-0.000138455
5.36022e-05
-0.00055309
-9.13346e-05
1.58957e-05
0.000628529
4.61242e-05
4.19135e-06
-9.10746e-06
8.6927e-05
-4.52347e-05
-3.50773e-05
-6.61494e-06
0.000131934
-0.000110383
2.91064e-05
-5.06578e-05
0.000177182
-0.000140682
-1.01786e-05
-1.33323e-06
-6.39109e-06
0.000224082
-0.000412006
0.000482779
-0.000787655
-8.64493e-05
0.000217101
5.474e-05
-6.58388e-05
-1.21819e-05
-0.000172132
-4.35584e-05
-1.89383e-05
0.000234629
0.000231492
-7.47457e-05
0.000104908
0.000649109
-6.05403e-05
-0.000693477
0.000700703
-0.000584781
-0.000741723
3.98834e-06
1.37202e-05
5.96201e-06
-2.36705e-05
-0.000732935
0.000233943
0.000477008
2.19843e-05
-5.66776e-06
-2.8295e-06
5.46215e-05
-0.000600814
0.000182888
0.000518759
-0.000270308
0.000234507
0.000490325
-0.000712203
-0.000163127
0.000385004
-3.92438e-05
0.000115784
-0.000341448
0.000264908
8.43179e-05
-0.000379293
0.00067579
-0.00063264
7.73728e-05
0.000540255
-0.000503031
7.16285e-05
0.000626899
-0.000529122
-7.89497e-05
-1.88271e-05
9.72461e-05
0.00152888
-0.00120138
-0.000424747
0.00058544
-0.000814848
0.000358118
-6.3339e-06
1.24651e-05
3.41163e-05
-4.02476e-05
0.00013713
-1.68792e-05
5.91443e-05
-3.39659e-05
8.98955e-05
0.000517845
-0.000624129
0.000106284
-0.000403771
0.000289513
-0.00127182
0.00138608
-0.00042959
-3.04076e-05
0.000587364
-0.000127366
0.000215195
-0.000179808
-0.00037588
-7.52567e-06
-2.17557e-06
-1.36463e-06
4.79139e-05
2.21636e-05
8.98851e-05
-0.00133961
0.00117327
-0.000246007
0.000412341
0.000370682
-0.000316672
-0.000127382
7.33731e-05
0.00012766
-0.000556443
0.000539881
-0.000111097
-0.000151826
1.65826e-06
9.91485e-05
5.10188e-05
-2.68949e-05
1.34189e-06
0.000340204
-0.000314651
0.000598198
3.25841e-05
-4.52897e-05
-0.000516027
3.57799e-05
-4.37686e-05
-0.000357994
-0.000186828
0.000210399
-0.000948187
-0.000169657
0.000272853
-8.82318e-05
4.664e-05
-0.000271084
0.000683074
-0.000176414
-0.000583805
3.43183e-05
-2.55204e-05
1.01627e-05
-0.000362175
0.000224267
0.000305502
0.000300112
0.000359546
-0.000581873
-7.77846e-05
0.000114469
0.000162446
-0.00100985
3.7841e-05
-1.74966e-05
-2.787e-05
-0.000103036
-0.000187632
-0.000405436
0.000325222
0.00052017
-0.000439956
-0.00024847
4.39471e-05
4.72903e-05
0.000157232
-0.000718176
0.000465198
-0.000358274
-0.000125543
0.000121642
0.000107809
-3.6564e-05
-0.000480798
0.000424674
0.000348649
-0.000292525
-0.000277637
0.000288549
1.60583e-05
-2.69702e-05
-0.000128977
-3.84126e-05
2.45327e-05
-0.000239799
-0.000430909
7.04834e-05
0.000719971
0.000483086
0.000766313
-0.000414565
-0.000834833
-5.37925e-06
8.48276e-07
1.1937e-05
-7.40603e-06
1.0757e-05
0.000656044
-5.0562e-07
4.36279e-05
0.00055981
-8.80558e-05
-3.21506e-05
6.10903e-06
-0.000529283
0.000555325
-2.3211e-05
2.33813e-05
-0.000258816
0.000258646
0.000432533
-0.0001706
0.000323507
-4.53712e-07
-0.000687938
-3.05427e-07
6.45037e-05
-0.000547834
0.000722273
-0.000238942
0.000613839
0.000118909
-0.00013455
-0.000510446
5.89227e-05
-0.000243839
-0.000439826
0.000325672
-0.000158773
0.000627319
0.000207245
-0.000151978
0.000514082
0.000178151
-4.89366e-05
1.98708e-06
-3.74555e-05
-1.72804e-05
-4.0229e-05
5.78022e-05
-3.86534e-05
1.9605e-05
-0.000453511
0.000325455
-0.000114856
-0.000154355
6.8319e-05
0.000200892
-2.50882e-05
7.41138e-05
2.45041e-05
-7.35297e-05
-7.0725e-06
-7.28599e-06
-9.39522e-05
4.47752e-05
2.40407e-07
3.93279e-05
-6.67658e-05
2.02684e-05
-3.848e-05
0.000284527
-0.000495575
0.000249528
8.03654e-05
-0.000427891
-0.000234348
-6.06377e-05
0.00042215
-0.000378362
1.68497e-05
0.000150504
9.42285e-05
-0.000132682
-0.00011205
-1.09898e-05
-0.000238746
4.78808e-05
-8.72214e-05
5.8917e-05
-1.95764e-05
-4.11445e-06
0.00020962
0.000104752
-8.75698e-05
-0.000226802
7.62375e-05
-4.51328e-05
-0.000404219
0.000447246
-0.000298041
-0.00033977
2.37436e-05
8.72862e-06
-1.52064e-05
-1.72658e-05
7.09498e-05
-0.000595526
-2.64418e-06
2.53909e-06
-3.63609e-05
3.6466e-05
-0.000258314
0.00091249
-0.00027165
0.000232336
-2.49362e-05
6.4251e-05
-0.000307945
0.000724783
0.000595491
0.000193928
-0.00017558
0.000816752
-0.000422931
0.000881299
-3.25432e-05
4.7334e-05
0.000472249
-0.000487039
-2.52741e-06
4.44149e-05
-4.72667e-05
6.84327e-05
2.24827e-05
-7.9175e-05
0.000565157
-0.000784248
-0.000964957
0.00119052
0.000558684
-0.000390716
0.000396825
-0.000267091
0.000386
6.53621e-05
-4.19808e-05
-2.53004e-05
0.000392863
-1.86241e-05
0.000409865
-3.63557e-05
-6.48035e-05
0.00043548
-0.000438098
-0.000498978
0.000501595
-1.46959e-05
-0.000413418
0.000490404
-7.69862e-05
-5.85805e-05
6.95626e-05
-0.000578256
-0.000144614
-0.00129503
0.000655393
0.000199568
-0.000469876
-0.000375148
-1.55677e-05
7.3454e-05
-8.09186e-06
1.10159e-05
-1.61735e-06
-8.55024e-06
-1.41915e-05
1.48453e-05
-3.67081e-05
6.77535e-05
3.45371e-05
-0.000695579
0.000249302
-0.000160864
0.000607141
-0.000561074
0.000464485
0.00016251
-0.000198711
-7.41825e-05
-5.46003e-07
4.70692e-05
1.48977e-05
-6.14209e-05
-0.000349549
0.000258211
0.000197222
-0.000105884
0.000316222
-0.000182478
0.00042465
-0.000558395
-0.000528188
0.000478768
0.000212934
6.16032e-05
-0.000177906
-9.66313e-05
1.01639e-05
-4.0027e-05
9.71655e-05
-6.73025e-05
0.000328285
-0.000406811
1.99459e-05
-2.25083e-05
0.000307235
-0.000127939
7.26832e-05
-5.22988e-05
0.00092367
-0.000832864
-0.000505372
0.000528339
0.000370869
-0.000729791
5.04803e-05
7.90162e-05
-0.000833117
6.36236e-05
-0.000799233
0.000419876
-1.10294e-05
-0.000175799
0.000355391
-0.000319611
0.000103355
-6.78448e-05
-7.91813e-05
-5.3335e-05
1.30758e-05
3.90349e-06
-0.000161264
-1.55151e-05
0.000201064
-2.42849e-05
-2.70688e-05
5.43762e-05
4.68364e-05
-7.41439e-05
5.66543e-05
-1.04174e-05
-4.62369e-05
-0.000560807
0.00140881
-0.00110632
0.000489269
-0.000551109
-0.00062081
-2.08162e-05
2.14935e-05
1.36919e-05
4.81425e-06
-8.13946e-05
9.56991e-05
-1.91187e-05
-8.47791e-05
4.37667e-05
0.0002259
-0.000184888
-0.00087853
0.000907359
0.00037315
-0.00040198
-0.00024981
0.000172114
-0.000851105
0.000928801
-0.00106633
0.000520781
0.000728433
-0.000133767
0.000438536
-0.000325719
0.000667535
0.000123538
0.000279498
-0.00014759
-0.000255445
6.92957e-05
-0.000437207
4.90132e-05
0.000318898
0.000616539
-3.56074e-05
6.43279e-06
-5.08501e-05
5.79038e-05
4.09973e-05
-4.8051e-05
0.000679565
-6.8208e-06
0.000308709
-0.000981453
-0.000144716
0.000179321
-0.000119384
2.40774e-05
5.18377e-08
8.77804e-05
-4.74085e-05
-1.06092e-05
4.68276e-06
-0.000932493
-8.54893e-05
0.000145689
0.000872293
-0.000974689
0.000477757
0.0009994
-0.000502467
9.66393e-05
-0.000450656
0.000564245
0.000565976
2.93712e-07
-3.48389e-06
-6.34705e-05
0.00014198
0.00037663
-0.00045514
5.95294e-05
-0.000529173
0.000500072
-0.000473949
-0.000240359
0.000107868
-0.000112837
0.000754366
-0.000848749
0.000343685
-0.000204106
0.000286644
0.000352942
0.00121179
-0.000557752
0.000262684
-0.000916724
0.000436572
-7.15151e-05
-0.000250588
8.96133e-05
-3.07166e-05
0.000114112
-5.20164e-06
-6.53106e-05
-4.35997e-05
9.81036e-05
-2.99428e-05
-0.000103904
3.57435e-05
3.43208e-05
-5.72486e-05
-1.94298e-05
4.23576e-05
-0.000407087
-2.12019e-06
-0.000425626
0.000246056
-2.66785e-05
0.000286786
-0.000448162
0.000503238
-0.000341862
0.000480489
0.0010899
-4.1512e-05
-7.5459e-06
6.42002e-05
-0.000547038
-1.51159e-05
0.000787529
-0.00067474
0.00038807
-0.000500858
-0.000151301
-0.000772882
-2.40038e-05
0.000232418
0.000500533
-0.000522504
-0.00069882
0.00154853
0.000362085
-4.69071e-05
-0.00114544
0.00130394
-0.000111593
-2.25382e-05
0.000115264
0.000105232
-0.000162592
0.000145164
0.000158079
0.000333853
-0.000250849
-7.97927e-05
-0.000477959
0.00134128
-0.000545958
-0.00149414
0.000361786
-0.000452787
7.31558e-05
1.957e-05
0.000335411
-7.16246e-05
6.00142e-05
-4.71869e-05
0.000594314
-8.41141e-05
-0.000305183
0.000377616
1.16805e-05
0.000122307
-0.00019434
-4.87877e-05
0.000274745
2.5739e-05
0.000672867
-0.000626554
-0.000506351
0.000460039
0.000672196
-0.000858052
0.000630333
-0.000444477
-0.000172202
9.24091e-05
0.000210725
0.000603655
-0.000468449
0.000321231
0.00105458
0.00030094
-1.27161e-05
0.00048791
-0.000268894
-0.000219016
0.000577091
-0.000834814
-0.000305538
9.5111e-05
-2.99316e-05
-0.000453785
-0.000151034
0.000104454
0.000500364
0.00021078
0.000376784
-0.000414307
0.0007
-0.00021209
-1.79399e-05
0.000116367
6.21441e-05
0.000484756
-0.000690208
0.00019326
-0.000155513
0.0001043
-0.000142047
-0.000104181
0.000137254
6.81142e-05
-0.000101187
0.00024176
-0.000152681
9.72764e-05
0.000291703
-0.00014722
-0.000172102
5.50879e-05
0.000198238
-8.12238e-05
6.24286e-05
0.000324474
-3.46508e-05
-2.50025e-05
0.000181989
0.000167487
-2.50548e-05
0.000225952
-7.39941e-06
0.000161666
-8.44386e-08
-9.40337e-06
8.48899e-05
-7.54021e-05
-5.52501e-05
-2.84535e-05
7.66107e-05
7.09285e-06
1.09452e-06
-0.000195743
0.000181637
1.3012e-05
-2.78799e-05
-3.72284e-05
9.85816e-06
-2.51829e-05
6.05221e-06
3.39293e-05
-1.47986e-05
-2.57169e-05
2.23745e-05
8.7797e-05
-8.44546e-05
1.49719e-05
-6.23983e-05
-0.000260785
0.000960786
-2.55846e-05
-1.55033e-05
1.59051e-05
8.23177e-05
-0.000108035
-4.51585e-05
4.113e-05
1.90003e-05
7.9041e-05
-2.7034e-05
-0.000526074
0.000103969
-0.000510945
0.00093305
-0.000183943
6.29626e-05
-0.00113319
-0.000210509
0.00112226
0.000221432
-5.97584e-05
2.08193e-05
6.21281e-05
-2.3189e-05
0.000575017
-0.000282591
-0.000818501
3.03415e-05
0.000146367
-0.000300047
0.000122217
0.00022632
-4.84897e-05
0.000127379
-9.69962e-05
-0.000130788
0.000100405
1.22453e-05
3.84819e-05
-1.69006e-06
-4.90371e-05
-5.38153e-05
0.000732802
-0.000500105
0.000476631
-8.34145e-06
7.59619e-05
-0.000234859
-0.000309685
0.000280815
0.000263729
0.000150484
-7.52738e-05
0.000180704
-0.000214163
3.40482e-05
-0.00012254
2.78816e-05
8.44103e-06
-1.53148e-05
2.31779e-05
-5.19303e-05
4.40673e-05
-2.34867e-05
-6.22714e-06
-6.72824e-05
5.46521e-05
-8.64802e-05
9.74069e-06
2.60162e-06
-2.76572e-05
-0.000706143
4.43064e-05
4.08598e-05
-7.54254e-05
-6.42739e-06
7.64189e-05
-4.79665e-06
-9.61098e-05
8.01705e-05
1.78917e-05
4.91354e-05
-1.04205e-05
-0.000107125
2.18081e-05
-2.41711e-05
-8.12128e-05
3.88819e-05
-1.82406e-05
-6.96339e-05
4.89926e-05
-3.49925e-05
3.47191e-05
2.26479e-05
2.635e-05
-0.000198552
0.00108185
5.37725e-05
-0.00113562
0.000145525
-0.000164225
0.000242782
7.20765e-05
1.02413e-05
-7.21144e-05
-0.000109668
3.4638e-05
-7.80714e-05
4.34334e-05
0.000160065
1.51088e-05
-3.29563e-06
1.98159e-05
-5.08002e-05
0.000110665
-0.00011075
5.76757e-05
0.000102504
-0.000145071
0.000183015
-0.00017157
0.000139213
9.54536e-05
-8.91419e-05
2.19248e-06
0.000147015
-6.82346e-05
0.000174585
-0.000178932
0.0010927
0.000170554
-0.000231727
0.000200387
-2.07784e-05
0.000131897
-0.000108926
0.000137232
-0.000228571
9.43342e-05
-2.99495e-06
-0.000116275
0.000250996
0.000133864
-0.000268586
0.000100638
-0.000139356
-0.000144872
-2.65411e-05
0.000171413
0.00142608
-5.49897e-05
3.7586e-05
-2.03539e-05
-2.66354e-05
0.000126574
-1.59089e-05
-6.32481e-05
9.97386e-06
0.000102042
-4.87677e-05
3.16434e-05
0.000300414
-7.13508e-05
-1.82982e-05
0.000149393
-9.51142e-05
0.000110958
-2.04676e-05
8.9489e-05
-2.0508e-05
0.000120578
-0.000152182
0.000149237
-0.000246642
0.00016972
0.000114302
-7.32426e-05
0.000122876
9.41283e-05
-7.62704e-05
9.27362e-05
3.8622e-05
9.35996e-05
-2.24088e-05
-8.8129e-05
4.66816e-05
-1.6638e-05
5.80854e-05
3.85102e-05
-5.23519e-05
-2.10704e-05
-5.11007e-05
0.000181652
-9.7807e-05
0.000152671
3.52705e-05
-3.69075e-05
9.76654e-05
-4.80949e-05
0.000116765
5.4206e-05
3.52467e-05
1.49742e-05
5.91088e-05
-5.69638e-05
-0.00031822
3.11694e-05
0.000344015
0.000302332
-7.03037e-05
-0.000260095
2.80658e-05
0.000126445
0.000177302
-0.000109887
-0.00019386
0.000125041
0.0010557
-0.000336567
-0.000808142
-7.48031e-05
0.000346456
3.06798e-05
-0.000174644
0.000230786
0.00110882
0.000250236
-0.000178515
0.000102384
2.80362e-05
3.23217e-05
6.07658e-05
-4.40689e-05
1.46121e-05
0.000330396
-0.000100447
-0.000125424
5.12269e-05
0.000472439
-1.31824e-05
-7.30771e-05
-4.73551e-05
3.51148e-05
0.000104977
-0.000260779
-7.38218e-05
-0.000132615
-4.70922e-05
0.000151254
6.13841e-05
0.000460626
-0.000367699
-0.000154311
-5.35362e-05
0.000204419
0.000679014
-0.00028045
-1.63468e-05
0.000255679
4.11174e-05
-0.000180684
0.000391163
-0.000417458
-0.00022619
0.000462964
-0.000108961
0.000115619
-4.04976e-05
-0.000172929
-0.000153145
-0.000399029
-0.000136538
0.000451452
-0.000821988
0.000934352
0.000222062
0.0001266
3.54655e-05
-0.000151837
0.000254628
-0.000249674
5.64295e-05
0.00022485
-7.23672e-05
-0.000167442
1.49594e-05
0.000279801
-0.000123818
-2.32172e-05
6.58383e-06
-0.00104637
0.000999466
0.000255215
2.15078e-05
0.000183904
9.82609e-05
-2.68126e-05
4.81158e-05
-4.37119e-05
0.000708307
0.00070126
0.00019829
2.81496e-05
-0.0009277
-6.68495e-06
0.000133663
0.000318688
1.8939e-05
-4.67305e-05
1.37963e-05
7.96158e-05
-2.2857e-05
0.000494374
-0.00046518
-6.33626e-06
-0.000840711
0.000698763
6.03883e-05
-9.88075e-05
4.50865e-06
2.32275e-05
1.0774e-05
-5.02728e-05
-1.30957e-05
4.50328e-05
-7.54842e-05
5.68014e-05
1.6318e-05
0.000383987
-1.8995e-05
-2.12751e-05
7.49081e-05
0.00105296
2.88876e-05
1.26145e-05
6.09248e-05
-4.44912e-05
-0.000116004
-0.000210625
0.000226915
-6.07804e-05
-0.000884783
0.000570306
-0.000672292
-2.6634e-05
-0.000699382
-0.000445326
-0.000630407
0.000898516
-9.39509e-05
5.52145e-05
0.00012978
-0.000208811
3.71333e-06
-0.000187776
2.47988e-05
-0.000897574
0.0004687
-3.27835e-05
-0.000956129
0.0006667
-0.000595353
2.86251e-05
-4.49892e-05
0.000692866
-0.000676502
0.000229381
0.00030086
3.29363e-05
-0.000373997
4.02008e-05
-8.8103e-05
0.000128383
3.84518e-05
4.38107e-05
-5.00169e-05
6.58408e-06
-0.000194338
8.17976e-05
1.57853e-05
0.000149505
0.000400126
-0.000587137
1.6366e-06
0.00041352
5.49442e-05
-9.03807e-05
-0.000558657
-0.000672447
0.00122241
0.000102875
-9.31097e-05
0.000524635
0.000103661
0.000575028
-0.000538584
-0.000140104
-0.000113699
0.000166124
-0.000984918
-4.43423e-05
3.01473e-05
0.00053883
-0.000495323
0.000131309
-0.000162323
0.000169043
-0.000138029
0.0014767
-0.00095707
0.000380167
-0.000899792
0.000438956
7.5165e-05
-0.000425289
-6.98513e-05
0.000763955
-0.000559938
-0.000353988
0.00014997
0.000228277
-0.000174794
-0.000191861
0.000615855
-0.000333096
-0.000367895
-5.43512e-05
-0.000196634
0.000225159
0.000128952
-0.000157477
-0.00121175
-5.05749e-06
0.000146385
0.000811861
9.0597e-05
0.000206491
-0.00110895
0.000169444
3.82392e-05
0.000105332
1.05549e-05
3.9222e-05
0.000450323
-0.000893395
0.000566127
-0.000140728
-0.000252423
0.000135337
0.000257814
-0.000318711
0.000645586
-0.000651964
0.000643625
-0.000435544
0.000493286
5.42389e-05
0.0011389
-0.00113937
-0.00011876
-0.000218357
0.000931239
-0.00092199
-0.00031012
0.000534234
-0.000441101
0.00096169
-0.000994538
0.000911866
-0.000893108
-0.000359922
-8.20621e-05
1.40929e-05
-0.000187474
0.000106759
0.000153872
-5.30061e-06
0.000184826
4.5325e-05
-1.27746e-05
0.000112354
-0.000103115
0.000112428
0.000143359
-0.00020719
-0.000357487
0.000198095
-0.000102874
-0.000716752
-0.000131199
0.00067182
-0.000783966
-0.000438076
-0.000512155
0.000811926
0.00076235
-6.9688e-05
-0.000164323
1.5136e-05
-0.000877195
2.65185e-05
-9.73651e-05
9.34305e-05
-0.000870569
1.20941e-05
1.28349e-05
0.000815315
-0.000840244
-5.004e-05
5.18817e-05
0.000634803
-0.000686685
-0.00022297
5.54894e-05
-0.000163137
0.000580529
-0.000234475
-0.000135202
-7.51321e-05
-0.000567084
-0.000233026
0.000411346
-0.000407411
-6.79179e-05
0.000807275
-0.000761021
-0.00071309
-0.00083177
0.00095805
0.000586811
4.89419e-05
-3.46909e-05
0.000916988
0.000143771
0.000212477
0.000929162
-0.000990978
0.000697465
-9.50861e-05
-0.0010475
0.00109081
5.17705e-05
-0.0011331
-5.75698e-06
7.0604e-05
-6.39369e-05
-0.000545499
-0.000245487
0.000564795
4.5453e-05
-0.000471687
-0.00016348
0.000498629
-0.000366207
-2.22655e-05
-0.00103496
-0.000477148
0.000460895
0.000139791
-3.60475e-05
-4.56696e-05
9.63292e-05
-0.000518778
-0.00023391
-5.53857e-05
-0.000604437
-3.35171e-05
0.000637955
2.15718e-06
-4.09032e-07
-7.02801e-06
0.000275602
-0.00127026
-5.32487e-05
0.0010479
-0.000445908
1.14071e-05
-1.20933e-05
-5.3567e-06
0.000499604
-0.000482154
-4.53983e-05
3.94034e-05
-0.000941226
-7.66122e-05
3.58267e-05
-8.46386e-05
-4.71121e-05
-1.76992e-05
2.82472e-05
0.000583517
-0.000288583
0.000119268
0.000259132
0.000343014
0.000166562
-0.00014357
5.63156e-05
0.000148129
-0.000435798
-6.18792e-05
0.000102254
-0.000164968
8.7218e-05
-0.000101585
0.000137984
3.19204e-05
0.000113902
-2.57618e-06
-8.87756e-06
3.97631e-05
-3.84314e-05
-0.000157463
0.000219095
-6.2687e-05
1.05416e-06
0.000852917
-0.000770593
0.000547223
3.86859e-05
0.000184683
-3.1294e-05
0.000192816
-3.00143e-05
2.91597e-05
-1.33369e-05
8.0215e-06
-6.61828e-05
1.76637e-05
1.10027e-05
-2.71598e-05
1.61571e-05
-6.29991e-05
1.1054e-05
-5.43643e-05
3.42656e-05
2.00987e-05
-6.21507e-05
5.57723e-05
6.37834e-06
-4.53228e-05
-0.000267297
-4.99012e-05
4.45115e-05
5.38974e-06
1.21612e-05
-0.00109829
0.00116364
-0.000480757
-0.00150138
-1.20186e-05
2.30213e-05
-6.84846e-05
0.000226214
0.000116179
-4.1534e-05
-7.68391e-05
2.24748e-05
-7.82169e-06
0.000692067
-0.00067427
-0.000263284
2.22469e-05
5.87115e-06
4.58221e-06
-0.000288595
-0.000221573
-0.000198555
0.0002576
0.000147469
5.26399e-05
-7.28675e-05
4.38291e-06
-0.000218949
0.000179556
-8.4311e-06
-0.000423831
4.89334e-05
0.000434427
3.54599e-06
-3.62211e-05
0.000683326
-9.248e-05
-4.792e-05
8.79943e-05
0.000657391
0.00102691
-0.000764288
0.000691408
7.08037e-05
0.000435356
-0.000332468
-4.62736e-06
-1.12102e-05
-9.03238e-05
0.000114418
0.00011171
-0.000166801
-5.93268e-05
-0.000110054
-8.55858e-05
-0.000436638
3.03655e-05
-0.000625158
-0.000173061
0.000126386
0.000671832
0.000874038
-3.56824e-05
3.33607e-05
1.0821e-05
-4.38981e-05
2.78755e-05
6.97597e-05
-5.55943e-06
0.000196437
-0.000365607
-0.00025864
-0.000103234
1.05332e-05
0.000208881
-0.000241152
0.000305521
-3.73142e-05
-0.000107936
7.90672e-05
5.06872e-06
-0.000357506
-0.000593702
0.000533161
0.000863311
-3.77867e-05
-0.000246043
-1.43097e-05
-0.000668528
0.000431938
-2.53572e-05
-0.000294969
0.000266604
-0.00023298
0.000329737
-0.000171629
0.000289354
-0.000170488
5.27627e-05
4.97951e-06
-2.68921e-05
2.75467e-05
-0.000141286
0.000119287
2.19996e-05
4.98626e-05
-5.64811e-05
6.61854e-06
-1.63675e-06
-8.14181e-05
6.99282e-05
-8.98738e-05
0.000625454
0.000228375
-3.34517e-05
6.13537e-05
0.000106731
-8.90441e-05
-0.000242196
0.000304814
8.85262e-07
-0.00108729
-6.2039e-05
0.000158354
0.0011999
-0.00114561
3.56101e-05
-2.1683e-05
4.20914e-05
0.00010539
-7.34397e-05
0.000117474
0.000413902
-8.9829e-07
-7.69069e-06
0.000430739
-0.00027506
-0.000383061
-3.10092e-06
-0.000769326
-0.000458244
-0.000256877
-0.000137366
5.54288e-05
-0.000320236
7.00955e-05
-2.28862e-05
-1.70732e-05
-3.0136e-05
2.18396e-05
0.000121376
0.000135432
9.34289e-05
-0.000169554
-0.000323188
0.000120232
0.000486367
-3.75641e-05
1.04044e-05
-1.992e-05
-0.00100972
-7.32948e-06
-9.44778e-06
-2.69948e-05
-3.35823e-05
-9.26033e-06
-0.000168767
-7.84635e-05
0.000225956
-8.94297e-05
0.000277919
-0.000324916
5.8811e-05
-5.56982e-05
-1.48335e-05
3.43436e-05
-9.61223e-05
-0.000105357
0.000551015
-1.80045e-06
3.27573e-05
-0.000190776
-0.000226531
-0.000768273
0.000974819
-0.0007165
0.000370616
-0.000485886
7.42435e-05
0.000825059
-0.000166133
0.000194878
7.91224e-05
5.87601e-05
-4.95487e-05
1.22821e-05
0.000112879
-1.94296e-05
2.24964e-06
6.54685e-05
-6.52644e-06
-0.000134426
0.000716964
-0.000211365
-0.000697461
0.000231304
0.000120514
0.000141088
2.21605e-05
2.77021e-05
-0.000112959
0.00116571
-1.40624e-05
-8.98701e-05
-0.000596803
-1.39048e-05
-0.000922395
0.000562054
-1.62046e-05
0.000155198
-1.59883e-05
0.000176586
-6.02948e-05
-7.90329e-05
0.000193074
2.66201e-05
1.39719e-05
3.52186e-05
0.000533478
7.25595e-05
-0.000215672
0.000334656
0.000105114
-9.66197e-05
-9.6726e-05
-0.000264101
6.86378e-05
6.49847e-05
5.53897e-05
4.31021e-06
-3.6522e-05
0.0004049
-0.000491491
-1.87651e-05
-0.000687207
-0.000520561
0.000439496
-4.35511e-05
7.64326e-05
0.000101646
-4.50395e-05
-1.71771e-05
7.88414e-05
-0.000241035
0.000151801
-7.44926e-05
0.000250287
-3.92422e-07
0.000128669
-8.27668e-05
7.54948e-05
-0.00012541
6.94733e-06
1.00325e-05
0.000797908
-0.000463139
-0.000162656
0.000435845
-0.000185289
4.87932e-05
-0.000152752
8.2454e-05
0.000442258
-0.00117337
-0.00027861
-0.000156266
0.000303492
-0.000353232
-0.000122377
-0.00054281
0.000459278
-0.000156347
-4.87317e-05
3.38559e-05
-0.000497726
-0.000505233
-0.00120134
-5.88394e-05
2.67784e-05
-0.000103412
-3.53679e-05
5.86998e-05
2.03682e-05
-4.37e-05
0.000167773
-0.000146535
-2.24961e-05
0.00022737
-0.000250007
-0.000156355
0.000461583
-0.000368699
0.000154436
-7.80705e-05
-0.000469523
0.000958629
-0.000957649
2.64167e-05
0.000382239
-0.000243931
-1.19242e-05
-1.87796e-05
-3.46069e-05
-1.75362e-05
5.09986e-06
1.02608e-05
-0.000125334
-0.0014284
-0.000748724
-0.000373266
0.000306317
8.57498e-05
-2.67038e-05
1.56633e-05
-0.000121797
-3.04993e-05
-4.05061e-06
-3.00823e-07
-0.000209766
6.72684e-05
-2.01114e-05
-9.01927e-05
-0.00049356
0.000504317
-0.000446982
0.000499995
4.3213e-06
-0.000453986
0.000392906
6.10803e-05
-0.00039239
-5.45927e-05
5.16432e-07
-0.00067399
0.000673536
-0.000542044
0.000556646
-1.46017e-05
-0.000498417
-0.000626061
-4.79287e-05
0.000645725
0.000618105
2.76199e-05
-0.000555578
-0.000421101
0.000486015
-0.00044025
-4.5765e-05
-0.000326582
-9.45182e-05
-0.000235701
-9.0881e-05
0.000176128
-0.000132181
-5.95735e-05
0.000603757
1.43482e-05
0.000619313
-1.55559e-05
0.000635989
2.3751e-06
0.000498169
-0.000372382
6.9991e-05
-2.31322e-07
-7.67156e-05
-0.000145109
8.37958e-05
-0.000233582
0.000143465
-0.000118025
-6.91441e-05
-7.49616e-05
-0.000227687
-0.000683756
0.000212818
-2.2369e-05
7.10204e-05
0.00045142
-0.000581636
0.000172644
-0.000216166
0.000133968
0.000136711
9.93352e-05
1.99513e-05
-0.00083239
-3.91256e-05
-6.2681e-05
0.000120299
-7.55368e-05
9.61374e-05
-0.000758352
-0.000188906
-0.00148387
0.000536632
0.000273128
-0.000215
-2.94891e-05
0.000626729
-0.000134427
0.000190845
-5.1577e-05
8.35732e-05
0.00105412
-0.00125647
7.53949e-05
4.09206e-07
-7.58041e-05
0.00126272
3.31363e-05
4.98144e-05
0.000221159
-0.000132092
1.34994e-05
2.43155e-05
0.000219999
0.000772975
-0.000791232
-0.000193108
-0.000283128
6.99383e-06
-0.000365259
0.000199907
0.000683197
0.000811276
-0.000818213
0.000153788
-5.46689e-05
0.000120457
-9.53572e-05
0.000270776
-0.000159602
0.000168323
-0.000520162
-0.000756826
-0.000210141
-6.70174e-05
0.000171681
-7.34123e-05
0.00012267
-0.000220938
0.000226722
0.000213665
-0.000208052
8.9597e-05
-7.67088e-05
-8.40742e-05
-0.000172715
0.000481057
0.000129187
3.2393e-05
-1.33529e-05
-1.30609e-05
3.39487e-05
0.000163021
0.000292419
-0.00041589
-7.31667e-06
-0.000120548
0.000672674
0.000579876
-0.000206723
-0.000100592
-0.000515033
-0.000583365
0.000570182
-0.000164361
8.09495e-06
-0.000688034
0.000507847
-0.000145532
-0.000328995
0.000190917
4.31114e-06
0.000115712
0.000348072
-0.000503692
-6.69425e-05
0.000201607
2.0773e-05
-0.000247054
0.000256129
-0.00056996
4.22332e-05
-4.23912e-05
6.59659e-07
0.00038783
0.000116716
0.000406742
0.000426128
-0.000131076
0.000129838
0.000428263
-0.000465821
-7.73881e-05
1.65663e-05
-3.43931e-06
-8.44423e-06
-5.67936e-05
-5.53363e-05
1.27964e-06
-0.000480116
-0.00133613
0.00110295
0.000270018
-0.000169856
0.000697746
0.000195581
6.69335e-05
5.08402e-05
5.44908e-05
-0.000176617
0.000247827
-3.29566e-05
1.12299e-05
3.56986e-05
0.000165748
-0.00023224
5.37182e-05
5.49276e-05
-6.03836e-05
0.000117884
0.000754214
0.000501369
-0.000396186
-3.62437e-05
0.000226265
-0.000165482
-0.000324884
-0.000206418
0.000306377
-0.000238654
7.94841e-05
-9.25792e-05
6.23802e-05
0.000255493
-0.000315787
-2.08553e-06
-5.05667e-05
-4.71988e-05
2.01321e-05
1.91958e-05
-3.71704e-05
0.000106868