# vtk DataFile Version 2.0
track0
ASCII
DATASET POLYDATA
POINTS 204 double
2.01419e-18 0.210526 1e-06
0.000869224 0.212011 1e-06
0 0.213228 1e-06
4.34675e-19 0.631579 1e-06
0.00177781 0.631334 1e-06
0.00340751 0.630583 1e-06
0.00504497 0.629849 1e-06
0.00678225 0.629399 1e-06
0.0089002 0.629265 1e-06
0.0107953 0.629442 1e-06
0.0118631 0.631017 1e-06
0.0130151 0.632533 1e-06
0.0141787 0.634039 1e-06
0.0158094 0.636136 1e-06
0.0163161 0.636786 1e-06
0.0168071 0.637448 1e-06
0.0172835 0.638121 1e-06
0.0177352 0.63881 1e-06
0.018339 0.639794 1e-06
0.0190372 0.641013 1e-06
0.0196815 0.64226 1e-06
0.0202804 0.643531 1e-06
0.0208411 0.644818 1e-06
0.0212758 0.645888 1e-06
0.0220627 0.647928 1e-06
0.0226253 0.65004 1e-06
0.023004 0.652193 1e-06
0.0232301 0.654367 1e-06
0.0233027 0.656012 1e-06
0.0233168 0.658096 1e-06
0.0233264 0.66018 1e-06
0.0233319 0.662263 1e-06
0.0232868 0.664346 1e-06
0.0231753 0.666412 1e-06
0.0229932 0.668545 1e-06
0.0230125 0.670687 1e-06
0.0232189 0.672818 1e-06
0.0235952 0.674926 1e-06
0.0243253 0.677774 1e-06
0.0247306 0.678915 1e-06
0.025145 0.680054 1e-06
0.0255673 0.68119 1e-06
0.0259968 0.682323 1e-06
0.0264321 0.683398 1e-06
0.0271515 0.68508 1e-06
0.0277059 0.686824 1e-06
0.0281064 0.688609 1e-06
0.0284832 0.690399 1e-06
0.028812 0.691999 1e-06
0.0291953 0.693902 1e-06
0.0294937 0.695821 1e-06
0.0295998 0.69776 1e-06
0.0293904 0.69969 1e-06
0.0287847 0.70162 1e-06
0.0286669 0.701822 1e-06
0.0285455 0.702021 1e-06
0.0284203 0.702218 1e-06
0.0282915 0.702413 1e-06
0.028186 0.702565 1e-06
0.0268887 0.704385 1e-06
0.0253875 0.70604 1e-06
0.023706 0.707512 1e-06
0.0218762 0.708795 1e-06
0.0193381 0.710206 1e-06
0.0186273 0.71044 1e-06
0.0179183 0.710678 1e-06
0.017211 0.710922 1e-06
0.0165056 0.711171 1e-06
0.015912 0.711386 1e-06
0.0146201 0.711864 1e-06
0.013356 0.712412 1e-06
0.0121322 0.713044 1e-06
0.0109688 0.713782 1e-06
0.00941638 0.715096 1e-06
0.0087562 0.716008 1e-06
0.00825669 0.717016 1e-06
0.00793286 0.718094 1e-06
0.00777134 0.719208 1e-06
0.00770452 0.720037 1e-06
0.0075606 0.721823 1e-06
0.0075481 0.723615 1e-06
0.00768613 0.725402 1e-06
0.00798215 0.727169 1e-06
0.00853918 0.729345 1e-06
0.00855302 0.729385 1e-06
0.00856692 0.729424 1e-06
0.00858088 0.729464 1e-06
0.0085949 0.729503 1e-06
0.00860848 0.729542 1e-06
0.00926619 0.73138 1e-06
0.0101603 0.733115 1e-06
0.0112942 0.734704 1e-06
0.0126283 0.736129 1e-06
0.0166032 0.73957 1e-06
0.0167903 0.739683 1e-06
0.0169776 0.739795 1e-06
0.017165 0.739907 1e-06
0.0173526 0.740019 1e-06
0.0175401 0.740131 1e-06
0.0177724 0.740268 1e-06
0.0180038 0.740407 1e-06
0.018234 0.740548 1e-06
0.018463 0.740691 1e-06
0.0187581 0.740879 1e-06
0.0205965 0.742077 1e-06
0.022371 0.743368 1e-06
0.0240814 0.744742 1e-06
0.0257289 0.746192 1e-06
0.0274589 0.747846 1e-06
0.0278134 0.748199 1e-06
0.0281663 0.748553 1e-06
0.0285155 0.748912 1e-06
0.0288591 0.749275 1e-06
0.029161 0.749604 1e-06
0.0311277 0.751806 1e-06
0.0329516 0.754128 1e-06
0.0346344 0.756554 1e-06
0.0361795 0.75907 1e-06
0.0377498 0.761951 1e-06
0.0379379 0.762356 1e-06
0.0381237 0.762762 1e-06
0.0383078 0.763169 1e-06
0.0384914 0.763576 1e-06
0.0386855 0.764008 1e-06
0.0396358 0.766131 1e-06
0.0406188 0.768239 1e-06
0.0416383 0.77033 1e-06
0.0426978 0.772401 1e-06
0.0439585 0.774755 1e-06
0.0448303 0.776305 1e-06
0.0457525 0.777825 1e-06
0.0467299 0.779311 1e-06
0.0477627 0.780758 1e-06
0.0487015 0.781992 1e-06
0.0505611 0.784313 1e-06
0.0525425 0.786531 1e-06
0.0546356 0.788643 1e-06
0.0568302 0.790651 1e-06
0.0584805 0.792002 1e-06
0.0595002 0.792763 1e-06
0.0605343 0.793505 1e-06
0.0615805 0.794229 1e-06
0.062629 0.79495 1e-06
0.0638968 0.795816 1e-06
0.0660262 0.797259 1e-06
0.068185 0.798657 1e-06
0.0703715 0.800011 1e-06
0.0725842 0.801323 1e-06
0.0743554 0.802327 1e-06
0.0760442 0.803252 1e-06
0.0777519 0.804142 1e-06
0.0794771 0.804997 1e-06
0.0812183 0.805819 1e-06
0.0837423 0.806955 1e-06
0.0850028 0.807486 1e-06
0.0862771 0.807982 1e-06
0.087563 0.808448 1e-06
0.0888592 0.808884 1e-06
0.0899146 0.809215 1e-06
0.0929241 0.810107 1e-06
0.0959767 0.810837 1e-06
0.0990661 0.811393 1e-06
0.102185 0.811742 1e-06
0.104399 0.811853 1e-06
0.107123 0.81188 1e-06
0.109848 0.811874 1e-06
0.112572 0.811835 1e-06
0.115289 0.811645 1e-06
0.117826 0.811306 1e-06
0.120344 0.810816 1e-06
0.122879 0.810433 1e-06
0.125419 0.810078 1e-06
0.12795 0.809665 1e-06
0.130485 0.809179 1e-06
0.131992 0.808836 1e-06
0.133518 0.808593 1e-06
0.135059 0.808485 1e-06
0.136603 0.808545 1e-06
0.143473 0.80973 1e-06
0.144884 0.811482 1e-06
0.146131 0.813354 1e-06
0.147236 0.815313 1e-06
0.148219 0.817336 1e-06
0.148712 0.8185 1e-06
0.149826 0.821319 1e-06
0.151058 0.824088 1e-06
0.152403 0.826804 1e-06
0.15385 0.829467 1e-06
0.156639 0.834188 1e-06
0.156688 0.834263 1e-06
0.156737 0.834338 1e-06
0.156787 0.834412 1e-06
0.156837 0.834487 1e-06
0.156888 0.834562 1e-06
0.157047 0.834802 1e-06
0.157207 0.835041 1e-06
0.157367 0.83528 1e-06
0.157527 0.83552 1e-06
0.15768 0.835748 1e-06
0.159592 0.838599 1e-06
0.161505 0.841449 1e-06
0.163419 0.844298 1e-06
0.165332 0.847148 1e-06
0.167249 0.85 1e-06
LINES 2 206
3 0 1 2
201 3 4 5 6 7 8 9 10 11 12 13 14 15 16 17 18 19 20 21 22 23 24 25 26 27 28 29 30 31 32 33 34 35 36 37 38 39 40 41 42 43 44 45 46 47 48 49 50 51 52 53 54 55 56 57 58 59 60 61 62 63 64 65 66 67 68 69 70 71 72 73 74 75 76 77 78 79 80 81 82 83 84 85 86 87 88 89 90 91 92 93 94 95 96 97 98 99 100 101 102 103 104 105 106 107 108 109 110 111 112 113 114 115 116 117 118 119 120 121 122 123 124 125 126 127 128 129 130 131 132 133 134 135 136 137 138 139 140 141 142 143 144 145 146 147 148 149 150 151 152 153 154 155 156 157 158 159 160 161 162 163 164 165 166 167 168 169 170 171 172 173 174 175 176 177 178 179 180 181 182 183 184 185 186 187 188 189 190 191 192 193 194 195 196 197 198 199 200 201 202 203
POINT_DATA 204
 FIELD attributes 1
U 3 204 float
5.95858e-12 	1.01742e-11 	-3.69903e-33 -1269.34 	1777.96 	-1.9513e-19 0 	0 	0
2.80304e-13 	-3.85518e-14 	0 738.63 	-340.508 	-1.62276e-20 1349.62 	-605.183 	-2.19853e-20 1178.93 	-305.189 	8.08359e-20 1113.86 	-70.5872 	1.73866e-19 1180.18 	110.116 	2.67082e-19 927.392 	1368.54 	1.15613e-19 1301.43 	1711.76 	-4.35821e-20 1834.89 	2375.22 	-1.90843e-19 3056.67 	3930.33 	-2.84162e-19 4758.99 	6107.36 	-4.14801e-19 4698.47 	6335.83 	-4.27885e-19 4632.08 	6540.43 	-4.39843e-19 4966.93 	7581.93 	-4.12893e-19 5375.55 	8759.14 	-3.76886e-19 5934.09 	10356.7 	-3.25029e-19 5798.24 	11229.6 	-2.64939e-19 5696.66 	12081 	-2.02538e-19 5624.55 	12914.1 	-1.38268e-19 5576.96 	13731.1 	-7.25103e-20 5553.4 	14391 	-1.75076e-20 4289.01 	16104.3 	1.00931e-19 3118.63 	17728.3 	2.27051e-19 2003.47 	19264.5 	2.80646e-19 913.992 	20717.3 	2.07647e-19 147.053 	21757.7 	1.6252e-19 102.253 	22304.8 	1.93777e-19 61.2681 	22848.1 	2.25539e-19 -500.085 	23087.7 	1.88776e-19 -1251.38 	23169.6 	1.28156e-19 -1979.04 	23195.6 	7.17957e-20 212.265 	23586.4 	1.56066e-19 2337.49 	24138.6 	2.28263e-19 4306.49 	24126.9 	4.11706e-19 6169.04 	24056.7 	6.16353e-19 8618.94 	24283.5 	8.53835e-19 9241.9 	25393.8 	8.26364e-19 9860.36 	26512.6 	7.97808e-19 10475.5 	27639.2 	7.6805e-19 12230 	30201.3 	4.25546e-19 14059.2 	32878 	5.04093e-20 10748.3 	33799.4 	1.49153e-19 7786.56 	34713.8 	2.41051e-19 7540.08 	35824.6 	3.52704e-19 7597.3 	36955 	4.66064e-19 7642.56 	37960.1 	5.66591e-19 5736.79 	36888.1 	5.57556e-19 1925.86 	35180.8 	5.17489e-19 -3568.06 	32888.2 	4.41874e-19 -9535.32 	30382.1 	3.37225e-19 -16126.7 	27593.8 	1.95103e-19 -16564.6 	27175.9 	1.54474e-19 -17004.8 	26758.8 	1.13671e-19 -17448.4 	26343 	7.28938e-20 -17895.4 	25928.6 	3.21567e-20 -18252.3 	25599.7 	-4.07174e-22 -20449.6 	22550.7 	-5.08754e-20 -22549.9 	19738.4 	-5.60625e-20 -24529.7 	17194.8 	-1.70327e-20 -26501.1 	14734.2 	2.88601e-20 -30161.5 	9910.15 	-2.0575e-19 -29542.4 	9937.04 	-1.77038e-20 -28921 	9966.6 	1.70884e-19 -28300 	9996.35 	3.5998e-19 -27679.6 	10026.3 	5.49595e-19 -27153.7 	10054.2 	7.10118e-19 -24577.2 	10643.5 	8.63831e-19 -21851.5 	11291.9 	1.00042e-18 -18949.5 	12014.8 	1.11625e-18 -16519.1 	13984.3 	1.1583e-18 -13194.4 	18220.7 	1.10832e-18 -9629.43 	19445.2 	7.83528e-19 -6298.74 	20968.4 	4.78183e-19 -3298.9 	22751.4 	2.01453e-19 -1899.05 	23549.5 	7.24608e-20 -1880.97 	23345.1 	7.13545e-20 -148.977 	21346.4 	-5.27578e-19 1526.98 	19763.6 	-1.11715e-18 3127.47 	18672.7 	-1.69169e-18 4635.96 	18109.9 	-2.24593e-18 6324.73 	18108.3 	-2.88404e-18 6344.76 	18081.9 	-2.87908e-18 6366.9 	18056.4 	-2.87385e-18 6389.09 	18031.1 	-2.86865e-18 6411.3 	18006 	-2.86348e-18 6434.86 	17982.7 	-2.85822e-18 8304.44 	16116.8 	-2.40315e-18 10546.5 	14780.9 	-2.00644e-18 13150.1 	14047.9 	-1.68113e-18 16039.5 	13884.3 	-1.42761e-18 24332.4 	14663.3 	-9.06424e-19 24669.4 	14815.3 	-8.84833e-19 25005.8 	14968.3 	-8.63183e-19 25342.5 	15121.9 	-8.41675e-19 25679 	15275 	-8.19475e-19 25982.8 	15379.2 	-7.50274e-19 25937.1 	15563.9 	-9.33792e-19 25980.3 	15909.2 	-9.05892e-19 26020.5 	16249.1 	-8.77881e-19 26058 	16583.5 	-8.49765e-19 26102.4 	17009.6 	-8.13378e-19 25576.4 	18606 	-5.55107e-19 25075.9 	20151.5 	-2.98194e-19 24602.7 	21646.6 	-4.314e-20 24155.9 	23092 	2.0966e-19 25081.7 	24974.8 	4.98412e-19 24213.1 	24338.1 	-7.80916e-19 23656.2 	24278 	-1.10706e-18 23375.6 	24728.2 	-5.87495e-19 23095.8 	25179.1 	-5.84887e-20 22845.6 	25580.1 	4.20558e-19 21427 	27272.4 	1.69968e-19 20049.5 	28903.5 	-8.95319e-20 18715.3 	30472.7 	-3.56362e-19 17425.9 	31978.9 	-6.292e-19 15436.9 	33239.1 	-8.73888e-19 15250.7 	33318.9 	-9.73462e-19 15132.4 	33431.3 	-1.04082e-18 15162.2 	33621.5 	-1.03758e-18 15191.8 	33811.2 	-1.03439e-18 15222.8 	34010 	-1.03135e-18 15116.3 	32415.3 	-1.42748e-18 15014.2 	30790.9 	-1.83157e-18 15030.9 	29372.5 	-2.13622e-18 15932 	29762.1 	-1.61278e-18 16976.4 	30178 	-1.01887e-18 17060.7 	28122.7 	-4.76179e-19 17175.8 	26102.6 	5.41751e-20 17791.3 	24935.5 	5.46841e-19 19413.9 	25503.4 	9.77014e-19 20839.8 	26009.6 	1.34123e-18 22596 	25294.8 	1.59341e-18 24368.6 	24597.7 	1.79787e-18 26152.2 	23921.1 	1.95574e-18 28317.5 	23181.2 	2.37714e-18 30248.2 	22582.9 	2.95278e-18 30035.7 	21537 	2.93697e-18 29979 	20763.8 	2.8566e-18 30481.5 	20963.2 	2.55581e-18 30983.1 	21160.9 	2.25495e-18 31585.6 	21397.4 	1.89121e-18 32269.9 	20901.8 	1.25257e-18 32953.9 	20414.1 	6.14458e-19 33637.4 	19934.4 	-2.29713e-20 34320.2 	19462.7 	-6.59483e-19 34860 	19095.5 	-1.16239e-18 36045.1 	18776.6 	-1.33106e-18 37243.7 	18463.3 	-1.49139e-18 38453.6 	18157.1 	-1.64461e-18 39673.7 	17857.6 	-1.79101e-18 41442.3 	17435 	-1.99101e-18 42750 	16663.3 	-1.97564e-18 44038.3 	15934.5 	-1.96048e-18 45308.7 	15246.4 	-1.94532e-18 46561.9 	14596.2 	-1.93017e-18 47561.3 	14098.1 	-1.91814e-18 48809.6 	11684.6 	-1.37176e-18 50257.9 	9031.27 	-7.19917e-19 52167.9 	5843.89 	1.03705e-19 54027.4 	2708.93 	9.83275e-19 55300.5 	538.806 	1.63841e-18 54573.2 	-118.531 	1.94127e-18 53825.4 	-754.105 	2.24872e-18 54159.8 	-3803.46 	2.82256e-18 54654.9 	-7305.43 	3.48003e-18 55131.3 	-10715.7 	4.1458e-18 51212.7 	-7743.3 	4.15933e-18 47987.4 	-6710.71 	3.99403e-18 45361.4 	-7397.47 	3.68964e-18 42757.8 	-8195.92 	3.39337e-18 40164.7 	-9133 	3.10549e-18 37967.1 	-6057.47 	2.43077e-18 35483.6 	-2492.46 	2.15712e-18 32975.4 	1279.97 	1.84241e-18 30471.1 	5258.94 	1.46749e-18 19375.3 	24053.2 	-5.26967e-19 18822.6 	28243.3 	-3.8066e-18 18273.2 	32397.7 	-6.71386e-18 17728.9 	36499.5 	-9.29391e-18 17191.1 	40540.8 	-1.15928e-17 16893.9 	42773.7 	-1.27524e-17 18486.8 	41527.9 	-1.56194e-17 20031.8 	40470.8 	-1.87564e-17 21527.3 	39598.3 	-2.21461e-17 22974.1 	38900.3 	-2.57682e-17 25306.8 	38540.1 	-3.25072e-17 25397.6 	38408.3 	-3.27334e-17 25489.2 	38274.1 	-3.29655e-17 25580.5 	38140.4 	-3.31975e-17 25483.2 	38073.8 	-3.32399e-17 25321.5 	38026.3 	-3.32235e-17 24968.8 	37441.7 	-3.27895e-17 24615 	36856.5 	-3.23564e-17 24261.5 	36271.6 	-3.19239e-17 23908.3 	35686.9 	-3.14921e-17 23569.5 	35127.2 	-3.10802e-17 18862.7 	28101.1 	-2.48664e-17 14149.4 	21076.5 	-1.86512e-17 9436.26 	14052.2 	-1.24362e-17 4723.54 	7028.54 	-6.22167e-18 0 	0 	0
