/*--------------------------------*- C++ -*----------------------------------*\
| =========                 |                                                 |
| \\      /  F ield         | OpenFOAM: The Open Source CFD Toolbox           |
|  \\    /   O peration     | Version:  v1912                                 |
|   \\  /    A nd           | Website:  www.openfoam.com                      |
|    \\/     M anipulation  |                                                 |
\*---------------------------------------------------------------------------*/
FoamFile
{
    version     2.0;
    format      ascii;
    class       volScalarField;
    location    "0.54";
    object      nut;
}
// * * * * * * * * * * * * * * * * * * * * * * * * * * * * * * * * * * * * * //

dimensions      [0 2 -1 0 0 0 0];


internalField   nonuniform List<scalar> 
5794
(
0.000944629
0.000614116
0.00261853
0.00518382
0.0139229
0.000963756
0.00140833
0.00109047
0.00221553
0.00193281
0.00201884
0.00145179
0.00160505
0.00742677
0.00103701
0.000729426
0.00927581
0.00706587
0.000609665
0.000488665
0.00149757
0.00079455
0.00164245
0.00100051
0.00176972
0.00397637
0.0124167
0.00825571
0.00366046
0.000723298
0.00148633
0.0013487
0.00236036
0.00130259
0.00403712
0.00368531
0.000786261
0.00197338
0.00187525
0.0047173
0.0059379
0.00296756
0.00074734
0.000687841
0.000906417
0.00223044
0.00183524
0.00112332
0.00177085
0.000738097
0.00022247
0.00291894
0.000941868
0.00216912
0.00013777
0.00220358
0.00159629
0.00125448
0.000743571
0.00515131
0.00134658
0.000557278
0.00181094
0.00261164
0.00561664
0.00097764
0.00364895
0.000669602
0.00563454
0.000646236
0.00608172
0.0037744
0.0158718
0.00144897
0.00595415
0.00330156
0.000397167
0.00356166
0.000671341
0.000175071
0.00068622
0.000779844
0.00745657
0.00179634
0.00192133
0.000854441
0.00080725
0.00100398
0.00157041
0.00235279
0.00494692
0.00221821
0.00322162
0.00516712
0.0025852
0.0079691
0.00390669
0.00303782
0.00206536
0.0014509
0.00145258
0.000861682
0.000768216
0.00959427
0.00156234
0.0136328
0.000534016
0.00415973
0.00506192
0.000626238
0.000931798
0.00103405
0.0014056
0.00151512
0.00232023
0.00384659
0.00133026
0.00695286
0.00125105
0.00100858
0.00948742
0.000275252
0.000991504
0.00654165
0.00118715
0.00372181
0.00313159
0.000860352
0.00329899
0.00386103
0.00173418
0.00218916
0.00239906
0.0033906
0.0118785
0.00119696
0.00307946
0.000590542
0.001133
0.00152763
0.00154728
0.00710888
0.00129824
0.00770404
0.00146043
0.0133851
0.00212468
0.00158819
0.0135242
0.00327855
0.000728177
0.00187494
0.0132037
0.000895432
0.0141425
0.00178629
0.00167777
0.00149893
0.00209259
0.0018166
0.000445135
0.00118614
0.000542158
0.00139711
0.00191547
0.00183419
0.00124118
0.000824804
0.000660979
0.000377225
0.000376881
0.00192485
0.000998366
0.0010019
0.000489249
0.00122135
0.000317965
0.00136779
0.000477443
0.00187497
0.000733061
0.000933501
0.000670485
0.00147479
0.000855754
0.0040161
0.000810558
0.00108851
0.000807425
0.000617567
0.00164385
0.00101453
0.00165687
0.00105429
0.00109864
0.000986836
0.000977875
0.000507361
0.000529745
0.00101253
0.00106139
0.00206826
0.00116918
0.000775973
0.00172392
0.00194085
0.000814703
0.00582022
0.0124681
0.00187559
0.000578203
0.00085752
0.00479681
0.00408621
0.00184707
0.00327565
0.0039798
0.00305232
0.00352184
0.00544472
0.00085644
0.00233976
0.00812464
0.00358771
0.00248179
0.006297
0.000460264
0.00421137
0.00421755
0.00133939
0.00145207
0.00185371
0.00161808
0.00360357
0.00340623
0.009746
0.012583
0.00219817
0.00113971
0.00147283
0.00100722
0.00764315
0.00219013
0.00174624
0.00130754
0.00122591
0.000958474
0.0123211
0.00112207
0.000888863
0.000751644
0.00104744
0.0124684
0.00055317
0.000815155
0.018804
0.000920016
0.000931879
0.0037667
0.00108645
0.0027248
0.00450597
0.00372929
0.000502211
0.00118986
0.00105642
0.00493637
0.00377152
0.00082859
0.00279598
0.0023277
0.00150471
0.00560937
0.00492392
0.000868833
0.000919498
0.00213875
0.00150741
0.00281351
0.00158687
0.000722588
0.00320776
0.00450429
0.00291254
0.00323195
0.00502533
0.00268045
0.00304959
0.00518981
0.0092223
0.00275591
0.0029968
0.00202072
0.00178559
0.000772572
0.00325041
0.00228997
0.00265251
0.00222247
0.000673101
0.000452262
0.00100424
0.000569055
0.00298753
0.00060434
0.0031763
0.00292815
0.00450988
0.00243274
0.00212605
0.00155291
0.00274748
0.0021383
0.00132134
0.000783054
0.000907208
0.00513492
0.00967239
0.00453977
0.00386669
0.00144436
0.0015447
0.00561163
0.0144985
0.000666967
0.00223592
0.00142673
0.00126892
0.0013893
0.00185029
0.00177528
0.000823553
0.00100542
0.00145955
0.000944528
0.000937291
0.00079627
0.000501408
0.00065706
0.000895499
0.000405376
0.00119904
0.00229618
0.00103143
0.000382172
0.000590881
0.0016331
0.00106265
0.00213112
0.00192746
0.00190482
0.00229313
0.00142781
0.000882385
0.000814596
0.00275608
0.000468995
0.00184498
0.00118314
0.000997154
0.00582755
0.00294364
0.00311032
0.00347639
0.00175167
0.00799118
0.0017047
0.00149247
0.00130213
0.000718114
0.00260289
0.000450068
0.00940391
0.00135517
0.00664182
0.00296687
0.00159795
0.00124371
0.00157474
0.00147673
0.00499894
0.00286926
0.000750322
0.00300901
0.00364152
0.00107437
0.00610728
0.00453674
0.00334609
0.00132065
0.000768192
0.00171993
0.000600731
0.00125535
0.00090988
0.000912138
0.00056468
0.00086156
0.000661946
0.00230304
0.00122289
0.00203742
0.0124892
0.00057215
0.000578742
0.00275423
0.00068568
0.00121245
0.000705467
0.00403595
0.00323986
0.00219047
0.00439349
0.00116193
0.00169738
0.00150474
0.00108664
0.00565116
0.00191703
0.00344535
0.00192563
0.00280158
0.00536696
0.00238239
0.00127406
0.0012277
0.000558121
0.00163527
0.000574824
0.00102104
0.00291493
0.000784346
0.00628248
0.00211894
0.000795585
0.000943263
0.00128839
0.00123022
0.00195719
0.00226738
0.00073014
0.000805616
0.00111472
0.000932181
0.00208534
0.00438761
0.00246393
0.000546853
0.000888551
0.00264639
0.000809441
0.000551266
0.00205649
0.000892266
0.00469525
0.000443511
0.00448166
0.00770983
0.00352454
0.00697536
0.00093061
0.000589237
0.000640033
0.00166904
0.00156459
0.00389136
0.00945596
0.0141118
0.00524836
0.000766392
0.000143501
0.0129966
0.0044611
0.00731007
0.00309117
0.00307449
0.0152439
0.00968005
0.00134959
0.000611624
0.000706909
0.000917021
0.0022728
0.00608088
0.00544825
0.00342029
0.000860842
0.00181109
0.00292567
0.000853973
0.000739499
0.00487498
0.00451696
0.0132787
0.00070035
0.00138518
0.000648884
0.00200521
0.000393507
0.0025257
0.0174973
0.0159469
0.000727982
0.00232438
0.00749
0.000546737
0.00108114
0.00118519
0.00485125
0.00112548
0.0079777
0.00298289
0.00554805
0.000488177
0.000900268
0.00230532
0.00354251
0.000428251
0.000805578
0.0129441
0.00163296
0.000685965
0.0147789
0.00689289
0.00441797
0.000990384
0.000843341
0.0020954
0.000537137
0.000707209
0.000906477
0.000383892
0.00878276
0.00183098
0.00843502
0.00206446
0.000785574
0.00313422
0.00385541
0.00227755
0.000904953
0.00239727
0.000461681
0.00507449
0.00112412
0.000657233
0.000755805
0.00788491
0.00125154
0.000935169
0.00971552
0.00145449
0.000347428
0.000658995
0.000995949
0.00140384
0.000878764
0.000643973
0.000557171
0.00682001
0.0194054
0.000558145
0.0034644
0.00228085
0.00537197
0.00152468
0.000770939
0.00281645
0.000347182
0.00095355
0.00169031
0.00275374
0.0014297
0.00126549
0.00151671
0.000857312
0.01575
0.00282708
0.00305959
0.00352968
0.00458564
0.00281363
0.00781731
0.00684011
0.00317605
0.00145514
0.00161746
0.00426902
0.00273122
0.00482235
0.00113225
0.000970646
0.000647028
0.00505272
0.0028127
0.00314114
0.00141709
0.000831214
0.000671445
0.0023537
0.00114697
0.00183549
0.00285777
0.00528862
0.000554884
0.00273986
0.00356796
0.000845196
0.000161436
0.005253
0.0141419
0.0181974
0.00853761
0.000710587
0.000762342
0.000980531
0.00233072
0.00102936
0.00087366
0.00204863
0.000295704
0.00340432
0.00418663
0.00562518
0.000447518
0.00100299
0.00154704
0.0101945
0.00611264
0.0013341
0.00143559
0.000908229
0.000263141
0.00167435
0.000713441
0.00340235
0.00398884
0.000809604
0.00509797
0.00814
0.000759538
0.000873713
0.00397512
0.00286131
0.00296574
0.00508335
0.00262222
0.00101497
0.00289385
0.000780802
0.000389566
0.000678002
0.00245836
0.000676731
0.000603579
0.00311354
0.0146726
0.00312394
0.00208449
0.00209268
0.00291019
0.00138347
0.000882592
0.000838038
0.000627707
0.00308848
0.00543134
0.00524828
0.0026633
0.00274362
0.00218482
0.000839467
0.012035
0.00149178
0.00155538
0.0029947
0.0055944
0.00202409
0.00866727
0.0014984
0.000788352
0.00509448
0.00219933
0.000622285
0.00632697
0.00291116
0.00355672
0.0015562
0.00269575
0.000654039
0.00416619
0.00782281
0.00387296
0.00332567
0.00179504
0.00189736
0.0063844
0.000359147
0.000444174
0.000769666
0.000723536
0.00080148
0.000373897
0.00100176
0.00715782
0.00325783
0.00241226
0.00494928
0.00288061
0.00689953
0.00118966
0.00751408
0.00366326
0.00273068
0.00441056
0.000775445
0.000733198
0.0170196
0.00321441
0.00662774
0.00770622
0.0041892
0.00323775
0.00182407
0.0182875
0.000800617
0.00083437
0.000819204
0.00808275
0.000960466
0.00285618
0.00308066
0.00612199
0.00232807
0.00178085
0.00356419
0.00582819
0.00440045
0.00221509
0.00321305
0.00453826
0.000304145
0.000322
0.000539284
0.000439601
0.0046366
0.00286059
0.00456393
0.000751095
0.000803058
0.000612569
0.000606716
0.00124543
0.000480637
0.0027403
0.00489013
0.000756651
0.00565183
0.00273573
0.000712807
0.00153936
0.0174619
0.00466213
0.00314163
0.00564971
0.00567744
0.00297635
0.00341291
0.000734388
0.00391382
0.00259486
0.00455204
0.00838422
0.00303879
0.008666
0.000902073
0.000980413
0.00114917
0.00952501
0.00111803
0.00655996
0.0157943
0.000664997
0.000906299
0.000589454
0.00481076
0.00296452
0.00678018
0.00495124
0.00287225
0.00105384
0.00572443
0.00668058
0.00260363
0.000924864
0.00307501
0.000618439
0.00289768
0.00091357
0.00379005
0.000861876
0.00566904
0.0034593
0.00127088
0.000679556
0.00197047
0.00651517
0.00561208
0.0031841
0.00841634
0.00349848
0.00143482
0.000683032
0.00111827
0.00940104
0.00157789
0.00259759
0.00298087
0.00813685
0.000640855
0.000844536
0.00080054
0.00146128
0.0121785
0.00131479
0.000769169
0.0025819
0.00697913
0.00232962
0.00282891
0.00456841
0.00473465
0.000771423
0.00144392
0.00968603
0.0065925
0.00237855
0.0180901
0.000400402
0.000258607
0.000445018
0.000715394
0.00452296
0.00145891
0.00087545
0.00100365
0.00151525
0.000708007
0.000839411
0.0182506
0.00290583
0.00550363
0.00150662
0.00243248
0.003651
0.00306317
0.0123805
0.00356532
0.000815318
0.000807549
0.000754532
0.00654694
0.000799528
0.00766573
0.00741603
0.00388387
0.00448439
0.00387123
0.00110957
0.00992415
0.00128338
0.00077323
0.00322114
0.00127602
0.00429784
0.00286069
0.0024952
0.00335301
0.000837905
0.000753308
0.000614697
0.00483308
0.00381576
0.000912135
0.000871816
0.00202633
0.00113073
0.00397964
0.000576
0.000799417
0.00280246
0.0054349
0.00313677
0.00571122
0.00375596
0.00586286
0.0130547
0.000912315
0.000852598
0.00714254
0.00113979
0.00325921
0.000718484
0.00158181
0.00217229
0.000466747
0.000790371
0.00130318
0.00542297
0.00276344
0.00611367
0.000843766
0.00294369
0.00552626
0.0139424
0.00212005
0.00307963
0.000784976
0.0011644
0.0131975
0.00108174
0.00359146
0.000838875
0.00128686
0.00105017
0.00147329
0.000273767
0.00187889
0.00123025
0.000558628
0.000533025
0.00058415
0.000339449
0.00025132
0.000663709
0.00877299
0.0135015
0.00318854
0.00191679
0.00268992
0.00521802
0.000772645
0.000694324
0.00113253
0.0114379
0.000941781
0.0179057
0.00630616
0.00237995
0.000785874
0.00940591
0.00176281
0.000628543
0.000902233
0.0188747
0.00542424
0.000834279
0.000685218
0.000878761
0.00340302
0.0019226
0.0126875
0.000729475
0.000591479
0.000520561
0.000670783
0.000580768
0.00184176
0.000839447
0.00107355
0.00071639
0.000892675
0.000789567
0.00950238
0.000782668
0.00326286
0.00126777
0.00174241
0.000831655
0.00117468
0.00179326
0.00137062
0.000917463
0.000928557
0.000757288
0.00448158
0.000753369
0.00124262
0.00473687
0.000843475
0.000833747
0.00210498
0.000814218
0.000830319
0.00219045
0.000777259
0.0179493
0.00209008
0.000654826
0.000825614
0.000875282
0.00665952
0.00102772
0.00281385
0.0025796
0.00510277
0.00100498
0.000682105
0.00125878
0.000590561
0.000842772
0.0012617
0.00180437
0.00163017
0.00142244
0.00018095
0.00163586
0.00136755
0.00109146
0.00106525
0.00174351
0.000527468
0.000909041
0.000561529
0.000982547
0.000746966
0.0075069
0.000796977
0.00097509
0.000790399
0.000783435
0.000736404
0.000526117
0.000939032
0.00133264
0.0120366
0.00531381
0.00418964
0.000674223
0.000826893
0.00347927
0.000675191
0.00609153
0.00124114
0.00344563
0.00516821
0.000698441
0.00698347
0.000527949
0.000842146
0.00625238
0.00082588
0.0133058
0.0007352
0.00076054
0.00240552
0.00560853
0.00077087
0.003164
0.000781175
0.0015901
0.000623888
0.000769898
0.00211849
0.00106938
0.000830323
0.000827676
0.00223128
0.000931433
0.00196708
0.00164943
0.00409009
0.00100864
0.000725401
0.00517931
0.00278233
0.00250236
0.000660874
0.00518802
0.00262991
0.00669541
0.0108937
0.00278951
0.00108441
0.00039863
0.0165
0.00254314
0.00433648
0.00304839
0.0130433
0.00237733
0.000309734
0.00109564
0.00049044
0.000223508
0.00350766
0.000468478
0.00113017
0.00110453
0.000361171
0.00108408
0.000226484
0.00033054
0.000731314
0.000580395
0.00114239
0.00402783
0.00338566
0.006016
0.00035955
0.00137095
0.00328616
0.00175429
0.00067658
0.000789968
0.00816919
0.000819092
0.00336294
0.00102988
0.000743889
0.000934175
0.0170049
0.00873639
0.000663793
0.00251977
0.00518973
0.00694718
0.0124828
0.000742815
0.00514464
0.00483678
0.00325188
0.000994677
0.00797766
0.000726839
0.000726187
0.00287681
0.0009482
0.00172169
0.000725831
0.0138287
0.00107363
0.000642421
0.00368332
0.00474243
0.00483416
0.000763981
0.000717231
0.00101517
0.00148797
0.00245903
0.00086225
0.0118954
0.00227958
0.00512087
0.0031667
0.00420857
0.00164488
0.000856827
0.00335881
0.00102733
0.000765697
0.00102727
0.000554441
0.00120952
0.000905815
0.01575
0.000765505
0.000821709
0.000753465
0.000932194
0.000832606
0.000776516
0.000868373
0.000744523
0.00282357
0.00348778
0.00445551
0.000738081
0.000745033
0.000881986
0.00102624
0.00179429
0.00796257
0.00183579
0.000773277
0.00101603
0.000760306
0.00357919
0.000808314
0.000703889
0.000735103
0.000718776
0.000844173
0.00107927
0.000912312
0.0083887
0.000658938
0.0155119
0.000599269
0.00207598
0.000883121
0.00137937
0.000744984
0.00322102
0.00276847
0.000750704
0.000512487
0.000540149
0.00101889
0.00153486
0.00120527
0.00317523
0.000748603
0.00123011
0.0019538
0.00448297
0.00615696
0.00316142
0.000828601
0.000277859
0.00821701
0.00158477
0.0029787
0.00652928
0.000498756
0.000891475
0.00110273
0.00813469
0.000347381
0.00544984
0.00700581
0.00111241
0.00367633
0.00539805
0.0017704
0.000603482
0.0094804
0.0178404
0.00757632
0.00132734
0.00174552
0.00110185
0.00287838
0.000836188
0.000500077
0.00103741
0.000783662
0.00249795
0.00123953
0.000438862
0.00202909
0.000750183
0.000443188
0.000819316
0.00279697
0.00565545
0.000707576
0.00290739
0.00455054
0.00843782
0.0101575
0.00296907
0.0023462
0.000795394
0.00651161
0.00142689
0.00730218
0.00550875
0.00290195
0.00384526
0.00382177
0.0120531
0.00457417
0.0132388
0.00303479
0.00272783
0.00352118
0.0117664
0.000923278
0.00294788
0.00340433
0.00486975
0.00302766
0.00682512
0.00618155
0.00429025
0.00630326
0.000925149
0.000351936
0.000806752
0.00485544
0.000778317
0.00298442
0.00188563
0.000830984
0.00433846
0.00360926
0.0052338
0.000602004
0.0090601
0.00149713
0.00287701
0.00192227
0.00143778
0.00123578
0.000853699
0.00501352
0.000795916
0.000759372
0.000912859
0.0113388
0.00261792
0.00175677
0.00452607
0.00561312
0.00329606
0.0018973
0.0108562
0.0051005
0.00078621
0.000183609
0.00718169
0.00239399
0.00649111
0.00830313
0.00111141
0.000648642
0.00305091
0.00572527
0.000940763
0.00144761
0.00126763
0.00147381
0.00113674
0.01094
0.000906847
0.00226019
0.00585472
0.00104232
0.00658869
0.00318397
0.000760476
0.00134661
0.00158031
0.000956791
0.00107454
0.00105405
0.00110373
0.00178915
0.000544581
0.00235828
0.000771535
0.000822591
0.00477728
0.00285635
0.00545598
0.00075043
0.00348436
0.00529551
0.00682743
0.000935373
0.00131847
0.00165285
0.00342013
0.000264483
0.000256146
0.0005186
0.0188706
0.000826194
0.00260843
0.00230549
0.00382263
0.00385573
0.00167596
0.000517084
0.000232446
0.000262601
0.000430186
0.000234238
0.000668878
0.000425455
0.000312257
0.000570638
0.000182151
0.000301707
0.000552671
0.000302273
0.000288577
0.000274962
0.000214011
0.000647731
0.000494171
0.000307127
0.000433741
0.00053234
0.000259008
0.000260518
0.000182478
0.000318514
0.000406426
0.000460694
0.000248033
0.000261426
0.000395322
0.000484515
0.000545505
0.000359467
0.000190611
0.00019396
0.000387436
0.000248427
0.000507388
0.000338818
0.000185393
0.000356139
0.000299827
0.000512381
0.000530351
0.00206206
0.00220807
0.0110734
0.000840128
0.00205731
0.00290105
0.00522995
0.00891848
0.00354244
0.000824179
0.000850054
0.00346936
0.00172532
0.00702474
0.0199103
0.0124607
0.00536587
0.00226312
0.0022956
0.00240745
0.000762583
0.00144591
0.000368706
0.00658185
0.00104139
0.00282544
0.00336972
0.0019136
0.00473478
0.00357088
0.00372236
0.00318095
0.0054628
0.0201584
0.00165301
0.00358846
0.00247172
0.000776001
0.0106842
0.00312319
0.00144711
0.00687403
0.00246668
0.00272531
0.00214312
0.00177548
0.00177379
0.000842061
0.000848847
0.0176572
0.00131745
0.000570437
0.000319824
0.00774458
0.00929
0.000352201
0.00367777
0.00685227
0.000366304
0.000244653
0.000421665
0.000537924
0.000466239
0.000537739
0.000187796
0.000374241
0.000439756
0.000206346
0.000578548
0.000530558
0.00028166
0.000591213
0.000350802
0.000304158
0.000549851
0.000261812
0.00022844
0.000266676
0.000179063
0.00054135
0.000228959
0.00338272
0.00269356
0.000451024
0.000927173
0.00466068
0.000848692
0.00749973
0.000594898
0.00309832
0.00877291
0.00926057
0.00292029
0.00934648
0.00427173
0.000285781
0.00924251
0.00225521
0.00540773
0.0174892
0.0047913
0.00619522
0.000787987
0.0109054
0.00170199
0.000901918
0.0111619
0.000917603
0.00314311
0.00185095
0.000739525
0.000666555
0.00660955
0.000995964
0.00856819
0.0112843
0.00119875
0.00710819
0.000690749
0.00978544
0.00197953
0.000947051
0.00206978
0.0073456
0.0014086
0.00206442
0.00298381
0.00140219
0.0069893
0.000834646
0.00317756
0.000627884
0.00344238
0.00683426
0.0176919
0.000201018
0.000771905
0.00105388
0.00983878
0.0029126
0.000452668
0.000775892
0.00241668
0.00187571
0.0103252
0.000832695
0.00140918
0.000673524
0.00118244
0.00157994
0.000821062
0.00707052
0.00060584
0.000170304
0.000266155
0.00907588
0.00629333
0.000777786
0.0104588
0.00486811
0.000576981
0.0102527
0.0124756
0.00868356
0.010188
0.00631782
0.00161906
0.00898494
0.000977515
0.0028257
0.00236916
0.00679909
0.000733309
0.000896435
0.00117437
0.0100329
0.000615376
0.00155697
0.00127772
0.00203895
0.00223168
0.0084178
0.0101232
0.00912683
0.00370735
0.000831198
0.00824845
0.000523869
0.00220908
0.00213054
0.00113507
0.00567955
0.01057
0.0031944
0.0100693
0.00285451
0.00764526
0.00143929
0.00203357
0.00208264
0.00275262
0.0010848
0.00197983
0.00220342
0.0141196
0.00101708
0.00146755
0.003649
0.002245
0.00143581
0.00219087
0.00234746
0.0146239
0.00220132
0.00457103
0.00700294
0.00128288
0.00107714
0.00154968
0.00347808
0.00187922
0.000996434
0.00299557
0.0130143
0.0141251
0.0123527
0.0121439
0.0142108
0.0126985
0.014867
0.00150804
0.0141238
0.013235
0.0130306
0.013036
0.0130351
0.0126186
0.0128891
0.0122151
0.0126157
0.0018848
0.0019576
0.00196844
0.0117733
0.00192583
0.00165725
0.00111801
0.00165925
0.000294137
0.000381399
0.00521796
0.0109757
0.00253025
0.00256316
0.00213818
0.0104331
0.0112881
0.00988753
0.00547082
0.000878105
0.00149348
0.000869472
0.00467915
0.00739006
0.00378858
0.00147485
0.00306647
0.0024391
0.00212823
0.00412956
0.0018442
0.00891293
0.00221496
0.00100881
0.00198602
0.000352648
0.00617421
0.00180092
0.00097081
0.00172551
0.000955044
0.00201657
0.00275129
0.00182431
0.00332114
0.00302092
0.0019803
0.00285433
0.011118
0.00228775
0.00270642
0.0029929
0.00266978
0.00911075
0.00148933
0.00107946
0.00947022
0.00476476
0.00302067
0.00244498
0.00227155
0.00313518
0.0105287
0.00328422
0.0010996
0.00146302
0.0010936
0.00347961
0.00205206
0.0167689
0.00176783
0.00222601
0.00304423
0.00179931
0.00328962
0.00159856
0.00184078
0.00300003
0.00558439
0.00575538
0.015859
0.00960336
0.000942906
0.0103055
0.00175078
0.00361557
0.00600058
0.0016904
0.00289726
0.0020657
0.0150954
0.00641801
0.00422201
0.00163688
0.00783299
0.0142567
0.00109139
0.00147566
0.00603816
0.0035256
0.0054754
0.00428459
0.00117776
0.00169356
0.0065086
0.00382277
0.00534922
0.0123504
0.0118423
0.00261664
0.0072551
0.000379967
0.00157726
0.00636761
0.00175401
0.00156793
0.00170023
0.00167347
0.00327387
0.0009015
0.00486425
0.000839753
0.0029262
0.00585493
0.00142294
0.00627395
0.00224072
0.00348042
0.0014648
0.00432743
0.00107571
0.00370589
0.00220944
0.00196419
0.00411508
0.00360461
0.00105607
0.00111786
0.0061984
0.00604334
0.00117463
0.00136647
0.000588815
0.000950535
0.000405979
0.00676237
0.00138397
0.00148235
0.00359718
0.00681452
0.00275889
0.00195231
0.00100228
0.00689412
0.00120096
0.00132291
0.00251793
0.00215869
0.00173551
0.00189481
0.000682471
0.00638473
0.00485375
0.012183
0.00177973
0.00596952
0.00242742
0.000911139
0.00644062
0.00696174
0.000635548
0.00211249
0.00188128
0.000796612
0.00204931
0.00241062
0.00672826
0.00742213
0.000253397
0.00503523
0.00155033
0.00179896
0.0021599
0.00206218
0.00712917
0.00659885
0.00646681
0.00143184
0.00172332
0.00233113
0.000303901
0.00693904
0.000967276
0.00338173
0.000998915
0.00315676
0.00163911
0.000272994
0.00363728
0.00137207
0.00638761
0.00143285
0.000923738
0.00312174
0.00125929
0.00155935
0.00562309
0.00290621
0.00522648
0.00279183
0.000951993
0.000613753
0.00321217
0.00196796
0.00403283
0.000251611
0.00149249
0.000254508
0.0117858
0.00140024
0.00191659
0.00399018
0.00249069
0.00119886
0.00289221
0.00149702
0.00116485
0.00526167
0.00399787
0.00250723
0.00307048
0.0017943
0.00246308
0.00132113
0.00138231
0.00513069
0.00296202
0.00123377
0.00553081
0.00288105
0.00266063
0.00212921
0.000799905
0.0109596
0.00091099
0.00209172
0.00278741
0.00873683
0.000746363
0.00154285
0.00244843
0.00138672
0.00213331
0.00168629
0.00175797
0.00222787
0.00122285
0.00134806
0.00197161
0.000772251
0.00037913
0.00592057
0.00255177
0.000563232
0.0103147
0.0117227
0.0020989
0.000751668
0.00217288
0.00167575
0.00557748
0.00217303
0.00199754
0.00190515
0.00189882
0.00190203
0.00183617
0.0024218
0.00264745
0.00505051
0.00129178
0.00106354
0.00304092
0.00252331
0.000386506
0.00337106
0.00262673
0.0120516
0.0055032
0.00518548
0.0115051
0.00223609
0.00207653
0.00526067
0.00115727
0.00195799
0.00191879
0.00183564
0.00100825
0.00142645
0.00296589
0.006196
0.00120291
0.0063694
0.00251791
0.00241231
0.00354123
0.00338317
0.00259527
0.000538035
0.00324094
0.000521053
0.0112262
0.00251154
0.00107412
0.00818821
0.000800461
0.000861405
0.0106424
0.000556229
0.00219842
0.00181817
0.00307291
0.00198994
0.00710894
0.00315894
0.0059466
0.00248795
0.0032763
0.00311078
0.00451803
0.00163512
0.00594464
0.000625459
0.000597946
0.000598391
0.000340175
0.000376822
0.0020642
0.00135154
0.000876016
0.00120323
0.00388292
0.00529799
0.00635828
0.000419849
0.0103461
0.00885101
0.00205427
0.00115392
0.00287673
0.00303876
0.0024758
0.000569917
0.000542671
0.00906845
0.00264473
0.00180814
0.00271958
0.00850489
0.0052166
0.00124226
0.00537487
0.00949526
0.00366825
0.00228157
0.00194049
0.00186557
0.000600074
0.000837182
0.00137053
0.00209535
0.00135988
0.00173141
0.0125635
0.00569697
0.00519479
0.00231553
0.00185804
0.0133469
0.0113673
0.0148179
0.0134833
0.0047094
0.00157293
0.00379811
0.0014027
0.000823613
0.00147884
0.0109069
0.013346
0.012823
0.00212965
0.00358873
0.00593605
0.00371935
0.00401712
0.0022094
0.00147737
0.00148054
0.000819103
0.00122882
0.00189303
0.00166344
0.00183621
0.00429099
0.00734881
0.00123745
0.0121922
0.0029012
0.00726699
0.0015215
0.00350951
0.00109713
0.00124182
0.00102077
0.000840686
0.00226262
0.000742772
0.0096856
0.00150511
0.000792446
0.00149303
0.00339991
0.0019257
0.0011185
0.00370355
0.00629941
0.003111
0.00248035
0.00223177
0.0030178
0.00136453
0.00339455
0.00249396
0.00035241
0.000578513
0.00237308
0.00398549
0.0146018
0.00413505
0.00141021
0.00125137
0.00573896
0.00262622
0.00595867
0.00831758
0.001378
0.00170258
0.00152368
0.00177609
0.00106455
0.00778664
0.00163213
0.00224044
0.0011941
0.00146053
0.0149676
0.0100116
0.00242829
0.00511592
0.00400441
0.00259851
0.00851454
0.00593642
0.00106934
0.000841296
0.000750894
0.000989318
0.00483485
0.00201571
0.00399072
0.000896481
0.00236763
0.00654151
0.00186945
0.00510953
0.00141395
0.00513407
0.00219602
0.00186952
0.00205858
0.00575505
0.00667023
0.0100313
0.00148571
0.0138347
0.000788369
0.00597177
0.00206493
0.00413489
0.0103138
0.00235193
0.00328344
0.000864074
0.00600984
0.00200515
0.00253478
0.000438356
0.000249254
0.00806756
0.00331369
0.00715973
0.00611789
0.00997777
0.00749005
0.000796077
0.00444948
0.00364004
0.00383725
0.00330143
0.00262264
0.0069939
0.00111128
0.000799721
0.00110445
0.00802028
0.00153819
0.0105806
0.00502419
0.000832548
0.010152
0.00151794
0.00169695
0.0086805
0.0104948
0.0129243
0.00934557
0.000444372
0.00107896
0.00597142
0.00279372
0.0132623
0.0142425
0.00238847
0.00805332
0.00243128
0.000495501
0.0035839
0.00316305
0.00881001
0.0075513
0.00992497
0.00145311
0.0010107
0.00441025
0.00425968
0.00230431
0.00193116
0.00331641
0.00783861
0.00125185
0.00146411
0.00219059
0.00916879
0.0110588
0.00665541
0.00249264
0.0113399
0.00103986
0.000757779
0.00182266
0.00211809
0.00852931
0.0065873
0.00463178
0.00145776
0.000787322
0.00670981
0.00160538
0.00486832
0.00726503
0.00359197
0.00608436
0.0021679
0.00350236
0.00248005
0.0139004
0.0014725
0.00167748
0.00246417
0.00168012
0.00100862
0.00649983
0.00192024
0.00181231
0.0147343
0.0131303
0.0146469
0.0112993
0.00895154
0.00191342
0.00334904
0.0015449
0.0101199
0.0144756
0.00413613
0.00867363
0.000736481
0.00256669
0.00220036
0.0101631
0.004659
0.00600281
0.00255805
0.00450491
0.00317742
0.0028811
0.00553682
0.000539381
0.00426714
0.000825721
0.00690572
0.000873652
0.0101299
0.00172083
0.00242161
0.00359246
0.00700406
0.00124566
0.00984197
0.0129913
0.00268622
0.000591043
0.0103772
0.00176193
0.00198673
0.00189652
0.000552333
0.000607442
0.00370033
0.00945087
0.0128951
0.00585574
0.00671568
0.0104273
0.00235714
0.00452215
0.00231454
0.00437818
0.000643551
0.000584371
0.00766939
0.00421988
0.00170737
0.00221412
0.0115918
0.00294158
0.00094531
0.000611951
0.00244613
0.003049
0.000798089
0.0058678
0.0012832
0.00749919
0.00309278
0.00513342
0.000941797
0.0139724
0.00311664
0.0144781
0.00367012
0.00130721
0.00548081
0.00532717
0.00136721
0.000756098
0.0128656
0.00217809
0.00161383
0.00175955
0.000776083
0.0146997
0.00175654
0.0103455
0.00913109
0.000684199
0.00701881
0.00080266
0.0139424
0.0120017
0.00259965
0.00234556
0.00231126
0.00952083
0.000848189
0.000766575
0.000757971
0.00509175
0.000729188
0.000905018
0.00634244
0.00521807
0.00412674
0.0026996
0.00601594
0.00107163
0.0133696
0.010812
0.00561747
0.000735125
0.00346762
0.00917276
0.000577485
0.000276674
0.000301558
0.0097908
0.00213941
0.0104114
0.00172489
0.00111947
0.00854255
0.0144719
0.00220793
0.0033665
0.006398
0.00471723
0.00283077
0.00454728
0.000812378
0.0046833
0.000677547
0.00118474
0.000748001
0.00104022
0.00295458
0.00142376
0.00588252
0.00285417
0.00322859
0.00729495
0.00562881
0.00321634
0.00694945
0.00173773
0.000721476
0.00295615
0.00152564
0.00662065
0.00522449
0.00774413
0.00487781
0.000907685
0.000826651
0.00101487
0.00357268
0.00133112
0.00689098
0.00192138
0.00117762
0.00258845
0.00917943
0.00371317
0.0113236
0.000627939
0.00908601
0.000871567
0.00327287
0.00156287
0.00588624
0.0067779
0.00228541
0.00126563
0.00251932
0.00590894
0.00102395
0.00213203
0.009477
0.0126226
0.00255804
0.00619036
0.00486432
0.0170325
0.0137279
0.00158201
0.0026665
0.00404519
0.00177382
0.00349808
0.00343392
0.0101812
0.000741036
0.00366184
0.00192623
0.00237303
0.00163602
0.00304712
0.00246907
0.00679637
0.000561075
0.00555337
0.00691362
0.00105545
0.00226813
0.000701646
0.00312628
0.00366706
0.00274573
0.000640903
0.00215345
0.00831022
0.00599595
0.0040362
0.0022799
0.00159848
0.00127456
0.00100776
0.000803325
0.000825372
0.00454439
0.00173375
0.00105231
0.00195562
0.0106481
0.000401712
0.0036702
0.00241442
0.000933689
0.00591746
0.000925409
0.000894334
0.000786639
0.00232672
0.00243773
0.00107597
0.00183554
0.00194907
0.00585806
0.000874477
0.00131249
0.00345986
0.0065002
0.000804719
0.00589259
0.0014491
0.0036092
0.00282267
0.00381308
0.00679127
0.00119941
0.000800751
0.000243357
0.000508454
0.00121458
0.00904197
0.0030374
0.00989015
0.00470675
0.00200303
0.00896797
0.00128953
0.000805526
0.00310999
0.00464748
0.00654106
0.00283747
0.000970738
0.000841696
0.000918156
0.000727666
0.00146338
0.0141712
0.00173618
0.00768093
0.00126144
0.000500952
0.00130157
0.000614681
0.00102836
0.00274176
0.00927458
0.00350389
0.00976367
0.00993688
0.000704594
0.00117412
0.00553283
0.0140906
0.00213001
0.00702534
0.00311129
0.00578798
0.00148489
0.00080663
0.000816127
0.00390353
0.00683021
0.00196465
0.00203764
0.00342114
0.00347877
0.00227119
0.00122312
0.00317461
0.00465459
0.0154854
0.0109885
0.000570314
0.00966806
0.00124582
0.00419923
0.00504701
0.00371065
0.00262729
0.00576557
0.00199072
0.00518641
0.0117743
0.0136943
0.00129704
0.00137904
0.00113965
0.000723265
0.000671664
0.00208306
0.00204247
0.00224128
0.00302547
0.00570809
0.00212515
0.000596983
0.00922166
0.000756067
0.00108431
0.00559542
0.00575232
0.00411334
0.00238958
0.00319535
0.00651025
0.00082051
0.000841103
0.0031425
0.00587114
0.00583267
0.00191948
0.00340925
0.00678318
0.00369125
0.00318292
0.00121139
0.00117796
0.000698311
0.00126017
0.000345153
0.000590494
0.00114374
0.00123632
0.000827618
0.000561736
0.000259769
0.000278249
0.0110587
0.00938865
0.000848107
0.00733343
0.00213317
0.00681688
0.00316345
0.00567051
0.0048245
0.00905922
0.00975648
0.0100152
0.00439694
0.00383739
0.00883332
0.00253441