/*--------------------------------*- C++ -*----------------------------------*\
| =========                 |                                                 |
| \\      /  F ield         | OpenFOAM: The Open Source CFD Toolbox           |
|  \\    /   O peration     | Version:  v1912                                 |
|   \\  /    A nd           | Website:  www.openfoam.com                      |
|    \\/     M anipulation  |                                                 |
\*---------------------------------------------------------------------------*/
FoamFile
{
    version     2.0;
    format      ascii;
    class       volScalarField;
    location    "0.02";
    object      nut;
}
// * * * * * * * * * * * * * * * * * * * * * * * * * * * * * * * * * * * * * //

dimensions      [0 2 -1 0 0 0 0];


internalField   nonuniform List<scalar> 
1466
(
0.000782412
0.000729521
0.000859247
0.000758977
0.000815988
0.000795661
0.000752012
0.00085288
0.000875719
0.00080798
0.000600167
0.000928118
0.000370356
0.000866116
0.000856088
0.000763977
0.000324369
0.000765151
0.000910047
0.000796192
0.000856416
0.00086213
0.000491595
0.000745257
0.000868089
0.000872017
0.000896015
0.000863795
0.000686489
0.000671573
0.000866233
0.000869527
0.000862852
0.000881449
0.000921831
0.000857494
0.000827847
0.000839672
0.000940365
0.000813748
0.000917572
0.000865901
0.00089111
0.000885544
0.000865543
0.000917515
0.000856932
0.000608199
0.000865717
0.000856571
0.000857801
0.000698474
0.000660796
0.000614384
0.000692871
0.00086843
0.00077297
0.000873923
0.000807689
0.000865066
0.000780874
0.000716375
0.000843064
0.000840606
0.00084793
0.000837182
0.000875188
0.000856293
0.000803391
0.000836157
0.000859063
0.000788525
0.000783562
0.000866375
0.000383673
0.00085987
0.000856286
0.000786636
0.00085806
0.000862518
0.00084932
0.000868031
0.000856751
0.000865508
0.000833434
0.000857462
0.000841738
0.000920916
0.000865612
0.000896835
0.000775763
0.000581275
0.0008587
0.000724531
0.000856569
0.000838082
0.000850885
0.000811917
0.000880902
0.000752087
0.000807356
0.000871273
0.000862446
0.000692225
0.000856613
0.0008992
0.000856109
0.000856854
0.000848743
0.000860284
0.000807457
0.000850216
0.000856715
0.000850854
0.000416577
0.000864311
0.000580105
0.00077109
0.00090029
0.000867684
0.00083514
0.000868954
0.000609608
0.00097571
0.000869184
0.000863809
0.000841418
0.000664985
0.00085937
0.000858996
0.00086567
0.00082504
0.000920523
0.00089086
0.000855743
0.000859893
0.000866212
0.000854608
0.000857327
0.000626564
0.000745373
0.000565091
0.000859449
0.000860019
0.000859279
0.000529204
0.000617733
0.000843962
0.000894251
0.000807884
0.000860713
0.000853433
0.000892587
0.000880217
0.000838559
0.000887295
0.000790667
0.000928038
0.000882064
0.000895692
0.00086978
0.000806174
0.000799855
0.000836325
0.000870637
0.000858341
0.000862242
0.000520636
0.000844794
0.000902992
0.000851166
0.00085804
0.000845272
0.000883344
0.000888133
0.000888077
0.000869415
0.000861548
0.000856658
0.000859816
0.000832406
0.000857292
0.000865683
0.00085835
0.000934978
0.000832307
0.00085733
0.000884445
0.000857395
0.000597869
0.000531346
0.000447404
0.000831165
0.000838091
0.000857191
0.000801354
0.000854799
0.000858345
0.000859094
0.000862237
0.000905004
0.000870672
0.000856805
0.000843458
0.000858539
0.000866608
0.000857314
0.000753153
0.000857765
0.000720076
0.000849203
0.000920933
0.000873856
0.000858155
0.000895735
0.000857353
0.000910797
0.000531552
0.000786178
0.000839733
0.000868827
0.000864169
0.000834711
0.000857694
0.000870001
0.000858143
0.000865541
0.000841216
0.000830372
0.000868968
0.000858846
0.000937059
0.000876418
0.000862071
0.000856455
0.000859871
0.000863184
0.000822915
0.000864437
0.000864109
0.000873531
0.000865245
0.00061483
0.000867608
0.000868755
0.000535108
0.000697013
0.000552446
0.000532063
0.000537549
0.00086594
0.00086448
0.000865683
0.000963304
0.000877314
0.000869485
0.000860032
0.000861638
0.000871449
0.000844653
0.000858981
0.000857398
0.000880807
0.000912534
0.000671406
0.000827351
0.000875423
0.000880784
0.000864859
0.000820528
0.00089659
0.000844423
0.000859082
0.000861624
0.000855449
0.000860744
0.000998238
0.000869598
0.000754101
0.00086796
0.000859297
0.000534159
0.000545246
0.000788691
0.000858553
0.00085669
0.000876899
0.000707701
0.000880478
0.00076402
0.000858311
0.000873216
0.00087223
0.000857367
0.000865076
0.000872763
0.000914988
0.000859939
0.000877448
0.000787638
0.000788964
0.00092245
0.000753265
0.000872243
0.000845023
0.000860925
0.000882025
0.00086477
0.000370594
0.000866266
0.00086517
0.000833579
0.000870049
0.00093524
0.000865366
0.000864669
0.000881864
0.000870374
0.000860451
0.00079576
0.000857654
0.000861333
0.000865107
0.000491068
0.00049243
0.000569674
0.000579009
0.000618039
0.000622733
0.000678814
0.00049736
0.000497265
0.000614669
0.000664019
0.000479586
0.000479772
0.000422184
0.000782357
0.00043177
0.000644283
0.000665943
0.000665389
0.000544043
0.000554205
0.000712588
0.000681568
0.000583766
0.000581759
0.000823335
0.00087635
0.000865539
0.000859719
0.000867019
0.000863286
0.000863785
0.000870106
0.000903815
0.000657486
0.000876798
0.000867803
0.000894903
0.000865305
0.000858807
0.000685885
0.000547927
0.000752934
0.00055809
0.000631492
0.000719422
0.000720568
0.000656185
0.000575254
0.000578959
0.000475612
0.000481451
0.000475347
0.000545714
0.000873647
0.00085672
0.000523587
0.000854942
0.000908993
0.000864347
0.000831343
0.000875315
0.000873411
0.000799059
0.000863554
0.000862895
0.000815784
0.000864171
0.000862314
0.00086576
0.000860123
0.000365875
0.000858228
0.00086013
0.000858451
0.000855984
0.000490312
0.000510707
0.000843793
0.000864203
0.000859858
0.000878845
0.000858221
0.000859663
0.000881433
0.000857503
0.000857774
0.000859831
0.000870818
0.000480492
0.000540973
0.000860768
0.000860083
0.000861374
0.000861502
0.000869117
0.000863864
0.00086195
0.000662793
0.000879879
0.000883258
0.0008959
0.000927013
0.000865428
0.00087321
0.000892728
0.000871422
0.000866295
0.000860209
0.000861194
0.000927629
0.000723214
0.000882572
0.0008655
0.00087155
0.000896605
0.000868481
0.000579887
0.000815915
0.000914506
0.000871404
0.000871942
0.000866273
0.00086197
0.00086021
0.000861927
0.000861392
0.000860959
0.00086345
0.000788095
0.000862464
0.00087085
0.000815659
0.00086123
0.000864321
0.000543046
0.000865077
0.000870444
0.000862647
0.000863091
0.000862421
0.000826843
0.000576613
0.000880929
0.000858642
0.000861309
0.000494249
0.000907815
0.000871752
0.000865272
0.000763946
0.000883985
0.000873889
0.000528824
0.0005192
0.000897601
0.000926715
0.000859554
0.000858272
0.000904733
0.000857853
0.000898153
0.000857912
0.000857678
0.000857512
0.000927127
0.000859462
0.000915848
0.000857691
0.000857457
0.000857489
0.000666881
0.00091886
0.000951886
0.000879966
0.000565258
0.000574813
0.000858016
0.0008575
0.000574369
0.000867606
0.00085786
0.000863224
0.000862471
0.000873154
0.00085913
0.000871903
0.000860177
0.000914708
0.000862345
0.000872991
0.000828025
0.000863735
0.000858127
0.00085749
0.000862673
0.00086424
0.000864353
0.000860073
0.000844922
0.000722897
0.000594057
0.000848474
0.000816544
0.00086206
0.000647449
0.000857666
0.000858312
0.000858278
0.000864773
0.000860594
0.000878353
0.000893309
0.000878552
0.000894279
0.000856839
0.000824132
0.00089306
0.000871454
0.000863451
0.000882293
0.000864361
0.000836419
0.000562358
0.000858973
0.000864847
0.000859235
0.000857732
0.000849386
0.000881356
0.000858615
0.00085805
0.000863178
0.000868266
0.000860995
0.000862822
0.00086724
0.000818164
0.00085634
0.000858296
0.000859084
0.000868009
0.000863637
0.000857473
0.000859784
0.00086037
0.000859198
0.000762257
0.000899479
0.000858803
0.000871443
0.000880631
0.000858125
0.000794982
0.000858811
0.000860664
0.000858235
0.000864979
0.000759675
0.000863532
0.000859848
0.000855634
0.000861718
0.000933407
0.000857867
0.000859991
0.000869133
0.000584994
0.000539266
0.000863344
0.000861893
0.00085989
0.000857846
0.000872381
0.000861871
0.000859704
0.000858959
0.000860363
0.000862598
0.000858442
0.000886208
0.000864468
0.000920588
0.000864965
0.000856901
0.000860955
0.000860143
0.000860314
0.000856046
0.000871349
0.000895836
0.00075851
0.000860712
0.000859671
0.000829737
0.00086477
0.000898441
0.000863763
0.000857345
0.000596791
0.000864532
0.000859098
0.000859619
0.000858714
0.000852341
0.000857332
0.000868074
0.000871178
0.00085946
0.000861764
0.00051997
0.000866771
0.000861553
0.000861853
0.000871357
0.00086522
0.000858771
0.000857333
0.000891122
0.000774841
0.000880929
0.000850673
0.000877448
0.000869543
0.000876219
0.000865831
0.00085734
0.000773119
0.000861664
0.000863392
0.000867415
0.000875479
0.000875452
0.000881847
0.000869862
0.000857363
0.000862301
0.000744223
0.000865235
0.000876427
0.000780047
0.000876386
0.000874131
0.000861197
0.000862617
0.000862805
0.000864827
0.00085742
0.000873857
0.000816338
0.00088724
0.000522091
0.000511286
0.0008767
0.000866613
0.000862925
0.000866109
0.000923273
0.000867431
0.000454169
0.000871718
0.000864514
0.000841819
0.000873351
0.000859953
0.000582946
0.000866092
0.000851761
0.000857555
0.000905915
0.000878279
0.00091996
0.000858608
0.000869075
0.000861462
0.000865624
0.000858793
0.000860237
0.000879674
0.000864974
0.000877518
0.000860958
0.000860142
0.000859565
0.000867325
0.000859315
0.000881908
0.000861253
0.000551019
0.000814801
0.000872175
0.000860081
0.000766505
0.000866484
0.00085978
0.000857886
0.000899523
0.00086276
0.00086332
0.000857534
0.000858663
0.00086035
0.000858941
0.00086251
0.000861408
0.000879555
0.000847743
0.000861371
0.000897689
0.000869321
0.000413153
0.000437916
0.000863547
0.000401773
0.000489766
0.000733286
0.000862296
0.000544891
0.00039869
0.00042046
0.00037015
0.000412886
0.000818816
0.000306816
0.000886195
0.000693163
0.000874594
0.000903911
0.000421668
0.000826635
0.000866184
0.000858619
0.000861972
0.00086938
0.00086422
0.000923931
0.000858592
0.000411544
0.000883749
0.000865439
0.000950927
0.00085835
0.000873272
0.000795325
0.000417894
0.00091911
0.000848279
0.00088332
0.00094886
0.000554326
0.000571366
0.00086423
0.000862424
0.000844721
0.000871339
0.000791179
0.000932271
0.000925041
0.000881485
0.00037152
0.000350014
0.000862837
0.000865195
0.000856239
0.000841432
0.000739108
0.000461602
0.000884769
0.000866337
0.000921803
0.000730964
0.000820545
0.000894035
0.00093931
0.000808862
0.000882264
0.000504631
0.000554128
0.000860195
0.000856417
0.000839862
0.000929367
0.000579457
0.000867691
0.000846619
0.000857654
0.000898023
0.000894371
0.00057049
0.000833515
0.000874106
0.000839972
0.000930987
0.000809996
0.000580634
0.000837454
0.000892106
0.000913805
0.000873011
0.000865956
0.000859404
0.000339517
0.000342045
0.000739831
0.000859896
0.000820906
0.000856956
0.00085902
0.000863737
0.000872914
0.000704442
0.000848883
0.000812569
0.000955418
0.000865734
0.000853048
0.000629896
0.000584052
0.000850946
0.000869556
0.000859188
0.000817216
0.000863052
0.000869361
0.000874045
0.000859722
0.000861041
0.000872475
0.0008673
0.000858715
0.000870634
0.000368719
0.000857387
0.00086963
0.000558564
0.000781988
0.000409967
0.000894154
0.000807964
0.000892933
0.000885643
0.000857928
0.000865871
0.000803641
0.000832118
0.000865517
0.000841637
0.000857259
0.000493386
0.000883899
0.00089782
0.000858249
0.000858289
0.000876637
0.000919333
0.000920698
0.000862027
0.000885685
0.000858927
0.00084932
0.00085644
0.000788189
0.000849069
0.000855971
0.000900224
0.000861288
0.000869071
0.000865856
0.000857641
0.000819286
0.000561537
0.00085721
0.000896646
0.000865503
0.00087425
0.000898897
0.000813908
0.000855978
0.000857655
0.000870266
0.000876143
0.00087035
0.000434135
0.000857432
0.000847018
0.000882148
0.000872906
0.000861494
0.000854888
0.000868087
0.000325241
0.000872823
0.000354283
0.000894704
0.00086193
0.000894916
0.000854359
0.00097391
0.00087867
0.00085911
0.000919303
0.000866086
0.000835087
0.000857293
0.00087956
0.000874012
0.000901299
0.000879723
0.00095437
0.000864872
0.000858436
0.000545318
0.000863765
0.00085739
0.000865567
0.000855775
0.000373703
0.000356916
0.000303328
0.000335023
0.000389092
0.000351033
0.000398266
0.000374813
0.000384298
0.000353345
0.000367458
0.000390461
0.000388381
0.00037891
0.000850148
0.00036435
0.00035569
0.000901148
0.000607143
0.000921572
0.00035432
0.000394766
0.000874434
0.00086649
0.000839992
0.000793635
0.000609284
0.000865649
0.00076442
0.000857918
0.000857357
0.000426012
0.000862103
0.000468675
0.000857521
0.000867007
0.000424322
0.000856501
0.000859729
0.000419899
0.00082938
0.0008698
0.000895678
0.000906312
0.000863205
0.000857295
0.000858942
0.000780362
0.000854997
0.000853504
0.00086919
0.000838929
0.000651941
0.000434336
0.000434746
0.000876436
0.00085785
0.000404127
0.000859942
0.00085946
0.000874904
0.000438991
0.000441365
0.000890757
0.00085731
0.000891186
0.000839252
0.000836718
0.000866494
0.000862641
0.000528407
0.000855992
0.000415154
0.000527008
0.000864869
0.000859365
0.00082673
0.000855846
0.00085722
0.000859086
0.000871779
0.000848651
0.000710018
0.000501921
0.000579012
0.000898767
0.000863064
0.000873916
0.000863279
0.00075821
0.000901952
0.000857319
0.000897467
0.000862545
0.000506136
0.000382158
0.000870475
0.000861383
0.000400692
0.000863377
0.000937804
0.000974781
0.00037725
0.000858688
0.000861537
0.000863265
0.000866702
0.000849735
0.000410368
0.00087697
0.000856315
0.000857031
0.000848133
0.000859732
0.000861617
0.000408321
0.000864522
0.00087935
0.00085625
0.000672317
0.000744358
0.000881885
0.000782461
0.000842054
0.000360317
0.000857713
0.000858265
0.000773695
0.00086102
0.000837461
0.000891408
0.000858789
0.000528941
0.000855029
0.000855701
0.000868983
0.000813793
0.000854244
0.000881619
0.000866793
0.000498244
0.000865138
0.000416333
0.000473786
0.000888396
0.000909666
0.000884353
0.000876032
0.000880105
0.000885918
0.000857902
0.000894536
0.0008831
0.000809642
0.000860656
0.00046231
0.0004814
0.00060702
0.000899925
0.000872321
0.000826729
0.000559609
0.00047079
0.000856948
0.000858616
0.000849778
0.000784018
0.000367933
0.000429883
0.000816425
0.000428498
0.000892606
0.000866808
0.000861491
0.000863041
0.000893687
0.000446899
0.000562663
0.000588555
0.000828907
0.000808556
0.00036875
0.000574396
0.00086371
0.000863089
0.000340721
0.000704488
0.000709579
0.000834024
0.000514981
0.000911763
0.000830574
0.000864449
0.000859964
0.000861779
0.000792681
0.000807552
0.000862174
0.000427682
0.000865307
0.000861432
0.000424549
0.000811421
0.000855067
0.000653357
0.000857505
0.000889928
0.000378766
0.00075848
0.000869358
0.000493477
0.000769628
0.000409275
0.000776545
0.000737647
0.000328193
0.00086646
0.000305302
0.000865506
0.000936921
0.000837227
0.000866663
0.000858265
0.000864742
0.000531162
0.000864874
0.000915552
0.000590595
0.000775709
0.000834369
0.000851019
0.0003688
0.000855401
0.000862366
0.000832515
0.000414468
0.000878387
0.000883749
0.000848112
0.000770955
0.000871452
0.000528162
0.000865321
0.000861521
0.000746216
0.000265008
0.000765422
0.000872242
0.000731645
0.000858911
0.000817156
0.000857577
0.000861317
0.000858518
0.000454266
0.000856936
0.000864076
0.000860528
0.000858217
0.000766526
0.000971999
0.000861178
0.000876576
0.000890929
0.000858004
0.0008843
0.000977257
0.000784906
0.000860229
0.000864778
0.000869647
0.000860394
0.000855865
0.000857405
0.000726081
0.000861944
0.000849166
0.000873213
0.000863146
0.000878543
0.000550515
0.000873886
0.000831137
0.000829224
0.000862404
0.000861425
0.000733008
0.000394784
0.000860168
0.000860275
0.000791064
0.000857706
0.000861095
0.000730605
0.000928193
0.000701355
0.000863476
0.000857326
0.00083869
0.000845228
0.000721003
0.000869181
0.000849837
0.000859611
0.00085981
0.000858999
0.000861202
0.000878528
0.000980739
0.000858932
0.000860281
0.000920471
0.000962077
0.000872128
0.000897399
0.000862359
0.000842102
0.000878699
0.000935226
0.000863229
0.000883255
0.000736342
0.000811663
0.000837373
0.000865161
0.000899083
0.000843968
0.000855723
0.000864161
0.000284617
0.000247583
0.000666561
0.000858629
0.000844036
0.000698006
0.000861068
0.00086165
0.000867053
0.000806635
0.000850254
0.000849662
0.000857417
0.000916693
0.000623788
0.000807924
0.000833033
0.000848219
0.000885885
0.000875368
0.000724416
0.000886836
0.000823887
0.000862963
0.000862424
0.000830576
0.000861677
0.000862509
0.000881042
0.000400778
0.000874778
0.000729306
0.000858669
0.00089419
0.000396337
0.000771203
0.000874978
0.00091063
0.000860069
0.000903634
0.000259978
0.000872539
0.000893842
0.000684804
0.000838461
0.000425859
0.000858
0.000868483
0.000859646
0.000914671
0.000873378
0.00086156
0.000864649
0.000886379
0.000925728
0.000840701
0.000890742
0.000865198
0.000919371
0.000868797
0.000889261
0.000992785
0.000894665
0.000860435
0.000834914
0.000840528
0.000956184
0.000402973
0.000865833
0.000824446
0.000827739
0.000825225
0.000846297
0.000903836
0.000368321
0.00083718
0.000838516
0.000343828
0.00086156
0.00083093
0.000827936
0.000834439
0.000863054
0.000699485
0.000865715
0.000817884
0.000819758
0.00095214
0.000866685
0.000862304
0.000858413
0.000865093
0.00084087
0.000846204
0.000729788
0.000852741
0.00080962
0.000757942
0.000855835
0.000860607
0.000866926
0.000392513
0.000857607
0.000868269
0.000858227
0.00085967
0.000342808
0.000593816
0.000348836
0.000860325
0.000842262
0.000884699
0.000796388
0.00085773
0.000815122
0.000857485
0.000693494
0.000723426
0.000842051
0.000861664
0.000862788
0.000817432
0.000721882
0.000879141
0.000859457
0.000935206
0.000859167
0.000676209
0.000873984
0.000973001
0.000886951
0.000818819
0.000893455
0.000852942
0.000860409
0.000856991
0.000858768
0.000884975
0.000699992
0.000643759
0.000773968
0.000811298
0.000728275
0.00079638
0.000848835
0.000858733
0.000712279
0.000833534
0.000760955
0.000884885
0.000860923
0.00086013
0.000862368
0.000877737
0.000984828
0.000823923
0.000613853
0.00093338
0.000974789
0.000731569
0.00087033
0.000949303
0.000717843
0.000748031
0.00085583
0.000635021
0.000635469
0.000717733
0.00090742
0.000567053
0.00082895
0.000848742
0.00079736
0.000803672
0.000741181
0.00089133
0.000896405
0.000856106
0.000759753
0.000808741
0.000802376
0.000881211
0.000955126
0.000600889
0.000864396
0.000863408
0.000862962
0.000739911
0.000862435
0.00086672
0.000841594
0.000585776
0.000789096
0.000602766
0.000531436
0.000552363
0.000769787
0.000680406
)
;

boundaryField
{
    frontAndBack
    {
        type            empty;
    }
    wallOuter
    {
        type            nutkWallFunction;
        Cmu             0.09;
        kappa           0.41;
        E               9.8;
        value           nonuniform List<scalar> 
102
(
4.88799e-05
4.88799e-05
6.29931e-05
5.0174e-05
5.47899e-05
4.85808e-05
4.79304e-05
5.9338e-05
5.35902e-05
5.69356e-05
5.20461e-05
6.38684e-05
5.16016e-05
5.48422e-05
4.77869e-05
5.25563e-05
3.9957e-05
5.42742e-05
5.30823e-05
5.38428e-05
7.41588e-05
4.87889e-05
4.58219e-05
6.52847e-05
7.04838e-05
4.44431e-05
4.48284e-05
4.82525e-05
5.29432e-05
4.23409e-05
4.62543e-05
4.87335e-05
4.64964e-05
3.90499e-05
4.34985e-05
4.97833e-05
4.46602e-05
5.10557e-05
4.79726e-05
5.01096e-05
4.50611e-05
4.68509e-05
5.0888e-05
5.05906e-05
4.93386e-05
4.74331e-05
4.63489e-05
4.63589e-05
5.04108e-05
5.4651e-05
6.05727e-05
5.45494e-05
5.36987e-05
5.56357e-05
5.56337e-05
5.21374e-05
5.61889e-05
5.64879e-05
5.35241e-05
6.8062e-05
6.50236e-05
5.19965e-05
4.91108e-05
5.39203e-05
5.27811e-05
4.71435e-05
6.7728e-05
5.45536e-05
6.0898e-05
6.21707e-05
7.22274e-05
6.04015e-05
4.82145e-05
5.52761e-05
5.51912e-05
5.76022e-05
4.82758e-05
4.45758e-05
6.58632e-05
5.50546e-05
5.47379e-05
4.96936e-05
4.2847e-05
3.9497e-05
6.79787e-05
4.7307e-05
5.34257e-05
3.40075e-05
5.85508e-05
5.07167e-05
3.56214e-05
3.11426e-05
5.26404e-05
5.13115e-05
3.30805e-05
5.48926e-05
5.21251e-05
4.73265e-05
4.5015e-05
5.1539e-05
4.48356e-05
4.56588e-05
)
;
    }
    inlet
    {
        type            calculated;
        value           nonuniform 0();
    }
    outlet
    {
        type            calculated;
        value           nonuniform 0();
    }
    wallInner
    {
        type            nutkWallFunction;
        Cmu             0.09;
        kappa           0.41;
        E               9.8;
        value           nonuniform List<scalar> 
138
(
7.73499e-05
4.25833e-05
8.67535e-05
8.58843e-05
8.83322e-05
8.43032e-05
7.86739e-05
8.80981e-05
9.14973e-05
7.51608e-05
0.000100881
8.6918e-05
7.86737e-05
9.38687e-05
7.31597e-05
6.82115e-05
7.70762e-05
6.62267e-05
7.56825e-05
6.67844e-05
5.75845e-05
6.89376e-05
7.92892e-05
6.94165e-05
8.90675e-05
7.15866e-05
6.90244e-05
6.97253e-05
8.48878e-05
6.92936e-05
7.0692e-05
9.05969e-05
6.39292e-05
6.39756e-05
7.37403e-05
7.4979e-05
7.9475e-05
8.03372e-05
8.70991e-05
6.47647e-05
6.47318e-05
7.93635e-05
8.52628e-05
6.24717e-05
6.2526e-05
5.45517e-05
9.92468e-05
5.57232e-05
8.27968e-05
8.56592e-05
8.55796e-05
7.05513e-05
7.18798e-05
9.12127e-05
8.72854e-05
7.5217e-05
7.49322e-05
8.24121e-05
8.79217e-05
6.99396e-05
9.59143e-05
7.23772e-05
8.13726e-05
9.19584e-05
9.21123e-05
8.4236e-05
7.41916e-05
7.46495e-05
6.20069e-05
6.25178e-05
6.19814e-05
7.07628e-05
6.78561e-05
6.34064e-05
6.56808e-05
6.24905e-05
6.88448e-05
8.46186e-05
8.98845e-05
7.33486e-05
6.91392e-05
7.37949e-05
6.38799e-05
6.80938e-05
6.70705e-05
8.46765e-05
7.26062e-05
7.33701e-05
7.33173e-05
9.0246e-05
7.48538e-05
8.298e-05
7.28858e-05
9.98626e-05
7.4107e-05
6.98002e-05
7.48164e-05
6.69383e-05
9.77835e-05
6.74488e-05
6.64275e-05
7.51235e-05
7.14408e-05
9.30145e-05
7.05364e-05
7.12767e-05
5.97618e-05
7.46937e-05
7.40691e-05
7.51081e-05
8.99507e-05
7.98835e-05
7.49982e-05
7.22781e-05
6.39595e-05
5.66731e-05
7.06525e-05
7.81307e-05
7.84182e-05
6.7897e-05
6.35563e-05
7.34557e-05
4.94376e-05
6.34833e-05
5.90266e-05
7.4374e-05
6.43332e-05
5.30526e-05
7.55317e-05
6.86008e-05
6.97666e-05
8.18083e-05
7.3457e-05
9.99233e-05
6.80767e-05
7.06044e-05
9.71233e-05
8.60617e-05
)
;
    }
    procBoundary2to0
    {
        type            processor;
        value           nonuniform List<scalar> 
42
(
0.000862582
0.000862582
0.000843272
0.000766422
0.000905476
0.000869496
0.000881299
0.000881299
0.000879345
0.000860844
0.000902679
0.000902679
0.000910376
0.000896743
0.000880444
0.000882138
0.000865375
0.000859344
0.000865231
0.00087407
0.000911284
0.000858298
0.000858298
0.000912111
0.000911284
0.000857957
0.000966912
0.000858529
0.000966912
0.000862353
0.000863632
0.000860866
0.000869308
0.000895917
0.000949036
0.000766422
0.000865375
0.000514931
0.000902648
0.000928772
0.000928772
0.000979367
)
;
    }
    procBoundary2to1
    {
        type            processor;
        value           uniform 0.00086492;
    }
    procBoundary2to3
    {
        type            processor;
        value           nonuniform List<scalar> 
29
(
0.000852801
0.000862974
0.000756041
0.000608707
0.000780741
0.000797954
0.000800728
0.000861836
0.000861563
0.000841746
0.000854761
0.000854625
0.000773965
0.00085971
0.000852727
0.000857243
0.000862105
0.000862105
0.000862974
0.00085971
0.000858593
0.000862632
0.000498504
0.000860594
0.000785568
0.000875476
0.000861563
0.00085951
0.000854625
)
;
    }
}


// ************************************************************************* //
