/*--------------------------------*- C++ -*----------------------------------*\
| =========                 |                                                 |
| \\      /  F ield         | OpenFOAM: The Open Source CFD Toolbox           |
|  \\    /   O peration     | Version:  v1912                                 |
|   \\  /    A nd           | Website:  www.openfoam.com                      |
|    \\/     M anipulation  |                                                 |
\*---------------------------------------------------------------------------*/
FoamFile
{
    version     2.0;
    format      ascii;
    class       volScalarField;
    location    "0.65";
    object      nut;
}
// * * * * * * * * * * * * * * * * * * * * * * * * * * * * * * * * * * * * * //

dimensions      [0 2 -1 0 0 0 0];


internalField   nonuniform List<scalar> 
1431
(
0.00426721
0.0112778
0.000925202
0.00132336
0.00161729
0.00941433
0.00178256
0.00947741
0.00801846
0.000889865
0.00436136
0.0121903
0.0144961
0.00210819
0.00189057
0.00137155
0.00202067
0.00108233
0.00202107
0.00158199
0.00574091
0.00485387
0.00623877
0.0153473
0.00656111
0.00971219
0.00388121
0.0018754
0.000850325
0.000727919
0.00201676
0.00248643
0.00187156
0.00117945
0.0123494
0.0010514
0.0121391
0.000675702
0.000445518
0.00223087
0.00563848
0.00757803
0.0128979
0.000909501
0.00380302
0.00192309
0.00339197
0.00368656
0.00216608
0.00132785
0.00906989
0.000820112
0.010358
0.0132343
0.0102746
0.00467702
0.00098386
0.0137138
0.00182228
0.00111824
0.00171156
0.000542365
0.0005
0.000475528
0.000288792
0.00040969
0.000983632
0.000548715
0.000991402
0.00127077
0.00393367
0.00114149
0.000709523
0.000824537
0.00148973
0.00109896
0.000780229
0.000393088
0.000571237
0.000861881
0.00175754
0.000835688
0.0120043
0.00393417
0.00628945
0.00347633
0.00270508
0.0035466
0.00989753
0.0125044
0.00174217
0.00157245
0.000824069
0.00126787
0.0096022
0.000677714
0.0120656
0.0183751
0.00085213
0.000927866
0.00715496
0.000682878
0.00259041
0.00112623
0.000534912
0.00230905
0.00285768
0.00346062
0.00476833
0.0022499
0.00116257
0.0155064
0.00430363
0.00478424
0.0117202
0.00139645
0.00136497
0.000828087
0.000724486
0.000398019
0.00135878
0.00178345
0.00231281
0.00126332
0.00269795
0.000422951
0.000789346
0.0030819
0.0012409
0.00516468
0.00135916
0.0009872
0.00597483
0.00151135
0.00179577
0.00158162
0.00111372
0.0010713
0.0126035
0.000360805
0.000360116
0.00192407
0.00152738
0.000789748
0.00606693
0.00174089
0.000573733
0.00879362
0.00110946
0.00125419
0.00124807
0.00125849
0.00236466
0.000780291
0.00320927
0.00120222
0.00954065
0.0139936
0.0127906
0.0053285
0.0163742
0.0159269
0.00167154
0.00414273
0.0028464
0.00414854
0.00405208
0.0108714
0.00118361
0.0162627
0.0164712
0.010169
0.00213525
0.0129088
0.0129605
0.00891807
0.005345
0.00659871
0.0104839
0.0124257
0.000434946
0.000663137
0.00539709
0.0187816
0.0071297
0.00127282
0.00155987
0.0147616
0.0024274
0.00701179
0.00234765
0.00240644
0.00248667
0.00383585
0.00073817
0.0151661
0.0182455
0.0110195
0.00126085
0.00157308
0.00806754
0.00245001
0.00444472
0.00327077
0.0141284
0.00245617
0.00225704
0.000774759
0.0144033
0.00225177
0.00200949
0.00089076
0.00283433
0.00232401
0.0118428
0.00155613
0.00265238
0.0112008
0.00562667
0.00431198
0.00303597
0.00544117
0.00268991
0.00347835
0.00333642
0.0164623
0.00466789
0.0174025
0.00269349
0.00323261
0.00595548
0.00200902
0.00245362
0.00241576
0.00259529
0.017818
0.00282273
0.00262805
0.00224119
0.00553322
0.00565043
0.0104719
0.0153789
0.00259471
0.00246193
0.00426141
0.00271345
0.00416239
0.00319593
0.00120841
0.00290811
0.0128136
0.00515689
0.00157283
0.00242624
0.00757144
0.00489673
0.0174516
0.0188385
0.00252758
0.00163559
0.0124476
0.00534809
0.00494914
0.00355689
0.00512224
0.0124748
0.00469007
0.00363873
0.000678658
0.00501842
0.0028036
0.0098336
0.0041326
0.0150965
0.00198896
0.0142573
0.00364844
0.000956677
0.00144687
0.0117441
0.0135692
0.00172612
0.00591782
0.00769525
0.0175815
0.00733505
0.0189896
0.00546747
0.0105116
0.000659829
0.0106187
0.0174994
0.00983862
0.00281378
0.00249064
0.00188185
0.001432
0.00182711
0.00100245
0.0101611
0.000317903
0.00841304
0.0110416
0.00346921
0.00451774
0.0122271
0.00239026
0.00875553
0.0148781
0.0151432
0.000355094
0.000500676
0.00139835
0.00963965
0.0175049
0.0112164
0.00892015
0.00187576
0.0143967
0.0115897
0.0164658
0.000804105
0.00693811
0.0103015
0.000655703
0.000602001
0.00818046
0.0144643
0.00186676
0.00112463
0.00224015
0.00864556
0.00561732
0.00554449
0.011743
0.00781233
0.0180549
0.00986478
0.00134157
0.000331451
0.0123676
0.0127507
0.0053211
0.00862531
0.002492
0.00928708
0.0140864
0.0141511
0.0103903
0.00668965
0.00188173
0.00743112
0.0126315
0.00188872
0.00291774
0.00643421
0.00187649
0.0112064
0.00651105
0.00504662
0.00126733
0.00105345
0.0070608
0.00199584
0.00422656
0.00736286
0.018436
0.00255175
0.00206631
0.00418435
0.00263679
0.0111886
0.0091506
0.00562405
0.0191347
0.0131092
0.0018513
0.0127109
0.0195027
0.0165005
0.00897006
0.00155423
0.00178918
0.0177428
0.00951839
0.011875
0.00820616
0.00978886
0.00966128
0.00580035
0.0120274
0.0119658
0.00399179
0.0183239
0.00873887
0.015061
0.0149262
0.0067283
0.0108653
0.0133368
0.00578128
0.0184416
0.00773052
0.00280718
0.0143866
0.00888309
0.000464138
0.00673378
0.0143378
0.0141051
0.0110895
0.014189
0.0148056
0.00823368
0.00141646
0.0120804
0.000383257
0.0106762
0.0139792
0.0035554
0.0150978
0.00620803
0.0123193
0.0137472
0.00261602
0.00219434
0.00348443
0.00374593
0.0141856
0.0162214
0.015918
0.0156213
0.0156735
0.0155856
0.0158448
0.0162655
0.0154765
0.0163541
0.0158114
0.00217465
0.0122893
0.0020164
0.00196078
0.00166552
0.00173913
0.00146259
0.00172023
0.00411824
0.00392113
0.00357025
0.00143583
0.00200161
0.00199731
0.00195554
0.0019564
0.00499058
0.0162852
0.00199268
0.00247846
0.00440003
0.00135184
0.0154728
0.00169797
0.00308671
0.0014626
0.0016098
0.0147593
0.00149821
0.0139538
0.0011839
0.00103142
0.00133248
0.00578646
0.012542
0.0123234
0.00158653
0.00129574
0.00138485
0.00107992
0.00596623
0.00130839
0.012463
0.00101338
0.0010515
0.00565126
0.00139393
0.0011277
0.00146323
0.00119481
0.0121002
0.00101728
0.00141332
0.00147037
0.00460982
0.00174525
0.00158569
0.0113803
0.000985613
0.00246351
0.00946449
0.00443651
0.00148985
0.00122896
0.0108951
0.0123943
0.00227646
0.00120961
0.00135551
0.00218776
0.00184182
0.00475592
0.00175099
0.00243317
0.00113029
0.00276863
0.00977997
0.00215388
0.00514699
0.0119279
0.00394238
0.0022539
0.00331512
0.00332357
0.00516262
0.00498432
0.0098955
0.00218569
0.00201128
0.000514519
0.00952305
0.0065109
0.00925144
0.00613172
0.0151237
0.00658434
0.0020987
0.00176519
0.00461384
0.00209797
0.0148162
0.00155962
0.00515017
0.00415515
0.00392985
0.00271046
0.0073974
0.00159921
0.0150474
0.0141449
0.011693
0.00130023
0.00591718
0.0130634
0.0012961
0.00416891
0.005321
0.00955096
0.00165973
0.0066876
0.0142485
0.0100393
0.0162626
0.00716279
0.0094913
0.00370592
0.00287827
0.00384223
0.0141015
0.00817351
0.0132233
0.00973445
0.0166498
0.0020562
0.00063551
0.00974546
0.00392004
0.00172755
0.0167681
0.0161473
0.0135798
0.00811781
0.00419718
0.0122349
0.0127205
0.00304435
0.00247382
0.00567954
0.000769123
0.00317894
0.0161035
0.00157901
0.00881503
0.00860317
0.00342527
0.0155339
0.00488518
0.0119996
0.0163931
0.0135852
0.0016779
0.00847549
0.0135846
0.0052657
0.0107441
0.00799441
0.00186969
0.0132036
0.00186496
0.00209894
0.00451866
0.00513142
0.0118011
0.0168405
0.00571099
0.00792567
0.00468734
0.00544977
0.0136965
0.0123825
0.0132961
0.0100694
0.00059876
0.012544
0.00774177
0.00659091
0.0149062
0.00248997
0.0117716
0.00370218
0.0109813
0.00808637
0.000332962
0.0168459
0.0129222
0.0116399
0.00980983
0.00618446
0.00462976
0.00712582
0.00612967
0.0173868
0.00519441
0.013501
0.00160018
0.00766659
0.0100587
0.0100398
0.00430706
0.0114675
0.0140896
0.0104307
0.0015679
0.0123197
0.00246091
0.00887413
0.00740393
0.00697332
0.0109584
0.0142471
0.0177987
0.0145421
0.0117778
0.0099735
0.00990454
0.00393305
0.00253237
0.0084028
0.00945162
0.00170695
0.0134551
0.0121844
0.00171641
0.0161175
0.0140494
0.0034044
0.00174089
0.00583258
0.00497394
0.00613894
0.00784509
0.00291247
0.01143
0.00171202
0.000819132
0.00119093
0.01614
0.00524864
0.00240752
0.00107136
0.00582425
0.00279076
0.00505437
0.00098286
0.000787734
0.0148785
0.00152206
0.0042318
0.000690368
0.0126616
0.00131474
0.011893
0.014
0.000889372
0.0016694
0.00180588
0.00147113
0.00141327
0.00884272
0.0115105
0.00672303
0.0014374
0.00312645
0.00321779
0.00103592
0.00481005
0.0142527
0.00336234
0.00362405
0.00512371
0.00533564
0.00245766
0.0124386
0.0127407
0.000651232
0.00831484
0.00412385
0.0136619
0.00362898
0.00477969
0.00130765
0.0156708
0.0145859
0.00487824
0.00671685
0.00302539
0.00514213
0.00164879
0.00169401
0.0055267
0.00074902
0.00784497
0.00508893
0.00442719
0.0163357
0.00738096
0.00475726
0.00143579
0.00561827
0.00117566
0.00432143
0.00538662
0.00836622
0.00122135
0.0160747
0.0056005
0.00670337
0.00155258
0.00852074
0.000366513
0.0181167
0.00588799
0.00337989
0.00175546
0.0017445
0.00288975
0.00140972
0.00176655
0.0136078
0.00363616
0.0117683
0.00237796
0.00504232
0.00547027
0.00624035
0.00913858
0.00065926
0.00398577
0.0124624
0.00188102
0.0119084
0.000789741
0.0122592
0.0015165
0.00116733
0.0107229
0.00665805
0.0110696
0.00221814
0.0104081
0.00567381
0.00185554
0.00237874
0.0135274
0.00237716
0.000637567
0.00511315
0.00268474
0.00468576
0.0135158
0.00232402
0.00553436
0.00154254
0.0162383
0.0165386
0.0120087
0.00248294
0.0098907
0.00363717
0.00645886
0.0178373
0.00357069
0.00710301
0.01093
0.0103759
0.0171984
0.0159996
0.00250241
0.0140049
0.00584824
0.00170892
0.00536748
0.0108997
0.0159122
0.00124175
0.000758831
0.00792991
0.00192906
0.00237994
0.000835546
0.0147977
0.00176125
0.0016252
0.00225342
0.0102555
0.0138694
0.00296765
0.0146637
0.0144246
0.0037715
0.0132654
0.00129448
0.00129738
0.00236209
0.0123234
0.0172203
0.000942269
0.0178098
0.00451548
0.0172641
0.00280403
0.00198743
0.00802367
0.00380305
0.00111125
0.000613976
0.00614306
0.00531912
0.00116933
0.0010085
0.00320326
0.0114345
0.0059739
0.00782838
0.0163438
0.0120644
0.0165132
0.000999367
0.0135676
0.0126571
0.0164323
0.0111964
0.0121221
0.00126832
0.00369026
0.00154316
0.00217193
0.00192043
0.011277
0.00377528
0.0129197
0.00367189
0.00435969
0.00330822
0.0127112
0.0146829
0.0070542
0.000859841
0.000827149
0.000795263
0.000691425
0.000734802
0.00099866
0.000813942
0.000583002
0.000693178
0.000621011
0.000632976
0.000723156
0.0010968
0.000714338
0.000658745
0.000664953
0.000752064
0.000766131
0.000722321
0.000748649
0.000688109
0.000695514
0.000723067
0.000720424
0.0161881
0.0139682
0.00136587
0.00985175
0.00739544
0.00448768
0.00235965
0.00736106
0.00233604
0.00213527
0.00326748
0.0014893
0.00144115
0.0164347
0.00503986
0.001693
0.0154461
0.00454032
0.0168125
0.00356703
0.00298013
0.0182145
0.00130381
0.000730404
0.011944
0.0107852
0.000652598
0.00212971
0.0101728
0.00169088
0.00426018
0.0156298
0.00618579
0.00688725
0.0108796
0.00918736
0.00159191
0.000683824
0.00226007
0.00340722
0.0119566
0.000945493
0.000729095
0.0105793
0.0107856
0.00190739
0.00417659
0.00182616
0.00182383
0.00058087
0.0101466
0.0154794
0.0114579
0.00204878
0.00131803
0.00503349
0.00544743
0.000670639
0.00289948
0.000629114
0.0109038
0.00257062
0.00144582
0.00155084
0.00340237
0.00123786
0.0158451
0.00173276
0.0158159
0.0135909
0.00265161
0.000706604
0.0108191
0.0134821
0.0180303
0.00160257
0.000948992
0.00560415
0.0028587
0.00104513
0.0128987
0.00252774
0.00718333
0.0129936
0.000699855
0.0135253
0.00312786
0.0026815
0.00517868
0.0033695
0.00276108
0.00329773
0.00353434
0.00444409
0.0161299
0.00119915
0.0098048
0.00515699
0.00144421
0.00436953
0.00281686
0.00225106
0.00084796
0.0124995
0.0101317
0.0113836
0.00104554
0.0122365
0.0112
0.00804955
0.00705478
0.00159743
0.000756012
0.000698094
0.00438232
0.0136916
0.014959
0.000726343
0.00831576
0.00197691
0.0156572
0.0113352
0.00436693
0.00292358
0.00267107
0.0122808
0.00184754
0.00646205
0.010434
0.0115774
0.000585417
0.00352712
0.000515387
0.0100421
0.00719753
0.00214757
0.0125626
0.0111182
0.0122202
0.0102851
0.00476565
0.0129813
0.00465227
0.00125511
0.00198105
0.00556677
0.00300394
0.0123489
0.0124815
0.010324
0.0153837
0.0125024
0.0153147
0.000886444
0.00115445
0.0168103
0.00201121
0.0124026
0.00226935
0.0142567
0.0160397
0.00197053
0.000710111
0.00183917
0.00172838
0.00168689
0.00225491
0.0019964
0.00190387
0.00182747
0.00192164
0.000287017
0.000414221
0.000346445
0.000291581
0.00025154
0.000351128
0.013453
0.00316072
0.0142684
0.00238515
0.00963736
0.00071483
0.00245311
0.0158385
0.00136135
0.00234376
0.011198
0.000926531
0.00281887
0.00669399
0.000673224
0.00178104
0.00199685
0.00980006
0.0161694
0.00301759
0.0122129
0.00354338
0.00234087
0.0114839
0.016429
0.00295166
0.00134821
0.00389267
0.0134704
0.001328
0.00607456
0.00706876
0.00117259
0.0109862
0.000954459
0.00297218
0.00494681
0.000643783
0.00433996
0.00181594
0.000968607
0.00406299
0.00149832
0.00119915
0.0146163
0.0109402
0.000939955
0.00426365
0.00816308
0.00354679
0.00119857
0.00585537
0.01066
0.00717965
0.00757812
0.00332718
0.00147782
0.00468113
0.0057569
0.00224822
0.0128238
0.00364035
0.00381132
0.012126
0.000670515
0.00249996
0.00291809
0.00112307
0.0103297
0.00456672
0.0122423
0.00583657
0.00199854
0.00936725
0.0167148
0.00232068
0.00864896
0.00155052
0.00110265
0.00139285
0.00177864
0.00286277
0.001154
0.0132869
0.0145644
0.00103892
0.00468678
0.0112397
0.00353729
0.0133932
0.0013041
0.00365352
0.00671506
0.00355014
0.0126384
0.00133084
0.00438725
0.0070368
0.00515789
0.0128196
0.00142401
0.000575556
0.00186959
0.00338435
0.00845724
0.0125784
0.00490598
0.0118118
0.00916208
0.00205656
0.0171052
0.00170508
0.00441928
0.00562784
0.00271117
0.00158241
0.0111731
0.0035768
0.00123579
0.00287751
0.0105966
0.00222201
0.0156521
0.0105744
0.00542667
0.00315824
0.00148046
0.000695272
0.0112925
0.00367936
0.0136733
0.00793232
0.013224
0.0148267
0.0116843
0.00182397
0.00280951
0.00207683
0.00153647
0.0118202
0.00190745
0.0119928
0.019644
0.00219926
0.0049278
0.0118077
0.00875192
0.0116939
0.000956303
0.00229626
0.00669635
0.00207011
0.00273371
0.00492625
0.00432041
0.00600816
0.00196271
0.0086784
0.00309949
0.00437304
0.0118
0.0086434
0.00933679
0.00656164
0.00911326
0.0059457
0.0116678
0.0123883
0.00403912
0.00169944
0.00332666
0.00329681
0.00402243
0.0117509
0.00741365
0.0120045
0.0121997
0.00125157
0.00226933
0.0025134
0.0117336
0.00172575
0.00189919
0.0120402
0.0150364
0.0106569
0.00200198
0.0121604
0.0128575
0.0118474
0.00688834
0.00336886
0.000690032
0.000658727
0.00168202
0.00331812
0.00224027
0.00245979
0.00313286
0.0158631
0.0101778
0.00128786
0.00530614
0.0142367
0.00404053
0.00244569
0.00272299
0.00226687
0.0148357
0.00759843
0.00161192
0.00128819
0.0191616
0.0108835
0.0135887
0.00154527
0.00324464
0.00382761
0.0057875
0.0105352
0.0015108
0.00381942
0.00344134
0.0186896
0.000469467
0.00737541
0.0127713
0.00132397
0.00365764
0.00709447
0.011697
0.0134584
0.00194114
0.00415092
0.00133263
0.0075315
0.00159953
0.00191986
0.00842123
0.00250411
0.00910746
0.00110407
0.0143233
0.000934988
0.000991871
0.000552335
0.00670121
0.00492313
0.00309182
0.00146484
0.0149057
0.00249666
0.00367784
0.00344938
0.0105311
0.00254134
0.00227278
0.00254183
0.00266339
0.0038309
0.0102458
0.0184157
0.00384915
0.011448
0.00250045
0.0016843
0.00171223
0.00236735
0.00232965
0.0111168
0.00313282
0.00181001
0.00199109
0.00240066
0.0119451
0.00236301
0.00150801
0.00248656
0.00270518
0.00247179
0.00508124
0.0112298
0.00428612
0.00325134
0.00192922
0.0022281
0.00288728
0.00170581
0.00078798
0.0111395
0.00926445
0.00235696
0.00284613
0.00310265
0.00143192
0.00129022
0.00283328
0.00124055
0.00124875
0.00212673
0.00197155
0.00115139
0.00340711
0.0155976
0.00227879
0.00218821
0.0150992
0.00347111
0.0103493
0.0120458
0.00314505
0.00230077
0.00135103
0.000974928
0.003805
0.000721161
0.00441731
0.00112833
0.00043679
0.000357448
0.00171872
0.000339012
0.000731544
0.000481271
0.00230912
0.00302178
0.00175438
0.00194818
0.000753894
0.00133457
0.0009371
0.00104649
0.00159845
0.000696595
0.000752419
0.00164919
0.00152171
0.000743164
0.000354132
0.00149838
0.00178784
0.00101455
0.000859684
)
;

boundaryField
{
    frontAndBack
    {
        type            empty;
    }
    wallOuter
    {
        type            nutkWallFunction;
        Cmu             0.09;
        kappa           0.41;
        E               9.8;
        value           nonuniform List<scalar> 
96
(
0.000101376
8.7952e-05
8.20568e-05
0.000196392
0.000198985
0.000195934
0.000127771
0.000118144
9.61564e-05
0.000176361
8.48201e-05
0.000154141
0.000107751
0.000205857
0.000164731
0.00018982
0.00019404
9.0148e-05
8.13286e-05
0.000138293
7.86273e-05
0.00014631
9.12469e-05
0.000201678
0.000186751
0.000102693
9.88988e-05
9.52086e-05
8.31568e-05
8.82176e-05
0.000118293
9.74139e-05
7.07344e-05
8.36861e-05
7.52289e-05
7.66749e-05
8.70889e-05
0.000129179
8.62409e-05
7.97364e-05
8.04033e-05
9.0655e-05
9.19444e-05
8.68964e-05
9.02895e-05
8.29303e-05
8.37947e-05
8.73405e-05
8.66999e-05
8.78818e-05
0.000112131
8.81022e-05
8.09553e-05
7.78065e-05
0.000167566
8.43517e-05
0.000140415
9.05889e-05
8.44517e-05
8.77839e-05
0.000210722
7.25515e-05
6.40712e-05
0.000241606
0.000227623
0.000254308
0.000223405
8.5567e-05
0.000209754
0.000198038
0.000193613
0.000252802
0.000226
0.00021631
0.000208435
0.000218146
3.5557e-05
5.15815e-05
4.29657e-05
3.65656e-05
3.09376e-05
4.38382e-05
8.6434e-05
8.3075e-05
7.80772e-05
8.12328e-05
0.000165284
8.5683e-05
0.000216976
0.000216082
8.29603e-05
7.98029e-05
5.84435e-05
0.000220083
0.00013026
6.8557e-05
)
;
    }
    inlet
    {
        type            calculated;
        value           nonuniform 0();
    }
    outlet
    {
        type            calculated;
        value           nonuniform List<scalar> 9(0.018436 0.0177428 0.00186969 0.0160747 0.0120087 0.00705478 0.00214757 0.00354679 0.01066);
    }
    wallInner
    {
        type            nutkWallFunction;
        Cmu             0.09;
        kappa           0.41;
        E               9.8;
        value           nonuniform List<scalar> 
126
(
0.000207049
0.000133323
0.000197499
6.51131e-05
6.11902e-05
5.80181e-05
3.38248e-05
4.87995e-05
0.000118627
6.4855e-05
0.000117484
0.000148611
0.000421157
0.0001336
8.65409e-05
9.78287e-05
0.000171887
0.000129701
9.53168e-05
4.77873e-05
6.75998e-05
0.000104292
0.000200112
0.000101836
0.000108812
0.000162207
0.000158098
0.000100303
8.80418e-05
4.85064e-05
0.00015826
0.000205113
0.00025751
0.000147643
0.000298423
5.03034e-05
9.66615e-05
0.00015763
0.000114996
4.37828e-05
4.38171e-05
0.000175726
9.63766e-05
6.77864e-05
0.000148181
0.000147159
9.43393e-05
0.000313381
5.15185e-05
0.000148442
0.000179922
8.98028e-05
0.000228049
8.17718e-05
0.000113544
0.000167271
7.90761e-05
0.000213875
0.000165706
0.000118606
3.8665e-05
4.22744e-05
6.0413e-05
0.000162356
7.59718e-05
7.18489e-05
0.000132066
0.000156526
4.03422e-05
0.000213634
0.000147821
0.000124248
5.62653e-05
4.62059e-05
0.000140503
0.00012959
6.24554e-05
0.000201234
0.000176007
0.00018355
0.000148371
0.00019009
7.20078e-05
0.000198136
8.67276e-05
0.000182122
0.000191592
6.9329e-05
3.93123e-05
0.000184485
0.000181193
0.000191959
0.000170808
4.37777e-05
0.000148788
0.000218551
6.89212e-05
0.000226636
0.000110493
0.000117285
0.000157026
0.000116633
8.20552e-05
0.000125724
5.0972e-05
4.31375e-05
4.04406e-05
5.84483e-05
0.000256725
0.000330592
0.000199817
0.000220421
9.02926e-05
0.000111735
0.000122697
0.000184799
8.4247e-05
8.99478e-05
0.000189208
0.000176119
9.08446e-05
4.23666e-05
0.000172839
0.000205546
0.000121382
0.000102664
)
;
    }
    procBoundary3to1
    {
        type            processor;
        value           nonuniform List<scalar> 
48
(
0.0114494
0.00459021
0.00564647
0.0092962
0.00351067
0.00346211
0.00459021
0.0116855
0.0157096
0.00172758
0.00172758
0.00172084
0.00172084
0.00254111
0.00321501
0.00157942
0.00137814
0.00141598
0.00137814
0.00157104
0.00175613
0.00165761
0.00157104
0.00193475
0.00140354
0.00151207
0.00317127
0.00165761
0.00579847
0.00140794
0.00140794
0.00921364
0.00921364
0.0157096
0.00161537
0.00296923
0.0139779
0.00140354
0.0137451
0.0030929
0.00254111
0.0155701
0.016172
0.00157104
0.00346808
0.00101526
0.0034912
0.00205129
)
;
    }
    procBoundary3to2
    {
        type            processor;
        value           nonuniform List<scalar> 
29
(
0.00167614
0.00167614
0.000535576
0.000568862
0.000814328
0.000561857
0.000618118
0.00183002
0.00263981
0.00209409
0.00129404
0.00169848
0.00113958
0.00270535
0.00144206
0.0024542
0.00183153
0.00239959
0.00170234
0.00207158
0.00183333
0.00183153
0.000275846
0.00239959
0.000989121
0.000941741
0.00239959
0.00316498
0.00316498
)
;
    }
}


// ************************************************************************* //
