/*--------------------------------*- C++ -*----------------------------------*\
| =========                 |                                                 |
| \\      /  F ield         | OpenFOAM: The Open Source CFD Toolbox           |
|  \\    /   O peration     | Version:  v1912                                 |
|   \\  /    A nd           | Website:  www.openfoam.com                      |
|    \\/     M anipulation  |                                                 |
\*---------------------------------------------------------------------------*/
FoamFile
{
    version     2.0;
    format      ascii;
    class       volScalarField;
    location    "0.58";
    object      p;
}
// * * * * * * * * * * * * * * * * * * * * * * * * * * * * * * * * * * * * * //

dimensions      [0 2 -2 0 0 0 0];


internalField   nonuniform List<scalar> 
1431
(
100.987
95.4653
98.38
95.1558
92.2464
93.8117
96.8326
34.717
98.6201
96.7498
45.3701
40.7189
100.291
86.7147
93.6607
96.7273
87.8559
100.061
90.2862
99.2337
40.9082
86.1827
99.7382
21.4393
98.6132
100.389
51.112
94.3683
99.7945
87.6605
89.7375
98.9241
90.043
88.0905
95.287
96.2751
98.9929
99.8217
96.633
97.8408
98.7754
98.9075
100.429
96.6927
90.8298
97.4067
89.0203
55.2234
96.8564
99.5227
95.2944
96.6126
96.024
50.0432
96.0315
96.8233
94.9984
44.689
87.2192
95.2502
95.5865
96.8106
99.4782
99.6638
96.6792
96.9265
94.4985
99.2832
98.8217
88.6103
43.4228
87.6777
96.0062
88.2402
86.6798
96.7631
97.0838
99.3463
96.7443
99.5288
87.3795
97.4652
91.6795
89.5448
40.9263
94.5648
94.6353
94.4507
50.614
73.0651
95.9873
94.7874
99.9051
96.6618
96.591
90.2419
40.9423
91.1628
96.7524
97.2152
96.7427
96.8292
86.8245
97.0138
99.3609
88.2904
98.8693
54.2584
97.0984
86.2744
96.3582
99.9495
99.0461
98.3714
96.1624
93.8097
87.1932
95.5345
94.7168
99.536
90.6665
94.0484
51.394
87.1837
40.0006
96.6015
97.9204
91.6154
98.2018
95.2872
88.7685
99.8397
94.9796
90.263
99.7229
99.2844
99.4512
96.8355
47.5669
100.028
96.6281
89.5083
87.0734
98.306
103.165
90.0696
99.3154
96.7644
96.6789
96.9426
99.3849
99.0489
98.1607
94.4546
98.456
99.7488
48.3424
93.5767
83.625
94.4723
64.7996
100.242
95.3019
94.595
52.2283
99.1343
97.8002
96.8359
99.6069
94.6996
63.8361
96.7177
95.0949
49.4393
95.1933
47.1016
94.7707
92.4528
95.9453
95.1365
96.8226
96.5944
94.0726
25.129
93.4031
98.0694
48.7423
94.353
94.0476
49.0308
89.9402
95.9484
97.9115
57.0412
94.9726
90.8107
89.5557
92.9805
98.6245
98.281
94.7539
95.1351
67.4038
94.7861
99.4588
89.6718
98.7988
98.872
50.4327
97.8976
34.3378
95.4645
98.9567
88.4833
43.2697
97.1804
98.2678
91.9038
94.101
72.1967
98.8835
94.2407
95.3902
94.7719
98.4522
47.0344
68.5211
93.3131
98.6807
69.8676
32.8699
89.7712
89.6182
97.4805
98.8896
75.3553
99.0287
90.9816
90.5869
94.5305
94.5635
93.6624
49.3856
91.7091
95.1706
89.4235
92.8607
60.929
99.3447
99.6773
91.5791
48.8072
94.5249
95.8639
89.7978
99.4871
94.6098
42.5913
83.2811
98.0162
98.6902
49.6577
93.9857
94.6455
98.8845
76.9192
98.2467
58.4522
60.4235
94.1828
98.4547
98.8538
95.5016
94.4176
57.7586
94.2511
52.4591
86.9769
89.4625
99.1651
96.5839
99.7902
90.2146
95.7666
95.4626
89.7372
99.3013
87.8376
46.7082
94.816
98.7789
98.7549
91.7974
96.6082
73.7807
98.68
47.6653
98.4223
97.1603
88.4353
96.3948
99.1989
95.3164
98.9214
92.4867
94.7237
94.6015
97.0731
99.2708
95.6284
87.0875
96.312
96.7909
56.3744
98.1074
90.061
93.6816
95.7689
97.6793
33.461
93.8765
91.2396
97.4804
96.4852
94.7641
98.6639
97.3747
98.2555
56.1128
95.5625
85.426
98.536
98.484
86.1459
94.493
99.5579
98.7696
80.8952
94.4681
54.3841
99.3958
99.8912
81.0648
98.5049
97.6346
91.2317
95.1301
50.6159
86.9457
96.9924
92.5048
97.5228
96.5917
92.2897
96.5396
94.2529
37.9377
34.4383
47.8991
99.0128
86.2129
98.5756
86.0265
95.0779
98.2413
40.2812
98.3362
12.2049
99.4826
88.295
56.1143
91.3331
55.6265
93.9468
99.2908
51.4856
92.7536
94.3679
99.56
48.1545
100.137
93.81
93.4685
97.0093
13.0856
97.3724
94.8427
97.4452
93.5325
94.0247
94.6836
95.4161
95.6258
94.8678
77.8558
96.8854
99.0838
99.605
97.9258
95.2375
90.3515
99.2891
85.7816
99.4036
96.8224
98.3146
94.5767
93.5171
95.1761
97.8076
90.5429
94.5894
97.3516
100.123
97.2685
97.572
92.4468
93.094
93.9548
97.0028
99.633
100.363
95.2752
92.1961
96.7473
91.4156
98.6724
91.0175
98.9831
31.5298
99.6198
99.5006
99.6107
99.0089
99.3619
99.7606
99.6106
100.079
100.082
100.016
94.0782
44.6666
96.6647
97.5534
97.4124
97.3034
97.2563
97.6861
89.0424
87.1687
87.8144
99.4064
96.8535
92.8195
96.8348
96.8302
86.4584
52.0847
93.3095
95.5592
86.5472
99.3809
51.4665
96.8177
94.3624
99.3482
93.7114
50.5689
99.3364
46.7785
96.7211
96.6527
96.8759
86.0583
46.2544
45.9519
99.2313
99.5189
97.0966
96.6199
86.1502
96.9658
45.2644
96.4827
96.9301
86.2806
98.6251
97.0806
97.9259
99.4987
43.3566
96.5293
98.3946
99.727
87.4699
98.886
98.6907
41.0355
96.587
95.2111
99.4992
100.216
96.2312
99.5621
41.2476
46.8858
97.212
96.5614
96.6995
93.2811
99.9706
90.3599
98.2605
98.7178
99.3362
95.8552
99.4821
99.7953
89.8833
44.4089
89.4144
96.7022
94.4564
95.0542
100.031
94.6986
39.8775
97.3897
93.6187
93.7099
94.963
96.7787
100.271
92.4101
99.8772
99.159
93.6171
93.3837
99.5239
91.8905
98.3279
99.8589
98.4845
96.7359
95.6077
93.9049
94.073
82.0095
98.782
99.5574
94.03
99.6845
98.9327
96.18
99.4521
90.9892
94.5663
99.6005
87.5329
54.4142
99.6903
43.719
86.5985
96.627
39.3026
95.8003
93.8727
94.6659
99.7619
99.3805
96.793
72.8266
100.085
96.4221
95.4398
91.7684
95.0307
95.8975
99.7953
99.2889
96.9736
78.6833
90.502
91.4367
90.6674
98.9653
90.5403
96.3767
94.611
93.5598
99.7916
96.7358
95.835
94.1843
99.6442
99.7427
88.1992
94.4563
93.0766
50.2095
72.2208
99.6572
96.5967
96.711
86.1718
94.0723
20.9595
87.4208
94.3308
97.9638
94.8499
96.9266
96.0885
99.9775
96.5154
97.8242
44.1906
94.4598
99.6403
94.8723
96.0524
94.3191
95.9638
95.9021
97.3074
87.9241
99.6784
92.0931
83.6217
94.2959
98.2279
96.9584
96.7716
100.097
96.749
90.2851
36.3838
94.8414
96.4428
94.364
97.4868
85.5823
94.3938
96.1139
97.0139
97.8357
89.0035
94.2382
34.5376
93.3947
99.6811
98.9037
95.0921
88.6463
98.3614
94.8233
98.9713
83.4481
99.3631
56.1626
71.4586
99.3835
100.258
96.6599
99.8619
93.5234
98.9659
99.274
96.5128
97.7078
96.6399
96.8717
40.1992
100.156
99.6527
88.739
35.1268
86.0275
91.9719
94.7386
94.9367
94.6981
93.1635
43.8121
99.3547
95.8431
99.9213
97.1419
94.8449
98.3864
94.2934
98.811
98.4386
97.89
96.7368
99.7023
96.1129
90.0751
96.2055
81.2478
98.5014
92.3368
97.3471
97.316
98.2118
28.3062
94.9241
97.6489
94.0226
96.7417
96.9915
93.5646
90.2133
99.6689
98.9436
99.6581
99.9107
96.1257
94.2863
97.0923
98.6244
89.3446
47.6257
97.2105
98.9349
97.8091
93.3127
100.384
56.2049
55.3088
99.5516
94.6061
99.4549
94.4259
95.0665
99.2892
98.6895
93.761
45.3172
94.4595
95.3726
97.2948
94.5532
92.0366
99.9286
95.6897
86.114
94.9768
95.8791
96.8233
98.845
94.3815
96.242
96.7716
10.7351
94.8486
99.0102
97.7941
95.2822
92.4102
35.7885
94.4634
100.462
96.8301
93.9567
98.8066
96.7116
96.7896
96.9593
94.3941
100.22
89.1815
93.7071
98.6814
97.7196
94.7513
95.2989
96.2787
98.7716
96.9669
92.8506
99.3992
96.862
99.315
98.7242
47.6369
93.2552
94.7219
95.6908
94.2583
93.587
98.4087
98.8366
98.9007
97.3056
95.7253
94.4159
91.2117
94.7132
98.886
97.9905
86.1285
94.8521
99.5116
99.9254
18.5523
97.0652
96.5543
95.9413
93.046
54.5469
94.969
94.3142
46.2189
99.4688
52.7707
99.7539
92.6291
99.9024
97.4481
98.3015
90.7618
96.7657
99.9691
98.8045
95.61
99.3111
89.4777
92.9924
96.5928
99.8096
90.5214
43.9076
96.5635
93.7203
51.6653
89.8065
99.2639
97.9313
96.2093
97.7754
99.8763
99.5992
97.4784
96.2998
69.6239
99.3662
54.3149
96.6037
79.6999
99.4382
89.2753
99.0672
94.0145
95.3403
99.3232
95.5319
99.6429
97.6834
99.4074
93.8364
93.1828
97.2337
94.0518
100.238
97.9189
100.141
96.5708
50.5095
96.8882
99.9353
53.461
98.9606
94.2599
86.7549
94.0139
96.8916
98.98
97.2386
96.1994
44.0725
94.3774
97.0194
34.7805
58.6562
46.9791
33.7806
62.931
98.8211
98.5996
98.5529
98.5221
56.4599
99.1218
91.7083
94.8281
93.3718
90.419
68.6201
49.1876
89.7829
78.138
73.4382
90.0624
99.1665
98.8657
90.6391
98.486
98.2032
90.736
98.0074
100.023
79.0664
99.4321
99.4487
95.6743
86.3325
88.6767
36.3999
99.3241
86.1071
86.3415
95.695
96.0264
51.6065
88.0938
98.5062
79.4051
93.7061
100.139
88.4692
94.6663
52.7611
94.0357
97.9315
94.8912
93.7782
94.2969
96.7698
48.197
98.0544
86.6398
100.279
98.8797
96.3852
97.58
56.7364
99.2546
96.6631
95.2022
95.1311
96.7211
99.9336
88.7606
99.5107
95.374
99.4231
87.3677
93.2968
99.0356
96.2213
48.0397
99.5453
95.645
95.4617
96.8282
86.2717
94.3561
97.1852
90.7725
94.7916
96.0857
89.6221
41.2011
98.1623
86.6275
99.3399
99.6087
96.8445
30.7748
97.3172
96.5382
96.6306
37.5092
98.2017
85.8468
96.7717
96.4122
94.3843
90.5933
98.654
96.4124
89.6776
58.9776
38.3834
97.7478
97.6349
95.4212
91.5398
86.9499
99.4638
90.4983
92.8044
99.7069
93.3963
99.4571
39.3614
99.7613
94.3107
99.3782
88.6609
99.9672
89.713
97.2959
95.5326
93.939
94.3433
98.6061
94.8236
93.9543
28.929
19.7838
96.8843
99.2003
85.743
94.5647
98.7954
48.1628
89.0755
96.342
90.0301
72.8936
46.8279
94.307
88.4471
98.6563
94.9075
86.4308
49.0246
99.5201
93.6589
94.7481
52.459
94.8268
98.549
94.1749
8.44396
99.8001
37.7741
58.2298
98.745
99.2387
96.2538
94.5731
100.077
94.8285
94.352
94.9284
95.4742
99.8636
95.7638
99.6027
99.495
66.1995
99.3701
96.886
100.065
52.7551
97.3861
51.6969
99.5946
100.019
54.0196
96.2978
71.2901
66.478
61.819
50.0464
50.1605
49.4572
57.3463
50.6068
96.0446
95.0924
95.1836
95.7996
95.6018
95.522
98.3914
89.064
99.6097
91.8967
98.8355
88.9866
95.2888
99.3488
99.4857
96.8674
96.3931
96.5758
98.4648
97.2366
94.8676
95.9732
92.5048
97.1789
99.2287
99.58
95.8253
81.5256
94.3737
93.3857
48.7882
98.92
96.9507
95.2655
96.617
99.6725
94.6021
35.828
99.4799
98.4317
95.7398
90.8905
94.555
89.642
86.6202
93.0016
96.0486
86.635
99.3282
98.443
95.8687
99.6068
99.289
87.7278
96.425
17.9408
99.5446
44.5449
8.96633
95.8639
46.8366
87.6499
93.9362
93.5669
40.4141
94.712
95.7522
100.162
74.8294
99.478
89.1779
97.3197
90.8194
96.5959
99.2634
96.7209
96.6252
61.0361
36.7672
19.0772
92.634
92.691
94.4262
99.2851
94.3413
97.0115
96.5939
86.9092
98.5725
46.6085
98.7826
96.6746
40.1559
95.7172
86.754
99.7679
96.6658
99.7513
84.4694
65.8457
95.6576
99.4646
92.1887
99.6498
46.7629
99.4752
46.3975
96.7096
99.0634
88.2273
34.5908
88.0972
99.4512
99.2239
98.5752
95.7447
53.2227
91.8425
93.1316
86.7834
86.8915
99.7593
99.4399
95.311
89.2309
94.9482
52.5012
87.6084
99.7329
100.425
86.5697
95.2616
97.3065
95.0169
94.3084
89.4371
99.533
45.6952
96.1078
100.011
95.3486
93.0548
95.8543
87.7556
99.6293
96.2044
81.6081
94.0914
31.6374
98.1391
96.2912
93.2004
62.1258
93.0717
96.7999
95.5617
100.244
97.4893
96.9468
98.7207
99.8309
100.043
88.8992
94.198
88.0193
94.8877
94.577
54.0287
99.2806
56.9603
97.6913
98.1019
94.7026
95.7855
87.9977
94.1302
99.3465
87.3309
95.0612
93.6788
34.4033
94.0706
94.4963
99.3489
95.0916
90.0245
93.653
97.153
76.4607
99.0823
99.4017
48.5078
88.5861
95.2737
96.4654
96.6394
93.792
99.079
98.7356
82.5516
89.57
92.89
87.8574
89.3048
98.8822
49.6034
96.66
98.1217
86.1149
98.5081
56.9917
90.33
97.567
91.5831
53.6438
100.43
96.3741
99.4087
41.2498
94.9877
99.3152
99.3041
93.6326
41.6471
96.7697
49.7861
94.3181
94.2475
95.562
55.7573
94.9439
34.0637
78.5101
99.4706
99.5793
91.4497
46.125
99.4076
18.104
95.8687
98.3165
97.6217
99.1363
92.1444
65.683
94.6458
97.7084
42.5952
57.7722
99.6073
89.2605
94.7533
49.632
94.2647
88.453
94.7227
54.5274
96.8915
95.1708
100.259
96.0978
88.2318
98.1195
91.2602
95.6424
94.2548
59.0879
55.3157
94.221
94.5473
90.929
99.2742
97.4398
98.3906
86.8296
97.3928
95.704
91.999
90.8105
98.8374
67.6354
98.6613
95.2187
98.9954
77.6954
95.4928
94.2702
97.9081
86.8568
94.7665
89.8422
91.642
98.839
95.012
95.4454
62.7219
49.2637
90.4888
96.6706
94.9624
97.1275
99.4518
99.4833
99.3088
99.274
94.3573
93.8912
93.1864
95.4479
58.9203
99.146
82.7688
99.1507
89.2389
46.1449
94.7887
95.48
88.1862
92.8692
96.3253
34.7035
100.184
100.353
99.1024
98.4507
96.6096
96.4909
95.7471
94.9537
94.3305
25.9264
55.5893
88.2578
109.414
88.074
90.1557
88.8345
98.2142
108.824
94.9054
98.3945
102.13
105.251
96.1825
99.3653
89.2618
96.7585
95.2741
93.1263
)
;

boundaryField
{
    frontAndBack
    {
        type            empty;
    }
    wallOuter
    {
        type            zeroGradient;
    }
    inlet
    {
        type            zeroGradient;
    }
    outlet
    {
        type            fixedValue;
        value           uniform 0;
    }
    wallInner
    {
        type            zeroGradient;
    }
    procBoundary3to1
    {
        type            processor;
        value           nonuniform List<scalar> 
48
(
99.1783
98.6876
98.8332
98.7014
99.081
97.1412
98.6876
99.3169
99.0663
93.5156
93.5156
93.3366
93.3366
95.7037
94.2492
94.9353
98.3133
96.228
98.3133
98.7698
97.7887
98.4391
98.7698
97.7174
95.211
98.2772
98.8154
98.4391
98.9862
98.3815
98.3815
99.2575
99.2575
99.0663
98.5574
99.0557
99.2297
95.211
99.236
99.0688
95.7037
99.1283
98.9729
98.7698
93.3815
99.4077
98.7879
96.9483
)
;
    }
    procBoundary3to2
    {
        type            processor;
        value           nonuniform List<scalar> 
29
(
99.1219
99.1219
96.7676
97.0444
94.5366
99.3784
96.4703
99.3003
96.9403
96.9645
99.2856
93.7235
99.0569
96.2113
96.0976
96.2026
96.7857
96.8619
99.1916
96.0406
95.9796
96.7857
96.1945
96.8619
96.2138
96.7221
96.8619
93.0819
93.0819
)
;
    }
}


// ************************************************************************* //
