/*--------------------------------*- C++ -*----------------------------------*\
| =========                 |                                                 |
| \\      /  F ield         | OpenFOAM: The Open Source CFD Toolbox           |
|  \\    /   O peration     | Version:  v1912                                 |
|   \\  /    A nd           | Website:  www.openfoam.com                      |
|    \\/     M anipulation  |                                                 |
\*---------------------------------------------------------------------------*/
FoamFile
{
    version     2.0;
    format      ascii;
    class       volScalarField;
    location    "0.37";
    object      nut;
}
// * * * * * * * * * * * * * * * * * * * * * * * * * * * * * * * * * * * * * //

dimensions      [0 2 -1 0 0 0 0];


internalField   nonuniform List<scalar> 
1431
(
0.00500572
0.00652959
0.00154174
0.00172435
0.0010202
0.00265991
0.00186157
0.00330174
0.00516648
0.000988704
0.00291066
0.00407467
0.00724986
0.00134689
0.000715698
0.00141074
0.000968603
0.00121603
0.000961721
0.0017388
0.00360211
0.00308098
0.00430375
0.00528394
0.00478132
0.00546101
0.00264048
0.00108287
0.000926243
0.000747359
0.00220739
0.00270025
0.00211228
0.000793557
0.00433628
0.00408438
0.00958292
0.00088193
0.00270277
0.0024599
0.00584105
0.00800024
0.00629736
0.00212799
0.00126926
0.00114185
0.00146171
0.00250862
0.00204569
0.00232816
0.00484196
0.00214003
0.00544738
0.00465324
0.00632768
0.00401137
0.000496416
0.00447124
0.000829775
0.000840615
0.000737277
0.000999515
0.00115705
0.000957663
0.000867029
0.000512378
0.00104653
0.00138355
0.000745195
0.000846056
0.00193533
0.000738469
0.00101941
0.000490337
0.000988421
0.000642394
0.00103766
0.0015505
0.000832585
0.00111282
0.000863093
0.000909642
0.00529671
0.00161965
0.00270435
0.00450703
0.00131245
0.000864452
0.00427583
0.00502515
0.00107223
0.000673275
0.00102369
0.00132343
0.00523623
0.000712008
0.00426663
0.00641447
0.00207356
0.00127279
0.0058503
0.00110447
0.00133233
0.0012334
0.00190918
0.00266174
0.00327021
0.00248445
0.00326257
0.00114992
0.00103206
0.00758843
0.0036738
0.00494277
0.00653225
0.000793516
0.000886769
0.00123587
0.00113981
0.000928135
0.000885082
0.000676103
0.00150494
0.000848064
0.00126898
0.00102808
0.00125416
0.000860058
0.00330603
0.00313098
0.000659321
0.00113381
0.00442176
0.000978628
0.00187991
0.00260561
0.00380909
0.00128481
0.00445541
0.000561522
0.00122216
0.00217505
0.000744681
0.000738905
0.00361211
0.00201818
0.00122017
0.00594873
0.00116041
0.000853496
0.00157426
0.000901351
0.00261156
0.00130032
0.00363025
0.00205881
0.00382262
0.00485645
0.0052539
0.00400055
0.00544408
0.00768747
0.00181301
0.00247508
0.00169141
0.00475892
0.00437275
0.00564065
0.00149843
0.00661329
0.00581783
0.00638874
0.00237006
0.00448115
0.00618589
0.00369775
0.00373668
0.00182189
0.00527993
0.00441643
0.000573526
0.00279367
0.00463334
0.00659376
0.00178976
0.00140312
0.00137769
0.00580985
0.00268043
0.00320404
0.0024709
0.00275449
0.00288655
0.00263618
0.00110482
0.00437852
0.00566973
0.00358063
0.000758668
0.00191844
0.00540099
0.00204881
0.0028244
0.00152453
0.00761795
0.00261099
0.00265047
0.000628404
0.00470202
0.00303056
0.00112947
0.00138325
0.00326794
0.00267869
0.00432192
0.001363
0.00306555
0.00359364
0.00466852
0.00272329
0.00336151
0.00475984
0.000971158
0.00228408
0.0037689
0.00525255
0.00308542
0.00662435
0.00291838
0.00236359
0.00231516
0.00221079
0.00265507
0.00277938
0.00282419
0.00607443
0.00327017
0.00292428
0.00237879
0.00556117
0.00544138
0.00420805
0.00492713
0.00279094
0.00275787
0.00291336
0.00293162
0.00271499
0.0035496
0.00158942
0.000785221
0.0049037
0.00378407
0.00270032
0.00256244
0.00677026
0.00362852
0.00565009
0.00580698
0.00295114
0.0016428
0.00442516
0.00462151
0.00321979
0.00403509
0.00301486
0.00572238
0.00300015
0.00248714
0.000374752
0.0026455
0.00324388
0.00667643
0.00567098
0.00527173
0.00217476
0.00519512
0.00246159
0.00106288
0.00160913
0.00606935
0.00834479
0.00202616
0.00483671
0.00550453
0.00639317
0.00681658
0.00607732
0.00243478
0.00589637
0.000544598
0.00559044
0.00607931
0.00730205
0.00225323
0.00263805
0.00162597
0.00157699
0.00188394
0.00110792
0.00579695
0.00149897
0.00653293
0.00753022
0.00253836
0.00347781
0.00532337
0.00276562
0.00830803
0.00653673
0.00401551
0.00131313
0.000730077
0.00112259
0.00542143
0.00499456
0.00369813
0.00595335
0.00127936
0.00709897
0.00455023
0.0046919
0.000968024
0.00769594
0.00280966
0.00116874
0.000960859
0.00530152
0.00520678
0.0027072
0.00122372
0.00132335
0.00523783
0.00343182
0.00484912
0.00727636
0.00608194
0.00617789
0.00260971
0.00121358
0.00144116
0.00704599
0.00378966
0.00531232
0.00513988
0.00247989
0.00629134
0.00519467
0.00382786
0.00759272
0.00240694
0.00119907
0.0073623
0.00398892
0.00115428
0.00489522
0.00318877
0.00111019
0.00443522
0.00643214
0.00306208
0.0014009
0.00115351
0.00623866
0.00125155
0.00255871
0.00499866
0.00696627
0.00264315
0.00216935
0.00275434
0.00104725
0.00459339
0.00431395
0.00545938
0.00651225
0.00423121
0.00381991
0.00401777
0.00701814
0.00782448
0.00229957
0.00393066
0.00105773
0.00781932
0.00489946
0.00483857
0.0044602
0.00279224
0.00437491
0.00589273
0.00519042
0.00530179
0.00328617
0.00572822
0.00693405
0.00682541
0.0068385
0.00481875
0.00403619
0.00385917
0.00548361
0.0052173
0.00664297
0.00415056
0.0060636
0.00270922
0.00111697
0.00506149
0.00597329
0.00397368
0.00322478
0.00589239
0.00698337
0.00404251
0.00103162
0.0040589
0.00126994
0.00298106
0.00581302
0.00392108
0.00731851
0.00479763
0.00397665
0.00573693
0.00109679
0.00198031
0.00175186
0.00422795
0.00488782
0.00677854
0.00698017
0.00763587
0.00754494
0.00783162
0.007688
0.00722109
0.00791713
0.00762127
0.0079151
0.00123033
0.00455391
0.00123879
0.00131066
0.00136361
0.00132624
0.0012279
0.0011797
0.00206426
0.00245183
0.00220635
0.00280648
0.00165554
0.000951689
0.00145446
0.00202018
0.00297719
0.00512377
0.00105326
0.00528498
0.00268177
0.00325089
0.00483776
0.00186162
0.00495993
0.00296822
0.00126333
0.00460964
0.00299073
0.00439613
0.00198872
0.00174396
0.0013246
0.00321394
0.00446406
0.00463462
0.00267163
0.00360032
0.00130229
0.00146372
0.00337329
0.00131141
0.00447629
0.00326471
0.00135131
0.002975
0.00165957
0.00134867
0.00522649
0.0047121
0.00434391
0.00237915
0.00498206
0.00479797
0.0021237
0.00184316
0.00438276
0.0041579
0.00370379
0.00176198
0.00493184
0.00447803
0.00199206
0.000958146
0.00409538
0.00468122
0.00138461
0.00468614
0.00440135
0.00089644
0.00428969
0.0026012
0.00162965
0.00454286
0.000847131
0.00344039
0.00482033
0.00525505
0.00288274
0.00453155
0.00135215
0.00447826
0.00204428
0.00306468
0.00560412
0.00445463
0.00389391
0.00242869
0.00118461
0.00096992
0.00541131
0.00465284
0.00660894
0.00377038
0.00767171
0.00364368
0.00375169
0.000689633
0.00629564
0.000959784
0.0067996
0.00125038
0.00510267
0.00475631
0.00316925
0.00361492
0.00446267
0.00076029
0.00682609
0.00787276
0.00451785
0.0010479
0.00551087
0.00544236
0.00172715
0.00282409
0.00463099
0.00512081
0.000702085
0.00396162
0.00799469
0.00404692
0.00425992
0.0079812
0.00532536
0.0070477
0.00473804
0.00238132
0.00635701
0.00656938
0.0061117
0.00377478
0.00765177
0.00507058
0.00138962
0.00295985
0.00380957
0.00140317
0.0069084
0.00617867
0.00623429
0.00350266
0.00135791
0.00393116
0.00387515
0.00346004
0.00266308
0.00483329
0.00150693
0.00110072
0.00652008
0.00180164
0.00495137
0.00456616
0.003821
0.0074516
0.00277306
0.00466092
0.00599538
0.00456094
0.000905111
0.00689641
0.00557515
0.00412319
0.00345459
0.00211197
0.001485
0.00374958
0.00430849
0.00133823
0.00418779
0.0077843
0.00545535
0.00714223
0.0031173
0.00571739
0.00216045
0.00434645
0.00472518
0.0043229
0.00656741
0.0047837
0.00134617
0.00520938
0.00797588
0.00268018
0.00736508
0.000752949
0.00367055
0.00463415
0.00767901
0.00563517
0.000802635
0.00768745
0.0060715
0.00365214
0.00354002
0.00604097
0.00390633
0.0051855
0.00473
0.00459021
0.00620788
0.00551896
0.00182509
0.00787978
0.00320808
0.00283705
0.00173484
0.00416135
0.00594252
0.00798872
0.00112967
0.00370411
0.00136271
0.00237434
0.00485154
0.00301756
0.00346217
0.00532358
0.00565709
0.00694682
0.00655011
0.00748409
0.00539555
0.00300526
0.00251
0.0037412
0.00557648
0.00101242
0.00566643
0.00594466
0.00105117
0.00789729
0.00538675
0.00254326
0.00106373
0.00342142
0.00143864
0.00612341
0.00630619
0.00510499
0.00407324
0.00104234
0.00231012
0.00263261
0.00687827
0.00414593
0.0013098
0.000710919
0.00347322
0.0030328
0.00497057
0.000642194
0.000488134
0.00823669
0.0009549
0.00146504
0.00040874
0.00393327
0.000853771
0.00398928
0.00640095
0.000570267
0.00188494
0.00109582
0.000919415
0.00090473
0.00437151
0.00528279
0.0039005
0.00425561
0.00241471
0.00348674
0.00158317
0.00505726
0.00667893
0.00280428
0.00575569
0.004275
0.00541576
0.00263441
0.00483959
0.00701715
0.00246714
0.00434557
0.00280911
0.00666967
0.00257688
0.00307478
0.00265967
0.00644334
0.0042577
0.00632214
0.00441313
0.00327642
0.00498049
0.00101082
0.00102535
0.00480005
0.000827235
0.00459556
0.00615259
0.00148725
0.00621042
0.0022154
0.00273706
0.00132003
0.00258213
0.00153892
0.00679958
0.00506964
0.00476378
0.00222637
0.00565277
0.00208267
0.00574046
0.00099886
0.00307929
0.00146247
0.00604956
0.00481937
0.00367808
0.0013266
0.000966773
0.00327866
0.00172925
0.00204909
0.0056427
0.00504518
0.00594173
0.00266082
0.00161574
0.00509889
0.00531516
0.00469965
0.000366285
0.00650196
0.00591629
0.00266929
0.00416235
0.00311122
0.00683185
0.00294616
0.000772781
0.00424417
0.00176807
0.00487591
0.00251875
0.00450914
0.00398642
0.00181398
0.00279133
0.00637158
0.00275855
0.000356558
0.00529087
0.00231293
0.00503375
0.00764392
0.00257874
0.00321844
0.00157268
0.00597818
0.00665353
0.00641306
0.00280531
0.0045919
0.00675571
0.00174487
0.00731191
0.00167634
0.00483511
0.00411671
0.00751149
0.00549786
0.00604098
0.00122982
0.00874371
0.00456184
0.00101549
0.00304661
0.00659504
0.00771101
0.000813649
0.000839395
0.00659277
0.00217468
0.00126634
0.002981
0.00801685
0.00105229
0.000975865
0.00255286
0.00420303
0.00511788
0.00137602
0.0085722
0.00661326
0.0050977
0.00723462
0.00293452
0.00340121
0.0025802
0.00563322
0.00594311
0.00355782
0.00632666
0.00599333
0.00487663
0.00291594
0.00217616
0.00728852
0.00453768
0.00148067
0.00159727
0.00376625
0.00177998
0.00309218
0.00304172
0.00461173
0.00412793
0.00188817
0.00446915
0.007655
0.0055425
0.00738257
0.00150469
0.005097
0.00546988
0.00785945
0.00572132
0.00610951
0.0006871
0.00217032
0.00108127
0.00200478
0.00211833
0.00544245
0.00344343
0.00423079
0.00467986
0.00394329
0.00174072
0.00571553
0.00462906
0.00260889
0.000733521
0.000912644
0.000874433
0.000758797
0.000806735
0.000826186
0.000901472
0.000632358
0.000762878
0.000679738
0.000684654
0.000653234
0.000894248
0.000769639
0.000643387
0.000632307
0.000805227
0.000851429
0.00080508
0.000796405
0.000768638
0.000775989
0.000764326
0.000803139
0.00714077
0.00412738
0.00299633
0.00406976
0.0019942
0.00294494
0.0013236
0.00319528
0.00241149
0.00213151
0.00198912
0.00156412
0.00531369
0.00554447
0.00258554
0.0017149
0.00436234
0.00155532
0.00732788
0.00192436
0.00139326
0.00596651
0.000750997
0.000813545
0.0037854
0.00430029
0.00214052
0.00376603
0.00413937
0.00157264
0.00258747
0.00731989
0.00557075
0.0078923
0.0076442
0.00385317
0.002688
0.0024366
0.00140371
0.00378676
0.00666628
0.00102639
0.000755456
0.00470521
0.00508778
0.00586041
0.00253198
0.00106053
0.00561082
0.00116183
0.00394781
0.00745045
0.00525087
0.0018979
0.00126017
0.00278793
0.00584616
0.0007459
0.000987973
0.000421914
0.0055536
0.00254956
0.000865014
0.00100999
0.00160716
0.00131765
0.00542638
0.00150249
0.00763975
0.00570704
0.00293539
0.00312767
0.0038748
0.00582424
0.00627489
0.00226226
0.00213153
0.00505468
0.00091147
0.00251672
0.00576379
0.00266112
0.00390203
0.00458765
0.000780523
0.00576724
0.00318879
0.00225453
0.00309277
0.00364166
0.0023773
0.000747791
0.00392895
0.00278003
0.00522172
0.000971253
0.00845153
0.005529
0.0022565
0.00290667
0.00136745
0.00193258
0.00104209
0.00476375
0.00436577
0.00470529
0.000942984
0.00463019
0.00442141
0.00322724
0.00428935
0.00160184
0.000826404
0.000710712
0.00262701
0.00606709
0.00470223
0.000756598
0.00356947
0.00219054
0.00491083
0.00449161
0.00597711
0.00168422
0.00290458
0.00420867
0.00107886
0.00307641
0.00773821
0.00432888
0.000420862
0.00203048
0.000430902
0.00616117
0.00457778
0.00125896
0.00937949
0.00383249
0.0044267
0.00575279
0.00336418
0.00531619
0.00284887
0.00185515
0.00116685
0.00541994
0.00218546
0.00466571
0.00851548
0.00425782
0.00486314
0.00791699
0.00492287
0.00253652
0.00289149
0.00769468
0.00112646
0.00552562
0.00126614
0.00912067
0.00771164
0.00109835
0.000788389
0.00103167
0.000973142
0.0009454
0.00126949
0.00113754
0.00109813
0.0010171
0.00112115
0.000491803
0.000418285
0.000392509
0.000437698
0.000323131
0.000394745
0.00752334
0.00120547
0.00804558
0.00281374
0.00654646
0.000747535
0.00284171
0.00449424
0.00213264
0.00180793
0.00589081
0.00203849
0.00322001
0.00360538
0.000422905
0.00223682
0.000862438
0.00487863
0.00544853
0.0032667
0.00496172
0.00242622
0.00458611
0.00423132
0.00733036
0.00335235
0.00129519
0.00126186
0.0061654
0.00405061
0.00472634
0.00294169
0.004149
0.00556525
0.00179967
0.000881691
0.00515206
0.000673025
0.0026642
0.00102759
0.0021494
0.00182861
0.00169268
0.00317274
0.00633113
0.00848201
0.00319835
0.00283443
0.00503913
0.00251768
0.00152122
0.00256653
0.0040167
0.00427579
0.00338494
0.00192373
0.0010818
0.00183627
0.00309615
0.0012167
0.0049886
0.00404581
0.00316075
0.0076988
0.000701896
0.00270861
0.000844958
0.00149332
0.0073538
0.00510202
0.00622713
0.0029744
0.00110304
0.00362709
0.00646959
0.00251777
0.00491436
0.00172994
0.00252319
0.00111787
0.00556224
0.00141712
0.00123421
0.004296
0.00743768
0.00385529
0.00274757
0.00538743
0.00218585
0.00759195
0.00283106
0.00411674
0.00385235
0.00246358
0.00491371
0.00313752
0.00136004
0.0042689
0.00232349
0.00811283
0.00084254
0.00191799
0.00194155
0.00137238
0.00321016
0.00531341
0.00526539
0.00696363
0.00531759
0.00285356
0.00596788
0.000920215
0.00170878
0.00292967
0.00117507
0.00171157
0.00727594
0.00408447
0.00121369
0.00310834
0.00444639
0.00142408
0.00746392
0.00479534
0.0033371
0.00343626
0.00103175
0.000408748
0.00521778
0.00271155
0.0072108
0.00349696
0.00535772
0.00761441
0.00504701
0.00198943
0.00269295
0.000906616
0.00167793
0.00510637
0.00109309
0.00442193
0.00784077
0.00252853
0.00278828
0.00425999
0.00373814
0.00404824
0.00115131
0.00538997
0.00278601
0.00217973
0.0061512
0.0032008
0.00465461
0.00195644
0.000932418
0.00458344
0.00187501
0.00483291
0.00360199
0.00291466
0.0068778
0.00281098
0.00511114
0.00728346
0.00350611
0.00471358
0.00231808
0.00122852
0.0029422
0.00204925
0.00449723
0.00435259
0.0029274
0.00417004
0.00450205
0.00261299
0.00380619
0.00236957
0.00415403
0.00167403
0.001074
0.00651996
0.00829817
0.00428178
0.00116855
0.00485192
0.00539446
0.00653665
0.00399566
0.00372994
0.000756402
0.00066243
0.00152969
0.000763835
0.0022011
0.00264674
0.00355545
0.00515328
0.00701931
0.00133823
0.00283352
0.00615067
0.00266934
0.00243056
0.0028904
0.00110314
0.0054473
0.00417031
0.00519176
0.00335569
0.00735226
0.00329424
0.00678547
0.00248513
0.00417877
0.00186097
0.00319998
0.0039005
0.00405234
0.00507131
0.00197416
0.00713754
0.000428294
0.00266834
0.00515863
0.00530098
0.00409666
0.0045804
0.00362474
0.00893914
0.00115793
0.00239051
0.000949537
0.00400606
0.00173068
0.00088098
0.00368904
0.0012491
0.00465883
0.000659922
0.00562258
0.00100656
0.000477431
0.000427177
0.00312768
0.00596069
0.0016667
0.00135698
0.00522612
0.0018984
0.0016987
0.00319947
0.00507353
0.000962811
0.00254159
0.00086731
0.00353398
0.00565047
0.00429087
0.00668917
0.0054428
0.00399648
0.000890718
0.00214232
0.00156782
0.00258467
0.00144189
0.00552912
0.00360353
0.00199597
0.00218015
0.00259991
0.00484207
0.00255613
0.00100055
0.00262433
0.00223075
0.00311652
0.00580049
0.00554033
0.00284878
0.00442284
0.00216835
0.00240629
0.00327355
0.00111286
0.00069551
0.00448444
0.00411834
0.00089541
0.00267294
0.00436637
0.00531975
0.00346364
0.00305042
0.00209105
0.00184202
0.00284076
0.0021864
0.000686577
0.00378985
0.00561419
0.00236021
0.00211856
0.00743414
0.00120953
0.00437642
0.00404981
0.00385135
0.00144626
0.000524465
0.00113535
0.00229954
0.000769404
0.00247588
0.00102007
0.00147738
0.000905607
0.00131196
0.00158166
0.00486124
0.000809448
0.00135806
0.00179239
0.00169692
0.000720776
0.000366155
0.000610343
0.000819923
0.00116179
0.00126203
0.000526377
0.00086208
0.00177097
0.00183814
0.000853804
0.00120093
0.00063358
0.000902152
0.00102599
0.000481995
)
;

boundaryField
{
    frontAndBack
    {
        type            empty;
    }
    wallOuter
    {
        type            nutkWallFunction;
        Cmu             0.09;
        kappa           0.41;
        E               9.8;
        value           nonuniform List<scalar> 
96
(
0.000110133
8.96155e-05
8.51465e-05
0.000123725
0.000125357
0.000122519
7.96584e-05
7.30765e-05
5.77654e-05
0.000105025
4.93387e-05
9.38793e-05
6.61181e-05
0.000129152
9.94172e-05
0.000111382
0.000120381
9.90892e-05
4.60009e-05
8.56801e-05
4.38719e-05
8.96844e-05
0.000100556
0.000116235
0.000114609
8.8287e-05
0.000109118
0.000104691
9.1251e-05
9.68553e-05
9.90277e-05
0.000107906
7.61942e-05
9.15983e-05
8.18436e-05
8.23252e-05
7.88423e-05
0.000106826
9.21424e-05
7.7573e-05
7.63094e-05
9.61035e-05
0.000102235
9.69327e-05
9.49948e-05
9.27278e-05
9.355e-05
9.12346e-05
9.66551e-05
9.78174e-05
0.000121302
9.0516e-05
8.99153e-05
5.34447e-05
0.000101886
9.39812e-05
0.000115517
9.88584e-05
8.53681e-05
9.05896e-05
0.00011953
5.32921e-05
5.44369e-05
0.000147725
0.000127628
0.000142945
0.000124312
9.47852e-05
0.000115658
0.000109714
0.000107042
0.000143579
0.000129827
0.00012589
0.000115239
0.000128722
6.09629e-05
5.2587e-05
4.90436e-05
5.43035e-05
3.97458e-05
4.91847e-05
8.95106e-05
5.35498e-05
8.06186e-05
8.41345e-05
9.83739e-05
5.16446e-05
0.000121474
0.000119828
9.08798e-05
7.97536e-05
5.39996e-05
0.000136309
7.81515e-05
5.40421e-05
)
;
    }
    inlet
    {
        type            calculated;
        value           nonuniform 0();
    }
    outlet
    {
        type            calculated;
        value           nonuniform List<scalar> 9(0.00696627 0.00781932 0.001485 0.00565277 0.00641306 0.00428935 0.00125896 0.00251768 0.0040167);
    }
    wallInner
    {
        type            nutkWallFunction;
        Cmu             0.09;
        kappa           0.41;
        E               9.8;
        value           nonuniform List<scalar> 
126
(
0.000101268
9.78085e-05
9.08421e-05
0.000122099
0.000127717
0.000105237
0.000108211
6.36541e-05
0.000128708
0.000163809
8.85345e-05
0.000103847
0.000221458
9.02014e-05
0.000120018
6.09937e-05
0.00011933
7.64262e-05
0.000127238
0.000183155
0.000101126
0.000130108
0.000103495
0.000111541
0.000150923
9.37368e-05
0.000107433
0.000144378
0.00013389
0.000102822
0.000108283
7.30805e-05
0.00017667
0.000103593
0.000149554
0.000109349
0.000151297
8.00807e-05
0.000131744
6.40236e-05
0.000148268
9.02151e-05
8.859e-05
0.000135609
0.000105192
0.00010637
0.000151075
0.00019741
7.15382e-05
0.000162793
0.000160349
0.000130029
0.000133745
4.39313e-05
0.000126151
0.000185029
6.49434e-05
0.000187019
0.000181692
0.000131022
0.000177878
0.000144045
8.92278e-05
0.000132578
0.000142624
0.000116555
0.000143457
0.000142299
0.000171697
0.000130673
0.000162502
0.000135912
0.000125887
0.000143633
0.000118682
0.00010646
0.000110013
8.27482e-05
0.000150642
9.07508e-05
0.000128286
8.43453e-05
0.000165751
0.000132936
0.0001784
0.000204626
0.000106641
0.000160257
9.99253e-05
0.000206622
0.000105911
0.000212237
8.60155e-05
0.000166221
6.52334e-05
0.000235445
0.000139884
0.000131488
0.000117872
5.87213e-05
6.55518e-05
0.000133002
9.54952e-05
0.000127246
0.000174518
0.000110235
0.000176595
9.71024e-05
0.000155916
0.000209932
0.000200325
8.86449e-05
4.32004e-05
0.000100221
0.000136884
0.000120183
6.16734e-05
0.000101759
0.000201216
0.000208089
0.000106178
0.000144284
7.86799e-05
9.03225e-05
0.000119822
5.69385e-05
)
;
    }
    procBoundary3to1
    {
        type            processor;
        value           nonuniform List<scalar> 
48
(
0.00983302
0.00484961
0.00640023
0.00962649
0.00383037
0.00392644
0.00484961
0.00332659
0.00726705
0.000892428
0.000892428
0.00114172
0.00114172
0.00534646
0.00510573
0.00130611
0.00165962
0.00134069
0.00165962
0.0018123
0.0044889
0.00454933
0.0018123
0.00275736
0.000958903
0.00149328
0.00378401
0.00454933
0.00342068
0.00147604
0.00147604
0.0031838
0.0031838
0.00726705
0.00159976
0.00324716
0.0038808
0.000958903
0.00935693
0.00322885
0.00534646
0.00396297
0.00467133
0.0018123
0.00485738
0.00109863
0.00375775
0.0046033
)
;
    }
    procBoundary3to2
    {
        type            processor;
        value           nonuniform List<scalar> 
29
(
0.00275463
0.00275463
0.000505175
0.000631249
0.000746047
0.00103722
0.000821464
0.00201797
0.00200811
0.00176681
0.00186022
0.00201816
0.00186467
0.00282678
0.00268273
0.00238516
0.00131441
0.00162006
0.00243017
0.00292881
0.00270077
0.00131441
0.000519444
0.00162006
0.00229592
0.0011637
0.00162006
0.00356371
0.00356371
)
;
    }
}


// ************************************************************************* //
