/*--------------------------------*- C++ -*----------------------------------*\
| =========                 |                                                 |
| \\      /  F ield         | OpenFOAM: The Open Source CFD Toolbox           |
|  \\    /   O peration     | Version:  v1912                                 |
|   \\  /    A nd           | Website:  www.openfoam.com                      |
|    \\/     M anipulation  |                                                 |
\*---------------------------------------------------------------------------*/
FoamFile
{
    version     2.0;
    format      ascii;
    class       volScalarField;
    location    "0.37";
    object      p;
}
// * * * * * * * * * * * * * * * * * * * * * * * * * * * * * * * * * * * * * //

dimensions      [0 2 -2 0 0 0 0];


internalField   nonuniform List<scalar> 
1431
(
74.1845
86.0588
67.9316
82.0342
73.5304
73.0391
79.6158
48.485
74.3837
80.2385
40.8336
50.6935
71.1093
70.7953
73.7849
79.8241
71.4223
71.4042
72.124
71.4238
35.8204
70.5506
74.4486
17.7842
74.2035
70.7484
46.8257
73.7707
74.1068
68.7715
71.785
74.4622
72.0235
71.6362
73.6951
81.0428
70.1955
70.3421
80.8875
74.0696
71.6107
71.1312
70.8093
79.752
72.5179
73.0949
72.0404
50.4689
79.4464
68.6021
79.6847
80.2967
77.9397
53.6857
87.2148
80.6635
72.4236
51.4207
70.892
73.3036
73.9243
79.756
68.9434
69.9414
81.2786
80.1195
70.2488
73.7142
72.3602
71.528
50.4795
71.3652
81.5391
71.7842
70.8393
73.9257
68.2175
70.8107
80.8973
72.3615
71.0525
73.2959
75.9792
72.0835
37.6505
83.4566
85.0317
73.4092
54.3064
64.1446
72.5737
72.4841
70.5118
80.3491
87.2151
71.7874
49.9686
77.13
79.6031
72.7126
80.2679
79.6126
70.6887
72.9455
70.5083
71.8566
74.8463
53.3042
73.6242
70.5741
73.3722
71.3923
67.9459
71.4448
86.5468
74.0562
71.0231
81.704
83.5888
69.339
72.0973
73.6669
55.0348
71.0935
49.4104
81.2958
68.0584
73.336
67.8283
87.0786
71.704
71.4223
87.1175
72.0278
72.9399
69.5301
69.874
79.4326
51.1727
70.5201
80.9757
70.2845
70.8107
72.9577
74.9676
71.8034
70.5793
79.1169
80.7335
73.7099
69.0916
72.797
73.9142
84.49
73.9512
70.3193
47.2537
80.5444
69.886
85.0485
60.7939
70.7877
82.3704
84.5283
53.7504
73.1519
71.7637
86.6378
69.5418
81.6704
60.3159
78.0547
73.3476
49.823
84.6576
47.6823
86.6995
72.7828
78.1802
73.9078
80.1245
80.4377
84.1684
20.7103
72.7599
74.5258
50.9853
82.3647
73.4665
52.4715
71.8952
73.2596
73.9513
54.9372
82.6545
75.8869
75.9097
72.9075
72.6781
72.2453
86.7115
82.7124
57.775
86.0116
72.9473
72.1113
74.3196
73.9412
47.7399
71.2805
47.2284
82.245
74.5161
72.043
39.2944
74.134
73.8617
72.4937
82.328
59.7913
74.1012
85.0671
72.4678
83.5335
74.0936
42.4717
58.7347
79.5873
73.8924
58.6989
47.9456
71.9603
72.267
73.9925
74.3803
65.6517
74.3615
72.6736
71.8598
86.7835
86.7176
79.1661
45.6622
72.7337
73.435
71.5406
72.8754
55.2279
74.4013
69.9625
72.9931
53.7487
84.4574
81.741
72.0534
70.9476
83.8908
37.567
70.128
73.7831
74.1456
50.9023
83.2113
86.1406
74.1357
62.4213
74.0328
55.6658
53.8346
72.7221
74.0412
74.1958
86.9609
86.8905
58.2143
73.3951
56.0722
68.255
72.4858
74.3844
77.2435
70.256
71.4747
80.7848
87.7058
75.1454
70.9049
73.881
44.6998
85.1673
73.2061
73.4785
78.077
79.1508
60.5855
73.6529
51.2082
75.2706
73.771
71.8354
78.0131
71.7562
87.4731
74.2262
71.3874
83.3578
83.4838
73.5691
70.9327
83.7475
70.8889
81.6244
79.9162
55.4263
74.1505
75.9127
73.1848
87.5875
70.7414
28.2521
81.9849
76.6614
72.6939
80.0942
72.9082
67.9801
72.2562
72.7032
54.7853
81.9119
71.0922
71.5183
73.4967
70.6303
86.203
72.7645
72.6118
68.6828
72.9173
54.0333
70.8225
71.7374
65.9714
70.9047
74.3489
71.7935
86.5168
54.7771
70.4436
78.2527
72.1262
70.4761
79.744
77.1037
71.8757
82.8322
50.0559
46.8052
52.1698
71.1602
70.5296
74.2334
70.9723
87.7096
71.7227
46.6709
73.9503
8.97537
73.6464
68.9501
52.4744
73.3687
56.5048
80.9767
71.5323
46.9673
78.7662
85.358
68.1515
42.6785
70.5881
72.9778
84.2808
73.2442
9.61102
74.1182
75.7715
73.7309
72.6484
79.533
87.162
75.6016
75.5203
82.8736
66.6082
79.1821
72.8804
72.6643
73.3816
73.6323
73.7757
71.4044
72.2313
71.0283
80.7826
74.6012
73.0875
84.7222
87.5155
75.3169
74.6968
73.0533
75.896
70.3033
73.7941
71.4678
75.2129
84.3267
73.1514
76.202
73.2691
70.6341
81.7031
75.9178
76.3406
73.1654
70.7458
72.3553
67.9562
27.2853
69.3457
69.4504
69.6639
69.7337
69.6524
69.8914
69.5707
70.2993
70.0989
70.3539
72.5123
52.4111
71.27
69.8846
70.2999
70.07
71.5968
71.7346
71.7858
70.9756
71.3424
67.3583
79.3379
72.2903
79.6982
79.1173
70.5779
51.5376
71.5944
67.5002
70.6726
68.117
52.2565
78.9636
68.0527
68.4945
72.5646
52.4763
67.8572
51.1852
79.4321
79.8677
70.4084
70.5625
51.5195
52.3303
69.9762
69.6011
70.8689
80.2683
70.6871
71.9787
51.6928
80.7094
72.2381
70.7745
69.0967
70.989
67.7503
70.2794
51.8321
80.4578
67.805
70.6499
71.3067
69.4108
67.8382
51.6653
80.2156
72.4839
70.0165
70.7169
71.0913
70.5659
51.8823
53.3734
71.8863
80.5163
80.2383
72.5656
70.6744
72.0304
70.3802
68.0364
70.4463
81.2195
69.4941
71.0813
71.6926
53.0513
72.2405
80.4128
72.8261
82.4469
71.1694
83.152
51.2699
73.9422
73.0306
84.8127
86.0977
80.6522
71.7467
72.172
70.9268
67.9407
84.7629
72.7541
72.3078
73.6899
74.3581
70.7897
70.5508
80.9122
72.7134
85.0696
82.7193
68.4878
73.5249
70.5466
75.5242
70.6782
71.2178
75.4148
68.0114
71.9003
83.7145
70.2834
71.3061
49.1789
70.4397
52.8576
71.2286
79.551
33.5511
81.1694
83.6559
84.0076
69.9698
72.0251
77.2569
60.5554
70.2379
81.3182
83.1455
72.0767
82.1933
73.1647
69.8606
69.284
76.9365
65.3456
72.4387
73.2905
73.3337
74.5421
72.6045
80.9106
83.4952
73.0172
69.8359
67.5952
79.4422
80.1036
74.2426
71.5736
71.4375
75.1373
79.6876
48.9747
62.5199
72.7525
75.5569
80.1079
69.5687
72.7158
18.436
70.5534
85.219
70.5003
82.632
79.2453
75.8606
70.1154
73.427
72.0204
45.2037
85.6407
68.5029
73.9641
85.3935
83.9354
81.8785
74.9971
78.1278
70.7504
71.3992
72.7575
67.802
85.5336
76.1556
80.0677
80.2901
70.3268
77.393
71.8618
50.0442
87.5325
72.8611
85.7214
72.626
71.326
86.5414
75.5957
69.1242
77.1888
71.0397
72.7701
43.9625
80.0014
69.6066
69.9739
72.932
71.1353
71.4205
72.7661
74.4844
68.4798
67.9802
56.9549
63.6221
71.9505
71.0881
79.0289
70.449
72.8554
71.9526
67.9238
79.1737
72.1198
76.3177
85.6794
37.3354
70.613
69.0347
71.6341
31.9691
70.5193
72.5808
87.431
87.0899
82.6658
78.3972
41.4381
70.2898
68.3728
70.0701
73.4806
72.7682
86.9201
72.5787
71.9154
71.1538
87.3214
87.3981
69.9305
79.4116
72.2581
87.194
65.6335
83.6245
73.4354
76.4075
87.4617
72.2931
25.1677
72.8729
81.7
82.3736
74.4944
73.7206
83.7593
70.0556
73.8067
67.9454
72.9779
70.1863
72.5508
86.6104
72.9978
70.8721
71.9958
52.8917
77.1494
72.9792
85.8989
72.4043
70.5953
53.9123
51.0675
69.2577
80.4631
68.1423
86.9827
73.0058
72.4781
72.4541
76.777
43.7563
84.3035
73.8297
74.0206
87.3321
72.4664
69.2843
72.7014
70.4578
72.8434
73.246
79.0854
74.2009
85.919
87.5111
79.1395
8.27652
73.0219
72.5507
72.6842
73.3851
83.8422
30.6531
73.1655
74.4292
79.7111
70.8579
75.1114
79.5327
79.2773
75.5897
86.1669
70.5598
72.0749
72.7055
73.327
73.1391
79.7185
86.6035
80.8434
73.2835
70.9079
74.8199
70.2418
77.9003
68.0793
86.1909
54.499
72.6233
77.4322
73.1904
78.0744
72.5762
71.2096
74.16
72.648
73.2017
86.9196
84.1252
70.7461
82.9472
73.8247
73.9365
70.4861
70.3008
69.0393
69.71
14.2862
73.7114
74.044
81.4281
72.7029
48.5077
86.4817
85.0191
42.9627
71.0147
50.7224
69.5046
73.1069
70.0785
73.51
72.6188
70.8052
78.2977
70.9611
85.1132
73.461
71.4473
70.0548
73.6613
80.2497
70.1355
73.9034
43.7778
73.6784
80.5565
53.5545
71.8763
69.7878
75.6387
82.2322
76.0955
70.4217
69.923
73.4049
76.0128
62.858
70.6003
53.1971
80.774
67.1856
73.3894
69.7466
74.7002
84.9724
69.3533
72.2347
87.3857
73.0303
67.7635
69.3541
84.3751
77.2424
72.8563
81.3957
70.4274
74.5371
70.2702
81.1921
54.452
75.0141
70.4181
46.9537
72.7092
72.5733
70.6322
73.2242
79.8456
74.6742
74.6024
72.6085
51.3087
84.0992
73.0059
47.3894
53.2626
52.3095
47.8624
54.5105
74.1559
73.7088
73.074
73.34
50.3452
74.6226
72.2016
73.8471
73.0507
71.7858
57.7939
44.7389
71.6919
63.1119
60.4227
72.0566
74.7134
74.3913
72.4305
74.0202
73.8478
72.3348
73.8454
70.1568
64.873
67.9033
68.1932
72.8375
70.6713
71.913
48.7926
73.6725
67.6255
70.6634
70.9359
82.0342
53.4253
71.4832
69.3408
65.8036
72.537
70.3149
71.7265
85.5249
49.4251
72.6332
74.0251
73.3888
77.9232
84.7903
80.0436
50.1129
73.3634
70.5864
70.4047
71.7808
80.2321
77.213
57.0954
69.5825
80.3184
73.5879
81.7386
78.1818
74.2019
69.5655
68.6358
77.8055
71.9634
70.9557
72.427
74.2809
81.7767
45.6451
72.5682
76.6439
72.4435
71.3584
70.5641
86.0977
73.8643
73.2689
85.3521
76.9633
71.7039
42.8703
72.8301
70.8846
70.405
68.9056
79.2539
23.2873
75.4546
74.1897
80.1817
49.1893
74.3827
71.9447
79.0787
81.0221
84.9165
73.1052
68.0388
76.6455
72.2202
55.2015
34.0888
74.1004
74.9238
81.4953
71.2889
71.0277
73.247
70.3529
73.3731
73.7611
71.9474
68.7395
35.8836
70.7654
84.7215
67.5628
71.5654
74.2186
71.2455
71.5488
74.341
82.1853
76.5991
73.7352
74.6011
76.714
25.4355
16.0565
79.8978
73.4498
67.529
85.0697
73.472
52.8944
69.9339
73.6545
72.1437
62.9784
52.1725
86.125
71.7486
73.9518
73.7744
70.9515
50.7978
70.5889
75.6995
84.9096
48.7608
84.0241
71.7561
83.9239
7.04328
70.3478
50.3192
57.6631
72.7309
68.4675
74.7864
85.6131
70.6566
83.6388
85.5318
83.1064
74.5785
70.4048
73.7985
68.531
70.6714
60.5907
69.1925
67.8679
70.2609
55.0547
74.9603
54.5517
70.2264
71.1279
55.364
73.5199
63.1619
61.0162
58.8477
53.2758
52.9939
52.0349
56.7751
52.2523
82.1244
83.1731
82.8764
82.2449
82.2663
82.2845
75.2402
72.1651
70.2463
73.3209
71.8402
70.1434
82.1032
68.58
68.0188
79.5528
76.9267
80.3751
74.0049
87.2238
85.8005
70.426
72.5765
83.067
69.281
74.0685
74.219
65.1906
85.8397
76.383
41.6741
74.4031
73.0004
73.4338
84.328
70.2144
81.8436
32.2706
70.0965
73.8837
82.0562
73.3302
83.5318
71.1471
70.6475
72.7686
81.9161
71.0033
69.6214
67.8792
82.5395
70.2334
71.719
71.2549
79.9415
15.0785
68.8857
41.8068
7.34686
87.5667
51.4711
70.9899
73.0821
72.3247
51.861
84.066
74.5239
75.8395
63.7638
71.0808
70.6011
74.0074
73.0008
80.7297
71.4105
80.5832
77.6819
55.5286
48.8837
16.1476
78.0379
73.0754
84.9572
74.3991
84.5128
72.6101
67.5235
70.8067
71.7775
51.9264
74.3526
80.0869
50.0861
76.6033
70.812
71.036
79.71
74.5874
67.5478
56.6915
74.1749
68.6353
72.4178
74.4144
45.9557
70.3817
48.5873
80.3688
70.277
71.655
48.0029
72.9738
72.4135
71.3536
74.0208
81.5283
53.5407
73.063
72.4441
71.0237
71.2751
70.4301
71.5719
81.4773
72.4295
73.8475
55.1136
71.2756
72.006
70.7884
70.8185
81.8076
72.426
86.2295
78.7004
71.7246
71.3487
47.33
75.167
72.2552
76.2726
73.0508
81.3107
71.5803
71.0315
74.301
68.0373
74.4333
26.0268
73.708
87.4446
74.6184
58.714
73.6151
79.8766
82.9457
70.8906
73.9979
79.152
73.975
72.4364
73.1763
72.0315
83.7695
71.4581
82.3818
73.3553
54.6711
72.0829
55.741
73.9178
76.7148
73.2484
74.5073
71.3556
71.2747
68.9825
71.0948
81.943
74.8
47.5641
73.7369
74.2822
69.6074
68.1383
70.261
73.8648
73.1139
65.4154
71.8891
69.6997
51.4342
71.8461
75.1607
74.9127
78.1082
71.9478
72.4481
73.0396
65.5964
72.6442
73.1337
70.8259
71.9913
74.5074
52.9853
78.9007
69.9858
70.6379
73.8896
53.3692
70.6174
75.3049
73.3963
54.2623
70.7957
67.536
68.6995
35.2046
73.3129
71.9749
69.6423
68.6401
44.3686
87.4455
54.6756
84.8219
84.5773
87.0514
51.582
83.5736
46.9106
66.9025
71.0702
73.5917
70.6902
52.1499
69.8486
15.6053
87.2711
73.4379
86.7294
74.4875
72.7427
59.8624
84.5358
84.6865
44.9897
54.7485
72.4039
71.8676
84.4689
52.1747
85.8677
71.4477
72.2015
54.2794
79.8757
86.8353
70.7967
81.0622
71.8598
73.7333
72.7647
81.3527
85.6121
58.0158
52.8096
85.0825
73.8239
72.956
71.2095
72.906
74.004
70.925
74.5094
81.2811
72.6668
72.3532
74.3388
61.5985
74.1698
82.8244
73.833
63.0614
81.6196
85.3229
74.4592
70.9151
82.8155
71.0137
72.8906
74.3206
83.23
82.4869
59.5476
53.4478
72.1769
80.7568
82.1976
67.5922
69.0386
74.3054
70.8124
72.5753
68.8881
69.951
72.9548
81.4034
58.2627
73.6887
65.6448
73.2304
72.2669
51.4271
73.4057
81.4114
71.5647
72.3316
71.6002
48.1316
70.6719
70.9151
68.6773
77.0632
80.3423
80.6687
84.4613
84.1172
84.5414
29.9228
55.469
71.3354
74.0512
71.3563
71.8185
71.9106
77.4923
75.6862
72.3525
73.071
77.5477
78.3884
68.6654
70.8059
71.5502
73.7497
72.7524
73.4177
)
;

boundaryField
{
    frontAndBack
    {
        type            empty;
    }
    wallOuter
    {
        type            zeroGradient;
    }
    inlet
    {
        type            zeroGradient;
    }
    outlet
    {
        type            fixedValue;
        value           uniform 0;
    }
    wallInner
    {
        type            zeroGradient;
    }
    procBoundary3to1
    {
        type            processor;
        value           nonuniform List<scalar> 
48
(
70.9752
72.3719
71.9646
71.1466
72.4678
70.7066
72.3719
68.346
69.7624
71.853
71.853
72.7092
72.7092
67.5585
67.8953
71.945
69.4384
70.9844
69.4384
68.7832
67.9275
68.0199
68.7832
71.9766
71.1495
70.5376
68.1787
68.0199
68.32
71.2596
71.2596
68.1853
68.1853
69.7624
69.5355
72.2942
68.3303
71.1495
70.7351
72.7664
67.5585
68.6845
69.4351
68.7832
68.5561
73.3751
72.205
67.5626
)
;
    }
    procBoundary3to2
    {
        type            processor;
        value           nonuniform List<scalar> 
29
(
71.1031
71.1031
79.8718
80.2489
71.3145
74.3934
81.478
73.3193
80.0982
80.1546
74.4257
71.1512
72.4004
81.2479
81.6518
81.4355
79.9307
79.8243
71.5567
81.2901
81.3619
79.9307
82.0514
79.8243
81.87
79.9686
79.8243
69.7041
69.7041
)
;
    }
}


// ************************************************************************* //
