/*--------------------------------*- C++ -*----------------------------------*\
| =========                 |                                                 |
| \\      /  F ield         | OpenFOAM: The Open Source CFD Toolbox           |
|  \\    /   O peration     | Version:  v1912                                 |
|   \\  /    A nd           | Website:  www.openfoam.com                      |
|    \\/     M anipulation  |                                                 |
\*---------------------------------------------------------------------------*/
FoamFile
{
    version     2.0;
    format      ascii;
    class       volScalarField;
    location    "0.83";
    object      epsilon;
}
// * * * * * * * * * * * * * * * * * * * * * * * * * * * * * * * * * * * * * //

dimensions      [0 2 -3 0 0 0 0];


internalField   nonuniform List<scalar> 
1466
(
0.433141
0.671852
0.654804
0.237793
1.9392
11.5292
0.820407
0.857916
6.90062
0.335269
10.5938
0.370176
0.0802444
0.452071
0.405892
0.562047
2.95037
0.205476
1.90366
0.306526
0.612233
0.893506
0.887725
0.803017
0.458313
3.47049
3.75692
0.31736
0.754996
1.32836
1.13594
3.95223
0.788279
0.736848
0.185673
0.420966
0.177821
0.271868
14.552
0.820524
0.348407
0.165304
3.98068
0.844386
0.315441
2.58917
0.322137
0.197607
0.154405
0.607071
0.781359
0.443278
2.10242
10.1923
0.8876
0.429044
0.369498
1.88229
0.205384
0.403102
0.399124
1.06816
1.59279
7.05524
0.593365
0.24745
0.445573
0.583834
0.24645
0.8574
2.2447
0.289026
0.255092
0.356768
0.411045
0.325222
0.338491
0.255525
0.699131
0.415372
1.72108
0.302923
0.378756
0.155519
0.221559
0.506994
0.209726
0.65934
0.266485
0.199241
0.279222
0.614161
0.361379
0.248986
0.719689
0.499574
0.538671
0.283051
0.397147
0.269754
0.895768
0.288317
0.427943
0.425465
0.342692
4.79898
0.526439
0.370896
0.448105
0.495346
0.151611
0.332332
0.228685
0.260799
0.0887916
10.3523
0.431052
0.400063
0.223874
2.05684
0.480919
0.240221
0.280682
0.749536
0.252487
0.311212
0.257027
0.421417
0.363103
4.08311
0.177001
0.348269
0.181369
0.435433
1.11596
0.389949
0.189712
0.20016
0.318495
0.168408
0.438917
0.575136
0.362392
0.413989
0.317356
0.423564
0.551964
0.254393
0.440512
0.236943
0.353951
0.505295
0.190764
0.517682
0.360405
3.32862
0.276452
4.27279
0.385652
0.20619
0.302378
0.265807
0.665925
0.506012
0.26694
0.36075
3.08196
0.160833
0.244701
4.17846
0.476411
0.491687
0.378097
0.398567
4.11622
0.520146
0.237891
0.385504
0.432702
0.369526
0.209202
0.4633
0.265487
0.25435
0.732165
0.417716
0.504573
11.1995
0.457878
0.69143
0.610958
0.610052
0.261599
0.672658
0.40566
0.328484
0.32019
0.539409
0.422386
0.422064
0.752601
0.771257
0.35976
0.240573
0.644197
0.18243
0.495269
0.99239
0.39449
0.92086
0.742452
1.81153
0.681572
0.261015
0.281278
0.490584
0.23322
0.130767
0.354055
0.33245
6.38643
0.280553
0.338819
0.321081
0.352575
0.350977
0.413158
0.679012
0.273757
4.16407
0.206436
0.546974
0.253971
0.164695
0.391165
0.711285
0.168967
0.902086
0.17435
0.539359
5.42965
0.245414
0.646923
0.223809
0.209563
0.294906
5.79351
0.525491
0.159633
0.382672
0.336145
1.78878
0.182095
0.539579
0.219901
1.41992
0.407684
2.92146
12.4524
0.327015
0.250794
0.256588
1.4674
0.17872
18.2282
0.573724
8.4082
0.349971
0.692213
0.317524
0.797334
0.18643
0.18638
0.416072
0.25161
0.169224
0.549464
0.221324
0.366071
0.190822
0.630078
0.213438
0.460777
0.209216
0.602224
0.200378
0.889599
0.667012
5.11887
0.239024
0.356602
9.66648
1.12167
0.325152
0.266291
1.02221
12.6625
10.246
0.757784
0.382309
0.284276
2.42815
0.379898
0.847097
0.652654
0.385586
0.186923
0.161513
0.288456
15.9804
5.09417
0.672438
0.992644
0.402256
0.181727
0.480958
0.307006
4.15122
0.317145
0.387798
0.449381
0.412262
0.33292
0.610378
0.247047
0.749122
1.81676
0.91624
3.38314
1.3386
0.491535
0.621137
2.1523
0.629323
0.359652
0.648152
0.227049
7.50361
0.40212
1.93603
0.448523
0.532989
0.452892
1.14123
0.734513
4.0856
0.415071
0.440256
0.242796
5.59848
0.259016
0.234319
0.255861
0.151216
0.153318
0.554752
0.723742
0.332049
17.3004
1.09265
4.60175
0.445966
0.36541
0.422178
0.425522
0.794138
1.48456
2.67492
0.448075
0.381722
2.86318
0.337073
0.379876
0.647409
1.14211
0.44694
0.622732
5.25633
0.216878
0.325386
0.191753
0.360075
0.616681
0.852073
0.327896
1.15922
0.588989
0.866353
0.177776
0.218144
0.255733
2.70287
0.350707
7.85687
0.496515
0.391921
0.339296
3.36174
0.323602
0.132658
0.344463
2.00138
0.38082
0.205855
0.323079
0.564615
0.418689
14.0382
0.553791
0.269092
0.713494
0.51776
0.389761
0.551029
6.78317
0.328915
0.46185
2.42863
0.259987
0.298097
2.02895
0.310949
0.798951
0.716903
0.729835
0.741495
0.717231
0.764153
0.744374
0.823759
0.26882
0.588721
0.436308
5.85705
31.7181
6.04827
6.57635
0.894854
5.30435
4.66102
11.5564
0.195437
6.16487
3.88066
4.72802
6.19373
4.58023
4.59006
7.58671
2.73592
8.26076
6.07065
4.69741
1.39618
6.47963
6.61228
4.81299
5.74335
14.8137
2.86347
6.21959
0.577407
1.02467
2.27788
6.57173
18.0575
6.39699
0.534676
0.27091
5.85127
6.13149
4.87714
2.43752
6.59476
2.08355
1.07808
9.13048
6.88217
1.24094
9.3425
0.300649
0.531124
3.83711
0.528583
0.966454
0.267908
0.505243
1.10371
4.35754
0.31818
0.802525
0.314884
0.562262
1.36628
1.01752
1.01249
12.2276
6.42561
14.8592
13.0074
0.261545
0.502799
0.598302
0.3983
1.65751
0.379585
0.323764
3.59918
3.15231
4.30902
4.41839
0.799327
4.41573
2.92482
3.46769
4.32401
0.279981
0.519462
1.62742
1.85378
1.25417
7.10414
7.28075
23.7037
18.5036
0.237915
6.95187
7.46357
0.293103
1.47812
0.539831
0.342026
3.40399
3.19661
3.0115
6.55241
0.311889
6.38046
0.560297
0.241441
6.51368
6.66538
4.7928
6.48629
3.96102
2.70487
0.83925
7.9075
6.89419
0.249896
0.4682
0.354075
6.49559
0.393011
0.357543
5.17929
0.228508
0.426614
0.615644
4.6683
0.734501
0.316216
0.37599
8.28607
0.321643
0.384029
0.480329
0.753112
3.6708
8.48439
0.535256
4.20489
3.52248
0.315006
0.23624
3.17782
2.83545
1.96114
3.95786
3.4196
0.421085
0.886728
0.494239
0.347281
0.316324
8.94867
1.37831
0.463413
8.4329
2.78388
0.150306
0.445176
0.318012
0.50448
0.254948
0.478238
0.458778
0.347091
7.46583
0.355477
8.12774
0.240589
0.431476
0.285868
3.01168
0.983069
0.647074
0.83794
6.42938
9.78824
0.357277
13.9501
2.63285
12.2249
0.238891
2.24692
7.38454
0.435605
5.06625
0.247811
0.363076
0.512668
5.63319
0.34987
0.417885
2.75452
0.149215
0.767209
0.596782
6.70558
1.81605
9.00345
0.518445
0.234273
0.41934
0.365954
0.366421
6.79992
0.260852
0.434435
0.637171
6.30302
0.417161
4.74058
2.5864
0.305915
0.418007
5.20979
8.88731
0.653444
0.76823
7.62169
0.378872
5.88573
0.6994
1.92203
2.90255
0.451926
0.64027
0.479682
0.648858
7.1862
0.313878
4.00036
2.25399
6.50181
2.53528
0.289175
7.27182
0.365257
0.584504
0.307958
0.167729
0.319911
0.166402
0.53487
3.36322
6.90538
0.376307
0.258591
0.312132
0.352714
0.369982
0.348425
0.14864
1.60154
0.782625
1.02158
0.362209
0.580184
0.347429
0.499513
5.13562
0.309381
5.39039
0.400084
0.26137
0.282668
0.399315
0.364195
4.06513
0.280392
0.341427
6.23186
0.330044
0.286138
0.396132
6.70738
3.78344
0.28442
0.393532
0.272144
0.369259
0.237989
0.402748
0.281523
0.344176
9.12648
0.426751
3.71402
0.424837
0.884945
0.502264
0.381128
6.91861
0.349547
0.444614
0.645294
5.67129
0.33624
2.83314
0.189872
0.272466
0.128932
0.0966531
5.61082
0.179749
0.0811203
11.1753
7.32663
0.340756
0.254898
0.103922
0.409178
1.27078
1.49332
1.069
0.235223
6.97633
0.293313
0.258161
0.823786
0.161078
0.328375
0.400309
0.55859
14.7964
3.79788
0.219125
0.352743
0.658715
0.227379
0.402405
0.282231
0.281086
2.13115
0.943878
0.751365
0.256006
0.391185
0.609773
18.3961
3.83592
0.315402
0.386884
0.371245
0.544787
0.275539
0.647881
1.35767
14.9312
5.98765
0.166073
0.803286
0.3556
0.159488
0.425463
0.481995
5.38111
0.542854
0.289419
0.331672
0.203012
0.293995
0.866153
3.20495
13.5297
0.956587
0.810681
0.331239
0.811865
0.390424
0.456914
0.517691
0.195829
0.349447
4.87018
0.301015
0.392669
1.16779
15.5804
0.144388
0.422463
4.93309
0.288062
1.05112
0.258244
0.444838
0.734971
1.42521
17.2309
0.342834
1.3933
0.368467
0.771269
0.875987
0.69403
0.354305
0.533085
1.0024
0.359367
0.293598
0.338939
4.68134
0.510394
0.27084
1.29507
0.346821
0.413539
1.67087
0.128351
0.475062
0.320239
3.51989
0.208876
0.583504
0.356447
0.372098
2.53148
0.42655
5.93949
0.335833
0.382139
5.5768
0.42575
1.22278
0.626491
0.955367
0.279161
0.55119
1.83668
0.242797
4.40537
0.529382
0.420319
0.205929
0.291552
0.346861
0.485358
0.348086
0.477591
0.816556
4.82146
0.834099
0.29749
0.460199
0.262
0.496559
14.7164
2.11437
0.26052
0.560646
4.07877
0.591912
0.391821
0.24546
0.508199
1.59001
2.08424
1.51518
0.395755
0.492928
0.220378
0.827894
0.477435
11.5656
2.75442
3.05216
4.03135
0.40432
0.297624
0.508328
0.269598
2.32173
0.591967
0.804719
0.557058
0.431921
0.37713
0.30054
0.769775
2.74753
2.60524
1.16987
0.301586
0.309577
0.338349
0.30591
0.601577
0.699771
0.481621
0.228151
4.0561
3.35361
5.48244
0.266516
0.63277
0.529029
0.28832
5.17168
0.24016
0.490972
0.150568
2.86826
0.134802
8.17742
0.600528
2.18571
0.379756
0.188876
0.222156
0.360623
0.278457
1.35487
1.39632
1.38838
1.52444
0.185305
1.59393
1.51806
0.207029
0.244599
0.288359
0.315815
0.315264
0.32534
0.336129
0.134821
0.4034
0.488753
1.42551
5.70281
0.457834
0.741882
0.345731
0.419448
5.05032
0.244195
0.86311
0.531108
0.853277
0.398194
0.349139
1.52595
1.1027
0.778378
0.436407
0.23492
1.35332
0.524256
5.21203
1.8599
13.5039
5.19787
0.642771
0.609304
0.365445
0.253848
0.402465
1.68468
0.666604
0.410525
0.934483
1.26828
4.71726
1.87259
0.355341
9.08639
4.47048
10.5925
1.02588
1.15891
0.721529
0.597814
0.367724
0.511371
0.415702
12.2359
0.714787
0.230877
0.454374
0.632715
0.32049
0.32269
0.208532
0.36848
0.453068
0.257903
0.1631
2.62976
0.324133
0.240146
11.8476
2.8567
0.748916
0.315833
0.762051
0.218969
2.49938
10.3718
0.630694
0.22524
5.71579
0.842089
0.576784
2.21795
14.6534
0.358599
0.252401
2.16152
17.1017
0.304316
0.435932
0.228642
0.183875
0.452096
0.58126
0.0830839
0.852252
0.465763
0.268201
1.36478
1.97577
4.94075
0.444822
0.349378
5.85849
1.36125
0.161626
7.70896
11.1335
0.24342
0.402604
0.27184
0.44139
0.247391
0.470459
10.7029
0.371737
0.340785
0.183687
0.809026
0.455344
0.265247
11.4956
0.436635
0.325682
0.804303
0.39636
21.5827
0.671941
1.09604
0.893973
4.51307
0.195524
0.331982
10.2896
0.326092
0.323163
0.374221
4.31201
0.686344
0.547626
8.57948
0.260334
0.336481
9.32928
3.3428
0.378596
0.62904
0.299114
0.898179
0.479378
3.69041
1.24819
0.25025
0.216312
0.883052
0.388412
0.716583
3.39077
0.463123
0.375817
0.260798
4.41348
0.461842
0.329826
1.02781
0.214994
0.402012
0.446976
0.602752
1.5028
0.364901
0.597053
0.252697
0.312256
1.30131
0.731633
4.69791
0.155443
0.341484
0.179881
2.16324
0.202305
0.280332
0.438207
0.408847
6.6353
2.58217
0.669534
0.239934
0.443899
2.32931
0.446329
0.978301
0.151994
0.797029
0.738983
0.80135
0.464772
0.534785
0.326574
0.598227
1.31939
1.44112
1.52412
0.149902
1.33627
0.485598
0.423328
3.19511
7.30783
0.760786
0.925367
0.169899
0.200384
0.47198
0.436974
2.20213
0.395469
0.499552
7.55686
0.460411
0.585284
1.17552
6.47527
0.622681
0.347934
2.39126
0.923527
0.296221
0.187765
0.318674
1.30556
0.14271
1.49232
0.807597
3.20851
0.618978
0.525582
0.187132
0.634999
0.417441
0.253822
12.7021
3.48781
2.99135
0.10553
0.930052
0.18087
2.87241
6.82009
0.46098
0.265396
0.413454
0.268271
9.87135
2.51109
9.4964
0.153105
0.694752
1.6505
0.592122
9.38943
0.389451
0.528027
1.76004
0.565718
0.161263
0.636771
0.959123
0.63924
0.233811
2.22526
0.236619
0.405863
10.1555
4.58877
0.315947
0.37729
0.226933
0.120777
0.21021
0.351878
0.792198
1.23352
0.713162
0.282542
1.00034
0.695702
0.366463
7.75314
9.15331
2.82405
11.0644
0.307271
0.350615
0.661395
0.351445
2.72028
15.2031
0.384271
5.07533
1.76386
0.748594
0.425249
2.55913
1.21193
3.38744
0.802199
0.146995
0.557761
0.264181
0.710237
0.684471
0.312701
0.843608
1.54473
0.515018
0.447823
3.0282
0.339548
0.276105
10.8858
4.79892
5.76022
0.1739
0.289656
0.683414
0.989639
4.08079
1.60295
19.2561
0.441094
0.169376
0.606819
0.531415
0.509549
0.317212
0.377902
13.4727
4.63372
0.766985
6.30361
5.37121
0.684075
0.0822111
1.08501
0.124368
3.35549
4.85502
0.4081
0.147522
2.7037
0.719649
1.54558
3.75307
0.234533
0.514566
0.353338
0.717903
0.123914
0.522506
0.21123
1.03467
0.324991
0.951165
0.319639
6.88927
0.281761
0.319938
0.749847
0.488246
0.348374
0.947733
0.185892
0.845902
0.20687
5.9784
0.182627
7.43872
0.363632
0.240716
0.809448
0.347127
0.310769
0.464885
0.267739
0.288886
0.686898
3.82746
0.374017
0.462015
0.290275
0.667533
0.178292
1.05986
0.463281
0.217966
1.85841
0.307132
2.48592
0.456449
0.298371
6.17988
0.849237
0.690509
1.74466
0.162451
0.377575
0.250339
0.350438
0.543416
0.222045
0.768888
0.903932
0.350495
6.61535
0.102389
0.304882
0.230499
0.478644
0.246567
0.536685
3.39241
1.25339
2.39049
0.386582
0.158548
0.285527
0.47544
0.353
0.487759
1.15745
0.703027
0.242592
0.333256
0.183039
0.380124
0.622047
0.534539
0.263962
6.2414
0.459495
0.283755
0.272354
0.27561
0.685041
0.255615
0.329358
0.321738
8.02044
0.392766
0.237636
0.796721
0.258222
1.1158
0.270586
0.323927
0.685828
0.280504
0.358771
0.430259
0.701889
0.604936
1.4527
0.761128
11.7003
4.29343
3.23244
0.266671
0.351236
0.262784
0.770065
0.84197
1.09311
0.672017
0.312313
0.284964
0.801833
0.490359
0.265722
0.308714
0.803298
0.539302
0.833411
0.433152
2.0816
0.857359
0.610951
0.371081
0.498116
0.6836
0.667628
0.88986
0.85622
0.424386
0.713145
0.249185
3.82871
0.279761
0.707847
6.28044
6.93873
0.311714
0.253549
6.55536
1.12642
29.0293
0.882878
2.27081
5.5109
1.23085
1.11241
0.513688
)
;

boundaryField
{
    frontAndBack
    {
        type            empty;
    }
    wallOuter
    {
        lowReCorrection 0;
        type            epsilonWallFunction;
        value           nonuniform List<scalar> 
102
(
0.0802444
0.0802444
0.887725
0.411045
0.0887916
0.288456
0.496515
0.369982
0.128932
0.0966531
0.179749
0.0811203
0.254898
0.103922
0.409178
1.27078
1.069
0.823786
0.658715
0.751365
0.315402
0.166073
0.803286
0.331239
0.811865
0.771269
0.875987
0.42575
0.55119
1.16987
0.309577
0.188876
0.222156
0.360623
0.278457
1.35487
1.39632
1.38838
1.52444
0.185305
1.59393
1.51806
0.207029
0.244599
0.288359
0.315264
0.32534
0.488753
1.42551
0.853277
0.349139
0.778378
1.35332
0.934483
1.26828
0.355341
1.02588
1.15891
0.632715
0.32049
0.842089
0.358599
0.304316
0.0830839
0.444822
0.27184
0.809026
1.09604
0.893973
0.336481
0.299114
0.898179
0.216312
0.883052
0.716583
0.461842
0.446976
0.597053
0.731633
0.408847
0.669534
0.151994
1.31939
1.52412
0.760786
0.395469
0.585284
1.30556
0.417441
0.405863
1.54473
0.515018
0.0822111
0.4081
0.234533
0.522506
0.347127
0.374017
0.667533
0.102389
0.536685
1.25339
)
;
    }
    inlet
    {
        type            fixedValue;
        value           nonuniform 0();
    }
    outlet
    {
        type            zeroGradient;
    }
    wallInner
    {
        lowReCorrection 0;
        type            epsilonWallFunction;
        value           nonuniform List<scalar> 
138
(
10.5938
2.95037
0.754996
1.32836
0.443278
2.10242
10.1923
0.8876
1.06816
0.614161
0.895768
0.425465
0.280682
0.438917
0.575136
0.423564
0.551964
0.160833
0.69143
0.610958
0.610052
0.130767
0.646923
0.294906
5.79351
0.525491
0.159633
0.382672
18.2282
0.213438
0.460777
0.667012
0.610378
0.247047
0.749122
1.81676
0.91624
3.38314
1.3386
0.491535
0.621137
2.1523
0.629323
0.359652
0.648152
0.227049
7.50361
0.40212
1.93603
0.448523
0.532989
0.452892
1.14123
0.734513
4.0856
0.415071
0.440256
0.332049
0.422178
0.425522
0.794138
1.48456
2.67492
0.448075
0.381722
2.86318
0.337073
0.379876
0.647409
1.14211
0.44694
0.622732
0.325386
0.132658
0.344463
0.389761
0.551029
0.310949
31.7181
11.5564
14.8137
18.0575
5.85127
9.13048
6.88217
1.01752
14.8592
13.0074
0.598302
23.7037
18.5036
0.293103
0.83925
2.83545
0.150306
0.445176
5.63319
0.234273
4.00036
0.166402
0.53487
0.362209
0.272144
11.1753
0.340756
3.83592
0.542854
0.349447
0.144388
0.444838
4.68134
1.67087
0.128351
0.955367
0.816556
0.804719
0.134802
0.134821
0.419448
0.230877
11.8476
2.8567
0.576784
21.5827
0.260334
0.602752
0.80135
0.534785
0.200384
0.923527
0.161263
1.1158
29.0293
0.882878
5.5109
1.23085
1.11241
0.513688
)
;
    }
    procBoundary2to0
    {
        type            processor;
        value           nonuniform List<scalar> 
42
(
13.0732
13.0732
0.541844
0.661557
0.891256
19.0752
0.529675
0.529675
0.473688
0.349519
3.03677
3.03677
1.9245
3.72362
4.46778
19.9386
6.23189
0.362724
0.366073
1.54646
1.68134
0.322904
0.322904
9.46223
1.68134
0.359697
17.4173
0.306335
17.4173
10.5229
7.35345
0.256741
0.261258
0.299207
0.342276
0.661557
6.23189
0.694646
19.7624
0.448226
0.448226
0.39552
)
;
    }
    procBoundary2to1
    {
        type            processor;
        value           uniform 2.14085;
    }
    procBoundary2to3
    {
        type            processor;
        value           nonuniform List<scalar> 
29
(
0.756205
0.929588
0.448255
0.75493
6.20676
1.1257
0.424592
1.05599
0.740123
0.744911
1.26062
5.04749
1.08283
0.321591
0.320966
0.335045
0.650838
0.650838
0.929588
0.321591
0.317298
0.635279
0.689314
0.683827
0.374131
0.573717
0.740123
2.74065
5.04749
)
;
    }
}


// ************************************************************************* //
