/*--------------------------------*- C++ -*----------------------------------*\
| =========                 |                                                 |
| \\      /  F ield         | OpenFOAM: The Open Source CFD Toolbox           |
|  \\    /   O peration     | Version:  v1912                                 |
|   \\  /    A nd           | Website:  www.openfoam.com                      |
|    \\/     M anipulation  |                                                 |
\*---------------------------------------------------------------------------*/
FoamFile
{
    version     2.0;
    format      ascii;
    class       volScalarField;
    location    "0.79";
    object      p;
}
// * * * * * * * * * * * * * * * * * * * * * * * * * * * * * * * * * * * * * //

dimensions      [0 2 -2 0 0 0 0];


internalField   nonuniform List<scalar> 
1466
(
92.4882
90.5976
92.1808
92.7385
91.6847
88.9159
93.1852
91.7453
91.9071
93.1685
92.0056
93.136
93.0823
92.8746
92.727
92.9076
92.546
92.4722
91.4355
92.8735
92.7075
93.3741
93.211
91.0692
92.9184
92.1225
92.1015
93.2219
93.3795
91.7812
91.5077
88.3506
93.4314
91.5453
92.3955
92.6156
92.6138
92.821
90.4103
93.4514
93.1309
93.1725
91.7782
91.5004
93.1625
91.8487
92.8072
92.525
93.1632
92.7312
92.1544
93.1924
91.7782
88.9025
93.4639
93.2413
92.7873
93.1617
93.1674
93.2515
92.8801
91.7304
91.6684
88.5998
90.6983
92.8342
93.2238
92.6908
92.5059
93.3607
92.1401
92.6852
92.8635
92.7979
92.8902
93.1747
92.7815
92.5532
93.3428
93.2509
92.1623
92.8081
92.7262
93.1635
92.9282
92.816
92.9705
90.7058
92.7967
92.3302
92.7858
92.7992
93.24
92.6075
92.1461
92.7355
90.434
93.223
91.8171
92.8119
93.289
93.1986
92.2044
90.0991
92.7691
91.8889
92.6822
92.7452
92.0054
92.9254
93.1235
92.9289
90.3262
92.8468
93.0729
90.7788
92.7699
92.8611
92.2298
93.1724
92.6707
92.4369
92.6315
90.5483
92.7789
93.2102
93.0522
91.12
93.2328
92.6349
93.1827
92.7447
92.3612
93.1967
92.1613
93.2481
93.1956
92.9917
93.1751
92.7258
93.1564
92.7463
93.2286
93.2452
93.1709
92.8877
90.4982
92.0002
93.219
92.8919
93.2246
93.0672
92.3868
90.3665
92.8119
91.9881
92.601
90.1694
93.1898
92.1665
93.1904
92.8279
90.8444
92.6911
93.2059
93.2462
92.2616
92.3428
92.8719
92.1926
92.8511
92.8643
93.0505
93.2405
92.1086
90.4503
93.2005
93.249
92.7795
93.2424
92.4997
92.7532
93.2251
92.8116
90.5379
92.8275
92.7226
91.1116
92.6445
89.6987
90.0449
92.8872
92.8114
90.8256
92.7684
92.6512
93.188
92.963
92.7909
92.8043
90.2706
93.1521
92.759
92.8582
93.0575
93.1879
92.7413
91.7178
92.6253
93.1386
93.0926
90.3043
93.1905
92.9131
92.0626
92.6884
92.1992
92.6295
92.878
92.7719
91.5835
92.44
92.9069
92.8365
93.2503
92.8471
92.7343
92.9796
92.6539
92.0081
92.9894
90.8485
92.7868
93.1049
92.7122
93.0684
93.128
91.7331
93.1709
92.9824
91.9
93.2051
92.863
93.2168
93.1945
92.6595
92.1929
92.7104
92.6277
92.6761
92.8121
93.1126
93.1928
90.7208
92.779
93.154
92.6524
92.4946
90.4975
93.191
92.9455
92.892
93.1209
92.2693
89.5694
92.7871
92.0201
90.2255
93.0658
92.7465
93.2181
92.4462
93.0473
92.6133
92.8788
93.1548
90.5792
92.7884
91.7527
93.1876
93.0383
92.6387
92.6902
93.0549
92.7455
93.0999
93.2126
92.917
91.9062
92.777
92.8709
91.9895
93.1875
93.1537
93.2385
93.2011
91.4898
89.843
93.2237
92.7058
93.2102
90.2052
93.0417
93.2028
92.9308
92.6971
90.6887
93.1441
93.0778
89.805
92.0906
92.1389
93.1498
93.1862
93.1933
93.0838
90.2809
92.1316
93.1836
93.0772
92.805
93.2513
93.2589
92.7023
90.6896
92.6648
92.1771
92.7388
92.0815
92.1588
90.5757
92.551
92.1607
92.2181
90.6906
92.628
93.0003
92.1425
90.3914
92.146
90.4536
92.5774
92.7042
92.1595
92.6316
92.1579
90.346
92.7938
93.2021
91.7473
93.2297
92.9934
93.2183
93.1286
93.1217
93.159
90.3076
90.0186
90.0849
93.2005
92.0155
93.2482
93.2513
92.2444
93.2234
92.6527
92.1749
92.129
92.6754
90.3638
92.1362
92.8921
90.3451
92.5685
92.2191
90.6547
92.6877
89.8008
92.938
93.1895
93.055
93.2277
93.213
92.1569
93.2392
93.2025
92.9544
93.023
93.1558
93.1734
93.1906
92.8233
93.2542
90.2617
93.1021
92.6828
93.2525
92.1598
92.7796
93.0552
90.4479
92.1003
93.2529
93.0562
93.1495
92.6334
93.2486
90.4659
92.4972
90.3779
92.8873
93.2494
93.1887
93.2128
91.2253
93.2181
93.2392
93.1232
93.1874
93.2036
93.162
93.1592
93.3587
93.3441
93.3294
93.2911
93.4051
93.3817
93.2996
93.2407
90.1949
92.9331
93.2298
90.1901
91.7195
90.0503
91.2375
91.5673
92.9464
92.7689
90.7471
93.162
90.375
93.2168
92.9979
91.468
92.5714
92.4514
89.7376
93.1406
89.6484
91.6945
93.3285
93.1915
91.1532
93.0175
92.3523
91.8769
93.6398
93.1527
91.3847
93.2145
93.1997
93.1635
90.5675
91.6001
90.2163
92.7829
90.1866
93.2827
90.3895
93.1826
93.1644
93.3728
88.4062
91.4608
93.4647
93.4316
91.3354
89.4382
90.2029
92.6302
88.8956
92.5455
91.2879
90.2808
92.5111
92.1654
89.0726
93.1915
91.2991
90.3637
92.4502
92.1637
93.1895
91.3587
89.5552
91.1289
91.3011
90.9992
90.4793
92.4649
93.2092
93.2465
92.1542
93.2441
93.1866
93.162
93.0529
93.1246
92.7618
91.3849
92.8394
93.1754
93.293
92.9813
90.4918
92.4476
93.1823
93.1757
93.1911
90.935
91.0835
91.8877
92.0643
93.1891
90.7997
91.3696
93.1793
92.152
92.6062
93.2501
93.1266
93.0989
93.2139
91.1948
93.1756
90.6182
92.7666
93.1922
90.9247
90.8565
92.4213
90.8595
93.0836
93.233
92.1374
90.7429
90.8708
90.5965
92.4866
92.7716
90.583
93.2394
93.2465
92.2081
90.2421
92.9612
93.2253
92.6254
92.869
93.2294
93.2417
90.9416
93.1666
93.2565
92.7722
93.0453
93.0427
90.4206
92.7812
92.1014
92.9871
93.1653
92.03
92.9918
92.9859
92.1374
92.9645
92.9233
93.2462
93.0768
93.2475
93.2501
92.7932
89.6826
91.6244
92.495
90.0608
92.6575
90.6027
92.8254
93.1678
92.1902
90.6232
92.477
93.2373
93.2306
90.6013
93.2482
89.7813
90.6765
92.5438
92.1861
92.1379
93.1969
93.2315
92.948
91.5038
90.3371
93.2361
92.0815
92.3534
90.9592
93.0483
92.118
91.0986
92.9135
91.855
90.7414
92.7045
92.7587
92.8637
93.2524
92.5748
93.0996
93.1214
93.1108
92.7357
90.1537
93.0693
90.6098
92.1674
92.3123
93.2487
93.2461
93.253
90.6173
90.7153
92.5467
92.7243
91.4015
92.7834
92.6457
92.0564
93.1868
92.1634
92.0252
91.5473
92.7069
93.1614
89.9709
93.258
91.693
93.2293
93.0182
91.7991
93.2366
92.6712
92.1473
92.9245
90.5649
93.1679
92.8428
91.8962
90.2932
92.964
93.178
90.1983
93.261
92.6163
92.7803
93.1098
92.1415
90.6226
92.7671
92.7207
90.3356
92.6708
93.2024
90.8174
92.7214
92.9304
92.1922
93.1438
92.1331
91.477
93.0584
92.0176
90.8832
92.8089
92.5631
92.7932
93.1889
90.1668
92.5672
93.2089
93.0856
93.2509
93.2301
92.8845
92.2238
93.2497
91.3629
93.2148
92.4422
93.2393
89.944
92.8944
90.7687
92.6416
92.7131
93.1985
90.7181
92.6282
92.6114
93.2416
90.2311
92.5404
92.069
93.2486
93.2103
92.4624
93.236
91.3458
92.9128
93.2497
93.0302
91.6571
93.1905
92.7104
92.407
93.1994
93.1169
93.1087
91.9875
93.1331
93.1048
91.9961
89.6699
92.2847
93.1581
93.1061
92.8352
90.8003
93.1488
93.1868
92.2761
91.7507
93.1951
92.0623
93.286
92.6206
93.2269
93.2448
91.4193
90.0549
92.2291
92.1431
92.6483
93.2805
92.3243
93.2549
90.6135
92.7881
92.0672
93.1691
93.2896
92.1364
92.0864
93.25
90.5019
91.5191
92.9772
93.2584
93.2451
93.0481
93.2016
93.115
91.5711
90.2172
91.4941
93.0728
93.1398
93.2436
93.1583
92.5581
92.7906
91.8656
92.9596
92.8188
92.7463
90.6894
92.8258
90.4507
92.258
91.2582
92.8999
93.3456
92.858
90.7755
93.2462
92.5106
92.116
92.2258
91.9123
92.4488
92.789
92.6346
93.1608
90.2915
92.7203
92.6657
92.3139
92.8861
91.5438
92.4702
92.0726
90.0089
91.7267
90.1026
92.7431
93.1733
93.2291
92.7812
92.7587
91.9288
92.9849
93.0861
92.1721
92.5535
93.2057
92.7535
92.0315
92.5264
92.7612
93.1343
93.243
92.7404
90.3838
93.1133
93.1347
93.1552
92.6388
93.1141
93.2111
93.2284
93.2123
93.0329
93.221
91.5697
93.2399
93.2458
91.8739
92.8557
92.1607
93.2101
92.8292
91.9048
93.2578
91.7132
93.1191
89.9279
90.3381
92.6247
90.6834
92.459
92.6657
93.243
92.7372
92.5017
93.0073
92.1519
91.3899
92.0463
92.8518
92.8032
90.883
90.8279
93.1366
92.8001
92.1319
91.9403
92.7143
92.4758
91.9845
90.431
93.095
93.117
91.415
93.247
92.808
92.6726
93.1534
92.4959
91.6233
92.1026
92.0888
92.1665
93.2501
92.3988
92.5067
93.2139
93.1902
93.2455
92.8887
92.7612
92.7573
93.1945
92.2363
93.0331
92.1609
92.7775
92.8718
93.2222
92.9816
93.1169
92.8057
90.8394
93.0955
90.7948
92.7677
92.8099
90.1818
92.0317
92.8842
92.6954
93.2077
93.2106
92.1502
92.7928
90.8523
93.1414
93.0475
92.6862
91.6929
92.7369
93.0094
92.646
92.8673
92.8702
92.8482
92.8665
90.8324
90.8383
90.7726
90.7652
92.8707
90.8575
91.0256
92.8815
92.8976
92.9172
92.3188
92.9382
92.9604
93.1424
92.7351
93.1739
92.8055
91.2403
89.754
93.2103
93.0092
92.4652
91.6588
92.3096
92.5628
92.1647
92.6296
92.4562
93.2516
92.8333
92.1668
93.1935
92.5033
92.5506
90.653
91.503
92.9247
92.172
91.8433
90.9573
92.1632
92.7068
92.1499
93.117
90.3264
92.5587
93.164
91.0384
93.1403
92.3564
91.778
92.4669
92.1576
92.7252
89.7351
92.6251
91.8747
92.2112
92.0193
93.3233
92.6717
93.1766
92.9347
92.9141
92.1735
93.0258
92.6439
92.6715
92.5148
92.7616
93.2175
93.1097
93.1862
92.5068
90.5884
93.1137
92.8112
92.779
92.6601
92.1265
93.0834
91.3792
93.187
93.3231
93.1997
91.5488
89.4801
92.7185
92.2478
91.907
93.2298
92.8196
92.9169
91.8297
93.0851
93.1939
91.6103
91.6144
93.0774
92.8207
90.2242
93.1781
93.268
90.7609
93.0588
93.2136
92.4805
90.4924
92.1693
92.1133
92.1677
93.2258
93.2064
89.8967
92.1566
93.1363
90.5538
91.6455
92.7802
92.7216
93.001
92.5594
90.2682
92.7845
90.3495
93.2048
93.1483
93.1097
93.2094
92.4911
90.3803
90.6856
93.1882
93.1869
91.6071
92.202
91.9982
93.4245
92.972
93.2472
92.2669
92.3162
93.1519
91.2214
93.1466
92.0953
92.5428
91.945
93.2754
93.0137
91.224
92.4818
92.8214
92.9699
92.0286
93.1577
92.8017
92.7905
93.2282
92.9135
92.811
93.1368
93.0767
93.0187
93.2729
93.2131
92.5298
92.0797
93.2501
93.0484
92.4358
92.3739
92.4935
92.8084
90.8305
92.6299
93.2104
92.8252
92.1093
93.1779
92.7064
92.7906
92.9642
90.3821
92.1622
93.2601
92.4436
93.0722
90.4374
93.0898
93.0697
93.0098
90.3821
93.2136
92.5661
89.7661
92.1316
92.5296
93.1959
93.225
92.9041
92.5764
91.3656
93.0341
91.3318
93.2264
92.8543
92.4881
92.8867
92.797
93.0085
93.13
93.1852
93.204
93.1278
90.4656
92.5899
92.1159
92.8582
91.8409
93.2348
93.205
92.3321
92.5842
92.8915
92.6971
92.1578
92.6407
92.602
91.7515
92.6516
92.4974
91.3888
88.873
91.7753
92.8722
93.1733
92.8655
93.2241
92.4298
92.8745
92.8118
93.0485
93.1737
90.8696
92.621
90.6785
92.4755
93.0972
93.0082
92.5234
92.5933
90.0977
92.4042
92.9417
93.0496
93.1974
93.109
92.059
92.1407
93.0224
92.7825
90.8783
92.8306
90.0805
92.0874
91.3534
93.1383
92.8338
92.1451
92.132
90.9584
92.7637
93.2515
93.1394
93.2579
92.4127
93.3964
90.1179
90.8444
93.1311
92.0844
92.6974
92.6037
89.7901
92.461
92.6904
92.8184
90.2701
93.0572
92.3593
92.8657
93.2112
92.1696
91.5834
92.802
92.1821
93.373
92.8042
91.2231
89.8931
92.8931
90.0953
92.7667
90.8743
92.1653
93.1478
92.0186
91.3937
93.2035
90.0496
93.1694
93.0303
93.1847
90.3793
93.2022
92.014
93.4257
93.113
92.7052
93.2238
93.2378
93.041
92.6093
93.4179
90.7694
92.8361
93.1131
92.7752
93.1377
93.0502
89.6882
92.3168
91.9658
93.1429
92.798
93.004
92.1601
92.1992
93.0622
91.6534
92.7002
90.6682
93.2661
93.2786
92.3971
92.7764
93.1912
89.7898
92.2673
92.185
91.7004
92.0677
93.2405
93.0501
93.1951
92.385
92.7598
89.9125
93.0829
92.4199
92.0448
93.2856
93.1627
90.0219
93.0932
93.2154
93.156
90.6956
92.403
92.4871
93.1099
93.2083
92.2368
90.4165
93.1482
91.5509
93.0841
90.3703
93.2531
92.7563
93.1031
93.1998
92.2829
93.2472
93.155
90.43
92.4258
91.5048
92.8368
90.3226
93.246
93.1906
93.2452
92.5624
90.6524
92.7843
91.4015
92.0101
92.6824
92.5157
90.4953
92.7929
93.1156
92.1672
92.6293
90.6781
93.1452
92.878
92.8785
92.5263
90.5913
92.8398
93.2017
93.4467
92.1328
93.1645
92.7122
90.3174
92.9059
92.1983
93.012
91.6452
92.1572
93.2176
89.8688
93.0442
92.9963
90.321
92.6677
90.2312
92.7934
92.9457
93.0387
93.0997
92.7546
90.637
92.8097
92.8624
93.2553
92.9592
93.0946
92.9695
92.849
93.2138
93.1218
93.2562
92.7807
90.598
92.2853
92.402
92.9627
93.0519
92.772
90.6983
93.2989
93.1151
93.1399
93.2053
91.4276
92.6891
90.2699
93.3418
93.1032
93.3891
92.8267
93.2446
92.9444
92.8922
92.1889
92.8985
90.6695
92.9814
92.8898
93.2802
89.8465
92.4442
88.0658
92.7678
90.8007
92.8429
92.8079
93.22
93.1593
92.9902
92.7496
90.7721
90.7448
92.4593
92.5848
92.8582
90.7894
92.289
90.3275
92.8966
93.143
90.1633
90.6006
93.221
93.0277
93.2823
93.2616
92.1812
92.9921
93.2404
92.9021
93.1608
90.4286
93.0816
93.2038
91.8282
91.7222
92.8814
93.2205
91.8938
92.1758
92.6655
91.8416
92.0738
91.5771
93.0135
93.3543
92.9976
)
;

boundaryField
{
    frontAndBack
    {
        type            empty;
    }
    wallOuter
    {
        type            zeroGradient;
    }
    inlet
    {
        type            zeroGradient;
    }
    outlet
    {
        type            fixedValue;
        value           nonuniform 0();
    }
    wallInner
    {
        type            zeroGradient;
    }
    procBoundary2to0
    {
        type            processor;
        value           nonuniform List<scalar> 
42
(
89.7427
89.7427
90.8744
90.8587
90.2378
89.8691
90.881
90.881
90.2072
90.1853
90.0761
90.0761
90.2509
89.9488
89.8432
90.0934
89.6864
90.2127
90.1854
88.0703
88.727
90.2477
90.2477
89.2666
88.727
90.3921
89.6398
90.5306
89.6398
89.7318
89.6929
90.6629
90.7517
90.8081
90.8584
90.8587
89.6864
90.8146
89.8831
90.9285
90.9285
90.9006
)
;
    }
    procBoundary2to1
    {
        type            processor;
        value           uniform 87.9017;
    }
    procBoundary2to3
    {
        type            processor;
        value           nonuniform List<scalar> 
29
(
91.8764
91.6802
93.4495
93.5091
88.7375
91.8792
93.2373
91.7065
93.4587
93.4858
91.8367
88.4012
91.9079
93.1987
93.2274
93.221
93.4573
93.4573
91.6802
93.1987
93.2174
93.4792
93.2755
93.488
93.2443
93.4645
93.4587
88.0165
88.4012
)
;
    }
}


// ************************************************************************* //
