# vtk DataFile Version 2.0
track0
ASCII
DATASET POLYDATA
POINTS 12613 double
1.66533e-17 0.5 -5.37764e-17
0.391304 0.5 0
0.393043 0.491839 -1.11022e-16
0.3953 0.483806 -5.55112e-17
0.398055 0.475929 -1.11022e-16
0.4 0.471314 -5.55112e-17
0.406656 0.457051 -8.32667e-17
0.415042 0.443732 -5.55112e-17
0.42501 0.431551 -2.77556e-17
0.436378 0.420665 -8.32667e-17
0.463621 0.4 -1.94289e-16
0.470897 0.396868 -1.66533e-16
0.478332 0.394136 -1.66533e-16
0.485903 0.391806 -2.77556e-16
0.493587 0.389882 -2.22045e-16
0.5 0.388627 -2.22045e-16
0.52 0.385584 -2.77556e-16
0.540227 0.385204 -2.22045e-16
0.560306 0.387671 -1.80411e-16
0.579825 0.392988 -1.66533e-16
0.595882 0.4 -2.22045e-16
0.596706 0.400493 -2.22045e-16
0.597526 0.400991 -1.66533e-16
0.598343 0.401495 -1.11022e-16
0.599156 0.402004 -1.11022e-16
0.6 0.402541 -1.31839e-16
0.62 0.415488 -1.66533e-16
0.637333 0.431834 -1.94289e-16
0.651642 0.450883 -1.8735e-16
0.662833 0.471917 -1.66533e-16
0.672698 0.5 -1.11022e-16
0.675885 0.52 -1.11022e-16
0.676784 0.540232 -1.11022e-16
0.67563 0.560452 -1.11022e-16
0.672448 0.580452 -8.32667e-17
0.667122 0.6 -5.55112e-17
0.658928 0.62 -1.11022e-16
0.647887 0.63858 -1.07553e-16
0.634176 0.655288 -1.249e-16
0.618127 0.669765 -1.11022e-16
0.6 0.681747 -1.11022e-16
0.592124 0.685397 -5.55112e-17
0.584059 0.688607 -1.11022e-16
0.575841 0.691404 -1.11022e-16
0.567505 0.693825 -8.32667e-17
0.542057 0.7 -1.38778e-16
0.533645 0.700913 -2.22045e-16
0.525204 0.701482 -1.94289e-16
0.516746 0.701714 -2.22045e-16
0.508286 0.701618 -2.22045e-16
0.5 0.701208 -1.66533e-16
0.497168 0.700966 -2.22045e-16
0.494338 0.700695 -2.77556e-16
0.491512 0.700391 -2.77556e-16
0.488689 0.700056 -2.77556e-16
0.488259 0.7 -2.77556e-16
0.470607 0.697671 -3.05311e-16
0.453171 0.694066 -3.26128e-16
0.436053 0.689169 -3.33067e-16
0.419362 0.682971 -2.56739e-16
0.4 0.673985 -3.33067e-16
0.38 0.661856 -2.77556e-16
0.361647 0.647354 -3.29597e-16
0.345269 0.630655 -3.81639e-16
0.331311 0.611886 -3.60822e-16
0.324918 0.6 -3.05311e-16
0.319934 0.588418 -2.77556e-16
0.315867 0.576483 -3.33067e-16
0.312663 0.564287 -3.05311e-16
0.310271 0.551907 -2.63678e-16
0.303719 0.5 -2.70617e-16
0.306385 0.48 -2.77556e-16
0.310799 0.460312 -3.33067e-16
0.316896 0.441078 -2.77556e-16
0.324657 0.422454 -2.77556e-16
0.33645 0.4 -2.77556e-16
0.34916 0.38156 -3.33067e-16
0.363687 0.364515 -3.33067e-16
0.379845 0.349008 -3.13985e-16
0.397446 0.335159 -3.60822e-16
0.4 0.333542 -2.77556e-16
0.410935 0.326834 -2.77556e-16
0.422268 0.320823 -2.77556e-16
0.433943 0.315506 -3.33067e-16
0.445882 0.310814 -2.70617e-16
0.478339 0.3 -2.22045e-16
0.482671 0.2992 -2.22045e-16
0.487016 0.298474 -2.22045e-16
0.491373 0.297822 -2.22045e-16
0.495741 0.297244 -2.77556e-16
0.5 0.296753 -2.77556e-16
0.52 0.294751 -2.77556e-16
0.540094 0.294264 -2.22045e-16
0.560164 0.295366 -1.52656e-16
0.58008 0.298078 -5.55112e-17
0.588796 0.3 -5.55112e-17
0.591037 0.300581 -1.11022e-16
0.593272 0.301183 -5.55112e-17
0.595502 0.301806 -5.55112e-17
0.597725 0.302449 0
0.6 0.30313 0
0.62 0.30939 0
0.639268 0.31763 0
0.657592 0.3278 0
0.674774 0.339797 2.77556e-17
0.7 0.361988 -2.77556e-17
0.705863 0.36959 -5.55112e-17
0.711354 0.377465 -1.11022e-16
0.716479 0.385583 -1.38778e-16
0.721242 0.393919 -1.66533e-16
0.724367 0.4 -2.22045e-16
0.733881 0.42 -1.94289e-16
0.741618 0.440753 -1.66533e-16
0.747759 0.462032 -1.66533e-16
0.75232 0.483705 -1.2837e-16
0.754639 0.5 -1.66533e-16
0.756501 0.52 -1.11022e-16
0.757238 0.540073 -1.38778e-16
0.756895 0.560157 -1.52656e-16
0.755659 0.580205 -9.02056e-17
0.753295 0.6 -1.66533e-16
0.749643 0.62 -1.37043e-16
0.744602 0.639696 -1.59595e-16
0.738136 0.658971 -1.38778e-16
0.730047 0.677623 -1.11022e-16
0.717759 0.7 -1.66533e-16
0.714207 0.704829 -2.22045e-16
0.710493 0.709533 -1.66533e-16
0.706618 0.714107 -1.80411e-16
0.702596 0.718551 -1.11022e-16
0.7 0.721233 -5.55112e-17
0.684096 0.736987 -5.55112e-17
0.666212 0.75045 -1.38778e-16
0.646727 0.76147 -1.38778e-16
0.626161 0.770309 -1.66533e-16
0.6 0.778824 -1.11022e-16
0.58 0.782933 -5.55112e-17
0.559749 0.785535 -8.32667e-17
0.53939 0.787081 -1.66533e-16
0.518979 0.787599 -1.94289e-16
0.5 0.787153 -1.66533e-16
0.48 0.785662 -1.11022e-16
0.460098 0.783185 -9.71445e-17
0.440314 0.779895 -2.77556e-17
0.420686 0.775777 0
0.4 0.770449 0
0.38 0.763879 0
0.360408 0.756177 0
0.341289 0.747368 -6.93889e-18
0.322789 0.737322 0
0.3 0.722289 0
0.294801 0.717831 -5.55112e-17
0.289719 0.713241 -5.55112e-17
0.284757 0.708521 5.55112e-17
0.279938 0.703655 5.55112e-17
0.276542 0.7 1.11022e-16
0.261233 0.682721 8.32667e-17
0.248044 0.663774 8.32667e-17
0.237066 0.643466 8.32667e-17
0.228141 0.622176 5.55112e-17
0.221234 0.6 5.55112e-17
0.217141 0.58 0
0.214674 0.559735 2.77556e-17
0.213391 0.539361 0
0.213271 0.518947 6.93889e-18
0.214203 0.5 -2.77556e-17
0.216395 0.48 0
0.219776 0.460166 -2.77556e-17
0.224092 0.440515 -8.32667e-17
0.229359 0.421097 -1.11022e-16
0.236309 0.4 -1.11022e-16
0.244555 0.38 -8.32667e-17
0.254019 0.360547 -2.77556e-17
0.264647 0.341705 0
0.276538 0.323633 0
0.294768 0.3 -5.55112e-17
0.295814 0.29892 -5.55112e-17
0.296865 0.297845 -5.55112e-17
0.297921 0.296774 -5.55112e-17
0.298982 0.295709 -5.55112e-17
0.3 0.294696 -5.55112e-17
0.319209 0.275756 0
0.340279 0.258912 -1.38778e-17
0.36295 0.244294 2.08167e-17
0.386885 0.231851 5.55112e-17
0.4 0.226481 5.55112e-17
0.414971 0.221185 1.04083e-16
0.430215 0.216735 1.11022e-16
0.445644 0.212979 0
0.461214 0.209858 0
0.5 0.20369 -3.46945e-17
0.512399 0.202952 0
0.524814 0.202588 -1.11022e-16
0.537235 0.202574 -1.38778e-16
0.549652 0.202914 -6.93889e-17
0.6 0.205739 -6.245e-17
0.62 0.209355 -1.11022e-16
0.639756 0.214128 -1.249e-16
0.659197 0.220053 -1.66533e-16
0.67824 0.227155 -1.66533e-16
0.7 0.237038 -1.66533e-16
0.72 0.249181 -2.22045e-16
0.73868 0.26327 -1.9082e-16
0.755887 0.279124 -2.01228e-16
0.770946 0.297032 -2.22045e-16
0.772883 0.3 -2.77556e-16
0.778306 0.308635 -2.77556e-16
0.783359 0.317493 -2.77556e-16
0.788057 0.326543 -2.22045e-16
0.792394 0.335772 -1.94289e-16
0.8 0.353655 -1.66533e-16
0.803249 0.362924 -1.66533e-16
0.806234 0.372281 -1.94289e-16
0.808971 0.381714 -1.66533e-16
0.811475 0.391212 -1.56125e-16
0.813587 0.4 -1.11022e-16
0.818053 0.42 -1.11022e-16
0.82183 0.440142 -1.66533e-16
0.824812 0.460416 -2.63678e-16
0.82705 0.480786 -1.94289e-16
0.828575 0.5 -2.22045e-16
0.82974 0.52 -3.33067e-16
0.830493 0.54002 -3.88578e-16
0.830729 0.560052 -3.88578e-16
0.830312 0.580082 -4.02456e-16
0.829346 0.6 -3.60822e-16
0.827874 0.62 -4.996e-16
0.825886 0.639955 -4.44089e-16
0.823188 0.659827 -4.85723e-16
0.819606 0.679559 -4.996e-16
0.814838 0.7 -5.55112e-16
0.81187 0.710207 -5.55112e-16
0.808612 0.720324 -5.27356e-16
0.804998 0.73032 -5.55112e-16
0.800993 0.740166 -4.996e-16
0.8 0.742334 -5.41234e-16
0.794573 0.753867 -4.996e-16
0.788468 0.765056 -5.55112e-16
0.78165 0.775825 -5.55112e-16
0.774097 0.786093 -4.44089e-16
0.762276 0.8 -4.44089e-16
0.749821 0.811861 -4.67942e-16
0.736179 0.822334 -4.71845e-16
0.721531 0.831347 -4.16334e-16
0.706201 0.839145 -3.88578e-16
0.7 0.841862 -4.16334e-16
0.68 0.85009 -3.88578e-16
0.659253 0.856194 -4.02456e-16
0.638059 0.860495 -4.16334e-16
0.616707 0.863931 -3.88578e-16
0.6 0.865961 -3.88578e-16
0.58 0.867752 -4.44089e-16
0.559934 0.868501 -4.16334e-16
0.539854 0.868558 -3.88578e-16
0.519777 0.868225 -3.88578e-16
0.5 0.867424 -3.88578e-16
0.48 0.866019 -3.88578e-16
0.460055 0.86398 -4.57967e-16
0.440169 0.861424 -4.57967e-16
0.420329 0.858537 -4.30211e-16
0.4 0.854926 -4.44089e-16
0.38 0.850558 -4.44089e-16
0.360111 0.845708 -3.81639e-16
0.340338 0.840408 -3.76001e-16
0.320798 0.834304 -3.88578e-16
0.3 0.826547 -4.16334e-16
0.288333 0.821237 -4.44089e-16
0.276769 0.81571 -4.44089e-16
0.265367 0.809853 -4.44089e-16
0.254231 0.803505 -4.44089e-16
0.248699 0.8 -4.44089e-16
0.238959 0.793481 -4.44089e-16
0.229546 0.7865 -4.44089e-16
0.220489 0.779061 -4.44089e-16
0.211818 0.771176 -4.44089e-16
0.2 0.759029 -4.996e-16
0.190459 0.747223 -4.54498e-16
0.18174 0.734798 -4.71845e-16
0.17385 0.721831 -4.996e-16
0.166733 0.708424 -4.996e-16
0.162748 0.7 -5.27356e-16
0.153975 0.68 -4.92661e-16
0.147239 0.659226 -4.44089e-16
0.142276 0.637958 -4.44089e-16
0.138362 0.616472 -4.71845e-16
0.136138 0.6 -4.44089e-16
0.134183 0.58 -4.16334e-16
0.133428 0.559919 -3.88578e-16
0.133531 0.539824 -3.88578e-16
0.134107 0.519737 -3.60822e-16
0.135292 0.5 -4.44089e-16
0.137254 0.48 -3.88578e-16
0.140006 0.460093 -4.16334e-16
0.14346 0.440296 -4.16334e-16
0.147374 0.420585 -3.81639e-16
0.152301 0.4 -3.7817e-16
0.158119 0.38 -3.60822e-16
0.164534 0.360184 -3.60822e-16
0.171576 0.340581 -3.46945e-16
0.179587 0.321354 -3.33067e-16
0.189874 0.3 -3.33067e-16
0.191899 0.296458 -2.77556e-16
0.193944 0.292927 -2.77556e-16
0.196012 0.289409 -3.33067e-16
0.198114 0.285912 -3.33067e-16
0.2 0.282848 -3.33067e-16
0.21041 0.266279 -3.88578e-16
0.221833 0.25039 -5.00468e-16
0.234271 0.235284 -5.25621e-16
0.247692 0.221042 -4.71845e-16
0.270727 0.2 -4.44089e-16
0.276581 0.195874 -4.44089e-16
0.282524 0.191877 -4.44089e-16
0.288552 0.188007 -4.44089e-16
0.294657 0.184263 -4.44089e-16
0.3 0.181106 -4.44089e-16
0.32 0.169676 -5.55112e-16
0.34091 0.16001 -5.18682e-16
0.362509 0.151999 -4.996e-16
0.384559 0.145332 -4.57967e-16
0.4 0.141403 -4.44089e-16
0.42 0.136978 -5.55112e-16
0.44022 0.133706 -5.41234e-16
0.460563 0.131303 -5.55112e-16
0.480957 0.129394 -5.55112e-16
0.5 0.128182 -4.44089e-16
0.52 0.127594 -4.71845e-16
0.540008 0.127783 -4.996e-16
0.560004 0.128492 -4.71845e-16
0.579982 0.129603 -4.44089e-16
0.6 0.131304 -4.996e-16
0.62 0.133908 -4.996e-16
0.639903 0.137173 -4.44089e-16
0.659698 0.141038 -4.30211e-16
0.679379 0.145443 -4.44089e-16
0.7 0.151496 -4.30211e-16
0.72 0.159204 -4.71845e-16
0.739602 0.167874 -4.44089e-16
0.758624 0.177752 -4.71845e-16
0.776434 0.189679 -4.44089e-16
0.788489 0.2 -4.44089e-16
0.790791 0.202351 -4.996e-16
0.793056 0.204737 -4.44089e-16
0.795284 0.207158 -4.44089e-16
0.797467 0.20962 -3.88578e-16
0.8 0.212604 -4.71845e-16
[...]
POINT_DATA 12613
 FIELD attributes 1
U 3 12613 float
2.32243e-19 	-4.37621e-18 	-2.32772e-36
0.00232328 	-0.0109023 	0 0.00305339 	-0.0108693 	9.22807e-24 0.0037232 	-0.0106476 	8.80588e-23 0.00437719 	-0.0103821 	1.69501e-22 0.00475863 	-0.0101972 	2.19755e-22 0.00607367 	-0.00964662 	2.78031e-22 0.00733609 	-0.00896527 	3.15823e-22 0.00852701 	-0.00816509 	3.32781e-22 0.00947842 	-0.00718976 	4.00624e-22 0.0111996 	-0.00482061 	5.68363e-22 0.0115111 	-0.00423087 	6.21573e-22 0.0117897 	-0.0036277 	6.64626e-22 0.0120348 	-0.00301298 	6.97498e-22 0.01217 	-0.00238304 	6.47054e-22 0.0121592 	-0.00185004 	5.06101e-22 0.0125945 	-0.000236279 	2.98607e-22 0.0125393 	0.00154067 	2.04786e-22 0.0122365 	0.00333286 	1.24597e-22 0.0116875 	0.005104 	5.99309e-23 0.0110057 	0.0065872 	1.87477e-23 0.0109646 	0.00666227 	1.2754e-23 0.0109231 	0.00673707 	6.75035e-24 0.0108811 	0.00681161 	7.37078e-25 0.0108286 	0.00689063 	0 0.010772 	0.00697332 	0 0.00962278 	0.00907487 	6.59694e-23 0.00824585 	0.0109772 	8.03997e-23 0.00673281 	0.0126547 	3.54199e-23 0.0048804 	0.0138926 	3.34643e-22 0.00239536 	0.0150344 	7.00096e-22 0.000686216 	0.0154474 	5.3818e-22 -0.000882393 	0.0154653 	2.91821e-22 -0.0024281 	0.0152605 	1.85739e-23 -0.00403902 	0.0148238 	-1.87071e-22 -0.00577124 	0.0140869 	-2.37363e-22 -0.00775765 	0.0130545 	-1.37661e-22 -0.00965817 	0.0117693 	-3.29098e-23 -0.011315 	0.0102068 	0 -0.0127522 	0.00842924 	0 -0.0139937 	0.00648664 	0 -0.0145114 	0.00577459 	0 -0.0149411 	0.0050846 	0 -0.0152614 	0.0044326 	0 -0.015555 	0.00377455 	0 -0.0163594 	0.00177536 	0 -0.0165577 	0.00111584 	0 -0.0167239 	0.000459703 	0 -0.0168584 	-0.000192089 	0 -0.0169618 	-0.000838639 	0 -0.0169881 	-0.00144927 	0 -0.0169905 	-0.00163228 	-4.1446e-23 -0.0169449 	-0.00181945 	-1.10339e-22 -0.0168964 	-0.00200646 	-1.79863e-22 -0.0168448 	-0.00219328 	-2.50013e-22 -0.0168365 	-0.00222175 	-2.60808e-22 -0.0165418 	-0.00341982 	-6.01185e-22 -0.0161549 	-0.00462159 	-9.08438e-22 -0.0156753 	-0.00582054 	-1.17992e-21 -0.0151031 	-0.0070096 	-1.41302e-21 -0.0139143 	-0.00843843 	-1.64351e-21 -0.0127935 	-0.0101085 	-9.29787e-22 -0.0114665 	-0.0116916 	-1.9996e-22 -0.00965802 	-0.0129866 	0 -0.00756723 	-0.0140701 	0 -0.00627851 	-0.0145919 	0 -0.00519208 	-0.0152344 	0 -0.00412952 	-0.0157168 	0 -0.0030987 	-0.0160386 	0 -0.00205998 	-0.0163196 	0 0.00229838 	-0.0172414 	0 0.00381357 	-0.0170107 	4.23124e-23 0.00526587 	-0.016611 	8.97811e-23 0.00672309 	-0.0161324 	1.30605e-22 0.00816231 	-0.0155411 	1.81246e-22 0.00977985 	-0.0141887 	4.76735e-22 0.011341 	-0.013308 	7.9448e-22 0.012829 	-0.0123113 	1.10085e-21 0.0137196 	-0.0107955 	1.2964e-21 0.0145015 	-0.00918062 	1.47324e-21 0.0145926 	-0.00895249 	1.4946e-21 0.0153505 	-0.00814041 	1.67903e-21 0.0160527 	-0.00731153 	1.83131e-21 0.016408 	-0.00644845 	1.67249e-21 0.0167443 	-0.00557875 	1.51661e-21 0.0175875 	-0.00324832 	1.10993e-21 0.0176917 	-0.00295505 	1.07479e-21 0.017792 	-0.0026616 	1.03893e-21 0.0178883 	-0.00236804 	1.00236e-21 0.0179807 	-0.00207447 	9.65087e-22 0.0179634 	-0.0017976 	8.87115e-22 0.0180905 	-0.000438345 	6.74182e-22 0.0180022 	0.000988128 	4.88563e-22 0.017817 	0.0024261 	3.1749e-22 0.0175344 	0.00386654 	1.62326e-22 0.0173658 	0.00450306 	1.01049e-22 0.017329 	0.0046662 	7.55984e-23 0.0172915 	0.00482908 	5.00099e-23 0.0172532 	0.00499168 	2.42853e-23 0.0172101 	0.00515578 	0 0.0171023 	0.00535231 	0 0.0164102 	0.00701852 	1.66915e-22 0.0155809 	0.00864779 	3.40389e-22 0.0147116 	0.0102717 	4.68654e-22 0.0135611 	0.0119294 	7.63295e-22 0.0112669 	0.0146101 	1.50433e-21 0.0107459 	0.0154103 	1.71832e-21 0.0102188 	0.0161868 	1.91792e-21 0.00966618 	0.0169177 	2.06425e-21 0.0089982 	0.0175097 	1.98743e-21 0.00852208 	0.0179137 	1.92475e-21 0.00730436 	0.019594 	2.11444e-21 0.00610905 	0.0211673 	2.27071e-21 0.00463515 	0.0220274 	2.18787e-21 0.00318248 	0.0223587 	1.83915e-21 0.00209562 	0.0225105 	1.56475e-21 0.00084665 	0.0230638 	1.547e-21 -0.000401454 	0.0235199 	1.51672e-21 -0.00143773 	0.023322 	1.10715e-21 -0.0026937 	0.0225524 	4.50829e-22 -0.00396131 	0.0216962 	-2.00485e-22 -0.0054213 	0.0211804 	-1.26002e-21 -0.00689383 	0.0205508 	-2.30758e-21 -0.00842002 	0.0194165 	-2.31822e-21 -0.00977196 	0.0177942 	-1.6589e-21 -0.0114407 	0.0155536 	-7.08138e-22 -0.0119258 	0.0151061 	-6.39752e-22 -0.0124111 	0.0146522 	-5.73119e-22 -0.012783 	0.0141214 	-4.88162e-22 -0.0131393 	0.0135762 	-4.0241e-22 -0.0133602 	0.0132337 	-3.50202e-22 -0.0152188 	0.011457 	-1.27497e-22 -0.0171036 	0.00967279 	5.12716e-23 -0.0185776 	0.00798458 	8.01293e-23 -0.0194908 	0.00634409 	0 -0.0201149 	0.00413206 	0 -0.0212535 	0.00273074 	0 -0.0215757 	0.00163921 	0 -0.0218781 	0.000554729 	0 -0.0221605 	-0.000520107 	0 -0.0219253 	-0.00163507 	0 -0.0221904 	-0.00276221 	-1.94583e-22 -0.0218634 	-0.00363472 	-7.93418e-22 -0.0215282 	-0.00451758 	-1.3603e-21 -0.0210531 	-0.00542219 	-1.97189e-21 -0.0197079 	-0.00647363 	-3.07759e-21 -0.0195028 	-0.0076671 	-5.42038e-21 -0.0192392 	-0.00886452 	-7.69996e-21 -0.0182401 	-0.00990464 	-8.26616e-21 -0.0164678 	-0.0108633 	-6.85139e-21 -0.0141851 	-0.0121633 	-5.04943e-21 -0.0139052 	-0.0125606 	-5.33089e-21 -0.0136228 	-0.0129595 	-5.60084e-21 -0.0131639 	-0.0132889 	-5.33077e-21 -0.0126257 	-0.0135884 	-4.81417e-21 -0.0122322 	-0.0138072 	-4.42727e-21 -0.0106805 	-0.0153427 	-2.86429e-21 -0.00915044 	-0.0169275 	-1.16984e-21 -0.00757464 	-0.0180691 	-8.63716e-22 -0.005843 	-0.0187584 	-1.54833e-21 -0.00392196 	-0.0191652 	-2.45469e-21 -0.00245813 	-0.0201874 	-1.9999e-21 -0.0012862 	-0.0204342 	-1.77084e-21 -0.000122094 	-0.0206822 	-1.48604e-21 0.00103054 	-0.0209304 	-1.1477e-21 0.00226164 	-0.0206441 	-1.22881e-21 0.00356918 	-0.0209359 	-9.17321e-22 0.00452371 	-0.0205936 	-6.13766e-22 0.00549558 	-0.0202633 	-2.97459e-22 0.00647313 	-0.019648 	-6.14577e-23 0.00754564 	-0.0183029 	8.27537e-25 0.00879242 	-0.0180708 	1.39719e-23 0.0100424 	-0.0178061 	3.37891e-23 0.0110521 	-0.0167958 	2.71543e-22 0.0119816 	-0.0155332 	5.81204e-22 0.0130788 	-0.0134949 	1.03661e-21 0.0131504 	-0.013451 	1.04953e-21 0.0132221 	-0.0134071 	1.06251e-21 0.0132762 	-0.013339 	1.07497e-21 0.0133154 	-0.0132501 	1.087e-21 0.013353 	-0.0131653 	1.09854e-21 0.0147674 	-0.0118062 	1.67511e-21 0.0162937 	-0.0105058 	2.30681e-21 0.0171882 	-0.00893563 	2.30562e-21 0.0175581 	-0.00718926 	1.754e-21 0.0177365 	-0.00627454 	1.45965e-21 0.0186091 	-0.00543193 	1.4899e-21 0.0190526 	-0.00463782 	1.35551e-21 0.0193123 	-0.00387081 	1.15354e-21 0.0195846 	-0.00311451 	9.61849e-22 0.0201448 	-0.00119914 	4.63394e-22 0.0202058 	-0.000592775 	3.78035e-22 0.0201349 	-2.25014e-05 	3.24215e-22 0.0200688 	0.000549404 	2.68806e-22 0.0200075 	0.00112249 	2.11838e-22 0.0195627 	0.00353682 	0 0.0191778 	0.00463394 	7.65914e-23 0.0185891 	0.00566547 	1.84385e-22 0.0180297 	0.00672409 	2.81631e-22 0.0173153 	0.00786381 	4.52422e-22 0.0156423 	0.00949701 	1.03565e-21 0.0149016 	0.0112392 	1.83195e-21 0.014105 	0.0129966 	2.57021e-21 0.0124548 	0.0148104 	2.81047e-21 0.0108244 	0.0165911 	2.99529e-21 0.010584 	0.016852 	3.01486e-21 0.0101205 	0.0177423 	3.26935e-21 0.00966366 	0.0186154 	3.50415e-21 0.00909093 	0.019346 	3.49079e-21 0.00853574 	0.020068 	3.47679e-21 0.00751058 	0.0214263 	3.44899e-21 0.00707396 	0.0221758 	3.48865e-21 0.00664732 	0.0229102 	3.52348e-21 0.00623027 	0.0236298 	3.55379e-21 0.00582692 	0.0242474 	3.52361e-21 0.00547763 	0.0245281 	3.31587e-21 0.00489559 	0.0261129 	3.29752e-21 0.00396782 	0.0269724 	3.07744e-21 0.00305047 	0.0277623 	2.84703e-21 0.00223203 	0.0281322 	2.3991e-21 0.00162165 	0.0278245 	1.61568e-21 0.00107774 	0.0286637 	1.54543e-21 0.000341761 	0.0290286 	1.30338e-21 -0.000600408 	0.0288785 	8.77282e-22 -0.00136597 	0.0281426 	4.34361e-22 -0.00198116 	0.0269243 	-2.01223e-23 -0.00267112 	0.0268177 	-2.7381e-23 -0.00354693 	0.0261168 	-1.22265e-22 -0.0045449 	0.0250392 	-2.70714e-22 -0.00557321 	0.0238926 	-4.251e-22 -0.0063666 	0.021897 	-5.42137e-22 -0.00687453 	0.0213435 	-5.4497e-22 -0.00739661 	0.0204585 	-2.83623e-22 -0.00793693 	0.0195133 	1.67621e-23 -0.00849701 	0.0185537 	3.17831e-22 -0.00862729 	0.0183352 	3.85422e-22 -0.00943654 	0.0172954 	6.20019e-22 -0.0102908 	0.0162531 	8.37814e-22 -0.0111907 	0.0152122 	1.03643e-21 -0.0119538 	0.014064 	1.24584e-21 -0.012975 	0.0123554 	1.53648e-21 -0.0142794 	0.0109635 	2.01396e-21 -0.0156091 	0.00960351 	2.41189e-21 -0.0164289 	0.00835726 	2.24049e-21 -0.0165415 	0.00724884 	1.34133e-21 -0.016593 	0.00682603 	9.77599e-22 -0.0185642 	0.00546169 	5.86559e-22 -0.0206421 	0.00418862 	1.80915e-22 -0.0210924 	0.0033948 	0 -0.0203737 	0.00247581 	0 -0.0198263 	0.00177466 	0 -0.0214863 	0.000802197 	0 -0.0224819 	6.40646e-05 	0 -0.0225574 	-0.000373573 	0 -0.0218129 	-0.000884081 	0 -0.0205005 	-0.00143966 	0 -0.0216867 	-0.00221773 	0 -0.0225853 	-0.00290253 	-4.77006e-23 -0.0224565 	-0.00326826 	-2.58316e-22 -0.0208439 	-0.00370215 	-1.19068e-21 -0.0190987 	-0.00417083 	-2.21659e-21 -0.0197374 	-0.00481298 	-3.32771e-21 -0.0203917 	-0.00546671 	-4.44388e-21 -0.0198156 	-0.00618939 	-5.22871e-21 -0.0180176 	-0.00672057 	-5.36643e-21 -0.016149 	-0.00734919 	-5.57046e-21 -0.0162181 	-0.00775169 	-5.70484e-21 -0.0159209 	-0.00817803 	-5.66081e-21 -0.0151516 	-0.00863723 	-5.38826e-21 -0.0143914 	-0.00911838 	-5.13486e-21 -0.0140088 	-0.0093757 	-5.01614e-21 -0.0134289 	-0.00995916 	-5.23767e-21 -0.0128692 	-0.0105702 	-5.50989e-21 -0.0123197 	-0.0112035 	-5.79808e-21 -0.0113764 	-0.0116932 	-4.8717e-21 -0.0100558 	-0.0124431 	-3.61846e-21 -0.00931793 	-0.0132783 	-2.99592e-21 -0.0086029 	-0.0141376 	-2.43802e-21 -0.00788254 	-0.0148498 	-2.24393e-21 -0.00707312 	-0.0149508 	-3.23226e-21 -0.00659061 	-0.0150258 	-3.85534e-21 -0.00540465 	-0.0166673 	-4.99206e-21 -0.00430009 	-0.0184289 	-6.18305e-21 -0.00343484 	-0.0188525 	-6.58581e-21 -0.00246881 	-0.0182878 	-5.9566e-21 -0.0017481 	-0.0178799 	-5.44585e-21 -0.000726425 	-0.0193372 	-5.83267e-21 0.000104546 	-0.0203542 	-5.83352e-21 0.000585632 	-0.0204273 	-5.11476e-21 0.00117834 	-0.0196323 	-3.93472e-21 0.00181325 	-0.018482 	-2.56281e-21 0.00268855 	-0.0194454 	-1.60619e-21 0.00356523 	-0.0204374 	-6.40077e-22 0.00399937 	-0.0201431 	-8.37109e-23 0.00445388 	-0.0186073 	-2.01261e-22 0.0049576 	-0.0170429 	-3.21457e-22 0.00564601 	-0.0174392 	-4.53699e-22 0.00633686 	-0.017641 	-5.45404e-22 0.00697365 	-0.0167363 	-4.42275e-22 0.00763296 	-0.0158447 	-3.2827e-22 0.00821061 	-0.0143618 	-1.18583e-22 0.00831678 	-0.014361 	-9.40193e-23 0.00842012 	-0.0143281 	-7.06195e-23 0.00850738 	-0.0141468 	-5.26246e-23 0.00859639 	-0.0139671 	-3.45541e-23 0.00867641 	-0.0138102 	-1.85567e-23 0.00936295 	-0.0130237 	1.27427e-22 0.0101231 	-0.0122941 	2.81044e-22 0.0109573 	-0.0116275 	4.42036e-22 0.0114536 	-0.0104628 	5.96677e-22 0.0123411 	-0.00869708 	8.53183e-22 0.0126183 	-0.00848767 	8.8713e-22 0.0129018 	-0.00828366 	9.22448e-22 0.0131778 	-0.00808104 	9.57261e-22 0.0132286 	-0.00781501 	9.62014e-22 0.0132774 	-0.00758851 	9.67117e-22 0.014438 	-0.00667376 	9.37702e-22 0.0157004 	-0.00582324 	9.23975e-22 0.0161756 	-0.0048907 	8.68786e-22 0.015908 	-0.00404871 	7.48449e-22 0.0157513 	-0.00348452 	6.72278e-22 0.0169927 	-0.00275017 	3.17168e-22 0.0179495 	-0.00211995 	5.69504e-23 0.0180837 	-0.00169272 	1.77669e-23 0.0177405 	-0.00112953 	4.6227e-23 0.0170599 	-0.000501431 	1.25857e-22 0.0180834 	0.000171199 	3.39132e-23 0.0184355 	0.00065308 	0 0.018402 	0.00102356 	0 0.0178557 	0.00151762 	0 0.0166682 	0.00216979 	0 0.0172585 	0.00283156 	0 0.0177328 	0.00346237 	0 0.0174979 	0.00391644 	5.29334e-24 0.015976 	0.00468899 	1.78595e-22 0.0144377 	0.00556446 	3.705e-22 0.0144662 	0.00639853 	2.82064e-22 0.0141695 	0.00735828 	3.24007e-22 0.0128727 	0.00862043 	7.24404e-22 0.0116311 	0.00995786 	1.16174e-21 0.0107677 	0.0109939 	1.51022e-21 0.0106665 	0.0112394 	1.61126e-21 0.0105684 	0.0114859 	1.71319e-21 0.0104058 	0.0117385 	1.77971e-21 0.010186 	0.0119966 	1.81452e-21 0.00992979 	0.0123052 	1.85737e-21 0.00887427 	0.0142054 	2.47606e-21 0.00794472 	0.0161141 	3.08142e-21 0.00706761 	0.017938 	3.59152e-21 0.00600387 	0.0194114 	3.72726e-21 0.00556664 	0.0200767 	3.78694e-21 0.00509527 	0.0221986 	4.02956e-21 0.00469155 	0.0243127 	4.27013e-21 0.00437795 	0.0257001 	4.0494e-21 0.003651 	0.0263228 	3.57964e-21 0.00298745 	0.0268448 	3.13844e-21 0.0025597 	0.0284285 	3.15503e-21 0.00227992 	0.0294774 	2.86718e-21 0.0021248 	0.0300607 	2.31186e-21 0.00182496 	0.0303637 	1.67903e-21 0.00119872 	0.0300284 	8.76851e-22 0.000658112 	0.0308504 	8.12365e-22 0.000419139 	0.0308051 	7.29462e-22 0.000241933 	0.0305804 	6.44076e-22 7.34827e-06 	0.0302245 	5.09179e-22 -0.000580675 	0.0290468 	5.52873e-23 -0.00123932 	0.0289877 	4.97143e-23 -0.00156974 	0.0281329 	9.86156e-23 -0.00184708 	0.0271297 	1.56863e-22 -0.00221431 	0.0258702 	1.74654e-22 -0.00279031 	0.023978 	9.56696e-23 -0.00356682 	0.0230208 	1.29137e-22 -0.00424828 	0.0217939 	1.65839e-22 -0.00476337 	0.0201723 	2.11658e-22 -0.00534013 	0.0179757 	7.33324e-22 -0.00605726 	0.0155327 	1.36867e-21 -0.00713838 	0.0137881 	2.32631e-21 -0.00824305 	0.0120264 	3.04539e-21 -0.00884564 	0.0101252 	2.62918e-21 -0.00957194 	0.00828943 	2.14483e-21 -0.00998888 	0.0074529 	1.87503e-21 -0.0105754 	0.00694628 	2.09599e-21 -0.0111898 	0.00646086 	2.32642e-21 -0.0114128 	0.00605179 	2.17476e-21 -0.0115816 	0.00566629 	1.96344e-21 -0.0119521 	0.00492502 	1.56055e-21 -0.0125396 	0.00424494 	1.29125e-21 -0.0131749 	0.00361771 	1.04328e-21 -0.0138512 	0.00304065 	8.15546e-22 -0.0139165 	0.00270124 	7.04118e-22 -0.0128318 	0.00278097 	7.93794e-22 -0.0148343 	0.00196755 	5.55901e-22 -0.0156616 	0.00130888 	3.31274e-22 -0.016228 	0.000712028 	1.15249e-22 -0.0155578 	0.000465141 	0 -0.0135268 	0.000601317 	0 -0.0157261 	0.000142138 	0 -0.0169238 	-0.000303548 	0 -0.0170324 	-0.000736315 	0 -0.0161282 	-0.000963633 	0 -0.0140769 	-0.000963631 	0 -0.0160606 	-0.00115202 	0 -0.0164436 	-0.0014383 	-1.84152e-22 -0.0161866 	-0.00177058 	-4.48086e-22 -0.0158989 	-0.00210387 	-7.16764e-22 -0.0142216 	-0.00230777 	-9.9345e-22 -0.0153399 	-0.00236991 	-9.00901e-22 -0.0148277 	-0.0026667 	-1.20972e-21 -0.0143609 	-0.0029832 	-1.53467e-21 -0.0139437 	-0.00332097 	-1.87696e-21 -0.013618 	-0.00364415 	-2.2004e-21 -0.013612 	-0.00365476 	-2.21399e-21 -0.013606 	-0.00366538 	-2.2276e-21 -0.0136 	-0.00367603 	-2.24123e-21 -0.0135917 	-0.00368681 	-2.25425e-21 -0.0135445 	-0.0036995 	-2.25686e-21 -0.0129875 	-0.00408477 	-2.28065e-21 -0.0124718 	-0.00450808 	-2.34187e-21 -0.0120321 	-0.00497939 	-2.44661e-21 -0.0113877 	-0.00551245 	-2.45294e-21 -0.00950357 	-0.00624973 	-1.89156e-21 -0.0090813 	-0.00695249 	-1.358e-21 -0.0087046 	-0.00772669 	-9.05293e-22 -0.00755383 	-0.00817305 	-8.4169e-22 -0.00650347 	-0.00872068 	-8.83809e-22 -0.00628056 	-0.00887604 	-9.20706e-22 -0.00587505 	-0.00948542 	-4.76327e-22 -0.00550007 	-0.0101315 	-3.74384e-23 -0.00507167 	-0.0103536 	-4.23436e-22 -0.0046591 	-0.0105612 	-8.80868e-22 -0.00382316 	-0.0110652 	-1.84908e-21 -0.00352003 	-0.0114159 	-2.07625e-21 -0.00323357 	-0.011786 	-2.31898e-21 -0.00296296 	-0.0121739 	-2.57596e-21 -0.00276154 	-0.0123566 	-2.84594e-21 -0.00279073 	-0.0117021 	-3.09948e-21 -0.00207693 	-0.0131083 	-5.10902e-21 -0.00147084 	-0.0135669 	-5.91088e-21 -0.000898175 	-0.0140878 	-6.66837e-21 -0.000535872 	-0.0139748 	-6.65082e-21 -0.000610697 	-0.0124052 	-5.02139e-21 -0.000159156 	-0.0141543 	-6.39749e-21 0.000309789 	-0.0148242 	-6.41746e-21 0.000786474 	-0.0149174 	-5.68295e-21 0.00113567 	-0.0145278 	-4.52403e-21 0.0011956 	-0.0129453 	-2.41827e-21 0.00138862 	-0.0144614 	-1.84111e-21 0.00173264 	-0.0143166 	-1.36184e-21 0.00210314 	-0.0140388 	-9.12135e-22 0.00248554 	-0.0138111 	-4.8508e-22 0.00279726 	-0.0129619 	-4.27457e-22 0.00281329 	-0.0134073 	-6.14307e-22 0.00295621 	-0.0131554 	-5.93366e-22 0.0031053 	-0.0129173 	-5.70355e-22 0.00326081 	-0.0126934 	-5.45183e-22 0.0033817 	-0.0125378 	-5.24744e-22 0.00357986 	-0.0123711 	-5.4367e-22 0.00378785 	-0.0122243 	-5.6321e-22 0.00400588 	-0.012098 	-5.83377e-22 0.00422907 	-0.011911 	-5.90388e-22 0.00443723 	-0.0110968 	-4.90407e-22 0.00486137 	-0.0109409 	-3.68994e-22 0.00528194 	-0.010681 	-2.39822e-22 0.00572253 	-0.0103706 	-1.07526e-22 0.00610851 	-0.00921652 	-7.30527e-24 0.00669248 	-0.00793975 	1.17971e-22 0.00688344 	-0.00782995 	1.28075e-22 0.00708569 	-0.00773094 	1.38851e-22 0.00723265 	-0.00749243 	1.52474e-22 0.00736693 	-0.00720751 	1.67789e-22 0.00748131 	-0.00700074 	1.80209e-22 0.00811065 	-0.00637523 	2.42669e-22 0.00884745 	-0.00582545 	3.12322e-22 0.00931577 	-0.00524397 	3.38587e-22 0.00959289 	-0.00464942 	3.33329e-22 0.0103946 	-0.00340896 	3.38619e-22 0.0104446 	-0.00338428 	3.38953e-22 0.010463 	-0.00336199 	3.36177e-22 0.0104718 	-0.00334047 	3.32459e-22 0.0104808 	-0.00331902 	3.2876e-22 0.0104908 	-0.00329577 	3.24755e-22 0.0108241 	-0.00280266 	2.70406e-22 0.0112293 	-0.00234614 	2.21158e-22 0.0117003 	-0.00192466 	1.76763e-22 0.0121752 	-0.00154981 	1.39157e-22 0.0111212 	-0.0016316 	1.73075e-22 0.0124208 	-0.00118851 	1.22982e-22 0.0128896 	-0.000777088 	7.48261e-23 0.0131606 	-0.000383276 	2.80977e-23 0.0127991 	-0.000154184 	0 0.011441 	-0.00017142 	0 0.01289 	7.22312e-05 	0 0.0134305 	0.000390053 	0 0.0133701 	0.000758702 	0 0.0128965 	0.00105494 	0 0.0115421 	0.00120491 	0 0.012871 	0.00127307 	0 0.0126355 	0.0016189 	0 0.0122542 	0.00201543 	0 0.0119281 	0.00243169 	0 0.0111252 	0.00286127 	0 0.0115414 	0.00285666 	0 0.0112635 	0.00306202 	0 0.0109822 	0.00328168 	0 0.0107149 	0.00351138 	0 0.0105469 	0.00367133 	0 0.0102541 	0.00407556 	0 0.0100113 	0.00450798 	0 0.00982069 	0.00496867 	0 0.00934892 	0.00553965 	1.09499e-22 0.00819972 	0.00644586 	4.62496e-22 0.00755303 	0.0076803 	3.99883e-22 0.00707283 	0.00904121 	4.04282e-22 0.00594057 	0.0106598 	9.47179e-22 0.00486407 	0.0124097 	1.66681e-21 0.00477585 	0.0125986 	1.74665e-21 0.00440082 	0.0147099 	2.50384e-21 0.00397963 	0.0166392 	3.05501e-21 0.00353202 	0.0184285 	3.45329e-21 0.00317867 	0.0202294 	3.86812e-21 0.00262009 	0.0213681 	3.98143e-21 0.00239709 	0.0231053 	4.028e-21 0.00222481 	0.0243927 	3.79055e-21 0.00207093 	0.0256815 	3.55683e-21 0.0019326 	0.0269714 	3.32629e-21 0.0016867 	0.0280549 	3.04575e-21 0.00153207 	0.0286835 	2.76335e-21 0.00143052 	0.0291126 	2.36615e-21 0.00133116 	0.0295419 	1.97075e-21 0.00123389 	0.0299714 	1.57706e-21 0.00101934 	0.030939 	6.943e-22 0.00100983 	0.030987 	6.52471e-22 0.00100034 	0.0310351 	6.10662e-22 0.000990865 	0.0310831 	5.68871e-22 0.000981408 	0.0311311 	5.271e-22 0.000977301 	0.0311649 	4.92161e-22 0.000811027 	0.0309792 	3.65696e-22 0.000637929 	0.0307753 	2.56527e-22 0.000463479 	0.0305674 	1.53278e-22 0.000287656 	0.0303552 	5.60779e-23 0.00015271 	0.0300101 	7.4831e-23 -1.5263e-05 	0.0291228 	2.22113e-22 -0.000237171 	0.0281132 	2.85746e-22 -0.000467174 	0.0270983 	3.44972e-22 -0.000706166 	0.0260778 	3.99292e-22 -0.000936471 	0.024985 	4.01627e-22 -0.00100576 	0.0244382 	4.31533e-22 -0.00109846 	0.0238372 	4.70432e-22 -0.001194 	0.0232355 	5.09786e-22 -0.00129261 	0.022633 	5.49628e-22 -0.00131289 	0.0225129 	5.57662e-22 -0.00151518 	0.0213629 	6.14968e-22 -0.0017322 	0.0202143 	6.69927e-22 -0.00196639 	0.0190675 	7.22132e-22 -0.00222075 	0.0179231 	7.7108e-22 -0.00250168 	0.0165969 	9.57768e-22 -0.00296368 	0.0147477 	1.39209e-21 -0.00340444 	0.0127821 	1.60666e-21 -0.00397229 	0.0108391 	1.88696e-21 -0.00462375 	0.00891482 	2.09858e-21 -0.00494476 	0.00649285 	1.25482e-21 -0.00571237 	0.00483449 	9.1695e-22 -0.00677725 	0.00341991 	6.9814e-22 -0.00608935 	0.00312251 	8.30721e-22 -0.0051481 	0.00298954 	9.77539e-22 -0.00634322 	0.00173184 	4.4536e-22 -0.00806857 	0.000746403 	-2.32588e-36 -0.00764273 	0.00070701 	-2.20312e-36 -0.00645762 	0.000828031 	1.14867e-22 -0.00470364 	0.00101939 	2.90974e-22 -0.00670614 	0.000205974 	5.30798e-23 -0.00725203 	2.48197e-05 	0 -0.00723155 	2.47496e-05 	0 -0.00659512 	6.98162e-05 	0 -0.00466039 	0.000207172 	0 -0.00685972 	-0.00025