/*--------------------------------*- C++ -*----------------------------------*\
| =========                 |                                                 |
| \\      /  F ield         | OpenFOAM: The Open Source CFD Toolbox           |
|  \\    /   O peration     | Version:  v1912                                 |
|   \\  /    A nd           | Website:  www.openfoam.com                      |
|    \\/     M anipulation  |                                                 |
\*---------------------------------------------------------------------------*/
FoamFile
{
    version     2.0;
    format      ascii;
    class       volScalarField;
    location    "0.73";
    object      epsilon;
}
// * * * * * * * * * * * * * * * * * * * * * * * * * * * * * * * * * * * * * //

dimensions      [0 2 -3 0 0 0 0];


internalField   nonuniform List<scalar> 
1431
(
91.3254
24.8956
5.09508
1.67028
8.34381
37.3713
1.30002
362.537
49.3917
1.22156
135.421
284.148
59.7336
14.6825
23.113
1.00327
30.6277
14.2276
28.5189
19.3432
282.649
18.789
48.8573
325.032
51.4006
37.4061
89.9765
13.9574
63.6876
28.046
20.5238
34.7699
18.3694
8.35385
45.2615
0.840508
87.7528
0.411282
0.418529
26.9745
80.0729
77.529
52.0426
0.682037
53.7468
10.225
32.9585
75.1021
1.38632
0.699472
27.5728
0.564695
36.1404
322.584
16.648
20.1267
8.52239
317.28
50.2111
10.118
17.3134
0.830611
1.04618
0.515977
0.565355
1.50801
5.15751
2.33058
6.56663
26.3122
318.645
11.4329
1.66623
7.36495
18.4885
14.3353
2.82587
0.374813
1.31287
8.75097
36.7667
3.09559
130.442
37.3445
159.808
1.6447
3.07942
22.3582
177.424
190.088
26.8174
9.57394
0.954836
0.770982
17.1682
30.1888
320.997
94.987
0.720604
12.1927
30.187
0.726374
35.7556
7.0708
0.264307
33.1025
43.3389
136.787
39.1256
40.0851
8.39657
66.7347
20.6639
81.845
24.5114
10.4083
15.7865
1.89275
2.621
0.74673
35.3962
34.9484
353.99
22.1901
253.251
1.06602
1.7994
13.4122
3.34882
4.93511
37.1416
19.5236
3.68484
29.9287
29.9745
1.48506
0.32265
1.10231
164.427
0.929417
0.362227
16.4934
48.9283
5.52772
54.1824
18.3766
2.08603
33.6915
0.875196
10.5659
1.16983
7.97942
29.6607
2.62998
37.2647
0.528255
153.188
47.5414
169.162
2.4153
173.075
69.7431
0.974964
2.48954
257.491
87.711
86.9874
24.9921
0.608913
62.5341
175.269
40.874
22.2049
169.493
35.4227
151.192
3.34678
41.3956
34.8272
44.8947
1.93161
0.44909
15.5164
521.052
38.9432
90.2414
147.043
48.9712
21.7131
179.572
17.1425
24.2682
25.005
184.752
2.60393
61.3006
90.96
35.601
4.95505
46.1144
19.446
1.30409
99.1578
3.81054
58.9728
18.6936
35.2788
4.59444
201.514
23.0832
160.704
0.736902
39.9667
34.4517
180.91
23.3129
28.0577
36.1833
15.199
87.592
38.5953
16.2781
79.0128
1.88313
40.2298
266.308
123.95
77.6195
40.7336
51.4547
323.75
19.5816
31.5018
23.8748
36.2135
169.056
36.1556
33.0999
16.6477
11.4451
2.59744
29.4794
227.621
25.2925
23.1495
42.6148
29.1363
101.163
40.4473
0.456124
10.0739
149.409
2.24087
0.604516
17.7749
64.7119
2.00523
325.415
141.323
26.9058
38.3079
162.498
14.4132
3.09884
44.4515
116
57.1317
288.576
71.1121
9.44395
41.7959
32.6583
17.4319
5.89304
168.822
22.006
161.981
46.6951
45.3143
55.0222
47.8776
83.9739
18.2432
18.4061
7.03742
118.79
69.0716
116.369
176.031
25.496
5.10127
56.4105
76.0047
43.8472
32.9217
43.5626
189.07
104.704
23.259
52.4014
37.9256
1.60058
11.6761
44.945
47.8919
1.74343
35.4623
26.0077
77.757
48.2692
76.6042
0.964694
1.16782
115.601
48.8675
85.1039
36.7257
10.936
2.95499
863.452
34.3299
73.7482
5.06143
36.7126
37.3939
11.5749
8.19832
56.4759
327.632
0.742271
75.4655
6.09358
54.7884
23.6911
2.53989
46.3614
55.7647
157.383
37.6806
102.729
0.364969
48.4829
71.0105
77.0012
46.7253
23.3295
19.2921
157.76
63.01
46.0859
41.0679
5.74094
35.8795
40.4258
10.7864
9.04496
180.638
130.879
143.026
73.6985
21.7029
72.8334
62.6608
7.17975
4.34944
145.936
53.4754
645.314
44.6971
17.3553
122.701
8.79777
187.662
25.0031
71.5579
392.842
43.3627
7.10984
31.5357
484.316
76.8072
37.4688
7.24281
12.8245
859.84
42.4091
38.8763
46.5838
33.8453
26.9217
2.92478
43.1268
44.0332
1.48308
160.137
37.3061
68.4554
69.849
57.2916
39.8616
46.9999
66.572
112.883
61.0567
8.16922
63.009
37.9858
5.54979
4.72302
61.7042
53.262
38.0074
60.2686
61.5427
44.4813
4.05246
36.6716
4.35455
38.2901
58.8286
50.5392
63.3155
18.0815
38.2152
57.4881
9.75639
10.8112
40.1694
13.5476
254.709
77.7213
80.1238
84.3684
85.3089
86.1254
83.2285
80.9259
84.2341
82.6986
83.925
10.3828
158.573
8.97785
5.08217
2.9107
2.35627
2.38761
2.75786
35.0208
19.2865
20.2492
1.09285
1.26376
3.4269
1.32591
1.2012
23.6982
283.622
3.5342
3.1867
20.5049
1.03335
270.274
1.09291
3.33986
1.32939
4.53102
262.015
1.36507
252.389
0.7988
0.687063
6.30174
34.7449
165.098
148.285
1.70326
0.389343
1.91931
0.649964
32.4367
2.59259
169.816
0.542975
4.7165
33.9234
6.81969
2.92773
2.76616
0.888307
186.916
0.543246
5.09264
4.72031
38.8447
7.05907
9.36586
194.602
0.616456
24.8586
56.2752
19.547
15.0902
90.6616
187.812
152.461
9.01746
1.39498
2.16222
12.2417
8.62679
45.3616
4.51964
8.76877
112.059
0.754945
54.3742
10.9426
48.7936
161.823
49.1963
5.92969
25.186
1.22309
22.1787
1.61232
180.658
26.4997
11.2159
7.03577
23.9148
22.1375
37.1472
89.6689
77.9125
13.6306
9.04181
174.312
21.908
15.6883
64.4013
89.3778
83.7545
13.4271
43.2791
12.1618
19.9524
155.914
66.8704
78.7801
35.7334
82.7788
62.6436
52.1371
1.07002
76.5401
1.81957
55.4587
157.387
383.645
81.2639
163.886
92.7885
39.3529
638.556
38.5604
8.97821
2.18697
57.4615
57.0919
55.665
92.6601
81.7496
5.68991
56.4278
34.4303
1.15933
150.952
72.7882
74.7417
57.459
69.7889
53.2798
38.8999
42.1722
32.1935
22.4336
18.1921
84.2998
17.5781
63.6015
201.454
27.8937
23.9498
43.8754
73.8252
31.5098
38.5288
63.7829
182.958
180.797
34.46
55.5211
19.3907
44.0986
37.0223
119.005
52.2717
2.12696
4.92361
1.38865
35.3423
44.7038
73.2644
61.3156
57.0168
211.053
2.50429
41.032
43.5286
35.1691
28.0464
42.7968
48.1896
39.6446
44.297
73.965
9.1473
56.3131
12.632
45.6023
29.6411
0.806167
80.5509
54.3137
38.7952
321.968
4.18968
62.3728
17.6454
59.9963
105.875
2.17935
54.7161
151.555
37.1265
37.4689
35.2201
242.479
33.9975
54.9452
74.3283
127.191
43.9461
8.44801
35.4269
48.7864
50.8324
22.0433
172.622
170.463
69.8802
45.5033
44.8868
56.2996
56.0437
20.2842
20.1661
33.335
6.10588
55.8251
35.6163
273.947
83.1014
49.6065
30.1808
282.352
25.4348
44.5732
8.98181
14.3618
9.10415
33.5029
278.549
0.910248
3.64551
65.4265
51.272
10.2883
52.1602
108.37
43.0015
80.1398
35.4168
16.9245
86.5116
230.699
48.9372
12.9335
95.8318
141.811
37.1655
59.5264
23.8214
119.192
297.177
108.811
184.24
24.1849
45.1488
56.1876
6.81441
33.7535
43.1291
24.4056
86.96
59.3311
55.7946
2.76042
64.7474
86.4582
19.7259
146.844
53.8673
6.7333
38.9457
70.4299
57.5047
130.447
192.955
0.480001
79.5891
39.8467
2.62283
141.327
39.973
76.2961
281.407
287.604
1.99639
32.3053
49.5763
4.53494
50.1285
69.0143
37.03
34.5057
5.89917
58.0168
0.990339
23.0057
14.4172
11.6112
0.892111
413.259
53.9695
56.7218
7.02876
39.9389
5.88203
408.367
143.73
40.8004
1.30456
2.36428
45.8645
0.868992
1.11677
56.3465
8.62933
55.0974
32.3688
51.4348
69.5614
61.1775
26.6352
8.19177
32.3217
60.0618
18.2966
35.9363
0.263818
52.0967
1.4507
74.9564
159.061
37.9059
34.3075
23.2091
30.1671
82.1837
13.8815
34.5074
65.5439
29.8368
10.312
1.80244
30.9316
1.54961
56.2677
27.96
26.8252
6.25497
69.7896
71.8701
808.967
28.9667
40.7643
35.3672
39.5093
587.047
4.31159
19.2151
166.072
67.4382
304.104
60.7906
9.56831
88.4107
57.9473
4.18201
101.711
45.5065
77.5171
104.47
33.5001
58.4146
16.1326
9.29486
0.49975
83.8033
324.646
312.138
24.7232
28.7863
307.028
51.5749
90.4445
61.9028
11.852
55.6829
2.50717
0.395375
35.0961
49.0004
174.978
0.429149
360.432
29.7802
143.381
45.2183
16.5628
33.6028
13.4448
4.25176
1.49787
5.9085
57.025
2.96644
0.381964
10.2653
33.3245
51.5555
21.0787
71.7167
51.9102
70.7827
0.691841
153.952
50.5985
80.8802
669.836
61.8063
103.868
37.9647
7.31137
1.5903
93.9549
46.4455
73.5111
254.777
1.69327
70.4729
172.15
576.798
321.252
403.141
71.6004
47.9412
52.854
60.4018
56.7489
81.7848
44.9849
36.4313
33.2308
35.2655
35.6764
55.5224
91.2475
32.5597
37.986
43.3669
30.2854
44.1877
43.4666
29.3745
42.6271
41.6251
29.3705
39.7204
67.296
129
0.826068
29.3204
36.7538
17.5369
17.3235
235.582
45.3251
17.982
15.3905
18.6224
3.06079
342.755
34.2764
3.59832
140.976
49.0934
73.6822
26.3329
3.444
337.312
8.25038
37.3785
42.4428
30.8819
3.40906
6.20208
141.376
31.9527
32.3465
65.4729
59.4447
38.0515
46.6477
158.453
1.75888
0.575855
10.4514
1.36545
50.555
63.1593
27.5233
41.1684
34.4984
10.2048
29.6086
5.32169
13.1253
36.8572
157.218
68.7767
39.7412
66.4061
6.7026
35.7262
2.16394
36.9985
9.00751
4.63608
40.0585
27.5297
354.747
3.57898
32.5401
10.5374
55.727
1.19609
935.217
57.3412
31.0478
0.58013
334.087
59.6112
139.973
0.99085
0.606501
2.11394
7.34328
12.7863
52.9025
30.2891
441.361
209.145
36.8187
58.4282
1.21681
37.4113
24.7671
46.3104
27.5833
18.045
47.1262
68.9678
62.2852
105.667
78.2088
1.87975
1.22726
26.4366
54.4942
51.8668
4.73581
46.3878
28.5309
34.688
15.1621
41.4588
32.9976
172.689
482.292
1.50259
64.2458
29.6391
2.75113
62.9349
349.718
27.4305
42.2257
18.7657
163.458
148.462
1.9676
17.4452
38.1527
41.9246
364.499
165.955
70.7952
34.5609
3.98027
132.725
2.70198
58.9014
19.879
380.644
87.6578
310.75
163.783
57.9679
33.3833
50.6029
2.94359
4.80252
1.98657
2.16355
1.60151
44.3849
83.5791
39.7617
49.1649
75.9868
168.11
0.560099
3.30819
77.3973
385.895
51.1578
368.069
92.5553
73.7659
410.897
36.2953
417.23
420.419
439.304
340.981
346.842
326.507
443.201
295.291
0.633075
1.51524
1.3785
0.649501
0.779858
0.952825
56.3733
44.2809
82.8258
43.6934
58.7912
28.1596
0.965473
55.3637
0.946657
1.42085
43.6923
0.55083
28.7291
19.4506
5.38365
10.6359
7.21666
69.4758
69.573
40.9874
45.5637
44.7259
3.62212
33.687
751.717
30.3019
8.61416
24.659
48.5509
1.25886
16.9421
161.53
0.3499
54.0658
0.605708
10.4436
1.68765
30.7189
29.3938
4.96092
0.518999
34.1049
8.86395
6.52271
63.2308
79.0754
1.40504
20.8783
26.9434
201.144
0.827481
165.897
246.777
8.01174
184.554
37.0288
8.74104
47.3467
164.776
2.34058
48.613
54.0144
119.901
72.0609
30.0082
37.0292
7.47584
0.638298
65.2167
26.1675
50.9848
150.29
201.888
202.422
98.201
20.8016
23.0144
50.7548
2.21788
6.04688
2.68037
32.4815
8.3695
237.56
63.0003
1.16485
157.957
40.2917
15.7658
73.2911
3.72982
46.28
185.168
65.0329
47.4251
0.549336
53.1944
54.002
190.253
79.8616
356.659
0.642904
9.39063
35.0165
301.348
151.429
91.1602
65.0655
52.2021
0.686264
347.378
7.83129
42.8701
32.2048
30.7223
11.8263
65.7703
1.01275
44.4746
36.8951
181.671
10.6732
71.5485
46.8371
23.2986
0.950757
6.27056
6.51342
108.706
28.5836
70.9003
150.288
52.1328
62.6303
39.349
22.546
1.05286
30.8442
15.8207
44.7559
391.474
38.083
735.19
35.4848
9.89651
35.9233
164.071
36.6486
1.25018
7.69343
47.8773
86.6341
31.0026
71.2376
103.461
61.0592
15.5388
23.6768
12.5106
1.39263
41.184
227.894
59.7623
271.032
44.3807
29.0866
40.1007
45.5295
30.8011
5.57574
57.1725
13.3921
1.20222
35.9803
421.243
39.2073
40.4155
1.30558
3.52036
23.14
37.0638
22.9942
405.97
63.5623
87.5317
141.305
9.17712
42.5379
50.3966
49.7793
169.383
47.8644
63.3916
32.7504
48.5781
16.2528
62.9935
20.9196
34.5714
347.894
43.8781
8.38791
35.552
63.4803
102.908
21.7501
44.4412
12.517
305.972
31.8503
2.96739
0.613973
617.935
39.17
67.9454
1.65772
3.38128
247.907
13.6242
293.788
2.06667
1.74144
6.43481
458.757
2.0926
396.987
182.201
3.4041
49.0853
194.819
301.824
87.2356
331.428
7.66131
8.81174
27.7263
45.4136
7.39421
163.028
2.70289
53.1098
454.419
407.847
33.9413
37.1235
3.32457
172.607
1.9468
41.3501
11.9371
303.32
1.57916
5.29606
15.9312
88.0882
66.8338
35.1582
7.15865
0.781647
1.82809
198.931
389.936
1.77438
41.2616
8.01855
1.98899
26.6737
31.4165
13.1183
48.3793
0.872187
22.8661
21.5283
33.6669
193.993
32.7682
1.3007
44.201
29.8567
0.793454
1.91627
51.1759
18.2028
1.58164
17.2294
20.1896
29.0717
1.64516
0.941861
195.647
176.383
68.7753
16.9109
1.49159
2.80031
0.459071
40.0714
1.81834
2.37121
3.46113
3.85153
9.27314
1.00012
173.248
46.6031
19.0093
65.811
64.9811
160.681
40.1853
0.856532
9.50948
106.074
34.7963
172.36
11.5255
23.3703
54.802
25.2004
2.15148
18.3307
1.2354
2.40709
3.65716
166.521
257.206
63.6184
110.705
11.4365
84.7261
31.8856
46.0103
98.7366
12.0327
15.6514
45.2275
99.5209
4.51946
0.902189
71.0141
52.7192
18.5914
11.9559
)
;

boundaryField
{
    frontAndBack
    {
        type            empty;
    }
    wallOuter
    {
        lowReCorrection 0;
        type            epsilonWallFunction;
        value           nonuniform List<scalar> 
96
(
63.6876
28.046
30.1888
273.947
282.352
278.549
52.1602
35.4168
16.9245
230.699
12.9335
141.811
23.8214
297.177
184.24
281.407
287.604
32.3053
8.19177
74.9564
10.312
104.47
33.5001
324.646
312.138
71.6004
47.9412
52.854
60.4018
56.7489
81.7848
44.9849
36.4313
33.2308
35.2655
35.6764
55.5224
91.2475
32.5597
37.986
43.3669
30.2854
44.1877
43.4666
29.3745
42.6271
41.6251
29.3705
39.7204
37.3785
63.1593
27.5233
36.9985
4.63608
354.747
36.8187
105.667
64.2458
29.6391
27.4305
364.499
3.98027
2.70198
380.644
385.895
368.069
410.897
36.2953
417.23
420.419
439.304
340.981
346.842
326.507
443.201
295.291
0.633075
1.51524
1.3785
0.649501
0.779858
0.952825
28.1596
5.38365
30.7189
30.0082
356.659
6.51342
391.474
405.97
63.3916
32.7504
2.0926
331.428
454.419
3.32457
)
;
    }
    inlet
    {
        type            fixedValue;
        value           nonuniform 0();
    }
    outlet
    {
        type            zeroGradient;
    }
    wallInner
    {
        lowReCorrection 0;
        type            epsilonWallFunction;
        value           nonuniform List<scalar> 
126
(
50.2111
10.118
17.3134
0.830611
1.04618
0.515977
0.565355
1.50801
5.15751
2.33058
6.56663
26.3122
318.645
11.4329
1.66623
7.36495
18.4885
14.3353
2.82587
0.374813
1.31287
8.75097
36.7667
3.09559
12.1927
10.4083
15.7865
1.89275
2.621
0.74673
35.3962
34.9484
353.99
22.1901
253.251
1.06602
1.7994
37.1416
19.5236
0.929417
0.362227
48.9283
5.52772
2.08603
10.5659
7.97942
2.62998
257.491
1.93161
90.2414
147.043
2.60393
160.704
9.44395
45.3143
55.0222
5.10127
189.07
104.704
52.4014
1.60058
0.964694
1.16782
115.601
11.5749
8.19832
75.4655
102.729
0.364969
130.879
72.8334
62.6608
5.54979
4.35455
90.6616
112.059
7.03577
174.312
89.3778
155.914
82.7788
157.387
56.4278
150.952
84.2998
201.454
180.797
42.7968
0.806167
151.555
127.191
119.192
108.811
5.88203
103.868
93.9549
36.8572
201.888
33.9413
37.1235
106.074
34.7963
11.5255
54.802
25.2004
2.15148
1.2354
3.65716
166.521
257.206
63.6184
110.705
11.4365
31.8856
46.0103
98.7366
12.0327
15.6514
45.2275
99.5209
4.51946
0.902189
71.0141
52.7192
18.5914
11.9559
)
;
    }
    procBoundary3to1
    {
        type            processor;
        value           nonuniform List<scalar> 
48
(
88.2009
90.5042
79.7695
83.294
53.7954
89.5191
90.5042
22.5674
80.4606
2.6839
2.6839
3.55202
3.55202
3.07712
3.21099
3.99092
5.80636
5.37058
5.80636
5.19209
2.46617
4.8134
5.19209
35.465
2.61917
3.35139
7.50315
4.8134
9.95842
15.7006
15.7006
16.1601
16.1601
80.4606
3.07169
54.0652
34.3982
2.61917
92.4545
46.6332
3.07712
50.7709
65.6119
5.19209
3.32788
64.0553
50.5412
2.56547
)
;
    }
    procBoundary3to2
    {
        type            processor;
        value           nonuniform List<scalar> 
29
(
1.79473
1.79473
1.96718
2.39858
7.29544
4.53589
1.56175
2.20294
1.7133
1.86326
3.10855
4.64008
1.82759
0.736746
0.549516
0.891804
1.40759
1.44442
1.84767
0.667488
0.625407
1.40759
0.659566
1.44442
0.484296
1.51023
1.44442
3.58009
3.58009
)
;
    }
}


// ************************************************************************* //
