/*--------------------------------*- C++ -*----------------------------------*\
| =========                 |                                                 |
| \\      /  F ield         | OpenFOAM: The Open Source CFD Toolbox           |
|  \\    /   O peration     | Version:  v1912                                 |
|   \\  /    A nd           | Website:  www.openfoam.com                      |
|    \\/     M anipulation  |                                                 |
\*---------------------------------------------------------------------------*/
FoamFile
{
    version     2.0;
    format      ascii;
    class       volScalarField;
    location    "0.95";
    object      p;
}
// * * * * * * * * * * * * * * * * * * * * * * * * * * * * * * * * * * * * * //

dimensions      [0 2 -2 0 0 0 0];


internalField   nonuniform List<scalar> 
1431
(
92.8533
90.7356
89.5221
92.1627
92.4834
88.2362
89.4118
98.3978
91.9972
92.0999
90.7093
91.0625
90.4123
104.161
90.5467
91.0247
90.9764
91.3436
92.126
90.9323
92.5224
92.2528
90.339
105.079
80.5669
91.3109
73.6353
103.295
91.8219
91.9076
114.67
121.486
83.9018
88.6168
90.03
89.1955
92.7142
97.4496
88.2671
97.5478
111.572
90.7548
88.8842
90.3476
83.2533
92.58
92.4145
119.816
115.671
98.881
91.8082
92.0405
91.5014
88.3712
89.797
112.714
91.0886
89.6671
80.4642
92.5169
91.1145
90.7595
92.0156
98.306
100.383
91.1107
88.2738
87.9943
92.0963
98.7241
88.8413
90.252
90.5038
88.6
90.6529
84.091
92.6183
83.8546
98.7271
75.0401
98.3308
91.6786
90.5291
91.2922
82.1125
92.5362
92.1704
90.3616
106.023
91.3116
91.9299
90.9078
92.3269
97.1723
91.5936
92.5805
90.6463
100.55
91.8897
114.634
92.1372
97.3309
92.9767
92.3102
90.9356
90.252
98.4464
114.88
116.603
92.4933
76.4967
90.9692
98.9191
91.0917
90.6882
92.2002
91.2958
90.66
106.926
84.3296
95.7801
90.5758
91.6947
109.788
98.0218
89.9974
107.759
90.608
92.7858
98.1479
90.8052
115.897
105.301
92.5336
92.6024
91.7467
90.5337
91.1406
92.6921
115.446
92.7074
92.6814
97.4477
115.788
117.028
96.3015
100.001
115.344
90.5983
114.198
99.006
101.5
90.129
90.5394
90.7338
90.5985
98.3353
91.5655
99.704
109.037
91.3464
90.6834
93.0744
90.4457
92.0213
73.012
92.552
96.5607
91.8618
92.7253
107.648
90.5481
113.521
99.2205
97.9582
90.3141
89.9818
99.8861
91.9526
105.635
98.3089
90.943
105.833
91.5699
97.719
108.706
97.3918
87.5171
91.7973
98.3031
91.7487
90.9139
92.6106
98.1354
91.7102
95.4563
98.4563
118.237
90.6674
90.5929
90.4012
117.98
112.628
110.279
98.3673
76.6613
92.6004
98.7394
90.6071
102.37
98.1308
99.013
110.478
98.6514
91.0034
89.3864
100.644
91.2853
90.8962
98.3525
98.3568
70.5694
97.6164
102.144
99.0265
93.0417
111.532
91.9035
103.371
114.996
92.3932
91.6099
98.608
96.7633
98.0668
98.7306
99.7658
92.9651
98.2813
89.9895
100.183
110.91
92.1963
90.8436
90.58
90.5362
97.6111
89.7791
88.3723
106.529
104.357
92.2162
92.2218
118.539
91.936
99.2387
91.7958
90.0077
98.061
98.5871
99.0741
90.562
91.8335
92.5359
98.3007
102.463
93.4107
97.237
104.522
92.2393
98.4287
114.602
103.321
102.317
98.7138
95.3917
92.7391
91.3136
91.4265
91.9501
91.6478
89.9634
91.1501
92.2151
95.3968
89.6331
92.5216
104.256
105.344
99.4913
96.204
98.2753
104.131
91.9323
105.865
100.938
92.6735
103.778
90.0574
107.253
98.451
113.188
90.5753
117.589
90.8557
90.2394
98.4426
98.9482
98.2925
91.9093
99.2627
97.7733
91.1567
92.1711
90.2797
90.4105
92.2258
89.986
97.6594
92.1015
90.1712
91.9892
93.0428
90.0122
92.1002
92.1484
98.2281
92.147
112.043
98.972
91.0963
90.4897
89.9565
91.8546
98.0638
92.2413
91.945
91.9165
91.8626
90.4205
90.5236
98.323
92.1797
90.4827
103.381
90.545
98.9741
90.4552
92.037
92.0386
90.3401
91.3643
91.4756
91.519
90.5018
90.2458
91.3883
90.5621
91.4547
89.9809
91.8619
90.3777
91.5998
91.8599
92.0662
90.443
91.7313
90.1482
91.2395
91.1308
90.5059
89.9805
92.0612
107.283
91.6304
90.9221
90.9604
97.664
96.8825
91.4911
91.1619
90.4119
92.0692
91.4633
90.2533
91.668
90.0574
90.5522
91.4512
91.9742
90.4547
90.1683
110.199
97.6493
92.1118
91.0074
91.8673
98.6696
92.0815
98.398
89.9854
91.1089
98.6049
91.7955
91.24
95.1349
90.0179
117.354
91.9537
90.9526
95.5456
91.0413
91.4236
88.1108
116.418
131.409
90.8656
92.2365
90.2865
91.8682
89.9792
92.0283
92.2007
90.0477
92.0243
90.7975
90.1827
92.0884
82.8111
90.6385
83.0662
89.9921
91.271
92.1845
89.9525
90.5984
92.0122
92.0648
90.0604
88.1751
89.4837
93.7414
91.9516
91.7197
89.7212
92.0592
92.0793
89.8432
89.3697
92.3561
92.2292
92.1746
92.1729
92.2231
92.0333
92.2012
92.1583
92.134
92.1818
89.9751
85.7208
92.0352
88.3503
88.9461
90.0207
90.1013
91.9759
86.7817
88.6628
90.158
87.4714
91.3295
117.293
114.838
88.8885
90.2452
90.1612
89.7527
90.8744
92.0154
92.0256
91.4093
101.173
96.6179
117.242
90.4517
88.9903
92.1269
92.0842
89.7258
89.6486
92.0429
90.3803
94.4041
92.0319
91.5004
89.7555
90.9607
98.7301
90.5135
88.9879
85.3247
91.8302
90.5674
90.6072
89.7012
90.3542
92.1596
92.0636
92.7175
92.5348
89.651
99.4804
91.0943
98.3776
92.0731
91.8224
86.0226
92.0448
90.0814
89.9101
89.8716
90.4489
91.9944
91.3856
92.0326
91.0943
92.0763
89.8577
91.3918
117.231
118.098
90.2079
89.9978
92.1034
92.0545
91.5397
90.9951
92.1475
96.7121
90.5708
90.6599
90.9813
91.0157
91.0373
92.1545
91.6932
98.2373
92.1331
90.4571
90.2691
90.795
97.5942
92.0613
89.9522
91.2137
91.2107
90.8544
96.5854
102.049
92.2069
90.2637
91.2591
92.0601
83.3655
91.891
92.0572
103.443
91.4137
90.548
90.4729
92.0787
92.639
92.1214
90.0973
91.3061
92.0325
91.7866
90.3865
100.201
91.5775
98.3005
91.1606
90.6783
90.113
90.683
91.0953
96.5597
91.7452
101.59
91.0551
89.7212
95.8556
97.1003
98.1751
90.4739
91.7943
91.4771
102.392
90.5279
91.115
91.0314
90.4377
91.3045
91.4692
92.0956
90.5857
90.4824
92.169
91.7053
95.9959
92.0166
91.8679
92.1698
93.645
101.408
91.5723
92.0294
91.8949
92.0971
90.4523
90.038
91.3032
90.4679
91.0824
123.841
90.4422
91.6422
92.0113
98.1653
92.1757
91.1377
91.2019
98.1555
90.0719
92.0737
90.4608
105.765
94.7186
90.9927
90.9669
92.2332
98.1989
92.0324
90.6432
91.168
90.7037
92.104
92.3293
90.967
91.4443
90.2754
100.597
95.317
92.231
92.0414
98.4762
98.0827
91.8166
92.0436
90.4609
91.6702
91.2368
91.6604
98.747
90.5293
94.3788
92.1734
92.0645
90.9691
91.5243
98.3781
91.2566
90.5677
117.091
116.388
89.1228
90.8978
90.4426
97.1311
90.5519
90.7421
90.5341
91.3595
91.4825
90.0448
92.0045
90.832
90.8921
91.9047
115.382
90.4901
90.8011
92.9932
92.0192
90.4525
91.8105
90.4398
98.4844
107.341
91.111
90.4756
102.478
90.4428
92.7274
129.788
94.3522
92.0675
92.5811
110.245
91.8415
91.9172
90.4354
92.1463
92.1449
99.0551
90.852
92.021
109.458
93.0046
98.8808
99.9559
98.0613
90.5634
90.4151
99.4927
92.2545
92.2572
108.54
91.9232
92.0385
91.1705
107.973
107.343
91.3499
101.485
91.2236
90.4924
92.0721
91.2278
90.6157
92.1239
118.653
91.7052
100.81
99.5339
103.207
104.306
108.709
90.527
92.1703
104.828
106.665
105.081
91.7762
90.7422
98.1407
98.5338
98.9123
108.523
91.0047
106.718
111.808
103.411
97.9654
91.1101
90.4284
110.279
100.361
105.903
91.1958
98.8656
91.8298
90.4578
91.3962
102.242
91.6914
91.0042
92.1093
90.4978
90.6305
90.908
104.249
93.0032
91.9133
106.417
91.9617
90.454
90.8889
109.245
92.4087
100.539
111.622
141.361
97.4782
98.5588
91.6568
90.4444
93.367
97.7199
92.1216
90.6692
111.708
90.4318
92.0841
90.1076
94.8704
91.4074
90.1349
92.6854
99.0142
97.8382
91.5746
91.4934
80.1983
99.7376
99.5107
96.9484
97.0533
97.179
100.427
98.5755
103.391
91.0214
90.1726
99.1717
90.5661
90.8634
90.4202
91.5568
91.3733
92.0615
90.4132
91.9258
90.347
92.503
92.0745
97.958
90.0018
92.0852
99.7086
115.592
100.191
96.9103
87.1417
113.816
90.3487
90.352
90.509
98.2475
90.9949
90.4445
90.0832
91.9846
122.437
90.8057
91.6331
90.8616
98.3404
98.5012
98.1446
91.949
90.4994
91.2631
90.0572
92.7464
96.8669
109.061
91.6591
90.391
116.936
99.6142
91.6285
90.6599
92.0776
107.716
88.7065
90.2477
91.4901
98.4059
91.659
90.4463
90.9017
91.9429
98.7224
92.8316
90.7306
85.2985
83.87
115.989
100.24
89.0811
88.7061
98.6309
92.2642
88.5477
92.0205
90.3856
91.9071
90.5775
91.768
91.7085
92.1327
92.0935
112.755
114.994
100.345
92.9367
92.0098
91.9902
91.5022
98.0656
91.9022
91.7291
92.152
90.8131
91.2039
98.798
90.6086
90.5447
91.9869
98.8649
90.736
98.2236
98.2514
100.228
90.4932
98.6334
92.2314
109.362
91.9266
109.51
90.7063
90.759
91.1223
90.8755
90.7627
91.4506
91.8045
91.1694
92.6359
90.5313
98.5804
92.1303
92.7985
90.8052
73.9143
92.5793
91.5344
92.8108
92.1851
92.1656
91.4901
92.1719
109.475
90.506
92.4308
91.2746
92.1429
91.0498
92.5419
92.3128
90.2261
91.609
90.7692
92.7732
92.6753
96.7942
92.4653
91.2682
92.0681
92.186
90.632
87.2816
92.1918
92.194
98.3405
92.7501
92.7535
91.1698
90.754
101.286
92.0848
91.7036
91.9057
88.2443
93.1748
97.8862
92.827
95.6669
92.448
98.6912
92.0455
90.5999
99.1029
90.4821
91.6343
104.525
80.8461
92.5028
92.475
90.8856
99.1332
89.014
90.5383
98.8614
88.8914
90.7246
96.5494
92.0899
92.3443
92.2696
98.1499
101.367
113.689
90.0702
93.0016
92.4737
91.5215
92.2017
90.6713
93.5697
89.9881
84.7595
101.341
90.4066
90.1861
91.5211
90.8394
112.702
92.2263
92.2485
90.3475
91.5854
89.9608
92.4373
92.0128
98.2168
92.0011
91.3127
93.13
92.4108
91.573
90.4286
92.0161
90.1292
83.7833
92.1098
106.864
90.5
90.3001
97.3492
92.3956
90.8962
88.5811
90.0006
91.342
101.163
91.9735
117.76
92.0018
91.5343
94.5381
82.8886
120.066
92.2285
90.6088
98.572
97.8096
92.3705
90.8397
97.6415
92.1405
97.1098
98.4333
91.4967
92.5282
96.6453
99.2632
99.2203
92.3222
92.0048
91.6724
91.9285
118.671
92.4396
93.2778
114.438
98.4543
90.8869
91.9713
102.46
91.8213
119.193
95.9719
92.8643
90.1093
99.3172
92.9191
94.6853
91.9689
92.6976
90.569
79.3351
90.8075
98.9796
90.6042
91.545
90.4304
102.356
90.0055
91.0118
92.0336
115.012
91.2828
116.009
90.5703
89.9918
110.135
112.455
89.9968
91.6446
99.1922
92.5812
81.9132
92.8441
91.4928
92.0518
88.5017
90.0709
99.2649
91.9352
92.8631
91.9671
90.1579
90.9497
90.3919
93.6117
90.0302
92.0189
90.465
90.8241
92.0498
92.1583
92.827
97.8005
82.262
92.8211
91.9012
98.5675
84.4019
91.7074
90.4513
90.5803
90.1576
91.6633
92.2142
102.29
109.555
99.0892
83.4552
92.4899
92.0575
90.275
92.2205
113.226
115.599
91.9014
90.4645
92.7939
98.651
88.5801
91.371
93.9527
96.8019
96.9433
116.542
91.9408
90.1638
92.098
110.475
84.4103
112.369
92.7132
92.1231
94.1534
97.352
91.5818
99.6813
91.985
90.2053
96.4399
100.94
92.642
91.6516
92.1518
82.1156
92.1842
90.5933
98.893
90.4568
91.2795
90.0812
91.6346
91.1707
99.9667
93.9487
90.4779
92.1293
98.6686
98.3921
99.5877
92.2976
90.8984
91.5842
91.8836
86.9435
90.2155
90.0299
91.3382
91.3723
92.2302
96.9303
92.2363
91.0535
115.141
90.572
117.823
97.3932
97.6066
100.097
88.2715
92.4755
78.8892
92.5202
92.1621
82.3915
92.7809
90.015
91.9666
91.4656
91.0452
93.9438
89.0817
90.4715
92.2171
91.9401
90.3746
91.1706
116.725
92.0996
90.3945
98.2205
91.4684
91.6214
92.0964
91.8163
93.5021
92.1434
91.2212
90.4597
90.0138
97.4755
93.4783
98.3083
96.3388
90.8029
84.4131
90.1401
91.6574
90.7645
91.4024
92.0027
98.769
90.6168
97.929
95.1621
91.8849
98.7416
101.228
90.8109
90.5176
122.002
127.644
90.1093
91.5837
92.1325
92.2446
92.2461
91.1689
97.0401
94.0607
95.0658
90.5122
92.8204
97.2918
91.4626
90.8161
90.4377
91.5408
92.1652
98.6794
90.595
92.2559
92.2237
92.269
92.2361
98.3953
90.2003
92.2102
97.0406
100.754
91.8654
92.0819
90.6041
92.5494
90.7651
92.145
91.2895
91.4751
92.5339
92.75
89.9702
92.2426
89.9929
93.1668
87.4855
92.6084
92.2026
92.4364
89.9901
90.2656
92.6859
90.064
99.4652
90.5313
73.9008
98.0784
91.0416
92.3781
118.333
90.795
91.7028
88.0792
92.4707
90.4189
92.087
97.9777
91.2388
90.5281
90.5024
96.6904
92.0331
90.8989
91.46
90.1353
91.448
98.2795
92.6405
90.5177
91.0511
89.9707
117.972
90.0497
92.9389
92.0355
92.2286
100.512
90.5078
100.995
99.7293
92.7538
90.6404
91.9732
90.8059
91.2945
90.4766
90.5261
122.63
92.2322
90.5997
102.551
90.0801
114.147
97.76
101.768
92.1653
97.4485
90.8864
92.0327
90.5686
92.6633
83.3605
91.98
92.145
90.5068
96.0422
90.4765
92.8324
90.6201
92.8449
99.3754
98.7624
98.4082
92.0778
86.8067
96.7448
98.0548
98.8799
98.237
90.0597
92.1942
92.2508
92.226
99.2293
114.963
92.1474
92.2218
92.152
92.1956
90.7243
98.2786
99.8928
81.1476
124.641
89.0249
89.5141
117.775
90.3626
90.8855
98.2158
)
;

boundaryField
{
    frontAndBack
    {
        type            empty;
    }
    wallOuter
    {
        type            zeroGradient;
    }
    inlet
    {
        type            zeroGradient;
    }
    outlet
    {
        type            fixedValue;
        value           nonuniform 0();
    }
    wallInner
    {
        type            zeroGradient;
    }
    procBoundary0to1
    {
        type            processor;
        value           nonuniform List<scalar> 
29
(
89.3813
89.2144
88.108
88.108
82.5915
82.5915
116.741
88.0932
86.219
88.1299
88.4025
82.8053
88.1927
89.6066
117.069
117.412
82.1334
82.824
88.0509
89.2976
117.285
117.178
84.0288
117.506
117.644
82.824
118.237
116.65
117.506
)
;
    }
    procBoundary0to2
    {
        type            processor;
        value           nonuniform List<scalar> 
42
(
92.2368
92.2346
91.8836
91.8688
91.9424
92.2368
91.8836
91.6718
91.8928
91.9161
92.0474
92.1331
92.0474
92.1712
92.1954
92.3447
92.1954
91.9641
91.8831
89.7873
89.7873
91.9641
91.9872
90.3282
90.3282
91.9696
91.0285
91.9095
92.0501
92.2324
92.2324
91.8072
91.679
91.5648
91.5173
91.8836
92.1918
91.9199
92.0501
91.6718
91.5917
91.535
)
;
    }
}


// ************************************************************************* //
