/*--------------------------------*- C++ -*----------------------------------*\
| =========                 |                                                 |
| \\      /  F ield         | OpenFOAM: The Open Source CFD Toolbox           |
|  \\    /   O peration     | Version:  v1912                                 |
|   \\  /    A nd           | Website:  www.openfoam.com                      |
|    \\/     M anipulation  |                                                 |
\*---------------------------------------------------------------------------*/
FoamFile
{
    version     2.0;
    format      ascii;
    class       surfaceScalarField;
    location    "0.95";
    object      phi;
}
// * * * * * * * * * * * * * * * * * * * * * * * * * * * * * * * * * * * * * //

dimensions      [0 3 -1 0 0 0 0];
oriented        oriented;


internalField   nonuniform List<scalar> 
2708
(
1.11442e-06
-2.31128e-05
3.96033e-06
1.80381e-05
-3.69772e-05
4.56509e-05
-0.000170772
0.000162098
0.00123068
0.000234657
-0.000912046
-0.00055329
-0.000328907
0.000185212
6.21626e-05
8.1533e-05
5.26798e-05
-2.27653e-05
-0.000103796
7.38812e-05
0.000436872
0.000327561
-0.000224661
-0.000539772
5.40435e-05
0.000114009
0.000602574
-0.000824294
0.00100467
-0.000782944
0.000193322
0.000342398
-0.000433208
-0.000102512
0.000165022
0.000264663
-0.000310884
-0.000118801
0.000246071
1.53807e-05
-2.09734e-05
-0.000240479
-7.48963e-05
0.000213861
-0.000138964
4.99991e-06
-2.34605e-05
-3.7953e-05
5.64136e-05
0.000847695
-0.000862789
4.26556e-05
-2.75621e-05
0.000141663
-0.000154146
6.80501e-05
-5.55679e-05
1.521e-06
-0.000326609
0.000325088
-0.000232308
0.000206061
0.000167911
-9.48872e-05
0.000259836
-0.0001944
2.9451e-05
1.65445e-05
-1.50335e-05
-1.51098e-06
0.000245037
3.71275e-05
-3.60933e-05
-0.000101975
-5.20543e-05
1.37344e-05
0.000140294
-8.86227e-05
-0.000156661
-4.80635e-05
6.86636e-05
0.000250189
-0.000270789
0.000817538
5.99843e-05
-2.98276e-05
0.000380297
7.71087e-05
-0.000408514
-4.88924e-05
0.000225196
-5.13005e-05
7.11417e-05
-0.000414894
0.000344914
-0.000159944
0.000229924
3.56685e-05
-2.00392e-05
-0.000878418
-0.00103787
8.47218e-05
0.000958571
-5.4232e-06
-0.00018568
9.54921e-05
9.02976e-05
-1.09981e-07
-0.000432099
0.000967668
-0.000554597
1.90279e-05
0.000925956
0.000447559
-0.000611627
-0.000761888
0.000211041
0.00019771
-0.000408751
0.000125707
-0.000163759
3.80519e-05
0.000104712
-0.000150362
4.56496e-05
-0.000880682
0.000872612
0.000683157
-0.000675088
0.000148662
-3.50658e-05
-0.000191462
7.78663e-05
-0.00118421
0.00114106
-5.1996e-05
9.51476e-05
6.46772e-05
-6.97905e-05
-0.000113449
-0.00139822
-3.49561e-05
0.000248973
-0.000351359
-0.000252557
4.10366e-05
0.00056288
0.000123216
-1.20341e-05
-0.000111182
-4.73647e-05
6.71304e-05
-0.000153088
0.000133322
-4.95077e-05
7.60675e-05
-0.000136272
0.000109712
0.000142156
-5.12894e-05
-0.000223453
0.000132587
9.64011e-05
0.000155086
-0.000136858
-0.000114629
5.49117e-05
0.000687826
-0.000382217
-0.000360521
-1.59389e-05
2.6497e-05
-0.000952357
0.000941799
-0.000654815
0.00116056
-0.000869972
0.000364226
3.01221e-05
-0.00108036
0.00110681
-5.65679e-05
0.000183254
-2.26729e-05
-0.000196793
3.62116e-05
-0.000446215
0.000276151
0.000335086
-0.00058405
0.000343377
0.000433995
-5.05934e-05
6.21675e-05
-7.50123e-05
6.34382e-05
-2.70272e-05
5.00735e-05
-9.47751e-05
7.17288e-05
-0.000967155
0.000116647
0.000949608
-9.90997e-05
-8.47996e-05
-8.5916e-05
0.00049035
-0.000319634
-0.000129946
-8.00289e-05
0.000620696
-0.000410722
-0.000570712
0.000536115
-7.1347e-05
0.000137934
-0.000168562
0.000342368
-0.000288352
8.95297e-07
9.86113e-05
5.46809e-05
-5.36485e-05
-9.96436e-05
0.000467698
-0.000752465
-0.000595915
-0.000426549
0.000472042
0.00101165
-0.00105714
0.000846737
-0.000171061
-4.73072e-05
-0.000628369
2.78521e-06
-1.94337e-06
-0.000246147
0.000245305
0.000221129
-2.77869e-05
6.0969e-07
4.6745e-05
-3.21456e-05
-1.52091e-05
-0.000624281
0.00102922
-0.000734322
0.000329384
7.83428e-05
5.52044e-05
6.81945e-05
-1.27113e-05
-6.199e-05
6.5067e-06
-9.53791e-05
-3.75527e-08
-5.94307e-06
0.00010136
6.51896e-05
0.000145851
1.87357e-05
6.18373e-05
-8.26934e-05
2.12041e-06
2.0389e-05
0.000637183
-0.000422915
0.00096705
6.24767e-05
-0.00101493
-1.45955e-05
0.00013625
-0.000264617
-6.95738e-05
0.000197941
-0.00095331
0.000925667
-0.000398906
3.65335e-05
0.000210115
-2.24161e-05
-0.000224232
-4.32585e-05
2.96983e-05
-1.56843e-05
2.92445e-05
5.28406e-05
-0.000143306
0.0001918
-0.000101335
-0.000277395
-6.3557e-05
0.00020177
0.000139182
0.000140811
-0.000126235
2.12928e-05
-3.58691e-05
0.000181967
-3.88799e-06
-0.000188522
1.04437e-05
-6.8624e-05
-3.64665e-05
5.81726e-05
4.69178e-05
0.000776713
7.92362e-05
-3.84109e-05
-0.000107101
0.000122067
-0.00017636
0.000161395
0.000136912
0.000122938
-0.000114351
-0.000145499
-0.000213939
0.000187989
-4.26739e-05
0.000164301
-2.72764e-05
4.49425e-05
0.00112836
-1.72386e-05
2.99349e-05
-5.5023e-06
1.51628e-05
-0.000178344
0.000168683
-9.3597e-05
0.000146697
-0.000124447
-6.24304e-06
-8.54838e-05
-3.65231e-06
-6.70402e-05
-0.00100272
0.00103089
3.8865e-05
-0.000143379
-5.15862e-05
0.000155779
3.91856e-05
-0.000802984
-0.00028393
3.24438e-05
1.10453e-06
-3.29386e-05
3.05427e-05
-0.0010857
0.00108585
-3.06928e-05
-6.57264e-05
2.41134e-05
0.00013542
-9.38067e-05
-0.000180773
-3.00623e-06
-2.0258e-05
0.000204037
0.000210137
2.20147e-05
8.3173e-06
-0.000240469
6.45716e-05
-8.91881e-05
-4.83647e-05
7.29811e-05
0.00103958
-0.00146357
0.000183812
0.000240175
0.000466406
8.67773e-06
1.27364e-05
-0.00048782
8.76413e-05
8.67136e-05
-0.000946187
2.86708e-05
4.58963e-05
-7.36748e-05
-8.92352e-07
-3.70278e-06
0.00017054
-0.000218018
5.11815e-05
6.10698e-06
-0.000159588
0.000156266
0.000844079
-0.000578167
5.00929e-05
-0.000316005
-0.000195936
0.000129931
0.000164617
1.67336e-06
-1.75007e-06
0.000210214
9.15094e-06
-9.8507e-06
-0.000180073
-0.00015736
-5.89349e-05
0.000121407
3.25318e-05
-5.71342e-06
-4.25033e-05
1.56849e-05
0.000721746
0.000100436
-4.54687e-05
0.000173705
0.00016616
-0.00113719
0.00113936
9.62097e-05
-9.83854e-05
-0.000301974
-0.000412021
-0.000228514
-0.0003025
0.000766782
0.000180208
-0.000818481
-0.000128509
-0.00099271
-0.00063733
0.00105473
0.000575306
2.0385e-05
-3.2621e-05
-3.61344e-05
4.83703e-05
0.000118223
-4.44844e-05
0.000648007
-3.07435e-05
8.9592e-07
2.981e-05
-1.13861e-05
3.7958e-05
-6.27422e-05
3.61703e-05
0.00082232
-0.00104071
0.000356331
-0.000137943
-7.82215e-05
5.51979e-05
1.73946e-05
5.62899e-06
-0.000343563
1.97234e-05
-0.000103011
-0.000753395
0.000856406
-8.81935e-05
-0.00019871
0.000221177
5.98714e-05
-6.99125e-05
0.000174342
-9.22811e-06
4.91322e-05
-0.000253844
7.56211e-05
-3.83287e-06
-3.59367e-06
-2.89551e-05
3.03181e-06
0.000182208
-0.000156284
-0.000106855
0.000142844
5.00818e-06
-4.0997e-05
-0.000325898
-7.71498e-05
5.94852e-05
-0.000381111
4.29268e-05
0.000352138
-1.39531e-05
-0.000120855
9.72304e-05
8.34958e-05
0.00089883
-2.32148e-05
-0.000766003
-0.000109612
-0.000103732
0.00110877
0.000155527
-0.00110519
9.19888e-05
0.000859807
-0.00102755
-0.000262733
0.000430474
-0.000226307
-0.000988005
0.00118934
2.49709e-05
0.000152176
-1.16679e-05
-2.20166e-05
7.60674e-06
9.0031e-05
-0.000916833
0.000879948
-0.000276265
0.00031315
0.00126995
7.65364e-05
-0.000315639
-0.00103084
-4.99359e-05
0.00090531
-8.6377e-06
-6.22151e-05
9.62293e-05
-9.57835e-06
-2.44358e-05
6.63813e-06
-4.98967e-05
5.00054e-05
4.67551e-06
-8.49222e-06
-2.84943e-05
-0.000929865
-0.0003778
0.000354355
-0.000247212
-8.28053e-05
0.000241824
0.000908061
0.000116796
-0.000180778
-0.00019104
0.000900001
-0.000884994
0.000176033
0.00025966
-1.86084e-05
1.87843e-05
-0.000148658
0.000163769
-2.58393e-05
-3.0556e-05
8.05088e-05
-1.52948e-05
6.94387e-05
-5.24705e-05
-3.86368e-05
0.000169595
-6.71648e-05
-2.03716e-05
8.38336e-05
-0.000105639
4.07132e-05
2.17152e-05
-1.92613e-05
1.68361e-05
-0.000104444
7.98276e-05
-0.000174094
-0.000944943
0.000184919
0.000878246
9.31547e-07
0.000217841
-0.000217252
0.000368837
-0.000580456
-0.000550264
0.000761884
1.42215e-05
0.000238068
-0.00087657
-3.37675e-05
0.000918253
1.43442e-05
8.26218e-05
6.38259e-05
-0.000146448
-4.27028e-05
3.34747e-05
0.0010816
-0.00125812
-0.000154898
0.000331417
0.000121333
3.55975e-05
-6.14381e-05
-0.000818882
-0.000353864
0.000853173
0.000319573
-8.33693e-05
0.00104568
-0.00094927
-1.30365e-05
-2.39607e-05
0.000152201
-2.56189e-05
-0.000102621
0.000129845
-0.000979242
0.000944666
-9.52694e-05
0.000171887
-0.000138117
-0.000229706
-0.000333449
0.000247498
0.000945757
-0.000923374
0.000911606
-0.000179272
0.000627553
-0.000603147
-3.53944e-07
0.000561682
-0.000512196
-5.8791e-05
0.000176885
-0.000332692
-0.000908915
0.000311742
-8.4116e-05
-0.000147005
0.000234204
-3.08316e-06
-0.000352191
0.000359123
-9.71385e-05
9.02071e-05
0.000113379
0.00101698
-0.000892415
-0.000158333
0.000288341
-3.14912e-05
1.10578e-05
-0.000267908
-0.000154748
0.000166356
0.00112775
8.4179e-06
2.2892e-05
0.00100827
0.000129806
0.000930439
-0.000998205
-6.20398e-05
-2.07609e-05
-3.28876e-05
-1.31542e-05
1.69871e-05
-0.000211783
0.000281956
-7.01726e-05
-0.00020169
-0.000917076
0.000201934
-0.000320474
-7.30136e-05
4.21282e-05
-0.000198153
-0.000248432
6.74251e-05
-3.22532e-05
4.13004e-05
0.0010226
-8.71216e-05
-0.000976776
-1.38123e-05
0.00012566
-0.000112327
4.79341e-07
-7.60477e-05
0.00105464
-0.000650522
-0.000265108
0.00067514
-1.2054e-05
-0.000889392
0.000133864
0.00082606
-0.000193142
0.000976871
0.000149229
-0.000159515
-0.000966585
0.000183878
-3.46921e-05
-0.000235102
0.000168412
-5.83021e-05
-0.000190139
0.0002068
0.000897553
-0.000196291
0.000190335
9.05489e-06
-0.000283506
-8.07096e-05
0.000101615
7.08196e-06
-2.79868e-05
0.00036905
-9.19599e-05
0.000583622
-0.000860713
0.000353211
-0.000103207
0.0005146
0.00122739
-0.000556528
-0.000355518
0.000810435
-0.000883828
-1.85669e-05
-0.0010216
-0.000830706
0.000594188
0.000833483
-0.000901309
-0.000221726
-0.00101013
5.09525e-05
0.00100184
0.000872614
0.000143468
-4.35197e-05
-0.000127224
-0.000169218
0.000189353
0.000167855
0.00101225
0.000200783
-0.000532131
0.000962246
-0.00125441
-0.000417132
-0.000922034
0.000807035
-0.000615693
0.000873701
-8.1424e-05
-0.000991414
8.48332e-05
1.76936e-05
4.10103e-05
-5.75895e-05
-0.000937141
0.000663884
-5.94351e-05
-2.72147e-05
1.482e-05
-2.20339e-05
3.44286e-05
-0.00110783
-3.6602e-05
0.00106838
-0.000190505
0.00017343
-0.000293156
-8.80634e-05
0.0001365
0.000244719
-0.000520743
0.00063625
-1.80808e-06
8.17031e-06
-1.48545e-05
-3.72451e-06
1.11351e-05
-9.21864e-06
0.000756727
0.000185397
0.000190048
-0.00100125
0.000156746
-0.000973587
-8.90762e-05
0.00117293
-0.000110264
0.00014301
-9.37684e-05
0.000150906
-0.000120005
0.000788932
0.000492698
-0.00115183
0.000202336
-0.000266974
-0.000962715
0.000986362
-2.36469e-05
5.08081e-05
-6.15259e-05
1.07178e-05
1.36058e-05
-9.02144e-06
-3.17991e-05
-0.00104723
-2.42297e-05
0.00107146
-0.00100395
0.00101528
-1.13293e-05
-0.000932593
-1.40194e-05
-0.000531313
0.000181349
-3.11475e-05
0.000244896
-0.000872644
-0.00102358
4.91173e-05
-0.000988981
0.00108519
0.000908053
-0.000230407
-0.000932483
-0.000121308
0.000941162
0.000112629
-0.000234993
1.70239e-05
0.000345358
-0.000127389
0.000999124
2.57256e-05
0.000445802
-0.000979863
5.70043e-05
-5.07282e-05
8.96754e-05
-0.00101859
-3.45114e-05
-0.000898082
0.00102828
-0.000669177
-3.62973e-05
0.000148548
2.31689e-05
0.000200246
-0.000101377
-0.000173766
4.81183e-05
-5.70382e-05
-0.00017828
0.0001872
-0.000445003
-9.43949e-05
-7.73913e-05
-0.000657791
1.72836e-05
-1.73803e-05
1.49167e-05
2.14666e-05
-2.97778e-05
-7.23984e-05
-4.17163e-05
0.000226596
-0.000967266
-0.000413133
-0.000842074
0.000530795
0.000724413
-0.00101109
-0.00105037
-9.29369e-05
5.56274e-05
0.00108768
0.0005515
3.19456e-05
0.00115673
-1.35768e-05
-0.0011751
-0.000686702
-0.000545312
-1.55865e-05
-0.000123246
0.000212848
-7.40154e-05
0.000975809
-0.00103761
-0.000385618
0.000206109
0.00121712
-1.56354e-05
9.26355e-05
3.63787e-05
0.000196128
-0.00106589
0.000999611
1.20359e-05
6.91664e-05
-6.75965e-05
-0.000237355
0.000205534
-0.00134609
-2.3238e-05
-4.36095e-05
3.68093e-05
1.34383e-05
0.000305174
0.00102103
-6.55086e-05
-0.00126069
0.000131817
3.11876e-05
9.45731e-05
-0.000113725
0.000378291
-0.000260698
-1.75893e-05
-1.23417e-05
1.58578e-05
-3.79392e-05
0.000864073
-2.02665e-05
-6.25283e-05
8.73796e-05
-4.58479e-06
0.000105402
-0.000181314
-2.92116e-05
-5.61652e-05
-0.000137577
0.00014524
2.35247e-05
-3.88224e-05
-0.000363645
-4.2535e-05
4.61716e-05
-5.1041e-05
1.01992e-05
-5.32988e-06
0.000304953
-0.000982091
5.1544e-05
4.96239e-05
5.87604e-05
0.000104979
-4.60518e-05
4.99001e-05
4.65305e-05
3.23147e-05
-0.000399426
0.000410038
5.2772e-05
-5.07468e-05
1.52584e-05
-4.84255e-05
5.71225e-05
6.79135e-05
-7.66106e-05
4.00133e-05
4.3393e-05
0.000404874
0.000922809
-0.000402015
-2.77637e-05
-3.90586e-05
2.87268e-05
3.80956e-05
0.00107889
5.03706e-05
-2.74051e-05
-3.74262e-05
1.44607e-05
-1.4085e-05
4.5718e-05
-4.58934e-05
1.42604e-05
1.10208e-05
-1.59083e-05
-1.24927e-05
-0.000158689
0.000170096
-0.000158412
-5.40532e-05
-0.000169937
0.000135927
-0.000121138
-1.30901e-05
0.000114966
-2.69477e-05
3.07584e-05
-1.10311e-05
-0.000132779
-2.69791e-05
1.42527e-05
-2.34917e-05
3.62181e-05
0.00117726
-0.000891178
2.88798e-05
-6.14251e-05
0.000134666
0.000100135
-0.000248398
-0.000549664
0.000697927
-3.97649e-05
4.99316e-05
-1.01667e-05
0.000105382
-0.000916161
-7.30479e-05
-6.18895e-06
-4.18758e-06
1.03765e-05
4.15091e-05
-6.83142e-05
2.68051e-05
4.88459e-06
-2.55235e-05
2.06389e-05
-0.000141593
6.55784e-05
7.60144e-05
1.28659e-05
-6.82892e-06
-6.03702e-06
-5.95932e-05
-3.23591e-05
9.19523e-05
8.50314e-05
-8.69846e-05
1.95318e-06
2.04442e-05
2.41087e-06
-2.28551e-05
-0.000137021
-4.5716e-06
3.31487e-05
-2.02828e-05
-2.33396e-05
-1.64253e-05
-8.14312e-05
8.42801e-05
-2.84888e-06
6.08172e-05
-6.15353e-05
7.18112e-07
3.9777e-05
5.69959e-05
-3.65517e-05
7.95291e-05
0.00010296
-0.000134582
3.16218e-05
2.44222e-05
1.70869e-05
-2.63293e-05
2.01404e-05
-7.0992e-05
9.46614e-06
-6.96705e-05
7.30877e-05
-3.41724e-06
1.27712e-05
-5.92428e-05
2.47851e-05
2.16864e-05
1.69267e-05
8.62846e-05
-5.57241e-05
-0.00013472
0.000153467
-2.00346e-05
4.66049e-05
5.29191e-05
-0.000106316
0.000245474
-0.000154745
-9.01684e-05
2.04141e-05
0.000171369
4.22392e-05
-4.03437e-05
-2.93006e-05
1.69498e-05
-0.000329122
-0.000637098
-0.000338961
0.000387916
0.00106216
-9.84183e-05
1.69871e-05
2.01589e-05
-1.45901e-05
-5.56884e-06
3.9249e-05
2.93068e-05
-2.64445e-05
-1.26746e-05
8.53709e-06
8.60087e-05
-1.2921e-05
-2.09287e-05
-2.70448e-06
3.46456e-05
-1.58686e-05
1.1681e-05
-0.000333044
-0.00060622
0.000361327
0.000577938
0.00103927
-0.000267117
5.09392e-05
1.46493e-05
-5.02534e-05
4.79993e-05
-1.23952e-05
-2.06121e-05
7.01258e-06
0.000914846
-0.00092432
9.29103e-05
-8.34369e-05
9.5823e-06
2.97237e-05
-1.92806e-05
-2.00254e-05
6.00141e-05
8.03055e-07
-7.26594e-05
-1.69374e-05
5.21706e-05
2.3345e-05
-0.000145407
1.17114e-05
-7.9207e-05
2.02647e-05
4.7231e-05
0.0010902
-0.000292326
2.95096e-05
2.96112e-05
-1.29492e-05
0.000422689
-0.00107885
0.000961332
2.13153e-06
-5.20783e-05
4.01507e-05
1.90152e-05
0.000156818
-0.000369859
0.000727641
-8.30864e-05
0.000125895
-0.000104221
0.000686042
0.00067701
-0.000490439
8.21823e-05
-7.86034e-05
0.000655997
-0.000360372
-0.000295626
-8.49509e-05
8.23686e-05
4.69479e-05
-4.43656e-05
-0.000444971
-0.00013751
0.000347488
-2.19888e-05
-3.93336e-05
9.65551e-06
5.1667e-05
-1.70597e-05
-3.61535e-06
5.34636e-06
-1.57471e-05
2.9537e-05
-2.46581e-05
1.08682e-05
-1.79504e-05
5.76067e-05
-4.00464e-05
3.90056e-07
5.34509e-05
-2.69926e-05
-0.000147333
0.000120874
-2.04308e-05
-3.28691e-06
7.97066e-06
-5.50091e-05
4.82126e-05
-7.81544e-05
-0.00014136
-3.45319e-05
0.000229343
-8.7011e-05
0.000106131
-4.69624e-05
2.78422e-05
7.96697e-05
-0.000102271
-0.000121001
0.000109729
0.000113543
-0.000131108
-3.58398e-05
-9.31793e-06
1.81652e-05
-6.16198e-05
7.01955e-05
7.39464e-05
-1.44137e-05
-0.000129728
1.54819e-05
-4.18055e-06
-0.000138666
-4.92756e-06
5.71402e-05
8.64533e-05
-2.7439e-05
3.3487e-05
2.34889e-05
-0.000158186
-6.71292e-05
0.000138304
-0.000105928
-0.000113039
7.16344e-05
4.79203e-05
0.000389514
-0.000357199
6.81557e-05
-0.000156146
0.000147964
-0.000146937
-6.50626e-06
3.68564e-05
-3.03502e-05
4.47722e-05
1.10927e-06
-5.22846e-05
6.40308e-06
-2.81345e-05
4.25585e-05
3.03482e-05
-3.20319e-05
-1.03141e-05
-1.65803e-06
0.000107056
-0.000105398
-6.75457e-05
0.000115412
2.60801e-05
-9.89053e-05
1.69459e-05
-4.86436e-06
-8.82064e-06
-4.26535e-06
-5.27859e-05
-1.52287e-05
3.98801e-05
2.16227e-05
-3.46814e-06
3.94521e-05
-8.84981e-06
1.50995e-05
-3.09078e-05
-1.94416e-05
3.51094e-05
5.95492e-06
1.64695e-05
-4.62927e-06
-1.67046e-05
1.45632e-05
-1.52055e-05
-8.17831e-06
-6.4403e-06
1.69031e-05
8.77805e-06
0.000266805
-0.000273051
0.000242316
-0.00023607
2.68307e-05
4.95304e-06
-3.17837e-05
-2.50538e-05
3.18361e-06
-3.81479e-05
-0.000195647
0.000185732
2.03749e-05
2.60378e-05
5.70661e-05
-6.78769e-05
3.11856e-05
-8.02971e-05
-0.000436758
-0.000110074
0.000213787
-3.66978e-05
-7.25722e-05
7.11221e-05
-5.50016e-06
4.05774e-05
0.000519945
-0.000270661
0.000278282
-0.000280258
-1.49485e-05
1.69243e-05
-4.32979e-05
1.77998e-05
0.000871929
-0.000215932
8.15909e-05
-1.18634e-05
-0.000106425
2.0511e-05
-6.53448e-05
-0.000800471
0.000714197
0.000694464
-0.000817926
0.00058753
-0.000501481
0.000273074
9.57149e-07
-1.61514e-05
1.51942e-05
-2.83235e-05
0.000272457
3.19495e-05
-2.61246e-05
-0.000145209
0.00101714
-0.0011042
-0.00114019
9.46601e-05
-0.000116495
-8.92871e-05
-0.000148448
3.43919e-05
3.63864e-05
8.23645e-06
-3.33975e-05
-1.12253e-05
-1.41571e-05
1.18814e-05
2.73542e-05
-2.50785e-05
-3.48446e-05
3.31865e-05
2.01185e-06
2.0573e-05
6.25765e-06
-6.32532e-05
2.20969e-05
5.08118e-05
-0.000766386
0.000952431
0.000528151
4.42164e-06
4.19899e-05
0.00026235
-3.1883e-05
-0.000453745
8.1412e-05
0.000372333
0.000179759
-0.00013756
0.000114058
-0.000156257
9.52812e-05
-8.9553e-05
-0.000930048
-8.83358e-05
8.30459e-05
0.000185049
-0.000178053
1.77413e-05
0.00053065
0.000156671
-0.000687322
-5.43517e-05
0.000132801
2.76818e-05
1.24691e-06
-0.000180595
7.70771e-05
-0.000189932
7.01775e-05
5.44888e-05
-9.42363e-05
7.2934e-05
3.10961e-05
-7.38383e-05
-1.22464e-05
8.58634e-06
-3.94257e-05
3.39367e-05
1.17466e-05
0.000398301
-8.78666e-06
2.57197e-05
0.000372581
2.44687e-05
0.000168311
-6.92002e-05
5.39846e-05
1.06073e-05
-4.508e-05
0.000515608
7.6905e-05
1.00349e-05
-5.29804e-05
1.47148e-05
0.000142873
-0.000130053
-0.00012268
6.43719e-06
0.000158185
-0.000152872
-2.35331e-06
-1.50052e-06
-4.82245e-05
-0.00025281
4.62001e-05
0.0002486
-2.76184e-05
1.5279e-05
6.83891e-05
-5.04532e-05
-4.28729e-05
2.4937e-05
3.4294e-05
-3.67045e-05
-0.000142783
4.45719e-05
0.000180487
8.15358e-05
-0.00112351
-8.09811e-06
-0.000926755
-0.000325839
-0.000171035
6.44336e-05
1.1259e-05
1.51856e-05
1.34211e-05
-1.84898e-05
-7.65821e-05
8.98574e-05
5.2145e-06
0.000199477
6.40558e-05
-4.62149e-05
-5.46181e-06
-0.000256408
0.000329273
0.000438393
-0.000511258
8.39675e-06
-0.000176432
-1.25597e-05
-3.06345e-05
-0.000368575
3.48082e-05
-7.09184e-05
7.42202e-05
4.93463e-06
0.000165488
-0.000960929
-2.30742e-05
0.000992421
-5.25271e-06
-6.41885e-05
3.48638e-05
5.14216e-05
5.85857e-05
-3.70391e-05
1.67332e-05
2.03059e-05
0.000984504
-0.0010365
1.31569e-05
-2.14679e-05
1.37899e-06
3.0589e-05
-7.81203e-05
-7.52167e-06
-5.73536e-07
1.23416e-05
-4.24645e-06
4.23877e-05
-2.47404e-05
-0.000330139
-9.30375e-06
-7.34148e-05
6.74899e-05
0.000148589
-0.000218315
0.000108653
-9.45203e-05
-2.16548e-05
0.000603867
-0.000320567
-5.55488e-07
-2.16236e-05
2.60391e-05
-3.85997e-06
-1.94559e-05
3.24307e-05
-6.52594e-05
-0.000858966
6.19997e-05
0.000167984
9.35196e-05
-0.000175219
8.43474e-05
-0.000265882
2.9095e-05
8.30867e-06
-3.74037e-05
6.3542e-05
-5.25856e-06
-4.87012e-05
0.00026577
-0.000354195
-9.46818e-06
2.09182e-06
0.000238042
-3.79336e-05
4.45234e-05
4.21244e-05
-5.31607e-05
-8.83459e-05
-0.000141215
0.000198404
0.000265888
-0.00100224
0.000250682
4.82018e-05
-0.000740723
1.99687e-05
-0.000107219
7.8282e-05
-2.87741e-05
-0.000100053
0.000121186
7.64106e-06
0.000208512
4.95499e-05
-3.60246e-05
-9.2549e-05
0.00109918
1.67459e-05
3.66669e-05
-0.0010532
-3.74258e-05
-7.90768e-05
0.000200852
-2.7116e-05
0.000526312
0.000121501
0.000250601
0.00124843
0.00110111
0.000166372
0.000203688
0.00110353
5.46311e-05
-3.14796e-05
3.48025e-05
-6.08e-05
-0.000190414
-0.000112781
-0.000920285
0.000118324
-5.29404e-05
3.04377e-06
-0.000132169
7.76127e-05
-6.01138e-05
-0.000110048
3.53125e-05
-6.84049e-05
3.91682e-05
0.000190376
0.000153479
-1.3142e-05
-0.000136871
-5.07246e-05
3.959e-05
4.59984e-05
-0.000116329
0.000119584
-1.16334e-06
0.000840422
-0.000169678
-0.000642889
-2.78555e-05
-0.000753241
0.0006952
0.000323929
2.26299e-05
-4.38548e-05
2.7628e-05
4.13343e-06
2.32366e-06
4.86176e-05
1.9832e-05
-0.000246541
0.000333722
0.000154312
-0.000984922
8.15234e-05
0.000654226
-0.000654337
7.37348e-06
0.000428871
-0.000410525
-6.02837e-05
1.13834e-05
-1.20984e-05
-4.37957e-06
2.73612e-05
4.9338e-05
-3.60634e-05
-4.06359e-05
-0.000108765
8.53376e-05
0.000155597
-0.000204564
-0.000145433
-4.06532e-05
-1.82559e-05
4.48241e-05
-0.000152951
7.82396e-05
0.00083626
2.95031e-05
-2.37865e-05
2.16446e-05
-2.96971e-05
-4.25291e-05
-1.75979e-05
2.22995e-05
1.87873e-05
-0.00100697
0.00104018
-0.000281645
4.99526e-06
-0.000126583
-0.000151754
4.48351e-06
0.000302867
8.92749e-05
-6.65304e-06
-0.000966184
-0.000199118
4.24422e-05
1.62441e-05
3.3926e-05
0.000789149
6.12187e-05
0.00104664
-0.00101263
0.000144003
-0.0001522
-0.000143557
0.000214978
2.4948e-05
0.000264574
9.53609e-06
-1.04961e-05
-0.000263614
-0.000308483
5.77549e-07
2.92313e-05
-7.17896e-06
-0.000273949
9.77245e-05
-8.44056e-06
3.72645e-06
0.000450346
3.6041e-05
5.93821e-06
0.000221213
-7.27262e-05
0.00014868
-5.5144e-05
-1.17004e-05
6.97965e-05
4.6883e-05
0.000202138
-0.000164498
0.000997455
-0.00125017
0.000269459
0.000141876
1.39252e-05
0.000721844
5.65122e-05
0.000945585
0.000277688
-9.98612e-05
-0.00112341
-3.47231e-05
3.59642e-06
1.77055e-05
-4.78478e-05
-8.49872e-05
6.82467e-05
5.48331e-05
-3.80927e-05
-0.000144616
0.000204766
-0.000224871
0.000164722
-0.000195777
0.000188073
0.00133365
9.84464e-05
-3.00881e-06
3.52451e-05
0.00132647
7.62843e-05
6.52222e-06
3.61891e-06
0.000130051
-3.13037e-05
-1.51618e-05
-0.00103117
8.05522e-05
-0.000151998
-3.73421e-05
2.12079e-05
3.38397e-05
-0.000976085
-0.00116302
0.00073885
-3.67567e-05
-1.16933e-05
-2.76414e-05
-6.33e-06
1.41722e-05
1.97992e-05
8.75944e-05
1.44495e-05
-5.14887e-05
7.63819e-05
4.19183e-06
-7.83494e-05
-4.61545e-05
-0.000196721
8.50331e-05
-2.6374e-05
4.8735e-05
3.01579e-07
-3.81684e-05
2.71846e-06
9.65772e-05
-1.57117e-06
6.50218e-05
2.03081e-05
1.45838e-05
-8.74161e-05
2.22627e-06
-0.000169987
-1.86904e-05
1.05447e-05
3.29565e-05
3.04726e-05
-0.000151413
1.68311e-05
1.32264e-05
4.17907e-05
0.00086048
0.000134203
3.18933e-05
-0.000813452
-1.54246e-05
4.98832e-05
-0.000106906
0.000457878
0.000409294
0.000151192
-3.94953e-05
0.00108493
-0.000488087
-2.5529e-05
0.000114638
-0.000115904
9.15632e-05
-6.34022e-05
3.44572e-05
-6.33169e-05
-4.11514e-05
7.32877e-05
3.38666e-06
1.61761e-05
-0.000727019
0.000677485
4.95339e-05
0.00012931
-0.000135029
-3.86467e-05
-8.05162e-06
0.000291247
5.14614e-06
0.000890991
0.000145521
-0.000789159
6.21408e-05
5.16198e-05
0.00107239
-8.91768e-05
-0.000949183
0.00101529
-0.000339941
0.000575433
4.66334e-05
-0.000282126
-2.35995e-05
2.91374e-06
-6.29329e-06
5.80967e-05
0.000619388
-6.67326e-05
9.98201e-05
8.87266e-05
-0.000121814
8.29617e-05
-5.72871e-05
5.64535e-05
-8.21282e-05
-0.0001954
4.31549e-05
0.000152245
2.66869e-05
-2.65948e-05
4.26384e-05
3.68755e-05
6.57196e-05
2.35552e-05
-0.00024034
4.49404e-05
-0.000284825
0.000346385
-0.000394738
-0.000291587
-0.000891419
0.000236896
-2.79573e-05
2.91026e-05
-0.000165486
-1.93801e-05
3.98291e-05
-0.000102494
0.000114519
-3.39862e-06
0.000193281
-8.60718e-05
0.000390503
0.000535453
0.000211858
-4.05961e-05
-0.000177915
-0.000477872
0.000459318
1.85537e-05
8.27896e-05
-0.000871949
7.33817e-05
-0.000119507
-4.81247e-05
7.55901e-06
-0.000166801
0.000859013
-0.000330293
0.000368704
-0.000398532
-0.000215011
-8.32603e-05
-0.00013127
6.74976e-05
0.000878311
-0.000194917
0.000355873
-0.000959876
0.000656868
0.000632392
-0.00106458
-5.02939e-05
0.000573441
0.000367655
-0.000298992
-0.000633761
0.000584161
0.000524273
-0.000615736
0.00033913
0.000574305
-0.000265724
-0.000504132
5.01777e-05
0.000488346
0.000122553
6.6328e-07
-0.000637941
0.000761139
-0.000500143
2.22715e-05
-0.000161961
1.70971e-05
0.000369787
0.000565547
6.40328e-05
-7.0072e-05
-5.47608e-05
-3.38177e-05
2.03829e-05
-2.72011e-05
-3.23654e-05
-2.92544e-05
0.000446133
1.31847e-05
-0.000128694
2.94224e-05
1.42844e-05
0.00010747
-0.000160163
-4.28781e-06
1.74484e-06
4.08058e-05
3.16733e-06
2.2021e-05
-1.10515e-05
4.58597e-05
-0.000426094
-0.000295595
7.75187e-05
9.19492e-06
-1.05105e-05
-0.000536422
0.000115435
-0.000135541
5.09734e-05
-5.03428e-05
-5.11198e-05
-4.60148e-05
1.63719e-05
0.000114226
1.79503e-05
-0.000917885
0.000136867
-9.58305e-05
9.75063e-05
-0.000169512
0.00101351
-0.000960796
-7.13883e-05
-4.12128e-05
1.46804e-05
-1.8084e-05
0.000241948
0.000379016
-0.00108612
3.03586e-05
-6.26751e-05
4.88909e-05
-1.56819e-05
4.57657e-06
7.70672e-06
0.000927551
0.00013687
1.35313e-05
-7.31124e-06
-7.12647e-06
-0.000144286
-8.50411e-05
-8.46589e-06
-0.00099336
0.000661811
6.45749e-05
1.18404e-06
0.000255666
2.81042e-06
3.9921e-05
4.74558e-05
-1.25392e-06
0.0011161
7.00318e-05
-0.00108015
-0.000591537
0.000773334
1.37882e-05
-3.30521e-05
7.85905e-05
-0.00010764
0.0001653
0.000503538
-0.000727694
0.000224155
0.000436322
6.72167e-05
0.000447577
-1.12549e-05
-0.000309493
0.000466311
-0.000679352
-0.000602816
-0.000504338
-9.84779e-05
7.98267e-05
-4.50869e-05
0.000121549
-9.9048e-05
-0.000938114
-0.000121161
-4.65578e-05
-4.91143e-06
-1.63983e-05
1.16573e-05
7.03776e-05
-4.70121e-05
5.22792e-05
2.99321e-05
-6.51244e-05
6.27159e-05
5.25701e-05
-7.6037e-05
0.000113179
4.70558e-05
-1.88878e-05
3.92892e-06
0.000437911
0.000813635
6.84901e-06
5.44235e-05
5.59065e-06
-0.000133034
0.000135634
-6.5275e-05
-0.000229225
-0.000998036
0.000148165
-2.94436e-05
0.000216065
-0.000476622
-2.7716e-05
0.000267835
-0.000148422
-0.000609852
0.000131449
-7.61677e-05
-3.8822e-05
-3.45878e-05
-0.000158714
-0.00014592
7.5912e-05
5.83071e-05
9.79939e-05
-0.00115066
0.00103909
-3.3494e-05
0.000211295
-0.000206113
-9.21631e-05
8.69812e-05
-1.9504e-05
4.81368e-05
1.52121e-05
-4.07356e-05
0.000118865
-2.49814e-05
8.00703e-05
-0.00118822
1.79204e-06
0.000682157
-0.000382698
-4.06785e-05
2.66784e-05
-0.000249816
-7.42257e-05
8.29601e-06
3.48861e-05
1.54912e-05
-2.92146e-06
-0.000116738
0.000113783
-0.000136272
0.00011771
-7.66542e-06
6.34555e-07
-0.000612493
-0.00037743
0.00014924
0.000185556
9.41973e-05
-0.000216739
0.000117614
-1.96465e-05
5.98694e-05
1.20562e-05
0.000992086
9.51101e-05
3.41878e-05
6.90753e-05
5.70657e-05
0.000194739
-9.83226e-05
-0.000197793
-0.000802114
0.00112194
-2.38977e-05
-2.30544e-05
2.16926e-05
-0.000163886
-4.83095e-06
-3.54616e-05
-4.26746e-06
0.00103941
-2.79993e-05
-2.78289e-06
7.66942e-06
0.000164701
0.000152253
-8.86217e-05
-9.29899e-05
9.44692e-05
-0.000857403
4.16762e-05
0.000649209
8.28958e-05
-7.80723e-05
3.91431e-05
0.00108688
7.10041e-05
9.88228e-05
8.61299e-05
-0.000372614
6.12591e-05
0.000147625
1.81896e-05
-3.32456e-05
-0.000219986
0.000183974
5.28481e-05
-0.000236483
5.27085e-05
1.2609e-05
2.06478e-05
0.00014436
-7.49297e-06
-0.000167047
0.000155379
-0.000964452
0.00103059
-0.000249207
0.000183066
-3.26694e-05
-2.19282e-05
3.54006e-05
-1.88562e-05
0.000185315
-0.000247058
0.000533677
-0.000483645
-0.000158357
-2.03611e-05
4.76103e-06
1.32321e-05
-4.45645e-05
5.21688e-05
-4.99081e-05
-0.0011559
2.71384e-05
-2.38033e-05
-7.8598e-05
-3.76677e-06
0.00014795
-0.00107034
0.000969213
1.75374e-05
-1.77844e-05
0.000992668
-2.00333e-05
0.000558254
-0.000481847
-7.64073e-05
0.000257075
-3.1324e-05
0.000126716
7.9324e-06
-3.45892e-06
6.90989e-06
-0.000897947
0.000907196
0.000115694
-5.85503e-05
0.00029113
-0.000297804
6.6738e-06
-0.000282936
0.000261962
8.19441e-06
-0.000304606
6.80243e-06
0.000225869
0.000174569
0.000319736
-0.00106534
0.000115778
-4.49938e-06
-1.02441e-05
3.91604e-06
0.000237252
-0.000248213
2.71551e-05
-1.94687e-06
-2.52082e-05
6.34293e-06
0.000118176
0.000116072
2.29108e-05
-0.000329455
2.84619e-06
-0.000112497
-0.000618648
0.000452012
-3.03053e-05
3.56252e-05
6.95656e-05
4.62121e-05
-0.000281017
-2.99857e-05
-3.24175e-06
0.00065671
-1.94136e-05
4.83221e-05
-1.29905e-05
-4.38427e-05
4.41586e-05
-1.88638e-05
-0.000117951
9.61086e-05
-3.82715e-05
2.11521e-05
6.00301e-06
3.28895e-05
3.6676e-05
8.33715e-05
0.00010184
-4.31564e-05
2.03911e-05
9.48773e-06
-2.52471e-05
1.39782e-05
-5.61253e-06
-0.00011863
0.000458326
-0.000346736
-4.39472e-06
-1.11029e-05
-0.000256877
2.17631e-06
1.89758e-05
3.6441e-05
-0.000144387
0.00105271
-1.35453e-05
-0.00101419
-0.000147449
0.000118968
0.000682707
-0.000115243
0.000501579
-0.000220598
-3.32458e-05
0.000118679
-3.5183e-05
0.00027083
-2.92364e-07
-2.49053e-06
-0.000225819
0.00030919
6.00589e-05
-0.000103215
0.00140575
-0.00113592
-8.84099e-05
-0.000924833
-7.47656e-05
-1.30517e-05
3.41681e-05
0.00011722
2.49087e-06
0.000550079
-0.00072114
-0.000111578
9.53293e-05
-3.45784e-06
-4.89241e-05
0.000257338
0.000224884
-8.1819e-05
-0.000886901
-4.80718e-05
-3.19051e-05
-0.000369128
0.000393219
-0.000201639
0.00058898
0.000925048
-0.000265602
-8.33858e-05
1.80174e-05
-4.92244e-05
-8.36482e-05
5.63678e-05
0.000681865
5.70342e-06
6.14254e-05
0.000154311
-9.95078e-06
7.17764e-05
0.000163646
-9.2737e-06
7.49619e-06
-0.000183887
-0.000177157
-2.77004e-06
0.000184922
-4.84014e-05
6.30383e-05
3.94034e-06
0.000213617
9.34073e-07
-1.36239e-05
9.14475e-05
0.000139902
2.99314e-05
0.000902659
-0.000914036
6.18875e-06
3.15713e-05