/*--------------------------------*- C++ -*----------------------------------*\
| =========                 |                                                 |
| \\      /  F ield         | OpenFOAM: The Open Source CFD Toolbox           |
|  \\    /   O peration     | Version:  v1912                                 |
|   \\  /    A nd           | Website:  www.openfoam.com                      |
|    \\/     M anipulation  |                                                 |
\*---------------------------------------------------------------------------*/
FoamFile
{
    version     2.0;
    format      ascii;
    class       volVectorField;
    location    "0.92";
    object      U;
}
// * * * * * * * * * * * * * * * * * * * * * * * * * * * * * * * * * * * * * //

dimensions      [0 1 -1 0 0 0 0];


internalField   nonuniform List<vector> 
5794
(
(0.00291856 -0.266352 -3.47376e-17)
(-0.183236 -0.164719 0)
(-0.199872 -1.40149 -1.34355e-16)
(0.384604 3.30045 1.05011e-16)
(1.74036 1.786 2.39118e-17)
(0.0209829 -2.08987 -1.05595e-16)
(2.7174 -0.199621 -1.78104e-16)
(0.833733 -0.326221 0)
(5.78211 0.81941 1.00063e-16)
(-0.0458886 0.00656741 2.56068e-16)
(4.72993 -0.108405 -3.19917e-19)
(-1.94072 -0.23457 0)
(-2.80235 -0.180963 4.85959e-16)
(0.522945 6.88779 1.78569e-16)
(0.234901 -0.00244939 5.42271e-16)
(-0.85212 -0.178078 -1.50159e-16)
(1.41943 -0.0286636 4.7185e-17)
(-0.00224419 7.1448 1.20409e-16)
(0.119895 -0.00621363 5.05236e-16)
(-0.00585968 -0.0120822 1.95758e-16)
(-2.99162 1.77898 -4.58579e-17)
(0.226972 -1.04545 -1.48712e-16)
(3.15075 -0.0480337 2.45574e-16)
(0.828428 0.0137916 -6.3588e-16)
(2.55402 0.224332 -3.69699e-16)
(2.91981 10.7192 2.13755e-17)
(5.93753 -0.577118 0)
(0.00206808 2.10492 -1.47021e-16)
(0.048503 9.32693 -3.77791e-17)
(0.148186 -0.00489039 3.18234e-16)
(-0.411433 -0.870016 -6.43559e-16)
(-1.7884 0.0281323 -5.07273e-16)
(-2.1293 0.113524 -9.00815e-16)
(-0.18975 -0.230025 4.75467e-16)
(-0.875898 0.28729 -2.15487e-16)
(-0.877641 0.306399 2.15083e-16)
(9.76335 0.603905 -2.17974e-16)
(2.48845 -0.453492 0)
(3.24053 -0.361866 1.31076e-16)
(0.045417 3.46369 0)
(0.138648 2.47127 -1.04991e-16)
(-0.753154 2.20693 1.3536e-16)
(7.37242 0.11082 -8.82717e-19)
(0.257455 2.61014 0)
(0.25466 -0.0306994 -4.71174e-16)
(4.82731 -0.171158 1.34459e-16)
(3.66936 -0.195013 -2.48178e-16)
(-1.51572 -0.367415 0)
(0.0186334 0.0487555 9.19287e-16)
(1.23625 -0.207612 6.44219e-17)
(0.364852 -0.0681393 -1.75286e-16)
(5.90611 -0.229203 -1.82588e-16)
(-0.0948369 -0.307666 0)
(0.336647 0.129875 1.80266e-16)
(-0.0673621 -0.0606934 1.06485e-17)
(5.05772 -0.511656 0)
(3.71068 -0.412072 -2.0051e-16)
(-1.75015 0.0334937 1.53132e-16)
(8.38516 0.0645365 0)
(4.41191 10.1016 -7.21159e-19)
(9.11567 0.482833 1.91189e-18)
(0.319811 0.66096 -1.35472e-16)
(-0.0995881 -1.38247 -1.49818e-16)
(-0.918496 -0.0459959 2.09226e-16)
(-1.21423 0.13697 0)
(0.678462 0.26034 -2.67211e-18)
(0.229755 0.922197 -2.30764e-16)
(-0.136848 3.62845 0)
(0.199042 5.39399 -1.39215e-16)
(0.159368 0.557832 -1.48384e-21)
(4.5715 -0.496434 1.4122e-16)
(0.349989 2.48468 -2.87827e-16)
(11.3763 2.09453 -3.49637e-18)
(1.94277 0.0758871 0)
(0.0958353 6.68856 1.22663e-16)
(0.19101 1.11654 6.27956e-20)
(-0.0114042 -0.109515 1.46464e-16)
(1.58818 10.5293 -2.21417e-17)
(0.379533 2.69826 3.73189e-17)
(-0.315418 0.0705438 7.49709e-17)
(0.0995601 -1.34796 -1.78482e-17)
(0.0199773 -0.362972 -1.81607e-16)
(0.143278 1.29727 -8.62609e-20)
(2.41201 -1.52192 -8.66272e-17)
(1.52273 -1.35233 -3.67394e-16)
(-0.101331 5.37679 -4.1193e-17)
(0.211311 6.1511 3.04229e-17)
(0.0306075 5.26713 -2.50757e-17)
(0.853993 0.0904157 -1.7123e-16)
(2.13093 1.18546 -4.6033e-17)
(0.917768 5.58921 -8.0044e-17)
(0.0531451 7.05782 -8.23158e-17)
(-0.0761286 7.48184 1.3362e-16)
(0.104422 7.55359 5.87296e-17)
(-0.0318991 6.77017 3.26677e-17)
(-2.14489 0.0437338 5.35951e-18)
(0.016153 6.19081 -5.58973e-17)
(-0.113585 7.23058 -1.44748e-17)
(-0.0307017 7.00969 0)
(8.83381 0.532977 -3.0955e-17)
(1.7333 3.24652 -1.23676e-16)
(-1.19812 0.175486 -4.10623e-16)
(8.26523 0.142067 7.35369e-17)
(0.466166 5.75521 -2.39941e-16)
(0.148491 0.0858034 0)
(-0.286329 5.59904 0)
(0.116589 0.571672 0)
(-0.324715 0.0674914 -2.76803e-16)
(-1.40507 0.578788 -1.22712e-16)
(0.53792 2.76582 -1.01342e-16)
(0.565612 -0.0933084 -3.964e-20)
(0.324787 -0.0671851 0)
(-1.4391 4.71282 1.14175e-16)
(-0.244038 -0.0631307 1.54759e-16)
(0.00561978 6.67716 0)
(-0.104655 7.67039 0)
(0.228919 -0.0465915 -3.90861e-16)
(-0.225467 8.32674 -9.53114e-20)
(9.36752 0.433498 -2.39227e-20)
(10.8424 0.607175 6.05493e-18)
(-0.388852 7.67706 1.08638e-16)
(0.429678 0.040898 0)
(-1.71429 -0.0381149 0)
(0.0736789 1.54792 -1.96421e-16)
(0.379473 -0.0605799 2.40286e-16)
(4.75255 2.36313 5.08255e-17)
(0.763778 5.65151 0)
(-0.188099 -1.85756 6.67696e-17)
(6.03972 -0.63459 1.21286e-16)
(-0.47175 -0.0413674 1.67911e-16)
(-0.211703 -0.874513 3.40987e-16)
(-0.707123 -0.966016 2.13453e-16)
(0.172513 1.10456 2.35604e-17)
(1.08854 10.1959 -6.68743e-17)
(-0.372865 6.45377 1.37892e-16)
(0.305598 -0.014735 0)
(4.25834 -0.204624 9.3533e-17)
(0.349251 0.660959 -1.9491e-16)
(-1.06356 -0.121978 1.58537e-16)
(0.325862 -0.353059 0)
(1.4009 -0.33215 -5.0322e-16)
(0.395543 2.63712 0)
(0.40725 -0.115865 0)
(0.375295 3.03767 2.53593e-16)
(-1.06231 -0.162578 1.65009e-16)
(2.13411 -0.120814 1.57068e-17)
(-0.92712 1.02123 2.27262e-16)
(7.69297 0.283574 2.36294e-16)
(1.33518 1.1051 -1.72167e-18)
(0.230463 1.26867 4.05737e-16)
(7.21222 -0.173286 -1.75495e-16)
(0.279829 0.133194 3.49519e-16)
(-0.299247 5.79932 0)
(-1.31954 0.293057 1.87211e-16)
(4.12874 -0.744374 0)
(4.25379 0.122125 0)
(2.25096 -0.663397 -2.5336e-16)
(1.24476 -0.352917 4.03712e-16)
(5.21677 0.179132 -2.65856e-16)
(1.49477 -0.597434 -1.3395e-16)
(0.156746 -0.00385093 4.29741e-16)
(-1.48746 -0.0898379 -3.6688e-16)
(-0.0121852 -0.0747783 0)
(-1.76563 -0.0236055 -1.40343e-16)
(-2.97908 0.0204728 -3.02907e-16)
(-3.10524 -0.0971409 1.65391e-16)
(-1.76791 -0.13564 1.24626e-18)
(-0.697465 -0.301569 -4.18926e-18)
(0.447192 -0.0702753 0)
(0.200477 -0.0136038 1.02516e-18)
(0.151649 0.0172679 0)
(-1.85221 0.414301 -1.15883e-16)
(-1.04985 0.221587 0)
(-0.991078 0.25299 1.04436e-16)
(-0.43604 -0.0310072 4.55841e-16)
(3.09157 -0.000674895 0)
(0.0359096 0.0152228 -2.63707e-16)
(2.4953 0.0542537 -2.22041e-16)
(0.522206 -0.139418 -9.25516e-17)
(6.14844 0.10359 6.86015e-18)
(0.786741 -0.184502 -5.68889e-18)
(-1.16948 -0.307652 0)
(1.53224 -0.0943343 0)
(-1.87602 -0.327734 1.25502e-16)
(0.606974 -0.238146 0)
(0.0479085 -0.849379 7.02111e-17)
(-1.36048 0.132133 -1.46338e-16)
(-1.23107 0.298636 -1.01263e-16)
(-0.0930127 0.0141993 1.47902e-16)
(-1.08907 0.106158 3.36769e-16)
(4.63242 -0.0691879 -3.43696e-16)
(-1.86013 -0.101841 3.75404e-16)
(-2.27177 -0.0867842 6.00258e-16)
(0.175663 -0.450072 6.31079e-16)
(-1.26631 -0.551775 -9.63808e-17)
(-0.671806 -0.437333 -5.21509e-16)
(1.77169 -0.337599 -2.11275e-17)
(-0.00851434 -0.113594 -1.94312e-16)
(0.054375 -0.0356003 -3.23146e-16)
(6.39718 -0.0465235 1.22705e-16)
(3.08433 -0.0713004 -1.85113e-17)
(5.80851 0.0073733 0)
(-0.713674 -0.435379 0)
(-0.193502 -0.0936858 1.15718e-17)
(3.67511 -0.0138178 -5.83073e-17)
(4.76625 0.022392 0)
(-0.140636 -0.260448 1.22041e-17)
(0.338599 -0.0369517 2.12993e-19)
(4.70792 1.0675 -5.79113e-18)
(1.91412 8.7078 1.24395e-16)
(0.753108 1.42103 1.06437e-16)
(9.73245 -0.00935836 0)
(-1.16521 0.121717 -1.13397e-16)
(-0.96854 -0.311416 1.80927e-16)
(0.507505 -0.209628 0)
(1.16222 0.274781 7.56098e-16)
(0.892311 0.23193 -1.79434e-16)
(1.03036 1.43434 9.63794e-17)
(4.11825 -0.195106 1.33366e-16)
(1.41166 5.6155 -1.75528e-16)
(9.64962 -0.00567589 0)
(2.00001 0.555987 2.18856e-16)
(-0.347154 1.97447 0)
(-0.0326807 5.27468 2.72008e-17)
(5.10049 0.123885 1.32998e-16)
(11.1599 0.721189 2.15507e-18)
(-0.900696 -0.235619 -7.30198e-17)
(0.0939382 -0.088026 -1.33872e-16)
(0.367976 -0.0803151 0)
(0.292175 -0.0375672 -3.47134e-16)
(-0.992697 0.374202 0)
(-0.979013 0.391437 -7.01801e-17)
(-0.429916 0.0825018 -1.14846e-16)
(-1.06752 0.741722 1.53356e-16)
(2.00468 0.324312 1.62403e-16)
(9.74071 0.148026 5.704e-18)
(7.63525 0.926139 1.90094e-18)
(7.26766 0.511952 2.89085e-17)
(-2.09684 0.117954 -1.58444e-16)
(0.76756 -1.03247 -3.84569e-16)
(-0.112609 -0.29318 0)
(1.20095 0.81763 1.17618e-15)
(1.47277 4.68219 2.15955e-16)
(-0.714548 0.704684 -2.5872e-16)
(-1.36629 0.853411 2.67345e-16)
(0.573791 -0.0270842 3.02398e-16)
(0.315471 -0.0862665 -1.61675e-16)
(1.17235 0.750426 8.14682e-18)
(-0.116879 5.98794 0)
(-0.032743 5.89516 0)
(-0.0202708 5.41382 0)
(0.393473 0.259886 2.86443e-17)
(2.89464 -0.689557 -7.24398e-17)
(-0.271327 0.153384 -4.1875e-20)
(7.26211 1.19643 -5.79843e-17)
(4.422 2.30877 -9.03949e-18)
(8.17553 0.212632 -1.51347e-16)
(8.995 0.527035 1.59384e-16)
(0.063338 -0.356736 2.92324e-16)
(0.340063 -0.0334711 0)
(5.92978 -0.0596967 -1.13057e-16)
(-1.22147 0.0640578 9.78494e-17)
(-0.77732 -0.531076 -1.0319e-16)
(0.956294 -0.152233 0)
(-1.34892 -0.162862 0)
(-1.47406 -0.187921 -6.12725e-19)
(0.201788 1.88054 1.4475e-16)
(3.76927 0.783128 0)
(0.244353 -0.0210031 -7.60552e-16)
(4.35289 0.0130997 -1.24964e-16)
(3.44636 -0.058233 0)
(0.153049 -0.795159 -3.01823e-16)
(1.11131 1.81515 -4.74951e-16)
(4.80188 -0.369832 -1.72053e-16)
(9.49024 0.0885031 3.65171e-17)
(0.195952 -0.0439785 3.49761e-16)
(0.337411 0.149747 -1.94482e-16)
(1.49317 -0.242277 -8.62089e-17)
(0.393793 -0.0595302 -2.05147e-16)
(-1.75533 1.23931 -2.44871e-16)
(-0.140483 -0.111839 3.99929e-16)
(0.91891 3.29133 2.58655e-16)
(0.258689 3.24017 9.96676e-17)
(-0.550851 1.9263 -3.89461e-16)
(0.272646 4.80406 4.71745e-17)
(-0.12451 5.28666 1.14276e-16)
(0.0392283 6.07503 1.23915e-17)
(0.0212999 5.92894 0)
(0.582082 5.79873 4.20616e-17)
(-0.437413 7.73709 0)
(-0.64196 0.413136 -1.80554e-17)
(-0.61175 0.48093 -1.46549e-16)
(-0.169616 -0.0750833 2.70397e-18)
(0.400918 0.157778 0)
(8.04527 1.71696 0)
(1.14303 7.53607 7.20797e-18)
(0.291468 3.46118 5.89653e-17)
(-0.285222 1.13581 -1.41436e-20)
(0.245203 4.55387 -2.05197e-16)
(0.680062 -0.171911 -1.76242e-16)
(0.0524752 -0.403543 1.26606e-16)
(-0.460821 6.34631 0)
(0.0954686 -1.32993 -6.95025e-16)
(0.739203 2.07377 0)
(0.545029 0.709165 -1.71738e-16)
(3.55843 0.265076 1.6535e-18)
(0.467563 -0.13846 -2.83526e-16)
(0.32627 3.63344 2.68299e-16)
(4.99377 0.102758 2.46968e-16)
(3.98699 0.0353154 0)
(0.504198 -0.49581 -6.46209e-16)
(-0.17413 0.487607 -3.07029e-16)
(1.34187 7.59599 -1.3805e-16)
(-0.200359 -0.0997586 -8.70106e-17)
(10.5887 0.119883 0)
(10.0087 0.301493 -1.82307e-17)
(-0.0911004 0.0620088 -9.86574e-17)
(-0.0598199 2.80311 -2.71926e-16)
(-2.07522 0.378771 -2.19612e-16)
(0.162796 7.11181 -4.17825e-17)
(0.416798 -0.203917 5.03513e-16)
(1.74191 -0.810378 -1.95132e-16)
(-0.122326 7.5366 -7.75732e-17)
(1.69516 1.35406 -7.68495e-19)
(-0.696197 -0.166516 0)
(1.71902 -0.451577 0)
(1.99749 -0.113461 0)
(-1.47678 -0.290684 6.77719e-17)
(-2.12273 -0.352379 -3.23816e-16)
(4.51135 -0.128813 3.01071e-16)
(6.19339 -0.0347243 -7.12465e-18)
(6.56603 -0.125432 3.06654e-16)
(-0.90099 -0.407615 9.25012e-17)
(-1.83344 0.254117 4.97115e-16)
(-1.70976 0.143073 0)
(-0.0704119 -0.0311273 -2.67408e-16)
(-0.0467523 -0.0120269 0)
(0.271731 -0.0831683 0)
(-0.021721 0.0410025 -3.59934e-16)
(-0.608014 0.0202897 0)
(0.709515 -0.0905793 4.3855e-16)
(2.53782 0.0733088 3.82711e-16)
(6.31104 0.373706 0)
(3.18933 -0.0950101 0)
(0.0648477 -0.0114122 4.50621e-16)
(1.51995 -0.0285381 3.69064e-16)
(-1.06994 -0.525932 3.26904e-16)
(-0.242519 -0.345149 -2.42141e-17)
(-3.02078 -0.151532 -1.23799e-16)
(2.84438 0.0162774 6.83359e-17)
(3.59121 0.171581 6.09852e-17)
(0.564696 0.0894299 2.45708e-16)
(-2.35236 -0.166014 -2.26769e-17)
(-1.74736 -0.204419 1.52237e-16)
(1.00907 -0.306594 0)
(-0.961194 -0.62731 0)
(-0.0254842 -0.0560848 1.91584e-16)
(5.22071 -0.42409 1.73956e-16)
(2.75814 -0.00309367 6.59063e-17)
(1.0937 -0.306937 0)
(0.192774 -0.00363618 -2.7627e-16)
(1.41651 -0.500016 4.66332e-16)
(4.6837 -0.0868111 3.69249e-17)
(2.1252 -0.414321 -3.29942e-17)
(1.39648 -0.821765 -2.67353e-16)
(0.315876 0.0268057 5.28545e-16)
(-3.23312 -0.00926851 -3.8131e-17)
(4.25319 -0.339796 0)
(3.11856 -0.289467 3.37654e-16)
(-1.71895 0.0085227 -9.14868e-17)
(0.310365 -0.0442666 -1.44125e-16)
(1.15604 -0.0629224 0)
(0.42774 0.059248 -1.20417e-16)
(-0.229854 0.648267 2.85058e-16)
(0.509723 0.065254 8.97466e-17)
(-2.79824 0.16498 1.40637e-16)
(3.78785 -0.022793 0)
(2.72791 0.11284 9.11608e-17)
(-1.65653 0.448015 0)
(0.0801293 -0.0196633 1.68314e-17)
(0.18488 -0.376418 1.73757e-16)
(0.268202 -0.0696581 0)
(10.7718 0.0877426 0)
(-1.24724 0.180401 1.52973e-16)
(-1.23128 0.0974105 -6.26088e-16)
(-0.173036 -0.26996 -3.82462e-16)
(-0.253722 9.08677 -2.93982e-17)
(-0.348198 -0.356803 3.12912e-16)
(0.233346 -1.0023 -1.10466e-15)
(-1.56416 -0.240619 0)
(-0.0647875 -0.200898 -8.25321e-16)
(-1.1918 1.06287 -5.97527e-19)
(0.101227 0.629784 -2.58985e-18)
(-0.0243636 -0.287133 1.74011e-16)
(-0.662718 0.241053 9.29916e-17)
(-0.566472 0.24389 -1.00148e-16)
(-0.455151 0.0456362 1.14636e-16)
(-0.0715386 0.699306 0)
(0.316449 -0.0183233 0)
(2.68354 0.0486214 -2.65872e-16)
(0.812946 -0.146852 1.44024e-16)
(2.31287 0.0940835 -3.84427e-16)
(8.96295 -0.275844 3.22992e-17)
(0.58177 -0.00961136 2.02296e-16)
(0.362712 -0.0726997 0)
(6.41191 0.958165 4.66281e-17)
(-0.0709116 1.03728 1.16683e-20)
(0.125534 -1.93523 1.72858e-16)
(-0.101875 0.452978 -4.1662e-17)
(-0.246937 5.80086 -6.11623e-17)
(-0.0767312 7.07969 2.28485e-17)
(0.126405 7.04955 0)
(0.855025 0.474112 1.76378e-16)
(-0.961669 0.313874 2.80885e-16)
(5.04928 -0.0315731 2.03338e-17)
(3.97688 -0.0652247 7.18575e-17)
(0.118038 -0.307107 0)
(0.301771 3.87796 1.70325e-16)
(-2.43008 0.182054 0)
(-0.15205 6.32042 3.86096e-17)
(-0.0481175 7.0436 -6.354e-17)
(-0.144984 7.28229 3.03221e-17)
(-0.0233839 -0.031276 -1.6002e-17)
(0.331583 -0.000984357 -4.38118e-17)
(-1.41999 0.0615128 0)
(-1.38658 0.0437873 0)
(-0.262758 -0.111725 -2.10944e-16)
(-0.270681 -0.0175774 -2.03407e-16)
(0.0340432 0.0443517 -1.63336e-17)
(-0.00201791 -0.729924 5.68653e-17)
(3.61751 0.673673 3.22103e-16)
(9.99671 0.165499 1.29611e-17)
(0.2516 2.36546 -2.84265e-16)
(0.979667 -3.03966 -2.11897e-17)
(0.206399 -0.0728213 3.45776e-16)
(0.20155 -0.0289104 0)
(0.249918 -0.395502 1.73392e-16)
(0.683399 -0.541569 -1.00813e-17)
(-1.63682 0.0605632 -9.49788e-17)
(-1.54437 -0.00643417 1.98035e-16)
(-0.112921 -0.205835 2.70606e-16)
(9.94583 0.0983224 -2.52894e-16)
(-0.172214 -0.321728 0)
(0.234926 -0.36594 8.15006e-17)
(1.69463 -0.190788 -2.11976e-18)
(-0.0467549 7.68141 -5.77499e-17)
(0.00999325 6.68422 1.71185e-21)
(-0.946103 -0.128991 0)
(-0.393464 0.300523 2.4742e-16)
(1.31232 0.397344 -8.12648e-17)
(0.0637804 -0.0617825 -2.45985e-16)
(0.066039 -0.0799346 -8.3097e-17)
(-2.75794 1.3204 4.65376e-17)
(0.219546 -1.19205 -5.05282e-16)
(-0.110247 6.54182 -2.70655e-17)
(0.927727 -0.105886 -5.25973e-16)
(0.360053 5.24619 -2.22707e-18)
(-1.56938 -0.497863 -2.22736e-16)
(-0.0246936 6.53266 -3.21387e-17)
(0.942369 6.49335 8.85662e-17)
(0.538765 -1.61304 -1.01913e-16)
(-0.216811 -0.0381098 -2.64225e-16)
(-0.27296 0.391099 1.9016e-16)
(0.469658 -0.117919 -3.94797e-16)
(8.47781 0.576779 9.30735e-17)
(-0.472866 -0.0483816 -2.88315e-16)
(9.97639 0.335547 -2.17098e-18)
(2.56911 3.25717 5.64335e-17)
(0.541416 0.0704173 -4.4862e-16)
(0.773585 2.22886 -5.01739e-17)
(0.625397 -0.0109757 3.92465e-17)
(6.23687 1.09991 -4.72261e-18)
(1.53417 0.70673 -6.96277e-17)
(0.489329 -0.193897 3.26393e-17)
(0.208916 0.0609549 -2.27354e-16)
(-1.01262 -1.04719 1.14274e-15)
(8.34451 2.19618 -2.6275e-18)
(-0.065419 2.59958 1.60346e-16)
(1.73069 0.127849 1.76481e-16)
(-0.15534 -0.142316 6.13215e-17)
(-1.02692 0.573201 2.77329e-16)
(0.571296 -1.50408 0)
(0.659393 -0.0405525 -2.05808e-16)
(0.547113 -0.160102 1.40842e-17)
(0.0112814 0.0384058 1.84108e-16)
(3.39636 -0.124916 -5.31803e-20)
(9.7954 0.0319761 0)
(1.37935 -0.0674491 2.21831e-18)
(0.945076 -0.0116537 -5.05399e-17)
(0.0836271 -1.31272 -8.01275e-20)
(0.0744724 -0.248924 2.31961e-16)
(0.0852786 4.75291 -1.38397e-16)
(-0.104823 6.24776 4.17757e-16)
(1.52926 0.930754 7.34071e-18)
(-0.0852954 0.878445 -5.89609e-21)
(0.411659 -0.238975 2.55027e-16)
(0.208113 -0.0229432 0)
(0.184304 -0.0427482 0)
(-1.00957 -0.0917269 -3.22237e-17)
(6.85775 0.82214 -1.37881e-19)
(3.18877 2.01134 2.01787e-17)
(8.56005 1.26753 -5.67113e-18)
(10.375 0.534455 3.28573e-18)
(0.813321 0.13438 0)
(0.2118 2.88036 0)
(-0.350937 0.148653 2.5165e-16)
(0.420146 -1.40704 1.99799e-16)
(8.90977 0.492292 -4.49299e-16)
(1.57958 0.698747 0)
(0.708937 0.138382 0)
(-2.08883 0.13448 2.08063e-16)
(0.498035 -0.199716 1.73942e-18)
(0.195954 -0.271785 -1.79819e-16)
(0.817962 -0.106779 1.94094e-16)
(-0.0905062 -0.127602 -1.00087e-16)
(0.0244276 6.75692 -2.95577e-17)
(-0.196828 7.542 -1.40338e-17)
(0.779001 -0.115028 -2.55205e-16)
(9.9005 0.166728 -6.70207e-17)
(8.9853 0.0429773 3.58944e-18)
(0.175495 -1.4368 1.3819e-16)
(-0.188273 0.378937 -4.12656e-17)
(2.14326 2.16652 -9.56872e-18)
(-0.448485 8.52923 -1.30531e-16)
(-0.201732 0.0085764 1.08486e-15)
(-0.541909 -0.521124 6.70601e-18)
(1.00445 0.525415 0)
(5.46662 3.7268 6.67596e-17)
(-0.0981667 0.0475571 1.34402e-16)
(0.364275 -1.65594 -1.6049e-19)
(-0.805233 2.09846 1.82488e-16)
(-0.551517 -0.0607606 0)
(10.1759 0.15605 0)
(0.0838652 0.0183556 -7.31527e-17)
(0.354392 -0.0724981 0)
(-0.711226 0.440209 8.43455e-17)
(10.0252 0.0653947 -1.05634e-16)
(4.77508 -0.0325646 7.63151e-17)
(-0.45769 -0.00614473 1.26987e-16)
(6.95589 0.0235538 9.61046e-17)
(0.0243664 -0.684171 8.81178e-17)
(-0.723585 -2.58404 1.84345e-16)
(0.0848546 0.0652628 2.66283e-16)
(0.628249 6.89619 -1.02608e-16)
(1.29863 -0.123243 -7.37797e-17)
(-0.584581 -0.137901 0)
(9.70734 0.826863 0)
(0.408516 3.04685 -2.40201e-16)
(-0.40899 -0.0689347 -2.07494e-16)
(-0.511263 -1.58461 5.87179e-16)
(0.568677 5.28217 -2.57446e-17)
(0.0748344 0.0182767 0)
(0.0407464 0.0148047 -5.06632e-16)
(1.13749 1.38301 -1.51295e-16)
(-0.770167 -0.977631 1.39065e-16)
(0.41433 -0.135628 0)
(-0.282944 2.25174 0)
(0.326783 -1.79099 0)
(-0.106619 0.132527 -2.06979e-16)
(0.545811 1.92058 6.71055e-18)
(9.97884 2.89174 -2.40421e-18)
(0.106931 -0.0211771 0)
(5.33691 1.29202 0)
(0.349308 0.155 -1.08233e-16)
(0.812827 6.99715 7.29993e-17)
(1.57075 0.107504 0)
(-0.747185 -0.17227 4.04213e-16)
(0.315908 -0.0560923 -6.35299e-21)
(-0.246832 -0.603513 -1.6549e-16)
(0.806598 -0.0645409 0)
(8.02611 0.596259 -6.39226e-17)
(-1.60621 0.694291 -1.54406e-16)
(0.569352 3.04383 7.36656e-17)
(0.0654201 4.20998 0)
(0.894186 3.84744 -1.05008e-17)
(9.92383 0.259448 -2.0199e-17)
(2.69947 2.60897 -3.65599e-18)
(0.213193 5.34274 -1.29228e-16)
(-0.477758 1.93142 -2.51104e-16)
(0.246977 3.63408 -4.35945e-16)
(-0.170061 6.81826 5.16686e-19)
(0.109708 6.75938 4.66192e-17)
(2.59403 2.62029 0)
(10.4397 -0.22389 2.1301e-17)
(-2.67249 -0.228665 1.39294e-16)
(8.86812 0.822543 -1.18503e-16)
(-0.281323 0.0424008 1.84505e-16)
(-0.0916801 6.60027 0)
(-0.0528328 6.96212 -5.14236e-17)
(-0.20653 4.89394 1.87335e-16)
(0.736871 0.0702781 -7.56958e-18)
(-0.515223 -1.01527 4.97782e-17)
(0.428651 0.588777 6.88946e-18)
(-0.14138 6.58385 -2.84837e-17)
(0.0502048 6.60509 -2.96024e-17)
(2.02994 8.82354 5.62906e-17)
(0.13506 -0.0308006 2.22027e-17)
(10.126 0.168991 0)
(-0.173193 -0.117303 5.4349e-16)
(0.436833 0.0346659 -1.12896e-16)
(0.697541 0.0121096 -3.48534e-16)
(7.49331 0.585787 1.68713e-17)
(0.0152596 6.68654 -4.57532e-17)
(-0.10385 6.75198 1.92222e-16)
(0.865091 -0.156736 -7.37988e-20)
(-0.409162 0.0778075 -1.21741e-16)
(1.00736 6.70461 0)
(-0.0562385 0.0335076 0)
(-0.0696871 -0.160898 -2.12705e-17)
(-0.112831 1.91674 0)
(3.11242 4.07038 -5.36848e-17)
(4.4692 2.9707 0)
(0.950495 5.74466 -1.54992e-16)
(-0.131298 0.336146 7.65302e-17)
(1.0796 0.00451992 3.67788e-16)
(0.970062 -0.107263 4.80324e-17)
(7.17518 0.666771 -1.50992e-17)
(3.87891 -0.00659795 -2.35188e-16)
(7.67341 0.139034 -2.91939e-16)
(2.39421 0.325568 0)
(0.199949 0.575282 -8.93313e-17)
(5.10624 2.93377 1.62099e-16)
(3.60691 1.6523 -7.42117e-17)
(0.0521208 0.0252116 -3.74134e-16)
(0.269094 0.665722 6.37104e-16)
(-0.606737 -0.645746 3.23829e-17)
(-0.193617 0.608865 -4.04645e-16)
(1.10312 1.89156 -2.36971e-21)
(0.93337 1.1395 -2.45436e-16)
(-0.481493 -0.000395753 1.95104e-16)
(0.230597 -0.680333 1.01171e-16)
(-0.12825 -0.118298 0)
(0.0813448 0.260856 -8.17275e-17)
(0.0984808 -1.00555 -7.54699e-17)
(-0.150057 0.385213 3.33295e-16)
(0.630728 -0.0593806 -1.2063e-16)
(1.28987 8.84716 -3.59726e-17)
(10.6477 0.424426 -7.32445e-17)
(0.240656 -0.066352 1.23593e-16)
(-0.0285593 2.59888 -4.89708e-17)
(0.473572 -0.0401704 -1.46579e-16)
(8.64704 0.162932 3.58268e-16)
(3.95841 -0.133432 -2.4304e-17)
(-0.0135789 6.91451 3.41398e-18)
(4.22391 -0.153217 2.49795e-16)
(-0.0768919 4.81497 -1.78661e-16)
(0.0182863 5.74655 8.72161e-17)
(7.22931 0.309147 0)
(0.0343116 0.166132 -1.29409e-16)
(-0.0234094 9.40848e-06 3.0897e-17)
(-1.42865 -0.860473 0)
(1.5634 1.11577 -1.59163e-16)
(0.0668609 0.0629611 7.02201e-17)
(0.940317 0.244111 2.84571e-16)
(0.968534 0.142346 2.88473e-16)
(3.81944 0.181587 -4.18557e-17)
(8.68013 0.504297 -1.11548e-18)
(1.21986 1.58565 -1.59253e-16)
(-1.30454 0.125076 2.90982e-16)
(-1.08015 1.30539 -2.83976e-16)
(0.449257 -0.242075 1.28413e-16)
(0.656482 -0.0386503 0)
(0.47121 -1.40167 -1.01322e-17)
(-2.01954 1.14354 -2.84846e-16)
(-0.00385353 -0.242707 -2.04688e-20)
(-0.0199364 5.96797 2.74831e-17)
(0.188797 5.51968 -2.85639e-18)
(-0.130328 5.20772 -1.1266e-16)
(0.197735 6.03965 3.0795e-17)
(2.00456 4.58215 -1.42936e-16)
(7.11073 0.339573 7.14767e-17)
(-0.00596859 0.729258 0)
(10.1939 0.982985 0)
(-1.44519 -0.0694687 3.86726e-16)
(-1.08401 0.0641326 5.47176e-16)
(0.00846907 6.66834 1.40011e-16)
(-0.0510182 6.8746 -1.29229e-16)
(1.1927 -0.234833 1.2386e-16)
(1.07694 5.8949 -4.10224e-17)
(1.09024 -0.290837 4.80999e-17)
(-0.429881 -0.290847 2.44146e-17)
(0.380564 -0.0940621 1.66575e-19)
(0.326121 0.0481524 -7.10297e-17)
(-0.5144 -0.102543 -9.82572e-18)
(0.411244 2.19365 -5.14451e-17)
(3.44904 -0.0736722 -4.09908e-16)
(0.586379 4.12292 6.67721e-18)
(0.123717 -0.0273012 1.76246e-16)
(0.327799 0.010433 0)
(0.690512 -0.135807 0)
(0.106459 3.05825 0)
(0.771688 6.15327 2.29981e-16)
(1.08557 8.7249 2.39061e-16)
(-0.0951292 7.01959 2.23026e-16)
(0.453627 0.110167 4.06787e-17)
(5.84633 3.26131 -3.95194e-17)
(0.318116 0.10476 0)
(-0.178639 -0.204054 1.02419e-16)
(0.550735 -0.916749 3.17107e-17)
(10.5342 0.0572592 -7.62636e-18)
(0.0140432 0.0304468 -1.18216e-16)
(-1.52582 0.250889 3.27006e-18)
(-0.614436 -0.0518892 -1.66047e-16)
(8.95342 0.37811 -2.05355e-17)
(0.636498 1.74983 0)
(3.45496 1.19127 -3.54967e-16)
(3.38368 0.843175 2.10916e-16)
(0.598168 -0.123567 0)
(0.0663075 0.129647 7.95133e-17)
(1.30384 2.29841 -2.60221e-16)
(8.63442 0.157749 0)
(1.68856 5.85159 -4.66866e-16)
(-0.0404809 6.2425 -1.26162e-16)
(0.363228 3.19529 0)
(1.16183 0.554535 0)
(11.3881 0.283124 4.43403e-17)
(10.3606 0.356672 3.42282e-17)
(8.77749 1.23207 1.85454e-18)
(5.34861 2.16374 -4.92084e-21)
(0.326528 2.26643 0)
(1.36251 0.606197 2.05711e-16)
(2.06936 7.31088 -2.97034e-17)
(4.55811 -0.0607996 0)
(0.173626 0.00593966 -4.81389e-16)
(3.77548 2.1348 1.96225e-17)
(0.0858261 0.796663 -1.32269e-16)
(9.35538 0.928859 -5.26614e-17)
(10.8689 0.0436819 7.9428e-17)
(1.66625 1.84348 -1.85541e-16)
(9.92239 0.419614 -1.58008e-17)
(-0.000539662 6.82944 1.54575e-16)
(0.72601 9.00522 4.12764e-17)
(0.582211 6.87059 -1.03309e-16)
(6.74764 3.60168 0)
(0.423952 0.133486 1.63619e-16)
(-0.112162 -0.796737 -1.93116e-16)
(2.1063 0.0878895 2.76467e-17)
(-0.0477549 0.0808506 1.38442e-16)
(0.0405808 7.04824 5.12653e-21)
(-0.0573723 7.372 2.23902e-19)
(0.549593 5.99718 7.48118e-17)
(-0.0290876 0.182163 0)
(-0.111761 -0.145892 0)
(-0.523542 0.0217218 1.08016e-16)
(0.23125 0.131979 1.81063e-16)
(-0.0778386 5.34488 -1.07278e-16)
(-0.0383645 6.004 -3.44866e-18)
(-0.240536 2.37595 0)
(-0.156885 0.13863 -4.91039e-17)
(10.091 0.110593 8.73135e-17)
(-0.831767 -0.637864 0)
(1.62755 1.29972 -3.59729e-16)
(0.22828 0.0225496 7.96025e-17)
(0.879192 -0.106025 2.52306e-16)
(0.0087235 6.79859 6.2465e-17)
(-0.149286 7.175 1.4112e-16)
(9.6019 0.933584 0)
(0.248597 7.33727 -3.63773e-17)
(-0.0199786 6.7934 -3.15781e-17)
(9.49942 1.15607 -9.72263e-17)
(2.02099 0.0162504 -4.54055e-20)
(7.28294 1.6885 6.26976e-18)
(-0.154433 6.56947 2.45007e-19)
(-0.021415 6.06277 0)
(-0.000872782 5.52902 2.94878e-18)
(-0.132507 5.04488 -9.86371e-17)
(0.346961 5.88835 -3.78673e-17)
(3.59952 4.1326 1.4377e-16)
(0.226554 1.60339 3.8876e-17)
(-0.11341 6.9325 2.09475e-16)
(0.0102999 7.08268 0)
(-0.273645 5.42755 -1.41839e-16)
(0.80426 1.37881 2.70866e-17)
(0.0464391 0.108617 -1.60547e-16)
(0.417071 -0.0564071 9.35344e-17)
(0.0281554 0.134139 4.79028e-18)
(-0.462421 -0.414869 1.30959e-16)
(0.520662 -0.0168286 0)
(0.992414 3.45933 1.13842e-17)
(-0.180263 -1.84167 -1.9632e-17)
(0.550503 0.0107197 -1.25497e-16)
(8.66252 0.826725 -7.45346e-19)
(-0.0814539 0.839517 -4.52104e-17)
(0.396199 -1.84505 -1.95379e-16)
(-0.200608 0.119599 -2.27101e-16)
(-0.132251 6.38346 -2.11583e-16)
(0.155587 6.63747 0)
(0.571369 0.15147 2.49082e-16)
(-0.146121 6.45617 9.09046e-17)
(0.147185 6.55198 2.3279e-17)
(-0.354231 -0.195707 -7.58023e-17)
(3.5313 3.60862 -1.51485e-16)
(-0.850252 -1.36972 4.92689e-16)
(-0.542679 -1.032 5.94715e-16)
(0.779365 0.662978 -2.71279e-16)
(0.213687 6.19228 2.35869e-16)
(0.0613382 -0.0443181 -4.52638e-16)
(-0.885777 -0.408063 -1.92055e-16)
(0.0606116 -1.13483 -1.21399e-16)
(1.11851 9.09769 0)
(9.85318 0.10474 0)
(0.0134759 0.0736202 -3.02112e-16)
(0.427758 -0.473642 2.10937e-16)
(-0.121218 0.24243 -7.2463e-17)
(-0.725233 -0.562799 0)
(0.356237 0.1611 1.29152e-16)
(0.519051 -0.0242081 -3.3853e-20)
(0.691927 0.355271 -6.26418e-16)
(4.09836 0.0853015 2.25695e-16)
(1.00688 5.02802 1.14644e-16)
(-0.12631 6.66513 -2.8205e-16)
(1.3869 -0.273992 3.99759e-16)
(1.19429 1.176 -1.50678e-16)
(9.73813 0.916277 -1.36382e-17)
(0.557762 3.28851 2.0663e-16)
(0.465205 -0.245291 1.90834e-16)
(0.636846 0.0562082 0)
(-0.928778 0.778704 5.4931e-17)
(2.08547 1.35524 -7.40896e-16)
(-0.122284 0.318785 -2.68747e-17)
(0.248149 -2.06577 2.39642e-16)
(0.0975803 2.30603 2.70402e-17)
(8.56075 0.559747 -1.16273e-16)
(9.81867 0.267013 -1.97217e-19)
(-0.455402 -0.0394209 1.89371e-16)
(11.0622 0.0498386 0)
(0.35105 0.129685 -5.54446e-18)
(0.50399 -0.183693 3.13028e-18)
(0.513653 0.0422392 -2.00665e-17)
(-0.0155535 6.90597 3.95904e-17)
(-0.0992439 6.53912 3.97325e-17)
(0.0189058 5.03924 1.7808e-17)
(10.5179 0.0382908 1.4465e-17)
(0.0965742 -0.019199 -1.93582e-20)
(-0.330172 7.53807 -4.63113e-17)
(0.502394 -0.156729 -5.59833e-21)
(-0.54526 1.1731 0)
(9.00963 1.73205 -4.40368e-18)
(0.847753 -0.822241 0)
(0.0376084 -0.107309 1.04932e-16)
(0.729265 0.0515805 9.53483e-17)
(0.00714247 0.551432 5.39415e-18)
(0.61304 0.270081 2.47756e-16)
(-1.19057 -0.139319 2.89385e-16)
(9.34841 0.63437 -1.79416e-17)
(-0.289466 -0.106264 2.687e-16)
(1.07734 -0.305324 3.20945e-16)
(9.52419 1.08987 9.96014e-17)
(9.74343 0.308871 4.15238e-17)
(5.95755 2.69741 2.5059e-17)
(0.0503511 6.5739 -4.60796e-17)
(-0.0515456 6.54452 2.45673e-17)
(0.065949 2.65563 1.24041e-16)
(0.189608 1.81103 0)
(4.16255 0.725594 4.74105e-17)
(5.6933 3.09283 8.63287e-17)
(9.044 -0.16525 -2.04119e-17)
(0.520636 0.856517 1.10869e-16)
(-0.0381961 -0.131654 2.62198e-16)
(0.0520928 0.0329075 0)
(8.86029 1.71393 0)
(0.470571 2.07521 0)
(1.14228 2.01045 2.8837e-16)
(0.382016 -0.121083 1.10635e-16)
(2.30663 4.358 2.11152e-16)
(0.00831486 5.48337 2.79186e-17)
(1.3184 7.56725 -5.64281e-17)
(0.142386 0.19955 0)
(0.130836 -0.0129621 1.00832e-16)
(-0.0814841 5.81197 -1.26314e-16)
(-1.17498 -0.128757 -6.36141e-16)
(11.2531 0.115925 9.69264e-17)
(5.75436 1.18586 0)
(0.0370766 -1.92181 1.6076e-16)
(1.09758 5.72397 0)
(0.370397 0.0852605 1.78005e-16)
(0.141975 -0.0280359 -2.58701e-17)
(0.907555 9.83859 6.27101e-17)
(9.89551 1.09664 -1.35828e-17)
(9.85839 0.69262 1.03283e-16)
(-1.13331 0.0827515 0)
(0.873497 2.61244 -5.44783e-17)
(-0.433741 -0.0272884 0)
(8.57343 0.333348 0)
(0.637978 0.306189 -1.38941e-16)
(0.0977869 -0.000153336 2.54213e-17)
(-2.76467 4.57575 -1.32419e-16)
(2.8898 0.805021 -1.24382e-16)
(0.680637 2.68724 1.40152e-16)
(10.2773 0.105992 -2.05852e-20)
(5.95665 3.55675 -7.83962e-17)
(1.29861 -1.06981 -2.83545e-19)
(-0.0161729 6.37411 5.64077e-17)
(-0.0496086 6.16142 -5.36158e-17)
(0.619611 2.43622 -1.13475e-16)
(1.20954 6.06097 -2.49334e-16)
(1.3973 1.4749 -1.1426e-17)
(0.0865367 -1.18675 -3.43332e-16)
(0.0146376 -0.160591 -2.38949e-16)
(0.61283 0.872952 5.94926e-17)
(0.544343 -0.0728966 2.17887e-16)
(0.321004 -0.185408 -3.26569e-16)
(-0.109082 0.431047 -5.80782e-16)
(0.124346 -1.61137 -3.44407e-16)
(6.93793 4.2006 3.33394e-18)
(0.296597 0.645748 6.10862e-16)
(10.0697 0.0429706 -6.38576e-17)
(0.460118 0.0774588 0)
(-0.283408 2.50751 4.33844e-20)
(3.66306 -0.885964 -1.0959e-16)
(-0.0766994 2.37974 0)
(10.0684 0.420396 4.01009e-17)
(-0.489971 0.0460216 3.10216e-16)
(0.373872 0.00798616 -2.79574e-16)
(8.96985 1.78119 0)
(-0.00807208 6.83391 2.71621e-20)
(-0.251849 7.67647 0)
(10.0264 0.0861079 0)
(0.414418 0.211448 -5.3088e-17)
(9.39129 1.24808 -5.31453e-17)
(8.94243 3.95526 -1.84404e-16)
(1.08735 7.00977 2.30112e-17)
(7.3123 2.1221 -1.06876e-16)
(-0.0323457 3.86357 -7.35164e-17)
(0.00356022 4.14666 2.0538e-20)
(-0.0146936 4.41922 -7.25199e-17)
(-0.91296 -1.03869 0)
(-0.0910354 2.43585 1.13431e-16)
(-0.00171346 -0.5694 0)
(0.150204 0.307274 0)
(0.0343052 0.175431 0)
(-0.155088 0.370487 -2.13156e-16)
(0.314698 -0.196959 0)
(-0.0653541 0.277247 1.43292e-16)
(2.8591 2.65064 -2.79974e-16)
(0.178753 3.43874 0)
(-0.299064 5.1019 1.58627e-16)
(-0.195636 6.43064 -2.44872e-17)
(-0.00848273 6.92953 8.22844e-17)
(-0.132336 7.24663 -3.8645e-17)
(0.338595 1.89548 2.1962e-16)
(9.36425 1.03419 -2.74687e-17)
(-0.128746 0.393726 2.27299e-17)
(0.199389 -2.0511 -6.76312e-17)
(0.787248 0.576518 0)
(0.637802 -0.139918 6.88197e-20)
(4.97841 1.75013 0)
(0.548785 -0.063659 1.79363e-21)
(3.74004 0.131811 -4.62826e-16)
(10.0451 0.0524492 3.5104e-17)
(-0.285086 7.64641 1.14073e-16)
(-2.38091 2.45569 -2.98165e-16)
(0.0884534 -0.16781 0)