/*--------------------------------*- C++ -*----------------------------------*\
| =========                 |                                                 |
| \\      /  F ield         | OpenFOAM: The Open Source CFD Toolbox           |
|  \\    /   O peration     | Version:  v1912                                 |
|   \\  /    A nd           | Website:  www.openfoam.com                      |
|    \\/     M anipulation  |                                                 |
\*---------------------------------------------------------------------------*/
FoamFile
{
    version     2.0;
    format      ascii;
    class       volScalarField;
    location    "0.07";
    object      nut;
}
// * * * * * * * * * * * * * * * * * * * * * * * * * * * * * * * * * * * * * //

dimensions      [0 2 -1 0 0 0 0];


internalField   nonuniform List<scalar> 
1466
(
0.000621115
0.000696717
0.000870232
0.000647362
0.000903216
0.000738684
0.00112151
0.00101897
0.00092671
0.000766425
0.000409418
0.00110585
0.000210509
0.000701424
0.000848947
0.000589598
0.000217399
0.000745653
0.00138107
0.000609024
0.000852097
0.000969216
0.000370812
0.00076993
0.000781103
0.000906033
0.00106345
0.000958994
0.000499353
0.000535379
0.00098008
0.0010426
0.000975044
0.000933693
0.00104415
0.000871294
0.000750273
0.000786375
0.00120146
0.000769122
0.00111176
0.000953326
0.000867699
0.000879389
0.0010159
0.000751672
0.000853926
0.000537495
0.000952601
0.000853159
0.000896705
0.000548532
0.000568543
0.000522296
0.000561482
0.00092831
0.000627397
0.000888585
0.000774832
0.000915483
0.000601765
0.000542451
0.000861963
0.000740001
0.000795664
0.000693506
0.000955542
0.000851262
0.000703112
0.000814182
0.000865529
0.00066666
0.000681895
0.00068089
0.000241475
0.000958889
0.000670214
0.000689919
0.000911026
0.000896477
0.000753509
0.000656681
0.000848773
0.00095039
0.000753545
0.000856723
0.000758487
0.000817717
0.000839177
0.000799608
0.000620733
0.000372335
0.000887075
0.000651735
0.000890755
0.000768118
0.000808433
0.000800026
0.000766923
0.000592652
0.000670952
0.000998958
0.000915643
0.000626166
0.000847889
0.000814336
0.00085088
0.000849613
0.000792155
0.000885167
0.000742034
0.000790508
0.00079886
0.000816482
0.000245174
0.000904811
0.00039087
0.000544055
0.00077923
0.000888967
0.000760826
0.000784669
0.000393272
0.000922097
0.000914492
0.000899668
0.000739369
0.000558443
0.000889616
0.000894314
0.00094895
0.000661118
0.00101298
0.00101324
0.00085925
0.000886382
0.000958671
0.000822325
0.000963461
0.000467164
0.000598537
0.000361637
0.00090821
0.000902465
0.000980658
0.000422642
0.000599006
0.000647177
0.000998566
0.000713098
0.000889689
0.000811914
0.000839351
0.000859368
0.000668538
0.000916444
0.000688266
0.00116981
0.00103398
0.000686679
0.00099711
0.000625658
0.000811206
0.0007638
0.000991607
0.000884758
0.000903799
0.000507415
0.000749821
0.00114374
0.000789924
0.000858554
0.000754063
0.000957585
0.000958878
0.000850501
0.000980551
0.000892911
0.000853609
0.00088585
0.000776296
0.000863788
0.000959172
0.000832036
0.000877672
0.000601255
0.000865569
0.00095945
0.000868082
0.000527673
0.000487158
0.000349836
0.00067607
0.000799213
0.000860116
0.000675285
0.00094023
0.000879235
0.000889027
0.000859404
0.00107959
0.000923257
0.000849565
0.000752413
0.000834489
0.000959918
0.000864951
0.000566906
0.000876741
0.000548188
0.000825973
0.00115491
0.000969577
0.000863235
0.000770618
0.000866432
0.000883308
0.000341278
0.000591578
0.00067868
0.00104129
0.000761575
0.000685824
0.000858373
0.000922471
0.000864835
0.000783339
0.00067669
0.000762168
0.000912873
0.000866991
0.000800649
0.000808052
0.000908327
0.00084798
0.000870326
0.000919545
0.000898489
0.000934285
0.000844415
0.00091926
0.000948194
0.000394626
0.000963057
0.000973514
0.000345533
0.000449948
0.000353601
0.000346415
0.000345414
0.000692296
0.000900006
0.000955965
0.000860847
0.000924088
0.000910067
0.000876119
0.000901735
0.000905742
0.000905287
0.000869322
0.000852068
0.000934844
0.000746013
0.000695819
0.000730068
0.000935699
0.000963191
0.000891447
0.000671869
0.000986137
0.000799647
0.000873395
0.000820115
0.000835771
0.000905651
0.00106057
0.00100371
0.000608604
0.000966199
0.000881514
0.000346917
0.00034924
0.000651602
0.000866353
0.000842083
0.000935172
0.000457049
0.000939018
0.000528529
0.000868137
0.000936609
0.000928477
0.000946492
0.000954186
0.000917209
0.00104016
0.00089901
0.000978661
0.000506717
0.000876354
0.00108303
0.000569006
0.000958249
0.000790343
0.000940445
0.0010208
0.00093654
0.000233393
0.000900598
0.00089998
0.000820717
0.000911247
0.00108783
0.000953022
0.00089221
0.000983515
0.000840034
0.00100356
0.000698802
0.00086706
0.000890844
0.000958965
0.000332456
0.000458383
0.000367859
0.0003673
0.000401951
0.000410567
0.000440119
0.000320106
0.000314825
0.000392359
0.0004511
0.000392179
0.000313815
0.00027921
0.000515997
0.000263715
0.000414849
0.000418322
0.000424369
0.000367017
0.000351105
0.000462072
0.000437794
0.000365705
0.000376974
0.000784157
0.000925684
0.000952042
0.000875091
0.00095482
0.000921549
0.000925581
0.000927062
0.00112085
0.000601769
0.000870379
0.000909617
0.000970866
0.000906363
0.000885056
0.000488882
0.000424089
0.00048697
0.000352724
0.000406696
0.000460602
0.000455777
0.000421148
0.000375119
0.000362194
0.000304647
0.000323392
0.000336177
0.000357037
0.000941394
0.000843266
0.000334908
0.000829829
0.00101816
0.000943322
0.00079129
0.000937768
0.000920605
0.000545666
0.00088312
0.000916712
0.000681171
0.000888517
0.000900785
0.000911401
0.000904347
0.0002339
0.000884672
0.000891436
0.000824289
0.000842833
0.000327978
0.000339319
0.000804911
0.000909284
0.000883294
0.000982363
0.000865052
0.000904882
0.000904855
0.000863255
0.000867119
0.000870584
0.000934354
0.000323431
0.000424683
0.000896982
0.000939493
0.000909875
0.000894049
0.000972641
0.000963073
0.000895123
0.000462482
0.00114413
0.000950409
0.00110708
0.00100088
0.00101026
0.00105921
0.000792834
0.000671029
0.000896614
0.000876534
0.000915202
0.00112709
0.000672034
0.000990223
0.000910247
0.00094334
0.00110808
0.000962595
0.000519098
0.000800067
0.00122362
0.000901296
0.000976216
0.000906453
0.000901168
0.000895403
0.000915697
0.000902617
0.000911774
0.000895924
0.000750088
0.000897928
0.000920106
0.000992953
0.000894493
0.000897149
0.000431843
0.000905705
0.000915887
0.000914514
0.000903451
0.000898232
0.00102917
0.000400358
0.00099296
0.000870726
0.00087693
0.000343308
0.00108256
0.000992462
0.000898088
0.000788582
0.000993679
0.000950476
0.000372265
0.000337639
0.00106368
0.00105229
0.000869476
0.000867704
0.000987189
0.000867036
0.00089305
0.000871776
0.000866551
0.000872967
0.000798146
0.000980169
0.000782962
0.000885404
0.000871179
0.000869124
0.000529637
0.000964814
0.000846448
0.000935398
0.000409425
0.000476564
0.00089358
0.000869841
0.000447318
0.000919201
0.000869072
0.00091097
0.000979831
0.000925788
0.000897101
0.000960952
0.000899604
0.000751318
0.000925875
0.000895168
0.000805042
0.000937427
0.000911109
0.000876899
0.000896204
0.000893923
0.000899018
0.000899133
0.000901937
0.000656572
0.000525126
0.000706357
0.000920062
0.000977086
0.000417427
0.000868465
0.000851798
0.000887025
0.000920833
0.000909246
0.000865913
0.000964022
0.00103703
0.00102988
0.000854648
0.000702477
0.000980304
0.000927424
0.00089737
0.00094809
0.000934154
0.000897226
0.000360989
0.000894043
0.000916303
0.000928827
0.000878541
0.000790477
0.000962412
0.000906368
0.000888485
0.0008927
0.000895223
0.000873324
0.000911132
0.000928319
0.000748969
0.000897747
0.000892502
0.000892486
0.000982335
0.000910898
0.000866726
0.000832873
0.00091666
0.000896435
0.000573454
0.00102899
0.000903075
0.00103459
0.000707934
0.000889114
0.000662368
0.000870601
0.000918998
0.000891119
0.000933307
0.000583665
0.000913682
0.000895526
0.000843046
0.000903787
0.000798504
0.00088882
0.000903195
0.000931175
0.000579491
0.000409692
0.0010267
0.000956076
0.000956815
0.000888534
0.000931883
0.000880721
0.000901301
0.000893518
0.000908814
0.000983723
0.000897364
0.000953504
0.000875295
0.000980613
0.000913855
0.000853057
0.000892586
0.000895382
0.000885236
0.000827512
0.000934191
0.000969832
0.000578763
0.000874432
0.00089139
0.000641689
0.000945693
0.00102316
0.000949825
0.000866576
0.000531945
0.000938602
0.000898549
0.000891512
0.000886852
0.000841235
0.000867392
0.000935158
0.000913777
0.000894028
0.000955279
0.00046935
0.000907446
0.000891474
0.000893424
0.000933394
0.00100799
0.000906456
0.000867762
0.000975036
0.00061622
0.00103162
0.000817414
0.00102046
0.000985971
0.000911725
0.000927685
0.000868246
0.000672303
0.000912517
0.000911163
0.000904223
0.000972782
0.000885526
0.000903124
0.000947382
0.000869294
0.000969781
0.000554859
0.00092111
0.00104238
0.000663695
0.0009196
0.00096124
0.00089499
0.000908356
0.00091656
0.000942322
0.000871443
0.000629731
0.000708201
0.00092726
0.000520755
0.000366295
0.000990769
0.000928429
0.000884155
0.00071964
0.00100989
0.000905328
0.000287594
0.00101268
0.000936412
0.000796912
0.00062749
0.000864746
0.000418208
0.000795169
0.000693572
0.000875167
0.00112175
0.00101976
0.00112683
0.000882756
0.00096323
0.000886056
0.000947392
0.000919356
0.000911326
0.00102717
0.00093526
0.000931868
0.000921275
0.000762975
0.000911921
0.000931469
0.000906287
0.00103367
0.000919129
0.000379081
0.000800845
0.00102694
0.000925674
0.000643957
0.000938255
0.000897673
0.000879997
0.00105403
0.000915842
0.000905955
0.000877588
0.00089874
0.00089005
0.000870137
0.00091393
0.000870602
0.000989877
0.000924925
0.000899708
0.000914406
0.000840442
0.000274421
0.000286444
0.000893795
0.000271152
0.000317989
0.000504543
0.0009142
0.000441943
0.000273214
0.000275787
0.000251378
0.000347735
0.000833581
0.000196951
0.00109167
0.000841471
0.000999329
0.000809946
0.000308311
0.000696541
0.000862491
0.00089879
0.000762629
0.000886475
0.000905961
0.000728981
0.000704374
0.000294991
0.00114103
0.000921005
0.00110041
0.000975156
0.000929987
0.000624688
0.000302779
0.000818341
0.000922873
0.00100564
0.00127014
0.000515223
0.000362989
0.000914603
0.000929796
0.000750559
0.00097752
0.000705936
0.00111815
0.000968314
0.000947462
0.000225699
0.000224313
0.000889255
0.000945844
0.00087866
0.000775021
0.000720581
0.000331798
0.000665206
0.000976408
0.00102046
0.000699382
0.000935377
0.00104238
0.00108428
0.000747319
0.0011557
0.000344582
0.000470909
0.000902194
0.000866557
0.0008727
0.000793107
0.000407335
0.000908423
0.00079233
0.000884541
0.000962185
0.000891772
0.000384939
0.000759079
0.000921626
0.0007152
0.000908975
0.000679141
0.000411201
0.000899641
0.000949981
0.000832209
0.000821934
0.000897438
0.000925014
0.000212128
0.000215255
0.000765879
0.000871243
0.000727748
0.00083489
0.000851962
0.000930157
0.000758266
0.000469712
0.000783327
0.000542211
0.000819224
0.000883272
0.000632439
0.000504386
0.00040604
0.000816126
0.00105648
0.000894715
0.000686443
0.000920453
0.000949663
0.000971724
0.000888464
0.000925958
0.000917903
0.000877282
0.000894763
0.000898127
0.000229949
0.000870913
0.000981914
0.000361938
0.000686667
0.000290879
0.000905119
0.000658386
0.000974773
0.000855382
0.000894365
0.000975506
0.000652032
0.000759718
0.000927012
0.00071814
0.000830799
0.000330439
0.000945042
0.000775991
0.000900674
0.000868223
0.000736724
0.000801571
0.00100809
0.000890984
0.000707147
0.000928945
0.000860288
0.0008469
0.000618909
0.000821075
0.000869295
0.000851125
0.000890087
0.00102943
0.000955632
0.000867462
0.000596586
0.000395315
0.000858404
0.00100551
0.000889742
0.000930792
0.00109953
0.000829174
0.000771096
0.000863617
0.000792506
0.00087361
0.000936938
0.000281868
0.000866779
0.000773344
0.00101052
0.00106107
0.000813336
0.000813156
0.000927846
0.000206363
0.000820258
0.000226111
0.000930638
0.000756528
0.000787291
0.000840611
0.00087978
0.00090802
0.000895881
0.00111102
0.000892531
0.000712512
0.00086644
0.00101544
0.000809668
0.00103764
0.000812516
0.000828904
0.000939264
0.000886728
0.000334821
0.000918355
0.000866439
0.0009089
0.00085072
0.000249339
0.000239662
0.000206439
0.000226364
0.000312331
0.000288648
0.000309854
0.000284925
0.000254958
0.000270749
0.000290058
0.000257143
0.00025471
0.000247986
0.000779839
0.000237745
0.000230255
0.00110055
0.000384483
0.00106778
0.000220492
0.000316006
0.000950876
0.000990214
0.000690561
0.00062758
0.000406005
0.00089558
0.000683006
0.000886088
0.000868819
0.000336468
0.000910173
0.000325796
0.000850123
0.000911822
0.000333588
0.000863038
0.000908717
0.000336397
0.000666158
0.000899004
0.00102039
0.000984863
0.00089474
0.000866162
0.000929342
0.000709147
0.000765071
0.000776699
0.000886957
0.000806164
0.000559503
0.000342736
0.000346878
0.00096232
0.000858959
0.000294683
0.000903751
0.00089516
0.000954038
0.000346397
0.000349714
0.00116464
0.000867285
0.00104821
0.000643336
0.000683813
0.000738183
0.000770738
0.000420944
0.000850995
0.000307337
0.00038359
0.000873812
0.000869445
0.000848925
0.000844794
0.000854561
0.000884335
0.000956037
0.000792939
0.000631334
0.000427291
0.000475851
0.000737595
0.000975617
0.000970339
0.000929208
0.000883892
0.00117045
0.000866232
0.000993826
0.00089203
0.000377315
0.000262063
0.000936688
0.00085732
0.000263822
0.000927148
0.00136352
0.00126353
0.000246543
0.000863798
0.000869312
0.000923521
0.000940547
0.000769486
0.000244555
0.000941503
0.000844032
0.000849784
0.000716569
0.000867604
0.000894676
0.000286869
0.000984612
0.000976462
0.000855775
0.000527269
0.000968755
0.000973004
0.000658107
0.000807566
0.000226012
0.000842357
0.000836081
0.000602612
0.000896352
0.000885868
0.00109233
0.000871194
0.000399761
0.000815984
0.000813483
0.000910037
0.000793029
0.000949492
0.00091654
0.00101482
0.000375115
0.000998873
0.000262546
0.000353362
0.00100214
0.00107369
0.00109017
0.000947113
0.00108125
0.000929231
0.000866851
0.000939867
0.0010625
0.000644642
0.000901398
0.000421166
0.000339491
0.000638054
0.000989756
0.000926007
0.000753481
0.000399651
0.000352623
0.000811973
0.000893445
0.000849128
0.000626442
0.000227173
0.000317441
0.000857687
0.000332135
0.00101209
0.000939589
0.000868804
0.000755603
0.00108581
0.000319814
0.000437102
0.000577803
0.000763704
0.000837921
0.000229638
0.000384915
0.000894909
0.000852176
0.000211351
0.000495611
0.000530418
0.000777626
0.000390459
0.00118142
0.000748861
0.00088282
0.000881025
0.000894088
0.000649443
0.0007149
0.000949994
0.000303266
0.00092195
0.000874294
0.000322117
0.000792312
0.000924303
0.000624286
0.000870055
0.000881883
0.000230934
0.000771766
0.000920326
0.000318842
0.000641047
0.000285687
0.000643534
0.000533117
0.000212927
0.000892392
0.000202928
0.00086212
0.00120299
0.000790932
0.000963808
0.000888925
0.000907709
0.000401831
0.000907691
0.000847737
0.000495518
0.000608554
0.000832918
0.000786631
0.00026507
0.000786194
0.000907367
0.000811804
0.000300743
0.000978393
0.00109875
0.000792366
0.000586818
0.000885409
0.000340375
0.000958192
0.000809353
0.000562136
0.00017247
0.00058617
0.000908657
0.00076025
0.000892418
0.000795084
0.00087039
0.000891394
0.000711616
0.000322795
0.000779791
0.000892825
0.000899088
0.000887033
0.000581192
0.000819552
0.000891293
0.00092657
0.000713169
0.000840107
0.000797634
0.000861297
0.000672661
0.000896926
0.000887081
0.000936277
0.000902531
0.000847136
0.000856087
0.000758086
0.000903305
0.000785028
0.000966705
0.000892071
0.00101353
0.000516469
0.00113477
0.000916222
0.000811024
0.000901545
0.000871768
0.000638191
0.0002813
0.000898516
0.000895171
0.000655866
0.000833666
0.00083363
0.000531175
0.00122023
0.000518758
0.000909989
0.000840503
0.000848484
0.000593652
0.000488087
0.000944303
0.000674399
0.000891046
0.000901434
0.000889204
0.000894779
0.000844704
0.000936569
0.000907722
0.000866652
0.00112635
0.00114721
0.00100322
0.00104852
0.000894098
0.000716528
0.000996271
0.0012221
0.000899468
0.000828779
0.000663778
0.000725788
0.00076124
0.000949745
0.0010337
0.000738187
0.000846388
0.000986943
0.000239069
0.000169241
0.000485902
0.000890026
0.000886441
0.000517905
0.000898381
0.000894978
0.000901459
0.000759639
0.000812893
0.000813563
0.000878391
0.00114901
0.000495697
0.000960158
0.000822647
0.00091285
0.00105481
0.000989176
0.000690081
0.000721424
0.00086374
0.000899387
0.000898501
0.000692085
0.000890482
0.000894081
0.000967294
0.000240433
0.00092712
0.000895559
0.000891718
0.00100264
0.000257121
0.000780318
0.000895111
0.00113073
0.000902346
0.00104362
0.000171467
0.000992398
0.00107918
0.00066391
0.000893907
0.000305947
0.000854015
0.000908516
0.000943681
0.00120491
0.000928241
0.000890817
0.000869741
0.000988795
0.00107946
0.000756316
0.000899437
0.000909777
0.000915216
0.00109096
0.00100324
0.00130027
0.000894472
0.000893874
0.000736848
0.000731324
0.000889947
0.000279856
0.000958491
0.000731315
0.000720681
0.000671756
0.000797267
0.000998108
0.000267277
0.000743601
0.000721067
0.000213712
0.000903609
0.000778265
0.000760492
0.00080483
0.000891109
0.00052306
0.000913769
0.000723797
0.000683152
0.00119611
0.000930767
0.00100364
0.000868324
0.000938323
0.000739415
0.000721287
0.000549148
0.000750185
0.000657161
0.000769734
0.000868967
0.000949399
0.000927516
0.000237033
0.000830084
0.000861585
0.000855981
0.000856797
0.000212542
0.000498703
0.000221818
0.000888971
0.000900156
0.00103781
0.000682408
0.000871144
0.000822168
0.000818531
0.000513653
0.000512416
0.000737683
0.000955881
0.000902365
0.000832814
0.000528401
0.00081793
0.00103566
0.00117671
0.000858783
0.000442088
0.000969633
0.000948286
0.00110437
0.000686696
0.000983866
0.000915808
0.00089964
0.000828554
0.000820137
0.00110835
0.000507229
0.0005422
0.000599719
0.000806402
0.000526372
0.000660616
0.000789399
0.000865759
0.000706672
0.00066188
0.000720403
0.001029
0.000898014
0.000896245
0.000997104
0.00089404
0.000888289
0.000772542
0.000448658
0.00101653
0.000798752
0.000518218
0.000936099
0.000960488
0.000738626
0.000662543
0.000827648
0.000479995
0.000624213
0.000726782
0.00091859
0.000421279
0.000865034
0.000925883
0.000775714
0.000753836
0.000548863
0.00113829
0.00109089
0.000816992
0.000595596
0.000822932
0.000689629
0.000985069
0.00129855
0.000422852
0.000924497
0.000894731
0.000898114
0.000631968
0.000930935
0.000904059
0.000714552
0.000556432
0.000560326
0.000520238
0.000523286
0.00050081
0.000631563
0.000536142
)
;

boundaryField
{
    frontAndBack
    {
        type            empty;
    }
    wallOuter
    {
        type            nutkWallFunction;
        Cmu             0.09;
        kappa           0.41;
        E               9.8;
        value           nonuniform List<scalar> 
102
(
2.5385e-05
2.5385e-05
4.55938e-05
2.93356e-05
3.01218e-05
2.8168e-05
2.8153e-05
3.55879e-05
3.36305e-05
3.52989e-05
3.31266e-05
3.95287e-05
3.3334e-05
3.38812e-05
3.0386e-05
4.17314e-05
2.29798e-05
3.76746e-05
3.60114e-05
3.69894e-05
4.55862e-05
2.72655e-05
2.68011e-05
4.26899e-05
5.70434e-05
2.52427e-05
2.56466e-05
2.77661e-05
3.55144e-05
2.43904e-05
2.71224e-05
3.01313e-05
2.88049e-05
2.42135e-05
2.6976e-05
3.77733e-05
3.4411e-05
3.76902e-05
3.44565e-05
3.09004e-05
3.24615e-05
3.47356e-05
3.12195e-05
3.09264e-05
3.00305e-05
2.86447e-05
2.76428e-05
2.64606e-05
3.79855e-05
4.08204e-05
4.00921e-05
4.04027e-05
4.06045e-05
4.16468e-05
4.19844e-05
3.58692e-05
4.20723e-05
4.24139e-05
3.71973e-05
4.73377e-05
4.64922e-05
3.23015e-05
2.99327e-05
2.99835e-05
3.50316e-05
2.71776e-05
4.92663e-05
3.21523e-05
4.34218e-05
4.17756e-05
4.94414e-05
4.33007e-05
2.74057e-05
3.88228e-05
4.01988e-05
3.92131e-05
2.77303e-05
2.51684e-05
4.80661e-05
3.7187e-05
3.89696e-05
2.7983e-05
2.51792e-05
2.37389e-05
4.95227e-05
3.20924e-05
3.65331e-05
1.95358e-05
3.96916e-05
3.42861e-05
2.76682e-05
1.89732e-05
2.93792e-05
3.14468e-05
1.94181e-05
3.73296e-05
3.41572e-05
3.23098e-05
2.54808e-05
2.8873e-05
2.53512e-05
2.64946e-05
)
;
    }
    inlet
    {
        type            calculated;
        value           nonuniform 0();
    }
    outlet
    {
        type            calculated;
        value           nonuniform 0();
    }
    wallInner
    {
        type            nutkWallFunction;
        Cmu             0.09;
        kappa           0.41;
        E               9.8;
        value           nonuniform List<scalar> 
138
(
5.12979e-05
2.57136e-05
6.18267e-05
6.57399e-05
6.73483e-05
6.81025e-05
6.25177e-05
6.81459e-05
6.71359e-05
4.68083e-05
8.06938e-05
7.58155e-05
4.94557e-05
7.32414e-05
4.54113e-05
5.13769e-05
7.37897e-05
6.09674e-05
6.38132e-05
5.97497e-05
4.24259e-05
4.26894e-05
4.97012e-05
4.31827e-05
5.69629e-05
4.43508e-05
4.32434e-05
4.32177e-05
8.24319e-05
4.3318e-05
4.376e-05
5.76992e-05
4.08938e-05
5.42306e-05
4.60819e-05
4.6198e-05
5.0645e-05
5.16681e-05
5.54934e-05
3.9689e-05
3.92539e-05
4.94359e-05
5.61458e-05
4.65607e-05
3.87464e-05
3.44412e-05
6.51989e-05
3.30238e-05
5.2356e-05
5.29467e-05
5.36051e-05
4.55468e-05
4.40423e-05
5.82548e-05
5.54009e-05
4.63238e-05
4.7448e-05
7.32717e-05
6.00889e-05
5.21893e-05
6.15373e-05
4.42944e-05
5.12638e-05
5.82698e-05
5.77935e-05
5.32247e-05
4.71671e-05
4.58677e-05
3.77327e-05
3.99973e-05
4.07438e-05
4.45179e-05
4.15252e-05
4.08976e-05
4.25287e-05
3.98157e-05
5.22485e-05
5.78095e-05
8.13308e-05
6.25341e-05
5.28958e-05
4.98388e-05
4.23067e-05
4.59055e-05
4.17594e-05
6.49567e-05
4.96738e-05
5.76075e-05
5.49972e-05
7.94343e-05
6.38228e-05
5.25624e-05
4.51841e-05
8.06899e-05
7.05709e-05
4.99253e-05
6.48645e-05
5.57503e-05
8.08044e-05
6.22841e-05
4.4819e-05
5.20972e-05
4.71908e-05
6.34142e-05
5.29123e-05
6.11512e-05
4.05927e-05
5.08892e-05
4.80552e-05
5.10226e-05
5.92172e-05
6.19674e-05
5.08352e-05
4.54009e-05
4.10731e-05
3.46278e-05
4.20582e-05
4.82051e-05
5.06752e-05
5.11221e-05
5.20223e-05
5.8254e-05
3.17419e-05
4.62453e-05
5.05399e-05
4.78581e-05
3.96366e-05
3.47108e-05
6.0075e-05
4.25425e-05
6.22699e-05
6.56331e-05
6.71493e-05
6.92617e-05
6.22024e-05
5.90414e-05
7.67721e-05
6.60031e-05
)
;
    }
    procBoundary2to0
    {
        type            processor;
        value           nonuniform List<scalar> 
42
(
0.000895403
0.000895403
0.0008116
0.000830648
0.000989037
0.00090262
0.000783569
0.000783569
0.00093097
0.000874837
0.00103205
0.00103205
0.00102927
0.00098766
0.000957025
0.000840464
0.00092494
0.00087087
0.000890227
0.000993736
0.000866906
0.000871533
0.000871533
0.000732782
0.000866906
0.000887218
0.000740222
0.000918141
0.000740222
0.000896849
0.000913448
0.000967514
0.00101676
0.00102633
0.000992199
0.000830648
0.00092494
0.00044471
0.00078383
0.000842525
0.000842525
0.000916806
)
;
    }
    procBoundary2to1
    {
        type            processor;
        value           uniform 0.00100539;
    }
    procBoundary2to3
    {
        type            processor;
        value           nonuniform List<scalar> 
29
(
0.00102206
0.000962611
0.000571324
0.000475563
0.000574831
0.000611751
0.000600083
0.000972419
0.000962407
0.000810394
0.000848433
0.000780289
0.000579349
0.000952154
0.000895557
0.000926713
0.000993688
0.000993688
0.000962611
0.000952154
0.000966973
0.00102463
0.000379257
0.000973927
0.000697867
0.00109344
0.000962407
0.000956424
0.000780289
)
;
    }
}


// ************************************************************************* //
