/*--------------------------------*- C++ -*----------------------------------*\
| =========                 |                                                 |
| \\      /  F ield         | OpenFOAM: The Open Source CFD Toolbox           |
|  \\    /   O peration     | Version:  v1912                                 |
|   \\  /    A nd           | Website:  www.openfoam.com                      |
|    \\/     M anipulation  |                                                 |
\*---------------------------------------------------------------------------*/
FoamFile
{
    version     2.0;
    format      ascii;
    class       surfaceScalarField;
    location    "0.48";
    object      phi;
}
// * * * * * * * * * * * * * * * * * * * * * * * * * * * * * * * * * * * * * //

dimensions      [0 3 -1 0 0 0 0];
oriented        oriented;


internalField   nonuniform List<scalar> 
2776
(
9.94901e-06
0.000146101
-7.42378e-06
-0.000148626
-3.31041e-05
6.97369e-06
-0.000124982
0.000151112
-5.98144e-05
1.61689e-05
-3.39919e-05
7.76374e-05
-6.03153e-06
3.71792e-06
8.96801e-05
-8.73665e-05
8.34272e-05
7.33901e-05
-7.44352e-05
-8.23821e-05
0.000250176
0.000195177
-0.000269385
-0.000175968
7.50233e-05
-4.21441e-05
4.58659e-05
-7.87451e-05
-6.33472e-05
-0.000109763
9.82819e-05
-8.20593e-05
7.69571e-05
-9.31796e-05
-0.000262206
0.000379139
-0.000200094
8.31607e-05
4.31588e-05
5.85256e-06
-4.90113e-05
-0.000245473
0.000305915
5.96198e-05
-0.000120062
1.53374e-05
-1.53374e-05
0.000122862
-6.68537e-05
-5.6466e-05
4.58051e-07
-4.53917e-05
-0.000113753
9.68816e-05
6.22635e-05
3.65575e-06
2.28457e-05
-5.95235e-07
-2.59063e-05
-2.35491e-05
-1.4652e-05
3.82011e-05
7.48634e-05
1.99574e-05
3.82585e-06
-9.86467e-05
8.89466e-05
-1.96858e-06
6.69228e-05
-0.000153901
2.39565e-05
-3.74093e-05
9.8807e-05
-8.53542e-05
-2.54148e-05
3.68579e-05
3.72159e-05
-4.8659e-05
-3.85444e-05
-3.78464e-05
6.09034e-05
1.54873e-05
-1.07177e-05
-5.76854e-06
1.64862e-05
9.74231e-06
0.000136818
-0.000126764
-1.97961e-05
3.06394e-05
0.000105862
-1.36401e-05
-5.02587e-06
6.71854e-06
5.89479e-06
-7.58746e-06
-1.78408e-05
2.07165e-05
-1.01112e-05
7.23541e-06
3.9944e-06
-3.55234e-06
-5.29023e-06
4.84817e-06
-5.23392e-05
2.40853e-05
-0.000102406
0.000117993
-1.55875e-05
3.4425e-05
-7.78923e-05
-0.000138603
0.000140819
-0.000273949
-0.000285089
0.000418219
7.0986e-05
-6.83697e-05
-5.62667e-05
1.00823e-05
-4.95322e-06
0.000131905
-0.000137034
-0.000121856
-5.87874e-06
8.12383e-05
4.64964e-05
6.8335e-05
-6.21399e-05
-5.15868e-05
-2.82886e-05
3.7425e-05
-6.20146e-05
5.28782e-05
-1.18943e-05
8.26585e-05
-6.06859e-06
-6.46956e-05
0.000104133
0.000165642
-0.000218683
-5.1093e-05
2.86036e-05
-4.6952e-05
-9.39942e-05
-0.000193336
4.18576e-05
2.0971e-05
-1.94543e-05
-5.03481e-05
4.88314e-05
0.000106353
-6.12817e-05
5.32108e-05
0.000158897
-0.000110238
1.61725e-05
-6.48315e-05
-8.28409e-05
7.68761e-05
-2.19632e-05
2.79279e-05
-0.000102739
0.000125412
-2.38465e-05
1.17368e-06
-3.98547e-05
0.000102958
0.000108723
-0.000171826
3.01194e-05
-6.38782e-05
0.000108622
2.46069e-05
-4.48213e-05
4.11853e-05
5.94387e-05
-6.64987e-06
-7.82036e-05
2.89019e-05
-3.57556e-05
1.99313e-05
-1.30776e-05
-2.84208e-05
-8.8277e-06
-2.24747e-05
-8.93616e-05
0.000233307
-0.000288314
4.75313e-05
7.4759e-06
-0.000115311
3.35256e-05
0.000102046
-2.02607e-05
0.000216487
-2.06812e-05
-0.00014218
-5.36258e-05
-1.96742e-05
-4.60176e-06
1.27089e-05
1.15671e-05
6.58345e-05
0.000181179
-1.37064e-05
3.52708e-06
-2.13684e-06
2.8452e-05
-2.98422e-05
-9.23235e-05
2.42439e-05
-0.000128054
7.6182e-05
2.7628e-05
4.69358e-05
-8.94091e-05
4.60958e-05
-3.62244e-06
-0.000351495
3.80889e-05
2.5092e-05
4.27586e-05
1.72256e-05
-2.31262e-05
9.41e-06
-0.000151579
0.000161145
-1.89758e-05
-3.42274e-05
6.45407e-05
-6.88577e-05
3.25653e-05
-1.58215e-05
-3.13023e-05
1.45586e-05
-0.000109121
0.000153437
-6.08397e-05
1.65236e-05
-8.46999e-06
2.70845e-05
-3.05088e-05
-0.000141031
6.83791e-05
0.000124611
-5.19592e-05
-1.24987e-05
4.02875e-06
-1.49881e-05
0.000250466
1.20702e-05
-0.000150185
-4.00069e-05
4.91609e-05
6.86713e-05
-0.000163276
0.000124724
-9.34713e-05
-2.58951e-05
6.70272e-05
0.000119847
0.000159378
-0.00021339
-3.45745e-05
6.14232e-05
-7.53096e-05
4.84609e-05
9.29541e-05
8.86525e-05
-0.000110013
-7.15938e-05
9.76254e-05
-1.66777e-05
-9.53602e-05
1.44126e-05
-2.72162e-05
2.54918e-05
2.63314e-05
-1.5444e-05
-8.86498e-06
3.97395e-05
-1.54305e-05
9.60384e-05
3.96864e-05
-2.12341e-05
-0.000114491
2.75638e-05
-2.8256e-05
-1.47518e-05
7.73258e-05
5.61876e-05
-5.49782e-05
-7.85352e-05
0.000131996
1.12552e-05
-2.82993e-05
-0.000114952
-0.000108865
0.000108806
-1.03138e-06
1.08942e-06
8.49447e-05
-1.58362e-05
4.48666e-05
-0.000113975
-3.46993e-05
0.000105897
-7.11981e-05
3.51494e-05
-3.98295e-05
-0.000156364
0.000161044
-1.33235e-05
-8.90918e-05
0.000118673
-1.62575e-05
2.10889e-05
6.35946e-05
-5.57816e-05
7.08242e-05
-4.60848e-05
-1.69417e-05
-0.000125684
2.34864e-05
0.000119139
1.10836e-05
-1.99193e-05
-3.63711e-06
1.24728e-05
-2.98592e-06
0.000114449
2.1531e-06
-0.000113616
1.67359e-05
-5.23761e-06
7.34464e-05
-1.8448e-05
-3.34447e-05
4.06091e-05
-3.16998e-06
3.46733e-06
-3.58672e-05
-6.54775e-05
9.78774e-05
6.10292e-05
-7.79709e-05
5.92418e-05
-9.52493e-05
8.15735e-05
-4.5566e-05
-9.27555e-05
9.63689e-05
-2.09387e-06
-7.97081e-07
4.56495e-05
5.12825e-06
9.83529e-05
-5.85571e-06
-0.000139656
-2.99861e-07
0.00013697
5.48701e-05
-8.94839e-05
8.11392e-05
-4.65255e-05
-1.33559e-05
6.90479e-06
2.5375e-05
-1.89239e-05
-9.26053e-07
-3.21002e-05
-7.47471e-05
0.000107773
3.76281e-05
-6.27209e-05
-4.88995e-05
7.39923e-05
-2.79023e-05
7.07062e-05
2.7339e-05
-1.20015e-05
0.000101271
3.47551e-05
-7.74469e-05
-5.85791e-05
0.000110283
3.66535e-05
-5.9374e-05
-8.75625e-05
0.000109038
-7.9284e-05
8.05289e-05
5.40505e-06
-0.00011204
-2.22987e-06
0.000143118
-4.598e-05
-0.000219055
0.000121917
-8.57766e-05
9.46323e-06
9.35389e-05
-7.96568e-06
-8.848e-05
0.000116079
-1.96329e-05
3.84461e-05
-1.79251e-06
0.000107973
-9.43684e-05
6.37216e-05
4.69763e-05
-1.52127e-05
0.000100232
0.000118677
-5.17635e-05
0.000110647
-0.00017756
1.27431e-06
-4.94114e-06
-2.81578e-07
3.94841e-06
-5.56174e-05
5.52241e-05
-1.65777e-06
2.05108e-06
2.37185e-05
-0.000160404
0.000171835
2.97937e-05
-0.00017815
1.42123e-05
0.000134144
1.30286e-05
3.07081e-05
-1.54315e-06
-4.21936e-05
3.0056e-05
-1.5549e-05
-0.000164692
1.07478e-05
6.93194e-07
-7.60561e-05
6.46151e-05
3.77153e-05
4.4223e-05
-0.000433433
-7.34111e-05
-2.00548e-05
5.38422e-05
3.96238e-05
0.000147794
0.000100402
-0.000128349
-1.03557e-05
-4.3991e-05
3.48924e-05
1.47704e-05
1.9967e-05
-3.32608e-05
-1.47664e-06
9.82499e-05
-8.92014e-05
4.5448e-05
-5.44965e-05
0.000121033
1.76869e-05
-0.000108664
0.000320374
5.87645e-05
-2.22635e-05
0.000128161
-0.000205901
0.000171358
4.9695e-05
-1.51526e-05
8.52654e-06
0.000106989
5.14862e-06
-0.000120665
-1.94162e-05
3.48253e-05
-6.45911e-05
6.60493e-05
-1.45821e-06
-2.86887e-05
-9.97655e-05
0.000128454
6.66434e-05
-5.86609e-06
-5.87729e-05
-2.00438e-06
7.70206e-05
-0.000360932
0.000321627
-9.68283e-06
-0.000164928
-1.72538e-05
-2.8373e-05
1.78118e-05
1.18356e-05
3.20502e-06
0.000110714
-5.11294e-06
3.35526e-07
-0.000109322
7.72633e-05
3.17235e-05
4.57029e-05
6.89168e-05
-9.78837e-05
2.11644e-05
-1.87666e-05
1.01011e-05
-1.2499e-05
0.00014913
-9.37826e-05
-1.23274e-05
4.44872e-05
-9.06346e-06
-2.30964e-05
-8.78526e-05
0.000116868
4.04439e-05
-6.94589e-05
7.29082e-05
-8.59779e-07
7.97855e-06
-3.12807e-05
-1.01426e-05
9.37007e-05
-2.38771e-06
-1.42993e-05
-7.70137e-05
0.000134639
6.13138e-06
-2.89136e-05
5.16522e-05
-1.79182e-05
6.8751e-06
-4.19387e-05
0.000149903
-8.19525e-05
-9.24477e-07
0.000178242
-9.53647e-05
4.83842e-05
-4.23665e-05
-6.01771e-06
-7.55039e-05
4.77512e-05
-6.67574e-06
3.44285e-05
-4.48967e-06
1.00811e-05
-2.34322e-05
5.97715e-05
1.19766e-05
2.42903e-05
-7.89956e-05
0.000119964
-1.28218e-06
1.11992e-05
-1.10345e-05
-5.1058e-06
4.7425e-05
-0.000131184
0.00016078
1.11292e-05
4.56145e-06
0.000165729
-0.000100582
-9.82515e-05
3.617e-05
5.42908e-05
-3.88086e-05
0.000128925
-8.25054e-05
0.000112958
-4.77921e-05
1.68655e-05
-8.28268e-05
7.29631e-05
-0.000133908
7.02359e-05
-7.5693e-05
6.46989e-05
2.5421e-05
-6.30698e-05
5.06774e-05
1.05799e-05
8.33321e-05
5.51539e-05
7.70625e-05
-9.61504e-06
5.17994e-05
7.59349e-05
-7.43419e-05
3.53526e-06
-3.42669e-05
5.91757e-06
5.4879e-05
-2.65297e-05
7.20543e-05
3.45908e-05
-3.83101e-05
5.41182e-06
5.84297e-05
1.07755e-05
-6.92052e-05
-7.94896e-05
6.73554e-05
1.21342e-05
1.55467e-05
6.27727e-05
-0.000100607
3.3132e-05
0.000137711
-3.76036e-05
7.76133e-05
5.57455e-05
-4.58097e-05
-9.91372e-05
-6.86568e-05
5.92949e-05
-6.30807e-05
7.24427e-05
-6.63898e-05
5.26031e-05
-8.62105e-05
-3.99864e-05
3.6713e-05
-3.11548e-05
4.12424e-06
-4.41503e-05
1.49676e-05
-4.40321e-05
4.69997e-05
-1.79353e-05
2.94639e-05
-2.63603e-05
-5.60498e-06
-6.22212e-05
-7.67769e-06
2.37916e-05
-4.09655e-05
5.87369e-05
-6.32287e-05
-4.03294e-05
2.97058e-05
-9.80007e-06
0.000134081
1.13114e-06
-5.39081e-05
-5.60238e-05
-5.15934e-05
5.37299e-05
-1.45745e-05
1.2438e-05
-6.13942e-05
6.90957e-05
4.1525e-05
-2.51609e-05
-4.75189e-05
7.90501e-05
-3.43559e-05
-2.97266e-05
4.39112e-05
-4.05839e-05
3.46749e-05
-3.80022e-05
-3.45711e-06
-1.89654e-05
4.78014e-06
-7.21322e-05
2.8154e-06
6.45367e-05
-1.40708e-05
1.08204e-05
3.25036e-06
7.98042e-05
-3.6308e-05
-0.00010287
-0.000131856
4.24046e-06
8.76089e-05
7.78229e-06
6.34187e-05
1.46577e-06
-7.26667e-05
-0.000139327
3.93722e-07
0.000148883
-4.9813e-05
7.74252e-05
7.62867e-05
-4.45149e-05
7.11858e-05
-1.94198e-05
3.40663e-05
3.27785e-05
-3.48754e-05
0.000118192
-7.02993e-06
1.86886e-05
-7.42597e-05
3.36477e-05
2.72116e-05
-5.58617e-05
-4.99755e-06
-3.34715e-05
-9.42364e-05
4.48984e-05
8.28095e-05
9.51278e-05
-8.2696e-05
0.000142149
-0.000154581
1.15384e-05
-1.25381e-05
1.57702e-05
2.97296e-05
-4.60871e-05
3.20612e-05
-1.57038e-05
9.82604e-05
-0.000109049
3.08323e-05
-2.00439e-05
8.51427e-06
-3.49368e-05
3.61338e-06
2.28092e-05
3.61121e-05
4.49938e-05
-7.34848e-05
5.22826e-05
6.69694e-06
-3.09404e-05
3.27578e-05
-0.00013249
1.4242e-05
2.31631e-05
9.17139e-05
-2.5838e-05
0.00010869
-9.56215e-05
1.50414e-05
2.46216e-05
-2.46314e-05
-4.65667e-05
1.15872e-05
1.42271e-05
6.20133e-05
-5.17135e-05
-0.000112263
7.87916e-05
1.58518e-05
-5.43671e-06
-1.04151e-05
0.000137624
-4.23593e-05
-0.000133527
2.12643e-05
3.2727e-05
0.00010593
-1.93823e-05
5.88101e-05
1.89929e-05
-5.84206e-05
5.23991e-05
-2.08784e-05
2.37597e-05
-4.90083e-05
0.000116929
-4.69674e-05
5.19956e-05
-5.47009e-05
-1.6677e-05
-5.43187e-05
2.46419e-05
0.000118608
-5.95132e-05
-0.000141048
-6.66357e-06
-7.37585e-06
-4.0581e-05
5.46205e-05
2.38733e-05
3.15763e-05
-6.59307e-05
-9.52865e-06
-1.87803e-05
3.00733e-05
4.07025e-05
-3.19602e-06
7.50729e-05
-0.000176236
-9.31493e-05
0.000102255
7.78826e-05
-0.000117874
8.51423e-05
-0.000100941
-3.8421e-05
5.23746e-06
-4.29209e-05
5.71598e-05
-5.8271e-05
1.85103e-05
-2.80775e-05
2.91022e-05
-1.9535e-05
3.3463e-07
-0.000126892
-7.35133e-06
6.16195e-07
4.37755e-06
-1.75319e-05
-3.75032e-05
1.87317e-06
-7.62911e-06
1.66223e-05
-2.86674e-05
-9.92974e-05
3.71247e-05
-1.39571e-06
-5.15635e-05
6.30523e-05
3.64323e-05
4.0967e-06
-2.75025e-06
-1.42345e-05
1.67031e-05
-2.86315e-05
3.55902e-05
-7.62363e-05
6.92775e-05
2.68004e-05
-3.62511e-06
-2.59048e-05
2.72947e-06
3.7364e-05
5.31388e-05
0.000131825
-0.000222328
3.51401e-05
4.27642e-05
-3.02244e-05
9.98114e-06
-2.25209e-05
2.94728e-05
0.000140721
8.06768e-05
7.21902e-05
-2.18235e-05
5.75885e-05
4.93774e-05
-0.000199695
-5.54888e-05
3.39874e-05
0.000221197
4.03381e-05
0.000293289
-9.37548e-07
-8.46169e-05
2.24846e-05
-0.000107379
-5.51565e-05
0.000108805
5.37306e-05
-1.56301e-05
-1.4774e-05
-3.86282e-06
0.000115615
-3.36806e-05
-0.000119231
3.72967e-05
8.04676e-05
-0.000108797
3.06342e-05
-1.80314e-06
0.000150161
-5.76611e-05
5.11854e-05
-0.000143685
-5.82138e-05
-9.3833e-06
-4.8893e-06
9.86617e-06
4.40643e-06
-0.000198598
3.62672e-05
-8.17514e-05
1.23183e-05
8.62987e-05
-5.52184e-05
-4.22282e-05
6.02193e-05
3.72274e-05
9.41404e-07
5.93068e-05
-6.45923e-05
4.34417e-06
5.25932e-07
-3.30095e-05
-3.13769e-05
2.86266e-05
6.76393e-05
2.30634e-05
-7.00763e-05
0.000100913
-0.000113533
-8.21932e-05
9.52552e-06
9.37566e-05
-4.04671e-05
3.23104e-05
5.10465e-05
-0.000200408
-0.00021157
9.26792e-06
4.79947e-05
-7.04114e-05
-2.05042e-05
2.87897e-05
-3.78738e-05
-2.93368e-05
1.59476e-05
1.90017e-06
-8.69676e-05
1.54014e-05
0.000127312
8.56151e-06
-4.98417e-06
-8.14044e-05
0.00014556
-0.000102953
0.000127991
-0.000153387
1.29644e-06
3.87627e-05
1.06183e-05
0.000141419
-0.000123027
-1.8392e-05
-9.20299e-05
9.57371e-05
-3.70723e-06
-0.000101135
7.2138e-05
2.89969e-05
-1.45275e-05
4.18724e-05
-2.73449e-05
0.000103591
-6.82532e-05
-3.53379e-05
-2.03119e-05
-9.81655e-06
3.01285e-05
5.34255e-05
4.85574e-05
-0.000101983
-3.89382e-05
6.27358e-05
-2.37975e-05
0.000171487
-0.000162856
-8.63095e-06
6.95008e-06
-2.14775e-05
-0.000149967
0.000105974
4.39927e-05
-8.07503e-05
-1.12796e-05
0.000155484
-1.4065e-05
2.40693e-05
-2.87353e-05
4.66599e-06
3.17994e-05
8.02992e-05
-8.45138e-05
4.21458e-06
1.8851e-05
1.53504e-06
-4.04733e-05
0.00020999
-3.8503e-05
-3.78606e-05
5.14145e-06
3.27192e-05
-7.08052e-05
-2.20662e-05
9.28714e-05
-0.000141364
4.02286e-05
-3.29837e-06
-2.13834e-06
-5.75252e-05
8.45907e-05
-2.70655e-05
-0.000132271
8.10694e-05
5.12016e-05
-1.67391e-05
0.000145452
2.14472e-05
-6.06354e-06
5.06058e-05
-1.77802e-06
-0.000104756
-7.397e-07
1.20894e-05
2.75541e-05
-0.000121533
-2.35518e-05
1.81775e-06
2.51248e-05
-3.89645e-05
1.2022e-05
-3.25931e-05
-4.29643e-06
-4.05215e-05
-1.95412e-05
4.61503e-05
0.000174446
6.9992e-05
9.19519e-05
-1.77873e-05
-3.73818e-05
2.49447e-05
-0.000268812
0.000127607
-4.15543e-05
-0.000109046
-4.09211e-05
-8.23332e-07
7.65467e-05
-7.57234e-05
-3.77725e-05
-2.89329e-05
-1.33619e-05
7.77189e-05
-5.59901e-05
1.55526e-05
6.54251e-05
1.56443e-05
0.000113225
-2.86341e-05
-7.37238e-06
8.93358e-05
1.66381e-05
-1.80145e-05
3.42774e-05
3.65532e-05
-0.000120945
-8.35444e-05
6.68053e-05
-5.84421e-06
-8.41052e-06
-7.17269e-05
-5.36868e-05
-0.000209718
0.000138036
0.000125368
-6.03824e-05
-4.38771e-05
-2.86536e-05
0.000146328
8.36858e-05
3.3057e-05
-8.16027e-05
-3.99639e-05
5.66566e-05
1.43824e-05
-7.06917e-06
1.58498e-05
5.56331e-05
-2.79492e-05
0.000141103
-0.000168787
0.000161636
-0.000153852
4.7849e-05
4.4637e-05
4.43724e-05
-7.87132e-05
-1.02962e-05
-3.53329e-05
2.54349e-05
4.39642e-05
-4.06746e-05
5.82309e-05
-6.95154e-05
5.19591e-05
-2.28154e-05
-5.6124e-05
5.4819e-05
-2.12479e-05
7.54353e-05
-8.95203e-05
-4.33275e-06
-4.1822e-06
-4.79693e-05
2.89355e-05
2.72069e-05
-3.13754e-06
6.93382e-05
1.0961e-05
1.88297e-05
-8.52242e-06
-2.36692e-05
5.77647e-05
7.61911e-06
-3.99489e-05
2.21553e-05
-5.68836e-06
-0.000209027
-2.11853e-05
0.000270551
-4.43155e-05
-3.41988e-05
4.98828e-05
0.000165233
-8.29478e-06
-0.000148412
-4.61669e-05
-3.13177e-05
7.08211e-05
8.84767e-05
1.38146e-05
-8.43253e-05
-1.7966e-05
-5.72867e-05
-7.27877e-05
2.83456e-05
0.000101729
-7.82284e-05
7.38547e-05
5.49066e-05
1.9893e-05
-1.7035e-05
-0.000141205
4.8198e-06
-8.30948e-05
4.32189e-05
-7.14634e-06
4.70222e-05
-1.72167e-05
-2.04819e-06
-0.000164239
0.000183504
-2.42226e-05
0.000136884
5.25715e-05
-0.000183245
-6.49318e-08
0.000203775
-2.0465e-05
5.47927e-05
-6.79032e-05
0.000174747
-0.000162629
0.000200205
1.34076e-05
-0.000183299
-1.33536e-05
-9.26774e-05
6.47282e-05
-3.74253e-05
4.44566e-05
-4.48777e-05
-3.84145e-05
5.40593e-05
-5.15638e-05
3.5919e-05
-3.90717e-05
-3.6768e-05
3.46425e-05
-2.69285e-05
-4.67857e-05
-4.68671e-05
-8.67471e-05
6.52446e-05
5.16488e-05
-5.55903e-05
3.8669e-05
-6.80507e-05
4.02617e-05
-2.78014e-05
7.83958e-06
9.10476e-07
-6.31093e-05
-7.33901e-05
0.000156458
-0.000165842
-1.48382e-05
-1.39421e-05
1.0621e-06
-2.29031e-06
1.51703e-05
3.11856e-05
-4.68157e-05
-2.97453e-05
-3.94458e-05
5.52491e-05
-6.39624e-05
-6.1033e-05
4.19006e-05
-0.000111477
6.67936e-05
-4.19784e-05
-0.000134982
0.000110166
-0.000233111
-2.38004e-05
0.000201186
5.57249e-05
-3.16746e-06
3.75776e-05
-3.44101e-05
-9.83946e-06
8.30397e-05
2.37236e-05
-1.33357e-05
-9.32586e-06
-4.90963e-05
0.000153692
6.02627e-05
-0.000164858
-0.000188789
2.2472e-05
5.25144e-05
-5.16513e-05
-6.48256e-05
9.242e-05
-0.000117737
8.97496e-05
-6.44325e-05
8.09669e-05
-4.86871e-05
6.01402e-05
1.39521e-05
-0.000146303
9.77225e-05
3.46283e-05
-3.97763e-05
-0.000200724
0.000240436
0.000171177
-9.87827e-05
-5.84418e-05
-8.2714e-05
0.000100587
3.46416e-05
8.75268e-05
-2.41449e-05
-0.000112478
-0.000161438
2.28406e-05
0.000152226
-1.36283e-05
-4.52785e-05
-5.36197e-05
3.78651e-05
-5.26956e-05
-1.0594e-05
2.13112e-05
-7.66075e-05
3.67054e-05
0.000120869
-1.63307e-05
-7.26972e-05
6.31383e-06
6.19812e-06
9.94786e-06
-1.6146e-05
-0.000188239
-5.41104e-05
0.000202573
-4.71527e-05
-4.97771e-05
6.08134e-05
-1.57261e-05
0.000111371
3.95231e-05
-1.9818e-05
-0.000181143
6.07995e-06
-0.000193397
-5.47129e-06
2.60275e-05
-2.49582e-05
3.09336e-05
-5.9754e-06
8.66778e-06
-1.44096e-05
-2.40035e-05
-5.5174e-05
-8.41715e-05
1.14578e-05
4.54132e-05
4.93135e-05
3.6015e-05
-8.53286e-05
9.06183e-07
-4.10292e-05
5.97392e-05
-3.90413e-05
-0.00025406
-0.000123659
-6.57107e-05
-1.41971e-05
3.51165e-05
9.64877e-05
-0.0001322
0.000124659
0.000180974
-0.000291927
0.000215086
9.81629e-05
-2.06533e-05
-7.88362e-05
-0.000318501
0.000245416
-8.73441e-05
3.2492e-05
-0.000157284
0.000126242
0.00012753
-2.39236e-05
0.000103661
-4.14757e-05
4.26083e-05
3.43744e-05
-3.78393e-05
-6.59286e-05
6.93935e-05
-0.000125495
0.000125566
-6.35621e-05
-7.68036e-05
-0.000114468
3.39874e-05
2.39082e-05
-4.18212e-05
1.41601e-05
3.07815e-05
8.01662e-05
-7.65734e-05
4.05198e-05
1.43869e-05
-2.92381e-05
-0.000179766
-7.15744e-05
-4.9618e-05
2.66628e-05
-3.06645e-05
-3.75164e-05
1.25582e-05
6.11925e-08
-7.58045e-05
3.78369e-05
6.63132e-05
-7.09746e-06
-7.74846e-05
2.56774e-07
-3.52036e-05
6.63017e-05
2.5266e-05
-6.07861e-05
-6.73969e-05
5.91893e-05
1.58268e-05
0.000173456
0.000186795
-0.000187212
6.06804e-05
-0.000136164
0.000126145
0.000116891
-0.000106872
5.77444e-05
-0.000193648
-5.17833e-05
0.000127694
9.44384e-06
-0.00015315
-0.000185048
-3.23996e-05
-6.29788e-05
-0.000178344
5.51738e-05
-0.000132535
-0.00018671
2.41335e-05
2.336e-05
-3.42903e-05
-1.46284e-05
3.38023e-05
-0.000194261
-0.000205574
4.09473e-05
-0.000195685
-4.60842e-05
4.91128e-05
4.01903e-05
-2.02032e-05
7.22804e-06
2.55334e-05
2.14704e-06
2.90386e-05
1.92519e-05
-1.71049e-05
-0.000120792
-0.00010559
5.75954e-05
5.88544e-06
4.59439e-05
-2.58721e-05
-3.03603e-06
6.25332e-05
6.80449e-06
-5.66615e-06
5.83381e-06
4.97152e-05
-7.64191e-06
0.000114001
6.96295e-05
0.000193624
0.000173901
-0.000172663
1.18851e-05
-1.55592e-05
0.000111963
-9.54073e-05
-1.97253e-05
-4.00677e-06
1.07984e-05
8.06749e-05
-0.000108559
-1.21194e-06
3.34117e-05
-3.66536e-05
4.21893e-05
3.23295e-05
-2.54997e-05
3.86418e-05
2.34209e-05
6.46589e-05
5.16438e-05
-0.000148164
0.000102397
-5.79941e-06
6.71412e-05
-3.83912e-06
-5.75026e-05
3.80057e-05
-5.44682e-05
4.39526e-05
4.83524e-05
-3.19879e-05
-6.46808e-05
1.91841e-05
-2.27167e-05
0.000109728
-0.000113372
7.76079e-06
2.64585e-05
4.74763e-06
0.000165435
-0.0001677
-2.48322e-06
3.66102e-06
0.0001386
2.03936e-05
-7.39338e-05
9.02456e-05
-4.70255e-05
1.00622e-05
-9.74885e-05
-4.6313e-05
4.13691e-05
0.000156328
0.000108731
2.80223e-05
-4.66214e-05
9.78829e-06
9.21699e-06
2.76161e-05
2.48504e-05
0.000142947
-0.000116612
1.10174e-05
0.000153688
7.01474e-05
-2.02797e-05
-5.56671e-05
-2.35014e-05
0.000131182
-3.25087e-05
-9.47996e-05
0.000122119
2.82963e-05
-1.59058e-05
-5.3356e-05
9.01513e-05
0.000148408
-4.21489e-05
6.86155e-05
3.00724e-06
-9.64832e-06
0.000123203
-0.000116562
-6.24773e-06
-4.55935e-05
3.40539e-05
0.000102294
0.000114002
8.18744e-05
-1.62311e-05
1.12328e-05
-2.23171e-05
5.82381e-05
-3.79254e-05
9.17542e-05
-4.02792e-05
6.54159e-05
-3.71925e-05
-4.49647e-05
8.21573e-05
1.72985e-05
4.05327e-05
0.000116867
5.56745e-05
9.63856e-05
9.76628e-05
-6.94563e-06
0.000104392
-6.81716e-05
-2.92743e-05
1.72598e-05
-3.17792e-05
6.82494e-05
0.000114637
-6.50417e-05
2.97651e-06
-3.19104e-05
-0.000144763
-2.87672e-05
-0.000114427
0.000148665
4.53742e-07
-0.000172965
4.34155e-05
2.45213e-05
-1.62258e-05
-5.1711e-05
8.65521e-05
-7.51217e-05
4.68005e-05
5.94268e-05
6.22084e-05
-7.81068e-05
-4.35283e-05
-9.44237e-05
-5.34175e-06
0.000101847
-3.57973e-05
0.000149258
-1.8559e-05
-3.77881e-05
1.96873e-05
-2.28626e-05
9.0904e-05
-4.62122e-05
1.74084e-05
-0.000136125
-2.42417e-05
0.000102819
-2.07286e-05
-5.21402e-05
2.17539e-05
-0.000115917
-3.17929e-05
4.32002e-05
3.25452e-05
-5.76285e-05
-4.68314e-05
3.97791e-05
-6.00359e-05
2.54657e-05
3.93503e-05
1.09949e-07
1.45209e-06
-5.04599e-05
4.72736e-05
2.16966e-05
6.24588e-05
9.3547e-05
2.6761e-05
-1.67258e-05
5.26043e-05
4.08363e-05
-0.000102833
4.14485e-05
-1.81505e-05
7.95348e-05
-0.000133653
2.04059e-05
-4.05256e-05
3.93716e-05
7.93903e-05
9.86449e-05
1.2223e-05
-1.36813e-05
9.54451e-06
-1.41656e-05
-4.76216e-06
2.41248e-05
-1.50564e-05
8.23008e-06
-5.98062e-05
4.24938e-05
-2.22699e-05
2.27901e-05
5.79374e-05
-1.4805e-05
-3.31513e-05
9.69861e-06
-3.74955e-05
2.87383e-05
-6.62499e-05
2.90161e-05
-1.79846e-05
-5.36806e-05
9.65922e-05
-1.18544e-05
-3.98453e-05
5.16997e-05
4.74475e-05
9.0913e-05
-0.000115876
7.09096e-05
2.79652e-05
-7.43536e-05
0.000130441
-3.35376e-05
2.47011e-05
-1.29323e-05
3.32805e-05
-3.16225e-05
-4.74615e-05
5.84799e-05
-1.84017e-05
-3.9513e-05
4.35051e-05
4.70551e-05
-7.02533e-06
-7.48343e-05
-2.15936e-05
-2.23528e-05
2.53873e-05
7.96837e-05
-3.12995e-05
9.82961e-05
-9.33282e-05
7.26332e-05
1.33747e-05
2.67156e-05
1.38952e-05
-9.58154e-06
-4.50738e-05
2.73181e-05
4.27933e-05
5.06619e-06
-0.000122273
-1.57545e-05
-0.000101737
0.00010322
5.42419e-05
2.37497e-05
-1.47366e-05
0.00012858
-3.45352e-05
-3.03077e-05
-2.27057e-05
3.14199e-05
4.81794e-05
-4.34927e-05
-2.72076e-05
-5.98687e-05
-2.73975e-05
2.9907e-05
5.73592e-05
-4.36076e-05
2.06902e-06
1.40058e-05
-1.04679e-05
2.97426e-05
-5.03537e-05
8.47655e-05
8.53012e-05
-2.42107e-05
-5.69455e-05
4.68006e-05
-0.000188661
5.18417e-05
-4.19791e-05
-5.81082e-05
0.000105516
-8.69408e-07
4.30237e-05
-4.16869e-05
-2.08861e-05
-2.09116e-05
-3.17489e-05
-4.36985e-07
5.96805e-06
1.73147e-05
2.71387e-05
-5.55431e-06
-5.68191e-05
-7.2142e-05
0.000156183
-1.59467e-05
-0.000114813
-5.21732e-06
4.47674e-05
7.52626e-05
3.31085e-05
-1.80435e-05
-1.4723e-05
-3.41986e-07
-3.79076e-05
3.36164e-05
5.8593e-05
-3.71066e-05
-4.28904e-05
1.29853e-05
-8.13008e-06
-2.5885e-05
2.10298e-05
2.8254e-06
3.55438e-05
-7.49859e-06
-3.08707e-05
8.56777e-06
-9.13094e-05
1.31337e-06
-2.11801e-05
5.25711e-05
-3.0208e-05
7.99119e-05
2.09271e-05
-7.28737e-05
-0.00014327
3.64677e-05
-5.30688e-06
-3.27136e-06
5.25641e-07
-6.46434e-05
-2.13214e-06
-2.21816e-05
3.75532e-06
5.31303e-05
4.51157e-06
-2.29077e-06
1.31854e-05
-4.31854e-05
0.000148308
2.53532e-05
3.37182e-05
3.56615e-05
-6.83065e-05
3.26449e-05
7.53875e-05
9.84189e-05
3.22493e-06
-2.91345e-05
-5.9559e-05
3.71005e-05
-2.86709e-05
0.000164854
-7.79594e-05
1.00923e-05
-7.24939e-06
2.21577e-05
-5.36398e-05
-0.000131644
-4.14523e-05
-2.02004e-05
2.94512e-06
3.94106e-05
6.51348e-05
7.24435e-06
0.000174058
-5.83183e-05
0.000142786
4.91985e-05
-6.09284e-06
-0.000149124
-3.50238e-05
4.13273e-06
-0.000134095
-2.02775e-06
-8.70165e-06
8.88247e-05
0.000111359
9.36899e-06
7.0856e-05
-1.41422e-05
1.92837e-05
5.62545e-05
-1.8893e-05
-8.31712e-05
1.50737e-05
5.30407e-05
-1.39202e-05
0.00010104
-0.000186383
3.49424e-05
-6.30006e-05
-3.21737e-05
1.96695e-05
2.39304e-06
1.45056e-05
-5.83303e-05
-1.32722e-05
5.7097e-05
3.84371e-05
9.80732e-05
-2.14457e-05
-9.40845e-06
3.98203e-05
7.36303e-05
3.86227e-05
5.64533e-05
5.33397e-05
3.35047e-05
-1.73348e-05
-3.55862e-05
-9.29831e-05
-0.000148021
3.5808e-05
-3.17023e-05
-4.10568e-06
3.86334e-05
-0.000104198
-6.54241e-05
8.13005e-05
8.83219e-05
-2.47975e-05
4.20306e-05
-3.39722e-06
-6.62068e-06
3.84201e-05
-4.70848e-05
-2.93619e-05
-9.49706e-06
-1.53004e-05
2.60241e-05
1.60065e-05
-2.65953e-05
1.96356e-05
6.95963e-06
-0.000108216
5.7081e-05
5.11355e-05
-5.559e-05
5.71729e-05
9.0369e-05
5.77179e-06
8.23403e-06
1.91519e-05
-5.73493e-05
-1.26461e-05
5.08435e-05
-3.54834e-05
0.000134962
-4.51905e-05
7.55426e-05
-5.8118e-05
-3.97417e-05
-3.50307e-05
3.751e-05
-2.47928e-06
1.65069e-05
3.17385e-05
-0.000135191
-6.39708e-06
0.000158996
2.79283e-06
-0.000115973
6.99747e-07
-1.74153e-06
1.72489e-06
-9.77583e-05
-5.77471e-05
-1.19781e-05
6.93564e-05
-8.17381e-06
-1.61616e-05
-1.31678e-05
2.83368e-05
-1.95233e-05
-8.81343e-06
-5.20213e-05
-1.63699e-05
3.70917e-05
-4.33664e-05
0.000101556
-8.38139e-05
-2.08252e-05
5.90144e-05
-5.7687e-05
0.00018549
-2.36547e-05
-8.654e-05
-6.69399e-06
-9.84893e-05
-2.60323e-05
8.79623e-05
3.65594e-05
-2.83963e-05
1.67039e-05
2.64642e-05
-1.47718e-05
9.37047e-05
-0.000104298
4.20197e-05
-4.39882e-05
-3.76121e-05
0.000100528
1.43071e-05
6.94192e-05
-5.06179e-05
-1.73958e-05
-4.83963e-05
1.70436e-05
-3.24957e-05
-1.27493e-05
-0.000165188
-1.82856e-06
-0.000271415
-1.88416e-05
2.3382e-05
1.32892e-05
3.70363e-05
1.7502e-06
-6.45924e-05
6.5222e-05
-5.23405e-05
-4.44358e-05
9.16256e-05
-1.74316e-05
-7.4194e-05
8.25877e-05
-9.90875e-05
2.94851e-05
3.7558e-05
-3.38882e-05
-4.5898e-05
-8.93677e-07
5.0533e-05
9.66744e-06
1.92846e-05
6.82664e-05
0.000123909
0.000100892
5.03236e-05
-1.47142e-05
1.21632e-05
1.43632e-05
2.07783e-05
-2.66513e-05
-5.24538e-05
-2.8983e-05
4.96371e-05
-5.71628e-05
-2.88754e-05
3.3255e-06
-8.05821e-06
6.89758e-05
2.59335e-05
9.72805e-06
2.16014e-05
6.16304e-05
-9.7688e-05
-3.22444e-05
8.1963e-05
5.38525e-05
-6.29841e-05
3.41471e-05
-5.45337e-05
-2.33309e-05
0.000166459
-1.45718e-06
-1.2685e-05
9.55417e-05
3.96075e-05
6.3717e-05
-8.1723e-05
-8.31556e-05
-4.0667e-06
-0.000165446
-0.000143526
-7.71862e-06
-9.43388e-05
8.0388e-05
-9.95937e-05
1.42375e-05
-2.35002e-05
-4.96813e-05
5.96503e-06
-3.69531e-05
5.96829e-05
-7.74306e-05
0.000183
-1.76441e-05
-9.46009e-05
9.76081e-05
-8.97167e-05
-4.88418e-06
-9.57475e-08
-2.73045e-07
0.000149072
-0.000148703
8.70837e-05
1.41007e-05
5.32687e-05
-7.15142e-05
-8.94973e-05
0.000107743
3.14587e-05
7.50259e-05
-8.13023e-05
-2.51823e-05
-5.07659e-06
-4.66901e-05
-2.53604e-05
-3.24511e-05
-1.88828e-05
-6.45647e-05
6.17032e-06
9.8623e-05
8.58969e-06
-5.00192e-06
-6.71323e-05
3.11855e-05
7.00939e-05
3.40125e-06
5.3133e-05
1.62053e-05
1.89871e-05
8.21979e-06
0.00012839
-8.66706e-05
1.15492e-05
0.000162898
-6.67123e-06
0.000153203
-0.000116738
3.83107e-05
-6.16404e-06
-0.000205674
0.000120491
6.9457e-05
-0.000220359
-0.000243663
1.75486e-05
-2.17915e-05
-0.00011057
-3.75118e-05
0.000132643
-1.05442e-05
-1.25258e-05
1.65546e-05
3.71907e-06
-0.000205485
-3.40823e-05
-3.41709e-05
-2.7542e-05
-1.17791e-05
-8.43975e-06
-4.87004e-06
2.16036e-05
2.15771e-05
-5.38207e-05
2.87191e-06
-1.29634e-05
6.93701e-05
8.01671e-05
3.30929e-05
-6.59813e-05
1.64627e-05
-0.000134881
-2.19478e-06
-6.45034e-06
2.25696e-05
7.23179e-05
-1.28881e-05
-1.82279e-05
4.19307e-05
-3.40156e-05
-7.24798e-05
-4.15393e-05
0.000125225
-4.1267e-05
-0.000177439
6.22482e-05
5.97265e-05
6.08807e-05
-8.19933e-05
7.51879e-05
-7.11595e-05
6.80407e-05
1.64664e-05
1.10348e-05
0.000136583
-0.000141679
-4.16772e-06
0.000125382
0.000100081
1.5602e-06
6.53599e-05
-8.30336e-06
-1.4968e-05
3.47192e-06
6.01395e-05
0.000136671
-7.14144e-06
1.65714e-05
3.19673e-05
2.54119e-05
7.8237e-05
-2.91428e-05
-6.78195e-05
1.87253e-05
-2.65604e-05
7.67843e-05
-4.66201e-05
-5.09239e-05
-1.45785e-06
2.34021e-05
-9.06179e-06
-4.29826e-05
-2.07142e-05
5.9834e-05
-7.72395e-06
-9.54298e-07
8.7882e-06
-2.2236e-05
6.92458e-06
-4.29111e-05
-7.61754e-07
-2.66905e-05
2.38999e-05
-0.000135035
2.03024e-06
4.31019e-06
2.11247e-05
9.5468e-05
3.36358e-05
5.5168e-07
3.81304e-05
-7.8084e-06
-1.57407e-05
-3.73641e-05
0.000111943
-0.000107179
-0.000244631
2.0525e-05
4.78254e-05
-6.3947e-05
-1.5247e-05
-2.21421e-05
4.39611e-05
-4.3117e-05
-0.000102092
5.62248e-05
4.58674e-05
0.000147371
1.45843e-05
-1.53885e-05
8.04151e-07
-0.000155996
0.000328204
-0.000266202
-7.26916e-06
-2.68848e-05
-1.48543e-05
-8.47748e-05
4.91727e-05
-1.13654e-05
-8.71474e-05
-3.01128e-05
1.63862e-05
-6.28478e-05
-3.18773e-05
4.96281e-06
-3.69087e-06
-6.19422e-05
7.00131e-05
3.58179e-05
8.02184e-06
-3.67779e-05
-6.50658e-06
0.00010771
-8.1329e-05
-3.63211e-07
-1.89756e-05
6.31957e-05
-7.54384e-05
4.64009e-05
-4.56792e-05
4.41767e-05
5.61602e-06
-9.14895e-06
3.53293e-06
1.75442e-06
3.8616e-06
2.46334e-06
-5.9033e-06
3.43996e-06
4.21776e-06
-8.68008e-05
0.00010439
-1.7589e-05
-6.67882e-05
-2.00126e-05
0.000111363
0.000107442
3.92126e-06
-1.12858e-05
0.000109204
-1.76221e-06
0.000118944
-9.73947e-06
-1.28068e-05
1.52099e-06
-1.3402e-05
-1.3839e-05
-2.64587e-06
-0.000134619
-1.45475e-05
7.08508e-07
3.68227e-08
2.69763e-05
-9.69694e-05
-0.000123343
7.09022e-05
-0.000198421
3.38573e-05
2.13814e-05
-5.52388e-05
0.000128686
-6.41648e-05
-0.000112345
5.55647e-05
-0.000196974
4.8049e-05
-5.65598e-05
-7.33305e-06
1.37974e-05
2.71833e-05
-6.17594e-06
2.63385e-05
-2.17292e-05
-4.21361e-05
2.03699e-06
1.47352e-06
0.000135599
-0.000137322
1.72309e-06
5.21917e-05
-2.93253e-05
3.42315e-07
5.0217e-05
-6.53671e-05
0.00025815
-2.98072e-05
-0.000194355
0.000136591
-9.92032e-07
9.84788e-05
2.14674e-05
-6.19742e-05
2.85381e-05
0.00013535
-6.66357e-06
-4.70852e-05
-5.74821e-06
3.05636e-05
-3.19803e-06
6.81746e-05
-9.51551e-05
-7.91195e-05
9.15471e-06
5.79867e-07
-0.000233059
0.000397437
-8.10556e-05
-2.30988e-05
4.81643e-05
0.000121179
-0.00018017
0.000136711
-9.35229e-05
-0.000146213
1.48941e-05
-0.000130033
0.000138625
6.43025e-05
-0.000259891
-0.000139685
2.36271e-06
0.000139668
-4.3185e-06
4.95191e-05
-4.18715e-05
3.4804e-05
-3.10861e-05
3.85865e-05
9.32191e-05
5.0597e-05
-0.000139573
-1.12354e-07
-2.3803e-05
-3.96164e-05
-2.254e-05
-0.000208264
5.12745e-05
1.79808e-05
-9.12906e-06
-6.55299e-05
-1.20572e-05
-9.4702e-05
-1.3962e-05
-0.000128545
0.000121403
-1.55951e-05
5.03991e-05