/*--------------------------------*- C++ -*----------------------------------*\
| =========                 |                                                 |
| \\      /  F ield         | OpenFOAM: The Open Source CFD Toolbox           |
|  \\    /   O peration     | Version:  v1912                                 |
|   \\  /    A nd           | Website:  www.openfoam.com                      |
|    \\/     M anipulation  |                                                 |
\*---------------------------------------------------------------------------*/
FoamFile
{
    version     2.0;
    format      ascii;
    class       volScalarField;
    location    "0.45";
    object      epsilon;
}
// * * * * * * * * * * * * * * * * * * * * * * * * * * * * * * * * * * * * * //

dimensions      [0 2 -3 0 0 0 0];


internalField   nonuniform List<scalar> 
5794
(
1.33591
0.814485
2.50109
142.55
48.2125
1.03974
22.0084
4.83579
95.1417
8.10614
35.238
2.55963
14.115
40.9686
1.49891
0.541357
276.455
55.6707
2.95722
1.42722
74.421
0.835204
35.8667
2.73202
13.245
70.3954
182.721
21.652
90.164
0.618658
6.64346
2.76665
21.7137
6.5949
10.6528
21.5702
4.41526
14.3652
57.0624
56.447
22.6698
1.6055
9.16136
1.86457
4.91213
45.8801
3.79493
10.4346
7.11255
12.6263
0.201851
59.9279
4.74372
6.13661
0.29588
42.4492
3.00664
13.7921
5.78055
142.018
59.8139
0.696322
5.79712
3.27086
25.8073
0.634207
49.9255
26.8588
71.0266
1.29727
79.9412
61.5784
165.974
3.85085
65.5373
13.2433
11.4844
47.4765
0.952537
2.10931
1.25582
1.70515
8.78032
35.5977
4.95948
85.2597
38.7233
97.1505
1.85545
44.5237
108.797
33.7029
68.8017
108.09
44.3463
65.2373
81.0074
58.1678
30.9187
66.5522
53.9562
1.77914
7.22543
36.2626
16.1516
70.4599
0.645517
10.0261
43.7422
0.840338
9.51911
4.41171
61.5612
1.05148
37.5298
84.2645
1.30262
83.6994
53.8788
21.7661
86.268
3.07854
7.60196
17.4046
4.51986
49.3725
75.2664
0.854644
69.2704
11.1021
3.73593
17.2597
12.385
39.6567
88.4359
1.29966
121.337
0.670465
0.562053
8.6296
4.23697
30.6375
4.96577
33.2856
0.949769
193.66
78.0703
50.3289
47.9653
22.8644
11.9693
2.76292
76.0494
2.94083
202.376
18.014
46.3153
24.8572
77.0935
3.89645
3.01048
9.65161
13.6965
22.1958
60.8428
75.1343
26.3567
9.52275
11.0575
5.50316
1.44123
30.8741
17.0424
12.7893
7.64215
33.3817
1.89316
7.24094
6.3267
81.0351
3.64627
4.86494
4.91487
49.7401
7.92622
163.663
2.34112
16.561
9.79478
1.68929
44.5562
3.41933
28.2721
5.67336
23.7799
3.23254
3.30198
11.7644
7.80165
6.66123
29.49
64.9443
7.1796
15.8725
5.24137
54.3831
10.5355
20.5275
156.054
46.2905
0.956098
10.1344
27.3113
5.52757
5.72923
11.9289
21.9461
21.6013
29.1641
73.6
9.71972
42.072
152.524
65.9599
147.162
86.82
3.37102
8.3234
17.7801
1.45483
11.0672
22.1894
3.59908
33.1037
31.7518
120.124
164.865
32.3093
15.1924
1.30439
1.00236
57.8781
39.5513
53.1233
6.25784
8.3185
8.00673
55.0864
145.021
98.29
44.3109
0.664339
210.539
0.548549
4.9168
112.765
6.78439
18.5536
16.8986
3.13665
78.0883
26.3593
5.31724
1.41977
7.50142
22.8722
30.7293
69.6782
2.95544
55.8518
8.50523
8.36941
14.0462
74.5978
16.2637
1.46753
6.1733
3.38586
1.96194
15.2203
10.4283
79.8872
25.1643
1.64886
54.3495
98.1855
48.5457
63.5608
138.737
89.9914
13.9895
15.5253
3.82488
4.39985
4.77044
86.1386
29.6926
2.41661
49.9495
0.888419
1.93203
56.1009
0.963139
50.3194
0.885926
72.9506
1.79977
70.1368
62.1477
12.6818
14.3137
41.0405
49.5074
1.03027
9.85644
35.1985
13.089
26.2922
46.1981
118.301
5.69278
18.9368
85.9808
56.1701
0.367385
26.1339
3.81767
2.29145
17.3572
33.0292
73.3024
8.4539
5.23566
22.6427
3.0247
9.92188
11.9461
14.0064
9.87452
11.0833
4.35252
13.9134
79.0536
44.4524
2.13963
4.46325
78.0663
6.5882
86.1459
26.7343
81.599
158.59
36.9875
4.12087
5.47333
136.263
16.2202
78.4271
24.8713
3.96011
16.1546
13.6476
95.7688
22.4691
4.61096
34.2078
66.2891
55.0563
3.81793
14.9743
4.70248
1.05597
27.0728
0.885409
22.1881
50.253
40.7117
6.30149
25.5045
1.19611
2.94152
3.83819
12.5547
21.2785
9.03464
8.43263
100.534
30.3342
4.45493
30.2541
9.2881
73.7866
1.07862
8.39474
9.86048
8.78405
5.84179
9.3457
1.97944
28.9822
5.00358
10.0641
90.1895
9.75594
5.41382
41.9012
11.5609
1.23189
0.879414
77.8388
57.1861
27.7808
31.1369
28.3715
72.042
9.61924
5.49522
86.4774
54.5557
79.8756
31.0118
57.4475
15.0884
5.19519
24.1769
9.77057
11.8997
1.07136
0.940497
1.15179
60.2657
5.78629
31.5443
96.1109
9.48029
1.27397
5.53396
34.5272
20.303
8.00105
10.5478
8.13869
12.1065
3.70859
3.55521
92.0934
40.1004
0.273916
17.0341
68.2257
11.8114
1.10915
113.612
0.837607
75.1226
1.47843
73.755
70.5138
53.8351
157.21
0.969915
0.997757
15.9844
7.98951
74.515
10.997
82.0955
54.675
16.9234
0.817052
0.419853
167.905
49.1336
13.5986
4.9968
89.279
123.91
23.5763
1.69968
1.03615
26.5728
0.866509
2.65626
12.4249
15.0901
32.3551
10.0129
3.94466
106.396
0.943638
1.12858
111.123
95.8204
65.244
10.1565
8.35323
1.10769
3.22145
0.625656
37.0794
91.641
137.258
8.75525
15.9007
33.1889
0.988895
1.17305
31.4078
37.8949
0.663098
63.3001
1.61965
3.00042
1.0292
0.902538
33.8415
75.5219
0.560243
5.50901
88.8998
1.35962
0.668047
56.2083
85.4244
11.3677
1.06731
0.915701
44.2929
1.16671
0.922605
21.0188
1.50194
83.5907
1.79177
24.1102
3.84618
6.63311
158.19
10.3258
64.2569
0.997008
116.774
1.21146
57.7185
4.08515
0.33986
5.43268
33.1918
1.25267
0.837593
35.8015
1.73551
1.68867
0.82961
1.09829
4.40042
17.8241
0.949974
1.18247
30.8747
281.269
0.735575
55.8701
3.6829
53.2636
3.57944
0.541271
13.2896
0.689288
0.652811
84.3407
26.8502
121.525
113.073
118.736
8.79122
64.8665
55.5954
2.18929
29.6683
85.5878
34.6329
103.286
111.242
84.5058
55.8016
1.04791
68.0807
26.2887
87.691
0.655972
0.897668
0.657375
95.3263
39.2274
37.235
0.676769
9.34756
0.531997
5.30718
1.48262
96.8736
39.9022
102.542
1.47009
7.96148
105.441
11.2429
0.334641
3.51759
56.1514
95.1412
31.8062
9.41015
3.32177
5.37274
33.5257
29.8327
7.34135
118.284
0.720681
41.1476
59.7698
14.0239
0.671136
1.12725
0.667249
34.1924
75.7402
1.05629
1.32508
0.965029
0.412671
1.08037
0.608595
3.93151
48.807
26.5239
25.4046
25.1567
4.33175
8.63096
28.0011
28.6834
124.19
126.633
57.023
48.2797
1.05972
0.57804
0.618478
0.860207
1.73652
3.72089
3.99967
75.0716
102.965
69.0701
110.755
0.722446
1.11718
2.32163
0.782455
45.925
1.08824
60.6565
141.124
101.063
50.5923
46.9478
34.1975
3.58414
91.0578
18.6509
36.6491
43.7743
112.138
3.7973
30.6508
1.15271
0.474458
26.5559
5.46069
0.404157
30.3773
136.162
125.952
2.46023
2.17208
0.578938
20.5344
167.763
42.2153
52.4054
3.43764
40.768
18.6032
1.69305
0.634751
9.86352
9.61706
14.6289
1.4419
18.9403
30.0272
149.355
56.3873
7.56831
1.54602
113.662
21.0795
178.072
57.7499
80.4824
39.7193
16.2772
8.79122
137.838
45.4404
32.1578
43.6854
68.0005
157.04
1.50758
104.193
1.35384
15.0824
28.3924
93.8446
38.6267
50.2276
31.4738
125.442
26.6797
4.03373
5.5457
253.851
11.0423
32.467
64.3956
95.086
0.983103
0.65159
22.153
1.14238
92.8379
45.2063
124.092
6.95801
9.01492
0.549994
0.838624
5.51832
1.37161
37.2916
94.274
5.03952
112.834
45.4211
8.74007
4.17931
148.52
83.1048
56.9751
140.767
101.542
49.3425
53.2077
1.18258
63.2242
25.9078
83.7501
27.8419
1.5801
20.4875
0.921307
1.00117
0.993452
36.4624
0.881881
23.628
116.629
10.378
1.15802
0.960293
87.4789
38.9023
22.6091
91.1845
37.058
0.323518
79.4567
59.035
16.9817
4.80518
44.3114
1.0064
170.096
0.909779
52.6429
9.47473
14.0496
3.04308
0.651792
0.511399
3.74606
22.6891
44.6667
79.8649
181.877
55.8538
3.84039
0.848122
34.5588
138.09
8.06929
11.359
14.1759
72.0648
1.03166
1.08701
15.4558
49.8102
94.5228
1.15431
17.5099
3.37911
11.2884
2.44191
27.2031
72.2057
81.1032
9.36297
1.98923
69.3704
9.08187
0.7408
171.092
2.59503
2.19234
8.15272
0.741149
19.6897
0.974634
25.4114
1.23799
4.5063
6.14682
10.7558
124.914
43.039
109.694
49.5647
49.5208
68.2692
37.7104
87.3285
39.2997
0.788158
0.714609
5.01888
31.0232
0.797595
20.8757
189.884
64.6297
53.1669
15.8661
4.25542
44.0133
0.687679
14.1867
51.027
0.999996
148.683
3.1138
2.49238
37.6568
17.1967
6.27306
2.60268
76.4969
10.9197
6.76307
0.611069
2.03163
52.6804
69.8634
0.873615
10.1181
32.8361
6.05833
51.5236
128.725
86.606
80.0665
42.3265
1.07917
1.02
23.267
0.654002
1.32195
0.683317
1.10861
23.827
0.666049
7.38607
0.729107
58.5106
51.0726
5.03247
7.96095
7.80565
15.5363
114.526
34.1576
75.5653
6.32015
0.707997
106.517
11.4334
30.2481
7.2098
114.169
73.444
75.5315
0.673745
116.757
90.8905
1.06597
1.43093
6.46246
1.46283
1.35492
73.7506
34.6848
55.1299
78.2763
31.2285
57.0571
24.921
12.6416
0.923114
1.23776
34.5693
0.637659
136.854
22.3828
163.241
6.97465
73.4409
78.3034
1.01997
0.852854
119.1
100.486
10.0497
12.1997
22.9602
61.6675
2.97159
42.771
0.689861
5.07442
3.4319
0.588459
0.602286
1.30424
0.410032
0.648989
0.755838
1.01705
7.99023
50.4369
5.37939
2.29792
0.696041
77.3288
9.72217
27.81
3.20672
44.1615
0.610752
38.5262
4.71923
5.20191
1.49109
13.655
42.6082
1.02405
10.0081
1.59622
0.752339
9.23801
76.4402
21.6115
90.5754
148.288
1.17277
11.0781
28.956
27.8505
27.1944
26.6031
50.7827
98.7518
1.13873
0.785579
0.733894
0.186446
19.1178
11.138
139.629
148.456
128.475
0.307848
28.6449
135.229
83.5012
56.8346
50.5435
0.669503
0.846343
1.03686
33.9917
11.0686
33.5087
4.53277
0.322598
4.40535
4.83427
10.1215
17.58
1.01494
1.16539
36.1252
18.549
11.5359
0.762968
8.21721
48.0573
1.01783
7.01334
3.12494
3.94207
14.2009
0.982508
27.0771
0.6077
10.4031
18.1404
1.19463
49.0378
10.4615
0.728615
1.0491
32.9933
0.855096
71.778
5.88796
1.44726
0.720132
5.87189
0.559817
0.655501
10.383
0.978818
0.546516
7.64789
9.67239
18.2051
55.9026
27.9334
9.09193
101.09
42.1184
0.672531
0.747739
44.1204
1.2568
17.9926
80.6423
0.807597
18.8343
1.47456
77.7245
2.48522
54.4961
2.88636
53.0721
47.1416
0.869821
35.761
4.42314
0.192699
4.39471
27.2237
30.2365
33.4124
1.32541
37.6854
0.488943
1.03478
7.15568
0.901363
1.34017
23.3448
0.973721
19.4242
2.37673
75.5347
1.96921
1.13231
0.611153
4.50501
48.9691
18.4059
1.03454
28.2002
7.38173
15.5829
80.5851
33.061
0.601174
0.604202
23.5255
5.67499
40.5728
6.78085
62.0122
74.6117
62.2154
23.4139
67.8362
8.88133
8.76762
5.27078
1.69348
5.68214
1.09363
489.771
39.9997
1.31563
1.09722
54.155
50.3827
8.49546
0.469607
0.969205
19.6782
5.98043
0.932363
42.9746
3.66323
24.7176
2.27129
68.1379
1.13029
0.439052
3.92821
3.96929
0.952096
31.129
1.04933
49.871
0.824086
68.6564
5.09642
15.6811
4.34699
23.5617
9.26352
17.8486
11.383
4.54344
1.07155
4.42222
25.893
10.6563
5.44891
0.979237
1.29029
18.8975
35.6079
22.1069
8.00721
24.322
7.31169
3.78244
7.33321
7.43791
21.3223
3.23285
11.1455
27.6758
0.568116
58.6868
0.599006
175.621
1.40059
1.28177
9.6324
0.664882
0.590698
43.9506
2.49853
6.44387
0.584337
0.867883
37.1125
216.077
115.405
2.6041
0.81428
2.23151
10.7916
55.7601
19.4815
3.13178
8.63128
0.682771
56.3104
4.21666
3.29485
33.5398
7.29834
8.03222
34.3497
18.2187
1.17539
18.2546
89.0706
31.7934
7.10258
27.4462
22.174
0.609751
57.5801
148.133
37.7983
92.2708
1.51345
0.462351
35.8744
10.0008
14.311
0.236405
13.1202
56.1904
0.589537
1.34949
0.712672
0.719755
1.36588
6.84487
2.82871
18.1979
0.916625
3.09424
23.7082
123.793
39.4534
3.61525
29.9436
4.41814
78.9655
0.625232
52.498
106.268
33.33
68.3367
2.66093
39.0873
33.761
104.889
3.08223
5.81466
1.87802
42.9196
0.737043
1.80531
26.0282
5.06422
3.33965
12.517
3.17638
3.13151
24.2189
0.739519
0.525579
7.41092
3.02893
1.02507
2.04173
80.2294
9.36437
48.4809
41.7939
48.1379
0.661768
105.332
0.617992
30.9211
11.9605
16.0374
4.83859
0.890566
28.6862
0.510183
6.88469
0.442424
40.7164
0.950468
4.64485
29.1385
110.202
4.5872
86.8538
83.7987
5.64125
8.87177
0.909134
11.7725
1.20722
19.4554
78.694
3.82599
0.338473
4.15645
28.3988
36.9424
165.792
94.3645
107.394
97.6945
29.928
0.369757
1.33827
16.9528
6.5104
90.0288
1.5884
0.448088
1.16369
15.8699
0.48664
3.4533
5.2756
2.00343
6.17195
2.33253
3.65931
0.882626
7.61225
3.24992
31.7581
14.1817
0.77538
74.0964
31.9696
60.4358
18.2641
3.16351
46.4146
1.27147
0.938792
0.749777
4.2927
362.561
11.3965
51.7862
25.2219
73.2956
66.5807
17.127
9.88782
0.245927
0.753171
2.35963
0.379087
6.4922
10.3133
0.816873
11.1239
0.175239
0.819824
6.06577
3.25492
1.27543
0.920759
0.253052
5.8694
10.0873
1.11746
2.20755
5.59325
0.935265
0.972239
0.244675
0.352692
9.36492
3.63861
2.52318
0.546737
1.24509
4.33599
5.87715
0.731885
0.333164
0.520133
0.210432
0.47039
8.95542
0.69571
0.10195
2.22877
0.645034
5.00957
7.24544
3.048
15.9691
136.842
0.870361
0.650411
34.1801
89.1694
35.4204
2.43518
0.949125
15.5841
2.93773
21.2132
73.0798
221.924
46.0035
99.0718
31.9318
1.00232
0.902339
0.40981
1.29172
0.905192
13.7448
0.873026
2.65364
4.84276
0.974966
18.2295
24.2164
2.34803
6.02499
27.3286
274.11
4.14879
25.2974
5.75574
13.5845
27.6542
4.2399
66.5264
41.8059
29.7643
34.3553
7.43033
31.7681
6.4478
11.5057
13.9062
502.42
2.43868
4.93239
1.1368
45.6309
35.9436
2.20092
65.3507
57.7745
0.715312
0.455984
9.79542
7.98332
0.929908
10.5532
0.184964
0.636198
1.84926
0.197697
5.25448
5.45094
0.469557
8.388
2.26458
2.27404
5.9886
0.969174
1.29503
1.12273
0.293795
10.7452
0.666946
38.6361
63.022
8.39254
21.9387
3.40256
13.9164
33.0183
1.13439
60.1578
35.1996
22.8611
39.2997
37.0193
2.83349
1.13266
36.7711
38.0711
5.18798
130.656
89.0874
30.8069
0.345459
35.765
29.6872
4.56628
37.5379
12.5956
60.1803
0.887957
5.55084
0.4017
65.2688
2.81049
37.6898
39.3689
0.714275
112.106
1.23919
80.3957
1.20789
0.392379
0.430525
68.2118
0.643225
0.655803
0.632469
2.45716
106.453
10.7433
103.322
19.4929
2.99448
10.4394
99.208
1.31851
9.15213
7.74813
65.8498
38.6374
9.16074
0.569033
10.1742
5.06429
36.8117
10.2597
2.33729
0.254139
3.47488
7.92588
0.693619
44.5128
39.5148
0.13887
1.71093
87.3105
93.2447
12.005
30.3266
66.6943
0.155687
36.2569
45.8408
33.4167
36.1067
11.0322
1.92271
47.2072
0.761112
3.77233
5.84444
55.1247
7.71709
9.80013
18.4867
35.5967
50.5718
1.581
0.434175
1.60125
16.9479
35.2436
36.145
183.54
64.7959
41.4679
18.048
12.5274
26.4245
25.4944
66.1889
26.8421
37.5253
37.4009
36.4113
32.9434
109.977
99.1537
5.06321
62.2044
29.4555
19.8976
18.7147
3.78986
71.976
41.7394
6.13913
52.3146
5.75969
101.841
5.21266
24.2602
128.466
3.39687
32.3326
7.72153
0.473288
0.995046
4.36314
55.1806
1.32303
0.482407
3.49814
34.0337
40.1912
73.7175
50.8811
44.0818
75.1704
44.9356
1.6097
44.9293
40.1139
72.6362
40.6718
35.9628
46.0546
41.6684
34.5919
39.2596
24.5232
23.6113
3.33229
94.8407
19.8771
3.27145
2.79961
13.2503
1.56766
4.45909
15.094
26.2516
2.15335
1.19219
1.54583
47.6408
26.799
32.9006
15.9106
4.36953
6.51972
1.52982
3.98387
7.99531
5.05277
100.061
3.92568
3.76477
0.728713
4.1472
0.597018
24.1132
0.832878
36.7729
0.817938
0.690492
5.15834
3.88253
2.0713
3.63248
1.91368
1.24748
66.1458
1.20671
22.2182
5.4846
10.1263
44.9106
100.365
1.11086
80.3838
27.8585
6.23729
123.284
7.80159
1.34967
110.616
25.0248
93.5542
0.918312
15.2219
114.804
108.875
68.8703
1.35946
1.28558
1.36546
5.33718
10.1567
158.688
1.38548
20.6365
4.60586
0.889403
5.1216
7.5159
7.84913
46.8087
32.4848
31.8739
152.128
80.5336
1.55536
82.3799
0.732563
5.87276
32.6599
8.00384
121.841
11.2515
149.629
34.9303
6.25239
7.48688
56.3853
147.29
4.49162
93.8859
43.2013
2.42793
30.7461
8.7064
5.47611
5.62916
53.4713
4.38119
53.0677
92.8637
88.0828
5.86517
16.4801
4.79761
91.8895
6.72486
6.47149
8.69154
207.941
1.20022
4.01855
0.510569
32.0773
21.1784
2.79425
5.1593
7.39746
5.49072
1.55105
3.32818
7.15139
4.96351
2.14146
3.49122
2.007
5.42504
19.6807
12.568
7.47336
84.9299
5.94152
5.53528
0.983052
1.14778
5.69647
11.7677
3.6802
9.24158
0.662262
4.47557
3.85837
47.7335
2.85161
4.51483
3.24179
10.2429
1.01064
0.819807
5.54701
1.46782
1.41254
1.41271
18.0681
6.75296
2.90088
98.2004
0.59723
3.03023
1.54851
1.6398
7.33201
5.53368
11.2477
1.10257
1.73886
1.36439
1.62732
1.34851
9.40558
6.82783
0.797792
3.77312
0.620245
1.1789
1.46672
1.20399
4.79802
3.89644
4.35435
9.88691
0.662397
2.65777
0.725415
4.38019
7.49907
3.14686
0.482534
4.10157
1.37181
3.30718
3.45972
4.62897
52.757
4.63214
5.4335
2.88611
0.967069
0.643672
28.051
49.8436
36.3847
4.25654
1.52216
9.93367
14.7104
4.98142
22.2775
0.793312
8.05991
1.82972
110.127
25.6721
1.99644
17.367
22.1111
7.3295
4.19976
1.42651
0.447582
34.0121
30.9046
4.61841
17.6173
6.91559
3.82203
1.39008
0.415035
60.1134
3.32821
3.91533
34.6222
77.9
25.6316
5.20763
6.01992
115.932
11.0248
2.51068
17.9552
21.3159
10.3185
5.78077
56.9137
7.73221
17.6738
37.7416
6.18859
4.34866
1.25765
0.440148
42.8749
7.4624
12.2532
30.4925
77.6506
0.477786
112.291
94.0176
3.90255
6.08275
18.9976
3.13257
11.2149
21.0347
8.42719
5.925
18.5508
18.8592
6.66326
74.5753
10.8437
52.4357
2.78803
45.1505
30.4279
4.92871
18.6415
4.17287
3.17287
21.3876
9.09464
13.8631
23.8486
1.99799
22.8836
9.57661
7.12179
30.7277
6.40643
4.17424
0.865626
0.514903
17.8039
52.2597
2.91751
30.0505
62.6694
58.6182
87.4486
27.9434
4.8983
7.96099
3.94642
0.467914
100.109
3.89822
47.7718
60.159
4.78728
10.5759
125.481
1.60843
1.61293
24.0147
21.0287
26.1682
10.1756
38.9412
61.6074
9.10089
56.3089
34.1597
3.77793
1.41195
3.769
12.9959
8.49661
8.1396
1.74085
2.61174
6.74041
4.75819
0.634955
0.468331
108.556
90.0562
6.42606
1.93689
115.244
90.178
21.7585
2.08001
65.2028
25.3907
5.14173
7.74375
0.391964
108.756
3.86826
1.54798
4.25784
122.287
71.369
98.8157
5.36086
100.791
81.6779
37.4076
4.03106
25.5064
33.5104
11.3734
0.732936
0.55799
0.726886
0.9078
20.8703
32.2414
5.20786
1.67784
33.1805
29.4981
38.6314
52.3295
36.5542
24.4771
0.783939
41.0921
0.747441
1.61423
131.672
63.2962
67.9877
93.9654
60.8148
12.9838
4.31011
2.46948
2.54674
7.13556
0.652113
4.42195
0.508964
0.496462
0.897477
0.71296
0.96126
67.9187
84.4824
12.7586
41.6121
2.5576
9.43084
1.5271
3.83725
63.0859
3.25847
52.1401
3.96826
6.39465
6.14396
71.6259
16.5381
11.3507
0.679237
62.2783
2.08906
0.879786
3.69762
35.5885
74.3642
26.4255
5.13178
31.8235
115.034
3.87304
3.75732
0.844396
0.348062
7.07896
5.32476
37.1642
5.53528
1.78683
0.447131
25.9594
3.64933
4.6816
77.6841
1.97716
146.443
0.601907
0.559187
2.82915
37.1169
162.988
7.46879
1.00991
1.12416
51.1631
54.8612
4.90903
3.30384
5.57295
2.31964
11.7401
5.05624
0.993761
10.9785
6.83426
0.787318
4.86384
1.69163
5.6947
9.85669
2.26168
4.95765
1.68099
3.51966
19.2748
4.46528
1.97193
41.1094
7.36293
4.73612
8.97244
32.5789
0.602147
61.2165
10.201
15.0995
44.9499
2.52784
135.85
25.9148
62.1869
1.62288
90.4682
3.46916
24.7134
7.13821
0.433192
66.7048
2.87569
12.6326
4.64527
12.5076
12.7218
5.35011
64.3704
17.379
80.3988
28.5331
2.4687
6.76158
6.08008
0.451739
0.492428
33.2314
118.577
12.7277
5.05079
0.735773
105.96
12.3197
189.161
115.178
34.0476
48.8671
35.0216
0.702968
30.9717
4.18077
2.51973
26.5995
34.4904
1.67905
10.807
32.6704
9.26501
70.3562
4.59663
15.8357
64.3544
37.793
5.74473
9.2881
8.95159
100.294
7.37217
20.3304
83.7599
91.8593
23.192
1.75886
1.66165
36.7745
15.5793
8.32722
29.362
21.4694
31.7218
4.40949
22.6524
8.29515
119.988
8.53457
4.07927
1.21023
0.515612
32.8638
128.409
26.0484
86.8142
73.4785
196.697
1.43881
26.4733
5.62005
34.4755
1.52335
173.157
38.954
2.23513
0.453312
7.80824
0.942875
1.71338
42.7475
48.9902
38.4042
58.4922
96.9409
56.3401
2.8964
16.5629
99.7309
66.6099
21.1309
337.075
5.01826
5.03594
22.5034
98.0334
30.3105
23.7287
52.2482
2.76332
2.93781
36.3233
9.9081
9.38424
7.75016
0.701651
11.7291
1.12211
61.3012
0.546551
54.15
2.93377
12.1155
14.8156
34.975
22.7762
64.1101
1.01407
133.738
1.22103
0.52476
4.80058
0.260689
0.949945
73.5703
33.4373
91.7803
5.66092
94.1032
132.185
4.10499
25.2905
0.538321
3.43602
2.19059
0.275314
46.9038
49.9067
0.564354
0.503955
31.4476
14.3302
17.2707
38.4938
3.59778
21.1575
5.6366
109.943
4.68734
31.4446
0.969911
3.71469
12.3512
72.4996
2.91836
35.7649
71.856
4.33029
4.46968
47.9489
2.82138
1.41635
90.3196
1.37759
1.81383
177.902
11.1215
51.4539
3.40705
23.261
62.5519
0.822079
4.26849
18.2375
35.958
74.9207
1.67646
28.2208
42.7262
32.9106
13.7257
9.85941
8.68085
4.07592
0.274556
0.523813
42.9958
37.3513
2.90755
0.753879
103.579
8.35043
30.5262
45.4522
5.69291
5.17159
67.0592
90.589
14.7432
0.416274
0.86297
33.3454
24.892
35.4385
3.092
2.51788
55.7125
51.8125
4.53615
47.3351
127.177
80.0807
34.8728
71.583
0.362407
22.228
45.9095
5.38706
0.3381
0.517403
28.3155
4.9209
4.21537
53.5447
1.67868
12.8579
3.86931
2.9029
10.3438
308.323
2.95977
30.3626
1.62265
29.2809
65.38
32.639
2.8269
7.2533
0.37618
0.509229
40.2522
13.4629
13.5077
82.8273
14.5653
28.4262
200.252
60.6346
35.5185
0.212463
64.1345
0.361021
1.04906
51.6845
27.7585
9.34832
1.31242
2.53435
6.06432
39.1874
0.367851
1.49633
35.6546
93.1234
1.82632
5.57611
2.82213
79.3865
94.167
114.528
1.84964
17.4935
67.5268
114.583
12.5972
38.9512
5.15407
22.7274
21.3566
66.3354
4.23676
23.3122
0.767069
5.54637
0.475368
4.77091
7.69624
5.2349
35.0961
0.200138
2.61246
113.531
30.6304
0.812746
3.52844
30.6833
44.7089
51.1553
25.9837
0.387831
3.5464
0.390474
0.485294
5.20827
5.25442
70.1354
0.64093
23.8668
36.0323
3.01972
2.18927
14.9281
8.94744
105.836
5.04271
0.274334
0.488954
0.664432
27.6844
2.20841
11.3419
0.774462
4.84397
1.10763
0.721456
3.20795
7.0835
5.92236
23.5928
18.864
1.03069
17.8186
2.88689
12.7688
3.52618
0.294104
1.70554
2.48742
3.84536
36.28
2.07854
22.0638
83.481
38.0577
57.5535
2.94963
6.36264
3.21802
125.18
5.63556
2.61326
6.09362
0.29363
0.508424
4.87572
0.79661
54.8168
237.962
15.9335
0.577099
0.984554
1.3568
0.1526
23.647
4.6707
63.1087
6.26473
35.2243
77.7141
0.217952
3.22573
3.86467
73.2376
1.18586
75.6186
3.10033
18.2043
0.837614
6.83112
1.32993
3.08801
9.56463
21.7703
24.5342
5.39329
2.28944
1.09029
0.58016
1.27107
4.15823
66.2252
39.6645
33.7613
37.2534
15.7537
19.102
3.30359
49.8207
1.23367
20.0141
1.51188
45.3527
40.3598
75.2435
11.433
0.822747
3.52126
0.263498
1.37361
5.43555
7.10057
3.13253
2.7343
95.3118
4.96391
2.21798
33.6193
7.86276
30.1235
26.9926
20.3737
41.7675
1.02903
2.86483
6.33681
7.24142
11.8084
0.704053
6.24058
29.7375
0.661688
3.10488
8.93675
1.76998
3.42645
0.768464
0.578257
0.593081
0.287698
3.90762
0.201244
2.56336
2.10212
8.69945
9.23699
0.54272
0.885782
28.7308
34.1366
13.6873
12.7038
1.23551
8.34135
2.85962
76.1332
47.2758
30.4982
221.511
25.7747
88.3675
84.0136
126.988
37.1131
0.33415
0.465542
0.725219
0.401832
0.464604
7.65283
32.2742
78.0788
0.369745
0.237418
2.93661
8.53029
11.5942
68.5111
1.38061
0.230548
55.5666
11.902
38.1378
26.9684
2.12461
4.00007
24.3032
20.2001
108.847
0.333912
13.6303
82.104
18.26
41.7693
38.934
0.263272
1.11907
9.22331
1.28011
0.908854
4.85691
0.704439
4.84498
5.78818
4.0357
0.996274
0.603012
3.35158
239.898
63.8701
0.580166
3.46318
0.81522
3.75995
16.9035
1.62294
16.4305
30.4033
1.34773
64.5053
5.27786
34.1529
104.732
169.914
55.9483
27.015
1.51579
2.95213
40.0227
7.0658
0.585788
0.241526
81.1594
2.85554
66.1068
0.869753
1.21284
10.8416
148.114
32.0228
1.02111
1.06903
32.5142
2.66138
16.1178
1.62952
3.29679
7.50693
121.918
0.533678
38.941
5.41418
0.316365
0.489026
0.384842
10.3271
0.338519
61.4461
2.38479
42.4354
106.577
24.7408
5.93393
127.209
8.11305
5.21503
193.405
3.48852
14.4298
131.357
5.94383
139.812
6.36045
0.359328
0.51322
39.8551
4.19519
4.72629
0.862914
1.26857
3.61772
16.7133
89.6376
28.3551
11.8683
13.594
104.613
28.6473
27.1926
10.7558
2.83751
13.9374
112.535
25.9003
168.256
9.28186
0.638511
1.08053
1.3237
35.5335
4.11609
54.6048
31.1353
14.6537
5.25229
20.6414
31.6529
1.34214
0.441851
4.63368
0.543502
1.70309
12.1928
2.19076
5.34212
8.17526
26.0301
36.5911
76.8658
25.1348
140.469
16.5039
0.867357
1.35542
0.865025
36.7917
0.411901
6.5946
2.51091
3.11554
0.589744
52.917
60.8298
5.61515
8.57027
14.1985
54.799
1.10479
0.960254
0.727793
23.8844
141.184
4.86697
3.73131
35.5757
66.8651
27.6685
9.65256
5.32049
34.2623
74.4775
26.4197
5.28799
7.29515
0.557334
37.953
0.304011
26.24
144.862
11.1826
1.44395
11.7366
9.1135
3.96785
25.8522
0.930178
29.6666
2.85272
0.160943
0.523713
18.1859
78.7657
13.4613
2.991
2.39453
1.45176
4.032
1.39693
0.125937
0.742042
1.66489
28.0761
76.5504
27.8779
22.7006
3.0521
140.756
62.9201
11.0335
1.14839
2.10699
4.2581
146.924
76.6341
44.4214
1.23979
0.321697
85.2111
6.26579
17.5578
10.7552
122.376
0.203561
113.809
96.0574
24.7464
7.79368
49.3357
283.837
4.33816
43.8857
0.210797
1.88215
44.1945
86.8224
3.4429
0.434384
1.34689
1.67008
0.998465
50.3081
3.64155
10.8808
225.407
8.24011
0.902815
24.5253
32.643
12.7581
117.665
0.233604
17.6708
0.53009
15.1919
59.0256
3.16733
18.6807
32.5296
7.39527
107.639
0.642661
1.67225
40.026
190.658
48.9102
78.4268
22.2154
144.129
1.43433
26.678
58.7213
5.24517
117.256
20.7955
121.655
21.8179
8.96152
255.818
43.2297
35.5657
9.12221
0.446961
0.510207
28.1987
0.842357
4.32235
0.806723
28.4059
31.1436
3.30505
0.192402
1.56988
14.4396
90.5325
3.14532
0.245617
13.0557
39.9425
29.2291
18.2138
1.0659
113.016
12.5848
1.91148
59.5355
74.2401
0.287564
47.7356
26.9078
75.237
34.9251
36.0039
12.1636
1.8561
0.796179
0.932905
3.93718
1.21255
7.58159
9.7796
84.1529
34.5492
19.4802
131.993
31.114
55.9039
6.42097
20.0139
35.5462
1.34605
16.5538
5.44558
64.5813
129.584
93.2803
8.90611
95.5095
0.578903
39.8316
42.6495
19.3062
0.593398
1.7776
98.0818
29.5197
4.98286
80.7663
94.1259
1.78891
47.4452
30.4391
78.256
91.4795
78.5163
1.34258
67.5782
0.253971
5.30826
0.485216
56.7033
28.5764
67.5312
1.31474
0.218483
100.688
2.28501
1.04904
12.2777
89.4037
37.5723
68.1274
150.242
60.1175
0.857027
0.887943
46.8366
13.811
215.874
79.2748
100.685
7.06037
9.55191
106.349
81.8853
0.452751
0.444811
6.13252
0.674902
0.878557
11.4185
116.678
14.1975
4.89174
41.3846
11.1784
9.34214
68.8814
121.46
67.7508
7.35381
32.9579
1.15624
27.8168
5.18484
20.2934
130.165
104.535
38.6947
78.7278
309.506
152.015
2.38201
0.40391
150.062
80.2228
1.11804
10.3937
0.721072
1.32024
51.0017
121.524
63.2882
23.3675
1.44381
84.3605
0.302589
4.54522
0.516191
5.05038
0.279012
68.9211
133.76
24.3299
8.32249
112.053
0.218014
1.11422
75.1243
48.16
53.8244
6.6166
11.8473
94.8953
81.4996
2.04831
5.31959
10.2059
25.948
4.31482
9.34636
79.9348
31.3128
34.4813
28.8862
47.0956
22.9188
26.387
0.197281
2.35652
46.6064
1.76744
13.9622
219.251
10.3435
79.6614
79.1195
0.846901
0.277674
0.461475
5.71289
58.9852
69.7728
67.5448
1.09351
12.3313
5.83879
8.06152
11.0377
8.77594
6.19575
6.31992
5.81057
5.29339
0.438512
0.208513
0.958249
116.018
48.2938
3.33078
68.7838
217.116
107.849
138.412
45.6139
1.50279
40.4584
11.3134
1.81964
66.2156
152.282
5.01092
1.97188
0.728551
39.2756
24.7404
84.885
4.23401
1.3795
37.6427
13.558
0.918224
1.32951
0.322285
0.764741
8.56717
104.19
10.9938
6.07478
95.6059
47.0759
77.4547
70.2564
8.64137
62.739
1.15384
19.6107
41.3375
32.0867
29.5083
0.438024
0.459256
43.6997
1.06151
69.3474
1.45132
92.1004
31.173
37.0847
1.78
40.4037
1.87791
46.6155
35.0929
27.8267
31.8835
26.4193
45.3206
47.428
0.766124
34.6352
35.1066
0.804948
9.70404
0.732016
2.44252
4.78471
17.2379
29.4681
7.1877
14.2434
166.623
0.597421
8.70388
0.550522
0.940745
144.037
92.4896
4.83153
0.425099
0.456715
11.7029
0.192684
0.385957
5.12374
0.523053
0.508971
6.2643
0.727344
44.473
1.15429
1.42769
27.651
54.9746
6.92097
30.0306
8.88687
6.91671
34.8082
77.776
34.7449
0.60054
35.1036
112.998
70.5448
45.816
10.0198
1.37056
0.161702
0.758509
54.9621
132.372
26.2215
4.36422
11.8013
8.5602
5.22713
4.32739
37.1751
43.4406
0.608016
59.1767
0.17148
8.59267
113.383
48.8237
79.5918
34.7075
9.56431
90.7964
38.9295
39.8725
6.26769
1.26224
4.32904
4.88761
7.08852
15.6723
0.734784
25.1912
27.213
109.959
22.7587
21.822
1.32463
0.806299
4.00957
86.9516
38.1469
35.9731
2.98203
95.7937
7.98412
4.55294
38.7223
0.969608
1.60713
24.9852
63.435
80.2332
35.8869
29.2263
52.1533
24.425
2.96538
1.01353
0.508593
6.18537
2.4299
454.495
103.246
2.93963
102.891
45.9812
4.77902
0.414161
9.80574
0.642702
3.52669
0.800493
42.6986
24.4072
40.2293
54.0281
31.9036
0.273709
0.896262
2.8795
1.36615
22.7121
47.8237
339.506
15.451
11.0475
0.1407
3.43566
111.063
60.1164
14.6089
29.9191
0.911876
12.2122
5.66708
1.16259
32.5172
84.8253
0.531539
7.80072
0.467538
7.95344
24.3107
3.70263
61.7209
3.736
170.625
12.764
63.3913
100.131
0.907107
1.44212
3.07047
18.9049
0.847115
5.16858
4.84579
37.7238
56.6805
72.4473
2.52605
4.76914
55.3553
1.29186
14.6289
13.4177
32.3882
62.5242
86.3878
0.382153
7.14018
0.445418
34.9766
11.7262
194.23
38.3834
2.1241
52.8112
124.852
63.0831
54.7097
2.49154
75.5548
53.483
27.0838
1.44977
0.462946
34.7476
2.0247
3.15739
17.32
5.05127
46.6211
324.092
167.662
6.95594
82.7567
1.45742
11.6837
18.7933
2.88718
82.8601
36.7365
0.232331
0.747038
0.814367
1.35969
14.4248
10.7768
93.124
37.2454
0.894716
180.112
3.99716
34.5889
94.8809
54.399
32.4034
20.6761
6.78722
82.6767
0.847345
1.15666
4.83932
0.274359
3.9059
15.1691
60.368
0.250755
27.8175
0.469345
1.83796
4.29592
42.4001
7.1218
8.01809
91.2472
51.9412
36.6505
10.4206
1.39154
0.847654
12.1901
144.229
9.24928
221.007
0.234048
1.31772
49.246
40.9138
0.794138
28.3534
102.53
1.28553
17.0748
52.2153
26.3293
73.9549
70.4174
10.6256
13.3355
0.920395
29.0514
85.2166
17.2039
122.04
27.9348
5.11442
9.29192
25.2609
15.2457
20.4605
81.4432
2.64515
24.6183
7.9427
0.871981
0.733956
36.5675
0.400959
0.827626
13.2397
12.82
17.6478
24.6985
50.9064
110.321
98.0051
58.6833
1.55268
0.756125
3.97635
0.52202
4.14947
22.921
8.38134
4.23645
4.16006
83.6647
5.7321
3.55324
3.23701
30.2278
76.207
0.284878
3.4187
3.1072
0.529133
58.1365
32.6634
1.23268
2.3722
51.967
96.3034
25.6518
1.01531
0.957779
1.50183
0.4237
7.21554
0.816971
0.964505
36.5251
1.14879
0.923549
35.5853
62.7669
0.7492
33.0689
0.782282
64.806
5.283
91.3824
2.58419
0.342018
5.55473
58.7886
82.8511
96.4184
21.647
49.1007
20.6326
3.54316
43.3342
18.32
11.911
1.1457
3.1044
0.215463
100.631
11.6801
24.2699
0.756842
40.5307
33.006
67.0177
14.016
369.205
13.1446
2.24094
0.907318
0.585595
6.09648
0.785936
1.42602
9.28296
1.09054
4.53479
0.798372
0.602342
5.55501
0.619262
5.5673
22.7078
47.557
110.466
2.64076
1.42472
0.709761
2.39565
62.0568
14.8411
22.6733
6.01438
97.282
130.612
89.7669
5.08109
9.92577
0.975503
1.36311
0.687125
29.1422
10.0106
39.6228
0.817846
104.904
269.407
146.554
0.707762
41.5759
30.6147
42.6853
0.69029
1.26368
4.26044
34.6267
1.27803
31.4669
54.5291
0.610145
0.227235
105.39
156.453
2.86245
20.2836
36.0788
9.53047
55.44
9.26283
0.765226
11.2626
89.0236
133.016
8.45511
107.212