/*--------------------------------*- C++ -*----------------------------------*\
| =========                 |                                                 |
| \\      /  F ield         | OpenFOAM: The Open Source CFD Toolbox           |
|  \\    /   O peration     | Version:  v1912                                 |
|   \\  /    A nd           | Website:  www.openfoam.com                      |
|    \\/     M anipulation  |                                                 |
\*---------------------------------------------------------------------------*/
FoamFile
{
    version     2.0;
    format      ascii;
    class       volVectorField;
    location    "0.45";
    object      U;
}
// * * * * * * * * * * * * * * * * * * * * * * * * * * * * * * * * * * * * * //

dimensions      [0 1 -1 0 0 0 0];


internalField   nonuniform List<vector> 
5794
(
(-0.189283 0.448069 -2.88725e-17)
(0.0934183 1.5839 0)
(0.747801 -0.222991 -1.58906e-16)
(0.770133 4.07038 9.1228e-17)
(0.762463 2.6093 2.64115e-17)
(-0.119576 1.43145 -1.09734e-16)
(4.16634 -0.173988 -1.38705e-16)
(0.274994 -0.268352 0)
(5.69088 0.819242 9.73591e-17)
(-1.46883 -0.421735 1.82893e-16)
(4.69629 -0.103942 -2.90704e-19)
(-0.569498 -0.625014 0)
(-3.53614 0.0296174 4.2313e-16)
(0.168456 7.9503 1.53743e-16)
(0.705844 -0.442014 4.5443e-16)
(0.581668 -0.0662049 -1.48132e-16)
(0.707669 -0.114794 4.52747e-17)
(-0.128357 7.90636 1.04377e-16)
(0.397372 -0.362897 4.32865e-16)
(0.0217824 0.90308 1.46428e-16)
(-3.07917 1.83764 -4.11232e-17)
(0.0427022 1.18292 -1.39886e-16)
(3.98529 0.286443 2.02695e-16)
(0.528778 0.0192585 -6.1768e-16)
(1.57454 0.235491 -3.90243e-16)
(2.95581 10.4763 2.04637e-17)
(5.76042 -0.773041 0)
(0.393502 2.64567 -1.41454e-16)
(0.421232 9.14676 -3.63503e-17)
(0.30545 -0.0129591 2.84285e-16)
(-0.132507 -0.916264 -5.97453e-16)
(-1.1461 -0.0400434 -5.01394e-16)
(-2.16198 0.120301 -8.7158e-16)
(0.911747 -0.986878 3.6112e-16)
(1.38116 -0.547144 -1.81608e-16)
(-1.27534 0.551713 1.79981e-16)
(9.69805 0.624048 -2.08851e-16)
(0.934432 -0.559265 0)
(4.28249 -0.293135 1.12348e-16)
(0.253597 3.2247 0)
(0.619016 1.14073 -1.10468e-16)
(0.6554 -0.72042 1.40679e-16)
(7.20843 0.106939 -8.60612e-19)
(0.0299116 0.185832 0)
(0.327951 -0.818154 -3.86471e-16)
(4.76829 -0.161845 1.31105e-16)
(1.75626 -0.15724 -2.804e-16)
(-1.34157 -0.363095 0)
(-2.71088 0.00964109 5.43128e-16)
(-0.111496 -0.70727 6.61344e-17)
(0.584456 -0.0696807 -1.61658e-16)
(5.8599 -0.220629 -1.77029e-16)
(-0.693727 1.18148 0)
(-2.36873 0.0622643 1.15499e-16)
(-0.0961241 -0.0865136 9.76571e-18)
(4.99861 -0.522004 0)
(1.59112 -0.334795 -2.32967e-16)
(-1.42108 0.199158 1.45553e-16)
(8.24535 0.0613308 0)
(4.47529 9.97294 -6.80667e-19)
(9.03691 0.4917 1.8391e-18)
(0.315011 0.999474 -1.16225e-16)
(0.233917 -1.4563 -1.36166e-16)
(-0.463048 -0.155908 2.13228e-16)
(-1.25681 0.154883 0)
(1.03089 0.340847 -2.31937e-18)
(0.182088 0.740359 -2.40604e-16)
(0.325906 2.88446 0)
(0.0468759 5.95073 -1.21528e-16)
(0.00337727 0.308486 -4.16767e-21)
(4.54929 -0.483161 1.36764e-16)
(0.322017 2.31133 -2.9305e-16)
(11.685 2.09755 -3.702e-18)
(0.116408 0.771724 0)
(-0.00755665 7.42223 1.06474e-16)
(0.629233 1.34454 1.84778e-19)
(-0.722288 -0.246828 1.20435e-16)
(1.60493 10.2444 -2.12684e-17)
(0.0628989 0.127195 5.73301e-17)
(0.730654 -0.0465292 6.3766e-17)
(-0.201721 0.887415 -1.80367e-17)
(0.179985 0.969983 -1.42166e-16)
(0.0313887 -0.421778 -5.75869e-19)
(3.6075 -1.57311 -7.21393e-17)
(-0.16233 -1.00248 -3.55288e-16)
(-0.079537 6.30438 -3.47551e-17)
(0.151992 6.34783 2.61292e-17)
(0.0261105 5.06047 -2.49475e-17)
(0.8897 -0.217722 -1.5456e-16)
(2.82808 1.82262 -4.15799e-17)
(0.906457 5.46583 -7.85655e-17)
(0.00186223 7.85964 -6.86119e-17)
(0.0058043 7.82337 1.21545e-16)
(0.117412 7.28317 5.89526e-17)
(-0.0647176 7.96463 2.63365e-17)
(-2.15428 0.0385813 5.17688e-18)
(0.00367217 6.039 -5.49134e-17)
(-0.0768824 7.65079 -1.31233e-17)
(-0.0393365 7.7358 0)
(8.74738 0.541049 -2.98194e-17)
(1.7892 3.41842 -1.11404e-16)
(-0.994445 0.124167 -3.81782e-16)
(8.09824 0.137697 7.18906e-17)
(0.215482 7.24892 -2.00433e-16)
(-0.762824 0.257599 0)
(0.140475 5.45056 0)
(0.0345567 0.981002 0)
(-0.400199 0.0698459 -2.62765e-16)
(-1.41546 0.578071 -1.18485e-16)
(0.0418407 0.0935082 -1.61777e-16)
(2.53946 0.420687 -2.51421e-18)
(1.11776 -0.265353 0)
(-1.33483 4.88003 1.01398e-16)
(-0.224916 -0.325482 1.38224e-16)
(-0.0570142 7.84429 0)
(-0.0366262 7.45513 0)
(0.312529 0.11576 -3.41247e-16)
(0.149375 8.28243 -8.82686e-20)
(9.29572 0.442485 -2.44986e-20)
(10.8267 0.656217 5.59897e-18)
(0.0146438 7.30243 1.02738e-16)
(0.397468 -0.0173166 0)
(-1.94119 -0.29528 0)
(0.401452 1.96289 -1.95028e-16)
(0.69292 -1.01623 1.80134e-16)
(4.69652 2.36162 4.94986e-17)
(0.396542 5.27204 0)
(-0.0307442 1.56953 6.74708e-17)
(6.009 -0.616436 1.17722e-16)
(-0.535634 -0.0377714 1.61033e-16)
(1.25429 -0.497824 2.72337e-16)
(-1.6103 -1.14857 1.75034e-16)
(-0.212395 0.754412 2.36017e-17)
(1.05161 9.90104 -6.44849e-17)
(0.0218416 6.12073 1.33477e-16)
(0.638764 -0.173899 0)
(4.19409 -0.209868 9.09224e-17)
(0.400875 0.995801 -1.71312e-16)
(-0.172383 -0.0573624 1.90099e-16)
(1.54816 -0.268119 0)
(-0.0646675 -1.11212 -4.7052e-16)
(0.250768 3.71687 0)
(0.946554 -0.670509 0)
(0.320967 4.17859 2.23252e-16)
(-0.292848 -0.17188 2.02643e-16)
(1.6012 -0.182173 1.73195e-17)
(-0.855125 1.34 1.97101e-16)
(7.58742 0.274236 2.29364e-16)
(0.0837876 1.76222 -1.82949e-18)
(0.489393 1.70648 3.62945e-16)
(7.04244 -0.164455 -1.71823e-16)
(-0.0317683 0.250171 3.00006e-16)
(0.125543 5.59072 0)
(-1.25644 -0.0176465 1.72404e-16)
(3.7589 -0.88406 0)
(2.71269 -0.0201293 0)
(3.35414 -0.728713 -2.19618e-16)
(1.28991 -0.472365 3.7122e-16)
(5.10317 0.181389 -2.60034e-16)
(0.499995 -0.2575 -1.36188e-16)
(-0.511545 -0.043538 3.7286e-16)
(0.810978 -0.257794 -3.57353e-16)
(2.56497 -0.270507 0)
(-2.82964 -0.0513065 -1.16384e-16)
(-2.96993 0.0175817 -2.92553e-16)
(-3.08329 -0.1026 1.60159e-16)
(-2.79107 -0.18013 1.04912e-18)
(1.8828 -0.16781 -3.55744e-18)
(2.69709 0.107023 0)
(0.57311 -0.181756 8.56267e-19)
(0.0847609 0.0293404 0)
(-1.85101 0.414835 -1.11871e-16)
(-1.60668 0.440011 0)
(-0.194125 -0.742467 9.46552e-17)
(0.884746 -0.123593 4.03706e-16)
(4.12229 0.115528 0)
(0.685314 0.0535063 -2.17313e-16)
(1.58452 0.00786065 -2.28878e-16)
(0.13994 -0.304254 -8.49098e-17)
(6.07061 0.106203 6.65395e-18)
(1.89264 -0.0220183 -4.5156e-18)
(-0.614814 -0.231757 0)
(1.9656 -0.0813277 0)
(-1.92299 -0.32764 1.21456e-16)
(0.244912 -0.424831 0)
(-0.758864 -0.964337 6.41035e-17)
(-1.03392 0.0608722 -1.35429e-16)
(-1.23171 0.303417 -9.83382e-17)
(-2.33869 -0.117555 1.09693e-16)
(-0.848872 0.074221 3.06409e-16)
(4.60512 -0.0647243 -3.33234e-16)
(-1.16422 -0.0833052 3.61957e-16)
(-2.30669 -0.0860778 5.81085e-16)
(0.5447 -0.551277 5.68545e-16)
(-2.33037 -0.662095 -8.4782e-17)
(0.865104 -0.0937973 -4.8361e-16)
(0.967055 -0.192969 -2.15049e-17)
(-1.37955 -0.2423 -1.48373e-16)
(-0.175217 -0.285504 -2.72271e-16)
(6.2484 -0.0467338 1.19823e-16)
(4.40858 -0.0501048 -1.54334e-17)
(5.75346 0.0117022 0)
(-0.536179 -0.475627 0)
(0.0971435 -0.282748 1.07046e-17)
(1.80148 -0.0419556 -6.21279e-17)
(4.70519 0.0317267 0)
(-1.05773 -0.485928 9.69343e-18)
(0.320205 -0.0913443 2.13367e-19)
(4.6323 1.27539 -6.22944e-18)
(1.85474 8.57841 1.21238e-16)
(-0.0241696 0.0611099 1.4102e-16)
(9.62585 -0.00938455 0)
(-1.75702 0.119748 -9.02376e-17)
(1.31974 -0.60136 1.52863e-16)
(0.597683 -0.541375 0)
(2.08785 0.194167 6.16845e-16)
(2.02995 0.480064 -1.35552e-16)
(0.334329 0.910405 9.80211e-17)
(4.07369 -0.189637 1.29427e-16)
(1.35651 5.60734 -1.69799e-16)
(9.54126 -0.007989 0)
(2.59613 0.766514 1.9013e-16)
(-0.385415 1.85465 0)
(0.152209 5.44562 2.45764e-17)
(4.99059 0.120513 1.29067e-16)
(11.558 0.759621 2.15717e-18)
(0.769264 0.192689 -7.25313e-17)
(-0.707189 -0.698483 -1.01459e-16)
(-2.55316 -0.347407 0)
(0.451364 0.422067 -2.92551e-16)
(-1.42968 0.667379 0)
(0.657294 0.181211 -6.21252e-17)
(0.597766 -0.365096 -9.83196e-17)
(-1.07884 0.744123 1.47838e-16)
(1.83043 -0.166731 1.49358e-16)
(10.2374 0.0696387 5.45143e-18)
(8.06269 1.02042 1.92194e-18)
(7.19868 0.511365 2.8151e-17)
(-2.06048 0.17647 -1.51894e-16)
(-0.60631 0.579374 -3.79274e-16)
(0.180803 0.725313 0)
(1.19982 0.735788 1.13814e-15)
(1.41999 4.69204 2.06851e-16)
(-0.558171 0.568698 -2.3351e-16)
(-0.744575 0.10344 2.65327e-16)
(2.17034 0.887851 2.17576e-16)
(0.154317 -1.10316 -1.2782e-16)
(-0.175132 1.23371 8.34189e-18)
(-0.12108 5.85032 0)
(-0.0397612 6.59932 0)
(-0.000142429 5.72619 0)
(0.64476 0.372295 2.4966e-17)
(2.25742 -0.767264 -7.54591e-17)
(-0.582097 0.310808 -1.38785e-19)
(7.12021 1.19967 -5.66581e-17)
(4.17109 2.88066 -1.05796e-17)
(8.00212 0.208442 -1.4831e-16)
(8.90491 0.51939 1.54603e-16)
(0.0413212 -0.429476 2.77851e-16)
(0.495853 -0.808283 0)
(5.86115 -0.0667452 -1.09959e-16)
(-1.84937 0.0160553 7.93509e-17)
(1.57059 -0.597669 -8.55147e-17)
(0.778352 -0.594092 0)
(-0.549581 -0.118993 0)
(-2.29489 0.0150848 -4.95346e-19)
(0.359066 2.47811 1.27187e-16)
(3.71957 0.788309 0)
(-0.0880382 -0.355337 -6.60375e-16)
(4.26307 0.0319943 -1.21957e-16)
(1.95174 -0.260808 0)
(0.38019 -0.758537 -2.81465e-16)
(1.14626 0.709508 -4.52322e-16)
(4.77207 -0.358731 -1.66896e-16)
(9.37286 0.0828572 3.50849e-17)
(0.656983 0.143274 2.8682e-16)
(-2.09217 0.0592502 -1.2626e-16)
(0.599813 -0.794749 -8.13878e-17)
(-0.520008 0.262297 -1.66825e-16)
(-1.90558 1.51964 -2.23564e-16)
(-1.59919 0.00800061 2.77688e-16)
(0.878411 3.13799 2.55099e-16)
(1.00337 1.54633 1.07324e-16)
(0.717517 -0.666514 -3.97209e-16)
(0.583937 4.5096 4.77802e-17)
(-0.084317 5.48437 1.05412e-16)
(-0.0183486 6.98927 1.00951e-17)
(0.0588381 6.64617 0)
(0.589897 5.57584 4.216e-17)
(-0.0620926 7.30796 0)
(-0.928589 0.822592 -1.54424e-17)
(1.91795 0.00317981 -1.06605e-16)
(0.802177 -0.470942 2.13431e-18)
(-0.467919 -0.0337159 0)
(7.90712 1.72245 0)
(0.968164 7.73124 7.14656e-18)
(1.72048 2.51957 5.14837e-17)
(0.528553 -0.639165 -1.86934e-19)
(0.637696 5.05388 -1.85052e-16)
(1.03903 -0.870815 -1.44828e-16)
(0.142883 0.822541 1.04642e-16)
(-0.413227 6.56889 0)
(0.0364612 0.448182 -8.00457e-16)
(0.612862 2.00587 0)
(0.145077 0.600974 -1.81505e-16)
(3.5148 0.270212 1.61072e-18)
(-0.544586 0.136126 -2.29192e-16)
(0.233222 3.82903 2.40703e-16)
(4.8902 0.114417 2.41903e-16)
(2.34467 -0.177189 0)
(0.599723 -0.500096 -5.96892e-16)
(-0.202019 0.472866 -2.98864e-16)
(1.28545 7.52826 -1.34024e-16)
(-0.0201125 -0.51254 -7.75749e-17)
(10.5644 0.121434 0)
(9.95891 0.305055 -1.74705e-17)
(-0.153924 0.0689859 -9.37624e-17)
(0.340458 3.43617 -2.53662e-16)
(-2.08325 0.376655 -2.11926e-16)
(0.559745 7.47756 -3.89536e-17)
(0.746226 0.495393 4.28928e-16)
(3.05934 -0.772947 -1.52674e-16)
(0.272376 7.93148 -6.89604e-17)
(0.587177 2.00669 -8.46114e-19)
(-0.153201 -0.297925 0)
(2.42613 -0.25146 0)
(-0.88299 1.03213 0)
(-0.0666529 -0.346388 6.94805e-17)
(-3.02363 -0.353336 -2.81449e-16)
(4.49293 -0.125221 2.91717e-16)
(6.12731 -0.031366 -6.90288e-18)
(6.41476 -0.125483 2.99358e-16)
(-0.597771 -0.297031 8.84895e-17)
(-1.84859 0.261204 4.8198e-16)
(-1.19969 0.0446441 0)
(-1.86791 -0.263466 -2.04707e-16)
(-0.392416 -0.36668 0)
(2.87783 -0.0172703 0)
(-2.4734 0.0133188 -2.53608e-16)
(-0.599041 0.0188834 0)
(0.544628 -0.0335947 4.12326e-16)
(1.52587 0.0662115 3.96758e-16)
(6.213 0.374201 0)
(4.01995 0.0951184 0)
(0.579879 0.104483 3.76965e-16)
(1.86284 -0.0381503 3.31893e-16)
(-1.11757 -0.528123 3.16144e-16)
(0.159727 -0.139017 -2.30297e-17)
(-2.99278 -0.156145 -1.19898e-16)
(1.6184 -0.339566 7.14929e-17)
(4.53628 0.286474 5.34303e-17)
(-0.0186588 0.165956 2.58047e-16)
(-2.39729 -0.164183 -2.19468e-17)
(-1.03816 -0.172412 1.45926e-16)
(1.3941 -0.352034 0)
(-1.83033 -0.700608 0)
(-1.10793 -0.207467 1.53464e-16)
(5.18236 -0.417542 1.68515e-16)
(4.08111 0.0357061 5.43765e-17)
(0.437907 -0.30611 0)
(0.161743 -0.0417093 -2.65986e-16)
(0.841512 -0.96544 4.71989e-16)
(4.62922 -0.0919226 3.5892e-17)
(3.34681 -0.377221 -2.54673e-17)
(0.877637 -0.562718 -2.62854e-16)
(-1.734 0.541203 3.43677e-16)
(-3.21757 -0.013817 -3.68807e-17)
(4.2075 -0.339329 0)
(1.34948 -0.188885 3.60176e-16)
(-1.51286 0.0388298 -8.63538e-17)
(-1.39599 -0.631792 -1.11575e-16)
(1.40975 -0.284346 0)
(-1.49713 0.694924 -8.51277e-17)
(0.484014 -1.6658 2.44005e-16)
(0.458965 0.0693986 8.66894e-17)
(-2.7972 0.162006 1.35825e-16)
(3.72949 -0.0383432 0)
(0.92723 0.0227495 1.04277e-16)
(-1.24511 0.522561 0)
(-0.477191 0.096458 1.31863e-17)
(-0.485443 -1.10055 1.4168e-16)
(-1.02285 -0.6751 0)
(10.7422 0.089325 0)
(-1.95095 0.287805 1.212e-16)
(1.02418 -0.559424 -5.67658e-16)
(1.29401 -0.995857 -2.73887e-16)
(0.113474 8.5499 -2.9233e-17)
(-0.55126 -0.384115 2.52216e-16)
(1.91801 -0.523435 -8.01595e-16)
(-2.56784 -0.26681 0)
(2.09743 -0.0949285 -6.36666e-16)
(-1.04718 1.22205 -5.44911e-19)
(0.0414257 0.360165 -2.50618e-18)
(-0.671472 0.382007 1.34124e-16)
(-0.883763 0.393591 8.40786e-17)
(-1.53071 -0.286407 -8.88154e-17)
(0.341449 -0.338343 1.05562e-16)
(0.693361 0.334919 0)
(-0.252764 -0.0872473 0)
(3.74115 0.23359 -2.18785e-16)
(0.487198 -0.264485 1.34136e-16)
(1.86699 0.089378 -3.71388e-16)
(9.32094 -0.408642 3.26785e-17)
(1.71407 0.551957 1.59553e-16)
(1.04737 0.00964769 0)
(6.35707 0.963222 4.54099e-17)
(1.69091 2.02463 1.20785e-19)
(-0.167196 1.08601 1.95741e-16)
(0.154563 0.861224 -3.47819e-17)
(-0.269101 5.61742 -6.05793e-17)
(0.000356132 7.64966 2.01038e-17)
(0.0936028 7.74312 0)
(0.785855 0.465885 1.72852e-16)
(-0.956156 0.311187 2.71322e-16)
(4.9685 -0.0212004 1.9834e-17)
(2.09256 -0.126793 7.62697e-17)
(0.36987 -0.238226 0)
(0.0937099 4.17096 1.50851e-16)
(-2.42734 0.179827 0)
(-0.166261 6.16276 3.80078e-17)
(-0.0412389 7.73625 -5.23184e-17)
(-0.112689 7.77078 2.72683e-17)
(-0.101221 -0.0272055 -1.52518e-17)
(-1.82305 -0.528115 -3.25508e-17)
(-2.32874 0.0969494 0)
(-0.0641088 -0.371876 0)
(1.70859 -0.209044 -1.66966e-16)
(-0.353932 -0.162157 -1.81495e-16)
(0.258803 1.43365 -1.20209e-17)
(-0.137816 1.11472 4.85236e-17)
(3.60508 0.691138 3.11046e-16)
(9.96037 0.172361 1.23956e-17)
(0.342625 3.22145 -2.44705e-16)
(1.06748 -2.99356 -1.93178e-17)
(-0.219742 -0.772245 2.74222e-16)
(0.355477 0.077991 0)
(-0.201504 -0.402147 1.56581e-16)
(1.53178 -0.749455 -8.95725e-18)
(-2.6351 0.0842347 -7.39255e-17)
(0.61091 -0.433048 2.06411e-16)
(2.05751 -0.511378 1.71541e-16)
(9.91177 0.10129 -2.41819e-16)
(-0.943332 -0.343099 0)
(1.80755 -0.183518 6.44714e-17)
(0.808578 -0.26525 -2.06353e-18)
(-0.0117923 7.44318 -5.76067e-17)
(-0.0309692 7.87412 1.77873e-21)
(0.110106 -0.224668 0)
(1.94879 -0.430619 1.85361e-16)
(1.09028 0.366783 -8.02234e-17)
(0.240166 -0.234324 -2.15224e-16)
(0.111158 1.27403 -5.90148e-17)
(-2.70754 1.33966 4.24918e-17)
(0.0319224 1.096 -4.85143e-16)
(-0.0525064 6.76822 -2.49388e-17)
(0.281866 -0.304643 -5.37225e-16)
(0.341825 5.07836 -2.19393e-18)
(-1.58716 -0.50445 -2.142e-16)
(0.0687864 7.40451 -2.62962e-17)
(0.929638 6.2563 8.85886e-17)
(0.132997 0.640364 -1.08671e-16)
(0.0652264 1.24815 -1.97063e-16)
(-1.16977 1.75194 1.45188e-16)
(1.68318 1.07024 -2.81328e-16)
(8.38315 0.583219 8.97538e-17)
(-0.535516 -0.0399579 -2.76841e-16)
(10.3706 0.330784 -2.22099e-18)
(2.15947 4.34608 6.08724e-17)
(0.47821 0.0816774 -4.39241e-16)
(0.0357477 0.164088 -7.36827e-17)
(-0.158935 0.011608 3.9523e-17)
(6.44754 1.25546 -4.97733e-18)
(1.4628 0.693036 -6.82509e-17)
(-1.71249 -0.337993 2.07893e-17)
(-1.88144 -0.353576 -1.60241e-16)
(-0.998749 -1.01621 1.11394e-15)
(8.81864 2.49342 -2.77333e-18)
(0.333434 3.22807 1.53534e-16)
(-0.509126 0.449145 2.05749e-16)
(0.110346 1.288 4.6981e-17)
(-1.70302 1.46941 2.21625e-16)
(0.146689 0.632978 0)
(-0.998735 -0.365049 -1.71079e-16)
(-2.07565 -0.556905 8.81428e-18)
(-0.0531961 0.0474781 1.7482e-16)
(3.34412 -0.116904 -6.00844e-20)
(9.68986 0.0332072 0)
(1.33372 0.171197 1.96897e-18)
(0.409545 -0.0442473 -5.31392e-17)
(-0.0690897 0.94223 1.75429e-19)
(0.23815 1.30828 1.73741e-16)
(0.507381 5.68175 -1.21796e-16)
(0.307395 7.04076 3.62572e-16)
(0.350562 1.3973 8.02769e-18)
(1.36335 2.20459 -3.35513e-19)
(2.64436 0.0767413 1.64619e-16)
(0.179355 0.155902 0)
(-0.78967 -0.975861 0)
(0.493529 -0.401906 -3.26248e-17)
(6.79623 0.825602 -1.38225e-19)
(2.60732 2.64817 2.29506e-17)
(9.07382 1.38122 -5.84913e-18)
(10.3385 0.549456 3.14449e-18)
(1.32073 0.469339 0)
(0.252958 3.84984 0)
(0.0954983 1.10401 1.99097e-16)
(0.113624 0.364565 2.27004e-16)
(8.81079 0.482337 -4.35977e-16)
(1.50873 0.692986 0)
(1.10463 0.113706 0)
(-2.10031 0.129289 2.0087e-16)
(-0.526768 0.00735281 1.38663e-18)
(-0.504739 -1.23377 -1.57707e-16)
(-0.104803 -0.23632 1.97592e-16)
(0.517278 -0.837071 -8.47752e-17)
(-0.0887235 7.79628 -2.39196e-17)
(-0.0598335 7.51035 -1.36378e-17)
(-0.216724 -0.207896 -2.611e-16)
(9.81371 0.174241 -6.41637e-17)
(9.31348 -0.016523 3.72832e-18)
(-0.236128 0.671758 1.45456e-16)
(0.203728 1.04152 -3.59718e-17)
(1.32813 3.02412 -1.04105e-17)
(-0.146594 8.20834 -1.22693e-16)
(-0.260199 0.0185278 1.04723e-15)
(0.0307371 0.93682 6.36993e-18)
(-0.283382 0.271964 0)
(5.38718 3.69631 6.51408e-17)
(-0.00990516 0.985888 1.04794e-16)
(0.0614645 1.08628 2.08054e-20)
(-1.05263 2.69598 1.58555e-16)
(-0.695463 -0.237373 0)
(10.5882 0.108245 0)
(-0.3502 -1.05465 -5.63875e-17)
(-1.77895 0.477464 0)
(1.30699 -0.613881 6.93344e-17)
(9.99043 0.068327 -1.00971e-16)
(4.6829 -0.0397388 7.40809e-17)
(-0.517053 0.000961688 1.21936e-16)
(6.86481 0.0121606 9.33137e-17)
(-0.017339 1.21822 7.40297e-17)
(-0.577421 -2.58031 1.63753e-16)
(0.163542 1.11846 1.96086e-16)
(0.258485 7.41036 -9.01411e-17)
(-1.46104 0.99904 -6.25339e-17)
(-0.495479 -0.214435 0)
(9.62652 0.853504 0)
(0.32396 4.23082 -2.08883e-16)
(-0.430629 -0.343814 -1.8299e-16)
(-0.0323415 1.04143 6.21224e-16)
(0.351254 6.85779 -2.25031e-17)
(-0.292607 0.193528 0)
(0.521489 -0.084683 -4.27187e-16)
(0.0954624 0.320837 -1.90056e-16)
(-0.00362022 0.928349 1.54079e-16)
(1.18594 -0.200019 0)
(-0.310518 2.93386 0)
(0.0447245 1.11152 0)
(0.00152359 0.88964 -1.6687e-16)
(0.258639 2.8017 6.34565e-18)
(10.1027 2.81246 -2.59819e-18)
(0.176535 0.0248242 0)
(5.28807 1.29956 0)
(-0.397962 0.295402 -8.92262e-17)
(0.408484 7.82247 6.39123e-17)
(0.0957901 0.562814 0)
(0.691413 0.105302 3.80199e-16)
(0.268816 -0.273229 -4.18512e-19)
(-0.0707061 0.488214 -1.60445e-16)
(1.21716 -0.369485 0)
(7.92322 0.600252 -6.17039e-17)
(-1.61405 0.702451 -1.48897e-16)
(0.553532 2.8702 7.39929e-17)
(0.147927 4.6083 0)
(0.698952 4.38987 -9.69682e-18)
(9.82476 0.263859 -1.93408e-17)
(2.08435 3.50066 -3.99722e-18)
(0.595634 5.29132 -1.25032e-16)
(0.380127 -0.722289 -2.53408e-16)
(1.14632 2.10255 -4.2679e-16)
(0.0560184 6.83872 -1.08647e-19)
(-0.0326676 7.75115 3.77334e-17)
(2.58583 2.52984 0)
(10.9249 -0.35161 2.05232e-17)
(-2.65054 -0.233016 1.34922e-16)
(8.75907 0.821744 -1.14641e-16)
(-0.429061 -0.0166303 1.6688e-16)
(0.00510014 6.86476 0)
(-0.0560034 7.89826 -4.19385e-17)
(-0.226147 4.7313 1.8428e-16)
(1.14037 -0.0280039 -6.5976e-18)
(-0.0114022 1.32375 5.07507e-17)
(0.62007 0.834325 5.96178e-18)
(0.0315174 6.45428 -2.79816e-17)
(-0.0657255 7.60919 -2.40807e-17)
(1.94808 8.71522 5.49923e-17)
(-0.555066 -0.0159033 1.81394e-17)
(10.1021 0.176927 0)
(0.55479 -0.331843 4.57649e-16)
(-1.11345 0.127036 -8.97792e-17)
(0.772261 0.191422 -3.13312e-16)
(7.38308 0.587001 1.63134e-17)
(-0.0444941 7.71788 -3.7051e-17)
(-0.02563 6.5423 1.9227e-16)
(0.643652 -0.652034 -2.85034e-19)
(-0.449867 0.0829676 -1.17381e-16)
(0.991859 7.08972 0)
(-1.05087 -0.275409 0)
(-0.100067 -0.228952 -1.93259e-17)
(-0.797326 -1.28616 0)
(2.86754 5.22161 -5.93284e-17)
(4.25294 3.70187 0)
(0.912325 7.41557 -1.33336e-16)
(2.01386 1.1718 5.11168e-17)
(2.00455 0.225198 2.73343e-16)
(0.693879 -0.288199 4.91373e-17)
(7.10767 0.668318 -1.46966e-17)
(3.8568 -0.00819525 -2.28013e-16)
(7.50235 0.137341 -2.86202e-16)
(3.03651 0.438679 0)
(0.14543 0.993098 -7.77669e-17)
(5.04722 2.9278 1.58115e-16)
(3.54781 1.64873 -7.24086e-17)
(0.0100336 0.000142203 -3.58009e-16)
(0.197157 1.03728 5.52141e-16)
(0.0119237 0.93049 3.25861e-17)
(0.511285 -1.78896 -3.35834e-16)
(0.367665 2.85079 1.11338e-18)
(0.935255 1.04848 -2.39139e-16)
(-0.813256 -0.065409 1.70094e-16)
(-0.35558 0.710949 8.43865e-17)
(0.181385 1.37507 0)
(0.0744585 0.382258 -7.51135e-17)
(-0.435459 0.67984 -7.51052e-17)
(0.25863 0.945601 2.89883e-16)
(-1.29911 -0.445995 -9.15347e-17)
(0.970554 9.04215 -3.27408e-17)
(10.6193 0.426908 -6.99066e-17)
(-2.41136 0.0542951 7.23029e-17)
(0.36792 3.22543 -4.63348e-17)
(-1.05683 0.692105 -1.26064e-16)
(8.5179 0.155002 3.49326e-16)
(3.91338 -0.133011 -2.35835e-17)
(-0.0518731 7.86132 2.79826e-18)
(4.15235 -0.159439 2.42515e-16)
(-0.0236673 4.58746 -1.78699e-16)
(0.004806 6.45158 7.27537e-17)
(7.08841 0.399181 0)
(-0.168807 -1.6235 -8.8467e-17)
(-0.0148261 0.025176 2.80281e-17)
(0.0554948 0.402636 0)
(-0.182415 0.228597 -1.95394e-16)
(-0.324576 -1.20843 5.3002e-17)
(0.863123 0.164943 2.81374e-16)
(1.35291 0.441972 2.37797e-16)
(3.77878 0.185455 -4.07882e-17)
(8.99407 0.505917 -1.20386e-18)
(1.77552 1.96323 -1.31176e-16)
(-2.00671 0.208328 2.34573e-16)
(0.793275 -0.970108 -2.8864e-16)
(-0.373369 -0.285546 1.07604e-16)
(-0.913061 -0.256932 0)
(0.105788 0.688418 -1.10511e-17)
(-2.09069 1.51433 -2.45908e-16)
(0.129516 1.30265 1.79349e-20)
(-0.032842 6.66684 2.28864e-17)
(0.209058 5.30257 -2.89197e-18)
(0.0233462 5.43673 -1.04838e-16)
(0.104247 6.92275 2.52389e-17)
(1.9446 4.42084 -1.4112e-16)
(7.04508 0.338006 6.95514e-17)
(0.364099 0.43322 0)
(10.5592 1.03105 0)
(-0.667009 -0.337501 4.36251e-16)
(-1.59771 0.287645 4.40548e-16)
(-0.0270962 7.67907 1.14319e-16)
(-0.0111628 6.64171 -1.29214e-16)
(-1.62864 0.383441 1.09049e-16)
(1.08963 7.46711 -3.64832e-17)
(-0.543813 0.386195 4.5785e-17)
(0.140352 0.55714 2.26722e-17)
(0.371199 -0.168779 1.94548e-19)
(-2.2338 -0.350846 -5.06273e-17)
(-0.204646 -0.522249 -1.0075e-17)
(0.217016 3.08154 -4.75294e-17)
(3.37449 -0.0773973 -3.98891e-16)
(1.00202 4.6154 6.24371e-18)
(-0.487187 -1.07181 1.38438e-16)
(-0.462764 0.345699 0)
(-0.137173 -0.153478 0)
(0.0104589 2.44213 0)
(0.760006 5.91273 2.29999e-16)
(0.798377 8.94656 2.1545e-16)
(-0.0018931 7.93517 1.84709e-16)
(-0.241768 -0.213058 3.58197e-17)
(5.75328 3.23057 -3.85686e-17)
(0.280864 0.0887364 0)
(0.128805 0.91663 8.60274e-17)
(0.191308 0.362465 3.46538e-17)
(10.5075 0.0589163 -7.28464e-18)
(-2.34323 0.0532742 -7.98517e-17)
(-1.48733 0.405053 3.07854e-18)
(-0.957445 -0.19285 -1.44806e-16)
(8.85685 0.366791 -1.99245e-17)
(0.239993 2.63897 0)
(3.36284 1.14491 -3.48352e-16)
(2.84389 0.581121 2.01095e-16)
(-1.75682 -0.627137 0)
(-0.233535 -1.45322 5.92229e-17)
(1.30337 2.20224 -2.54334e-16)
(8.5343 0.142346 0)
(1.65532 5.63268 -4.68327e-16)
(0.158849 6.99657 -1.04396e-16)
(0.771813 3.72684 0)
(1.09207 0.543089 0)
(11.3639 0.286775 4.22564e-17)
(10.3272 0.367019 3.27472e-17)
(9.05224 1.25773 2.03969e-18)
(5.29475 2.16588 -1.32508e-21)
(0.313662 2.43192 0)
(1.34913 0.548521 1.98043e-16)
(1.39499 7.81277 -2.73367e-17)
(4.47422 -0.0673146 0)
(-0.204739 -0.680046 -4.06337e-16)
(3.36016 2.729 2.27153e-17)
(0.152645 0.374408 -1.41057e-16)
(9.27796 0.928974 -5.09879e-17)
(10.8335 0.0438546 7.5922e-17)
(1.66373 1.75474 -1.8154e-16)
(9.86964 0.424108 -1.51544e-17)
(0.060391 7.92992 1.25084e-16)
(0.533041 8.87138 3.80108e-17)
(0.572993 6.6043 -1.03634e-16)
(6.65864 3.58124 0)
(-0.348251 -0.114226 1.42752e-16)
(0.159923 0.190225 -1.89311e-16)
(1.29097 0.151661 2.69775e-17)
(-0.103258 0.0904986 1.33216e-16)
(0.00392926 7.82776 1.6291e-21)
(-0.00458547 7.74154 1.65677e-19)
(0.538354 5.86006 7.35084e-17)
(0.492171 0.424861 0)
(-0.63424 0.238117 0)
(2.54422 -0.753422 7.99258e-17)
(0.374012 0.26691 1.78127e-16)
(-0.0336091 5.45457 -9.96767e-17)
(-0.0488322 6.97695 -2.81034e-18)
(-0.251212 2.26567 0)
(1.69236 1.15973 -3.45878e-17)
(10.0614 0.113729 8.34669e-17)
(-0.0068575 0.449386 0)
(-0.0314209 0.197779 -4.7235e-16)
(-1.87921 -0.760881 5.78349e-17)
(0.0709659 -0.265997 2.57446e-16)
(-0.0814058 7.8959 5.01879e-17)
(-0.0435229 6.98127 1.40001e-16)
(9.51867 0.961345 0)
(0.254352 7.06949 -3.64274e-17)
(-0.0258907 7.95357 -2.55937e-17)
(9.4379 1.17048 -9.37483e-17)
(0.244358 0.853254 -7.2908e-20)
(7.61221 1.93988 6.68743e-18)
(0.0618877 6.70938 6.49773e-19)
(-0.0447782 6.78525 0)
(0.0193829 5.31168 2.95895e-18)
(0.189609 5.18572 -9.43921e-17)
(0.223066 6.77673 -3.08345e-17)
(3.54946 4.01121 1.41295e-16)
(0.114699 0.235746 4.96031e-17)
(-0.0297783 7.31669 1.88348e-16)
(-0.0107782 7.96079 0)
(-0.294397 5.25733 -1.40188e-16)
(0.0682052 2.29171 2.66242e-17)
(-0.255323 -1.40351 -1.22753e-16)
(-1.37379 0.66518 6.12856e-17)
(0.0734966 0.22548 4.25541e-18)
(0.0587079 0.914492 1.18817e-16)
(-0.373553 0.348894 0)
(0.802236 4.86102 1.10086e-17)
(-0.0562616 1.24494 -2.15497e-17)
(0.487889 0.0130299 -1.2159e-16)
(8.95891 0.844263 -7.98901e-19)
(-0.255816 2.138 -3.2827e-17)
(0.0509873 0.812754 -2.2541e-16)
(0.0332131 1.14618 -1.68732e-16)
(0.127825 6.43663 -1.98969e-16)
(0.0168888 7.60106 0)
(0.545189 0.122883 2.39338e-16)
(0.0949072 6.38878 8.63137e-17)
(0.0116786 7.54079 1.9157e-17)
(0.246727 -0.266038 -8.27324e-17)
(3.50856 3.4984 -1.48431e-16)
(-0.910406 -1.37786 4.7714e-16)
(0.0118132 -0.906954 5.56302e-16)
(1.05803 0.914819 -2.41956e-16)
(0.0699995 7.11459 1.91715e-16)
(0.221259 1.38406 -3.30887e-16)
(-0.722203 -0.451282 -1.74074e-16)
(-0.0320161 1.1214 -1.12955e-16)
(0.93931 9.16195 0)
(9.74967 0.1073 0)
(-0.0386239 0.0662117 -2.8937e-16)
(-0.0291747 -0.426416 1.9092e-16)
(0.0363296 -1.50851 -5.69197e-17)
(-0.0171402 0.553801 0)
(-0.272251 0.202409 1.0878e-16)
(0.453425 -0.0228506 -3.42422e-20)
(0.694928 0.277112 -6.04906e-16)
(4.05752 0.0862265 2.19732e-16)
(0.984631 4.82283 1.14208e-16)
(0.0385518 7.36354 -2.39508e-16)
(0.35483 -0.868969 3.74895e-16)
(-0.131595 0.207203 -1.79242e-16)
(9.64911 0.924156 -1.3155e-17)
(0.491553 3.30279 1.97706e-16)
(2.08478 0.591352 1.34644e-16)
(0.336824 -0.836912 0)
(-0.940435 0.795229 5.32342e-17)
(2.07228 1.28496 -7.14555e-16)
(0.0648634 0.853767 -2.33344e-17)
(-0.00169309 1.06354 2.68342e-16)
(0.71203 3.14437 2.1764e-17)
(8.4525 0.552012 -1.12899e-16)
(10.3039 0.149824 -1.73756e-19)
(-0.662499 -0.200332 1.66058e-16)
(11.0304 0.0508511 0)
(-0.487361 0.365385 -4.55851e-18)
(-1.68274 -0.629161 2.03012e-18)
(-0.452776 -0.558185 -1.70012e-17)
(-0.0335799 7.85003 3.22828e-17)
(-0.0262738 6.77434 3.65637e-17)
(0.00336611 4.87253 1.75056e-17)
(10.4906 0.0398455 1.38208e-17)
(-0.310263 -0.981567 -3.46655e-19)
(-0.054868 7.28096 -4.38238e-17)
(-1.60265 -0.796449 -6.56237e-21)
(0.957006 -0.790609 0)
(9.24904 1.75222 -4.83609e-18)
(-0.821421 0.260796 0)
(0.560376 0.205325 8.89847e-17)
(-1.12125 0.316698 7.56209e-17)
(0.135525 0.759222 4.64446e-18)
(0.549736 0.271513 2.42654e-16)
(-0.35715 -0.25637 3.44855e-16)
(9.23424 0.724739 -1.71577e-17)
(0.226896 -0.596084 2.40836e-16)
(-0.253174 -1.25047 2.72141e-16)
(9.46617 1.11012 9.58815e-17)
(9.70411 0.345142 3.96496e-17)
(6.04025 3.21347 2.76774e-17)
(0.0175651 7.54992 -3.79494e-17)
(0.00715942 6.32258 2.44103e-17)
(0.144054 3.00695 1.03546e-16)
(0.262781 1.67225 0)
(4.11632 0.732953 4.62065e-17)
(5.62705 3.08349 8.41941e-17)
(9.38503 -0.26576 -2.06603e-17)
(0.314011 0.585801 1.14096e-16)
(0.730206 -0.875091 2.18273e-16)
(0.0946659 0.0792477 0)
(8.7262 1.73123 0)
(0.251293 2.95796 0)
(0.00209759 0.187966 3.99111e-16)
(-1.9686 0.218797 6.69561e-17)
(2.25703 4.18583 2.10771e-16)
(0.310431 5.99973 2.39077e-17)
(0.917207 8.15586 -4.93425e-17)
(0.0863434 0.199932 0)
(-0.736967 -0.994997 7.78882e-17)
(0.00316561 6.49912 -1.12805e-16)
(-0.232266 -0.0744364 -7.82822e-16)
(11.2297 0.119428 9.25658e-17)
(5.70403 1.19368 0)
(-0.184936 1.21436 1.6818e-16)
(1.23885 6.20758 0)
(-0.595711 0.367994 1.43051e-16)
(-0.607459 -0.959049 -1.99165e-17)
(0.788714 9.57689 6.05935e-17)
(9.8239 1.10685 -1.31028e-17)
(9.77414 0.7196 9.91256e-17)
(-0.977255 -0.0950868 0)
(0.699764 2.51379 -4.99812e-17)
(-0.503539 -0.02745 0)
(8.39994 0.328325 0)
(0.952086 0.411288 -1.21508e-16)
(-0.451795 -1.06204 1.95291e-17)
(-2.82843 4.96499 -1.20141e-16)
(2.83099 0.803187 -1.21449e-16)
(0.0286109 0.0700188 2.27283e-16)
(10.2523 0.109481 -1.14001e-20)
(5.88214 3.53899 -7.66008e-17)
(-0.113829 -1.0511 -6.72322e-20)
(-0.0463793 7.22325 4.60087e-17)
(-0.0239157 5.93251 -5.3921e-17)
(0.504536 2.31858 -1.12664e-16)
(1.15062 6.03861 -2.41732e-16)
(0.310328 2.28453 -1.22665e-17)
(-0.190289 1.08525 -3.20545e-16)
(0.269149 1.35503 -1.79275e-16)
(-0.195898 1.78347 5.45314e-17)
(0.943663 -0.401682 1.84223e-16)
(-0.351851 -0.456603 -2.67551e-16)
(0.217944 0.959008 -5.00373e-16)
(-0.305769 0.958412 -3.60622e-16)
(6.83196 4.16566 3.2755e-18)
(0.26847 0.927982 5.36943e-16)
(10.0352 0.0446489 -6.10497e-17)
(0.809306 -0.0186203 0)
(-0.0902445 2.58173 -9.09527e-21)
(3.67549 -0.804048 -1.04715e-16)
(-0.370335 -0.503415 0)
(9.97218 0.433008 3.83145e-17)
(-0.538308 0.0533803 2.98917e-16)
(0.315815 0.0210402 -2.73067e-16)
(9.51965 1.95252 0)
(-0.123917 7.82071 3.76382e-20)
(-0.120374 7.7462 0)
(9.99118 0.090033 0)
(0.71147 0.269688 -4.634e-17)
(9.93856 1.27005 -5.20292e-17)
(8.76809 3.90735 -1.8082e-16)
(0.742386 7.88162 1.96184e-17)
(7.14674 2.1182 -1.04004e-16)
(0.0911947 3.77235 -6.96458e-17)
(-0.0160672 5.09393 1.49387e-20)
(-0.00367677 4.75077 -6.23482e-17)
(-0.0333492 0.448635 0)
(-0.0817689 2.27512 1.14105e-16)
(-0.00369655 -0.574022 0)
(0.0127486 0.638397 0)
(0.206754 0.606744 0)
(0.196251 -0.592103 -2.02089e-16)
(-0.193856 0.794015 0)
(0.136647 0.662686 1.22647e-16)
(2.87662 2.83694 -2.64837e-16)
(0.196592 4.51866 0)
(0.0688628 5.17803 1.5318e-16)
(-0.209403 6.26804 -2.41384e-17)
(0.00255492 7.55863 6.75783e-17)
(-0.107644 7.8228 -3.44331e-17)
(0.139719 2.75536 1.99734e-16)
(9.29345 1.03963 -2.65646e-17)
(0.132784 0.901982 2.0313e-17)
(-0.131329 1.01488 -7.43351e-17)
(-0.734602 1.26865 0)
(1.07304 -0.675357 1.25903e-19)
(4.87419 2.11815 0)
(0.477523 -0.0646694 1.31564e-21)
(3.63621 0.130337 -4.50553e-16)
(10.0096 0.054493 3.3555e-17)
(0.0410095 7.35525 1.06134e-16)
(-2.28069 2.56511 -2.68679e-16)
(0.170928 1.40326 0)
(0.0149225 0.963925 8.85264e-16)
(5.05164 3.07111 -3.39832e-17)
(11.2098 0.483871 0)
(9.75421 0.242846 2.38314e-17)
(1.03668 0.890539 1.4602e-17)
(9.10107 0.302139 0)