/*--------------------------------*- C++ -*----------------------------------*\
| =========                 |                                                 |
| \\      /  F ield         | OpenFOAM: The Open Source CFD Toolbox           |
|  \\    /   O peration     | Version:  v1912                                 |
|   \\  /    A nd           | Website:  www.openfoam.com                      |
|    \\/     M anipulation  |                                                 |
\*---------------------------------------------------------------------------*/
FoamFile
{
    version     2.0;
    format      ascii;
    class       volScalarField;
    location    "0.7";
    object      epsilon;
}
// * * * * * * * * * * * * * * * * * * * * * * * * * * * * * * * * * * * * * //

dimensions      [0 2 -3 0 0 0 0];


internalField   nonuniform List<scalar> 
5794
(
0.269707
0.55854
3.9504
84.657
24.1465
0.389083
2.6466
4.1742
88.6172
2.3101
37.7918
9.51074
6.46803
38.3916
1.42643
0.145903
375.906
49.2336
1.3019
0.461702
56.6633
0.303248
11.1577
4.10746
7.30961
141.607
295.644
60.2672
100.271
3.31113
4.92324
14.7421
20.803
2.31424
3.8396
3.57255
4.4329
25.8767
33.2096
69.5974
19.8891
7.00944
9.40894
8.57039
1.05744
48.4244
32.0537
13.7641
1.33253
1.43176
8.79344
61.9603
1.01716
0.772627
0.112309
44.2554
29.7931
19.9823
5.90329
291.963
59.5744
0.75664
4.82651
19.0327
25.251
0.347849
36.1073
24.2732
48.6456
0.918983
86.9318
47.9725
342.001
2.17934
50.7724
35.815
17.3214
95.1746
7.9789
1.10158
0.281327
0.423319
22.2275
18.6912
15.8329
61.1113
28.7081
96.4791
5.28477
15.7934
105.848
19.65
65.4728
112.362
33.409
70.6944
79.0409
53.0974
17.6352
66.2811
49.6526
8.23073
7.45333
44.5038
0.66615
88.3507
0.607887
8.43167
45.5445
7.91098
0.444
0.448204
51.8778
0.545083
25.5688
86.9147
2.39296
79.0007
53.6776
22.22
76.1248
0.795577
5.36439
52.0829
0.704163
52.8002
56.1609
0.467124
75.9469
10.5763
12.0662
6.77182
36.5435
80.0357
87.6616
1.58723
125.405
0.767568
0.6316
0.801756
0.619912
23.8186
0.563591
31.7807
1.13204
332.911
43.9156
51.1388
17.933
14.7809
12.1971
0.551054
88.4461
9.18409
332.549
52.7523
21.8046
11.0276
83.8758
20.248
0.961703
4.76942
1.10397
4.54611
63.4706
80.3034
5.7492
4.43056
0.577346
0.630871
2.4099
31.2129
4.49387
5.07609
2.93297
7.08347
1.82027
6.38975
2.32481
76.8391
8.22629
26.8849
5.13152
47.7146
4.83684
340.949
11.291
15.6776
2.49063
7.22879
48.5081
18.5165
27.0713
5.07268
8.17066
16.5766
3.76409
0.483635
1.29971
6.86791
4.39642
64.82
6.86767
7.21561
38.418
57.6033
3.9995
17.6032
137.258
43.523
7.02465
10.303
3.18395
3.91386
2.56732
4.61531
4.72551
40.9803
29.1241
83.0317
9.86005
27.5379
154.622
52.0396
149.457
162.906
7.50678
2.25898
4.65315
2.0285
2.79245
3.72312
1.82798
34.1492
24.4487
182.406
197.409
35.8622
7.6353
0.442531
0.225266
52.707
33.8274
28.247
10.9741
0.603935
0.790757
20.0859
141.875
78.2623
30.541
0.370956
332.918
0.266559
4.94797
95.3897
7.07325
18.7517
13.4945
0.762805
82.1895
3.16466
3.93373
0.28135
32.2111
9.55059
25.2733
72.437
0.803576
59.9459
37.6251
7.68738
7.97034
81.8894
16.405
2.15297
0.776963
0.696652
0.639226
6.93329
0.346705
78.7391
19.3518
6.17144
49.9497
98.8069
34.1209
41.5242
147.802
77.9282
3.06755
3.52807
2.53936
0.676838
4.82147
142.975
22.7737
4.94467
46.9827
0.27069
0.495656
53.4953
0.341452
36.8112
4.98278
75.8025
0.64282
39.5638
67.3734
42.1802
9.33284
43.4427
46.5358
0.515264
9.82011
35.1384
11.3468
67.8344
48.1232
137.234
22.0175
8.61689
80.1369
25.4519
0.149931
14.6825
1.37354
11.8858
6.83638
34.9214
70.7631
8.68712
5.73656
21.557
15.6664
2.7004
3.37207
0.779436
2.42689
10.4972
4.89783
8.72656
73.7831
10.6304
2.89605
4.33051
75.1573
36.9484
93.0496
39.1301
47.5463
335.591
35.4553
22.3937
5.67439
268.201
1.04247
83.0105
3.0459
2.23958
13.8774
15.1508
100.021
3.10185
3.67121
7.12126
69.9661
57.5858
38.7353
18.5498
1.1285
0.302055
5.11299
0.466044
19.5797
52.3214
42.6851
31.0104
29.9885
0.600294
8.46096
1.2561
12.4997
3.49611
3.77894
1.91472
90.8841
2.82924
3.35048
7.68875
4.29727
59.2505
0.96968
0.387152
3.09005
3.54963
2.14273
5.15833
1.26921
8.01861
3.1312
5.52419
169.925
0.722289
0.371032
46.2183
4.81136
0.412375
0.587467
76.4432
48.7253
16.2434
32.4973
28.8241
77.0602
51.183
6.37986
55.0054
56.0795
77.8704
17.7143
51.5061
13.168
0.96271
5.00285
5.3925
2.46339
0.536738
0.432131
0.269134
58.5991
5.76023
28.8397
75.5993
0.88231
2.22317
13.7326
10.4536
3.71694
4.08839
1.46672
8.11287
5.61461
10.2149
0.904275
95.3921
28.2498
0.345658
4.05381
47.407
3.36641
0.475084
78.4848
0.342022
68.2075
0.330035
72.1344
79.8449
35.7632
168.295
0.275981
0.571662
9.14806
0.477319
74.2313
10.6044
156.968
43.8721
17.3403
6.54308
0.50456
176.227
50.2083
3.53929
1.16587
95.9077
175.39
71.5891
3.25573
0.609992
22.8313
0.288195
1.89678
3.7786
13.1064
33.1704
10.2006
1.39659
264.003
0.322464
0.430024
82.5404
84.4079
28.0267
4.18863
0.722421
2.26303
1.22039
0.216031
41.1728
62.8991
180.813
8.69678
7.48804
35.0736
0.56305
0.306399
31.7663
38.974
0.319491
67.9303
0.604838
10.2943
0.370938
0.400289
20.9826
75.5914
0.433402
5.55976
175.801
0.383109
0.40007
33.7826
75.8878
11.2989
0.25196
3.59239
48.7367
0.470721
0.251453
16.4267
0.6745
154.616
1.04497
4.78423
0.931338
6.60716
162.423
10.0097
67.0528
0.312994
91.6539
0.481641
42.3925
1.04252
0.139756
5.51793
30.7212
0.478754
0.743263
42.7951
0.63492
2.08597
5.07805
0.455544
0.442082
13.9958
0.249464
0.494929
13.0477
554.777
3.03752
60.3969
0.62894
40.1059
2.7468
0.164689
10.5967
0.600367
0.306018
84.0861
27.7683
128.181
86.667
151.304
8.97491
46.5157
48.2898
6.47578
21.5905
80.7107
21.2845
98.8111
183.195
91.5866
55.5095
0.506051
58.0665
17.4359
85.3946
0.322632
0.860969
0.664176
92.9866
23.5408
42.3723
0.452771
9.33142
0.390395
1.72241
0.345026
96.7286
23.975
105.504
0.2683
8.44072
192.784
3.44041
0.126888
12.0447
57.1275
88.843
34.4703
1.75344
6.05542
3.94387
37.3385
29.1309
7.66023
42.6011
0.736359
44.974
62.3168
12.0092
0.721127
0.294949
0.417122
17.6233
68.9704
0.488896
0.241917
0.345613
0.368471
0.369686
0.411595
2.36297
106.627
26.3819
5.72777
58.338
0.819689
9.11473
27.1972
18.9438
128.325
133.321
33.8855
48.4446
1.03211
0.20759
0.318163
5.42614
1.10614
3.6037
5.05516
78.507
210.097
21.1634
159.571
6.16391
0.420811
1.42276
0.328038
43.8329
0.592244
38.258
150.805
102.428
35.3051
46.3844
37.7018
5.77058
186.836
47.4923
18.7539
26.8762
117.849
1.02112
35.1118
1.60254
0.131949
22.5337
0.829694
0.202426
11.8328
140.113
118.672
1.06014
0.628056
0.395592
31.1688
175.908
95.1401
37.1537
0.740333
44.7982
16.376
0.471269
0.372393
9.82095
1.70992
7.58979
0.636922
19.3457
14.367
163.688
83.0756
3.02941
1.16889
105.332
22.0884
190.687
38.6279
76.2115
40.9778
16.2043
8.75413
279.773
49.2224
29.8553
40.1672
131.811
161.496
0.789913
78.2053
6.19594
14.9961
28.2055
87.2672
38.5384
39.3175
55.5693
129.908
30.2192
0.686817
2.4567
339.951
11.2863
18.752
60.4216
92.8732
0.800351
0.30245
4.11846
4.94217
85.2574
33.2315
124.842
1.23954
8.98318
0.168191
5.01155
0.755525
0.347508
22.8083
96.1875
5.11159
117.37
34.8646
8.59324
1.76567
174.32
77.9423
34.5855
150.374
100.06
33.7274
53.0196
6.7226
53.5518
16.8421
81.5323
10.5539
1.05319
3.5629
0.354042
0.219674
1.40667
26.0987
0.563868
20.9365
238.118
5.5401
0.306475
0.496468
81.5408
25.4216
20.1152
86.3439
22.7053
1.64512
78.1329
58.745
43.7534
4.47191
29.3238
0.444579
119.314
0.360491
107.863
9.66409
12.2296
9.96787
0.437886
0.151132
0.608899
20.006
39.4811
83.8328
189.607
38.9031
0.629134
5.71595
34.1411
154.468
0.553079
11.5234
14.0013
67.4751
0.523812
0.316382
11.7921
50.0843
152.03
0.489752
17.4245
0.650775
3.39006
1.15068
18.0708
63.5634
78.9783
9.32348
0.898276
63.7705
3.13786
6.71518
343.505
0.719744
0.367405
1.72356
0.667228
20.8177
1.39774
25.5511
0.44884
0.822737
6.0535
10.7409
142.307
25.831
114.221
36.5454
49.952
71.5253
41.4443
167.988
21.6155
0.377594
0.281291
5.10793
11.39
6.34828
4.46044
203.472
42.6593
126.259
17.1225
0.677172
58.4247
0.836627
14.1278
55.6259
0.424905
299.92
0.676839
1.28548
76.1094
16.9501
6.39266
10.2069
42.8912
10.1435
7.09326
0.409891
1.18408
47.4886
71.6553
8.51911
10.0806
36.7994
2.89432
31.2451
136.851
66.374
90.6405
17.3963
0.290124
0.374236
5.75019
0.370959
0.465379
0.481727
0.423154
27.2711
0.648409
7.35868
0.417881
75.6053
62.2311
11.4797
8.13393
7.8894
15.5616
170.818
20.8065
75.0374
6.29441
0.387357
164.023
12.586
52.2932
7.29187
113.413
43.5549
52.7112
0.47743
124.014
88.0581
5.26123
4.6382
2.76831
0.522858
1.05575
72.5012
42.5272
85.6399
76.3102
17.5929
51.1391
14.1065
12.509
0.538013
0.380154
8.43855
0.328981
122.369
20.0456
165.626
6.94858
68.0531
57.7155
0.482623
0.373534
116.739
179.549
10.043
6.16103
23.0521
67.9857
0.812741
23.6313
0.58858
4.00214
6.09652
0.53587
0.604588
4.8482
0.478836
0.318571
0.652874
0.482824
7.9609
57.3213
5.35282
0.765219
0.403771
77.5297
9.71859
12.2203
2.77919
23.9312
0.386521
39.1316
4.77845
1.29063
0.672632
8.02733
43.7372
0.617151
9.99358
6.17038
0.399798
9.22994
59.2299
21.4828
74.2987
134.928
0.281027
11.0555
29.0879
36.8512
27.0365
35.5319
42.1593
100.046
0.348973
6.27133
0.410742
0.106966
18.8944
12.4673
194.882
155.97
100.645
0.249045
20.7602
135.375
50.6308
54.4085
51.8766
0.671365
0.276359
0.483264
30.652
11.0226
33.0916
4.56793
5.62683
4.41154
4.81928
10.0809
0.413152
0.355903
0.361204
12.0007
41.5439
12.0755
0.705747
8.1997
52.2102
0.264003
2.81932
0.677673
2.10994
12.2728
0.26943
24.216
0.541543
10.3555
15.9539
0.955186
32.5877
10.3073
0.336729
7.29849
65.9459
0.362977
62.2008
1.25444
0.353975
0.479722
1.61032
0.333015
0.321415
10.3641
0.649514
0.302282
2.13988
4.33326
3.80288
62.1572
27.547
8.93994
101.542
25.0856
0.316818
0.821998
69.5102
7.06316
19.2489
76.5615
0.344605
18.975
0.696085
48.4168
0.61059
55.8078
0.731717
72.6423
42.5279
0.317188
36.2966
0.96785
0.672278
2.09653
0.918203
30.8289
34.0031
0.596945
38.1817
0.210347
0.440868
2.44186
0.528502
0.326899
34.6275
1.3585
18.5032
1.41933
121.997
0.699847
0.340228
0.429997
4.50154
49.4386
18.2367
1.36786
28.8647
7.52333
15.7845
81.4885
35.2681
0.478995
5.69414
48.817
12.9883
12.3343
6.91516
74.3416
82.8515
66.4399
23.5031
75.8911
8.76681
8.6776
1.39556
4.38197
2.75299
0.282978
907.412
40.4394
0.256851
1.88182
55.3403
51.436
8.69874
0.139769
4.10627
10.4653
0.764539
0.412107
30.8551
1.02006
20.8012
7.4356
66.7389
2.64587
0.471985
2.10416
3.28147
4.66444
31.8443
0.483427
43.5111
0.312934
69.614
16.4211
3.80918
4.36105
23.2221
9.24905
17.7731
11.5348
4.50564
1.26866
1.41173
28.4135
10.4731
5.55152
0.356591
0.260742
21.5177
37.5639
24.6804
9.67356
2.4403
7.43552
2.40594
7.62684
7.31216
6.01755
24.5403
11.104
27.5601
0.375585
56.1647
0.464089
345.127
0.260356
0.539981
1.56203
0.314889
0.471193
48.7996
1.41258
6.48789
0.206065
4.36522
37.3977
221.76
74.1335
0.768106
0.658763
8.31312
3.8886
57.337
17.4444
2.84275
8.61395
0.183698
54.7907
5.26056
24.3137
33.3104
5.40188
8.55511
34.915
3.55821
0.533304
44.101
78.3458
32.3823
24.8547
11.8044
6.81696
0.199285
55.2269
162.036
38.2681
105.918
0.584838
0.600921
41.4651
9.98479
0.389355
0.326388
13.074
29.8993
0.709208
0.734055
4.92656
0.336488
0.497565
2.04686
3.02287
46.9235
0.270355
8.37732
22.6636
114.831
68.4622
1.94742
33.395
4.4324
75.6006
0.670964
46.857
105.059
24.8228
55.5962
7.42389
18.276
35.004
160.507
2.81209
1.04125
0.677253
59.6081
0.687698
5.65096
30.5236
11.9029
2.6384
35.1346
17.7598
8.79048
39.9875
0.465564
0.51372
7.39135
9.48706
0.460475
6.58771
80.6335
9.35815
51.2754
45.8215
41.7537
0.351269
116.062
0.60179
35.3552
5.87997
7.55549
9.55043
0.517683
28.5709
0.412065
1.021
0.195069
36.7897
0.400036
12.8847
5.97648
183.421
1.63596
132.933
145.955
2.26981
8.83935
0.290867
18.7963
7.90534
59.401
72.6251
0.71148
0.142344
22.0484
28.0733
35.1789
167.228
69.8739
113.838
61.0654
7.72233
0.602056
4.29171
15.6884
0.744003
78.9679
0.57309
0.387184
2.54539
18.1005
0.597328
0.757101
0.808734
5.76014
3.16598
3.56568
0.935577
0.302864
7.60413
11.2347
36.7291
13.3426
0.31731
141.575
29.5577
52.9304
18.4292
0.873404
43.4378
0.462664
0.69427
0.351193
0.651573
685.876
11.3808
43.415
17.7609
72.1394
129.092
19.5519
1.26362
0.804993
0.485829
1.85172
0.192057
0.938668
0.695855
0.780623
0.788964
1.87385
0.241182
2.0266
1.18561
0.578858
0.649512
0.329405
0.926099
0.555834
0.137548
0.539939
2.83814
0.445374
0.688653
0.518906
0.819971
3.28605
0.838166
0.422793
0.323098
0.515157
1.5336
1.70792
0.56761
0.194041
0.185226
0.999822
0.182086
1.21324
0.540266
0.522862
0.461843
0.553531
1.16373
2.79449
10.2408
8.22206
193.638
0.525587
6.34382
38.1767
98.8937
21.6703
0.851963
0.314303
16.7386
0.935176
11.8663
70.374
416.088
39.4869
109.21
18.7294
0.466362
0.417495
0.382601
4.8392
0.515141
16.1631
0.882272
3.6183
1.6366
3.7635
19.1665
6.71735
6.24074
34.4256
18.1774
514.802
1.03846
4.76464
4.58675
13.362
79.4961
0.896432
46.4733
38.5668
33.3438
5.31928
4.08513
12.653
15.5316
11.493
13.9055
910.146
0.76072
3.13251
0.130792
43.0351
35.176
0.539912
75.4557
46.6674
0.617785
0.167033
0.664987
1.10225
1.22077
0.600603
0.770949
0.506138
0.436411
0.41602
2.23799
1.41752
0.489799
2.89085
0.404307
0.753851
2.39216
0.674198
0.218929
0.545673
0.440867
1.35953
0.326186
44.2261
60.4713
6.24078
21.7031
13.2378
13.9162
33.8696
0.353187
64.4099
23.4749
3.82137
45.916
39.0569
7.29483
0.594066
39.8013
41.7179
2.48729
162.193
98.2207
30.8846
0.406613
69.7849
32.7476
0.667649
71.6145
13.6294
65.9169
0.654307
0.746653
0.1478
56.3017
0.605538
41.0287
43.6539
0.845213
125.331
0.556585
87.2834
2.38808
0.559215
0.27923
65.4998
0.689715
0.895477
3.18771
0.71225
118.825
10.7385
77.7775
20.834
15.5235
19.7735
110.784
0.42749
9.11311
8.49666
60.223
44.9352
1.86285
0.441858
5.02874
3.37683
63.4169
10.2508
0.703623
0.434193
0.866594
4.47653
0.292723
38.7612
4.6044
0.331427
0.747938
95.0011
104.018
12.1048
6.12584
74.3687
0.793448
61.501
49.3569
37.4209
59.3407
63.9173
0.861294
40.0263
0.328709
1.63683
0.888505
44.6263
7.85249
4.0524
12.8938
33.6572
2.90122
0.420692
0.657315
1.06738
8.28316
39.29
57.1418
187.539
48.7435
41.3602
64.8172
8.10174
29.5925
28.5422
70.8015
14.2614
34.9246
41.8225
55.0415
37.8021
123.135
117.642
0.728654
58.0374
33.2908
20.589
10.4924
11.058
95.4942
39.9943
11.6824
54.7704
41.6215
120.865
14.0736
5.90081
266.183
3.8192
50.2486
13.528
0.608637
0.316082
1.13879
61.069
1.12751
0.566168
2.3333
81.6269
83.8266
47.4747
47.6728
87.7033
56.5883
89.0764
1.04913
89.3615
86.5694
64.8002
61.0364
84.6892
54.8032
87.2381
86.4012
87.0408
9.74837
7.89344
12.1228
162.032
5.02039
10.8652
8.04206
5.01876
0.462853
0.767544
33.7279
51.7568
11.9201
1.25133
1.20236
30.8951
51.9812
15.263
9.66103
3.73106
3.6452
3.64806
5.97521
21.2327
2.57514
118.629
5.84319
4.70783
0.636827
3.56764
0.787818
13.9481
1.04295
16.9817
0.553115
0.822484
16.3072
2.28944
2.70588
2.20256
3.61941
1.99058
72.7957
1.7884
37.4091
19.7465
2.92446
50.5796
111.65
1.71144
88.5267
29.8801
21.2378
140.038
1.26122
1.48844
121.605
25.3951
101.426
1.68774
3.33071
127.432
119.913
76.1747
1.59042
1.8321
1.37644
24.2168
3.72004
298.555
1.94097
3.40155
4.17138
1.86937
20.7997
1.08636
3.42515
52.4472
33.0012
4.68352
284
87.1133
1.24574
89.6674
2.13684
4.52219
5.04062
1.42571
134.27
4.59677
275.172
4.45321
4.34395
1.52029
59.8531
264.661
0.84375
111.071
45.152
7.06569
4.16352
4.42114
0.705671
5.78104
54.5042
36.2446
56.0353
170.316
151.336
2.51318
10.4128
6.54712
98.3238
10.0414
1.94557
0.48583
229.525
1.07783
2.00857
0.495715
31.4017
11.2171
6.32181
6.70663
7.78923
9.50965
1.29581
12.4885
22.8747
2.58743
2.17404
13.9722
11.6106
2.29885
3.46688
3.70633
0.650792
78.7021
7.59456
6.00855
1.5018
3.25275
2.10014
9.68712
19.7714
12.5619
0.552826
6.10163
33.8568
48.4543
11.6896
6.03471
2.36425
20.4588
0.670028
2.04872
2.29732
10.1688
5.84387
6.93895
2.30353
16.3493
18.4873
174.884
0.561056
19.4077
10.2191
0.761643
12.7966
16.8817
47.4928
0.765771
10.9101
1.32032
7.51495
9.11981
17.8338
20.966
2.72206
6.91196
0.506155
9.42369
1.17079
0.883965
19.6907
15.148
13.1432
0.481612
0.46073
11.5087
14.8284
18.1992
3.2314
14.2364
0.543509
1.80305
0.48018
0.800352
35.5365
7.53833
54.0379
16.9222
2.21456
12.4197
0.997682
0.418027
26.8486
50.8803
2.99008
3.25719
1.05436
19.6681
3.94569
2.63352
3.88729
1.6568
0.403161
1.09537
192.614
27.1923
3.93356
4.95219
5.77015
0.519534
1.55371
0.337988
0.598764
32.3844
2.57147
4.33661
3.90122
1.82894
1.29651
0.325688
0.610092
61.9191
40.9285
8.17069
32.313
79.382
2.78241
8.68295
44.8313
200.012
11.5318
3.02115
3.13992
40.9545
47.0365
0.480563
26.2603
59.1943
6.01705
29.33
16.0151
1.25794
0.284926
0.575914
13.8391
45.7603
95.4903
28.4165
74.0983
0.18459
191.866
154.951
1.19401
6.16545
5.07344
11.1176
33.3895
3.54879
0.780085
1.10758
13.5679
7.95267
4.81144
32.3162
46.34
54.0922
5.21687
42.3667
3.81709
8.58725
118.783
1.24348
1.04556
52.0544
32.021
29.0861
46.9595
2.88834
3.62315
31.0085
57.8238
16.9395
6.31032
1.08165
0.357263
0.63497
49.3977
52.5875
3.73097
27.3792
58.1491
54.7585
74.9082
4.18719
7.32973
6.99141
7.00409
0.227602
164.465
1.10882
44.3756
58.1184
4.83134
10.8982
132.788
1.74172
4.03851
4.78298
5.57541
8.14021
20.3038
53.8993
67.7223
3.31586
26.2693
38.4294
2.15968
9.74238
10.1375
1.99686
1.68745
12.7451
15.0658
16.8984
17.9356
1.00016
0.321755
0.604067
85.8378
89.3814
2.57023
0.689071
119.654
95.6353
25.1279
0.677266
60.0473
6.66345
10.6333
9.0528
0.291682
182.965
1.04386
0.748542
1.051
137.026
80.0888
78.6579
3.22022
108.247
84.4797
25.0604
12.7123
13.8662
6.33822
11.3712
0.712856
1.16373
1.19734
5.21136
56.5408
31.3865
3.09752
3.37682
13.7499
65.9835
21.7407
90.4136
65.942
17.8352
3.83838
45.0886
0.481653
0.56041
108.961
45.2979
72.4308
85.5542
53.8601
34.3964
15.5677
8.80508
6.86124
1.70137
2.50738
0.951685
0.36079
0.546259
0.598993
0.481167
0.685535
90.2874
86.1383
15.8408
80.3839
12.9221
20.8746
8.73054
8.46098
58.3738
16.697
46.7328
13.689
2.06448
6.2668
66.2158
9.48814
11.3105
0.711495
72.4445
10.2123
7.38361
9.35614
32.5048
68.0864
7.83878
14.6179
7.67595
94.3805
7.63667
1.34673
0.709002
0.299648
1.50137
2.01581
79.963
1.62998
0.50649
0.621727
25.7958
1.11905
8.03338
80.4853
0.707886
179.462
0.785039
0.87648
2.68703
32.8245
178.58
16.4661
0.478953
8.3151
91.3615
43.2256
0.713574
8.43492
1.84198
11.4449
36.8675
5.6666
0.450037
11.2031
6.83893
0.624678
3.09549
9.76624
1.71715
10.336
12.3955
12.8445
6.72292
7.68887
20.9636
22.2642
11.2498
25.1021
17.4651
5.44185
11.6911
64.0179
1.43196
77.3978
90.9611
28.0639
38.6655
10.0165
143.56
30.1356
48.6838
0.462024
81.1617
3.27393
9.49913
0.75099
0.216805
66.7906
13.1272
25.4347
9.40324
40.3463
32.2608
5.34111
69.8435
9.33677
43.8645
11.4764
12.9717
16.6104
0.895779
0.328965
0.604343
16.8732
158.735
44.0761
3.06628
0.288924
107.546
18.8427
208.381
128.49
67.4955
80.8034
32.5184
0.448946
31.6305
9.20666
12.9662
64.0086
74.968
1.18656
34.558
36.3047
85.3076
81.9123
1.6975
39.3921
61.6243
49.2566
3.69525
1.29546
29.3547
101.92
4.58133
23.4645
77.2128
92.9529
25.6982
0.79318
7.91949
27.1085
47.6086
2.81441
32.866
50.7922
32.4196
4.45035
25.3157
57.5514
129.549
13.1304
4.02366
0.803038
0.409397
29.5514
161.771
46.2334
105.942
61.6436
396.85
1.2232
9.49707
17.7629
70.7367
4.93269
190.571
39.8139
2.3611
0.584092
7.65654
0.461901
0.959551
84.3505
83.3566
81.242
34.7322
164.801
61.5278
11.9187
18.7408
98.9658
88.6993
30.8669
661.265
4.96233
0.965055
27.5853
106.879
6.27483
22.2639
37.0256
7.03518
1.24887
42.4297
3.42195
1.2788
60.5426
0.344857
25.8085
0.695
56.5097
1.62982
43.5304
14.0728
25.5137
16.1397
21.0777
60.6895
59.1777
0.375532
138.888
2.81034
1.95825
0.678265
0.124756
4.00373
85.4408
51.8466
97.6433
5.64794
82.4689
135.528
0.806121
26.5007
1.71881
4.90495
3.37179
0.385199
90.2936
52.8914
2.71715
2.54715
85.4774
3.2734
17.4826
34.4222
0.967926
24.0479
5.62647
108.988
3.31319
34.5172
0.447639
2.01533
13.3867
94.054
7.49196
78.1372
81.9827
2.27415
5.17454
51.4035
2.72538
0.638949
96.4586
1.08042
0.739542
157.543
11.2424
88.6894
0.796776
76.7207
57.8066
0.281553
21.2399
18.1115
78.715
45.4641
4.48459
17.0003
42.8527
54.3449
13.7238
9.99243
8.81568
4.74433
0.406283
0.422211
68.9021
38.2862
16.7046
4.54525
95.8909
9.26548
67.5898
23.733
3.54725
5.11338
56.6078
75.2379
2.41655
0.242509
0.699205
36.5341
28.0516
39.3936
2.91836
2.88977
60.7222
85.378
0.86302
30.8559
135.243
75.2257
22.4134
70.8329
0.145925
13.9255
52.3153
0.853002
0.363079
0.512405
18.9985
0.855769
9.02506
59.8444
1.00299
67.3898
14.4957
14.2681
19.7303
191.84
6.97389
35.5852
0.677316
24.0079
72.6276
20.3556
18.1864
0.867741
0.303405
0.559364
45.7217
15.1072
31.8631
76.5539
16.0748
32.1923
207.505
42.1733
75.8992
0.117623
69.4794
0.494078
1.7565
49.235
27.2609
13.3138
1.19333
3.78635
32.1228
39.1187
0.592388
2.19415
35.1384
76.9117
11.0183
19.8541
13.7731
61.6344
190.218
179.737
1.15456
18.6307
63.3207
128.533
30.7542
54.6814
5.1081
14.5053
24.3628
56.7272
11.084
26.7072
5.89866
11.9263
0.222367
24.1851
15.7375
0.767543
38.8
0.521127
12.0774
109.497
34.8173
0.83563
2.45927
43.526
38.0166
54.3574
30.1449
4.01966
2.12004
0.211803
0.381962
0.879853
1.51785
124.61
0.380262
26.6645
49.7
12.066
0.859367
2.6152
9.03433
101.423
0.773861
0.372445
0.351455
0.958959
31.5582
7.50479
4.09051
0.415377
2.30277
0.615859
0.444529
15.4444
9.58463
5.91373
23.3555
20.9645
1.76492
25.9497
12.7185
33.4602
1.84069
0.138684
0.223972
1.71539
0.733934
40.3034
1.17425
77.0264
61.3904
41.0725
56.4152
0.695966
6.35056
2.75805
215.181
11.9256
13.856
0.816663
0.338444
0.451771
4.84453
0.483304
81.4459
220.315
3.57639
7.21882
0.318473
2.80986
1.31121
23.7429
0.746763
68.2
44.5596
41.2216
83.8991
0.128298
2.10511
8.35996
96.2624
5.89811
83.8817
9.53433
31.378
0.514827
6.81592
0.549484
17.3626
16.5351
24.6476
27.4932
1.22043
1.07527
8.71514
0.462802
2.17931
19.492
35.6388
25.077
25.7878
44.928
17.4382
32.0902
7.38172
52.8614
6.30148
17.3729
0.884123
44.9547
76.2063
92.0457
12.8004
0.53838
1.92671
0.132971
0.887667
0.736713
10.5066
3.01857
14.3234
97.1054
0.691968
5.1
54.8048
7.99379
29.7585
11.5057
41.4946
51.0457
6.67207
14.1674
10.681
7.23423
11.8061
1.88889
4.35645
25.1588
0.307932
16.1851
14.4557
0.642131
9.66377
0.526922
0.291277
0.254485
0.253838
0.905332
0.117764
2.55368
3.07238
8.69386
1.45535
0.282987
0.692517
84.1542
49.9478
13.6826
25.367
4.66757
14.7449
14.9971
82.9138
48.322
37.5162
330.221
4.9585
61.6106
97.6993
134.732
22.5411
0.312687
0.289574
0.666969
0.253462
0.309129
7.65064
15.8808
85.053
0.379573
0.132213
2.30316
12.8889
11.7425
58.6615
0.540799
0.497306
61.5209
11.8889
15.5122
8.01109
2.8478
0.748328
21.7078
20.3852
95.9704
0.67197
15.2518
102.409
2.90916
24.3399
53.271
0.296806
0.478579
4.45191
0.335858
0.476156
0.738522
0.4865
1.00505
2.52557
4.87754
1.93622
0.593448
11.2678
144.689
69.5875
0.430677
0.925186
0.319349
16.4544
8.31304
4.04872
30.489
37.3988
0.475173
66.8294
12.7351
35.1077
101.714
249.199
62.5332
31.0754
1.28883
11.4283
30.4353
58.5365
3.82499
0.122901
90.5756
1.06058
74.0461
8.53389
1.18526
11.6898
134.107
42.1537
0.403752
0.582785
35.0972
10.9716
4.5338
1.28293
16.0147
8.53187
132.871
2.97598
36.0098
0.827558
0.289412
0.37746
0.159709
1.36567
0.126097
48.4815
0.62594
51.104
90.3969
12.8959
24.1034
178.102
8.10917
5.15857
163.124
13.0066
13.8728
173.143
6.28141
150.207
0.89651
0.255023
0.482605
71.8509
4.17951
0.813219
0.340505
0.499266
1.12776
44.4091
94.0857
28.7569
7.58432
15.31
112.755
30.2693
27.1101
22.7699
14.9598
13.9262
107.991
38.1061
169.942
57.8813
0.442156
1.59947
0.708273
36.453
0.639643
57.5395
56.1179
20.5094
21.9028
11.2168
29.0385
1.04122
0.413374
0.804492
0.502343
1.11086
25.5809
11.5199
24.5711
9.91241
9.00507
52.5867
38.6905
25.1537
275.609
17.14
0.279091
0.827275
0.783584
86.2504
5.43161
53.421
3.68249
0.58842
4.30539
80.3639
74.2579
5.53657
7.97171
30.9897
53.5865
0.747825
0.201342
0.882903
23.8935
284.153
5.06311
26.0995
35.5546
46.2136
8.72195
9.61056
5.3316
13.7108
65.723
5.88048
0.827531
5.56947
0.608543
30.066
0.38286
26.2737
280.36
24.9461
8.64048
45.398
0.913463
4.54029
4.62987
0.837174
30.1378
0.763835
0.209512
1.37454
20.4979
94.2666
68.8789
18.6077
5.93575
0.160487
2.05128
1.04722
0.129976
0.591316
0.383986
28.4833
50.8724
28.2588
7.09638
12.2149
63.6337
53.0676
9.39724
0.996866
0.758219
4.24799
152.49
115.886
42.0234
3.32964
0.115849
77.675
1.09465
18.5972
20.6571
44.671
5.11726
126.893
24.531
26.7034
8.21671
89.1586
244.661
0.794705
51.0685
0.123894
2.88422
53.1182
19.3863
1.16161
0.253259
0.813021
0.967352
0.726401
92.638
13.7799
11.792
156.136
15.5135
7.2924
60.149
35.0093
12.9866
129.326
0.112948
19.9331
0.477554
17.1832
66.3325
1.29008
20.0521
57.2284
7.6138
32.3944
0.131532
2.06306
40.2247
114.54
55.0012
95.6668
22.2188
299.519
0.57191
28.9294
54.8177
5.34349
104.077
20.5119
115.791
23.4428
9.6315
198.552
42.8218
21.0497
1.43399
0.204679
0.396815
38.9637
6.65212
4.34625
2.54283
28.7683
31.4741
1.24618
0.109985
3.45998
13.5656
68.17
1.76317
0.163304
13.0552
46.3879
29.1233
18.3355
1.01358
113.137
9.88215
8.09999
23.3774
53.6309
0.252918
47.4393
27.7373
56.362
32.0884
32.0566
8.32326
0.809477
0.345818
0.443915
0.863769
0.460667
7.65454
9.90554
57.3858
4.17606
19.0812
132.648
37.3424
41.6415
24.3788
4.03262
28.8497
5.24566
9.52263
4.89188
71.3198
135.193
84.0826
61.971
56.4165
7.12897
37.1207
42.7953
3.13397
0.197798
0.602933
95.6106
29.8667
0.762804
63.0617
83.59
0.936591
52.0466
19.8824
67.2969
149.444
85.3596
0.513774
62.6043
0.457949
0.761302
0.346188
57.7974
49.8377
70.9769
0.458737
3.53931
112.637
8.3132
0.883795
1.37598
44.9372
37.8163
75.9513
154.977
52.5922
0.310697
0.476758
34.3837
58.6399
190.19
137.043
200.716
6.25853
0.594251
98.0441
96.8785
0.344175
0.173712
0.983294
0.514996
0.362036
2.74383
83.1417
35.9838
0.751022
21.818
43.1781
7.04238
81.6914
105.995
78.5486
3.92426
33.2653
5.68273
32.0518
11.8526
3.2019
134.965
145.172
39.094
73.9703
294.811
289.689
4.15849
0.635034
141.964
77.0659
1.98463
3.00012
0.538
0.264215
31.5179
117.159
49.6137
4.82038
0.660236
89.8186
0.504714
0.772102
0.417871
0.692586
0.153357
52.9962
134.431
73.098
3.05001
122.917
0.108484
3.98201
92.2361
37.699
56.5124
36.089
6.03665
89.852
58.0941
1.10287
4.25306
4.69764
4.42166
4.31301
16.7492
83.0183
34.1723
34.4217
12.988
14.2996
18.1978
22.4778
0.299903
0.967776
51.0758
6.11293
13.9625
436.82
10.3411
94.8723
54.0778
0.269997
0.386205
0.281759
0.788535
55.8358
59.2685
79.5953
1.84818
13.972
5.8895
7.55498
9.32693
19.9592
6.09821
5.243
7.29439
0.799178
0.258739
0.137743
0.460378
120.846
40.3789
2.95225
3.20733
432.937
116.25
143.666
39.875
1.55858
38.1139
2.73684
5.48457
43.9754
162.226
0.921336
1.23046
0.673413
56.0854
7.99618
96.6363
1.47969
4.66446
38.0058
15.1142
0.444303
0.246178
0.281884
0.52087
8.55582
104.088
56.1575
6.1185
92.5155
33.7153
51.9743
67.5336
7.96425
59.6665
5.88056
13.8623
37.7384
22.8885
26.7122
0.26984
0.247008
45.6357
1.05626
12.844
1.32135
75.3314
31.2104
37.1674
0.702663
40.5212
0.717808
46.6225
35.1158
27.823
31.8703
23.7167
61.518
16.5993
0.946663
33.0818
35.3857
0.299502
0.317766
0.475282
2.79445
3.02496
17.1717
47.2167
1.69232
3.78871
87.7852
0.160158
23.9832
0.474803
1.08093
160.092
158.022
0.80967
0.251193
0.198951
1.10798
3.66007
0.673164
0.819992
0.4427
0.341933
0.945372
0.257534
48.3095
3.02001
0.689429
28.4165
39.0817
4.00555
30.6454
1.27925
4.42775
30.6368
78.5765
21.9611
0.535977
26.6551
124.076
72.9521
82.2028
14.268
8.38643
0.244677
0.398616
33.0778
140.605
26.4102
4.3715
11.458
8.47118
0.80466
2.99025
2.84831
67.2744
5.87581
62.9701
0.180245
8.54761
114.916
28.8201
15.9548
34.6963
2.64549
88.3307
42.4676
33.0025
2.34484
1.00433
1.07196
0.963114
6.98242
16.7659
1.36232
54.8413
41.0441
122.691
38.3736
10.4646
1.18496
7.8999
0.902024
89.7757
26.5777
48.4792
3.12335
104.005
4.05033
27.5725
39.1877
0.522214
0.749037
6.26052
94.752
65.2983
40.6712
73.7767
39.7192
75.897
3.15272
7.26203
0.565586
6.17909
3.15183
841.7
111.392
4.03997
101.664
28.231
2.3901
0.223016
8.40329
0.508492
2.66345
0.881636
41.6245
25.2073
38.428
40.9188
32.5377
0.15577
3.653
1.30167
5.60913
17.8678
42.6415
624.061
17.3258
11.0453
0.151336
10.4742
113.979
59.0585
7.32845
6.51117
0.461448
12.3621
5.6619
3.97439
16.9997
170.937
0.511936
0.934615
0.24357
20.5804
9.15476
1.14019
67.4048
1.53831
320.401
64.8585
69.1431
91.1858
0.468278
0.239542
11.0835
7.66514
0.411405
5.2175
4.917
41.4171
90.3953
56.8664
5.2673
3.10942
112.671
0.9279
11.4502
14.7188
39.3525
66.7353
95.3075
0.209486
0.9804
0.168182
80.0211
11.7945
118.304
35.461
2.87414
32.5918
121.616
57.7069
61.7617
5.25557
74.1484
45.3817
15.9675
0.586489
0.486285
31.8036
0.753805
10.5468
7.76894
0.451623
86.3482
337.406
314.71
7.06829
91.0014
4.67108
2.6689
3.35774
2.29908
84.7955
23.4235
0.163982
0.3191
0.511251
0.339619
12.3185
11.6359
97.046
25.4106
0.745005
317.417
0.701488
54.4124
104.452
93.0378
60.5144
8.20846
6.78308
76.6053
0.535857
0.313742
0.685312
0.13753
1.40695
24.4975
61.9842
2.45475
52.696
0.587705
0.717349
4.05437
4.42905
1.09322
0.417121
92.7267
33.8389
44.6541
10.3743
0.255027
0.531282
13.6031
180.509
0.305996
377.769
0.158428
2.87841
55.0951
44.2544
0.648604
23.157
142.032
2.77292
19.0986
43.9612
16.6601
72.6479
72.6423
10.8787
29.1933
1.05003
12.009
93.8007
15.7446
136.778
5.55817
5.26168
1.46948
27.5132
14.7823
20.558
71.1821
3.75737
8.38825
7.9342
0.374321
0.348083
8.1224
0.389912
7.59793
14.3404
10.233
12.8857
18.4451
60.9032
99.0776
95.6074
56.9912
0.567317
0.539837
0.824705
0.481708
3.71401
3.36531
0.460259
0.824982
11.096
99.7777
0.755999
0.689193
0.766983
8.02285
88.0508
0.628212
11.6563
8.88367
0.811208
60.853
35.6635
1.99183
0.55342
54.4378
85.0638
25.5865
0.476805
1.99306
0.392396
0.609852
11.4318
0.558313
0.397419
30.0325
1.00572
1.04963
38.4702
54.0026
0.406932
17.6873
0.317306
67.8514
0.86341
110.753
2.82688
0.135842
5.56036
62.9281
75.6808
107.333
54.6109
21.6182
74.3231
1.01349
53.0853
73.9303
0.670539
0.896719
12.862
0.334753
156.721
8.75501
24.6556
3.36984
51.4774
83.9482
68.7238
7.18696
701.177
13.2926
0.839834
0.65574
0.3029
0.819724
0.436701
0.370707
3.97975
0.522299
0.657852
0.316002
0.440939
2.37795
4.87323
5.5411
21.983
63.237
111.377
8.30072
7.90188
0.648836
2.48297
67.3261
40.0729
7.14867
6.01271
103.364
146.322
93.0511
5.0739
10.6064
0.530382
1.82139
0.393686