/*--------------------------------*- C++ -*----------------------------------*\
| =========                 |                                                 |
| \\      /  F ield         | OpenFOAM: The Open Source CFD Toolbox           |
|  \\    /   O peration     | Version:  v1912                                 |
|   \\  /    A nd           | Website:  www.openfoam.com                      |
|    \\/     M anipulation  |                                                 |
\*---------------------------------------------------------------------------*/
FoamFile
{
    version     2.0;
    format      ascii;
    class       volScalarField;
    location    "0.5";
    object      epsilon;
}
// * * * * * * * * * * * * * * * * * * * * * * * * * * * * * * * * * * * * * //

dimensions      [0 2 -3 0 0 0 0];


internalField   nonuniform List<scalar> 
1466
(
0.528076
1.0116
0.340876
1.02841
0.980157
30.765
1.23438
1.53882
0.961195
4.8261
0.206839
4.13791
0.267875
0.586397
0.542695
0.923284
1.58192
0.977041
0.886424
0.55238
0.895604
0.735364
1.35745
0.805896
0.546535
0.379139
0.597724
2.07227
0.720966
2.60215
1.08114
18.747
0.734835
1.58606
0.744443
0.60992
0.609725
1.07571
31.6313
0.838691
3.3271
2.75428
0.917611
1.08724
2.46731
1.25708
0.767016
1.22032
2.97104
0.840635
0.283865
6.50858
1.84775
32.9977
1.29674
5.54029
0.795078
0.94343
1.28018
6.36108
0.76681
2.7539
1.25088
21.5393
1.12025
0.732832
4.98217
0.961965
0.546478
0.890224
0.30151
0.697488
1.07037
0.724398
0.318171
3.33744
0.699271
0.81395
0.574853
5.34832
0.4948
0.770016
0.563256
2.95859
0.610801
0.70938
0.269049
1.58442
0.59203
0.83346
0.933718
1.65574
4.33313
0.690713
0.292875
1.18485
0.946384
1.49504
0.901878
0.974689
0.779264
2.72905
0.341336
0.788177
0.524562
1.15695
0.985692
0.544129
0.693881
0.485103
0.892635
0.5326
0.946765
1.15179
0.3083
2.62874
0.619845
0.583488
0.865533
0.74494
1.08055
0.654595
0.389155
1.60594
0.534886
2.09071
0.449581
0.605752
4.46247
0.652772
2.32093
0.734044
0.39366
4.67695
0.370112
4.49847
2.60105
0.289283
2.93211
1.18708
6.71061
1.62815
2.79713
2.46296
2.51422
0.882732
0.792449
0.558507
5.02168
0.959533
3.74176
0.67572
0.787694
1.0221
0.781248
0.325988
0.656092
2.34816
1.18451
0.531652
2.51299
0.875221
0.790632
1.13042
2.94356
3.77819
0.548675
0.999841
0.599113
0.624602
1.05423
0.650246
0.535126
4.7106
0.473211
1.27108
3.33494
6.32749
0.491541
5.30165
0.733621
0.526504
3.40286
0.575796
1.51481
0.567278
0.60755
5.86463
0.634694
0.690701
2.11961
1.17636
0.781047
1.07489
0.514836
0.683658
4.18512
0.487623
0.443589
0.46793
1.08261
0.395869
0.528289
0.609462
0.729414
4.18805
0.567612
1.42671
0.544757
1.00742
0.692133
1.33631
0.528702
0.804818
0.88999
0.633011
0.196873
0.253201
0.584853
0.694881
0.271454
0.66941
0.640209
0.882805
2.68835
0.896931
0.484542
0.953562
0.818693
0.711047
0.497997
1.53714
0.653243
0.912854
0.566327
0.684912
0.993238
1.91586
1.41875
0.573955
0.838549
2.11447
1.58913
2.54453
3.75545
1.01984
0.158839
1.53677
0.48512
1.22842
0.733733
1.14499
3.98926
1.56831
0.585895
1.14832
0.467924
0.577193
11.0608
4.11357
0.779621
1.00268
1.22182
0.471858
48.069
0.696566
1.21873
0.830864
0.446841
0.672858
0.986272
0.697155
0.354568
0.482289
1.04314
1.46878
0.984149
0.577291
0.572388
4.05939
0.567422
0.762272
1.3864
0.487517
0.445504
0.233567
0.92224
1.3777
1.07006
1.0106
0.832298
1.84768
0.800838
3.37705
4.74078
0.621911
6.66397
3.82064
0.856823
0.426213
1.35638
1.71232
0.491483
0.82954
0.624655
0.459415
0.344968
1.70907
0.734287
23.4727
0.864623
0.324839
0.365074
5.78653
3.29968
0.438298
0.817901
0.347168
3.92231
0.670674
0.701798
4.05495
3.67892
0.83572
0.753989
0.608016
0.372794
0.698108
0.157802
0.590678
1.10622
0.894621
0.240555
0.690896
0.868079
0.89327
0.344219
0.284506
1.85251
0.464579
1.07234
0.733693
0.370365
0.477078
0.579575
0.0929019
1.71625
0.68133
1.19094
0.957895
5.47547
0.715339
5.62234
1.41236
1.42394
0.407738
1.00155
1.16708
28.4432
0.873961
1.05367
4.68732
3.35038
0.678586
1.79934
0.605547
0.45947
0.164889
0.647462
1.48528
0.216471
0.536836
1.69494
0.917919
0.837128
0.990223
0.514565
2.40909
0.551886
1.19627
0.216065
4.59162
0.904918
0.378686
1.91447
0.911779
1.16887
0.450719
0.790806
1.21101
1.24253
0.811132
1.98008
1.71766
1.03071
0.458184
2.61652
0.200271
0.554653
0.175282
1.30206
0.134732
2.04056
0.573995
2.59362
0.454187
2.17795
20.0022
0.488011
0.774203
0.468751
1.6854
1.64263
1.87458
0.862169
1.46782
1.76611
0.844087
1.15777
1.20895
0.857023
0.790725
0.660339
0.605736
0.637844
0.684518
0.642269
0.643504
0.667214
0.894621
0.765185
0.455624
1.55591
2.18079
15.3263
2.11588
0.741789
1.1346
1.55927
0.965464
2.66493
1.36709
2.02952
1.34439
1.04591
0.787024
0.891911
0.876199
2.16912
0.691036
3.95734
1.03392
1.84893
1.05653
0.604113
1.78779
1.08115
1.29074
0.963389
0.722149
0.556241
1.34773
1.09376
0.718164
1.79159
0.674396
1.69787
0.444583
0.816525
2.49808
1.69914
1.52239
0.728865
2.09596
18.4693
0.981647
0.863902
1.6136
0.739078
29.7177
0.91844
0.454349
23.1445
0.45811
0.749876
0.894598
0.476874
0.355438
22.049
5.13576
0.70182
0.774424
0.554602
0.395061
2.09868
0.615924
30.1098
0.546478
1.3221
1.9396
0.486347
0.474569
2.02282
1.56421
0.389566
2.09268
3.79896
0.941603
0.726402
1.01146
0.722016
0.682819
0.724419
0.883614
1.65821
0.746774
0.427831
0.500124
0.874324
0.737344
0.890868
1.10907
1.10347
4.79338
2.37104
1.18285
1.41082
0.661979
0.934846
0.354978
0.447431
2.95691
0.729566
0.674848
1.17437
0.580136
3.36277
1.29058
0.782535
1.17721
0.964287
0.852029
1.07442
0.855624
0.749038
1.46482
0.444837
1.62722
0.952367
0.333926
0.486687
0.574701
1.15509
2.55667
3.25567
1.31896
0.75823
0.453168
1.44541
1.01441
0.489211
1.96907
3.51474
1.82374
2.87364
7.18272
0.596201
0.806912
0.671005
1.86673
0.753652
0.934139
0.68168
2.64655
0.287131
0.747589
1.94332
0.303156
0.672192
0.692748
3.01984
0.953892
1.70011
2.47754
0.674659
8.33869
0.852862
0.458224
1.89215
0.719555
0.548572
0.767102
2.91135
0.252741
0.258086
0.48245
4.61134
5.12775
1.45113
2.62127
2.07886
0.277715
0.497182
0.205443
0.270084
0.973264
1.44338
0.454949
0.976556
2.26422
5.69196
2.31903
0.574174
11.1084
0.373312
0.219085
1.27202
0.707232
0.658978
0.306905
0.45126
0.510474
2.08713
6.5356
0.437173
0.840016
1.04836
0.755138
0.575601
1.72616
1.15901
1.99725
0.24121
0.858051
4.21284
6.79716
3.14662
1.09669
0.225522
0.468633
0.653964
0.292481
0.738017
1.03944
0.136419
3.92665
0.196298
1.29654
2.02676
0.710598
0.938095
1.8722
7.33841
1.04275
0.960542
1.24462
0.776324
1.73661
0.726388
0.233803
0.994343
1.2121
2.94877
1.90693
0.631868
1.42099
0.933997
1.02323
1.67425
5.79675
0.706899
0.739671
0.489114
0.20458
0.637338
0.777134
0.908733
1.36414
0.441061
1.46701
0.359867
0.449331
0.250361
0.206069
2.01862
0.220892
0.925344
0.359795
0.269216
0.934719
0.762457
0.66833
1.19168
1.16205
2.46174
0.499545
5.4
0.857092
4.31728
2.07809
0.669157
0.212504
7.08702
0.390968
1.86844
0.669972
1.94236
1.93791
0.666954
0.249768
0.464275
0.220898
3.66542
0.27026
0.493022
0.899523
6.81273
2.00354
0.60383
0.720792
2.22014
1.31894
0.506182
3.40495
1.00759
0.788875
2.17129
0.626126
0.560962
2.0892
0.687997
0.738959
1.49161
0.966946
0.653573
1.09301
1.31812
0.39237
0.366907
3.38562
0.804859
1.64304
0.277817
0.549997
1.2113
0.906595
1.53116
0.242049
0.253822
4.52003
0.242113
2.00938
0.443124
3.90254
2.80421
0.904157
20.1927
0.638748
0.257435
0.458662
2.22404
0.385953
4.98771
0.464491
0.49173
0.517967
1.24482
2.13727
0.218338
0.257375
0.998419
32.0677
1.08903
0.178623
6.54666
1.4298
0.67757
5.00856
0.876644
0.573594
33.9827
0.493075
0.500413
1.33863
6.20146
2.45881
0.423218
1.20696
0.30149
0.900738
0.978796
0.41534
0.382299
0.567141
1.31905
0.691326
10.9812
0.3841
0.712418
0.540219
0.965726
2.48572
0.449168
0.279775
0.22499
0.188254
1.15078
0.656779
0.423905
1.14128
28.7384
0.244132
1.02585
1.258
0.603437
0.648584
0.53264
0.33789
1.07271
0.621468
35.9582
0.461196
1.16508
1.57642
1.36137
1.42016
0.647106
0.74583
0.746453
0.391942
0.518585
1.53568
0.471421
0.183994
0.450333
0.823166
1.65008
4.77213
0.493886
1.04622
0.162342
0.928864
2.46512
0.60295
0.322849
1.14496
6.31357
5.77396
0.976024
1.24962
0.744241
2.96838
2.84283
1.26005
0.408434
0.368714
0.875076
0.708829
0.285328
2.23381
0.811951
0.247794
2.43097
1.11411
0.507428
0.355777
0.532348
0.934118
1.77621
0.478399
0.427461
1.93074
1.20199
1.04716
0.252892
0.675014
0.714138
1.26584
26.5498
1.00461
0.800671
0.251633
0.358983
0.448052
0.530743
0.258466
0.954896
1.57315
1.09471
0.926111
2.49205
0.627539
0.348757
1.11301
0.474636
3.4217
0.295856
0.44946
0.77957
1.63017
0.667783
0.454827
1.6823
1.02823
1.38765
0.704105
0.596657
0.614582
5.22491
0.256439
0.849788
0.233267
0.861012
1.62087
2.48127
0.485743
3.70564
0.685306
1.27107
0.76507
1.05517
0.61249
0.657086
2.14055
1.40669
0.582598
0.852635
1.09083
1.93474
0.499351
0.666265
1.45923
2.15534
0.830873
0.180585
1.65306
0.596163
1.06197
0.818233
0.313893
0.281016
0.320843
0.273264
1.63085
1.66001
1.60848
1.6544
0.36278
1.73664
1.69565
0.41387
0.465481
0.509779
0.669267
0.53106
0.529518
2.85537
0.513363
4.58801
0.845588
1.57579
2.28367
0.934985
0.987198
0.530463
0.161902
1.26338
0.5972
0.308511
0.779401
1.20261
2.22103
0.624584
0.441892
0.779473
1.16902
0.509596
0.397667
1.45416
0.84961
1.3776
0.526565
18.1816
1.03347
0.783653
0.241299
4.96729
1.09354
0.45625
0.783034
0.795981
7.2964
1.22523
1.36661
1.10326
0.419605
0.638596
3.41953
0.727089
2.20509
1.25911
1.29918
0.674106
0.84715
4.58535
0.703535
0.746922
2.3908
0.849381
1.4937
0.929936
1.11552
0.773729
2.77602
0.41511
2.51372
0.485823
0.476784
0.778769
1.01384
0.593711
0.766083
4.2352
2.85126
0.97756
2.31816
0.580997
1.81996
0.954532
29.2741
0.681718
0.19406
1.19066
1.61299
0.876539
1.03761
2.83575
0.146048
1.23841
0.804009
26.1605
0.186784
0.445515
0.795324
1.61544
1.788
0.919235
0.296423
1.09254
0.466863
0.600469
0.495528
0.194408
1.13473
2.13792
1.03897
2.32353
0.340745
0.901596
1.46354
2.46484
1.13382
0.424163
0.415517
0.439897
0.900615
0.72198
3.21046
1.905
3.15862
0.622279
1.32414
0.448299
0.880254
5.48848
1.28782
2.17311
1.55003
0.239123
0.530434
0.660068
1.42824
1.74896
1.03276
0.236626
2.72307
2.94218
2.47315
0.220621
0.625485
0.78498
0.898079
0.872008
1.94719
1.67736
0.687119
0.812659
0.548527
4.64786
0.543219
0.683593
1.5066
0.780738
0.656717
0.527923
0.150546
0.339318
1.89901
1.80762
1.12883
0.592385
1.74759
0.762566
0.649858
0.864662
0.960934
0.721315
1.0863
0.71911
1.86376
0.624132
0.392964
1.16495
0.430326
1.17201
0.433322
1.29684
0.349019
2.32822
0.741254
0.240836
0.943102
0.321432
1.0796
0.335506
1.06486
1.00031
0.870029
2.18666
0.247085
1.11488
1.40022
2.02064
1.03688
0.694788
0.907252
0.282917
0.745946
1.28568
0.446636
0.523286
0.876564
0.889434
0.795452
1.68876
0.751838
1.99393
0.263619
1.00177
0.436515
0.223131
0.703371
1.13363
1.56717
1.32269
0.412004
1.51357
0.834097
0.450335
0.403338
0.716252
0.437889
1.31633
0.441525
1.09282
0.864965
23.89
0.717168
0.703586
0.841725
0.606187
2.08455
0.673937
0.700071
1.90701
0.305519
0.844194
0.870968
0.622248
0.89956
0.561261
0.460952
0.817805
0.897999
0.511035
10.9708
0.606806
0.7827
0.303792
1.00429
0.386398
0.322557
1.76673
0.62427
0.714972
1.08044
1.0013
2.37879
0.196902
2.23722
1.2213
0.490688
0.226067
0.609296
2.08971
0.585177
1.29417
1.14737
1.05087
1.77813
0.67926
1.18215
0.842234
0.676793
0.141631
0.904321
0.813688
6.83297
0.805044
0.79358
0.470981
0.908469
0.370965
0.452683
0.565051
1.14572
0.41449
1.58631
0.859328
0.650293
0.580453
0.754437
1.46858
2.17258
0.806889
4.19825
0.488933
0.648903
0.261141
1.12772
0.747491
16.8664
1.09874
2.63334
1.02368
0.939147
0.740697
1.54466
1.21487
0.183759
0.924004
0.671957
0.493788
1.90305
0.856319
0.827013
0.708104
0.714862
1.84247
0.474426
1.25909
0.696602
3.75748
0.134008
11.1669
0.868795
0.960101
1.09032
0.716156
0.628093
0.333693
1.13586
2.2092
14.8101
0.522275
0.428519
0.867429
1.37563
0.56372
0.652101
1.97906
16.505
0.746419
0.475115
1.06767
1.31199
1.10651
0.268294
1.10989
0.883406
0.650228
2.48463
0.168476
0.909208
0.182628
0.686104
1.00054
2.34181
0.263683
1.04205
3.79212
1.02189
0.786704
1.03902
0.293513
1.21751
0.359455
1.00652
0.397893
1.07453
0.424331
0.870063
0.736413
0.653438
4.56011
0.908685
0.206834
0.778079
1.21663
2.10175
0.726149
1.30186
0.53952
1.08605
0.8078
1.94954
2.19576
0.556038
0.583286
0.884637
0.753155
0.771463
0.627894
0.48214
0.868233
1.26245
0.575059
0.401668
0.562151
0.488038
1.13283
0.70295
0.922064
0.521291
0.716562
1.04045
0.834126
0.699226
0.271484
1.9886
0.502276
1.14557
0.571334
0.435527
0.158582
0.692655
0.342465
1.18775
2.13138
0.260882
0.490605
0.866804
0.445243
0.880463
1.03599
1.43175
1.61716
0.991805
0.467884
0.397599
0.992758
0.462513
1.52967
0.674852
1.63366
0.976131
0.675115
2.05247
0.533276
1.57414
0.840175
1.26269
0.386778
0.570238
0.626547
0.150953
0.526765
0.569915
0.786128
0.191055
2.90146
5.68097
1.61469
0.446164
0.933409
0.809434
0.196569
1.23533
0.981759
1.52337
0.980139
0.534153
0.679149
0.657923
0.973912
0.888425
0.544036
1.0755
9.1953
0.680146
15.9282
0.596882
0.732663
0.512406
1.00597
0.831495
1.29198
0.917548
0.422752
0.438641
0.935009
0.541439
0.625184
0.706675
1.021
0.585614
1.57117
0.81541
1.20372
1.33678
0.965027
5.40274
0.634656
0.720215
0.766867
0.383491
0.926519
1.75028
0.75854
0.986761
1.72233
0.154464
0.919609
1.06237
1.09503
0.559322
1.8229
1.01076
0.483221
44.8214
3.54881
2.30182
1.56598
2.04487
1.32789
7.06126
)
;

boundaryField
{
    frontAndBack
    {
        type            empty;
    }
    wallOuter
    {
        lowReCorrection 0;
        type            epsilonWallFunction;
        value           nonuniform List<scalar> 
102
(
0.267875
0.267875
1.35745
0.318171
0.3083
0.734287
1.03071
0.250361
0.966946
0.653573
1.31812
0.39237
1.64304
0.277817
0.549997
1.2113
1.53116
2.00938
2.22404
2.13727
0.178623
0.500413
1.33863
0.540219
0.965726
1.36137
1.42016
0.408434
2.23381
1.62087
0.485743
0.313893
0.281016
0.320843
0.273264
1.63085
1.66001
1.60848
1.6544
0.36278
1.73664
1.69565
0.41387
0.465481
0.509779
0.53106
0.529518
0.845588
1.57579
1.20261
0.624584
1.16902
1.45416
1.22523
1.36661
0.638596
1.25911
1.29918
1.11552
0.773729
1.61299
0.146048
0.186784
0.296423
2.13792
0.415517
1.32414
1.42824
1.74896
0.687119
0.683593
1.5066
0.339318
1.89901
1.12883
0.960934
0.624132
1.17201
2.32822
0.870029
1.11488
0.282917
1.68876
1.99393
1.56717
0.716252
1.09282
1.90701
0.897999
0.813688
1.84247
0.474426
0.268294
0.168476
0.263683
1.03902
1.94954
0.627894
1.26245
0.260882
1.03599
1.61716
)
;
    }
    inlet
    {
        type            fixedValue;
        value           nonuniform 0();
    }
    outlet
    {
        type            zeroGradient;
    }
    wallInner
    {
        lowReCorrection 0;
        type            epsilonWallFunction;
        value           nonuniform List<scalar> 
138
(
0.206839
1.58192
0.720966
2.60215
6.50858
1.84775
32.9977
1.29674
2.7539
1.65574
0.779264
0.788177
0.389155
6.71061
1.62815
0.882732
0.792449
0.999841
0.690701
2.11961
1.17636
0.253201
1.58913
1.01984
0.158839
1.53677
0.48512
1.22842
48.069
0.762272
1.3864
1.3777
0.83572
0.753989
0.608016
0.372794
0.698108
0.157802
0.590678
1.10622
0.894621
0.240555
0.690896
0.868079
0.89327
0.344219
0.284506
1.85251
0.464579
1.07234
0.733693
0.370365
0.477078
0.579575
0.0929019
1.71625
0.68133
1.16708
0.678586
1.79934
0.605547
0.45947
0.164889
0.647462
1.48528
0.216471
0.536836
1.69494
0.917919
0.837128
0.990223
0.514565
1.19627
0.175282
1.30206
1.64263
1.87458
0.790725
15.3263
2.66493
0.963389
0.674396
2.49808
0.863902
1.6136
2.09868
1.3221
1.9396
2.02282
4.79338
2.37104
0.934846
0.444837
1.94332
0.548572
0.767102
2.08713
0.858051
1.90693
0.637338
0.777134
0.269216
0.220898
0.366907
0.804859
1.08903
0.900738
0.188254
0.244132
0.33789
0.183994
1.04622
0.162342
0.708829
1.93074
0.704105
0.180585
0.513363
0.161902
1.4937
4.2352
2.85126
0.876539
0.530434
1.67736
0.392964
0.446636
0.876564
1.51357
0.606187
1.77813
1.23533
44.8214
3.54881
1.56598
2.04487
1.32789
7.06126
)
;
    }
    procBoundary2to0
    {
        type            processor;
        value           nonuniform List<scalar> 
42
(
17.9642
17.9642
0.811414
0.677396
1.14808
28.9309
1.0483
1.0483
0.926027
0.915219
2.09277
2.09277
1.51634
2.29018
2.39218
34.0058
3.03254
1.02097
0.854344
15.8939
19.7616
1.00083
1.00083
22.5065
19.7616
0.898053
29.7566
0.409696
29.7566
13.7599
6.54709
0.223518
0.22878
0.296532
0.426471
0.677396
3.03254
1.02812
36.1544
1.12838
1.12838
0.654032
)
;
    }
    procBoundary2to1
    {
        type            processor;
        value           uniform 14.3089;
    }
    procBoundary2to3
    {
        type            processor;
        value           nonuniform List<scalar> 
29
(
1.89422
1.41018
0.904295
1.2781
19.3428
1.77126
6.41262
1.38164
0.766219
0.849104
1.56575
16.8003
3.03532
4.24593
7.21983
4.37832
0.694834
0.694834
1.41018
4.24593
6.11252
0.769974
3.8814
0.744035
7.62687
0.858933
0.766219
13.8143
16.8003
)
;
    }
}


// ************************************************************************* //
