/*--------------------------------*- C++ -*----------------------------------*\
| =========                 |                                                 |
| \\      /  F ield         | OpenFOAM: The Open Source CFD Toolbox           |
|  \\    /   O peration     | Version:  v1912                                 |
|   \\  /    A nd           | Website:  www.openfoam.com                      |
|    \\/     M anipulation  |                                                 |
\*---------------------------------------------------------------------------*/
FoamFile
{
    version     2.0;
    format      ascii;
    class       volScalarField;
    location    "0.5";
    object      nut;
}
// * * * * * * * * * * * * * * * * * * * * * * * * * * * * * * * * * * * * * //

dimensions      [0 2 -1 0 0 0 0];


internalField   nonuniform List<scalar> 
1466
(
0.00059382
0.000893516
0.000760417
0.000561514
0.00103294
0.00215505
0.000543472
0.00149551
0.0026124
0.00135281
0.000202371
0.00230585
0.000144642
0.000536164
0.000981896
0.000683721
0.000211535
0.000922985
0.00115571
0.000550749
0.00153054
0.00112252
0.00027955
0.000768364
0.000571953
0.00101357
0.0013877
0.00227038
0.000335601
0.000516924
0.00173454
0.00423712
0.00131538
0.00199196
0.00101286
0.0010856
0.000583863
0.000525781
0.00684528
0.00103125
0.00251153
0.00255959
0.00258741
0.00212095
0.0023183
0.00269223
0.00066678
0.000537189
0.00261142
0.00134976
0.000681836
0.000710443
0.000451687
0.00116263
0.000422591
0.00234904
0.000449136
0.00148731
0.00156426
0.00257531
0.000581913
0.000574161
0.00128556
0.00273298
0.00121984
0.000738978
0.00218969
0.00164715
0.00050598
0.000759104
0.000509261
0.000571898
0.000467683
0.000656607
0.000149725
0.00257121
0.000660207
0.000814621
0.00055129
0.00185684
0.000425973
0.000607387
0.00111623
0.00263316
0.000479713
0.0009296
0.00041363
0.00161539
0.000715736
0.000951634
0.000628474
0.000405729
0.00195436
0.000451464
0.000672451
0.00132299
0.000853163
0.00160315
0.000896081
0.000652705
0.000433154
0.00276582
0.000806136
0.000337951
0.000908023
0.00277707
0.00165094
0.00110954
0.000887664
0.000656923
0.00139263
0.00061969
0.00124116
0.000583299
0.000168994
0.00249344
0.000296518
0.00043715
0.000937601
0.00178457
0.0013775
0.000895605
0.000261925
0.00149463
0.000726146
0.00218392
0.000821254
0.000368201
0.00229167
0.00205517
0.00254836
0.000667917
0.000789775
0.00207782
0.000627876
0.00161598
0.00253444
0.000651811
0.00163446
0.000390011
0.00077771
0.000391986
0.00232275
0.00200839
0.0019545
0.000292051
0.000297476
0.0006027
0.00113369
0.000494578
0.00248795
0.000951567
0.000960411
0.00105805
0.00067873
0.000999794
0.000614141
0.00292621
0.00103978
0.000679803
0.00261068
0.000719983
0.000901904
0.00137034
0.00281655
0.00158471
0.00213154
0.000269264
0.000685004
0.00133037
0.00107777
0.000838342
0.000853384
0.00102243
0.00115098
0.00119199
0.00285521
0.00231401
0.000887015
0.00205828
0.000909983
0.00110425
0.00280884
0.000729888
0.00144453
0.000462492
0.0013143
0.00351921
0.00120388
0.000270054
0.000317924
0.000254008
0.000742592
0.00117288
0.000901687
0.000640593
0.0016698
0.00075246
0.000693008
0.000588504
0.00177179
0.000804255
0.00103653
0.000700461
0.000937498
0.00288928
0.00125343
0.00240407
0.000949282
0.000805474
0.00088381
0.00190491
0.000812324
0.000689441
0.000919726
0.00129031
0.000608979
0.000193665
0.000525199
0.000614541
0.000636593
0.000923149
0.000679895
0.000677
0.00108939
0.000703404
0.000539648
0.000844807
0.000821012
0.00216404
0.000788014
0.0016469
0.000664205
0.0019427
0.00106677
0.000856984
0.00201676
0.00103586
0.00222058
0.00065233
0.00235295
0.00244018
0.000424674
0.00252181
0.00286978
0.000317308
0.000222837
0.000375789
0.000243811
0.000339347
0.000645674
0.00319937
0.00287087
0.00164874
0.000685564
0.00319978
0.000697409
0.00226697
0.00545137
0.00269625
0.000767868
0.000664705
0.00311031
0.000715621
0.00143424
0.000868115
0.00288373
0.00166932
0.000807527
0.000588695
0.00281907
0.000921722
0.000850602
0.00070675
0.000613567
0.00206033
0.00114831
0.000714026
0.000486265
0.00287935
0.000770934
0.000286733
0.000358592
0.000633276
0.00094049
0.000879152
0.00119461
0.000472231
0.00202375
0.000487611
0.00071962
0.00287164
0.00146351
0.00230739
0.00304935
0.000977279
0.00275568
0.00350301
0.00099105
0.000379225
0.000718718
0.00258061
0.00065468
0.00145661
0.000883413
0.000907962
0.000887024
0.00235122
0.000196054
0.00759303
0.00220421
0.000668404
0.000850773
0.0010215
0.00276823
0.000730248
0.0014367
0.000855107
0.00197538
0.000819162
0.000740006
0.0012906
0.00292004
0.000271054
0.000263332
0.000281321
0.000247165
0.000320594
0.00019991
0.000336025
0.000300382
0.000281347
0.000228116
0.000344
0.000268055
0.000270498
0.000165905
0.000308099
0.000280103
0.0002915
0.00040858
0.000362435
0.000223088
0.000255469
0.000356
0.000182964
0.00039642
0.00029769
0.000695858
0.00198328
0.00312527
0.000844819
0.00312531
0.00216397
0.00222255
0.000745964
0.00147388
0.000354283
0.00761512
0.00118057
0.00196469
0.00149112
0.00130672
0.000355316
0.000356507
0.00038153
0.000254563
0.000205195
0.000375162
0.000485638
0.000232527
0.000274611
0.000392478
0.000270733
0.000257006
0.000276851
0.000252551
0.00362653
0.000619627
0.000313749
0.000700846
0.000861001
0.00183964
0.000688599
0.000991103
0.00125116
0.000778576
0.000873193
0.00182868
0.00099245
0.00146934
0.00269593
0.00127316
0.00316528
0.000215543
0.000802428
0.00129816
0.000596435
0.000779443
0.000156988
0.000300328
0.000576784
0.00150031
0.000929944
0.00237328
0.00111243
0.00209418
0.00705009
0.00126462
0.00100731
0.000885956
0.00144483
0.000322484
0.00034107
0.00248233
0.00205613
0.00230531
0.00258522
0.00132803
0.0017077
0.00251232
0.000348971
0.00162548
0.00151763
0.00180576
0.00187951
0.00130601
0.00151457
0.00142929
0.00130077
0.00167752
0.000810299
0.00225362
0.00324001
0.00102091
0.00350281
0.00217266
0.00197946
0.00115406
0.00136712
0.000389377
0.0010216
0.0022778
0.00115461
0.00124542
0.00210468
0.00178421
0.00190852
0.00323946
0.00213499
0.00371476
0.00241023
0.000902701
0.0026722
0.00175012
0.000946955
0.00206626
0.00241747
0.000274048
0.00172441
0.00164604
0.0023746
0.00253733
0.00215437
0.0021305
0.000274439
0.00328166
0.000854815
0.00152218
0.000350617
0.00300458
0.00114633
0.00178434
0.000986058
0.00389403
0.00188613
0.000266811
0.000321739
0.00155667
0.00593727
0.00131824
0.000986011
0.00448157
0.00128576
0.0018904
0.00111987
0.00129978
0.000587781
0.00333485
0.00220047
0.00212644
0.00089937
0.00142954
0.000540889
0.000496329
0.00194418
0.00547342
0.0013466
0.000329413
0.000368689
0.000841593
0.0012402
0.00039859
0.00120565
0.000537908
0.00165262
0.00219358
0.00136682
0.002329
0.0012869
0.00178152
0.00223623
0.00163459
0.001475
0.000887759
0.00152034
0.000748582
0.00131693
0.00242093
0.00207939
0.0023098
0.00279613
0.00131594
0.000714845
0.000414133
0.00103248
0.00183141
0.000737852
0.000363402
0.000562166
0.00111685
0.00142814
0.00163332
0.00203408
0.00122862
0.00101655
0.00303463
0.0025537
0.00110376
0.000752151
0.00177334
0.00222846
0.00191843
0.00198866
0.00153969
0.000991769
0.000253307
0.00314685
0.00252439
0.000805018
0.00116183
0.000790612
0.00268734
0.00211774
0.00165106
0.00222399
0.00148082
0.000726796
0.00251067
0.00153327
0.000916753
0.00148968
0.0019279
0.00310105
0.00220714
0.00283629
0.00079949
0.000909125
0.00189568
0.00305809
0.000573529
0.00180282
0.00215191
0.00265102
0.00055616
0.00245634
0.000568751
0.000536808
0.00184796
0.0023025
0.00258495
0.000807266
0.0024996
0.00152815
0.000666708
0.00550308
0.00250443
0.00102414
0.00307528
0.00240615
0.000267114
0.000291392
0.00195736
0.000861146
0.000759104
0.00114311
0.00126592
0.00272528
0.00308673
0.00162648
0.00312262
0.000835585
0.00106451
0.00067324
0.000768924
0.00276727
0.00272424
0.000931306
0.00253957
0.00280426
0.00247175
0.00146352
0.00219359
0.00542244
0.000605808
0.000571146
0.00299174
0.000635832
0.00151968
0.000949535
0.000894012
0.00101864
0.000389387
0.00320554
0.000837413
0.00264973
0.00189103
0.000917584
0.00128683
0.00330468
0.00309914
0.00284031
0.000841475
0.000272718
0.00111911
0.0027149
0.00115895
0.00269778
0.000850383
0.000972848
0.00146143
0.00082315
0.00048906
0.00132168
0.00061047
0.00308977
0.000742825
0.00217644
0.00275833
0.00151902
0.000868072
0.00320629
0.00304138
0.00221256
0.00115252
0.00254584
0.00234602
0.00171474
0.00144669
0.000751938
0.000728892
0.00290174
0.00289514
0.000556787
0.00215129
0.00309697
0.00292476
0.00173268
0.00322461
0.00313792
0.00129551
0.000744257
0.00109917
0.00062136
0.000262213
0.000276753
0.00192084
0.00304746
0.000765172
0.00136985
0.00105429
0.000843289
0.000165193
0.000775372
0.00236639
0.000617272
0.00247193
0.000913351
0.000220315
0.00112938
0.000699094
0.00112663
0.00111987
0.00116641
0.00317664
0.000848047
0.00310907
0.0010963
0.00297455
0.002213
0.00193031
0.000747467
0.00319752
0.00119849
0.00215396
0.000920339
0.00215223
0.00337174
0.00205725
0.000938647
0.000877675
0.000192032
0.00109635
0.00088258
0.000978102
0.000723714
0.00312685
0.00295585
0.000984063
0.00157224
0.00208329
0.00266349
0.00126893
0.00217407
0.00273589
0.000761368
0.00218958
0.000750489
0.00140774
0.00156555
0.00248784
0.000978014
0.00169602
0.0002277
0.000216638
0.00245865
0.000242383
0.000214379
0.000303429
0.00374131
0.000291589
0.000257479
0.000161291
0.000159169
0.000210418
0.00125774
0.000202205
0.000766153
0.000441438
0.00310465
0.000532132
0.000273349
0.000556794
0.00275549
0.00195902
0.000868971
0.00699405
0.00210991
0.000591591
0.000681997
0.000279972
0.000723935
0.00303675
0.000822318
0.000693955
0.00209507
0.00117504
0.000277391
0.000574627
0.000512996
0.00253486
0.00368602
0.000321666
0.000189354
0.0031191
0.00178061
0.000872222
0.00310238
0.00088639
0.00192327
0.00731497
0.0013613
0.000174576
0.000223799
0.00294469
0.00255074
0.000792824
0.00122389
0.000900657
0.000247715
0.000659809
0.000750832
0.000924397
0.000683303
0.000753712
0.00190319
0.00488698
0.000866657
0.00164675
0.000229965
0.000282437
0.00185706
0.000979777
0.000605635
0.000610055
0.000192689
0.00175281
0.000610194
0.000670003
0.00302335
0.00775173
0.000213091
0.0012947
0.00187117
0.000679064
0.00221885
0.000552931
0.000238629
0.000759882
0.0021765
0.00719266
0.000780203
0.00313006
0.00216882
0.000217416
0.000224534
0.000694328
0.000822246
0.000861994
0.00059737
0.000844841
0.00188788
0.00070647
0.000236642
0.000720217
0.0006107
0.0026231
0.00295202
0.000473424
0.000337347
0.000181593
0.00102751
0.00221625
0.00217264
0.000892725
0.00224528
0.00305094
0.00298048
0.00295347
0.00217497
0.0018218
0.0025028
0.00178349
0.00226466
0.000158082
0.000569656
0.00146816
0.000292892
0.000462969
0.000283227
0.00244964
0.0007935
0.00361022
0.00110378
0.00101419
0.000884797
0.00055764
0.00105706
0.00250317
0.000584662
0.0010639
0.000352943
0.00199185
0.00227588
0.000451732
0.000757191
0.000650808
0.00150197
0.00756038
0.00285441
0.000644692
0.000679128
0.00106107
0.000973895
0.000569757
0.000433153
0.000890143
0.00257735
0.00307682
0.00141671
0.00258394
0.000794782
0.000562314
0.000611749
0.00112427
0.0018865
0.000857381
0.00115058
0.00157444
0.00145561
0.000907362
0.00131718
0.00140776
0.00137695
0.00267238
0.000223213
0.00093042
0.000921014
0.00292371
0.000825577
0.000865806
0.000430897
0.00263593
0.0002144
0.00231128
0.000158551
0.00190218
0.000711428
0.00141266
0.000951226
0.00144519
0.000683557
0.00203294
0.00280016
0.00231951
0.000669564
0.0016847
0.00101235
0.00203304
0.00103522
0.000665867
0.00163393
0.00243557
0.00270009
0.000176989
0.0030554
0.001184
0.00306736
0.00118225
0.000142171
0.000131027
0.000113305
0.00012163
0.000229487
0.000201228
0.000234707
0.000217542
0.000153134
0.00020389
0.000212353
0.000162357
0.000167722
0.00016869
0.000894622
0.000164726
0.000161967
0.00257671
0.000277351
0.00201264
0.000193133
0.00022713
0.00355443
0.00151124
0.000888483
0.000555765
0.000182645
0.00201097
0.000462662
0.000695709
0.00131341
0.000234712
0.00194506
0.000217605
0.000497989
0.00183835
0.000234075
0.00107968
0.000890754
0.000239102
0.000780609
0.00212708
0.00199466
0.00681606
0.00223958
0.00162646
0.000741303
0.00113515
0.00126404
0.000745408
0.00170358
0.000900346
0.000763626
0.000239044
0.000244526
0.00158588
0.000503121
0.000182128
0.00350293
0.00187662
0.00234432
0.000242189
0.000245269
0.00197218
0.00155285
0.00287819
0.000593353
0.000735087
0.00225758
0.00080303
0.000319703
0.00146875
0.000226446
0.00026708
0.00246196
0.00135171
0.00111449
0.00111367
0.000913192
0.00174691
0.00222051
0.000685712
0.000451766
0.000384092
0.000423469
0.00235294
0.00233985
0.00101503
0.00219984
0.0007851
0.00497517
0.00144491
0.000673216
0.0025075
0.000308756
0.000196501
0.00279695
0.0011203
0.000118841
0.00209563
0.00119325
0.00640648
0.000123514
0.000753968
0.00143181
0.00214514
0.00205481
0.000849563
0.000163427
0.00295514
0.00112337
0.000962202
0.000429857
0.000553198
0.00221562
0.000282459
0.00161249
0.00359875
0.000613372
0.000448449
0.000951806
0.00186701
0.000612448
0.000489782
0.000154751
0.000910596
0.00120979
0.000541992
0.00286309
0.0018081
0.00288105
0.0015945
0.000310833
0.000997013
0.00112646
0.00366783
0.00087742
0.00195842
0.00184227
0.000844881
0.000200847
0.000900684
0.000272864
0.00029626
0.00173574
0.000721182
0.00271925
0.00224938
0.00245865
0.000573202
0.000927307
0.00166292
0.00183404
0.000845084
0.00296877
0.00027774
0.000228821
0.000446661
0.00135304
0.00132527
0.000933391
0.000275417
0.000270953
0.000944452
0.00217037
0.00102294
0.000486223
0.000149028
0.00027228
0.00130398
0.000235898
0.00139415
0.0022959
0.000911212
0.000897483
0.00144179
0.000234666
0.000459298
0.000613856
0.000664197
0.00107236
0.000182063
0.000248494
0.00297022
0.000638437
0.000207033
0.000291133
0.000525852
0.00066618
0.000380404
0.00114652
0.000354329
0.000634271
0.00102333
0.00311778
0.00030696
0.000618177
0.00191595
0.000214795
0.00341005
0.000620832
0.000232872
0.00160993
0.00160542
0.00111689
0.00107229
0.0020239
0.000145848
0.000745307
0.00292213
0.000224436
0.000623521
0.000214101
0.000434423
0.000756595
0.000224263
0.0019582
0.000212494
0.000444081
0.000794053
0.000596803
0.00063754
0.00242225
0.002874
0.000340942
0.00288378
0.000742035
0.000371526
0.00062913
0.000482209
0.000426043
0.000171507
0.000966218
0.00301373
0.000518075
0.00022419
0.00168488
0.00463231
0.000886536
0.000540956
0.00159093
0.000266105
0.00235163
0.000918042
0.00052164
0.000180848
0.000567666
0.00148251
0.00079113
0.00229879
0.000960014
0.00144969
0.00112522
0.00072443
0.000233842
0.000751092
0.00537368
0.00213444
0.0026084
0.000505437
0.00213757
0.00129861
0.00097999
0.00253456
0.000843336
0.000666133
0.00152294
0.00044313
0.0029454
0.000698306
0.0022852
0.00200234
0.000942214
0.000572824
0.000673269
0.00258569
0.000880536
0.0024211
0.00315077
0.00211607
0.000339724
0.000615089
0.000745705
0.000925327
0.00131699
0.000579099
0.000500766
0.000191916
0.0046815
0.00195682
0.000682394
0.000672046
0.00136438
0.000397448
0.000790689
0.000423391
0.00237595
0.000526604
0.00209992
0.000553464
0.000352208
0.00116377
0.000661069
0.00310638
0.00302027
0.00270251
0.00340983
0.000724419
0.0012749
0.000796388
0.00133854
0.00153784
0.00618275
0.00117526
0.00355728
0.0027752
0.000905918
0.000773323
0.00181894
0.00283728
0.000704984
0.000660032
0.00124883
0.000931845
0.00224477
0.00258014
0.000896581
0.000933512
0.00128238
0.000155205
9.66773e-05
0.000488438
0.00248215
0.00195382
0.000329769
0.00601455
0.00207316
0.00239863
0.00149333
0.000600556
0.000870547
0.000609963
0.000863668
0.000720645
0.00395952
0.000830317
0.000770324
0.00228746
0.00183327
0.000626584
0.0006948
0.00110085
0.00672565
0.00209551
0.000523866
0.00262395
0.00240478
0.0027316
0.000153759
0.0031067
0.00092386
0.00225663
0.00359554
0.000119546
0.0009336
0.000733381
0.00209843
0.00135578
0.00339935
8.95563e-05
0.00115543
0.0029127
0.000841932
0.0010165
0.000227467
0.00109367
0.00304798
0.000772795
0.00121852
0.000662297
0.00282307
0.000617746
0.00116115
0.00226555
0.000910874
0.00146548
0.00218034
0.000646583
0.00083069
0.000811868
0.00215881
0.000985882
0.00303495
0.000573728
0.00119145
0.00197422
0.000272923
0.00255825
0.000919242
0.000874977
0.00062393
0.000889714
0.00166784
0.000164627
0.000891296
0.00104849
0.000214661
0.00163702
0.000689191
0.000899828
0.000817981
0.00302903
0.000506856
0.00284787
0.000881413
0.000943427
0.000902392
0.0017994
0.0012031
0.00054628
0.00232268
0.000592954
0.00126029
0.000475966
0.000604378
0.000380714
0.000722016
0.000650155
0.00197894
0.00342124
0.000148455
0.000617066
0.00124838
0.000857427
0.0013139
0.000199738
0.000828755
0.000235775
0.00291862
0.000734704
0.000735241
0.000445472
0.000796166
0.0015578
0.000883588
0.00102137
0.000769654
0.000716192
0.00212339
0.00144509
0.00152161
0.000560655
0.00129231
0.000749648
0.000855648
0.000788702
0.000199194
0.000683312
0.00108298
0.00203819
0.0006525
0.00234957
0.00186198
0.00310637
0.00071763
0.00131171
0.00166437
0.000429648
0.000380468
0.000697751
0.00157212
0.000746396
0.000619838
0.000890786
0.000768057
0.000839684
0.000793259
0.000931246
0.00136801
0.00515175
0.00205811
0.00412292
0.000666828
0.00129196
0.000711503
0.00048899
0.00249003
0.00237517
0.000777122
0.0007376
0.00107692
0.000809425
0.000625405
0.0007991
0.000487341
0.000728014
0.000645234
0.00116802
0.000332465
0.00130398
0.000842283
0.000957076
0.0011691
0.000711954
0.00213022
0.00234624
0.000637212
0.000781702
0.00136846
0.000815933
0.000751939
0.00170162
0.000310375
0.00204226
0.00263507
0.00282442
0.000582536
0.00215754
0.00262462
0.000465625
0.00115125
0.000671099
0.00158633
0.000348001
0.000372654
0.000496192
0.000689207
)
;

boundaryField
{
    frontAndBack
    {
        type            empty;
    }
    wallOuter
    {
        type            nutkWallFunction;
        Cmu             0.09;
        kappa           0.41;
        E               9.8;
        value           nonuniform List<scalar> 
102
(
1.48666e-05
1.48666e-05
3.37755e-05
1.57199e-05
1.82863e-05
2.21325e-05
2.48199e-05
1.79703e-05
2.60639e-05
2.4443e-05
2.81356e-05
2.39997e-05
3.01238e-05
1.68545e-05
1.71011e-05
2.40511e-05
2.3066e-05
3.29938e-05
3.37728e-05
3.36007e-05
2.13651e-05
1.91303e-05
2.59719e-05
2.68564e-05
3.36131e-05
2.5046e-05
2.60258e-05
1.67642e-05
3.40328e-05
2.47202e-05
1.68958e-05
1.46054e-05
1.29607e-05
1.03353e-05
1.15369e-05
2.64756e-05
2.27333e-05
2.71069e-05
2.48011e-05
1.61898e-05
2.29284e-05
2.40395e-05
1.75001e-05
1.82434e-05
1.83512e-05
1.77778e-05
1.7384e-05
2.16943e-05
2.60076e-05
2.71721e-05
2.52336e-05
2.71256e-05
2.76066e-05
2.77117e-05
2.83442e-05
2.04201e-05
2.80944e-05
2.84705e-05
2.61935e-05
3.21542e-05
3.79377e-05
1.10187e-05
1.15813e-05
1.7485e-05
3.36905e-05
1.63607e-05
3.71237e-05
3.25606e-05
3.6121e-05
2.67886e-05
3.31128e-05
3.30382e-05
1.55391e-05
3.28792e-05
2.74061e-05
2.72494e-05
2.01565e-05
2.36158e-05
4.38265e-05
2.43828e-05
2.7034e-05
1.50475e-05
2.60914e-05
2.4487e-05
3.97453e-05
1.82731e-05
2.58978e-05
2.00683e-05
2.70609e-05
2.11445e-05
1.639e-05
7.93405e-06
1.61144e-05
1.12618e-05
6.61462e-06
2.63259e-05
3.23066e-05
1.74888e-05
2.46629e-05
1.53782e-05
2.26094e-05
2.76441e-05
)
;
    }
    inlet
    {
        type            calculated;
        value           nonuniform 0();
    }
    outlet
    {
        type            calculated;
        value           nonuniform 0();
    }
    wallInner
    {
        type            nutkWallFunction;
        Cmu             0.09;
        kappa           0.41;
        E               9.8;
        value           nonuniform List<scalar> 
138
(
2.28819e-05
2.47909e-05
4.07611e-05
6.39179e-05
8.70187e-05
5.61989e-05
0.000134161
5.22248e-05
7.01775e-05
4.91608e-05
5.08732e-05
4.00991e-05
3.06862e-05
9.46487e-05
4.73751e-05
3.45694e-05
3.47102e-05
3.24181e-05
3.1541e-05
3.721e-05
2.97964e-05
2.18269e-05
5.15932e-05
3.77663e-05
2.55567e-05
4.52772e-05
2.84003e-05
4.05843e-05
0.000162292
3.38768e-05
4.30567e-05
5.76168e-05
3.20618e-05
3.09168e-05
3.35709e-05
2.88801e-05
3.84814e-05
2.27345e-05
4.09179e-05
3.5886e-05
3.3264e-05
2.63409e-05
4.2099e-05
3.16255e-05
3.19556e-05
1.73774e-05
3.66785e-05
3.35849e-05
3.49922e-05
4.96011e-05
4.35772e-05
2.61212e-05
2.99022e-05
4.31143e-05
2.01512e-05
4.85298e-05
3.52411e-05
4.19685e-05
4.35599e-05
4.30886e-05
4.62901e-05
2.98163e-05
2.34423e-05
4.51448e-05
5.9604e-05
2.69452e-05
3.21439e-05
4.80583e-05
3.193e-05
3.06635e-05
3.28101e-05
2.98815e-05
3.7673e-05
1.63059e-05
3.61754e-05
3.88073e-05
4.13528e-05
4.19565e-05
0.000113467
4.74815e-05
3.2367e-05
3.19626e-05
4.34228e-05
3.17805e-05
3.95772e-05
5.94443e-05
3.96041e-05
4.46765e-05
4.83486e-05
7.95399e-05
4.85991e-05
4.38751e-05
2.9574e-05
6.80773e-05
3.09426e-05
3.45633e-05
4.70904e-05
3.29717e-05
6.69277e-05
3.05916e-05
3.27647e-05
2.5114e-05
2.16541e-05
3.6036e-05
3.53642e-05
3.89063e-05
2.89975e-05
2.14146e-05
2.38007e-05
2.75618e-05
2.77396e-05
4.09182e-05
1.97993e-05
3.48004e-05
4.28638e-05
2.60563e-05
1.94824e-05
3.26184e-05
2.02211e-05
3.87318e-05
4.66577e-05
5.01343e-05
2.20667e-05
2.27473e-05
3.30941e-05
2.88971e-05
2.5769e-05
2.44834e-05
4.55187e-05
3.11268e-05
4.11706e-05
4.64584e-05
0.000130538
8.1899e-05
4.20884e-05
4.32784e-05
5.99482e-05
8.42435e-05
)
;
    }
    procBoundary2to0
    {
        type            processor;
        value           nonuniform List<scalar> 
42
(
0.00737379
0.00737379
0.000976752
0.000715201
0.00212951
0.00764288
0.00125942
0.00125942
0.00193171
0.00157429
0.00328182
0.00328182
0.00262769
0.00357469
0.00367906
0.00729185
0.00377474
0.00135167
0.00181673
0.00363618
0.00318352
0.00116697
0.00116697
0.00235266
0.00318352
0.000907888
0.00469029
0.000702239
0.00469029
0.00702538
0.00515693
0.000769434
0.00089858
0.000990306
0.0011081
0.000715201
0.00377474
0.000260731
0.00669276
0.00148216
0.00148216
0.00127568
)
;
    }
    procBoundary2to1
    {
        type            processor;
        value           uniform 0.00382586;
    }
    procBoundary2to3
    {
        type            processor;
        value           nonuniform List<scalar> 
29
(
0.00134637
0.00185109
0.000393398
0.000356017
0.00129559
0.00055515
0.000831865
0.00171797
0.0012916
0.0011989
0.00133493
0.00287919
0.000629026
0.00260689
0.00210068
0.00295923
0.000935444
0.000935444
0.00185109
0.00260689
0.00243421
0.000825095
0.000433788
0.00124355
0.00124979
0.000660081
0.0012916
0.0040024
0.00287919
)
;
    }
}


// ************************************************************************* //
