/*--------------------------------*- C++ -*----------------------------------*\
| =========                 |                                                 |
| \\      /  F ield         | OpenFOAM: The Open Source CFD Toolbox           |
|  \\    /   O peration     | Version:  v1912                                 |
|   \\  /    A nd           | Website:  www.openfoam.com                      |
|    \\/     M anipulation  |                                                 |
\*---------------------------------------------------------------------------*/
FoamFile
{
    version     2.0;
    format      ascii;
    class       volScalarField;
    location    "0.93";
    object      epsilon;
}
// * * * * * * * * * * * * * * * * * * * * * * * * * * * * * * * * * * * * * //

dimensions      [0 2 -3 0 0 0 0];


internalField   nonuniform List<scalar> 
1431
(
0.385801
4.6245
93.8652
61.7311
1.22065
27.4366
1.74162
4.42763
94.6369
25.858
13.6885
2.05806
0.764103
59.5191
54.0358
27.9072
60.9415
2.12318
2.0226
12.0042
0.7904
14.0187
32.1234
66.195
50.9167
10.6305
55.1086
53.643
22.0935
1.22223
50.679
12.2377
30.8315
2.75411
1.60445
45.6548
9.36701
10.2644
9.31171
9.82738
148.524
7.4511
1.73822
1.21138
32.9102
1.1196
36.5505
4.95656
18.627
16.3696
1.28282
26.0977
69.9902
2.25087
1.27783
4.82961
28.7554
55.0803
54.2732
1.00861
41.9168
4.34645
48.2795
9.82899
35.138
2.00174
77.5324
28.8283
1.38277
12.5126
1.73778
1.13697
2.44242
21.3863
12.4616
28.3649
0.833674
60.1391
5.76562
80.7727
8.11901
1.38768
0.559019
54.138
88.89
1.00412
0.98227
16.0522
74.0993
8.36224
3.77559
38.6692
0.930017
10.158
1.7847
0.74085
11.6399
8.70522
1.06901
31.5346
1.89158
5.54703
6.56986
1.25537
22.3446
0.914342
6.61283
161.02
65.7894
1.07875
97.3051
3.01081
5.49803
4.96109
19.754
1.31103
2.05875
20.9597
83.8844
26.7616
8.93329
63.9312
28.594
55.3737
9.33538
0.549765
96.4213
2.96846
0.73599
26.4186
3.62397
127.056
48.4536
5.81153
0.918653
62.6704
2.93625
2.90752
2.11956
138.948
40.6426
1.03112
9.83127
19.134
21.6099
16.2229
8.76039
160.106
4.08236
14.9826
28.2528
38.537
1.88436
0.37262
3.35662
2.00179
8.99095
4.43016
5.0948
8.61365
1.93556
9.62949
4.61164
12.7191
1.23592
134.412
0.887596
9.6212
1.24166
7.01354
34.1353
18.9904
49.7986
17.4448
9.33291
0.836858
3.24197
25.5137
1.34304
6.06721
10.7441
32.6621
5.10744
6.40272
14.1427
16.968
6.36491
49.7734
9.93854
10.09
1.12873
74.8401
0.703869
7.36494
104.403
8.09488
6.29993
7.34714
3.04925
1.39782
0.691442
72.9613
12.5175
164.604
6.95438
64.9064
0.854339
10.0445
11.2958
23.0267
7.96775
5.35813
77.1836
9.71936
27.2776
32.7754
4.76471
1.02296
11.1436
9.99724
9.23181
64.372
21.5149
145.325
11.0614
29.0536
26.999
5.57934
18.914
51.197
1.06809
39.9488
11.0331
4.55876
4.40905
4.8218
10.0879
0.953075
8.20385
0.706656
10.3661
10.3259
76.829
65.2426
2.31072
2.95063
10.3689
1.49745
2.76808
27.5623
8.96237
88.9323
22.0099
19.4162
44.849
36.189
0.619467
0.843524
30.6992
33.8776
38.087
6.13492
1.25303
45.7183
4.50138
18.2513
28.7113
7.53016
16.1423
52.7826
6.91789
23.3969
8.78239
8.68962
40.3631
8.65201
6.26689
1.46397
1.93738
29.3165
92.311
0.602778
4.38794
4.91751
31.6809
46.4544
1.01657
4.35649
23.2451
9.25189
17.7925
11.4988
4.51047
1.11948
10.4971
5.54766
0.704609
7.48851
1.38402
7.33014
11.1135
27.5073
0.296237
6.47072
3.94248
2.00325
8.61813
34.7976
32.2552
0.258576
9.98813
13.0858
40.7202
0.92492
2.7033
2.33074
32.2801
0.78343
4.42804
0.727614
1.50543
0.379132
42.1173
0.818373
22.2975
1.27092
7.39575
1.70161
80.1709
9.35942
11.2688
0.272966
0.501704
1.11686
8.84712
60.9476
1.31561
0.21723
1.38375
0.320189
0.712615
7.60577
2.03392
18.3743
45.6318
0.599479
11.3849
0.183506
0.309597
0.4373
1.42144
2.79411
2.23304
0.910561
0.899514
1.84683
2.39705
0.718472
1.27556
1.04583
0.573425
0.901497
0.807951
0.788118
0.17895
0.430013
0.671968
0.960334
18.1433
25.7479
3.69496
0.563433
0.632439
13.3859
1.00719
58.4988
8.66523
11.4958
13.9057
1.4996
3.48237
1.01698
0.252741
2.30903
0.874431
0.732536
0.94482
0.827644
1.06208
0.533677
0.195088
63.8513
21.7009
13.9162
1.05762
3.75915
0.202156
10.7397
6.86955
9.1223
0.715501
7.02264
10.2531
1.4663
8.41672
12.238
0.799263
7.83937
0.268719
14.9425
41.3855
11.3103
2.53106
62.6391
20.2559
42.4563
7.49985
63.6095
0.601094
0.227523
0.779852
1.05783
6.16553
1.91435
0.926573
9.25908
2.27001
12.8161
43.0049
10.9025
53.1749
2.20649
7.34029
3.64143
0.613734
12.0589
1.24244
4.3613
1.23086
3.04703
1.58827
132.165
2.52853
1.99358
1.27299
3.22892
8.14851
1.75457
1.83499
9.32509
4.87399
3.83798
6.82684
6.2995
1.15128
5.56443
3.21486
2.56149
4.35539
0.654435
50.0628
2.42196
4.36102
12.3543
0.687569
0.694851
0.222078
80.1829
3.975
0.626135
79.5114
1.4865
6.13043
45.494
5.94387
0.65398
62.542
56.835
79.2462
1.07007
0.990564
1.34859
47.9216
4.82012
10.7403
11.0417
15.8415
6.26397
1.75042
0.611242
0.72225
1.51065
0.536501
62.7438
1.08967
1.23784
95.2694
1.22076
11.3718
1.13475
23.5009
128.845
14.6494
15.3316
8.04884
1.41751
0.565731
6.2259
1.21616
99.5619
81.6603
1.44582
6.2657
13.9924
11.3207
1.27769
69.4225
112.411
1.08121
0.849302
1.35674
1.29313
1.12251
0.305862
1.51827
1.45465
3.6628
1.35431
1.12611
1.99593
11.0881
6.83952
1.14874
1.09996
2.49989
1.2581
33.91
2.03987
2.94802
41.5084
16.8371
53.5082
6.56722
18.9394
2.72659
10.3744
5.13559
5.34235
3.86828
0.447511
1.09224
0.668231
31.4831
1.62571
0.532429
6.31811
54.0128
9.61584
32.2619
4.44067
4.19375
1.96547
76.8373
68.2807
38.8582
0.431462
1.58824
4.97039
42.0964
7.20783
0.51255
11.3231
47.1849
10.7703
60.4022
3.58864
1.21137
1.04151
3.90142
17.887
1.15089
5.62802
5.04519
14.2051
2.39529
2.10709
4.08331
11.3623
1.32725
18.122
24.2657
49.8145
13.7243
10.0886
8.89009
2.13543
0.259351
1.29038
5.12263
0.394947
5.23198
3.56674
0.456038
5.84263
16.1899
6.3733
9.95865
0.355296
17.6936
80.7692
51.5024
3.48296
0.275348
16.168
66.5093
5.11526
66.6425
37.4001
31.8533
3.76006
0.354989
1.12074
2.25738
0.233225
1.12433
9.10612
0.248865
0.297965
1.93266
5.91504
19.4673
2.13874
0.604697
6.35283
1.00528
2.35747
0.341517
4.84819
24.36
2.43352
6.33554
30.6499
6.81907
5.11886
1.28255
33.4698
6.411
75.4371
23.1672
2.35306
2.17437
1.54755
8.05468
30.6294
71.339
2.14829
7.23558
11.8066
1.34959
3.76281
19.313
0.620447
2.98695
3.72558
8.69494
0.484966
13.6838
10.0652
3.64017
29.4281
0.311951
7.65074
2.61269
26.4188
11.6586
11.8626
24.6027
20.9297
0.197256
20.8839
37.5009
0.998076
11.8076
2.89604
1.03375
1.97235
1.17148
30.8843
15.2259
0.307242
65.7977
25.8443
17.1961
3.06015
1.68612
0.259588
1.02387
0.286408
8.10975
5.1671
16.9034
0.282731
4.18072
0.215144
0.821564
29.3221
27.86
9.54317
13.9289
168.934
1.07163
0.215818
0.507701
10.1082
27.183
25.1487
5.97074
109.941
5.54982
1.84736
23.8911
9.61959
5.32797
72.9705
0.205548
26.2649
13.389
46.9988
29.943
0.532964
0.683915
0.618594
28.3541
28.161
61.3351
4.24814
3.16541
1.45672
8.26082
3.0849
27.5574
62.082
13.0199
1.26376
40.1673
22.2179
5.34171
20.535
42.7739
0.249499
52.2221
4.34123
28.6857
31.4011
4.27145
3.23433
13.0553
29.1463
18.3043
112.671
53.2193
47.5136
33.901
34.304
9.87568
38.776
6.33275
39.2589
42.7473
29.7908
1.14583
64.9587
0.335261
0.367732
7.43856
37.752
0.821148
39.0238
1.73461
0.23818
0.8782
2.2941
33.1945
43.1134
0.488958
149.117
0.271943
0.581418
3.76572
133.729
5.98059
4.31155
81.6135
35.7339
13.9624
10.3416
0.391638
0.23411
65.4182
5.87672
1.6232
40.5582
6.11581
0.208993
1.22278
1.1465
40.1242
1.77905
44.9216
0.74352
8.55781
6.10728
53.4611
0.333683
80.0577
31.1964
37.1411
40.4861
46.6155
35.1062
27.8212
31.8708
35.3175
3.22915
3.64597
17.1889
2.61822
46.7834
0.192646
0.47969
2.18391
0.263637
0.893931
0.75796
0.411422
28.2303
1.27528
30.5092
0.575599
1.26241
4.3683
8.4803
8.55474
34.6964
92.8606
7.00121
0.639231
2.59372
2.46603
6.17901
5.18737
3.85279
1.64711
0.601549
40.166
3.01124
22.1752
58.9742
11.0458
12.3262
5.66221
4.41273
0.329249
1.67821
0.98865
0.647637
5.20523
4.91992
0.626144
0.294061
11.7429
37.6663
1.98466
7.19235
0.27085
7.11764
1.78985
1.3526
1.13237
6.7834
0.919714
0.248329
2.94196
0.323282
10.3844
0.409578
2.77562
49.612
40.7611
10.8519
20.532
80.1477
19.5158
7.93542
7.21677
58.4799
0.24317
0.763754
1.18968
0.407189
1.00226
1.03722
2.20681
1.41557
59.5606
53.2738
25.5959
6.39409
0.241601
1.35153
2.7091
5.55804
94.7881
1.56655
2.56582
17.2574
13.2742
13.2566
11.4877
0.462413
1.1648
5.54642
2.72654
6.01212
5.07468
42.9847
0.527601
34.652
27.9357
36.3672
56.8584
4.36482
5.42814
20.4912
16.873
18.5599
22.3461
15.3982
14.1379
3.72003
1.47703
1.10759
6.90208
12.7568
0.520799
0.79357
97.3872
0.924427
1.54789
1.26861
16.4155
1.59844
30.2459
2.41814
101.461
0.40649
10.5268
1.66114
2.15147
2.18356
46.5812
37.6897
0.608013
1.4607
2.98035
1.43757
7.08042
64.0032
0.711476
25.7208
12.1733
2.4461
2.65066
31.6533
33.8436
3.82092
6.35049
1.73282
3.82612
3.802
7.17331
18.8732
1.50747
60.6329
38.0293
49.055
1.77431
62.5795
0.169128
36.0917
0.821854
6.97866
1.25535
4.67084
11.6688
0.49234
83.4613
43.7308
121.142
1.15254
76.6665
87.3801
23.1379
3.29756
4.23553
4.56348
37.0269
70.195
13.065
5.49997
23.4702
9.68205
5.77229
8.67217
54.9614
74.3176
39.4813
39.1781
1.88657
28.9415
14.5965
41.8473
0.573742
32.5638
44.33
0.561957
1.24708
1.21596
25.6812
156.695
17.0649
10.4986
2.87119
83.1692
1.11997
36.8346
60.8072
10.7636
1.24573
2.6368
36.7749
1.17741
0.578272
0.210936
1.24227
0.579514
62.5401
32.9205
4.31834
45.3708
0.605633
30.6627
45.1157
23.8911
2.20233
1.29089
2.27133
18.262
0.542705
5.08471
1.18337
74.2609
12.99
39.863
5.30915
2.86953
19.079
11.0893
11.4814
38.811
2.6525
4.60848
31.1778
34.7387
6.53631
1.00519
1.30844
69.789
14.1823
14.1383
1.33744
0.69402
0.940566
0.422174
7.38159
0.961002
29.1816
55.4297
22.8356
65.833
0.453299
17.9327
0.985622
5.07269
43.437
0.487445
1.80948
12.0806
0.766832
56.3047
83.0936
0.305681
19.2503
78.4629
1.72444
14.6261
18.2659
0.426358
0.197512
45.093
0.716304
67.3355
1.23858
59.1451
3.35908
78.3616
6.77019
0.584713
17.7925
7.01138
0.503517
1.0838
15.3094
0.508968
103.417
0.174558
1.36087
0.869307
2.31388
1.61536
14.4671
0.986348
0.841349
84.9446
4.46305
6.26634
2.03007
28.1872
0.545585
0.327874
0.614793
2.78221
106.394
24.9875
5.34159
4.82446
59.2083
1.32559
59.846
7.3749
53.6411
0.52058
0.205651
55.6233
1.07474
1.67454
89.9506
48.5239
45.9204
8.90571
114.187
0.445322
0.341229
1.03489
23.7318
62.2389
111.494
0.430568
0.330607
0.213773
12.1216
8.67668
96.2677
95.8994
39.0864
14.3826
4.81031
0.765376
2.93579
1.85302
106.409
45.776
4.48465
0.745657
1.44593
43.7927
72.6669
57.7657
28.4266
0.20093
0.726282
59.1938
30.6543
0.399662
89.3738
47.2034
62.8183
3.42484
3.24721
11.0233
38.7698
34.3219
56.8068
0.99876
82.7447
46.794
12.6654
0.227705
22.8047
13.2127
14.2276
44.0377
34.249
9.1366
1.09293
0.304381
86.6152
2.02795
1.05026
71.6023
2.2667
26.1002
35.2577
1.02543
65.2932
4.69362
10.356
8.77556
19.8157
12.6214
37.0814
93.0292
1.20053
91.0285
0.471392
19.2478
54.6148
0.911844
0.576232
1.07441
1.65129
75.2637
41.5543
3.90531
4.46642
5.72909
0.90617
1.24311
29.7848
9.02974
1.09017
13.1688
4.63966
1.97933
105.202
15.0012
60.1522
30.9232
33.5614
1.87853
0.197192
0.926654
61.0663
47.4002
18.3351
12.387
12.7885
49.9722
1.3694
96.1196
8.9065
1.80659
0.400417
7.63449
15.4057
5.65404
15.6712
8.08364
34.5064
41.158
24.0444
2.1502
5.82423
14.3455
2.54447
80.0346
26.364
77.3549
17.7531
1.83446
84.9048
45.7356
52.5981
0.335284
3.99304
13.0987
2.06024
58.1541
0.196618
0.444075
45.6587
6.0181
50.0706
37.8076
11.9952
10.5755
7.68806
12.5386
2.26817
15.3893
11.8624
20.3036
0.874606
0.968165
3.29876
0.712269
11.7162
50.165
1.43388
1.63103
0.809869
0.25925
0.483868
14.6944
0.536176
69.0984
52.4261
13.3353
4.25954
5.50743
1.84207
2.7637
0.944981
0.590588
5.39088
0.499806
70.6217
5.89579
29.2523
1.15969
7.14388
2.86632
0.958304
123.216
0.515014
0.629647
1.21743
5.0717
2.91175
0.409016
0.586845
35.8906
1.08799
3.97086
1.3612
0.603895
2.09093
30.2517
9.80175
4.92618
3.02451
0.518669
7.37289
0.613546
60.7447
1.09235
10.114
5.02042
0.281268
20.1608
37.3048
8.32107
12.4897
1.18776
4.10843
2.01358
27.1377
0.231971
6.7141
21.6899
17.0085
45.8253
0.58353
159.603
6.11104
44.3502
82.3894
12.0945
3.23138
1.29738
18.9048
8.31635
53.8336
0.67213
32.6348
0.227007
45.2847
0.21397
0.739589
18.2834
7.18532
12.6071
8.24788
56.6259
1.05805
50.1838
41.4763
34.1324
41.5183
4.83856
1.1401
2.98884
65.68
16.5249
11.8955
11.8854
78.9667
19.4533
94.0967
21.5541
27.6048
23.8274
5.05962
44.2502
18.1519
2.52439
50.4114
136.277
2.60448
42.6467
78.5802
)
;

boundaryField
{
    frontAndBack
    {
        type            empty;
    }
    wallOuter
    {
        lowReCorrection 0;
        type            epsilonWallFunction;
        value           nonuniform List<scalar> 
90
(
27.9072
25.1487
23.8911
26.2649
29.943
28.3541
28.161
40.1673
22.2179
28.6857
31.4011
42.7473
29.7908
37.752
33.1945
81.6135
31.1964
37.1411
40.4861
46.6155
35.1062
27.8212
31.8708
35.3175
34.6964
59.5606
53.2738
34.652
36.3672
20.4912
16.873
18.5599
22.3461
15.3982
14.1379
12.7568
1.26861
1.59844
30.2459
10.5268
1.43757
7.08042
64.0032
0.711476
1.73282
3.82612
0.169128
36.0917
0.821854
43.7308
54.9614
25.6812
30.6627
39.863
31.1778
1.33744
0.961002
29.1816
55.4297
17.9327
43.437
0.487445
0.305681
78.4629
45.093
59.1451
78.3616
0.508968
103.417
0.174558
45.9204
0.445322
111.494
0.213773
95.8994
106.409
28.4266
30.6543
0.399662
62.8183
35.2577
91.0285
0.471392
30.9232
24.0444
0.25925
123.216
0.515014
35.8906
20.1608
)
;
    }
    inlet
    {
        type            fixedValue;
        value           uniform 14.855;
    }
    outlet
    {
        type            zeroGradient;
    }
    wallInner
    {
        lowReCorrection 0;
        type            epsilonWallFunction;
        value           nonuniform List<scalar> 
138
(
2.05806
2.0226
30.8315
2.75411
1.60445
7.4511
77.5324
28.8283
1.73778
1.13697
28.3649
48.4536
0.37262
3.35662
0.836858
3.24197
3.04925
1.39782
0.691442
72.9613
145.325
36.189
0.619467
30.6992
33.8776
38.087
28.7113
40.3631
31.6809
34.7976
32.2552
0.712615
0.599479
0.183506
0.309597
0.4373
1.42144
2.79411
2.23304
0.910561
0.899514
1.84683
2.39705
0.718472
1.27556
1.04583
0.573425
0.901497
0.807951
0.788118
0.17895
0.430013
0.671968
0.960334
1.4996
3.48237
1.01698
0.252741
2.30903
0.874431
0.732536
0.94482
0.827644
1.06208
0.533677
0.195088
0.715501
11.3103
42.4563
7.34029
132.165
1.27299
1.83499
2.42196
45.494
1.07007
47.9216
0.611242
0.72225
1.51065
1.08967
95.2694
128.845
99.5619
81.6603
112.411
2.72659
0.668231
31.4831
32.2619
0.51255
0.394947
0.604697
0.484966
0.998076
1.02387
0.286408
0.532964
0.618594
13.0199
53.2193
6.33275
7.43856
2.2941
35.7339
1.22278
2.18391
30.5092
0.575599
0.601549
1.35153
42.9847
1.47703
1.10759
0.79357
31.6533
49.055
1.77431
76.6665
87.3801
0.542705
1.30844
69.789
1.72444
0.986348
4.46305
59.2083
1.32559
0.765376
2.93579
1.02543
11.8854
44.2502
18.1519
2.52439
136.277
2.60448
78.5802
)
;
    }
    procBoundary0to1
    {
        type            processor;
        value           nonuniform List<scalar> 
29
(
1.62061
2.4861
3.2803
3.2803
43.6984
43.6984
124.211
20.0292
79.593
9.61316
17.2479
54.3904
3.61878
1.85753
69.4376
26.4762
56.2786
68.7549
5.50088
2.57176
11.2881
6.19776
60.2191
10.4358
10.5199
68.7549
8.25968
65.9331
10.4358
)
;
    }
    procBoundary0to2
    {
        type            processor;
        value           nonuniform List<scalar> 
42
(
17.9348
10.5529
1.3778
1.30321
0.183745
17.9348
1.3778
1.2614
0.170556
0.213753
0.435542
0.979776
0.435542
1.60181
2.5238
19.9296
2.5238
0.225918
0.18718
2.63108
2.63108
0.225918
0.187442
5.48029
5.48029
0.177724
13.9835
0.177536
19.0977
7.78647
7.78647
0.204318
0.231484
0.237224
0.244056
1.3778
5.14037
1.67966
19.0977
1.2614
0.710523
0.37298
)
;
    }
}


// ************************************************************************* //
