/*--------------------------------*- C++ -*----------------------------------*\
| =========                 |                                                 |
| \\      /  F ield         | OpenFOAM: The Open Source CFD Toolbox           |
|  \\    /   O peration     | Version:  v1912                                 |
|   \\  /    A nd           | Website:  www.openfoam.com                      |
|    \\/     M anipulation  |                                                 |
\*---------------------------------------------------------------------------*/
FoamFile
{
    version     2.0;
    format      ascii;
    class       volScalarField;
    location    "0.93";
    object      nut;
}
// * * * * * * * * * * * * * * * * * * * * * * * * * * * * * * * * * * * * * //

dimensions      [0 2 -1 0 0 0 0];


internalField   nonuniform List<scalar> 
1431
(
0.000518955
0.00419074
0.00226502
0.00150464
0.000576853
0.00164016
0.00133235
0.00078625
0.00759119
0.0063855
0.00125596
0.000505469
0.00067188
0.00132766
0.00541228
0.000694192
0.00485786
0.000965301
0.000233411
0.00113017
0.000463386
0.00693368
0.00308141
0.00142637
0.00143267
0.000982569
0.00138207
0.00123663
0.00100916
0.00116219
0.00147511
0.000726569
0.00194488
0.000559964
0.000450941
0.00197694
0.000787337
0.000858097
0.00199999
0.000856932
0.00235741
0.000650951
0.000786997
0.000627484
0.00364932
0.000595674
0.00234435
0.000811681
0.000890795
0.000869047
0.0011028
0.00462198
0.00538449
0.00144333
0.000941588
0.000771891
0.00247033
0.00280371
0.000994249
0.0004142
0.00326318
0.000888347
0.00228765
0.000782991
0.000904117
0.00104896
0.00233092
0.00117491
0.00352301
0.000750216
0.000510355
0.000411857
0.000870597
0.00168385
0.00153507
0.00117428
0.00065249
0.00296689
0.000784399
0.0020559
0.000805533
0.00105642
0.000420802
0.00280746
0.00200251
0.000649588
0.000864187
0.000784439
0.00153307
0.00109294
0.00117048
0.00101806
0.000835893
0.00086155
0.00102641
0.000668128
0.00144304
0.000728666
0.000917481
0.00111376
0.00448428
0.00080546
0.00120399
0.000745294
0.00112677
0.000850632
0.000785527
0.002985
0.00209393
0.000622654
0.00232079
0.00130243
0.000755291
0.000940745
0.00115112
0.000733291
0.00090466
0.00594093
0.00165021
0.00279687
0.000859011
0.00429793
0.00394759
0.00138108
0.000831183
0.00149667
0.00178494
0.00100639
0.00069995
0.000809416
0.00131924
0.00282853
0.00101145
0.000981889
0.000793704
0.00111281
0.000968981
0.00146716
0.000953813
0.0027857
0.00666263
0.000879531
0.000769669
0.000949893
0.00111212
0.000775342
0.000733526
0.00309021
0.00107771
0.000806054
0.000818911
0.00095579
0.00186599
0.000169381
0.000442693
0.000895749
0.000802987
0.000867906
0.000756129
0.000709305
0.00097798
0.00142062
0.00121527
0.00110678
0.000908348
0.00281464
0.000674356
0.000863084
0.00113458
0.000984906
0.00107665
0.00127929
0.00137136
0.000768857
0.000771447
0.000311484
0.000418049
0.000875485
0.00119791
0.000711955
0.000839351
0.0050798
0.000754161
0.000984819
0.000773143
0.000814379
0.000753043
0.00114434
0.000851236
0.000799356
0.00138922
0.0043653
0.000667795
0.000790269
0.00833095
0.000845768
0.000784946
0.000841423
0.000485558
0.000336498
0.000269945
0.000661245
0.000754565
0.00229144
0.000785819
0.00172492
0.000661109
0.00083425
0.00152676
0.000878829
0.000789475
0.000782809
0.00164642
0.000831639
0.000892025
0.00109465
0.000756951
0.00122249
0.00190834
0.000833725
0.00083029
0.0021396
0.000777011
0.00212557
0.000825623
0.000875129
0.000977436
0.000901682
0.000831056
0.00160898
0.000699146
0.00119668
0.000746912
0.000796557
0.00079021
0.000783467
0.00073651
0.000789845
0.000826829
0.00179189
0.000841972
0.000725399
0.0081486
0.00344971
0.000886754
0.000844983
0.000830318
0.00068677
0.000893444
0.00097777
0.000723635
0.00806718
0.00652407
0.00115025
0.00256176
0.00109307
0.000302818
0.00164676
0.00112856
0.00110243
0.00108126
0.000864054
0.000955594
0.00673761
0.000789832
0.000810695
0.00102942
0.000746428
0.000987567
0.00740632
0.000744705
0.000946936
0.000726535
0.000726521
0.00107056
0.000764938
0.00124143
0.00124931
0.00135988
0.00617822
0.00667353
0.00200229
0.0025612
0.000975718
0.00102637
0.00123054
0.000666211
0.000754776
0.000909468
0.000832505
0.000776423
0.000868805
0.00074783
0.00125893
0.000732226
0.000745163
0.000680521
0.000768233
0.00198457
0.000704777
0.000844054
0.00101885
0.000769645
0.000741452
0.000824472
0.00255237
0.000828549
0.00110039
0.00111055
0.00089629
0.000836106
0.000783614
0.00313859
0.000906193
0.000413574
0.00293996
0.00604132
0.00212661
0.000795121
0.00165373
0.00230587
0.00118391
0.00521075
0.00212528
0.00618057
0.0028166
0.000806649
0.00397253
0.00176887
0.000830947
0.00358445
0.00128721
0.00183476
0.00135193
0.000786136
0.00827471
0.00104622
0.00109303
0.00103156
0.000894019
0.000261993
0.000822523
0.00423351
0.000935485
0.00181144
0.000239656
0.000826199
0.00018177
0.000235043
0.000268607
0.000497428
0.000371672
0.000444997
0.000346609
0.000279045
0.000542831
0.000411364
0.000251118
0.000375185
0.00023423
0.000300612
0.000378804
0.00033299
0.000302537
0.000244033
0.000248219
0.000309732
0.000322119
0.00281549
0.00277618
0.00361251
0.0016079
0.00171701
0.000762421
0.00118557
0.0016007
0.0045698
0.000842024
0.000848847
0.000434909
0.000400339
0.000349723
0.000278869
0.000432734
0.000396047
0.000320444
0.000326203
0.000260354
0.00036238
0.00026883
0.000189171
0.00278221
0.000891085
0.000848692
0.00268867
0.00155713
0.00113057
0.000834641
0.00514877
0.000771989
0.000247662
0.00446384
0.000832684
0.0010269
0.00377307
0.000789425
0.00199429
0.000725184
0.000750967
0.00350933
0.000830851
0.000549713
0.00147217
0.00215334
0.0010212
0.00103673
0.00531162
0.00731508
0.00138049
0.00106949
0.00217243
0.00222158
0.00653463
0.00158782
0.00152911
0.00556473
0.00227184
0.00483712
0.00609144
0.00551058
0.00534352
0.00127922
0.000544887
0.00281944
0.00219965
0.00593435
0.00294375
0.00292107
0.00123498
0.00211208
0.00147932
0.00134155
0.00228428
0.00187525
0.000338501
0.00341277
0.00450716
0.00101371
0.000377963
0.00437132
0.00344253
0.00588758
0.00414715
0.00667413
0.00261469
0.00656685
0.00574744
0.00509412
0.00622824
0.0022144
0.00300151
0.000353093
0.00203322
0.00181778
0.00206385
0.00170804
0.000688545
0.00295034
0.00144051
0.00164658
0.00260769
0.000951997
0.000741659
0.00108076
0.00116064
0.00114009
0.00262644
0.00257202
0.00398596
0.000275869
0.00163244
0.000957861
0.00109051
0.000800117
0.000831309
0.000934133
0.00169014
0.00587914
0.00402059
0.000254568
0.000277388
0.000320208
0.00113193
0.00310509
0.000287458
0.000967333
0.00126488
0.0011471
0.000837181
0.00108302
0.00165087
0.00151456
0.00528542
0.00626465
0.00480542
0.000581997
0.000949363
0.00622673
0.00165469
0.00130597
0.00120553
0.000719037
0.000743827
0.00237331
0.000792397
0.00188175
0.0034441
0.00139169
0.00162389
0.00169389
0.000548969
0.0009641
0.000772232
0.000667974
0.00108913
0.00349052
0.00386996
0.00295768
0.000798061
0.0018402
0.000814015
0.000742477
0.00126221
0.000728179
0.0049234
0.00277917
0.00772356
0.00190508
0.00306387
0.00220498
0.00639613
0.00360572
0.00505257
0.00207341
0.000431655
0.0063574
0.00318166
0.000795955
0.00566774
0.00107505
0.00112747
0.000454874
0.00107762
0.00378692
0.00206617
0.00362853
0.00878103
0.00509629
0.00103859
0.000757969
0.00338917
0.00208998
0.00880832
0.00416436
0.00249357
0.000899872
0.0025325
0.000740009
0.00270505
0.00438932
0.000278116
0.00574911
0.00255237
0.00605042
0.00290959
0.000843207
0.00223302
0.0011656
0.00311553
0.00100052
0.000980858
0.000797944
0.00326382
0.00625294
0.000868906
0.00203965
0.00429961
0.000789014
0.00107703
0.000796617
0.00230311
0.00297311
0.000848187
0.000779065
0.00076904
0.00217134
0.000697593
0.00133614
0.000738783
0.000200692
0.00467237
0.00420588
0.000891103
0.00348033
0.0056912
0.00549647
0.00148971
0.00112706
0.00660264
0.00207058
0.0017108
0.00380728
0.00115649
0.00554182
0.00192829
0.000743974
0.00279941
0.00421729
0.00740482
0.00533887
0.0008187
0.00197927
0.00096856
0.00132564
0.00100337
0.000934929
0.000982429
0.000730766
0.00380973
0.000804547
0.00640036
0.000962644
0.000372036
0.000805377
0.00209952
0.00465195
0.000956036
0.0007321
0.00108566
0.000970652
0.00376671
0.00711375
0.000806501
0.00447292
0.000726653
0.0078073
0.00396714
0.00653237
0.00528633
0.00100308
0.00141244
0.00260582
0.000765615
0.00112897
0.0070735
0.00429474
0.000820432
0.000841098
0.00161238
0.00452701
0.00678265
0.000797672
0.000987429
0.00111512
0.000827573
0.000222013
0.000848101
0.00663107
0.00494684
0.0029879
0.000727419
0.000821982
0.000983417
0.00680701
0.000802934
0.000761347
0.00132352
0.00098445
0.00133323
0.00104292
0.00528704
0.000522345
0.00122464
0.00151293
0.00120787
0.00171251
0.00151085
0.0077175
0.00417538
0.00119872
0.00194064
0.00730548
0.00624258
0.000998241
0.00313379
0.00111212
0.000331931
0.000226959
0.000824483
0.00072102
0.0059942
0.00122883
0.000762719
0.00127805
0.000708706
0.00136243
0.00111814
0.00519313
0.00085031
0.00239947
0.00112694
0.000640532
0.000767835
0.00683921
0.00684565
0.000635505
0.00495025
0.00890071
0.000713775
0.000874355
0.00064448
0.000838859
0.000803513
0.00365589
0.00118219
0.000626316
0.00710693
0.0080531
0.00068649
0.000298399
0.00183178
0.000339305
0.000703079
0.000719531
0.00439866
0.000765334
0.000859066
0.000702237
0.00474608
0.000922243
0.00751187
0.00791127
0.000691234
0.000681705
0.000785306
0.000663514
0.000749017
0.000862932
0.00120464
0.000810575
0.00675787
0.000753955
0.00073956
0.000761302
0.00108789
0.00110652
0.000845058
0.00084137
0.000872577
0.00194118
0.00114999
0.00119951
0.00171649
0.00191776
0.000853451
0.00328678
0.000496556
0.00189496
0.000793606
0.000754056
0.00117887
0.00335748
0.000619584
0.000689329
0.000685764
0.000776935
0.000859692
0.00281146
0.00195908
0.00123618
0.000760542
0.000448718
0.000769207
0.00583653
0.00101039
0.00370135
0.000575654
0.000660171
0.00147241
0.00212996
0.00127084
0.000771012
0.000879119
0.000937557
0.000847844
0.000834494
0.000669235
0.000832646
0.00422526
0.000807381
0.00230681
0.00790892
0.000709626
0.00115621
0.000363489
0.0021805
0.00210973
0.000991014
0.00315425
0.000637535
0.000828732
0.000809156
0.00532137
0.000699663
0.00174424
0.000833808
0.000673746
0.000597363
0.000538644
0.000648965
0.000837384
0.000732224
0.000773993
0.00389651
0.000766044
0.000776518
0.000882906
0.00837821
0.00121967
0.000761133
0.000465749
0.000446636
0.000564799
0.000843586
0.000626095
0.00105204
0.00156033
0.00112469
0.000276879
0.00170289
0.000777995
0.000723499
0.000731672
0.000663797
0.00229855
0.00070984
0.000835648
0.0029067
0.00330738
0.000819323
0.00486299
0.0033984
0.0019393
0.000270815
0.00176513
0.000777379
0.0037264
0.00497021
0.000837716
0.000866481
0.00080579
0.00100279
0.00129059
0.00108429
0.00173336
0.000598581
0.000803004
0.000761334
0.000774894
0.000851653
0.000783428
0.00200949
0.000855101
0.00485882
0.000540068
0.000777805
0.0011622
0.000823986
0.00117615
0.000817893
0.000866676
0.00108748
0.00118619
0.000786641
0.000745888
0.000494296
0.000846968
0.0029484
0.00389918
0.000708549
0.00087649
0.00308385
0.00178243
0.000825196
0.000900092
0.00304926
0.000551082
0.000711782
0.00119594
0.000935552
0.00104508
0.00102105
0.00488588
0.0033028
0.000955144
0.000954661
0.000844946
0.00111967
0.000617942
0.000276719
0.000993792
0.000805355
0.00578411
0.00102849
0.0052394
0.00578261
0.00341176
0.00086349
0.00134561
0.000953125
0.00138458
0.000783535
0.000925726
0.000813916
0.000794108
0.00106228
0.000871014
0.000729977
0.00710326
0.000693049
0.00897885
0.000747861
0.00114008
0.000609266
0.000593396
0.000604559
0.000620483
0.000569702
0.000526049
0.00307058
0.000398409
0.000335347
0.000818959
0.000464862
0.000535247
0.00034141
0.00241806
0.000647778
0.00102136
0.000203861
0.00679922
0.00030941
0.0007297
0.00257695
0.00377317
0.00127486
0.000403901
0.00095111
0.00260889
0.00102863
0.00533422
0.0074323
0.00151702
0.00103826
0.0037866
0.000218177
0.000364264
0.000892201
0.000198277
0.00303992
0.0052153
0.0050233
0.00333687
0.000966824
0.00639028
0.00593619
0.000815865
0.000227607
0.000305287
0.00158555
0.00511217
0.000780702
0.00197801
0.00251858
0.00308149
0.000757076
0.000349877
0.00310874
0.000120188
0.00105201
0.000287721
0.00082344
0.00184839
0.00395403
0.000830214
0.00126757
0.00929522
0.000896829
0.00231078
0.000614337
0.000967999
0.00100756
0.000810138
0.00102803
0.000903168
0.000776485
0.0016631
0.00479156
0.000845988
0.00131004
0.00636862
0.00696627
0.000812309
0.000727241
0.000984126
0.00293624
0.00237934
0.00483332
0.00101414
0.00703627
0.00616755
0.00358665
0.00213009
0.0025809
0.00107522
0.0012932
0.00236906
0.00107752
0.000670835
0.00260181
0.00565384
0.0069922
0.00277463
0.00279688
0.000675726
0.00655947
0.00270355
0.000837482
0.00129176
0.0014648
0.00126771
0.000601817
0.000644536
0.000738191
0.00144711
0.00176878
0.00304784
0.0070455
0.000751091
0.0064118
0.00147299
0.000624191
0.00730261
0.0048077
0.000847582
0.00064903
0.000948619
0.00078628
0.000301392
0.000749038
0.00151669
0.00508003
0.000846339
0.000779008
0.00077708
0.00107317
0.00134872
0.000777076
0.000840478
0.0071898
0.000968481
0.00079754
0.000818523
0.00208718
0.000820975
0.00115178
0.000264758
0.000779858
0.000791343
0.000802736
0.000297827
0.000604235
0.00107254
0.00070352
0.00074593
0.000323405
0.0010315
0.00103696
0.000794785
0.00820142
0.0013568
0.000743931
0.00106847
0.000767723
0.000534299
0.000156223
0.000890277
0.000833557
0.000717893
0.00243542
0.00195316
0.000163637
0.00133204
0.00088226
0.000464996
0.000865041
0.00636015
0.000720851
0.00103008
0.000809197
0.00048649
0.00660257
0.00126295
0.000698882
0.00154573
0.000907452
0.00447493
0.000680764
0.00107084
0.000800216
0.000739093
0.000998396
0.000790613
0.000182108
0.000910212
0.000123053
0.00123644
0.0014649
0.00153632
0.000995957
0.000788496
0.000285595
0.000575718
0.00959311
0.00043518
0.00110852
0.00225689
0.00103962
0.000818425
0.000460101
0.000520593
0.00106079
0.00920378
0.00711127
0.00133085
0.000799579
0.000812706
0.000369674
0.0017221
0.000821825
0.00299788
0.000551495
0.000588082
0.00758298
0.000975605
0.00102873
0.00584871
0.0011519
0.000514979
0.000835355
0.0013463
0.000144702
0.00053727
0.000644141
0.0071423
0.00158337
0.000771197
0.000495646
0.000513544
0.000131621
0.000840554
0.00160506
0.00779582
0.000801567
0.00083863
0.000839723
0.000786668
0.000279105
0.000471634
0.00426378
0.000619569
0.00324322
0.000745858
0.000703358
0.00368835
0.000827513
0.00312331
0.00901651
0.000592079
0.000597007
0.00106834
0.00221227
0.000870463
0.000182451
0.00538009
0.00747769
0.000868171
0.00580815
0.00100881
0.000739061
0.00726237
0.00254844
0.00237944
0.00106698
0.00721189
0.000881441
0.000851396
0.00119778
0.00633673
0.000842444
0.00081974
0.00161717
0.00713893
0.00128238
0.00107012
0.000976839
0.00275658
0.00184315
0.00184303
0.00158517
0.00141274
0.00708046
0.000473723
0.000294548
0.00481219
0.000745352
0.00150553
0.000740851
0.000772845
0.000844379
0.000906327
0.00202351
0.000563904
0.000900818
0.000158479
0.00593202
0.00107369
0.000779216
0.0018534
0.000568969
0.00100514
0.00311946
0.00158285
0.000872989
0.000820117
0.00657538
0.00088881
0.000464265
0.00284999
0.000727857
0.000885833
0.00093939
0.000790769
0.00099058
0.00319506
0.0056209
0.00212902
0.000622055
0.0068602
0.000955432
0.00133798
0.00143922
0.00367357
0.00545654
0.000769551
0.000844143
0.00545471
0.00238943
0.000926334
0.0056428
0.00541449
0.0013331
0.000595511
0.000828385
0.00133808
0.000814279
0.000875302
0.000950675
0.000839037
0.00101108
0.000641876
0.002963
0.000818381
0.000961342
0.0024336
0.00266816
0.00661667
0.00878864
0.00702858
0.00106895
0.00273235
0.00116891
0.00484051
0.00103677
0.000796642
0.000845888
0.000955181
0.00572188
0.00129064
0.000706219
0.00761651
0.000784795
0.00498533
0.00765841
0.00703343
0.00478797
0.00684125
0.000774616
0.00254555
0.00696363
0.000845303
0.000782778
0.000376134
0.00262382
0.00360004
0.00050028
0.0058715
0.00854273
0.00067375
0.00129967
0.000592271
0.000146032
0.00143277
0.00706485
0.00130766
0.0024441
0.00103944
0.000854924
0.0061986
0.0013609
0.00127929
0.00279218
0.000688655
0.00133142
0.000758343
0.00116296
0.00195932
0.000818235
0.00114843
0.000742381
0.000726482
0.00367684
0.00110717
0.000801253
0.000156592
0.00124797
0.00114783
0.00080152
0.00129864
0.00111054
0.00118192
0.000683381
0.00114408
0.00433203
0.00108544
0.00143735
0.000907476
0.000856613
0.000784445
0.00373235
0.00140037
0.00155398
0.00072377
0.00203637
0.00298107
0.00139736
0.000776222
0.000752643
0.000937079
0.000696424
0.000945955
0.000769107
0.00156064
0.00100237
0.00419521
0.000861263
0.00619447
0.00112834
0.000795794
0.00720468
0.00136542
0.00204637
0.00184373
0.00278031
0.000811263
0.00102655
0.00186046
0.000842941
0.00274116
0.000748728
0.00120268
0.000943491
0.0013452
0.00117848
0.0069003
0.00122505
0.00118056
0.00133962
0.000420627
0.00136719
0.000856936
0.000837275
0.000831924
0.00133679
0.00250436
0.00158011
0.000877194
0.000909879
0.000912977
0.000792299
0.00124786
0.00542093
0.00898892
0.00718994
0.000741031
0.000668837
0.00950685
0.00723207
0.00915907
0.00709119
0.00586155
0.000802539
0.000758859
0.00115141
0.00074398
0.000617339
0.00095513
0.00164609
0.00056663
0.000865342
0.00119858
)
;

boundaryField
{
    frontAndBack
    {
        type            empty;
    }
    wallOuter
    {
        type            nutkWallFunction;
        Cmu             0.09;
        kappa           0.41;
        E               9.8;
        value           nonuniform List<scalar> 
90
(
8.35812e-05
7.67488e-05
7.78057e-05
7.56648e-05
8.27286e-05
8.46698e-05
8.65869e-05
9.41879e-05
8.0042e-05
8.89115e-05
9.14252e-05
9.51416e-05
9.05889e-05
9.32251e-05
9.23364e-05
0.000104909
9.97493e-05
8.12413e-05
7.22375e-05
6.52249e-05
7.83334e-05
0.000100158
8.80549e-05
9.28871e-05
8.00751e-05
0.000113516
0.00011344
8.77946e-05
8.34837e-05
7.35999e-05
7.1719e-05
7.30421e-05
7.49272e-05
6.89012e-05
6.36727e-05
5.62544e-05
2.27151e-05
3.63056e-05
8.7712e-05
4.87416e-05
2.47178e-05
4.37696e-05
0.000106357
2.16733e-05
2.60297e-05
3.62124e-05
1.12554e-05
0.000124299
3.33735e-05
0.000106922
0.000116763
8.08505e-05
7.54137e-05
9.344e-05
9.79465e-05
3.47734e-05
3.79464e-05
0.000122007
0.00012266
8.94116e-05
6.47025e-05
1.59683e-05
1.71763e-05
0.00010523
9.69308e-05
8.41705e-05
0.000108124
1.96882e-05
0.000108396
1.14073e-05
6.23653e-05
1.47256e-05
9.25551e-05
1.28113e-05
9.60155e-05
7.48631e-05
7.16096e-05
0.000103929
1.96899e-05
0.00010363
5.73668e-05
0.000107333
1.67058e-05
7.51613e-05
7.74505e-05
1.47674e-05
9.59806e-05
1.61062e-05
8.23683e-05
8.38912e-05
)
;
    }
    inlet
    {
        type            calculated;
        value           uniform 0.000851986;
    }
    outlet
    {
        type            calculated;
        value           nonuniform 0();
    }
    wallInner
    {
        type            nutkWallFunction;
        Cmu             0.09;
        kappa           0.41;
        E               9.8;
        value           nonuniform List<scalar> 
138
(
6.09416e-05
2.75398e-05
0.000220367
6.72815e-05
5.45465e-05
7.85287e-05
0.000260251
0.000138278
6.14674e-05
4.98205e-05
0.00013793
0.000119826
1.81291e-05
5.34064e-05
3.63915e-05
5.05858e-05
5.83264e-05
3.99796e-05
3.15363e-05
7.97706e-05
0.000239102
0.00012892
3.60453e-05
0.000132851
0.000129958
0.000127609
0.000121838
0.000126419
0.000121497
0.000129732
0.000130858
3.0516e-05
2.78265e-05
2.00285e-05
2.63807e-05
3.22835e-05
6.02044e-05
4.46699e-05
5.35514e-05
4.14193e-05
3.30841e-05
6.57924e-05
4.94957e-05
2.94066e-05
4.49319e-05
2.72344e-05
3.58503e-05
4.58886e-05
3.97299e-05
3.51786e-05
2.82225e-05
2.84919e-05
3.68605e-05
3.88443e-05
5.22482e-05
4.81976e-05
4.17238e-05
3.37347e-05
5.20774e-05
4.82364e-05
3.81745e-05
3.93408e-05
3.06576e-05
4.33605e-05
3.07233e-05
2.11953e-05
2.89971e-05
6.65715e-05
0.000122686
6.59866e-05
0.000156296
4.03048e-05
4.53303e-05
4.31067e-05
0.000127587
3.29447e-05
0.000128669
2.96789e-05
3.22581e-05
3.86774e-05
3.42827e-05
0.00014778
0.000174783
0.000152384
0.000141368
0.000161559
5.21224e-05
5.49811e-05
0.000127205
0.000122861
3.25935e-05
2.24644e-05
4.44129e-05
2.54004e-05
6.32243e-05
3.90963e-05
2.60587e-05
3.5658e-05
4.03825e-05
8.3288e-05
0.000135485
6.01621e-05
8.26239e-05
5.42859e-05
0.000111562
4.32005e-05
5.60926e-05
0.000132423
3.28235e-05
3.25402e-05
3.33951e-05
0.000125499
4.7619e-05
3.99751e-05
4.09185e-05
0.000114828
9.0917e-05
4.15272e-05
0.000114963
0.000119354
3.60702e-05
3.04884e-05
9.35533e-05
5.6333e-05
3.45144e-05
5.27338e-05
9.73206e-05
4.39138e-05
3.36312e-05
5.72146e-05
3.42598e-05
8.0667e-05
0.000135405
8.94221e-05
7.44851e-05
0.000188858
6.86149e-05
0.000140789
)
;
    }
    procBoundary0to1
    {
        type            processor;
        value           nonuniform List<scalar> 
29
(
0.00108448
0.00189875
0.00188963
0.00188963
0.00512303
0.00512303
0.00294578
0.00132234
0.00190187
0.00241212
0.00176401
0.00194001
0.000735696
0.000584764
0.00227719
0.00129902
0.0078992
0.00581338
0.00272049
0.00184017
0.000873895
0.000732409
0.00319306
0.000742138
0.000728671
0.00581338
0.000728346
0.000916188
0.000742138
)
;
    }
    procBoundary0to2
    {
        type            processor;
        value           nonuniform List<scalar> 
42
(
0.00655943
0.00681845
0.000944662
0.000816192
0.000950832
0.00655943
0.000944662
0.000971369
0.00102268
0.000928028
0.00100954
0.00181929
0.00100954
0.00307395
0.00469495
0.00557437
0.00469495
0.000789025
0.00102834
0.00137658
0.00137658
0.000789025
0.000722118
0.000887097
0.000887097
0.000634453
0.0019214
0.000686242
0.00333936
0.00681654
0.00681654
0.000757027
0.000786054
0.000750792
0.000668712
0.000944662
0.00647273
0.000348496
0.00333936
0.000971369
0.000754329
0.000637739
)
;
    }
}


// ************************************************************************* //
