/*--------------------------------*- C++ -*----------------------------------*\
| =========                 |                                                 |
| \\      /  F ield         | OpenFOAM: The Open Source CFD Toolbox           |
|  \\    /   O peration     | Version:  v1912                                 |
|   \\  /    A nd           | Website:  www.openfoam.com                      |
|    \\/     M anipulation  |                                                 |
\*---------------------------------------------------------------------------*/
FoamFile
{
    version     2.0;
    format      ascii;
    class       volScalarField;
    location    "0.33";
    object      nut;
}
// * * * * * * * * * * * * * * * * * * * * * * * * * * * * * * * * * * * * * //

dimensions      [0 2 -1 0 0 0 0];


internalField   nonuniform List<scalar> 
1431
(
0.00209728
0.00299352
0.00252135
0.00170592
0.00144959
0.00247598
0.00403848
0.00078708
0.00326765
0.00471574
0.00147786
0.00103599
0.00132361
0.00131046
0.0043344
0.000591667
0.00467959
0.0022823
0.000696833
0.00174843
0.000764424
0.00313791
0.0040465
0.00140326
0.00146744
0.00190193
0.00152312
0.00122403
0.00100342
0.00165884
0.0013434
0.00072326
0.00201732
0.00102741
0.00134394
0.00235839
0.00228796
0.000859826
0.00234385
0.000858989
0.00220645
0.000513932
0.00203154
0.00516833
0.0037988
0.00160385
0.00285388
0.000804954
0.000846955
0.000870969
0.00151228
0.00461142
0.00328547
0.00209399
0.00586575
0.000767995
0.00591025
0.00318184
0.00101504
0.000583743
0.00408661
0.00112166
0.00280346
0.00078337
0.000902329
0.00289653
0.00248651
0.00137308
0.0030524
0.000750814
0.000967028
0.00145712
0.00160861
0.00237547
0.00142851
0.00122308
0.00123704
0.00321624
0.00078549
0.00217317
0.000805979
0.00213586
0.000952772
0.00331129
0.00234744
0.00165077
0.00144479
0.000934786
0.00150243
0.00238619
0.00212813
0.000907803
0.00133994
0.000863233
0.00231644
0.00128015
0.00149277
0.000730378
0.00103596
0.00103461
0.00290024
0.000806964
0.00279533
0.00157493
0.00120774
0.00235261
0.000786306
0.00277031
0.00185154
0.00123602
0.00257389
0.00270781
0.000755558
0.00257256
0.00110169
0.00153408
0.00192623
0.00387176
0.00161009
0.00299271
0.000861576
0.00342454
0.00581382
0.00130367
0.000831338
0.00314267
0.00173297
0.00152565
0.00192087
0.00081064
0.00187377
0.00261938
0.00100696
0.00283873
0.00141351
0.000927503
0.00159088
0.00296487
0.00202838
0.00259692
0.00379307
0.000471241
0.000770157
0.000891025
0.0010142
0.000775819
0.000734756
0.00286876
0.00152326
0.000779705
0.000820007
0.000952585
0.00261207
0.000468039
0.000463692
0.00158238
0.00080339
0.00268078
0.000756308
0.000709811
0.00238416
0.00208692
0.00261881
0.00108313
0.00163234
0.00321131
0.00142041
0.000865169
0.00142955
0.00304324
0.00103587
0.00101913
0.00127259
0.00076953
0.000771977
0.000440419
0.000607971
0.00087537
0.00166202
0.000718235
0.000839887
0.00483932
0.000750946
0.00285406
0.000773511
0.000793372
0.00075349
0.00123606
0.00200081
0.000799696
0.00378987
0.00502777
0.00112611
0.000790886
0.0038104
0.000848581
0.000785821
0.000837912
0.000578993
0.000490611
0.000543919
0.000661476
0.000740007
0.00218535
0.000786499
0.00199245
0.00165916
0.000834531
0.00148625
0.000880298
0.000790008
0.000784078
0.00154214
0.000831779
0.00563109
0.00150444
0.000757148
0.00364478
0.00182843
0.000833819
0.000830494
0.00232108
0.000777836
0.00226077
0.000825282
0.000873575
0.000926193
0.00297509
0.000821619
0.00144626
0.00178165
0.00117194
0.000747539
0.000797269
0.000790866
0.000784468
0.000737475
0.00247522
0.000827221
0.00256388
0.000843545
0.00071971
0.00423997
0.00434731
0.00140788
0.00119028
0.00083015
0.0024795
0.0016213
0.000948731
0.000724241
0.00361689
0.00373497
0.00124315
0.0031606
0.00108727
0.000649581
0.00263013
0.00112327
0.00109682
0.0010755
0.00113528
0.00125688
0.00419007
0.000790627
0.000804358
0.0010255
0.000745932
0.00104619
0.00451536
0.00074384
0.000896735
0.00072795
0.000728232
0.00106491
0.000765942
0.00255567
0.00356399
0.00335262
0.00562177
0.00352444
0.00250911
0.00193149
0.00259563
0.001022
0.00134402
0.0017742
0.000756571
0.000889064
0.000833241
0.000776865
0.000870839
0.000752112
0.00325503
0.000729332
0.000743248
0.00112319
0.000770129
0.00266164
0.000709026
0.000845233
0.000956
0.00108356
0.000732866
0.00212078
0.00266984
0.000828873
0.00109465
0.00110514
0.00100109
0.000836769
0.000783798
0.00325696
0.000707383
0.00117919
0.00273083
0.00418784
0.00239362
0.000795767
0.00242862
0.00261422
0.00264748
0.00320647
0.00249731
0.00430682
0.00231173
0.000807149
0.00241011
0.00163969
0.000831271
0.00327399
0.00166686
0.00270221
0.00356112
0.000786571
0.00452864
0.00121577
0.00244998
0.00161252
0.00194378
0.000491447
0.000822915
0.00225302
0.000932834
0.00210313
0.000495717
0.000825946
0.000858212
0.000268711
0.000281507
0.00102961
0.000527644
0.000800873
0.000593403
0.000658097
0.000959003
0.000636485
0.000536865
0.000511598
0.000620922
0.000609011
0.000902581
0.000634517
0.00025968
0.000313821
0.000838528
0.000668002
0.000864594
0.00254732
0.00332379
0.00279741
0.00268611
0.00262738
0.000751946
0.00315794
0.0017416
0.00354694
0.000842407
0.000848862
0.000561642
0.000542461
0.000856038
0.000295556
0.000719734
0.00100814
0.00066186
0.000931891
0.000580711
0.000549312
0.000267329
0.000892357
0.00316309
0.000856113
0.000848695
0.00248738
0.00159679
0.00199836
0.000834654
0.00434314
0.000772601
0.000716718
0.00312364
0.000832726
0.0019446
0.00262858
0.000791599
0.00238497
0.000715533
0.000797585
0.0036577
0.000831689
0.00059376
0.00306117
0.00242036
0.000944711
0.00107813
0.00344496
0.00438141
0.00279704
0.00145183
0.00242712
0.00384231
0.00425074
0.00182971
0.00334914
0.00354399
0.0019339
0.00333315
0.00606616
0.00301878
0.00496644
0.00143365
0.000504851
0.00436286
0.00244817
0.00344508
0.00398395
0.00370995
0.00180298
0.00207578
0.00577003
0.000910079
0.00412346
0.00380109
0.000510015
0.00408984
0.00440113
0.00128062
0.000828075
0.00431476
0.00455956
0.004071
0.00461245
0.0036332
0.00405485
0.0031151
0.00334349
0.00398802
0.00331785
0.00238148
0.00343929
0.00101989
0.00215381
0.00319966
0.00229434
0.00219485
0.000839601
0.00317793
0.00228365
0.00255851
0.00278507
0.00274765
0.000731907
0.0011241
0.00217933
0.00227656
0.00309748
0.0032306
0.00487443
0.000995486
0.00362429
0.00270927
0.00113619
0.000801113
0.000796288
0.0051032
0.00303969
0.00470295
0.0040963
0.000683395
0.000561127
0.00106481
0.00255268
0.0039361
0.00104326
0.00257008
0.00133038
0.00324503
0.000837175
0.00241343
0.00248835
0.00158455
0.00260147
0.00288636
0.00256709
0.00157274
0.00215125
0.00468453
0.00401495
0.000840465
0.000745696
0.00137685
0.000742444
0.00221693
0.000792638
0.0038655
0.00441378
0.00144727
0.00388046
0.00239063
0.00218121
0.00154228
0.00296281
0.000657
0.00299138
0.00411371
0.00250667
0.00415441
0.00178559
0.00313581
0.000784169
0.000734905
0.00171791
0.0021808
0.0042296
0.00419595
0.00220027
0.0023269
0.00421742
0.00261528
0.00237894
0.0045091
0.00337371
0.00412787
0.000540111
0.00480556
0.00286745
0.000796776
0.00441734
0.00230291
0.00191462
0.000694488
0.00107271
0.00418405
0.00273872
0.00246974
0.00267961
0.00363801
0.00103387
0.000758559
0.00455933
0.00183818
0.00341796
0.00487814
0.00259147
0.0013993
0.00398381
0.000744765
0.00328287
0.0020212
0.000867084
0.00416795
0.00307439
0.00444754
0.00370801
0.00243488
0.00387934
0.00279101
0.00193338
0.00105554
0.00232251
0.000798727
0.00229665
0.00349455
0.00197998
0.001901
0.00276827
0.000792592
0.00179034
0.000792425
0.00522849
0.00322787
0.000848228
0.000783162
0.000772867
0.0017817
0.000846971
0.0038904
0.000743452
0.000441061
0.00295857
0.00263935
0.0019959
0.00220273
0.00212773
0.00451304
0.00194805
0.00204773
0.00420586
0.00230936
0.00194537
0.00399449
0.00186727
0.00350747
0.00217796
0.000747748
0.0034646
0.00257176
0.00246536
0.00450314
0.00179605
0.00230402
0.00239943
0.00153687
0.0036704
0.000929159
0.00172741
0.000790418
0.00411984
0.000805216
0.00396902
0.00262728
0.000590449
0.000806001
0.00257596
0.00430622
0.00181686
0.000737505
0.00113127
0.0026671
0.00188353
0.0038913
0.000807074
0.00409891
0.00349092
0.00217546
0.00182837
0.00349853
0.00376693
0.00277698
0.00329667
0.0025173
0.000768713
0.00115312
0.00397907
0.00424878
0.000820849
0.000841178
0.00405786
0.00427516
0.00340167
0.000670653
0.00252717
0.00236582
0.000827906
0.000437422
0.000848203
0.00503195
0.00441556
0.00363866
0.000713685
0.000822358
0.00248936
0.00384315
0.000776437
0.000744641
0.00199031
0.00578168
0.00148859
0.0010956
0.0047331
0.000726733
0.00109833
0.00269542
0.00345138
0.00230423
0.00331212
0.00236279
0.00397529
0.00232025
0.0017355
0.00361576
0.00200954
0.00276623
0.00404468
0.00164762
0.00024623
0.000922268
0.000824845
0.00072775
0.00194277
0.00177847
0.00076583
0.00152724
0.00143205
0.00145706
0.00115276
0.00412265
0.000850536
0.00229083
0.00227197
0.000864493
0.00188219
0.00485076
0.002951
0.000635379
0.00314987
0.00339772
0.000720987
0.00225346
0.000644414
0.000840552
0.000804504
0.00399322
0.00207315
0.000626106
0.00369883
0.00416766
0.000683464
0.000581775
0.00282603
0.000595625
0.000703882
0.000722034
0.00480196
0.000768053
0.00233774
0.00321001
0.00409077
0.0024255
0.00278348
0.00468116
0.000691809
0.00156036
0.000784705
0.000663487
0.000746313
0.000848911
0.00114846
0.00111518
0.00440247
0.000755117
0.000742428
0.000763247
0.00240549
0.00206981
0.00084506
0.000842037
0.000874579
0.00187444
0.00110934
0.00119853
0.00195287
0.00221593
0.000855693
0.00377797
0.000532997
0.0021073
0.000792613
0.000756618
0.00356852
0.00436141
0.000826402
0.00214663
0.000507919
0.000776853
0.00070925
0.00348367
0.00425687
0.00143475
0.00133095
0.000529075
0.000770438
0.00397014
0.00177484
0.00438229
0.000835173
0.00219839
0.00171259
0.00204421
0.00239629
0.00077306
0.000872277
0.000973297
0.000847833
0.000834604
0.000781432
0.00209259
0.00497773
0.000808967
0.00401655
0.00327131
0.000716225
0.00169679
0.000236672
0.00242628
0.00244295
0.00248132
0.00340673
0.00131345
0.000829483
0.000810793
0.00372658
0.000651633
0.00183987
0.000833338
0.000673296
0.000596973
0.000538488
0.000648721
0.000837239
0.000732166
0.000774529
0.00222736
0.00131461
0.000776936
0.00158041
0.00295656
0.00178965
0.000669972
0.00089333
0.000711468
0.00254615
0.00062444
0.0020736
0.00105117
0.00395761
0.00111952
0.000812184
0.00383768
0.000779403
0.000720547
0.000733205
0.000663747
0.00242241
0.000713787
0.00196778
0.00276608
0.00227296
0.000820855
0.00309309
0.00278476
0.00268427
0.000435753
0.00194094
0.00191858
0.00406861
0.00340914
0.000837807
0.00086848
0.000806565
0.00244834
0.00195735
0.00300459
0.00231203
0.00150614
0.00080434
0.000757829
0.000631356
0.00241243
0.000761972
0.00228978
0.00185048
0.00315531
0.000721253
0.000778043
0.00195792
0.0057744
0.00318861
0.000818474
0.000791476
0.00149961
0.00265427
0.000823186
0.000746599
0.00195088
0.00193603
0.00328084
0.00394375
0.000704598
0.000878486
0.00347636
0.00303927
0.000825959
0.00296761
0.00358
0.000806586
0.00226151
0.00242671
0.00143305
0.00179541
0.0018209
0.00339718
0.00379396
0.000954981
0.000936647
0.000844854
0.00290244
0.000736675
0.000789124
0.00224753
0.000806332
0.00438542
0.00218868
0.00273483
0.00387088
0.00287151
0.000865457
0.00122761
0.00143849
0.00355888
0.000784718
0.00228135
0.000814715
0.000794945
0.0010569
0.00131034
0.000729608
0.00474515
0.00068163
0.00255736
0.000751611
0.00154714
0.000415904
0.000465927
0.000446088
0.000382156
0.000473568
0.000464902
0.00201741
0.000234125
0.000744508
0.000819708
0.000438382
0.00176412
0.000518354
0.00257947
0.00122026
0.00252848
0.000413942
0.00467557
0.00049164
0.000683186
0.00439018
0.00463985
0.0021788
0.000410905
0.00272021
0.00418632
0.00283794
0.00403379
0.00471025
0.00304447
0.0023985
0.00235744
0.000410958
0.000416713
0.000955748
0.000393746
0.00291142
0.00425603
0.00247561
0.00242981
0.000974645
0.00339912
0.00239323
0.00081661
0.000410794
0.000426871
0.00149535
0.00325363
0.000778946
0.00399212
0.00323242
0.00292305
0.000778099
0.000356035
0.00382831
0.000427336
0.00107788
0.000544803
0.000824903
0.00383141
0.00292446
0.00083
0.00239988
0.00309004
0.000895257
0.00257964
0.00125672
0.000618687
0.00109125
0.000810433
0.00186997
0.00583527
0.000777653
0.00224316
0.00503108
0.000846061
0.00228593
0.00433539
0.00369438
0.0008131
0.000729023
0.000976197
0.00350536
0.00286779
0.00277939
0.00223722
0.00381966
0.00370233
0.00402201
0.00274652
0.00283897
0.00106883
0.00268166
0.00246335
0.00274021
0.00048281
0.00242419
0.00491679
0.0031058
0.0024695
0.0032419
0.000908306
0.00347588
0.00321078
0.000837707
0.0031669
0.00304546
0.00135015
0.00152053
0.000677173
0.00257053
0.00355474
0.00281549
0.00316794
0.00402313
0.000753424
0.00406814
0.00307799
0.000624333
0.00419323
0.0045373
0.00214432
0.00503451
0.00210239
0.000783556
0.000867828
0.000754868
0.00352456
0.00490821
0.000846537
0.000793375
0.000771567
0.00198478
0.00114316
0.000777398
0.000840657
0.00384488
0.0026122
0.000798293
0.000803287
0.00246453
0.000822476
0.00312331
0.000299518
0.00078075
0.000791167
0.000802613
0.000494051
0.00119345
0.00254216
0.000898441
0.000740836
0.000572464
0.00103793
0.00101615
0.000794175
0.00372908
0.00265225
0.00074393
0.00199146
0.000769213
0.00053441
0.000398227
0.00197172
0.000833388
0.00222534
0.00288718
0.00211204
0.000432326
0.00114824
0.000920292
0.000560467
0.000866969
0.00373914
0.000716926
0.00201249
0.000807925
0.00225747
0.0045892
0.003064
0.000689497
0.00242963
0.000899428
0.00288842
0.00296594
0.00116522
0.000798434
0.00284901
0.00202338
0.000790594
0.000392775
0.000955002
0.000429655
0.00325052
0.00231593
0.00207997
0.0052902
0.000788342
0.000755225
0.00215671
0.00287503
0.000520016
0.00204289
0.00169668
0.00105231
0.00269966
0.000767516
0.00254367
0.00263738
0.00313395
0.00553858
0.00236413
0.000800437
0.000824394
0.000428049
0.00183579
0.000822582
0.00331545
0.000738211
0.00254487
0.00391601
0.00247331
0.00231408
0.0039637
0.00114286
0.000507383
0.000837044
0.00135041
0.000336207
0.000547658
0.00254216
0.00432495
0.0014493
0.000760131
0.000775596
0.0025445
0.000423911
0.000840551
0.00248706
0.00420593
0.000846131
0.000839841
0.00083972
0.000782068
0.000622881
0.000689213
0.00376578
0.000612984
0.00360802
0.000750912
0.00137626
0.00267299
0.000828526
0.00376816
0.00251997
0.000591774
0.000827432
0.00207033
0.00259595
0.000870086
0.000426489
0.00489148
0.00466775
0.000900165
0.00276356
0.00151443
0.0007399
0.00387147
0.00450573
0.00313926
0.00248349
0.00447858
0.000879814
0.000852185
0.00137959
0.00396975
0.00084239
0.000819688
0.00185538
0.00368877
0.00216314
0.00256822
0.00129825
0.00297385
0.00154961
0.00228803
0.00165312
0.00325766
0.00389425
0.000473372
0.000326584
0.0049659
0.000751307
0.00171874
0.000733558
0.000773611
0.00084445
0.000907088
0.00226006
0.00133381
0.000943597
0.000359099
0.00467614
0.00114972
0.00155165
0.00309796
0.00148979
0.0025418
0.003552
0.00177296
0.00175068
0.005475
0.00262536
0.000842657
0.00139506
0.00315418
0.000720293
0.00157772
0.0010534
0.000791579
0.00211247
0.00365831
0.00404651
0.00236306
0.000622089
0.00427278
0.00266219
0.00140868
0.0027213
0.00449443
0.00419274
0.000770256
0.00084436
0.00375985
0.00261139
0.00214631
0.00472868
0.00342751
0.00346854
0.000536948
0.000830016
0.00121838
0.000815456
0.000876935
0.00260661
0.000840254
0.00100657
0.000376953
0.00186382
0.000806032
0.000947363
0.00251096
0.00303774
0.00490866
0.00389316
0.00371832
0.00296245
0.00302118
0.00122643
0.00345393
0.00156597
0.00206733
0.00084592
0.00195886
0.00445205
0.00158194
0.000636854
0.00485777
0.000785782
0.00455813
0.00345277
0.00463654
0.00478184
0.00309248
0.000774937
0.00269359
0.00517694
0.000845857
0.000781917
0.000575138
0.0028122
0.00266239
0.000708971
0.00366358
0.00287118
0.00104672
0.0033235
0.000888255
0.000425043
0.00296555
0.00525494
0.00283456
0.00285112
0.00103418
0.000855466
0.00267164
0.00223843
0.00217469
0.00271282
0.00173622
0.0027913
0.000760222
0.00166404
0.00207375
0.000819805
0.00122451
0.00170238
0.000716865
0.00183989
0.00267718
0.000844102
0.000343701
0.00207074
0.00195276
0.000802463
0.00126691
0.00172519
0.00171136
0.000683043
0.00198389
0.0027265
0.00291493
0.0028529
0.00181667
0.000855905
0.00216233
0.00248917
0.00281072
0.00311799
0.000714094
0.00272594
0.00351047
0.00239234
0.00206009
0.000755574
0.00127343
0.000696416
0.000945765
0.00208688
0.00136508
0.00122885
0.00284068
0.00159297
0.0039187
0.00136233
0.000783236
0.00507699
0.00106579
0.00239453
0.00303662
0.00258165
0.000812868
0.0010256
0.00197831
0.000843123
0.000996866
0.00151801
0.00101265
0.00282695
0.00137141
0.00204895
0.00473648
0.00141209
0.00118506
0.00142411
0.00112864
0.0010356
0.0020205
0.000837163
0.000833592
0.0013374
0.00327201
0.00169155
0.000878156
0.00090999
0.000913884
0.000793131
0.0026333
0.00237514
0.00337008
0.00465649
0.000741795
0.000668247
0.00293214
0.00538608
0.0032712
0.00471576
0.0038866
0.000803028
0.000761116
0.00119875
0.000746563
0.000948448
0.00114622
0.00175359
0.00156375
0.00272538
0.00105428
)
;

boundaryField
{
    frontAndBack
    {
        type            empty;
    }
    wallOuter
    {
        type            nutkWallFunction;
        Cmu             0.09;
        kappa           0.41;
        E               9.8;
        value           nonuniform List<scalar> 
90
(
7.05132e-05
7.67352e-05
7.77987e-05
7.56422e-05
8.23803e-05
8.47837e-05
8.69049e-05
9.41269e-05
8.0039e-05
8.92726e-05
9.1674e-05
9.50317e-05
9.09124e-05
9.32277e-05
9.24988e-05
0.000104092
9.96973e-05
8.11923e-05
7.21957e-05
6.52057e-05
7.83053e-05
0.00010014
8.80468e-05
9.29652e-05
8.00681e-05
0.000113466
0.000111351
8.77533e-05
8.21243e-05
5.19003e-05
5.81728e-05
5.56913e-05
4.75853e-05
5.91305e-05
5.80496e-05
5.47248e-05
5.18948e-05
6.16656e-05
8.16164e-05
5.12672e-05
5.14688e-05
5.20432e-05
0.000113129
4.9369e-05
5.13626e-05
5.33624e-05
5.36067e-05
0.000126819
6.84431e-05
0.00010674
0.000115832
5.73688e-05
7.54281e-05
9.49797e-05
9.57119e-05
6.20229e-05
7.18068e-05
0.000122298
0.000120271
8.94115e-05
6.47134e-05
4.98279e-05
5.42646e-05
0.000109257
9.67856e-05
8.3041e-05
0.000107195
4.92175e-05
0.000113122
5.38808e-05
6.14253e-05
4.18777e-05
9.12519e-05
5.32159e-05
0.000100771
7.40574e-05
7.15766e-05
0.000103885
5.35227e-05
0.000107022
5.73278e-05
0.000111855
4.48618e-05
7.5164e-05
4.56364e-05
5.33602e-05
0.000100568
4.28622e-05
8.23304e-05
8.38903e-05
)
;
    }
    inlet
    {
        type            calculated;
        value           uniform 0.000851986;
    }
    outlet
    {
        type            calculated;
        value           nonuniform 0();
    }
    wallInner
    {
        type            nutkWallFunction;
        Cmu             0.09;
        kappa           0.41;
        E               9.8;
        value           nonuniform List<scalar> 
138
(
0.000121298
8.55875e-05
0.000229048
0.000117448
0.000154944
6.134e-05
0.000278091
0.000153058
0.00011134
0.000168794
0.000144117
0.000119421
5.72628e-05
5.72881e-05
5.44799e-05
7.31274e-05
7.18768e-05
6.11014e-05
6.71682e-05
7.98358e-05
0.000254816
0.000128398
7.59662e-05
0.000132391
0.000129461
0.000127088
0.000121503
0.000125906
0.000121115
0.000129219
0.000130382
6.09922e-05
6.1361e-05
0.000103064
3.2141e-05
3.03548e-05
0.000122113
6.30904e-05
9.49292e-05
7.01904e-05
8.06972e-05
0.000113727
7.58275e-05
6.65222e-05
6.17361e-05
7.54669e-05
7.09842e-05
0.000108891
7.45069e-05
3.00908e-05
3.82721e-05
0.000100716
7.81153e-05
0.000103732
6.8019e-05
6.53398e-05
0.00010255
3.56619e-05
8.55214e-05
0.000120874
7.74587e-05
0.000111105
7.17547e-05
6.57561e-05
3.14468e-05
0.000106958
8.64376e-05
7.2325e-05
0.000127619
6.16424e-05
0.000104876
6.25985e-05
9.9945e-05
0.000122532
0.000132745
0.000115609
0.000134104
8.31373e-05
6.82569e-05
0.000125721
0.000121919
0.000154971
0.000182877
9.71329e-05
8.67358e-05
0.000167835
6.54685e-05
8.51342e-05
0.000126776
0.000122443
0.000103759
5.36951e-05
7.24421e-05
5.39544e-05
8.91083e-05
2.82744e-05
0.000110197
6.82816e-05
7.24551e-05
8.33929e-05
0.000125712
6.39401e-05
6.16326e-05
6.47745e-05
0.000115853
2.71837e-05
0.00010525
0.000131974
9.76087e-05
4.47955e-05
9.37374e-05
0.000125009
2.71241e-05
8.92811e-05
6.38379e-05
0.000115879
9.32286e-05
4.36234e-05
7.30832e-05
0.000128576
0.000101817
3.67505e-05
9.37001e-05
6.91352e-05
8.61235e-05
6.22763e-05
9.86307e-05
5.31939e-05
6.73402e-05
8.23985e-05
4.02032e-05
8.06268e-05
0.000141237
8.97796e-05
0.000110029
0.000201596
0.000181694
0.000120585
)
;
    }
    procBoundary0to1
    {
        type            processor;
        value           nonuniform List<scalar> 
29
(
0.0031004
0.0052971
0.00248133
0.00248133
0.00523708
0.00523708
0.00273422
0.00152079
0.00202456
0.00228019
0.0022828
0.00202019
0.00137638
0.00155316
0.00200422
0.00116466
0.00778039
0.00537367
0.0020863
0.00561059
0.000826711
0.000720708
0.00322938
0.000735504
0.000726187
0.00537367
0.000719519
0.000906927
0.000735504
)
;
    }
    procBoundary0to2
    {
        type            processor;
        value           nonuniform List<scalar> 
42
(
0.00315627
0.00273115
0.00152664
0.00147531
0.0023448
0.00315627
0.00152664
0.000918381
0.00195792
0.00110719
0.00251379
0.00230028
0.00251379
0.00223038
0.00219693
0.00307529
0.00219693
0.000938361
0.00148129
0.00453233
0.00453233
0.000938361
0.000976909
0.00435633
0.00435633
0.000951686
0.00340805
0.000937877
0.00333231
0.00263718
0.00263718
0.00087926
0.000801388
0.000714811
0.000632588
0.00152664
0.00248026
0.000537457
0.00333231
0.000918381
0.000666238
0.000611805
)
;
    }
}


// ************************************************************************* //
