/*--------------------------------*- C++ -*----------------------------------*\
| =========                 |                                                 |
| \\      /  F ield         | OpenFOAM: The Open Source CFD Toolbox           |
|  \\    /   O peration     | Version:  v1912                                 |
|   \\  /    A nd           | Website:  www.openfoam.com                      |
|    \\/     M anipulation  |                                                 |
\*---------------------------------------------------------------------------*/
FoamFile
{
    version     2.0;
    format      ascii;
    class       volVectorField;
    location    "0.79";
    object      U;
}
// * * * * * * * * * * * * * * * * * * * * * * * * * * * * * * * * * * * * * //

dimensions      [0 1 -1 0 0 0 0];


internalField   nonuniform List<vector> 
1466
(
(1.67464 -0.238073 -2.06147e-16)
(4.73524 -0.111202 -3.35848e-19)
(-2.41697 -0.246458 4.99189e-16)
(0.0390111 9.40341 -3.66183e-17)
(-0.172603 -0.908409 -6.29335e-16)
(-2.14122 0.115792 -8.86243e-16)
(-0.653436 0.122806 2.17432e-16)
(3.00886 -0.396396 1.3208e-16)
(7.41503 0.111794 -8.88147e-19)
(4.89681 -0.168654 1.31541e-16)
(6.05517 -0.213281 -1.76191e-16)
(5.14429 -0.506953 0)
(8.41395 0.0644441 0)
(0.0614189 -1.43391 -1.44027e-16)
(-1.22399 0.141992 0)
(4.67841 -0.478698 1.3653e-16)
(2.07604 -1.49302 -8.84177e-17)
(0.0354728 5.26686 -2.47534e-17)
(0.912934 5.60613 -7.89498e-17)
(-0.0860862 7.57946 1.29578e-16)
(0.117022 7.64146 5.70081e-17)
(-2.15545 0.0494992 5.22479e-18)
(0.0132869 6.21233 -5.50584e-17)
(-0.128498 7.31893 -1.40321e-17)
(8.30554 0.142925 7.23308e-17)
(-0.288317 0.0665426 -2.76152e-16)
(-1.39272 0.575458 -1.20076e-16)
(-0.102521 7.785 0)
(-1.6239 -0.0658719 0)
(4.78849 2.38119 5.00269e-17)
(6.25218 -0.591942 1.16492e-16)
(-0.455765 -0.0464842 1.66366e-16)
(-0.333664 -0.965199 2.17629e-16)
(-0.485385 6.64142 1.33653e-16)
(4.34931 -0.201384 9.15957e-17)
(-0.887213 0.89554 2.29033e-16)
(-0.43682 6.01407 0)
(1.98598 -0.643156 -2.54734e-16)
(5.27882 0.18231 -2.60749e-16)
(-1.0776 -0.180996 -3.75507e-16)
(-1.14312 -0.0562075 -1.47627e-16)
(-2.95899 0.0220271 -2.96549e-16)
(-3.10089 -0.0869611 1.61533e-16)
(-0.741771 -0.191764 1.35905e-18)
(-0.000907374 -0.276 -4.34293e-18)
(2.73395 -0.0602197 0)
(6.25601 0.117684 6.68012e-18)
(1.70224 -0.0559667 0)
(-1.89386 -0.328428 1.235e-16)
(0.939849 -0.265209 0)
(-1.23336 0.299775 -9.97399e-17)
(4.6375 -0.0700475 -3.39639e-16)
(-2.28561 -0.0862187 5.90615e-16)
(0.388271 -0.471573 6.08395e-16)
(-0.823757 -0.476686 -9.85379e-17)
(6.43643 -0.0462539 1.20626e-16)
(2.24428 -0.19311 -1.9837e-17)
(5.94522 0.0160648 0)
(-0.0986826 -0.227371 1.12602e-17)
(4.8317 0.0245254 0)
(0.348949 -0.0133219 2.10831e-19)
(-0.729124 -0.152939 -1.18132e-16)
(-0.702991 -0.645019 1.79993e-16)
(4.12535 -0.20112 1.31933e-16)
(1.39192 5.65031 -1.71281e-16)
(1.97194 0.468984 2.14867e-16)
(-0.35571 1.99249 0)
(-0.0999642 5.38374 2.63303e-17)
(7.33247 0.520972 2.84102e-17)
(-2.13114 0.00844245 -1.54668e-16)
(1.19418 0.849971 1.16466e-15)
(-0.118912 5.98855 0)
(-0.0404177 5.90442 0)
(8.21818 0.214776 -1.48717e-16)
(0.0774129 -0.322345 2.91313e-16)
(6.02517 -0.0543863 -1.10772e-16)
(-0.650837 -0.231586 1.01724e-16)
(-0.346591 -0.768124 -1.04365e-16)
(-1.57044 -0.125796 0)
(3.81653 0.791891 0)
(4.40824 0.0176367 -1.22452e-16)
(4.9188 -0.336523 -1.65478e-16)
(-1.55003 1.01177 -2.47486e-16)
(0.930433 3.34492 2.53685e-16)
(-0.129908 5.36006 1.10853e-16)
(0.621244 5.88677 4.06769e-17)
(-0.555065 7.88993 0)
(3.6113 0.270248 1.62367e-18)
(5.05517 0.10694 2.41806e-16)
(-0.173218 0.488571 -3.02539e-16)
(-0.0615167 0.0586376 -9.85852e-17)
(-2.06192 0.37903 -2.14968e-16)
(0.158997 7.18007 -4.05366e-17)
(0.92736 -0.514963 -2.12024e-16)
(1.58581 -0.545949 0)
(-1.72143 -0.30092 -3.31793e-16)
(4.50855 -0.131356 2.97666e-16)
(6.31815 -0.0238688 -6.92894e-18)
(6.6053 -0.125186 3.01633e-16)
(-0.719686 -0.435662 9.24997e-17)
(-1.84045 0.256248 4.89387e-16)
(-0.608711 0.0194406 0)
(1.60809 -0.0021402 3.54892e-16)
(-1.08547 -0.528603 3.21604e-16)
(-3.03802 -0.136812 -1.20678e-16)
(3.41548 0.126446 6.08787e-17)
(-2.37028 -0.165527 -2.2313e-17)
(1.20847 -0.285092 0)
(5.39658 -0.415694 1.68068e-16)
(1.78608 -0.121095 7.21934e-17)
(0.209973 0.0121666 -2.73728e-16)
(4.77036 -0.0838093 3.61878e-17)
(1.62279 -0.558202 -3.59067e-17)
(-3.21501 -0.00395294 -3.73054e-17)
(4.32466 -0.340067 0)
(0.52939 0.060575 8.90425e-17)
(-2.78049 0.16604 1.37751e-16)
(3.86808 -0.0165879 0)
(-0.914508 0.0324498 1.58001e-16)
(-1.20796 -0.0984938 -6.08329e-16)
(-0.258754 9.13326 -2.85012e-17)
(0.0630253 -0.562291 3.16062e-16)
(0.23875 -0.686195 -1.08933e-15)
(-0.362958 -0.222149 0)
(0.477125 -0.0995619 -8.03294e-16)
(-1.17933 1.0296 -7.2138e-19)
(6.47454 0.969881 4.57938e-17)
(-0.25055 5.82034 -6.03057e-17)
(-0.112482 7.13416 2.23042e-17)
(0.876403 0.478486 1.73481e-16)
(5.11332 -0.0293437 1.99352e-17)
(-2.41334 0.181956 0)
(-0.155081 6.34062 3.80393e-17)
(-0.162887 7.36245 2.94149e-17)
(0.00569892 -0.0349481 -1.59452e-17)
(-1.08518 0.00419652 0)
(-1.30512 -0.055797 0)
(0.518224 -0.480452 -1.00449e-17)
(-1.16283 -0.0153016 -1.01213e-16)
(-1.34285 -0.176384 2.00777e-16)
(0.213824 -0.444701 0)
(-0.0400038 7.78855 -5.57875e-17)
(-0.122423 6.63608 -2.6221e-17)
(0.359528 5.28951 -2.18943e-18)
(-1.62362 -0.465733 -2.13666e-16)
(0.982259 6.57841 8.58096e-17)
(-0.456995 -0.0507821 -2.85615e-16)
(0.557275 0.0661643 -4.41766e-16)
(1.5605 0.714491 -6.84957e-17)
(-1.01572 -1.05412 1.12573e-15)
(0.0403799 0.0343475 1.83972e-16)
(3.40731 -0.130774 -5.30917e-20)
(6.92115 0.833167 -1.393e-19)
(0.646978 -0.0106537 0)
(1.60286 0.70383 0)
(-2.09096 0.140622 2.03177e-16)
(-0.208662 7.65744 -1.35559e-17)
(-0.556207 8.62186 -1.27718e-16)
(-0.186956 0.00457064 1.07238e-15)
(5.50774 3.76048 6.49572e-17)
(-0.441393 -0.0100945 1.25745e-16)
(5.39151 1.30589 0)
(0.588435 3.04681 7.16285e-17)
(-0.186715 6.91477 5.69106e-19)
(2.58085 2.64487 0)
(-2.70935 -0.214044 1.3517e-16)
(-0.115787 6.69796 0)
(-0.211611 4.9356 1.84328e-16)
(-0.151222 6.68069 -2.75251e-17)
(2.03283 8.86192 5.52914e-17)
(-0.0985462 6.85472 1.85624e-16)
(-0.400312 0.0759626 -1.20262e-16)
(1.34161 -0.0415045 4.35575e-17)
(7.23875 0.676842 -1.48317e-17)
(3.86314 -0.00637906 -2.32879e-16)
(7.71897 0.140898 -2.86671e-16)
(5.1359 2.954 1.59686e-16)
(3.6432 1.6669 -7.30274e-17)
(0.0743917 0.0346913 -3.71154e-16)
(0.926224 1.17568 -2.42746e-16)
(8.67326 0.16612 3.52697e-16)
(3.96409 -0.137937 -2.40585e-17)
(-0.0672027 4.85991 -1.73283e-16)
(1.11449 0.351257 2.70352e-16)
(3.87953 0.187178 -4.10939e-17)
(0.212865 5.59691 -2.73227e-18)
(-0.138782 5.27518 -1.09298e-16)
(2.01621 4.62749 -1.40241e-16)
(7.17924 0.348201 7.01951e-17)
(-1.55914 0.0246512 3.69056e-16)
(-0.0417163 6.97488 -1.24892e-16)
(0.385174 -0.0594198 1.56469e-19)
(0.584919 4.12974 6.51556e-18)
(0.799854 6.20451 2.24379e-16)
(5.88959 3.28788 -3.83824e-17)
(0.336318 0.109614 0)
(-1.5132 0.176187 3.22799e-18)
(3.4929 1.20641 -3.48957e-16)
(1.29456 2.3292 -2.57293e-16)
(1.74851 5.92583 -4.53952e-16)
(0.374071 3.15414 0)
(1.18526 0.560412 0)
(5.3927 2.18181 -6.39632e-21)
(0.426376 2.42946 0)
(1.3616 0.627222 2.04487e-16)
(1.65591 1.87265 -1.83288e-16)
(0.603811 6.92599 -1.00613e-16)
(6.78265 3.62573 0)
(-0.0340488 0.0772258 1.36892e-16)
(-0.0675613 7.46613 2.29842e-19)
(0.546435 6.016 7.3723e-17)
(-0.0880114 5.43046 -1.03877e-16)
(-0.238398 2.42266 0)
(-0.15149 7.28686 1.36094e-16)
(0.263798 7.41741 -3.5297e-17)
(-0.169404 6.65994 2.41274e-19)
(0.0110871 5.60226 2.85809e-18)
(-0.146187 5.10974 -9.56741e-17)
(3.59358 4.16119 1.41686e-16)
(-0.141542 7.02172 2.02987e-16)
(-0.277989 5.4606 -1.3959e-16)
(0.57278 0.00737847 -1.24327e-16)
(-0.148619 6.47101 -2.05045e-16)
(0.583284 0.161469 2.47415e-16)
(-0.161081 6.54888 8.81467e-17)
(3.51581 3.63552 -1.49487e-16)
(-0.872266 -1.376 4.84382e-16)
(0.81773 0.749278 -2.5986e-16)
(0.0395343 0.0755464 -3.00108e-16)
(0.539593 -0.0284827 -3.43128e-20)
(0.686412 0.388731 -6.19656e-16)
(4.16608 0.0907814 2.21102e-16)
(1.04084 5.06352 1.12508e-16)
(0.508187 3.26676 2.00986e-16)
(-0.933005 0.782069 5.41063e-17)
(2.0786 1.37759 -7.36647e-16)
(-0.115693 6.63467 3.84851e-17)
(0.0165698 5.08314 1.75148e-17)
(0.630953 0.270269 2.43792e-16)
(-0.0406652 6.63947 2.3738e-17)
(0.219804 1.87057 0)
(4.21426 0.734646 4.65871e-17)
(5.72642 3.11423 8.49769e-17)
(2.37905 4.41063 2.05337e-16)
(0.157363 0.19989 0)
(5.81214 1.19938 0)
(-0.412752 -0.0316042 0)
(8.61528 0.336264 0)
(2.92847 0.812831 -1.22342e-16)
(5.98596 3.58038 -7.71464e-17)
(-0.0405261 6.2469 -5.18669e-17)
(1.19098 6.08106 -2.44107e-16)
(6.9694 4.22831 3.37185e-18)
(3.8973 -0.778 -1.02287e-16)
(-0.478942 0.0430394 3.0661e-16)
(0.387972 0.00270288 -2.75617e-16)
(-0.26585 7.79109 0)
(8.99546 3.98214 -1.80467e-16)
(-0.0454043 3.93158 -7.12258e-17)
(-0.0949841 2.41626 1.10879e-16)
(-0.012622 -0.558655 0)
(-0.19817 6.44623 -2.41278e-17)
(-0.151213 7.31103 -3.75023e-17)
(0.569507 -0.0661508 1.92392e-21)
(4.32488 3.83676 1.02226e-17)
(1.0699 0.0755357 -2.92701e-16)
(4.05917 -0.0757118 2.37216e-16)
(1.57783 0.777016 -1.21214e-16)
(0.51154 6.74517 -1.83341e-17)
(9.32386 3.60111 -8.69994e-17)
(1.8302 4.2127 -1.19974e-16)
(-0.075773 3.88292 0)
(-0.290902 -0.629126 6.97986e-18)
(0.0249543 0.0986808 -1.7565e-16)
(-0.0785988 -0.0204346 -4.02253e-16)
(0.743213 0.234162 4.76918e-16)
(0.268519 0.0845665 -2.57679e-16)
(2.70886 5.30372 -1.2464e-16)
(-0.175708 6.31008 -1.23559e-16)
(2.0202 0.856074 1.86385e-16)
(0.415618 -0.0591892 2.22889e-16)
(1.89054 -1.08798 2.43324e-17)
(2.4629 3.72697 0)
(5.27616 0.523434 -4.16607e-17)
(0.00298231 -1.66815 4.66385e-16)
(0.722228 -0.336728 -1.71071e-16)
(2.63911 1.27499 0)
(2.70885 1.25207 -3.37404e-16)
(-0.381428 -0.301089 0)
(7.88744 4.08122 -2.88369e-16)
(7.66954 1.18428 1.47923e-16)
(1.11431 -0.150562 -4.74912e-19)
(8.59744 0.12654 -3.70043e-16)
(-0.768041 -0.0767966 0)
(3.87975 5.82992 1.08173e-16)
(1.04248 2.48838 -3.84656e-16)
(-0.0750938 3.56061 1.30208e-16)
(0.77394 -0.646276 4.13597e-17)
(2.55942 1.22966 8.29196e-17)
(0.379104 -0.0498332 -2.7288e-16)
(0.382564 -1.17569 0)
(-0.808193 -0.0372694 1.90105e-16)
(-0.42737 -0.20407 0)
(8.79023 0.398194 -2.22775e-16)
(-0.543124 8.49426 0)
(0.218001 0.635617 9.47012e-17)
(0.48111 -0.451729 1.4804e-16)
(0.0156003 -1.36926 -2.44707e-17)
(3.26202 8.46569 -2.76259e-17)
(-0.212409 7.36335 6.82535e-17)
(7.05634 1.8937 1.61451e-16)
(-0.392169 4.44976 0)
(-0.138609 6.6853 -2.48351e-19)
(3.08156 0.345443 -1.48898e-16)
(3.84025 1.8649 -1.97933e-16)
(4.86307 2.87736 -2.97905e-16)
(-0.186315 0.00366075 0)
(5.32098 3.54962 2.23932e-16)
(-0.357734 -1.17363 0)
(-0.64491 0.179972 3.14992e-16)
(0.0148564 -1.32208 0)
(-0.0882325 3.77015 -1.36319e-16)
(0.0707155 1.87679 -6.86925e-17)
(0.272183 -0.031214 3.49049e-16)
(-0.367315 8.81989 -1.96754e-17)
(7.87376 5.27351 -9.01461e-17)
(0.977348 -0.201288 -8.58309e-17)
(4.86547 3.75013 -2.24053e-16)
(-0.0123621 -0.0565984 -2.90061e-16)
(3.08323 0.122268 1.80541e-16)
(0.0622648 5.77924 9.9088e-17)
(7.9345 4.67403 5.46658e-16)
(-1.46394 -1.03539 -3.81369e-16)
(3.58683 7.22016 2.33912e-17)
(2.37723 2.70979 -1.61534e-16)
(7.20671 1.76506 6.67803e-17)
(2.46007 1.43349 -4.20642e-16)
(0.668173 0.162198 4.25379e-16)
(0.471902 -0.132299 -2.32523e-16)
(0.11509 -0.585129 -2.18468e-16)
(0.548555 -0.256221 -3.25861e-20)
(6.54109 3.17491 7.19862e-17)
(0.918863 -1.31259 4.29659e-17)
(3.23864 3.29017 -3.53389e-17)
(1.62846 8.78727 -5.99778e-17)
(-0.61324 -0.12178 -9.77002e-17)
(5.53295 0.423599 -1.95744e-17)
(3.92244 6.13266 -8.2221e-17)
(6.88056 0.222928 2.61108e-17)
(2.8374 2.26684 1.75348e-16)
(6.32672 4.59602 -2.17173e-18)
(8.64685 2.76386 -5.07572e-17)
(-0.00475414 10.4019 -6.20943e-17)
(0.832622 0.913457 1.28977e-17)
(-0.897578 -0.959096 0)
(0.946114 1.59999 2.29084e-16)
(-0.46774 3.35528 -2.32017e-16)
(3.56574 0.449097 6.59165e-18)
(9.58945 2.51187 0)
(3.55829 7.44481 2.47274e-17)
(-0.396094 -0.335313 0)
(1.33597 2.89417 1.07855e-16)
(1.93178 4.94567 1.11123e-16)
(0.134635 2.70679 0)
(-0.655872 -0.793928 -2.85946e-16)
(-0.00760686 2.04205 4.58182e-19)
(7.12465 2.96336 5.74109e-17)
(7.31376 2.52612 4.97935e-17)
(-1.02281 -2.0529 1.65656e-16)
(2.82687 6.91617 4.01237e-18)
(3.07528 8.96389 0)
(0.728514 2.38869 1.15133e-16)
(1.38384 2.9528 -3.43013e-17)
(3.06072 8.4597 -3.24763e-18)
(-0.197503 -1.61006 5.83354e-16)
(-0.287164 4.58052 4.02058e-17)
(3.13612 -0.516958 -2.60802e-17)
(1.23889 5.38669 7.60406e-17)
(0.895212 -0.747147 6.42023e-16)
(4.06169 4.64484 -8.76229e-17)
(0.101429 1.86631 1.0303e-16)
(0.11459 1.60621 -3.3202e-16)
(0.0493031 2.34821 -1.97118e-16)
(-0.00876867 2.72996 2.75486e-16)
(-0.00819593 2.15648 0)
(0.0512979 1.9249 1.57135e-16)
(0.425046 -1.8488 -2.08568e-17)
(0.143581 -2.08636 -2.05239e-16)
(0.0458547 -1.56525 1.7373e-16)
(0.0531169 -1.33511 -4.5078e-17)
(0.0828416 -0.0305876 2.07485e-17)
(0.11099 1.19331 4.7945e-17)
(0.100915 1.65094 -6.40371e-17)
(0.0694451 1.04255 -5.67334e-17)
(0.286251 0.0880381 3.33055e-20)
(0.28033 -0.735069 1.49606e-16)
(0.0993095 -0.504109 -5.94439e-17)
(1.23778 7.11829 -3.06434e-17)
(0.264869 -0.044958 8.15073e-17)
(0.353739 -0.698216 0)
(0.194155 0.27316 -2.06021e-16)
(0.68681 0.37168 2.28512e-16)
(1.63016 8.9929 0)
(-0.746081 -0.655829 2.82542e-16)
(1.21793 9.75677 -2.02683e-17)
(-0.0265794 -0.12542 6.09064e-19)
(1.6566 7.79382 -3.20265e-16)
(-0.224662 0.510306 -1.21786e-16)
(2.35321 -0.322106 0)
(1.59481 -0.0900113 1.0489e-16)
(-0.0144415 0.398707 -1.47121e-16)
(1.4123 6.91264 -1.43393e-16)
(1.11411 3.58193 2.58365e-16)
(0.796034 -0.138882 5.95665e-16)
(2.94483 1.4961 -1.14606e-16)
(-0.505072 -1.35289 0)
(-0.980937 -0.887142 0)
(1.0343 0.967878 1.33348e-16)
(0.215478 0.175512 0)
(0.91301 -0.322429 0)
(0.254044 0.164737 -1.78598e-16)
(-0.516342 0.0966546 3.9427e-16)
(0.600335 -0.238762 0)
(1.0477 4.6011 1.05418e-16)
(0.0720747 -0.0718812 1.54037e-16)
(0.0295279 -0.510902 -2.21723e-19)
(-0.270171 0.561733 4.35079e-16)
(2.07862 0.456123 2.71549e-17)
(-0.226611 0.045516 -8.50508e-16)
(-0.355251 -0.0702981 4.19762e-16)
(0.651213 -0.103083 0)
(0.277131 -0.501528 6.25526e-20)
(-0.416293 -1.07788 5.59624e-16)
(-1.64458 10.33 1.86468e-17)
(2.18549 -0.0407096 -5.02811e-16)
(0.0525685 -0.433853 -4.44818e-16)
(-0.62343 -0.555122 7.59675e-17)
(-0.266763 -0.714799 -7.9933e-17)
(0.00804325 -1.09331 3.27192e-16)
(0.027563 -0.135697 -3.69437e-16)
(-0.268539 0.2005 4.64056e-17)
(0.244133 -0.389371 -9.9548e-17)
(0.916424 -0.277468 2.72417e-16)
(-1.36395 -0.503852 0)
(1.36642 -0.0354445 -3.03569e-16)
(0.913111 -0.636363 1.70014e-16)
(8.62191 0.099131 7.86343e-17)
(2.20958 -0.100871 0)
(0.955764 -0.692315 -1.05528e-16)
(1.73447 -0.415016 1.60255e-16)
(2.57859 -0.145526 5.64525e-21)
(1.16091 -0.697372 -1.37508e-16)
(0.0466184 -0.163854 -5.01585e-17)
(8.77645 0.139353 3.5895e-17)
(0.0622933 0.423249 -2.09528e-18)
(0.000293281 -0.295889 6.15842e-18)
(0.303788 0.890734 0)
(-0.810398 1.67851 0)
(0.0046091 -0.266202 0)
(1.49287 -0.0910772 2.68034e-16)
(-0.124026 -1.49513 -4.66152e-16)
(0.0160959 0.00160935 -2.60281e-17)
(-0.334263 1.22784 -2.04335e-16)
(-0.575572 2.05915 5.73005e-16)
(1.08591 -0.989132 2.18031e-16)
(0.78477 -0.805752 -1.66517e-16)
(0.0385625 1.44281 -1.14121e-16)
(0.0554868 0.0309772 -3.88502e-17)
(0.224967 0.104815 -7.01517e-17)
(0.102251 1.28603 6.10489e-17)
(0.122734 0.0766988 1.55791e-16)
(0.21788 1.24934 -1.13439e-18)
(-0.513199 -1.36821 -6.10841e-16)
(0.46186 0.818819 9.13098e-19)
(1.09644 -0.0926181 1.5499e-16)
(0.522803 -0.784345 2.64178e-19)
(0.332766 -0.329295 -2.29914e-16)
(0.574917 2.9514 0)
(0.555426 2.28675 0)
(1.53929 1.18858 -8.93032e-18)
(2.5415 7.55254 -8.90239e-17)
(-0.309656 4.60026 1.90487e-16)
(-0.280683 8.26756 -1.27165e-16)
(0.53947 2.72992 7.90109e-17)
(0.97923 1.52656 -3.11351e-17)
(6.88429 4.78269 -1.78243e-16)
(0.534611 -0.819111 -1.7804e-16)
(0.346541 -0.0911286 2.1118e-16)
(0.527048 2.42326 -1.07815e-16)
(1.55874 5.16755 1.03742e-16)
(0.862479 0.990272 1.34784e-16)
(-0.111152 7.84739 3.50345e-17)
(0.893036 -1.87859 -1.86755e-16)
(-0.00434591 1.53811 1.10085e-16)
(0.699048 2.38396 0)
(-0.0204677 1.8271 2.55811e-17)
(-0.248402 3.76627 0)
(-0.0547783 2.28437 6.09566e-18)
(4.56052 2.7655 0)
(0.0432659 2.53657 6.09099e-17)
(-0.0648668 3.09919 0)
(-0.142117 4.13032 0)
(-0.335704 2.69511 -1.2416e-18)
(-0.0615461 -1.30538 2.57589e-16)
(-0.0290331 1.42963 -2.43816e-16)
(0.117295 3.65453 0)
(2.32607 8.10938 0)
(2.01627 -0.0696955 2.23393e-16)
(0.712138 -0.743691 1.27524e-16)
(-0.151085 2.78756 0)
(1.77613 -0.0608697 2.79847e-16)
(0.960044 2.0907 -1.44119e-17)
(0.247243 2.50612 5.30138e-17)
(-0.681884 9.42441 -6.45649e-17)
(-0.298327 3.7947 -8.39668e-17)
(0.065431 2.72678 -9.43873e-17)
(0.0651595 0.409339 -2.38254e-17)
(8.83202 0.14526 -3.33526e-16)
(8.22115 0.257339 8.36771e-18)
(1.88673 -1.11195 5.81041e-16)
(-0.122885 3.20668 -4.83112e-18)
(0.304119 0.173737 2.60478e-16)
(0.131866 4.3243 6.10616e-18)
(5.80254 4.8667 0)
(0.796754 2.59347 0)
(0.130157 0.787018 3.65601e-17)
(0.218879 0.348052 0)
(0.245441 -0.977119 -4.18211e-16)
(0.0641492 0.873503 -4.92642e-17)
(0.450865 3.18817 -1.02459e-16)
(0.339687 -0.394871 1.99807e-16)
(-1.1732 10.3772 -2.15516e-17)
(0.187619 0.792495 -2.52791e-16)
(-0.0288897 1.69106 0)
(-0.110691 2.46008 0)
(0.133343 0.393904 -4.50102e-17)
(5.28868 6.22769 0)
(2.34759 6.68494 0)
(0.0292322 0.413135 0)
(-0.167484 7.5832 -1.36606e-16)
(6.81328 5.51842 7.15396e-17)
(-0.64194 -1.12252 -2.4933e-16)
(0.156828 1.6554 -2.28902e-16)
(0.110457 1.57374 1.80026e-16)
(0.0225655 0.92099 6.15714e-17)
(4.52779 7.21922 -3.20694e-17)
(0.0190215 0.961934 1.82386e-18)
(6.62653 6.25856 -3.73936e-17)
(-0.197505 6.42613 -4.40908e-17)
(1.35501 -0.0152087 1.24494e-16)
(2.29262 -1.15846 1.9496e-16)
(0.568171 -0.650568 9.55342e-17)
(0.251833 0.295133 -4.12525e-17)
(-0.0903846 2.36447 -9.16132e-18)
(-0.791666 9.89016 2.62327e-17)
(-0.242445 3.30608 1.40784e-16)
(-0.189731 2.91598 7.62263e-21)
(0.0960037 1.76225 2.742e-17)
(2.06626 -0.294163 1.27627e-16)
(7.5196 5.87052 -1.59947e-16)
(0.334977 3.60576 1.25794e-17)
(-0.473864 -0.546141 1.92404e-16)
(0.806791 -0.0580058 2.85828e-16)
(4.38605 4.77827 2.69757e-17)
(8.28593 0.339602 -2.89424e-16)
(0.175889 0.700296 6.85768e-17)
(-0.0306093 1.60322 6.63566e-18)
(0.0459173 4.71309 -1.16949e-17)
(2.60991 4.96082 5.89774e-17)
(-0.310674 5.48976 8.35729e-17)
(-0.33902 8.84188 1.80238e-17)
(0.0153039 5.06282 0)
(0.830326 0.413469 0)
(3.89967 2.00383 4.77019e-16)
(1.18981 1.70393 -6.02856e-18)
(-0.5057 9.09184 4.694e-17)
(8.80243 3.59207 -3.91297e-17)
(-0.247648 4.38104 2.17903e-17)
(-0.126792 2.59826 -1.17367e-17)
(5.28168 -0.58196 2.41837e-16)
(1.43928 1.80173 -5.12121e-17)
(-0.364774 5.7268 -3.86809e-17)
(-0.217342 3.50802 8.67509e-17)
(0.249922 3.40871 -1.45861e-16)
(0.0834389 2.05114 1.92304e-16)
(1.09192 2.23003 5.88509e-17)
(-0.299655 9.32831 2.67269e-20)
(9.03218 1.84626 1.07936e-17)
(-0.0346866 2.01707 -1.52775e-16)
(0.186364 0.86209 -1.0859e-16)
(-0.572258 8.11929 -7.45958e-17)
(5.54658 6.98182 0)
(-1.36215 -1.37754 0)
(-0.188528 3.35889 -9.1135e-17)
(0.230003 6.83515 2.474e-19)
(-0.149506 6.74887 2.95982e-17)
(1.56381 5.48769 7.32208e-17)
(-0.472879 10.5677 4.94506e-18)
(1.85165 1.48859 2.1733e-18)
(-0.300755 8.60258 1.55042e-17)
(4.28553 2.36445 0)
(8.60009 4.7278 -5.44881e-18)
(8.38043 4.37287 -7.63689e-17)
(3.73514 8.20203 3.06312e-18)
(0.929877 3.78666 -6.92633e-17)
(-1.1233 -1.08324 -1.72824e-16)
(1.81308 -0.0409397 -2.02792e-16)
(0.883992 0.337378 -1.23871e-16)
(-0.79868 -0.937885 -1.01518e-16)
(-0.06419 3.72211 0)
(0.587659 1.4867 6.96511e-18)
(0.156723 6.65649 0)
(6.38634 6.37721 0)
(5.85502 5.30894 3.99469e-17)
(-0.101964 6.23262 0)
(5.80451 3.96432 1.06228e-16)
(4.1641 2.13267 -1.29289e-16)
(5.57263 5.88523 4.77643e-17)
(7.3834 1.35858 0)
(-0.41585 9.4616 -6.48531e-18)
(4.36243 7.7349 1.1122e-17)
(0.458881 -0.99726 3.31814e-16)
(1.1116 -0.0697982 -1.46387e-16)
(7.36792 5.46801 2.19484e-16)
(7.26066 0.117965 -5.50769e-18)
(-0.164966 3.25791 9.60076e-17)
(-0.449203 6.94425 9.78664e-17)
(-1.26781 -1.42343 1.00096e-16)
(-0.844824 -1.28907 -1.69813e-16)
(-0.346898 4.84228 0)
(1.38806 0.615414 -4.64123e-17)
(7.64782 3.51672 1.0444e-16)
(7.41716 1.69326 -1.08024e-16)
(7.69921 4.75748 6.18443e-17)
(-0.208918 4.2647 -4.70462e-17)
(9.09051 2.8844 5.56396e-17)
(-0.52587 9.34751 -8.87118e-19)
(-0.258594 8.85581 -2.1045e-17)
(2.85544 1.12211 3.83315e-16)
(-0.169014 9.1311 3.55557e-17)
(-0.195561 6.72482 4.45512e-17)
(0.552697 8.87513 2.8682e-17)
(0.159241 10.6985 5.16596e-18)
(0.660464 0.139869 2.13808e-16)
(-0.212529 5.36384 -7.95338e-17)
(8.25784 5.21596 -9.34614e-17)
(-0.865782 -1.65078 9.88009e-17)
(0.0405484 4.66622 0)
(-0.0255749 10.7956 2.32097e-18)
(5.02369 6.90921 -2.35892e-17)
(-0.177187 4.24827 -4.49488e-17)
(8.66847 0.386275 4.05317e-16)
(4.02556 0.315625 2.46832e-19)
(0.406868 -0.958333 2.51676e-16)
(0.0350202 0.337304 2.17074e-16)
(-0.146849 4.88118 1.55225e-16)
(0.567932 -0.447335 1.60714e-16)
(-0.197089 6.35016 1.16221e-16)
(-0.0168875 -0.0662461 3.64562e-16)
(9.46311 1.17204 6.6686e-17)
(0.253691 3.99296 -7.51465e-17)
(4.63958 0.0151575 4.8642e-18)
(0.0131844 -0.422088 4.58127e-16)
(8.69912 4.17891 0)
(0.687512 0.46236 0)
(0.481919 0.266459 1.62508e-16)
(-0.502761 3.75495 9.85947e-19)
(1.96061 0.698429 0)
(2.88338 -0.277908 0)
(0.72701 -0.55351 0)
(0.030214 -0.847836 -4.59232e-17)
(0.566793 0.12924 5.56981e-17)
(2.38445 -1.31497 0)
(0.836599 0.322251 8.32783e-16)
(-0.702263 -0.917445 -8.85778e-16)
(-0.101079 -1.63696 1.31805e-16)
(-0.257955 0.0469024 -2.74294e-16)
(-0.433033 -0.1301 2.55641e-17)
(2.3311 -0.227129 1.13074e-16)
(8.11143 3.05502 2.60002e-16)
(-0.207945 8.75449 3.63743e-18)
(-0.35949 -1.78033 -1.88858e-17)
(-0.391978 -0.0119076 8.87088e-16)
(0.0130849 -0.55748 0)
(-0.210492 0.104281 -3.83389e-16)
(0.390048 -0.024117 2.66825e-16)
(0.527605 0.192629 0)
(-0.666916 0.050766 2.10496e-16)
(2.12825 0.930831 9.31294e-18)
(-0.556007 0.0471827 0)
(-0.0845362 0.266147 1.11929e-16)
(8.1872 2.46867 -3.81918e-17)
(8.62709 3.65957 -1.74609e-16)
(2.04157 9.38502 -1.13961e-16)
(0.00193665 0.127267 3.68206e-16)
(-0.723416 0.0482469 -7.2947e-16)
(1.8038 9.93203 -6.6433e-17)
(1.46167 -1.39479 -9.43528e-17)
(0.774194 0.194351 -5.54517e-18)
(0.389014 3.19159 7.87608e-17)
(-0.277931 6.67774 1.19065e-16)
(0.280531 0.154328 0)
(-0.611694 0.048427 1.95004e-16)
(-0.00792083 -0.0530729 0)
(-0.0135557 3.24282 0)
(0.00713296 2.84616 1.08817e-16)
(1.2493 0.312952 -1.72767e-16)
(0.123918 -0.697032 9.90152e-17)
(-0.776399 0.0406812 3.52743e-16)
(0.030803 2.70047 -9.42581e-17)
(0.296115 1.35681 0)
(0.222631 4.42034 1.03012e-18)
(1.04667 -0.334467 3.50806e-16)
(-0.165685 10.5511 1.90184e-17)
(-0.185824 6.95654 4.53252e-17)
(-0.32835 8.50302 1.15266e-16)
(4.3198 1.31816 -4.84205e-17)
(0.0377595 3.78802 -2.15921e-19)
(-0.462033 -1.36943 -1.46737e-16)
(1.68511 0.61596 -1.1606e-16)
(6.7132 -0.0584724 5.95206e-17)
(3.49595 -0.38901 -1.62108e-16)
(-0.546605 0.101152 0)
(-0.0751052 3.6996 0)
(-0.332259 6.68729 0)
(-0.323091 6.51002 2.28144e-16)
(-0.179425 8.99404 -2.08614e-17)
(0.209584 0.631348 0)
(0.352793 0.220626 0)
(-0.731869 -0.0691492 5.82363e-17)
(0.824564 -1.60526 7.91919e-17)
(-0.0489181 3.9976 1.74292e-16)
(-0.234979 -1.29873 3.37438e-16)
(-0.453788 -1.2601 0)
(1.05574 -0.45333 -4.71738e-17)
(3.10078 1.99597 6.76162e-16)
(-0.123248 6.95277 -4.59538e-22)
(-0.291253 8.85095 0)
(-0.672625 0.405712 -2.50348e-16)
(-0.0702514 6.12171 4.11826e-17)
(-0.409436 5.44217 7.19254e-17)
(1.75771 -0.0143482 1.11127e-16)
(-0.198704 4.7146 0)
(-1.78885 -0.000408011 1.44069e-16)
(0.123856 0.0437663 6.86056e-16)
(0.131162 0.0642271 3.5726e-16)
(1.53198 0.174476 0)
(0.0536855 -0.715188 2.88508e-17)
(0.166341 1.44651 -1.21083e-16)
(6.09804 1.07954 -9.79832e-18)
(-0.183421 8.82991 -1.17595e-17)
(4.9565 -0.777406 -2.94586e-16)
(-0.300863 0.0354161 1.80619e-19)
(0.488163 0.979594 1.34172e-16)
(-0.170503 5.76571 2.23442e-16)
(2.49915 0.448193 -1.10851e-16)
(1.32413 6.17775 1.11101e-16)
(-0.160936 9.23731 0)
(8.48884 0.919118 -1.19161e-16)
(0.181949 2.70839 -8.57548e-17)
(-0.113459 5.40958 5.49128e-17)
(0.10072 -0.408793 1.95763e-16)
(1.03346 0.254668 -6.59489e-20)
(3.40902 1.31841 -4.17683e-17)
(0.455079 3.54924 -5.06309e-17)
(5.59323 2.69389 0)
(-0.139175 7.61848 -1.83285e-17)
(2.80224 3.10601 0)
(1.22401 -0.952274 0)
(-0.0547103 5.40121 1.74409e-16)
(1.90091 -0.0321983 -7.60507e-17)
(0.258136 0.090323 3.23956e-20)
(0.139543 -0.924118 2.56788e-16)
(0.147311 -0.525275 1.93509e-16)
(-0.979188 0.368701 4.3975e-19)
(-0.104863 5.31205 -2.83711e-16)
(4.09757 1.90717 2.87669e-17)
(-0.374443 0.0777917 3.93456e-16)
(0.173218 1.04078 3.52848e-20)
(1.35696 6.46017 1.59455e-16)
(0.196037 0.505464 0)
(0.355676 -0.433512 3.96203e-17)
(-0.0689013 7.69871 2.39846e-17)
(2.04893 -0.0933763 -1.95346e-17)
(-0.352775 -0.799225 -6.82995e-17)
(-0.153744 -1.61561 -2.2086e-16)
(0.291514 0.0814338 3.44537e-16)
(-0.369514 4.74585 0)
(0.00280003 3.53795 5.28867e-17)
(2.30259 8.18236 -1.37336e-16)
(0.182518 1.19128 1.15031e-16)
(0.507534 -0.0741918 -4.16029e-16)
(-0.135945 5.50653 0)
(0.142766 -0.500427 -4.8231e-16)
(2.86113 -0.109531 -1.00538e-17)
(8.31822 1.48728 -5.97963e-17)
(-0.404801 8.03622 7.56456e-17)
(5.99601 -0.09039 8.13367e-18)
(-1.23948 -0.558409 -2.24485e-16)
(0.388727 0.454638 -5.01139e-17)
(0.449272 -0.600707 -2.76993e-16)
(-0.325754 -0.884113 -1.60473e-16)
(-0.421608 6.92225 7.70406e-17)
(-0.593536 -1.80052 -2.51361e-16)
(5.90578 2.64625 1.91918e-16)
(1.22912 0.0802105 -3.18028e-16)
(-0.0645892 -0.622382 1.87298e-16)
(8.46842 0.514069 7.99892e-17)
(-1.6173 0.239916 3.2537e-19)
(-0.0939436 9.22868 7.35663e-17)
(-0.0701464 7.14635 4.23567e-17)
(-0.158384 8.28608 -5.6115e-17)
(-0.199146 5.67479 3.71799e-18)
(-0.159731 7.13886 8.89573e-17)
(1.27121 0.428052 -1.07362e-19)
(-1.43901 -1.19827 1.98728e-16)
(1.05053 -0.233976 -7.70401e-17)
(-0.11956 7.67513 0)
(-0.0841432 -0.0121351 -1.91114e-16)
(-0.454369 8.91253 -4.61092e-17)
(4.6737 0.633097 -6.73472e-17)
(0.0429011 4.19816 2.17427e-19)
(-0.677182 0.588657 -2.59176e-16)
(2.70434 1.11189 -9.73381e-17)
(0.28939 -0.913523 1.8446e-16)
(0.351519 -0.289017 1.88421e-16)
(-0.0914297 3.61979 0)
(8.76774 1.4371 0)
(8.20821 1.06622 4.38043e-17)
(-0.0948244 5.66737 0)
(3.40485 0.835895 0)
(2.05548 0.716911 -2.02383e-16)
(0.20149 0.373388 0)
(1.5863 -0.306386 9.27574e-17)
(2.70906 -0.0896536 1.67512e-16)
(0.0484621 0.693273 6.8789e-19)
(-0.913175 0.657827 -1.01814e-16)
(-0.484624 0.0591881 -3.97656e-16)
(0.238077 -0.350595 -2.92822e-19)
(0.2406 -0.13816 0)
(0.170608 0.545547 -7.09862e-17)
(-0.0636339 5.54672 8.09901e-17)
(0.233584 3.95217 2.46912e-17)
(1.90244 -0.429174 -4.38678e-19)
(0.651311 -1.02206 0)
(2.10326 8.69197 2.73172e-18)
(1.74671 0.14163 -1.5138e-16)
(-0.498304 7.28247 1.40438e-16)
(4.40466 -0.0599245 0)
(-0.77243 -1.18401 -6.15836e-16)
(3.07524 -0.906141 1.61174e-16)
(5.62145 0.315269 4.01679e-17)
(0.0973197 9.56506 -4.73197e-17)
(0.0467969 1.61586 0)
(0.273332 0.443711 1.42022e-16)
(1.23676 0.103364 6.21406e-16)
(2.72518 0.38171 -9.15694e-19)
(4.02735 0.104531 4.41683e-16)
(3.29893 0.0633567 5.75932e-17)
(-0.46994 10.5055 -9.34149e-17)
(0.518714 2.8252 -3.10512e-16)
(-0.433232 6.10077 -2.82366e-16)
(8.6852 0.245445 6.4693e-19)
(0.359392 0.297905 -5.42824e-16)
(-0.181897 -0.0326997 -1.2683e-17)
(1.21742 -0.174366 1.76486e-16)
(0.0582039 9.53744 5.10047e-17)
(-0.558096 7.12544 -1.8257e-16)
(3.02193 -0.065244 2.32446e-16)
(-0.0738524 2.24775 4.94951e-17)
(0.168234 1.01688 -8.03264e-17)
(-0.531949 0.0509647 5.27288e-16)
(-1.10836 -1.05554 -9.03251e-17)
(-0.0907241 0.0415906 -6.65643e-17)
(0.499742 1.86891 -1.1725e-16)
(0.302689 0.372692 7.86687e-20)
(0.140939 4.27991 0)
(0.0776928 6.24881 0)
(0.0470671 6.18645 0)
(0.060773 6.19656 -3.64375e-17)
(-0.169147 6.14978 2.16203e-17)
(-0.00172144 6.04403 0)
(-0.177712 6.57546 0)
(-0.0812491 6.0127 0)
(0.102844 7.53268 -7.57774e-17)
(0.0629068 6.14864 0)
(0.166061 5.90625 0)
(0.160729 7.21279 7.6491e-17)
(0.0234121 7.58676 0)
(-0.0398256 7.54504 -3.46997e-17)
(0.197254 6.84399 1.87142e-17)
(-0.0371204 6.18462 0)
(0.301045 5.39725 -9.99916e-17)
(0.227767 6.0013 -3.63634e-17)
(0.227369 6.43745 2.21535e-17)
(0.446404 4.61781 1.11756e-16)
(0.541937 3.63484 3.42319e-17)
(0.641493 1.8695 1.85615e-17)
(0.594722 2.71513 -2.02441e-17)
(-0.0605351 7.4964 3.61578e-17)
(-0.060708 7.48503 0)
(-0.0493998 7.47517 0)
(0.00561338 6.10505 3.64539e-17)
(4.76141 -0.0638052 4.25949e-17)
(8.37645 0.0277294 -2.36174e-18)
(-0.73474 -0.0143844 -3.05907e-16)
(-0.670545 -1.55399 -8.33913e-17)
(1.08677 0.916533 -1.72615e-16)
(-1.41019 0.581367 -1.98631e-16)
(0.591745 -0.305092 2.84211e-16)
(0.604006 -0.992354 2.34423e-16)
(-1.66028 0.00648238 0)
(-0.214706 6.79196 -1.41169e-16)
(0.22223 6.00206 -6.63931e-17)
(-0.29659 6.2612 -4.21991e-17)
(-1.33934 0.285705 -4.13704e-16)
(1.29667 0.193149 0)
(8.81046 2.19959 -1.01648e-17)
(0.455123 -0.601651 -1.47523e-16)
(0.426738 0.0372585 1.55801e-16)
(-1.32826 -1.16267 7.62749e-17)
(1.48967 -0.0684025 8.27211e-16)
(0.0719554 8.51509 9.74582e-17)
(3.15612 -0.0985089 0)
(2.35149 9.79224 3.0712e-16)
(-0.0206292 5.40641 0)
(-1.87511 -0.214561 0)
(-0.0536693 7.48475 0)
(-0.339862 -0.353651 8.8062e-17)
(0.268357 -0.529412 1.85748e-16)
(8.99475 0.921666 -2.5615e-16)
(-0.856398 0.034952 -2.05636e-16)
(8.81673 0.581726 -7.88224e-17)
(0.13133 1.84212 0)
(1.81595 0.0921573 0)
(-1.74624 -0.911432 -1.04997e-16)
(-0.443349 8.0208 1.59849e-16)
(-0.979188 0.763359 0)
(0.161183 -0.23695 -3.45578e-16)
(0.186122 -0.000126786 0)
(-0.857254 -1.17014 0)
(0.0533952 0.147712 3.6664e-17)
(4.47492 0.2842 5.62736e-19)
(-0.355794 7.76696 -3.78655e-17)
(-0.638898 -0.0845686 -4.06943e-16)
(-0.79423 -0.509269 2.7129e-16)
(2.74181 0.145353 -1.48654e-16)
(-0.0248982 5.33638 0)
(6.99141 0.17783 3.2183e-17)
(8.45969 1.91837 0)
(2.13519 0.931942 -3.51281e-16)
(1.63533 0.347464 -2.68726e-16)
(3.27195 1.04723 -3.14211e-16)
(0.883645 0.315812 -1.83191e-16)
(2.64656 0.98269 -1.64326e-16)
(0.81335 -1.40963 -5.26902e-16)
(-0.198623 -0.126187 -1.39612e-17)
(1.82985 -0.179664 5.49246e-17)
(3.18509 -0.0912297 -1.21465e-17)