/*--------------------------------*- C++ -*----------------------------------*\
| =========                 |                                                 |
| \\      /  F ield         | OpenFOAM: The Open Source CFD Toolbox           |
|  \\    /   O peration     | Version:  v1912                                 |
|   \\  /    A nd           | Website:  www.openfoam.com                      |
|    \\/     M anipulation  |                                                 |
\*---------------------------------------------------------------------------*/
FoamFile
{
    version     2.0;
    format      ascii;
    class       volVectorField;
    location    "0.38";
    object      U;
}
// * * * * * * * * * * * * * * * * * * * * * * * * * * * * * * * * * * * * * //

dimensions      [0 1 -1 0 0 0 0];


internalField   nonuniform List<vector> 
1431
(
(-0.295737 0.238316 -3.09992e-17)
(0.823012 -0.146859 -1.64839e-16)
(5.82001 0.945178 9.56603e-17)
(-3.01959 1.75283 -4.02997e-17)
(0.0063145 1.0376 -1.47296e-16)
(4.72312 0.6986 1.69568e-16)
(1.94422 -0.697595 -1.58601e-16)
(9.67683 0.577146 -2.01668e-16)
(1.03681 2.81731 0)
(0.188299 0.256631 -1.4774e-16)
(0.259158 -0.890451 0)
(-0.47616 -0.912954 6.71399e-17)
(0.0515248 0.658913 0)
(9.12787 0.453201 1.79358e-18)
(0.227264 0.351446 -2.72872e-16)
(0.472341 1.72173 0)
(0.357287 1.57291 -3.34907e-16)
(-0.540554 0.436995 0)
(-1.55337 -0.100826 1.09621e-16)
(0.112351 -0.919217 5.04297e-17)
(-0.123589 0.351613 -2.193e-17)
(0.209659 -0.913708 -9.10576e-19)
(3.3241 1.85235 -3.8801e-17)
(8.86461 0.500974 -2.91062e-17)
(1.82801 3.45275 -1.06802e-16)
(0.00172315 -0.902876 -1.39651e-16)
(-1.23211 4.92853 9.50812e-17)
(9.36452 0.406899 -2.57852e-20)
(10.8116 0.673147 5.25227e-18)
(-0.380668 -1.88603 -4.04678e-16)
(7.85167 0.273282 2.22598e-16)
(7.13124 -0.16456 -1.71358e-16)
(-1.80864 0.388277 -1.17997e-16)
(-1.88394 0.498856 0)
(2.05538 -0.189272 8.6783e-17)
(2.01752 8.22284 1.20047e-16)
(-0.189856 -0.592214 1.24782e-16)
(9.59007 -0.0172689 0)
(4.12598 0.961816 -9.62359e-17)
(9.50587 -0.0144279 0)
(5.34724 0.117607 1.27093e-16)
(0.496006 0.142199 -8.29089e-17)
(-1.53518 0.750647 0)
(1.81034 -0.711808 -5.3769e-17)
(-0.962296 0.641584 1.56505e-16)
(-0.653404 0.274178 -4.29215e-16)
(1.28938 4.28315 2.13515e-16)
(7.22431 1.15945 -5.62958e-17)
(8.94618 0.494681 1.5274e-16)
(9.33303 0.0781612 3.48369e-17)
(0.530219 -0.646876 -8.54728e-17)
(0.381636 0.510979 1.47134e-16)
(1.35927 3.54546 4.98505e-17)
(-0.423872 1.04784 -1.48428e-17)
(1.38021 -0.78738 -1.084e-16)
(7.99385 1.65318 0)
(1.00394 0.903061 6.61868e-17)
(1.71464 4.90035 -1.66995e-16)
(-0.364391 6.6382 0)
(-0.00534331 0.0855853 -9.81022e-16)
(0.52142 1.67113 0)
(-0.435508 -0.407108 -1.89105e-16)
(1.33391 7.0524 -1.34897e-16)
(10.5517 0.121109 0)
(9.96775 0.290584 -1.66419e-17)
(-1.08659 0.835499 0)
(6.30652 0.438944 0)
(4.64228 0.23564 0)
(-0.947901 -1.64472 1.27312e-16)
(10.7281 0.0843069 0)
(-1.20543 0.509878 8.24545e-17)
(1.57752 -0.338225 -8.6011e-17)
(0.654253 -0.831172 0)
(4.98199 0.405587 -1.82209e-16)
(1.35025 0.457044 1.84777e-19)
(-0.987347 0.31989 2.85878e-16)
(-0.140802 0.9158 5.3245e-17)
(4.08618 0.813617 2.9441e-16)
(9.94224 0.156657 1.2083e-17)
(1.09677 -2.96267 -1.85613e-17)
(9.89606 0.102141 -2.3365e-16)
(0.498361 0.406805 -2.23424e-18)
(1.40469 -1.29506 1.87256e-16)
(0.932984 0.251893 -8.6382e-17)
(-2.59642 1.27654 4.12556e-17)
(-0.00472312 0.828775 -5.29412e-16)
(-0.031697 0.394034 -1.24144e-16)
(-0.954734 1.70105 1.54787e-16)
(8.53214 0.543818 8.7631e-17)
(-0.148639 -0.774595 -6.38967e-17)
(-0.804718 0.113135 2.00046e-16)
(-1.6791 1.59066 2.24581e-16)
(0.028057 0.286331 0)
(9.65312 0.0225791 0)
(0.693517 0.563811 2.11e-18)
(-0.0915356 0.52011 1.7281e-19)
(1.75387 1.1476 -3.24717e-19)
(10.3242 0.506954 3.06836e-18)
(-0.177619 0.318033 2.53977e-16)
(8.95782 0.466203 -4.26171e-16)
(-0.878882 -1.87919 -1.4832e-16)
(9.77893 0.160431 -6.32321e-17)
(-0.575843 -0.0911501 0)
(-0.00771714 0.958591 -3.61785e-21)
(-0.930241 2.58453 1.6302e-16)
(2.44885 -0.35045 6.53324e-17)
(9.97297 0.0627108 -9.90395e-17)
(5.04472 -0.0239321 7.41416e-17)
(7.17821 0.035745 9.33799e-17)
(-0.0477272 1.04475 7.92352e-17)
(-0.492106 -2.60554 1.54783e-16)
(-1.30011 0.654164 -6.81519e-17)
(9.61054 0.792466 0)
(-0.439064 -0.43379 -1.83611e-16)
(-0.0226029 2.74284 0)
(-0.017068 1.05723 0)
(-0.504049 0.284894 0)
(0.213017 -0.409914 -5.38659e-19)
(8.10979 0.564716 -6.01856e-17)
(-1.51877 0.607329 -1.56064e-16)
(9.77673 0.24181 -1.90483e-17)
(1.43967 4.2992 -1.26557e-16)
(0.583847 0.80615 -5.46376e-16)
(8.95594 0.781775 -1.11836e-16)
(10.0913 0.180872 0)
(-0.486774 0.442599 -1.04857e-16)
(7.61104 0.558353 1.59061e-17)
(1.91593 -0.0979448 5.87475e-17)
(-0.399719 0.503727 9.15957e-17)
(10.6067 0.427982 -6.72788e-17)
(-0.976273 0.281651 -1.41743e-16)
(4.48477 -0.144694 2.43381e-16)
(7.03556 0.447443 0)
(-0.56494 -0.188241 -1.92267e-16)
(0.0623451 0.255497 -1.28205e-17)
(-2.14156 1.75476 -2.48486e-16)
(0.281149 -0.738903 0)
(-1.87508 0.803347 1.06823e-16)
(-0.736953 0.114119 4.97729e-17)
(3.70315 -0.0683979 -3.89744e-16)
(0.100286 1.69914 0)
(-0.0346403 0.0188166 4.1322e-17)
(10.4935 0.0574463 -7.05626e-18)
(8.93549 0.356353 -2.00418e-17)
(8.66337 0.154092 0)
(11.3525 0.288446 4.01965e-17)
(10.3125 0.338588 3.1779e-17)
(4.83875 -0.0500202 0)
(0.0257815 -0.706052 -1.41484e-16)
(9.29257 0.872943 -5.01714e-17)
(10.818 0.0425899 7.40648e-17)
(9.88602 0.405205 -1.46508e-17)
(1.14536 0.533157 -1.66488e-16)
(1.64776 -1.01719 9.00037e-17)
(-0.424621 -0.0953417 1.90379e-16)
(2.29679 0.21957 -3.57003e-17)
(10.0475 0.115039 8.06284e-17)
(-0.550844 -0.231363 -4.51623e-16)
(9.50809 0.893615 0)
(9.42371 1.0884 -9.23209e-17)
(-0.471871 0.591043 -3.25016e-20)
(0.0994949 -0.848999 4.56543e-17)
(-0.604564 0.0369616 0)
(0.215421 1.89553 -3.443e-17)
(-0.091072 0.71216 -2.41465e-16)
(-0.592224 -0.513491 -1.75076e-16)
(-0.0651234 0.827418 -1.2544e-16)
(9.70919 0.0924303 0)
(0.396118 -1.11907 3.69411e-16)
(-0.430376 -0.282863 -1.7485e-16)
(9.75259 0.862839 -1.28387e-17)
(1.09626 2.326 2.37813e-17)
(8.66325 0.535313 -1.08232e-16)
(11.016 0.0467087 0)
(10.4763 0.0374521 1.34293e-17)
(-0.588958 0.0907789 0)
(-0.979257 0.239977 8.16045e-17)
(9.19181 0.755982 -1.68613e-17)
(-0.54529 -2.29208 2.24334e-16)
(9.4533 1.02963 9.40365e-17)
(9.68943 0.359846 3.85451e-17)
(0.214566 0.279183 1.27634e-16)
(8.78017 1.63737 0)
(-0.306651 -0.597601 3.62954e-16)
(11.2184 0.120924 8.90547e-17)
(9.8532 1.03098 -1.28457e-17)
(9.75118 0.663921 9.45966e-17)
(-2.76288 5.16815 -1.18586e-16)
(-0.0713951 -0.859527 1.89921e-16)
(10.2403 0.11116 -4.63737e-22)
(0.205115 -1.11441 8.65264e-19)
(0.482493 1.7764 -1.23203e-16)
(-0.179995 0.700471 -3.68616e-16)
(10.0184 0.0427182 -5.94384e-17)
(0.43003 2.34262 -8.64794e-20)
(9.92278 0.396841 3.75388e-17)
(9.97352 0.081623 0)
(7.26176 2.06241 -1.03547e-16)
(-0.251566 -0.392032 0)
(-0.0189732 -0.13686 0)
(0.335926 -0.865827 -1.97117e-16)
(2.95546 2.917 -2.71065e-16)
(9.29284 0.971563 -2.62081e-17)
(3.98008 0.131172 -4.31143e-16)
(9.99227 0.0509435 3.29064e-17)
(-2.14923 2.56563 -2.61783e-16)
(-0.0249441 0.596632 9.9394e-16)
(9.74076 0.253037 2.32606e-17)
(0.863924 -0.625625 1.59517e-17)
(9.05261 0.316147 0)
(10.0865 0.0674459 7.27622e-18)
(9.88555 0.315518 5.79611e-17)
(8.20307 0.640852 1.30706e-17)
(9.82568 0.21974 2.22285e-17)
(1.53487 0.690552 0)
(1.67977 3.63419 2.56618e-16)
(9.3993 0.984906 0)
(0.057767 -1.38535 0)
(-0.538595 -0.524302 0)
(10.0915 0.250685 -5.7178e-17)
(9.84459 0.184326 0)
(0.365332 1.35365 1.29719e-16)
(11.084 0.0284821 -1.17938e-16)
(4.16607 1.24024 -7.5223e-17)
(10.7087 0.363485 0)
(9.28268 1.08176 0)
(9.45761 0.887009 -6.92956e-17)
(-0.446316 -0.373508 0)
(10.5298 0.589387 0)
(7.90963 0.221394 -7.01869e-17)
(0.0283664 0.638317 0)
(-2.82037 2.60766 2.81207e-16)
(10.5887 0.0829838 7.39873e-20)
(9.79713 0.463456 -1.74728e-16)
(9.71456 0.401319 7.99354e-17)
(9.75815 0.357675 4.45445e-17)
(10.4497 0.233913 -2.4377e-17)
(-0.475733 0.217868 2.16001e-16)
(9.80763 0.116691 0)
(1.60333 0.912762 1.63382e-16)
(9.41988 0.251088 -3.00411e-17)
(9.36771 1.05674 7.84707e-17)
(0.941731 2.03982 -2.3266e-16)
(0.842306 3.87113 -2.91578e-16)
(1.95326 0.749573 -4.38566e-19)
(1.04863 1.02302 -1.03819e-20)
(10.5165 0.284858 -1.60643e-16)
(2.62261 -0.32756 0)
(-2.36627 0.320081 0)
(10.0404 0.833515 0)
(10.0463 0.900415 -8.84365e-17)
(1.05323 2.41485 0)
(0.315965 0.0655611 1.53628e-16)
(6.30561 3.10205 2.03122e-17)
(1.19599 5.04034 -1.5907e-16)
(8.09156 0.0843463 -4.28255e-17)
(1.83782 -0.00707693 1.63556e-17)
(1.41491 0.860047 2.1218e-19)
(8.23181 0.018445 7.38788e-20)
(8.18376 0.0402071 8.30143e-17)
(8.05556 0.108833 8.23886e-17)
(0.188729 1.4214 2.84715e-17)
(-0.179765 0.521038 4.7802e-16)
(0.443915 1.84525 -4.8942e-17)
(9.71058 0.295786 -7.01156e-17)
(10.6401 0.499722 6.29957e-18)
(8.09473 0.00896191 -7.61364e-17)
(9.80694 0.841153 0)
(8.32074 2.57989 2.66934e-17)
(0.543361 1.58651 -1.61007e-17)
(9.70624 0.97186 0)
(9.14484 0.686743 2.88822e-16)
(10.1898 0.781956 2.568e-17)
(10.237 0.686334 0)
(7.99054 0.132719 -5.12993e-17)
(9.8923 0.605101 1.15933e-18)
(-0.67791 -0.0430228 -1.19199e-16)
(-1.23326 -1.42111 -9.34485e-19)
(-2.23621 -0.15597 -3.0798e-17)
(0.136021 0.710358 2.23884e-16)
(0.867031 3.30238 0)
(1.59167 0.937061 -3.35685e-17)
(-0.464566 -0.551098 0)
(-0.653858 -0.0979254 3.10768e-16)
(8.16043 -0.00513964 -4.1897e-17)
(-3.41837 3.71121 4.69983e-17)
(0.0166691 0.700807 1.16746e-16)
(9.12668 1.11094 4.75755e-17)
(10.2467 0.768877 1.9267e-19)
(9.57411 0.214339 6.2604e-17)
(11.1322 0.439965 1.38213e-16)
(9.41025 -0.00509524 -5.68916e-17)
(9.3703 0.973646 0)
(-0.699599 -2.57154 0)
(10.0056 0.970491 -4.12949e-17)
(9.35798 1.28663 4.42572e-18)
(-0.286427 0.699642 0)
(8.98493 1.94465 1.6382e-18)
(1.51749 0.730897 -1.68538e-16)
(9.46872 1.07918 2.66578e-17)
(9.57098 0.43681 2.66725e-17)
(9.28928 0.77511 6.89573e-17)
(2.53438 -0.941488 0)
(7.93524 0.136758 0)
(-0.514158 -0.230436 -2.68482e-16)
(1.46767 0.562342 1.45601e-16)
(9.88694 0.134146 7.52124e-17)
(8.13895 0.0597231 -8.40033e-17)
(8.19333 0.0270422 -8.06778e-17)
(-0.596013 0.991896 1.52315e-16)
(9.59518 0.294289 -1.24121e-17)
(10.7798 0.215719 4.88094e-17)
(0.298315 -0.126324 -1.7482e-17)
(-0.0710158 0.0563846 -2.13641e-17)
(-1.13153 0.817794 -6.89046e-19)
(1.2769 0.303358 -1.67553e-16)
(0.0113629 1.20453 -5.82952e-17)
(2.12526 0.650255 -6.48658e-17)
(9.7319 0.303711 -4.23716e-17)
(-0.246919 -1.35868 -1.45687e-16)
(1.5626 0.632265 -2.40154e-16)
(-0.520824 -0.737653 2.38002e-16)
(0.0381155 2.20242 2.17636e-19)
(1.95385 0.896811 -1.07905e-19)
(0.0771624 0.464973 -1.69329e-16)
(-0.362969 -1.67897 -7.52161e-17)
(9.7961 0.0768236 1.59652e-16)
(-0.683343 -1.88293 -6.61364e-17)
(7.96781 0.456888 0)
(9.71897 0.203411 -6.24563e-17)
(-0.208804 -0.592473 -9.88019e-17)
(1.99822 -1.19391 0)
(1.02732 0.866154 0)
(-0.221877 -1.6863 1.5956e-16)
(10.2545 0.115546 0)
(0.79429 1.60527 -1.28035e-16)
(0.956226 -0.890185 -5.59716e-17)
(-0.510077 -0.212381 0)
(1.28451 -0.549236 -1.54493e-17)
(-0.381991 0.212865 1.67364e-16)
(0.230087 -0.313375 0)
(9.77438 0.0985557 -7.14352e-17)
(-0.506497 -1.92365 7.13845e-17)
(10.073 0.242847 2.84098e-17)
(6.41848 3.35431 -2.45548e-16)
(-0.086671 0.0389633 1.98173e-16)
(10.5094 0.256105 1.31447e-17)
(0.658726 -0.446109 1.67306e-16)
(0.375535 0.0465763 -8.82595e-17)
(-0.145337 0.0979103 -8.08604e-17)
(1.92091 0.0585625 -1.06227e-16)
(-1.88673 0.0663647 -3.36239e-16)
(-2.23749 -0.323583 0)
(0.672236 0.281247 -1.55123e-16)
(-0.769462 -0.132986 0)
(1.77755 0.188787 0)
(-2.45647 0.104454 0)
(-0.259211 -0.0330926 -3.9482e-16)
(-0.00349929 0.191537 0)
(-1.08297 0.0271498 4.5155e-16)
(1.52732 -0.21204 -1.63443e-17)
(-1.24203 -0.077241 1.23163e-16)
(1.07733 0.289512 2.23947e-18)
(0.366899 -0.0696102 -9.27388e-17)
(0.183596 0.098017 2.88995e-16)
(1.25405 -0.262149 -1.52108e-16)
(1.73459 0.151177 0)
(-1.50344 0.124212 0)
(-0.367524 -0.235618 -2.54459e-17)
(0.147524 -0.172742 0)
(1.09523 0.11923 5.42052e-16)
(1.19634 0.897518 1.05699e-16)
(-0.600154 -1.17038 -1.36885e-16)
(9.95638 1.01848 4.78961e-17)
(-0.77807 -2.469 0)
(-0.829787 -1.61339 1.84932e-16)
(-0.179574 -0.71776 9.53702e-17)
(9.78387 0.345124 2.80203e-17)
(10.0049 0.0392811 7.27277e-17)
(-0.230193 0.149837 6.80516e-16)
(-1.4838 0.288496 2.32575e-17)
(1.64885 -0.103102 3.40792e-17)
(0.0136766 0.0412011 -2.71431e-16)
(-2.56242 -0.105261 0)
(-1.4323 -0.0295769 1.17222e-16)
(1.46592 0.248606 0)
(-1.45257 0.146472 0)
(-0.430535 -0.121616 1.91071e-16)
(0.298972 0.24202 1.55807e-16)
(0.425176 -0.0156253 1.70929e-16)
(-0.0440262 -0.580367 0)
(2.70809 5.16956 1.64724e-16)
(9.71782 0.994803 -2.61112e-17)
(9.98818 0.00576016 0)
(-0.62179 -1.5724 -6.36754e-19)
(-1.60917 0.48465 -1.44368e-16)
(-0.612226 0.390261 -1.48414e-16)
(9.93628 0.210813 0)
(-0.680856 -0.746742 0)
(10.4106 0.0746947 0)
(-0.585167 0.243723 -5.93174e-17)
(-0.361236 -0.678229 1.72033e-16)
(9.99186 0.226138 2.50263e-17)
(1.331 -0.126776 2.86392e-17)
(-0.499434 -0.56123 1.14376e-17)
(9.88347 0.817601 0)
(2.1489 0.39392 8.83229e-17)
(8.6659 0.0163995 1.5954e-16)
(-0.519258 0.935308 -2.53899e-17)
(0.0200213 -0.40509 -1.3748e-16)
(9.65853 0.0747997 5.85111e-17)
(-0.136042 -0.816754 0)
(-2.57062 -0.0696548 -9.6718e-20)
(2.25556 7.40848 -3.65496e-16)
(8.81805 0.215575 -2.12321e-17)
(1.77353 4.49252 6.41459e-17)
(0.004608 -0.72043 -1.5865e-16)
(0.909102 2.0294 2.20887e-16)
(0.459134 -0.447634 -2.06604e-17)
(-0.653994 0.836322 -1.03525e-18)
(2.06262 0.830076 3.69788e-17)
(-0.826215 -2.42876 1.14355e-16)
(-0.687777 -1.40471 5.08595e-17)
(0.881348 0.175848 -2.73116e-16)
(-0.693803 -2.46731 0)
(0.173852 -0.655394 1.59724e-16)
(1.14355 0.246525 4.79766e-17)
(0.896525 0.585809 1.02507e-17)
(-0.162766 0.568207 -1.18602e-16)
(1.06294 0.142384 -3.6468e-16)
(1.19916 0.595815 0)
(0.492759 0.0713119 -2.23353e-16)
(-0.248425 -0.391856 0)
(0.694318 0.0783827 2.41179e-16)
(1.56839 0.826948 -7.74171e-18)
(0.691256 -0.235568 0)
(-0.880798 -2.17595 -1.76032e-16)
(0.824263 0.239966 2.6916e-18)
(0.80529 0.00437663 6.73468e-16)
(0.836239 0.764225 1.54092e-16)
(1.07825 -0.966109 -4.50482e-18)
(0.140197 2.41835 -4.13648e-17)
(0.727751 0.0258057 0)
(0.808109 -0.137451 5.21665e-17)
(0.0936844 -0.232363 0)
(-0.176419 -0.609737 8.76623e-18)
(0.0925783 0.0007779 -5.15071e-18)
(0.376661 -0.261952 -1.36879e-16)
(0.258155 -1.22002 0)
(0.735121 0.515594 1.62097e-16)
(0.584175 0.205678 -1.03319e-16)
(-0.850555 -1.69028 3.56198e-16)
(0.264824 0.0988221 -1.55041e-16)
(-0.529607 -1.54529 -1.38808e-16)
(-0.841203 -2.25402 6.15818e-17)
(-0.432071 -1.82718 -1.8851e-16)
(-0.753816 -1.85896 -2.57862e-16)
(-0.95274 -1.81267 -5.66888e-18)
(-0.609696 -1.83712 0)
(1.5427 0.592172 0)
(3.05723 2.50195 2.51271e-16)
(-0.586539 -0.123093 0)
(2.43546 0.895912 0)
(3.67262 2.30921 -1.43405e-16)
(1.57427 0.248399 1.77801e-16)
(1.74704 -0.0797537 -3.67915e-16)
(-0.368419 0.843484 -1.53524e-16)
(2.134 3.38358 9.69134e-17)
(3.18094 2.11942 -1.5492e-16)
(0.869441 -0.205511 -5.32347e-16)
(1.98611 5.31811 1.50302e-16)
(-0.668971 0.993367 0)
(7.97201 0.0895098 -1.50001e-17)
(1.04962 6.94986 -5.58531e-17)
(2.74976 2.81417 1.76822e-16)
(1.27253 -0.4749 -1.57757e-16)
(2.59763 6.97868 -2.56877e-16)
(2.22324 7.34337 2.38653e-16)
(0.928665 3.49223 1.71473e-16)
(-0.314826 -2.03748 0)
(-0.633083 -2.23271 -3.57184e-17)
(-0.611687 0.999264 0)
(0.670953 8.29018 -4.47824e-17)
(9.8352 0.347238 -1.68696e-17)
(8.6623 0.134801 -3.11991e-17)
(0.82405 -0.235001 -1.54445e-16)
(3.17197 3.12169 -8.77276e-17)
(-0.894599 -1.13004 1.18867e-16)
(-0.954183 -1.88354 -8.51734e-17)
(0.250141 -0.790836 0)
(0.147434 -0.398574 -1.29803e-17)
(-0.361517 -0.942809 0)
(0.620402 -0.683283 2.06337e-17)
(2.18613 6.11097 5.56839e-17)
(-0.331804 -1.57192 0)
(-0.544088 0.832264 0)
(-0.151034 4.64086 0)
(0.820266 -0.486941 4.21272e-17)
(9.91218 0.173278 -1.23537e-17)
(0.904736 -0.396786 0)
(2.83766 3.84048 -8.89546e-19)
(-1.01116 5.16412 1.33343e-17)
(0.96162 0.677479 8.35522e-20)
(1.04015 0.278593 0)
(1.16693 0.311781 2.18588e-16)
(0.539453 -0.9826 0)
(1.3961 -0.81782 1.24343e-20)
(-0.850745 -1.26776 -6.47578e-17)
(-0.622834 -1.52481 -3.66791e-17)
(0.138897 2.63826 -7.68454e-17)
(0.158891 2.62216 0)
(0.433222 -0.617087 3.5888e-17)
(9.57121 1.13378 0)
(-0.535403 -0.319369 4.16848e-17)
(10.486 0.125499 -8.55044e-17)
(-0.737943 -1.19593 0)
(1.48605 5.23523 -3.80833e-16)
(-0.457277 4.97148 7.36563e-18)
(-0.613885 -1.90023 3.56489e-17)
(2.29614 0.144644 0)
(0.522674 -1.25542 -1.87244e-20)
(0.604887 -0.256492 -1.38348e-16)
(0.669311 -0.913064 5.99466e-17)
(-0.56495 0.748014 -1.51752e-16)
(-1.44685 0.802312 8.93652e-19)
(-0.962734 -2.10573 0)
(-0.304117 -0.400882 1.71739e-16)
(-0.82189 -1.79073 0)
(0.691573 -0.519911 4.30531e-17)
(0.917081 -0.0715838 -1.13438e-16)
(8.63081 0.168949 4.29294e-17)
(7.90371 0.155892 -1.24302e-16)
(0.81392 -0.0972721 6.03247e-17)
(0.752753 -0.744931 -1.62302e-17)
(-1.00191 -1.80002 1.70545e-17)
(-0.830911 -2.02668 -3.20915e-17)
(0.944738 1.01853 3.97185e-17)
(0.989386 -0.0446138 0)
(0.0204442 -0.493263 3.40673e-16)
(2.81154 3.7488 0)
(1.09779 0.440779 -1.36259e-16)
(0.572115 2.14298 1.81245e-16)
(-0.186447 -0.723677 1.67484e-16)
(0.478646 0.0837076 0)
(-1.12826 0.243428 4.13343e-17)
(-0.767502 -0.69573 5.49821e-17)
(0.951888 0.290077 2.78334e-17)
(9.72298 0.0938658 0)
(-0.952972 -1.58652 0)
(0.83077 -0.871795 7.40416e-20)
(0.872082 -0.279911 -5.00936e-17)
(-0.365337 0.0376403 2.32438e-16)
(8.09811 -0.037943 4.04956e-17)
(-0.977056 -2.0011 6.21705e-17)
(0.803812 0.737459 2.96666e-17)
(-0.570953 -0.552039 -5.65524e-17)
(0.783607 1.19062 -7.81347e-17)
(-0.0981764 -0.751767 -1.71831e-16)
(8.00782 -0.0371517 -5.28325e-19)
(9.22176 1.12946 4.30801e-17)
(0.327837 -0.0712429 -3.56175e-16)
(1.06412 0.161249 0)
(0.536758 1.48436 0)
(0.831662 3.03124 7.04208e-16)
(-2.12476 0.404248 -1.1721e-16)
(-1.58745 0.55397 -3.99144e-16)
(-0.379547 -1.24905 0)
(9.63581 0.887836 1.21493e-16)
(0.861918 0.674122 0)
(1.18942 0.354051 1.42813e-16)
(-1.334 -0.465072 -5.23015e-16)
(-0.552853 -0.305561 1.79537e-16)
(1.73463 2.11214 0)
(-0.696745 -0.512215 9.80146e-18)
(1.54188 6.15616 0)
(-0.620653 -0.107727 2.65315e-16)
(-0.742334 -2.07951 9.33443e-17)
(-0.90242 -2.75835 7.83387e-17)
(1.1938 0.263284 -1.39734e-16)
(8.68679 2.24759 -2.72476e-17)
(-0.486822 0.462618 -4.35221e-18)
(9.72265 0.0754317 2.04334e-16)
(-0.559762 -0.555008 0)
(0.801773 -0.070673 -4.99324e-19)
(1.84143 0.423873 -2.00543e-17)
(0.981158 -0.000478952 0)
(-0.299588 -0.474783 3.31935e-16)
(9.77668 0.942547 0)
(0.567432 -0.0639755 4.58254e-18)
(10.7349 0.411659 -3.02875e-18)
(0.777713 0.427088 0)
(2.11386 4.49202 -7.17144e-17)
(10.0002 0.0858125 -9.97858e-17)
(9.71467 1.169 0)
(9.58283 1.44278 -4.84377e-18)
(0.991395 0.106853 0)
(-0.13956 0.135189 -9.59802e-17)
(0.653997 -0.589716 -1.78224e-17)
(9.68619 0.801112 6.58107e-18)
(0.737813 -0.370791 -2.00165e-16)
(-0.342083 -0.593465 -2.14182e-16)
(0.0671157 -0.34514 -4.35039e-16)
(1.59518 -1.1419 -3.18823e-17)
(1.01307 0.293048 -6.05523e-18)
(1.00012 0.644471 6.48896e-19)
(-0.828904 -0.956652 -8.35232e-17)
(0.307589 -0.842689 0)
(1.3027 -1.10304 3.7353e-20)
(-0.534325 -0.0123701 5.88113e-17)
(5.58169 1.17941 -4.315e-17)
(6.85407 2.24717 5.90281e-18)
(-0.402549 -0.792386 -1.42068e-16)
(-1.21456 0.550743 0)
(0.85726 0.810553 -1.6548e-16)
(6.22657 1.65573 0)
(9.73807 0.696026 -1.22388e-17)
(0.400413 4.97096 0)
(0.0183108 2.07912 4.99369e-17)
(0.936732 1.06635 -1.042e-16)
(-0.988293 -1.50688 1.62422e-20)
(2.16392 -1.61391 7.34684e-17)
(2.17609 0.676792 0)
(-0.739643 0.414689 3.09428e-16)
(2.55177 -1.64789 -4.51487e-17)
(0.427371 -1.06446 -8.64699e-20)
(6.63006 1.62406 -5.99591e-17)
(2.1096 -1.81465 6.11462e-17)
(-0.145747 -0.109304 9.68455e-17)
(-0.832246 -1.64197 -1.17216e-17)
(9.72861 0.0521613 0)
(-0.364759 0.167116 5.34554e-17)
(-0.802296 0.54476 -9.53004e-17)
(-0.5122 0.0431057 -1.35328e-16)
(9.73713 0.0461248 -4.27622e-17)
(1.78182 0.851515 5.86301e-17)
(-1.0253 -1.81017 3.09824e-17)
(1.92221 -1.49981 -5.91091e-17)
(9.06355 1.14696 3.4135e-17)
(8.82644 1.56623 1.93577e-17)
(-0.856968 0.422416 2.41546e-16)
(1.03445 0.294594 -2.05866e-17)
(-0.261457 0.829196 0)
(9.75345 0.0591554 1.68092e-16)
(-0.523534 -0.767213 3.3517e-16)
(0.332855 -1.36715 -1.87424e-17)
(0.949137 0.918547 0)
(1.09207 0.335429 3.39041e-17)
(1.32646 2.94656 -6.44333e-17)
(0.385858 0.309353 7.58385e-17)
(-0.923202 0.520168 2.92574e-16)
(-2.35818 -0.484356 0)
(1.34144 0.425018 2.43432e-17)
(9.3347 1.70637 4.06553e-17)
(8.57432 0.962868 0)
(1.17917 2.50418 9.09032e-17)
(-0.978532 -1.79119 -5.68937e-17)
(9.7272 0.0755706 7.56931e-17)
(9.90044 0.184957 -2.06033e-17)
(0.494445 -0.589911 -2.71942e-16)
(-0.733656 -1.13175 -3.64448e-16)
(0.822456 0.11945 1.99617e-17)
(-0.133939 -0.189934 1.07957e-16)
(-0.834057 0.231066 -3.38907e-16)
(-0.825624 0.165288 -9.28478e-20)
(9.7368 0.149137 0)
(-0.0461954 0.0121708 1.9388e-16)
(10.0136 0.0931361 3.5159e-17)
(-0.742618 -0.868095 -5.46646e-17)
(-0.924487 -1.37874 1.28634e-16)
(0.336645 0.189347 -5.25771e-17)
(-0.187808 -0.306646 -9.22626e-17)
(9.75074 0.0962736 -2.38382e-17)
(-0.828253 0.331741 -1.76012e-16)
(0.574032 0.0913956 -2.41829e-17)
(8.58048 0.261439 0)
(8.72759 0.69123 7.62952e-17)
(2.33055 3.84472 4.22363e-17)
(1.24756 0.15412 1.63572e-16)
(1.82906 -1.26882 0)
(8.82405 1.895 -2.92113e-17)
(0.218723 0.194528 -1.69304e-16)
(-0.453598 0.0664047 1.67103e-18)
(0.900288 1.81609 -2.45904e-17)
(-2.6345 0.274796 1.51536e-17)
(-0.38617 -1.98106 -1.69956e-16)
(1.03474 0.34665 -7.32338e-20)
(-0.79317 -2.59471 2.68204e-16)
(0.950423 0.760766 -4.06062e-17)
(0.0428286 -0.389089 0)
(-1.15494 0.0359985 1.39859e-16)
(7.35721 0.115683 2.13443e-17)
(0.756286 0.299489 0)
(1.0802 0.56419 -1.87412e-17)
(-0.437565 0.0340201 -7.02906e-17)
(-0.61473 -1.46052 1.00022e-16)
(2.26931 -1.79601 -2.76517e-17)
(0.236176 -0.0958822 -8.06235e-17)
(-0.740425 -0.611298 3.01695e-16)
(9.74775 0.123864 0)
(8.95878 1.17856 -5.59605e-17)
(1.03104 0.608058 0)
(1.96866 -1.44509 1.1353e-16)
(9.35311 0.969343 -6.05372e-17)
(2.34429 -1.78878 5.3965e-17)
(-0.0328391 0.273198 3.40566e-16)
(4.79235 2.82825 9.38498e-17)
(8.73811 1.24653 -3.03927e-19)
(-0.47341 -0.393936 -1.89927e-16)
(10.0069 0.109791 -9.95819e-18)
(5.72162 0.328 2.3096e-16)
(-0.814565 -2.42941 1.81366e-16)
(-0.164613 0.36635 4.28157e-18)
(2.13311 -1.25343 -7.47467e-17)
(-0.610851 -0.998433 -3.60708e-17)
(0.885981 1.01808 -9.31118e-17)
(8.08611 0.304438 6.35548e-21)
(0.248526 -0.502424 3.11564e-16)
(0.645907 2.48096 -1.09745e-16)
(8.82231 1.17468 -8.4507e-19)
(-0.629552 0.187996 8.40731e-17)
(8.47604 0.336488 0)
(9.42385 0.148771 2.10629e-17)
(9.71019 0.0977283 1.16786e-17)
(-1.02872 4.38133 1.42373e-16)
(0.380512 -0.608683 -4.35644e-16)
(7.64996 0.300168 -2.17563e-17)
(-0.0500576 -0.856854 0)
(0.826753 1.39057 1.09401e-16)
(2.17827 0.164476 -2.5962e-16)
(1.06496 -0.234882 0)
(-1.02566 -0.922592 0)
(-0.401652 0.0455066 1.60744e-16)
(2.67419 0.171783 2.40389e-16)
(3.07087 0.197513 0)
(-0.205063 3.34661 -1.88436e-16)
(9.44684 0.866434 -6.61112e-18)
(-0.694894 0.00420071 1.65833e-16)
(-0.00543153 -1.56663 1.09662e-16)
(-0.237129 -0.278414 0)
(-0.769935 0.116608 -3.24981e-16)
(0.908935 0.533803 1.53421e-16)
(0.700278 1.62452 1.23072e-16)
(5.94742 -0.263481 0)
(-0.736112 0.094595 0)
(5.27879 0.0985577 0)
(8.91335 0.35724 7.20685e-18)
(9.09342 1.49029 1.01887e-17)
(10.4022 0.678508 -1.25338e-17)
(9.38355 0.854211 6.82211e-17)
(2.34141 -0.99771 1.7331e-16)
(0.819171 2.07911 5.12383e-17)
(8.9645 1.26339 -1.23849e-16)
(3.49602 0.199509 0)
(4.22924 0.164281 4.68603e-17)
(-0.783505 0.0802307 0)
(-0.802163 0.181013 -1.18185e-16)
(9.94273 0.0489665 5.36016e-18)
(10.8855 0.0476992 0)
(9.30168 0.0975901 5.1022e-18)
(7.04302 0.518464 -1.53217e-16)
(2.73067 -0.0861773 -2.91795e-16)
(6.8206 0.996361 1.15813e-16)
(4.43192 4.33993 0)
(2.91868 5.14789 1.66626e-18)
(9.44417 -0.000460164 9.6548e-17)
(2.4571 2.86276 -1.42929e-16)
(0.685697 0.174656 -6.64774e-18)
(2.14546 6.36318 -3.52754e-17)
(5.44079 0.158408 6.48777e-19)
(3.89488 0.187825 7.63257e-19)
(-0.669514 -1.915 -6.02615e-19)
(0.882655 5.40897 0)
(0.157489 0.0566625 1.81742e-16)
(1.93081 -1.38304 1.23233e-16)
(-0.0266749 -0.117754 -1.90125e-16)
(5.02665 0.0900498 0)
(-0.185947 -0.0625755 9.48997e-17)
(0.77996 1.54267 3.17108e-17)
(0.433385 -0.457665 -1.65148e-16)
(2.66462 -1.33595 -1.35704e-17)
(2.0317 -0.71351 -9.26786e-17)
(-0.758125 0.146022 6.0393e-17)
(4.51929 0.135276 -4.84199e-17)
(0.32306 2.20966 0)
(-1.74666 0.234548 1.41284e-16)
(3.32985 2.4903 -4.54609e-16)
(0.09585 0.247851 -1.0115e-16)
(2.22001 -1.09591 -1.05559e-16)
(-1.2596 0.390111 -6.7028e-20)
(6.33683 0.445089 -1.31286e-18)
(-0.74014 0.00654427 1.65305e-16)
(9.51738 0.775324 0)
(1.7438 0.0407869 0)
(3.35263 1.69945 -9.84566e-17)
(9.99425 -0.0079489 2.55218e-18)
(9.82931 0.237866 0)
(0.153423 -0.135173 -9.25186e-17)
(1.52755 -1.46595 0)
(0.214889 3.45853 -1.19468e-16)
(9.7409 0.109065 2.35663e-17)
(-0.162456 -1.01246 2.03875e-16)
(0.677424 0.645386 0)
(8.68637 1.12215 2.68493e-17)
(1.84837 -1.72764 -8.74438e-17)
(0.0741475 -0.0828294 9.18564e-17)
(1.90167 0.682634 -1.73159e-16)
(1.61829 7.46757 9.45144e-17)
(-0.294003 0.74663 -3.57203e-17)
(2.34422 3.81447 3.15274e-16)
(-0.191794 0.844409 0)
(9.61399 0.164178 -7.89991e-17)
(9.71334 0.0754803 -2.54865e-18)
(1.64292 3.06167 -7.27869e-17)
(-0.224539 -0.377041 9.61554e-17)
(2.40167 -1.59376 -1.10231e-16)
(6.11182 0.0453193 3.09458e-17)
(5.62498 0.214736 -4.30034e-17)
(4.59898 -0.288934 -1.92715e-16)
(5.19576 0.168417 0)
(5.55774 0.0533849 -1.40021e-16)
(7.18984 -0.0485037 0)
(6.05824 -0.0795914 3.56075e-17)
(4.78087 0.108139 5.54376e-18)
(0.0676906 -0.264631 -8.51159e-16)
(1.05924 0.17648 -3.68393e-16)
(11.0817 0.446312 4.77074e-17)
(1.21517 -0.81619 -2.80931e-17)
(0.734189 0.920315 2.16075e-17)
(1.07494 -1.20604 5.30525e-16)
(-0.0117081 -0.315691 -2.33991e-19)
(-1.49299 -0.55626 0)
(0.162772 0.21121 -2.13965e-16)
(2.19592 -0.449356 -3.11762e-17)
(-0.0565418 -0.0366708 0)
(-1.26522 0.282125 2.78657e-16)
(8.92383 0.519994 2.79084e-16)
(0.149069 -1.0402 -2.21795e-16)
(8.23649 -0.00834909 3.92674e-17)
(-0.101908 0.228671 -7.20095e-17)
(-0.267927 -1.48999 -1.13996e-16)
(9.58811 0.678035 0)
(8.53388 0.847715 -3.92153e-17)
(10.3191 0.426904 0)
(5.87452 0.11557 0)
(1.13598 4.02144 2.15452e-18)
(8.58471 1.014 1.20976e-19)
(2.07114 -0.857782 3.08151e-17)
(1.3415 0.317816 -3.71863e-16)
(0.955063 0.208244 3.22171e-16)
(9.60594 0.0334205 1.01655e-17)
(-0.03312 -0.536604 1.38034e-16)
(1.2698 0.274426 2.59478e-16)
(1.36084 0.651232 1.40324e-16)
(-0.467529 0.222616 -3.24455e-16)
(3.1755 4.75994 3.47865e-17)
(-0.550878 -0.0808602 2.41597e-16)
(0.457246 0.377167 -6.05251e-17)
(1.70798 3.57344 0)
(9.86234 0.228018 0)
(9.38772 0.00646974 5.60126e-17)
(9.70188 0.0556857 -7.85912e-17)
(-0.722609 -0.0103824 -2.12896e-16)
(1.16528 -0.821247 -3.38476e-17)
(-1.3492 0.974292 2.92536e-17)
(2.45396 0.401595 0)
(-0.231947 0.711421 0)
(9.81751 0.240589 6.00557e-17)
(8.41044 1.69107 0)
(0.0793721 -0.179707 -8.96596e-17)
(-0.580131 -0.322855 -2.50095e-16)
(8.48623 0.388528 1.54142e-17)
(1.69717 7.08741 0)
(-0.74877 0.134154 2.83391e-16)
(0.933627 -0.0530871 0)
(-0.164405 0.338897 1.95014e-16)
(8.52503 2.12994 -9.49689e-17)
(0.0125513 1.41953 0)
(1.35703 -0.682505 -1.00375e-16)
(-1.42314 -1.94321 -5.66749e-17)
(9.70993 0.0612732 -7.09764e-17)
(-0.281082 0.131521 1.98793e-16)
(0.544322 -0.0250492 0)
(-1.08693 0.513345 7.55548e-17)
(-0.824343 0.882269 -7.06117e-17)
(10.4909 0.088049 0)
(-0.277342 0.40561 0)
(-0.635925 0.0381795 2.4095e-16)
(-0.0610764 0.749452 -1.18139e-16)
(0.728498 0.895489 0)
(6.83768 0.0740475 1.75068e-16)
(9.18217 0.133479 0)
(-0.665778 5.04903 -1.35776e-17)
(4.33086 1.61994 -8.66094e-17)
(9.64936 0.132795 5.96013e-17)
(-0.304614 -0.521974 -1.92629e-16)
(4.57744 1.99843 -2.562e-16)
(-0.0436003 0.368062 -1.28014e-16)
(2.38894 -0.734935 0)
(-0.789028 -2.75493 -1.71025e-16)
(2.7448 -0.485795 2.5578e-17)
(-0.522859 -1.33343 0)
(-0.422069 -0.700525 -1.81585e-17)
(-0.905829 -1.84975 1.61399e-16)
(-0.878634 -1.64581 6.23437e-17)
(1.72807 0.066479 0)
(2.00328 0.0025792 6.23975e-19)
(11.1497 0.171942 -4.44118e-17)
(-0.412454 -0.147773 4.00639e-17)
(-0.379349 0.637096 5.50314e-16)
(-1.87357 0.0574629 8.39779e-17)
(-0.798752 0.231264 3.38037e-16)
(9.7057 0.0783011 5.54719e-17)
(0.370079 3.47767 0)
(1.24508 0.234412 2.02048e-18)
(-0.734498 -1.96619 -1.61381e-16)
(0.0762579 -0.51456 -3.16603e-16)
(-0.336225 -0.53746 -1.01582e-16)
(9.36194 0.023545 9.92348e-20)
(1.57032 1.65251 0)
(2.33745 -0.0854901 4.51864e-18)
(-0.493296 -2.03707 -8.50326e-17)
(9.90969 0.217351 2.63456e-17)
(-0.758619 0.148961 2.38093e-16)
(9.69745 0.0363793 -9.61249e-22)
(9.72089 0.125941 0)
(7.69755 0.204255 4.71227e-17)
(1.2703 0.274793 0)
(5.78901 -0.0454253 -1.91069e-16)
(-0.25712 0.563839 -2.09087e-16)
(2.14293 0.0821088 0)
(0.881204 1.48061 -7.6363e-17)
(8.47302 1.33842 -1.88629e-17)
(-0.161034 -0.701598 1.10072e-16)
(0.170896 -0.154308 -1.15917e-17)
(0.122585 -0.743232 0)
(0.179232 -0.485411 1.05244e-17)
(0.0659856 0.113963 2.70241e-17)
(0.0497301 -0.893708 3.87664e-17)
(-0.0055717 -0.932623 -8.02404e-17)
(-0.200966 -0.298191 2.138e-16)
(-0.0309813 -0.0497437 0)
(-1.75858 -0.2144 2.79709e-16)
(9.67386 0.0719415 1.04003e-17)
(-0.03694 -0.897787 4.94262e-20)
(-0.257606 0.561366 0)
(-0.320215 -0.00545242 8.13523e-17)
(0.439601 -2.67553 1.23386e-18)
(-0.0931601 1.01729 -2.1188e-16)
(0.127205 0.856532 -4.4001e-18)
(-0.0936904 -0.128345 -2.24569e-16)
(-0.612687 -0.222805 -9.73195e-17)
(-0.0128983 1.20334 -1.12797e-16)
(0.288748 2.51972 5.49781e-17)
(0.355787 -0.310708 3.48249e-16)
(1.92594 4.29035 0)
(0.452993 -0.598057 -1.68547e-16)
(-0.0566558 -0.836613 -1.15915e-17)
(-0.716811 0.872858 3.38574e-17)
(0.0849016 -0.592273 -1.09708e-16)
(-0.988086 0.670285 -3.73747e-17)
(1.31501 2.58565 1.38502e-16)
(0.662303 1.15927 7.43207e-17)
(-0.734245 -0.22579 1.26436e-16)
(0.339902 0.717009 2.13078e-18)
(0.481297 -0.104912 -2.60031e-17)
(-0.0897126 -0.305168 2.01923e-16)
(-0.0739895 -0.743408 -2.30824e-17)
(-1.82799 0.361131 -6.1618e-17)
(-0.0110307 1.24162 0)