/*--------------------------------*- C++ -*----------------------------------*\
| =========                 |                                                 |
| \\      /  F ield         | OpenFOAM: The Open Source CFD Toolbox           |
|  \\    /   O peration     | Version:  v1912                                 |
|   \\  /    A nd           | Website:  www.openfoam.com                      |
|    \\/     M anipulation  |                                                 |
\*---------------------------------------------------------------------------*/
FoamFile
{
    version     2.0;
    format      ascii;
    class       volVectorField;
    location    "0.19";
    object      U;
}
// * * * * * * * * * * * * * * * * * * * * * * * * * * * * * * * * * * * * * //

dimensions      [0 1 -1 0 0 0 0];


internalField   nonuniform List<vector> 
1431
(
(0.500253 0.0433312 1.58301e-16)
(3.39826 0.80078 3.08738e-17)
(-3.95998 -0.162677 0)
(-0.0400215 -0.140288 2.12482e-16)
(-1.11394 0.14724 0)
(0.960512 3.97205 2.55949e-16)
(4.19722 -0.287054 3.11946e-16)
(1.617 0.213648 4.91574e-17)
(0.580477 3.41484 1.9608e-16)
(3.80577 -0.292637 3.13539e-16)
(2.77312 9.92829 2.01192e-17)
(7.2988 -0.169427 0)
(0.572892 2.95593 -1.73984e-16)
(-1.64633 0.137988 -5.27818e-16)
(2.16803 -0.111226 0)
(3.5851 -0.548078 -2.92203e-16)
(4.54537 -0.0317031 -2.2496e-16)
(-0.956218 -0.142199 0)
(5.18629 -0.074549 -1.75165e-16)
(-1.54905 -0.355645 1.74618e-16)
(4.06854 9.1241 -6.97687e-19)
(-0.855306 0.295253 2.21625e-16)
(0.565511 2.75966 -2.11463e-16)
(12.3341 1.99621 -3.44799e-18)
(0.607283 3.22364 1.95743e-16)
(-0.0655723 2.05339 -9.1504e-21)
(1.5917 9.73418 -2.07601e-17)
(2.03908 -0.640276 -3.68438e-16)
(-0.0416208 2.44764 -6.11568e-17)
(0.225596 4.28555 3.71097e-17)
(0.0908581 5.22906 -9.8682e-17)
(0.118299 3.8658 4.82824e-17)
(-0.150422 5.20723 0)
(-0.436914 0.0969798 -4.69684e-16)
(1.04303 3.43926 -3.66857e-16)
(2.85235 -0.0138995 0)
(0.859859 2.21432 0)
(-0.248111 -0.0875007 -8.4573e-20)
(-1.33688 -0.224478 0)
(0.0947836 4.10107 0)
(0.283934 0.520511 -3.66967e-18)
(0.221476 0.736536 2.29598e-16)
(0.402114 2.90503 -2.17395e-16)
(0.0719257 -0.508706 2.05949e-16)
(1.21391 4.20911 0)
(-0.756407 -0.39569 3.33517e-16)
(0.76417 1.26475 2.43628e-17)
(1.22481 9.27037 -6.47398e-17)
(3.03676 0.0138209 0)
(-0.174058 -0.611514 0)
(1.80557 1.88334 0)
(0.206608 -0.636424 0)
(0.860658 1.4496 4.24586e-16)
(1.99257 0.0109484 1.66679e-17)
(3.88636 0.559372 -1.90866e-18)
(-0.10465 0.113012 5.49981e-16)
(-0.39412 0.0790916 2.23546e-16)
(4.97601 -0.416488 0)
(4.15272 0.101439 0)
(-0.347439 -0.0738824 4.50021e-16)
(1.83709 -0.30601 -1.35062e-16)
(-2.20204 0.105749 3.28098e-16)
(-1.02309 -0.106083 0)
(-0.377451 -0.12785 0)
(-1.75137 -0.158703 8.08246e-19)
(3.29322 0.0213554 -1.69203e-16)
(-1.77152 -0.129273 -2.42936e-16)
(1.19583 -0.249446 -8.52172e-17)
(-0.0526721 -0.125878 -6.2766e-18)
(-1.48595 -0.268176 0)
(-0.241327 -0.724275 6.51484e-17)
(-0.715666 0.225385 -1.57378e-16)
(-0.82034 -0.0993724 1.22364e-16)
(-0.655432 -0.0502802 3.66605e-16)
(-1.87805 -0.0912316 3.81855e-16)
(-0.946582 -0.178281 -5.35807e-16)
(-2.48055 -0.144007 -1.99527e-17)
(-0.10119 -0.0779991 -1.93744e-16)
(2.90238 -0.40426 -2.32038e-16)
(-0.719624 0.0135069 0)
(4.28231 0.0500938 -5.57306e-17)
(0.336676 -0.117486 1.2251e-17)
(6.31797 0.632465 -6.29268e-18)
(1.81901 1.90758 9.89385e-17)
(11.9738 0.724923 1.93058e-18)
(1.24713 -0.275131 -1.01475e-16)
(3.79945 -0.00064284 0)
(1.57345 0.413454 1.94051e-16)
(9.64993 0.135639 6.24913e-18)
(8.0759 0.57985 2.18529e-18)
(-0.0757501 0.332886 -3.06721e-16)
(-0.42073 0.375288 3.15923e-16)
(-0.2265 -0.128016 3.2782e-16)
(2.97371 -0.739279 -1.0104e-16)
(4.26568 0.443435 8.19455e-18)
(-0.114541 4.08698 0)
(3.40269 -0.297117 -6.91016e-17)
(5.41361 1.29783 -1.32916e-17)
(-0.963018 -0.343705 0)
(0.529572 0.101472 -6.77019e-19)
(-0.124435 0.729679 2.01802e-16)
(-2.02608 -0.0494806 -5.56538e-16)
(4.02921 0.142839 0)
(-0.597062 -0.113421 -3.14723e-16)
(-0.196765 -0.00641178 4.11143e-16)
(0.123034 4.26613 1.48577e-17)
(0.187108 3.79394 0)
(1.75961 6.62424 6.5018e-18)
(0.633411 2.0375 3.73331e-16)
(4.31637 0.180275 0)
(-0.603848 -0.117765 -6.82145e-16)
(0.704697 3.16191 -3.39632e-16)
(-2.77617 3.34326 3.74549e-16)
(0.245263 0.314053 -2.00398e-16)
(4.00382 0.691944 -9.15053e-19)
(-1.08797 -0.0410965 7.28468e-17)
(-1.29123 0.255033 0)
(-0.398791 -0.32682 -2.26517e-16)
(0.0458625 -0.0214675 0)
(-0.688797 -0.154192 0)
(-0.703067 -0.398568 -2.2953e-17)
(2.12563 0.0894336 7.64579e-17)
(0.26071 0.182263 2.33935e-16)
(-1.95228 -0.144517 1.50909e-16)
(-1.03403 -0.199948 0)
(1.96181 -0.298181 1.4889e-16)
(-3.23221 -0.236791 0)
(1.30547 0.0456545 5.22242e-16)
(-3.98462 -0.546489 -1.95946e-16)
(4.04638 0.099239 3.21591e-16)
(4.189 -0.183412 3.06996e-16)
(-0.918856 -0.0650074 -1.02691e-16)
(3.89829 0.108889 -7.5998e-17)
(4.31645 0.25555 7.47884e-17)
(-1.46733 -0.019243 0)
(-1.4437 -0.32862 -3.01275e-16)
(0.0529582 -0.0822817 1.87534e-16)
(-1.57579 0.103263 0)
(10.3404 -0.00166736 3.1547e-17)
(0.0531543 -0.0288089 2.15569e-16)
(-1.17452 -0.063545 0)
(-0.0227534 4.98469 0)
(4.36766 0.0317051 6.98166e-17)
(-0.553542 -0.0656836 0)
(0.496022 2.10548 2.42707e-16)
(-0.20188 5.21503 -7.65518e-17)
(-1.3986 -0.135598 -1.79975e-16)
(0.223856 1.01056 -4.36127e-16)
(3.84496 -0.716558 2.16569e-16)
(0.999527 -0.319927 1.67943e-16)
(-1.38075 -0.258611 2.13504e-16)
(-0.482201 -0.0925333 8.37934e-17)
(0.0854288 4.01778 -4.40644e-20)
(0.183534 -0.154711 -2.18464e-16)
(0.153852 3.95211 -4.69257e-17)
(-0.130603 -0.0995034 -4.27494e-16)
(10.8551 0.462616 -2.01762e-18)
(3.05116 1.70495 7.55573e-17)
(7.19658 0.671645 -5.29324e-18)
(3.72266 -0.0978532 2.01327e-17)
(8.24115 1.50621 -3.33405e-18)
(0.79762 3.33151 1.98686e-16)
(4.42418 -0.104491 -1.09887e-16)
(4.10455 -0.102034 8.317e-18)
(0.574706 -0.00811512 -4.69551e-17)
(0.077699 0.0796707 -2.34604e-16)
(-0.214644 0.0239607 9.03105e-16)
(4.40197 0.53859 7.91644e-18)
(-0.354287 -0.330996 2.51779e-16)
(4.70343 1.11722 2.86457e-17)
(8.46401 0.849578 -7.09184e-18)
(0.435511 1.71049 0)
(0.215942 4.43951 -3.93773e-17)
(10.3156 0.247271 3.39163e-18)
(3.47922 1.00142 -1.27144e-17)
(10.8988 0.255571 0)
(3.95042 0.026051 0)
(1.07139 4.22378 -1.37919e-16)
(1.08578 1.54997 -3.61946e-16)
(1.15123 3.14482 -4.29458e-17)
(2.9794 -0.0450202 -3.28497e-16)
(-0.300371 -0.519436 0)
(0.566995 0.995863 1.00608e-17)
(10.8634 2.55748 -2.52772e-18)
(1.25641 4.07168 1.00737e-16)
(0.0944264 2.70057 0)
(0.608903 1.47485 -1.10311e-17)
(3.67194 1.35064 -4.90993e-18)
(0.415309 4.37541 6.26924e-17)
(10.6073 -0.166723 2.08142e-17)
(-0.238992 4.91132 -6.24958e-17)
(0.274336 4.033 -3.9915e-17)
(0.115677 4.01827 -6.40769e-17)
(1.14128 5.29998 0)
(-0.224219 0.149626 0)
(3.64355 2.58564 -7.00477e-17)
(5.10714 1.73648 0)
(1.3452 3.62133 -2.36998e-16)
(0.11274 -0.0806335 4.63727e-16)
(0.852247 -0.12994 0)
(1.654 0.548699 -9.87187e-19)
(4.37553 -0.0905663 -6.30212e-17)
(1.91646 7.39346 -3.87321e-17)
(3.78672 0.0203362 7.01636e-17)
(0.462212 2.6061 -6.83367e-17)
(-0.0861409 4.90571 4.09053e-18)
(0.0673702 3.32596 1.15985e-16)
(0.318797 -0.0819347 3.25356e-16)
(10.1523 0.645691 -1.09363e-18)
(0.45852 -0.0933785 -2.05593e-16)
(-0.257547 0.0738986 3.15051e-16)
(4.18795 -0.150483 0)
(0.132766 3.75575 3.78226e-17)
(0.493852 4.22287 3.75423e-17)
(11.2336 1.04015 0)
(0.510317 0.442969 5.78932e-16)
(0.105769 4.01737 1.97064e-16)
(1.43661 3.86956 -5.59488e-17)
(1.77857 2.07818 -6.00996e-17)
(1.48254 6.87554 2.70724e-16)
(0.0814229 4.08786 3.35412e-16)
(0.183465 0.338925 0)
(2.71418 0.731484 2.45936e-16)
(4.21814 -0.112552 0)
(0.129719 3.88061 -1.85904e-16)
(10.183 1.25011 1.91538e-18)
(3.3554 6.17211 -3.02956e-17)
(5.06395 1.18696 2.97466e-17)
(0.130007 3.75855 2.39266e-16)
(1.02166 7.35733 4.6004e-17)
(3.03753 0.200056 2.7422e-17)
(0.00954406 5.22708 1.80608e-20)
(-0.1428 4.10886 -4.0834e-18)
(0.15431 4.16038 8.95797e-17)
(0.131805 3.84176 -4.66376e-17)
(7.54743 1.05991 8.19142e-18)
(0.108735 3.73272 0)
(0.863277 3.84759 -4.67696e-17)
(-0.17131 4.99699 0)
(1.43345 0.241227 3.48958e-17)
(3.59947 0.0483279 5.80385e-17)
(1.91103 2.73852 1.61836e-17)
(10.1276 0.91269 -7.23665e-19)
(0.532198 4.44803 0)
(0.454607 4.05903 3.00095e-17)
(-1.15416 -0.93406 5.83332e-16)
(0.60131 3.96689 3.15353e-16)
(1.69885 8.20273 0)
(0.0213691 4.05564 -4.1351e-16)
(-0.184224 -0.209595 2.00399e-16)
(0.701311 0.320982 0)
(9.83825 0.338162 -2.84897e-19)
(3.76448 -0.128867 1.93282e-18)
(4.07238 0.0763604 -1.17771e-17)
(-0.16125 4.8852 4.76086e-17)
(1.34105 1.9517 -7.54685e-17)
(3.81421 -0.152785 -1.29729e-20)
(10.3089 1.6646 -4.56897e-18)
(6.34007 1.67799 3.39025e-17)
(0.129564 3.93362 -6.2107e-17)
(0.0256731 1.30338 1.59251e-16)
(10.3176 0.0558911 -1.93219e-17)
(1.21179 1.65735 0)
(3.97628 -0.0235749 6.37116e-17)
(0.0996172 3.60645 3.87477e-17)
(1.86636 5.83212 -6.4419e-17)
(0.634785 3.47601 -1.96941e-16)
(0.731911 4.13585 0)
(1.17015 8.67236 6.15555e-17)
(-0.316426 0.0986485 0)
(0.897286 1.63526 -6.73702e-17)
(0.108699 3.87793 8.28988e-17)
(3.32655 0.643357 -1.41977e-17)
(1.82706 0.117084 6.22785e-17)
(8.83207 1.29122 0)
(0.197245 4.63417 -6.57219e-20)
(9.41424 1.01414 -6.09516e-17)
(1.25508 4.53011 2.6654e-17)
(-0.0346214 2.1581 8.985e-21)
(0.0237206 2.62725 -9.2287e-17)
(0.527889 2.20594 0)
(1.69483 3.07737 2.71628e-16)
(-0.168572 5.1161 1.01528e-16)
(2.20737 1.40099 2.52699e-16)
(3.78958 0.300598 0)
(6.12497 1.02343 0)
(1.18983 1.60662 1.88283e-16)
(5.79773 1.47539 -4.22207e-17)
(11.5458 0.48503 0)
(2.65123 0.845044 -3.32335e-17)
(0.0258995 -0.019405 -2.66879e-16)
(0.714698 3.39343 2.11977e-16)
(4.70782 1.50287 -3.68723e-17)
(0.291495 1.93626 -8.73333e-17)
(0.911967 6.76759 -1.58832e-16)
(0.12028 3.64143 -5.81185e-17)
(2.60032 4.62922 0)
(0.144052 2.81008 0)
(0.465134 0.69623 2.26925e-16)
(0.0657456 2.16506 9.97364e-18)
(0.548643 1.43405 -2.80402e-16)
(-0.0628156 0.0338617 -2.40748e-16)
(3.2521 0.47881 -3.77052e-18)
(0.284742 1.84955 1.02656e-16)
(0.0169131 3.21931 -5.85689e-17)
(3.87365 -0.165834 -4.39731e-17)
(2.62449 1.16345 2.27474e-17)
(0.169738 3.80216 -3.78893e-16)
(0.881817 1.56515 -3.63776e-16)
(4.37938 1.00274 -1.9413e-17)
(4.19233 3.55337 2.42655e-16)
(1.47592 0.0192863 0)
(-1.80009 0.222064 -8.02652e-17)
(-0.304655 -0.131376 0)
(0.57105 3.49959 -3.57445e-16)
(4.69868 2.07697 0)
(1.33929 3.34842 -1.55133e-18)
(3.81109 0.423469 1.52431e-17)
(0.423444 -0.24778 -2.47414e-17)
(6.06739 4.69218 1.1729e-18)
(2.12001 1.60992 2.38018e-17)
(4.13414 2.27636 0)
(0.220318 0.0459118 0)
(0.261166 1.66878 0)
(1.34265 3.56667 4.50233e-16)
(-2.99055 0.442012 -2.03359e-16)
(0.157043 0.0924048 0)
(0.743098 3.2315 4.38689e-16)
(2.5996 0.204922 2.87186e-17)
(4.13894 -0.0307285 5.55489e-17)
(0.783888 2.94445 2.26691e-16)
(0.0570634 -0.379908 2.00791e-16)
(0.704695 3.34808 -4.28781e-16)
(-0.458321 0.120763 -3.69814e-16)
(3.6523 -0.00730774 -1.39936e-17)
(0.286257 2.0667 -4.44024e-17)
(0.893513 2.83342 0)
(7.04481 1.11813 5.8958e-18)
(1.34145 3.69547 -2.02209e-16)
(-0.258842 -0.631459 0)
(-0.145968 -0.111517 0)
(0.303064 2.29535 3.36063e-17)
(3.63247 4.91925 9.31963e-17)
(0.721794 0.761439 0)
(0.499493 3.50945 2.04208e-16)
(-0.375764 4.32579 0)
(2.65251 0.619084 2.24433e-17)
(9.59249 0.691903 5.52381e-17)
(3.59627 3.92243 -1.7556e-16)
(0.286138 1.9751 0)
(0.76519 4.54786 1.90773e-16)
(1.10187 -0.860922 -3.46823e-16)
(0.192213 1.53382 2.52997e-16)
(2.61688 2.95813 -8.01603e-19)
(1.31555 -0.99748 2.68115e-16)
(1.82354 1.69278 -1.76451e-16)
(9.23501 2.93515 1.61936e-18)
(-0.613611 0.534019 -7.19215e-17)
(10.2096 0.13797 -1.30361e-19)
(0.809604 1.10755 -3.25342e-18)
(-0.235352 0.371538 -4.47446e-16)
(0.0382363 2.5882 -3.86455e-17)
(0.284527 2.59335 -7.5814e-17)
(3.27217 0.325903 3.50378e-18)
(0.236387 -0.185423 -4.66548e-17)
(7.66469 5.80336 1.40748e-17)
(0.646616 3.36725 2.0144e-16)
(11.6553 3.51998 -3.52053e-19)
(-0.0881346 3.78013 4.66494e-17)
(0.451327 5.00345 1.32356e-17)
(1.36586 8.44145 -7.66002e-17)
(-0.700392 0.0976852 -2.10976e-16)
(9.30631 0.255396 8.99798e-17)
(1.66912 2.38111 0)
(0.928851 1.11853 1.16976e-16)
(8.05346 1.18873 -1.06822e-18)
(2.75065 2.40413 -2.33482e-17)
(0.351689 -0.032437 -8.92742e-17)
(-0.519494 5.86076 0)
(7.97078 1.70158 -2.17356e-18)
(0.97034 3.4984 4.06711e-16)
(1.3097 3.8716 1.03591e-16)
(0.395198 0.297361 0)
(1.719 -0.780685 1.40713e-16)
(9.77816 4.67235 -1.1158e-17)
(0.509477 3.66229 5.2324e-17)
(1.25019 2.28279 -7.06391e-16)
(0.398342 3.58694 3.19131e-18)
(1.16896 3.92015 0)
(1.82877 2.63776 -2.95759e-17)
(3.50277 0.124836 1.13239e-16)
(1.0352 2.31762 -2.21261e-16)
(0.94231 2.37033 2.21728e-16)
(3.95007 -0.160088 1.42114e-16)
(6.98938 1.71406 -4.27365e-18)
(0.255058 1.53503 9.45386e-20)
(0.712679 3.38037 9.33409e-20)
(0.769838 3.43036 -1.40258e-16)
(0.656515 3.28853 -4.18961e-16)
(0.757269 3.82471 -5.33693e-17)
(2.83028 3.48143 -9.50497e-17)
(1.02996 1.5019 3.3324e-17)
(5.51463 2.10961 1.19104e-16)
(1.25721 2.22102 -3.27328e-17)
(0.895209 0.0183624 -9.14841e-17)
(0.609545 3.33047 -1.44346e-20)
(0.745884 4.01608 8.98606e-17)
(-0.190376 -0.0592011 1.01964e-16)
(3.82067 0.203353 2.98777e-17)
(0.576648 3.28653 1.71445e-17)
(3.28419 3.17797 0)
(1.33399 3.40651 0)
(0.551242 3.23311 8.39041e-18)
(0.818959 3.72855 1.56298e-16)
(0.42368 3.67886 -1.90638e-17)
(0.790121 -0.289708 2.18518e-16)
(1.98083 3.16739 -4.39813e-22)
(-0.147023 -0.637339 0)
(1.20384 3.78949 -1.90438e-16)
(0.542768 3.16352 0)
(-0.399995 4.14681 -8.3377e-17)
(0.693169 3.31321 -4.36567e-16)
(2.28764 1.84179 -1.03497e-16)
(2.32447 3.16779 4.10074e-17)
(0.552587 3.06394 1.85832e-17)
(0.110086 -0.095639 4.67705e-16)
(-1.24158 -0.188601 5.87357e-19)
(3.08697 0.0113804 8.97586e-17)
(-3.65082 3.6864 -1.84043e-16)
(11.9529 1.68284 2.06948e-18)
(1.56242 4.43783 1.52215e-16)
(1.36486 4.26457 2.28496e-16)
(1.63431 3.81284 -2.8141e-19)
(0.763799 4.05658 0)
(1.70146 3.65844 -1.46463e-16)
(1.66467 3.79059 -1.17638e-16)
(1.65348 4.14295 -1.15198e-16)
(1.56798 3.58973 -2.38555e-16)
(1.55349 3.85503 3.37859e-16)
(1.43536 3.56643 9.47087e-17)
(0.488729 -0.781207 0)
(10.3569 0.36549 1.1663e-18)
(0.553311 -1.03871 -1.04443e-16)
(0.593261 -0.875586 2.91948e-16)
(0.879181 -0.464861 -4.24964e-16)
(0.657352 -0.388088 -2.37085e-19)
(0.453166 0.154774 0)
(0.398893 0.00965416 -1.06443e-16)
(2.77803 1.17377 4.61144e-17)
(0.613933 0.572987 6.64631e-17)
(0.821629 0.643717 6.1575e-17)
(-0.430839 -0.845125 -2.5491e-16)
(1.27996 0.25221 -1.53152e-16)
(-0.669174 -0.723065 0)
(0.525555 0.564655 -8.70934e-17)
(1.99527 -0.0557833 2.30561e-16)
(0.673511 0.366972 9.4174e-17)
(8.65245 0.280269 -2.16389e-18)
(-0.38942 -0.778759 0)
(-2.23261 -1.08232 2.60944e-16)
(0.483519 0.553741 -1.26484e-16)
(0.338456 -0.893411 2.31569e-16)
(8.73367 0.076252 -2.8959e-17)
(0.71259 -0.124894 -2.5695e-16)
(-2.08604 -0.845189 -1.46813e-16)
(0.320797 -1.08712 2.58748e-16)
(-0.571808 -0.470053 3.7734e-16)
(8.7192 -0.0817661 1.60641e-19)
(-0.212521 -0.903349 -2.47065e-16)
(8.83397 -0.160844 -2.44694e-17)
(1.08861 -0.505013 -6.19051e-16)
(0.837938 -0.662882 0)
(-0.579957 -0.337601 5.38473e-19)
(1.00576 0.0997645 0)
(10.3813 0.0964455 3.43982e-17)
(10.4033 0.251606 1.07522e-16)
(-0.603693 -0.440523 1.32729e-16)
(0.000640091 -0.234456 -1.3919e-16)
(0.593927 -0.0217232 6.87473e-16)
(2.29154 -0.707469 0)
(0.324451 0.0305106 0)
(0.523579 0.237445 0)
(10.2059 0.16095 2.31439e-17)
(3.10545 -0.155466 1.88766e-16)
(0.552922 0.204338 1.84371e-17)
(1.23567 -0.0560464 2.28313e-16)
(-0.715128 -0.374899 0)
(0.62169 -0.0224917 0)
(-2.8786 -0.927519 1.68332e-17)
(-0.128577 0.112314 2.14855e-16)
(9.77889 0.253403 -6.7513e-17)
(2.67252 -0.611969 1.80734e-16)
(-3.21617 0.0202751 1.19678e-16)
(-0.242027 0.212931 3.88846e-16)
(1.88883 -0.124416 -2.68679e-16)
(-0.782005 -0.536929 -1.9201e-16)
(-3.66701 1.91295 9.42727e-17)
(9.58109 0.50305 1.55148e-17)
(1.95112 -0.429756 -2.44821e-16)
(0.0450973 0.851217 -5.45482e-16)
(0.336942 4.33162 1.30053e-16)
(-0.347888 0.911096 -4.34232e-16)
(-0.637519 -0.295244 9.87506e-16)
(0.631094 3.75156 -1.44092e-16)
(9.65027 0.759181 -3.27641e-17)
(10.1729 0.482051 -8.95748e-17)
(-0.198937 -0.832572 -3.29741e-16)
(2.59189 -0.0345488 1.88215e-16)
(1.25383 -0.28379 1.95888e-16)
(0.0677072 0.628481 0)
(-0.390772 0.340621 2.75706e-16)
(0.969751 -0.499929 2.79671e-16)
(-0.97746 -0.341317 0)
(-3.07031 2.01064 0)
(0.877704 4.01831 1.53495e-16)
(3.69534 0.0578245 -1.33536e-16)
(0.275449 4.50042 -6.63887e-17)
(-0.216685 0.403531 1.71603e-16)
(-0.710569 -1.09379 1.69976e-16)
(10.2462 0.728954 -2.84906e-17)
(1.26155 2.52333 0)
(1.71646 0.0819545 -3.79232e-16)
(0.482046 1.20731 -2.10783e-16)
(4.03919 -0.132675 -5.31258e-17)
(-0.199861 0.920843 -1.16303e-16)
(3.61863 -0.218643 -8.09086e-17)
(9.86688 1.18485 5.3871e-17)
(0.102354 4.12213 -4.63258e-19)
(1.17593 -0.7002 0)
(-0.0759354 -0.104971 2.71102e-17)
(1.9951 0.817576 1.7572e-16)
(1.07388 0.588752 -3.14012e-16)
(0.05563 1.82272 0)
(-0.331859 -0.546885 0)
(1.07561 3.44463 0)
(-2.83474 5.33266 2.26141e-16)
(-0.143977 -0.0515895 3.16479e-18)
(0.219416 4.5248 2.76482e-17)
(-0.119147 0.856276 7.60975e-17)
(1.49684 -0.253346 2.20569e-16)
(0.578535 3.09168 1.75414e-16)
(0.312221 2.86652 -2.55518e-16)
(0.727502 1.06788 -8.25164e-17)
(1.89042 0.513699 4.56797e-16)
(0.400322 1.89562 4.45023e-16)
(-0.202648 -0.213731 7.02607e-17)
(1.2281 1.8074 -8.694e-18)
(0.756168 6.25653 -4.59908e-17)
(0.64577 3.27139 0)
(1.27816 3.35444 0)
(1.5049 2.63076 2.98256e-16)
(0.415542 3.2841 2.81676e-16)
(0.96959 1.85574 0)
(0.720544 2.95169 -3.99167e-16)
(-0.861263 -0.490324 -3.68825e-16)
(-0.817438 0.190023 -6.2121e-16)
(3.53875 -0.209628 1.3646e-17)
(0.382502 4.02208 -1.31923e-16)
(0.353741 5.40699 3.50367e-18)
(2.28937 6.31762 0)
(1.41878 3.33965 4.5691e-17)
(10.2049 1.56689 -5.16152e-18)
(4.73531 3.17681 6.83386e-17)
(0.274065 1.66401 0)
(4.97319 7.10783 0)
(0.327886 1.45204 9.93617e-17)
(1.17518 1.33542 0)
(4.16232 -0.112116 -8.24212e-18)
(0.839289 4.24052 -9.40923e-17)
(1.05889 2.65689 2.34555e-16)
(0.453514 2.7041 -4.23624e-17)
(4.5275 5.85798 -3.53067e-17)
(1.39389 3.76784 -6.54153e-17)
(2.67907 0.526191 -1.02693e-16)
(0.117838 0.595527 1.02824e-16)
(1.18142 4.30554 4.84868e-17)
(3.8957 -0.181412 9.77554e-17)
(0.0210836 2.8524 0)
(1.39922 4.12403 1.19875e-17)
(0.964739 4.77772 -2.54747e-18)
(0.454168 2.8032 0)
(2.36812 6.35964 2.6927e-18)
(1.58761 3.78111 1.67489e-16)
(1.87151 3.52147 -1.40241e-16)
(2.30566 3.57001 1.89291e-16)
(0.137749 3.94204 4.19183e-20)
(0.285083 4.79989 -1.34583e-16)
(1.97699 1.02441 -6.81376e-16)
(0.304639 0.983604 0)
(0.604295 0.719401 1.31271e-16)
(1.09943 4.29715 -2.91278e-17)
(0.41631 0.351716 5.11e-17)
(1.55442 1.43504 -4.98534e-19)
(1.9197 2.47061 -1.31934e-16)
(-0.0895225 4.02158 -5.56306e-19)
(0.859687 3.43643 0)
(-0.802327 -0.887098 -1.79264e-16)
(1.30263 2.51599 5.67168e-16)
(4.16916 1.48082 0)
(10.2169 0.439116 2.06026e-18)
(1.08237 7.78989 2.85317e-17)
(0.0523817 1.54605 9.10136e-18)
(0.622294 3.35521 5.45414e-17)
(0.525392 0.162083 0)
(1.9642 4.99405 1.21769e-16)
(1.45298 3.84201 -2.54206e-16)
(2.53742 11.7383 4.56981e-18)
(2.8276 4.16159 6.67577e-17)
(1.19876 -0.0400401 -4.99604e-17)
(0.331827 -0.655333 -2.80429e-16)
(3.73908 -0.209019 5.17388e-17)
(0.3375 1.35681 -1.32168e-16)
(0.827439 2.29732 3.63142e-16)
(1.26041 3.94509 -1.72473e-17)
(0.236703 3.55925 -7.86268e-17)
(0.78951 3.03148 2.21859e-16)
(11.3782 0.0934927 -9.0001e-18)
(3.68687 -0.0593611 -3.28861e-17)
(0.272781 5.30212 -9.51954e-17)
(1.23241 3.07347 -2.91149e-17)
(4.16241 0.840278 -1.35696e-17)
(1.62098 1.02583 -3.312e-16)
(-0.0948862 0.300012 -1.04429e-16)
(0.881742 2.76028 1.95461e-16)
(0.27129 1.62936 1.35405e-16)
(1.01503 5.19182 -7.92644e-17)
(0.927122 3.44331 -2.20461e-16)
(0.323526 0.503439 0)
(2.7227 5.14534 -6.44144e-17)
(0.0806845 -0.0805148 0)
(0.275711 1.88311 1.4219e-16)
(0.476001 0.599556 0)
(-1.84213 -0.0870313 3.88965e-16)
(1.24161 3.68401 -2.01996e-16)
(0.456367 2.59476 5.67744e-17)
(1.71111 4.08231 1.0252e-16)
(6.07574 0.428281 -5.88669e-17)
(3.38736 0.222398 1.11359e-16)
(0.495613 2.63823 -2.14487e-16)
(1.07951 0.409727 1.05345e-16)
(0.636862 3.1069 -2.09934e-16)
(5.16423 2.73203 -2.26424e-16)
(3.18686 0.00904538 4.86751e-17)
(0.669426 3.247 0)
(0.255615 0.939063 -4.40807e-17)
(0.207006 1.49592 1.0162e-16)
(1.45537 4.70036 -2.38552e-17)
(1.32303 3.62817 1.50064e-16)
(1.45821 0.161177 1.38064e-16)
(2.17242 2.39037 2.24469e-17)
(0.840312 4.57159 1.16958e-16)
(1.47942 2.42134 -6.98718e-18)
(0.103571 3.04207 1.47008e-16)
(2.18563 4.19894 -1.19536e-16)
(-0.215908 -0.593512 6.97256e-17)
(1.29806 3.73035 -8.57945e-17)
(0.493816 3.26916 -2.16374e-16)
(1.50284 5.75216 -5.2358e-17)
(-1.51491 6.33914 0)
(9.16196 0.463588 -1.52436e-16)
(7.62742 1.60889 1.13867e-17)
(0.826515 3.44715 1.54844e-16)
(0.199939 2.32064 5.77601e-16)
(0.283069 1.95563 4.30545e-17)
(0.422939 3.70502 0)
(3.12426 0.373719 -1.40978e-16)
(-1.24908 0.515395 6.55506e-17)
(-2.07465 5.06845 -1.90365e-16)
(0.735743 1.02971 7.1403e-19)
(1.13413 -0.587876 -1.53645e-17)
(0.596146 2.94178 6.74613e-17)
(4.58546 0.63299 -7.69933e-18)
(9.25128 0.449262 0)
(1.27706 3.52335 0)
(0.705102 4.90537 -5.51431e-17)
(-0.290646 -0.587896 2.27183e-16)
(9.8513 0.518356 0)
(0.169495 0.24971 -3.89024e-19)
(1.46833 4.24866 -3.16595e-16)
(2.39984 0.308548 0)
(2.4013 0.463907 0)
(2.36944 1.52327 -1.28074e-16)
(2.17085 2.83139 2.42804e-17)
(8.66464 0.386465 0)
(0.639533 -0.643627 1.89088e-16)
(-2.8647 -0.53012 -1.10389e-16)
(1.04233 4.03839 0)
(0.586849 2.77732 0)
(-0.349712 -0.578067 1.95023e-16)
(3.60782 0.168125 -5.2154e-18)
(-0.0542826 0.664777 1.48241e-16)
(-0.799525 2.75097 -2.8115e-16)
(0.617077 1.46488 7.71956e-17)
(3.36116 0.145433 0)
(2.95962 0.0814284 0)
(1.7389 3.39446 -1.84692e-16)
(5.42757 0.259329 -2.01348e-18)
(1.75786 3.07047 -2.09458e-16)
(2.80629 0.0381309 1.30398e-17)
(4.44961 4.76188 -3.81376e-18)
(4.58303 0.22625 0)
(1.59636 3.39639 0)
(0.475986 2.89191 -8.60648e-18)
(3.14364 0.11776 0)
(0.207525 1.43354 0)
(10.7046 0.598393 -1.14078e-18)
(0.19351 3.24014 -2.84172e-16)
(4.98141 0.243242 0)
(1.34972 1.82032 -4.59362e-18)
(0.588073 3.63221 3.32669e-17)
(0.219317 3.42928 1.02255e-16)
(1.27979 1.22664 -2.06648e-16)
(0.599507 4.36405 -4.00935e-18)
(-0.140466 4.2081 3.89127e-17)
(-2.86824 1.32093 3.19676e-18)
(0.379792 0.484978 -5.22755e-16)
(0.822872 3.945 2.40037e-19)
(0.264811 1.55004 2.58276e-16)
(2.1504 0.0224 -2.45179e-16)
(0.555099 3.06699 2.0857e-16)
(0.860998 0.796073 0)
(-0.00665024 4.94829 2.04375e-18)
(9.97559 0.287405 -8.41174e-18)
(0.370798 2.43578 0)
(-0.0286983 0.171177 6.33537e-16)
(4.62699 0.416416 1.43187e-17)
(-0.435815 1.65106 0)
(0.573858 3.36759 3.62019e-16)
(2.69865 7.36425 0)
(1.6533 7.81045 2.47367e-17)
(-0.0497792 -0.391366 0)
(5.4216 0.885837 1.81984e-17)
(-0.0478029 6.35349 -1.97661e-16)
(2.97994 0.0864878 -8.71431e-17)
(1.18551 0.404567 -2.12077e-17)
(-0.816367 2.04834 2.19734e-16)
(0.575864 1.90428 -6.96926e-17)
(5.87046 0.278634 7.29318e-18)
(8.21636 0.321316 0)
(3.48193 -0.186323 -1.58541e-17)
(0.0651098 3.91908 0)
(0.372804 3.45282 0)
(2.75957 0.18906 -1.116e-16)
(1.70875 3.89946 0)
(1.44904 4.733 0)
(0.869386 4.00638 -3.64785e-17)
(2.07824 0.230124 0)
(-0.587442 -0.294757 1.88084e-16)
(0.315427 3.72752 6.80616e-17)
(-0.763693 -0.174001 2.24162e-16)
(0.0573243 0.794887 1.79209e-16)
(0.576532 0.155716 2.19274e-17)
(4.17116 0.349274 -4.9741e-17)
(0.141318 -0.424825 -3.99564e-16)
(13.2311 2.53557 0)
(0.422256 3.90916 0)
(0.853416 2.53422 -2.26005e-16)
(0.230008 0.172681 -5.37259e-20)
(0.57667 3.91736 1.42321e-17)
(0.914842 0.519312 2.14421e-17)
(10.5338 2.15748 3.11709e-18)
(2.98 1.2988 4.48762e-17)
(-0.694584 1.69707 -8.18002e-17)
(-0.527116 0.455227 3.90099e-16)
(-0.750597 -0.621974 -2.92248e-16)
(0.210143 3.82264 0)
(2.38955 -0.643007 3.58456e-16)
(3.10611 -0.385345 -1.74179e-16)
(0.594975 3.39632 -3.46815e-17)
(0.876706 0.0308496 -1.90681e-17)
(0.478774 3.48891 -3.83739e-16)
(-0.0523189 4.16985 -6.17245e-18)
(0.589572 4.16199 1.8555e-16)
(0.54987 2.3467 1.09482e-16)
(0.649107 2.74579 0)
(1.90899 2.29068 8.90626e-17)
(2.75113 -0.035429 4.96269e-17)
(0.185474 1.22547 0)
(0.70783 3.44487 -1.82715e-16)
(-0.0517641 -0.0581702 -7.47325e-16)
(1.72621 3.07882 0)
(-0.0258262 0.147729 -1.86556e-16)
(0.354667 2.36821 0)
(-0.925158 -0.617092 -8.40017e-19)
(3.89549 0.191099 -2.42485e-18)
(9.63019 2.0748 1.82197e-18)
(1.61897 3.93131 0)
(1.51658 2.20016 2.00723e-16)
(0.187832 4.3274 -1.19372e-16)
(1.78839 2.59896 0)
(1.15349 -0.244115 -1.144e-16)
(-1.13388 0.673888 -1.35879e-16)
(0.0779445 3.61965 -1.21566e-16)
(0.768626 3.4423 1.40684e-16)
(0.176309 3.3223 2.78344e-16)
(2.71959 -0.00482566 -2.72579e-17)
(2.70139 -0.255207 0)
(-0.164078 3.94415 0)
(2.76608 -0.278252 2.71267e-17)
(0.392846 2.3832 1.95347e-16)
(0.0836135 4.04655 -4.34364e-17)
(0.719636 0.273116 1.2838e-16)
(-0.341707 -0.399862 -2.52831e-16)
(1.31975 4.82964 0)
(1.50425 4.36365 9.58235e-17)
(9.59508 7.02696 -1.30417e-18)
(0.299369 3.28921 3.68224e-17)
(0.544569 3.73485 -1.64948e-17)
(0.276975 1.39065 -1.03652e-16)
(1.45593 4.02985 2.03598e-16)
(4.83314 1.53312 2.5063e-18)
(3.86735 0.0482639 -1.1058e-16)
(0.626841 0.555721 0)
(11.019 0.802501 2.22343e-18)
(1.29389 2.71068 7.98362e-17)
(8.46483 0.511105 1.10681e-18)
(1.13232 4.63642 -1.05159e-16)
(-0.255367 -0.463604 -1.82671e-16)
(1.7487 3.13549 -3.31326e-16)
(0.612361 3.19493 3.20863e-19)
(0.241683 -0.0483519 4.93939e-16)
(1.34478 3.3737 -1.29272e-16)
(0.387139 2.00294 -4.489e-16)
(0.974936 3.47213 -7.02174e-20)
(4.23256 0.209863 9.85956e-18)
(0.0571237 3.76305 -5.99619e-17)
(1.1437 2.45324 4.02347e-17)
(0.0819133 4.91074 -2.5188e-18)
(-0.919835 -0.168349 0)
(0.964023 -0.546184 0)
(1.64212 3.45926 -9.71559e-17)
(6.37046 0.295615 1.65398e-18)
(7.82265 0.206067 -1.28297e-17)
(0.148362 4.19561 1.7801e-16)
(1.83521 2.39994 -3.29146e-17)
(2.57374 -0.036147 6.66455e-17)
(3.59096 0.546658 9.49116e-18)
(1.47188 3.29862 5.93026e-17)
(0.521114 2.97634 -1.32144e-16)
(2.46786 1.15226 4.35338e-16)
(0.396801 2.4737 -1.28023e-16)
(-0.276097 -0.0686934 0)
(-0.0842212 -0.0686673 -1.38129e-16)
(0.228134 2.07728 -1.26633e-16)
(0.699139 2.48543 0)
(8.02106 0.964938 -9.7776e-18)
(-0.0979826 0.101673 1.15497e-16)
(5.69055 0.221944 0)
(0.0115652 1.0131 0)
(6.31852 2.5799 -2.82174e-17)
(-0.125925 3.93142 2.05044e-17)
(0.226899 4.89171 -7.02239e-18)
(0.0984416 1.40638 0)
(-0.100752 0.141654 9.7217e-17)
(-2.15121 -0.195163 6.70987e-16)
(0.907779 -0.454195 -6.04245e-16)
(4.08251 0.174332 -3.57439e-17)
(1.88513 2.05905 7.60325e-17)
(-3.8958 -0.79105 1.71156e-16)
(0.137173 -0.238186 0)
(0.467149 0.751766 -8.55802e-17)
(2.00438 2.95871 -2.01616e-18)
(1.45793 3.34906 8.17694e-17)
(1.66992 2.30234 -2.9365e-17)
(0.91612 3.54036 0)
(0.579029 3.52014 1.07088e-16)
(1.0167 3.72766 9.77198e-17)
(3.55179 -0.664509 0)
(9.61822 0.463691 1.33102e-16)
(0.604393 3.53949 0)
(1.12785 3.53087 0)
(3.28666 4.24059 -2.6287e-18)
(0.785203 3.39726 2.36188e-16)
(0.300481 3.76172 1.52198e-16)
(3.26548 0.337616 -2.0781e-16)
(-0.445566 -0.403843 2.48629e-16)
(3.76285 0.0654935 1.69697e-16)
(0.203474 1.96554 0)
(0.558659 3.59169 4.08022e-20)
(0.400794 2.41708 -2.357e-16)
(8.26403 -0.213272 -6.11262e-17)
(1.44057 -0.256604 5.33859e-17)
(0.463406 2.81364 3.83448e-16)
(0.420445 0.545492 -1.22317e-16)
(2.248 1.681 1.39551e-17)
(6.82568 -0.29441 3.84917e-17)
(3.85854 -0.040768 -6.08445e-17)
(0.175209 7.9574 8.6803e-17)
(0.102223 2.86933 1.16744e-20)
(0.10194 2.72225 1.19729e-16)
(0.0792692 2.41919 1.13253e-18)
(0.0888215 2.56178 0)
(0.129634 8.84544 -7.57273e-17)
(0.097219 2.9909 -2.21465e-16)
(0.030795 4.13867 -8.869e-19)
(0.0522505 4.00898 -2.4804e-17)
(0.0325834 4.0407 0)
(0.0398281 4.27125 5.00979e-17)
(0.198485 7.2416 0)
(0.199515 9.70695 0)
(0.0247083 4.43788 -6.6148e-17)
(0.339446 5.85964 -4.69951e-18)
(0.271259 6.56202 -4.3129e-18)
(-0.00250667 4.51692 2.11208e-17)
(0.0760787 3.05004 1.14525e-16)
(0.0498586 3.10644 0)
(-0.0472722 4.45459 -2.91548e-17)
(0.0320146 3.16792 0)
(0.0221127 3.23973 0)
(-0.0957597 4.31239 2.19598e-17)
(0.0192887 3.31892 0)
(0.993971 3.85733 1.09895e-16)
(5.60155 4.07307 -5.60003e-17)
(0.0974223 -0.87636 2.58699e-16)
(-0.8991 4.75584 0)
(1.34686 3.77085 -1.24323e-16)
(-1.39 0.085038 1.0082e-16)
(-0.0365577 0.309401 5.84943e-16)
(8.53181 1.84607 -1.53501e-17)
(-0.0259894 3.67423 -2.72679e-17)
(0.72568 5.26794 0)
(-0.810389 0.416258 5.38655e-16)
(0.601457 -0.333441 3.21203e-16)
(2.84287 0.472521 0)
(5.71817 -0.151987 3.09527e-17)
(0.604142 -0.318508 -2.51579e-16)
(-0.674396 -0.516248 -1.82441e-16)
(6.247 3.26242 9.77289e-17)
(1.84093 3.37136 -5.55434e-17)
(1.15606 3.80352 1.02269e-16)
(1.4211 1.04303 -5.14786e-17)
(3.79158 0.0113597 -7.26087e-17)
(8.23928 0.801457 -2.81232e-19)
(-0.802159 0.331256 -3.26535e-16)
(0.0179785 3.40897 0)
(1.19653 3.52267 4.03566e-16)
(1.84256 2.79693 -1.54477e-19)
(0.430619 0.055083 7.24381e-17)
(0.100295 -0.257542 0)
(10.5492 0.0608612 2.74797e-17)
(0.0614702 0.956557 -1.68676e-16)
(2.14552 0.316259 3.85647e-18)
(0.849022 3.60524 1.40311e-16)
(0.892994 2.20336 0)
(0.270569 1.6825 1.11416e-17)
(0.285192 1.96671 -8.73297e-17)
(8.98912 2.77943 2.26738e-17)
(0.0240709 -0.590723 3.02173e-16)
(-0.669848 -0.472035 -2.72427e-16)
(-0.882635 -0.297991 2.0677e-16)
(1.52982 -0.299368 -5.99198e-17)
(0.356668 2.31107 4.64744e-17)
(-0.056423 2.61328 -2.74061e-20)
(0.134802 4.04799 -2.19188e-17)
(0.00785078 4.5901 0)
(1.32001 1.86035 4.47372e-19)
(-0.102705 0.335117 7.13905e-17)
(2.10898 0.523308 1.16383e-16)
(-0.253846 -0.752216 0)
(0.0818551 0.421284 -4.35825e-16)
(-0.237135 0.42204 0)
(10.9006 0.618171 2.00347e-18)
(0.682659 3.2009 0)
(1.01965 1.91189 -8.52346e-17)
(0.212093 1.20291 1.77511e-16)
(-0.64153 -0.199482 2.92543e-16)
(2.15914 0.0820154 0)
(3.34108 -0.0387167 -2.61869e-17)
(0.0275128 3.49451 4.46755e-19)
(0.421191 0.0208492 0)
(2.87583 -0.0408991 0)
(0.742002 1.80819 -2.9964e-16)
(-0.483406 3.96317 -1.15512e-17)
(7.31663 0.016942 0)
(0.270942 0.0656116 -1.38142e-16)
(3.43881 -0.04762 -1.8388e-16)
(-0.837311 -0.24376 0)
(1.01798 5.06791 2.57511e-16)
(0.0456669 0.18594 -1.52645e-16)
(7.67775 4.78504 1.76099e-17)
(0.587823 3.42577 3.3503e-17)
(0.450389 3.08993 2.26706e-16)