/*--------------------------------*- C++ -*----------------------------------*\
| =========                 |                                                 |
| \\      /  F ield         | OpenFOAM: The Open Source CFD Toolbox           |
|  \\    /   O peration     | Version:  v1912                                 |
|   \\  /    A nd           | Website:  www.openfoam.com                      |
|    \\/     M anipulation  |                                                 |
\*---------------------------------------------------------------------------*/
FoamFile
{
    version     2.0;
    format      ascii;
    class       volScalarField;
    location    "0.85";
    object      p;
}
// * * * * * * * * * * * * * * * * * * * * * * * * * * * * * * * * * * * * * //

dimensions      [0 2 -2 0 0 0 0];


internalField   nonuniform List<scalar> 
5794
(
91.042
92.233
89.2765
92.1605
92.4019
90.0808
88.2031
89.983
87.9382
93.0655
123.688
87.5893
85.7837
89.0129
92.617
91.8715
39.1725
90.3329
92.6387
92.4094
90.7485
90.6865
86.4102
91.304
88.8316
44.9571
45.1129
90.9855
90.8833
92.5353
90.4386
84.0108
103.985
91.2935
88.1228
86.3912
96.77
88.1489
86.2825
90.4183
90.2589
91.5917
114.996
88.952
92.6376
105.288
85.5822
89.2652
92.8729
89.1749
91.5631
82.5638
88.9822
92.788
92.6047
107.543
87.3512
88.4372
115.158
39.9692
102.467
92.4677
89.8396
83.8634
103.54
92.2531
88.9898
89.4749
90.483
92.4868
81.6772
89.3687
19.7163
89.5621
90.0437
90.9855
90.5187
51.0679
89.1951
92.0978
90.6769
92.1986
90.1886
87.1998
89.2547
90.4842
83.5471
109.367
91.2266
88.709
112.522
86.5581
89.3524
91.8718
89.8931
81.4165
108.251
90.1218
86.8095
103.383
79.0401
84.6227
115.169
90.8252
92.7811
89.6442
92.4492
124.952
80.8463
89.6109
91.139
92.5323
72.2346
92.2668
89.4596
90.3324
92.5966
89.8353
101.605
90.3595
89.8004
92.9219
89.256
90.9898
92.5825
121.743
86.5133
90.5147
84.4957
123.496
89.8978
90.1454
85.1151
55.2128
90.1065
92.6019
115.083
92.4963
91.6886
91.279
90.1392
92.5385
92.5829
92.4197
91.6447
52.7673
89.7647
113.013
93.02
92.6922
119.793
92.8333
90.0545
88.3105
48.1724
84.34
88.4676
90.3577
104.843
89.3743
92.5778
88.9251
91.4402
86.5141
80.8424
82.5651
87.4871
90.1151
91.2392
92.555
92.5719
82.1325
86.703
88.6349
91.3548
86.3404
92.6023
88.666
91.3968
84.5381
89.4785
85.9896
88.8233
105.887
90.124
47.0354
84.3669
104.846
92.9431
84.7324
123.433
84.3353
103.999
90.7523
90.2426
90.222
89.6824
91.3534
92.6691
113.419
86.9592
81.7211
90.1719
90.2187
85.0559
104.912
89.9179
125.246
85.6512
87.5343
90.9409
95.8271
86.4542
88.8304
91.1191
88.3041
86.4097
85.5507
124.077
96.541
95.92
84.8122
111.08
89.374
109.891
39.691
89.3454
93.1985
93.2342
92.5906
86.8909
88.8901
91.2423
81.4905
87.113
52.2393
69.3098
117.725
87.1744
90.6891
92.1574
125.368
90.8091
89.0277
87.7533
91.0689
92.6453
93.1693
109.287
90.5148
86.7324
92.1898
44.7802
92.2802
118.086
85.6485
114.118
114.019
125.299
92.5784
115.541
86.7162
89.4045
92.3842
89.2796
88.6673
92.6637
121.231
92.5815
104.353
84.4348
90.5056
90.9517
80.9852
97.2392
92.5902
92.8064
89.9492
92.7142
86.1362
91.2953
103.626
90.2329
91.5751
89.9206
89.7255
86.4623
90.0237
87.7152
90.1065
86.5241
88.367
91.147
92.8545
110.989
55.4682
89.567
91.594
87.6811
92.3982
92.2264
78.9826
90.6529
89.5841
88.8226
119.666
92.71
88.6508
103.667
83.9059
90.7195
104.271
90.3926
92.3179
96.6657
98.7159
124.9
90.9124
80.7415
91.9509
89.679
89.0746
89.3966
92.6843
91.8231
83.6387
89.3197
88.9071
87.7347
123.941
82.5621
116.281
90.6345
104.394
84.1269
93.013
93.1984
91.3492
92.8914
105.101
91.3732
88.8598
86.6548
86.1931
92.6041
88.758
108.006
87.1487
83.3199
87.5711
85.782
54.7004
104.481
85.0006
89.7017
43.579
92.7192
83.7358
87.5402
89.9443
125.147
86.2969
116.112
87.3212
90.004
93.2286
81.6661
106.089
86.2096
88.918
92.7736
92.3112
93.2445
92.6109
124.841
80.798
107.85
87.1022
89.5312
92.6976
90.3462
92.7679
97.0798
86.3913
88.2417
91.3853
90.6757
87.3601
89.8554
88.1609
90.1913
88.5655
92.4761
91.1279
86.8675
88.8152
91.3408
88.7182
92.5859
86.7401
91.2472
88.5087
49.659
91.1003
92.5331
119.057
89.0205
90.0897
92.4501
108.866
89.3643
85.5884
122.863
82.3154
104.597
84.6119
90.5264
92.3345
81.0567
108.458
86.6858
90.108
124.462
92.7765
86.4811
88.4198
91.4331
92.2188
92.2147
90.8183
82.1299
97.0876
92.6237
73.6018
92.6665
92.6146
89.9095
89.8016
86.4433
88.4939
91.4052
96.6909
90.7132
90.1002
89.7876
90.1247
89.3597
91.717
88.7808
89.7577
93.2977
92.3549
80.8488
90.7594
90.0292
92.4179
106.733
84.7903
89.3405
92.3495
90.6802
92.4619
88.9371
91.0371
104.329
123.355
48.3484
90.1847
123.157
89.5559
92.4324
78.1784
122.838
93.2448
92.8925
105.992
62.6796
90.8442
90.1123
92.4378
89.4227
90.7827
93.0432
93.2195
124.852
123.198
95.5563
89.7055
54.0517
90.7384
92.2414
90.3039
88.9104
92.9513
89.0864
91.2548
92.5639
92.7542
91.8061
118.454
89.7643
62.016
98.8914
83.1435
92.4455
92.4669
90.5006
112.979
122.874
92.1896
80.6343
92.7155
90.3503
92.4803
92.4152
88.5114
89.7432
92.514
95.7154
50.1556
90.0186
92.4426
91.6929
90.4767
123.097
92.0384
91.1124
95.2324
92.469
90.59
89.4631
92.3758
47.9569
92.714
93.2287
88.9104
96.8072
113.24
123.178
114.937
90.7625
75.1859
92.2917
87.7389
89.1604
91.8176
97.2931
92.5812
92.3297
89.9505
91.2516
92.7465
92.6252
89.2326
91.457
92.5468
89.2234
90.5399
92.4827
93.1403
22.9658
92.5488
120.426
92.8182
88.5667
89.5638
91.9121
89.154
89.4631
92.2811
105.236
82.5538
82.55
89.3524
50.9478
94.1844
90.2933
88.8738
91.5102
90.0458
90.3069
88.4685
122.749
50.8749
84.0281
108.105
92.1834
90.024
86.699
107.827
92.2053
91.6413
92.4954
89.2661
88.6034
100.188
92.6784
96.3854
92.5276
88.5661
90.1825
106.073
89.3982
90.2232
92.4214
122.816
57.7982
93.1174
92.5943
90.2687
87.0751
84.3848
90.2452
88.9555
89.2673
89.7862
118.036
123.669
112.31
89.5347
92.3867
122.792
122.138
125.078
92.4493
91.9242
92.6027
93.0954
126.087
92.2203
90.9209
92.1717
92.3031
90.0217
92.4115
93.0838
65.9319
96.5176
93.2276
91.0407
88.9125
115.636
124.292
86.7574
114.223
90.2939
89.7513
103.562
92.6895
92.5643
90.6233
90.7689
92.7077
89.9435
89.6106
118.82
49.5458
88.7371
37.926
92.1108
92.7202
93.0212
90.8427
90.1786
92.3922
89.8995
89.8337
89.8059
86.6783
103.79
117.809
88.7278
41.5286
89.6195
89.4608
89.3096
89.8871
89.3613
89.4735
90.7357
92.0921
125.51
92.7769
91.7741
92.7148
113.776
93.8039
92.7377
92.7364
92.5337
91.2605
99.2208
69.9078
89.6972
92.8939
94.2419
125.044
92.3446
90.9308
95.8074
92.8471
86.2813
92.3185
114.125
93.2653
116.43
89.8172
93.155
92.6943
124.498
115.36
93.238
89.3952
87.2649
122.804
94.6642
98.3509
44.9
120.963
89.7945
125.194
66.8988
113.693
92.6698
88.0045
88.7779
112.512
97.3672
124.482
99.83
89.4991
68.0715
97.162
119.321
92.8748
88.6931
36.1551
122.929
86.6936
89.713
109.806
92.4724
90.0878
88.8887
88.6895
90.259
86.7979
105.876
89.0085
96.6957
91.6781
89.7792
92.7765
92.4468
89.3805
90.0943
98.0744
93.146
89.8255
107.348
89.5213
70.9773
90.4428
89.8518
90.5861
90.2735
87.4535
110.754
88.8943
90.0165
86.9464
108.784
93.3346
92.7015
93.272
92.578
92.1054
91.1411
92.0791
89.92
124.867
47.83
89.0271
90.4961
92.4795
90.6377
87.5995
125.101
89.6242
88.6391
91.5153
118.997
107.414
86.2712
88.7333
87.7985
92.2793
71.6388
90.7554
60.6826
94.9538
125
90.1999
92.6617
91.8632
92.8361
124.442
125.803
117.759
103.863
90.1132
90.0489
90.9719
105.959
95.4406
91.1439
85.9342
105.134
124.71
92.4801
90.3118
89.0345
111.861
50.8664
92.273
97.5766
92.7972
93.2164
92.958
86.745
90.1263
107.178
96.3166
92.7215
90.3216
93.1774
91.8917
40.08
88.9966
92.1052
88.5117
92.4475
122.875
91.7199
98.2495
92.4357
90.2778
103.961
96.6896
78.0259
89.2504
89.775
89.5617
89.6927
120.912
121.276
50.8359
89.443
92.4519
92.56
104.142
92.9413
89.8087
93.2377
101.182
89.6729
73.8651
122.826
92.7652
90.7754
91.6684
96.0812
120.22
89.9778
58.7984
92.7684
92.7444
59.9621
107.02
95.7687
87.8843
89.2578
123.806
113.679
92.3403
92.7281
86.1384
121.715
90.1306
96.6638
121.226
89.9838
89.6511
90.5521
89.3952
96.8197
92.9086
90.7679
92.2107
93.4634
92.2686
92.7365
92.4324
90.0322
118.713
92.4508
96.4954
92.1721
89.923
89.7749
90.6307
93.8795
122.908
123.122
57.8949
88.4279
90.1163
96.8172
92.1517
53.8656
103.559
82.763
116.497
90.5093
86.8483
89.8842
88.8729
90.0821
104.633
88.7806
88.7579
88.6347
89.5169
92.3816
116.352
92.1611
90.1911
109.104
86.5351
90.138
92.4997
110.938
92.4474
90.2119
93.2635
92.3233
83.8818
124.5
108.591
96.7275
90.0956
75.3421
92.3163
90.7536
82.3377
46.2442
97.1103
88.8639
100.697
94.1583
92.9138
92.0941
92.5148
89.8485
89.3556
92.4088
92.4348
90.1662
92.6201
92.2393
92.4444
92.5677
96.4912
90.5436
97.3739
92.7335
92.216
108.802
97.0194
89.5419
91.4471
87.3048
92.253
123.825
99.0035
89.4771
92.6822
89.3671
122.765
92.6265
96.72
90.2304
92.6453
96.7208
69.1111
95.9742
86.7525
100.714
92.4885
97.3955
91.4512
91.9855
109.852
71.3067
89.3959
100.581
91.7371
90.177
92.147
91.914
101.687
105.713
50.245
79.8097
89.8839
92.3003
89.1671
90.1682
86.3009
103.174
113.346
92.4507
90.6952
92.439
90.1708
96.9655
92.4334
95.1513
90.9052
96.442
97.0965
98.1168
91.084
92.1817
91.1054
93.1699
91.0209
122.902
92.475
96.6414
87.8438
92.4303
93.1346
92.7471
88.478
124.779
92.4416
125.183
92.4067
98.5354
124.932
92.5234
91.6878
109.219
92.2043
91.7402
90.7515
92.5325
89.3104
89.0581
90.1668
92.4577
89.0781
92.671
92.2024
95.9763
92.5835
92.6882
91.311
88.4228
86.5503
96.3797
104.838
102.679
89.6236
89.0108
92.7013
92.5297
90.7139
91.6448
90.2566
90.0615
92.7115
116.766
92.4307
91.1648
92.7657
122.646
92.7483
83.5066
90.3295
92.2242
97.594
89.9451
91.7819
88.5016
92.7392
96.4304
96.9467
92.2705
97.4313
92.2759
92.2176
89.1094
92.4771
90.3704
91.1077
92.4598
123.914
92.574
57.3942
92.7375
90.0047
92.4372
96.6703
90.3381
100.784
92.501
91.8291
95.6196
102.786
85.2433
90.7673
92.3518
92.0178
90.8445
90.3351
93.1933
96.8111
93.7495
94.061
119.406
112.933
92.2441
101.648
100.649
92.906
88.6217
88.9995
92.5078
31.4883
97.0562
92.4684
92.4683
122.823
123.084
93.7878
91.9764
90.8623
90.0061
89.3721
92.3047
91.37
89.5669
90.2463
91.5416
89.9748
90.1034
92.5905
88.4564
89.6196
90.4298
93.7946
92.4083
88.2831
90.7531
86.8893
90.1681
89.7202
102.587
103.653
97.8442
94.5709
96.6404
102.462
92.5597
90.2483
92.1557
104.184
99.288
92.178
90.7936
115.257
91.0025
117.313
89.8998
88.7963
102.084
88.583
115.676
105.572
89.1347
89.9393
96.8287
111.51
92.5743
89.927
92.3465
56.5932
92.456
92.6943
88.9333
90.0094
92.4266
98.1922
92.9922
115.896
91.3906
88.8826
100.373
89.8825
85.5248
92.7351
92.5703
89.2273
89.8349
122.617
124.143
88.7824
96.804
92.246
90.2295
88.9118
84.2131
103.734
125.533
114.835
97.3035
93.2651
92.2329
90.9519
89.9545
96.6575
89.7685
89.6042
89.8764
92.5687
90.5393
75.6723
90.3552
55.7193
90.038
92.3922
113.977
97.6259
91.1686
92.6256
96.1381
89.6179
92.6383
92.4705
91.2439
90.8375
92.4114
88.8217
88.9836
90.8263
92.4639
91.3833
90.6189
89.6653
78.2389
88.5533
118.367
96.0392
89.5104
92.6272
89.793
108.868
87.2804
89.8428
90.2126
92.8832
124.316
52.046
88.7144
92.8605
92.7582
83.9242
92.6165
90.2017
91.6348
90.9061
88.5172
90.7253
89.9583
90.2092
91.5654
92.6518
92.3724
96.5887
90.2412
92.6824
90.215
110.375
97.3341
124.074
123.507
89.6922
92.5571
92.0711
92.6381
124.867
89.5835
89.5759
89.1495
92.4779
92.3038
92.2757
88.9254
90.1804
89.9127
92.7038
89.4963
92.6154
41.8374
88.4512
36.8326
50.108
90.1438
96.4242
92.5956
90.1708
91.7139
90.8016
89.9478
90.1907
91.822
83.7011
103.456
102.609
89.7515
89.5067
87.6622
85.3926
93.2844
92.6019
90.1387
124.149
92.7672
90.4881
92.7349
92.6142
90.1576
112.604
91.6976
90.0325
88.9669
88.9728
89.4397
88.7081
92.9079
92.5895
96.6827
90.1951
129.782
123.738
92.4047
40.5036
124.45
90.0733
89.0453
92.7487
101.613
92.7523
92.2894
90.2847
88.9493
10.896
97.3471
90.03
83.97
109.699
56.338
113.951
88.9292
90.4587
92.2818
90.2154
91.7764
88.9431
89.5306
92.3861
89.503
91.6246
91.8134
89.6535
89.0237
90.3905
92.171
91.7329
88.8799
89.5332
91.9098
88.9711
89.6561
90.3568
92.21
92.5613
91.7106
88.5636
90.0625
90.287
91.7922
90.3208
88.9853
89.7192
92.2216
90.5072
92.3217
90.4108
91.8304
88.955
92.2705
91.7756
90.2332
92.4244
89.8548
88.7937
87.3507
85.1411
55.9183
92.6827
91.015
101.587
92.578
92.5682
92.7608
92.5372
94.4248
92.7586
89.6992
90.3815
49.3912
89.9315
90.7554
89.6124
92.6798
92.6857
92.6451
90.2071
89.549
90.3051
92.6139
89.0673
88.4662
91.4165
123.005
93.5449
90.2409
89.6213
89.793
45.4343
92.7638
88.407
89.9532
105.598
90.6578
89.8273
89.4067
89.5814
119.055
92.8687
89.4596
89.7482
89.9878
96.0591
95.2918
11.6211
92.7309
89.7199
91.9475
90.547
92.0383
92.7486
139.2
89.7082
92.3095
91.8106
89.3533
88.9638
90.3168
89.5418
91.6855
92.319
90.2514
91.7736
88.9077
89.7837
92.5007
88.6719
90.2267
89.0045
89.6167
92.1656
91.8979
90.3966
90.4791
88.9198
92.2968
99.6445
88.493
125.383
108.514
90.133
96.0495
90.3186
92.4915
118.95
92.5009
93.2934
128.836
91.8368
90.2411
92.6783
91.8086
117.266
93.0932
72.866
92.0527
92.5187
92.5799
90.9261
98.0505
92.7701
91.2431
97.8803
93.4944
92.649
89.2119
91.81
89.8423
92.7509
89.9933
87.8125
92.6297
91.5465
92.4927
91.6608
90.0764
92.5439
92.6754
90.474
92.6741
92.6775
92.2135
92.7259
92.5807
97.0465
89.2509
86.888
89.917
90.666
80.867
92.6193
96.7551
106.552
90.3555
121.683
88.5582
92.3248
92.6628
89.594
91.276
96.9761
92.7201
91.7294
89.9231
89.7089
92.3181
89.117
93.0663
92.6027
90.3297
91.0542
93.8707
93.5367
93.2668
95.8043
91.6637
91.2541
87.5099
91.2873
91.3584
90.4947
92.7049
89.771
92.5795
88.6269
92.8558
90.0833
115.66
89.3737
90.0542
90.4651
92.7668
90.0727
92.2964
92.6719
89.4485
89.6065
91.509
112.384
89.9295
93.9
90.8573
89.5153
118.259
117.631
91.3876
92.6137
90.1093
99.1752
91.6369
107.283
94.2703
141.668
89.5437
86.3873
104.124
114.75
85.1407
87.4564
89.9221
129.658
87.9756
107.957
87.9839
131.514
89.738
88.704
29.4818
89.376
90.8463
90.4882
92.132
90.24
88.9088
95.3433
90.0394
92.4805
88.5085
89.8284
89.834
89.6521
89.5141
89.9028
89.587
89.6315
92.7038
89.6684
90.0256
89.561
89.4925
89.808
89.4683
90.4176
90.3239
90.3998
88.7649
88.3998
88.9119
47.9255
89.5118
89.1695
88.8035
89.2858
92.6719
92.7746
89.6254
89.8857
90.4072
92.6778
92.6479
89.5417
89.8059
89.3132
89.0383
88.7161
88.7889
88.411
90.5334
90.4773
88.7133
120.186
90.4886
89.3106
92.5041
88.7985
92.6695
89.1909
92.6743
88.9095
92.5549
92.6739
90.234
88.5222
88.3792
88.8222
88.584
92.5949
107.244
92.5754
85.2857
84.0271
87.5481
104.88
81.0188
92.5827
106.973
105.287
84.364
82.0427
91.3479
92.5948
80.6708
103.58
109.52
92.5693
87.9825
107.186
80.6909
106.154
92.5877
92.5829
92.6031
83.8765
88.9825
52.3182
92.5883
87.0954
88.4784
92.5628
83.7567
91.362
88.7535
105.078
103.682
86.278
52.4543
80.2552
92.5985
80.4318
92.5465
88.0987
86.0466
91.3567
106.843
89.4941
52.2009
86.2338
88.0784
91.3446
80.3936
49.3974
92.6013
146.087
81.063
89.0782
86.2894
87.9919
92.6051
88.9057
103.627
84.0958
81.313
49.0182
48.827
88.652
89.0984
89.744
90.9013
90.5023
91.2277
91.1395
84.3616
90.0563
88.4721
92.5294
123.626
88.925
89.0944
90.537
88.9826
90.231
92.6495
90.063
90.947
88.7385
88.1829
89.9831
90.4129
91.1578
86.3975
88.1012
92.6283
92.4944
90.1885
89.8906
92.4317
92.2092
88.4686
89.0801
90.3263
90.6988
92.6642
88.3037
84.3497
103.794
90.1835
88.5966
88.328
90.718
92.6802
92.4706
88.5261
90.6352
91.9906
91.8759
88.0633
90.724
89.9276
48.4226
92.5417
89.943
90.841
92.7948
90.675
90.4925
89.3202
92.5837
90.3877
92.5132
91.7122
91.0553
90.7848
90.3943
93.1697
90.4812
92.5764
90.5936
92.6298
92.6041
90.2694
90.3734
90.4873
92.7016
92.5722
90.1756
90.8042
90.3282
88.4613
89.9701
92.4333
88.5389
90.0484
92.6933
84.543
87.813
103.873
89.2151
88.4017
90.0684
92.6573
92.5874
123.888
83.9913
86.913
89.7696
92.8488
90.2312
88.3633
91.0953
86.4988
92.9201
90.9232
92.8179
47.126
115.747
91.1401
89.4495
87.0109
92.6603
88.637
90.0759
92.2981
124.121
87.4359
89.882
88.68
90.9108
88.7528
90.1157
92.2047
104.849
85.5253
87.496
124.348
85.0293
88.1412
89.8287
89.071
45.511
115.616
91.0665
86.7214
89.6546
89.275
92.6069
87.9615
89.9816
83.7083
86.1429
90.9865
88.8073
90.152
92.158
87.3412
89.1894
90.2232
124.185
85.715
91.8087
45.7539
49.6532
89.5016
115.608
89.778
89.4598
89.385
88.8696
92.6409
92.5749
86.5928
84.4248
90.9448
88.464
87.4632
107.109
87.8021
113.019
88.1213
89.771
90.0326
92.9268
92.9226
89.4033
89.2383
89.2214
89.3764
91.1366
86.8807
89.1432
89.758
84.7238
90.9
88.8781
90.2287
92.0968
86.8799
106.953
88.0615
124.372
88.4874
88.1223
89.3231
88.3414
89.7918
90.3707
90.4208
91.7791
48.0903
89.5695
99.3812
90.8229
95.0139
115.563
94.5575
92.6794
91.219
88.9966
89.4535
86.9982
90.6235
85.4626
93.8157
92.5871
87.1289
99.6047
93.0535
90.4077
90.4964
88.3139
88.3538
90.3601
90.5536
90.3891
90.9135
88.9337
90.2936
92.0835
87.7761
89.8958
93.1282
92.717
93.697
94.2322
118.595
92.7288
92.7362
88.7572
89.7317
90.3911
91.7456
44.6893
89.645
92.682
92.9123
94.9664
96.2742
87.8882
89.2753
94.9059
90.3749
89.29
88.9837
86.0175
93.2421
97.1131
92.6131
92.4387
92.5906
92.1949
89.4843
90.0539
88.9925
91.2469
86.9781
89.8386
92.792
90.0727
89.494
92.7139
92.2989
125.126
92.612
92.7222
83.5002
89.3902
89.6631
89.5784
85.8855
91.1606
89.9578
88.9744
89.0371
88.3632
92.444
88.9183
90.3008
92.0719
92.5881
92.5958
92.6094
88.5156
109.032
88.4712
90.5841
90.2082
90.5661
90.4018
90.4182
91.3541
91.1154
91.0417
91.5094
88.3603
97.8526
89.8665
89.5628
96.7401
92.6792
117.845
90.2375
90.6482
90.3709
124.505
90.2044
89.0603
89.6866
93.1337
84.1928
90.4243
88.7353
92.6786
91.7403
88.468
88.6284
89.8837
88.8906
90.1145
92.2696
123.311
89.5758
90.5238
93.1057
92.7128
91.1653
92.5596
92.5068
89.5757
89.6987
93.0405
90.904
92.6546
90.4915
89.8841
89.6532
92.8075
90.4668
88.5963
90.122
89.3015
89.5921
92.3673
115.548
116.403
92.6796
88.8208
90.2861
88.6447
115.856
90.1818
90.5294
91.7898
90.4808
116.873
89.6759
90.2159
84.7949
87.5367
89.2867
90.7739
91.0899
92.5339
89.5458
90.6456
89.3404
95.0034
88.9308
93.3508
124.131
89.1354
92.6629
89.8477
89.4799
89.4584
89.2266
91.8348
91.8159
90.1196
90.6531
89.839
89.2956
89.2545
96.6027
90.6335
92.7064
88.1261
93.3451
90.168
90.5539
88.9307
90.316
92.0846
92.9028
80.8033
89.3513
88.8536
92.2656
92.5821
89.1232
81.5187
93.1122
91.007
90.1726
91.8389
88.8039
95.9749
90.5256
90.0726
89.7639
89.7682
92.6855
89.223
101.583
90.4252
127.203
88.4784
89.4399
90.2347
91.6345
89.6846
91.3791
89.3894
89.098
89.3633
118.706
87.4516
108.417
89.2054
92.7062
91.4765
89.4732
89.462
93.1755
105.424
89.626
94.9724
100.393
106.181
90.2149
92.9769
90.7705
88.849
90.1047
92.5535
124.627
86.4945
89.4528
86.3571
90.4425
53.6143
92.6238
89.337
89.7046
89.6264
92.0326
89.0614
81.606
90.1051
92.3946
90.6903
92.6975
92.7013
89.7713
90.2192
89.6831
89.7494
47.696
90.9784
90.2598
110.335
91.5266
82.4221
91.6881
37.6692
101.773
92.8845
91.835
92.8636
92.8437
124.044
89.8712
88.969
92.7602
131.846
93.1889
88.9286
90.0731
92.3654
90.6823
92.559
90.7174
92.4698
91.0336
89.9981
90.6834
116.882
89.3458
89.6203
88.5292
92.2804
92.1706
91.5485
92.392
92.8399
91.7201
89.4569
135.979
91.7875
89.9537
90.6163
90.043
91.1728
90.0264
122.886
92.3687
88.9006
92.3541
91.7128
69.9961
123.459
92.4086
92.3194
90.3809
92.6993
98.515
92.1954
89.7071
90.0748
96.6651
89.2578
89.6325
89.1017
92.7139
93.0443
100.025
89.8371
89.1194
89.8499
85.9339
88.6871
89.0759
92.367
89.5803
92.6289
89.9996
92.6407
92.6992
88.5335
94.9545
89.88
89.8618
90.0018
90.0377
92.3654
90.1173
99.9159
89.7175
89.6829
91.455
89.5114
87.837
91.6043
94.2791
95.4848
96.5373
88.9502
90.3551
92.0981
76.6384
90.9266
89.9082
92.099
89.597
112.062
89.8339
89.4655
89.6625
100.73
86.3583
89.3401
88.9195
90.1314
92.4386
89.2943
110.548
88.4331
89.5967
89.5273
89.7237
89.7814
92.8852
89.9299
91.1594
89.6088
87.368
109.116
91.8952
92.6893
92.0196
88.9176
90.3244
92.0769
86.6285
92.7709
89.4863
93.9691
92.714
90.0019
89.6089
90.0375
90.6493
87.9377
88.8074
91.5152
92.6941
92.4833
94.2496
92.491
89.8829
88.917
90.2956
92.1152
131.988
107.273
90.7318
90.1409
100.173
108.097
107.78
90.234
90.8408
91.8991
90.7163
91.7073
92.5373
94.3491
123.7
90.6411
92.6125
87.7403
85.9383
105.534
92.4718
90.081
91.8846
89.6327
90.6404
90.4474
90.0442
88.464
50.129
70.8228
92.7202
89.3804
92.0524
88.3442
91.0129
91.3641
99.7535
92.4964
115.393
89.7369
91.5076
90.4934
91.9457
90.6744
92.5592
90.0455
90.5938
88.9006
98.3964
91.6876
90.3199
89.3992
122.898
92.4745
88.5894
84.0652
89.8054
123.025
123.958
91.2488
89.5242
90.1804
92.2784
88.9229
89.3061
20.6916
92.3306
118.379
84.8644
92.146
92.7574
93.4564
122.116
88.031
88.8981
90.3524
92.1456
92.4642
114.102
88.9713
89.4604
92.6811
93.0847
92.6361
92.264
89.938
90.5703
96.5274
123.305
102.75
92.4186
91.5503
90.112
90.7717
89.3276
91.8673
92.0545
89.5812
92.7582
92.2004
92.7357
90.2439
89.1858
116.794
89.5805
92.7401
96.5172
88.572
45.2982
90.5609
90.0631
88.9037
90.3123
92.116
104.09
92.2088
89.6737
89.1543
93.2593
90.6894
92.2919
92.0885
91.6149
93.1077
92.7916
90.9246
89.6363
91.3
92.2974
91.8677
89.1535
89.2255
89.8799
91.3206
94.6128
90.7816
90.718
92.1645
96.5604
92.6906
89.8995
90.6367
116.707
118.478
88.9393
92.7516
90.879
92.6594
92.378
89.3402
92.0916
92.2963
92.3187
91.744
100.301
91.4075
89.0563
90.5961
91.6012
90.3877
92.6694
85.9502
90.6778
89.8524
110.023
92.1412
89.1101
91.8467
92.4973
89.5164
86.0075
88.8305
90.0178
90.0535
92.8236
92.2591
81.2206
98.9319
93.7531
93.4631
91.3546
90.7693
91.6927
89.9574
90.5663
96.8345
96.4733
92.3197
90.0604
92.779
92.6636
89.9204
90.6206
92.7493
88.8877
92.1452
90.5597
92.4025
92.6755
92.5768
91.8551
89.4303
89.8683
97.1059
88.9362
90.1949
92.3734
90.4371
91.9931
92.8268
90.5847
92.1176
90.6097
89.943
91.6436
123.458
88.0659
41.7196
93.3107
88.9391
90.5626
91.4137
89.4502
90.344
92.2326
92.6869
90.2413
92.2972
96.7384
92.9168
114.393
92.4682
91.8996
89.4698
88.9768
115.411
89.5487
92.6912
91.7022
92.8746
114.71
87.0547
89.4244
91.2988
88.9359
124.997
95.4877
89.7546
92.5144
105.808
81.0223
93.3282
89.0587
91.1069
91.7233
88.7642
89.0961
90.3654
92.4772
89.5287
92.1767
89.6417
88.6565
90.4839
92.2487
92.6697
90.1283
88.5615
91.2929
92.2878
92.7584
92.5935
89.0771
89.3961
90.143
91.311
86.8282
92.7294
113.723
88.8672
90.9261
90.1734
35.5797
91.3023
120.306
92.6818
89.0775
91.2885
89.8568
92.3261
91.936
90.0176
92.7669
89.5284
90.6088
92.6855
116.232
88.4034
86.3886
92.1678
91.1732
125.414
89.407
89.9869
92.6698
89.9124
90.6265
94.833
92.3198
90.9335
88.9017
90.2829
92.1967
90.5483
88.9367
92.3385
90.3136
92.9204
81.5689
89.704
89.5654
89.6186
56.2802
96.8442
105.657
90.564
89.306
123.473
67.5418
109.94
94.3535
88.9118
90.2492
92.1858
90.7254
100.819
88.9162
90.755
92.2845
92.7715
90.9436
117.452
128.063
88.9735
109.551
95.1692
122.739
92.7621
90.6722
89.9815
91.0726
87.5908
91.8181
108.574
90.4573
92.2285
91.5873
92.6605
123.321
90.0554
110.312
89.4731
88.8127
89.6114
89.3532
92.6296
92.6046
90.3323
88.9169
92.0939
92.6977
90.465
90.5052
90.3498
89.7684
90.3888
91.8628
92.5176
97.4329
39.33
122.914
92.4895
92.6575
92.5559
90.6289
90.966
89.6702
89.3677
92.89
92.1375
90.283
91.5961
107.763
89.7086
85.8331
107.097
91.0408
92.1412
92.6849
97.2615
34.1028
89.28
83.9366
103.514
87.4201
93.2889
98.2978
96.4309
93.2083
88.8187
92.5534
88.9349
125.253
92.6746
91.2952
92.6675
97.8682
43.1881
90.3234
91.386
90.7422
91.3976
88.9173
86.3967
92.6802
106.863
90.1989
92.6606
91.5954
115.007
91.8766
90.2017
90.029
90.2786
92.003
89.561
92.6912
92.6606
92.4795
90.3468
106.296
88.9916
105.662
88.9094
89.2469
93.8231
89.6264
124.793
92.5537
92.7209
99.834
110.722
89.7169
88.9524
89.371
92.0001
90.0285
88.8158
122.183
90.6998
93.735
91.0903
91.1905
93.4429
121.517
122.715
90.0034
89.9525
92.7752
93.3289
91.7638
89.3992
85.9512
93.3263
92.8696
92.3169
92.7089
92.6879
91.0047
78.1009
88.936
122.555
92.8287
90.2154
91.9151
90.7229
90.1026
116.952
93.8196
91.8458
115.218
92.3639
112.106
105.85
92.8084
122.022
91.4582
122.771
93.5906
92.0694
89.9653
99.121
90.386
103.282
88.1966
97.9177
27.2638
92.7308
121.174
90.2909
101.537
89.9513
102.618
88.6181
121.81
122.645
91.6835
107.022
92.6315
88.9336
90.0444
92.4186
90.7812
91.7924
103.152
92.5313
104.979
103.388
92.8417
91.8457
89.9734
123.964
89.6301
88.7519
91.7978
96.5364
90.8164
96.8851
97.2617
92.5979
106.842
91.1993
91.2545
89.5378
89.72
92.5068
105.067
123.081
89.2078
109.978
101.615
89.0184
92.7428
92.7037
92.5584
92.7639
92.633
122.819
96.3327
89.694
92.6484
89.4059
110.566
85.5675
90.1651
89.8799
89.2665
89.5881
91.424
90.4814
89.0128
94.7618
90.8199
90.8325
90.294
88.9837
90.7602
108.446
98.6763
93.47
92.5932
92.6628
89.887
104.213
89.3073
89.4508
89.8369
92.7284
91.6668
86.6497
90.1782
49.9093
93.0604
92.7135
97.1315
90.3949
88.9078
92.1563
122.524
91.4865
115.415
92.3848
91.3302
81.5365
89.8683
92.4582
91.1556
93.1065
100.551
88.9669
110.115
89.3894
90.4772
92.4604
89.4647
90.8571
90.1512
56.9716
55.1338
90.4708
91.2001
89.971
91.0351
92.3512
90.0928
88.9432
92.3974
90.065
88.9222
89.029
89.3405
89.0644
89.7558
89.6991
125.213
90.6398
89.8406
87.4195
89.7766
102.555
91.8546
91.6393
90.9496
93.3588
111.767
90.2921
89.3834
90.6225
87.5426
45.1137
90.1725
92.3647
104.825
123.64
92.6081
93.2213
92.4987
90.3642
88.9181
90.7053
89.3173
93.3705
92.6741
90.9838
90.3842
88.9316
92.1402
89.0659
91.8191
87.5264
107.567
90.0242
87.0846
94.6092
91.9375
90.5502
90.1138
91.5856
103.485
83.8145
90.1859
89.7553
89.1628
92.5913
88.9131
87.9802
86.3049
98.8958
90.9803
109.944
119.96
139.709
93.3152
93.2599
125.465
89.4118
91.5875
92.5943
119.777
91.8001
95.8726
9.71924
96.9341
91.4198
88.8058
92.327
90.3992
92.2119
88.9018
90.7401
91.6822
86.5402
92.508
90.4689
96.0984
90.7429
124.885
88.9675
110.007
88.9508
88.7431
88.9099
90.7036
92.3415
92.1889
86.8792
89.4048
88.6419
92.4548
33.1752
112.207
89.7938
90.8861
92.5908
93.1707
86.5913
91.6547
90.1029
86.8541
92.625
92.6168
92.4605
91.3517
93.4941
90.4704
89.5576
91.4083
88.4261
116.351
92.1925
90.8653
91.7892
89.6102
97.3672
104.395
90.7305
96.2104
90.0741
86.655
88.403
90.9347
89.0133
90.1646
91.5704
90.2017
90.1003
92.6431
125.049
90.3355
92.3285
124.447
92.5318
93.2206
92.6677
78.7529
98.0857
97.856
92.2907
95.2855
92.2674
95.4072
95.5361
98.7886
96.9369
92.279
90.6985
87.8227
91.5043
90.8053
101.699
92.5341
91.094
92.5982
89.515
88.7572
97.5424
91.6998
91.3545
88.7971
93.7675
91.8456
89.1007
92.297
92.6823
95.3277
50.8017
88.9196
90.4655
92.356
89.3952
91.5365
90.3763
88.9647
92.1845
90.7716
88.9435
92.3835
121.404
92.4904
92.7215
90.9449
88.9283
90.4215
96.3332
88.5911
90.6464
92.2461
89.4281
88.4657
92.4129
92.4447
112.72
109.867
89.3958
88.3254
90.3647
92.6365
92.6287
89.6238
90.1324
123.49
98.0725
89.0734
113.894
92.8607
89.6677
86.9491
90.4899
92.1182
80.2188
92.6732
98.5383
89.2829
88.7504
93.2533
95.2711
93.2357
85.3608
127.097
86.8503
93.1293
92.6371
92.7734
92.776
112.114
122.321
92.384
90.9856
89.435
107.534
89.8977
89.166
92.6513
90.7951
88.9159
90.0763
89.3669
89.3024
88.9462
93.8196
89.5628
83.8226
103.491
92.7116
92.6896
86.5963
90.1034
89.8071
99.5657
89.762
89.5981
90.0691
89.0443
91.1054
92.4006
96.6087
89.4926
17.0814
95.1626
88.9987
89.8726
89.1652
88.6282
91.7728
89.0051
92.6505
90.1516
92.4372
90.375
92.0741
120.626
88.6001
123.3
91.5772
88.7812
92.7731
91.5363
89.8746
89.2655
52.1434
115.617
96.7239
92.6706
90.1767
90.3915
82.3121
83.574
93.2183
89.8604
96.8622
96.5098
90.1527
93.0275
44.9253
92.1914
88.922
90.257
89.8578
89.3441
89.4698
90.3396
88.6744
52.1911
89.8795
90.4595
90.1939
92.1867
90.9183
88.3473
87.0292
92.1843
95.2569
107.35
93.8086
90.2181
89.4309
89.0186
89.4229
86.1812
92.6316
125.442
116.21
92.2567
80.2678
91.3695
90.597
88.9279
92.3554
90.7032
115.266
93.4761
97.8424
89.8811
88.6612
89.8016
90.4538
97.2193
89.1646
110.027
89.5489
85.3675
90.2904
92.1683
125.085
92.4855
88.612
87.2985
92.5785
90.1601
84.432
44.3546
105.992
90.367
91.5086
86.7484
88.7875
91.128
89.6622
89.0066
91.7547
92.4489
92.4572
90.2296
124.525
91.1236
91.7422
92.096
92.5031
53.5373
89.5481
85.9121
107.945
89.708
91.4199
92.7536
96.7658
90.015
92.4511
90.3118
88.9827
91.8246
89.0437
89.1427
122.51
91.4415
91.306
92.3576
90.0636
88.5442
86.3037
90.9408
91.0206
89.4006
89.0754
92.0103
97.0788
91.0181
92.2157
114.293
66.4075
91.0084
54.4079
91.6779
88.7042
83.5124
82.111
90.006
92.5891
75.218
92.4469
116.328
89.9646
84.9897
110.352
121.591
114.288
91.1395
92.4661
93.307
91.1484
89.1185
81.2391
86.4418
88.8628
91.4414
104.83
104.399
98.5699
87.3139
91.1321
86.8425
96.9884
92.7148
92.4153
93.2528
92.3648
90.5381
122.444
89.0403
89.0796
89.2277
92.9026
89.4809
90.7829
86.9141
92.6933
90.3384
88.9451
92.1473
89.8527
86.9784
91.246
90.217
90.8356
85.6788
89.0008
89.9008
89.8266
93.099
105.621
91.6654
90.4028
90.4256
91.6499
111.097
119.516
91.6531
92.8579
113.349
90.202
98.6914
92.1119
91.1314
90.179
92.1681
90.3254
92.6922
92.6295
91.3945
92.6133
92.3787
123.996
91.6156
92.3634
92.7289
92.2387
90.6908
92.7801
85.1508
89.7397
91.952
96.4324
118.465
90.1132
89.0614
89.7822
89.5813
90.6419
89.8371
91.1375
90.4478
92.6986
92.5528
90.2991
91.7488
52.0199
89.3199
123
92.1807
91.1566
90.4027
121.078
89.6763
51.6881
97.1564
92.4079
92.7017
92.5228
92.8021
92.4689
90.1822
89.1169
92.6097
89.0214
90.0384
92.4175
90.4179
92.2523
97.2257
123.685
90.5032
88.4625
90.2271
91.2559
92.451
88.7605
104.081
84.0287
90.0647
96.5862
90.8528
95.3066
90.0259
96.6181
115.853
92.1716
92.5926
92.6605
89.6917
125.134
88.4389
92.6932
87.0641
89.1846
91.9238
91.7165
90.7791
123.578
98.5225
92.4435
90.1013
89.0223
96.9861
92.6972
89.7816
89.5139
92.4004
92.3561
89.2095
47.7496
90.9366
90.6175
107.689
124.931
90.4952
93.2595
92.3183
123.01
89.8094
95.0741
90.1139
37.4991
57.3556
92.3625
50.0352
92.1843
36.7272
89.4556
107.806
88.8638
90.3808
92.492
92.4966
92.4662
92.4846
90.3039
90.3495
90.2215
90.2151
92.4831
90.3217
61.9762
89.7175
89.3733
89.0663
89.1558
56.1164
90.1089
89.7996
87.1569
88.8587
88.0381
86.666
66.9573
49.1599
86.4915
75.2377
71.1233
86.8181
90.1593
89.0662
89.4402
89.1762
89.092
88.9663
90.4935
89.7983
90.6241
92.4784
89.8993
88.7478
90.8453
89.0505
90.1749
93.8053
109.752
111.023
89.8281
95.3326
92.8268
87.2198
91.8766
97.4098
109.449
113.799
102.946
100.22
117.797
121.859
125.911