# vtk DataFile Version 2.0
track0
ASCII
DATASET POLYDATA
POINTS 12676 double
1.66533e-17 0.5 -5.37764e-17
0.391304 0.5 0
0.393043 0.494494 -5.55112e-17
0.395059 0.489082 -5.55112e-17
0.397334 0.483775 0
0.399865 0.478584 -5.55112e-17
0.4 0.478338 -5.55112e-17
0.408662 0.46267 -2.77556e-17
0.419777 0.448636 -5.55112e-17
0.433062 0.436635 -6.93889e-18
0.448146 0.426993 -2.77556e-17
0.5 0.404612 -9.71445e-17
0.52 0.406624 -5.55112e-17
0.539207 0.412551 -4.16334e-17
0.55688 0.422129 0
0.572449 0.434843 0
0.6 0.466994 -5.55112e-17
0.602528 0.473595 -5.55112e-17
0.60475 0.480305 -5.55112e-17
0.606675 0.487107 -5.55112e-17
0.60831 0.493984 -1.11022e-16
0.609486 0.5 -5.55112e-17
0.612716 0.52 -6.93889e-17
0.61376 0.540232 0
0.612536 0.560454 0
0.60905 0.580411 0
0.603243 0.6 5.55112e-17
0.602594 0.601498 0
0.60193 0.60299 5.20417e-18
0.601251 0.604475 0
0.600555 0.605952 -6.93889e-18
0.6 0.607096 5.55112e-17
0.590793 0.625677 -8.32667e-17
0.578975 0.642716 -4.16334e-17
0.564657 0.657716 -2.77556e-17
0.548118 0.670226 -5.55112e-17
0.5 0.696347 -1.11022e-16
0.494362 0.697078 -1.66533e-16
0.488703 0.697622 -1.66533e-16
0.48303 0.698 -1.11022e-16
0.477349 0.698209 -1.11022e-16
0.4 0.69875 0
0.38 0.690728 -5.55112e-17
0.361041 0.680486 2.77556e-17
0.343442 0.668051 4.16334e-17
0.327516 0.653535 1.38778e-17
0.3 0.620984 0
0.298043 0.616787 -5.55112e-17
0.2962 0.61254 -5.55112e-17
0.294468 0.608245 -5.55112e-17
0.292849 0.603907 -5.55112e-17
0.291499 0.6 0
0.285054 0.58 -5.55112e-17
0.280843 0.559414 -5.55112e-17
0.278785 0.538502 2.77556e-17
0.2788 0.517489 5.55112e-17
0.280422 0.5 5.55112e-17
0.283669 0.48 5.55112e-17
0.288358 0.460288 5.55112e-17
0.294543 0.440994 8.32667e-17
0.3 0.42768 5.55112e-17
0.302649 0.422144 5.55112e-17
0.305444 0.41668 2.77556e-17
0.308384 0.411293 6.93889e-18
0.311468 0.405987 -5.55112e-17
0.315167 0.4 -8.32667e-17
0.328426 0.38 -1.38778e-16
0.343711 0.361502 -1.66533e-16
0.36085 0.344707 -1.59595e-16
0.379624 0.329763 -1.11022e-16
0.4 0.316832 -1.11022e-16
0.406954 0.313465 -1.11022e-16
0.414032 0.31037 -1.11022e-16
0.421219 0.307537 -1.66533e-16
0.428499 0.304952 -1.11022e-16
0.444129 0.3 -5.55112e-17
0.455303 0.29735 -6.93889e-17
0.466598 0.295271 -2.77556e-17
0.477983 0.293767 0
0.48943 0.29284 0
0.5 0.292514 -5.55112e-17
0.52 0.29279 2.77556e-17
0.539896 0.294847 0
0.559479 0.298917 0
0.562851 0.3 -5.55112e-17
0.570281 0.302545 0
0.577601 0.305391 0
0.5848 0.30853 5.55112e-17
0.591866 0.311956 5.55112e-17
0.6 0.316355 2.77556e-17
0.62 0.32883 6.93889e-17
0.637987 0.344064 2.77556e-17
0.653802 0.361542 4.16334e-17
0.667278 0.380881 0
0.677337 0.4 0
0.68187 0.411317 -5.55112e-17
0.685858 0.422836 0
0.689354 0.434515 -5.55112e-17
0.692398 0.446319 -1.11022e-16
0.7 0.481021 -1.11022e-16
0.700448 0.484817 -5.55112e-17
0.70086 0.488616 -5.55112e-17
0.701236 0.49242 -1.11022e-16
0.701577 0.496227 -5.55112e-17
0.701881 0.5 -5.55112e-17
0.703332 0.52 0
0.703871 0.540045 0
0.703465 0.560094 -8.32667e-17
0.702101 0.5801 0
0.7 0.597968 0
0.699933 0.598375 -5.55112e-17
0.699867 0.598781 -5.55112e-17
0.699799 0.599187 -1.11022e-16
0.699731 0.599593 -1.11022e-16
0.699663 0.6 -1.11022e-16
0.696278 0.62 -2.22045e-16
0.691717 0.639765 -1.38778e-16
0.685876 0.65919 -1.11022e-16
0.678644 0.678142 0
0.668229 0.7 1.11022e-16
0.655737 0.72 5.55112e-17
0.640691 0.738157 1.38778e-17
0.623254 0.754031 3.46945e-17
0.603924 0.767538 1.38778e-16
0.6 0.769568 1.11022e-16
0.587481 0.775654 1.11022e-16
0.574529 0.780754 1.11022e-16
0.561267 0.784984 1.52656e-16
0.547803 0.788516 1.66533e-16
0.5 0.798487 1.11022e-16
0.492155 0.79879 2.22045e-16
0.484305 0.798926 2.22045e-16
0.476454 0.798908 2.22045e-16
0.468605 0.798734 2.498e-16
0.4 0.795842 2.22045e-16
0.38 0.791365 1.11022e-16
0.36028 0.785782 1.11022e-16
0.340908 0.779091 1.11022e-16
0.321974 0.771247 1.11022e-16
0.3 0.760328 1.11022e-16
0.281282 0.748262 1.59595e-16
0.263704 0.73459 1.38778e-16
0.247424 0.719394 2.32453e-16
0.232881 0.702529 1.38778e-16
0.23116 0.7 2.22045e-16
0.224928 0.69052 1.38778e-16
0.219281 0.680681 2.22045e-16
0.214212 0.670531 1.94289e-16
0.209645 0.660146 2.08167e-16
0.2 0.635001 2.22045e-16
0.198162 0.628001 2.22045e-16
0.196512 0.620954 2.22045e-16
0.195044 0.613867 2.77556e-16
0.193755 0.606745 2.77556e-16
0.192701 0.6 2.77556e-16
0.189865 0.58 2.22045e-16
0.188225 0.559867 2.22045e-16
0.187733 0.539672 1.52656e-16
0.18835 0.519482 1.11022e-16
0.189981 0.5 1.66533e-16
0.191985 0.484085 1.11022e-16
0.194477 0.468239 1.66533e-16
0.197525 0.452491 1.11022e-16
0.2 0.441792 1.66533e-16
0.202159 0.433433 2.22045e-16
0.204497 0.425123 2.498e-16
0.207016 0.416867 3.05311e-16
0.209716 0.408667 3.33067e-16
0.212789 0.4 3.33067e-16
0.220548 0.38 3.747e-16
0.229484 0.360498 3.747e-16
0.239503 0.341529 3.747e-16
0.250619 0.323181 3.33067e-16
0.267042 0.3 4.16334e-16
0.273633 0.292551 3.33067e-16
0.280445 0.285303 3.33067e-16
0.287471 0.278262 2.77556e-16
0.294716 0.271448 3.33067e-16
0.3 0.266805 3.33067e-16
0.315972 0.253444 3.60822e-16
0.33301 0.241473 2.77556e-16
0.350967 0.230929 2.77556e-16
0.369631 0.221695 3.33067e-16
0.4 0.209157 3.60822e-16
0.406382 0.207326 3.46945e-16
0.412806 0.205649 3.33067e-16
0.419261 0.204098 3.88578e-16
0.425745 0.202669 4.44089e-16
0.439055 0.2 4.44089e-16
0.451244 0.198041 4.94396e-16
0.463493 0.196501 5.27356e-16
0.475787 0.195373 5.55112e-16
0.488111 0.194651 4.996e-16
0.5 0.194339 5.55112e-16
0.52 0.194356 4.71845e-16
0.539973 0.195393 4.996e-16
0.559852 0.197593 5.13478e-16
0.573807 0.2 4.996e-16
0.579046 0.201143 5.55112e-16
0.584265 0.202372 4.44089e-16
0.589463 0.203686 4.44089e-16
0.594639 0.205085 3.88578e-16
0.6 0.206628 4.44089e-16
0.62 0.212975 4.44089e-16
0.639368 0.221049 4.57967e-16
0.657944 0.230806 4.16334e-16
0.675569 0.242193 3.747e-16
0.7 0.262256 4.16334e-16
0.70622 0.269805 4.16334e-16
0.712075 0.277639 4.44089e-16
0.717577 0.285726 4.09395e-16
0.722723 0.294044 3.60822e-16
0.726028 0.3 3.88578e-16
0.736325 0.32 4.44089e-16
0.744829 0.340825 4.23273e-16
0.751879 0.362187 4.26742e-16
0.757647 0.38393 4.57967e-16
0.760995 0.4 4.996e-16
0.764408 0.42 5.55112e-16
0.767115 0.440108 5.55112e-16
0.769281 0.460281 5.55112e-16
0.771095 0.480489 5.27356e-16
0.77239 0.5 4.996e-16
0.773135 0.52 4.44089e-16
0.773333 0.540013 4.71845e-16
0.773173 0.560026 4.71845e-16
0.772738 0.580035 4.16334e-16
0.771927 0.6 5.55112e-16
0.770524 0.62 5.55112e-16
0.768469 0.639943 5.41234e-16
0.765856 0.659822 5.55112e-16
0.762762 0.679631 5.82867e-16
0.758809 0.7 6.66134e-16
0.753895 0.72 6.10623e-16
0.747813 0.739677 6.31439e-16
0.74045 0.75891 6.52256e-16
0.731605 0.777509 5.82867e-16
0.718227 0.8 6.10623e-16
0.714581 0.804478 5.55112e-16
0.71078 0.808824 6.10623e-16
0.706825 0.813031 6.31439e-16
0.702753 0.817124 6.38378e-16
0.7 0.819746 6.66134e-16
0.682528 0.835797 6.38378e-16
0.662786 0.848956 6.50521e-16
0.641324 0.85907 6.60062e-16
0.618982 0.867052 6.93889e-16
0.6 0.872339 6.66134e-16
0.58 0.876624 7.21645e-16
0.55972 0.879281 6.66134e-16
0.539353 0.881171 7.21645e-16
0.518938 0.882424 7.21645e-16
0.5 0.883016 8.32667e-16
0.48 0.882897 7.77156e-16
0.460023 0.881932 8.04912e-16
0.440071 0.880535 8.32667e-16
0.420155 0.878701 8.32667e-16
0.4 0.876381 8.32667e-16
0.38 0.873228 8.88178e-16
0.360115 0.869418 8.46545e-16
0.34034 0.865071 8.04912e-16
0.32068 0.86023 7.91034e-16
0.3 0.854069 7.77156e-16
0.28 0.846557 7.00828e-16
0.260297 0.838299 6.80012e-16
0.240927 0.829284 6.80012e-16
0.222326 0.818777 6.10623e-16
0.2 0.803408 6.66134e-16
0.199241 0.802726 6.66134e-16
0.198484 0.802043 6.66134e-16
0.197729 0.801357 6.66134e-16
0.196976 0.800669 7.21645e-16
0.196249 0.8 6.66134e-16
0.176999 0.782167 7.21645e-16
0.160256 0.761963 6.93889e-16
0.146268 0.739761 6.52256e-16
0.13472 0.716199 5.55112e-16
0.128474 0.7 5.55112e-16
0.122779 0.68221 6.03684e-16
0.118623 0.664 6.10623e-16
0.11532 0.645615 5.55112e-16
0.112701 0.627121 5.82867e-16
0.109833 0.6 6.10623e-16
0.10883 0.58 6.10623e-16
0.108676 0.559975 5.55112e-16
0.109056 0.539954 6.10623e-16
0.109967 0.51995 6.52256e-16
0.1114 0.5 6.93889e-16
0.113523 0.48 7.21645e-16
0.116338 0.460086 7.21645e-16
0.119622 0.440243 7.49401e-16
0.123388 0.420487 7.21645e-16
0.127868 0.4 6.66134e-16
0.133274 0.38 7.21645e-16
0.139313 0.360182 7.07767e-16
0.14595 0.340556 7.21645e-16
0.153223 0.321157 7.21645e-16
0.162524 0.3 7.21645e-16
0.170019 0.285874 7.77156e-16
0.177849 0.271931 8.32667e-16
0.186078 0.25822 7.77156e-16
0.194916 0.244893 7.91034e-16
0.2 0.237974 8.32667e-16
0.205904 0.23038 8.04912e-16
0.212086 0.223009 8.04912e-16
0.218539 0.215874 7.77156e-16
0.225259 0.208991 8.32667e-16
0.234795 0.2 8.32667e-16
0.247836 0.189072 7.77156e-16
0.261494 0.178926 8.18789e-16
0.275711 0.169579 7.77156e-16
0.290396 0.160985 7.21645e-16
0.3 0.155916 6.8695e-16
0.32 0.146069 7.77156e-16
0.340788 0.138018 7.21645e-16
0.362113 0.131522 6.93889e-16
0.383693 0.12593 7.21645e-16
0.4 0.122495 6.66134e-16
0.42 0.119063 6.10623e-16
0.440162 0.116762 6.38378e-16
0.460381 0.115037 6.66134e-16
0.48064 0.113878 6.66134e-16
0.5 0.113298 6.93889e-16
0.52 0.11349 6.66134e-16
0.539978 0.114451 6.38378e-16
0.559922 0.115961 7.77156e-16
0.579815 0.118029 7.77156e-16
0.6 0.120704 8.32667e-16
0.62 0.124691 7.56339e-16
0.639786 0.129631 8.04912e-16
0.659333 0.135446 8.32667e-16
0.6786 0.14213 8.18789e-16
0.7 0.151934 7.63278e-16
0.714847 0.161547 7.49401e-16
0.728978 0.172185 7.5287e-16
0.74233 0.183784 7.21645e-16
0.754132 0.196958 7.49401e-16
0.756261 0.2 7.21645e-16
0.765009 0.213136 7.21645e-16
0.772654 0.226943 7.21645e-16
0.779367 0.241227 6.93889e-16
0.785051 0.25595 6.10623e-16
0.799148 0.3 6.10623e-16
0.799318 0.300923 5.55112e-16
0.799487 0.301846 4.996e-16
0.799655 0.302769 4.996e-16
0.799821 0.303692 4.996e-16
0.8 0.3047 5.13478e-16
0.80336 0.32376 4.996e-16
0.806145 0.342913 4.996e-16
0.808444 0.36213 4.996e-16
0.81033 0.381391 5.55112e-16
0.811806 0.4 5.55112e-16
0.813249 0.42 4.71845e-16
0.814512 0.440012 4.996e-16
0.815482 0.460041 5.13478e-16
0.816177 0.48008 4.996e-16
[...]
POINT_DATA 12676
 FIELD attributes 1
U 3 12676 float
2.54461e-19 	-4.41348e-18 	-2.35305e-36
0.00280397 	-0.00887791 	0 0.00328569 	-0.00882336 	0 0.00370902 	-0.0086508 	4.61533e-23 0.0041097 	-0.00842987 	1.0471e-22 0.0044989 	-0.0081838 	1.64335e-22 0.00451723 	-0.00817061 	1.67282e-22 0.00587357 	-0.00741581 	2.21382e-22 0.00713295 	-0.00644399 	2.4392e-22 0.00825996 	-0.00527999 	2.34011e-22 0.00896374 	-0.00386883 	2.89812e-22 0.0104422 	0.00105047 	4.41133e-22 0.0101389 	0.00312838 	3.39336e-22 0.00951342 	0.00515627 	2.23101e-22 0.00866546 	0.00707662 	9.70776e-23 0.00758426 	0.00885016 	0 0.00470151 	0.012278 	0 0.00420261 	0.01269 	0 0.00369768 	0.0130673 	0 0.00318796 	0.0134107 	0 0.00267626 	0.0136898 	3.61206e-23 0.0022341 	0.013834 	1.49397e-22 0.000742925 	0.0143934 	0 -0.000878418 	0.0145208 	0 -0.00251029 	0.0143689 	0 -0.00413215 	0.0139382 	0 -0.00569094 	0.0131486 	9.06725e-24 -0.0058177 	0.0130715 	3.06392e-24 -0.0059425 	0.0129799 	0 -0.00606524 	0.0128734 	0 -0.0061877 	0.0127653 	0 -0.00628285 	0.0126797 	0 -0.0079491 	0.0114614 	0 -0.00957863 	0.0100345 	0 -0.0111308 	0.00841899 	0 -0.0123721 	0.00671643 	0 -0.0150524 	0.00195039 	0 -0.0151575 	0.00145874 	-6.65489e-23 -0.0151917 	0.00101049 	-2.18561e-22 -0.0152139 	0.000559633 	-3.66807e-22 -0.015224 	0.00010654 	-5.11141e-22 -0.0151773 	-0.00608749 	-2.41974e-21 -0.0142061 	-0.00767489 	-2.2678e-21 -0.0130878 	-0.00924676 	-1.98668e-21 -0.0118609 	-0.010811 	-1.50818e-21 -0.0103164 	-0.0122042 	-1.29682e-21 -0.00684319 	-0.0146785 	-1.04585e-21 -0.00648461 	-0.0149383 	-7.39165e-22 -0.00612436 	-0.0151914 	-4.35569e-22 -0.00576273 	-0.0154379 	-1.35232e-22 -0.00538902 	-0.0155922 	-1.02703e-22 -0.00504669 	-0.0156619 	-2.69139e-22 -0.00342515 	-0.0167436 	0 -0.00170499 	-0.0173284 	0 1.2597e-05 	-0.0177387 	0 0.00165415 	-0.0178333 	-5.3056e-23 0.0028046 	-0.0172782 	-2.79937e-22 0.004174 	-0.0175473 	1.1365e-23 0.00544967 	-0.0169992 	8.69518e-23 0.00669532 	-0.0163357 	1.65882e-22 0.0075526 	-0.0157834 	2.24029e-22 0.00797177 	-0.0155816 	2.32972e-22 0.00838945 	-0.0153721 	2.41238e-22 0.00880533 	-0.015155 	2.48818e-22 0.0091733 	-0.0148444 	2.9803e-22 0.00956404 	-0.0144265 	3.79916e-22 0.0111366 	-0.0134777 	7.2047e-22 0.0126325 	-0.0123789 	1.04942e-21 0.0137466 	-0.0109419 	1.30605e-21 0.0144402 	-0.00916462 	1.48221e-21 0.015023 	-0.00727292 	1.63914e-21 0.0153984 	-0.00673254 	1.75161e-21 0.0156843 	-0.00618224 	1.78823e-21 0.0158228 	-0.00562019 	1.69408e-21 0.0159545 	-0.0050544 	1.60153e-21 0.0162191 	-0.00384708 	1.40876e-21 0.0164396 	-0.003026 	1.3259e-21 0.0166313 	-0.00219649 	1.23764e-21 0.0167937 	-0.00136068 	1.14422e-21 0.0169266 	-0.000520761 	1.04591e-21 0.0167888 	0.000231434 	8.60352e-22 0.0167306 	0.00172931 	6.51449e-22 0.0162969 	0.00338717 	4.91792e-22 0.0157522 	0.00506019 	3.52954e-22 0.0156364 	0.00535598 	3.32469e-22 0.0154347 	0.00600035 	2.43199e-22 0.0152248 	0.0066406 	1.52221e-22 0.0150071 	0.00727572 	5.9696e-23 0.0147 	0.00795003 	0 0.0141571 	0.00882989 	0 0.0132206 	0.0111973 	0 0.0121597 	0.0134384 	0 0.0107874 	0.0154804 	2.8339e-22 0.00909659 	0.01729 	8.89466e-22 0.00751319 	0.0187583 	1.42837e-21 0.00679682 	0.0196323 	1.30307e-21 0.00609096 	0.0203437 	1.3009e-21 0.00539486 	0.0209258 	1.38879e-21 0.00470414 	0.0214725 	1.46082e-21 0.00270894 	0.0229657 	1.62659e-21 0.00250447 	0.023109 	1.62926e-21 0.00230044 	0.0232484 	1.63087e-21 0.00209686 	0.0233839 	1.63144e-21 0.00189374 	0.0235155 	1.63098e-21 0.00170971 	0.023564 	1.59872e-21 0.000636896 	0.0237053 	1.4633e-21 -0.000478908 	0.023659 	1.22747e-21 -0.00160275 	0.023504 	9.49817e-22 -0.00273221 	0.0232388 	6.30325e-22 -0.00374831 	0.0229005 	3.05947e-22 -0.00377158 	0.0228928 	2.9945e-22 -0.00379484 	0.022885 	2.92946e-22 -0.0038181 	0.0228771 	2.86434e-22 -0.00384136 	0.0228693 	2.79916e-22 -0.00386824 	0.0228556 	2.78686e-22 -0.00505076 	0.0218872 	1.31075e-22 -0.00626459 	0.0208331 	-1.37426e-23 -0.00751744 	0.0196996 	-1.53007e-22 -0.00880732 	0.0184836 	-2.85418e-22 -0.0103344 	0.0165455 	-3.44621e-22 -0.0122629 	0.0147984 	-1.80504e-22 -0.014171 	0.0129011 	-1.27976e-23 -0.0154068 	0.0107653 	0 -0.0165164 	0.00854527 	0 -0.0167061 	0.00812214 	0 -0.0177526 	0.00698956 	0 -0.0185793 	0.00592702 	0 -0.0190256 	0.00498983 	0 -0.0194646 	0.00406012 	0 -0.0209188 	0.000806908 	0 -0.0209531 	0.000365355 	-2.61345e-22 -0.0209225 	-4.82542e-05 	-5.75945e-22 -0.0208896 	-0.000463171 	-8.84486e-22 -0.0208543 	-0.00087924 	-1.18681e-21 -0.0203675 	-0.00455916 	-3.87717e-21 -0.019833 	-0.00561525 	-5.37886e-21 -0.0191097 	-0.00660066 	-6.56505e-21 -0.0183905 	-0.00761833 	-7.8264e-21 -0.0174387 	-0.00866544 	-8.43906e-21 -0.0154372 	-0.00995086 	-6.62208e-21 -0.0145741 	-0.011336 	-7.71442e-21 -0.0136194 	-0.0127125 	-8.53502e-21 -0.0118443 	-0.0137351 	-6.7448e-21 -0.0100325 	-0.0147442 	-4.7831e-21 -0.00978151 	-0.0148792 	-4.49221e-21 -0.0090183 	-0.0157119 	-3.57046e-21 -0.00826288 	-0.0165459 	-2.62276e-21 -0.00746642 	-0.0169798 	-2.8876e-21 -0.0066814 	-0.017418 	-3.11252e-21 -0.00484884 	-0.0184656 	-3.55214e-21 -0.00440173 	-0.018796 	-3.59347e-21 -0.0039589 	-0.0191217 	-3.62216e-21 -0.00352049 	-0.0194425 	-3.63861e-21 -0.00308665 	-0.0197585 	-3.6432e-21 -0.00277744 	-0.019586 	-3.43855e-21 -0.0016586 	-0.0203704 	-3.51221e-21 -0.000502932 	-0.0206288 	-3.27489e-21 0.000637316 	-0.0208453 	-2.95803e-21 0.00175916 	-0.0210205 	-2.56529e-21 0.00256818 	-0.0203971 	-1.60684e-21 0.00324902 	-0.0206581 	-1.10142e-21 0.00392326 	-0.0202723 	-9.42318e-22 0.00459815 	-0.0198744 	-7.93346e-22 0.00506007 	-0.0195938 	-6.98625e-22 0.00546818 	-0.0194322 	-5.5901e-22 0.00587958 	-0.0192722 	-4.17121e-22 0.00629411 	-0.019114 	-2.73e-22 0.00670773 	-0.0189199 	-1.38445e-22 0.00711217 	-0.0183328 	-1.1179e-22 0.00828947 	-0.0180909 	-1.01517e-22 0.00916962 	-0.0173608 	-6.2415e-23 0.0100839 	-0.0166439 	-1.97481e-23 0.0107276 	-0.0151421 	2.63891e-22 0.0116163 	-0.0131267 	6.71365e-22 0.0120546 	-0.0128261 	7.48249e-22 0.0124987 	-0.0125267 	8.27552e-22 0.0128065 	-0.0120435 	9.046e-22 0.0130449 	-0.0114644 	9.81639e-22 0.0132174 	-0.0110569 	1.03787e-21 0.0142782 	-0.0100322 	1.4842e-21 0.0154 	-0.00904228 	1.96072e-21 0.0160786 	-0.00795492 	1.94305e-21 0.0166018 	-0.00685409 	1.74138e-21 0.0171864 	-0.00493205 	1.29165e-21 0.0175007 	-0.00456765 	1.30705e-21 0.0175921 	-0.00422684 	1.2367e-21 0.0176567 	-0.00389003 	1.1569e-21 0.0177238 	-0.00355441 	1.07906e-21 0.0178659 	-0.00287084 	9.23982e-22 0.0180577 	-0.00227127 	7.9295e-22 0.0182459 	-0.00167399 	6.68422e-22 0.0184305 	-0.00107962 	5.5043e-22 0.0186113 	-0.000488785 	4.38978e-22 0.0184931 	1.63707e-05 	4.08022e-22 0.0185062 	0.000960252 	3.21597e-22 0.0181804 	0.00201216 	2.39694e-22 0.017837 	0.00307665 	1.63233e-22 0.0175817 	0.0038369 	1.13287e-22 0.0175183 	0.0041248 	8.56847e-23 0.0174565 	0.0044129 	5.77964e-23 0.0173964 	0.00470111 	2.96295e-23 0.0173379 	0.00498937 	1.19206e-24 0.0170357 	0.00540661 	0 0.016427 	0.0068476 	6.21065e-23 0.0156246 	0.00820734 	1.61958e-22 0.0148892 	0.009619 	2.3992e-22 0.0136576 	0.0112157 	6.39786e-22 0.0113853 	0.0138183 	1.54193e-21 0.0109633 	0.0146685 	1.8859e-21 0.010555 	0.0155137 	2.21743e-21 0.0100949 	0.0163202 	2.46844e-21 0.00944734 	0.01702 	2.49711e-21 0.00900996 	0.0175012 	2.50938e-21 0.0081095 	0.0198588 	3.21178e-21 0.00732561 	0.0221977 	3.89473e-21 0.00628053 	0.0236746 	3.94178e-21 0.00510427 	0.0244991 	3.4841e-21 0.0042743 	0.0250475 	3.12662e-21 0.00359382 	0.0266898 	3.30426e-21 0.00300485 	0.0279929 	3.34935e-21 0.0025714 	0.028637 	3.13584e-21 0.00191387 	0.0288384 	2.84499e-21 0.00106535 	0.0285979 	2.48869e-21 0.000290102 	0.0294174 	2.87122e-21 -0.000235547 	0.0295538 	2.70436e-21 -0.000638427 	0.0293503 	2.26833e-21 -0.00117122 	0.0288215 	1.60946e-21 -0.00194202 	0.0276951 	5.36054e-22 -0.00284292 	0.0275888 	-4.60255e-22 -0.00355444 	0.0270338 	-1.13512e-21 -0.00406303 	0.0260152 	-1.47101e-21 -0.00473089 	0.0243817 	-1.12241e-21 -0.00551324 	0.0224357 	-5.05098e-22 -0.00660061 	0.021357 	-3.03059e-22 -0.00774398 	0.0202275 	-1.04286e-22 -0.00885004 	0.01861 	1.6844e-22 -0.0097287 	0.0163552 	5.90457e-22 -0.0109867 	0.0134959 	1.08755e-21 -0.0113948 	0.013029 	1.26716e-21 -0.0118121 	0.0125658 	1.43922e-21 -0.0120256 	0.0120846 	1.31078e-21 -0.0121786 	0.0116002 	1.08352e-21 -0.0122832 	0.011284 	9.29942e-22 -0.0140535 	0.00936743 	6.04982e-22 -0.0160971 	0.00758577 	2.37807e-22 -0.0173052 	0.00618218 	3.66511e-24 -0.0171631 	0.00478121 	0 -0.0170494 	0.00365231 	0 -0.0188639 	0.00247117 	0 -0.0192683 	0.00178835 	0 -0.0194915 	0.00119655 	0 -0.0197737 	0.000618159 	0 -0.0189591 	-0.000113141 	0 -0.0200887 	-0.000970149 	-4.31236e-23 -0.0199748 	-0.00139845 	-3.26161e-22 -0.0199057 	-0.00183274 	-6.02385e-22 -0.0197999 	-0.00227992 	-9.16613e-22 -0.0182089 	-0.00287071 	-2.06747e-21 -0.0189574 	-0.00363138 	-3.4411e-21 -0.019096 	-0.00419808 	-4.33444e-21 -0.0188354 	-0.00463814 	-4.91197e-21 -0.0173453 	-0.00516747 	-5.00658e-21 -0.0154291 	-0.00579498 	-5.00446e-21 -0.015553 	-0.00651884 	-5.25839e-21 -0.0156276 	-0.00727322 	-5.50446e-21 -0.0142998 	-0.00807766 	-4.88999e-21 -0.0129846 	-0.00893825 	-4.33034e-21 -0.011195 	-0.010056 	-3.67385e-21 -0.0111816 	-0.0100982 	-3.65328e-21 -0.0111683 	-0.0101404 	-3.63285e-21 -0.0111288 	-0.0101691 	-3.62378e-21 -0.0110743 	-0.0101899 	-3.62134e-21 -0.0110216 	-0.0102103 	-3.61915e-21 -0.00959313 	-0.011576 	-2.22477e-21 -0.00831428 	-0.0131965 	-8.35457e-22 -0.00697678 	-0.0142352 	-7.95614e-22 -0.00553916 	-0.0143669 	-2.60994e-21 -0.00463946 	-0.0144929 	-3.86679e-21 -0.00366098 	-0.0160423 	-4.88632e-21 -0.00297453 	-0.0165544 	-5.46759e-21 -0.0023825 	-0.0168254 	-5.94687e-21 -0.00181456 	-0.0171578 	-6.45212e-21 -0.000861469 	-0.0171796 	-6.53508e-21 -0.000137145 	-0.0178291 	-6.27959e-21 0.000338163 	-0.017827 	-5.53533e-21 0.000814721 	-0.0178806 	-4.79834e-21 0.00129219 	-0.0179897 	-4.06911e-21 0.00184616 	-0.017399 	-2.99473e-21 0.00252938 	-0.0178939 	-2.15532e-21 0.00292591 	-0.0176769 	-1.50978e-21 0.00333848 	-0.0175121 	-8.48979e-22 0.00376508 	-0.0172172 	-2.70592e-22 0.00421117 	-0.0155795 	-3.89673e-22 0.00485351 	-0.0159278 	-5.219e-22 0.00550489 	-0.0162787 	-6.47619e-22 0.00591901 	-0.0157873 	-6.44625e-22 0.00628486 	-0.0142962 	-4.66984e-22 0.00675297 	-0.012727 	-2.66635e-22 0.00712618 	-0.012691 	-1.78489e-22 0.00749326 	-0.0124846 	-9.51844e-23 0.00781817 	-0.0117895 	-2.64639e-23 0.00817307 	-0.011122 	4.35647e-23 0.00838044 	-0.0107802 	8.18318e-23 0.00875072 	-0.0104347 	1.55007e-22 0.00914087 	-0.0101058 	2.30051e-22 0.00950956 	-0.00974049 	3.0555e-22 0.00972921 	-0.00917285 	3.77292e-22 0.0100562 	-0.00842686 	4.77388e-22 0.0106219 	-0.00789037 	5.39075e-22 0.0112291 	-0.00738295 	6.09408e-22 0.0117272 	-0.00686292 	6.69991e-22 0.0118456 	-0.00625222 	6.87584e-22 0.0119426 	-0.00587976 	7.03135e-22 0.013074 	-0.00506363 	6.81543e-22 0.0142158 	-0.00433072 	6.65438e-22 0.0144452 	-0.0037429 	5.74532e-22 0.0144069 	-0.00303465 	4.89245e-22 0.0142371 	-0.00244346 	4.31067e-22 0.0153367 	-0.00175003 	1.19798e-22 0.0153942 	-0.00131353 	8.46844e-23 0.0155047 	-0.000886661 	4.83274e-23 0.0156671 	-0.000469597 	1.0777e-23 0.0152035 	0.00014633 	5.75144e-23 0.0156903 	0.000754778 	0 0.015532 	0.00117585 	0 0.015426 	0.00160348 	0 0.0153734 	0.00203747 	0 0.0141948 	0.00282963 	0 0.0144733 	0.00361348 	0 0.014325 	0.00426158 	0 0.0140456 	0.00487253 	0 0.0127105 	0.00582298 	1.83273e-22 0.0109759 	0.00710687 	4.59141e-22 0.0106727 	0.00803418 	4.12872e-22 0.0103782 	0.00901548 	4.03793e-22 0.00916252 	0.0102283 	8.5647e-22 0.00805003 	0.0114993 	1.33723e-21 0.00784064 	0.0117739 	1.44232e-21 0.0073417 	0.0132581 	2.09559e-21 0.00694077 	0.0147689 	2.76684e-21 0.00621287 	0.0160937 	3.02449e-21 0.00557734 	0.0174281 	3.29475e-21 0.00393976 	0.0213306 	4.10671e-21 0.00391848 	0.0214167 	4.12627e-21 0.0038943 	0.0214786 	4.12396e-21 0.00387023 	0.0215405 	4.12165e-21 0.00384626 	0.0216025 	4.11935e-21 0.00382021 	0.02167 	4.11685e-21 0.00335077 	0.0230432 	4.13181e-21 0.00291852 	0.0243918 	4.13816e-21 0.00251787 	0.0257186 	4.13726e-21 0.00214425 	0.0270264 	4.13021e-21 0.00199773 	0.0277069 	3.85214e-21 0.00183506 	0.0290671 	3.7848e-21 0.00144011 	0.029732 	3.56897e-21 0.0010538 	0.0303788 	3.35159e-21 0.000675649 	0.0310086 	3.13282e-21 0.000637337 	0.0306313 	2.50181e-21 0.000581012 	0.0314499 	2.29119e-21 0.00018352 	0.0312737 	1.84867e-21 -0.000216537 	0.0310815 	1.40764e-21 -0.000619142 	0.0308729 	9.68215e-22 -0.00067959 	0.0296068 	6.0593e-22 -0.000778829 	0.0295183 	3.8625e-22 -0.00118172 	0.0285131 	1.58713e-22 -0.00159884 	0.0274916 	-6.83126e-23 -0.0020316 	0.0264522 	-2.94713e-22 -0.00225897 	0.024703 	-3.74196e-22 -0.00252196 	0.0235115 	-1.82215e-22 -0.00295088 	0.0218039 	3.04645e-22 -0.0034216 	0.0200789 	7.97079e-22 -0.00394359 	0.018334 	1.29589e-21 -0.00427914 	0.0173216 	1.58584e-21 -0.00434153 	0.017168 	1.62182e-21 -0.00440475 	0.0170145 	1.65762e-21 -0.00446881 	0.0168611 	1.69322e-21 -0.0045336 	0.0167071 	1.72872e-21 -0.00458832 	0.0164967 	1.77433e-21 -0.00521307 	0.0145294 	2.09941e-21 -0.00593042 	0.0125307 	2.36934e-21 -0.00685178 	0.0105813 	2.71125e-21 -0.00766549 	0.00868898 	2.63563e-21 -0.00836665 	0.00586217 	1.30608e-21 -0.00890015 	0.00518186 	1.06478e-21 -0.00948274 	0.0045579 	8.39771e-22 -0.0101079 	0.00399116 	6.31602e-22 -0.00942097 	0.00396797 	6.87158e-22 -0.00897344 	0.0039453 	7.20338e-22 -0.010504 	0.00275309 	4.52577e-22 -0.0122265 	0.00172797 	2.04533e-22 -0.0128499 	0.00105728 	0 -0.0108691 	0.00123689 	0 -0.00938185 	0.00135274 	0 -0.0114322 	0.000675186 	0 -0.0137852 	3.29115e-05 	0 -0.0139557 	-0.000295307 	0 -0.0118725 	-0.000225574 	0 -0.00986236 	-0.000158418 	0 -0.0119179 	-0.000492756 	0 -0.0140657 	-0.000828356 	0 -0.0141247 	-0.00115327 	-2.30303e-22 -0.0122067 	-0.0012724 	-5.51327e-22 -0.0103513 	-0.00140334 	-8.81916e-22 -0.0120583 	-0.00148973 	-6.24541e-22 -0.0132957 	-0.0016225 	-4.84211e-22 -0.0127891 	-0.00196463 	-8.32718e-22 -0.0117125 	-0.00231641 	-1.35626e-21 -0.0103369 	-0.00269345 	-2.00625e-21 -0.01155 	-0.00265825 	-1.60471e-21 -0.0109126 	-0.00298937 	-1.47655e-21 -0.010273 	-0.00337761 	-1.39504e-21 -0.00971365 	-0.00381681 	-1.3572e-21 -0.00944495 	-0.00410182 	-1.36386e-21 -0.00941334 	-0.00415948 	-1.38343e-21 -0.00938288 	-0.00421782 	-1.40376e-21 -0.00935356 	-0.00427685 	-1.42486e-21 -0.00925135 	-0.00433764 	-1.40005e-21 -0.00907826 	-0.00440233 	-1.3318e-21 -0.00844459 	-0.00496213 	-8.11309e-22 -0.00785252 	-0.00560394 	-4.38139e-22 -0.00737969 	-0.00636628 	-5.78573e-23 -0.0062673 	-0.00684637 	0 -0.0043987 	-0.00779478 	0 -0.00431725 	-0.00793464 	0 -0.00423929 	-0.00807804 	0 -0.00416472 	-0.00822487 	0 -0.00413007 	-0.0081048 	0 -0.00410656 	-0.00792474 	0 -0.00315324 	-0.00894827 	0 -0.00243106 	-0.00973533 	-4.91036e-22 -0.00181779 	-0.0106152 	-1.09879e-21 -0.00183245 	-0.00939682 	-1.78079e-21 -0.00188585 	-0.0083208 	-2.21931e-21 -0.00116308 	-0.00993033 	-4.46284e-21 -0.000497259 	-0.0118795 	-6.83032e-21 -0.000179823 	-0.0120115 	-7.06495e-21 -0.000256748 	-0.0102783 	-5.2267e-21 -0.000325485 	-0.00867147 	-3.54297e-21 0.000111697 	-0.0104663 	-4.93656e-21 0.000543044 	-0.0124252 	-6.39766e-21 0.000814355 	-0.012579 	-6.0238e-21 0.000879497 	-0.0108934 	-3.88146e-21 0.00095037 	-0.00925809 	-1.74425e-21 0.00112694 	-0.0107874 	-1.17065e-21 0.00130411 	-0.0123225 	-5.98322e-22 0.00164248 	-0.0120897 	-1.25464e-22 0.0018893 	-0.0108324 	-2.05589e-22 0.00215711 	-0.00962558 	-3.17213e-22 0.00214646 	-0.0106537 	-7.23057e-22 0.00230163 	-0.0106582 	-8.42321e-22 0.00256639 	-0.0101668 	-8.02868e-22 0.00286068 	-0.00973892 	-7.53914e-22 0.00326428 	-0.00919899 	-5.16345e-22 0.00324085 	-0.00933528 	-5.22107e-22 0.00327279 	-0.00929628 	-5.09179e-22 0.00333149 	-0.00918186 	-4.88008e-22 0.00339264 	-0.00907149 	-4.67012e-22 0.00345383 	-0.00896948 	-4.47015e-22 0.00369029 	-0.00865344 	-3.55124e-22 0.00395708 	-0.00837958 	-2.62258e-22 0.00425601 	-0.0081513 	-1.68479e-22 0.00454979 	-0.00765691 	-8.35233e-23 0.00489701 	-0.00669477 	4.63213e-24 0.00521039 	-0.00639376 	2.49908e-23 0.00558416 	-0.00614719 	4.8482e-23 0.00584543 	-0.00556398 	7.53217e-23 0.00616678 	-0.00501202 	1.06325e-22 0.00634106 	-0.00481217 	1.2147e-22 0.00670216 	-0.00454818 	1.5335e-22 0.00709378 	-0.00430763 	1.87018e-22 0.00725346 	-0.00401482 	1.9065e-22 0.00738509 	-0.00372633 	1.89461e-22 0.00767895 	-0.00321615 	1.90147e-22 0.0079298 	-0.00300573 	1.93658e-22 0.008204 	-0.00281133 	1.98859e-22 0.0084998 	-0.00263215 	2.05637e-22 0.00851369 	-0.00254442 	2.19409e-22 0.00814186 	-0.0025703 	2.39259e-22 0.0090075 	-0.00199153 	1.62192e-22 0.00962264 	-0.00152087 	1.11229e-22 0.01013 	-0.00111804 	7.52565e-23 0.0094459 	-0.0010679 	9.30209e-23 0.00843906 	-0.00112837 	1.24336e-22 0.00968592 	-0.000730682 	7.97607e-23 0.0110967 	-0.000351514 	3.7221e-23 0.0112256 	1.77695e-05 	0 0.00987883 	5.85569e-05 	0 0.00858749 	9.81835e-05 	0 0.00995426 	0.000297005 	0 0.0113745 	0.000496368 	0 0.0112331 	0.000908949 	0 0.00989083 	0.00115718 	0 0.00861635 	0.00142048 	0 0.00982044 	0.00147129 	0 0.0101721 	0.00171513 	0 0.0095851 	0.00220861 	0 0.00902364 	0.00274781 	0 0.00805138 	0.00337504 	0 0.00835739 	0.00340618 	0 0.00831473 	0.00356263 	0 0.00796562 	0.00384494 	0 0.00763603 	0.00414629 	0 0.00741623 	0.00437525 	0 0.00700339 	0.00508513 	0 0.00670113 	0.00587382 	0 0.00650817 	0.00673179 	0 0.00560802 	0.00780458 	3.68275e-22 0.00399296 	0.0101887 	1.18326e-21 0.0038228 	0.0107996 	1.26755e-21 0.00367425 	0.0114165 	1.35822e-21 0.00354456 	0.012038 	1.45432e-21 0.00339455 	0.0126585 	1.61791e-21 0.00320969 	0.0132124 	1.879e-21 0.00274541 	0.0153439 	2.65381e-21 0.00232546 	0.0171245 	3.17964e-21 0.00198138 	0.0188887 	3.69194e-21 0.00173933 	0.0204654 	4.068e-21 0.00165188 	0.0215276 	4.13245e-21 0.00157985 	0.0237381 	4.38519e-21 0.00136757 	0.0254715 	4.49275e-21 0.00103816 	0.0267844 	4.47241e-21 0.000921043 	0.0275144 	4.17987e-21 0.000954014 	0.0278141 	3.68979e-21 0.00096536 	0.0295619 	3.71276e-21 0.000853547 	0.0309498 	3.65845e-21 0.000480398 	0.0315695 	3.43941e-21 0.000405824 	0.0313021 	2.85508e-21 0.000443786 	0.0306997 	2.13234e-21 0.00044977 	0.0316955 	1.96584e-21 0.000363187 	0.0324215 	1.73632e-21 -3.57477e-05 	0.032236 	1.2947e-21 -0.000118735 	0.0310726 	9.24131e-22 -0.000116272 	0.0296462 	5.72766e-22 -0.000142327 	0.029746 	3.54043e-22 -0.000249687 	0.0296003 	1.3321e-22 -0.000635399 	0.0286151 	-9.48096e-23 -0.000766815 	0.0267996 	-1.47314e-22 -0.000821275 	0.0247225 	-1.45218e-22 -0.000900527 	0.0239124 	-1.60308e-22 -0.00106735 	0.0228115 	-8.66426e-24 -0.00140317 	0.0211524 	4.63101e-22 -0.00164059 	0.0190448 	9.77234e-22 -0.00181525 	0.0165927 	1.52642e-21 -0.00204047 	0.0150247 	2.39845e-21 -0.00225484 	0.0131598 	2.59185e-21 -0.00250493 	0.0111664 	2.47876e-21 -0.00284195 	0.00917315 	2.33218e-21 -0.003374 	0.0068613 	1.70385e-21 -0.00353977 	0.00648172 	1.61638e-21 -0.00362706 	0.0061688 	1.55153e-21 -0.00355827 	0.00596735 	1.52331e-21 -0.00349101 	0.00576749 	1.49577e-21 -0.00345721 	0.00566539 	1.48195e-21 -0.00375126 	0.00417505 	1.00469e-21 -0.00441316 	0.00272929 	5.14352e-22 -0.00559615 	0.00144779 	3.64166e-23 -0.00511784 	0.00121518 	-2.26005e-36 -0.00309539 	0.00136093 	2.48481e-22 -0.00402555 	0.000636383 	8.57525e-23 -0.00469645 	0.000264758 	0 -0.00451462 	0.000254507 	0 -0.00433279 	0.000244257 	0 -0.00250481 	0.000361161 	0 -0.00356962 	-7.9254e-05 	0 -0.00370079 	-8.21662e-05 	0 -0.00383196 	-8.50785e-05 	0 -0.00396313 	-8.79908e-05 	0 -0.00259243 	-4.1642e-05 	0 -0.00407951 	-0.000281026 	0 -0.00447157 	-0.000308035 	0 -0.00486364 	-0.000335043 	0 -0.0052557 	-0.000362051 	0 -0.00346226 	-0.000469385 	-2.94981e-22 -0.00516929 	-0.000555776 	-3.76052e-23 -0.00583509 	-0.000612075 	0 -0.00633283 	-0.000664286 	0 -0.00595171 	-0.000822655 	-2.47294e-22 -0.00442492 	-0.00115299 	-8.5882e-22 -0.00563802 	-0.00111779 	-4.57274e-