/*--------------------------------*- C++ -*----------------------------------*\
| =========                 |                                                 |
| \\      /  F ield         | OpenFOAM: The Open Source CFD Toolbox           |
|  \\    /   O peration     | Version:  v1912                                 |
|   \\  /    A nd           | Website:  www.openfoam.com                      |
|    \\/     M anipulation  |                                                 |
\*---------------------------------------------------------------------------*/
FoamFile
{
    version     2.0;
    format      ascii;
    class       volScalarField;
    location    "0.75";
    object      p;
}
// * * * * * * * * * * * * * * * * * * * * * * * * * * * * * * * * * * * * * //

dimensions      [0 2 -2 0 0 0 0];


internalField   nonuniform List<scalar> 
5794
(
91.7711
93.5221
90.0908
92.3626
92.7524
92.1942
89.1574
90.7202
88.6726
94.1031
124.171
88.6475
87.1212
91.5392
94.9364
93.3825
37.8479
92.4777
95.0164
93.7671
91.846
91.7715
88.0138
93.0598
89.9224
44.7967
43.6931
93.491
90.6285
94.3095
91.4399
86.3004
104.436
93.1303
89.0033
87.8873
97.3634
89.6649
87.3323
91.1182
90.7631
93.1212
115.392
89.9535
95.048
105.75
87.7791
90.3075
94.0281
90.1375
93.3458
82.5634
89.6971
94.0668
94.2129
108.007
89.5672
88.9998
115.56
39.9725
103.022
93.9637
90.9137
86.1257
103.997
93.8964
89.8818
90.0437
92.31
94.0139
81.7557
90.2141
19.7619
90.4696
92.0055
93.4758
91.9277
50.7788
90.3389
93.6823
91.4395
93.4912
90.5775
88.4632
90.7124
91.7678
86.1165
109.823
92.756
89.2367
112.975
88.913
89.9614
91.5276
92.3387
81.474
108.746
90.796
89.1612
103.932
80.0282
87.0222
115.56
93.3604
95.4002
90.2524
93.9707
125.424
80.9044
90.8738
93.5375
95.1385
73.7407
93.7285
91.8353
89.9175
94.6236
90.7172
102.166
91.3954
90.5451
94.0307
90.7179
93.4085
95.0721
122.183
89.1416
92.5571
84.4436
123.981
92.157
90.019
87.6361
54.9997
90.4947
94.868
115.511
94.0179
93.446
93.5487
90.8093
94.6267
95.1769
94.8992
93.4346
51.3051
91.3079
113.494
93.2714
95.5073
120.208
94.123
90.5661
90.4466
46.7885
86.776
89.1948
91.1026
105.289
90.9944
94.8822
90.2554
93.5259
88.2
80.8829
82.5369
88.8231
90.9836
93.5766
95.0868
94.6505
82.1567
88.1143
89.8901
93.0959
88.0398
94.8413
89.6306
93.3265
84.8552
92.0088
88.2278
89.7914
106.342
89.4487
45.58
86.7497
105.283
94.0694
87.1281
123.906
86.5798
104.453
91.8768
90.4282
92.2185
90.6474
93.5921
95.1377
113.788
88.5828
81.7561
91.3532
90.2433
87.3407
105.385
91.9412
125.699
86.0724
87.9495
91.8032
96.44
88.1655
90.0749
92.8906
89.1889
87.9184
88.2904
124.556
97.1162
96.532
85.3593
111.632
90.1939
110.379
39.2532
90.2895
93.9475
93.645
94.729
88.2656
90.2692
92.6923
81.529
89.1005
51.5599
69.5589
118.101
87.3708
91.4224
93.382
125.775
91.4194
91.0645
89.8499
93.534
95.1551
93.3895
109.779
91.2023
89.1579
93.8
43.4062
93.6682
118.569
86.1433
114.485
114.487
125.744
95.0207
115.961
88.3873
90.592
93.8794
88.7265
91.1779
95.4554
121.621
94.9747
104.817
86.7969
91.5868
91.2537
80.9083
97.8581
94.7694
94.034
90.5762
94.1976
86.4984
93.6467
104.125
91.045
92.9148
90.5758
90.5387
88.6552
92.8465
87.1166
90.5719
87.9511
89.3894
92.7469
94.0161
111.501
54.145
91.069
92.9714
88.9053
93.8399
93.5555
80.2758
91.4321
90.3073
89.7939
120.036
94.1962
90.7018
104.104
86.2335
91.6587
104.693
90.9636
93.7446
97.2822
99.3007
125.372
93.4599
80.7979
91.6806
90.2178
89.217
90.5182
92.9683
93.3657
84.7754
90.1735
90.1839
88.7253
124.42
82.6971
116.689
91.5542
104.838
86.4636
94.1131
94.0508
93.5762
94.0489
105.533
93.1568
89.867
87.2495
87.8412
94.7918
89.4743
108.458
89.4675
83.2507
89.3181
86.5786
53.0676
104.936
87.2086
90.8111
42.1954
95.2084
83.7321
88.8859
90.7725
125.606
87.8494
116.517
88.84
90.7784
93.5369
81.6867
106.54
88.3613
89.7791
94.2697
93.8733
93.5252
94.3816
125.316
80.8467
108.246
89.0581
90.433
94.2163
90.7719
94.2981
97.6837
87.9537
89.2488
93.3335
90.2857
88.7475
90.5409
89.163
90.8104
88.5802
93.9739
93.6257
88.2375
90.1872
92.9528
89.5407
94.8692
88.2871
93.0671
89.4798
48.5193
93.5209
95.1912
119.435
89.5161
92.094
93.9209
109.393
90.3051
88.2439
123.308
82.3288
105.073
86.9782
91.6365
93.8201
81.1001
108.958
89.096
90.807
124.956
94.232
88.0039
89.604
93.3365
93.7392
93.5352
91.5888
82.2982
97.6872
95.4056
74.6955
95.1445
94.5841
91.7604
90.1079
88.0397
89.6594
93.4142
97.3082
90.3374
92.7395
90.3663
89.6679
91.8157
93.4141
89.5391
90.4616
93.9418
93.7148
82.6123
91.6729
90.6908
93.9384
107.238
84.6891
91.95
92.0865
91.8843
93.8096
89.7549
93.5636
104.87
123.837
47.5139
90.578
123.629
90.7514
93.9753
78.6008
123.276
93.6296
93.9984
106.424
62.7476
93.2384
91.0274
93.8027
90.1498
91.8339
94.0406
93.7128
125.325
123.684
96.17
90.5585
52.6531
91.5446
93.5803
91.3413
90.3246
93.1847
89.5265
93.5654
94.5976
94.3151
93.4031
118.828
90.179
62.0594
99.4703
84.254
95.2279
93.8171
91.9666
113.459
123.328
93.8777
80.6919
94.198
90.6955
94.02
93.8486
90.8903
89.7112
94.0687
96.3269
49.1792
92.0395
93.8482
92.0722
91.2162
123.571
93.4205
91.8377
95.258
93.7952
91.8967
90.3395
93.8441
46.9422
94.3495
93.5187
89.6651
97.4133
113.716
123.66
115.375
91.6272
76.871
93.6368
90.3817
90.1183
93.3556
97.8871
94.9324
93.7574
92.0346
93.6512
94.239
94.9725
90.4695
93.1174
95.2194
90.009
91.9475
93.8377
94.0832
23.1319
94.5481
120.815
94.1039
91.141
90.4747
93.3847
89.9818
91.7823
93.8361
105.77
82.575
81.7712
92.6575
49.1935
94.8021
90.7098
89.7003
93.056
90.7129
90.5176
90.7642
123.115
49.9679
83.9123
108.616
93.7753
90.6971
89.093
108.337
93.87
93.3307
94.054
89.0089
91.0789
100.809
94.1707
97.021
93.9978
89.4817
91.3755
106.601
91.7999
89.752
93.9031
123.269
56.4845
94.1463
94.2049
92.2217
87.4792
84.8836
91.8754
89.4461
91.7854
88.9581
118.41
124.129
112.651
90.5425
93.8312
123.242
122.569
125.54
93.9383
93.387
94.4067
93.5705
126.445
93.7186
91.632
93.4561
93.6251
92.0432
93.8629
94.049
66.8035
97.1675
93.5406
93.77
90.0318
116.029
124.769
89.0412
114.655
89.7958
92.1835
103.991
94.3372
94.1865
92.5245
91.7427
94.3472
89.3961
92.0367
119.19
48.8912
90.1082
37.2738
94.0295
94.2212
94.0362
91.7343
91.2322
93.7757
92.4925
89.3232
90.6839
88.8207
104.317
118.19
89.5296
41.1879
89.1825
91.8854
91.7781
89.3951
89.9774
90.8322
91.4546
93.3882
125.949
94.1827
93.3917
94.1211
114.219
93.2672
94.3301
94.2027
94.0683
91.5807
99.3031
71.4425
91.9595
93.9946
94.2423
125.511
93.7839
91.7481
96.4207
94.0384
86.8472
93.7864
114.58
94.148
117.241
93.3386
93.9311
94.3667
124.819
115.793
92.9987
92.0292
87.364
123.245
95.2956
98.941
44.6355
121.388
89.6756
125.629
67.6423
114.151
94.407
88.4627
89.5892
113.001
97.9899
124.844
100.414
91.8415
69.3433
97.1514
119.753
94.0102
89.5205
35.722
123.392
89.0145
90.3683
110.288
94.066
91.7622
89.4758
89.6171
90.8138
89.036
106.36
89.399
97.3164
93.2128
91.0929
94.2309
93.9732
91.7659
89.7099
98.6644
92.896
92.2639
107.868
90.3892
71.3299
91.0117
92.3141
90.1065
90.8799
89.6585
111.246
89.8021
90.7355
89.4233
109.304
93.9185
94.3411
93.5493
94.2
93.4168
91.7846
93.0043
92.0525
125.34
47.3666
89.7924
91.9524
93.8292
91.0032
89.8811
125.563
89.5698
91.0393
93.326
119.403
107.887
88.6695
89.2353
90.1049
93.6299
73.1176
91.6022
60.5676
95.5695
125.469
91.1941
94.3494
93.3188
94.0738
124.928
126.22
118.134
104.116
92.1334
90.7137
91.8857
106.486
96.2116
93.5627
87.5028
105.566
125.101
93.8794
92.0144
89.5366
112.355
50.1263
93.7185
98.1835
94.1374
93.7029
94.0033
89.0694
90.7604
107.68
96.9259
94.3473
91.2428
93.7983
93.7072
40.0011
90.3655
93.3711
89.5015
93.979
123.333
93.5084
98.91
93.9017
90.9607
104.507
97.3758
78.4668
91.729
89.2794
91.9902
89.1222
121.296
121.722
49.8048
90.2552
93.9148
94.19
104.689
94.0739
91.0688
93.5381
101.32
92
75.6795
123.275
94.28
93.3444
93.4495
96.7099
120.608
92.1044
57.5408
94.1653
94.3264
60.1598
107.539
96.3631
89.8159
91.0819
124.294
114.037
93.9359
94.3344
87.5361
122.123
91.3764
97.2877
121.666
90.7206
92.0874
90.0954
90.2172
97.5198
93.2218
91.5396
93.5289
93.961
93.8071
94.2724
93.8993
92.0548
119.141
93.8549
97.1054
93.8523
90.6989
89.7484
92.3764
94.5053
123.371
123.6
57.7264
90.7439
90.273
97.4212
93.8325
53.4833
103.755
85.1196
117.02
91.0776
88.9985
92.3518
91.3933
89.5489
105.128
89.7119
89.6389
89.5978
91.9197
94.1321
117.054
94.9486
91.5004
109.606
89.0276
90.8627
94.8848
111.436
93.8893
92.068
93.4943
93.8042
84.3767
124.985
109.082
97.3349
90.9601
77.0417
93.6833
91.6272
82.8301
45.5709
97.7713
89.5474
101.269
94.17
93.9929
92.533
94.0969
89.1132
91.8811
93.9153
93.8908
91.3249
94.285
93.852
93.9688
94.1953
97.1041
92.8575
97.9689
94.2157
93.8283
109.304
97.6707
91.118
92.8193
88.6214
93.7852
124.303
99.585
90.3536
94.2427
90.0571
123.21
94.2094
97.3679
91.3228
94.3515
97.3601
70.2904
96.5877
87.2269
102.15
93.9735
98.0467
92.2041
94.8337
110.355
72.9926
91.526
100.712
93.2909
91.4272
93.8559
93.3524
102.246
105.946
47.8937
78.8703
93.3133
93.6604
91.6586
90.8946
88.4744
103.663
113.814
93.9865
91.8159
93.7946
90.9196
97.5702
95.1054
95.7533
92.9773
97.0408
97.6918
98.7098
93.7556
93.4545
91.7647
93.4613
93.8203
123.362
94.0225
97.2645
90.6665
93.8744
93.8994
94.3156
89.3678
125.254
93.8882
125.638
93.7549
99.1601
125.403
94.1086
92.0847
109.727
93.775
93.3723
91.3538
94.0631
90.0844
89.4855
92.0152
93.7945
89.6458
94.1453
93.8792
96.6169
94.2041
94.1641
93.071
89.5433
87.9912
96.5757
105.374
103.229
89.2091
91.4431
94.2137
94.1077
91.3532
93.1708
90.7634
90.748
94.2564
117.312
93.9271
91.5398
94.1958
123.08
94.188
83.8647
90.9426
93.7643
98.2019
90.8286
93.4527
89.3626
95.2816
97.0406
97.5521
93.7635
98.0477
93.6915
93.7749
89.8481
93.8269
91.9727
91.4383
94.4513
124.405
94.7547
55.722
94.226
92.0503
93.8036
97.2702
92.7068
101.35
94.4711
92.4521
96.2172
103.327
85.674
92.5406
93.712
93.9644
91.2833
91.7793
93.4274
97.4106
94.0955
94.1248
119.778
113.418
92.2519
102.208
101.215
94.0215
91.1324
87.924
94.0135
31.6312
97.6437
93.9503
94.4423
123.266
123.536
94.3864
93.3671
91.6467
90.5329
90.2761
93.9385
91.8716
90.0007
90.7145
93.194
90.7522
91.283
94.1504
89.366
90.2956
91.477
94.4095
93.7746
89.4339
91.7655
87.2599
89.9992
91.8246
103.142
104.197
98.463
95.2136
97.2523
103.016
94.4588
90.9206
94.9963
104.724
99.8648
93.4754
91.5386
115.648
93.2519
117.686
90.5924
89.3062
102.64
89.4946
116.074
106.105
91.4998
89.4568
97.5124
112.006
94.1167
91.879
93.598
55.4399
93.9386
94.1979
89.4113
92.0015
93.8641
98.364
94.0147
116.314
93.0291
90.0523
100.873
91.0745
87.5804
94.2031
94.1706
91.7635
88.968
123.055
124.638
89.7087
97.4324
93.7295
92.3354
90.0472
86.4741
104.197
125.955
115.203
97.906
93.5587
93.7667
93.6975
90.8814
97.2669
90.063
88.958
89.4512
94.1857
92.2912
76.1186
92.7697
54.1358
91.2791
93.7908
114.436
98.2716
93.6781
94.1356
96.7753
90.3126
94.4433
94.0035
93.2463
91.9228
93.8107
89.7517
89.8898
93.4685
93.9178
93.1369
90.9477
89.2267
78.7644
89.5906
118.755
96.6433
90.2538
94.4207
92.2191
109.395
89.91
90.5854
90.9659
93.2724
124.781
51.4841
89.6835
94.0087
94.2796
84.3826
94.409
91.2534
91.9787
92.6427
89.4742
91.2246
91.0516
90.7695
94.3932
94.4168
93.6859
97.2043
90.6241
94.3389
91.1788
110.872
97.9727
124.526
123.955
91.4802
94.186
92.0551
94.4265
125.304
90.3213
88.679
91.4378
94.0587
95.1492
93.7406
89.658
91.8997
90.49
94.178
91.5535
94.2787
41.1819
89.3069
36.4971
49.0662
90.856
97.0393
94.2072
90.7729
93.4645
91.4101
90.6901
90.9563
93.3491
85.9861
103.908
103.103
90.8006
92.2803
87.035
87.4967
93.5504
94.2984
91.311
124.641
94.1942
90.5787
94.229
94.1706
91.3229
112.958
93.4424
90.8136
89.7616
91.4777
88.4494
89.5707
93.9889
94.2062
97.3023
90.6202
130.231
124.23
93.8337
40.4235
124.921
92.1127
90.1694
94.3197
102.131
94.3177
93.7505
91.8733
89.6776
10.9693
98.0093
91.3894
86.5665
110.165
55.6319
114.327
89.6657
91.7436
93.7281
91.4503
93.4197
89.7501
90.0129
93.7643
90.2137
93.4175
93.4018
90.6276
89.7329
91.6486
93.6354
93.4394
89.8018
90.0414
93.4183
89.6853
90.6227
91.8349
93.6979
94.0952
93.4441
89.4622
90.9191
91.4148
93.4055
91.5102
89.7488
90.661
93.6544
91.8729
93.7535
91.6309
93.3684
89.6577
93.6908
93.4139
91.3932
93.8644
90.746
89.7207
88.2549
86.7228
55.5377
94.3244
93.1205
101.898
92.5538
93.5287
94.2647
94.074
94.5281
94.2442
90.3806
91.0949
49.0687
90.402
90.6572
90.3483
94.1749
94.1605
94.2814
91.3423
91.8252
91.1927
94.436
89.9245
89.2923
93.3374
123.467
94.4852
91.0522
90.1489
88.9507
45.3513
94.2958
89.0837
90.4288
106.128
92.912
90.5844
90.0643
92.0976
119.477
93.9202
90.2208
90.1251
91.9138
96.7783
96.0425
11.7165
94.3408
90.6644
93.4155
93.0296
93.9881
94.2736
139.63
92.1746
93.6944
93.3921
90.0112
89.6888
91.5285
90.1226
93.4395
93.7508
91.4161
93.4
89.7597
90.6886
93.9607
89.6266
91.3873
89.705
90.5969
93.6507
93.4293
91.7596
91.8183
89.701
93.7458
100.341
88.9807
125.815
109.024
90.6605
96.7782
92.2919
94.0162
119.321
93.659
93.5613
129.305
94.1998
90.7927
94.3106
94.2773
117.647
93.9785
73.2756
91.9947
95.3475
94.1157
93.5779
98.1448
94.2576
93.8418
98.005
93.7274
94.4249
90.041
93.3688
91.7846
94.2933
92.5642
88.3924
94.4451
91.4702
94.0537
91.63
91.2973
94.1149
94.207
91.1493
94.2936
94.3231
94.2649
94.3458
92.5937
97.7192
90.9369
86.8832
91.7385
91.0046
81.2947
94.228
97.3609
106.812
91.4809
122.155
89.3835
93.8188
95.4899
90.3213
94.0436
97.6342
94.3532
93.4511
90.6876
90.41
93.8323
91.6314
93.8406
94.1569
91.4896
90.9772
93.995
94.1384
93.5145
96.0895
93.4209
94.0535
87.9654
93.3349
94.1661
92.5506
94.364
89.4285
94.1401
89.6538
93.9998
92.5665
116.075
91.6316
89.5717
91.3645
93.6088
91.2957
93.6821
94.4282
90.2132
92.1503
94.3189
112.923
90.902
94.5068
93.186
90.1734
118.674
118.029
91.44
94.7052
90.8303
99.5206
94.4427
107.741
94.5104
142.133
90.0719
86.6198
104.545
115.191
86.7195
88.4635
90.0335
130.272
88.3587
108.452
90.3148
132.032
90.2441
89.1254
29.4243
90.1509
91.2666
91.6008
93.5784
91.4395
89.6719
95.4053
91.2808
93.9439
89.5096
90.77
90.5037
88.9549
88.9641
90.7729
88.9935
90.049
94.3511
90.6895
91.3883
89.0872
89.2121
90.9757
89.0525
92.0517
91.9193
92.1921
89.2543
88.7178
90.4356
46.8891
89.0368
91.3885
91.214
88.3121
94.3141
94.2369
89.7972
90.069
92.7048
94.3794
94.4426
88.9948
89.9564
88.8764
88.5891
91.2096
87.67
90.9765
91.1711
90.5417
89.502
120.688
91.1689
90.1068
94.4284
89.6552
94.3348
88.8686
94.3604
88.0866
94.4344
94.2616
90.8279
87.6503
90.9265
87.9047
91.0936
94.5971
107.845
94.5908
88.0437
86.4235
88.7823
105.587
81.0677
94.5622
107.483
105.705
86.8237
82.0941
93.4771
94.8425
80.756
104.021
110.066
94.517
88.959
107.641
80.7551
106.636
94.7649
94.6849
94.906
86.1968
89.7573
51.3769
94.6418
88.5958
89.5952
94.5351
86.0865
93.5195
89.6213
105.514
104.128
88.0751
51.3931
80.3282
94.9308
80.4932
94.4513
89.0611
87.8391
93.4216
107.267
90.2244
51.0556
87.9241
88.9821
93.3932
80.4613
48.0898
95.0751
146.487
81.1286
89.946
87.8585
88.7755
95.1341
89.9199
104.092
86.3825
81.3707
47.8272
47.8102
89.39
88.7819
90.3747
90.9486
91.0178
93.0851
93.5919
85.189
91.2684
89.4291
93.9855
124.111
88.2746
89.9518
91.0921
87.9257
90.8463
94.4372
91.4063
92.8476
89.563
90.8339
91.2753
92.7419
92.9176
87.8612
88.898
95.1824
92.7576
90.7941
90.6093
94.188
94.0366
89.0896
88.5877
92.1089
91.229
94.2914
89.3071
86.6149
104.26
91.5983
87.7598
90.8877
91.2507
94.4613
94.2417
89.1794
92.9172
93.8841
93.8015
88.6043
91.2188
90.8361
47.2193
94.4198
90.6654
93.1225
94.5639
91.1539
90.64
89.3321
94.452
92.6447
94.2358
93.7082
93.2753
91.3091
90.4854
94.8615
91.0473
94.4146
92.8317
94.443
94.4456
90.4116
90.5346
90.7133
95.3687
94.421
91.9384
93.0427
90.4845
91.0467
91.5571
93.8295
89.5386
91.2673
94.4548
86.8173
88.6084
104.341
88.3318
91.0166
91.7515
94.4237
94.4137
124.377
84.1956
88.5854
90.6256
94.6001
90.1438
89.2844
92.7902
87.9529
94.6882
93.6518
94.6186
45.8959
116.171
92.5923
90.5286
88.384
95.3084
89.6253
91.2757
93.6822
124.608
88.817
90.52
89.9549
93.6516
89.6558
91.319
93.604
105.321
87.7959
87.9693
124.832
85.1805
89.0277
90.3851
89.2143
44.2271
116.032
92.4912
88.1836
89.7869
89.3216
95.3733
90.1348
91.8075
84.5444
86.4339
93.5723
89.6506
91.3457
93.578
89.2078
89.2676
92.2942
124.675
85.8536
93.3872
44.5181
48.8089
90.1788
116.025
89.3731
91.731
89.4626
90.1852
95.4153
95.4076
88.4956
85.1294
93.5924
90.2374
89.8097
107.588
88.1713
113.539
88.962
90.2972
91.8792
93.9913
93.9794
89.1975
89.2575
89.0984
89.0463
92.4252
88.323
89.1351
91.2596
85.2659
93.6344
89.6344
91.4212
93.5221
89.2927
107.428
88.5124
124.859
88.9752
88.7034
90.1372
88.9893
90.2458
90.8849
91.02
93.3972
47.1645
90.1074
99.7915
91.1252
95.6249
115.986
95.5817
94.2676
92.5395
90.4618
90.683
88.4159
90.768
88.0045
94.7961
95.4249
89.2659
100.048
94.0145
92.6033
90.8083
88.8897
88.9221
90.6217
92.7724
92.4511
93.6048
89.6487
91.544
93.5542
89.5489
91.0013
93.8945
94.2796
94.6625
95.2791
119.011
94.3255
93.3928
89.0091
90.1482
90.869
93.4046
43.5918
90.0694
94.3632
93.9859
95.4086
96.7087
88.8391
90.1357
95.9078
90.0216
91.6438
90.3211
87.4845
93.7366
97.8008
94.4165
94.3823
94.3736
94.0866
89.3885
90.077
89.8315
92.5038
88.3804
89.9811
93.2287
90.2742
89.3276
95.4692
94.1249
125.569
94.4209
94.5093
84.4359
88.7943
89.3349
89.1877
86.1838
93.8385
90.63
89.8718
89.9073
89.0001
94.2539
89.6249
91.5485
93.5346
94.433
94.4159
94.4313
91.1141
109.537
88.9732
92.7046
92.4638
90.6512
92.5517
90.8171
91.8933
93.0069
91.7082
93.127
88.9547
98.4456
89.647
90.2559
97.37
94.3084
118.326
92.2452
92.8148
90.7167
124.986
90.926
89.0854
90.1006
93.9646
85.2311
90.9354
89.6982
94.2927
93.4048
89.2038
89.3856
90.0567
89.7637
91.3363
93.6496
123.791
89.9387
90.997
94.0381
94.3607
92.8731
94.3998
94.3995
90.2874
89.4821
93.4528
93.7097
94.4473
92.6516
90.162
89.1702
94.0849
90.8561
89.3373
92.0567
89.2596
90.37
93.7849
115.977
116.832
94.3106
89.6201
92.3965
89.43
116.264
92.3765
90.7642
93.7443
90.9531
117.256
90.4334
92.355
86.253
88.7908
90.0982
91.2728
93.8684
94.3557
89.328
92.8798
89.0247
95.52
89.8399
94.1514
124.583
89.893
94.4384
90.2458
90.2306
90.8425
90.0284
93.348
92.4522
92.2858
90.7518
90.5415
89.0773
89.0299
97.209
90.6212
95.4765
90.3359
94.1224
92.3981
90.7115
89.6404
91.6829
93.5849
93.8734
82.1321
89.2329
89.6687
93.8696
93.3514
88.6622
82.1611
93.2227
93.7331
92.0525
93.2984
89.891
96.5876
90.9081
92.0655
89.8558
89.8123
94.3992
89.1169
101.784
92.6209
127.698
89.395
89.4753
91.0644
94.3452
90.3861
93.5202
90.2244
90.4245
90.1437
119.131
90.0962
108.927
89.7444
94.3676
93.567
89.0652
89.438
93.8075
105.736
89.6962
95.5844
100.963
106.446
92.207
93.5936
91.2477
89.7194
91.3008
94.0194
125.106
87.8357
90.2824
86.2119
91.2297
53.2583
94.4551
89.0075
90.0584
89.575
93.9022
89.541
81.6427
91.4789
93.9868
91.234
94.3501
94.3722
90.0807
91.9366
89.9008
89.0856
46.9686
91.0073
92.4486
110.66
92.0163
82.7616
94.501
37.7879
102.331
93.9896
94.6248
92.9311
94.1372
124.535
90.5699
89.8461
94.3178
132.304
93.8219
89.7733
91.8558
93.7915
90.967
94.1855
92.2695
94.3466
91.6431
91.9308
90.8681
117.265
88.9164
89.6278
89.2391
93.9136
92.7563
93.4178
94.3235
94.0355
93.2399
90.7555
136.448
94.6236
89.9688
91.2252
89.8919
91.5308
90.7393
123.338
94.3545
89.7799
94.3117
93.4107
70.6221
123.907
94.2693
94.2948
92.1727
95.408
99.0872
94.951
90.0877
90.1527
97.2735
89.0267
90.3312
90.7357
94.3479
93.9922
100.169
89.8499
89.9875
89.9612
85.7675
89.7249
89.9041
93.144
90.299
94.1844
90.1341
94.4539
94.3687
91.6456
95.5634
89.9804
90.4491
91.5564
89.9554
93.8333
90.5215
100.488
90.199
88.9491
92.7334
90.9793
88.9844
94.4397
95.0628
96.09
97.1281
89.7882
91.7377
93.5939
77.6679
91.2965
91.4529
94.1246
89.256
112.399
90.0168
88.8904
90.4726
101.297
88.9671
90.0918
89.5675
91.9301
93.891
90.2546
110.892
89.185
90.3144
90.2646
89.623
89.7997
93.9909
92.4567
90.7728
90.3178
89.5976
109.624
93.3764
95.2907
94.7643
89.6215
91.7004
93.5779
88.6407
94.2669
90.2632
94.7241
94.3305
91.646
90.3673
92.1467
90.8828
88.0929
89.6495
92.055
94.3748
94.8655
94.891
93.94
90.9825
89.6446
91.8035
93.6408
132.412
107.546
90.9023
90.7842
100.308
108.506
108.135
91.9057
93.3117
93.3502
90.653
93.4436
94.4411
94.95
124.177
91.1286
94.4656
88.2886
88.2356
106.001
94.0495
91.3768
93.6427
89.129
92.9663
90.9958
91.7702
88.8971
49.2896
71.9665
94.3337
89.161
92.6943
88.4095
93.7822
94.1265
100.328
95.3094
115.781
90.6079
93.1606
91.0927
93.8246
92.1356
94.1922
90.7125
90.8085
89.6299
98.5134
93.4185
92.6189
90.8256
123.344
94.0299
89.6176
85.0721
92.3536
123.47
124.409
93.1947
90.4877
91.9329
93.7488
89.6423
90.1917
20.7709
93.7771
118.765
85.4999
94.4231
94.3094
94.0843
122.643
87.7484
89.6568
91.8619
93.6756
94.4352
114.523
91.4111
88.5443
94.1644
93.9622
94.2304
93.7741
91.5219
91.034
97.1359
123.783
102.946
94.4176
94.3663
92.1057
91.0678
90.2804
93.3572
93.3954
90.6609
94.3019
94.7635
94.3316
92.0259
91.9623
117.195
91.4615
94.3303
97.1285
89.5053
44.2461
90.8546
92.1332
89.6312
91.8349
93.6499
104.636
93.7994
89.5903
88.9888
93.5826
92.8217
93.8855
93.9017
93.3927
93.7221
94.1208
90.8644
90.4599
93.5878
92.3186
93.3451
90.2165
90.055
90.0915
93.3594
95.5782
92.844
90.8764
93.8317
97.1747
94.2721
91.2975
91.0739
117.108
118.869
89.8215
94.3315
93.0979
94.443
94.3572
90.177
92.4202
92.8209
95.1092
94.3325
100.437
94.2255
89.9252
91.1726
93.0135
91.0603
94.3592
87.4013
93.0051
89.7559
110.326
93.8411
90.1576
93.3424
94.0384
90.1653
87.6794
89.784
92.071
90.0853
94.0562
94.3216
81.9843
99.507
94.3862
94.4127
94.181
91.3036
93.2007
91.7063
90.9483
97.4488
97.1795
94.3661
90.7374
95.5399
94.2638
91.6349
91.0329
94.3306
89.8035
93.8032
92.018
93.8107
94.1418
95.0261
93.3234
90.5725
90.8637
97.7332
89.6711
91.8599
93.799
92.3805
94.8177
93.6679
90.632
94.1746
90.9158
91.8015
92.0978
123.918
89.1443
40.3304
93.5658
90.9472
90.3425
91.8409
90.1967
91.9355
93.747
94.3175
91.9665
93.7667
97.3614
93.5517
115.194
94.0267
93.3594
90.5011
89.8703
115.851
91.421
94.1843
93.4217
93.2261
115.181
88.4358
90.8689
92.5617
89.6593
125.466
96.0888
89.3277
94.204
106.055
81.3909
93.6306
89.9131
93.8664
93.2683
89.8614
89.7168
91.9828
93.8346
90.0041
93.7277
90.4939
89.4661
91.173
94.0305
94.3386
91.2856
89.1914
91.2252
93.6384
94.2191
94.1782
89.9691
90.169
91.4374
94.1304
88.0939
94.3286
114.172
89.7932
92.9206
90.0863
35.4034
91.8631
120.744
94.3919
89.9594
91.8954
91.402
94.2089
93.3767
89.7967
94.2957
90.5588
92.8052
94.3554
116.616
91.4295
87.2287
93.4849
91.8426
125.863
91.9319
89.3056
94.4236
91.1952
91.1619
95.2958
94.2329
93.2205
89.6447
91.9163
93.7219
91.9329
89.7843
93.7605
92.3842
94.0066
82.8513
89.1967
88.9564
90.0286
55.9613
97.4692
106.191
90.9146
90.1348
123.961
67.8238
110.246
95.2709
89.6488
91.8837
93.7047
93.1975
101.384
89.6529
91.5266
93.6436
94.2742
93.5269
117.838
128.662
88.4388
109.858
96.0355
123.178
93.3848
91.0415
91.6796
92.0168
87.6558
94.6578
109.08
92.5557
93.6558
93.4002
94.4029
123.783
90.7338
110.817
91.8217
89.437
90.086
89.0865
95.2556
94.4618
91.5836
89.6139
93.5433
94.3719
90.4948
92.8204
90.9418
91.8719
90.1736
94.6468
92.7836
98.1066
38.8126
123.381
93.974
94.4266
94.1677
92.6154
93.0388
90.8689
90.1442
94.0279
94.172
90.993
91.68
108.282
90.2379
88.0808
107.56
91.6767
93.4058
94.3207
97.9429
33.678
90.2908
86.2096
103.974
90.1107
93.684
98.8925
97.0388
93.6088
89.6241
94.4997
89.7401
125.695
94.1616
92.0314
94.146
98.5353
42.5886
90.4956
93.3412
91.3243
93.5287
90.0603
88.1919
94.1858
107.38
90.9879
94.1376
93.3392
115.382
92.4037
92.0314
90.576
91.2084
93.4157
90.5705
94.2163
94.1361
93.8895
92.0082
106.82
91.0452
106.193
89.1463
90.9252
93.916
90.3653
125.265
94.4048
94.2908
100.408
111.252
92.4445
89.6096
90.6297
93.4029
90.6342
89.6767
122.601
91.224
93.8794
93.1292
91.099
93.7248
121.913
123.159
91.2064
90.2333
94.1573
94.1837
93.2749
90.6256
88.7401
93.6578
94.1916
93.6248
94.3289
94.3982
92.8039
78.4332
89.8532
122.989
92.9713
91.2197
93.6733
91.2685
91.2923
117.366
94.0845
93.3098
115.592
93.6048
112.445
106.382
94.2599
122.434
94.2901
123.221
93.8049
93.3994
90.9035
99.6886
91.2799
103.904
88.0482
98.6067
26.9377
94.3444
121.562
90.3623
102.1
89.5285
103.17
91.2806
122.214
123.084
91.8934
107.541
93.4492
89.5189
91.9707
93.8238
91.1052
93.4648
103.703
94.3139
105.517
103.938
94.2304
93.3175
91.0107
124.46
89.029
89.9226
93.3057
97.2546
93.4535
97.4865
97.865
94.4492
107.362
91.2438
92.9085
89.6275
89.0656
94.0832
105.706
123.544
91.8501
110.489
102.109
88.5586
94.34
94.3521
94.1914
94.1897
94.2379
123.274
96.943
89.0154
94.0125
89.1814
111.037
88.1981
91.4889
90.4616
89.3869
89.9898
92.7882
91.2033
89.9892
94.9454
91.0738
91.6343
92.2372
91.011
92.9063
108.952
99.2491
93.8744
94.2032
94.2598
90.8857
104.757
90.2158
91.3253
90.3111
94.3338
91.6633
88.9238
89.6762
49.0379
93.1686
94.1923
97.7381
91.779
89.6373
93.6505
122.951
94.3193
115.844
93.8236
93.2111
81.5824
90.4832
94.1258
93.9247
93.2749
101.116
91.7402
110.661
90.0187
92.0156
93.8375
90.1638
93.1001
90.2283
55.9826
54.5403
91.0084
93.5677
89.8552
91.0915
93.769
91.9413
89.6013
93.9888
91.9544
89.4613
89.443
89.002
90.0312
88.8812
90.1386
125.658
90.5336
91.1666
87.2791
90.6098
103.111
93.7087
91.8067
92.3223
93.6578
112.282
92.8399
90.125
91.5302
87.8873
44.3936
91.599
94.077
105.937
124.048
94.5614
93.7242
93.9129
91.9611
91.2042
90.7318
91.7986
93.6961
94.3888
91.2839
91.6472
89.6181
93.5892
90.066
93.3282
90.3854
108.079
91.024
88.8272
95.3726
93.3535
91.4148
90.4384
93.8649
103.938
86.1416
91.0649
89.4709
91.8327
94.9487
90.0034
88.6818
87.8349
99.4776
93.8091
110.431
120.333
140.361
94.0966
93.4852
125.903
89.1302
93.1855
95.01
120.161
93.7454
96.5875
9.72391
97.6039
91.7424
91.3315
93.8533
91.8732
93.7203
89.6728
92.1316
92.3883
86.3665
94.4424
91.332
96.7091
91.2558
125.356
89.8749
110.513
88.247
91.1798
89.6826
91.9783
93.7715
93.7499
87.0474
91.9412
89.6312
93.2641
33.2469
112.712
92.0983
91.9585
94.8001
93.6487
88.432
93.6118
93.0577
86.2264
95.073
94.9713
93.9866
94.1236
94.2832
90.013
90.3934
92.6878
89.3265
116.725
93.5009
91.6027
93.3041
91.8028
97.9815
104.88
92.8914
96.8184
90.7044
88.8986
90.8098
92.0895
88.5788
91.8785
92.9246
91.1962
90.5502
94.3631
125.513
91.9734
93.7873
124.911
94.475
93.5737
94.414
79.7901
98.6867
98.4532
93.9123
95.8715
93.9016
96.014
96.1493
99.4133
97.5618
95.1026
93.2097
89.5665
93.3653
91.9053
102.26
94.0651
93.6583
94.1879
90.2477
89.8006
98.1969
94.5444
93.3546
89.4887
93.8433
93.3893
89.996
93.5599
94.3465
96.2141
50.3093
89.7023
91.9679
93.7961
90.2613
93.3791
91.5618
89.648
93.5822
92.0189
89.8339
93.8029
121.838
94.3972
94.339
91.5826
91.7074
91.0076
96.9454
89.3712
91.201
94.0745
89.2317
90.9147
93.7216
93.837
113.402
110.368
91.8861
88.8479
91.3405
94.226
94.2434
92.053
89.6359
123.965
98.661
88.7781
114.374
94.0008
90.5465
88.5404
92.9616
94.0882
80.2862
94.1385
99.1233
88.7479
91.2398
93.6065
95.8956
93.7802
85.3881
127.54
89.6797
93.9366
94.4335
94.243
94.2052
112.606
122.745
94.4035
93.7604
88.9736
107.96
90.1106
88.8544
94.4263
92.9776
89.6161
89.6265
91.8007
88.8856
89.8578
93.9948
90.4437
86.1112
103.944
94.3466
94.3869
88.6192
90.4862
89.2439
100.085
90.5502
88.9146
91.4081
89.9263
93.2421
93.9333
97.216
90.2357
17.3455
95.8412
89.8686
89.5152
91.5742
89.5012
93.3938
88.6234
94.422
91.4488
93.8712
92.9413
94.8782
121.188
91.3477
123.787
93.1512
89.9032
94.2726
92.86
91.0671
89.9787
51.8864
115.983
97.4135
94.1378
90.8046
90.4408
82.4622
85.1457
93.5398
92.0782
97.4722
97.119
91.2193
93.7751
44.4259
93.695
89.6629
91.8545
90.1154
88.9095
89.9919
91.8694
89.708
51.4293
91.2807
90.4161
90.3774
93.4882
91.6369
89.5137
88.1311
93.7817
95.868
107.879
93.8142
91.2578
91.3997
91.5082
88.5437
88.4716
94.4307
125.873
116.584
95.0863
80.3293
90.9769
91.9689
89.775
93.7843
93.0067
115.722
93.5708
98.3228
90.8065
91.0532
89.6888
91.8255
97.9845
90.0046
110.546
90.5655
88.0297
91.446
93.552
125.539
94.1504
89.748
88.467
95.3077
91.6045
84.8148
43.4537
106.528
90.3031
93.4626
88.1535
90.0793
92.5271
89.3909
91.4333
93.2781
93.8922
93.8153
92.0097
125.003
91.7047
91.9064
92.8726
94.4466
52.1807
90.3135
88.8905
108.502
90.4478
94.2526
95.3234
97.3796
89.6707
93.8111
92.0164
89.659
93.3376
90.1123
88.6141
122.939
93.2665
94.1214
93.7587
91.3236
89.6597
88.0846
93.5392
93.6038
88.8619
91.5471
94.7099
97.6809
91.73
93.502
114.647
66.621
93.6955
53.4211
93.229
89.8429
83.5212
82.1756
92.0438
95.3985
75.5251
94.4089
116.695
91.1403
87.6327
110.853
121.989
114.683
93.968
94.4545
94.197
91.0792
88.834
81.2885
88.219
89.8802
93.4914
105.257
104.837
99.1372
88.1941
92.7501
88.2361
97.6079
94.3335
93.8315
93.5281
93.6441
91.6497
122.873
88.7031
88.766
88.9132
96.5264
88.9833
91.0258
87.4861
94.2594
91.5225
89.6262
93.5577
90.8114
88.6483
93.6153
90.9269
92.8471
85.5658
89.3727
90.4493
90.3023
94.1126
106.042
93.4253
90.6315
90.8211
93.4201
111.587
119.887
93.482
94.1437
113.819
90.5394
99.2885
93.5016
91.8932
91.3655
93.5592
91.9098
94.3295
94.4125
92.2894
94.4561
94.0752
124.467
94.7933
93.7728
93.9044
93.8966
90.7098
94.1632
85.0428
90.702
93.3889
97.0398
118.838
90.9098
88.9671
90.0444
88.8329
92.8453
90.6003
93.7206
92.4737
95.2331
94.1719
90.5357
93.432
51.3876
90.1379
123.472
94.2397
93.8593
92.4849
121.461
90.3859
51.549
97.7662
94.0085
94.3291
94.1147
94.0256
93.8347
92.0111
89.6026
94.2239
89.418
92.0505
93.7786
91.0711
94.1704
97.8234
124.16
92.8356
90.9454
91.1529
93.3958
93.9955
90.0367
104.527
86.4244
90.683
97.1978
90.8883
95.9239
90.2801
97.223
116.24
93.8061
94.8174
94.3828
88.9157
125.591
87.716
94.3234
87.0558
88.7497
92.8646
93.4691
93.3905
124.052
99.0102
93.8044
92.0265
89.5441
97.5918
94.1796
90.0225
88.8187
94.4159
93.6934
91.0801
46.3881
92.9774
90.7834
108.201
125.401
90.4517
93.8513
93.7468
123.479
91.5265
96.0439
90.7922
37.068
56.7823
94.387
48.6884
93.7887
36.2695
88.9652
108.328
89.7736
90.4368
93.9473
93.9386
93.9141
93.9299
92.1607
92.1081
92.2188
92.2862
93.9627
92.3852
62.7156
92.0587
91.6732
91.0401
91.3086
56.3762
92.434
90.4603
89.5966
91.1163
90.3931
89.1007
68.1915
49.1208
88.8854
77.1998
72.7762
89.1482
92.4895
89.8966
90.5403
90.1508
89.7956
89.5885
92.5391
90.9747
91.2825
93.9836
90.1477
89.2711
90.988
89.4268
91.3543
93.5637
110.229
111.482
92.218
95.2103
92.5022
89.5207
91.5048
97.4132
109.935
114.218
103.208
100.358
118.156
122.167