/*--------------------------------*- C++ -*----------------------------------*\
| =========                 |                                                 |
| \\      /  F ield         | OpenFOAM: The Open Source CFD Toolbox           |
|  \\    /   O peration     | Version:  v1912                                 |
|   \\  /    A nd           | Website:  www.openfoam.com                      |
|    \\/     M anipulation  |                                                 |
\*---------------------------------------------------------------------------*/
FoamFile
{
    version     2.0;
    format      ascii;
    class       volScalarField;
    location    "0.03";
    object      p;
}
// * * * * * * * * * * * * * * * * * * * * * * * * * * * * * * * * * * * * * //

dimensions      [0 2 -2 0 0 0 0];


internalField   nonuniform List<scalar> 
1431
(
101.67
86.8931
99.9932
91.0798
98.2233
91.0275
94.6884
46.8031
96.6656
94.5551
51.3222
51.7233
97.4216
91.5386
99.1235
94.56
92.4105
102.026
92.4651
102.319
44.2026
91.925
97.9631
17.6124
97.4114
97.9088
58.8448
99.1385
101.366
89.3781
94.3751
98.5924
93.2705
87.0787
92.1338
93.9746
99.6809
97.9512
94.7081
99.0104
100.192
100.035
97.5383
94.5906
89.0388
98.9775
90.715
63.8344
94.7013
97.7415
91.8706
94.6875
93.0447
56.7983
87.6119
94.9705
95.5254
52.8608
92.5212
101.749
99.1714
94.538
97.5309
97.8458
94.6422
94.9122
99.5175
97.6452
99.1932
92.4857
52.1652
90.0367
91.3081
86.039
92.1602
98.8002
99.778
97.737
94.5853
101.924
92.3745
99.4735
74.9845
92.6324
37.7847
90.781
90.3992
99.4234
54.2782
63.3634
95.325
95.9531
98.0339
94.64
87.3825
93.2732
51.0854
77.1624
94.5451
100.095
94.4685
94.6299
92.3759
101.78
97.7857
92.2852
97.188
63.7057
98.643
92.4356
101.758
97.1048
100.068
100.45
86.6053
98.5573
90.697
91.1607
90.8288
97.6811
92.6843
99.2063
60.1301
92.276
49.868
94.4521
99.9216
99.0287
99.9452
89.4729
92.4517
102.159
89.6138
91.5587
102.327
97.295
97.8592
94.5696
52.0129
98.0384
94.7242
91.566
92.4973
101.815
98.6187
93.1004
97.2819
94.2142
94.5638
99.2796
97.4087
99.1006
98.7762
90.5401
98.5033
97.9912
47.7309
84.0324
69.1872
90.4324
60.7884
97.2833
91.1459
90.5505
57.0564
101.551
101.074
86.4039
97.806
81.6931
59.7731
93.9268
98.4635
50.3007
85.5793
48.5134
89.8574
90.2167
92.666
91.9118
94.6524
94.6873
89.4131
20.326
91.0781
95.8696
62.1281
83.5648
97.8123
52.4072
93.1838
99.004
99.1724
63.9291
91.1163
81.0109
76.8528
88.5417
99.2372
101.809
89.48
91.0818
75.3837
90.0159
96.829
93.1867
98.9552
99.0994
47.7643
101.733
43.4539
91.2432
97.8984
92.6811
39.3766
100.151
98.6753
86.9796
89.3434
78.9316
99.6843
90.4004
94.0603
90.8357
98.3279
42.1364
76.2313
79.5124
99.4252
76.8706
43.1031
93.8729
92.2654
99.165
98.8383
65.3148
98.3349
95.577
93.0272
90.3629
89.9772
88.3564
45.4807
96.3236
98.6553
92.8733
97.3471
69.831
100.434
97.9003
98.9034
53.8199
90.5672
91.5935
93.2689
98.6506
90.7003
37.2404
71.0027
98.9328
98.9825
51.4287
88.872
90.0676
99.8335
82.3183
95.8269
65.092
69.1406
96.5297
99.224
98.5214
87.9882
90.4318
58.1382
97.9217
55.669
88.3323
91.9227
98.131
93.6433
98.2913
92.8584
92.633
88.9615
74.7832
99.342
74.393
44.7635
87.197
99.2176
96.6828
79.0666
93.3166
79.7847
99.8598
61.8184
95.0394
100.403
92.1126
93.5708
97.7692
88.8256
96.5683
92.3997
90.8339
86.1296
99.411
99.7419
83.6759
77.8143
94.1807
94.429
62.1366
95.9129
77.8186
89.4921
88.3951
99.4758
29.4402
86.5731
79.7252
99.6255
92.6721
91.2778
100.081
99.7881
97.0139
58.5559
91.3974
89.8963
99.2683
96.8975
92.3092
90.1405
97.1594
97.0535
68.5474
91.4656
63.2593
97.848
97.3408
74.1157
99.9396
95.4831
92.838
88.4681
54.1967
79.0191
94.0975
87.2419
99.4037
93.3732
85.1798
99.2397
89.5316
47.6804
41.5157
52.6248
99.8306
91.7936
97.1647
91.3845
89.3148
99.3116
41.8859
97.0412
8.83306
101.394
89.6923
63.6922
98.5837
56.0655
88.9742
99.5166
46.5764
84.6665
90.5958
99.7849
42.0266
97.2793
91.5222
87.3992
99.2741
9.15953
93.9713
91.0331
94.4572
89.3315
89.1403
89.8021
92.1502
92.4412
90.9605
67.2546
94.2717
96.4543
96.6632
97.0815
92.1232
83.1098
98.4986
73.9467
97.9417
94.8703
95.6126
91.4085
87.8078
89.3464
95.1693
82.1578
90.7729
94.596
96.8389
93.5198
99.5774
86.6341
87.6865
91.5093
94.0632
101.979
97.3561
91.6733
85.814
93.6812
98.8196
102.301
92.7259
100.257
27.4817
98.8194
99.2695
99.0047
99.6444
98.7357
98.1753
98.4915
97.8803
97.8586
97.6358
99.0529
52.4818
99.1971
99.3568
99.5804
99.5402
99.7707
99.5396
93.0536
91.5653
91.5317
97.5946
94.6725
101.429
94.5702
94.665
92.047
51.8514
101.5
99.6149
91.8094
97.6781
52.722
94.6296
99.4907
97.5805
101.575
53.2254
97.5046
52.7265
94.6234
94.6248
101.735
92.2843
52.4931
52.5787
97.3111
97.8615
99.7414
94.6352
92.3825
99.9593
52.5281
94.422
100.03
92.452
101.893
99.7996
99.9455
97.9585
52.3927
94.552
100.089
98.0988
92.5886
102.061
100.221
52.2009
94.605
97.0827
95.2986
98.1656
101.459
94.3425
51.7932
53.3544
99.11
94.3852
94.7357
97.9014
98.1655
92.7866
102.216
100.22
93.3115
91.5213
96.6251
98.0653
92.8678
53.0843
90.6396
94.5605
98.5874
91.0676
98.0168
90.8607
51.3784
99.0397
99.0846
88.4847
88.4045
94.4591
97.9942
92.9117
97.2269
100.343
87.5198
86.4853
97.7373
99.0232
95.7682
95.2604
97.7876
94.4019
97.8401
89.0078
89.3554
77.8885
96.1812
97.4205
89.4764
94.8918
97.5688
93.0714
97.5865
92.8334
90.7326
94.7739
82.4213
59.063
97.6656
52.3485
76.1441
93.241
38.7717
91.6219
88.232
90.6886
96.4584
97.3685
93.7047
66.2896
97.5749
93.9266
91.1707
87.0815
91.1022
89.1813
97.7043
99.5267
94.0544
74.0168
90.9348
85.6983
84.2826
98.4339
94.9393
93.7069
89.9405
99.1065
97.3276
94.502
92.761
89.7829
101.15
96.9431
92.7329
90.3664
81.1643
49.2412
68.1456
97.608
93.5176
94.706
80.8879
91.4243
23.5067
80.6189
90.4164
99.3321
90.9809
93.8822
92.8362
97.3967
92.0997
96.9048
46.0007
90.2914
99.2248
91.6131
85.3059
88.1041
91.4649
92.6914
94.4334
83.4706
97.0223
98.5943
77.6096
90.7421
95.5985
94.6626
94.6955
97.4095
93.5623
84.8412
49.2052
89.6086
97.2684
89.9468
96.848
74.422
90.1356
93.2074
95.1543
95.2993
84.0632
90.1722
36.5697
86.8867
97.1036
98.5851
89.5927
82.6421
99.1984
91.2635
96.6662
79.2376
100.165
56.2949
63.7122
96.7967
97.7258
93.4718
95.2963
92.6006
102.471
100.153
93.8013
99.4256
93.4628
85.1632
37.4176
97.4283
98.2902
92.9545
32.0904
92.173
90.9762
89.7075
89.4161
90.4894
87.1468
41.4428
97.6868
99.6382
97.0691
97.8891
99.004
86.2861
93.0277
102.296
97.0328
87.2006
88.4558
98.4691
77.7533
92.3013
88.9223
73.1766
82.0402
87.147
94.5952
87.9025
96.4656
25.3823
90.6428
80.0245
89.1408
93.4712
93.7645
88.1795
90.588
101.521
99.9619
100.658
96.4659
96.3694
90.3793
96.9593
99.2479
93.3409
53.1341
94.4628
97.4176
85.0744
93.1928
97.1806
66.6285
62.1958
97.8214
79.7314
99.8005
90.0439
92.8079
102.486
96.9887
75.234
43.9257
90.5936
98.3024
94.9434
89.9535
92.4264
98.7352
90.5252
92.2704
101.696
91.6339
94.5849
97.1029
90.7544
88.1381
94.5902
8.59626
91.4202
97.1381
99.4943
91.8771
86.6957
30.3312
92.2008
102.505
94.6131
101.363
96.759
94.6054
94.6503
93.9638
90.9123
96.4003
92.2824
90.4841
96.9582
96.639
90.7477
89.6804
91.8062
96.4295
101.626
87.5448
97.8609
93.886
97.4064
85.1135
54.3269
91.8358
90.8374
98.6996
89.6343
92.8433
102.465
98.5484
96.6294
99.2773
89.3324
90.636
92.1794
90.8862
96.4252
98.8802
92.1101
101.628
99.0353
98.1984
15.5902
99.73
93.0479
91.4492
91.6732
49.0599
89.7564
90.1568
43.11
97.6611
50.8358
97.8912
98.903
98.7617
97.343
99.2796
90.3754
93.851
97.1624
83.7184
98.4728
97.5301
91.1726
98.7501
94.6738
98.0798
72.5345
44.5013
98.9057
88.257
56.0476
93.2423
99.2298
95.2162
93.3654
95.1447
98.0834
97.9479
100.074
93.1781
62.3953
97.8535
54.4019
93.2612
69.4467
101.522
90.6782
97.0691
89.1734
99.5627
97.6454
89.1703
95.2141
99.8591
97.7959
87.9843
87.5519
93.5019
89.2575
97.3399
95.0386
97.2707
94.5152
54.2263
93.7701
97.3208
52.443
96.7674
89.9251
92.3081
101.677
94.7341
96.5882
94.2263
96.0254
52.5025
90.6103
96.1977
42.8361
58.4014
53.687
43.1123
71.0607
99.1856
99.4804
100.369
99.9047
65.1245
98.965
96.3678
97.9523
97.2962
95.325
75.7133
57.3176
94.4874
82.7307
79.3836
94.0398
98.8581
98.7759
93.8835
98.693
98.6594
93.7149
98.7273
97.0974
70.7261
97.682
99.6995
92.0112
92.2107
88.4429
46.0403
101.132
88.0795
91.492
101.903
93.37
54.9605
92.6934
102.068
69.7304
93.5621
97.2836
92.2366
90.2246
49.2811
96.0853
98.8575
91.7573
88.7027
90.1516
94.9903
50.6267
99.5325
92.2187
97.231
97.1974
92.5746
94.8648
57.5734
97.4027
94.6829
98.8951
91.1005
93.5857
101.459
90.3952
98.6377
91.8149
97.8628
92.1807
101.607
97.5938
92.346
45.9066
96.7403
92.3256
95.0761
101.76
92.3565
90.2449
98.8487
98.7912
90.2755
93.0407
92.9731
44.2426
99.2714
92.4245
101.926
98.6598
94.6504
22.8697
94.5447
99.6217
94.7361
49.0935
95.5953
71.8169
94.6224
94.3561
90.4631
98.5496
100.116
93.4525
93.2355
64.7186
34.1804
98.9153
95.1494
91.2469
92.8087
92.5755
101.679
91.2772
99.2208
101.721
92.1496
99.3904
45.6735
99.3439
90.5074
97.5028
92.7071
99.4256
92.5677
99.7442
92.2909
88.2471
89.9835
99.0097
91.1545
89.1619
25.7506
18.2733
94.6917
101.14
87.9289
90.4085
96.1759
55.02
90.9762
92.504
93.5429
64.522
52.6563
90.3514
90.3776
99.2098
91.2052
69.7344
51.1666
98.0844
88.6911
90.439
46.9458
90.6874
97.0565
89.8492
7.22986
99.3821
50.784
57.8377
96.9031
99.6562
93.0127
90.2483
98.1095
90.8301
90.3482
90.9822
91.9359
98.6116
92.4609
99.2958
97.6881
60.7435
97.743
99.7476
97.3551
54.8068
94.4247
54.517
99.6793
97.1185
54.9915
98.675
62.1837
60.0395
57.9312
53.3483
52.9337
52.0114
56.1058
51.9268
91.7403
90.9094
91.0162
91.5689
91.242
90.8866
95.8048
87.401
97.9227
95.8617
97.1184
91.364
91.1886
99.7367
97.6622
94.7153
93.3392
94.6403
98.635
87.2246
90.1073
101.786
97.2422
81.8748
99.7435
101.154
92.6619
85.0137
90.6331
88.1211
42.0492
98.5044
100.194
99.2928
83.6569
98.0346
90.4668
32.4429
97.9035
96.2043
91.4248
98.887
90.78
92.6218
92.1289
101.567
91.6422
92.482
101.994
100.04
81.83
98.8868
97.8028
92.5353
93.7474
18.4686
97.7007
41.8473
7.74723
88.7196
51.606
92.4953
101.688
94.3179
49.8895
90.6898
92.6055
99.8388
80.2103
97.4379
91.9333
100.34
98.6745
94.6008
97.4276
94.3703
93.6316
57.7843
47.9981
16.237
77.4092
96.8661
89.2729
98.6129
90.453
100.153
99.7253
92.3997
101.847
52.9578
96.1672
94.8013
47.2484
92.6421
91.3549
97.2866
94.8414
101.157
86.8628
73.7927
92.5245
97.753
89.3623
96.3232
46.2309
98.0228
48.9181
94.599
102.166
92.6031
45.6836
72.1712
100.35
97.1732
96.6364
91.5538
54.8438
97.8664
94.1722
92.5675
92.4152
102.083
97.2794
91.2483
92.9889
98.8102
54.9057
89.9013
96.8533
97.3661
92.4584
91.2276
99.8804
89.938
77.5403
92.8169
97.1078
48.4588
92.9598
97.0852
91.7355
97.1103
91.3218
92.3762
102.188
92.9456
66.9082
89.7663
25.5355
99.1831
88.5282
88.3219
60.9568
88.3041
94.4659
92.2007
96.604
95.8674
94.0205
93.929
99.0232
92.2884
84.6177
89.3107
89.624
90.984
91.5316
59.2419
97.2766
64.2988
94.8562
95.9823
91.2543
92.2235
92.4127
101.662
97.5765
90.4953
91.1272
88.9678
44.0438
90.0624
90.6302
97.6454
99.573
91.3507
89.1241
100.408
64.3677
96.9884
99.433
51.8907
86.7539
91.7075
93.2833
93.5625
92.2505
102.102
100.799
85.7249
93.1494
99.1981
92.9675
93.8197
98.4509
54.9241
93.5464
101.839
92.3808
95.9091
65.496
91.7884
100.364
98.9399
56.72
97.9791
99.7133
97.7352
34.3935
91.855
96.8833
97.5376
99.4025
45.6051
87.9596
58.6646
90.3738
90.4889
89.2779
52.7766
90.7892
42.1546
66.183
97.9617
101.872
90.4527
54.2676
99.0057
15.7181
88.972
99.1628
86.2716
98.8312
97.2736
63.3397
90.5493
83.6121
46.0922
59.9107
102.365
92.1866
90.5767
52.2734
90.3663
92.8351
101.74
56.9885
94.7598
89.5123
98.1293
79.8367
84.0182
99.7445
98.198
91.4243
90.3821
57.4231
54.0009
90.4251
91.9179
98.0321
97.5341
100.122
98.7408
90.7808
94.9251
91.4159
96.2616
95.2176
98.5857
60.7966
98.6842
90.9562
100.298
82.4835
91.3823
90.4159
95.3696
92.3908
90.8852
92.2408
95.9109
98.6246
90.9519
90.8483
58.7975
53.6775
87.171
94.6767
90.9457
99.8227
97.79
100.729
97.6007
97.5926
99.4983
99.4495
97.2949
91.3273
57.5992
100.794
85.8397
96.4978
87.2659
52.1184
90.6685
91.3669
88.1584
93.4301
101.976
45.4987
98.1136
98.0103
99.4927
96.6882
94.5354
93.9281
93.2309
91.8005
90.4472
13.4818
62.6861
89.7543
96.3715
84.9362
87.294
93.0785
100.079
99.4877
95.5709
99.1018
102.114
101.655
99.6506
97.7092
92.9304
99.6908
101.762
97.7495
)
;

boundaryField
{
    frontAndBack
    {
        type            empty;
    }
    wallOuter
    {
        type            zeroGradient;
    }
    inlet
    {
        type            zeroGradient;
    }
    outlet
    {
        type            fixedValue;
        value           uniform 0;
    }
    wallInner
    {
        type            zeroGradient;
    }
    procBoundary3to1
    {
        type            processor;
        value           nonuniform List<scalar> 
48
(
99.8614
100.475
100.226
100.01
101.916
100.713
100.475
100.318
99.7926
101.234
101.234
101.412
101.412
99.6067
99.4068
101.569
101.797
101.658
101.797
101.952
99.9112
100.115
101.952
100.931
100.991
102.08
100.312
100.115
100.371
102.306
102.306
100.32
100.32
99.7926
101.955
102.093
100.045
100.991
99.8479
101.524
99.6067
99.9444
99.9003
101.952
99.2953
101.415
101.621
99.7506
)
;
    }
    procBoundary3to2
    {
        type            processor;
        value           nonuniform List<scalar> 
29
(
97.0397
97.0397
94.2706
95.2169
99.5767
97.839
91.4566
97.5965
94.905
94.9583
97.6574
99.4729
96.7432
91.4363
91.7817
91.2844
94.4397
94.6496
97.2244
91.7271
91.7319
94.4397
91.9073
94.6496
91.848
94.1005
94.6496
99.3162
99.3162
)
;
    }
}


// ************************************************************************* //
