/*--------------------------------*- C++ -*----------------------------------*\
| =========                 |                                                 |
| \\      /  F ield         | OpenFOAM: The Open Source CFD Toolbox           |
|  \\    /   O peration     | Version:  v1912                                 |
|   \\  /    A nd           | Website:  www.openfoam.com                      |
|    \\/     M anipulation  |                                                 |
\*---------------------------------------------------------------------------*/
FoamFile
{
    version     2.0;
    format      ascii;
    class       volScalarField;
    location    "0.38";
    object      epsilon;
}
// * * * * * * * * * * * * * * * * * * * * * * * * * * * * * * * * * * * * * //

dimensions      [0 2 -3 0 0 0 0];


internalField   nonuniform List<scalar> 
5794
(
2.36199
1.91685
3.83648
142.695
58.2645
2.04209
19.7052
14.6175
103.223
12.1883
35.431
2.1541
10.7786
25.7704
2.86008
0.770668
66.3305
56.8039
3.02621
1.82385
79.4262
1.97453
46.4632
18.2518
8.27139
73.6067
47.1272
27.8474
94.7429
0.984731
6.76236
3.98318
23.6478
20.1969
20.8959
32.1105
4.40318
1.64287
53.5898
27.5682
14.3902
3.86482
9.15547
2.63126
2.63316
45.1484
3.7869
14.6419
7.33071
27.7022
0.224732
63.3718
6.78663
3.29616
0.255928
41.1122
3.58491
21.6266
5.55987
147.911
57.833
1.00068
5.00064
4.08946
27.5318
0.847726
39.9694
22.291
59.0281
1.8477
81.886
57.2232
72.9104
3.40904
63.0876
24.2992
24.1463
47.5163
2.49711
0.721713
1.09865
2.90592
9.83195
32.3028
5.20638
74.9452
33.5534
108.375
8.57008
52.996
117.283
26.6763
69.4399
116.839
40.1326
69.2214
87.7886
57.5273
24.2226
63.8947
53.4961
2.01292
7.08329
27.3848
51.6914
63.3994
0.764296
11.1151
45.3744
2.48221
3.75031
10.1506
63.3227
0.974142
32.3697
89.7151
2.36771
84.7994
52.4278
21.6012
80.0054
7.99834
6.15419
26.6089
3.66186
48.9483
10.9886
1.84386
73.5873
11.8166
4.582
11.3632
2.29909
38.1917
82.7757
3.24221
119.461
1.01518
0.476943
13.3544
10.6237
26.6505
6.19805
27.2234
0.85644
77.5329
74.2426
44.9263
53.091
49.4717
12.0732
4.03208
69.4855
1.53717
67.3039
5.02658
40.9173
5.6388
79.649
2.06585
6.16251
26.1164
14.8927
20.8707
63.4685
80.1199
17.353
18.4351
5.43487
15.7632
2.33777
31.1796
20.9229
31.8441
15.5239
44.5419
3.53944
10.9889
24.1334
88.7478
4.18706
8.08277
6.68213
52.0897
4.97657
45.1172
2.86161
17.4911
11.06
1.38885
44.5226
5.28462
30.8759
7.32624
16.0952
3.65979
13.9622
35.7292
3.25185
6.63735
31.1405
69.277
10.5632
10.3551
4.50566
53.8583
8.91583
22.5165
49.3015
51.6014
2.6132
10.0793
30.3141
20.5859
17.0518
10.3605
28.0904
2.04205
29.7153
80.58
9.65634
42.1903
165.383
60.7582
138.441
34.9527
3.99138
11.3787
3.3949
3.277
19.2954
23.1206
15.3234
35.0686
7.29965
34.9687
45.0944
29.9636
12.2123
1.30948
2.31415
61.548
42.5507
22.3169
2.48605
2.92438
3.57127
35.8119
158.292
93.6962
37.2897
0.77481
73.0047
0.469993
4.86522
51.6962
6.64597
16.7902
19.1865
4.67053
72.3352
28.5873
18.0477
1.45676
13.8236
15.7277
42.8754
71.0653
7.02389
56.4617
4.06288
8.84391
5.79957
78.8
16.1014
3.19099
3.63348
4.51896
1.54911
11.8139
34.4604
85.5351
14.7349
4.00275
36.7065
95.654
39.3582
55.072
149.351
85.3197
22.4737
19.4325
14.6363
3.77596
4.74252
81.4921
23.9133
6.0142
45.6465
0.887923
3.3716
55.3004
0.985715
52.4102
1.86812
74.5897
1.05651
47.3746
63.9921
4.26473
5.63793
46.2406
57.7699
1.00065
9.86631
34.9487
14.4296
30.1721
47.6459
128.799
11.4466
13.7805
95.73
56.9523
0.359603
24.4129
5.03815
2.38643
12.7201
33.3399
79.6861
8.44222
4.61269
24.4696
4.07968
12.8044
17.5071
10.8798
9.36342
11.1582
19.6562
9.20649
87.1078
62.8078
3.96304
6.02558
80.1764
10.6611
92.9759
2.81522
76.7892
84.6046
39.7641
6.75646
7.30429
30.1958
11.4303
83.1582
22.9684
14.62
17.7247
1.77848
93.1644
19.1657
16.2676
7.61407
70.2268
53.4612
4.38008
21.8661
3.97621
1.52754
12.2012
0.345293
23.6121
51.912
39.7313
6.08437
35.1106
0.162646
4.71279
3.63888
12.5596
24.7133
22.1183
20.479
104.031
27.5117
17.1061
16.0804
14.5883
74.583
1.63565
22.301
14.049
32.1325
13.5606
2.5801
4.51964
35.9516
21.7099
10.2841
24.3644
2.62839
15.1317
39.7977
16.7191
2.14634
0.932457
85.7526
54.0579
22.2768
33.1543
29.3098
72.5652
5.88242
7.66916
54.0321
55.6265
86.7304
24.3121
56.5015
16.194
3.79525
24.6633
32.0208
18.4803
0.931132
2.14477
1.53874
63.1977
5.78874
35.5477
97.6567
4.31158
2.79592
5.91529
27.6005
20.0585
24.4481
15.7642
8.14533
5.91059
4.44548
5.70928
98.7015
35.1995
0.242528
4.80849
67.763
20.4178
1.76503
124.896
1.92965
72.5089
1.7749
79.8756
77.0826
45.8354
170.584
2.05391
1.31996
20.5575
6.65545
70.9843
11.5928
26.3991
30.4924
17.5134
2.17678
0.405873
48.4363
51.6843
7.66814
8.79981
100.181
33.934
29.2017
1.6721
1.49049
31.7206
1.90044
4.41046
4.35824
16.5118
32.8818
9.97983
6.60703
59.4848
1.31332
1.99349
124.675
109.305
42.9043
16.2535
8.24893
2.03702
3.77231
0.510145
34.8179
55.7906
39.6938
8.6426
13.3938
31.7373
1.23004
1.10165
28.1364
40.0392
0.813297
66.4781
0.743759
4.82411
1.34791
0.86394
27.8952
78.6247
1.1146
5.50134
24.8382
1.30723
0.742905
51.1117
83.2556
11.6442
2.46621
1.52967
46.403
1.32219
2.55999
24.457
0.863988
26.7
3.1543
7.6605
6.38896
6.63707
150.739
10.7515
58.2994
1.58815
120.464
2.17082
17.253
5.20421
0.307166
5.44222
25.2889
0.902225
1.81935
23.9852
0.741731
4.0024
1.59108
2.58192
10.5913
20.9409
2.5816
1.27615
39.956
135.684
1.11597
54.6709
4.08217
14.2655
2.96931
0.913504
13.4726
1.29271
0.830739
79.6907
28.6636
129.89
111.767
107.476
8.79007
43.8484
46.7175
4.96239
21.9289
86.4451
28.0627
109.506
34.3569
91.7546
50.3328
0.866384
63.8558
22.0255
95.9723
0.802125
2.39498
1.08513
97.7144
31.5523
38.5798
0.0767342
9.35227
0.594831
9.90571
2.61936
90.8162
32.542
108.669
1.32687
8.25077
101.092
15.7895
0.29238
6.32762
23.5419
39.958
12.1816
15.4267
3.76866
3.99051
31.1943
30.7313
7.25155
81.9065
0.957493
40.2112
60.4599
15.4825
0.900103
2.56085
0.263273
45.4939
81.3539
0.771478
1.67696
1.95245
0.566716
1.00985
0.701405
4.36561
46.8366
26.5698
3.15688
29.2858
3.46229
8.14478
28.6428
23.8403
121.45
133.68
46.1726
47.2379
0.710175
0.799795
1.08962
1.4618
2.47111
3.84626
3.94474
75.6787
32.1238
48.1108
30.5249
2.36529
0.244179
4.69117
1.90047
50.2359
1.68492
51.4366
151.576
99.026
40.7394
50.3358
31.7479
2.01789
31.9584
22.8174
26.7325
36.0341
120.421
7.45602
11.3596
1.3552
1.21223
29.3574
3.15169
0.35193
32.7134
132.978
135.18
3.72268
2.12018
0.696488
11.1443
182.03
40.8175
45.4709
4.03842
42.7126
20.0007
2.28101
0.584698
9.87052
7.29395
11.6098
0.889817
17.1105
44.3741
152.847
4.45138
4.29092
1.56818
121.214
19.1718
193.081
49.2801
88.8893
41.9738
16.2996
8.75415
50.5225
44.5736
38.6743
45.8711
64.3581
150.494
2.26114
55.579
2.00758
13.5433
28.4332
99.5909
38.2241
46.4979
29.3792
136.292
25.5065
3.9905
5.17399
35.5981
11.3442
25.5529
64.4618
102.683
1.20484
0.644806
7.83099
2.31716
87.348
37.5008
136.45
14.8521
9.02356
0.993951
1.38288
3.05571
1.63572
30.6891
99.4752
5.04413
122.136
41.5678
8.06898
3.95353
44.8212
82.6585
47.0403
151.392
99.7925
39.251
57.1634
2.11046
59.3198
21.513
91.7887
55.3252
1.60567
15.8277
1.37606
2.37866
1.52065
18.8137
1.6132
24.9781
39.2081
15.0299
2.32644
1.11854
87.35
31.3197
24.0662
92.2074
29.8737
0.189323
85.1395
59.4186
16.9755
7.0146
35.3173
1.89081
183.832
1.56426
50.421
9.4567
15.423
3.89025
0.329281
1.0365
4.13792
24.0027
48.6675
79.3423
196.548
47.9023
6.07111
1.82641
31.67
153.729
6.76008
1.95006
14.4429
75.7745
1.08148
2.25728
18.359
44.6043
27.8741
0.851593
17.52
3.90538
7.08775
4.15191
22.7497
68.6638
88.2976
9.3692
3.5121
64.7659
6.80998
3.49329
69.4894
2.03526
4.40456
10.1972
0.832634
20.9829
1.34407
25.0789
0.793951
12.2792
5.85392
10.7596
40.891
34.9972
116.959
43.4184
47.7653
68.9739
36.7483
24.1863
38.0918
0.755606
1.05832
5.0396
35.875
1.95655
5.8165
205.184
54.9695
52.2568
16.9508
3.11127
40.4739
0.914026
14.2043
49.3939
1.57643
145.111
3.64391
3.17269
35.7479
15.6338
6.29136
1.8079
38.6422
11.7949
6.59166
0.894529
3.26932
53.3607
72.4129
2.57514
10.1288
31.7064
11.7203
42.415
138.461
93.212
88.6929
61.4961
1.20042
1.84907
60.4283
0.795901
0.346385
0.741124
1.33088
22.7621
0.913834
7.39185
0.837898
30.7197
61.5076
8.15325
7.97499
7.89441
15.8899
31.4442
27.8966
78.2951
6.32439
0.806286
30.0675
11.3293
29.3826
7.28682
115.117
56.3507
69.4098
1.42517
124.725
98.2775
2.85043
2.28222
3.96166
1.82147
1.57585
72.4541
29.097
49.3996
85.0291
24.4134
56.3119
35.5588
11.4283
0.962207
2.11887
35.0907
0.800634
52.6431
23.5715
155.342
6.97826
69.3382
84.6693
1.77864
1.83653
45.7094
38.6606
10.0518
4.15555
22.7027
65.0861
3.99039
49.2996
1.16978
4.27055
3.60204
0.910544
0.920081
2.86104
0.298765
0.805585
0.83485
1.59206
7.997
47.7695
5.37953
1.84544
0.814531
70.0212
9.72339
28.0677
8.08207
50.3083
0.770884
39.2719
4.7161
11.5509
2.43161
14.1593
44.9153
1.74393
10.0127
2.63742
0.423886
9.24042
79.487
21.6371
46.8131
162.896
0.848753
11.0855
28.5223
35.6948
24.3046
24.2174
48.7197
107.809
2.59117
1.6703
0.835408
0.246373
18.3185
10.7221
128.448
157.613
129.828
0.352145
21.6618
135.839
64.4726
61.2226
45.0193
0.835883
2.39369
1.42091
37.3991
11.0703
30.1486
4.52439
1.89688
4.39877
4.832
10.0803
59.7659
2.14172
1.79264
58.7523
27.4614
12.0172
0.891374
8.22194
45.0562
0.874393
6.5464
3.24488
5.06929
15.435
0.819467
28.8231
0.890361
10.4123
19.5475
1.61776
38.4651
9.54074
0.560242
4.01307
15.0058
0.609682
83.1566
11.5031
0.948189
0.878814
10.5349
0.0948477
0.827463
10.3889
1.64539
0.129693
16.8593
23.6817
20.4326
59.5335
25.8465
8.62278
104.768
33.8826
0.166334
1.20438
19.4574
3.91182
10.7126
73.7709
0.198877
20.6372
0.764032
55.3038
2.7923
56.749
3.18061
18.1001
53.5519
0.661511
35.1285
7.01057
0.226229
5.11202
36.5828
29.8332
32.8911
0.862445
36.9794
0.472159
0.73541
11.7558
1.08213
1.49721
12.5596
1.58819
20.0764
4.8473
65.6715
1.18202
0.757656
0.7634
4.50257
49.5872
17.8351
1.61061
27.9759
7.47507
16.9061
30.0885
13.9025
0.876617
3.09269
12.4949
8.59618
45.3026
6.8641
79.7085
79.4997
61.1157
21.0446
80.1134
8.56133
8.53998
8.30441
2.67292
2.72571
0.74987
362.682
39.2074
1.01872
2.23127
56.0006
52.1578
8.52259
1.08705
1.37817
7.33998
16.1923
1.42345
27.4525
8.3276
18.5743
4.2312
40.6947
3.13821
0.323156
5.27177
4.447
1.36069
30.8246
1.55159
51.4597
2.24164
26.7492
5.62274
11.3145
4.30748
22.0339
9.2671
17.8724
11.2866
4.45663
2.39722
9.99119
42.3615
9.9638
5.49313
1.84269
1.24845
18.0645
14.7094
20.7324
18.0651
19.193
7.47486
4.70705
6.92217
6.96271
15.2651
8.14566
11.1547
24.4845
0.460493
58.5463
0.885066
95.8736
1.1746
0.289161
9.07979
0.590158
0.774825
46.3293
4.37875
6.06009
1.0002
1.36049
40.1651
212.655
91.1422
2.552
1.40728
3.44201
5.28614
57.4597
20.5074
4.62893
8.63615
0.573388
55.6877
4.3762
4.28306
34.5261
8.48619
7.66511
33.7781
11.3171
0.799754
26.1231
86.1113
31.3344
10.1117
15.7587
16.1513
0.728805
56.6764
47.336
15.4221
81.9647
3.70076
0.508031
35.5369
10.0048
48.8411
0.312985
13.1342
53.7277
0.460774
0.620087
1.53279
0.521956
1.73039
8.47866
4.4834
25.8909
0.776678
4.50249
16.3378
127.708
14.0335
5.58086
28.4556
4.412
87.6951
0.411089
53.1606
117.313
29.0489
62.3385
3.51999
57.2273
34.6988
30.4767
4.93132
6.80558
0.906304
14.7953
0.402323
2.75766
16.3633
6.12643
5.30353
10.0811
5.32597
4.43423
34.4171
0.46447
0.836038
7.41547
4.82008
0.383367
2.80833
71.9839
9.36623
48.606
40.8446
6.53264
1.04703
113.684
0.486498
29.7433
12.1344
6.99506
4.14609
1.4899
40.8414
0.562921
9.91494
0.75017
17.1596
0.17138
4.74885
45.5161
24.4278
6.16296
28.4489
25.0057
11.9244
8.88001
1.04414
10.4251
4.21168
10.6621
76.339
5.82465
0.299343
4.21532
29.7187
39.6875
165.015
90.5331
115.882
76.1329
52.1929
0.266176
2.87785
17.8707
3.61731
90.5265
0.607872
0.300933
2.8398
15.3991
0.399862
4.80709
10.4939
3.11774
3.73541
2.86607
5.18708
1.19553
7.61422
5.56616
30.5836
14.8892
0.816171
23.8985
33.1833
61.234
18.1897
3.72052
51.8798
0.339594
1.11109
0.631357
3.35727
201.611
11.4021
49.1566
21.2375
81.1389
65.7854
16.472
15.8379
0.363918
0.843549
1.84599
0.292309
10.5222
14.1491
1.00025
22.0864
0.152468
0.752852
7.02763
7.54301
1.667
1.03508
0.19965
8.92877
15.8631
1.50046
4.17941
4.22259
1.02267
1.12256
0.115296
0.551281
15.214
5.8283
4.56551
0.450389
1.59267
8.43694
8.15751
0.799198
0.472682
0.585019
0.271351
0.393411
14.5641
0.799534
0.110455
2.51979
0.680205
8.09128
13.6423
2.41301
13.5021
38.5455
0.309089
2.83093
35.7571
94.869
22.7267
1.74923
0.597563
15.973
2.63119
21.9131
80.2132
99.2339
21.8506
105.104
29.779
0.136959
0.131584
0.272421
2.67907
1.39041
8.94801
0.436955
3.93733
5.78383
1.0369
19.2927
56.0303
3.20111
11.952
17.7711
135.537
3.881
19.3556
11.7874
12.5086
31.0703
10.5129
66.0918
16.8728
28.5498
67.2085
8.34359
27.7806
6.20545
11.5091
13.9065
326.866
3.50324
3.68106
1.71503
48.4955
20.0883
4.86751
62.8058
51.9924
0.850935
0.368434
12.6616
12.9039
0.368578
18.5931
0.151733
0.693302
1.87375
0.187926
9.89047
8.55079
0.435295
15.4667
3.15159
5.31591
5.57998
1.10599
1.52799
1.39691
0.427798
16.4132
0.737174
40.9691
63.6395
9.54773
19.7398
6.49718
13.9165
9.77388
0.962458
58.7329
20.4632
23.9303
38.2218
23.6265
3.91861
0.38223
24.8274
35.366
6.10944
38.6868
94.4797
36.5839
0.483892
35.7952
30.821
3.73862
37.3655
12.7431
63.3889
0.637617
6.63373
0.343549
66.6589
3.95901
36.8477
14.4943
0.436863
119.818
0.570472
88.6576
3.41882
0.318686
0.193248
74.3123
0.212921
0.3085
2.36369
3.37578
114.034
10.745
110.098
20.4222
5.43808
11.3592
33.0043
1.6659
9.15635
7.49802
61.1659
37.9365
13.3156
0.812316
52.9392
5.85704
36.0458
10.2627
3.16036
0.176021
5.27025
8.68765
0.885821
29.1027
61.502
0.0898033
3.45213
94.7074
100.229
12.1885
22.8305
71.7124
0.131649
34.6996
17.4722
15.7862
33.3002
25.4305
3.36053
49.8589
0.461251
5.9169
6.48957
47.9358
7.625
6.80837
8.56477
14.4041
93.2015
3.13247
0.462777
1.86037
17.713
23.8157
31.96
196.41
58.2433
41.4817
27.1801
13.3547
25.2989
24.305
73.2278
33.4595
15.0976
39.449
30.6736
33.0052
119.283
95.3093
11.9522
61.3918
30.3259
18.0603
16.9367
3.09102
66.8508
44.858
12.4407
51.1377
5.94928
98.3415
12.5412
16.6741
52.2441
4.32763
15.9772
8.02282
0.4809
1.01505
9.32998
58.2866
3.78812
0.453367
5.4232
29.2284
30.9527
55.4259
39.7574
35.4043
60.7398
33.9406
4.26097
35.8703
34.4557
62.444
37.4007
30.4867
39.7371
38.5533
32.2866
37.3873
22.0127
19.631
4.25019
25.8253
12.6979
3.97284
3.24071
5.37497
0.633653
3.79563
24.0828
29.808
5.46761
0.984637
1.36409
46.14
27.8604
22.7869
6.50783
3.49124
3.11919
2.28692
8.53248
10.6365
5.31325
97.0897
10.6923
4.85013
0.704231
4.46477
0.307424
20.3967
0.643614
7.87854
0.419187
0.219638
6.03973
2.14403
2.81972
2.14384
2.7692
2.16396
66.1381
2.44181
2.34461
2.70129
5.03007
45.8274
105.528
2.12973
81.0359
29.5683
2.1996
129.882
14.8251
3.47016
114.343
24.7876
94.1963
2.30909
6.99487
123.659
113.046
73.1819
3.29595
2.92342
3.24565
3.67255
5.20095
54.2152
2.6235
11.5343
19.5788
1.75144
3.25217
17.2338
4.42933
51.4523
31.8901
25.7459
49.4185
84.1159
3.57536
85.9744
1.82673
18.057
27.9621
17.5181
127.694
6.05607
46.8401
38.6814
20.6607
16.988
59.3754
44.9463
2.58664
89.9509
45.494
3.56926
39.3435
19.4584
3.95793
5.84897
51.4828
4.77104
55.6709
24.7512
25.1641
6.15193
10.7944
5.52435
102.497
8.84557
15.5571
14.3612
206.857
3.40986
5.51653
0.492967
32.7705
7.29136
4.16987
8.83457
4.53287
6.89244
1.16109
6.91179
7.93965
4.83436
2.51711
8.84499
6.54357
14.6281
28.291
16.906
4.95567
59.8476
8.32608
7.80534
2.53581
2.47989
3.89075
10.4667
2.66958
11.302
0.212927
4.95927
4.75737
47.7126
3.74534
3.41461
3.52477
10.7034
0.609632
3.29411
4.97598
6.05599
2.018
2.54922
31.3893
8.17816
5.92606
25.7528
0.607205
5.49084
5.74954
0.440876
9.2538
8.59607
15.1875
0.525239
6.74787
1.52414
3.25628
4.99467
10.6827
9.25604
1.35453
8.2564
0.467995
6.00058
0.916081
0.593612
7.2856
6.40616
7.38424
31.9736
0.331902
3.8117
1.93608
6.96006
5.78741
8.76989
0.565238
5.84527
3.31861
0.6957
4.30497
5.11306
50.9738
7.7301
4.31538
7.26484
1.39865
0.283516
28.7143
55.3839
22.5455
20.4768
0.874457
19.9668
12.2404
15.2778
33.7422
0.599058
16.3323
0.363814
27.1584
23.4176
10.9833
6.81988
32.1987
16.547
6.23146
2.7353
0.506084
34.9165
19.9177
18.4178
8.80516
13.9366
6.3737
2.06326
0.408652
57.4953
4.08659
6.05191
35.7317
78.6772
17.3703
16.5375
7.75167
27.5268
10.2204
14.0115
30.9484
34.714
14.4068
34.397
28.7837
23.925
14.3255
39.7332
17.8551
8.2599
1.51584
0.431979
35.0797
10.3563
38.0804
31.4799
73.1358
0.445636
26.9845
26.5246
5.69103
5.73296
11.2451
4.33344
21.9415
12.6287
53.6552
51.9954
6.98493
16.3138
13.3995
75.5106
9.51894
51.7385
6.10682
48.227
20.0054
15.77
41.7547
10.2511
6.07452
22.9541
24.4566
13.454
25.4335
11.8757
37.3426
16.6996
20.2005
30.4642
15.6603
8.16075
0.799693
0.495046
15.3942
51.6802
4.91927
31.2007
64.1282
66.724
100.353
19.88
12.9317
22.9065
10.613
0.396305
26.8971
6.16456
51.124
69.9759
4.77961
9.75927
143.313
7.77554
8.97801
20.5078
8.83919
33.9235
12.4555
3.55507
80.5795
53.7741
28.9805
35.8548
5.47082
6.09945
7.07075
17.1648
7.75201
20.0623
3.07025
3.40925
18.8828
9.3928
0.691438
0.485973
121.869
96.9817
10.0363
6.60747
131.604
109.538
20.8344
4.2424
74.3104
17.6492
10.8855
21.3687
0.337226
25.8659
6.13116
2.6753
8.59531
133.787
77.4821
103.697
8.17768
121.048
86.7971
31.9463
4.70476
23.2616
42.7517
11.3744
0.873071
1.78307
2.03339
2.10944
21.0088
40.5409
6.93139
8.94327
35.8683
22.4857
42.7039
44.658
34.1826
41.4801
2.47585
40.312
0.393024
0.360662
139.142
60.114
61.246
87.2804
66.7928
23.5789
4.70793
3.57785
3.37626
11.1735
3.13778
8.09337
0.523718
0.483017
0.374374
0.305888
0.413018
54.2581
84.9203
17.9098
39.7472
5.52535
12.1554
3.47961
9.86809
41.7283
4.41126
32.1439
4.0946
7.52012
6.21196
75.1828
17.0519
11.3626
0.230679
60.9223
4.0461
2.81063
8.90909
36.9476
89.3173
16.9463
9.41587
66.4089
119.641
10.3221
6.35913
0.256236
0.315546
13.7527
5.06726
27.4091
10.1044
3.15578
0.497971
26.6063
6.65975
8.49841
94.5119
3.18423
11.2351
1.08252
1.30436
3.26066
41.6897
165.635
19.9075
0.338434
4.49806
41.9642
55.5199
3.61944
6.79258
6.61435
6.60768
18.4526
6.6466
0.958743
10.0809
6.41921
0.269297
4.60003
5.44055
8.65811
9.17201
7.21324
8.42309
2.4694
7.70246
17.8238
3.82683
6.88997
38.8364
3.31216
5.50379
11.5515
33.5718
2.25374
56.2803
39.3765
12.0129
48.0283
3.37126
150.8
24.9715
67.7219
0.413164
106.462
4.24399
14.7543
7.32933
0.375498
79.9241
4.35034
13.4119
5.47311
15.293
11.9994
5.34851
70.421
48.3794
55.138
61.8535
6.62502
10.0957
9.71396
0.577257
0.518379
29.3095
16.8493
15.1934
5.53082
1.0145
119.898
22.4398
189.519
124.334
34.6192
45.0935
17.1664
1.55224
30.6048
7.9238
7.82792
21.4353
29.1454
1.94092
12.9729
34.0164
37.9469
68.558
6.84661
25.2972
69.7936
28.9865
6.38159
13.019
5.65312
111.932
8.36514
19.6658
69.7701
94.3753
29.3599
3.13706
3.65302
39.4755
17.3138
9.95026
30.3343
22.298
31.3645
4.39377
23.1152
25.7275
134.671
10.8631
4.23192
3.03471
0.521873
34.2284
12.5257
13.6369
101.338
79.9804
193.37
0.985894
16.3365
8.16993
31.2415
1.83766
174.705
39.4582
5.7767
0.588918
11.2082
0.293736
2.8338
32.613
45.1394
27.3357
51.9761
23.919
60.3667
3.68335
16.3947
110.829
21.1105
39.8027
306.063
4.90682
8.31155
53.2391
107.672
48.0617
24.4759
51.4337
3.39937
2.85868
35.0344
4.30734
14.1189
23.1669
0.810074
10.6131
1.77077
56.1206
2.36998
56.3424
4.22079
11.8114
13.7498
34.1284
20.5245
77.0774
1.5172
147.155
0.921486
2.49882
3.66018
0.295381
1.33354
71.2924
30.7036
88.4439
9.32001
95.169
144.426
10.0265
27.0037
2.01331
3.87446
5.97228
0.24753
18.1192
49.842
2.93216
2.42477
31.0848
54.4272
18.6628
104.028
5.63435
30.3027
5.63611
116.545
5.20272
9.05122
0.266068
8.96871
12.4843
67.9001
4.45775
27.9513
78.5888
8.17879
4.45364
63.1847
3.30843
2.32965
86.4936
1.67349
2.96052
79.9183
11.3352
44.7194
4.88158
25.8437
67.3881
0.950474
6.80702
17.831
26.563
61.5204
5.79264
20.6494
40.0272
31.6782
13.7264
10.0777
8.88638
3.93605
0.394076
0.522832
15.4516
48.5421
4.9518
3.27824
108.118
7.9442
22.7072
38.2455
9.18865
5.05583
5.93842
84.2288
4.87023
0.402469
1.06863
12.7989
25.2801
13.1858
3.72231
3.05426
63.017
46.4185
5.49928
40.014
137.673
79.0764
28.2814
77.1661
0.583951
39.8923
120.895
8.29661
0.434541
0.523668
10.3848
3.51215
4.48734
54.2968
1.57799
23.4695
3.8726
5.64043
11.8669
283.318
2.19341
42.575
2.77802
29.679
73.2974
23.6127
5.52214
10.1801
0.573093
0.537612
39.2135
13.2009
10.9105
88.6151
14.7031
28.9369
214.456
52.0456
35.9587
0.264547
71.0883
0.186442
2.66427
57.3003
28.3859
10.8538
1.20468
3.76553
6.5334
38.88
0.377717
4.1163
18.5677
83.8156
5.35703
6.05181
4.12179
45.8483
27.6232
26.5221
2.46698
25.0197
73.6128
123.699
23.3955
32.2502
5.07013
49.0306
21.1676
68.8775
5.94715
14.3393
3.51105
7.21994
0.677697
4.39016
10.8931
7.15209
36.6224
0.168892
4.60617
125.015
29.4579
1.03651
6.41058
10.5125
10.7839
50.9214
25.3206
0.905263
2.86974
0.654151
0.515888
8.05909
10.6638
70.2746
0.80263
22.4413
12.7802
7.85735
1.34493
32.4224
8.97712
111.546
7.37998
0.433563
0.49683
1.16445
27.8236
3.15506
4.41076
0.088348
9.73915
1.85715
0.846286
8.30177
10.1345
5.92294
24.1707
19.1965
2.1109
41.7395
4.00525
9.8833
3.28003
0.398323
3.1638
2.15419
3.36999
26.4566
2.27324
25.8464
50.6045
34.918
59.9451
3.28556
6.3644
5.11762
46.6597
9.24858
7.64137
8.25256
0.459325
0.517714
4.73445
0.873959
50.2669
249.367
8.93134
3.69718
1.44856
2.37992
0.126861
25.0553
3.78736
71.0134
15.2552
21.8074
87.2625
0.259921
2.88955
3.71508
67.3458
2.12554
96.7589
4.23433
11.6246
0.888712
6.83404
2.05552
6.51001
10.6575
20.7706
23.1093
11.6012
1.89082
5.09863
0.451009
3.24489
3.57628
56.8317
32.4651
94.7899
27.272
15.9506
35.9675
3.36812
26.9887
3.81905
9.8473
2.77991
7.74808
38.8583
70.9411
10.9244
0.857705
3.41965
0.282486
1.91233
13.6377
2.47637
5.69952
6.7723
102.983
3.57077
6.38623
12.3306
8.04956
30.9481
54.8256
29.6978
21.0548
3.70074
8.12861
9.75019
7.243
11.8092
1.87203
10.2942
35.8829
0.247751
7.10797
11.1654
0.830931
4.61235
0.800377
0.444109
0.628891
0.0918882
11.8663
0.220554
2.11782
1.86668
8.70104
2.98809
0.386346
1.07925
29.9952
29.9579
13.6889
14.2932
4.20159
11.0754
7.45423
85.1375
48.8821
11.2213
49.5808
39.917
76.0052
90.0801
141.425
35.4623
0.516781
0.469144
0.241773
0.621175
0.474269
7.65321
44.7882
76.9215
0.400085
0.332227
2.4588
8.43494
10.5968
71.5624
0.410298
0.203508
57.6432
10.8086
40.5539
25.821
8.31135
7.51903
25.6145
21.6675
103.905
0.29868
13.5142
24.7961
25.0186
39.9111
31.1739
0.252949
1.796
13.7288
2.04785
1.02689
10.8791
0.746065
12.1946
5.50523
9.2007
2.85786
0.297563
5.40764
214.895
73.394
0.783917
3.36574
0.372072
3.68038
18.5537
3.51112
33.02
9.39441
0.400788
58.8918
5.8715
11.6783
111.001
30.7303
57.0249
26.743
1.42334
3.17082
20.7699
21.0418
2.51921
0.36648
76.5864
2.34593
60.5336
5.3521
1.02615
10.1748
49.3735
11.6719
2.29597
1.94937
32.5535
3.93852
8.06037
1.52771
8.02855
10.6151
135.343
2.66569
10.4151
7.66659
0.538639
0.499926
0.454003
16.0163
0.41369
58.5205
4.23302
10.0263
100.171
15.8004
8.64754
36.8538
8.114
4.99727
199.32
3.33282
14.9436
36.7836
5.84801
155.723
9.38834
0.608334
0.542161
38.6493
4.13959
7.19342
1.50011
2.15439
3.26184
24.9314
88.3428
30.1102
6.15621
13.1363
124.013
30.431
28.3605
10.4909
4.12177
13.9419
117.764
35.6173
156.584
26.735
0.731682
0.604887
2.21926
37.2859
10.0874
54.4761
23.9865
23.9831
8.27316
14.8026
30.9082
0.784919
0.497984
6.90459
0.522757
2.27902
13.6215
4.75272
5.32476
6.48641
19.4702
29.3883
47.8405
25.1276
65.0206
17.269
0.713764
1.9375
1.44984
36.1178
2.14753
18.2081
3.53536
4.29198
2.69578
24.6804
76.5283
5.31094
11.4231
16.1841
56.1996
1.42563
2.26326
0.31722
23.8804
66.6454
4.87818
4.16078
35.8313
9.29098
58.4064
9.65912
5.31588
59.5754
79.0703
48.4305
12.7036
8.37779
0.0855279
17.6204
0.0820144
26.2286
65.0082
11.0659
4.57091
8.20854
23.6981
11.9257
27.8556
0.0940004
29.5085
4.75408
0.0817363
1.111
17.3196
84.6861
24.1648
5.81053
3.68718
2.45591
3.37069
0.114911
0.0985784
0.900838
3.94605
28.3007
64.3888
28.2622
17.466
4.12971
25.6047
64.1232
12.0032
0.394806
3.08546
4.21017
152.215
70.3545
48.9674
1.46654
0.606373
101.173
15.5155
18.0838
11.3577
18.7809
0.633447
121.511
9.85931
25.1413
8.09141
41.9948
66.8838
3.95499
59.9411
0.197381
1.74772
3.03384
7.01567
4.08255
0.411083
0.795614
2.38023
2.49568
17.0907
4.18483
11.4517
50.4477
9.42132
3.8665
12.5147
13.0212
12.8387
128.64
0.324807
16.7062
0.7633
14.5095
58.6083
1.41117
19.161
32.5262
7.50096
13.7611
1.24827
1.62571
40.0386
166.358
49.2161
93.0026
22.2135
68.9906
0.527424
26.9727
65.5373
5.27808
115.753
19.6801
29.396
22.2803
9.44044
59.2807
39.2647
26.2417
8.26635
0.581159
0.647599
14.6208
3.64864
4.29042
2.20976
28.8227
31.4789
2.46067
0.209324
1.61755
15.2631
79.0024
2.43365
0.221347
13.0559
41.0872
29.1945
18.0278
2.43899
105.272
6.16701
8.15659
69.0019
68.3818
0.433325
46.6672
28.4413
53.5687
37.5064
38.1756
6.29695
1.12686
0.248856
1.42086
3.8455
1.81411
7.5611
9.70845
71.3365
63.3839
26.7799
144.199
29.2985
49.0435
16.2037
14.6527
36.8117
4.49976
6.68849
7.55321
67.6963
143.25
109.175
24.5423
65.4357
3.89331
41.1494
42.5863
46.2271
0.606015
2.45482
102.659
29.9104
13.3816
80.5123
110.366
1.39652
50.1509
25.0913
78.0859
27.2721
90.1519
0.405123
78.6346
0.379922
8.55745
0.495469
59.5852
32.7187
61.6414
0.879935
0.325503
104.71
2.9561
1.25081
50.9315
31.7177
37.6684
63.2371
159.956
60.9345
0.511323
1.08688
47.5578
26.5707
224.625
74.6933
102.989
10.5765
12.6613
103.919
88.2561
0.525522
0.72335
9.13641
0.82748
0.875409
10.9049
54.7265
17.1321
4.25921
22.1535
20.4493
10.366
82.6877
129.368
76.5738
5.02384
33.2188
3.99043
17.8692
6.46309
37.2623
132.216
84.211
46.4848
96.1077
73.6234
66.0471
5.56101
0.459311
158.927
84.7392
2.3346
10.0217
0.821538
3.16956
42.1414
125.788
54.8253
55.0483
2.45847
93.6841
0.376864
7.67104
0.525121
4.8721
0.251851
4.57055
124.162
25.78
5.1749
126.303
0.381795
1.4068
69.0128
6.07351
52.2988
4.31778
7.20907
89.799
41.8041
4.50176
4.16153
14.9447
32.4951
4.27996
23.5759
79.6831
31.2709
37.3941
49.6725
27.4297
26.6317
32.038
0.211555
3.17774
44.7291
2.0277
13.9622
108.045
10.3444
85.743
32.1274
1.13982
0.43286
0.465881
9.37334
61.8472
75.557
76.5648
2.39434
7.75141
5.82998
12.0222
12.1707
6.64048
5.78191
4.86026
5.72463
7.91281
0.3613
0.271978
0.687792
123.298
35.8075
6.36522
138.824
98.2638
113.565
101.786
48.9719
3.70059
44.2391
7.01784
1.79216
57.5094
164.414
2.50728
2.73769
0.8278
33.5383
57.553
90.3713
4.90358
5.31738
36.4878
12.5943
2.18209
1.70904
0.292984
1.20086
8.56982
114.114
26.6955
6.06198
91.8885
38.5218
22.6819
86.5805
10.2236
72.9689
3.86607
8.66503
27.4813
23.878
30.8299
0.590535
0.456187
44.442
1.15451
3.91275
1.18033
92.8088
31.1549
37.065
2.50977
40.4139
2.71421
46.6017
35.0799
27.8229
31.8836
54.7544
42.0416
42.1268
1.84522
14.4738
35.2865
0.59413
28.5928
0.41144
2.9344
6.99386
17.2608
32.7138
17.932
4.29378
33.2551
0.672786
6.13081
0.672501
0.675716
161.194
24.157
8.53074
0.522798
0.445075
25.1172
0.168753
0.405864
10.2511
0.582918
0.316493
9.75178
0.755627
43.5634
3.36844
0.680456
27.6161
7.81693
11.6873
29.6538
11.0269
11.7579
20.6882
81.4968
28.906
0.886627
19.2805
117.373
70.6412
37.1057
16.2598
2.84906
0.2226
0.360109
45.0006
141.77
27.0357
4.34139
17.0558
7.80934
4.95639
19.3533
29.2615
40.8404
2.60851
61.653
0.120775
8.52795
117.276
38.8733
4.96489
34.7082
11.4803
87.1791
38.5671
35.5289
11.9692
0.789901
3.85385
4.02551
6.53273
16.2138
1.56475
29.5472
26.8485
111.332
33.7422
11.192
0.921765
4.63951
6.62482
92.86
33.2902
48.5866
4.17496
107.417
5.02131
4.11571
37.6813
0.300856
2.67023
10.6904
54.9955
77.7188
37.4375
26.1767
35.8778
26.1336
4.70799
3.50083
0.535967
6.18226
3.1215
372.589
120.791
3.66373
103.972
36.4991
4.79973
0.363119
10.041
0.536662
4.87572
0.971482
45.0728
55.6264
41.9043
10.3924
32.4724
0.283636
1.33619
0.700736
4.17678
11.5241
33.5603
200.925
14.4756
11.0484
0.141081
5.23989
121.564
61.4545
11.331
3.3006
1.55811
12.104
5.6662
1.43415
39.2765
28.5616
0.584641
11.2066
0.750256
10.5318
11.7527
6.52871
55.7605
6.30383
63.5446
22.7045
69.4036
96.8443
2.19341
1.96468
3.66437
15.8707
0.620044
5.16158
4.84338
39.5604
49.8767
70.4381
3.29902
3.38905
55.0195
2.00916
17.0334
12.4567
31.9258
65.1547
90.9104
0.410472
13.004
0.430709
35.6933
10.6893
41.1486
40.4946
1.92211
43.5355
129.891
58.0897
61.3049
3.8027
83.3978
50.5818
21.9132
1.39557
0.526661
36.2877
0.805643
3.67407
14.6388
16.9043
41.7563
76.9024
70.12
7.08995
88.8186
1.46145
27.4712
21.8615
13.4026
87.5105
30.7363
0.205451
0.787561
0.995388
0.937578
15.6175
6.79273
102.436
21.1474
0.789675
81.569
10.9289
3.31147
98.7521
45.1425
33.1418
48.1922
6.78761
85.4933
1.06737
0.631456
8.67767
0.257694
4.03172
15.0346
62.3219
0.215148
32.2144
0.538358
4.10897
23.2349
34.2994
7.90593
10.8867
89.8488
41.3681
27.7757
10.4082
2.30967
2.00466
11.4437
42.0735
27.0537
104.909
0.202295
1.5235
59.9809
47.3103
1.4641
51.3315
28.2148
3.35349
15.9159
49.4113
21.738
81.7942
72.4529
10.6482
25.6553
1.23256
53.2938
90.7598
23.6145
127.391
35.5625
10.883
27.3177
27.0289
15.5661
20.2459
87.1764
15.8242
34.2856
7.94441
0.229892
0.845445
12.2384
0.515228
2.05735
13.8094
12.8694
17.9985
28.8928
3.33263
109.288
106.183
64.1183
2.32907
0.648947
6.91089
0.542315
14.8631
20.77
24.7826
10.4016
5.9366
94.7503
12.1579
6.56809
5.03556
50.9974
74.7648
0.143237
5.74697
5.67723
0.263846
59.0868
32.5354
1.02509
3.72075
50.6778
92.1043
25.5579
2.43507
1.98545
1.93477
0.41996
15.0004
0.265021
0.321358
16.2595
1.90456
0.579757
35.6049
4.48905
0.88847
25.7564
1.09203
72.6632
3.65325
104.971
2.16531
0.601893
5.55069
57.2437
63.6449
101.222
27.6965
28.4602
27.6616
5.98194
40.9909
25.8036
13.3486
1.77966
5.15522
0.201236
29.6172
12.0664
25.3185
2.79052
37.3899
33.6414
69.9837
14.4901
297.629
13.0241
3.38873
0.329138
0.708761
4.20454
0.873564
1.63667
14.1691
1.7511
10.0401
0.673581
0.786531
10.92
2.17141
5.56854
23.3596
44.3356
19.7165
3.24629
3.81389
0.802916
1.96733
64.1765
3.91376
7.07343
6.01302
102.323
144.146
85.044
5.0793
9.34755
0.908244
3.48808
0.40229
21.3977
11.2873
52.4238
0.332036
109.785
283.624
124.844
1.3648
42.5112
31.2363
41.7954
0.867951
0.747909
8.28253
34.6117
0.329385
23.0267
42.245
1.58709
0.28973
92.5463
41.668
3.92326
15.5578
34.8794
10.4333
61.8955
11.9704
0.906093
11.5107
90.5758
151.096
5.27396
34.7273
224.561
1.96236
63.521
0.69372
44.0213
18.3228