/*--------------------------------*- C++ -*----------------------------------*\
| =========                 |                                                 |
| \\      /  F ield         | OpenFOAM: The Open Source CFD Toolbox           |
|  \\    /   O peration     | Version:  v1912                                 |
|   \\  /    A nd           | Website:  www.openfoam.com                      |
|    \\/     M anipulation  |                                                 |
\*---------------------------------------------------------------------------*/
FoamFile
{
    version     2.0;
    format      ascii;
    class       volScalarField;
    location    "0.38";
    object      k;
}
// * * * * * * * * * * * * * * * * * * * * * * * * * * * * * * * * * * * * * //

dimensions      [0 2 -2 0 0 0 0];


internalField   nonuniform List<scalar> 
5794
(
0.216974
0.121734
0.347832
2.84501
2.09743
0.133624
0.58436
0.512473
1.66529
0.482833
0.891022
0.157755
0.424756
1.06422
0.237204
0.08143
1.5881
1.80152
0.177933
0.131354
1.24124
0.155033
1.15791
0.552843
0.358405
1.56071
1.49167
1.50457
2.19156
0.0922471
0.35393
0.239437
0.802222
0.822213
0.964216
1.11718
0.196324
0.118477
1.12387
1.10741
0.889321
0.301512
0.273883
0.176711
0.193261
1.06787
0.201486
0.445838
0.329526
0.601384
0.0226204
1.44799
0.324263
0.209973
0.020383
1.02137
0.190736
0.646999
0.211716
2.45037
0.919986
0.0792191
0.281028
0.36859
1.33827
0.091573
1.36769
0.402155
1.74919
0.123195
2.33016
1.6968
2.06589
0.325405
1.8339
1.20489
0.378044
1.19193
0.187679
0.037872
0.0931165
0.199127
0.650175
0.842454
0.245976
0.881847
0.528996
1.1222
0.333231
1.59327
2.59364
0.805852
1.64848
2.67538
1.0928
2.51767
1.99537
1.43457
0.74943
1.00112
0.935484
0.132393
0.242242
1.24686
1.61555
2.64587
0.0659933
0.732368
1.60883
0.198432
0.200968
0.533317
1.04685
0.114125
0.937124
2.03998
0.215832
2.37867
0.846222
0.490174
2.70813
0.211874
0.228956
1.36283
0.277364
1.34697
0.469647
0.127757
1.68774
0.719163
0.243982
0.486228
0.185485
1.03947
3.11193
0.265927
1.92386
0.0840084
0.0590848
0.617902
0.454288
1.29196
0.37112
1.36154
0.100509
2.01123
1.34411
0.830352
2.0058
1.58087
0.311294
0.358247
2.80447
0.0921648
1.85489
0.211527
0.939116
0.232646
1.37009
0.129369
0.256204
0.672339
0.450315
0.59394
1.1785
1.30569
0.488325
0.49639
0.251009
0.376479
0.115115
0.82142
0.499071
0.638408
0.421767
0.926305
0.1394
0.345504
0.596297
1.39242
0.186505
0.270418
0.23939
0.948285
0.204822
0.988772
0.150921
0.470016
0.354965
0.0859429
0.896988
0.237197
0.774942
0.292808
0.43169
0.162272
0.393109
0.76659
0.18082
0.271557
0.692316
1.28407
0.363216
0.346859
0.206726
1.08982
0.296593
1.24515
1.77813
1.13069
0.2294
0.310268
1.18136
0.824702
0.620924
0.559206
0.916342
0.182214
1.08771
2.2882
0.303591
1.1131
3.97615
1.6034
1.85999
1.01943
0.152835
0.748294
0.22059
0.265857
0.62933
1.0384
0.638583
1.20026
0.314098
1.30969
1.63228
0.783212
0.380283
0.155609
0.185794
2.35087
1.12384
0.519505
0.138339
0.186034
0.222422
1.52391
1.43113
1.01613
0.543507
0.0884953
1.88606
0.0556476
0.20921
1.96931
0.256793
0.400677
0.915655
0.320847
1.36191
1.13657
0.740324
0.0972846
0.379559
0.472863
1.76186
1.65391
0.288212
1.32746
0.248916
0.346798
0.362115
2.10242
0.394797
0.249316
0.235764
0.320564
0.198344
0.434916
0.840862
1.78516
0.873808
0.278263
1.26745
2.34476
1.07889
1.40352
2.99048
2.9558
0.769469
1.02252
0.639259
0.310593
0.201491
1.51926
1.09144
0.323589
1.28369
0.0820477
0.164944
0.791152
0.080337
1.49407
0.138918
1.56263
0.15268
1.40509
1.32321
0.232778
0.252656
1.22143
1.30019
0.112834
0.293117
0.592424
0.929106
1.61611
1.56085
2.53226
0.700204
0.539032
2.31572
2.10448
0.0538757
0.79113
0.364362
0.145836
0.431704
0.827961
1.28163
0.276501
0.200297
0.645806
0.197583
0.419015
0.470092
0.346947
0.294271
0.338124
0.46524
0.262361
1.52908
1.03077
0.164477
0.218728
1.2368
0.318334
1.52339
0.163503
1.37781
1.18951
0.816165
0.247949
0.261161
0.651255
0.387065
1.32639
0.619212
0.4451
1.10566
0.125735
1.68896
0.660129
0.818436
0.534751
1.17469
0.953547
0.178889
0.52759
0.391452
0.0937779
0.793974
0.0587295
1.35991
1.32131
0.854677
0.246851
0.858009
0.0334406
0.413127
0.378294
0.323808
0.889754
0.903587
0.800544
2.93447
1.10796
0.874342
0.474437
0.431857
1.26378
0.106251
0.963057
0.393443
0.647774
0.397706
0.195805
0.249613
1.01138
0.666293
0.460926
1.11525
0.133907
0.439567
1.01664
0.477385
0.166245
0.0803436
2.01236
1.42342
0.729111
1.26392
0.621027
1.18193
0.218263
0.251449
1.62692
1.09763
1.8629
0.731974
1.35732
1.0123
0.357686
0.616106
0.716091
0.511011
0.113346
0.135909
0.136876
1.46757
0.224886
1.62336
1.55524
0.235948
0.222494
0.233062
0.673344
0.674564
0.743569
0.543784
0.270144
0.253587
0.211189
0.415175
2.26759
1.00652
0.034983
0.230168
1.54044
0.543025
0.130314
1.83917
0.163351
1.99982
0.102777
2.04329
2.72006
1.34858
3.72246
0.175691
0.104759
0.450306
0.396089
1.09243
0.712555
1.06093
1.32633
1.00753
0.211665
0.0274321
1.7403
1.57514
0.58506
0.528767
1.89903
1.4656
1.59203
0.203914
0.111895
0.559146
0.167325
0.293321
0.344899
1.02346
1.12354
0.309301
0.46377
1.05311
0.12322
0.143574
2.58724
2.31965
1.73074
0.440151
0.390948
0.141252
0.387197
0.0488843
0.906637
2.0822
1.63973
0.264922
0.552799
1.5767
0.0911369
0.114695
0.575092
1.45224
0.0926667
2.45136
0.118963
0.421551
0.0963721
0.0980396
0.853498
1.84097
0.0882653
0.222268
1.12569
0.125096
0.0718011
1.91245
2.63645
0.753018
0.184653
0.206275
1.03927
0.105197
0.183262
0.561595
0.0569093
1.04961
0.349157
0.579139
0.381485
0.240901
2.17619
0.679644
1.11469
0.132561
1.88901
0.143948
0.733631
0.333913
0.0501109
0.213934
1.2938
0.104944
0.135216
1.1627
0.105572
0.155819
0.190301
0.178176
0.55732
0.501578
0.180444
0.100629
1.49756
3.12672
0.0770439
1.35731
0.355443
0.647405
0.282898
0.0952896
0.751781
0.0732693
0.0868227
1.19895
0.960115
1.4617
1.32112
1.27996
0.289938
1.72063
1.42016
0.29079
1.08824
2.18888
0.910618
3.1643
1.11316
1.86567
0.861886
0.109782
1.78476
0.780933
2.32543
0.0917503
0.177701
0.0963258
2.42153
0.976103
1.15712
0.0170802
0.293943
0.0595795
0.574874
0.219387
1.32871
1.01327
2.61043
0.0944533
0.504526
1.74119
0.439433
0.0234702
0.360651
1.11814
1.62572
0.721787
0.486577
0.178674
0.190076
0.82251
0.59879
0.26222
1.33796
0.0581772
1.16094
1.60703
1.01429
0.0667312
0.185706
0.0548532
1.68974
2.40649
0.0960649
0.183019
0.143975
0.042857
0.101325
0.0703605
0.311106
1.22862
0.489473
0.234967
1.60232
0.214138
0.271201
1.13862
0.834305
1.89935
2.82057
1.15615
0.725605
0.115944
0.0912284
0.0737691
0.20112
0.295846
0.162057
0.167484
1.5491
1.31049
1.29081
0.62091
0.28994
0.0539363
0.26174
0.165533
0.719746
0.119718
1.35502
3.09121
2.43025
1.1
1.26399
0.8044
0.170312
1.24179
0.579849
0.637188
1.0982
2.81597
0.436788
0.697201
0.175464
0.116737
1.32743
0.277287
0.0522011
1.39638
1.97703
2.56023
0.383264
0.245405
0.0693167
0.738492
4.1016
1.12441
1.29461
0.339672
0.946736
1.22973
0.103141
0.0612892
0.290704
0.259557
0.309569
0.0569661
0.415595
1.57685
2.33193
0.219413
0.32725
0.214659
3.11994
0.47114
4.11064
1.42517
1.85763
1.41701
0.37495
0.267447
1.72847
1.1829
1.70671
2.04057
1.50829
2.21242
0.276951
2.07756
0.166823
0.344472
0.509222
3.06937
0.636728
1.22293
0.880914
3.14498
0.754723
0.331163
0.391787
0.975406
0.742902
0.788912
1.58116
2.32456
0.0654911
0.0441154
0.203026
0.0978002
2.17573
1.05466
2.69643
0.454088
0.283872
0.086906
0.187375
0.246182
0.102636
0.966627
2.40994
0.20606
2.85988
1.13694
0.252463
0.356507
1.78652
2.14479
1.29542
3.1604
2.5257
1.12909
1.5061
0.195149
1.64249
0.75594
2.21019
1.875
0.216006
0.986526
0.131179
0.183456
0.201064
1.00557
0.133806
1.39067
1.47943
0.403873
0.186643
0.0943476
2.24522
0.984323
1.39086
2.33821
0.951806
0.0360969
2.38698
2.16272
0.720297
0.308335
1.07088
0.136104
2.60624
0.1401
1.25063
0.301378
1.01448
0.303091
0.0587991
0.0944652
0.353275
1.359
1.79054
1.59437
4.41734
1.36572
0.344264
0.229454
0.607889
4.27846
0.362522
0.12805
0.673359
2.68844
0.08866
0.170357
0.434994
0.803291
1.25193
0.101975
0.387218
0.356842
0.54558
0.352753
0.808189
1.91846
2.20927
0.283563
0.368836
2.25062
0.524416
0.376256
2.09258
0.096016
0.147987
0.263163
0.074443
1.024
0.144244
0.49378
0.0946302
0.480351
0.216012
0.316928
1.66667
1.06196
2.7551
0.896234
1.08553
1.59453
1.04945
1.10427
1.40847
0.0890465
0.107288
0.20531
1.43903
0.221229
0.466164
4.19002
1.55771
1.34661
0.855669
0.246031
1.62966
0.0981544
0.349486
1.23653
0.132591
2.21623
0.352331
0.348097
1.00003
0.373031
0.22968
0.0886073
1.21969
0.719207
0.253623
0.092878
0.356649
0.866241
1.73219
0.207032
0.300056
0.928451
0.818227
1.22499
3.04299
2.22325
2.51053
2.18212
0.1174
0.144888
1.96967
0.0911347
0.0691271
0.0711704
0.12137
0.689358
0.0697061
0.254953
0.0998151
1.22242
1.60395
0.482143
0.274084
0.506229
0.987186
1.38643
0.818023
1.71773
0.235096
0.0946168
1.34347
0.353509
0.912394
0.260527
1.32175
0.814761
1.11513
0.0716136
1.65046
1.18731
0.118618
0.0968096
0.143691
0.0758587
0.070002
0.728843
1.46963
2.18056
1.77502
0.73396
1.32191
1.48624
0.307692
0.0826132
0.165357
1.51498
0.0855224
1.99988
1.32371
1.95547
0.247035
2.33328
1.39234
0.12982
0.15948
1.80192
1.02039
0.305323
0.237312
0.471313
1.59811
0.340628
1.82945
0.107378
0.160377
0.148077
0.0862068
0.081069
0.269765
0.049546
0.0896005
0.0745412
0.140562
0.265026
1.74624
0.216607
0.230896
0.0964593
1.10656
0.299787
1.04261
0.398845
0.884759
0.0838445
0.640344
0.199347
0.765851
0.168928
0.52398
1.51725
0.147074
0.304591
0.255053
0.0640374
0.29203
1.44462
0.432621
1.816
1.99639
0.078492
0.318819
0.525858
1.78247
0.504508
0.778415
1.19284
2.5579
0.182944
0.214024
0.0991696
0.0460139
0.410038
0.36722
1.5198
1.71891
1.50781
0.0291963
0.675894
1.47525
0.89049
0.870349
0.863947
0.0682591
0.194184
0.114264
0.696619
0.303341
1.47238
0.200325
0.187431
0.196701
0.205331
0.287521
0.972903
0.164213
0.211372
2.11557
1.5348
0.747883
0.0788569
0.274948
1.14713
0.0822185
0.505397
0.249302
0.360172
0.963249
0.0823538
1.54407
0.0749116
0.312553
1.20008
0.123843
1.54698
0.27679
0.0712669
0.382715
0.849046
0.0660003
1.94343
0.365031
0.104467
0.0778606
0.343717
0.0241754
0.0922284
0.30956
0.139565
0.0311337
0.602711
0.791566
0.618974
1.68274
0.524919
0.263582
2.5271
1.01269
0.038583
0.100458
0.931835
0.343143
0.721531
2.65433
0.0452636
0.523045
0.0543017
2.0634
0.292069
1.61455
0.330401
0.948183
1.32578
0.0450521
0.649929
0.229648
0.0255508
0.373814
0.75342
0.608634
0.631563
0.0549631
0.663267
0.0356742
0.0485467
0.360452
0.0870263
0.140516
0.791961
0.203494
1.1779
0.195785
0.904279
0.167502
0.0867569
0.0729185
0.198983
1.72577
0.400077
0.208203
0.563051
0.249002
0.436274
1.33359
0.789282
0.0815229
0.344223
0.814618
0.527384
1.79889
0.238309
2.6172
2.13405
1.39579
0.461848
3.07453
0.263258
0.262961
0.469686
0.195605
0.183966
0.074656
5.26352
0.67964
0.0850856
0.257173
1.67414
1.63396
0.269314
0.101694
0.190491
0.234602
0.796288
0.122364
1.23062
0.498953
1.03496
0.279021
1.40004
0.269561
0.0470603
0.367507
0.303348
0.187961
0.590025
0.120297
0.887267
0.185004
1.22489
0.227206
0.34559
0.190365
0.468643
0.292988
0.392884
0.330439
0.192945
0.263606
0.655271
1.96296
0.284559
0.213207
0.141397
0.125089
0.559789
0.751102
0.598142
0.476401
0.516897
0.252516
0.349472
0.243031
0.234188
0.402438
0.222265
0.323781
0.515136
0.0560076
1.87608
0.0812065
2.31811
0.0906
0.0554801
0.347546
0.0672718
0.0752325
1.30477
0.362956
0.222838
0.0803087
0.16134
0.684028
1.93364
1.1149
0.287977
0.122417
0.224912
0.283296
1.6434
1.21791
0.339707
0.282062
0.0408217
1.8068
0.271036
0.399161
1.62471
0.227474
0.265566
0.639429
0.788126
0.0517854
1.46249
2.50822
0.618746
0.596333
0.794342
0.568765
0.0760069
1.99335
1.85515
0.758896
1.04973
0.25546
0.0642908
1.02362
0.305059
0.86183
0.0423501
0.338258
1.35887
0.081422
0.0513408
0.170152
0.0676055
0.097176
0.329814
0.341555
1.42665
0.0813932
0.240722
0.932312
3.7318
0.809929
0.358298
0.793921
0.197614
2.30233
0.0777904
1.77529
2.75381
0.901685
1.67387
0.313726
2.02884
1.29603
1.35009
0.339532
0.388063
0.13818
0.841494
0.0672917
0.273231
0.797544
0.386529
0.34402
0.802746
0.377168
0.372609
1.76816
0.0750131
0.0634909
0.257953
0.410843
0.045987
0.268096
1.15855
0.294157
1.46477
1.20569
0.424259
0.095214
3.60131
0.0894002
0.910006
0.648722
0.312473
0.230558
0.131878
1.9017
0.0758451
0.3995
0.0779098
0.929071
0.041764
0.241671
1.65907
0.955226
0.430197
0.595235
1.12305
0.822445
0.278655
0.0509179
0.670753
0.415577
0.749825
2.37384
0.309185
0.0491248
0.373626
1.38808
0.657724
1.66548
1.18877
1.40216
0.988413
1.95017
0.046032
0.27462
1.10555
0.217819
2.82238
0.103016
0.0441024
0.25336
0.489293
0.0470036
0.305583
0.497351
0.208572
0.227198
0.112634
0.391592
0.113679
0.263903
0.450659
0.920263
0.966479
0.0859059
0.842734
1.42938
1.83071
0.434037
0.367182
1.06715
0.0687269
0.0605762
0.0421281
0.124207
3.89817
0.323473
1.20204
0.71128
1.91682
1.44095
0.518648
0.373719
0.0308341
0.0546024
0.0978712
0.0275313
0.333345
0.32194
0.0634797
0.482378
0.0184417
0.056286
0.232583
0.21449
0.0793
0.0580967
0.0220514
0.299705
0.372456
0.0875807
0.142532
0.163357
0.0568681
0.060246
0.0122335
0.0487987
0.308156
0.205284
0.137906
0.0384385
0.0901755
0.270254
0.255652
0.0573347
0.0357558
0.0416528
0.0286987
0.0325483
0.354586
0.059597
0.0155301
0.112914
0.0472202
0.251396
0.341219
0.168043
0.56055
1.42978
0.0393116
0.29272
1.07423
2.43187
1.11943
0.224147
0.0664492
0.382711
0.299761
0.766059
2.23415
2.66933
1.06785
2.5854
1.01478
0.0343688
0.0341745
0.04454
0.251919
0.0737304
0.611778
0.0740124
0.333017
0.41184
0.120149
1.00421
1.54468
0.301512
0.713653
0.815606
3.21962
0.380702
0.871513
0.57288
0.324244
1.66211
0.647613
1.10762
0.780147
0.822328
1.7633
0.56765
0.768545
0.265248
0.328255
0.362166
5.23562
0.352228
0.155072
0.0973089
1.70806
1.09111
0.156838
1.51517
1.73159
0.0637081
0.0313712
0.298291
0.337731
0.0372674
0.424453
0.0185318
0.0541572
0.105066
0.0214024
0.309555
0.261999
0.0351218
0.373523
0.130583
0.165865
0.199485
0.0593544
0.074389
0.0691514
0.0334865
0.387897
0.0487469
1.25269
1.45889
0.228718
0.436292
0.503342
0.362259
0.582203
0.084225
1.33153
1.07254
1.25885
1.05137
1.22313
0.347993
0.0314591
1.26835
0.862564
0.477039
1.60827
2.30963
1.7596
0.0555775
1.70921
0.753846
0.216453
1.74355
0.350729
1.6484
0.113237
0.284988
0.0535587
1.8815
0.219899
1.44553
0.838686
0.0769969
3.22816
0.0684533
3.35898
0.277493
0.047706
0.0382246
2.1545
0.0360832
0.0585196
0.275126
0.257549
3.1194
0.315677
2.00374
0.380163
0.428935
0.840233
1.42395
0.0687106
0.280439
0.285568
2.1692
1.05505
0.30893
0.0826205
1.60823
0.444776
1.61641
0.308159
0.300054
0.0271697
0.364442
0.491021
0.0853738
1.14519
0.88672
0.0110727
0.123968
3.29764
2.76051
0.326698
1.15948
2.02527
0.0313629
1.57307
0.931135
0.819553
1.52878
1.39194
0.269437
2.22647
0.0574959
0.375069
0.40179
1.62944
0.246862
0.274852
0.339434
0.854592
1.14876
0.219569
0.0650213
0.245994
0.828326
1.04671
1.48591
4.58791
1.5864
0.619429
1.48797
0.293296
0.73173
0.701872
0.993399
1.43745
0.870783
1.18837
1.44596
0.990889
3.34136
1.20592
0.609404
1.25499
0.947996
0.440464
0.616899
0.191353
2.84167
0.72377
0.521657
1.48196
0.324246
1.22466
0.776697
0.70203
1.68668
0.406262
0.880113
0.539283
0.0754398
0.0998357
0.52611
1.53026
0.272542
0.058981
0.347566
1.51331
1.59133
2.49667
1.86192
1.77305
2.67205
1.73685
0.253616
1.80411
1.7448
2.72532
1.76177
1.59181
1.85406
1.8715
1.67557
1.84238
0.695938
0.664476
0.236183
1.16483
0.497941
0.228918
0.213793
0.269753
0.0421006
0.130385
0.841444
1.09318
0.487841
0.153239
0.198946
2.17599
1.01136
1.30509
0.485865
0.226325
0.193774
0.183989
0.631833
0.732514
0.364915
1.23469
0.606158
0.435173
0.107843
0.336115
0.059314
1.18745
0.109621
0.231705
0.0810902
0.0239985
0.515191
0.169167
0.197276
0.163192
0.191185
0.217007
1.40022
0.208053
0.22203
0.262038
0.233304
1.20844
3.62432
0.209825
1.53427
0.99042
0.222858
3.67171
0.709685
0.248675
3.41095
1.12138
1.75006
0.223334
0.285602
2.08624
3.60945
1.63629
0.227505
0.232758
0.266219
0.343584
0.258781
1.77411
0.23205
0.387696
1.05206
0.175035
0.302872
0.8039
0.239207
1.31369
1.39929
0.929526
1.65052
2.94149
0.268371
3.13609
0.174235
0.967006
1.00314
0.773236
2.03125
0.29122
1.57201
1.33908
1.05332
0.777901
2.25198
1.50697
0.223589
1.18576
1.73632
0.338394
1.34004
0.978229
0.261735
0.29146
1.9521
0.411938
1.73756
1.12704
1.15698
0.358622
0.743187
0.174233
1.39343
0.701518
0.701569
0.756892
1.95314
0.265084
0.379937
0.0601812
1.34413
0.207401
0.393342
0.683052
0.237448
0.565274
0.17804
0.488436
0.253851
0.329894
0.190761
0.631463
0.566795
0.647051
1.00617
0.925049
0.27896
0.833758
0.658413
0.605828
0.239055
0.256945
0.146214
0.307847
0.111711
0.858749
0.0374476
0.299443
0.418775
1.94152
0.26583
0.226278
0.225299
0.838847
0.0809809
0.295744
0.271544
0.552839
0.250574
0.309585
0.581729
0.665894
0.460037
1.15285
0.0931287
0.428138
0.532307
0.0576601
0.736658
0.63067
0.332651
0.0997387
0.579175
0.153506
0.366469
0.491836
0.832291
0.655002
0.0664192
0.616599
0.0741072
0.539179
0.150543
0.110101
0.549278
0.510754
0.568563
1.16457
0.0667309
0.299116
0.0900186
0.53664
0.291074
0.641969
0.0658776
0.397106
0.247086
0.0446303
0.374432
0.304152
1.93375
0.316179
0.251068
0.54154
0.150722
0.0555885
1.35786
1.41554
0.875282
1.08237
0.100227
0.391246
0.693976
0.59375
1.04894
0.0391421
0.905462
0.0293313
1.16909
0.559313
0.42624
0.407873
1.02953
0.711774
0.412183
0.207614
0.0631018
1.45011
0.786973
1.0158
0.520378
0.841436
0.404576
0.159072
0.0677249
1.84811
0.305903
0.350546
1.51022
1.63649
0.688556
0.917893
0.224078
1.15347
0.309075
0.55487
0.904758
1.09115
0.331712
1.23112
0.783898
1.1195
0.538395
0.908584
0.919774
0.495787
0.129567
0.0707859
0.89345
0.266547
0.614758
1.46824
1.4755
0.0548808
1.13384
1.19602
0.417032
0.21661
0.475775
0.255137
0.791302
0.734307
1.69981
1.60478
0.284383
0.546136
0.771948
1.52608
0.501142
1.76983
0.32852
0.766798
0.828187
0.888422
0.604483
0.639507
0.439353
1.03878
0.718405
0.398088
1.12267
0.499522
0.989184
0.47187
1.01109
0.836601
0.933543
0.463064
0.0810169
0.0804388
0.678311
1.95037
0.28224
1.5242
1.44541
1.50073
2.2666
0.862823
0.728865
0.429824
0.615445
0.0495524
1.18764
0.433961
0.793883
2.65757
0.206407
0.2959
4.49482
0.247466
0.383828
1.02816
0.556497
1.02112
0.851568
0.229935
2.68335
1.66665
0.897547
1.11144
0.434718
0.53067
0.55742
0.388008
0.231097
0.400014
0.12343
0.134029
1.06482
0.484888
0.0812215
0.0790119
2.31851
2.30956
0.708422
0.201052
4.22307
3.66396
0.64272
0.232104
1.74483
0.817316
0.639134
0.415831
0.0448054
1.08305
0.425586
0.282366
0.550074
3.75826
2.18795
1.22182
0.562015
4.01465
1.9662
0.925158
0.243875
0.718644
0.694962
0.325277
0.107878
0.198376
0.201652
0.254055
0.974044
1.66908
0.453027
0.403128
0.959147
1.04121
1.63923
2.13613
1.64112
1.57297
0.262095
1.23223
0.0622643
0.044824
1.54748
2.63856
2.68126
3.40582
1.41784
1.31148
0.410935
0.336181
0.31144
0.463299
0.291399
0.435574
0.0663146
0.0804967
0.0779669
0.0655039
0.0842444
1.49197
2.70837
0.535286
1.8821
0.471553
0.817664
0.308643
0.58539
0.680576
0.171752
0.570091
0.14948
0.344187
0.226543
2.91925
0.631156
0.316391
0.0372971
1.45178
0.33564
0.262276
0.553148
1.64765
2.02862
0.744097
0.618867
1.68785
1.37211
0.60499
0.390279
0.0268235
0.0455066
0.59616
0.306918
1.4346
0.597534
0.205529
0.0702788
1.29896
0.431345
0.653511
3.25025
0.33339
0.304069
0.12989
0.154027
0.298323
1.8961
1.72595
1.16887
0.0519923
0.412809
2.04164
2.45883
0.304188
0.529311
0.374244
0.528166
0.600801
0.50668
0.107138
0.298223
0.229668
0.0366752
0.311126
0.46911
0.478495
0.290796
0.596019
0.630709
0.291564
0.581738
0.489518
0.339566
0.572016
0.943727
0.186521
0.405611
0.868372
1.66613
0.222565
2.51494
0.727006
0.460384
1.14674
0.305401
4.47053
0.755466
1.78576
0.0486884
2.4768
0.397804
0.83181
0.224899
0.0317245
2.88174
0.34697
0.903924
0.45246
0.624729
0.432157
0.217705
1.91065
1.68081
1.43297
1.58584
0.556036
0.716555
0.466149
0.0759227
0.0823258
1.28412
0.379735
0.617579
0.361458
0.0931229
3.95301
0.670568
1.87193
3.67825
1.68601
2.03111
0.975462
0.100094
0.602371
0.611815
0.614477
0.994067
1.46453
0.253021
0.447442
0.956395
0.647695
1.57452
0.465019
0.817183
2.09191
1.37568
0.408994
0.524688
0.432791
2.27969
0.578521
0.608942
1.47801
2.94653
0.685033
0.343622
0.394214
1.89849
0.686599
0.715565
0.907255
0.840743
0.598649
0.192567
0.666247
1.19019
3.84128
0.830051
0.314176
0.250648
0.0604566
1.64321
0.31825
0.747091
3.11603
2.02839
2.92632
0.158192
0.758883
0.535199
1.53482
0.221397
1.79119
1.04842
0.289267
0.0750548
0.83594
0.0472173
0.325854
1.6743
2.04367
1.44741
2.39275
1.06243
1.14038
0.267307
0.503909
3.75126
1.04774
1.92243
4.2278
0.201462
0.516935
2.04062
3.75159
1.66548
1.30274
1.33186
0.289711
0.322199
0.992742
0.335371
0.358806
1.25672
0.0870694
0.819052
0.145426
2.06783
0.236991
1.34803
0.322676
0.856886
0.406528
1.72684
0.959736
1.72733
0.101771
4.41221
0.108863
0.254015
0.301545
0.0438989
0.176775
1.625
1.5156
3.38935
0.716203
2.93388
4.36154
0.558921
1.16061
0.222755
0.307567
0.226533
0.0373741
0.905174
1.45849
0.281918
0.257817
1.64387
1.80905
0.460703
1.23157
0.393823
1.12626
0.223751
3.03071
0.356639
0.565939
0.0530011
0.628859
0.351404
2.87625
0.407433
1.43423
1.88325
0.371424
0.32685
2.18827
0.316577
0.16513
3.32268
0.22444
0.295973
1.18587
0.31512
2.13613
0.364864
1.4181
2.69096
0.0847731
0.508775
0.396875
1.39433
2.70392
0.311341
1.03431
1.22353
1.55507
0.359681
0.295364
0.275611
0.295049
0.0601172
0.0795734
0.797594
1.82434
0.386892
0.340885
2.96856
0.291747
1.0784
1.90493
0.670327
0.204305
0.317528
2.90002
0.160268
0.0326963
0.0618615
0.784745
0.75424
0.797605
0.347366
0.294442
2.71475
2.18587
0.393908
1.22932
3.20502
2.10019
0.914263
2.02036
0.0767091
1.56501
1.39208
0.418826
0.0635785
0.0829118
0.408097
0.327734
0.36326
1.36071
0.211063
1.29082
0.335393
0.457471
0.846809
2.3907
0.189767
1.40118
0.309563
1.37827
2.20896
1.18359
0.427307
0.456516
0.0758308
0.082507
1.17851
0.418936
0.826658
1.47046
0.422776
0.892025
4.80963
1.47758
1.76835
0.0503814
2.90647
0.0307663
0.272597
1.08091
1.36537
0.834008
0.179701
0.258141
0.435533
1.65384
0.0554652
0.285876
1.02703
3.32765
0.486215
0.531642
0.283224
1.78456
1.19771
0.517359
0.293531
1.07413
1.29845
2.36212
1.3383
1.4449
0.205219
1.59952
0.641103
1.61287
0.249622
0.696163
0.355516
0.481956
0.0736462
0.392177
0.771309
0.365184
0.959883
0.0303569
0.385431
2.26239
0.884593
0.0837944
0.353324
0.65904
0.562975
1.43744
0.754759
0.101442
0.292554
0.0763623
0.0747785
0.346484
0.711604
1.08284
0.090455
0.642381
0.771584
0.227488
0.185112
1.21673
0.304509
2.98485
0.36023
0.0647651
0.0729897
0.151788
0.839768
0.215579
0.243424
0.0230546
0.681577
0.155189
0.0999603
0.61526
0.76291
0.23029
1.2563
0.537812
0.248381
1.91245
0.269247
0.790327
0.307915
0.0654091
0.123045
0.115749
0.312784
1.32944
0.274876
1.43802
1.49296
0.806269
1.98189
0.305168
0.238825
0.341777
1.06012
0.685176
0.608393
0.39622
0.0670317
0.0791603
0.196877
0.106244
2.30963
2.29138
0.661268
0.355339
0.0936683
0.238844
0.0302162
0.553637
0.330146
2.97937
0.873339
1.09155
3.4078
0.0512853
0.280222
0.299421
2.83428
0.235944
3.22353
0.236758
0.819736
0.109676
0.247634
0.158815
0.4945
0.820681
0.626154
0.665539
0.717055
0.238884
0.488953
0.0798203
0.305272
0.315594
2.10115
1.36373
1.15398
1.32104
0.453451
1.82394
0.276322
1.09298
0.306317
0.678863
0.27779
0.487481
1.83031
2.9578
0.375062
0.107411
0.298714
0.0521756
0.128853
0.676589
0.146332
0.353728
0.548954
2.81305
0.296265
0.236382
0.741883
0.261695
0.623707
1.70086
1.62488
0.98614
0.330245
0.625056
0.726039
0.257071
0.332233
0.228936
0.755177
1.60133
0.0445109
0.541302
0.822523
0.128294
0.410277
0.100516
0.0627067
0.072961
0.0174638
0.317077
0.0443773
0.234202
0.222154
0.282949
0.116663
0.030972
0.0606838
1.61542
1.49361
0.359188
0.918491
0.351889
0.799246
0.588226
2.50249
1.57993
0.70184
1.43014
1.65949
1.81458
2.17174
4.00385
1.16064
0.0705529
0.0672317
0.0418511
0.0764227
0.0696734
0.264484
1.64532
1.65264
0.0297679
0.0587785
0.263014
0.580495
0.30411
1.94132
0.0762324
0.0400905
1.46913
0.300308
0.91773
1.15032
0.400268
0.343408
1.43987
0.505992
3.7117
0.0495282
0.422118
1.16967
1.29806
1.42715
1.41779
0.0246389
0.111013
0.386321
0.171551
0.0878739
0.532428
0.091599
0.772323
0.399411
0.610115
0.257552
0.0562729
0.380211
2.09569
3.02436
0.0810734
0.351962
0.0528204
0.323569
0.889101
0.294149
1.72422
0.597387
0.076042
1.08291
0.473828
0.651491
3.73935
0.779663
1.4149
0.793884
0.202592
0.27886
1.04046
1.15297
0.266713
0.0605254
3.10496
0.278551
2.3664
0.483141
0.155052
0.323043
0.860107
0.727017
0.175971
0.229143
1.16414
0.243483
0.381442
0.215258
0.591654
0.799537
4.34708
0.272709
0.571764
0.359102
0.0720082
0.0742554
0.0352273
0.389043
0.0332282
1.82174
0.327379
0.591639
3.64406
0.731523
0.568667
1.50618
0.272737
0.200878
1.95634
0.288623
0.966061
1.55653
0.241265
4.53415
0.407169
0.0756965
0.0803382
1.78069
0.187674
0.332313
0.133371
0.139196
0.350224
1.34449
1.71634
0.68462
0.321821
0.424925
4.14625
1.14
0.595766
0.817611
0.313234
0.363006
2.02915
1.79465
2.01027
1.25185
0.0842038
0.0796209
0.267349
1.39697
0.488587
1.56402
0.850986
0.816738
0.585681
0.637932
1.47489
0.133544
0.0630626
0.371474
0.0827567
0.281351
0.874355
0.41908
0.467082
0.265525
0.615354
1.40929
1.87107
0.421166
0.881115
0.971384
0.0784351
0.248772
0.121123
1.80936
0.221097
1.01827
0.348957
0.358939
0.306893
1.06054
2.43726
0.206119
0.410838
0.661419
1.91019
0.184263
0.179908
0.0591492
0.413497
0.89623
0.267438
0.394083
1.6598
0.444967
2.02519
0.300525
0.218114
2.07206
1.83999
1.74066
0.554555
0.484786
0.00976725
0.954734
0.00980969
0.427133
0.878354
0.735617
0.436385
0.652478
0.775792
0.593916
0.795469
0.0103164
0.473236
0.180813
0.0105642
0.073177
0.535945
2.09021
1.34663
0.460146
0.331379
0.108665
0.149193
0.0119477
0.0109857
0.0436793
0.114541
0.469945
1.74378
0.475499
0.639175
0.241936
0.481277
1.81374
0.641425
0.0668523
0.0937152
0.18955
4.0307
1.66153
1.27582
0.181595
0.0763728
2.37801
0.793557
0.353695
0.862958
0.389963
0.0628654
3.37417
0.24001
0.442058
0.203173
1.99776
0.887015
0.364568
1.88867
0.0373957
0.202233
0.218217
0.181791
0.129384
0.0493181
0.125298
0.290502
0.170633
0.910018
0.365183
0.247937
0.735325
0.595723
0.402829
0.813027
0.791094
0.313114
4.09967
0.0486679
0.517045
0.0739419
0.468021
1.24618
0.0659517
0.378542
1.59675
0.196331
0.311262
0.113236
0.177255
0.590748
1.87379
1.19831
3.04738
0.404667
0.92425
0.0921761
0.456186
2.59216
0.209438
3.78405
0.432357
0.617743
0.418993
0.220677
0.816665
0.713587
1.19819
0.321559
0.0609489
0.0685975
0.854707
0.35516
0.189837
0.169109
0.486929
0.516141
0.0941858
0.041007
0.202023
0.981823
3.19804
0.195259
0.0386302
0.350127
1.6035
0.522976
0.418643
0.267029
1.48883
0.259423
0.23391
0.98326
2.88137
0.0354926
0.7865
1.23025
1.67906
0.87807
0.942554
0.455707
0.161878
0.0454649
0.12667
0.37594
0.149054
0.200041
0.303855
2.98625
1.8141
1.25899
3.43333
0.900544
1.37454
0.545708
0.478901
1.27952
0.24872
0.458036
0.20911
1.65727
4.0622
2.49735
1.33172
1.43697
0.376326
0.958489
0.612426
1.71009
0.0357418
0.0866276
2.27374
0.500823
0.767479
1.94296
2.59917
0.191147
1.00515
0.858518
3.03902
1.22889
3.46559
0.0770901
1.88408
0.0590594
0.426825
0.0697146
1.60777
1.67182
1.19328
0.10228
0.0425545
3.00352
0.128408
0.0619326
1.16119
1.32709
0.570007
1.42426
4.11134
1.475
0.0699435
0.0885358
1.31473
1.39783
2.10404
1.48189
1.90142
0.791379
0.630068
3.64637
2.12307
0.0661284
0.0757386
0.360775
0.0778344
0.0758318
0.407317
2.06251
0.688453
0.163786
1.14435
0.976455
0.241696
2.92046
1.99538
2.92072
0.274762
0.53283
0.32982
0.910554
0.436587
1.60945
3.48361
2.01597
1.29362
2.31691
0.953105
0.879173
0.311596
0.0643631
2.7098
2.67413
0.236062
0.729878
0.0496216
0.11902
0.62059
1.26012
1.77766
1.96182
0.287581
2.72785
0.0561971
0.407657
0.0762574
0.245204
0.0439297
0.280226
1.68979
1.35363
0.244557
3.6325
0.0549566
0.189029
2.8452
0.396093
1.70774
0.36372
0.323611
3.45129
1.28872
0.273272
0.215111
0.827142
1.13114
0.191764
1.33038
0.87858
0.504049
0.627252
1.70454
1.26707
0.41012
1.55866
0.0216871
0.270617
1.12786
0.243006
0.362668
2.5891
0.309732
2.09429
1.06128
0.0901274
0.0638209
0.0631354
0.443226
2.01419
1.99355
2.02131
0.26835
0.544044
0.229097
0.876034
0.717503
0.491638
0.214406
0.237562
0.252833
0.368991
0.0309739
0.0255163
0.0890785
2.24606
1.32211
0.360454
1.48876
2.56022
2.84824
2.29091
1.40823
0.230086
1.06509
0.292018
0.211644
1.43687
3.20549
0.204491
0.24265
0.0754907
1.47873
1.81178
2.22351
0.404023
0.285224
1.20828
0.402713
0.13169
0.150293
0.0272522
0.0970723
0.281122
2.27552
1.31797
0.233874
2.26376
1.06883
0.808365
2.22529
0.558464
2.09179
0.25802
0.595318
1.1196
1.20461
1.6183
0.0749676
0.0646803
1.43952
0.165042
0.122821
0.17891
1.39155
0.537144
0.526587
0.0863491
0.517776
0.0917408
0.528104
0.502891
0.508809
0.509356
2.00299
1.70236
1.13147
0.133798
0.861539
0.550746
0.070516
0.98546
0.0596097
0.262489
0.283811
0.386124
1.65623
0.80121
0.256633
0.571807
0.0665772
0.459363
0.0755584
0.111796
4.50624
1.09558
0.398144
0.0695302
0.0587678
0.53689
0.020872
0.0507701
0.493914
0.070135
0.0494699
0.446511
0.0769186
1.1835
0.293624
0.111006
0.566299
0.429616
0.841022
0.605756
0.29909
0.849026
1.12198
1.96945
0.894933
0.0699918
1.05128
2.19014
2.21149
1.23881
0.568641
0.119288
0.0221277
0.0536605
1.17054
2.96829
1.26564
0.193955
0.925689
0.25046
0.350245
0.970793
1.13661
1.75454
0.31097
2.39199
0.0204774
0.263675
2.69569
1.08267
0.139938
0.505992
0.816273
1.50592
1.23707
0.968361
0.816686
0.13513
0.386143
0.382429
0.227666
0.319886
0.195152
1.61704
1.17015
1.7546
1.11206
0.773252
0.15069
0.442538
0.377624
2.16342
0.972718
0.987078
0.337413
3.83877
0.268491
0.380302
1.62533
0.0574178
0.310514
0.444808
2.44177
3.07297
1.15238
1.34738
1.71501
1.40484
0.310803
0.3602
0.0324533
0.237638
0.325923
5.08074
4.11289
0.324492
2.53621
1.06105
0.368469
0.0498695
0.653511
0.096916
0.173917
0.0593718
1.63519
2.0448
0.929152
0.516802
1.24583
0.0385801
0.153049
0.042138
0.266861
0.743324
1.22239
3.96474
0.453592
0.320709
0.0224967
0.413605
3.47464
1.46248
0.512456
0.257289
0.131138
0.341759
0.225447
0.189261
1.50159
1.14542
0.0815783
0.462866
0.0810827
0.571428
0.683156
0.428185
2.20937