/*--------------------------------*- C++ -*----------------------------------*\
| =========                 |                                                 |
| \\      /  F ield         | OpenFOAM: The Open Source CFD Toolbox           |
|  \\    /   O peration     | Version:  v1912                                 |
|   \\  /    A nd           | Website:  www.openfoam.com                      |
|    \\/     M anipulation  |                                                 |
\*---------------------------------------------------------------------------*/
FoamFile
{
    version     2.0;
    format      ascii;
    class       volScalarField;
    location    "0.38";
    object      nut;
}
// * * * * * * * * * * * * * * * * * * * * * * * * * * * * * * * * * * * * * //

dimensions      [0 2 -1 0 0 0 0];


internalField   nonuniform List<scalar> 
5794
(
0.00179382
0.000695785
0.00283824
0.00510508
0.00679538
0.000786934
0.00155963
0.001617
0.00241795
0.00172144
0.00201668
0.00103978
0.00150647
0.00395535
0.00177055
0.000774363
0.00342203
0.00514213
0.000941577
0.000851416
0.00174578
0.00109554
0.00259706
0.0015071
0.0013977
0.00297832
0.00424929
0.00731612
0.0045625
0.000777733
0.00166717
0.00129538
0.00244929
0.0030125
0.00400434
0.00349817
0.000787812
0.000768959
0.00212125
0.00400361
0.00494643
0.00211701
0.000737379
0.00106808
0.0012766
0.00227322
0.000964826
0.0012218
0.00133314
0.00117498
0.000204917
0.00297767
0.00139439
0.00120382
0.000146104
0.00228371
0.00091333
0.00174205
0.000725579
0.00365348
0.00131713
0.000564427
0.0014214
0.00298995
0.00585457
0.000890271
0.00421204
0.000652982
0.00466504
0.000739263
0.00596765
0.00452829
0.00526828
0.00279551
0.00479786
0.00537704
0.000532691
0.00269091
0.00126951
0.00017886
0.000710293
0.00122806
0.00386958
0.0019774
0.00104591
0.000933868
0.000750606
0.00104581
0.00116613
0.004311
0.00516208
0.00219092
0.00352208
0.00551347
0.00267808
0.00824141
0.00408181
0.00321965
0.00208681
0.00141173
0.00147229
0.0007837
0.000745604
0.00510941
0.00454426
0.00993786
0.000512838
0.00434299
0.00513392
0.00142766
0.000969232
0.00252187
0.00155757
0.00120331
0.00244173
0.00417473
0.00177071
0.00600506
0.00122928
0.00100107
0.00825013
0.000505125
0.000766615
0.00628198
0.00189078
0.00333594
0.00180653
0.000796673
0.00348379
0.00393916
0.00116924
0.0018725
0.00134681
0.00254622
0.0105293
0.00196302
0.00278845
0.000625673
0.000658762
0.00257311
0.00174835
0.00563685
0.00199994
0.00612858
0.00106159
0.00469547
0.00219007
0.00138123
0.00682018
0.00454652
0.000722374
0.0028647
0.0101871
0.000497336
0.00460086
0.000801125
0.00193988
0.000863864
0.00212111
0.000729132
0.000958641
0.00155778
0.00122547
0.00152122
0.00196944
0.00191507
0.00123676
0.00120294
0.00104335
0.000809247
0.000510154
0.00194762
0.00107138
0.00115189
0.0010313
0.00173373
0.000494119
0.00097768
0.00132602
0.00196618
0.00074768
0.000814239
0.000771862
0.0015537
0.000758693
0.00195026
0.000716358
0.00113671
0.00102531
0.000478636
0.00162643
0.000958178
0.00175049
0.00105324
0.00104205
0.000647548
0.000996127
0.00148028
0.000904908
0.00099993
0.00138524
0.00214206
0.00112403
0.00104567
0.00085364
0.00198473
0.00088798
0.0061971
0.00577178
0.0022298
0.0018124
0.000859581
0.00414346
0.00297349
0.00203492
0.00271647
0.0026903
0.00146331
0.00358334
0.00584792
0.000859028
0.00264301
0.00860356
0.00380824
0.00224906
0.00267594
0.000526701
0.00442887
0.00129
0.00194117
0.00184733
0.00419731
0.00239508
0.00369721
0.00121638
0.0044147
0.0053175
0.0018425
0.00106576
0.00166423
0.0013425
0.00808138
0.00267146
0.0010884
0.000692824
0.0010651
0.00124674
0.00583627
0.0011645
0.000991797
0.000712957
0.000909679
0.00438535
0.000592986
0.000809664
0.00675171
0.000892997
0.000860551
0.00393288
0.00198368
0.00230775
0.00406687
0.00273315
0.000584713
0.000937948
0.00127952
0.00651593
0.00346425
0.00106436
0.00280888
0.00137251
0.00122392
0.00203489
0.00504843
0.000871218
0.00175315
0.00137681
0.00204661
0.0022856
0.00144098
0.0018466
0.00335315
0.00466368
0.00174098
0.00393876
0.00517294
0.00266171
0.00321921
0.00538911
0.00921605
0.0023711
0.00484237
0.00251285
0.00229932
0.000770449
0.00254913
0.00448334
0.00156694
0.00324906
0.000682338
0.000726236
0.00101867
0.000589281
0.00383325
0.000929729
0.00294628
0.00198581
0.00375066
0.0024625
0.0011435
0.00101902
0.00290371
0.00263364
0.00114509
0.000783736
0.000903811
0.00538417
0.00779069
0.00460194
0.00448071
0.00385492
0.00189761
0.00504158
0.00699874
0.000726449
0.00230738
0.00237158
0.000802095
0.00131863
0.00185054
0.00185517
0.000815043
0.000782773
0.00153398
0.000861226
0.00123408
0.00113605
0.000995745
0.000832341
0.000922148
0.00099105
0.000672895
0.00241571
0.00152249
0.00061436
0.000714585
0.00171709
0.000855473
0.00224644
0.000854636
0.00222495
0.00150516
0.00150767
0.000818934
0.000840389
0.00126415
0.00117965
0.00190406
0.00150242
0.00121958
0.00620738
0.000800033
0.00275571
0.00204633
0.00370585
0.0033801
0.00176843
0.00153069
0.000657545
0.00114568
0.00346841
0.000518143
0.00465001
0.000899016
0.00704905
0.00302682
0.00165468
0.000901356
0.00188707
0.000618795
0.00325935
0.00353942
0.00075135
0.00288304
0.00332224
0.00281646
0.0074497
0.00401581
0.0040221
0.00125981
0.00115058
0.00192729
0.000621181
0.00374302
0.000991659
0.00117529
0.00104975
0.00133738
0.00124072
0.00256065
0.00184041
0.00185925
0.00459441
0.000613985
0.00114923
0.00233734
0.00122679
0.00115889
0.000623041
0.00425019
0.00337327
0.00214772
0.00433651
0.00118427
0.0017326
0.000728865
0.000741986
0.00440883
0.00194925
0.00360123
0.00198341
0.00293459
0.00569516
0.00303393
0.00138517
0.00144127
0.00127173
0.00124177
0.0007751
0.00109581
0.00306716
0.000786293
0.00667211
0.00222913
0.00116209
0.0015935
0.000826439
0.00147843
0.00204169
0.00203536
0.0016882
0.000806353
0.000979188
0.000902958
0.00271721
0.00468863
0.00259032
0.000454145
0.000991569
0.00315167
0.00129979
0.000865905
0.00243746
0.00124453
0.00496403
0.000535626
0.00470423
0.00863858
0.00357105
0.00731077
0.00135257
0.000748274
0.000887742
0.00212153
0.00151311
0.00394177
0.00383734
0.00519222
0.00521663
0.00185235
0.000166867
0.00562754
0.00432036
0.00401747
0.00285955
0.00323981
0.0056969
0.00781151
0.00223808
0.00075602
0.000887055
0.0013259
0.00175568
0.0024565
0.00570934
0.00345514
0.000862745
0.00292982
0.00167798
0.00104048
0.000930631
0.00483213
0.00443042
0.00628358
0.00107275
0.00166757
0.000881526
0.00357684
0.000421587
0.00212474
0.00699399
0.00609628
0.000730862
0.0020534
0.00704974
0.000607734
0.00107471
0.00105791
0.00474064
0.000950256
0.00813537
0.00171251
0.00331532
0.000620132
0.00100129
0.00235027
0.00387952
0.000629074
0.000808215
0.00459154
0.0010774
0.000624556
0.00644027
0.00751394
0.00438271
0.0012443
0.00250345
0.00209487
0.000753279
0.00118073
0.00116061
0.000337366
0.00371353
0.00347842
0.0039405
0.00205006
0.000786946
0.00282754
0.00386667
0.00191817
0.000995831
0.00266596
0.000859069
0.00280759
0.00192821
0.000735757
0.00075688
0.0059573
0.00109861
0.000904448
0.00507269
0.00135235
0.000545963
0.00204849
0.00110662
0.00263938
0.00108125
0.00113511
0.000714145
0.00505158
0.00648475
0.000478702
0.00303282
0.00278542
0.00264428
0.00242576
0.000894588
0.00377551
0.000373754
0.000816666
0.00162346
0.0028944
0.00148041
0.00140544
0.0013719
0.000860717
0.00607667
0.00388543
0.0015336
0.00486045
0.00498822
0.00265941
0.00822921
0.00324599
0.00341415
0.00132828
0.00125196
0.00448953
0.00249198
0.0050711
0.00094453
0.00118664
0.000769569
0.00540088
0.00271771
0.00312347
0.000342169
0.000831481
0.000537084
0.00300263
0.00165375
0.00174961
0.00283953
0.00564367
0.000605131
0.00277662
0.0026991
0.00110068
0.000169562
0.00185002
0.00477963
0.00595293
0.00384909
0.00138125
0.00076239
0.000814835
0.00195187
0.00105005
0.000853381
0.00196703
0.000318136
0.00301656
0.00384437
0.0059804
0.000445255
0.00121202
0.00102858
0.00564843
0.00640668
0.00107659
0.00179768
0.000955506
0.00029169
0.000914992
0.00063523
0.00199533
0.00290062
0.000811544
0.00157397
0.00789011
0.00119198
0.000812731
0.00407363
0.00262772
0.00267335
0.00535612
0.00260545
0.00100312
0.00170361
0.000936536
0.000449487
0.00249039
0.00318774
0.000614523
0.000639986
0.00285384
0.00481154
0.00311694
0.0011367
0.00319871
0.00107225
0.00131433
0.00129763
0.000928084
0.000765569
0.00321263
0.00567373
0.00536778
0.00267306
0.00285661
0.0018343
0.00129371
0.00434263
0.00132619
0.00136691
0.00301226
0.00592646
0.00230291
0.00385118
0.00204464
0.00101176
0.00540194
0.00219562
0.00069686
0.00536441
0.00264539
0.00436403
0.00355127
0.00255646
0.000620875
0.00440434
0.00831774
0.0027877
0.00331729
0.00257129
0.00188862
0.00680488
0.000419741
0.000578201
0.000770556
0.000831273
0.000742903
0.000328227
0.000908491
0.00504303
0.00320197
0.000973358
0.00224622
0.0026445
0.00722742
0.00104203
0.00787631
0.00370942
0.0034939
0.00430538
0.000776269
0.00073537
0.00532205
0.00282525
0.00677857
0.00816967
0.00318132
0.00292723
0.00305297
0.0069894
0.00124762
0.000788539
0.00082079
0.00851378
0.000954581
0.00289477
0.00237722
0.00653145
0.00200986
0.00247342
0.00267003
0.0024054
0.00437856
0.00219209
0.00349054
0.00473617
0.000320388
0.00027164
0.000473726
0.000371507
0.00487752
0.00266948
0.00479565
0.00124949
0.000803731
0.000683876
0.00228497
0.00178502
0.000579612
0.00274016
0.00525462
0.000757609
0.00602693
0.00279871
0.000710917
0.0028933
0.0064088
0.00500867
0.00321064
0.00593779
0.00575319
0.00292315
0.00357133
0.00162404
0.00409307
0.00239065
0.00478975
0.00571904
0.00261527
0.00553401
0.00112548
0.00127342
0.00239267
0.00483715
0.00099887
0.00696836
0.00502404
0.000976729
0.00134764
0.000716231
0.00519396
0.0027842
0.00723443
0.00533632
0.00272929
0.000619411
0.00602295
0.00708467
0.0027507
0.00121979
0.0029224
0.000881728
0.00332545
0.0011293
0.00279182
0.000864424
0.00600563
0.00212525
0.000944969
0.000774851
0.00271448
0.006925
0.00592884
0.00288346
0.008935
0.00350436
0.00175694
0.0025944
0.00105013
0.0107167
0.00174968
0.000756756
0.00282541
0.00858457
0.000654152
0.00115712
0.000927599
0.001302
0.00506061
0.00109899
0.000770229
0.00293449
0.00377964
0.00269733
0.002584
0.00482416
0.00497497
0.000772397
0.00348611
0.00703883
0.00363453
0.00364733
0.0056714
0.000407671
0.000447493
0.00061124
0.000599013
0.00449758
0.00139322
0.000874985
0.0010151
0.00169118
0.000717386
0.000840173
0.00611386
0.00290018
0.00584094
0.00166499
0.0022203
0.00331761
0.0026973
0.00453762
0.0046871
0.000944453
0.000978868
0.000752777
0.00519507
0.00225131
0.00336247
0.0077007
0.0039728
0.00312308
0.00388745
0.00175099
0.00590556
0.000948645
0.000773895
0.00278598
0.00100367
0.00304629
0.00306603
0.00343729
0.00251778
0.000801067
0.000754647
0.000390846
0.0034648
0.00394689
0.000878261
0.000867908
0.00350161
0.0012656
0.00372919
0.00149802
0.000800001
0.00244688
0.00514103
0.00318411
0.0060189
0.00477253
0.00639563
0.00696872
0.00103334
0.00102177
0.00577817
0.000939186
0.0012416
0.000615106
0.000996148
0.00187897
0.000478538
0.000791427
0.00107015
0.00437789
0.00376441
0.00256604
0.000847772
0.00292157
0.00551976
0.00550171
0.00215885
0.00339169
0.000786525
0.000999285
0.00540255
0.000992754
0.00254987
0.000838323
0.00136585
0.00106024
0.0016124
0.000323867
0.00196563
0.00129098
0.000444253
0.000369592
0.000469054
0.000284335
0.000279866
0.000659853
0.00668052
0.00866273
0.00333488
0.00198591
0.00279284
0.00559081
0.000745576
0.000638371
0.00116141
0.00588662
0.000822181
0.0068377
0.00669028
0.00221541
0.00078707
0.00706649
0.00206066
0.000852778
0.0012464
0.00639305
0.00242386
0.000834677
0.0012197
0.000880611
0.00353157
0.0026169
0.00610997
0.000887093
0.000542052
0.000547858
0.000734556
0.000642873
0.00228924
0.000739486
0.000896916
0.000599001
0.00111692
0.000790484
0.00574514
0.000784953
0.00260001
0.00102807
0.00157385
0.000831862
0.00348559
0.00177145
0.0014004
0.000820735
0.000939697
0.00075837
0.00456998
0.00105621
0.00174514
0.00461279
0.00111631
0.00083392
0.00221986
0.000870685
0.000830628
0.00236295
0.000778503
0.00634026
0.00220202
0.000653298
0.000825229
0.000872561
0.00801096
0.000942519
0.00225184
0.00262849
0.00546207
0.00116248
0.00246815
0.0010595
0.00077344
0.000826041
0.00113192
0.00161841
0.00168716
0.00157604
0.000217861
0.00189804
0.00144194
0.00110694
0.00111357
0.00149217
0.00050167
0.00141775
0.000826976
0.00116781
0.000748078
0.00647164
0.000798278
0.00166681
0.000791637
0.000785278
0.000738086
0.00142537
0.00113317
0.00224307
0.00685603
0.00772009
0.00418896
0.000627858
0.000827504
0.00262854
0.000695785
0.0035116
0.00172383
0.00230311
0.0054102
0.000744866
0.00744446
0.00056725
0.000844391
0.0066309
0.000853243
0.00559943
0.000722708
0.000815911
0.00328486
0.00432361
0.00064303
0.00408775
0.00104253
0.00103588
0.000620842
0.00100928
0.00055458
0.000925174
0.000830165
0.00106544
0.000672645
0.00193919
0.00238125
0.00168758
0.00428072
0.000959455
0.000725147
0.00548601
0.00272408
0.000805478
0.000754129
0.0040164
0.00270903
0.00437378
0.00859541
0.000927164
0.00119308
0.000347342
0.00692873
0.00274949
0.00413416
0.00308897
0.00447038
0.002954
0.000276144
0.00108222
0.000677041
0.000259719
0.00246015
0.00139649
0.00111752
0.00109143
0.000315249
0.00107068
0.000242584
0.000288425
0.000994686
0.000629892
0.0011869
0.00449441
0.00234662
0.00621978
0.000711707
0.00112065
0.00213628
0.000894084
0.000626853
0.000791435
0.00540553
0.000807708
0.00242229
0.00101989
0.000746505
0.00101325
0.00531973
0.00403287
0.000682326
0.00344815
0.00477988
0.002912
0.00642881
0.000744628
0.00773413
0.00515568
0.00286901
0.000912221
0.0106193
0.000728557
0.000728734
0.00239083
0.0012883
0.00111747
0.000668939
0.00687493
0.00106031
0.00063959
0.00266772
0.00450434
0.00460689
0.000765931
0.000856218
0.00236967
0.000674854
0.00352432
0.000946685
0.0049649
0.00269056
0.00519012
0.00165596
0.00433496
0.0020839
0.000616791
0.00230578
0.00186234
0.00233677
0.00101645
0.000839421
0.00137684
0.00137416
0.00504804
0.000826294
0.000950012
0.000757168
0.00089709
0.000833679
0.000777299
0.000870692
0.000751804
0.00260883
0.00386783
0.00818642
0.000731411
0.000744773
0.000976493
0.00112801
0.00156123
0.00345181
0.0015531
0.0011307
0.00125287
0.000767746
0.00233517
0.000767934
0.000708914
0.000954859
0.00054583
0.000845843
0.000975426
0.000613074
0.00541062
0.000670577
0.00504443
0.00062894
0.000958028
0.00119727
0.000690145
0.00065743
0.00330713
0.0027077
0.000737465
0.000580336
0.00172199
0.00104844
0.0015824
0.00122742
0.00292467
0.000958393
0.00132269
0.00136643
0.00423026
0.00650969
0.00224373
0.000829108
0.000261564
0.005276
0.00151077
0.00334799
0.0068809
0.000548774
0.000828071
0.00108941
0.00493968
0.000301787
0.00736892
0.0065753
0.00109963
0.00316516
0.0036036
0.0018026
0.000713406
0.00630967
0.00654348
0.00336096
0.00120996
0.00158708
0.000732234
0.00265362
0.000837141
0.00136867
0.000515735
0.000784034
0.00309313
0.0012949
0.000382573
0.00169995
0.000788085
0.000491153
0.00115466
0.00234184
0.00707505
0.000767676
0.00115831
0.00478819
0.00981432
0.00420697
0.00207028
0.00199355
0.000796604
0.00544006
0.00132483
0.00533568
0.00581786
0.00251897
0.00404509
0.00251653
0.00647346
0.00435671
0.00538269
0.00210397
0.0019915
0.00189609
0.00430744
0.00101296
0.00243648
0.0034985
0.00219482
0.00200837
0.00575295
0.00240388
0.00281794
0.00817542
0.00109033
0.00043395
0.000807579
0.00315167
0.000496476
0.00230342
0.00167818
0.000831451
0.00397276
0.00320319
0.0024798
0.000779262
0.0102674
0.00147856
0.00250578
0.00312135
0.00125625
0.00115389
0.00105059
0.0079694
0.000919707
0.00144872
0.000728227
0.00452724
0.000915983
0.00110688
0.0054426
0.00336179
0.00270263
0.00112087
0.00453944
0.00510527
0.000786976
0.000223472
0.00388409
0.00369054
0.00474593
0.00664355
0.0014771
0.000725565
0.00298049
0.00583502
0.000981016
0.00151285
0.00140485
0.00152695
0.00115491
0.00655805
0.000716464
0.00235852
0.00615539
0.00118046
0.00791952
0.00157124
0.000581698
0.00203438
0.00139922
0.000497273
0.00174831
0.00212145
0.00125578
0.00124369
0.000398379
0.00266064
0.000972836
0.000823199
0.00328385
0.00249217
0.00564619
0.00081378
0.00267456
0.00554137
0.00492594
0.000932118
0.00326137
0.00197559
0.0012518
0.000297235
0.000252994
0.000413567
0.00678345
0.000825912
0.00264545
0.00214398
0.00407545
0.00284061
0.00146975
0.00079366
0.000235126
0.000318094
0.000467007
0.000233375
0.000950443
0.000659271
0.000362581
0.000948186
0.000200754
0.000378733
0.000692772
0.000548926
0.00033951
0.000293474
0.000219202
0.000905399
0.000787051
0.000460083
0.000437474
0.000568771
0.000284606
0.000290997
0.000116822
0.000388763
0.000561745
0.000650744
0.000374903
0.000295249
0.000459508
0.000779112
0.000721081
0.000370189
0.000243426
0.000266907
0.000273172
0.000242355
0.000776969
0.000399811
0.00019652
0.000455377
0.000295024
0.000702976
0.000768106
0.00105323
0.00209445
0.00477316
0.000449988
0.00272407
0.00290452
0.00561048
0.00496252
0.00258501
0.000665026
0.000825271
0.00307356
0.00241026
0.00560041
0.00646231
0.00469674
0.00572375
0.00311227
0.000776209
0.000798807
0.000655394
0.00213197
0.000351878
0.00376447
0.00112827
0.00253497
0.00263927
0.001253
0.00470437
0.00383264
0.00255593
0.00383509
0.00336891
0.00688326
0.00336101
0.00353169
0.00250583
0.000756445
0.00800233
0.00359047
0.00167063
0.00324644
0.00213172
0.00416362
0.00347577
0.00191355
0.00102041
0.000842601
0.000848867
0.00754758
0.00318728
0.000587945
0.000496906
0.00541439
0.00533376
0.00045482
0.00328979
0.00519031
0.000429275
0.000240407
0.000632463
0.000795541
0.000339133
0.000872068
0.000203703
0.000380743
0.000530221
0.000219372
0.000871972
0.000722493
0.000255042
0.000811856
0.000486948
0.000465776
0.000641845
0.000286681
0.000325941
0.000308089
0.000235909
0.000825057
0.000290112
0.00344726
0.00300997
0.000493107
0.00086787
0.00350949
0.000848696
0.00312122
0.00066335
0.00271683
0.00505935
0.00595989
0.00260282
0.00569885
0.00278133
0.00023303
0.00583161
0.00189339
0.00335235
0.00601726
0.00508145
0.0076169
0.000574504
0.00734525
0.00165944
0.00112787
0.0073222
0.000868783
0.00385792
0.00180993
0.00110189
0.000751473
0.00477963
0.00109927
0.00510372
0.00436762
0.00122136
0.0078276
0.000739259
0.0114536
0.00202708
0.000642724
0.000680478
0.00562181
0.000550346
0.000999057
0.00288214
0.00176843
0.00767982
0.00083468
0.00328204
0.000636911
0.00304494
0.00559365
0.00552923
0.000255059
0.000773029
0.000978846
0.00692362
0.0026408
0.000645061
0.000756297
0.00439702
0.00303982
0.00652369
0.00083278
0.00256393
0.00037744
0.00226813
0.0024977
0.000740536
0.00405572
0.0011506
0.000122873
0.00040066
0.010334
0.00684269
0.000788109
0.00529974
0.0051477
0.000672445
0.00641822
0.00446602
0.0038293
0.00631667
0.00685687
0.00194424
0.00894813
0.00064503
0.00213979
0.00223885
0.00498491
0.0007193
0.000998611
0.00121071
0.00456324
0.00127432
0.00138515
0.000822208
0.00292748
0.00348621
0.00414029
0.00621755
0.00964514
0.00388886
0.000832471
0.00733127
0.000579722
0.00190477
0.00182416
0.00121287
0.00555787
0.00452018
0.0032219
0.00613461
0.00267738
0.00842387
0.00137324
0.00279643
0.00230896
0.00266712
0.000966806
0.00202228
0.00106613
0.0108713
0.001051
0.00196864
0.00386522
0.00159047
0.00137258
0.00432919
0.00266018
0.00490082
0.00343245
0.00436333
0.00326249
0.0010651
0.000883741
0.00267003
0.00361579
0.00176475
0.000690586
0.00200476
0.00705169
0.0073632
0.0101217
0.0078478
0.0079915
0.0105794
0.0079992
0.00135859
0.00816648
0.00795192
0.010705
0.00746897
0.00748021
0.00778563
0.00817642
0.00782611
0.00817106
0.0019802
0.00202423
0.00118122
0.00472845
0.00175739
0.00118713
0.00126938
0.00121842
0.000251749
0.000403104
0.00264598
0.00360823
0.00391744
0.00214637
0.00261138
0.0092359
0.00330423
0.00672723
0.00326465
0.00132046
0.00108341
0.00133222
0.00421087
0.00454019
0.00225562
0.00141314
0.00309274
0.00351409
0.00148633
0.0022773
0.00102996
0.00622178
0.00168036
0.000613292
0.00141179
0.000235996
0.00395514
0.00120128
0.00124218
0.00111802
0.00118794
0.00195858
0.002668
0.00159543
0.00189233
0.00228771
0.0009739
0.00286793
0.0112029
0.00186052
0.00261437
0.00298576
0.00203214
0.00934178
0.00305757
0.00160383
0.00915766
0.00456573
0.00292628
0.00194407
0.00104951
0.00316773
0.0103721
0.00329277
0.00141333
0.00166786
0.00196525
0.00289294
0.00115885
0.00522496
0.00184724
0.00117282
0.00508785
0.00157434
0.00253857
0.00337494
0.00116265
0.00301872
0.00552587
0.00302035
0.00496128
0.00925762
0.00181298
0.0102956
0.00149567
0.00466075
0.00323891
0.00307171
0.00290802
0.00126036
0.0047483
0.00417209
0.00483298
0.00320589
0.00768718
0.00454732
0.00173943
0.00140679
0.00596412
0.00288742
0.00410776
0.00442605
0.00155775
0.00130713
0.00666168
0.00320105
0.00488085
0.00461876
0.00478754
0.0018815
0.00460509
0.000494564
0.00170491
0.0050072
0.00284744
0.00359021
0.00165974
0.0018547
0.00235504
0.000661219
0.0049618
0.00053095
0.00333935
0.00475296
0.00111945
0.00417242
0.00245704
0.00310647
0.000730463
0.00202606
0.00130113
0.00405733
0.00441855
0.0025759
0.00322061
0.00455546
0.00141326
0.00104538
0.00468597
0.00423203
0.00202824
0.00239602
0.000494526
0.000814896
0.000420716
0.00587243
0.000592733
0.00162724
0.0033177
0.00711037
0.00169809
0.00134954
0.00129607
0.00591681
0.000968145
0.00238965
0.00133366
0.00454209
0.00280024
0.00338372
0.000970293
0.00487975
0.00321412
0.00464475
0.0012855
0.00300449
0.0044354
0.000678698
0.00527782
0.00416434
0.000655742
0.00170456
0.00447399
0.00139144
0.00371188
0.00435889
0.00583597
0.0041716
0.000293116
0.00414437
0.00105614
0.00436029
0.00222654
0.0018379
0.00372702
0.00366495
0.00393999
0.00381753
0.0012075
0.00211253
0.00037669
0.00372388
0.00131754
0.00422938
0.000691014
0.00242801
0.0016557
0.00025768
0.00293101
0.00162833
0.00660232
0.00116392
0.00131464
0.00363311
0.00146181
0.000980924
0.00577899
0.00325616
0.00305829
0.00514914
0.00103389
0.000689976
0.00354108
0.00207677
0.00293476
0.000230176
0.00451789
0.000212827
0.00452934
0.0012023
0.00148873
0.00219541
0.00296265
0.00275554
0.00245377
0.00141825
0.000708113
0.0054202
0.00279849
0.00504225
0.00276786
0.00457223
0.00231127
0.00110376
0.00101015
0.00534644
0.00206086
0.00182743
0.00574472
0.00306352
0.00245648
0.00458519
0.000582969
0.00435014
0.000841208
0.00197761
0.00238051
0.00308677
0.000687381
0.0039657
0.00192139
0.00471454
0.00182111
0.0018699
0.00426425
0.00267829
0.000996728
0.00104394
0.00204799
0.000617429
0.000893202
0.00616317
0.0026791
0.00060828
0.00428775
0.0048537
0.00275037
0.000736581
0.00181169
0.00135193
0.00256839
0.00384271
0.00484654
0.0044577
0.00104205
0.00164547
0.00400248
0.00277581
0.00237452
0.00544867
0.00159057
0.00109727
0.00308569
0.00450452
0.000787598
0.00359058
0.00285994
0.00423084
0.00189927
0.0010601
0.00446003
0.001891
0.00235826
0.0012
0.00455466
0.00206771
0.00500855
0.0023648
0.000738704
0.00117633
0.00268995
0.00662445
0.0014574
0.00670134
0.00293209
0.00303786
0.00460746
0.00337031
0.00369726
0.000725882
0.00321206
0.000557624
0.00471958
0.00274943
0.00110951
0.00908374
0.00080223
0.000807448
0.0126876
0.000708832
0.00147685
0.00463923
0.00315323
0.00276626
0.00523987
0.00133846
0.00804216
0.00464899
0.00250179
0.00310075
0.00310888
0.00415529
0.00395496
0.00078938
0.000620035
0.000717813
0.000446592
0.000474218
0.00540415
0.00225284
0.00085868
0.00115615
0.00396979
0.00495008
0.00450041
0.000550585
0.0121963
0.0110302
0.00178445
0.00114287
0.00368722
0.00340642
0.00337735
0.000728277
0.000535775
0.00408145
0.00265873
0.00268221
0.00316828
0.00950175
0.00556052
0.00129566
0.00347623
0.0119834
0.00400861
0.00241131
0.00113773
0.00199816
0.00101674
0.000837183
0.00119965
0.00198634
0.00179981
0.00275378
0.00406442
0.00618446
0.00266484
0.00163543
0.00230835
0.00433922
0.00566308
0.00919598
0.00709117
0.00536836
0.0024971
0.00338996
0.000887771
0.000501376
0.00154895
0.0104232
0.0105643
0.0119611
0.00270873
0.00656506
0.0032282
0.00284294
0.00258557
0.00172893
0.00243555
0.00210978
0.000755723
0.00120736
0.00146136
0.00126245
0.00154652
0.00369231
0.00777401
0.00143987
0.00802091
0.00362196
0.00495021
0.00246391
0.00312536
0.000998998
0.00060184
0.000909979
0.000491132
0.00141777
0.000743559
0.0102016
0.00210253
0.000792888
0.00054273
0.00311362
0.00250583
0.00220271
0.00309095
0.00661279
0.00414677
0.00294053
0.0036608
0.00386087
0.00141625
0.00319133
0.00215574
0.000252716
0.000590649
0.00232585
0.00167307
0.00675785
0.00318022
0.00120471
0.000892662
0.00570756
0.0025144
0.00452284
0.0100598
0.00314155
0.000740643
0.00140269
0.00163696
0.00245646
0.00776133
0.00161863
0.00617669
0.000718864
0.0034097
0.00893969
0.00980052
0.00230084
0.00371218
0.00190575
0.00379957
0.00176054
0.00347625
0.00107753
0.000794005
0.000739539
0.000449526
0.00189389
0.0036404
0.00237999
0.000829762
0.00443233
0.00425039
0.00309826
0.00395428
0.00120999
0.00271176
0.00427408
0.00206394
0.000945336
0.00269029
0.00587513
0.00744197
0.00197812
0.0101144
0.00120804
0.00158794
0.00246421
0.00248995
0.0119278
0.00205697
0.00423797
0.000516381
0.00518597
0.00335588
0.00422057
0.000621087
0.000241225
0.00935134
0.00249059
0.00548297
0.00336642
0.00229685
0.00140077
0.00079753
0.00466554
0.00525554
0.00335172
0.0036593
0.00420012
0.00457727
0.00201324
0.000898705
0.0011767
0.00506346
0.000770234
0.0022593
0.00212603
0.00076931
0.0117297
0.00180347
0.00166406
0.00979341
0.00739002
0.00823374
0.00498865
0.000580895
0.00106704
0.00425157
0.00434117
0.00414901
0.00662324
0.00296857
0.00138892
0.00242007
0.000994963
0.00325448
0.00284255
0.00237579
0.00564301
0.00587597
0.00235911
0.00190312
0.00298202
0.00417868
0.00360088
0.001697
0.00281791
0.00827951
0.0014385
0.00338752
0.00382873
0.00821737
0.00245051
0.00463134
0.00244212
0.002853
0.00102837
0.000759576
0.00172828
0.00495538
0.00986098
0.0057082
0.00209918
0.00186318
0.000630326
0.00709977
0.000727746
0.00368362
0.00862327
0.0046298
0.00398563
0.00228444
0.00317273
0.0031554
0.00678623
0.00240061
0.00165281
0.00250711
0.00130364
0.000860883
0.00561123
0.000683105
0.00337223
0.00773604
0.00832735
0.00689759
0.00991362
0.00424718
0.00193885
0.0017459
0.00139394
0.0114272
0.00468004
0.00835659
0.00525606
0.000744436
0.00289356
0.00703943
0.0117644
0.00519426
0.00624049
0.00310392
0.00222215
0.00326832
0.00253175
0.00235008
0.000820656
0.00613553
0.000842265
0.00568884
0.0010749
0.00685723
0.00213286
0.00290272
0.00222015
0.00559482
0.00108176
0.00786378
0.00403901
0.00348392
0.000614398
0.0119064
0.00115748
0.00232395
0.00223586
0.000587176
0.002109
0.00333355
0.00673322
0.0116898
0.00495334
0.00814013
0.0118543
0.00280411
0.00448941
0.00221814
0.0021974
0.000773334
0.000507874
0.00406975
0.00384107
0.00243949
0.00246714
0.00782398
0.00541164
0.00102355
0.00131223
0.00247743
0.00376739
0.000799455
0.00709316
0.00220024
0.00318474
0.00095021
0.00396844
0.000890211
0.0109654
0.00335151
0.0066234
0.00406162
0.00151808
0.00215886
0.00682075
0.00272634
0.00105343
0.0114877
0.00270906
0.00266305
0.0015837
0.000788437
0.00918334
0.0024544
0.00700327
0.00967107
0.000680485
0.00342245
0.000795017
0.00658711
0.0106958
0.00150605
0.00466272
0.00336601
0.00687036
0.000848243
0.000779107
0.000769329
0.00199054
0.00082539
0.00108997
0.00370538
0.00617072
0.00272056
0.00319019
0.00733555
0.000964281
0.00460937
0.00853931
0.00440113
0.000743034
0.00152805
0.00898633
0.000474665
0.000239061
0.000322298
0.0043304
0.00202527
0.00434224
0.00291745
0.00255468
0.0105256
0.00926405
0.00253937
0.00339907
0.00671514
0.00502009
0.00266001
0.00476074
0.000906902
0.00552569
0.00144266
0.00190287
0.000837206
0.00118146
0.00144334
0.00275241
0.00264661
0.00306902
0.00254075
0.00638955
0.00261425
0.00333931
0.00543845
0.00181559
0.00147763
0.00415025
0.00310459
0.00576053
0.00599141
0.00533952
0.00297587
0.00184248
0.000903043
0.00113961
0.00318769
0.00119656
0.005637
0.00219605
0.00109409
0.00247482
0.00970792
0.00377537
0.00782664
0.000863534
0.0106949
0.000456931
0.00251019
0.00183513
0.00591068
0.00576765
0.00241252
0.00159268
0.00261303
0.00633148
0.000733022
0.00178686
0.00511273
0.0118903
0.00397168
0.00420336
0.00175153
0.00625147
0.00467382
0.000908275
0.00314328
0.00415027
0.00206128
0.00405959
0.00688994
0.00582621
0.000747584
0.00469627
0.00174754
0.00339911
0.00094297
0.00304183
0.00323984
0.0028955
0.000720289
0.00315301
0.00491529
0.00167816
0.00226429
0.000491076
0.00290266
0.0036848
0.00239071
0.000609677
0.00175264
0.00371843
0.00264511
0.00365191
0.00202482
0.00102307
0.00268418
0.000802274
0.000975529
0.00134067
0.00427371
0.00150167
0.000917472
0.00165493
0.00419249
0.000592767
0.00229306
0.00410945
0.000929623
0.00718844
0.00158251
0.000870707
0.000965069
0.00178072
0.00228112
0.00132571
0.00120909
0.000541454
0.0042929
0.00116713
0.00106263
0.00410383
0.00516878
0.000805853
0.0058768
0.00135607
0.00263034
0.00788639
0.00162898
0.00568792
0.00260151
0.000966681
0.000430686
0.000559751
0.00261278
0.00601235
0.00299138
0.00720067
0.00396414
0.00167554
0.00589723
0.002551
0.000806572
0.00205428
0.00216776
0.00456848
0.00435953
0.00171209
0.000880406
0.00108935
0.000736819
0.00116242
0.00955091
0.00189495
0.00440637
0.00307368
0.000545117
0.00215729
0.000647732
0.00110102
0.00259011
0.01125
0.00449978
0.00491724
0.0119774
0.000910722
0.00244578
0.00217189
0.0107354
0.00235717
0.00966527
0.00119143
0.00520252
0.00121817
0.000807581
0.00110435
0.00338059
0.00568768
0.00169885
0.00172506
0.00398884
0.00271624
0.0042201
0.00127141
0.00258473
0.0025065
0.00699144
0.00515562
0.00126438
0.00575917
0.00116018
0.0083244
0.00204026
0.00398371
0.0022112
0.00421201
0.00249829
0.00276035
0.00775906
0.011099
0.00115891
0.00121061
0.0023484
0.000867323
0.000781387
0.00302101
0.000778228
0.0019758
0.00400477
0.00691562
0.0022123
0.000787456
0.00401725
0.000765707
0.00113128
0.00474893
0.00800133
0.00415688
0.00265232
0.00432578
0.00486574
0.000821166
0.000841213
0.00251975
0.00498597
0.00643158
0.000719714
0.00371002
0.00545335
0.00178276
0.00328454
0.00113611
0.000796859
0.000761815
0.000298718
0.000762527
0.000803618
0.00233095
0.00237948
0.000828108
0.000409935
0.000223463
0.00030709
0.00783003
0.00670202
0.000848241
0.00531207
0.00265241
0.00519093
0.00417761