/*--------------------------------*- C++ -*----------------------------------*\
| =========                 |                                                 |
| \\      /  F ield         | OpenFOAM: The Open Source CFD Toolbox           |
|  \\    /   O peration     | Version:  v1912                                 |
|   \\  /    A nd           | Website:  www.openfoam.com                      |
|    \\/     M anipulation  |                                                 |
\*---------------------------------------------------------------------------*/
FoamFile
{
    version     2.0;
    format      ascii;
    class       volScalarField;
    location    "0.87";
    object      epsilon;
}
// * * * * * * * * * * * * * * * * * * * * * * * * * * * * * * * * * * * * * //

dimensions      [0 2 -3 0 0 0 0];


internalField   nonuniform List<scalar> 
1431
(
0.345093
4.06147
93.6688
60.6672
0.634445
27.9588
1.62374
4.42706
94.2167
23.849
12.5248
1.52088
0.639228
59.257
51.4167
27.1717
59.3794
1.99405
4.24364
11.0597
0.510849
12.682
32.7033
65.8409
50.4849
9.90387
54.4279
53.4521
22.1086
1.03102
49.882
12.2557
31.1241
2.40712
1.75511
45.9023
9.32645
10.2607
9.89001
9.82206
147.399
8.07188
1.53886
1.32054
33.2641
0.7031
36.678
4.95197
18.3664
16.3485
1.0859
24.4803
69.8649
2.02174
1.30721
4.83018
27.5203
53.6021
53.9394
0.721086
41.7644
4.07795
48.75
9.82729
35.1058
1.9505
77.4395
29.3997
2.23734
12.5091
1.60026
1.28239
1.81886
21.9685
9.29807
28.6352
0.31407
60.1205
5.76418
79.1963
8.11782
1.19347
0.493434
53.8667
86.8129
0.49344
0.627826
15.0398
73.6254
7.54744
3.39696
37.5973
0.616677
10.1575
1.46792
0.352239
8.83679
8.68929
0.667054
31.0522
2.72442
5.54753
6.51387
0.845116
21.5744
0.940025
6.61147
160.095
64.8567
0.416031
95.4348
2.97073
5.50188
4.66605
19.0141
0.896986
1.80279
19.2223
83.2563
27.0541
8.93688
63.1637
27.2592
54.6081
9.33464
0.688075
95.599
1.8734
0.393618
26.4119
3.71645
126.772
48.3035
5.99524
0.571907
62.4911
2.31848
2.90252
1.57808
138.648
39.9761
0.862063
9.82887
18.8528
21.2918
16.2195
8.75402
159.328
3.40108
14.7616
28.2428
38.4851
1.6552
0.317753
3.49646
1.39224
8.98949
4.43066
5.0979
8.52039
1.81432
8.01567
3.65486
11.0589
0.750885
131.471
0.366355
9.62278
1.05695
7.14262
33.7364
17.932
49.0498
17.4395
9.33069
0.586546
3.38916
25.4666
1.21033
6.02708
10.7434
31.621
5.11445
5.98214
14.1399
16.7503
6.37042
49.3589
9.43506
10.0882
1.0984
74.5296
0.309402
7.36361
100.011
8.10022
6.29864
7.36025
2.87014
1.41657
0.719363
72.6533
12.3457
163.632
6.95295
63.637
0.422261
10.0442
8.38672
22.986
7.96635
5.35645
76.1643
9.71921
26.2378
32.3942
4.76671
0.931643
11.1709
9.99658
9.23146
63.191
21.5078
144.995
11.0603
28.9927
26.589
5.53465
18.8062
50.3552
0.667501
39.1762
11.0299
4.55925
4.40861
4.82062
10.0808
0.721456
8.20306
0.82482
10.3634
10.1969
76.4345
65.7604
1.62359
2.21192
10.368
1.54873
2.27261
27.2762
8.89839
88.8653
19.9008
19.6102
45.2191
36.1172
0.768357
0.944044
30.6605
33.8229
38.0033
4.81427
0.73775
45.4048
4.50089
18.1748
28.6988
7.54553
16.2929
51.852
6.93216
23.0541
8.73876
8.6585
40.2648
8.66018
6.20678
1.35608
2.08954
27.7047
91.2801
0.726123
4.4598
5.1242
31.6597
46.0273
0.566572
4.35271
23.037
9.25123
17.7889
11.4892
4.49875
1.04656
10.4022
5.55701
0.300613
7.51227
1.32005
7.26463
11.1112
27.0477
0.286387
6.41231
3.86054
1.76934
8.61735
34.7352
32.2086
0.310251
9.98738
13.0836
40.1102
0.744017
2.78902
2.05689
31.046
0.904528
4.42805
1.72658
1.44986
0.960336
41.7032
0.954015
20.8116
2.40791
7.39484
2.68893
79.0003
9.35916
10.8773
0.31867
0.598226
1.09231
8.84559
60.0619
1.27825
0.427676
1.27628
0.360668
0.793889
7.60541
3.18793
18.3802
46.1206
0.586043
11.3841
0.254571
0.186801
0.822102
1.26617
2.27032
1.4542
0.851143
1.07892
1.84072
1.72223
0.768574
1.0794
1.36917
0.766148
1.01858
0.797315
0.380881
0.296271
0.3035
0.767608
1.30835
17.9104
25.2201
3.20021
0.672191
1.45247
13.2375
0.991435
58.1696
8.21901
11.4952
13.9057
1.20852
2.60467
0.724595
0.534109
1.54993
1.20502
0.773335
1.26493
0.951192
0.950071
0.244516
0.293614
63.7304
21.392
13.9162
2.0075
3.57806
0.299196
10.7395
6.33817
9.11993
0.919326
6.68709
10.2527
1.28317
8.17021
12.2643
0.898369
7.82543
0.328918
14.3594
41.3775
11.4917
2.19597
62.4689
19.9616
42.6816
6.80583
63.4948
0.654597
0.284984
0.912527
1.59654
6.20734
1.56044
1.36757
8.26713
2.20202
14.2929
43.4706
9.64968
53.6581
1.72599
7.73155
4.41397
0.725337
10.3596
1.76209
5.23096
1.13435
2.72397
1.47098
130.545
3.13261
2.33773
1.05249
3.6954
8.30914
1.36885
1.50538
10.4917
5.89552
4.36631
7.67381
6.39505
1.84806
5.89697
3.89876
3.27597
4.90289
0.749785
50.3315
4.52718
4.63518
12.8983
0.764192
0.768238
0.293744
80.2957
4.32068
0.703652
79.1372
1.44975
6.07564
45.654
6.81637
0.669743
62.3828
57.1147
79.5368
1.65802
1.64347
1.29727
48.0533
4.82085
10.6091
10.5331
16.246
6.14616
2.54245
0.663297
0.523737
2.48097
0.555526
62.8758
1.54044
1.17009
93.8755
1.13807
11.3717
1.07993
23.5009
127.349
15.7856
13.5699
7.49939
1.00459
0.547851
6.19045
2.22253
97.6073
79.5774
1.16964
6.27815
13.8709
11.3188
2.45698
69.9139
110.939
1.86583
0.937244
1.01063
1.01765
0.884694
0.400155
1.52119
2.10054
3.62271
2.23197
0.873819
2.29281
10.9491
6.77796
1.16752
0.843859
3.18227
2.05058
33.1147
2.36668
3.68007
41.7001
15.2018
53.5754
6.09787
18.0726
2.20828
9.51224
6.00746
5.34159
4.32115
0.457446
1.08781
0.584832
31.4516
2.36289
0.623825
6.20763
49.7848
9.0072
32.2333
4.44074
5.17995
2.13773
71.491
67.9504
39.2685
0.754669
2.06205
4.9548
41.8446
7.0422
0.501054
10.2316
47.2622
9.81708
61.0168
3.63542
1.67092
0.967762
3.85041
18.0478
1.06528
5.62728
5.02675
12.2996
2.62822
2.46005
3.94763
11.3922
1.12696
18.0678
23.188
48.34
13.7242
10.119
8.91885
2.43902
0.207684
1.24697
5.10657
0.327197
4.94246
3.38659
0.427449
6.63406
16.794
6.10697
7.88921
0.38041
15.9474
81.2281
52.0277
3.64348
0.457792
17.0055
67.0493
5.1035
65.6974
36.7371
31.9039
4.14115
0.326905
1.27887
2.20764
0.28299
0.935467
9.11627
0.275686
0.241391
2.33689
5.91454
17.6011
2.11559
0.510101
6.3522
1.09433
2.98544
0.342754
4.82992
24.5266
2.42662
6.92655
28.8128
6.81833
4.91707
0.976167
31.5622
6.71871
76.0351
21.2291
2.32411
1.90414
1.56788
8.08117
30.7275
72.0003
2.6773
7.23526
11.8065
1.45659
3.8393
16.8222
0.530035
3.00141
3.67339
8.69471
0.440628
13.6836
9.25543
3.89979
28.9093
0.288631
7.65066
2.60913
23.4225
11.5085
11.7046
24.9208
20.0278
0.24667
21.0554
36.1227
0.889052
9.76146
2.51498
0.979569
1.65875
1.56969
28.1316
14.5693
0.614259
64.9407
22.8147
16.2483
2.20287
2.10262
0.294102
0.557008
0.334082
8.1096
5.13799
16.8404
0.325208
4.1739
0.264145
0.439167
29.5402
27.9998
8.54289
13.9284
167.389
0.912651
0.22229
0.437533
9.27431
27.842
25.1496
5.31409
106.342
5.50841
1.28259
23.8915
9.61693
5.32771
72.4643
0.261317
26.2665
12.0326
47.2376
29.9191
0.749827
1.47746
0.526774
28.3916
28.2252
60.5897
4.24241
3.22142
1.12679
7.57479
3.1295
24.4708
61.1068
13.0339
0.988168
40.1815
22.218
5.35009
20.3839
42.2223
0.261635
52.351
4.33883
28.7568
31.4625
4.35291
3.35344
13.0553
29.1341
18.2775
111.618
54.2127
47.3543
34.0976
34.4273
9.86903
38.1034
6.84347
39.3175
42.7489
29.8594
1.08898
65.1028
0.214419
0.315866
7.97615
37.7792
0.622685
38.8596
2.05641
0.279238
0.694205
2.01649
33.2456
42.8512
0.954423
148.864
0.234144
0.461647
3.72981
132.429
5.90704
4.30765
81.6033
36.0289
13.9624
10.3415
0.261734
0.263129
65.1154
5.87694
2.11403
36.3464
6.05866
0.256845
0.766648
1.3209
40.3328
1.65143
43.5706
0.307146
8.55729
6.10673
54.0817
0.339803
78.7262
31.1975
37.1459
40.4948
46.6147
35.1068
27.8207
31.8699
35.357
3.17215
3.95419
17.1858
1.79353
42.3401
0.246532
0.414099
1.48037
0.321255
0.712784
0.768038
0.482284
28.2418
1.32685
30.4748
0.722567
1.48975
4.36613
8.37338
8.54495
34.6956
92.6034
6.92341
0.599534
2.22442
2.37764
6.17791
4.75929
3.39957
1.49606
1.11728
40.3014
3.10825
20.8107
59.1625
11.0457
12.3147
5.66174
4.61526
0.372552
1.65342
1.10519
0.32856
5.20593
4.92392
0.57979
0.361091
11.5907
37.7617
1.72953
6.31499
0.403155
7.13805
1.66648
1.4332
1.2722
6.7832
0.607125
0.267344
2.89946
0.424417
10.3798
0.355092
2.89381
50.3396
41.2864
10.8545
20.4984
79.4901
19.789
7.93503
7.16758
58.4876
0.31706
0.692265
1.0485
0.369445
0.86969
0.917433
3.00257
2.33079
59.7161
53.077
25.5802
6.29522
0.342397
2.84317
2.61671
5.55759
92.7274
1.32228
3.39099
15.9292
12.9214
13.2431
8.98785
0.406221
1.16868
5.54486
2.76404
6.01185
5.07401
42.868
0.450766
34.6536
25.971
36.1844
55.1993
4.35214
4.77205
19.8844
16.3658
18.0019
21.7004
14.9386
13.7115
3.75846
1.08226
0.95003
6.90188
12.3335
0.349803
0.861813
95.5274
0.351501
1.38692
0.920723
14.7538
1.00884
29.4755
3.10783
101.169
0.442129
10.0528
1.63489
2.84624
2.13925
47.0497
37.0231
0.76364
1.28084
2.81548
1.11637
6.51899
62.6807
0.446374
25.3576
11.5688
3.37185
2.42645
31.6495
32.8609
4.87711
6.3502
1.47751
3.12016
3.46465
6.254
18.8444
1.8571
59.4968
37.0718
48.5373
1.47459
62.5022
0.196456
35.2587
0.47795
6.97733
1.57859
4.07064
11.6684
0.525128
78.6911
43.7113
118.804
0.483054
74.3605
86.0344
23.1262
3.3988
4.25788
4.56168
37.7802
69.0842
13.0649
5.18108
24.6036
8.98473
5.77209
8.64975
54.9353
73.5164
39.5814
38.6648
1.5583
26.8562
12.8223
41.7854
0.664137
32.9394
44.2331
0.605421
1.37513
1.27369
24.9804
155.576
17.6927
9.7641
2.6475
83.3666
1.33465
36.0014
60.8907
10.7634
1.16924
2.67543
35.9978
0.696954
0.421172
0.26524
1.33951
0.686335
62.4704
30.878
4.31158
41.7222
0.696405
30.6609
43.7512
23.1262
1.86114
1.36066
2.09469
18.2233
0.751356
5.04179
1.4881
72.9016
12.9896
39.3659
5.28094
2.32717
17.7294
11.0873
11.4811
37.1726
2.64584
4.60858
30.4058
34.8904
6.53517
1.06682
0.883317
69.4595
14.1815
14.1379
0.81
0.896334
0.969245
0.675053
7.29851
0.567294
28.4726
55.1759
22.8169
60.6823
1.03322
17.9327
0.849717
5.034
43.434
0.293221
1.98063
12.0805
0.51711
56.6425
83.3036
0.247744
18.0183
76.8348
1.59455
14.6095
16.0955
0.332116
0.251791
45.0827
0.916735
63.8795
1.35261
59.0583
2.92416
78.3973
6.01707
0.722819
17.9978
7.02742
0.623628
0.980692
15.3071
0.315785
101.167
0.168295
1.54156
1.86868
2.2688
1.61234
14.4657
1.94023
0.482236
81.6479
4.91569
5.65807
2.228
28.2223
0.661994
0.228852
0.429622
2.76131
104.072
22.8729
4.44485
4.82454
58.7117
1.01388
59.554
7.37461
54.152
0.300634
0.258882
50.8814
1.16482
1.38567
88.4591
48.3873
45.7396
8.90334
113.521
0.389931
0.502185
0.978115
21.6777
61.3203
111.326
0.224296
0.288475
0.226921
12.1215
9.40627
91.7095
93.7492
39.074
14.3825
4.80669
1.45491
3.12055
2.66583
106.269
46.0227
4.46444
0.336133
2.31518
43.7811
72.6092
54.5543
28.4292
0.283416
0.748493
59.7296
30.6535
0.263706
87.6144
45.6686
61.5886
4.18987
2.06004
11.016
34.8615
33.1454
55.3515
1.06271
78.6252
46.7725
12.6634
0.25146
20.8932
13.2127
14.2275
44.5532
32.4918
7.95633
1.16309
0.417127
86.9199
2.24726
1.19059
71.4009
2.36511
24.036
35.2624
0.679854
64.1301
4.6638
7.86613
8.66754
19.8096
12.6213
37.0656
91.0463
0.577863
89.0738
0.353644
18.3121
54.0764
0.527396
0.694981
0.738347
1.50986
74.7305
41.7118
3.85958
4.67842
6.16977
0.63289
1.19471
29.1504
9.02678
0.673103
11.9946
4.63913
1.65243
104.806
13.5935
59.7941
30.9223
31.6124
1.85659
0.243707
1.02378
60.9268
47.4935
18.3293
12.3866
11.9095
50.5109
1.49038
94.0205
7.72255
1.62172
0.597538
7.63269
14.0549
5.65346
15.681
7.60943
34.4947
41.0878
23.3687
2.21946
5.82376
14.3863
2.12986
79.6259
25.9903
76.7749
15.8566
1.79044
84.4753
45.8097
52.2104
0.367429
3.10903
13.0986
1.74654
55.4861
0.24256
0.433578
44.5175
6.01675
48.4069
38.5697
10.8811
11.7961
7.54363
12.5363
1.92676
13.7814
11.8614
20.2841
0.555725
1.81905
2.91218
0.426038
10.3555
49.8807
1.12488
1.81405
0.436104
0.241875
0.576089
13.1191
0.635913
69.5142
52.2554
13.3339
4.96042
4.75139
1.69389
2.34139
0.517879
0.768407
5.38659
0.539164
69.3293
5.89471
28.3402
0.761211
7.13304
2.83324
0.921909
120.458
0.39945
0.712777
1.27443
5.07169
2.41647
0.444059
0.641655
35.8924
1.39337
3.65653
1.39396
0.784202
1.79045
30.2314
9.67383
4.61521
2.99972
0.623036
7.36039
0.698086
60.6604
2.34377
9.77745
5.01255
0.307576
20.1609
37.2858
8.15678
9.24295
1.23415
3.67856
1.67091
24.6097
0.261504
6.71506
19.6286
15.548
46.1705
0.703139
158.534
6.1101
44.3199
82.3823
12.0942
3.36008
0.871583
18.0366
8.34471
53.3834
1.44027
31.15
0.256243
45.0625
0.259778
0.478823
16.8647
6.5481
12.6071
8.2458
56.41
1.99147
50.1668
41.465
34.1175
41.5037
4.83797
1.23714
4.01274
65.4471
14.7294
11.8877
11.8923
77.4115
17.4339
92.9555
19.4062
25.4248
23.8164
5.05413
44.4689
18.1837
2.42467
49.1821
135.59
2.74681
41.0363
79.3713
)
;

boundaryField
{
    frontAndBack
    {
        type            empty;
    }
    wallOuter
    {
        lowReCorrection 0;
        type            epsilonWallFunction;
        value           nonuniform List<scalar> 
90
(
27.1717
25.1496
23.8915
26.2665
29.9191
28.3916
28.2252
40.1815
22.218
28.7568
31.4625
42.7489
29.8594
37.7792
33.2456
81.6033
31.1975
37.1459
40.4948
46.6147
35.1068
27.8207
31.8699
35.357
34.6956
59.7161
53.077
34.6536
36.1844
19.8844
16.3658
18.0019
21.7004
14.9386
13.7115
12.3335
0.920723
1.00884
29.4755
10.0528
1.11637
6.51899
62.6807
0.446374
1.47751
3.12016
0.196456
35.2587
0.47795
43.7113
54.9353
24.9804
30.6609
39.3659
30.4058
0.81
0.567294
28.4726
55.1759
17.9327
43.434
0.293221
0.247744
76.8348
45.0827
59.0583
78.3973
0.315785
101.167
0.168295
45.7396
0.389931
111.326
0.226921
93.7492
106.269
28.4292
30.6535
0.263706
61.5886
35.2624
89.0738
0.353644
30.9223
23.3687
0.241875
120.458
0.39945
35.8924
20.1609
)
;
    }
    inlet
    {
        type            fixedValue;
        value           uniform 14.855;
    }
    outlet
    {
        type            zeroGradient;
    }
    wallInner
    {
        lowReCorrection 0;
        type            epsilonWallFunction;
        value           nonuniform List<scalar> 
138
(
1.52088
4.24364
31.1241
2.40712
1.75511
8.07188
77.4395
29.3997
1.60026
1.28239
28.6352
48.3035
0.317753
3.49646
0.586546
3.38916
2.87014
1.41657
0.719363
72.6533
144.995
36.1172
0.768357
30.6605
33.8229
38.0033
28.6988
40.2648
31.6597
34.7352
32.2086
0.793889
0.586043
0.254571
0.186801
0.822102
1.26617
2.27032
1.4542
0.851143
1.07892
1.84072
1.72223
0.768574
1.0794
1.36917
0.766148
1.01858
0.797315
0.380881
0.296271
0.3035
0.767608
1.30835
1.20852
2.60467
0.724595
0.534109
1.54993
1.20502
0.773335
1.26493
0.951192
0.950071
0.244516
0.293614
0.919326
11.4917
42.6816
7.73155
130.545
1.05249
1.50538
4.52718
45.654
1.65802
48.0533
0.663297
0.523737
2.48097
1.54044
93.8755
127.349
97.6073
79.5774
110.939
2.20828
0.584832
31.4516
32.2333
0.501054
0.327197
0.510101
0.440628
0.889052
0.557008
0.334082
0.749827
0.526774
13.0339
54.2127
6.84347
7.97615
2.01649
36.0289
0.766648
1.48037
30.4748
0.722567
1.11728
2.84317
42.868
1.08226
0.95003
0.861813
31.6495
48.5373
1.47459
74.3605
86.0344
0.751356
0.883317
69.4595
1.59455
1.94023
4.91569
58.7117
1.01388
1.45491
3.12055
0.679854
11.8923
44.4689
18.1837
2.42467
135.59
2.74681
79.3713
)
;
    }
    procBoundary0to1
    {
        type            processor;
        value           nonuniform List<scalar> 
29
(
1.52739
2.07972
2.69794
2.69794
44.1677
44.1677
124.056
20.3322
79.5389
10.0409
17.7471
55.0564
2.91319
1.93479
68.4956
26.0908
56.903
69.2633
5.19904
2.19536
11.1518
6.15988
60.1979
10.4328
10.5191
69.2633
8.25124
65.925
10.4328
)
;
    }
    procBoundary0to2
    {
        type            processor;
        value           nonuniform List<scalar> 
42
(
16.1444
9.99541
0.822214
0.840632
0.341972
16.1444
0.822214
0.743116
0.230247
0.246735
1.21714
2.22741
1.21714
2.94686
3.84316
18.0846
3.84316
0.277782
0.222802
2.29524
2.29524
0.277782
0.243171
5.10885
5.10885
0.258216
13.2039
0.212225
17.9326
7.82687
7.82687
0.198442
0.216463
0.244025
0.279203
0.822214
5.94625
1.0856
17.9326
0.743116
0.547862
0.372069
)
;
    }
}


// ************************************************************************* //
