/*--------------------------------*- C++ -*----------------------------------*\
| =========                 |                                                 |
| \\      /  F ield         | OpenFOAM: The Open Source CFD Toolbox           |
|  \\    /   O peration     | Version:  v1912                                 |
|   \\  /    A nd           | Website:  www.openfoam.com                      |
|    \\/     M anipulation  |                                                 |
\*---------------------------------------------------------------------------*/
FoamFile
{
    version     2.0;
    format      ascii;
    class       volScalarField;
    location    "0.06";
    object      epsilon;
}
// * * * * * * * * * * * * * * * * * * * * * * * * * * * * * * * * * * * * * //

dimensions      [0 2 -3 0 0 0 0];


internalField   nonuniform List<scalar> 
1431
(
16.2942
12.0908
18.9942
166.707
5.47225
3.81558
2.46795
5.10953
5.00526
1.66294
36.1948
2.17972
10.8104
87.9618
12.9236
64.6732
13.6523
4.69072
2.67814
37.4295
9.86844
1.51046
7.86467
102.311
72.3247
38.9419
119.317
75.209
21.805
2.94261
32
21.5658
4.44208
3.38343
3.08981
22.9239
33.1418
11.2437
3.08182
10.7332
87.617
17.6719
2.66567
2.7279
6.07238
11.7466
15.8892
11.5034
16.9366
16.3963
1.55071
2.13989
5.18926
2.91771
2.77272
7.86722
3.24009
6.68122
65.1314
12.0932
15.7828
32.0001
16.7483
9.92694
39.3799
2.0328
10.4047
3.47697
4.07798
12.7331
3.09734
2.91698
30.4878
2.85417
17.5326
5.65628
7.36058
11.9838
6.05586
172.166
8.20292
1.46005
34.7667
24.933
285.519
5.99396
5.07049
39.6323
117.973
28.5784
4.48509
61.3985
5.82436
11.1898
1.59245
8.21273
16.6323
11.3506
4.97723
26.4818
2.61377
6.31579
17.5149
4.62204
47.9156
1.671
6.7967
36.1284
12.2872
6.29338
227.668
1.94636
5.71894
28.7034
40.6322
4.68671
5.73561
14.714
133.695
4.68201
9.99642
6.40186
2.48277
93.5067
9.37237
6.03668
146.807
11.7847
13.1556
26.5646
2.50697
15.2291
47.4567
20.2406
6.52662
86.3554
33.7207
1.48759
8.96056
21.8637
2.16166
8.22665
9.95589
13.5103
8.19874
16.3184
9.84627
27.7996
32.7088
24.3618
28.4897
44.7548
15.0864
42.2245
15.5087
10.4824
9.07132
22.5282
5.54022
20.01
3.66709
27.0485
14.8409
25.0464
4.29763
322.904
6.96428
10.7277
1.9088
22.0854
73.0607
31.5565
51.4313
17.7156
9.46535
14.2175
7.26716
26.1249
4.21186
12.8817
10.7819
14.8216
6.07954
26.0205
14.233
38.8686
6.23088
91.7306
40.5025
10.1674
4.38126
13.2295
8.30441
7.50347
8.38331
8.94231
6.49962
10.0649
34.1459
36.5926
37.3711
74.7464
23.8352
118.855
7.12302
196.443
6.526
10.0585
22.1797
23.4
8.08757
5.68616
93.5129
9.72805
4.80511
5.54964
5.49441
6.41358
36.8699
10.0232
9.25264
175.584
21.7257
29.9101
11.085
30.1664
45.1785
24.8046
33.3877
23.4233
4.95384
70.049
11.2776
5.23134
4.89601
5.20761
10.9968
16.0923
8.25629
15.7301
10.5118
22.5814
3.22527
14.259
11.0927
12.611
10.4016
2.37899
2.62696
59.913
19.4837
4.02793
1.59689
12.2751
15.1446
33.5198
1.96199
15.1568
28.7422
31.3409
35.5074
14.9756
4.40078
2.35088
4.89913
28.7279
26.2194
6.309
9.17185
2.23737
6.00343
26.9045
16.1456
13.9436
38.036
7.95842
10.5707
1.87644
1.44306
1.75697
6.26706
13.3063
30.016
10.4961
28.8849
97.9871
5.41342
6.10089
48.9278
9.31276
17.886
11.9953
7.19643
4.12741
24.2613
5.58045
9.52443
6.64708
13.2585
16.8411
11.211
41.8169
13.6023
8.60748
21.92
12.097
8.66317
32.1569
30.044
1.44682
10.0385
13.1543
55.2842
6.98505
11.7347
11.1569
1.85558
4.01631
4.91967
3.52978
13.1557
3.1213
3.75347
12.6599
1.96911
3.43067
7.49004
2.81979
83.1306
9.37785
31.1256
15.761
13.3377
3.68214
8.9514
3.02307
2.05642
2.19667
1.59465
8.14576
36.9822
7.65176
2.4443
18.3959
13.3532
26.0991
11.4058
3.07624
1.87922
1.90736
2.10409
1.84385
1.78702
2.08474
2.60902
2.13578
1.73962
18.5066
3.80475
7.15271
2.06337
2.12933
1.96424
2.47209
1.80284
2.70959
1.93054
2.76137
55.4606
24.4074
11.5644
15.9793
3.82283
31.7392
5.08102
199.761
27.5466
11.5191
13.9058
5.889
2.00224
2.49584
1.79894
1.74677
2.12316
1.93124
3.74527
6.34597
2.49995
2.0747
3.80091
14.1971
44.2749
13.9163
4.29599
1.63867
1.66542
10.7466
1.66966
9.28122
12.8745
27.6104
10.2673
1.4984
32.7766
8.4908
2.54664
9.5608
1.43407
23.9335
41.9235
60.0011
1.43863
26.9859
10.5653
29.81
21.389
2.7808
1.91367
1.49569
7.39185
3.60542
1.58921
19.4263
5.38068
19.5548
16.9027
6.69142
6.53668
13.4748
8.27045
31.114
25.8009
4.5011
8.39156
14.0617
2.35181
6.65233
18.7643
2.81798
2.58301
9.86099
5.63479
6.54573
23.1248
2.07891
2.20368
34.0531
6.91711
4.90111
4.11771
1.74183
2.53588
1.57723
3.76443
1.65738
1.87515
1.96841
1.78127
4.56386
11.3757
3.79576
3.31036
4.29755
2.51004
1.78349
1.43573
13.3587
3.56871
1.73135
17.6093
1.70029
6.81002
27.9703
3.42667
1.75681
18.2336
20.4338
14.564
6.50233
5.3159
1.52203
26.9705
5.55043
6.99412
3.41905
4.39074
1.5991
2.58123
8.9087
14.2461
2.91811
2.88861
17.9109
4.1927
1.46852
16.6924
7.92599
11.3744
10.3481
4.16872
31.182
8.14183
13.455
13.9976
14.4965
2.43827
1.58524
6.26731
7.92608
6.90173
21.7449
5.73767
49.9477
11.3902
7.67948
16.5618
23.534
5.27051
1.92891
10.6764
21.2187
8.76617
1.43527
1.45936
2.3757
19.8033
4.03775
15.0831
8.07513
8.81782
10.7443
16.4666
11.3947
1.95728
3.87887
9.01088
10.1823
2.369
16.0975
13.6409
14.4969
22.7774
2.82125
1.97628
1.54749
8.29956
5.63103
1.70801
7.08813
13.2074
2.83127
29.2454
2.49377
8.69924
28.6639
9.48133
24.4406
29.7784
5.56061
2.97821
16.9789
9.32573
14.6435
4.78946
1.53578
2.11729
8.21707
18.9223
13.9883
4.767
1.63507
17.0271
1.58115
17.2364
8.12326
2.39011
4.8539
15.5697
8.93842
1.4572
5.88696
28.8333
13.5
4.94186
12.3606
16.9943
7.83618
1.4761
25.6625
2.86697
5.11502
13.725
7.15004
6.67898
14.185
1.80597
5.94174
8.30153
33.168
19.6058
13.5189
5.40032
10.1565
9.79659
1.62623
26.2732
14.4635
1.57368
23.3606
13.8558
1.89994
1.59277
5.75803
17.3204
7.42557
14.0069
3.26565
7.58172
1.70082
7.60667
5.56627
4.65445
13.9517
6.67497
14.096
10.5056
2.1607
1.88453
6.09739
1.64374
4.27218
9.60499
6.50192
15.6094
1.91613
11.0105
8.91059
10.5566
4.08537
12.0789
1.6236
6.94052
1.80246
9.20419
10.594
13.6063
4.19977
1.87964
3.89031
1.46678
16.5652
6.49924
15.7084
3.36044
1.88494
7.28836
11.8084
4.77023
1.74198
13.4707
2.92351
3.58682
3.67058
8.71805
30.0618
13.6869
1.52587
1.71218
18.4676
2.45727
7.68489
4.30068
13.4067
10.8807
16.2156
4.522
4.05936
11.5089
9.39559
13.8673
2.87083
19.9775
1.43679
5.58985
17.5098
3.65794
12.1206
19.8821
1.8316
16.7501
13.3835
13.0383
18.3445
1.94398
13.8605
2.75734
4.48337
8.13903
10.6376
11.5661
16.8786
6.15
12.7948
8.05592
16.8761
12.7062
1.72313
13.9429
146.185
3.69662
1.58259
3.73991
1.5094
6.59746
25.1311
14.7318
6.86236
12.1889
12.4488
23.8838
9.79468
5.73913
18.4013
8.28528
26.2297
1.49566
3.56507
17.939
2.3838
3.88559
8.82851
18.1763
19.371
15.354
5.95294
3.34429
5.00326
1.88867
3.20832
13.2184
2.62666
20.8527
7.78985
40.5864
22.2156
5.62948
40.1858
85.0391
13.562
2.60925
6.44303
21.1737
26.3673
3.59935
3.11702
13.0554
30.05
18.3831
153.253
5.33158
50.962
15.0999
16.0811
10.5764
5.39457
10.9095
18.3965
44.4015
23.5075
4.03129
20.4858
1.78065
4.81026
23.78
36.8112
5.23523
16.9642
3.86591
12.1013
18.8427
2.2117
29.509
4.01598
1.66999
39.2534
1.57534
2.64571
1.92688
149.576
5.48291
5.60873
29.1178
33.778
13.9626
10.3459
2.10703
7.38366
15.6907
6.59927
2.37476
11.6814
13.5834
10.5025
2.71086
11.6327
16.3344
2.43476
4.48168
8.57828
8.62788
6.77504
3.61694
2.6032
151.889
32.1103
38.2176
41.5237
47.4493
35.69
28.2403
32.2778
32.998
16.08
5.82929
17.244
20.1654
10.7076
9.24493
2.28434
1.90365
1.50678
1.75288
3.10513
6.93493
23.5539
3.44285
28.4858
22.5126
2.57104
5.32771
15.3238
10.213
35.0637
28.5032
14.6385
2.03092
11.6547
16.2215
6.60979
15.5926
13.2978
13.0811
1.89426
18.4129
4.98448
2.22875
4.28203
11.0483
12.6171
5.91372
4.7879
19.229
1.50407
2.31698
10.1936
5.97354
6.86382
2.12101
6.04262
13.0568
17.0928
6.02344
14.5796
1.45552
7.1698
2.77006
2.92348
2.13017
6.86883
4.63714
8.92024
2.62904
1.4386
10.818
14.0286
2.93221
6.09733
7.19861
10.5194
20.7299
18.3001
3.95351
8.01711
24.5307
15.5163
1.4867
1.83775
4.79017
9.51402
1.78511
1.5301
2.21091
4.08404
20.8863
10.811
27.3981
20.1505
1.44433
2.22325
4.89045
5.91327
9.85564
1.48687
2.16073
16.7953
39.0568
13.4148
17.3995
9.13557
3.26291
5.84855
3.19933
6.21363
5.38362
41.152
9.90105
35.4467
1.57864
19.3541
6.84795
8.31624
30.3833
48.6227
30.595
39.9009
55.1261
22.8109
18.3962
23.3919
2.67985
5.24887
7.0065
17.1686
12.053
3.65401
197.694
6.67733
1.54977
20.214
1.53185
5.0981
67.9441
3.42253
35.5818
16.8656
20.9734
2.20787
2.68719
2.81615
3.59561
3.07296
2.13969
1.47644
12.872
21.6788
24.7541
171.572
6.21129
58.1395
2.07039
2.05443
12.0819
28.1787
1.90012
1.7782
6.50716
21.9335
22.472
1.49588
15.9823
23.018
2.9636
11.9131
3.47541
79.9241
9.81787
17.4201
14.4617
89.5265
5.30517
7.25296
2.36908
12.6857
11.6822
8.4139
7.98397
47.0131
268.705
5.95504
7.07277
13.0711
24.3122
3.48851
4.03995
5.2196
4.92069
13.302
13.0667
4.42997
3.9547
1.51666
5.9925
12.4238
17.3952
16.2901
16.2996
3.4132
1.83832
1.66178
14.8412
10.1828
5.04004
4.86434
55.7513
2.98612
17.3435
1.4561
61.7467
68.8553
2.81694
1.5235
14.8934
22.7813
24.6068
2.02081
18.479
10.7738
3.98882
1.44445
80.4576
5.27347
2.20579
5.87143
3.12401
2.03584
8.76474
1.7808
7.28659
12.4887
2.03659
30.8014
1.9614
17.0405
2.67088
2.55255
5.32866
23.745
3.82406
11.7248
3.17474
14.0104
13.0002
63.1876
13.6095
5.64273
31.4382
11.1791
11.4889
1.7903
3.67204
5.09576
68.9939
15.9873
6.89613
3.57606
17.127
73.0826
14.194
14.1438
5.33191
5.04852
2.33794
1.46836
12.5661
4.85522
65.3612
13.7298
25.317
10.5217
2.16744
17.9327
2.50978
12.1254
43.7924
26.8718
2.66278
12.0875
14.8826
16.4884
34.5696
7.47801
30.511
166.297
2.6286
14.6809
13.8587
2.28307
8.09178
47.7963
6.12883
11.9935
4.21163
10.3447
1.46691
10.3095
13.6146
10.7898
10.3199
8.26471
13.1641
1.46938
15.3479
6.27322
226.224
18.697
1.62847
2.27437
3.29778
3.06295
14.4896
2.07248
18.9453
6.63233
3.78932
27.7871
20.1491
17.1658
17.0959
1.57822
2.0521
3.61537
5.57129
1.54381
9.409
5.29458
75.6466
10.4341
70.1633
7.46752
8.0439
2.12532
4.5149
11.4669
1.79064
1.51194
7.95909
64.3441
26.9831
9.10413
132.602
6.4166
1.4642
1.70133
1.54312
45.8954
14.9917
1.78666
2.93588
11.4328
12.1224
3.62533
9.81184
223.229
39.3458
14.3831
9.2958
1.93041
2.55267
2.49436
38.2789
11.1254
9.42408
11.1994
3.29048
44.0822
21.0253
8.13976
28.3627
1.47667
1.66069
15.4007
31.4966
6.48858
12.9554
2.17479
126.046
1.91898
14.2863
11.8886
12.244
3.7635
9.47832
1.70883
11.0258
50.3044
12.7279
9.0525
1.75525
13.2135
14.2298
12.7445
1.6899
27.6828
1.50757
1.47254
9.8239
12.386
3.22549
69.7718
1.43521
1.58873
35.1473
17.5652
14.074
10.5702
24.7415
13.6738
20.0457
12.6229
38.1397
219.757
5.74378
198.547
6.31581
2.31264
90.5488
7.21169
3.65235
11.1849
1.79016
42.3138
22.0091
3.75574
4.32449
1.65916
5.93831
11.4442
37.1695
13.006
4.54259
34.0526
5.01263
2.47998
42.5885
1.79613
63.7546
31.0808
1.94403
3.22221
10.0342
16.1326
18.8958
4.75467
18.5936
12.3972
20.2702
9.50947
2.03999
11.5637
15.1485
1.55899
1.46184
7.8953
35.3144
6.04828
14.1348
30.7305
34.7525
49.5304
59.2748
22.0811
15.6053
25.9973
15.0572
56.4842
2.62542
3.65935
1.50476
1.64449
27.0041
28.2485
6.48317
18.7512
26.0054
13.0991
3.59631
12.9418
9.78546
3.13609
2.54495
6.28736
12.9241
4.77731
1.49415
3.41821
1.56793
12.6271
12.7607
1.50694
11.901
23.3724
12.8851
5.72899
11.3144
10.3272
16.9446
5.7002
7.24114
1.48359
10.8323
9.08513
13.0715
1.49363
16.0737
17.1525
56.4421
13.3723
1.77638
5.28819
24.8145
13.5636
12.0696
3.60276
6.25991
16.2902
145.768
6.40323
54.1362
4.77105
13.4354
17.1182
3.63375
277.756
6.47432
2.50372
4.88137
5.5144
1.51651
21.1331
6.9024
36.6251
5.17825
13.3979
1.44789
2.54343
4.77068
32.8881
34.9088
14.6437
1.61354
9.25778
7.91949
2.84474
15.8617
4.42722
40.8813
6.61018
15.6868
20.1604
39.4297
31.9683
19.6765
3.93492
11.3543
6.19544
13.1542
9.77023
21.0346
1.51383
34.1431
15.2766
2.60279
50.1138
6.674
47.8888
49.2868
12.1019
19.3037
4.70548
34.9998
25.3914
75.3581
1.76747
2.2029
9.15364
53.0382
11.1683
21.0199
32.6753
27.1833
12.6099
8.4751
63.1656
7.26915
30.8914
42.1317
35.6393
42.3971
5.17359
19.1523
1.91865
4.41634
1.48778
12.7484
14.0287
5.42466
1.49585
4.51168
1.51667
13.662
24.7785
6.22141
13.8439
26.2037
2.908
6.95813
32.1782
2.74938
5.33713
8.23827
)
;

boundaryField
{
    frontAndBack
    {
        type            empty;
    }
    wallOuter
    {
        lowReCorrection 0;
        type            epsilonWallFunction;
        value           nonuniform List<scalar> 
90
(
64.6732
25.1311
23.8838
26.2297
17.939
18.1763
19.371
40.5864
22.2156
21.1737
26.3673
44.4015
23.5075
36.8112
29.509
29.1178
32.1103
38.2176
41.5237
47.4493
35.69
28.2403
32.2778
32.998
35.0637
20.8863
10.811
35.4467
19.3541
48.6227
30.595
39.9009
55.1261
22.8109
18.3962
17.1686
20.214
5.0981
67.9441
20.9734
21.6788
24.7541
171.572
6.21129
21.9335
22.472
14.4617
89.5265
5.30517
47.0131
17.3952
61.7467
30.8014
63.1876
68.9939
5.33191
4.85522
65.3612
13.7298
17.9327
43.7924
26.8718
7.47801
166.297
47.7963
10.3447
10.3095
6.27322
226.224
18.697
26.9831
6.4166
14.9917
11.4328
223.229
38.2789
28.3627
31.4966
6.48858
126.046
35.1473
198.547
6.31581
31.0808
59.2748
9.08513
277.756
6.47432
36.6251
20.1604
)
;
    }
    inlet
    {
        type            fixedValue;
        value           uniform 14.855;
    }
    outlet
    {
        type            zeroGradient;
    }
    wallInner
    {
        lowReCorrection 0;
        type            epsilonWallFunction;
        value           nonuniform List<scalar> 
138
(
2.17972
2.67814
4.44208
3.38343
3.08981
17.6719
10.4047
3.47697
3.09734
2.91698
5.65628
47.4567
42.2245
15.5087
14.2175
7.26716
34.1459
36.5926
37.3711
74.7464
29.9101
33.5198
1.96199
28.7422
31.3409
35.5074
26.2194
38.036
28.8849
32.1569
30.044
36.9822
26.0991
3.07624
1.87922
1.90736
2.10409
1.84385
1.78702
2.08474
2.60902
2.13578
1.73962
18.5066
3.80475
7.15271
2.06337
2.12933
1.96424
2.47209
1.80284
2.70959
1.93054
2.76137
5.889
2.00224
2.49584
1.79894
1.74677
2.12316
1.93124
3.74527
6.34597
2.49995
2.0747
3.80091
12.8745
60.0011
29.81
25.8009
9.86099
23.1248
6.91711
3.79576
27.9703
6.50233
26.9705
8.9087
14.2461
2.91811
4.1927
16.6924
31.182
7.92608
6.90173
23.534
1.97628
2.83127
29.2454
29.7784
4.767
33.168
9.60499
30.0618
2.87083
2.75734
4.48337
2.3838
8.82851
20.8527
5.33158
10.9095
23.78
2.2117
33.778
2.71086
1.90365
28.4858
22.5126
1.89426
2.22325
41.152
2.67985
5.24887
3.65401
28.1787
79.9241
9.81787
7.07277
13.0711
3.82406
17.127
73.0826
2.6286
2.07248
3.78932
75.6466
10.4341
1.93041
2.55267
17.5652
14.0287
13.8439
26.2037
2.908
32.1782
2.74938
8.23827
)
;
    }
    procBoundary0to1
    {
        type            processor;
        value           nonuniform List<scalar> 
29
(
2.20334
1.97794
2.71495
2.71495
5.78521
5.78521
12.0413
2.32129
6.45784
2.5697
2.17642
3.84344
2.40887
2.18494
9.44732
6.39784
5.86413
6.92329
2.43612
2.19217
5.37115
5.44543
6.35564
8.60365
8.10042
6.92329
6.91493
8.34776
8.60365
)
;
    }
    procBoundary0to2
    {
        type            processor;
        value           nonuniform List<scalar> 
42
(
1.55644
1.53372
4.0503
4.3581
2.50656
1.55644
4.0503
4.20622
1.74298
1.45708
3.33204
3.31356
3.33204
3.01663
2.15193
1.75517
2.15193
1.43969
1.5065
3.04105
3.04105
1.43969
1.44922
3.36513
3.36513
1.47937
3.21405
1.57339
2.44133
1.57842
1.57842
1.81973
2.23662
2.67948
2.97972
4.0503
1.66379
4.454
2.44133
4.20622
4.35923
3.27087
)
;
    }
}


// ************************************************************************* //
