/*--------------------------------*- C++ -*----------------------------------*\
| =========                 |                                                 |
| \\      /  F ield         | OpenFOAM: The Open Source CFD Toolbox           |
|  \\    /   O peration     | Version:  v1912                                 |
|   \\  /    A nd           | Website:  www.openfoam.com                      |
|    \\/     M anipulation  |                                                 |
\*---------------------------------------------------------------------------*/
FoamFile
{
    version     2.0;
    format      ascii;
    class       volVectorField;
    location    "0.02";
    object      U;
}
// * * * * * * * * * * * * * * * * * * * * * * * * * * * * * * * * * * * * * //

dimensions      [0 1 -1 0 0 0 0];


internalField   nonuniform List<vector> 
1431
(
(-0.483679 1.06141 1.6645e-16)
(3.17084 1.22751 3.32613e-17)
(1.0745 0.10476 0)
(2.08762 -0.0185051 1.86447e-16)
(0.457251 -0.0499846 0)
(1.33485 3.3262 2.85553e-16)
(1.71687 0.023795 4.55696e-16)
(4.91568 -0.716588 5.90003e-17)
(0.335479 2.47557 2.3988e-16)
(1.67118 6.14709e-05 4.23192e-16)
(3.79642 11.9745 2.43511e-17)
(7.0993 -0.575399 0)
(0.418285 2.28874 -2.03151e-16)
(1.3547 -0.105043 -6.11243e-16)
(0.51475 0.0297336 0)
(1.65606 0.0902011 -4.03759e-16)
(1.8092 0.115986 -3.46332e-16)
(0.418339 0.0577888 0)
(2.51393 0.584074 -2.71024e-16)
(0.722789 0.311337 2.03542e-16)
(5.3637 11.4426 -7.60094e-19)
(1.55246 -0.026077 2.40892e-16)
(0.124115 1.91808 -2.55745e-16)
(9.93202 2.79083 -4.90768e-18)
(0.446654 2.20205 2.43913e-16)
(0.203601 1.77992 5.74326e-19)
(2.26287 11.3817 -2.55277e-17)
(0.589376 0.0524582 -4.77334e-16)
(0.0806882 2.06149 -7.2253e-17)
(0.252517 5.21104 3.90414e-17)
(0.332516 4.97039 -1.14065e-16)
(-0.0687711 3.57916 5.4201e-17)
(-0.0625345 5.30947 0)
(0.691916 -0.851575 -4.65386e-16)
(1.25562 2.92873 -4.15438e-16)
(2.18336 0.574458 0)
(0.394588 2.25781 0)
(0.766559 0.0963886 -1.75753e-19)
(1.28575 0.1203 0)
(0.00780114 3.15167 0)
(0.315881 2.05512 2.58117e-19)
(0.378946 2.15086 2.38038e-16)
(0.160838 2.23257 -2.55818e-16)
(1.45031 0.135479 2.06315e-16)
(2.30677 3.43808 0)
(0.430325 0.0103594 3.81606e-16)
(2.68919 1.1017 2.36482e-17)
(1.65167 10.555 -8.25304e-17)
(1.5986 0.015852 0)
(0.96608 0.111526 0)
(1.7266 2.50189 0)
(1.46134 0.221836 0)
(1.3518 2.38247 3.95823e-16)
(5.739 0.126218 1.75012e-17)
(3.08586 0.829439 -2.17953e-18)
(0.543631 1.31133 4.90957e-16)
(-0.455746 -0.820757 2.39764e-16)
(6.52989 -0.572187 0)
(1.51093 0.0763934 0)
(0.217871 0.0190669 4.98088e-16)
(0.491912 0.0110546 -1.6329e-16)
(1.36541 -0.0687125 3.79806e-16)
(0.820318 0.0360632 0)
(0.733614 0.00956705 0)
(0.994896 0.0216165 9.14496e-19)
(1.38363 0.11211 -2.25139e-16)
(0.748141 0.0485744 -2.87981e-16)
(0.939565 0.0495649 -9.16877e-17)
(0.307545 0.00953697 -6.53787e-18)
(1.02946 -0.0432784 0)
(4.57429 -0.249577 6.82936e-17)
(0.26411 -0.400994 -1.65271e-16)
(1.95349 -0.0913201 1.20279e-16)
(-0.935381 -1.14061 3.7805e-16)
(1.17381 0.111276 4.46831e-16)
(0.350775 -0.0326933 -6.12099e-16)
(0.898254 0.0621494 -2.49675e-17)
(1.04502 0.0633993 -1.8272e-16)
(1.5865 0.00622884 -2.80375e-16)
(0.354157 0.0237972 0)
(1.63758 0.0486484 -7.85061e-17)
(0.605006 0.0775715 1.29602e-17)
(5.44916 0.472624 -7.5778e-18)
(2.08111 0.988429 1.14892e-16)
(8.9269 0.897664 2.97635e-18)
(2.15382 0.110441 -1.05784e-16)
(2.21233 0.0373348 0)
(0.211737 0.298674 2.43471e-16)
(7.25729 -0.0704557 1.01733e-17)
(6.72525 0.269542 2.97451e-18)
(1.29937 1.44389 -2.80297e-16)
(1.50736 0.573963 2.91658e-16)
(0.732645 0.215542 3.21062e-16)
(1.61528 0.204894 -1.4054e-16)
(3.18382 0.568688 9.68816e-18)
(-0.129826 4.54276 0)
(6.17221 -0.74888 -8.81854e-17)
(5.09312 1.18821 -1.56974e-17)
(1.5098 0.0972654 0)
(1.26592 0.0479101 -6.82899e-19)
(0.424993 2.06329 1.78939e-16)
(1.52184 0.0277578 -6.46058e-16)
(1.71708 0.0580331 0)
(0.320913 0.0433537 -3.61071e-16)
(1.19051 0.0950441 3.5564e-16)
(1.02242 4.69864 1.56295e-17)
(0.300881 3.49163 0)
(2.32202 7.29569 8.93743e-18)
(0.472086 1.47441 4.42202e-16)
(1.64386 0.0558935 0)
(0.286787 0.0268728 -7.74317e-16)
(0.546169 2.40916 -4.04144e-16)
(1.22411 0.841686 5.05454e-16)
(0.198116 1.86678 -1.92285e-16)
(3.33793 0.928652 -1.0314e-18)
(0.439286 0.0623422 8.27863e-17)
(0.89906 -0.257616 0)
(1.93097 -0.110996 -2.15236e-16)
(1.85319 -0.0635501 0)
(0.808831 -0.00784296 0)
(0.914644 -0.103192 -2.72216e-17)
(0.369689 0.0294315 9.7261e-17)
(5.1099 0.0791221 2.12487e-16)
(1.00077 0.0485146 1.82012e-16)
(4.02124 -0.117762 0)
(1.64247 0.125015 1.67018e-16)
(0.925639 0.0208871 0)
(0.58169 0.147957 6.43442e-16)
(0.945359 0.217418 -3.2279e-16)
(2.5819 0.228605 4.12972e-16)
(1.88046 0.0912677 4.3197e-16)
(0.519798 0.0502558 -1.15855e-16)
(2.44076 0.355881 -9.63381e-17)
(2.64268 0.658761 1.03807e-16)
(0.873875 0.400059 0)
(1.10911 -0.0497836 -3.49773e-16)
(1.11675 0.230252 1.62187e-16)
(1.51259 0.0834059 0)
(6.89267 -0.0190339 5.61749e-17)
(0.614176 0.0995006 2.10299e-16)
(0.917588 0.137388 0)
(0.135819 5.37303 0)
(1.59084 -0.0470073 9.94097e-17)
(0.314754 0.0161409 0)
(-0.47593 1.51887 2.76921e-16)
(-0.0965271 5.36011 -8.93422e-17)
(0.77874 0.00186733 -2.03813e-16)
(0.798423 2.29475 -3.8414e-16)
(1.80856 0.12357 2.96669e-16)
(0.546599 0.0561305 1.9082e-16)
(0.913141 0.0328778 2.43315e-16)
(0.398467 0.0530564 8.93828e-17)
(-0.111841 3.37097 7.37419e-20)
(1.77735 -0.124266 -1.9893e-16)
(0.577418 3.51172 -5.2364e-17)
(0.854751 0.300737 -4.08774e-16)
(7.36231 0.59502 -3.29343e-18)
(3.60884 2.02965 7.65429e-17)
(6.161 0.431212 -6.64045e-18)
(2.15269 0.132764 2.55705e-17)
(7.02858 0.721092 -4.76085e-18)
(0.358894 2.4703 2.42087e-16)
(2.32446 0.0219909 -1.57572e-16)
(2.16463 0.0792127 1.09952e-17)
(4.89418 0.0437545 -4.17846e-17)
(0.0725973 1.24678 -2.39325e-16)
(0.488977 1.58417 8.5153e-16)
(3.43292 0.640042 9.22642e-18)
(0.955902 0.0839037 2.49958e-16)
(4.34735 1.14606 3.23353e-17)
(7.0367 0.381826 -1.00996e-17)
(0.767831 2.57849 0)
(0.395889 3.29999 -4.90378e-17)
(6.91398 0.402841 5.46358e-18)
(3.46959 1.39796 -1.33296e-17)
(7.42018 0.366427 0)
(2.36561 0.255749 0)
(1.73774 3.30117 -1.55011e-16)
(1.46967 2.41758 -3.5419e-16)
(1.33982 2.8205 -4.6716e-17)
(1.32677 0.0143567 -4.3092e-16)
(1.37978 0.297732 0)
(1.02795 2.44693 8.68716e-18)
(9.12973 3.81128 -3.28653e-18)
(1.6199 2.86334 1.18255e-16)
(0.379555 1.63538 0)
(0.621581 1.36126 -1.48376e-17)
(3.84758 1.6504 -5.16121e-18)
(0.784511 3.53722 8.20319e-17)
(7.58399 -0.139678 3.48542e-17)
(-0.123275 5.23191 -7.24859e-17)
(0.332384 2.9669 -5.02681e-17)
(-0.168796 3.01368 -7.98635e-17)
(1.69502 5.50379 0)
(1.87852 0.0337242 0)
(3.96208 2.49967 -7.40946e-17)
(5.06664 1.60109 0)
(1.44528 3.23812 -2.60489e-16)
(0.352476 0.0114167 4.66401e-16)
(-0.310433 0.385395 0)
(2.27251 1.52501 -1.58002e-18)
(2.24658 0.0496986 -9.10168e-17)
(2.01061 8.34732 -4.80114e-17)
(2.32938 0.0711894 8.72412e-17)
(0.82943 2.34528 -7.42745e-17)
(-0.0443312 5.36179 4.61103e-18)
(-0.345223 2.87202 1.36752e-16)
(0.598141 -0.308594 3.31949e-16)
(7.08235 0.980648 -1.66248e-18)
(-0.0693227 0.723223 -2.18734e-16)
(1.83821 -0.150419 3.56852e-16)
(2.2826 -0.0281916 0)
(-0.11261 3.32991 4.18029e-17)
(1.61015 4.76341 3.87254e-17)
(8.08586 1.38766 0)
(1.19731 0.625587 5.56674e-16)
(-0.253079 3.31119 2.44888e-16)
(1.58313 3.48881 -6.1186e-17)
(1.88319 3.10261 -5.83463e-17)
(1.49932 7.82487 3.39599e-16)
(0.420509 3.05667 4.24883e-16)
(1.06361 1.77497 0)
(1.06442 0.153935 3.47775e-16)
(2.14926 0.0465853 0)
(1.08363 3.26187 -2.24152e-16)
(7.5713 1.88945 2.66714e-18)
(3.31401 7.02916 -3.80657e-17)
(4.71854 1.1413 3.44564e-17)
(0.31933 3.16159 2.88752e-16)
(1.03108 8.23584 5.74473e-17)
(4.92906 0.212787 3.47912e-17)
(0.187729 5.18145 2.44749e-20)
(0.0375541 4.35001 -4.57421e-18)
(0.0272444 2.99449 1.17957e-16)
(0.0482826 3.48306 -5.31901e-17)
(6.57996 0.647254 1.10228e-17)
(-0.315367 3.30554 0)
(2.03979 3.97455 -4.92109e-17)
(-0.000274471 5.27689 0)
(1.90518 1.19416 3.26931e-17)
(2.27417 0.329515 7.20312e-17)
(1.89749 2.76572 1.72908e-17)
(7.26979 1.37338 -1.13603e-18)
(1.24296 4.30381 0)
(0.753772 3.13499 3.60891e-17)
(0.844878 0.202625 7.39144e-16)
(1.23877 3.8098 3.78129e-16)
(2.073 9.23143 0)
(0.668361 2.6106 -5.68656e-16)
(0.908211 0.145763 1.92554e-16)
(0.67835 0.236507 0)
(7.23673 -0.0791069 -2.55537e-19)
(2.12691 0.0975726 2.4968e-18)
(2.10888 -0.00048341 -1.65845e-17)
(-0.131334 5.27987 5.44682e-17)
(0.104189 2.57526 -9.1128e-17)
(2.11116 0.0679276 2.04169e-20)
(8.02815 2.5413 -6.26458e-18)
(5.94816 1.29287 4.16824e-17)
(-0.260415 3.11687 -7.72098e-17)
(-0.381231 1.87774 1.68535e-16)
(6.90325 0.145755 -3.34882e-17)
(1.39352 2.97765 0)
(2.29174 0.200734 8.12187e-17)
(1.38397 2.69643 4.28312e-17)
(1.8424 6.8048 -7.77627e-17)
(0.600882 2.72817 -2.31691e-16)
(1.1455 3.62587 0)
(1.39902 9.71373 8.01267e-17)
(-0.358286 -0.113764 0)
(0.128253 1.15828 -7.64471e-17)
(-0.314732 3.36596 9.90343e-17)
(2.91496 1.07633 -1.55443e-17)
(1.91624 0.876565 6.309e-17)
(7.2579 0.471698 0)
(0.436208 3.58228 -7.15083e-20)
(7.38115 0.211377 -9.54991e-17)
(1.36273 5.57547 3.03229e-17)
(-0.376212 0.557508 2.4413e-19)
(-0.282607 1.64069 -1.04734e-16)
(0.846307 2.73735 0)
(0.377267 2.62329 3.35289e-16)
(-0.0590823 5.32624 1.18869e-16)
(1.93938 2.07562 2.69957e-16)
(2.68272 0.588823 0)
(5.46754 0.846278 0)
(0.133856 2.36654 2.23068e-16)
(5.49257 1.26125 -5.04149e-17)
(8.33432 0.607096 0)
(2.94888 1.5457 -3.4019e-17)
(0.0425424 -0.0572648 -2.76796e-16)
(0.558156 2.55669 2.5872e-16)
(4.72054 1.51009 -4.23e-17)
(0.59665 3.26751 -8.09836e-17)
(0.926997 7.59912 -1.9321e-16)
(0.304981 2.93679 -7.28431e-17)
(2.58689 4.75441 0)
(1.072 2.46322 0)
(0.983895 1.16305 2.24004e-16)
(-0.0417372 0.247731 1.30465e-17)
(1.06384 2.41987 -2.58874e-16)
(1.55077 0.0458781 -2.15787e-16)
(2.6924 0.950331 -4.18041e-18)
(1.24344 2.28323 9.48722e-17)
(0.485133 4.2198 -5.95711e-17)
(2.10515 0.0398709 -5.80868e-17)
(3.20057 1.78701 2.26797e-17)
(0.046774 2.81837 -4.94827e-16)
(0.329889 2.23921 -4.31578e-16)
(3.97147 1.12367 -2.16559e-17)
(4.31015 3.10357 2.70466e-16)
(2.01983 0.336995 0)
(1.41785 -0.0727878 -9.13629e-17)
(0.640182 -0.824285 0)
(0.378959 2.71831 -4.20119e-16)
(4.82969 1.91028 0)
(1.45507 3.05369 -2.06977e-18)
(2.86676 0.715774 1.77353e-17)
(0.375052 0.198289 -2.67402e-17)
(6.9523 7.28349 1.22503e-18)
(2.89951 2.1373 2.29558e-17)
(4.40398 2.18233 0)
(0.677851 0.080877 0)
(0.342327 3.30859 0)
(1.35003 2.79115 5.40746e-16)
(1.18152 -0.0508172 -2.58691e-16)
(0.660667 0.0965659 0)
(0.713593 2.63332 5.23384e-16)
(5.70444 1.37228 3.0034e-17)
(2.1395 -0.0107139 7.66433e-17)
(1.549 3.07138 2.48612e-16)
(0.469846 0.083617 2.15248e-16)
(0.631551 2.544 -5.24364e-16)
(1.58289 0.0155834 -3.91937e-16)
(2.22955 0.247009 -1.75471e-17)
(0.893139 2.15372 -4.47406e-17)
(0.519667 2.8692 0)
(6.24698 0.775279 7.46255e-18)
(1.41237 2.80771 -2.37091e-16)
(-0.336476 -1.24208 0)
(1.16042 0.141931 0)
(0.637472 2.13576 3.54975e-17)
(3.83865 4.33541 1.0932e-16)
(-0.0642908 2.09265 0)
(0.198364 2.8011 2.44223e-16)
(-0.101658 4.83698 0)
(2.72961 1.26814 2.41862e-17)
(7.34664 0.0517675 8.47153e-17)
(3.73656 3.49198 -1.96634e-16)
(1.12158 3.16995 0)
(0.786707 3.65317 2.17018e-16)
(0.58577 0.114995 -4.21384e-16)
(0.235168 2.87205 2.31323e-16)
(2.78606 2.78685 -8.54289e-19)
(0.559731 0.0721508 3.34615e-16)
(2.45272 2.85106 -1.58584e-16)
(8.61111 1.11991 2.74655e-18)
(1.66327 0.357526 -8.10345e-17)
(7.03915 -0.024144 -9.03725e-20)
(0.217462 2.2019 1.08526e-18)
(1.66738 -0.0736521 -4.62345e-16)
(-0.0504813 1.21339 -4.58505e-17)
(0.560428 1.40162 -9.0548e-17)
(2.52583 0.791983 3.97299e-18)
(0.403254 0.0790842 -4.92302e-17)
(7.71577 3.99408 2.21444e-17)
(0.591367 2.41666 2.5009e-16)
(11.1633 6.44797 -4.69436e-19)
(0.144041 2.21979 6.5282e-17)
(0.521246 5.67192 1.46161e-17)
(2.20076 9.7576 -9.7719e-17)
(0.572733 -0.0170833 -2.30615e-16)
(7.26369 -0.016502 1.45345e-16)
(1.73012 2.73383 0)
(-0.112619 2.36756 1.30897e-16)
(6.91153 2.29168 -1.40282e-18)
(3.19215 2.47602 -2.39571e-17)
(0.677609 0.205616 -8.03866e-17)
(0.830825 1.73581 0)
(7.19007 3.10236 -2.70935e-18)
(0.376622 2.56673 5.04363e-16)
(1.48356 2.83804 1.26013e-16)
(1.14737 1.55795 0)
(0.596016 0.0364749 1.78777e-16)
(10.2591 8.28184 -1.19711e-17)
(0.440991 3.22495 5.87701e-17)
(1.55328 2.77777 -7.1781e-16)
(0.0508758 3.20652 3.64946e-18)
(1.12159 3.21143 0)
(1.71336 2.89056 -3.10504e-17)
(2.3298 0.451067 1.38166e-16)
(1.38753 2.6875 -2.28066e-16)
(1.27988 2.68297 2.2525e-16)
(2.10774 0.0164112 1.9294e-16)
(6.38266 1.15782 -5.65063e-18)
(0.451097 2.62565 1.02194e-19)
(0.683443 2.57432 5.55222e-19)
(0.609127 2.5538 -1.70468e-16)
(0.797356 2.54906 -5.09667e-16)
(1.02349 3.30712 -5.86687e-17)
(2.95893 3.20839 -1.03841e-16)
(-0.0577952 2.71878 3.63976e-17)
(5.44131 1.77211 1.40819e-16)
(0.195691 2.74565 -3.85749e-17)
(1.17131 1.02761 -8.8586e-17)
(0.764488 2.7487 1.33167e-19)
(1.15685 3.52475 9.57118e-17)
(-0.353457 -0.592314 9.78806e-17)
(2.54115 0.467591 3.67815e-17)
(0.778309 2.83762 1.88997e-17)
(3.46619 2.9219 0)
(1.36072 2.85247 0)
(0.774104 2.9363 9.07808e-18)
(0.13929 2.87993 1.84968e-16)
(0.31972 3.42846 -2.09924e-17)
(0.635166 0.12959 2.46163e-16)
(2.08651 3.09141 3.02853e-20)
(0.0855754 -0.820302 0)
(1.42107 2.99153 -2.10957e-16)
(0.759091 2.99526 0)
(0.171551 1.8095 -1.25109e-16)
(0.178551 2.48582 -5.30723e-16)
(2.07085 2.45449 -1.07137e-16)
(2.40634 2.98233 4.43957e-17)
(0.761272 2.99929 1.98736e-17)
(0.566502 0.0141099 4.84784e-16)
(0.459842 0.372252 9.21043e-20)
(1.80532 0.740607 1.28177e-16)
(0.923803 0.71471 -2.92771e-16)
(9.42221 2.44945 2.98025e-18)
(0.647125 2.41938 2.29275e-16)
(0.513114 2.31644 3.5271e-16)
(0.486261 2.41866 -4.63611e-20)
(0.455924 2.2279 0)
(0.483045 2.51578 -2.1438e-16)
(0.547388 2.65095 -1.52186e-16)
(0.602856 2.54479 -1.55171e-16)
(0.463027 2.70925 -3.24165e-16)
(0.483704 2.69212 4.45246e-16)
(0.426311 2.70782 1.24267e-16)
(0.547412 0.0317646 0)
(7.26474 -0.224503 1.30355e-18)
(0.512413 0.0724913 -1.20566e-16)
(0.505844 0.1405 3.35095e-16)
(0.617246 0.202711 -4.90088e-16)
(0.479008 0.224746 -1.16463e-18)
(0.423903 0.452129 0)
(0.267994 0.273278 -1.12915e-16)
(1.75371 0.50601 5.83978e-17)
(1.98497 -0.0584876 6.92589e-17)
(2.15314 0.158553 6.24217e-17)
(0.981365 0.0424906 -2.60155e-16)
(1.51667 0.0212549 -1.7226e-16)
(0.333022 0.0884357 0)
(1.53924 -0.0362974 -9.25297e-17)
(1.54663 0.0470511 2.87351e-16)
(1.70161 -0.00802965 9.92995e-17)
(6.69915 0.709954 -3.22429e-18)
(0.350156 0.162437 0)
(0.799303 0.0778608 3.51617e-16)
(1.78858 -0.0972846 -1.34511e-16)
(1.01225 0.0938632 2.3435e-16)
(6.69817 0.378042 -4.47943e-17)
(1.53104 0.0546182 -2.67601e-16)
(0.811696 0.0408085 -2.06705e-16)
(1.01637 0.0516773 2.75735e-16)
(0.30022 0.0704012 4.33203e-16)
(6.71575 0.0836273 6.94811e-21)
(0.993996 0.0321126 -2.61385e-16)
(6.79782 -0.124654 -4.23246e-17)
(1.50559 0.120935 -6.96999e-16)
(1.45915 0.15781 0)
(0.309602 0.0740439 1.46363e-19)
(1.59633 0.0270445 0)
(6.97703 -0.114548 6.29023e-17)
(7.13933 -0.13697 1.92206e-16)
(1.066 -0.0386466 1.39295e-16)
(1.01521 0.206271 -1.26104e-16)
(0.507003 0.348463 7.44113e-16)
(1.51581 0.233063 0)
(1.58278 0.0650005 0)
(0.608009 0.480724 0)
(7.10546 -0.212099 4.52469e-17)
(1.77637 0.572392 2.25253e-16)
(0.867035 0.348767 1.88889e-17)
(1.56413 0.136409 2.77573e-16)
(0.309407 0.141299 0)
(0.678248 0.261722 0)
(0.825794 0.211522 2.56691e-17)
(1.15269 0.455804 1.80911e-16)
(7.26312 -0.305032 -1.24237e-16)
(1.61539 0.391648 2.12232e-16)
(0.822733 0.336076 1.99958e-16)
(0.933762 0.669759 3.49338e-16)
(1.62302 0.444128 -3.5667e-16)
(0.332629 0.234222 -2.27921e-16)
(0.917889 0.436101 1.8143e-16)
(7.46257 -0.341464 2.95139e-17)
(1.51115 0.621569 -2.74294e-16)
(1.64541 1.26885 -5.50765e-16)
(1.25524 2.62101 1.43149e-16)
(0.311879 1.03232 -4.52806e-16)
(0.629698 0.727715 1.05983e-15)
(0.417072 0.631125 -1.89451e-16)
(7.62856 -0.330248 -5.5307e-17)
(7.29748 -0.148915 -1.59318e-16)
(0.51309 0.0563361 -3.66485e-16)
(1.75068 0.778713 2.1964e-16)
(1.37071 0.780504 2.03387e-16)
(1.27993 0.710595 0)
(0.676974 0.735323 2.71861e-16)
(1.4496 0.705146 3.3751e-16)
(0.267486 0.3578 0)
(0.701702 0.583694 0)
(1.9834 1.55919 1.76788e-16)
(2.09239 -0.0615719 -1.82209e-16)
(1.93279 2.56007 -7.01808e-17)
(0.909499 0.931773 1.5057e-16)
(1.1546 0.501023 2.1105e-16)
(7.50451 -0.143751 -5.01709e-17)
(2.6751 1.64761 0)
(1.44468 1.08634 -3.98239e-16)
(0.848349 1.11704 -2.31348e-16)
(2.11879 0.00411869 -7.37966e-17)
(0.670701 1.26301 -1.10994e-16)
(2.07193 0.0377013 -1.03947e-16)
(7.89633 -0.145137 9.78686e-17)
(0.0858261 3.08489 -6.08118e-19)
(0.550265 0.0599659 0)
(-0.225101 -0.426512 2.74068e-17)
(2.56885 1.69407 1.76897e-16)
(1.19356 1.75223 -2.95688e-16)
(0.60443 1.74914 0)
(0.907388 0.840946 0)
(0.457621 2.62082 0)
(0.70136 1.01466 4.61558e-16)
(0.133329 1.11592 2.73931e-18)
(0.0129957 3.59724 3.19505e-17)
(1.13734 1.4382 6.79858e-17)
(0.573069 0.0593682 2.78222e-16)
(0.870389 2.65729 1.96195e-16)
(-0.6424 0.977003 -3.25324e-16)
(-0.250583 2.88696 -8.23206e-17)
(1.5731 1.43843 4.88675e-16)
(1.20982 1.68623 5.08938e-16)
(-0.252632 0.623037 6.63492e-17)
(1.46968 2.68464 -8.34756e-18)
(0.848295 5.22954 -5.31996e-17)
(0.768403 2.59875 0)
(0.449362 2.74525 0)
(1.6722 2.91252 3.15238e-16)
(-0.470279 0.510192 3.91805e-16)
(0.0919349 2.93644 0)
(0.979351 2.88339 -4.30464e-16)
(1.08759 0.0291893 -3.91585e-16)
(0.503739 0.973989 -7.26718e-16)
(2.06524 0.0745973 1.75355e-17)
(0.501234 2.6877 -1.54082e-16)
(0.337229 4.39683 4.78045e-18)
(3.36208 7.25036 0)
(0.442074 2.75581 5.9506e-17)
(7.95549 0.225911 -8.44005e-18)
(4.80883 2.72406 7.84298e-17)
(1.33391 3.39709 0)
(6.40519 9.78994 0)
(1.64772 3.19174 7.77811e-17)
(1.74614 2.86045 0)
(2.14737 0.0560131 -1.10296e-17)
(0.603604 3.20022 -1.13089e-16)
(0.416342 2.84138 2.71926e-16)
(0.745792 3.02808 -4.35694e-17)
(4.75521 5.03956 -4.18174e-17)
(0.399469 2.69632 -8.64708e-17)
(1.92976 1.21111 -1.12396e-16)
(0.360316 0.0382345 1.01368e-16)
(1.22012 3.62237 5.40472e-17)
(2.11414 0.0329637 1.32446e-16)
(-0.619329 3.07275 0)
(0.529761 2.74293 1.59302e-17)
(0.506371 2.22124 7.42994e-19)
(0.798601 3.02592 0)
(2.51384 5.56729 2.85257e-18)
(2.33089 2.3149 1.96415e-16)
(2.07279 3.40795 -1.51454e-16)
(2.47245 3.37958 2.05836e-16)
(-0.0264682 3.60965 6.72818e-20)
(0.887273 4.8192 -1.53969e-16)
(1.71815 1.86162 -7.03924e-16)
(1.26967 1.90142 0)
(0.612054 0.683579 1.44858e-16)
(0.622265 2.97324 -3.7018e-17)
(-0.935831 2.43923 4.46319e-17)
(1.6149 2.2878 -9.4009e-19)
(1.7911 2.97552 -1.35767e-16)
(0.617821 2.23116 -5.59554e-19)
(0.540617 2.52995 0)
(1.32986 0.334539 -2.22324e-16)
(1.56992 2.87947 5.90761e-16)
(4.31518 1.62869 0)
(6.96342 0.672766 3.24794e-18)
(1.19118 6.91445 3.45575e-17)
(0.963683 1.79588 8.72712e-18)
(0.796923 3.05765 5.9678e-17)
(0.905733 1.47906 0)
(2.12921 4.38143 1.38319e-16)
(1.42552 2.69638 -3.10587e-16)
(2.97071 13.9772 6.21098e-18)
(3.01739 3.79165 7.42923e-17)
(1.86874 0.311414 -5.012e-17)
(0.48699 0.11939 -3.24289e-16)
(2.09522 0.0270177 6.79139e-17)
(2.28784 2.81718 -1.00466e-16)
(1.1648 2.67101 3.72411e-16)
(0.400296 2.79076 -2.30741e-17)
(0.0256 3.60437 -8.26178e-17)
(0.662465 2.75882 2.54531e-16)
(8.18165 0.234518 -1.53183e-17)
(2.18733 0.180281 -4.13395e-17)
(1.12947 2.04612 -1.35086e-16)
(1.37123 2.79111 -3.18816e-17)
(3.63006 1.02724 -1.51313e-17)
(2.56509 1.87538 -3.14119e-16)
(-0.0762747 -0.242988 -1.04884e-16)
(1.15642 2.78231 2.08508e-16)
(1.64237 3.06946 1.07045e-16)
(1.09784 4.31054 -9.06048e-17)
(0.520481 2.56132 -2.73166e-16)
(0.89003 0.396919 0)
(2.934 4.54996 -7.38619e-17)
(0.653284 1.03751 0)
(1.30113 2.59821 1.41497e-16)
(1.00631 1.95263 0)
(1.15088 0.0535408 4.54496e-16)
(0.358209 2.66797 -2.62551e-16)
(0.744952 2.96024 5.91475e-17)
(1.90896 3.73252 1.12662e-16)
(7.30875 -0.577668 -8.71379e-17)
(2.411 0.613022 1.31821e-16)
(1.27444 2.22844 -2.50753e-16)
(1.97716 1.53086 9.19208e-17)
(0.841802 2.73577 -2.40971e-16)
(5.19353 2.28916 -2.61442e-16)
(2.14935 0.397413 5.94834e-17)
(0.872295 3.00752 0)
(-0.286068 2.40303 -4.11917e-17)
(1.53344 2.75293 9.12879e-17)
(1.56184 4.04626 -2.69182e-17)
(1.26891 2.96418 1.72459e-16)
(3.93656 0.923459 1.46787e-16)
(2.56166 2.50405 2.29765e-17)
(1.04794 3.00951 1.37409e-16)
(0.261506 2.54128 -9.20711e-18)
(-0.119106 3.04624 1.52851e-16)
(2.40163 3.86231 -1.32144e-16)
(0.504444 0.0537774 7.29967e-17)
(1.16655 2.74138 -1.00614e-16)
(0.0518634 2.4359 -2.60913e-16)
(1.59498 4.89228 -6.07596e-17)
(0.630901 1.52116 0)
(7.24386 0.0675999 -2.38355e-16)
(6.73462 0.918489 1.55921e-17)
(0.575896 2.55109 1.97668e-16)
(0.359371 2.02537 6.53417e-16)
(0.834272 3.34048 3.84581e-17)
(-0.0626276 2.68457 0)
(2.00929 1.24265 -1.86087e-16)
(0.529148 0.741001 7.55939e-17)
(0.964787 1.25997 -3.24037e-16)
(1.23601 2.18149 8.86228e-19)
(0.609354 0.0509553 -1.84322e-17)
(0.81508 2.93781 7.16552e-17)
(3.71751 0.698402 -8.90846e-18)
(7.96934 0.556581 0)
(0.396335 2.66021 0)
(1.26482 2.56136 -6.57412e-17)
(1.00848 0.0290728 2.50242e-16)
(8.67328 0.631684 0)
(1.56212 0.0126012 9.37709e-19)
(1.8881 2.74797 -3.7828e-16)
(2.26943 1.04274 0)
(2.44651 1.18529 0)
(2.83978 2.39272 -1.24374e-16)
(2.26999 2.72105 2.59156e-17)
(7.25865 0.484453 0)
(1.06458 0.0444703 1.92137e-16)
(0.84592 0.040495 -1.56259e-16)
(0.408477 2.95808 0)
(0.748577 1.94682 0)
(0.570014 0.0464994 2.17768e-16)
(3.4573 0.162402 -5.57278e-18)
(0.71343 2.02351 1.53147e-16)
(0.0271973 1.25746 -3.84795e-16)
(0.24607 3.12278 7.57748e-17)
(3.20608 0.161479 0)
(2.74894 0.136883 0)
(0.448838 2.59252 -2.46579e-16)
(4.99332 0.182637 -2.26475e-18)
(2.05615 1.57318 -2.64596e-16)
(2.55515 0.113983 1.41882e-17)
(4.59887 4.02904 -3.93342e-18)
(4.33182 0.167858 0)
(1.79899 3.32 0)
(0.859796 2.94381 -8.89606e-18)
(2.96376 0.153838 0)
(0.0811053 2.44577 0)
(9.75392 0.737375 -1.61741e-18)
(0.244461 3.12559 -2.86893e-16)
(4.64909 0.174416 0)
(1.82863 2.4197 -4.45285e-18)
(0.6814 3.19503 3.67093e-17)
(-0.422165 3.23297 1.09593e-16)
(2.37753 2.42491 -1.71313e-16)
(0.781207 5.26443 -4.35277e-18)
(0.277748 2.09034 5.80267e-17)
(1.45517 0.428417 -1.16025e-19)
(-0.12478 1.77551 -5.40371e-16)
(0.261204 3.11762 -5.02801e-19)
(1.63353 2.01991 2.6275e-16)
(1.98025 0.611687 -2.64406e-16)
(1.09135 2.59351 2.4348e-16)
(-0.71778 2.35845 0)
(0.211131 5.37071 2.27333e-18)
(7.25415 -0.0769489 -1.49911e-17)
(0.985749 3.02885 0)
(1.79474 0.448005 4.83058e-16)
(3.75315 0.391727 1.65397e-17)
(0.426014 2.72333 0)
(-0.0598823 2.53629 4.34322e-16)
(3.07329 8.11784 0)
(2.58725 9.02824 3.12338e-17)
(0.937805 0.180934 0)
(4.7298 0.799858 2.1398e-17)
(0.635074 1.92599 -3.52385e-16)
(2.18252 0.564271 -1.02077e-16)
(1.38117 1.78319 -2.3395e-17)
(0.361609 1.09905 2.9347e-16)
(0.437489 3.14703 -6.96051e-17)
(5.31663 0.193059 8.37221e-18)
(6.72135 0.418169 0)
(2.0776 0.125321 -2.03944e-17)
(0.13012 3.23027 0)
(-0.12482 3.00771 0)
(2.22528 0.774363 -1.24624e-16)
(1.70698 2.13394 0)
(0.73905 2.41625 0)
(0.708525 3.00356 -4.17361e-17)
(1.66148 0.0504007 0)
(0.295166 0.0764488 2.16005e-16)
(0.536777 3.72955 7.03449e-17)
(1.50317 0.0888092 2.30928e-16)
(1.73536 1.42398 1.44224e-16)
(1.44709 1.35205 1.84662e-17)
(2.97087 0.492954 -5.95229e-17)
(1.51438 0.0833423 -4.02085e-16)
(11.8981 4.45024 0)
(0.848946 3.82906 0)
(0.383071 2.92556 -2.4521e-16)
(-0.0957135 0.284252 3.33132e-19)
(0.806983 3.61836 1.50845e-17)
(2.10776 1.15635 1.83684e-17)
(8.65385 3.35874 4.14784e-18)
(2.21724 2.33975 5.27345e-17)
(0.753376 1.17164 -9.77122e-17)
(1.53445 -0.0565609 3.99246e-16)
(0.485307 0.188666 -3.50541e-16)
(0.831697 3.63198 0)
(1.55444 0.153208 4.53533e-16)
(1.61175 0.0706881 -2.37844e-16)
(0.754974 3.03894 -3.7964e-17)
(1.38491 0.862971 -1.71219e-17)
(-0.214604 2.60846 -4.49451e-16)
(0.49212 4.47096 -6.70117e-18)
(1.16726 3.95469 1.87248e-16)
(0.617866 3.11504 1.11673e-16)
(0.664016 2.97597 0)
(1.79012 2.75497 9.20023e-17)
(2.33288 0.0834107 5.58322e-17)
(0.0771008 2.3071 0)
(0.583227 2.60021 -2.2047e-16)
(0.277025 0.860982 -7.7336e-16)
(1.87631 3.10751 0)
(1.23597 0.144118 -1.61319e-16)
(0.839134 3.14885 0)
(1.06671 -0.017002 -3.04915e-19)
(3.72782 0.164356 -2.59096e-18)
(7.84241 0.728092 3.00427e-18)
(1.44812 2.51095 0)
(1.6521 2.69933 2.04828e-16)
(0.24955 3.12892 -1.50427e-16)
(1.71906 2.87114 0)
(1.42549 1.09833 -1.36918e-16)
(0.221812 0.734787 -1.62125e-16)
(-0.365323 3.11922 -1.44384e-16)
(0.606224 2.55582 1.70683e-16)
(-0.112388 2.71793 3.35526e-16)
(2.4165 0.0928248 -2.99002e-17)
(2.04223 0.104938 0)
(0.189046 4.68781 0)
(2.04538 0.00392991 3.23591e-17)
(1.03721 2.42479 2.00676e-16)
(-0.0712244 3.25249 -5.32154e-17)
(1.65489 0.0174169 1.39491e-16)
(0.372267 0.454193 -2.85642e-16)
(0.656938 2.31407 0)
(0.660746 2.611 1.2984e-16)
(10.7456 11.4762 -1.25748e-18)
(0.373116 2.61643 4.49109e-17)
(0.624615 3.35388 -1.80151e-17)
(0.814255 2.6986 -8.78508e-17)
(1.62155 2.6382 2.62595e-16)
(5.9582 3.14638 2.86266e-18)
(2.4338 0.117057 -1.34274e-16)
(1.70079 1.79021 0)
(7.70913 1.05457 3.4221e-18)
(0.386053 2.77243 9.75153e-17)
(6.70653 1.08979 1.58663e-18)
(0.843675 2.78548 -1.36563e-16)
(0.539031 0.0178443 -1.90815e-16)
(0.416194 2.49529 -4.58233e-16)
(0.843742 2.32688 -6.22569e-19)
(0.318102 0.0826439 5.14493e-16)
(1.43747 4.65569 -1.51613e-16)
(0.663098 2.7947 -4.37106e-16)
(0.45347 2.55756 -2.16345e-19)
(4.03683 0.165237 1.06528e-17)
(0.0901833 2.99176 -7.3199e-17)
(0.31594 2.82055 4.71812e-17)
(0.228118 5.39427 -2.78262e-18)
(0.613829 0.0236443 0)
(1.3923 0.452429 0)
(0.472964 2.69108 -1.26332e-16)
(5.67777 0.199711 1.9428e-18)
(6.22673 0.31622 -1.93449e-17)
(0.127282 3.0634 2.40146e-16)
(2.08053 2.56187 -3.38255e-17)
(5.88437 0.29462 7.16338e-17)
(1.56825 0.228574 1.10725e-17)
(0.430065 2.33886 8.66388e-17)
(0.883714 2.80052 -1.39746e-16)
(1.96371 1.75251 4.52493e-16)
(1.05254 2.82369 -1.26456e-16)
(0.714132 0.463963 0)
(0.97754 0.329318 -1.25032e-16)
(0.153082 2.08307 -1.43213e-16)
(1.01206 2.75947 0)
(6.84237 0.510391 -1.34207e-17)
(1.26876 0.252377 9.423e-17)
(6.15354 1.03186 0)
(-0.175511 1.95271 0)
(6.0226 1.93677 -3.47038e-17)
(0.0826716 2.16324 2.91581e-17)
(0.352476 5.47306 -7.71506e-18)
(1.37105 1.98047 0)
(0.389457 1.79126 8.04091e-17)
(0.853641 0.0300593 8.81054e-16)
(1.05929 0.0351561 -6.1789e-16)
(2.66608 0.323302 -4.465e-17)
(0.768045 0.981541 9.71603e-17)
(0.904814 0.0978068 2.65747e-16)
(1.11155 0.124478 0)
(0.888717 2.5014 -7.19728e-17)
(2.0103 2.86742 -2.18534e-18)
(0.87319 2.04005 1.00974e-16)
(1.6219 2.98774 -2.96183e-17)
(0.28699 2.60142 0)
(0.569119 2.91825 1.22015e-16)
(0.281045 2.74221 1.28614e-16)
(1.85001 0.241422 0)
(7.2933 -0.029546 2.20552e-16)
(0.709348 3.10175 0)
(0.384334 2.61301 0)
(4.52054 5.47173 -2.88853e-18)
(0.580694 2.56198 2.89885e-16)
(0.585345 3.90011 1.48751e-16)
(1.7429 0.0525964 -2.92087e-16)
(0.297417 0.0828424 2.82856e-16)
(1.60837 -0.0322392 2.48955e-16)
(0.369385 2.82286 0)
(0.570646 3.08642 1.65571e-19)
(1.31821 2.73526 -2.46633e-16)
(7.00867 -0.403767 -1.01585e-16)
(2.08869 0.170122 5.64219e-17)
(0.931378 3.12559 4.06169e-16)
(2.98375 -0.0759523 -1.29506e-16)
(4.3151 2.45314 1.69509e-17)
(6.64959 -0.288967 5.78121e-17)
(5.94745 -0.0735038 -7.49909e-17)
(0.183406 8.94409 1.05613e-16)
(0.0651941 3.18539 -2.14537e-19)
(0.0865324 3.00091 1.26163e-16)
(0.123862 2.56908 1.21901e-18)
(0.106794 2.79222 0)
(0.166771 9.96544 -9.17407e-17)
(0.0203934 3.30405 -2.32902e-16)
(0.0987506 4.1018 -1.00907e-18)
(0.142936 3.5215 -2.98329e-17)
(0.125333 3.83262 0)
(0.0858981 4.34772 5.66329e-17)
(0.197308 8.20397 0)
(0.289496 11.0731 0)
(0.0626572 4.62465 -7.38594e-17)
(0.334514 6.80502 -5.20621e-18)
(0.270868 7.51884 -4.89173e-18)
(0.0169494 4.83824 2.33791e-17)
(-0.0459936 3.23459 1.21432e-16)
(-0.0975306 3.08271 0)
(-0.0562248 4.86294 -3.22959e-17)
(-0.105381 2.9238 0)
(-0.079792 2.83733 0)
(-0.120126 4.74392 2.42587e-17)
(-0.0492917 2.77671 0)
(0.284576 2.85289 1.42627e-16)
(5.5375 3.26143 -6.44162e-17)
(0.972034 0.0711629 2.76888e-16)
(1.29909 1.59867 0)
(1.0935 2.53848 -1.47911e-16)
(1.64032 0.0731804 1.16651e-16)
(2.92249 0.632978 4.74466e-16)
(8.38644 0.415655 -2.63172e-17)
(0.196051 2.35372 -3.74265e-17)
(0.74888 6.00842 0)
(1.60389 -0.174439 5.47376e-16)
(-0.0493952 0.300951 3.7685e-16)
(2.27023 1.19697 0)
(6.29511 0.32563 4.16451e-17)
(1.45432 0.500538 -3.0309e-16)
(0.264653 0.248699 -2.14468e-16)
(5.94174 2.46322 1.18707e-16)
(1.46842 1.67813 -7.54386e-17)
(0.337161 2.76629 1.38834e-16)
(2.13985 0.565096 -5.50147e-17)
(2.25839 0.0538648 -9.09872e-17)
(6.73654 1.5721 -3.86588e-19)
(0.793339 -0.423575 -3.40182e-16)
(-0.0235558 2.73726 0)
(1.358 2.88386 4.48298e-16)
(1.78233 2.8548 -4.04588e-20)
(1.27679 -0.0813504 6.66357e-17)
(0.985372 0.709708 0)
(7.17663 0.12604 4.80347e-17)
(-0.365728 1.4985 -1.76829e-16)
(1.70466 0.0649078 4.93896e-18)
(0.183542 2.68901 1.73267e-16)
(0.241611 2.97414 0)
(0.791618 3.48736 9.30965e-18)
(1.28601 2.88845 -8.01798e-17)
(7.81798 1.45551 3.21104e-17)
(1.03726 0.0148964 3.18149e-16)
(1.55428 0.139151 -2.74917e-16)
(0.578189 0.0283962 2.41144e-16)
(2.06227 0.0438765 -6.24872e-17)
(0.70909 3.12667 4.52909e-17)
(0.0672794 1.99343 -1.59528e-20)
(0.17591 4.90931 -2.30087e-17)
(1.93553 1.96842 0)
(1.57638 2.55119 4.35857e-19)
(1.29589 0.931907 6.06448e-17)
(1.82778 0.0717369 1.41275e-16)
(0.303375 0.152396 0)
(1.72649 1.03354 -3.68009e-16)
(-0.147927 0.0050733 0)
(7.47728 0.796619 3.24305e-18)
(0.702763 2.4769 0)
(1.43331 2.5905 -8.40889e-17)
(1.13296 2.33754 1.58838e-16)
(0.313515 0.0780684 3.35713e-16)
(1.66265 0.0937962 0)
(2.13757 0.301993 -3.23162e-17)
(0.0233853 2.72334 5.47685e-19)
(0.585667 0.04354 0)
(2.18361 0.0653558 0)
(1.19746 2.54075 -2.90128e-16)
(-0.22173 4.3152 -1.334e-17)
(5.70104 0.158548 0)
(0.235799 0.144382 -1.46164e-16)
(1.72687 0.123339 -2.72155e-16)
(0.369083 0.119133 0)
(0.911675 2.42129 3.45649e-16)
(1.51292 0.00476455 -1.49533e-16)
(8.5414 8.26216 1.85922e-17)
(0.728728 2.96959 3.71141e-17)
(0.829863 2.64686 2.63031e-16)
(1.26777 0.353603 0)
(5.61354 -0.805405 0)
(0.670204 2.77587 0)
(5.86277 0.845505 -1.86532e-17)
(1.56212 0.0809934 5.13872e-16)
(1.96457 0.293649 -2.30474e-16)
(2.09706 0.176173 1.4438e-17)
(0.604522 -0.0402328 2.72926e-16)
(1.21666 0.437248 2.33474e-16)
(0.846171 2.86198 1.23455e-16)