/*--------------------------------*- C++ -*----------------------------------*\
| =========                 |                                                 |
| \\      /  F ield         | OpenFOAM: The Open Source CFD Toolbox           |
|  \\    /   O peration     | Version:  v1912                                 |
|   \\  /    A nd           | Website:  www.openfoam.com                      |
|    \\/     M anipulation  |                                                 |
\*---------------------------------------------------------------------------*/
FoamFile
{
    version     2.0;
    format      ascii;
    class       volScalarField;
    location    "0.01";
    object      nut;
}
// * * * * * * * * * * * * * * * * * * * * * * * * * * * * * * * * * * * * * //

dimensions      [0 2 -1 0 0 0 0];


internalField   nonuniform List<scalar> 
1466
(
0.000817754
0.000782305
0.000850871
0.000807884
0.000836654
0.000834032
0.000771896
0.000851184
0.00086088
0.000861391
0.00069726
0.000881963
0.00045427
0.000858624
0.000849595
0.000806012
0.000397791
0.000808372
0.000872278
0.000830673
0.000849626
0.000863704
0.000559703
0.000792504
0.000854321
0.000857192
0.000865254
0.000851733
0.000768742
0.000772473
0.000852302
0.000853548
0.000853758
0.000878281
0.000883285
0.000849851
0.000837074
0.000843455
0.000886018
0.000842733
0.000872161
0.000853327
0.000867152
0.000859038
0.000851885
0.000903005
0.000849785
0.000663337
0.000853049
0.000849681
0.000849976
0.000784589
0.000754583
0.00070425
0.000787934
0.000854936
0.000806878
0.000855333
0.000823586
0.000853165
0.000816145
0.000826955
0.000848093
0.000847788
0.000855256
0.000845421
0.000858249
0.000849597
0.000824934
0.000881497
0.00085081
0.000827305
0.000810948
0.000863986
0.000460125
0.00085157
0.00086799
0.000812382
0.000893937
0.000852134
0.000848738
0.000862168
0.000849743
0.000852784
0.000842207
0.000849986
0.000846466
0.000876998
0.000852932
0.000865851
0.000816793
0.000679193
0.000850291
0.000774172
0.000849726
0.000843645
0.000855073
0.000826535
0.000884361
0.000802121
0.000893236
0.000855355
0.000852596
0.000763656
0.000849684
0.000878897
0.000849555
0.000849734
0.000857252
0.000850779
0.000823668
0.000849432
0.000853697
0.000848269
0.000504166
0.000853438
0.000669874
0.000821514
0.000874204
0.000852987
0.000842018
0.000855452
0.000711041
0.000910771
0.000855916
0.000852236
0.00084633
0.000738129
0.000850595
0.000850434
0.000853168
0.000857241
0.000875728
0.000865431
0.000849507
0.000850891
0.000853068
0.000849709
0.000850294
0.000716567
0.000833882
0.000661327
0.000850598
0.000850975
0.000850907
0.000611995
0.000668183
0.000884813
0.000870616
0.000827972
0.000850973
0.000849437
0.000862578
0.000864681
0.000847759
0.000872094
0.000822342
0.000884241
0.000861319
0.000886076
0.000854316
0.000833813
0.00083274
0.000842693
0.000855042
0.000850122
0.000851379
0.000584098
0.000847563
0.000870166
0.000850644
0.000850194
0.000847535
0.000864614
0.000866817
0.000873624
0.000854666
0.000851573
0.000849807
0.000850775
0.000844391
0.000849776
0.000853527
0.000851408
0.00089073
0.000851225
0.000849778
0.000859908
0.000849808
0.000666074
0.000581075
0.000514772
0.000843226
0.000851227
0.000849795
0.000834468
0.000849391
0.000850279
0.000850406
0.000851273
0.000869881
0.000855497
0.000849714
0.000847418
0.000850904
0.000853656
0.000849773
0.000829917
0.000849964
0.000782621
0.000848019
0.000875019
0.00085613
0.000850171
0.000884189
0.000849789
0.000865698
0.000623172
0.0008248
0.00085311
0.000859593
0.000854281
0.00084526
0.000850243
0.000855997
0.000850388
0.000853161
0.000848104
0.000839517
0.000854949
0.000850427
0.000889634
0.000857784
0.000851747
0.000849718
0.000850863
0.000852089
0.000841452
0.000852895
0.000852182
0.000857751
0.000853542
0.000716219
0.000854932
0.000854405
0.000627828
0.000801997
0.000647259
0.00062421
0.000630624
0.000856992
0.000853698
0.000853023
0.000895784
0.000857368
0.000856289
0.000850634
0.00085196
0.000854483
0.000861111
0.000850571
0.000849971
0.000864544
0.000877217
0.000752469
0.000839369
0.000862015
0.000861246
0.000853598
0.000846742
0.000867436
0.000847238
0.000850499
0.000851193
0.00084967
0.000851866
0.000915508
0.000855025
0.000835601
0.000854443
0.000850645
0.000626673
0.00063931
0.000817749
0.000850435
0.000850271
0.000860439
0.000818912
0.000866055
0.000831153
0.000850218
0.000859712
0.000856953
0.000852326
0.000852642
0.000856896
0.000872271
0.000850994
0.000858408
0.000832564
0.000807602
0.000877928
0.000800141
0.00085571
0.000846134
0.000851415
0.000859516
0.00085268
0.000447879
0.000853913
0.000853148
0.000839766
0.000856064
0.000904892
0.000852622
0.000852935
0.000861193
0.000861258
0.000850428
0.00081922
0.000849958
0.000851762
0.000852541
0.000579901
0.000579021
0.000666645
0.00067876
0.000715335
0.00072701
0.000787015
0.000587647
0.000587121
0.000718056
0.000769892
0.000566999
0.000567789
0.000490501
0.00089468
0.000499832
0.000746689
0.000775454
0.000774602
0.000638286
0.000650707
0.000824891
0.000786851
0.000676504
0.000673547
0.000825935
0.000859999
0.000853101
0.000850689
0.000853909
0.000852432
0.000852457
0.000855181
0.000868523
0.000719676
0.00085913
0.000862505
0.00086739
0.000853729
0.000850412
0.000794179
0.000619913
0.000866071
0.000655359
0.000735588
0.000830652
0.00083227
0.000759582
0.000667819
0.000671819
0.00056329
0.000565053
0.000563165
0.000640089
0.000855002
0.000849851
0.000611898
0.000849837
0.00088627
0.000851457
0.000839591
0.000861056
0.00086183
0.000848656
0.000852859
0.000851848
0.000851467
0.000855929
0.000853202
0.000853724
0.000850822
0.000441938
0.000850096
0.000851239
0.000852556
0.000849637
0.000570204
0.000586603
0.000847238
0.000853401
0.000850727
0.000854462
0.000850242
0.000850555
0.000859148
0.000849993
0.000850205
0.00085107
0.000860039
0.000565375
0.000607614
0.000851538
0.000850592
0.000851411
0.000851723
0.000855623
0.000851798
0.000851529
0.000757861
0.000856214
0.00085542
0.000858329
0.000868952
0.000851418
0.0008536
0.000862528
0.00087639
0.000854162
0.000851064
0.000851372
0.000887513
0.000782261
0.000858794
0.000853987
0.000854143
0.000870553
0.000852867
0.000644569
0.00084246
0.000903011
0.000862495
0.000855073
0.00085311
0.000851336
0.000850705
0.000851058
0.000851165
0.000850858
0.000852665
0.000837153
0.000852017
0.000854282
0.000833459
0.000851049
0.000852157
0.000610682
0.000852241
0.000853837
0.000852314
0.000852089
0.00085162
0.000858704
0.000658059
0.000857745
0.000850268
0.000851528
0.000574041
0.000879227
0.00086381
0.00085211
0.000819158
0.000856572
0.000853859
0.000609522
0.000602247
0.000861943
0.000873486
0.000850949
0.000850235
0.000864422
0.000850137
0.000862009
0.00085019
0.000850016
0.000849843
0.000878886
0.000850338
0.000873759
0.000849921
0.000849842
0.000849834
0.000753628
0.000871968
0.00087988
0.000855552
0.000648756
0.000651831
0.000850075
0.000849872
0.000651181
0.000856898
0.000850056
0.000853168
0.000850504
0.000855459
0.000850977
0.000856102
0.000850691
0.000878104
0.000850937
0.000854494
0.000843554
0.000851473
0.000850035
0.000849816
0.000851878
0.000852522
0.000852872
0.000850988
0.000856467
0.000790292
0.000654689
0.000861614
0.000854504
0.000852242
0.000745597
0.000849974
0.000850671
0.000850094
0.000851686
0.00085086
0.000858514
0.000861093
0.000857298
0.000872278
0.000849769
0.000845632
0.000866426
0.000855463
0.000851933
0.000857664
0.000851685
0.000829261
0.000659578
0.000850519
0.000853604
0.000850711
0.000849958
0.00084773
0.000859692
0.000850135
0.000849948
0.000851572
0.000855457
0.000851551
0.000852178
0.000852337
0.000833095
0.000848649
0.000850089
0.00085063
0.000851345
0.000852403
0.000849856
0.00085133
0.000850582
0.00085035
0.000805276
0.000865957
0.000850402
0.000853315
0.000896319
0.000850335
0.000891059
0.000850551
0.000850541
0.000850143
0.0008533
0.000803847
0.000852224
0.000850959
0.000849475
0.000851247
0.000892873
0.000850006
0.000850657
0.00085432
0.000653846
0.000629986
0.000850853
0.000851681
0.000850824
0.000849966
0.000857295
0.000851152
0.000850721
0.00085056
0.000851
0.000852105
0.000850248
0.000858054
0.000853291
0.000883323
0.000853483
0.000850876
0.000851325
0.000851059
0.000850865
0.000850723
0.000855602
0.000865784
0.000803169
0.000851577
0.000851602
0.000847032
0.000870763
0.000863052
0.000852171
0.000849782
0.000649949
0.000852633
0.000850414
0.00085115
0.000850892
0.000848636
0.000849773
0.000853228
0.00085801
0.000850695
0.00085116
0.000599446
0.000855049
0.000851384
0.000852128
0.000855425
0.000852613
0.000850306
0.000849771
0.000858968
0.000808553
0.000857735
0.000848682
0.000857793
0.000853234
0.000858998
0.00085324
0.000849774
0.000807688
0.000851202
0.000852282
0.000853352
0.00085654
0.00086269
0.000861639
0.000857555
0.000849783
0.000851318
0.000792312
0.000853315
0.00085535
0.000868196
0.000858305
0.000854972
0.000851927
0.000851998
0.000852285
0.000852444
0.000849805
0.000865323
0.000831309
0.000858011
0.000606889
0.000601492
0.000855698
0.000853675
0.000851531
0.000861635
0.000869634
0.000853211
0.000540622
0.00085509
0.00085263
0.000846024
0.000878917
0.000852594
0.000677672
0.000867188
0.000852103
0.00084985
0.000873704
0.000858456
0.000880762
0.000850213
0.00085461
0.000851088
0.000852739
0.000850166
0.000850472
0.000857579
0.000852807
0.000855045
0.000851344
0.000853777
0.000850466
0.000852571
0.000850316
0.000857274
0.000851158
0.000646643
0.000830926
0.000855282
0.000850868
0.00080512
0.000853616
0.000850513
0.000849967
0.000865291
0.000852264
0.000853142
0.000849892
0.000850229
0.000851573
0.000850511
0.000851948
0.000851281
0.000864558
0.00084669
0.000852215
0.000866101
0.000856158
0.000484658
0.000515606
0.000853487
0.000470538
0.000580694
0.000832904
0.000851258
0.000636903
0.000466249
0.000499447
0.00043227
0.000464134
0.000848646
0.000372519
0.000860839
0.00075397
0.00085705
0.000878491
0.000485938
0.000835329
0.000852696
0.000850234
0.000873127
0.000854471
0.000852173
0.000889213
0.000851284
0.000476934
0.000860364
0.000852911
0.000888705
0.000850896
0.000856103
0.000868828
0.000482824
0.000871784
0.000844434
0.000860592
0.000891209
0.000638735
0.000673068
0.000852693
0.000853137
0.000847448
0.000855358
0.000816151
0.000876067
0.000877341
0.000856735
0.000450633
0.000423645
0.000851608
0.000852636
0.000849603
0.000845432
0.000821644
0.000538148
0.000867164
0.0008534
0.000872197
0.000781236
0.000830164
0.000864415
0.000891426
0.000826005
0.000858547
0.000587545
0.000621826
0.000851042
0.000849728
0.000841377
0.000877395
0.000675171
0.000853102
0.000846746
0.000849859
0.000875521
0.000866214
0.000671578
0.000841214
0.000855533
0.000846539
0.000878751
0.000827583
0.00067942
0.00086246
0.000865024
0.000875289
0.000854539
0.000855364
0.000850239
0.000411975
0.000415927
0.000787617
0.000851012
0.000841223
0.000849799
0.000850327
0.000852518
0.000856062
0.000809577
0.000851682
0.000855182
0.000924091
0.000852547
0.000853971
0.000707142
0.000672014
0.000851828
0.000851709
0.000850455
0.000834427
0.00085222
0.000854997
0.000857074
0.000851004
0.000851063
0.000854832
0.000853252
0.000850254
0.000855717
0.000443999
0.000849823
0.000853576
0.000652643
0.000860142
0.000476512
0.000868048
0.000835895
0.000864968
0.00086935
0.000850294
0.000853833
0.000823936
0.000840449
0.000853364
0.000850591
0.000850869
0.000576988
0.000860139
0.000869607
0.000851596
0.000850317
0.000858084
0.00089194
0.000878369
0.000852127
0.000863614
0.00085049
0.000873027
0.000849925
0.000819013
0.000864796
0.000860526
0.000883277
0.00085199
0.000853739
0.00085405
0.000849927
0.00083488
0.000653088
0.00085002
0.000864274
0.000853355
0.000857355
0.000866036
0.00082699
0.000853817
0.000849931
0.000854904
0.000854383
0.000855496
0.000515994
0.000849816
0.000847382
0.000860495
0.000856357
0.000852068
0.000850843
0.000854591
0.000391608
0.000854657
0.000425732
0.000877075
0.000852644
0.000871206
0.000849333
0.000895264
0.000857905
0.000850476
0.000875448
0.000852809
0.000844997
0.000849772
0.000860031
0.000856065
0.000873063
0.000859296
0.000896222
0.000852716
0.000850567
0.000638152
0.000852325
0.000849822
0.000854619
0.00084948
0.000446192
0.000426783
0.00035977
0.00040005
0.000444334
0.000398872
0.000456212
0.000429223
0.00045783
0.00040319
0.000417644
0.000464219
0.000461346
0.000450375
0.00085433
0.000434048
0.000425445
0.000861363
0.00070292
0.000885135
0.000427795
0.000448139
0.000855724
0.000852191
0.000846671
0.000819752
0.000704884
0.000852597
0.000796283
0.000850081
0.000849805
0.000487174
0.000852161
0.000543955
0.000849992
0.000853633
0.000487621
0.000849737
0.000851338
0.000477037
0.000842951
0.000854626
0.00086626
0.000871904
0.00085229
0.000849769
0.00085039
0.000824299
0.000853247
0.00085294
0.00085521
0.000849563
0.000714482
0.000494728
0.000494131
0.000855639
0.000850085
0.000468998
0.000850796
0.000850514
0.000856765
0.000499008
0.000501568
0.000858523
0.000849783
0.000863085
0.000851582
0.000846537
0.000866884
0.000853183
0.000606659
0.00084953
0.000480426
0.000612076
0.000852673
0.000851175
0.000838086
0.000849621
0.000850386
0.000851
0.000857641
0.000847464
0.000768185
0.000556562
0.000647582
0.00088182
0.000851856
0.00085366
0.000852334
0.00079998
0.000866648
0.000849779
0.000862869
0.000852489
0.000580169
0.000447412
0.000856998
0.000853319
0.000471189
0.000852233
0.00088293
0.000909208
0.000448415
0.000850354
0.000851721
0.000853189
0.000853408
0.000857366
0.00049581
0.000859215
0.000849779
0.000850193
0.000849526
0.000851093
0.000851585
0.000475713
0.000851564
0.000857333
0.000849854
0.000758738
0.000799197
0.000858591
0.000825696
0.000840505
0.000434451
0.00085026
0.000850392
0.000809056
0.000851306
0.000842159
0.000861086
0.000850613
0.000602148
0.000849703
0.000849937
0.000854069
0.000837607
0.000848408
0.000862766
0.000853545
0.00055973
0.000853553
0.000499763
0.000543343
0.000861026
0.00086945
0.000856718
0.00085733
0.00085408
0.000859127
0.000849989
0.000876645
0.000860001
0.00083309
0.000851347
0.000522445
0.00055781
0.000664334
0.000869744
0.000878832
0.000838347
0.000650288
0.0005375
0.000851081
0.000850237
0.000853108
0.000821258
0.000444445
0.000494002
0.000828808
0.000494373
0.000863905
0.000853355
0.000851865
0.000853519
0.000863909
0.000515919
0.000631619
0.000631778
0.000838477
0.000826212
0.00044445
0.000672932
0.000852675
0.000851097
0.000412733
0.000777612
0.000776746
0.000841913
0.00058408
0.000875934
0.000840167
0.000858073
0.000850899
0.000851946
0.000823104
0.000829087
0.000851097
0.000492708
0.000852112
0.000851822
0.000491043
0.000826326
0.000851647
0.000751331
0.000849859
0.000860514
0.00045787
0.000805016
0.000855456
0.0005847
0.000815436
0.000479683
0.000808828
0.000789722
0.000397391
0.000854141
0.000365568
0.000859086
0.000902454
0.000843396
0.000852557
0.000850235
0.000857046
0.000604015
0.000854272
0.00087285
0.000673674
0.000812648
0.000837521
0.000849399
0.000424734
0.000856407
0.000852064
0.000838844
0.000479428
0.000854932
0.000858769
0.000855565
0.000813282
0.000853986
0.000621303
0.000852934
0.000853307
0.000804734
0.000319541
0.000807383
0.000856365
0.000776428
0.000850474
0.000833497
0.000849949
0.000852076
0.000854211
0.000524316
0.000849768
0.000851883
0.00085075
0.000850377
0.000808746
0.00091347
0.000851336
0.000857892
0.000900836
0.000851435
0.000858881
0.000904048
0.000809994
0.000850986
0.000853518
0.000854396
0.000851797
0.000850009
0.000850324
0.000782127
0.000852054
0.000847791
0.000856761
0.000853734
0.000858848
0.000613116
0.000882667
0.000867413
0.000843403
0.000852419
0.000852561
0.000785908
0.000454156
0.000850724
0.000850542
0.000830524
0.000850665
0.000852661
0.000787314
0.000884681
0.00075753
0.000852333
0.000849989
0.000878289
0.000864522
0.000785233
0.000852031
0.000852912
0.000851257
0.000851025
0.000850892
0.000851163
0.00085653
0.000893545
0.000850539
0.000852246
0.00087875
0.000905973
0.000854956
0.000865941
0.000851648
0.000847111
0.000859794
0.000886731
0.000852485
0.000873585
0.000801644
0.000827423
0.000844435
0.000854283
0.000865263
0.000847458
0.000849465
0.000855366
0.000321165
0.00029051
0.000750814
0.00085038
0.000849
0.000755871
0.000850993
0.000851159
0.000855657
0.000823447
0.000847906
0.000847991
0.000849823
0.000872693
0.000715997
0.000821018
0.000839816
0.00084706
0.000860383
0.000858717
0.000787367
0.000860219
0.000835058
0.000851943
0.000851214
0.000839267
0.00085196
0.000851873
0.000860263
0.000484263
0.000858851
0.000759656
0.000850336
0.000864695
0.000463558
0.00080689
0.000858483
0.000864176
0.00085909
0.000869948
0.000309105
0.000854869
0.000863051
0.0007366
0.000841645
0.000492154
0.000851045
0.00085509
0.000853808
0.000877172
0.000857902
0.000852168
0.00085399
0.000865234
0.000871888
0.000845457
0.000885317
0.000853359
0.000870839
0.000847625
0.000870065
0.000932255
0.000867655
0.000851408
0.000842976
0.000846875
0.000889383
0.000470443
0.000853492
0.000835995
0.000837934
0.000845758
0.000853141
0.000869646
0.000425906
0.00084559
0.000846451
0.000416812
0.00085139
0.00083991
0.000837598
0.000841025
0.00085339
0.00078072
0.000854467
0.000832859
0.000834089
0.000912972
0.000852664
0.000850717
0.000850369
0.000853338
0.000845537
0.00084806
0.000788877
0.00085111
0.00083535
0.000801385
0.000849498
0.000850472
0.000852502
0.000474412
0.000851211
0.000856963
0.000850241
0.000851018
0.00041475
0.000680702
0.00042215
0.000851439
0.000844018
0.000861663
0.000820858
0.000850067
0.000828041
0.000850555
0.000804468
0.000780162
0.000846793
0.000851297
0.000852758
0.000829343
0.000783357
0.000866145
0.000850937
0.000896191
0.000850634
0.000764663
0.000855623
0.000888318
0.000860357
0.00084007
0.000863706
0.000849177
0.000851305
0.000850162
0.000850984
0.000862289
0.000772952
0.000726903
0.000818058
0.000825364
0.00078172
0.000828184
0.000856482
0.000850454
0.000759835
0.000845554
0.000805379
0.000867176
0.000851005
0.000850505
0.000851456
0.000855937
0.000892028
0.000839309
0.000692229
0.000880629
0.00092784
0.000786484
0.000854056
0.000878386
0.000758978
0.000803441
0.000849463
0.000725708
0.000683591
0.000780718
0.000893638
0.000648695
0.000842483
0.000865381
0.000818346
0.000826054
0.000791949
0.00086118
0.000862387
0.000849774
0.000800104
0.000824624
0.000824356
0.000862615
0.000900944
0.000682352
0.000852186
0.000854411
0.000854312
0.00078485
0.000852284
0.000858469
0.00084572
0.000638266
0.000899101
0.000690582
0.000606395
0.000627526
0.000868163
0.000763061
)
;

boundaryField
{
    frontAndBack
    {
        type            empty;
    }
    wallOuter
    {
        type            nutkWallFunction;
        Cmu             0.09;
        kappa           0.41;
        E               9.8;
        value           nonuniform List<scalar> 
102
(
5.91472e-05
5.91472e-05
7.10129e-05
5.95394e-05
6.5292e-05
5.81636e-05
5.73909e-05
6.9569e-05
6.22431e-05
6.61504e-05
6.04593e-05
7.44385e-05
5.98996e-05
6.44512e-05
5.54651e-05
5.87407e-05
4.84327e-05
6.20882e-05
6.10555e-05
6.17461e-05
8.56398e-05
5.85538e-05
5.50581e-05
7.49756e-05
7.82383e-05
5.35355e-05
5.41382e-05
5.7538e-05
6.10621e-05
5.07533e-05
5.51711e-05
5.7653e-05
5.52289e-05
4.65053e-05
5.18323e-05
5.66686e-05
5.07726e-05
5.81249e-05
5.45739e-05
5.90906e-05
5.11526e-05
5.30152e-05
5.98759e-05
5.9503e-05
5.81237e-05
5.60837e-05
5.50589e-05
5.55078e-05
5.69524e-05
6.21013e-05
6.9456e-05
6.22505e-05
6.06298e-05
6.29548e-05
6.27672e-05
6.01021e-05
6.34139e-05
6.36997e-05
6.14159e-05
7.79598e-05
7.36859e-05
6.06881e-05
5.79247e-05
6.42094e-05
6.10194e-05
5.63417e-05
7.6237e-05
6.46073e-05
6.92002e-05
7.10491e-05
8.25139e-05
6.82554e-05
5.76514e-05
6.30509e-05
6.31622e-05
6.58483e-05
5.7616e-05
5.36028e-05
7.38596e-05
6.28298e-05
6.27624e-05
5.93837e-05
5.16786e-05
4.73191e-05
7.63759e-05
5.4277e-05
6.12867e-05
4.12925e-05
6.68596e-05
5.79614e-05
4.03952e-05
3.69405e-05
6.27439e-05
5.95345e-05
3.96596e-05
6.28847e-05
6.04e-05
5.45287e-05
5.41392e-05
6.14925e-05
5.38516e-05
5.48398e-05
)
;
    }
    inlet
    {
        type            calculated;
        value           nonuniform 0();
    }
    outlet
    {
        type            calculated;
        value           nonuniform 0();
    }
    wallInner
    {
        type            nutkWallFunction;
        Cmu             0.09;
        kappa           0.41;
        E               9.8;
        value           nonuniform List<scalar> 
138
(
8.79551e-05
5.16188e-05
9.59986e-05
9.6723e-05
9.78807e-05
9.47927e-05
8.88847e-05
9.86291e-05
0.000103039
8.6202e-05
0.000110312
9.47451e-05
8.99028e-05
0.000103708
8.407e-05
7.79964e-05
8.36234e-05
7.40254e-05
8.32444e-05
7.23159e-05
6.57404e-05
7.94181e-05
9.05978e-05
8.00379e-05
0.00010048
8.23829e-05
7.9579e-05
8.03799e-05
9.44318e-05
7.9891e-05
8.143e-05
0.000102686
7.43464e-05
7.42346e-05
8.46879e-05
8.62175e-05
9.03674e-05
9.20236e-05
9.89625e-05
7.52407e-05
7.51799e-05
9.08938e-05
9.69507e-05
7.27729e-05
7.28608e-05
6.28583e-05
0.000111229
6.38344e-05
9.41154e-05
9.76514e-05
9.75571e-05
8.12504e-05
8.28138e-05
0.00010337
9.87876e-05
8.56121e-05
8.53061e-05
8.91695e-05
9.9834e-05
7.83525e-05
0.000108037
8.34006e-05
9.29692e-05
0.000103953
0.000104123
9.56221e-05
8.47163e-05
8.51184e-05
7.23001e-05
7.24001e-05
7.22899e-05
8.14914e-05
7.77831e-05
7.28568e-05
7.45422e-05
7.22984e-05
7.65931e-05
9.5001e-05
9.68497e-05
8.04633e-05
7.68255e-05
8.28036e-05
7.29055e-05
7.70479e-05
7.6351e-05
9.45959e-05
8.15982e-05
8.17072e-05
8.22707e-05
9.79736e-05
8.18577e-05
9.36658e-05
8.3845e-05
0.000110243
8.26444e-05
8.03857e-05
8.14929e-05
7.64335e-05
0.000107886
7.747e-05
7.6978e-05
8.60086e-05
8.22509e-05
0.000103735
8.12125e-05
8.11654e-05
6.8879e-05
8.56847e-05
8.51529e-05
8.61806e-05
0.000101572
8.86007e-05
8.50091e-05
8.30267e-05
7.38861e-05
6.65655e-05
8.11286e-05
8.856e-05
8.85481e-05
7.68313e-05
6.98741e-05
8.09359e-05
5.74537e-05
7.05341e-05
6.62578e-05
8.54132e-05
7.50215e-05
6.1577e-05
8.51862e-05
7.93522e-05
7.7218e-05
9.12678e-05
8.03395e-05
0.000110997
7.73343e-05
7.86993e-05
0.00010799
9.49826e-05
)
;
    }
    procBoundary2to0
    {
        type            processor;
        value           nonuniform List<scalar> 
42
(
0.00085203
0.00085203
0.000861222
0.000814643
0.000871281
0.000856824
0.000883152
0.000883152
0.000860203
0.000851721
0.00087548
0.00087548
0.000880714
0.000867591
0.000858512
0.000864261
0.000852869
0.000850921
0.000853907
0.000854269
0.000868192
0.00085042
0.00085042
0.000898559
0.000868192
0.000850155
0.000893701
0.000850329
0.000893701
0.000851954
0.000852232
0.000851104
0.000853429
0.000860411
0.000881132
0.000814643
0.000852869
0.000576811
0.000873847
0.000911878
0.000911878
0.000918552
)
;
    }
    procBoundary2to1
    {
        type            processor;
        value           uniform 0.000851436;
    }
    procBoundary2to3
    {
        type            processor;
        value           nonuniform List<scalar> 
29
(
0.000864934
0.000851674
0.000852843
0.000693314
0.000894364
0.000910546
0.000900304
0.000851206
0.000852671
0.00085015
0.000852839
0.000852537
0.000878356
0.000850754
0.000849361
0.000859259
0.000851372
0.000851372
0.000851674
0.000850754
0.000850237
0.000852081
0.000564129
0.000850947
0.000818516
0.000866642
0.000852671
0.000850522
0.000852537
)
;
    }
}


// ************************************************************************* //
