/*--------------------------------*- C++ -*----------------------------------*\
| =========                 |                                                 |
| \\      /  F ield         | OpenFOAM: The Open Source CFD Toolbox           |
|  \\    /   O peration     | Version:  v1912                                 |
|   \\  /    A nd           | Website:  www.openfoam.com                      |
|    \\/     M anipulation  |                                                 |
\*---------------------------------------------------------------------------*/
FoamFile
{
    version     2.0;
    format      ascii;
    class       surfaceScalarField;
    location    "0.81";
    object      phi;
}
// * * * * * * * * * * * * * * * * * * * * * * * * * * * * * * * * * * * * * //

dimensions      [0 3 -1 0 0 0 0];
oriented        oriented;


internalField   nonuniform List<scalar> 
2708
(
1.60125e-05
-4.03056e-05
-4.2724e-06
2.85655e-05
-3.73004e-05
4.72969e-05
-0.000155075
0.000145078
0.00124407
0.000237457
-0.000915983
-0.000565546
-0.000325421
0.000184147
6.43571e-05
7.69166e-05
1.26599e-05
-7.41237e-06
-8.01349e-05
7.48873e-05
0.000442566
0.00034392
-0.000229504
-0.000556982
7.19254e-05
0.000100292
0.000602302
-0.00082634
0.0010067
-0.000782659
0.000190864
0.000315921
-0.000411794
-9.49904e-05
0.000153878
0.000275548
-0.000306825
-0.000122601
0.000261899
1.83964e-05
-2.56171e-05
-0.000254678
-5.1894e-05
0.000114158
-6.22637e-05
3.12976e-05
-4.08989e-05
-4.38433e-06
1.39856e-05
0.000851937
-0.000866325
4.12282e-05
-2.68399e-05
0.000133358
-0.000135489
5.57295e-05
-5.35983e-05
-1.29592e-06
-0.00032814
0.000329436
-0.000215493
0.000194884
0.000153967
-8.4072e-05
0.000238313
-0.000185658
3.14174e-05
-1.02788e-05
-2.4547e-05
3.48259e-05
0.000258767
4.63352e-05
-4.32032e-05
-7.27207e-05
-4.09029e-05
1.06027e-05
0.000103021
-0.00010952
-0.000175372
-3.31692e-05
6.9608e-05
0.000264069
-0.000300508
0.000822612
5.84365e-05
-2.91123e-05
0.000374629
7.82663e-05
-0.000405267
-4.76285e-05
0.000230759
-5.93073e-05
8.73157e-05
-0.000415295
0.000347111
-0.000152404
0.000220588
3.44055e-05
-1.93365e-05
-0.000881394
-0.00103817
8.3092e-05
0.000958667
-3.58795e-06
-0.000246983
0.000146344
0.000109686
-9.04757e-06
-0.000436769
0.000978866
-0.000561423
1.93264e-05
0.000931412
0.000450605
-0.000615324
-0.000766693
0.000210656
0.000195905
-0.000406562
0.000115791
-0.000139526
2.37342e-05
0.000104531
-0.000148511
4.39804e-05
-0.000876997
0.000876121
0.000671838
-0.000670962
0.000140147
-2.62321e-05
-0.000170123
5.62079e-05
-0.00118722
0.00114389
-5.23262e-05
9.5657e-05
5.10788e-05
-5.85312e-05
-0.000121589
-0.00140181
-3.51966e-05
0.000249785
-0.000360131
-0.000258038
4.26888e-05
0.00057548
0.000110378
-1.71989e-05
-9.3179e-05
-3.45325e-05
4.72013e-05
-0.000126366
0.000113697
-5.17026e-05
7.94729e-05
-0.000137309
0.000109539
0.00014145
-5.04681e-05
-0.000221656
0.000130674
7.31284e-05
0.000132707
-9.63629e-05
-0.000109473
5.30609e-05
0.000675065
-0.000373509
-0.000354617
-1.80828e-05
2.84065e-05
-0.000957607
0.000947283
-0.000656567
0.0011647
-0.00087175
0.000363615
2.9984e-05
-0.00108364
0.00111007
-5.64186e-05
0.000241296
-1.34331e-07
-0.000247055
5.89282e-06
-0.000445309
0.000286627
0.00031256
-0.00055834
0.000323501
0.000425703
-4.40327e-05
4.77754e-05
-4.64549e-05
4.27122e-05
-3.99094e-05
5.27866e-05
-8.72839e-05
7.44067e-05
-0.000971482
0.000113942
0.000954433
-9.68923e-05
-6.32326e-05
-9.05214e-05
0.000451151
-0.000297397
-0.000137808
-6.97489e-05
0.000612262
-0.000404706
-0.000566595
0.000525929
-4.65185e-05
9.095e-05
-0.000117152
0.000327223
-0.000272995
-1.16724e-06
0.000124237
8.92053e-05
-7.93074e-05
-0.000134134
0.000457432
-0.000743164
-0.000591265
-0.000426919
0.000472403
0.00101215
-0.00105764
0.000848259
-0.000171164
-4.76945e-05
-0.0006294
-1.06961e-05
1.71585e-05
-0.00025302
0.000246558
0.000222958
-1.83146e-05
2.89054e-05
9.01544e-05
-5.34447e-05
-6.56151e-05
-0.000624644
0.00102973
-0.000734843
0.00032976
8.12589e-05
5.28279e-05
8.27076e-05
-9.83327e-06
-7.92101e-05
6.33569e-06
-0.0001152
-2.60878e-06
-1.69627e-06
0.000119505
6.47748e-05
0.000145882
2.10685e-05
8.71921e-05
-0.000105251
-3.00981e-06
2.19788e-05
0.000650404
-0.000434925
0.000967754
6.30419e-05
-0.00101568
-1.51189e-05
0.000137225
-0.000265145
-6.80996e-05
0.000196019
-0.000953936
0.000926376
-0.000399359
-3.49835e-06
0.000249119
5.70892e-06
-0.000251329
-1.94996e-05
3.49051e-05
-3.5982e-05
2.05765e-05
4.66912e-05
-0.00013692
0.000186035
-9.58061e-05
-0.000279628
-6.42e-05
0.000202671
0.000141157
8.52391e-05
-0.000100128
3.51581e-05
-2.0269e-05
0.000105492
-1.7446e-05
-0.000111229
2.31838e-05
-6.30724e-05
-4.53905e-05
6.21605e-05
4.63024e-05
0.000782748
7.76693e-05
-3.78054e-05
-0.000124527
0.000151002
-0.000194107
0.000167631
0.000116793
0.000114908
-0.000107669
-0.000124032
-0.000194624
0.00017872
-4.71684e-05
0.000104667
1.20954e-05
-1.1271e-05
0.00113106
-1.75504e-05
3.03826e-05
3.16444e-06
-4.83962e-06
-0.000190386
0.000192061
-7.10581e-05
0.000123535
-9.89954e-05
-1.26788e-05
-0.000103674
1.15297e-06
-6.57976e-05
-0.00100342
0.00103158
3.76355e-05
-0.00010687
-2.43964e-05
0.000108598
2.26678e-05
-0.000807331
-0.000286005
8.02653e-05
2.44069e-05
-7.57668e-05
3.00885e-05
-0.00108783
0.00108793
-3.01969e-05
-5.71438e-05
1.28726e-05
0.000119251
-7.49803e-05
-0.000104561
1.5042e-05
-1.99144e-05
0.000109434
0.000204996
1.97095e-05
7.5291e-06
-0.000232235
3.65817e-05
-7.17352e-05
-3.94498e-05
7.46032e-05
0.00104035
-0.00146468
0.000184202
0.000240122
0.000477799
9.0402e-06
1.25806e-05
-0.00049942
8.83858e-05
8.80785e-05
-0.000960154
2.39339e-05
6.11162e-05
-8.87358e-05
3.68574e-06
-9.96214e-06
0.000170239
-0.000214004
5.3727e-05
3.14342e-06
-0.00017342
0.000159581
0.000845697
-0.000579672
4.89523e-05
-0.000314977
-0.000234544
0.000142361
0.00021642
-7.40356e-07
-1.15264e-06
0.000206889
6.34087e-06
2.20782e-06
-0.00011311
-0.000143634
-5.48068e-05
0.000114368
3.48909e-05
-1.015e-07
-4.47873e-05
9.9979e-06
0.000728773
9.90464e-05
-4.50712e-05
0.000170776
0.000166579
-0.00113977
0.00114176
9.58797e-05
-9.78717e-05
-0.000299515
-0.000396633
-0.000212074
-0.000296468
0.000774198
0.000178881
-0.000824638
-0.000128441
-0.000993513
-0.000637426
0.00105525
0.000575692
2.42295e-05
-2.89804e-05
-1.21995e-05
1.69505e-05
0.000117163
-4.43044e-05
0.000655915
-7.93471e-05
2.17743e-05
5.49641e-05
-2.14242e-05
4.76508e-05
-6.87475e-05
4.25209e-05
0.000822621
-0.00104122
0.00035666
-0.000138061
-9.82507e-05
6.34849e-05
2.30947e-05
1.16711e-05
-0.000353343
2.01816e-05
-0.000102142
-0.00075708
0.000859222
-9.12123e-05
-0.000184176
0.000218245
-1.77397e-05
-5.21278e-07
0.000122928
-5.84323e-06
5.27678e-05
-0.000241549
8.86077e-05
-7.74483e-07
-5.12559e-06
-1.61736e-06
-2.54247e-06
0.000148891
-0.000144731
-0.000102979
0.00012531
-5.56602e-07
-2.17738e-05
-0.000334533
-8.01034e-05
6.12934e-05
-0.00033513
4.73482e-05
0.000312034
-2.42525e-05
-9.74736e-05
-2.28807e-05
0.000102615
0.000899341
-2.32968e-05
-0.000766491
-0.000109553
-0.000103972
0.00111361
0.000155067
-0.00111097
9.24369e-05
0.000860169
-0.00102806
-0.000262951
0.00043084
-0.000227367
-0.000988528
0.00119007
2.58301e-05
0.000155713
-1.24471e-05
-2.85367e-05
1.09818e-05
0.000106163
-0.000918481
0.000882564
-0.000275476
0.000311392
0.00127086
7.6646e-05
-0.000315884
-0.00103162
-4.96847e-05
0.000907167
-9.22276e-06
-9.26153e-05
0.000136394
-1.20475e-05
-3.17313e-05
-6.86791e-07
-1.88128e-05
7.45079e-05
1.46975e-05
-5.22426e-05
-3.97834e-05
-0.000930372
-0.000378211
0.000354647
-0.000272162
-0.000100134
0.000281085
0.000909861
0.000115005
-0.000179168
-0.000188648
0.00090101
-0.000886017
0.000173655
0.000245875
-3.16444e-05
2.40827e-05
-0.000164458
0.000182257
-3.52614e-05
-2.95138e-05
7.76477e-05
-2.13786e-05
7.47635e-05
-5.41252e-05
-1.82359e-05
0.000108476
-7.26098e-05
-2.48104e-05
8.7458e-05
-9.46343e-05
4.75101e-05
2.13758e-05
-2.14371e-06
-3.54267e-06
-9.84531e-05
5.95375e-05
-0.000145261
-0.000949025
0.000182885
0.000883303
-4.79882e-06
0.00022005
-0.000216547
0.000369932
-0.000584726
-0.000555486
0.00077028
1.41353e-05
0.000238359
-0.000877139
-3.3906e-05
0.000918781
1.44664e-05
8.09703e-05
3.81437e-05
-0.000119114
-1.71352e-05
1.1292e-05
0.00108554
-0.00126219
-0.000152809
0.000329461
0.000176391
7.19699e-05
-0.000102017
-0.000821074
-0.000351124
0.000854425
0.000317773
-8.46257e-05
0.00104688
-0.000949928
-1.23282e-05
-1.87321e-05
0.000135704
-2.72759e-05
-8.96962e-05
0.000126598
-0.000982345
0.000948354
-9.26068e-05
0.000172213
-0.000154468
-0.000252289
-0.00033372
0.000247727
0.000946162
-0.000925467
0.000914337
-0.000177517
0.000628024
-0.000605394
5.12699e-06
0.000552609
-0.000504968
-6.44647e-05
0.000170697
-0.000333035
-0.000909332
0.000311995
-1.58e-05
-0.000163029
0.000219234
-4.04052e-05
-0.000334489
0.000346799
-9.31392e-05
8.08287e-05
0.0001037
0.00101775
-0.000893056
-0.000158599
0.000274846
-3.07832e-05
1.20402e-05
-0.000256103
-0.000153618
0.000166004
0.00112938
8.11493e-06
2.32217e-05
0.00100902
0.000126857
0.00093711
-0.00100432
-5.96444e-05
-3.52791e-05
-4.40283e-05
-2.42973e-05
2.50718e-05
-0.000209137
0.000279777
-7.06403e-05
-0.000200026
-0.000918236
0.000199781
-0.000328562
-7.54967e-05
4.39276e-05
-0.000198073
-0.000248854
3.97458e-05
-4.9141e-05
4.06128e-05
0.0010236
-8.6656e-05
-0.000977552
-1.41303e-05
0.000140316
-0.000128969
2.78299e-06
-7.48228e-05
0.00105822
-0.000650926
-0.000265427
0.00067524
-1.2607e-05
-0.00089
0.000132906
0.000835969
-0.000194677
0.000977635
0.000148902
-0.000159276
-0.000967262
0.000158125
-3.39512e-05
-0.000214696
0.00017096
-5.06322e-05
-0.000190076
0.000204656
0.000899692
-0.000194487
0.000182872
6.15074e-05
-0.000260179
-8.16188e-05
0.000100907
4.7631e-06
-2.4051e-05
0.000369014
-9.18263e-05
0.000583948
-0.000861136
0.000353136
-9.89477e-05
0.000515105
0.00122815
-0.000554798
-0.000361185
0.000810583
-0.000884041
-1.83689e-05
-0.00102063
-0.000833864
0.00059231
0.000837756
-0.000904877
-0.000228254
-0.00101182
4.92156e-05
0.00100383
0.000883935
8.79895e-05
-8.61068e-06
-6.72834e-05
-0.000162988
0.000182302
0.000159407
0.00101282
0.000201114
-0.000531761
0.000962509
-0.00125709
-0.00041676
-0.00092351
0.00080851
-0.00061652
0.000875
-8.21183e-05
-0.000991932
8.55222e-05
3.05775e-05
5.93645e-05
-7.39296e-05
-0.000937795
0.000664394
-5.96344e-05
-4.53176e-05
3.17217e-05
-2.34497e-05
3.70457e-05
-0.00110993
-3.563e-05
0.00107074
-0.000188342
0.000171116
-0.000260012
-7.7228e-05
0.000130882
0.000206357
-0.000503839
0.000626782
-3.56508e-05
1.99571e-05
-3.65488e-05
-2.54833e-05
2.27284e-05
-3.28959e-05
0.000757106
0.000180613
0.000149087
-0.00100446
0.000154482
-0.000974292
-8.67854e-05
0.00117408
-0.000112998
0.000139992
-8.40827e-05
0.000144323
-0.000127722
0.000793292
0.00048915
-0.00115558
0.000195348
-0.000263446
-0.000964918
0.000988469
-2.35509e-05
0.000125299
-0.00012291
-2.38943e-06
7.23016e-06
4.80465e-07
-5.30282e-05
-0.00104927
-2.41458e-05
0.00107342
-0.001006
0.00101729
-1.12884e-05
-0.000934934
-1.55644e-05
-0.000474221
0.000181789
-4.26977e-05
0.000244453
-0.000873579
-0.00102505
4.76342e-05
-0.000989721
0.0010856
0.000909596
-0.00023262
-0.000934459
-0.000117314
0.000943675
0.000108098
-0.000200975
2.7113e-05
0.000291521
-0.000117659
0.00100125
2.33491e-05
0.000445166
-0.000980585
5.49827e-05
-4.86902e-05
8.79207e-05
-0.00101929
-3.43372e-05
-0.000900597
0.00102905
-0.000671939
-3.73067e-05
0.000135881
2.06769e-05
0.000118871
-7.47302e-05
-9.60352e-05
1.39077e-05
-1.65179e-05
-0.000126494
0.000129105
-0.000421302
-9.75966e-05
-7.34495e-05
-0.00063786
9.63893e-06
-8.32878e-06
3.04115e-05
1.72146e-05
-2.5345e-05
-7.34884e-05
-4.87479e-05
0.000229686
-0.000968346
-0.000411793
-0.000845047
0.00053242
0.00072442
-0.00101358
-0.00105186
-9.24768e-05
5.50728e-05
0.00108927
0.00055167
3.19798e-05
0.00115986
-1.3483e-05
-0.00117836
-0.000686192
-0.000546676
4.59698e-06
-0.000136854
0.000243079
-0.000110822
0.000977434
-0.0010403
-0.0003832
0.000203048
0.00122046
-2.47931e-05
9.15764e-05
3.69172e-05
0.000192139
-0.00106935
0.00100381
1.39742e-05
8.88461e-05
-9.55902e-05
-0.000234852
0.000203259
-0.00134736
-2.24457e-05
-3.35995e-05
3.90038e-05
-6.09113e-06
0.000305763
0.0010225
-6.52611e-05
-0.001263
0.000190793
3.34964e-05
0.000107868
-0.00012739
0.000378641
-0.00026119
-1.75358e-05
-1.25808e-05
1.84473e-05
4.9117e-06
0.000864411
-2.04374e-05
-6.03043e-05
8.44903e-05
-3.74857e-06
1.29395e-05
-0.000121684
-4.60435e-05
-1.82602e-05
-0.000139173
0.000147048
2.56216e-05
-4.64199e-05
-0.000334824
-4.00582e-05
4.83833e-05
-5.8674e-05
3.93382e-05
-2.90475e-05
0.000304435
-0.000983492
7.16926e-05
9.76562e-05
7.62231e-05
0.000120491
-6.43638e-05
8.31943e-05
9.93949e-05
3.51699e-05
-0.000364017
0.000376196
6.47657e-05
-6.5598e-05
1.04712e-05
-4.30848e-05
2.70516e-05
6.08981e-05
-4.48649e-05
5.76485e-05
7.59608e-05
0.000405265
0.000923628
-0.000402517
-4.50745e-05
-7.27136e-05
6.01025e-05
5.76856e-05
0.00108002
4.55819e-05
-2.87523e-05
-3.35801e-05
1.67506e-05
1.82491e-05
4.95618e-05
-5.35741e-05
-1.42367e-05
-3.71533e-06
1.60855e-06
-6.222e-06
-0.000106743
0.000164846
-0.000221132
-4.17776e-05
-0.000137195
0.000101744
-0.000200106
-1.8535e-05
0.000216497
-3.56622e-05
7.48532e-05
-2.69079e-06
-0.00019755
-3.60563e-05
-2.59679e-06
-1.1012e-05
4.96651e-05
0.00117836
-0.000892177
4.52403e-05
-6.07344e-05
0.000133674
0.00010506
-0.000249443
-0.000547824
0.000692207
-4.92863e-05
4.00885e-05
9.19784e-06
0.000105166
-0.000916355
-7.28515e-05
8.4225e-06
-1.3013e-05
4.59048e-06
-4.24174e-06
-2.09561e-05
2.51979e-05
6.5742e-05
-7.06949e-05
4.95293e-06
-7.3913e-05
2.4011e-05
4.9902e-05
1.56185e-05
-3.47598e-06
-1.21425e-05
-2.75809e-05
-1.02779e-05
3.78588e-05
0.000111724
-0.000108347
-3.3766e-06
-4.0739e-05
5.00983e-05
-9.35935e-06
-9.62373e-05
2.23244e-05
2.16272e-05
-6.00877e-06
-5.37287e-05
4.44236e-06
-9.77452e-05
0.000102602
-4.85672e-06
5.1353e-05
-4.81109e-05
-3.24208e-06
0.000122608
-2.73521e-05
-1.33868e-05
0.000114888
3.66798e-05
-4.2341e-05
5.6612e-06
-4.85174e-05
4.42757e-05
-3.38071e-06
1.18032e-05
-0.000118293
-4.61713e-06
-9.69264e-06
3.21584e-05
-2.24657e-05
1.07338e-05
-5.72763e-05
2.46388e-05
2.19038e-05
1.15674e-05
8.07057e-05
-5.95465e-05
-0.000120369
0.000142615
-2.66846e-05
8.29519e-05
9.78987e-05
-0.000120673
0.000249226
-0.000123956
-9.20594e-05
2.05083e-05
0.000172458
3.93701e-05
-3.72159e-05
-3.09065e-05
1.74173e-05
-0.000330199
-0.000637146
-0.000338884
0.000387797
0.0010622
-0.000113586
1.5841e-05
6.91444e-06
-9.90502e-06
2.99058e-06
2.06303e-05
1.72246e-05
-5.95367e-06
-3.70448e-05
-3.40452e-06
5.30534e-05
-2.08951e-05
-3.63033e-06
-5.74517e-06
1.57236e-05
-1.06064e-05
-2.40654e-06
-0.000334979
-0.000618837
0.000361846
0.00059197
0.0010393
-0.000267068
8.6199e-05
1.46544e-05
-4.98443e-05
4.28916e-05
-7.70173e-06
-2.66238e-05
4.55518e-05
0.000915245
-0.000924637
9.25792e-05
-8.31878e-05
2.82493e-05
1.36831e-05
-4.07334e-05
-1.19899e-06
4.98188e-05
1.53422e-06
-6.81635e-05
-1.53563e-05
4.99396e-05
-3.88019e-06
-0.000196059
9.91581e-06
-7.34964e-05
1.84398e-05
4.51409e-05
0.00109137
-0.000294931
6.25748e-05
1.97991e-05
-3.39906e-05
0.000424729
-0.00108476
0.000965796
-7.45273e-06
-9.63558e-06
3.72018e-05
1.37357e-05
0.000157018
-0.000370321
0.000728408
-8.72963e-05
7.05065e-05
-6.25525e-05
0.000696596
0.00066909
-0.000489564
8.21244e-05
-7.94934e-05
0.000658076
-0.000361929
-0.000296147
-7.85825e-05
7.66203e-05
4.4441e-05
-4.24788e-05
-0.000394394
-0.000127048
0.000320467
-5.36614e-05
-4.04578e-05
3.93021e-05
5.48171e-05
2.28546e-05
1.59449e-05
-9.85314e-06
-3.16112e-05
5.84937e-05
-2.06795e-05
-6.20302e-06
-6.87033e-05
6.60023e-05
-3.79299e-05
4.0631e-05
6.63966e-05
-5.26721e-05
-0.000175133
0.000161409
-6.57346e-06
-2.15366e-05
-3.50118e-06
-5.33571e-05
4.68132e-05
-7.20387e-05
-0.000139891
-2.79453e-05
0.000234233
-4.74945e-05
0.000113646
-7.7208e-05
1.1057e-05
7.81811e-05
-8.81253e-05
-0.000110588
0.000106716
9.19974e-05
-0.000136207
-0.000109029
-1.18953e-06
5.75465e-05
-7.00817e-05
0.000120808
4.83533e-05
-4.30546e-05
-0.000126106
2.81056e-05
1.82508e-05
-0.000121834
-1.19888e-05
5.78747e-05
7.5948e-05
-3.66324e-05
4.21213e-05
5.30048e-05
-0.000159838
-3.65977e-05
0.000148942
-0.000130116
-0.000122341
7.73237e-05
2.41001e-05
0.000369972
-0.000334802
9.72851e-05
-0.000136316
0.000163513
-0.000102826
-9.47559e-06
2.61894e-06
6.85666e-06
6.43021e-05
2.1408e-05
-7.22866e-05
-1.34235e-05
1.72352e-06
2.84368e-05
3.41418e-05
-9.68284e-05
-2.16763e-05
3.04584e-05
6.6557e-05
-9.70154e-05
-7.78152e-05
0.00012906
-2.89135e-06
-0.000106366
-1.45039e-05
-3.23867e-05
-4.68769e-05
1.05603e-05
-6.69142e-05
1.09662e-05
5.76714e-05
2.09033e-05
-3.03719e-05
7.54709e-05
-1.69262e-05
3.96462e-05
-4.33995e-05
-3.64883e-05
5.94959e-05
-2.10431e-06
4.27308e-05
-3.16028e-05
-4.35148e-05
3.49835e-05
-4.0454e-05
-4.14064e-05
-2.41293e-05
2.52595e-05
4.21843e-05
0.000274974
-0.000280156
0.000251158
-0.000245975
3.29515e-05
4.14496e-05
-7.44011e-05
-2.1393e-05
-1.30381e-05
-1.66148e-05
-0.00022005
0.000203495
2.00929e-05
6.77415e-05
9.31443e-05
-9.86485e-05
2.55971e-05
-3.15068e-05
-0.000450548
-0.000109213
0.000224782
-4.45804e-05
-4.39284e-05
7.1894e-05
6.59504e-06
3.28879e-05
0.0005182
-0.000272152
0.000278325
-0.000276968
9.00949e-06
-1.03663e-05
-4.3285e-05
1.76105e-05
0.00087329
-0.000215213
6.97205e-05
-2.43224e-05
-8.99786e-05
3.40651e-05
-6.79278e-05
-0.00080612
0.000705484
0.000677328
-0.000814358
0.000575956
-0.000484261
0.000255105
-3.52143e-06
4.85227e-06
-1.33084e-06
-2.70211e-05
0.000276657
-3.41698e-06
5.08505e-06
-0.00014448
0.00101777
-0.00110627
-0.0011411
9.72602e-05
-9.30804e-05
-9.03301e-05
-0.000158791
8.46157e-06
2.79397e-05
4.49545e-05
-2.05101e-05
-5.23841e-05
-6.09205e-05
5.70416e-05
5.24572e-05
-4.85782e-05
7.27749e-07
2.97307e-05
3.34669e-06
6.47698e-06
2.64745e-05
-4.08822e-05
4.57371e-05
3.44472e-05
-0.000763595
0.000933961
0.000535117
1.13293e-05
1.81995e-07
0.000271118
5.35645e-06
-0.000439329
8.00411e-05
0.000359288
0.000183874
-7.36187e-05
6.19957e-05
-0.000172251
9.49418e-05
-8.93112e-05
-0.000930268
-4.62564e-05
4.28272e-05
0.000187303
-0.000182493
-6.20349e-07
0.000516269
0.000156904
-0.000673173
-2.61206e-05
0.000131341
8.42558e-06
-5.91954e-06
-0.000160632
7.8426e-05
-0.000170699
5.41917e-05
0.00010829
-0.000122498
4.39385e-05
4.03623e-05
-4.71795e-05
-5.73721e-05
4.73819e-05
-7.33523e-05
4.88059e-05
5.10209e-05
0.000380417
-1.04454e-05
2.34804e-05
0.000356937
1.48087e-05
0.000165603
-6.82489e-05
5.49316e-05
6.16686e-05
-9.35713e-05
0.000489689
7.69405e-05
3.31141e-05
-5.95263e-05
-1.93231e-05
7.8839e-05
-0.00013478
-0.000154293
2.50099e-06
0.000166706
-0.000161486
-1.36833e-05
1.583e-05
-1.17823e-05
-0.000238305
1.19443e-05
0.000226543
-4.69395e-05
4.99533e-05
6.71233e-05
-4.49509e-05
-4.32738e-05
2.11015e-05
6.01473e-05
-7.00469e-05
-0.000164388
2.49044e-05
0.000183158
4.23504e-05
-0.00112423
-7.49282e-06
-0.000927899
-0.00032761
-0.000176318
5.64782e-05
5.59581e-05
3.6067e-05
4.98619e-05
-5.81258e-06
-7.77836e-05
8.55141e-05
-1.91793e-06
0.000193163
3.2823e-05
-5.4805e-05
9.29883e-06
-0.000251313
0.000325482
0.000429049
-0.000503218
5.29079e-07
-0.000158584
-2.57689e-06
-2.8759e-05
-0.000313144
2.15688e-05
-5.8716e-05
6.76052e-05
3.60653e-05
0.000165171
-0.000961964
-2.33813e-05
0.00099346
9.14626e-06
-2.41644e-05
4.98143e-05
2.00872e-05
3.58891e-05
-3.40527e-05
1.43203e-05
1.97324e-05
0.000985896
-0.00103822
5.53795e-05
-2.55384e-07
2.01147e-05
2.64706e-05
-7.38311e-05
-6.59241e-06
5.65677e-07
1.23295e-05
-6.30273e-06
4.09828e-05
-2.74483e-05
-0.000328555
2.10384e-05
-9.07796e-05
8.07074e-05
0.000144946
-0.000207513
0.000100826
-8.77819e-05
-1.96366e-05
0.000580712
-0.000306516
-2.99841e-05
-1.37454e-05
3.13669e-05
1.23626e-05
-3.65257e-05
5.71188e-05
-9.28797e-05
-0.000859649
6.04597e-05
0.000161938
8.51789e-05
-0.000166411
6.82282e-05
-0.000238398
7.8888e-06
-1.48911e-05
7.00229e-06
4.91859e-05
2.45752e-05
-4.55117e-05
0.000255019
-0.000344393
-3.998e-05
3.04498e-05
0.000283102
-5.07651e-05
7.79151e-05
6.54639e-05
-0.000101258
-0.000112655
-0.000144872
0.000185229
0.000260941
-0.00100326
0.000264374
3.24559e-06
-0.000741684
1.98428e-05
-9.42566e-05
7.91383e-05
-1.57739e-05
-9.50704e-05
0.000110318
5.2596e-07
0.000198139
3.0913e-05
-3.14467e-05
-8.73353e-05
0.00110073
1.39852e-05
-1.8162e-06
-0.0010545
-3.6342e-05
-8.32725e-05
0.00022128
-1.04385e-05
0.000525439
9.72619e-05
0.000250319
0.00124859
0.00110324
0.000163095
0.0002
0.00110629
4.71036e-05
-9.51814e-06
1.21462e-06
-4.85725e-05
-0.000110014
-0.000165063
-0.000921138
0.000116471
-3.03338e-05
1.1521e-05
-0.000120299
7.03104e-05
-5.84029e-05
-9.92428e-05
4.21839e-05
-2.5986e-05
1.82859e-05
0.000179709
0.000143814
-4.6807e-05
-0.000151188
-6.55351e-06
4.98395e-05
6.52828e-06
-9.44523e-05
0.000102666
2.22362e-05
0.000835347
-0.000165503
-0.000639311
-3.05324e-05
-0.000750227
0.000693582
0.000317586
2.08328e-05
-7.49636e-05
4.07072e-05
1.684e-05
-1.2723e-06
5.51193e-05
-3.26734e-06
-0.000241586
0.000326706
0.000152634
-0.000985851
8.01806e-05
0.000640385
-0.000640524
2.75096e-06
0.000400757
-0.000380028
-6.80434e-05
-1.31458e-06
-5.5316e-05
1.20781e-05
3.11591e-05
6.56307e-06
-3.17462e-05
-5.97604e-06
-0.000112967
8.73398e-05
0.000139521
-0.000200619
-0.00012456
-4.92914e-05
1.43952e-05
5.31452e-05
-8.86278e-05
7.64846e-05
0.000842542
-6.56046e-06
7.53184e-06
3.01878e-05
-2.12893e-05
-2.84405e-05
-3.54536e-05
5.48842e-05
3.35742e-05
-0.00100802
0.00104129
-0.000282123
2.40712e-05
-9.39483e-05
-0.000156795
-2.37452e-06
0.00029869
0.000101973
-2.10024e-05
-0.00096714
-0.00019948
4.76708e-05
3.61305e-05
4.21934e-05
0.000790613
5.95809e-05
0.00104669
-0.00101219
0.000146045
-0.000144341
-0.000158499
0.000196219
1.44029e-05
0.000240184
2.00239e-05
-2.79431e-05
-0.000232264
-0.000308939
-3.00522e-05
3.91675e-05
1.17175e-05
-0.000161901
9.0023e-05
-3.94319e-06
4.92413e-06
0.000418143
4.53508e-05
-2.30214e-05
0.000229406
-8.57357e-05
8.06272e-05
-2.03986e-05
-8.49486e-06
7.63924e-05
5.25935e-05
0.000198159
-0.000161229
0.000997101
-0.00124954
0.000266429
0.000154631
5.06303e-05
0.000722575
5.64255e-05
0.000945988
0.000277377
-9.95131e-05
-0.00112385
-8.21453e-05
-1.59014e-05
2.32548e-05
-3.90854e-05
-6.46745e-05
4.05573e-05
5.59879e-05
-3.18707e-05
-0.000131446
0.000212779
-0.000248245
0.000166912
-0.000193415
0.000178762
0.00133499
9.81617e-05
9.75464e-06
3.49273e-05
0.0013265
7.73651e-05
3.76219e-05
-5.55132e-07
0.000122936
-3.29573e-05
-5.69713e-06
-0.00103225
8.04352e-05
-0.000132181
-3.79172e-05
2.32597e-05
3.79123e-05
-0.00097666
-0.00116416
0.000737573
-2.19714e-05
-1.82276e-05
-4.87411e-05
5.52935e-06
1.23647e-05
3.08471e-05
7.74558e-05
1.59713e-05
-5.0024e-05
8.85161e-05
8.97579e-06
-5.20246e-05
-1.65367e-05
-0.000117696
0.000111056
-4.22624e-05
8.25969e-05
-9.64663e-06
-7.91533e-05
-6.13715e-07
8.87662e-05
1.87044e-06
5.41633e-05
5.206e-05
3.96332e-05
-8.39565e-05
6.95393e-06
-0.000154274
2.34936e-06
-7.03321e-06
-6.72659e-06
4.23595e-05
-3.54437e-05
-6.89729e-06
-2.71764e-06
4.15589e-05
0.000861863
0.000132008
-6.17844e-06
-0.000814771
8.0137e-06
2.38617e-05
-8.31113e-05
0.000461082
0.000408694
0.000148004
-7.5432e-06
0.0010853
-0.000497277
-2.59613e-05
0.000144165
-0.000135655
0.000101177
-5.5056e-05
-1.24976e-06
-2.51119e-05
-3.26203e-05
9.34834e-05
2.45127e-05
-1.86716e-06
-0.000727367
0.000677962
4.94052e-05
0.000116521
-0.000120613
-3.83862e-05
-3.4964e-06
0.000273747
4.59465e-06
0.000892213
0.000143305
-0.000789382
6.20144e-05
5.10807e-05
0.00107473
-8.95869e-05
-0.000950447
0.00101665
-0.000327588
0.000560335
4.66789e-05
-0.000279426
-4.39266e-05
1.99779e-05
-1.21075e-05
5.79934e-05
0.000619969
-9.24678e-05
0.00011104
0.000107401
-0.000125973
4.45765e-05
-2.94887e-05
4.19797e-05
-5.70675e-05
-0.00020217
4.35954e-05
0.000158575
0.000104073
-6.8379e-05
6.96395e-05
9.66382e-05
7.98777e-05
2.2095e-05
-0.000247231
4.50611e-05
-0.000291536
0.000331136
-0.000376475
-0.000282248
-0.000892786
0.000275659
-2.25213e-05
2.99635e-05
-0.000144758
1.05102e-05
4.19145e-05
-9.59583e-05
0.000123372
2.23284e-06
0.000153491
-7.4182e-05
0.000392947
0.000538466
0.000173124
-4.50488e-05
-0.000149077
-0.000480257
0.000462239
1.80182e-05
8.26802e-05
-0.000872062
7.68813e-05
-0.000118853
-4.10042e-05
1.89258e-05
-0.000126641
0.000860882
-0.000336607
0.000374412
-0.000403524
-0.000217493
-7.18801e-05
-0.000165706
8.34265e-05
0.000878388
-0.000194778
0.000355685
-0.000960752
0.000657633
0.00063288
-0.00106792
-5.00493e-05
0.000582123
0.000381654
-0.000312046
-0.000636757
0.000579025
0.000524193
-0.000614068
0.000336757
0.00056775
-0.000266095
-0.000509678
2.07751e-05
0.000497364
0.000110442
-6.35823e-08
-0.00063674
0.000758284
-0.000502112
2.18552e-05
-0.000143583
1.28375e-05
0.000370619
0.000550505
-4.22108e-06
-1.10211e-05
-3.33303e-05
-1.91506e-05
1.88041e-05
-5.62955e-06
-2.4904e-05
-4.51777e-05
0.000449701
1.25377e-05
-0.000116698
3.05319e-05
2.14916e-05
0.00010496
-0.00016409
-4.41613e-05
-1.88775e-05
4.34108e-05
2.50285e-05
2.47961e-05
-1.67841e-05
3.83529e-05
-0.000430364
-0.000265136
8.29073e-05
2.68111e-05
1.15035e-05
-0.000537891
0.000113454
-0.000130361
-1.47088e-05
-4.45683e-05
-2.42902e-05
-1.99723e-05
1.03286e-05
0.000106285
1.92679e-05
-0.00091932
0.000143733
-0.000101044
9.91532e-05
-0.000169478
0.00101352
-0.000961338
-2.43167e-05
-1.51449e-05
1.98949e-05
6.44102e-06
0.000228169
0.000365381
-0.00108824
3.08005e-05
-6.7487e-05
6.98009e-05
-1.58528e-05
8.05247e-06
1.00332e-05
0.000928571
0.000134758
2.65517e-05
1.16497e-05
-2.28967e-05
-1.25469e-05
-9.16853e-05
-1.08105e-05
-0.000987436
0.000659349
6.46406e-05
-1.58088e-05
0.000249516
1.21669e-05
1.51407e-05
7.37365e-05
-1.13375e-05
0.00111767
6.97623e-05
-0.00108217
-0.000568315
0.000738087
1.78897e-05
-4.04319e-05
8.20048e-05
-0.000108435
0.000163655
0.000504559
-0.000728919
0.00022436
0.000437338
6.72216e-05
0.000448666
-1.13289e-05
-0.000309957
0.000466975
-0.000680278
-0.000603632
-0.000505019
-9.86134e-05
7.72909e-05
-5.02544e-05
0.000106956
-9.1585e-05
-0.000938421
-0.000121168
-7.27639e-05
-1.6529e-06
-1.18456e-05
2.48575e-05
3.35894e-05
-2.44048e-05
-1.11481e-06
3.10686e-05
1.43218e-05
3.52358e-05
1.34514e-05
-2.80568e-05
3.34998e-05
3.54276e-05
-3.0346e-05
-1.82943e-05
0.000436934
0.000814671
-3.96493e-05
3.08968e-05
1.8922e-05
-0.000145868
0.000180818
-0.000102437
-0.000227601
-0.000998887
0.000146122
-2.83944e-05
0.000215042
-0.000477218
-2.78005e-05
0.000275795
-0.000149568
-0.000615792
0.000129465
-4.75273e-05
-3.22725e-05
-3.72859e-05
-0.000161433
-0.000142436
7.35742e-05
6.03675e-05
9.82822e-05
-0.00115283
0.00104107
-3.25376e-05
0.000199989
-0.000201651
-7.49262e-05
7.65878e-05
-1.76332e-05
5.84371e-05
-2.00534e-06
-6.86896e-05
0.000174458
-3.44299e-05
7.95911e-05
-0.00119155
1.90572e-06
0.000682997
-0.000383392
-5.41674e-05
-5.5851e-06
-0.00024334
-7.45404e-05
-1.89764e-05
5.87379e-05
2.7026e-05
-1.20275e-05
-0.00011621
0.000110731
-0.000133858
3.54605e-05
-2.52592e-05
-6.08629e-10
-0.000613044
-0.000373632
0.000122118
0.000165914
7.5454e-05
-0.000196997
0.000109555
2.53183e-05
2.61343e-05
-5.25674e-05
0.00099723
7.23675e-05
2.26092e-05
7.10671e-05
6.11923e-05
0.000147
-8.07375e-05
-0.000140993
-0.000803171
0.00112323
-1.67923e-05
-3.51185e-05
3.21863e-05
-0.000182512
-8.69978e-06
-7.18633e-08
-3.98942e-06
0.00104003
-4.88329e-05
-8.83481e-06
1.73621e-05
0.000218742
0.000156614
-9.50516e-05
-0.00010124
9.57077e-05
-0.000862008
4.13748e-05
0.000634723
8.25151e-05
-8.8742e-05
6.27329e-05
0.0010884
7.08306e-05
8.41055e-05
8.80598e-05
-0.000378631
4.16782e-05
0.000207901
-6.7306e-06
-3.91439e-05
-0.000241791
0.000206092
3.21569e-05
-0.000254457
1.85583e-05
8.20853e-06
8.17761e-05
0.00015189
-8.15647e-06
-0.000174552
0.000162104
-0.000965341
0.00103191
-0.000249324
0.000182751
-1.30934e-05
1.04575e-05
2.95159e-05
-3.97947e-05
0.0001687
-0.000247607
0.000520266
-0.000470869
-0.000194967
-3.63729e-05
1.7265e-05
1.73352e-05
-4.47125e-05
4.79419e-05
-4.98772e-05
-0.00115921
-2.60864e-06
-4.06708e-05
-0.000123922
-4.36477e-06
0.000176409
-0.00107173
0.000970536
1.79512e-05
-1.81987e-05
0.000993707
-3.98889e-05
0.000559158
-0.00048259
-7.65682e-05
0.000241589
-4.7825e-05
0.000132613
-5.44126e-07
2.19409e-06
-2.96454e-06
-0.000900284
0.000909731
0.0001376
-7.54659e-05
0.000300569
-0.000307733
7.16379e-06
-0.000290045
0.000264428
1.0524e-05
-0.000313572
5.83952e-06
0.000221225
0.000161917
0.000320064
-0.00106681
9.74526e-05
-1.15192e-05
-7.44761e-06
3.37561e-06
0.000252283
-0.000252038
2.40096e-05
-3.16111e-06
-2.08484e-05
3.09294e-05
0.000107802
6.58452e-05
1.31313e-05
-0.000328823
6.82289e-07
-0.000129489
-0.000616595
0.000449323
-5.35587e-05
5.9195e-06
4.83306e-05
4.91219e-05
-0.000275618
-1.16799e-05
8.57272e-06
0.000632221
-2.18365e-05
2.46354e-05
-5.66483e-05
2.09728e-05
-1.3693e-06
6.31023e-06
-0.000115293
8.93561e-05
-3.2466e-05
2.36454e-05
3.64188e-07
1.33682e-05
3.49624e-05
9.01328e-05
9.40146e-05
-5.96837e-05
5.22713e-05
9.47533e-06
-4.13778e-06
3.11864e-05
-7.45684e-06
-0.000110682
0.000457443
-0.000312049
-4.10251e-06
-1.31499e-05
-0.000257443
1.28638e-05
1.07815e-05
3.04441e-05
-0.000126674
0.00105387
-1.28119e-05
-0.00101523
-0.000141364
0.000112999
0.00066875
-0.000111585
0.000472283
-0.000213335
-2.82141e-05
9.32905e-05
9.3241e-06
0.000280368
1.36445e-05
-2.24793e-05
-0.000220133
0.000310266
2.34113e-05
-8.3095e-05
0.00140837
-0.00113819
-0.000129852
-0.000924983
-7.45598e-05
-5.05915e-05
1.712e-05
0.00010684
6.02657e-06
0.000551797
-0.000722961
-0.000107546
9.62124e-05
2.60437e-06
-5.61821e-05
0.000245352
0.000217924
-8.16962e-05
-0.000887634
-3.95825e-05
-3.74905e-05
-0.000368764
0.000394614
-0.0001869
0.00058922
0.000924779
-0.00026541
-7.32649e-05
3.63575e-05
-6.87376e-05
-7.74703e-05
6.04733e-05
0.00068283
5.58377e-06
5.9924e-05
0.000161971
-1.00813e-05
7.11399e-05
0.000160499
-1.42773e-05
-6.48825e-06
-0.000187275
-0.000142988
1.30007e-05
0.000154059
-4.48348e-05
5.79222e-05
-1.89689e-05
0.000215825
3.79139e-05
4.01503e-06
9.14087e-05
0.000139946
2.903e-05
0.000905198
-0.00091621
-2.7061e-05
1.09167e-05