/*--------------------------------*- C++ -*----------------------------------*\
| =========                 |                                                 |
| \\      /  F ield         | OpenFOAM: The Open Source CFD Toolbox           |
|  \\    /   O peration     | Version:  v1912                                 |
|   \\  /    A nd           | Website:  www.openfoam.com                      |
|    \\/     M anipulation  |                                                 |
\*---------------------------------------------------------------------------*/
FoamFile
{
    version     2.0;
    format      ascii;
    class       volScalarField;
    location    "0.82";
    object      epsilon;
}
// * * * * * * * * * * * * * * * * * * * * * * * * * * * * * * * * * * * * * //

dimensions      [0 2 -3 0 0 0 0];


internalField   nonuniform List<scalar> 
1466
(
6.13125
36.8528
8.0023
96.9482
4.91592
21.7919
2.4712
42.6353
9.36178
48.0242
60.7863
44.0541
5.80454
4.38748
26.1753
82.9558
24.974
99.4717
109.689
67.3175
112.353
68.0434
81.803
55.3686
7.33954
8.66476
44.9252
87.2296
5.00641
51.0131
72.0023
10.9662
7.5866
92.4391
124.123
56.05
89.4593
30.9402
82.3712
2.10777
2.56537
62.75
78.0433
2.98088
2.09877
17.9959
79.1963
3.71044
49.5678
4.12625
16.5449
46.8692
28.3651
4.38668
11.2605
6.80524
10.7063
64.9285
6.05998
57.0725
18.4782
2.71413
1.88948
29.5104
80.0805
34.0365
158.467
57.5009
33.47
9.21656
55.3967
146.745
86.4728
6.92068
14.2082
79.0527
2.69635
1.86192
22.6262
71.9035
59.1396
77.3707
8.59749
81.4221
99.245
148.387
84.9972
75.4823
66.2488
43.4666
11.756
47.5427
132.011
2.87589
18.8013
9.15174
34.348
72.0504
8.632
4.81469
22.691
11.081
3.28138
77.7574
89.5482
61.2708
37.0006
4.24351
80.6406
7.31871
14.5268
98.0606
6.31026
68.6194
57.2981
20.6506
51.7614
42.3918
2.33211
1.69499
97.0468
3.02861
1.70906
3.51809
2.36259
63.8394
43.5504
79.1872
51.9659
32.8765
76.111
56.0203
80.6012
54.0613
13.8906
2.85733
2.37175
18.6672
2.25386
1.81761
4.66289
95.6535
71.3822
74.7053
73.8886
167.841
10.9864
17.6746
50.8606
95.685
13.6981
33.1523
38.5377
9.48313
39.4652
65.7859
76.5642
79.881
11.6427
47.6075
10.3627
57.984
130.797
83.333
103.015
87.5466
62.0598
88.771
95.0463
40.4845
106.233
8.56348
3.33421
34.8075
29.8331
7.51202
42.7128
61.4154
12.5417
72.3553
8.75825
27.923
132.934
3.20175
77.6485
150.646
102.548
47.6348
35.3354
36.8327
117.997
23.6937
124.93
175.89
43.7109
17.1916
8.90707
160.452
110.38
190.196
80.4672
41.4829
47.1149
31.7252
42.1878
91.4549
130.19
28.0118
11.5634
62.4197
96.129
88.2892
129.306
97.0564
117.297
80.5717
149.917
101.129
54.3551
57.3408
84.6823
22.12
84.5137
21.156
89.0342
80.628
60.0186
3.96749
12.73
21.169
41.3791
82.4835
190.33
146.892
14.4775
70.7063
67.2255
82.0196
21.0421
114.617
50.3765
70.5535
39.2331
203.924
17.2173
53.0128
10.5298
6.90632
71.932
34.3885
136.635
87.1654
25.1459
54.1671
8.13382
15.9672
76.1843
12.0087
116.115
124.615
91.1044
78.9759
53.6985
21.1545
66.4162
3.54806
39.403
44.2758
101.142
11.6744
159.435
138.506
56.4515
12.278
12.8818
25.4544
16.7339
60.3609
102.842
56.1874
19.2338
63.0595
80.2682
64.4375
68.9048
2.83268
55.5686
51.6813
8.61161
19.9068
22.9839
5.30881
7.38456
14.3352
47.3829
38.0332
224.272
4.18664
57.3362
18.3965
4.06486
34.159
5.56201
8.21185
83.1164
14.2656
4.85929
9.10457
38.6747
123.468
31.1914
108.94
60.3285
34.843
49.9993
43.4629
110.725
32.675
5.92297
28.9475
36.5329
170.469
115.767
16.405
84.7598
16.8333
3.27022
33.8126
13.8578
30.9564
74.3969
18.1067
10.2216
36.8918
95.8153
16.3131
106.23
19.4143
8.09899
2.46042
2.33374
31.1101
20.0308
70.0814
42.2368
6.42252
62.284
42.3467
39.2424
95.736
31.9122
13.2041
64.3638
119.949
83.1869
113.754
89.2178
20.3387
8.06036
41.6629
91.4277
100.055
72.2008
45.8685
8.44439
190.943
27.6252
26.6233
69.1961
40.553
35.545
117.639
107.772
31.8256
13.2993
89.8356
54.335
110.909
2.9044
59.4539
47.4928
39.5325
55.7917
62.4322
48.2832
44.6589
15.8441
13.5276
6.95967
4.24047
18.6242
33.2005
35.0212
31.8664
13.9568
4.64596
3.86997
109.08
12.1508
6.93932
2.33257
2.16643
70.4333
4.17675
48.4078
104.755
85.6765
29.7074
128.479
114.538
25.8854
99.1591
124.138
112.866
74.4463
4.63481
3.89606
51.0195
33.511
9.33466
83.192
85.5718
8.73073
130.621
4.78802
2.09387
57.9914
101.702
3.55024
2.07593
54.9285
7.01633
95.4675
222.712
32.1932
5.50954
6.59409
6.78714
4.49658
49.0375
5.11109
22.6327
54.2535
12.5453
27.8358
5.36453
25.8842
33.6347
4.44711
61.7904
33.8056
3.79687
11.6755
11.0771
22.6592
19.449
8.55859
32.0209
15.5784
29.765
6.62919
16.0059
10.9531
49.0544
54.0559
3.07846
33.1254
13.1765
7.75318
29.9629
10.3827
22.3545
53.3537
2.64915
28.8799
2.56401
3.61681
59.0337
127.259
59.8908
37.0629
98.6873
90.0007
116.09
89.0641
23.0932
2.1869
4.84993
130.597
77.5001
100.454
84.6753
18.1021
36.073
31.1011
45.6596
78.0507
50.4952
42.8272
52.3208
68.1403
88.1537
57.5916
87.296
14.606
73.4612
67.3603
34.2625
2.50948
62.0058
26.3587
76.0151
36.9047
174.137
78.3022
50.1198
16.4122
9.92491
19.7495
31.2756
69.8774
8.11153
140.431
27.668
65.0315
19.4589
11.1047
67.7272
22.5672
106.458
12.6836
202.54
122.005
42.7486
56.4069
13.501
35.1695
76.0494
19.6317
102.34
21.6601
94.7906
25.3633
30.2744
25.8737
31.5892
29.3615
24.3029
126.471
31.2781
91.3166
2.84181
9.17177
53.1659
185.447
69.1159
63.6427
39.4842
59.8829
17.6556
100.53
101.685
23.2612
39.0008
15.1992
21.8123
39.3585
138.123
79.3138
99.1247
88.999
136.789
26.8247
51.4489
20.5724
112.288
12.9691
88.5697
59.6143
75.4017
45.9758
98.3118
75.5566
63.427
50.1855
35.5873
101.416
8.69505
48.3955
25.0803
83.4768
26.7137
57.0365
72.7662
135.218
77.7678
72.9485
57.814
29.7401
70.2973
42.72
14.2289
15.4782
30.5865
209.347
66.3145
27.997
2.25321
39.8298
80.9049
17.2954
125.279
22.8477
37.7903
113.082
32.2594
52.7431
27.847
24.8179
105.868
29.7396
3.72729
24.0025
20.1976
38.8269
70.6577
233.091
64.6268
79.5173
91.5064
74.3228
22.855
25.5416
16.8406
87.8027
11.9539
98.3894
81.1295
48.489
92.4903
133.189
82.9132
59.7429
22.8975
103.21
14.4747
64.9581
108.331
60.5423
28.9967
88.2891
11.0985
33.9156
5.4701
126.357
98.2893
3.97233
179.91
14.3691
6.10697
145.132
92.3626
4.27821
14.3008
104.863
30.4908
110.565
36.8318
57.3044
2.73199
11.4863
17.4144
63.0591
7.29523
55.1906
4.63292
36.3374
5.76538
11.447
19.0456
86.9898
11.8295
9.7598
154.304
18.4287
121.36
26.0916
8.32491
43.2862
11.7128
123.073
18.4787
15.9526
63.2748
19.6918
7.80341
52.5893
82.1016
28.1634
58.2825
113.536
22.9827
9.64467
14.0998
73.0964
61.1673
28.1414
4.46384
7.90695
62.612
19.4065
135.68
3.91816
69.4552
135.288
97.0555
50.6322
75.8534
79.7106
58.5286
67.9826
105.069
158.134
56.4908
205.875
104.971
90.8385
16.294
15.2325
7.25403
71.1588
114.272
70.6729
4.15405
136.506
80.3007
120.518
88.9527
3.28414
118.838
90.4232
56.3248
92.5843
3.53493
2.17203
4.57858
33.0211
18.9872
24.4375
48.4299
88.1962
71.2557
9.6503
5.17852
120.771
116.535
162.985
92.3443
14.0506
107.703
94.2007
5.64577
28.168
45.0322
152.333
46.1254
79.3872
121.588
73.3517
139.956
26.8177
10.0543
1.54883
3.83479
61.1395
115.977
40.6132
16.6053
25.9508
117.994
23.0004
7.19942
90.0969
38.8899
98.2497
4.39135
39.7963
87.3019
74.0163
39.0255
32.8453
103.963
103.228
5.88961
32.6099
16.0857
115.37
60.1722
8.65023
11.8726
3.93184
66.4795
98.6808
11.4085
40.3458
2.93883
11.8911
13.8077
64.7872
92.2248
124.603
59.269
76.7495
48.4424
33.4612
10.6252
88.1138
85.3508
13.0149
97.2367
102.238
84.4927
20.7641
62.0516
2.29637
7.56134
92.8982
12.6723
17.7397
75.0869
72.556
91.2398
14.8395
126.78
14.3403
27.1503
15.4159
14.1877
7.78159
10.7536
18.3134
108.646
99.715
7.34001
87.7427
82.4337
34.4067
93.1127
37.252
66.3733
96.4572
60.8181
104.121
37.936
20.0327
25.1121
69.2225
22.574
66.2488
102.516
139.306
96.3242
10.1261
13.7166
8.5493
41.7318
113.144
270.061
31.4093
51.7567
29.101
8.07225
57.184
11.6584
135.941
12.0693
102.385
95.0777
105.892
89.2954
127.662
119.518
123.336
125.865
166.002
166.067
185.352
170.635
167.816
168.789
167.972
152.477
209.667
131.929
148.312
234.516
248.372
157.377
222.389
168.017
163.37
154.822
86.0896
96.1361
6.13876
7.90068
60.9932
14.8135
12.1408
4.33517
4.32233
25.5068
123.23
74.7786
106.258
21.0377
31.6899
11.9967
48.8973
7.71514
57.6758
25.9268
125.023
35.1629
46.8641
135.585
78.4085
145.023
2.46143
1.93793
8.21568
9.37131
7.65538
37.8391
52.2261
56.0324
90.8126
6.1952
2.17932
5.15623
11.6068
13.4549
24.3831
100.59
2.84481
1.81956
31.1304
97.8083
41.1321
15.4261
51.8704
47.1467
68.5447
83.6034
106.522
70.9678
8.08319
58.7391
103.094
47.3743
135.479
35.1033
142.379
36.0904
76.3646
130.515
2.45328
53.6083
20.5091
64.5103
3.47007
100.664
74.2495
100.152
29.1359
29.9149
29.0469
81.4441
24.6485
12.2647
4.40354
80.7207
131.934
99.1914
20.4649
142.999
110.849
27.9233
135.452
67.3477
10.2122
2.83742
35.2053
57.1785
128.213
212.771
62.9963
68.8516
4.063
14.0104
37.3796
53.4295
85.4251
12.9836
63.7118
3.17477
1.88255
2.61543
37.4952
7.87665
45.3329
81.9691
10.8058
8.72817
139.535
11.0736
83.5493
20.5291
55.8392
121.582
103.441
139.247
86.1572
106.502
94.0229
99.7475
69.4405
86.7386
58.2276
1.67672
4.53569
124.455
33.3631
10.2058
25.3671
67.6727
34.5422
11.0737
66.9716
7.50194
35.8365
40.5758
2.39345
2.04249
39.0946
11.4199
21.4692
12.8682
40.4921
129.922
2.8394
2.27072
9.9567
89.3866
39.8622
3.00533
27.5907
118.646
14.2155
24.8326
15.9233
7.61808
29.9794
41.6341
6.1315
100.479
87.402
3.61404
2.0575
2.35975
59.8727
24.452
11.0299
9.04437
12.2046
9.10678
7.00166
12.3103
12.6352
2.18515
3.27961
8.25289
137.106
12.164
12.5625
12.2953
12.6021
41.6829
45.6591
10.8344
11.1632
12.3533
12.7333
66.0714
98.3776
62.1435
28.7987
20.1833
102.33
119.778
32.9701
113.244
77.2604
27.4132
4.2659
1.97278
5.73219
118.989
62.6309
137.151
36.5934
8.44895
136.137
43.636
49.36
52.5749
121.085
96.9524
126.267
16.694
89.9793
31.7397
109.122
87.192
141.934
6.94973
15.9205
14.4903
64.1187
45.275
63.4803
73.4999
55.8002
5.40615
23.4818
10.6325
39.7013
86.7605
84.91
123.041
105.724
8.38255
3.01179
30.505
52.6871
48.4794
22.9466
15.2
3.99248
42.2062
98.4136
49.0111
57.957
96.0548
8.11893
6.92011
22.3677
65.7321
36.6886
109.586
22.2573
90.3642
129.819
85.0598
89.6068
135.678
36.7612
97.684
97.5348
1.96889
4.49238
16.1389
34.8793
2.77368
2.33855
80.3742
66.7268
78.2721
109.454
116.551
138.987
38.0334
30.14
79.0251
74.0084
107.229
104.775
3.82496
11.8667
49.5965
65.3972
9.34988
98.8645
34.0482
7.19991
53.5226
46.1105
20.3998
17.6878
9.73093
55.381
8.46231
19.2159
40.6772
36.5744
23.3006
242.169
6.74831
14.2543
22.9993
5.00716
7.09917
40.0544
2.44835
1.91415
6.31073
54.016
66.0673
123.611
102.422
91.5403
7.23776
68.3653
6.79673
79.9979
55.0501
3.13301
49.2377
48.7989
84.4833
80.476
66.01
70.2459
99.9209
2.47258
5.91919
108.995
16.694
3.91982
33.2476
5.57388
95.4287
12.6101
123.496
8.98438
130.067
49.8395
3.09266
121.507
33.3926
7.16048
88.8614
78.9722
38.1442
76.6654
40.4815
109.734
48.0658
81.1697
8.11876
38.0626
30.8804
113.446
39.547
122.523
150.523
65.2821
154.557
172.551
160.585
7.23227
30.7095
54.917
10.4787
114.8
5.06318
68.7365
98.9788
12.6884
120.863
53.941
6.29136
36.3778
31.6687
6.15692
38.5526
15.3498
21.9226
7.71401
216.287
113.128
75.0215
87.1274
8.47015
3.05648
112.239
71.6523
69.6044
65.4347
70.7799
74.9608
148.483
58.3947
42.975
114.161
6.56211
59.9891
120.965
94.3168
19.1224
2.39916
6.50831
2.59974
1.81996
8.40517
22.2808
78.9089
8.74809
11.3285
50.2118
9.08768
76.818
104.623
92.864
4.49662
89.6431
36.2866
6.80602
4.18041
5.30224
8.42127
208.643
10.2007
93.4781
21.9509
8.64721
6.36152
3.08309
105.911
6.4541
10.4208
73.8141
10.9632
100.497
88.0552
118.91
60.3925
42.8843
28.052
24.4834
56.3667
14.7708
33.1399
94.3285
2.91048
59.4281
76.9322
30.2717
66.7772
52.5385
117.449
22.3522
48.7425
10.6236
51.3914
112.27
40.2844
7.62513
7.24795
14.107
13.2109
100.227
78.58
39.5972
53.0364
140.615
26.0765
103.731
55.8289
65.6352
58.7371
8.96071
70.1923
99.8476
6.62945
33.572
99.4646
17.9158
136.966
34.0033
75.0253
126.459
72.6046
108.065
103.635
94.9913
98.3691
3.72539
2.19301
9.74435
3.84838
26.9373
9.56006
67.9852
32.4058
76.639
53.4392
111.08
75.1236
119.853
10.0804
114.81
99.3119
6.64539
7.84591
130.058
46.2626
13.59
16.0443
71.4916
35.3
170.492
31.4838
22.4671
9.68194
10.4407
66.9873
76.2137
61.4677
12.7854
188.965
73.6044
48.3291
141.679
7.93948
4.19661
86.2031
71.0575
6.06789
3.58424
41.4622
11.3077
73.1136
140.412
31.2617
13.8338
47.8382
163.862
67.0023
65.9519
35.8945
73.5502
10.5278
7.8154
7.03517
2.73999
15.5352
2.14172
89.4622
5.22983
4.07159
121.923
10.7886
68.1566
29.9328
23.5026
)
;

boundaryField
{
    frontAndBack
    {
        type            empty;
    }
    wallOuter
    {
        lowReCorrection 0;
        type            epsilonWallFunction;
        value           nonuniform List<scalar> 
108
(
99.4717
146.745
86.4728
5.56201
6.42252
18.4287
26.0916
8.32491
11.7128
19.6918
7.80341
28.1634
22.9827
9.64467
7.90695
7.25403
120.518
33.0211
18.9872
16.6053
11.8911
124.603
14.1877
34.4067
95.0777
105.892
89.2954
127.662
119.518
123.336
125.865
166.002
166.067
185.352
170.635
167.816
168.789
167.972
152.477
209.667
131.929
148.312
234.516
248.372
157.377
222.389
168.017
163.37
154.822
86.0896
7.90068
31.6899
145.023
9.37131
97.8083
142.379
36.0904
142.999
63.7118
8.72817
103.441
99.7475
69.4405
40.5758
39.0946
12.8682
39.8622
29.9794
41.6341
87.402
2.35975
2.35975
11.0299
12.2046
12.3103
12.6352
137.106
12.164
12.5625
12.2953
12.6021
41.6829
45.6591
10.8344
11.1632
12.3533
12.7333
66.0714
113.244
77.2604
8.44895
52.5749
87.192
141.934
49.0111
57.957
129.819
85.0598
66.0673
10.4787
112.239
65.4347
11.3285
36.2866
10.2007
7.24795
14.107
140.615
)
;
    }
    inlet
    {
        type            fixedValue;
        value           nonuniform 0();
    }
    outlet
    {
        type            zeroGradient;
    }
    wallInner
    {
        lowReCorrection 0;
        type            epsilonWallFunction;
        value           nonuniform List<scalar> 
126
(
30.9402
82.3712
2.10777
2.56537
62.75
78.0433
2.98088
2.09877
17.9959
79.1963
3.71044
49.5678
4.12625
16.5449
46.8692
28.3651
4.38668
11.2605
6.80524
10.7063
64.9285
6.05998
57.0725
22.6262
9.15174
34.348
72.0504
8.632
4.81469
22.691
11.081
3.28138
77.7574
89.5482
61.2708
37.0006
4.24351
80.6406
7.31871
68.6194
57.2981
3.51809
2.36259
76.111
56.0203
2.85733
2.37175
18.6672
4.66289
130.797
29.8331
8.90707
116.115
124.615
91.1044
3.54806
39.403
159.435
138.506
56.4515
5.30881
14.3352
38.0332
224.272
36.5329
170.469
115.767
20.3387
69.1961
107.772
110.909
109.08
6.93932
101.702
95.4675
222.712
5.50954
6.78714
22.6327
11.6755
19.449
15.5784
174.137
202.54
185.447
233.091
179.91
205.875
41.7318
270.061
139.247
88.0552
56.3667
188.965
48.3291
141.679
7.93948
4.19661
86.2031
6.06789
3.58424
41.4622
11.3077
73.1136
140.412
31.2617
13.8338
47.8382
163.862
67.0023
65.9519
35.8945
73.5502
10.5278
7.8154
7.03517
2.73999
15.5352
2.14172
89.4622
5.22983
4.07159
121.923
10.7886
68.1566
29.9328
)
;
    }
    procBoundary1to0
    {
        type            processor;
        value           nonuniform List<scalar> 
29
(
1.74949
1.74949
2.21073
2.50149
44.2275
39.8732
126.753
26.7023
76.9379
9.07459
20.2253
39.8732
2.21073
1.87075
64.3247
21.111
44.2275
54.4448
2.50149
1.59359
10.5309
6.0413
62.3074
10.8648
10.8648
62.3074
7.35712
78.5967
7.35712
)
;
    }
    procBoundary1to2
    {
        type            processor;
        value           uniform 3.08872;
    }
    procBoundary1to3
    {
        type            processor;
        value           nonuniform List<scalar> 
48
(
87.5617
81.6299
82.8869
82.8869
54.7972
91.677
91.677
13.2835
74.0429
6.10941
4.14998
6.10941
5.47939
2.49607
2.46586
5.47939
5.49398
5.49398
4.89755
4.89755
1.75579
1.9872
4.53342
22.7968
22.7968
2.99862
3.85517
3.85517
6.95063
44.2056
12.0577
6.95063
13.2835
56.5724
2.19393
44.2056
28.0813
4.14998
86.258
47.0452
1.90003
42.6026
56.5724
2.19393
2.64275
68.9205
49.7284
1.90003
)
;
    }
}


// ************************************************************************* //
