/*--------------------------------*- C++ -*----------------------------------*\
| =========                 |                                                 |
| \\      /  F ield         | OpenFOAM: The Open Source CFD Toolbox           |
|  \\    /   O peration     | Version:  v1912                                 |
|   \\  /    A nd           | Website:  www.openfoam.com                      |
|    \\/     M anipulation  |                                                 |
\*---------------------------------------------------------------------------*/
FoamFile
{
    version     2.0;
    format      ascii;
    class       surfaceScalarField;
    location    "0.35";
    object      phi;
}
// * * * * * * * * * * * * * * * * * * * * * * * * * * * * * * * * * * * * * //

dimensions      [0 3 -1 0 0 0 0];
oriented        oriented;


internalField   nonuniform List<scalar> 
2776
(
4.2598e-05
0.000205679
-2.3797e-05
-0.00022448
-3.88576e-05
6.72441e-06
-0.000180733
0.000212866
-4.7104e-05
3.70001e-05
-5.87431e-05
6.8847e-05
-3.21539e-05
1.69757e-05
0.000131459
-0.000116281
-0.000197532
-0.00024154
0.000218125
0.000220948
-0.000178184
-0.000169922
0.000170819
0.000177286
-6.04301e-06
8.49084e-06
-1.67997e-05
1.43518e-05
0.000135583
-7.64264e-05
-0.000238485
-0.000117393
0.000126
0.000229878
-0.00018622
0.000180506
-0.000106589
0.000112303
3.14706e-05
1.95209e-05
-5.09914e-05
0.000139729
-0.00013293
0.000122477
-0.000129277
1.50826e-05
-1.50826e-05
0.000208562
-0.000103861
-9.91032e-05
-5.59774e-06
-4.69879e-05
-0.000198016
0.000162679
8.23254e-05
4.88465e-06
6.74274e-05
6.53469e-08
-7.23774e-05
-6.23706e-05
-5.30873e-06
6.76793e-05
0.000122712
3.97345e-05
4.04739e-06
-0.000166494
1.91248e-05
-4.00054e-05
-0.000115809
0.00013669
4.65159e-05
-6.36564e-05
0.000161208
-0.000144068
-2.44557e-05
3.89718e-05
4.46231e-05
-5.91392e-05
-7.9904e-06
-3.3608e-05
1.65258e-05
2.50726e-05
0.000166705
-0.00013361
-3.30945e-05
1.492e-05
0.000196429
-0.000180817
-3.05319e-05
7.10979e-05
0.000169961
-3.24973e-05
-2.33748e-05
-2.18351e-05
3.46578e-06
4.17441e-05
-2.04501e-05
-2.45047e-05
1.97137e-05
2.52411e-05
-4.66608e-05
3.15283e-05
-4.94044e-05
6.45369e-05
5.74153e-06
2.3746e-05
-1.8735e-06
8.65542e-05
-8.46807e-05
-0.00031565
0.000479914
0.00039842
-0.000211717
0.000273828
0.00018423
-0.000246341
8.0781e-05
-7.25791e-05
-5.59634e-07
0.000143388
-0.000219226
-7.47577e-05
0.000150596
-0.000225697
2.44121e-05
0.000150123
5.11621e-05
0.000116255
-0.000120239
-4.30041e-05
-2.7007e-05
5.67517e-05
-7.48681e-05
4.51234e-05
7.18029e-06
0.000127953
-5.74308e-05
-7.77021e-05
-5.62579e-05
-0.000110732
0.000144288
2.27022e-05
5.62486e-05
-3.71523e-05
-9.01394e-05
0.00013954
9.0329e-05
9.87865e-07
9.72473e-06
-1.02966e-05
-4.15989e-07
6.39872e-05
-7.96168e-05
-0.000222855
-0.000274682
0.000122328
0.000243127
-9.07737e-05
0.000207093
-0.000171047
2.91154e-05
-6.51616e-05
0.000231224
-0.000194737
-0.000195379
0.000158892
7.73073e-06
0.000146104
6.23522e-05
-0.000216187
6.20106e-05
-0.000116567
0.000177269
4.72211e-06
1.34107e-06
-5.07532e-06
5.62846e-05
-5.11731e-06
-7.56229e-05
3.44521e-05
-4.23584e-05
2.6986e-05
-1.90797e-05
3.44906e-05
8.29649e-05
5.98959e-05
-0.000104427
1.54413e-05
-2.88381e-07
-6.97062e-05
5.45533e-05
-0.000151249
4.24547e-05
0.000132495
-2.37006e-05
0.000107216
3.71334e-05
-6.03543e-05
-8.39949e-05
-1.04497e-06
5.658e-06
-5.96782e-06
1.35478e-06
-2.68905e-05
2.30554e-05
1.92763e-05
-1.69258e-07
1.48045e-06
7.57043e-05
-7.70155e-05
0.000141514
3.50946e-05
-0.000173179
0.000101541
3.65434e-05
8.97936e-05
-0.000178704
9.36484e-05
-4.73763e-06
2.85181e-05
-0.000121037
9.22306e-05
4.72672e-05
2.84123e-05
-3.67077e-05
-1.07715e-05
-0.000166989
0.000179593
-1.83272e-06
-6.21461e-05
5.59058e-05
-1.75012e-06
3.95326e-05
-3.23328e-05
-4.07816e-05
3.35817e-05
-0.000162122
0.000176452
-5.24593e-05
3.81295e-05
-5.85399e-06
7.38536e-05
-6.08193e-05
-0.000196566
6.23296e-05
0.000186952
-5.27156e-05
-3.25071e-06
-2.60328e-06
-0.000126581
4.06664e-05
3.40844e-05
-0.000197997
-2.02135e-05
2.16438e-05
0.000114979
-0.000220317
0.000167349
8.1993e-06
3.5588e-05
-3.80457e-05
-3.282e-05
2.76021e-05
-2.16725e-05
-3.28487e-05
5.68808e-05
-7.55418e-05
5.15097e-05
0.000140307
0.000100564
-0.000153629
-8.72412e-05
0.000150564
-7.35219e-06
-0.000152364
9.15268e-06
1.13637e-05
3.92099e-07
-7.03365e-06
8.22293e-05
-7.69328e-05
-1.52057e-05
9.90916e-06
5.86778e-05
3.23665e-05
-1.76495e-05
-7.33948e-05
3.08544e-05
4.06072e-05
1.07678e-05
0.000116669
8.89598e-05
-9.81875e-05
-0.000107442
0.000222351
1.79319e-05
-4.45553e-05
-0.000195727
-0.000170003
0.000182983
-3.35269e-06
-9.62726e-06
0.00015593
-2.8627e-05
5.82831e-05
-0.000185586
-3.13474e-05
6.97523e-05
-3.84048e-05
3.05303e-05
-2.97111e-05
-1.11762e-05
1.0357e-05
-3.83651e-05
-9.9437e-05
0.000139501
-1.69859e-06
2.51365e-05
6.99657e-05
-6.06501e-05
6.18308e-05
-3.68937e-05
-2.83041e-05
-0.000142945
3.7117e-05
0.000134132
4.44623e-06
-8.14525e-06
-6.27266e-06
9.97167e-06
4.90946e-06
0.00014927
-1.89607e-05
-0.000135218
2.4819e-05
-1.49969e-05
0.000146108
2.15628e-06
9.23956e-05
-7.05876e-05
-6.84688e-05
2.10214e-05
-1.64044e-05
-9.95376e-05
9.49206e-05
4.85828e-05
-7.68868e-05
8.08301e-05
-0.000142393
0.000122654
-6.10911e-05
0.000384358
-8.91465e-05
1.21177e-05
-1.26338e-05
4.77833e-05
1.96146e-05
0.000148604
-1.76547e-05
-0.000196169
-1.69957e-07
0.000201248
0.000112693
-0.000145742
0.000120945
-8.78971e-05
2.53345e-06
-1.73591e-07
-1.05785e-05
8.21863e-06
-1.09026e-05
3.50469e-06
-3.97597e-05
4.71576e-05
4.30915e-05
-3.597e-05
2.34022e-05
-3.05237e-05
5.20299e-06
0.00013048
2.59273e-05
-1.08447e-05
0.000157602
7.86612e-05
-8.49555e-05
-0.000151308
0.000176661
5.322e-05
-9.69583e-05
-0.000132923
0.000186855
-0.000140871
0.000130677
-3.0281e-06
-0.000160292
-6.68237e-06
6.67764e-05
2.88327e-05
-0.000123472
2.78632e-05
-8.03025e-05
1.7379e-05
9.13358e-05
-2.66275e-05
-0.00013897
0.000180472
-1.48751e-05
7.47458e-05
-2.15257e-05
0.000134493
-0.000108014
9.01908e-05
8.47469e-05
-2.45902e-05
0.000162194
6.38687e-05
-1.36763e-05
8.15287e-05
-0.000131721
7.37906e-06
-9.13119e-06
7.3983e-07
1.0123e-06
-3.33936e-05
4.90682e-05
1.72292e-05
-3.29038e-05
2.79268e-05
-5.55939e-05
5.81974e-05
7.2973e-05
-3.96287e-05
-5.21575e-05
1.88132e-05
3.03087e-05
-1.80836e-05
-1.91717e-05
6.94656e-06
-2.64546e-06
2.40188e-05
-0.00021937
-5.98264e-06
2.2102e-05
-0.000127824
0.000111705
-0.000208847
0.000131967
0.000105399
-6.47941e-05
-2.54898e-05
4.55777e-05
4.47063e-05
-3.75655e-05
3.02506e-05
-2.55052e-05
1.78085e-05
-2.21796e-05
1.40958e-05
4.11014e-05
-8.56243e-05
6.78473e-05
-2.33244e-05
-0.000276912
0.00024077
-6.67453e-06
4.28166e-05
0.00013689
-1.55824e-05
-0.000123953
0.000118772
6.17341e-05
-2.61514e-05
9.59037e-05
-0.000112445
8.50168e-05
5.39646e-05
-2.65363e-05
-1.17266e-05
-5.52898e-05
1.79709e-05
4.90455e-05
-3.62845e-05
-3.35342e-05
-9.54221e-05
9.66073e-05
-1.18523e-06
-5.38593e-05
-6.05957e-05
0.000114455
8.98138e-05
9.87431e-06
-6.77224e-05
-3.19657e-05
-0.00017832
-2.87083e-05
-1.81944e-06
2.12374e-06
-9.40906e-05
9.57237e-06
-3.60058e-05
1.99037e-05
2.34811e-05
-1.58575e-05
0.000196413
2.42785e-06
-3.08136e-06
-0.000131734
9.16448e-05
4.31707e-05
6.71684e-05
0.000115645
-0.000157994
5.07801e-05
-3.48803e-05
1.66354e-05
-3.25352e-05
0.000160826
-8.42129e-05
-3.80231e-05
7.90859e-05
3.0634e-05
-7.16968e-05
-7.42024e-05
9.20911e-05
8.60384e-06
-2.64925e-05
0.000109181
-2.23952e-05
-6.16167e-05
0.000119044
3.49686e-05
0.000192489
-1.26219e-05
-2.2569e-05
-0.000157298
0.000176212
1.33433e-05
-5.5267e-05
-5.64097e-05
-7.11125e-05
5.69345e-05
-2.61471e-05
-4.11294e-05
-6.53321e-05
8.59613e-05
-2.654e-05
5.91078e-06
0.000120658
-7.17897e-05
-4.88684e-05
-0.000147985
9.3001e-05
-3.624e-06
5.86084e-05
6.04674e-07
-3.58675e-06
-1.7468e-05
3.52117e-05
1.04406e-05
1.30256e-05
-4.78031e-05
6.96465e-05
1.05231e-05
2.00241e-05
-2.08152e-05
-8.34007e-06
-0.000180777
-1.08061e-05
1.32639e-05
2.85205e-06
-5.07315e-05
0.00020569
-0.000132419
-0.000112129
2.76953e-05
-2.80399e-05
-5.60651e-05
1.16044e-05
-1.22285e-05
2.82262e-05
-5.92378e-05
1.32808e-05
-0.000152059
3.06789e-05
-0.000191354
0.000112571
-0.000116022
8.42809e-05
-1.82335e-05
5.37524e-06
4.31669e-05
2.39912e-05
0.000150549
6.91407e-05
0.000100447
-1.69407e-05
9.99351e-05
0.000115118
-0.000113072
1.75681e-05
3.43533e-05
-1.59995e-05
7.18504e-08
-1.84256e-05
0.000113009
3.04215e-05
-2.71756e-05
1.51892e-05
6.43454e-05
1.47353e-05
-7.90807e-05
-0.000125486
0.000104396
2.10893e-05
3.17163e-05
9.19927e-05
-0.000125866
8.82175e-05
0.00015022
-7.20109e-05
7.07155e-05
-1.1834e-05
1.91188e-05
0.000233485
-0.000108011
8.61888e-05
-0.000112368
0.00013419
-0.000114323
0.000119005
-0.000153356
-8.35647e-05
9.11789e-05
7.86438e-06
3.43146e-05
4.14391e-05
-1.67264e-05
-2.0084e-05
6.0958e-05
-2.41476e-05
4.82679e-05
-4.20569e-05
-2.54422e-06
-0.000122736
-2.27056e-05
4.19387e-05
-5.79203e-05
6.91453e-06
-1.44822e-06
-4.12524e-06
4.73645e-05
-0.000174112
-0.000199185
0.00017856
-0.000119813
-5.96642e-05
-7.27578e-05
7.92805e-05
-2.34966e-05
1.69739e-05
-9.85121e-05
0.000111943
5.06774e-08
-1.7065e-06
9.5202e-06
4.95491e-05
-9.40477e-06
-5.68707e-05
9.76356e-05
-7.57564e-05
-1.194e-05
-9.93915e-06
-1.14854e-06
-7.41468e-06
-1.12938e-05
-4.29802e-05
1.79609e-05
3.63131e-05
-5.37662e-05
2.13985e-05
3.23676e-05
0.000135748
-6.55679e-05
-0.000167138
-0.000168317
2.13011e-05
0.000126802
-3.26966e-05
-1.11927e-05
7.16237e-05
-2.77345e-05
-0.000234692
3.52675e-05
0.000242022
-9.57873e-05
0.000147188
9.67676e-05
7.73009e-06
4.16067e-05
-1.9692e-05
-0.000180312
1.92265e-05
1.74607e-05
0.000132733
-5.34258e-05
5.72981e-05
-0.000139556
7.10591e-05
5.66302e-05
-0.000113372
-1.4317e-05
-1.4732e-05
-9.21866e-05
2.05435e-05
8.63752e-05
0.000112522
0.00012741
-0.000176822
-6.31101e-05
-4.00472e-05
6.02611e-05
2.08875e-05
5.23173e-05
-7.99131e-05
8.09001e-05
-5.33043e-05
0.000147761
-0.000163942
5.06068e-05
-3.44259e-05
3.38138e-06
2.06042e-05
-4.27445e-06
-1.97111e-05
4.07359e-05
7.78521e-05
-0.000103107
6.71937e-05
1.8547e-05
1.99926e-05
-3.51582e-05
-8.36887e-05
2.79689e-05
-2.75055e-05
0.000138736
-5.23395e-05
-0.000190142
0.000185272
-1.4074e-05
2.38094e-05
-5.69478e-06
-3.27101e-05
3.25135e-05
1.29903e-05
-1.07187e-05
-3.95007e-05
-0.000119305
0.000104573
-2.61199e-05
1.31122e-05
1.30077e-05
0.000113283
-8.07732e-05
-0.000121527
2.22202e-06
5.69509e-05
0.000150524
0.000109826
6.96197e-05
-0.000106143
-7.33035e-05
3.93838e-06
1.43398e-05
6.52709e-05
-0.000111141
0.000175968
-7.27616e-05
5.80448e-05
-7.72663e-05
0.000129048
-0.000100207
7.70632e-05
2.03522e-05
-1.07111e-05
-7.49732e-05
1.85162e-05
6.24026e-05
-8.03085e-05
-6.10389e-07
6.07745e-05
-3.18616e-06
-0.000123005
6.4709e-05
-0.00013781
0.000149725
4.61305e-05
-1.4786e-05
0.000120614
8.68544e-05
8.39651e-05
0.000156373
0.000105475
-0.000179523
0.00022588
0.000284478
0.000103729
5.10616e-05
-4.54085e-05
6.40529e-05
-3.87284e-05
-0.000117659
-6.35489e-05
0.000111416
6.97924e-05
3.37538e-06
-0.000189273
-5.45661e-06
-1.75504e-05
2.712e-05
5.06915e-05
-7.24955e-05
2.95868e-05
4.68051e-06
-7.86393e-06
2.13845e-06
-9.66029e-05
5.59553e-05
-3.76149e-05
-2.24635e-05
8.64296e-05
2.37999e-05
-8.24446e-06
-3.33249e-06
-1.01328e-05
1.42052e-05
-4.4432e-05
5.18895e-05
-0.000113173
0.000105716
-4.58654e-05
1.26897e-05
3.66636e-05
-3.48786e-06
4.80337e-05
2.6275e-06
6.3345e-05
-0.000114006
2.95169e-05
-6.04443e-05
6.35585e-05
-8.42051e-05
8.10909e-05
-1.49825e-05
0.000173516
9.68739e-05
2.39187e-05
0.000443186
0.000170036
-0.000387343
-8.94142e-05
-6.36826e-05
6.92994e-05
8.37974e-05
7.48149e-05
7.81543e-05
-2.86769e-05
-1.04397e-05
4.44919e-05
-8.12557e-05
-5.85141e-05
9.59805e-05
4.37893e-05
4.59175e-05
-4.88075e-05
3.72433e-05
0.00016597
-0.00018926
-0.000166288
0.000189578
5.25791e-05
-8.42857e-05
6.55476e-05
-7.74259e-06
0.000100929
-3.62771e-05
3.56557e-05
-0.000100307
-5.96271e-05
-2.00636e-07
-6.00086e-06
1.55735e-05
-9.372e-06
-9.2422e-05
5.10414e-05
-0.00013096
1.54012e-05
0.000128839
-4.35272e-05
-5.19732e-05
6.93157e-05
2.61847e-05
4.34925e-05
8.60294e-05
-0.000103676
-2.58457e-05
-8.7952e-06
9.61612e-06
-3.15e-05
2.81675e-05
-7.50819e-05
-9.97108e-05
9.32259e-05
8.291e-05
-4.87258e-05
-7.62916e-05
1.304e-05
8.83882e-05
-4.57625e-05
4.82064e-05
-0.000187225
2.89745e-06
0.000155619
-1.7792e-05
7.11695e-06
-2.41498e-05
-2.83756e-05
1.06765e-05
4.1212e-06
8.89317e-05
-3.0907e-05
1.19239e-05
0.000161326
4.04498e-05
-0.00021361
8.43854e-06
1.33228e-06
-0.000110395
9.85762e-05
8.10141e-05
-8.84556e-05
-1.80638e-05
3.42886e-05
3.32983e-05
-2.44199e-05
0.000170922
-0.000159999
-1.09231e-05
-3.88012e-05
3.1278e-05
7.52316e-06
-0.000131662
0.000112461
1.92013e-05
-1.04987e-05
3.13485e-05
-2.08498e-05
0.000104011
-5.37226e-05
-5.02884e-05
-2.0608e-05
-1.24493e-05
3.30573e-05
4.80532e-05
4.74523e-05
-9.55055e-05
-0.0001086
8.48884e-05
2.37113e-05
0.000170697
-0.000171637
9.40063e-07
7.31041e-06
-1.78091e-05
-0.000194315
0.000115524
7.87908e-05
-5.95965e-05
2.07953e-05
0.000175157
-4.23503e-06
1.14448e-06
-3.88141e-06
2.73693e-06
-5.70269e-05
4.26492e-05
-1.95721e-05
-2.30771e-05
1.52045e-05
-0.000150779
4.21792e-05
0.000190593
-1.98955e-05
-8.66305e-05
5.7205e-05
2.94255e-05
-5.46085e-05
-2.02312e-05
7.48398e-05
-0.000161864
3.02023e-05
3.49906e-06
9.61319e-06
9.60607e-05
-5.47015e-05
-4.13592e-05
-9.73886e-05
4.34127e-05
5.3976e-05
-5.05562e-06
9.64157e-05
9.56875e-06
-6.23918e-05
-4.58012e-05
4.77488e-05
-1.1264e-05
1.51641e-05
7.49586e-05
6.70343e-06
-3.94682e-06
-1.14424e-05
-5.51032e-07
-9.19235e-06
1.08218e-05
-1.07846e-06
1.12579e-05
-2.64354e-05
5.0409e-05
-1.25414e-05
-4.7138e-05
-0.000100527
6.02249e-05
3.83831e-05
4.41333e-05
8.10757e-05
-6.16504e-05
-1.03646e-05
-9.34443e-05
-2.11584e-05
-0.000171835
-2.24797e-05
1.33333e-05
0.000108376
-0.000121709
-5.78531e-05
-2.32601e-05
-1.32976e-05
9.32041e-05
-5.47181e-05
1.87036e-05
2.0105e-05
2.33077e-05
-2.05117e-05
-3.41898e-05
3.52009e-06
8.89601e-05
2.6564e-05
2.52919e-05
2.583e-05
1.93269e-05
-0.000315122
-5.48686e-05
4.98129e-05
4.43149e-06
-0.000196753
-1.27805e-06
-5.03153e-05
-9.27289e-05
6.08428e-05
8.22014e-05
-5.59187e-05
-4.06042e-05
-0.000203112
5.98874e-05
5.53236e-05
2.02708e-05
-4.60775e-05
-5.09241e-05
6.92145e-05
3.80229e-05
-1.85198e-05
-4.70086e-05
8.96038e-06
5.92729e-06
0.000115812
-0.0001307
0.000120779
-0.000117235
5.41636e-06
-1.55243e-05
6.13466e-05
-9.11148e-05
4.52925e-05
2.20025e-05
-0.000163861
-3.84535e-05
-0.000173045
0.000213364
-0.000241527
0.000201209
-2.30614e-05
-8.21583e-05
8.13502e-05
1.61351e-05
-0.000134086
0.000139953
2.90444e-05
-4.11274e-06
-5.73426e-05
5.41305e-05
-4.74206e-06
5.88654e-06
8.02486e-05
-3.75993e-05
2.41016e-05
-8.89916e-06
-2.85001e-05
-7.19775e-05
-0.000103994
1.21105e-05
5.96127e-05
4.24659e-05
0.000107164
5.46863e-05
-8.70354e-05
-8.0356e-05
-5.24466e-05
8.83707e-05
9.4341e-06
-1.23205e-05
-8.84022e-06
-2.7551e-05
4.39906e-07
4.56274e-05
9.97542e-05
3.34771e-05
-8.31495e-05
-5.00818e-05
-0.000102008
-4.22852e-05
9.21648e-05
5.21282e-05
-9.49778e-05
9.59432e-05
-8.91402e-05
0.000204652
-0.000187489
-9.11457e-05
0.000107098
0.000137258
0.000121344
-0.000142566
-0.000116036
9.38373e-06
-1.37109e-05
-9.64443e-05
0.000100771
-3.87883e-05
9.52099e-06
3.87014e-05
-7.70572e-05
-9.07908e-05
9.00803e-05
7.77678e-05
1.93997e-07
-1.69314e-05
0.000137517
-0.000108334
0.000117912
-5.95443e-05
-8.60559e-05
6.85429e-05
-8.36099e-05
8.95371e-05
-2.57906e-05
-3.46644e-05
2.68471e-05
4.45676e-05
2.56006e-05
7.86813e-06
-7.80363e-05
-1.50059e-05
3.37828e-05
-2.31043e-05
3.97846e-05
-3.16861e-05
5.36988e-05
-7.7068e-05
-4.92099e-05
4.46349e-05
7.10967e-06
-2.23459e-05
-1.74117e-05
-2.5996e-06
2.7121e-05
5.72543e-05
0.00013196
-5.35413e-05
-8.01649e-05
5.01724e-05
-5.49377e-05
-3.4023e-05
5.5295e-05
-6.94559e-05
-4.88258e-05
6.29867e-05
7.8565e-05
-3.26475e-05
-0.000136483
-2.71349e-05
0.000218913
-3.07855e-05
9.03132e-05
7.77299e-05
-0.000113936
3.38088e-05
3.99666e-06
-2.05229e-05
-1.72825e-05
5.45101e-05
0.00014493
-9.48351e-05
-0.000104605
3.58885e-05
-4.56299e-05
9.74138e-06
1.78169e-05
8.10639e-05
1.80453e-06
-6.22054e-05
-9.05498e-06
4.16727e-06
4.69013e-05
1.67481e-05
-6.78167e-05
1.47032e-06
8.68485e-05
-0.000108411
5.38068e-05
2.38184e-05
1.66209e-05
0.000110077
-6.2017e-05
-6.46806e-05
-3.19639e-05
3.25972e-05
1.59875e-05
0.000143068
-0.00028187
0.00017906
-4.02575e-05
-6.15876e-05
-7.46162e-05
4.5413e-05
0.000321341
-0.000171615
-6.65881e-06
1.87529e-05
-8.80907e-06
-0.000118355
4.69042e-05
1.70478e-05
-5.97848e-05
-7.58751e-05
-5.76675e-05
6.64079e-05
6.71347e-05
-2.79458e-06
5.33347e-05
3.97731e-05
-3.65111e-05
1.89723e-05
2.15355e-05
1.12872e-06
-1.851e-05
-1.45826e-05
2.30673e-05
3.43731e-05
-3.86875e-05
-1.76791e-05
-3.69418e-05
5.46209e-05
-6.70688e-05
-4.6057e-05
5.15383e-05
2.40196e-05
2.69927e-05
7.43271e-05
-3.85161e-05
1.43615e-05
-4.14656e-05
6.64559e-05
-0.000100865
-4.42028e-05
-8.99577e-05
3.27226e-05
4.97042e-06
2.92407e-05
-1.30182e-05
-1.62225e-05
-1.99777e-05
-1.81145e-05
-9.83912e-05
-5.47212e-05
-0.000111994
5.45536e-05
0.000123714
2.59829e-05
4.28682e-05
-6.88511e-05
-3.60809e-05
7.28593e-06
1.90925e-05
-4.44953e-05
6.64187e-05
0.000393194
-2.72157e-05
-1.9894e-05
6.08887e-06
3.99525e-06
0.000233232
-0.000218103
-8.20532e-05
0.000207883
-0.000182087
0.000117643
-5.31584e-06
-0.000129761
0.000204669
-0.000220304
-0.000129572
7.18094e-05
0.000367091
1.18042e-05
-0.0003749
3.80833e-05
1.29933e-05
-2.94073e-05
-4.10455e-07
3.48023e-05
-3.6724e-05
-6.37555e-05
6.56773e-05
1.33217e-05
-0.000112764
2.2574e-05
9.46648e-06
0.000169374
0.000188251
7.21282e-05
-3.91648e-05
4.32347e-05
3.22345e-05
7.25842e-05
-7.00164e-05
0.000158622
-0.000247762
0.000124677
0.000118021
4.41143e-05
2.9882e-05
1.52652e-05
8.1875e-06
4.58104e-05
-1.65697e-05
1.8049e-07
-2.60731e-05
9.84102e-05
1.98277e-05
1.01977e-05
-7.62055e-05
-1.71416e-05
3.69131e-05
6.22649e-05
2.88594e-05
-5.88899e-05
0.000108838
-8.64981e-05
-0.000126334
-0.000145415
3.46967e-05
-6.03482e-05
4.23996e-05
-0.000129562
-5.11015e-05
9.67814e-05
8.38825e-05
5.52595e-05
-1.13321e-05
9.88848e-05
2.25241e-05
0.000146139
0.000147913
2.08477e-05
0.000112751
-3.73121e-05
-6.90932e-05
2.2488e-05
-7.61839e-05
1.05314e-05
9.71648e-05
7.17501e-05
-3.06017e-05
1.63456e-06
-4.50792e-05
-9.86442e-05
-0.000106204
-3.77822e-05
-0.000102327
0.000129503
0.000166574
-0.000174733
-1.67786e-05
2.58543e-05
-2.56455e-05
5.13655e-05
2.71996e-05
6.3929e-05
-1.25635e-05
-7.25817e-05
-7.74906e-05
1.93723e-05
-1.16276e-05
-1.98604e-05
-3.37969e-05
2.16034e-06
5.58534e-05
4.25118e-06
1.5573e-05
-7.66514e-06
8.04629e-05
1.9765e-05
-9.70742e-05
7.44728e-05
1.94651e-05
-9.67661e-06
-8.26408e-05
-1.40767e-05
2.40983e-05
-9.45833e-05
0.000124964
-9.88494e-05
-1.61887e-06
-4.60896e-05
5.91632e-05
-8.193e-05
-9.96294e-06
-4.13411e-05
6.76574e-05
-9.66981e-05
6.88138e-05
-2.02635e-05
-4.06248e-05
4.15815e-05
8.5256e-05
6.11503e-05
-9.4466e-05
8.78797e-05
-0.000220682
0.000246279
0.000183688
-0.000209285
0.000110535
9.9393e-06
9.98419e-05
-1.1371e-05
-1.56736e-05
-6.46625e-05
4.1305e-06
-3.44964e-05
0.000155669
-0.00016323
-7.87437e-05
7.42356e-05
1.15623e-05
5.49619e-05
-5.55438e-05
-1.09804e-05
2.29518e-05
-4.43162e-05
-2.07134e-05
2.42061e-05
-2.20028e-05
1.58193e-05
0.000120262
-5.26749e-05
-5.16399e-05
5.95672e-05
2.42809e-05
-7.40512e-05
-8.54646e-05
-5.76178e-05
4.99062e-05
-2.61054e-05
3.3817e-05
2.41912e-05
0.000102849
-9.13846e-05
2.38827e-05
9.42603e-06
0.00024635
-0.000259092
-0.00020794
-4.16672e-06
2.44124e-05
-1.35855e-05
-0.000139891
9.18482e-05
5.22686e-05
-2.77139e-05
-8.2475e-05
0.000102227
-2.66478e-05
-0.000166215
0.000239449
-8.46468e-07
-5.58423e-06
0.000168647
-0.000162217
1.74402e-05
5.90675e-05
-3.23744e-05
0.000107847
-5.67211e-05
-0.000146547
4.96685e-05
-7.41686e-05
-4.88651e-05
5.14917e-05
-3.45923e-05
-6.45146e-05
7.54542e-05
8.58418e-05
-7.29467e-05
3.68826e-05
3.60641e-05
2.53022e-05
4.30898e-05
1.17357e-08
7.05053e-05
-6.77844e-05
0.000111117
1.49935e-05
8.29733e-05
-6.10937e-05
-3.68731e-05
2.35887e-05
-4.44646e-05
0.000100156
-5.71202e-05
5.93681e-05
3.64535e-05
-1.31368e-05
-0.000185401
-0.000185802
-0.000203892
-0.000183687
-0.000162408
0.000150716
2.62336e-05
3.26445e-05
-2.58021e-05
-3.3076e-05
0.000186063
-0.000171099
0.0001984
5.62127e-05
2.86574e-05
-6.35853e-05
-2.12848e-05
-3.63114e-05
-2.42843e-05
0.000141552
-4.49442e-05
-0.000224451
5.29129e-06
-3.13739e-05
6.86512e-05
-2.00417e-05
-0.000133221
-2.6006e-05
1.31869e-05
-8.12715e-05
0.000108735
-0.000115876
5.66535e-06
-0.000241564
0.000162222
-0.000202528
4.74068e-05
9.64377e-05
-4.40027e-05
-3.88519e-05
-4.83077e-05
2.24971e-05
-3.24802e-05
4.85925e-06
1.63271e-05
2.22208e-05
1.02893e-05
-0.000176435
0.000117725
-5.89492e-05
4.14913e-05
-3.90443e-05
6.00951e-05
-4.84984e-05
2.81321e-05
-0.000179507
-0.000317171
7.05172e-05
5.76516e-05
0.000189002
-5.0921e-05
0.000175371
-0.000135242
2.37994e-05
0.000136634
-6.0069e-05
7.00615e-05
-2.36584e-05
1.37273e-05
-8.35052e-06
-5.57745e-06
3.13073e-05
-2.82127e-05
2.22076e-05
-0.000167631
-0.000216387
-4.49142e-05
3.9791e-05
-3.73889e-05
-5.82585e-05
1.14422e-05
5.3394e-05
-8.81013e-05
7.81997e-05
-5.75143e-05
3.04721e-05
-1.6485e-05
-8.55059e-05
9.5834e-05
-8.93267e-05
-3.29613e-06
9.26228e-05
4.06477e-05
2.22948e-05
-1.84507e-05
5.07584e-05
3.65104e-05
-5.46244e-05
7.50109e-05
9.89518e-05
-1.37326e-05
7.07369e-06
4.03006e-05
-5.23831e-05
-7.36755e-05
7.24505e-05
-7.77841e-05
-0.000115194
0.000174863
6.29124e-05
-0.000131103
-0.000237036
-2.61437e-06
-6.20133e-06
1.4107e-05
0.000153464
-3.28055e-05
-0.000138021
-4.56988e-05
2.3004e-05
-6.53595e-05
5.54296e-05
6.65508e-05
-8.13518e-06
-6.8508e-05
4.2197e-05
-1.03988e-05
2.33045e-05
-0.000164164
-2.15816e-05
2.43055e-05
-7.6185e-05
-5.27258e-05
3.38147e-05
-2.21624e-05
-6.42566e-05
-0.000101439
-2.59305e-05
8.02333e-06
1.52928e-05
-6.11636e-05
7.65303e-05
6.57241e-05
-0.00014942
-0.000263278
0.000287245
0.000125453
-6.53546e-05
1.44147e-05
1.79006e-05
-2.03593e-05
4.27593e-05
-0.000193415
0.000137914
1.93614e-05
1.85276e-06
4.5033e-05
4.15287e-05
-0.000102956
0.000112078
-0.000122112
-0.000156793
-0.000112966
-0.000111036
-0.000162951
-6.35692e-05
-9.20007e-06
-2.95369e-05
-2.59492e-06
-2.01513e-06
1.29398e-05
5.65027e-05
0.00015391
-8.31999e-05
-5.24441e-05
-0.000200038
-0.000133578
-0.00010194
-9.50014e-05
0.000122946
-0.000101225
7.32803e-05
4.87486e-05
1.85759e-05
-6.04917e-05
-6.83274e-06
-0.0001074
2.26525e-06
5.43181e-05
-6.26007e-05
-2.8144e-05
4.55389e-05
-4.60916e-05
-2.97105e-05
3.02632e-05
-9.94895e-07
-2.0919e-05
6.87305e-06
1.50408e-05
2.97425e-05
-5.41993e-05
-5.03341e-06
-1.84477e-05
7.43967e-05
-4.90354e-05
6.52664e-05
3.53601e-05
-6.4116e-05
-0.000100652
1.31986e-05
-6.47458e-05
6.45453e-05
-3.59687e-06
-6.40688e-05
1.01513e-05
-1.12697e-06
1.588e-06
1.8564e-05
3.55946e-06
2.18705e-06
1.31118e-05
-3.98201e-05
-0.000211661
3.76816e-05
7.06199e-05
6.3505e-05
-8.01745e-05
1.66695e-05
8.18084e-05
0.00016769
4.9063e-06
-6.19796e-05
-4.36252e-05
3.94193e-07
6.62879e-06
9.55529e-05
-3.22386e-05
0.000102252
-7.72885e-05
6.48868e-05
-6.9982e-05
1.09878e-05
-3.73981e-05
-2.99233e-05
2.5907e-05
6.3629e-05
5.79668e-05
-2.24033e-05
8.28682e-05
6.95636e-05
4.31989e-05
1.96204e-05
-1.70531e-06
-1.68721e-05
2.18083e-05
2.13891e-05
-0.000221956
-2.85929e-05
-1.22962e-05
0.000285643
8.33477e-05
-6.54548e-05
5.35344e-05
3.20735e-05
2.51315e-05
-0.000221825
9.56123e-06
0.000231383
-5.71183e-05
3.56987e-05
-4.30014e-05
0.00013834
-9.03821e-06
0.000138867
-5.6757e-05
6.05002e-06
-8.3609e-06
2.20246e-05
-5.44112e-05
7.10909e-05
7.1159e-05
-8.78387e-05
5.85945e-05
3.21423e-05
-6.18176e-06
-1.79858e-05
-0.000255535
8.42685e-05
9.41924e-06
-5.03329e-05
-2.8157e-05
-0.000165108
-1.91397e-06
0.000130737
-8.98206e-05
-0.000111539
2.52597e-06
-3.28084e-06
7.54869e-07
1.53107e-06
-8.13318e-05
0.000163509
-0.000157235
7.50575e-05
-3.45443e-06
1.29142e-07
1.40193e-06
3.5057e-06
-6.05326e-05
-0.000223933
-1.83716e-05
-3.82124e-07
-3.07231e-06
2.50801e-06
-2.37887e-06
-6.93956e-05
4.81015e-05
2.12941e-05
-0.000168073
8.79191e-05
8.0154e-05
-8.5594e-05
1.68863e-05
0.000107091
3.79673e-06
1.41039e-05
3.286e-05
-3.19347e-05
-3.20499e-05
3.11246e-05
-1.24864e-05
-3.39708e-05
-8.63509e-05
4.74997e-05
-3.64337e-05
-5.99311e-05
-2.29307e-05
3.71205e-05
-1.41897e-05
3.56825e-05
4.24677e-05
-9.67679e-05
-2.03986e-06
0.000111995
-1.03946e-05
-0.000129368
1.13787e-05
-9.75742e-05
2.28851e-05
-3.71716e-05
6.00228e-05
-3.42619e-05
6.33585e-05
-2.59268e-05
-3.87818e-05
-7.78689e-06
1.23916e-05
-5.04516e-06
-7.34641e-06
-5.44766e-05
-6.43269e-05
8.5998e-05
-5.20997e-06
7.81702e-05
-7.07187e-05
-5.01684e-05
8.42981e-05
-7.32871e-05
-8.99437e-05
4.28359e-05
-5.17568e-05
-1.05392e-05
-9.55032e-05
-9.74211e-06
9.2528e-05
1.27173e-05
0.000142156
-0.000123185
8.46714e-05
-0.000103642
-4.30899e-05
1.9212e-05
-0.000101465
6.14597e-05
8.78219e-06
6.84695e-05
4.15828e-05
7.00339e-05
-6.28681e-05
-3.48017e-05
-6.24837e-05
1.92647e-05
-3.82917e-05
0.000144783
9.565e-05
-0.000122411
0.000162599
2.58036e-05
1.69558e-05
1.30849e-05
1.02019e-05
-7.78374e-06
-8.05402e-05
8.18872e-05
-3.4423e-05
-5.1224e-05
0.000138853
-2.48831e-05
-0.00011397
0.00011921
-8.22163e-05
8.54513e-06
3.47472e-05
-4.23804e-05
-4.434e-05
-1.02543e-06
7.25398e-05
1.4515e-05
3.55231e-05
7.01065e-05
0.000134539
4.4249e-05
-2.99214e-05
-1.35257e-05
3.47797e-05
2.23829e-05
6.52048e-05
-7.43237e-05
3.90247e-05
-8.20174e-05
-2.68147e-05
-7.26789e-05
-1.4043e-05
-9.1519e-06
2.03688e-06
6.65333e-05
1.80974e-05
4.54076e-05
-6.15471e-05
-3.27676e-05
-0.000137033
-3.2581e-05
0.000112271
7.60359e-05
-4.87731e-05
-1.50016e-06
-2.52105e-05
-2.17938e-05
-7.82933e-05
1.4076e-05
1.79975e-05
9.5209e-05
-8.14583e-05
-6.18157e-05
8.17269e-05
-0.000157372
-2.07149e-06
0.000130287
-0.00016398
3.66446e-07
-8.99166e-05
9.6629e-05
-0.000112252
0.000185104
-0.000188395
-5.70731e-05
2.83644e-05
-0.000108918
-4.90462e-05
8.06981e-05
8.28614e-05
-1.22895e-05
-0.000118833
0.000117986
-0.000117985
-8.47457e-07
-2.40774e-06
-3.65719e-06
0.000225904
-0.000219839
9.05488e-05
4.23126e-07
3.03938e-05
-4.12118e-05
-5.89712e-05
6.97892e-05
4.25627e-05
7.87899e-05
-9.12631e-05
-3.00895e-05
1.7139e-05
-5.75342e-05
-3.99751e-05
-6.31896e-05
-1.79341e-05
-8.31426e-05
-3.75253e-06
0.000117097
-4.22778e-05
-2.41515e-06
-0.000121972
1.22151e-06
0.00011925
-8.39569e-06
0.000106701
-2.64525e-05
-4.34293e-05
3.86872e-05
9.91547e-05
-7.48328e-05
6.07184e-06
-0.000203299
4.26393e-05
3.34139e-05
-3.08014e-06
-2.9762e-05
1.02449e-05
-9.30262e-05
6.30121e-05
-8.50204e-06
8.11697e-06
3.78639e-05
-0.000147867
0.000115312
-6.24462e-05
-4.41878e-05
9.87688e-05
3.16181e-05
-1.92078e-05
1.66045e-05
9.95037e-06
-0.000101209
-4.47687e-05
-8.95392e-06
-5.97034e-05
-1.25038e-05
-5.98931e-07
8.14355e-06
-2.11788e-05
-1.67268e-05
-0.000142418
-2.91844e-05
-1.63661e-05
9.03222e-05
8.63362e-05
1.86783e-05
-0.000117201
-4.35931e-05
-0.000163487
5.94089e-06
-6.43351e-06
5.24441e-06
-0.000101077
8.71973e-05
-6.81769e-05
4.75358e-05
-6.04976e-05
-7.01809e-05
-2.54094e-05
8.0733e-05
7.61477e-05
0.000217327
-0.000314224
7.80398e-05
3.11578e-05
-8.64533e-05
6.25689e-05
-0.000106749
9.33313e-05
1.0017e-05
1.15849e-05
-6.40746e-05
-5.70724e-05
8.00462e-05
5.4794e-05
0.000113025
-1.20365e-05
7.28503e-05
3.20721e-05
-3.2516e-05
3.17038e-05
8.9585e-05
0.000177703
-1.87603e-05
4.6736e-05
4.53285e-05
3.62364e-05
6.39445e-05
5.43675e-05
-2.70124e-05
-9.12996e-05
-3.67356e-06
3.69588e-06
-4.19142e-05
-6.12719e-05
-1.08419e-05
3.33666e-05
-2.88956e-05
1.01528e-06
-1.83964e-06
3.80676e-05
1.06034e-05
-1.56584e-05
2.72758e-05
1.88784e-05
3.34692e-05
2.40949e-05
1.91151e-05
-4.25397e-05
5.49529e-05
-0.000216256
-1.5328e-05
3.64672e-06
1.17658e-05
8.57253e-05
-0.000130359
0.000100391
-7.11089e-05
-4.72461e-05
-1.51246e-05
-5.13537e-05
0.000163906
-0.000160338
8.34798e-05
2.92142e-05
2.32662e-05
-0.000106074
-2.87405e-05
-2.68323e-05
6.35376e-05
-2.34759e-05
-0.000138804
7.42533e-05
6.45503e-05
0.000108495
-7.16812e-07
-3.84398e-06
4.56079e-06
-8.46455e-05
-5.19319e-05
4.64379e-05
-2.26537e-05
-3.62638e-05
-5.22236e-05
-0.000117282
6.36629e-05
-1.91428e-05
0.000102455
-5.06743e-05
7.01331e-05
4.52779e-05
-6.45404e-05
1.23419e-05
-1.0561e-05
-2.27251e-05
3.05305e-05
1.01541e-05
-5.08126e-05
-5.83763e-05
-6.5941e-05
2.59789e-06
-1.72604e-05
0.000311026
-3.11426e-05
6.49571e-05
-7.3114e-05
2.6619e-05
-4.51714e-05
3.90959e-05
-8.63078e-06
8.09448e-06
5.36301e-07
-1.09637e-05
2.33289e-06
1.54689e-05
-2.00825e-05
4.61358e-06
4.50521e-06
-0.00013123
0.00015414
-2.29101e-05
-0.000103345
-2.78843e-05
0.000160864
0.000153449
7.41551e-06
9.57492e-06
0.000155416
-1.96688e-06
0.000169622
-1.42067e-05
1.08304e-05
-1.25546e-06
1.08957e-05
8.8806e-06
-1.60072e-05
-0.000206931
4.83042e-06
4.05018e-06
4.11361e-06
3.41928e-05
0.000151084
-4.57374e-05
0.000144555
-0.000172086
3.81869e-05
2.20228e-05
-6.02097e-05
0.000184542
-0.000219627
-0.000145514
5.00193e-05
-0.00010661
3.61601e-05
-3.07583e-05
-1.81572e-05
3.0526e-05
5.86903e-05
-1.24118e-05
-4.91863e-05
-4.05668e-06
-3.65198e-05
1.19047e-05
-1.34297e-05
0.000165365
-0.000180773
1.54078e-05
-8.19897e-05
-8.83009e-05
6.28346e-06
5.62906e-05
-6.94261e-05
0.000129064
3.39746e-05
-9.37388e-05
0.00015107
1.42953e-05
0.000101904
6.92881e-06
-0.000122765
-3.84387e-05
0.000195123
-1.05809e-05
-9.45597e-05
-1.44436e-05
6.40892e-05
-0.000182689
3.35539e-05
3.34532e-05
-2.15591e-05
1.78312e-05
-1.45873e-05
-5.35536e-05
8.76802e-05
-0.000111541
0.000127335
-7.0512e-05
0.000150756
-0.000160607
0.000103056
1.49228e-05
-0.000101262
2.47457e-05
-0.00017158
0.000183952
0.000111056
-1.06102e-06
-0.00019356
1.2787e-05
0.000201336
-6.2127e-06
-7.99227e-05
-4.33809e-05
9.0665e-05
-7.36892e-05
0.000156577
2.9638e-06
8.21296e-05
-0.000198928
5.36816e-06
-4.03066e-05
-2.34256e-07
-7.85634e-06
0.000126595
8.82041e-05
-0.00018758
-0.000335004
-0.000113132
-2.54389e-05
-0.000134268
1.03147e-05
-0.000109626
9.08658e-05
-4.12598e-05
0.000131925
2.56279e-05
-3.25069e-05
1.71239e-05
2.65234e-05