/*--------------------------------*- C++ -*----------------------------------*\
| =========                 |                                                 |
| \\      /  F ield         | OpenFOAM: The Open Source CFD Toolbox           |
|  \\    /   O peration     | Version:  v1912                                 |
|   \\  /    A nd           | Website:  www.openfoam.com                      |
|    \\/     M anipulation  |                                                 |
\*---------------------------------------------------------------------------*/
FoamFile
{
    version     2.0;
    format      ascii;
    class       volScalarField;
    location    "0.99";
    object      epsilon;
}
// * * * * * * * * * * * * * * * * * * * * * * * * * * * * * * * * * * * * * //

dimensions      [0 2 -3 0 0 0 0];


internalField   nonuniform List<scalar> 
5794
(
0.665091
0.178279
4.85639
110
42.2044
1.30884
8.80923
4.23363
94.1476
0.145083
36.5774
6.04137
9.15108
39.4635
0.231155
1.01417
384.202
53.1878
0.24072
0.20909
62.1887
1.44136
25.3025
1.93508
17.0386
115.706
285.784
39.5978
93.8665
0.535603
5.58432
11.8596
21.2075
0.385518
2.11886
4.18209
4.42747
27.9448
39.1604
92.9349
26.9301
7.43851
9.36738
14.2736
0.231175
46.9482
25.8241
9.97925
0.120285
2.23816
4.00764
59.7282
0.853832
0.181353
0.0957305
42.8266
22.4892
15.9091
5.88898
240.986
59.6906
0.157554
4.90346
14.99
25.4663
0.20242
56.8516
28.3021
56.5614
0.123088
80.4912
63.0519
331.352
2.33366
57.1108
22.023
1.26754
76.4107
12.4884
2.88323
1.12835
0.158285
16.0323
23.521
15.4172
67.7417
33.6111
99.7334
3.01476
29.8863
109.864
23.933
64.9303
109.998
35.4014
64.9643
81.9348
53.2818
21.647
66.4285
51.0459
7.34118
7.40169
44.6867
4.82588
90.9664
0.13604
9.0136
43.4863
11.0174
0.364245
0.217663
55.3107
0.422147
28.3589
84.8004
0.280142
80.4726
53.7671
22.0769
84.2474
0.355373
6.29576
32.4702
0.188895
51.1204
62.7044
1.46897
69.3784
10.9347
6.57218
9.01392
28.9599
63.2147
95.7404
0.228666
124.39
0.163962
2.91041
0.316013
1.47431
28.3469
0.217705
33.8346
2.7373
318.317
54.6108
51.2612
31.4802
19.5204
12.2333
0.116171
93.0957
6.74161
314.733
44.7422
29.0852
19.2501
81.2732
19.3526
0.247873
2.17708
0.396213
4.86866
59.6977
72.4932
6.72478
2.69986
0.37281
0.298923
0.426178
30.6399
3.60502
1.80106
0.513758
18.1626
0.257071
10.6141
0.982888
79.729
2.82889
20.9687
2.99515
48.0072
4.20039
327.967
9.81099
16.1972
0.135198
6.52564
46.5828
14.7152
27.5735
3.45331
13.8333
9.14408
6.69124
0.38168
0.295981
6.82096
13.0558
64.3973
5.74407
5.69189
31.3091
55.8893
3.43479
19.0389
168.759
45.6189
9.4646
10.2596
5.34483
2.37682
0.729383
6.12899
8.07455
36.7021
29.2447
76.7882
9.82372
29.9393
156.5
55.8272
149.318
170.604
8.13066
0.160657
0.152652
0.240715
2.22745
1.3308
0.289834
32.7351
27.1668
204.163
229.765
34.5493
10.5524
1.8671
0.144364
56.1047
36.6807
39.4443
7.74819
0.571833
0.243932
30.1929
147.053
82.8377
36.5751
0.214575
323.744
0.185938
4.95909
126.733
6.98795
18.8153
14.9335
0.189516
81.2138
5.26115
2.44652
0.301355
22.8513
12.6268
27.4867
71.3661
0.200265
58.0732
31.8257
9.6971
17.5804
74.5568
16.3672
0.246124
0.17524
1.50942
0.103007
9.63626
1.1274
81.2772
26.5251
7.92303
68.6946
97.2814
39.7265
48.439
144.375
85.7519
2.72171
1.4413
0.395681
0.133793
4.82891
122.767
29.0964
8.86274
56.1107
0.380684
0.202756
54.3605
1.35501
42.5698
5.21445
74.793
0.106971
49.7251
65.2373
36.0013
14.8855
43.1619
48.2692
0.441712
9.83033
35.1586
12.1234
47.4395
45.844
125.48
2.91034
5.98565
81.2214
41.686
1.05457
16.6976
2.08392
7.08767
10.8876
34.0599
72.2108
8.64157
6.31151
22.1487
13.048
0.168335
0.20682
0.408046
0.123754
10.9028
1.82164
16.1833
77.6967
26.2173
0.315014
2.59297
75.298
28.3726
82.2442
42.425
56.0454
395.938
35.8875
17.6095
3.46574
272.285
0.489348
78.4409
10.1596
4.69756
14.9655
15.8366
98.8709
8.53743
4.12828
4.61609
64.4515
55.85
30.0128
14.5035
0.172093
0.279311
4.50911
2.24419
20.9967
49.5657
41.1501
23.0509
27.0174
0.11214
1.10835
0.177807
12.5152
4.28498
2.00511
0.35001
91.7441
6.06363
2.45332
7.99561
3.16774
60.9991
0.133117
1.12563
2.18087
1.19737
0.381816
3.44794
0.216662
19.3816
1.30664
10.8517
175.541
0.686909
0.434418
44.527
14.3301
1.56414
0.205042
79.3335
49.9739
20.0848
32.1174
28.1954
74.7311
42.5585
6.66565
66.377
54.0377
80.7599
21.7854
51.9599
14.1731
0.172697
4.94966
2.23296
0.536311
0.3985
0.119887
1.42836
60.2193
5.76662
30.4476
81.3638
0.261092
0.344248
10.9594
18.2445
4.32479
1.94744
0.367472
8.11994
5.33253
3.66306
1.57874
93.1683
30.8635
2.11325
0.65586
54.9661
0.25758
0.201872
89.575
1.23402
68.9869
0.278961
74.7773
68.9941
40.9116
163.275
1.20795
0.37074
16.4304
0.666353
74.414
10.9107
166.532
66.9849
17.3397
9.05098
0.39986
210.164
49.8567
0.138261
0.151323
95.1472
201.403
47.8917
4.24646
0.356182
39.2341
1.14103
0.182329
0.140676
14.077
32.8408
10.1518
2.16059
265.233
1.03978
0.158308
94.8207
87.5196
41.0303
13.219
0.325524
0.342395
0.178607
1.6898
39.5905
88.6015
205.638
8.71505
8.90814
35.9128
0.343175
1.28144
31.8838
38.7081
0.267359
63.1657
0.112121
1.69191
0.253682
0.479733
24.528
74.0613
0.247321
5.54515
180.141
2.03699
0.232553
54.6784
78.2314
11.4659
0.428367
6.59714
46.4604
0.338134
1.37064
22.7048
0.550874
165.585
0.193977
1.48731
0.88308
6.61381
161.721
10.258
66.536
1.45583
98.0379
0.123798
46.5675
3.01068
0.95224
5.49515
33.2617
0.393338
1.55248
44.0349
0.110489
0.316235
5.53341
0.930211
0.324243
20.0941
1.43616
0.343432
24.3975
506.129
0.543987
58.5417
0.102469
43.3951
2.41723
0.831546
23.082
1.65998
0.341689
84.3052
26.6179
127.827
94.3697
142.016
8.92624
71.2493
63.7892
9.1278
28.6478
80.4836
26.2667
103.278
201.503
79.6138
55.8944
0.366994
59.8282
21.2522
88.9838
0.299857
0.885173
0.168925
92.0393
29.1283
39.6794
0.139561
9.33597
0.295477
0.488103
0.180048
96.9771
29.0625
102.684
0.303694
8.32346
159.341
0.17952
0.112012
11.565
81.2561
121.633
37.3701
4.03016
2.20093
3.23899
35.8908
29.7712
7.56251
72.437
0.153816
42.979
61.0969
12.9374
0.13103
0.522408
2.24199
31.5434
73.4156
0.364659
1.46503
0.112825
0.134085
2.20386
0.205371
0.170109
83.4105
26.4241
0.251144
41.2305
3.45812
8.96656
27.7215
23.1199
127.327
128.711
41.369
48.4533
0.300438
0.154233
1.44315
5.93854
0.211528
2.94068
2.43724
77.3394
209.267
36.008
186.523
4.00537
0.167397
0.211206
1.13928
63.0052
0.285697
45.3551
146.18
100.695
41.1029
47.6673
36.4488
4.12383
192.24
38.9363
23.4739
32.0444
114.229
2.89142
37.9875
3.17755
0.483919
24.4884
0.180255
1.25635
23.6499
139.209
114.202
0.173343
0.097041
0.243344
40.4033
172.164
73.2607
40.8497
0.141839
42.6356
17.5494
0.229668
1.19122
9.83314
0.164014
10.3689
0.536941
19.346
24.4368
159.544
75.2505
0.153582
0.313668
111.419
21.8714
185.02
44.0799
71.8611
40.6025
16.2258
8.76445
269.348
47.4801
26.6564
42.5709
107.959
160.707
0.355386
106.824
5.36411
15.1336
28.2609
92.1736
38.5701
41.051
44.5314
127.898
28.4794
0.138132
1.97156
330.008
11.3121
22.8829
60.1729
96.2347
0.476277
1.18906
0.364577
3.86629
85.8872
38.4593
128.417
2.59654
8.99212
0.66174
4.7258
0.198479
0.26652
27.2855
93.8618
5.09249
114.878
36.6471
8.67369
2.11065
204.007
77.8912
41.7129
145.2
99.1214
39.5045
54.3008
11.1522
55.2313
20.5289
84.9265
22.9274
0.227072
2.31069
0.221395
0.325168
5.50748
37.0794
1.42074
22.3928
233.386
13.4213
1.4703
0.370592
81.6891
30.626
21.5239
86.0706
28.0909
2.33354
80.6306
58.1085
39.6891
3.1119
35.0535
0.152202
135.431
1.23465
86.3875
9.61448
13.0829
0.571199
0.840219
0.558396
0.112834
21.4269
42.2876
82.5831
186.441
43.3514
1.47939
7.07706
34.3988
136.797
0.402608
10.4849
14.2193
71.0898
0.288865
1.46518
19.4174
50.3278
168.119
0.379333
17.4488
0.0944541
0.138671
0.147955
22.0523
64.8918
82.1817
9.33462
0.180319
70.7401
0.1447
5.34832
324.103
1.37911
0.168879
3.1822
0.146172
20.5417
2.7575
25.5131
0.424973
1.623
6.0922
10.7446
175.201
31.281
110.76
40.6272
52.2212
70.2862
39.5582
173.916
34.5489
0.51126
0.166814
5.10374
24.0279
6.93604
0.368054
198.192
49.2515
97.4472
16.7547
0.191063
55.6065
3.1872
14.145
53.7672
1.39415
241.676
0.0915796
0.182232
59.5943
17.1112
6.36074
6.7202
54.7845
10.5974
6.98895
0.178163
0.178495
49.96
70.945
10.2489
10.0914
34.774
1.25761
37.6433
132.345
76.6409
83.1248
33.1914
1.08888
0.138553
16.767
0.394644
0.198351
0.184238
2.09947
25.5571
0.136306
7.36593
0.32951
106.504
49.2269
12.967
8.08779
7.95509
15.7111
193.143
24.6036
73.6359
6.30086
0.249434
183.306
12.0485
43.3404
7.34186
113.691
53.8286
59.4594
2.54173
121.616
90.6781
4.11045
1.97628
0.846107
1.82543
0.4238
73.0124
41.4118
80.6141
79.1252
21.7602
51.5472
21.6564
12.6324
0.234809
1.55174
15.9908
0.404255
152.85
21.3054
165.282
6.95542
74.4244
65.25
0.188506
1.09874
149.877
188.168
10.0447
13.5447
23.0273
64.4591
0.14444
41.4968
0.18246
3.36239
2.1032
0.160893
0.155883
0.135642
1.09493
0.326909
0.160252
0.228179
7.96883
58.2862
5.35925
0.111546
0.369037
77.8896
9.71948
27.3445
3.52055
32.5992
0.182799
39.086
4.76311
1.12805
0.388535
11.6649
43.4214
0.26157
9.99778
0.15921
1.11753
9.2321
64.7559
21.5206
105.171
145.831
0.367325
11.0622
29.0543
34.5374
27.2787
30.7568
42.8541
100.111
0.659379
5.90992
0.2874
0.585211
18.9823
11.8723
176.689
155.478
109.118
0.0864548
22.2637
136.164
61.8106
56.504
51.8337
0.12368
1.20783
0.328437
40.3504
11.0354
34.5757
4.55766
3.1076
4.409
4.82248
10.0925
6.75661
0.151702
1.6601
25.701
29.4524
11.9752
0.120734
8.20448
52.2815
0.406373
0.150317
0.176066
0.721817
13.2205
0.432194
25.8813
0.153969
10.3678
17.0945
0.211814
52.5631
10.4105
0.280171
5.7214
76.0404
0.304952
65.819
2.91236
1.65773
0.279135
3.52075
0.128766
0.233936
10.3696
0.229503
0.140773
0.400693
1.77769
3.71738
58.3219
27.7488
9.0023
99.7359
30.9058
0.192072
0.184426
87.1628
6.54121
23.605
85.4735
0.224381
19.3548
0.546839
70.9602
0.0955461
55.2832
0.0950022
93.0291
44.9054
0.340971
36.1819
0.643449
4.24477
0.815118
2.06479
30.6929
33.8707
0.507203
38.0801
0.156968
0.415388
6.77946
0.352679
1.50229
45.0487
1.4126
19.121
0.273533
101.171
0.126421
1.59394
0.240573
4.50153
51.5208
18.2996
0.99143
28.7047
7.5248
16.0998
112.904
38.3939
0.168411
5.77562
53.3114
14.6712
23.1519
6.9124
53.2561
77.3378
64.9064
23.6391
60.477
8.80951
8.70889
0.129716
1.45561
2.92166
0.382071
773.702
40.3567
0.326172
0.905736
54.8217
50.9785
8.64542
0.525145
6.43021
26.2527
1.50846
0.272327
48.6977
1.92505
29.7844
8.49359
91.6625
0.140451
0.897328
0.615813
4.76407
5.06814
31.6752
0.256814
46.6397
1.19093
98.09
7.16353
6.1876
4.35844
23.3792
9.25238
17.7954
11.4954
4.51737
0.487897
1.32929
29.65
10.5573
5.54336
0.128507
1.21555
20.2622
39.3591
23.6384
3.52975
9.02302
7.48052
1.46364
7.55239
7.37174
9.2499
13.1983
11.115
27.8253
0.263974
60.3378
0.178506
308.382
0.311098
0.12281
0.288153
1.3697
0.241456
45.9876
0.151238
6.51303
0.978396
4.3794
38.0245
223.34
88.1399
0.101748
0.203367
2.8828
4.37668
56.6354
18.5332
2.2085
8.61876
0.249966
58.5503
3.66474
18.661
33.1723
5.96058
8.37942
34.7906
0.60183
0.468607
29.7761
82.0597
32.2489
13.1941
8.64313
10.3234
0.181758
59.1875
193.093
39.8146
103.305
0.212549
0.56283
38.4149
9.98869
2.64985
0.188966
13.0876
42.1223
1.53557
0.521663
2.34281
1.06321
0.30655
2.69646
2.54834
30.5733
0.493307
9.8198
32.3322
118.626
76.0309
0.786559
31.8878
4.4276
76.2434
1.63972
49.9403
108.869
28.9069
58.2216
0.407737
34.4906
34.4668
179.065
1.64246
0.154952
0.173317
73.8691
1.53571
0.206052
41.0856
14.307
0.87793
24.4686
10.2244
0.86758
33.7893
1.2587
0.154625
7.39644
1.38651
0.181094
0.225058
80.993
9.35963
49.8357
43.7012
41.7164
0.145997
103.425
1.42014
33.0229
12.0993
5.30992
3.49062
0.236633
30.3249
0.289873
0.249626
0.13482
51.8007
0.127971
8.95632
20.0577
184.038
0.494274
144.389
158.982
1.25987
8.84831
0.279005
19.8244
5.399
61.1839
77.05
1.54687
0.88582
17.6864
28.2137
36.6743
168.5
76.8752
113.574
73.3954
18.7025
1.26189
0.14772
16.4598
0.215614
81.6526
0.145941
0.768359
0.136103
17.0133
3.27706
1.65419
0.295389
2.02993
3.26798
0.939946
0.143699
0.237257
7.60604
1.66828
34.1265
13.8364
0.477329
143.684
30.9903
57.9304
18.3695
0.172334
45.6247
0.217748
0.470476
0.240093
0.522639
616.208
11.3855
44.4648
20.1122
74.5347
106.256
18.3741
0.180696
0.599258
0.660175
0.243149
1.69769
1.44578
2.79662
0.772188
2.41552
2.88708
1.71797
1.02729
0.802532
0.32407
0.317962
1.92289
1.84631
2.48316
1.04596
0.615734
1.51314
0.281099
0.425425
0.478651
5.29435
0.902377
0.569193
0.380972
2.04596
0.299834
0.766327
0.896432
0.225397
1.1594
0.528142
0.268168
1.36509
0.552658
0.617907
3.20855
0.335333
0.148425
0.72053
0.759983
7.63668
10.5822
219.315
0.164115
2.60469
35.9754
92.4257
33.1789
0.150286
0.392772
16.0902
0.131431
19.0028
71.0099
376.571
58.5952
102.575
26.5062
0.128836
0.118887
0.96144
0.136307
1.32782
21.2719
1.78297
3.89672
0.549987
2.20042
18.9763
16.0056
0.357719
16.5493
10.2382
458.441
0.178248
5.49514
2.56931
13.482
55.6086
1.13382
59.9423
40.2685
31.604
21.4957
9.62076
19.7391
11.8002
11.4963
13.9057
794.108
0.172296
1.89841
0.744981
45.015
38.7956
0.33603
70.351
50.6392
0.693381
1.51299
3.38953
1.12384
0.167398
2.45392
2.41886
0.160771
0.293326
2.54028
0.693263
0.801727
0.246181
0.76879
0.336096
0.715718
1.24015
0.376856
1.76093
0.311023
0.914059
0.168781
0.60302
41.1886
63.8748
6.87011
21.9083
2.09152
13.9163
35.545
0.280827
62.889
33.2532
6.20711
42.4244
41.3802
0.716339
0.27626
41.6319
40.4555
0.153941
193.671
92.5826
32.2005
0.215089
56.3976
31.3031
0.223394
58.9788
13.1148
62.1749
1.1105
3.57878
0.999914
62.0573
0.192639
41.6086
56.7168
1.78631
115.146
0.407889
75.2089
0.156038
0.992456
0.223224
66.191
0.353623
0.371807
5.3286
0.177532
108.769
10.7399
85.8141
19.7324
5.07974
8.09195
144.139
0.381676
9.1241
8.18895
67.3304
41.5506
0.643815
0.164311
10.0008
7.82654
53.5681
10.2534
0.180268
2.75929
1.77313
9.12635
0.348959
40.3361
23.1341
0.741468
0.271678
84.6085
95.7348
12.2392
9.7427
69.5866
1.77989
52.2846
67.5674
39.536
51.1718
34.0476
0.199973
42.7434
0.344229
0.792679
0.162521
47.9551
7.85325
4.85996
7.31103
42.4558
29.9232
0.219116
0.439847
0.442147
15.807
39.9812
50.237
187.636
53.3653
41.3913
40.1211
11.8906
28.1228
27.1724
62.7796
22.2911
46.3957
39.5236
49.4659
35.1768
111.618
108.231
2.54552
62.5696
31.2612
20.4881
12.8893
10.4756
94.5728
42.3549
7.65717
52.5351
29.3871
111.188
2.7974
5.67204
263.36
8.5657
62.5515
16.8883
0.286092
0.209843
0.560859
57.6433
0.187117
0.752622
0.809457
63.9804
69.554
55.3817
44.3258
74.6791
62.7121
76.032
0.226372
75.935
70.4614
68.6433
51.4585
66.4657
48.5823
71.8789
65.5253
69.7544
15.8514
14.0309
10.5107
172.18
8.40701
6.64756
2.54014
3.94511
0.320703
0.472176
15.0686
31.9081
4.54863
0.511484
0.597051
36.7677
30.2825
21.302
8.99693
2.87893
4.20091
1.72245
0.823759
7.15792
2.64214
109.146
0.728157
10.4886
2.74539
2.29384
0.52106
16.176
0.5577
20.5716
2.22421
0.858609
11.5525
2.9329
1.14446
2.28378
1.23742
0.256615
69.7215
0.26372
33.5817
16.0803
5.24476
47.5936
100.635
0.270031
84.9715
29.4454
16.7957
122.63
0.350491
0.227156
110.761
25.3037
98.3217
0.297619
7.46047
123.313
108.868
73.7921
0.234083
0.241391
0.223382
20.0216
6.54486
278.346
0.248451
8.23521
5.05325
0.292995
17.2894
0.43514
5.43395
50.5259
32.7115
10.7231
267.036
80.3292
0.215979
82.5025
0.33859
4.78577
9.77131
0.454758
129.685
8.1169
260.356
7.23184
3.45212
0.410952
56.0796
252.381
0.202155
102.271
42.8177
10.8595
5.78266
3.1414
0.203118
4.88721
53.4513
28.6871
53.0602
176.371
163.095
2.83204
10.6253
7.82303
85.2943
3.5308
0.428642
0.719499
219.869
0.159722
0.617987
0.693259
31.8537
13.7327
13.1341
1.04604
7.06604
3.93359
0.693643
1.58076
38.3303
1.63706
1.37808
1.93316
3.78344
0.448793
3.55737
1.8731
0.252331
127.028
2.43095
1.9661
3.48129
2.79878
1.29077
8.58381
2.71849
3.4069
0.466968
3.94751
25.6172
47.6544
1.5432
6.80564
1.43931
8.85659
3.65065
3.0148
2.5042
3.53781
3.29765
3.70019
1.97793
8.84375
4.74088
181.36
2.86439
6.63917
4.18189
4.95131
4.68339
4.18134
18.5407
1.44562
3.26619
5.33259
3.78553
3.67357
6.96164
7.25434
13.2463
0.889021
2.81528
3.15441
0.878998
1.20092
6.29968
3.34585
2.55768
2.25352
2.44419
2.02552
6.56571
4.82392
4.06645
2.25962
0.520639
0.645553
0.178794
7.36826
26.724
4.43365
52.6859
12.9252
2.71582
2.00315
3.94991
2.51013
27.5789
50.0898
9.02153
3.38274
6.31347
1.74843
2.81684
0.680385
4.18165
10.0208
2.10212
8.26969
197.16
26.8045
1.74375
11.4892
11.0086
0.800415
0.672864
0.189181
0.390098
33.329
7.70542
3.09831
5.51378
2.90146
0.669763
0.211004
0.347345
59.9059
29.8072
4.2647
33.6196
80.1696
6.75692
2.87318
8.06705
203.779
11.4028
0.870036
3.54632
20.1828
15.5086
2.01401
34.7179
19.9163
9.08173
28.9377
9.29901
0.586457
0.189016
0.246791
21.9739
11.9257
27.8164
29.5883
79.4425
1.32995
197.753
168.172
1.54378
6.17171
8.104
6.06656
13.1738
5.33252
5.3177
4.55215
14.228
11.1828
3.57091
45.2305
33.2713
52.0993
2.20046
45.4158
6.38055
2.49012
27.3407
0.149782
0.145522
33.4392
10.5388
6.27545
30.5432
0.655796
4.83941
8.04573
16.9067
20.6384
5.42492
0.629969
0.245874
0.264181
41.2992
51.3896
1.98716
28.8334
62.5945
56.9742
80.5386
5.59897
2.46532
0.867953
0.743702
1.52819
176.605
1.40326
47.8484
50.5399
4.8186
10.8439
111.296
0.424938
1.85345
10.8711
14.1936
14.5719
7.2082
51.7644
47.5849
8.95374
35.0262
36.1926
0.155316
3.04609
1.55976
0.69885
0.879247
1.24894
4.70931
3.56721
11.67
0.52069
0.248024
0.292021
94.048
86.9442
0.152921
0.312694
101.437
73.8081
23.4311
0.188146
63.1361
4.92169
3.61419
0.974892
1.74511
191.1
1.29757
0.230332
0.149467
123.143
74.5288
96.4969
1.31232
83.8598
82.2953
27.9395
12.014
17.1889
20.3073
11.3718
3.18263
3.61961
3.26975
3.32123
36.2202
25.269
1.25074
1.36324
22.5988
45.498
37.6338
81.2824
53.0544
21.8171
3.14092
42.9766
2.87778
4.0062
130.658
53.6258
73.7055
94.0591
50.9362
22.4597
13.1435
15.4161
7.32112
1.83539
3.15985
0.563427
0.27983
0.276836
1.80346
2.07083
1.50479
84.7504
84.2458
14.0403
67.47
4.63425
7.16882
2.90555
0.855329
96.4017
30.1311
79.5586
26.9084
1.80261
6.26046
68.3877
14.6639
11.3222
0.251909
67.2281
2.42723
3.47894
0.84576
34.2062
70.1729
5.32925
3.93757
20.5761
113.908
0.798311
0.84164
0.392581
1.59817
1.55654
1.94926
63.4417
1.26649
0.247354
0.426303
26.0262
1.57121
1.24583
63.0103
0.191149
166.841
3.11543
3.28978
4.1058
32.6203
171.342
12.4507
3.16718
3.04608
81.2083
48.8101
0.114756
1.06345
1.56989
2.36536
14.2434
1.92906
0.458113
11.1932
6.8826
0.208956
1.36094
2.73762
1.37899
10.2063
3.20831
2.49177
3.41573
0.981838
20.3997
32.2887
2.87305
28.8019
18.7709
1.89466
2.95273
50.3443
3.23022
74.8978
40.1878
6.6338
41.6498
16.4598
128.15
27.9392
54.2515
3.26913
84.879
7.48018
19.365
2.61748
1.26702
54.5199
6.16515
12.0144
4.51699
17.8195
9.21835
5.34272
62.8034
15.9584
56.8357
19.6514
3.7847
4.22205
0.460363
0.238156
0.30531
28.6264
146.093
21.0886
1.24454
0.300244
93.642
9.12549
199.824
115.046
53.5231
73.7481
37.7136
0.66324
31.4778
1.42005
2.66645
42.5923
58.1631
0.381973
11.3595
34.3634
31.7342
76.059
0.521632
17.4658
62.2824
47.7208
6.88917
0.379262
54.4672
98.0665
10.8157
21.8752
83.8587
92.1168
24.6327
0.211019
3.63565
29.5181
24.4923
0.148446
30.9454
27.9026
32.2573
4.44025
23.998
22.7027
117.43
4.04458
1.83102
0.148552
0.550059
31.3761
149.886
79.2992
83.0718
69.7141
327.873
0.79201
5.65581
7.36927
55.2697
2.94398
182.848
38.6208
0.283241
0.729522
1.53857
0.17316
0.239457
70.9815
75.4286
65.0755
43.8578
176.285
57.3287
7.71461
17.6892
89.5639
115.073
28.906
555.645
4.97979
0.153633
29.2196
92.5652
20.6823
23.1422
42.7006
6.26106
0.186933
39.2453
0.146384
0.599114
27.7435
0.453085
13.2448
0.242971
63.4721
3.45084
47.5265
6.744
12.509
15.6835
25.0428
39.3431
60.7188
0.314507
126.732
2.19178
3.77197
0.127176
0.631922
3.8128
79.4734
45.4174
104.067
1.05015
85.6387
126.266
1.22569
26.19
4.05664
3.37069
1.3229
1.96161
91.0332
51.3632
3.43616
4.1573
62.0682
11.0832
17.847
46.5604
1.22323
15.6459
5.62839
106.597
5.48228
35.4005
0.206665
0.155633
12.8869
93.6473
15.1227
61.1421
71.518
2.50102
1.87576
36.3601
4.59346
0.368794
102.903
0.54464
0.207926
167.794
11.3596
79.0423
1.53717
51.9002
57.5434
0.345622
8.98844
18.1561
63.1625
56.9818
6.66576
24.8111
50.8084
46.1234
13.7244
10.083
8.88277
1.86951
0.34717
0.280213
65.5643
28.3346
6.17242
6.65105
95.8643
8.8946
48.4649
31.5117
1.38728
5.13225
61.7559
84.3816
0.37062
0.163802
0.502313
43.0832
26.3808
48.5239
5.88256
3.99687
50.7102
76.6252
0.144465
35.6128
131.588
75.2231
27.1871
72.9012
0.889103
20.1355
64.4209
0.487436
0.281269
0.289805
21.9853
0.184489
5.0335
56.9452
0.190779
37.5161
14.6062
4.72861
7.39585
247.777
11.8848
23.3054
0.232397
27.5113
66.2851
28.9779
5.86348
0.372525
0.198872
0.308746
42.8718
14.3342
20.0565
81.0753
15.393
30.113
205.02
47.3639
59.7837
0.64644
59.7012
2.6398
0.49993
51.5229
27.6603
3.88351
0.693781
1.69193
25.1748
38.4058
0.930416
0.195583
39.1941
86.8746
4.7474
15.3721
9.55223
90.1146
192.285
166.24
0.185808
13.0656
66.6443
118.853
21.0791
51.0944
5.12227
19.4401
22.8233
67.8101
15.2478
36.4528
7.09901
14.2214
0.117398
29.998
4.09974
0.419252
36.9195
2.13575
5.85846
108.59
32.6311
0.129495
1.19144
44.5738
40.4211
52.7395
27.9633
2.34336
2.40367
0.136826
0.283611
0.21696
1.23236
103.173
0.438626
25.4943
58.7721
5.16643
0.193684
5.23204
9.10247
100.205
0.274638
0.313041
0.275766
3.30352
29.4281
2.20421
3.54129
0.143169
0.155458
0.276101
0.436582
2.85116
1.92432
5.91529
23.6559
20.007
1.36634
25.1986
8.59142
21.9145
2.25009
0.869285
0.292581
0.779475
0.17786
41.5493
0.185635
50.47
69.6435
40.1593
59.6331
0.171069
6.35322
1.09748
227.272
2.32683
3.14469
0.381547
0.234722
0.294208
4.85929
0.402522
75.0165
216.833
0.188184
3.05464
0.289906
2.62137
2.05205
24.3413
0.110123
57.353
20.8967
43.2064
70.5753
0.765347
2.55258
5.39224
95.8737
2.56947
59.5087
9.70508
32.2172
0.355509
6.81959
0.339803
4.50241
5.98164
23.2918
26.215
1.40964
0.195498
3.19414
1.29723
1.31991
32.4596
54.873
40.7433
37.609
45.2587
16.7374
27.9004
5.4375
73.0789
6.81099
24.1372
0.247097
43.2234
63.9163
93.1724
12.1995
0.305847
2.44538
0.808712
0.131449
2.20594
8.40764
1.74128
3.76531
92.682
0.120308
2.20787
58.1684
8.04669
30.6646
20.5016
31.063
69.0267
6.00976
2.62687
2.1115
7.23581
11.8067
3.69133
1.4477
27.5074
0.308512
3.82299
4.26647
0.207072
20.4813
0.263338
0.639071
0.25403
0.15809
0.329397
0.671258
3.15614
3.97604
8.69512
0.439328
0.19538
0.499409
58.836
44.987
13.6839
11.6738
6.15654
4.00854
3.30649
76.1914
47.8607
41.0673
326.804
12.0264
73.911
88.4895
123.91
30.2022
0.265039
0.266751
0.18976
0.179238
0.271147
7.65078
28.6731
82.1068
0.319754
0.720447
2.75721
28.4936
11.7685
64.3889
0.115839
1.52875
58.2394
11.9719
23.5916
20.9059
1.71279
0.177958
23.2059
20.8497
106.787
1.28639
14.5122
133.138
3.4255
39.7581
50.426
1.21442
0.961058
12.7333
1.61096
0.348075
2.87961
0.228317
1.13162
2.39605
0.966522
3.10493
0.700406
1.13023
190.956
57.1895
0.176981
0.11801
0.399381
30.9191
16.3214
0.188634
25.1098
37.875
0.219677
66.4706
27.3841
37.2182
100.977
242.09
59.525
28.8962
0.445692
16.009
45.6548
25.6598
3.44754
0.646072
93.8915
0.17512
79.9871
3.03012
0.369424
11.3998
142.526
47.6104
0.241993
3.64119
33.7877
4.61206
6.54587
0.526026
2.91485
1.65814
114.249
3.71058
38.064
0.273547
0.185054
0.285901
1.3528
0.314337
0.439987
53.5088
0.169413
48.0805
101.886
6.22528
10.5714
200.335
8.10986
5.18507
168.141
15.4528
14.2577
202.636
6.16166
132.351
0.283592
0.161549
0.300329
60.9762
4.18447
0.203741
1.08092
0.198229
0.158924
28.4639
92.7322
29.2463
8.21856
14.5026
88.5057
29.7567
27.8649
11.2264
7.70599
13.9293
104.502
34.1044
170.003
26.3043
0.196235
2.35973
0.334317
36.204
1.27096
55.242
44.9941
17.5551
5.85495
5.25674
30.8723
0.990572
0.339003
0.552098
0.283414
0.275204
11.7497
5.51124
25.5803
4.7144
12.3564
48.4011
54.6459
25.148
295.151
17.0465
0.522184
0.405087
0.206826
67.1946
2.59298
23.5358
6.73949
0.144669
5.93304
110.366
54.7888
5.5757
5.85711
29.1506
53.7618
3.03195
0.203163
0.268389
23.8907
305.101
4.26413
20.3646
35.3531
51.7729
21.5921
9.62105
5.32754
28.4818
74.137
18.1771
0.178069
6.1381
0.0580608
42.6293
0.0612394
26.2636
299.933
15.4161
5.34721
46.2459
0.501257
6.57729
12.516
0.0659871
29.9723
0.50016
0.0774184
7.5354
19.445
83.021
38.5375
5.55174
0.39023
0.539784
0.780247
0.0787671
0.119842
0.374357
2.75386
28.3356
60.748
28.1213
12.8779
9.33532
88.9353
62.7342
10.1078
2.18675
0.573694
4.25122
149.756
104.206
43.2606
3.33889
0.606137
80.413
1.58937
18.159
9.59782
62.3665
3.20315
116.227
24.5199
25.8906
8.0937
78.7012
314.336
0.107486
34.7081
0.623696
3.24478
54.0045
13.6101
0.23421
0.134968
0.186932
0.320744
1.39498
103.357
28.4876
11.4405
207.453
17.9936
5.25516
62.6258
40.1038
13.0171
113.507
0.568306
18.9365
0.17098
16.2645
62.7649
0.165978
19.4525
47.0991
7.59227
41.4985
0.504686
1.70379
40.1569
151.939
51.9368
74.1442
22.2177
322.301
0.203231
28.0092
51.4912
5.33752
113.471
20.6316
121.156
22.7548
9.39115
259.465
43.1435
33.5392
0.222875
0.22266
0.283055
50.9782
6.00183
4.34258
0.411353
28.6396
31.3599
0.196197
0.603087
4.47949
14.1253
79.0869
3.18375
0.729567
13.0553
46.6245
29.1551
18.303
0.381588
113.39
24.4088
4.30944
49.2837
63.4066
0.25734
47.528
27.5964
63.2716
33.9266
34.3674
7.78852
0.200694
0.25987
0.1994
0.11005
0.301679
7.71067
9.87265
68.7204
22.2367
15.4361
134.591
35.8715
44.9922
2.70098
7.45415
38.5993
3.65192
17.1246
6.78027
67.2933
126.129
87.1603
30.4611
74.1849
2.83777
39.295
42.7454
9.9586
0.188124
0.486522
92.928
29.7454
1.20196
71.8991
88.0214
0.18731
49.0808
24.251
73.7957
165.15
69.6483
0.120696
65.4208
0.446453
0.459769
0.285458
57.3983
40.5724
70.2152
0.406939
2.7708
100.902
7.98218
0.235129
8.86122
59.4201
37.7331
75.0837
154.669
55.1497
0.882939
0.266867
39.5291
33.5667
191.839
116.391
165.208
1.8067
0.435495
108.009
86.6818
0.278252
0.124258
0.210217
0.246089
2.1954
1.13155
108.346
14.57
2.16568
21.6581
27.126
7.729
63.2676
109.842
65.1891
5.67735
33.1599
8.09911
42.1411
15.4633
8.21889
131.822
134.218
40.1725
75.2267
372.103
309.814
0.289742
1.1132
149.631
80.4447
0.267334
0.143831
0.39976
1.95376
38.8381
116.311
54.6603
14.5958
0.289649
83.2577
0.424681
0.651673
0.301867
3.57077
0.795935
59.4566
134.624
52.2832
4.1391
110.381
0.547894
6.19422
94.4045
39.6776
55.0375
30.2682
9.7573
98.0147
65.5304
0.205844
4.88472
3.00134
5.68765
4.31351
14.4641
81.7059
33.0387
35.5908
23.906
21.3769
20.0302
21.5245
1.38305
0.200931
49.2984
3.08682
13.9624
412.534
10.3417
84.1845
61.1027
0.303376
0.4583
0.271773
0.262195
58.0294
66.773
66.4395
0.65333
18.6341
5.87483
1.60173
10.0227
42.8689
6.15204
5.7862
4.57865
0.201843
1.52901
0.33476
0.346304
114.221
42.6192
1.26163
42.6993
400.66
112.263
136.277
42.5018
0.233078
40.1022
4.39393
2.71582
50.8692
158.665
0.218636
0.224529
0.127695
51.892
18.6886
88.7022
1.93661
4.84289
45.7774
14.5127
0.121457
1.40845
1.17752
1.8503
8.55817
107.124
29.1473
6.10579
91.9967
39.2164
59.233
67.9787
6.14575
61.3736
6.16577
19.6367
51.6368
29.2872
28.4529
0.270784
0.255356
44.676
1.11018
2.62552
0.60789
80.5397
31.1947
37.1364
0.610955
40.4786
0.601788
46.6151
35.1049
27.8212
31.8712
27.534
58.3588
25.5412
1.17594
40.0904
35.2904
0.526907
1.7493
0.387925
3.64535
3.8668
17.1915
40.1923
0.373655
3.63805
121.29
1.25074
48.4988
0.179287
0.410287
140.773
174.356
0.171173
0.49305
0.252401
2.37634
3.4476
0.443325
0.93106
0.371763
0.807274
0.388087
0.274464
46.4633
0.626452
0.1848
28.2144
42.9912
1.41356
30.5035
0.518748
1.32013
34.8355
76.8604
25.3987
0.149972
34.1465
120.907
70.5877
70.5247
11.4613
0.239821
1.16052
0.348855
39.9514
134.972
26.4642
4.36917
8.59007
8.55159
0.147128
2.76242
7.34187
60.6898
4.5242
59.1027
0.16301
8.56083
112.763
35.7183
6.59811
34.6967
0.151955
92.7552
40.6121
36.7568
0.156141
0.964807
0.147282
0.141775
7.05156
16.3209
3.10702
39.4945
26.8154
117.228
20.4852
13.1029
0.789288
2.90319
0.635865
87.6451
29.1801
33.0077
2.79649
87.4606
6.14365
22.3831
38.7837
0.17783
0.269451
10.6321
90.8679
73.7507
38.2094
56.2554
38.5919
53.0803
2.70476
2.85609
0.454943
6.17912
5.8992
721.231
88.8325
3.79847
100.865
34.8283
1.7009
1.40078
6.88822
1.19725
0.345193
0.772306
43.1586
28.4526
40.168
44.5666
32.2954
0.885699
3.25969
0.136903
6.93577
22.6638
57.612
537.772
16.555
11.0459
0.177863
1.08879
107.972
60.2702
8.88224
0.862453
1.40231
12.323
5.66233
4.57345
28.8132
177.9
0.302593
0.316789
0.158121
10.6573
8.6807
1.74193
73.5561
0.998496
296.576
36.8708
61.3218
101.302
0.122308
1.29186
9.19547
11.874
0.31752
5.20345
4.91758
39.3207
84.5533
64.4786
1.87275
2.84862
90.5813
0.448204
12.5823
14.2538
38.1068
62.4869
89.0387
0.682904
0.267742
0.286865
61.7892
11.8513
160.116
37.6906
2.31737
39.9975
120.407
64.778
56.1424
7.28416
76.919
46.5201
19.6463
0.364935
0.374462
33.7569
0.537303
8.1268
11.4852
0.788849
75.1906
418.562
336.877
7.11009
84.2285
2.38899
2.11857
1.435
0.348959
82.721
26.9982
0.693971
0.517328
0.299791
1.46385
13.3699
17.2515
90.9289
38.2442
2.16012
299.901
1.15386
48.9857
101.427
84.983
48.4348
16.755
6.78349
79.9152
0.282561
1.03292
0.243343
0.836931
2.95731
22.6991
61.2733
2.28534
40.9992
0.524652
0.25457
4.67945
10.1287
1.39921
0.960726
92.9168
40.4513
44.1801
10.3875
0.708286
0.137253
13.0329
207.901
2.58511
343.66
0.7163
2.93599
49.5407
40.6752
1.45339
26.6944
172.621
0.868634
18.2945
45.0879
19.8826
75.2575
71.7624
10.8573
21.2708
1.96579
21.3603
87.8478
12.8736
121.869
14.7399
8.3702
0.716177
26.6848
15.087
20.532
81.4758
1.61015
18.1369
7.93566
0.234889
0.496514
8.65478
0.129901
7.49989
13.9039
8.95131
12.3406
18.3353
58.6222
107.18
90.2464
58.6007
0.400925
0.388572
0.76302
0.324301
4.54027
9.32829
0.70667
1.43976
13.004
81.1445
0.432555
1.13425
1.14989
21.1364
82.092
2.42133
2.07597
1.12007
2.50519
59.5354
34.4837
2.33514
0.147328
53.4919
95.0538
25.6063
0.360694
6.21193
0.266646
0.344497
0.775895
0.162386
2.60679
40.2077
0.479531
0.587656
37.0432
57.4786
0.479149
28.5948
0.280821
58.2786
0.142318
88.6015
2.9126
0.676891
5.55782
61.4713
96.6204
101.06
37.7149
30.9627
47.2946
1.90183
51.9194
45.3611
0.451275
0.248245
2.4729
2.33598
174.61
19.0408
24.6781
5.17061
50.0068
62.5149
68.0667
14.175
587.169
13.2534
0.640162
0.173903
0.126001
0.194633
0.287983
1.78704
12.7585
0.261605
0.51404
1.01856
0.245907
1.33825
3.65349
5.54747
22.5169
60.8805
115.048
0.352409
3.25601
0.13936
2.84
65.146
35.3495
14.4783
6.0121
98.7084
130.61
100.332