/*--------------------------------*- C++ -*----------------------------------*\
| =========                 |                                                 |
| \\      /  F ield         | OpenFOAM: The Open Source CFD Toolbox           |
|  \\    /   O peration     | Version:  v1912                                 |
|   \\  /    A nd           | Website:  www.openfoam.com                      |
|    \\/     M anipulation  |                                                 |
\*---------------------------------------------------------------------------*/
FoamFile
{
    version     2.0;
    format      ascii;
    class       volScalarField;
    location    "0.63";
    object      nut;
}
// * * * * * * * * * * * * * * * * * * * * * * * * * * * * * * * * * * * * * //

dimensions      [0 2 -1 0 0 0 0];


internalField   nonuniform List<scalar> 
1466
(
0.00100794
0.00203996
0.00139484
0.00361003
0.00135228
0.00234409
0.00298697
0.0017423
0.000747114
0.00229794
0.00297612
0.00227788
0.000739379
0.00169697
0.00553024
0.00610833
0.00165415
0.00100499
0.00496271
0.00323997
0.00538024
0.00810095
0.00391253
0.00302349
0.000766424
0.00410831
0.0051087
0.00398019
0.000873396
0.0038346
0.00346577
0.00385593
0.00173902
0.0102275
0.00306711
0.00192369
0.0117452
0.0015094
0.00214061
0.00103152
0.00104903
0.00194595
0.00187888
0.000955168
0.000842521
0.000986272
0.00188053
0.000717935
0.00149928
0.000750589
0.00108377
0.00167027
0.00166271
0.00101251
0.000838782
0.00101519
0.000796847
0.00209537
0.000909192
0.00200295
0.0057502
0.00333113
0.00266584
0.00349303
0.00547095
0.00191789
0.00823829
0.00348728
0.00223497
0.000948727
0.00754024
0.00112215
0.000900735
0.00092136
0.00382577
0.00270928
0.00313192
0.00253231
0.00131409
0.0038447
0.00286744
0.00508881
0.00130465
0.00320534
0.00512394
0.00524071
0.00765211
0.00321959
0.00249526
0.00273294
0.00505012
0.00458136
0.00389817
0.00347114
0.00177852
0.00110119
0.00187301
0.0017884
0.000825463
0.000921867
0.00145694
0.000889973
0.000641116
0.0016686
0.00219413
0.00179907
0.00144143
0.000824651
0.00189203
0.000856382
0.00573263
0.00311255
0.00230312
0.00173837
0.0015467
0.00645308
0.00300623
0.00164924
0.00235654
0.00208612
0.00585927
0.00286353
0.00212861
0.00108093
0.000854479
0.0015339
0.00281491
0.00402542
0.00319089
0.00448477
0.00174664
0.0019371
0.00344439
0.00279446
0.00523064
0.000961786
0.00096127
0.00102082
0.0014882
0.0014228
0.000954994
0.00455375
0.00466948
0.00447601
0.00808097
0.00710886
0.00389519
0.00529396
0.00455049
0.00305294
0.00534695
0.00341873
0.00257867
0.00171967
0.00495118
0.00809044
0.00361959
0.00580122
0.00447097
0.00212328
0.00388646
0.00354904
0.00145029
0.00464655
0.00773618
0.00329418
0.00418971
0.0048004
0.00517853
0.00321172
0.00546745
0.00280192
0.000777036
0.00237561
0.00102899
0.000876539
0.0035249
0.00429238
0.00551593
0.00607681
0.000873433
0.00391155
0.00529169
0.000594236
0.0031486
0.00553018
0.00534894
0.00274625
0.00221508
0.00156836
0.00577012
0.00506776
0.00351893
0.00810056
0.00192579
0.00622765
0.00067355
0.00329486
0.00685747
0.00765543
0.00270164
0.00450119
0.00331008
0.00532702
0.00758474
0.00799465
0.00635839
0.00241571
0.00445803
0.00321824
0.00455526
0.0046768
0.00455338
0.00504913
0.00588037
0.00467973
0.00578894
0.00575535
0.00343171
0.00383309
0.00453193
0.00636047
0.0048409
0.00662802
0.00504063
0.00569708
0.00674483
0.00108688
0.00553917
0.00630846
0.00557262
0.00321053
0.00868603
0.00948661
0.00296515
0.00803679
0.00451205
0.00471828
0.00460698
0.00569194
0.00237519
0.00372057
0.00317109
0.00746863
0.00394562
0.0032984
0.00379568
0.000913957
0.00405861
0.00291165
0.00586183
0.0059346
0.00225805
0.00329286
0.00300435
0.00554672
0.00313586
0.00110197
0.00132561
0.00193135
0.001239
0.00318386
0.00268359
0.0061093
0.00341612
0.000529592
0.000934486
0.00483388
0.00529433
0.00129116
0.00165361
0.00140549
0.00106748
0.00424931
0.00508367
0.00685431
0.00609356
0.00406217
0.00533739
0.00442632
0.00593723
0.00590179
0.00479902
0.00330658
0.0084085
0.0013103
0.00484675
0.00494209
0.000979224
0.00185616
0.00187693
0.000706367
0.000805673
0.000857243
0.00321431
0.0010233
0.00157155
0.0014312
0.00458323
0.00598929
0.00153786
0.00643019
0.000481724
0.000894295
0.00575855
0.0107636
0.00864659
0.00123589
0.00297645
0.00799239
0.0024131
0.00549571
0.00376007
0.00469208
0.00447022
0.00374236
0.00906441
0.00300657
0.00129223
0.00566975
0.000940471
0.00148473
0.00149594
0.00571349
0.00577569
0.00163357
0.00137911
0.00299002
0.00540086
0.00514645
0.00387985
0.00173385
0.0017725
0.00291271
0.00520133
0.000857985
0.00540062
0.00480798
0.00962768
0.0042649
0.00260857
0.00255408
0.00151719
0.00383555
0.00347805
0.000435857
0.00314666
0.00304745
0.00228036
0.00481019
0.00172479
0.000928196
0.00330573
0.0070616
0.00968072
0.00693888
0.00297802
0.000636802
0.00106911
0.00302651
0.00903269
0.00624454
0.00482831
0.00749552
0.00125347
0.00930917
0.00228118
0.00219581
0.00116561
0.00319766
0.00293481
0.00760383
0.0014768
0.00279554
0.00166723
0.0133072
0.00375533
0.00147334
0.00342135
0.00347001
0.0111315
0.0124458
0.0115436
0.0120452
0.0137571
0.0130623
0.00154214
0.00152083
0.0012367
0.00124145
0.00854339
0.0152154
0.0084074
0.0150862
0.00857083
0.00375398
0.00134406
0.00151322
0.00751242
0.000799077
0.00145506
0.0012829
0.00280808
0.00179467
0.00295251
0.0113114
0.00275272
0.0029849
0.00941324
0.00948628
0.00474199
0.00305298
0.00315964
0.0106188
0.00332041
0.00185227
0.00162991
0.00301975
0.00555754
0.00411862
0.00957012
0.0104137
0.00457608
0.0029216
0.00470854
0.00339391
0.00781523
0.00151357
0.00426798
0.00345132
0.00647334
0.00570438
0.00162683
0.00171669
0.00481691
0.000653617
0.00150705
0.000820028
0.00141902
0.00675477
0.00181284
0.00104122
0.00638682
0.00159571
0.00553888
0.00302887
0.00139396
0.00516877
0.00219629
0.00520155
0.0053992
0.0019452
0.00116759
0.000908275
0.0128187
0.00109606
0.00159491
0.00143298
0.00110665
0.00578011
0.00146076
0.008306
0.00140469
0.00199573
0.00512693
0.00285744
0.0143045
0.0080264
0.00795823
0.013608
0.0077485
0.00150266
0.00623947
0.00146951
0.00618852
0.00381599
0.00232752
0.00722537
0.0104895
0.00568417
0.00313513
0.00352313
0.00466105
0.0100199
0.00850054
0.00213864
0.00526228
0.00435578
0.00851432
0.00520443
0.00936346
0.00378655
0.00166335
0.0149604
0.00461645
0.016083
0.014966
0.0145244
0.00394233
0.00897557
0.0125738
0.0113799
0.00203355
0.00744304
0.00144236
0.00866766
0.00353114
0.00612023
0.00542091
0.0160741
0.00577872
0.0077343
0.00637805
0.00165197
0.0153562
0.00829506
0.0120631
0.000894715
0.00142381
0.00171104
0.0134649
0.0093634
0.0101928
0.00245724
0.0072697
0.0132335
0.0109787
0.00455226
0.0138719
0.00966068
0.00142514
0.00171444
0.00868573
0.0158698
0.0156272
0.0115499
0.00244765
0.0037303
0.0125021
0.00398203
0.00200822
0.00794225
0.00132184
0.00733449
0.0144125
0.00252019
0.0148327
0.00185773
0.00859709
0.00649838
0.00803054
0.00725642
0.00777663
0.0151672
0.00169629
0.0159599
0.0162111
0.00921986
0.00196066
0.00159116
0.00950908
0.0100671
0.00587933
0.00301472
0.00125543
0.00815479
0.0154973
0.0101753
0.00385656
0.0115397
0.00600504
0.0101591
0.00461273
0.00434714
0.00261477
0.00577975
0.000953108
0.0131412
0.0159103
0.00396318
0.00482277
0.0114702
0.0149009
0.00808642
0.0100567
0.00443342
0.00583296
0.00108934
0.0162127
0.00900809
0.00757562
0.00218504
0.00873989
0.0146267
0.00653489
0.00472926
0.0045598
0.00299785
0.00288413
0.00542701
0.00372771
0.00136627
0.00119803
0.00264005
0.00942555
0.00902661
0.00589387
0.00155296
0.00588776
0.0110286
0.0030495
0.00352889
0.00198913
0.00228658
0.00353627
0.00286289
0.00415664
0.00237456
0.00200308
0.00579099
0.00250357
0.001292
0.00592461
0.00147728
0.00200689
0.0141492
0.00175739
0.00926854
0.0098989
0.0132013
0.00700495
0.00203118
0.00209212
0.0012667
0.0127485
0.00132661
0.00577302
0.00587548
0.00493665
0.00363147
0.00885716
0.0033513
0.00305874
0.00666245
0.0102422
0.00133938
0.0090574
0.00973113
0.00297549
0.00240988
0.0121971
0.00103287
0.00413592
0.00153972
0.0108149
0.0101966
0.00824312
0.00156084
0.00548349
0.000931564
0.0102016
0.00335947
0.00138171
0.00143072
0.00986348
0.00396872
0.00264614
0.00495049
0.00387712
0.00618829
0.00120441
0.00500959
0.00573493
0.00112365
0.00560451
0.0015231
0.00662214
0.0024701
0.00202923
0.00176994
0.00375886
0.00164287
0.00298337
0.0093051
0.000625178
0.00771007
0.00071199
0.000456794
0.00366674
0.000484319
0.0102584
0.00172409
0.00159424
0.00256586
0.00068068
0.000459279
0.00275776
0.00804867
0.000709626
0.0075484
0.00909797
0.000718983
0.000463433
0.00536835
0.0106534
0.00942001
0.00495506
0.00308143
0.000472307
0.0103128
0.00434482
0.00705518
0.00118522
0.00311193
0.00897413
0.00403693
0.00185351
0.00905996
0.00968551
0.00413486
0.00245596
0.00789303
0.00915978
0.0029656
0.00161963
0.00987268
0.00359255
0.0124353
0.0105876
0.000452807
0.00775569
0.00265118
0.00891337
0.00164497
0.00797746
0.00711283
0.00108534
0.00628183
0.00145261
0.00825149
0.0124666
0.0051258
0.011268
0.000945574
0.00363209
0.00442562
0.000753971
0.000509559
0.00595028
0.00305525
0.00367612
0.00454919
0.00368342
0.00122166
0.00315463
0.00618281
0.0054673
0.00376682
0.00137574
0.00387946
0.00489444
0.00231211
0.00701317
0.00462039
0.00993842
0.00338625
0.0040621
0.00375364
0.00591875
0.00546855
0.00548111
0.00440038
0.00199593
0.00324202
0.00843725
0.00549253
0.00409848
0.000570957
0.0128888
0.00256465
0.0130257
0.0070914
0.00436138
0.00165348
0.0103099
0.00169542
0.00621331
0.014053
0.00929691
0.00327051
0.0118866
0.0100244
0.00553056
0.00377906
0.00430473
0.00152443
0.00773572
0.00308729
0.00168491
0.0100925
0.00802717
0.00693175
0.00950899
0.00164172
0.00170522
0.00110653
0.000403527
0.00124775
0.00848357
0.00395086
0.00112239
0.00496782
0.00409063
0.00306869
0.00729752
0.0018648
0.00519403
0.00416687
0.00511099
0.00662554
0.00311144
0.00905428
0.0028821
0.00435919
0.00268881
0.00431088
0.0050744
0.00130959
0.00159408
0.00392387
0.00396087
0.00500959
0.00571405
0.0105019
0.00130967
0.00333363
0.00325044
0.000522911
0.0052753
0.00635419
0.00704429
0.00923391
0.00955013
0.00227454
0.00950312
0.00196763
0.000767553
0.00888397
0.00283831
0.00443487
0.00770748
0.00297693
0.00344016
0.0155251
0.0100107
0.00532373
0.00318404
0.00269271
0.00366427
0.00364196
0.00903492
0.011023
0.000956386
0.0109846
0.00441135
0.00116098
0.00329721
0.00189237
0.00477274
0.0163086
0.00961959
0.00239492
0.00760747
0.00458182
0.0108658
0.0112314
0.0096411
0.00103767
0.000993148
0.00102187
0.000861654
0.000882019
0.000979418
0.000802806
0.00128271
0.00128932
0.0013149
0.00128852
0.00121802
0.00115564
0.00119401
0.00123049
0.00130532
0.000916651
0.00103404
0.00125846
0.00117128
0.00129898
0.00111075
0.00110474
0.00111148
0.00114421
0.000981021
0.00320559
0.000738553
0.000519512
0.00853631
0.00192255
0.00208138
0.00735993
0.00174516
0.00517965
0.00822894
0.00388781
0.00995334
0.00362094
0.000733056
0.001325
0.00561423
0.00912628
0.00850209
0.00595956
0.0031308
0.00443229
0.00263844
0.0100819
0.00754754
0.00115209
0.00296765
0.00232537
0.000937691
0.00047653
0.000895896
0.00250134
0.00432493
0.00819651
0.00750237
0.0012744
0.00363266
0.00472144
0.00188636
0.00404265
0.00151206
0.0080386
0.00367896
0.00285142
0.00491616
0.00111296
0.00228272
0.00152828
0.00742656
0.0037679
0.00413075
0.00809539
0.00258503
0.00751208
0.00387879
0.00555989
0.00747368
0.00370865
0.00987029
0.00161227
0.00104079
0.000774125
0.00369501
0.00607348
0.00111044
0.00381369
0.0120855
0.00878139
0.00129544
0.00589661
0.00822672
0.00573191
0.00446699
0.0019316
0.0068112
0.0044786
0.00179559
0.00471357
0.00135972
0.00420729
0.00530987
0.0114113
0.00132411
0.00109822
0.00932471
0.00356821
0.00745768
0.00319426
0.00255139
0.00154012
0.00612492
0.00331505
0.00671993
0.00960864
0.00414906
0.00822283
0.001091
0.00208287
0.0107964
0.00447546
0.00954969
0.0012644
0.00104791
0.00405957
0.00316252
0.00159491
0.00531246
0.000746235
0.00137669
0.00718356
0.00136238
0.000383371
0.00222438
0.000926093
0.00749389
0.00599912
0.00202369
0.00789743
0.000903728
0.00142306
0.010222
0.00330991
0.00632605
0.00119598
0.00100588
0.00427822
0.00317241
0.00232871
0.00372546
0.00618011
0.00650306
0.00278263
0.00213541
0.00677929
0.00493717
0.00448521
0.00635306
0.000830423
0.00618441
0.000842383
0.00336294
0.00227407
0.00075832
0.00163742
0.00264039
0.000599626
0.00200094
0.009212
0.00352869
0.00209337
0.00352261
0.00429451
0.000945883
0.00421631
0.00524476
0.00761536
0.00540766
0.00144158
0.00158364
0.000943329
0.000723412
0.000764762
0.00290101
0.00679896
0.00102153
0.0026108
0.00170049
0.000250046
0.00531745
0.0113064
0.000552126
0.00210714
0.000575063
0.00216796
0.000974658
0.00055949
0.000580066
0.00484533
0.00343487
0.000732793
0.00108038
0.000461316
0.000503479
0.000485032
0.000461414
0.00100895
0.00103137
0.000532117
0.000591863
0.000610339
0.000594341
0.000922997
0.0100415
0.00672248
0.00506476
0.00610377
0.00520731
0.0091145
0.0046984
0.00116294
0.000974494
0.0104633
0.00437918
0.00296597
0.00161186
0.00591417
0.0037836
0.00899518
0.00985059
0.00047647
0.00708506
0.00249211
0.00408932
0.000655572
0.00308743
0.00294825
0.00630881
0.00206609
0.00536118
0.00676905
0.00338079
0.000825858
0.00101865
0.0009218
0.00176785
0.00544468
0.00322728
0.00420788
0.00290312
0.00320056
0.00459336
0.00173548
0.0135749
0.00987973
0.00404432
0.00527182
0.00696365
0.00960129
0.0100952
0.00173544
0.00165721
0.00502933
0.00424902
0.00403083
0.00401979
0.00947905
0.00563029
0.00305888
0.0112248
0.00105779
0.00106439
0.007831
0.00291375
0.00126448
0.00236073
0.00325568
0.00417077
0.00861005
0.00130843
0.00346668
0.00103895
0.000860102
0.00532427
0.0109414
0.00274538
0.009622
0.0066218
0.00269882
0.00403451
0.00938137
0.0153423
0.00373213
0.00254696
0.00956399
0.00345019
0.00802469
0.00799116
0.0104834
0.0109818
0.00175398
0.0044874
0.00409201
0.00374585
0.00241483
0.0082421
0.00726011
0.00980709
0.00381892
0.00543602
0.00219628
0.0100744
0.00691707
0.00384779
0.00318479
0.00310762
0.0013925
0.00291938
0.00487022
0.00381929
0.00303524
0.00369076
0.00289215
0.00280761
0.0062331
0.00921067
0.000961641
0.00174144
0.00392796
0.00280617
0.00335136
0.00459861
0.00346266
0.00234619
0.0009296
0.00381889
0.000909754
0.0028712
0.00977275
0.0100222
0.00153332
0.00296561
0.000930846
0.00767712
0.00242489
0.0015053
0.0063674
0.00308417
0.0094774
0.00791501
0.00415726
0.00362236
0.00149407
0.00531317
0.00588105
0.00749753
0.00172646
0.0015433
0.00631881
0.00154558
0.0102042
0.00271807
0.00216257
0.00297397
0.00632583
0.00553149
0.00101046
0.0079281
0.00181896
0.000901131
0.00951107
0.00548274
0.00335852
0.00277385
0.00216305
0.0103819
0.0023585
0.00560273
0.00315036
0.00279954
0.00513325
0.0049316
0.00704451
0.0108334
0.0101603
0.00231667
0.0020561
0.00175455
0.00382218
0.000792621
0.00309073
0.0033943
0.000488167
0.00960892
0.00585028
0.00358315
0.00923496
0.00354938
0.0063153
0.00346235
0.000949878
0.00349484
0.00456309
0.0020527
0.0018754
0.00168277
0.0131497
0.0082906
0.00987143
0.0092754
0.00453048
0.00194934
0.00407351
0.00288024
0.000852639
0.00142064
0.00559431
0.000993809
0.00433493
0.00474162
0.00676649
0.00594435
0.00388864
0.00844275
0.000922853
0.00361218
0.00646384
0.0056019
0.00166566
0.00677233
0.00693911
0.00298258
0.00237539
0.00344478
0.00610227
0.00972852
0.00106833
0.000402676
0.00350384
0.0044814
0.00320281
0.00911563
0.00672114
0.000677409
0.00338011
0.000508106
0.000906914
0.0014157
0.00175896
0.00320969
0.0090418
0.00040538
0.00953597
0.0133247
0.00914299
0.00160125
0.00142456
0.00726239
0.00105172
0.00383328
0.00241873
0.00385019
0.00740561
0.00131429
0.00357426
0.00334311
0.00320995
0.00192541
0.00300529
0.00112743
0.00545356
0.00309074
0.00590596
0.00109622
0.00383673
0.00308009
0.00376187
0.00319205
0.00333645
0.00784907
0.00273746
0.00321299
0.00262203
0.00340625
0.00780957
0.00255572
0.00150363
0.000245744
0.00038365
0.0028343
0.00493416
0.00307398
0.00593566
0.00450468
0.00111824
0.00207162
0.00986503
0.00620256
0.00450114
0.00349848
0.00419073
0.00562732
0.0110544
0.00172044
0.00287985
0.00458183
0.00242602
0.00611033
0.00264489
0.00274513
0.00553146
0.0031908
0.00493982
0.00465509
0.00330712
0.00515123
0.00505307
0.00583201
0.00305183
0.00176628
0.00499778
0.00336884
0.00504584
0.00431107
0.00349209
0.00299924
0.00673754
0.00384257
0.00609798
0.0032015
0.00781331
0.0105648
0.00323188
0.0011196
0.00680561
0.00247943
0.00311368
0.00258752
0.00319529
0.00325276
0.00412125
0.00488974
0.00309557
0.00326077
0.000746131
0.00398509
0.00401046
0.0030167
0.00510571
0.00171991
0.00212129
0.000914898
0.00162291
0.000892913
0.000862441
0.00162152
0.00221238
0.000798492
0.00106702
0.00119944
0.000748842
0.00153941
0.00170044
0.00108366
0.000761453
0.00166721
0.0023932
0.00153656
0.0013155
0.000973287
0.00178532
0.000730838
0.000845953
0.000974505
0.000948054
0.000744724
0.000900463
0.00200924
0.000643662
0.00059772
0.00182661
0.000765531
0.00132541
0.00116847
0.00231051
)
;

boundaryField
{
    frontAndBack
    {
        type            empty;
    }
    wallOuter
    {
        type            nutkWallFunction;
        Cmu             0.09;
        kappa           0.41;
        E               9.8;
        value           nonuniform List<scalar> 
108
(
0.000119101
0.000132122
0.000107066
5.84491e-05
5.28213e-05
7.54627e-05
8.56422e-05
5.52289e-05
5.85836e-05
8.19783e-05
5.55409e-05
8.5373e-05
8.64487e-05
5.60371e-05
5.71409e-05
5.49031e-05
0.000127793
9.05329e-05
6.18067e-05
6.90235e-05
4.87976e-05
0.0001319
6.32573e-05
9.21073e-05
0.000122431
0.000117471
0.000120665
0.000102682
0.000104971
0.00011598
9.59582e-05
0.000149572
0.000150477
0.000153264
0.000150219
0.000142503
0.000135647
0.000139914
0.000144047
0.000152229
0.000109109
0.000122256
0.000147129
0.000137581
0.000151603
0.000130914
0.000130022
0.000130756
0.000134358
0.000116098
6.30154e-05
8.81056e-05
0.000135219
5.76721e-05
0.00013112
0.00012288
9.28716e-05
0.000129265
0.000123953
4.62822e-05
0.000107696
0.000140273
0.00011892
0.000100701
9.10558e-05
7.25847e-05
0.000112442
8.69808e-05
9.17942e-05
0.000121073
2.91608e-05
2.91608e-05
6.69215e-05
6.95919e-05
6.77522e-05
7.01752e-05
0.000127263
5.59108e-05
6.10274e-05
5.88051e-05
5.59141e-05
0.000119533
0.000122052
6.44145e-05
7.15606e-05
7.37534e-05
7.18635e-05
0.000109862
0.000136636
0.0001154
5.76571e-05
7.92024e-05
9.85642e-05
0.000120614
0.000124994
0.000125734
0.000122885
0.000102476
0.000108375
5.90947e-05
0.000101875
0.00011786
4.86836e-05
6.16222e-05
4.90142e-05
2.85898e-05
4.63041e-05
0.000131751
)
;
    }
    inlet
    {
        type            calculated;
        value           nonuniform 0();
    }
    outlet
    {
        type            calculated;
        value           nonuniform 0();
    }
    wallInner
    {
        type            nutkWallFunction;
        Cmu             0.09;
        kappa           0.41;
        E               9.8;
        value           nonuniform List<scalar> 
126
(
0.00017449
0.000240457
0.000123568
0.000125989
0.00022003
0.000212809
0.000114874
0.0001011
0.00011842
0.000213599
8.60976e-05
0.000172751
9.0304e-05
0.000127749
0.000191278
0.000190252
0.000120678
0.000101376
0.000120262
9.71443e-05
0.000235796
0.000107675
0.000226086
0.000153273
0.000131243
0.000212648
0.000203865
9.88033e-05
0.000110581
0.000168404
0.000106077
7.69447e-05
0.000190758
0.000245345
0.000204766
0.000166588
9.90422e-05
0.000214425
0.000104237
0.000198176
0.000177973
0.000128623
0.000102129
0.000199297
0.000219215
0.000116286
0.000116191
0.000121213
0.000113759
0.000167746
0.000121759
8.20569e-05
0.000154133
0.000218602
0.000144919
6.4209e-05
0.000111121
0.000189428
0.000162782
0.000126042
8.66863e-05
0.000102331
0.000121116
0.000180619
0.000111837
0.000171317
0.000172676
7.68047e-05
0.000136457
0.000170635
0.000170257
0.000174528
9.62171e-05
0.000174582
0.000186051
0.000196192
7.94168e-05
9.84139e-05
0.000122438
0.00013722
0.000128904
0.00013031
0.000189306
0.000195949
0.000194018
0.000200106
0.000179376
0.000185574
0.000135553
0.000214233
0.000164208
0.000152882
0.000132474
0.000196565
0.000108899
0.000185617
0.000106489
0.000102917
0.000185547
9.43554e-05
0.000126138
0.00014073
8.96316e-05
0.000177553
0.000193887
0.000127987
9.1552e-05
0.000190697
0.000266467
0.000177034
0.000153095
0.000115544
0.000203421
8.78997e-05
0.000101155
0.000115707
0.000114309
9.09168e-05
0.00010817
0.000226499
7.83664e-05
7.27965e-05
0.000207786
9.28439e-05
0.000154301
0.0001372
)
;
    }
    procBoundary1to0
    {
        type            processor;
        value           nonuniform List<scalar> 
29
(
0.00259565
0.00259565
0.00132217
0.00351207
0.00600663
0.00248054
0.00294852
0.000850672
0.00229357
0.00361789
0.00210203
0.00248054
0.00132217
0.00125848
0.00225275
0.00118123
0.00600663
0.00512456
0.00351207
0.00298023
0.000856561
0.000746754
0.00293926
0.000710865
0.000710865
0.00293926
0.0007278
0.000913275
0.0007278
)
;
    }
    procBoundary1to2
    {
        type            processor;
        value           uniform 0.00319854;
    }
    procBoundary1to3
    {
        type            processor;
        value           nonuniform List<scalar> 
48
(
0.0124605
0.00577674
0.00777676
0.00777676
0.00353948
0.00411752
0.00411752
0.00963602
0.015929
0.00213734
0.00181063
0.00213734
0.00176002
0.0025048
0.00315961
0.00176002
0.00142745
0.00142745
0.00138714
0.00138714
0.00158297
0.00149057
0.00163565
0.00156132
0.00156132
0.00176012
0.0017884
0.0017884
0.00478569
0.00280934
0.00192345
0.00478569
0.00963602
0.0163127
0.00161706
0.00280934
0.0141152
0.00181063
0.0145655
0.00278518
0.00199328
0.0157747
0.0163127
0.00161706
0.00329235
0.000936871
0.00334661
0.00199328
)
;
    }
}


// ************************************************************************* //
