/*--------------------------------*- C++ -*----------------------------------*\
| =========                 |                                                 |
| \\      /  F ield         | OpenFOAM: The Open Source CFD Toolbox           |
|  \\    /   O peration     | Version:  v1912                                 |
|   \\  /    A nd           | Website:  www.openfoam.com                      |
|    \\/     M anipulation  |                                                 |
\*---------------------------------------------------------------------------*/
FoamFile
{
    version     2.0;
    format      ascii;
    class       surfaceScalarField;
    location    "0.28";
    object      phi;
}
// * * * * * * * * * * * * * * * * * * * * * * * * * * * * * * * * * * * * * //

dimensions      [0 3 -1 0 0 0 0];
oriented        oriented;


internalField   nonuniform List<scalar> 
2776
(
-0.000263116
4.74614e-05
9.43509e-05
0.000121303
-0.00087081
0.000949088
0.000294341
-0.000372618
-0.000110983
-0.000175637
5.68664e-05
0.000229754
0.00010937
-2.68199e-05
0.00111159
-0.00119414
3.39434e-06
0.000597201
-0.000289234
-0.000311362
-0.000108409
-0.000610826
0.000433748
0.000285487
0.000177312
8.56195e-05
0.0001684
1.95944e-05
-0.000379616
0.000191622
0.00102037
0.000896295
-0.000900999
-0.00101566
-0.00118788
0.000984728
-0.000332272
0.000535423
-0.000432742
-0.00126435
0.000582201
0.0011149
0.000585922
0.000225918
-0.000757786
-5.40541e-05
0.000886328
0.000114217
-0.00136967
0.000369124
-0.000107791
-0.000227782
0.000338967
0.000211984
1.80698e-05
-0.000338462
0.000575252
-0.000211495
-0.000796499
-0.000135824
-4.5777e-05
0.000205112
-2.35102e-05
1.88343e-05
-0.000415154
0.00039632
0.000539034
-0.0001655
8.56361e-05
-0.000459171
0.000788699
-4.32583e-05
5.3822e-05
-0.000799263
-0.000751825
2.38484e-05
-2.09811e-05
0.000748958
8.01494e-07
0.000228993
-0.000331747
0.000101952
0.000598822
3.41358e-05
-3.28127e-05
-0.000600145
0.000745316
5.39191e-05
-3.42694e-05
-0.000764966
0.0003129
-0.000383768
-0.00118366
0.00125453
5.9855e-05
-3.09796e-05
8.24667e-05
-0.000111342
-0.000233277
1.71025e-05
0.000139192
0.000721392
-0.000813501
-4.70831e-05
1.68306e-06
-6.25667e-05
0.000101801
-4.09173e-05
-0.000373715
0.00042983
0.000641884
-0.000697999
0.000615277
-0.000999813
-0.000106909
0.000491445
7.11438e-05
-1.13732e-06
1.33815e-06
-7.13447e-05
-0.000144633
0.00038135
-7.31065e-05
-0.00016361
-0.000706654
0.000743739
-0.000808886
0.000771801
4.71958e-05
7.93035e-06
0.000415698
5.39119e-05
-2.45527e-05
-2.76761e-05
-0.000586648
0.000234415
-0.000908075
3.25753e-05
0.00109716
-0.000283107
-0.000814051
7.34576e-06
-3.54238e-05
2.80781e-05
-4.23892e-05
-0.000323576
0.000365965
-0.000492633
0.000561842
-6.92086e-05
-0.000509951
0.000491832
1.81197e-05
0.000577665
-0.000106602
-0.000471063
8.45549e-05
-2.91868e-05
-5.53681e-05
0.000563563
-9.19121e-05
0.000978371
7.26948e-05
0.000324516
-0.000455659
0.000131143
-0.000506344
0.00052576
-1.94157e-05
-0.000392981
0.000408112
-1.51313e-05
-0.000213432
9.00625e-05
0.00012337
-0.000211694
-0.000659117
-0.000538545
-7.22802e-05
0.00054672
5.0481e-05
-3.99925e-05
-0.000104641
-0.00110213
0.00141503
0.000328564
3.35954e-05
-0.000362159
-0.0010158
-0.000248558
0.000108441
-0.000266659
0.000158218
-0.000974216
-0.000213662
4.92291e-05
2.73205e-05
-2.5033e-05
-5.15166e-05
0.000304942
-0.000240158
-0.000107172
7.37118e-06
2.52605e-05
-2.5286e-05
-0.000214687
5.9553e-05
0.000595596
-0.000440462
0.000891898
-0.000783071
-0.000226204
0.000117377
0.00020658
-0.000247932
0.000139899
-9.85467e-05
0.000116177
0.000128151
-7.33201e-05
-0.000171008
-0.000205516
-7.12102e-05
-0.000485343
0.000907842
-0.000912763
6.79845e-05
-6.30639e-05
0.000141826
-0.000244225
-0.000178887
0.000281286
0.000129014
-0.00012612
5.60606e-05
-5.89544e-05
6.79838e-05
-0.000552638
0.000484655
5.63018e-05
-0.000541667
0.000485365
0.00106745
-0.000456633
-0.00081707
0.000206251
5.75695e-05
-9.69289e-05
8.85885e-05
-0.000679287
-8.20009e-05
0.000333207
0.000428081
-0.000187558
0.000387402
0.000105098
-2.63452e-05
6.4263e-06
2.72901e-05
-0.000306189
0.000257016
4.91728e-05
0.000115778
-0.000412335
0.00036109
-6.45338e-05
-0.000684643
6.42067e-05
-0.000126483
0.00074692
-0.00038747
0.00057626
0.000393411
3.69357e-05
0.000131552
-6.92096e-05
-9.92779e-05
-0.00027639
-5.82897e-05
0.000232191
0.000102488
-0.000567957
2.01706e-05
0.000565129
-1.7343e-05
-7.82257e-05
0.000614337
-0.00060155
6.54386e-05
-0.000913221
0.00101584
-0.000809269
4.63872e-05
-1.91188e-05
0.000348835
-0.000376103
0.00091001
-0.000497495
5.38207e-05
-3.55218e-05
6.85048e-05
-8.68037e-05
3.874e-05
-9.72658e-06
3.08416e-05
-0.000239443
7.16765e-05
-6.55106e-05
0.000225979
-0.00086366
0.000747051
-2.40404e-05
4.94316e-05
-4.92261e-05
2.38349e-05
8.05083e-05
-0.000247398
0.000186484
-0.000150976
0.00081875
0.000130338
-3.74253e-05
-8.17595e-05
-0.000143538
-0.000145696
0.000220315
2.06758e-05
6.93867e-05
5.911e-05
0.000265406
-3.634e-05
-0.000470004
-0.000559253
4.93017e-05
3.0891e-05
-0.000410507
-1.27858e-05
9.10613e-05
0.000396505
0.000718391
6.54484e-05
3.79463e-05
-2.67458e-05
1.612e-05
0.000573787
-0.00060773
2.653e-05
7.41311e-06
0.000174242
-0.000243942
0.000117162
0.000349389
0.000635338
-1.26759e-05
-6.14886e-05
3.60196e-06
7.05625e-05
0.000443322
-0.000120923
0.000211322
-0.000581284
0.000955884
-8.34237e-06
0.000149408
3.62467e-05
-8.08171e-05
-1.9533e-05
3.24062e-05
-0.00112531
0.00102719
7.13002e-05
-0.000444698
3.83359e-05
0.000136949
0.000269413
0.000247992
-6.52058e-06
-0.000165955
-7.55159e-05
-0.000134554
0.000712219
2.06814e-07
8.4348e-05
0.000387522
-0.000208761
-0.000712755
0.00018726
0.000637232
-0.000111737
-0.000159129
0.000676984
2.49642e-05
-0.00054282
-0.000328786
0.000963138
5.36581e-05
-0.00068801
-5.93667e-05
6.59536e-06
7.73725e-05
-2.46012e-05
0.000132299
0.000534507
0.000146078
0.00065554
7.44003e-06
-5.14851e-05
-9.58575e-07
4.50036e-05
0.000192074
8.09642e-05
0.000141017
1.79062e-05
2.60074e-05
-1.16309e-05
-9.22957e-05
0.000803529
2.08827e-05
-0.000732116
0.000718262
2.56418e-05
-2.11638e-05
-0.00072274
0.000491808
-2.14591e-05
2.71767e-05
-0.000497526
0.000228349
-0.0002011
-0.000119833
9.25845e-05
-0.000615694
-0.000144974
7.01336e-05
0.000690534
7.53236e-05
-1.09087e-06
-3.08892e-06
8.12634e-05
-4.09264e-05
-1.90703e-05
-2.12667e-05
0.000134226
-0.000115418
3.18801e-05
-5.06885e-05
0.000174511
-0.000128748
8.05782e-06
5.17688e-05
-2.57047e-05
0.00022053
-0.000423134
0.000496945
-0.000849116
-0.000101312
0.000237673
0.000116032
-0.000127928
9.24045e-05
-0.000172647
-3.78513e-05
-2.30874e-05
0.000233585
0.000231417
-7.16326e-05
0.000114907
0.000756516
-6.83056e-05
-0.000803117
0.000492953
-0.000691117
-0.000715057
1.84265e-05
3.08887e-05
-2.48845e-07
-4.90664e-05
-0.000770886
0.00024236
0.000505353
2.31725e-05
3.23933e-06
-1.40005e-05
8.60848e-05
-0.00065734
0.000204211
0.000568907
-0.000170482
9.22562e-05
0.000554516
-0.000813753
-0.00018518
0.000444418
7.99265e-07
8.27792e-05
-0.000373721
0.000290142
0.000118686
-0.00044959
0.000796153
-0.000736846
8.67711e-05
0.000520195
-0.000491878
0.000103981
0.000702719
-0.000588245
-8.30923e-05
-3.13809e-05
0.000129297
0.00164164
-0.00130498
-0.000465955
0.000661063
-0.000899322
0.000377451
-4.42906e-06
1.38778e-05
3.64981e-05
-4.59469e-05
0.000263269
1.31236e-05
0.000131719
-4.43046e-05
0.000103031
0.000572287
-0.000688234
0.000115946
-0.000409731
0.00029142
-0.00129402
0.00141233
-0.000451734
-2.25425e-05
0.000621602
-0.000147325
0.000226372
-0.000196801
-0.000403286
1.28747e-06
7.036e-06
2.96228e-05
-4.69827e-06
5.64341e-05
7.72782e-05
-0.00133138
0.00117402
-0.000256457
0.000413817
0.000380483
-0.000326144
-0.000139602
8.52627e-05
0.000148458
-0.00054544
0.000504705
-0.000107723
-0.000264041
3.59416e-05
0.000139641
8.84583e-05
-2.46978e-05
-1.63505e-06
0.000386757
-0.000360424
0.000627107
1.24051e-05
-2.51759e-05
-0.000558261
3.61257e-05
-4.58212e-05
-0.000324848
-0.000165912
0.00021437
-0.00103471
-0.000171506
0.000293455
-9.27298e-05
6.55426e-06
-0.000220013
0.000752644
-0.000196856
-0.000648084
7.43783e-05
-6.54367e-05
-3.39747e-05
-0.000417268
0.000269781
0.000373466
0.000251639
0.000395364
-0.000606366
-4.06372e-05
0.000110683
0.000169187
-0.00105076
4.98611e-06
1.43484e-05
-1.80471e-05
-0.000100434
-0.000143791
-0.000430434
0.000363529
0.000578863
-0.000511958
-0.000241957
7.03819e-05
2.3457e-05
0.000148118
-0.000831451
0.000467397
-0.000377085
-0.000199133
0.000158951
0.000108813
-3.39532e-05
-0.000512482
0.000456019
0.000378786
-0.000322323
-0.000434468
0.000397822
8.0213e-05
-4.35673e-05
-0.000114783
-7.62969e-05
6.49597e-05
-0.000245856
-0.000429269
8.94937e-05
0.000735139
0.000497967
0.000805192
-0.000420374
-0.000882786
-1.60788e-05
1.22443e-05
2.51395e-05
-2.13049e-05
1.11307e-05
0.000778918
-1.34923e-06
4.57993e-05
0.000584031
-9.07966e-05
-3.53347e-05
4.15091e-06
-0.000574955
0.000606139
-3.40662e-05
2.29539e-05
-0.000206473
0.000217585
0.000478502
-0.00019139
0.000373952
1.44234e-05
-0.000735398
-3.08507e-05
6.62721e-05
-0.000623854
0.000830512
-0.00027293
0.000651324
0.000114249
-0.000138466
-0.000545145
5.31562e-05
-0.000216704
-0.00046761
0.000359467
-0.000192491
0.000745973
0.000242671
-0.000172608
0.000532649
0.000160154
-3.40841e-05
-1.24502e-05
-1.49543e-05
-2.75506e-05
-4.1787e-05
2.59298e-05
-4.76895e-05
3.87221e-06
-0.00050149
0.000367565
-0.000107157
-0.000327893
6.14786e-05
0.000373572
0.000109326
0.000151873
-3.17836e-05
-0.000229415
2.28052e-05
-3.94364e-05
-8.03887e-05
6.21595e-05
-1.58548e-05
3.11898e-05
-3.61849e-05
6.10557e-05
-4.77333e-05
0.000327672
-0.000566922
0.000286983
-7.3412e-06
-0.00042967
-0.000169355
-0.000102793
0.000413541
-0.000384459
7.37113e-05
0.000196967
0.000105227
-0.00017812
-0.000124074
-5.88774e-05
-0.000245933
4.07495e-05
-7.71327e-05
5.93297e-05
-2.29466e-05
1.77945e-06
0.0001602
0.000112765
-0.00012622
-0.000146745
8.96978e-05
-5.35392e-05
-0.000448493
0.000476062
-0.000444436
-0.000394357
2.28475e-05
9.81642e-07
-1.19479e-05
-1.18812e-05
8.37432e-05
-0.000651385
2.65318e-06
1.77742e-06
-7.43822e-05
6.99516e-05
-0.000262448
0.000920168
-0.000297122
0.000254305
-2.9645e-05
7.24626e-05
-0.000309026
0.000762545
0.000623069
0.000217918
-0.000189664
0.000918402
-0.000424214
0.000920381
-0.000157637
0.000186144
0.000638483
-0.00066699
-7.47625e-06
5.57248e-05
-6.43274e-05
8.87606e-05
1.09293e-05
-9.07441e-05
0.000662079
-0.000806271
-0.000991824
0.00122993
0.000568164
-0.000381512
0.000385663
-0.000104661
0.000218911
9.72569e-05
-7.4303e-05
-3.9902e-05
0.000401801
-2.5437e-05
0.000488486
-2.79044e-05
-4.50443e-05
0.000473768
-0.000482954
-0.000531579
0.000540764
-7.71501e-07
-0.000447424
0.00053376
-8.63358e-05
-5.72385e-05
8.55375e-05
-0.000555444
-0.000145228
-0.00132636
0.000665312
0.000279127
-0.000449609
-0.000365697
-1.58153e-05
0.000101516
-4.25911e-06
1.99818e-05
8.0871e-06
-1.58245e-05
-6.91603e-05
0.000108479
-6.22487e-05
3.66619e-05
1.66806e-05
-0.000790453
0.000268042
-0.000184228
0.000706639
-0.000601988
0.000492244
0.000173708
-0.000211146
-7.798e-05
-2.74477e-06
5.03428e-05
2.36549e-06
-4.99635e-05
-0.000341234
0.0002542
0.000167216
-8.01815e-05
0.000355031
-0.000221139
0.000496108
-0.000629999
-0.000587416
0.000532492
0.000314485
-3.27299e-06
-7.84079e-05
-0.000232805
-9.7724e-05
8.02424e-05
0.000171262
-0.00015378
0.000343286
-0.00043196
3.1436e-05
-1.31856e-05
0.00031862
-0.00022315
5.70373e-05
-0.000100546
0.00095876
-0.000867615
-0.000511519
0.000559502
0.000391924
-0.000764165
3.3878e-05
6.04729e-05
-0.000828815
3.38663e-05
-0.000881884
0.000446462
-4.32264e-05
-0.000122685
0.000345526
-0.0003094
0.00023832
-4.37782e-05
-0.000209673
-3.89639e-05
2.77189e-05
-1.66595e-05
4.65811e-06
-0.000140606
7.7152e-06
0.000128233
5.02902e-06
0.000104138
6.80158e-06
-0.000115969
8.33359e-05
-2.38144e-05
-5.95216e-05
-0.00056818
0.00141332
-0.00110759
0.000221299
-0.000410311
-0.000562637
0.000265223
-0.000230223
-0.000381786
-0.000191434
7.49387e-05
-0.000240775
0.00035727
-0.000143972
0.00011388
0.000240677
-0.000210585
-0.000924341
0.000959647
0.000373442
-0.000408748
-0.000162366
8.96559e-05
-0.000914607
0.000987317
-0.00112947
0.000555221
0.000778464
-5.61092e-05
0.00042963
-0.000365914
0.000783102
0.00013268
0.000270521
-0.000150602
-0.000252598
8.87e-05
-0.000461258
4.23765e-05
0.000330182
0.000650899
-5.15513e-05
2.22544e-05
-2.76946e-05
9.02018e-05
5.13867e-05
-0.000113894
0.000715113
-3.3384e-05
0.000341429
-0.00102316
-3.83985e-05
8.26797e-05
-0.000188253
9.32308e-05
5.30922e-05
6.56606e-05
-2.53539e-05
7.53955e-06
-2.11495e-05
-0.00103506
-0.000214884
0.000291916
0.000958028
-0.00101251
0.000476906
0.00104383
-0.000508226
0.000153719
-0.000452961
0.000602272
0.000565802
-1.52172e-05
1.51256e-05
-5.93076e-05
0.000133098
0.000413543
-0.000487333
4.41411e-05
-0.000477856
0.000452549
-0.000477964
-0.000193743
-4.71825e-05
6.52888e-05
0.000843331
-0.000932427
0.000357137
-0.000244161
0.000317661
0.000400268
0.00124188
-0.000571004
0.000267348
-0.000938228
0.000475251
-9.39399e-05
-0.000270628
7.91318e-05
-1.84006e-05
-0.000291911
-1.56134e-05
0.000269957
3.75674e-05
-0.00025562
-0.000311057
0.00031766
0.000249017
-1.2256e-05
0.000115581
-4.64624e-05
-5.6863e-05
-0.000418011
-1.05858e-05
-0.000454189
0.000264498
-0.000169258
0.000288591
-0.000448031
0.000538174
-0.000378734
0.000506649
0.0011674
-3.24091e-05
-2.09781e-05
0.000104314
-0.000609227
-2.24939e-05
0.000827826
-0.000712387
0.000385407
-0.000500847
-0.000151692
-0.000847418
-3.56018e-05
0.000234658
0.000523978
-0.000550204
-0.000715026
0.00158849
0.000368416
-1.70272e-05
-0.00114702
0.0013267
-0.000162658
-3.7198e-05
0.000179942
0.00017621
-0.000265951
0.000147909
4.26085e-05
0.000104301
-9.29979e-05
-7.91431e-05
-0.000491861
0.00136425
-0.000560481
-0.00151879
0.000359708
-0.000456223
9.89949e-05
4.37492e-05
0.000394744
-8.28641e-05
5.43307e-05
-4.45019e-05
0.00069681
-1.15767e-05
-0.000359073
0.000422119
-5.147e-05
0.000221626
-0.000202987
-6.17549e-05
0.000175733
2.1996e-06
0.00070756
-0.000647384
-0.000541556
0.00048138
0.000706086
-0.000890113
0.000663811
-0.000479784
-0.000178375
9.92317e-05
0.000222297
0.000675365
-0.000481325
0.000325972
0.001115
0.00033616
1.40828e-05
0.000521914
-0.000305732
-0.000216181
0.000645676
-0.000904704
-0.00027523
0.000175669
-9.41818e-05
-0.000667319
-0.000399602
0.000352685
0.000714236
0.000249297
0.000573191
-0.000596571
0.00073124
-0.000209326
-0.000135262
-7.28632e-05
0.000184084
0.000523381
-0.000753113
0.000521614
-0.000138217
0.000125501
-0.000508898
-0.000110347
0.000436869
0.000102134
-0.000428655
0.000549524
-0.000138257
0.00011022
0.000592223
-0.000152919
-0.000463584
9.67457e-05
0.000482835
-0.000115997
8.35042e-05
0.000353681
2.46976e-05
1.1556e-05
0.000209324
0.000132801
2.26408e-05
0.000229592
6.80034e-06
9.85202e-05
6.0002e-05
-9.84581e-05
-0.000130981
0.000169437
-0.000321223
-0.000248953
0.000348149
0.000222027
0.000146627
-0.000202978
0.00026635
-0.000209999
-0.000198583
-0.000293522
0.000170881
-0.000117526
0.000274498
0.000274346
-0.000431317
-1.96835e-05
-2.0331e-05
1.09555e-05
2.9059e-05
1.15746e-05
7.54682e-05
-0.000259327
0.000990566
-0.00017133
1.04718e-05
4.33317e-05
-4.91019e-05
2.94184e-05
-0.000170313
0.000161542
2.03458e-05
0.000127401
-0.000126453
-0.000534215
0.000115613
-0.000534687
0.000953289
6.87176e-05
9.64382e-05
-0.00117174
-0.000235045
0.00115518
0.000251606
-0.00011012
6.25138e-05
3.31107e-05
1.44953e-05
0.000589652
-0.000283434
-0.000840433
3.63692e-05
0.000125076
-0.000362718
0.000133309
0.000318775
-8.93666e-05
0.000195756
-0.000167038
-0.000176006
0.000147287
2.5114e-05
9.81822e-05
8.73181e-06
-0.000132028
-4.77569e-05
0.000753022
-0.000494756
0.000483368
-4.36715e-05
0.000129308
-0.000242068
-0.000348032
0.000306883
0.000283218
0.000198319
0.000227726
0.000136782
0.000130255
1.69627e-05
-0.000133955
4.51621e-05
7.31826e-05
-0.000210306
0.000222255
-0.000233616
0.000221667
2.33969e-05
-2.65456e-05
-0.000163889
4.31557e-05
-6.34303e-05
2.87749e-05
1.4929e-05
-0.00025401
-0.000709685
-0.00019827
-1.3696e-05
0.000240741
0.000271843
4.40332e-05
-0.000213902
-6.15931e-05
0.000119692
-1.71412e-05
-0.000120865
3.46211e-05
0.000171864
0.000180811
-5.85767e-05
-0.000165991
2.91669e-05
-0.000103385
-4.28156e-05
0.000117033
2.42697e-05
-1.10011e-05
-3.35996e-05
3.35737e-05
-0.000211949
0.0011347
1.81642e-05
-0.00115287
0.000143834
-0.000180147
0.000256842
-1.94454e-06
-4.71574e-05
-0.000130595
1.78093e-05
4.27817e-05
-0.000131073
8.82912e-05
5.23704e-05
9.36472e-05
-5.94513e-05
0.000100365
-6.94173e-05
-5.33595e-05
0.000113361
0.000140754
0.000142933
-0.00019004
0.000269667
-0.000202685
0.000155169
8.92257e-05
-0.000100561
0.000233889
0.000281199
-0.000340847
0.000181543
-0.000204177
0.00115181
0.000166991
-0.000228975
0.000217153
0.000106617
0.000309358
-0.000182085
0.00016962
-0.000309338
0.000187124
-4.74058e-05
-0.000137904
0.000251883
0.000154655
-0.000268634
0.000120123
-0.000148768
-9.93059e-06
4.03677e-07
9.52692e-06
0.00142147
-5.29089e-05
-0.00019377
-0.000133823
0.000229135
-1.25343e-05
-4.08252e-05
-5.79664e-06
1.14244e-06
-2.04388e-06
6.69808e-06
1.68621e-06
0.000249004
-0.000119139
-2.24648e-05
0.000143302
-0.000114215
0.000320342
-0.000163856
-0.000100206
-7.15996e-05
7.38559e-05
-7.79663e-05
2.42969e-05
-1.44107e-05
0.000196201
0.000207797
-0.000154701
0.000211557
-0.000164297
-0.000337905
0.000352507
8.21443e-05
-8.24489e-05
-4.02223e-05
7.23372e-05
-5.77411e-05
3.68801e-06
-1.8284e-05
6.20865e-05
-0.000316487
-9.7081e-06
-5.10985e-05
0.000126097
-0.000161314
0.000250358
0.000150465
-0.000270924
0.000125977
0.000273302
-0.000225895
0.000164149
-0.000224395
0.000111181
-0.000157142
-0.000159682
-0.000427075
0.000104086
0.000482671
0.000225481
-5.74244e-05
-0.000156652
-1.14042e-05
0.00016551
0.000211144
-8.54085e-05
-0.000291246
0.000160006
0.00116104
-0.000117584
-0.000499988
-0.00010508
0.000312876
1.76848e-05
-9.8113e-05
0.000206199
0.00115893
0.000238359
0.000115022
-0.000139515
0.000297795
-7.91589e-06
-0.000289251
-7.37452e-05
6.07781e-05
0.000349127
-9.89344e-05
-1.14053e-05
1.22267e-05
0.000542845
-1.28433e-05
-4.54212e-05
-0.000126112
0.00011062
0.000367998
-0.000418928
-0.000175222
-0.000398807
-0.000266874
0.000416728
0.000326744
0.000864285
-0.000635389
-0.00055564
-0.000122187
0.000478911
0.000706215
-0.000320245
-0.000227542
0.000386813
0.000160973
-0.000247874
0.0007241
-0.000682399
-0.000265411
0.000699937
-0.00017918
0.000186339
-9.79573e-05
-0.000249695
-0.000197475
-0.000534858
-8.87019e-05
0.000611984
-0.000857782
0.000971897
0.00021745
0.00016041
0.000173015
0.000126092
0.000533612
-0.000529678
0.000322809
0.00022915
-8.58967e-05
-0.000167146
2.38928e-05
0.00032457
-0.000223451
2.39694e-05
1.47801e-05
-0.0011611
0.00114408
0.00068424
0.000228434
-4.83888e-05
0.000248502
-5.91823e-05
-0.000150282
0.000169242
0.00070687
0.000731977
0.000209668
2.31262e-05
-0.000964771
3.80488e-05
0.000130063
0.000586549
1.53643e-05
7.53191e-05
-6.86059e-05
-6.44543e-05
-3.87771e-05
0.000465583
-0.00042276
-4.04542e-06
-0.000848498
0.000736967
0.000126628
-0.000229134
0.000233263
3.62324e-05
-0.000207409
0.000123758
-4.47506e-05
4.74821e-05
-8.06974e-05
6.6789e-05
0.000256225
0.000400727
-2.31804e-05
-0.000109512
0.000175474
0.00113695
-2.24246e-06
4.77007e-05
1.73438e-05
-0.000218377
-0.000379013
-0.000477347
0.000495055
-0.000236084
-0.000952038
0.000593536
-0.0007074
-9.61278e-05
-0.00042467
-0.000192902
-0.000635455
0.000945885
-0.000243995
0.000102441
0.000162896
-0.000208498
-0.000126909
-0.000127539
0.000270717
-0.000968212
0.000482247
-0.000156627
-0.00101016
0.000681106
-0.00062298
1.27619e-05
-2.26098e-05
0.000695054
-0.000685206
0.000264655
0.000299709
-4.72992e-05
-0.000407681
0.000155272
0.000169012
-0.000187431
-0.000118324
0.000167642
-0.000166078
-2.41574e-05
-0.000351264
0.000410781
-0.000157319
0.000196127
0.000414062
-0.000601789
3.68272e-05
0.000467986
0.000125342
-0.000191535
-0.000558146
-0.000684408
0.00126469
0.000216758
-6.91691e-05
0.000515172
0.000271985
0.000740167
-0.000708983
-0.000303169
-0.000224364
0.000276448
-0.00108714
-2.03464e-05
-1.15376e-05
0.000547056
-0.000525995
0.000313364
-0.000284279
0.000312812
-0.000341897
0.00153878
-0.00090355
0.00030379
-0.000939022
0.000451442
0.000246631
-0.000641965
-0.000301497
0.000896941
-0.000724793
-0.000409915
0.000237767
0.000334697
-0.000347004
-0.000424601
0.000765166
-0.0005842
-0.000509674
-1.21516e-06
-0.000120735
0.000524538
0.000107071
-0.000510874
-0.00125776
5.91171e-05
7.33368e-05
0.00082334
8.63505e-05
0.000212216
-0.00112191
0.000422144
0.000317393
0.000302581
-0.000295822
-0.000150552
0.000756077
-0.0009497
0.000575024
-0.000233474
-0.000288046
0.000157137
0.000364382
-0.000573653
0.000723795
-0.000725122
0.000741432
-0.000436964
0.000485834
2.31783e-05
0.0011394
-0.00114441
-0.000177726
-0.000453557
0.000952336
-0.000951767
-0.000349248
0.000536316
-0.00044931
0.000998589
-0.00102724
0.000949809
-0.000956314
-0.000318005
-2.49158e-05
-8.67489e-05
-0.000255818
0.000158235
0.000196577
6.16018e-06
0.000187646
3.53437e-05
-0.000219001
-0.000263818
-9.38265e-05
0.000175664
0.000168521
-0.00020403
-0.000631288
0.000305364
-0.000167775
-0.000854121
-0.000208673
0.000677291
-0.000835328
-0.000227901
-0.000289767
0.000856113
0.00080907
-8.1418e-05
-0.00016815
0.000118655
-0.00093029
-9.90381e-05
-8.24525e-05
8.53164e-05
-0.00091314
5.84435e-06
1.8907e-05
0.000892552
-0.000917303
-0.000153182
0.000131192
0.000634817
-0.000766009
-0.000313081
0.000147665
-0.000288273
0.000740011
-0.000581414
-0.000150768
-3.35746e-05
-0.000578065
-0.000236661
0.000422777
-0.000623648
-0.0001715
0.000824649
-0.000786755
-0.000660113
-0.000871365
0.00101032
0.000521159
2.37042e-05
-2.92303e-06
0.000931554
0.000134284
0.000226713
0.00103133
-0.00112451
0.000698411
-0.000135371
-0.0010692
0.00111337
9.1201e-05
-0.00113423
-3.69459e-05
5.57322e-05
-5.70987e-05
-0.000746633
-0.00025379
0.000735012
0.000149069
-0.00055587
-0.000117685
0.000584853
-0.000549137
-5.91466e-05
-0.00104292
-0.000473989
0.000457225
0.000149444
8.85504e-05
7.23098e-06
-3.50034e-05
-0.000742596
-0.000208067
-4.79605e-05
-0.000522536
4.58695e-05
0.000476667
5.22992e-06
-1.36705e-05
7.30328e-06
0.000282386
-0.00128762
-5.6595e-05
0.00106182
-0.000404097
-9.78753e-07
-6.67678e-06
-1.00355e-05
0.000575006
-0.000558294
-7.18329e-05
-6.11845e-05
-0.000970599
6.57687e-05
-1.19812e-05
-6.51928e-05
-4.54734e-05
-1.3457e-05
2.49772e-05
0.000677914
-0.00040953
0.000107053
0.000260816
0.000553505
0.000231009
0.000127563
6.33449e-05
0.000110679
-0.000469338
1.74249e-05
0.000133836
-0.000260727
9.51074e-05
-0.000256814
0.000383531
-6.52376e-05
-1.60997e-05
1.88232e-05
-3.09781e-05
8.55918e-05
-7.55919e-05
-0.000300223
0.000441454
-0.000121013
-2.0218e-05
0.000883352
-0.000775077
0.000565004
0.000126809
8.32638e-05
-0.000119352
0.00016482
-0.0001047
6.8431e-05
-3.28909e-05
9.90309e-05
-0.000134487
-6.25014e-05
1.84507e-05
-3.48747e-05
1.6424e-05
-5.61791e-05
5.98838e-06
-5.14619e-05
2.93028e-05
2.21591e-05
-5.59001e-05
5.37023e-05
2.19781e-06
-4.43944e-05
-0.000424577
-5.21897e-05
5.00227e-05
2.167e-06
0.000119977
-0.00112165
0.00119978
-0.000492428
-0.00154778
-5.53982e-06
2.39906e-05
-6.03291e-05
0.000183973
6.6551e-05
4.91844e-05
-7.67731e-05
2.53112e-05
5.32106e-05
0.000804491
-0.00080008
-0.000258201
2.3763e-05
1.51255e-06
-5.31218e-06
-0.000571249
-0.000198297
-0.000193116
0.000459195
0.000147982
-0.000108035
-6.63757e-05
6.04653e-06
-0.000184928
0.000155565
0.000106232
-0.000351103
1.37115e-05
0.000381532
3.19151e-05
-4.72632e-05
0.000744822
-7.82311e-05
-1.98247e-05
5.73343e-05
0.000660902
0.000906091
-0.000641039
0.000714658
6.7819e-05
0.000502908
-0.000347914
9.35076e-05
-7.87049e-05
-0.000212841
0.000123694
0.000115821
-0.00017708
-6.24353e-05
-0.000174936
-1.68134e-05
-0.000456669
0.00011228
-0.000756974
-0.000282922
0.000234222
0.000805674
0.000928732
-8.06844e-05
-0.000171476
0.00041437
3.90087e-05
-0.000468993
0.000124167
-1.98528e-05
0.000216244
-0.000180123
-0.000134197
-6.82529e-05
-7.7267e-05
0.000212071
-0.000139451
5.58153e-05
-7.38359e-05
-0.000189111
0.00012846
-4.15901e-05
-0.000391008
-0.000684728
0.000616422
0.000874784
2.62695e-05
-1.07554e-05
3.45275e-06
-0.000692704
0.000897101
-0.000117077
-0.000375247
0.000365842
-0.000302427
0.000453227
-8.06838e-05
1.18419e-05
2.28463e-05
4.59956e-05
-0.000278827
0.000163561
-3.46922e-05
-0.000152897
0.000126449
2.64482e-05
6.40096e-05
-8.94758e-05
2.54662e-05
4.28059e-05
-9.55712e-05
0.000199524
-0.000218677
0.000738666
0.000376952
-9.95635e-05
9.21616e-05
0.000176491
-0.000141251
-0.000355386
0.000515987
-3.6318e-05
-0.00124257
-0.000121031
0.000239094
0.00123958
-0.00117952
4.29683e-05
-9.25489e-05
8.18401e-06
9.22232e-05
-8.41805e-05
0.000137974
0.00041892
4.92008e-05
-4.04028e-05
0.000404743
-0.000302608
-0.000405976
-1.51761e-06
-0.000884692
-0.000475566
-0.0003029
-0.000119227
6.32806e-05
-0.000312879
-4.43264e-05
8.68309e-05
-5.76708e-05
1.51663e-05
0.000266721
2.13769e-05
-0.000317804
0.000154304
-0.000153649
-0.000325837
0.000101299
0.000494941
-4.47744e-05
9.89963e-06
-0.000295038
-0.0010276
0.00012671
0.000273306
-0.000278716
0.000131656
-8.19274e-06
-0.000340689
-0.000223468
0.000454645
-0.000150263
0.000470765
-0.000370151
0.000110639
-0.000413793
0.000152829
-1.35461e-05
-7.35137e-05
-0.000122108
0.000582971
-0.000131577
-6.90072e-05
-0.00018872
-0.000228254
-0.000785326
0.0010091
-0.000703356
0.00033145
-0.000499459
8.14332e-05
0.000937768
-0.000177788
0.000161148
-3.05427e-05
-0.000299722
0.000349578
-0.000280079
-0.000229597
-0.00048839
0.000477212
7.6854e-05
-3.89443e-06
-0.000153657
0.000816834
-0.000418108
-0.000823327
0.000189117
0.000115345
0.000284667
3.45191e-05
2.94905e-05
-0.000107798
0.00120099
-3.13202e-05
-9.96561e-05
-0.000686246
1.73115e-05
-0.000965626
0.000519624
-3.04267e-05
0.000187787
-3.47295e-05
0.000234444
-8.48086e-05
0.00010343
0.000211462
3.21052e-05
4.11391e-05
8.77012e-06
0.000590904
7.95072e-05
-0.000171083
0.000435152
9.57661e-05
-0.000119714
-6.87819e-05
-0.000284253
0.000157077
-1.82005e-05
-4.74232e-05
0.000136044
0.000133634
0.000370462
-0.000455794
-3.67758e-05
-0.00071309
-0.000522554
0.000450318
-4.32709e-05
8.50387e-05
0.000115256
-5.12885e-05
7.88745e-05
-1.69685e-05
-0.000318959
0.000206537
-0.000119037
0.000382377
-2.51754e-05
0.000147365
-0.000145364
0.000135121
-0.000167878
5.24835e-06
-5.57467e-05
0.000949563
-0.000557529
-0.000302378
0.000509659
-0.000325919
0.000147424
-0.000151938
3.63854e-05
0.000469694
-0.00120473
-0.000292571
-0.000172016
0.000625134
-0.000617569
-0.000127045
-0.000546459
0.00046181
-0.000188679
-2.71637e-05
-3.94011e-05
-0.000586957
-0.00056594
-0.0013437
-0.00041888
0.000417606
-0.000374887
0.000163363
0.000454396
-0.000240178
-0.00037758
0.000177402
-0.000133127
-2.5999e-05
0.00024811
-0.00027565
-0.000166767
0.000502608
-0.000395149
0.000143006
-0.00012159
-0.000518911
0.00111907
-0.0010123
8.20441e-05
0.000385687
-0.00025459
8.46054e-05
0.000271384
-8.60325e-05
-6.1848e-05
2.85379e-05
4.0346e-05
-0.000252398
-0.00158043
-0.00088704
-0.000367653
0.000303889
0.000308625
-5.52213e-05
3.81245e-05
-0.000150131
-4.89089e-05
1.03607e-05
-1.16829e-05
-9.52247e-05
-0.000153096
-8.69855e-05
-4.74261e-05
-0.000572017
0.000583148
-0.000518195
0.000575936
7.21179e-06
-0.000525678
0.000454857
7.08215e-05
-0.000454426
-6.37689e-05
4.30328e-07
-0.000725593
0.000740016
-0.000574388
0.000585451
-1.10632e-05
-0.000528589
-0.000655718
-6.98754e-05
0.000719035
0.000694027
2.50079e-05
-0.000566224
-0.000442952
0.000480686
-0.000421085
-5.96011e-05
-0.000334195
-0.000108758
-0.000226946
-0.000107248
0.000150339
-7.99567e-05
-7.66077e-05
0.000681372
1.2655e-05
0.000701377
-2.00045e-05
0.000722259
-5.17308e-07
0.000580148
-0.000374892
0.000137634
-1.34672e-05
-0.000179784
-0.000381373
0.00021926
-0.000249563
0.000146165
0.000132415
3.27151e-05
0.000397163
-0.000403941
-0.000755024
0.000144207
-5.45715e-06
4.00724e-05
0.000417934
-0.000722092
0.00025218
-0.000287062
0.000203309
0.000147839
0.000102772
2.3677e-05
-0.000858788
-7.89079e-05
6.39247e-05
0.000165241
-8.41996e-05
9.16993e-05
-0.000870889
-0.00018682
-0.00154405
0.000556964
0.000288958
-0.000224896
-1.47603e-05
0.000714067
0.000338886
-0.000435104
-7.69734e-06
1.38356e-06
0.00107591
-0.00128539
7.38519e-05
7.59861e-06
-8.14505e-05
0.00126892
3.66034e-05
6.28611e-05
0.000189501
-0.000159059
8.73289e-05
1.22421e-06
0.000275829
0.00083569
-0.000886112
-0.000367687
-1.58174e-05
-8.81659e-08
-0.000399309
0.000231104
0.000740492
0.000915018
-0.000921493
-0.000194415
-2.78377e-05
8.95515e-05
-3.82835e-05
0.000259705
-0.000161556
0.000172372
-0.000458425
-0.000830968
-0.000219746
-0.000102484
0.000182466
-0.000118678
0.000164914
-0.000228703
0.000244843
0.000236449
-0.000226987
0.000119396
-0.000163593
-3.7116e-05
-0.000202157
0.000509054
0.000106876
-8.54803e-05
-5.33135e-05
-3.95125e-05
0.000101481
0.000221545
0.000386227
-0.000574578
1.23456e-05
-0.000150787
0.000669961
0.000609492
-0.000170213
-5.56713e-05
-0.000534624
-0.000666984
0.00065414
-0.000183856
1.18397e-05
-0.000753386
0.000542767
-0.000155295
-0.000281767
0.000147079
7.85787e-05
0.000194156
0.000451004
-0.000634739
-0.000148538
0.000225199
7.42012e-05
7.52385e-05
-1.91406e-05
-0.000600904
2.82085e-05
-2.46692e-05
-1.40611e-05
0.000402107
0.00013303
0.000424445
0.000453858
-0.000126899
0.000140363
0.000293626
-0.000419739
-9.92661e-06
3.57865e-05
-1.51202e-05
-4.18159e-05
-5.638e-05
-6.04755e-05
3.97993e-05
-0.000646261
-0.00137687
0.00113932
0.000201078
-9.25416e-05
0.000841027
0.000191083
7.83692e-05
0.000175536
-4.52699e-05
-0.000190337
0.000276435
-8.17153e-05
2.00478e-05
0.000102807
-0.000139255
0.000151526
-0.000231271
2.16068e-05
-1.66196e-05
0.000170676
0.000799196
0.000498673
-0.000327819
-0.000128561
0.000249876
-0.000181911
-0.000352218
-4.03745e-05
-2.79246e-05
-0.000271557
8.54552e-05
-0.000487282
8.04148e-05
0.000301462
-0.000404057
2.21796e-05
-0.000256229
-4.15984e-05
-5.37556e-05
8.49453e-05
-0.000429444