/*--------------------------------*- C++ -*----------------------------------*\
| =========                 |                                                 |
| \\      /  F ield         | OpenFOAM: The Open Source CFD Toolbox           |
|  \\    /   O peration     | Version:  v1912                                 |
|   \\  /    A nd           | Website:  www.openfoam.com                      |
|    \\/     M anipulation  |                                                 |
\*---------------------------------------------------------------------------*/
FoamFile
{
    version     2.0;
    format      ascii;
    class       volScalarField;
    location    "0.89";
    object      nut;
}
// * * * * * * * * * * * * * * * * * * * * * * * * * * * * * * * * * * * * * //

dimensions      [0 2 -1 0 0 0 0];


internalField   nonuniform List<scalar> 
1466
(
0.000738608
0.00102329
0.00195948
0.000450115
0.000847361
0.00109957
0.000863912
0.0011229
0.00244044
0.000594485
0.000660426
0.00180157
0.000101069
0.000440639
0.000815811
0.000338409
0.000271586
0.000350163
0.00161842
0.00044735
0.00171487
0.00141268
0.000220181
0.00130106
0.000485176
0.00402406
0.00498298
0.00140154
0.000299492
0.000360299
0.0011058
0.00146084
0.00183429
0.000855755
0.000418158
0.000923324
0.000504631
0.000679722
0.00309256
0.00129712
0.00177526
0.000784308
0.0015231
0.00128747
0.00182278
0.00105431
0.00100836
0.000279603
0.000671955
0.0017652
0.00308495
0.000238473
0.00044921
0.00085213
0.000314964
0.00184462
0.000427473
0.0040452
0.000566083
0.0017798
0.000333461
0.000354581
0.000778598
0.00110324
0.000933283
0.000721639
0.00191761
0.00162467
0.00050572
0.000935809
0.00361481
0.000565894
0.000503227
0.00088074
0.000159914
0.00150358
0.00077066
0.000616804
0.000964074
0.00202287
0.0019285
0.000953475
0.000941404
0.000622285
0.00062471
0.00177225
0.000633864
0.00093782
0.000910974
0.00123646
0.000669245
0.000294354
0.0022489
0.000376498
0.00292132
0.00140603
0.000958242
0.000724584
0.00190093
0.00065991
0.000375862
0.00155096
0.0012148
0.000371085
0.000908148
0.00146441
0.00147025
0.000958614
0.00180867
0.000582367
0.000409
0.000551701
0.000799147
0.000766834
0.00011726
0.00563427
0.00025475
0.00034952
0.00153627
0.00461185
0.00130416
0.000539541
0.000212786
0.00103481
0.000877635
0.00195457
0.000651019
0.000792692
0.00223065
0.00305598
0.000784575
0.000692068
0.000814338
0.00194993
0.00341687
0.00214868
0.000944641
0.000738966
0.00173346
0.000463905
0.000267573
0.000283696
0.00223804
0.00262265
0.001778
0.000226563
0.000297343
0.00187957
0.00194887
0.000556318
0.00214412
0.000798802
0.000954539
0.00103182
0.000858248
0.005053
0.000585992
0.0018647
0.00220619
0.00165138
0.00163933
0.000716216
0.000676674
0.00137413
0.00140481
0.00221168
0.00243404
0.000152698
0.000599716
0.0049309
0.00144645
0.00175522
0.000699769
0.001812
0.00392116
0.00107177
0.00122406
0.00200084
0.00075363
0.00215892
0.000606589
0.00115349
0.00105233
0.000800177
0.0010661
0.000375391
0.00117307
0.0047873
0.0010371
0.000368
0.000264639
0.000182547
0.000755977
0.000757438
0.00108754
0.000658542
0.00168123
0.000678154
0.000598538
0.000502401
0.00098663
0.00227122
0.000944202
0.000655795
0.000807083
0.000820631
0.00117987
0.000520628
0.000797461
0.000747955
0.000811427
0.000894613
0.00242772
0.00113453
0.00180666
0.00112435
0.00163358
0.000149833
0.000404469
0.000708863
0.00520399
0.000748301
0.000435816
0.00110068
0.0016366
0.0012856
0.000449149
0.000570555
0.000718502
0.00228739
0.000981672
0.000817813
0.00098582
0.000469628
0.000888612
0.000772627
0.000569435
0.000729514
0.000789947
0.000570413
0.00234407
0.00101601
0.000312702
0.00110583
0.00104581
0.000223727
0.000734156
0.000271001
0.000173958
0.000242343
0.000941226
0.00400243
0.000793479
0.000809388
0.00101055
0.00388111
0.000585769
0.00268068
0.00535751
0.000985301
0.00120747
0.000979023
0.0034536
0.00135457
0.00109278
0.000750041
0.00251737
0.00108296
0.00201505
0.000658499
0.00319056
0.000543944
0.000890214
0.000588756
0.000857554
0.000675667
0.00068836
0.000948339
0.00185093
0.000905482
0.000702695
0.000200533
0.00025849
0.000494652
0.00165722
0.000584064
0.00332843
0.000362755
0.0060144
0.000692061
0.00143254
0.0025199
0.00398213
0.00126205
0.00107842
0.00253626
0.00387559
0.00690947
0.00270638
0.000313202
0.00107088
0.00132414
0.000556342
0.00376664
0.000794312
0.00134519
0.000760452
0.000584696
0.000151866
0.00661047
0.00292755
0.00213082
0.00234001
0.00160153
0.000792237
0.00169691
0.00091039
0.00267252
0.0018394
0.000673964
0.001469
0.00211827
0.00128049
0.00024338
0.000187274
0.000302641
0.000425676
0.000348631
0.000546677
0.00052529
0.000223116
0.000231654
0.000469293
0.000408084
0.000196495
0.000235994
0.000112514
0.000886859
0.000172791
0.000535982
0.000300355
0.000294671
0.000255331
0.000380461
0.000383763
0.000663739
0.000247907
0.000225597
0.00102519
0.00626129
0.00107578
0.00124838
0.00109446
0.000567188
0.000514055
0.00204775
0.000811055
0.000309304
0.00554418
0.002828
0.00578812
0.00205247
0.00212166
0.000368397
0.000200774
0.000417372
0.000396914
0.000515265
0.000299372
0.00030952
0.000592192
0.000196731
0.00024284
0.00022843
0.00034954
0.00020623
0.00027581
0.00539916
0.000863114
0.0001935
0.000682137
0.00128336
0.00364338
0.00227952
0.001069
0.00339637
0.000576255
0.00210866
0.000838841
0.00119428
0.00168515
0.00322082
0.00155886
0.0071621
0.000173682
0.000679625
0.00193369
0.00261037
0.000869248
0.000142202
0.000185027
0.00335687
0.00166511
0.00114661
0.00166004
0.00155243
0.00274866
0.00495436
0.00155261
0.00079179
0.00186747
0.00117743
0.000200056
0.000222792
0.00657453
0.00236329
0.00313872
0.0044693
0.00184891
0.00219979
0.00459334
0.00025718
0.00205874
0.00223087
0.0023536
0.00242098
0.00208536
0.00211287
0.00215196
0.00198805
0.0011472
0.00169835
0.00319132
0.00399684
0.0012214
0.00549117
0.00675694
0.00127169
0.005035
0.00447177
0.000523151
0.00143205
0.00242887
0.00462269
0.00470856
0.00652767
0.00397766
0.00374072
0.00714174
0.00450552
0.0073365
0.00601936
0.00345887
0.0044324
0.00682264
0.00455421
0.00407588
0.0058234
0.000673894
0.00466172
0.00666384
0.00363307
0.0042242
0.00463165
0.00281123
0.000722266
0.00601045
0.00144296
0.00111961
0.000502056
0.00492068
0.00486585
0.00467155
0.00382336
0.00139042
0.00134218
0.00060887
0.000560561
0.00159063
0.00193061
0.00100126
0.00133529
0.00121161
0.00149159
0.00158862
0.000840905
0.00141681
0.00320939
0.00089329
0.00181579
0.00144447
0.000683378
0.00164129
0.00351671
0.000310843
0.0014829
0.00189624
0.00655172
0.000642852
0.000584762
0.000768636
0.00171539
0.000218437
0.000976612
0.00382507
0.00202966
0.00180781
0.00479212
0.00398356
0.0048069
0.00371195
0.00107681
0.00391523
0.00471308
0.00314611
0.00414722
0.000691721
0.00175335
0.00456972
0.00462694
0.00442344
0.00679939
0.00363536
0.00113638
0.000847832
0.00130742
0.00335445
0.0039703
0.000227444
0.00396269
0.00156612
0.00215728
0.00455555
0.00425588
0.0043749
0.0057598
0.00166987
0.00548625
0.00178321
0.00104038
0.00560444
0.00695059
0.0042445
0.00657222
0.00437616
0.00292499
0.000372511
0.00665046
0.00697889
0.000849179
0.00173366
0.000716931
0.00659254
0.00248979
0.0022832
0.00483566
0.00100693
0.00128037
0.00362686
0.00435157
0.00106488
0.00145216
0.00233454
0.00618569
0.0017522
0.00174021
0.00144191
0.000785312
0.00397648
0.00677297
0.000485968
0.00557975
0.00370307
0.00180339
0.00191636
0.0036863
0.000562463
0.00418012
0.00371552
0.00345155
0.0015771
0.000750131
0.00313895
0.00202344
0.000892575
0.00733564
0.0009022
0.00159147
0.00712499
0.00289518
0.000169335
0.000253673
0.00185635
0.00189145
0.000808782
0.00173995
0.00205799
0.00207143
0.00704782
0.00226431
0.00726858
0.000906996
0.00163426
0.00176006
0.00392186
0.00303958
0.00354101
0.00171786
0.00614995
0.00640334
0.00214296
0.00185712
0.00256232
0.0046723
0.000509776
0.00460396
0.00638907
0.000440521
0.00572778
0.000695312
0.0013362
0.00137549
0.000455887
0.0014121
0.00141429
0.00415735
0.000492999
0.000834067
0.00141569
0.00682476
0.003602
0.00633808
0.00240867
0.000198831
0.00203494
0.00198395
0.00195281
0.00702167
0.000873128
0.00159993
0.00140257
0.00607477
0.000445474
0.00491039
0.00344531
0.00155764
0.00232714
0.00581495
0.00456402
0.00135373
0.000771749
0.00722504
0.00172216
0.0063045
0.00315658
0.00269578
0.00154424
0.00185302
0.00126205
0.00257885
0.00037237
0.00712703
0.00175147
0.000580617
0.0016626
0.00671917
0.00367445
0.00123497
0.00722412
0.00144434
0.00114171
0.000817727
0.00032273
0.00214805
0.000174184
0.000250121
0.00238165
0.00713221
0.00120858
0.00143658
0.000681232
0.001234
0.000184556
0.00183248
0.000615502
0.00302623
0.000809707
0.0017533
0.000340254
0.000760364
0.000873678
0.00100914
0.00508577
0.00206663
0.00261512
0.000722626
0.00116009
0.00134834
0.0014793
0.00244902
0.00348125
0.0015308
0.00141418
0.00652643
0.00214073
0.000941746
0.00278378
0.00674637
0.00349303
0.000811524
0.00140544
0.000231385
0.0011182
0.000853051
0.00148302
0.000602957
0.00144248
0.00677988
0.000870081
0.00544824
0.00261228
0.00401349
0.0016667
0.00232099
0.00621334
0.00152065
0.00281287
0.000672668
0.00606449
0.00152691
0.00297965
0.000678711
0.00167557
9.88596e-05
0.000102577
0.00381638
0.000103497
0.000122275
0.000897473
0.00716808
0.000256891
0.00011209
0.00011871
0.00013787
0.000249305
0.00214849
0.000174214
0.00108982
0.00319167
0.0014185
0.00202524
0.000173639
0.000484844
0.00192622
0.00247983
0.00142903
0.00587067
0.00238797
0.00177483
0.000567123
0.000154691
0.000638434
0.0016657
0.000401545
0.00107354
0.00196772
0.00179457
0.000165134
0.00193953
0.00186715
0.00293563
0.00202388
0.000441342
0.000226211
0.00170562
0.00138677
0.000733996
0.00127424
0.000766661
0.00153799
0.00303977
0.00637984
0.000128825
0.000187413
0.0019397
0.000611029
0.00125023
0.00141948
0.00430308
0.000181895
0.000926677
0.00126076
0.000593472
0.000485183
0.000931252
0.00248484
0.00415333
0.000851442
0.00195261
0.000190957
0.000316798
0.00244531
0.00139012
0.00200342
0.00149317
0.000335334
0.00460073
0.000670352
0.00106601
0.00330009
0.00437073
0.000202054
0.0011354
0.00511083
0.000478053
0.000971891
0.000509617
0.000353384
0.000896437
0.00131149
0.00328264
0.00105479
0.00413838
0.00278543
0.000186248
0.000194006
0.00146986
0.00156876
0.00126887
0.00248655
0.000746766
0.00198811
0.000820518
0.000675359
0.00100505
0.000628734
0.00261176
0.00183657
0.000388448
0.000259934
0.000218911
0.00145408
0.00185478
0.00272825
0.000292518
0.00367609
0.0015103
0.00161054
0.00399027
0.00324603
0.00647761
0.00167338
0.00240947
0.00607593
0.000158946
0.00368424
0.00347092
0.000318448
0.00170037
0.000144721
0.00126788
0.000281588
0.00373793
0.00107805
0.0014368
0.000905082
0.000510522
0.000916312
0.00298692
0.000582318
0.0013749
0.000251994
0.00553299
0.00131895
0.00172364
0.00171226
0.000973189
0.000787843
0.00391104
0.00444476
0.000967539
0.00268866
0.00497821
0.00161164
0.000612283
0.00163911
0.000987784
0.00251802
0.00424373
0.0012194
0.00141975
0.00170829
0.00047857
0.000546378
0.00143756
0.00388877
0.00483656
0.00508687
0.00536969
0.000986737
0.00116008
0.00155537
0.00145432
0.00421511
0.00314414
0.000233839
0.00172341
0.0007728
0.00171271
0.00128875
0.000730015
0.002374
0.0030717
0.00018886
0.00172057
0.000123974
0.00139634
0.000910874
0.000831534
0.000841682
0.000712582
0.00109144
0.00326363
0.0015572
0.00563645
0.00052433
0.00147758
0.00249568
0.00171219
0.00349976
0.0010603
0.000768128
0.000557025
0.00381966
0.000148684
0.00434816
0.00168564
0.00372621
0.00103587
0.000123954
0.00012601
0.00011786
0.0001254
0.000246753
0.000218007
0.00025581
0.000243612
0.000119146
0.000227353
0.000235282
0.000114359
0.00011266
0.000115061
0.00140293
0.000117422
0.000121668
0.00178377
0.000185061
0.00187142
0.000166473
0.000253881
0.00555259
0.00306776
0.00064839
0.000550297
0.000356877
0.00482292
0.000439862
0.0028539
0.00114808
0.000219617
0.00234014
0.000171198
0.00294077
0.00426074
0.000208031
0.00150663
0.000951773
0.000271014
0.000454863
0.00540401
0.0018498
0.00438329
0.00359161
0.00158562
0.00282407
0.000543022
0.000902127
0.000802248
0.00444067
0.00148868
0.000769412
0.000236398
0.000276441
0.00487564
0.00322381
0.000127672
0.00721909
0.00349862
0.00306981
0.000252274
0.000270461
0.00240679
0.00132278
0.00177385
0.000461324
0.000432202
0.00156954
0.000651926
0.000193578
0.00125912
0.000168563
0.000179469
0.00195567
0.000419639
0.00117009
0.00151234
0.000913605
0.000457426
0.00254921
0.000680091
0.000366114
0.000618793
0.000370805
0.00122795
0.00165831
0.00176254
0.000926166
0.000772677
0.0018499
0.00165087
0.00136675
0.00490141
0.000224062
0.000149844
0.00319753
0.00226186
0.000156413
0.00108604
0.0017968
0.0037482
0.000141258
0.00106967
0.00102334
0.000797053
0.00233589
0.00103019
0.000112562
0.00342955
0.00149451
0.000870485
0.00186529
0.00445573
0.0039465
0.000134567
0.00260648
0.00531499
0.00368126
0.00100974
0.000627553
0.00356865
0.000510348
0.000596043
0.000124385
0.00103028
0.000914156
0.000472078
0.00615051
0.0012432
0.0018285
0.000415655
0.000235927
0.00124625
0.000893995
0.00540683
0.00127799
0.00162754
0.000879014
0.00161104
0.000660055
0.00187452
0.000242132
0.000208446
0.00529445
0.000941539
0.00184241
0.00487446
0.00184266
0.00222665
0.000868679
0.00570628
0.0020138
0.00111611
0.00552454
0.000148864
0.000167388
0.00268681
0.00552518
0.00146946
0.00121583
0.000190593
0.000207905
0.00150588
0.00325313
0.00182798
0.000345009
0.000120347
0.000183166
0.00112752
0.000200244
0.00530529
0.00269628
0.00156548
0.000583921
0.00518245
0.000161004
0.000368318
0.000523838
0.000579229
0.00102778
0.000165101
0.000365394
0.00434363
0.000905665
0.000174697
0.000259144
0.000301448
0.00267516
0.000221004
0.00494844
0.000665767
0.000318924
0.000787478
0.00405041
0.000401025
0.000311623
0.00321192
0.000143275
0.00665284
0.00423659
0.000185951
0.000649311
0.00144738
0.000749534
0.000989222
0.00153783
0.000113226
0.00138812
0.00350538
0.000274558
0.000855555
0.00015565
0.000426313
0.000556575
0.00019837
0.00449184
0.000185805
0.00116113
0.000418971
0.000873467
0.00246441
0.00321103
0.00342508
0.000232514
0.0039543
0.00106916
0.00020978
0.000325068
0.000654477
0.00210956
0.000115882
0.00130831
0.0044
0.000753576
0.000161091
0.00133271
0.00155334
0.00173033
0.000359679
0.00460773
0.000300146
0.00131517
0.000503756
0.000395808
0.000157905
0.000456001
0.00406426
0.00117244
0.0028889
0.00134593
0.00163654
0.00100972
0.000567897
0.00015755
0.00068785
0.00613625
0.00252044
0.00350504
0.000388592
0.00244971
0.000673079
0.00528067
0.00133571
0.00158226
0.00109328
0.000678451
0.000449544
0.00664185
0.0049987
0.00481982
0.000588025
0.00167567
0.0039799
0.0013968
0.00563837
0.00075405
0.00281966
0.00420922
0.00244262
0.000156018
0.00112436
0.000984155
0.00143022
0.00116657
0.00458302
0.000382199
0.000127972
0.00716869
0.00339772
0.000634504
0.000714844
0.000921167
0.000297696
0.000555105
0.000385765
0.00398883
0.00271083
0.000821664
0.000913584
0.00069545
0.00202053
0.000885222
0.00598131
0.00704065
0.00342798
0.00638757
0.00112077
0.000618481
0.00263864
0.00139633
0.00209141
0.00405644
0.00246794
0.00326996
0.00450668
0.000711988
0.00213982
0.000853684
0.00423983
0.00372095
0.000910176
0.000361563
0.00128437
0.0011467
0.00296285
0.000743102
0.000853723
0.0016948
0.000169481
9.65425e-05
0.000670395
0.00312276
0.000981036
0.000334445
0.00717745
0.0034347
0.00301283
0.000479664
0.000741435
0.000795173
0.00338876
0.00113124
0.00135567
0.00286569
0.00112603
0.000730363
0.00266786
0.00203587
0.00110739
0.0010008
0.0011644
0.00669192
0.00290982
0.0010027
0.00520187
0.00483629
0.00317166
0.000106781
0.00364673
0.000186432
0.00292309
0.00375331
0.000157132
0.000368445
0.0048112
0.00255436
0.00319065
0.00239476
8.61215e-05
0.00283175
0.00180607
0.000834521
0.000370333
0.000158853
0.000469965
0.00388052
0.000908649
0.000620427
0.00170339
0.00542285
0.0012373
0.000671318
0.00268415
0.000768076
0.00133896
0.00418665
0.00121466
0.00145923
0.00160078
0.00129471
0.000444351
0.00548497
0.000495601
0.00075657
0.00243065
0.000122879
0.0012052
0.00110138
0.000865752
0.000697362
0.00156005
0.00567266
0.000113614
0.00103965
0.000829051
0.000182164
0.000571428
0.00244943
0.00112396
0.000832998
0.00435689
0.000414717
0.00336269
0.00104336
0.000835508
0.00455166
0.00396436
0.00204994
0.0042206
0.000730261
0.000568501
0.000815315
0.000430855
0.00112949
0.000479119
0.00145055
0.00316691
0.00273224
0.00660539
0.000107946
0.000802864
0.000776958
0.00108006
0.00100236
0.000168929
0.000770424
0.000209407
0.00425104
0.00110913
0.000577972
0.000455362
0.000699442
0.000873091
0.00157216
0.00164097
0.000473236
0.000703997
0.00141219
0.00092267
0.000959732
0.000477982
0.00101843
0.000751443
0.00369468
0.00171081
0.00027543
0.00118003
0.000467716
0.00236365
0.000352976
0.00155644
0.00162592
0.00539679
0.000747819
0.000942183
0.00183092
0.000212324
0.000302286
0.000681425
0.000792638
0.000416956
0.000526126
0.00164795
0.00173277
0.00110047
0.000509991
0.000742848
0.00129395
0.00678657
0.00294549
0.00154134
0.00115604
0.000559849
0.0006458
0.000425129
0.00282644
0.00251388
0.000522988
0.00122457
0.00055743
0.00108444
0.000971029
0.000744966
0.000401616
0.000640248
0.00125935
0.00105992
0.000268726
0.00291894
0.000828594
0.00125234
0.00104954
0.000573248
0.0025318
0.00275424
0.00201034
0.000723444
0.000952658
0.000742156
0.0017541
0.000959489
0.00018933
0.00387763
0.00407487
0.00431875
0.000488858
0.00101337
0.00318553
0.00180731
0.000989418
0.000364371
0.000436995
0.000471833
0.000273113
0.000392735
0.00027316
)
;

boundaryField
{
    frontAndBack
    {
        type            empty;
    }
    wallOuter
    {
        type            nutkWallFunction;
        Cmu             0.09;
        kappa           0.41;
        E               9.8;
        value           nonuniform List<scalar> 
102
(
8.35956e-06
8.35956e-06
2.55083e-05
1.69323e-05
1.07279e-05
1.57305e-05
1.8855e-05
2.03787e-05
8.25022e-06
8.74368e-06
8.98453e-06
1.15475e-05
1.02977e-05
1.09861e-05
1.38406e-05
2.85199e-05
1.90717e-05
1.92045e-05
1.65678e-05
1.8033e-05
2.60326e-05
1.24123e-05
2.08481e-05
2.11846e-05
3.71765e-05
2.05723e-05
2.16937e-05
1.67372e-05
1.51483e-05
2.10824e-05
1.19846e-05
1.16965e-05
1.2012e-05
1.08992e-05
1.19395e-05
2.81472e-05
2.43857e-05
2.9309e-05
2.77075e-05
1.10216e-05
2.55861e-05
2.66343e-05
1.0448e-05
1.03666e-05
1.07978e-05
1.11231e-05
1.16876e-05
1.77271e-05
2.90558e-05
2.49378e-05
1.85026e-05
2.34954e-05
3.12838e-05
2.70555e-05
3.20173e-05
1.2633e-05
2.90373e-05
3.13061e-05
1.84341e-05
1.98931e-05
2.60674e-05
1.64584e-05
1.43212e-05
1.00399e-05
1.366e-05
1.20205e-05
2.76101e-05
2.83259e-05
2.39842e-05
1.80243e-05
2.1287e-05
2.38587e-05
1.14116e-05
2.05136e-05
2.25558e-05
1.73846e-05
1.75574e-05
1.88958e-05
2.55605e-05
1.48564e-05
2.07243e-05
1.03222e-05
2.24373e-05
2.07145e-05
2.71274e-05
1.09024e-05
1.74134e-05
1.67423e-05
1.68884e-05
1.2659e-05
1.78628e-05
7.77659e-06
9.2217e-06
1.6564e-05
6.19486e-06
1.70931e-05
1.19332e-05
1.05803e-05
1.99653e-05
9.46167e-06
1.80715e-05
2.39314e-05
)
;
    }
    inlet
    {
        type            calculated;
        value           nonuniform 0();
    }
    outlet
    {
        type            calculated;
        value           nonuniform 0();
    }
    wallInner
    {
        type            nutkWallFunction;
        Cmu             0.09;
        kappa           0.41;
        E               9.8;
        value           nonuniform List<scalar> 
138
(
8.06642e-05
3.20762e-05
3.58719e-05
4.3928e-05
2.81442e-05
5.46602e-05
0.000101237
3.81463e-05
4.32565e-05
3.49124e-05
4.5644e-05
4.35952e-05
2.44098e-05
3.19352e-05
3.34991e-05
2.5885e-05
3.47548e-05
1.59178e-05
4.32484e-05
3.02435e-05
2.01845e-05
1.55662e-05
3.73309e-05
2.54917e-05
8.87255e-05
3.18157e-05
1.88044e-05
2.79897e-05
0.0001283
2.23743e-05
3.01481e-05
4.37808e-05
2.82913e-05
2.06259e-05
3.60306e-05
5.15722e-05
4.19079e-05
6.63314e-05
6.33359e-05
2.57041e-05
2.69098e-05
5.69435e-05
4.88115e-05
2.19979e-05
2.73845e-05
1.02444e-05
0.000106382
1.86829e-05
6.48475e-05
3.58504e-05
3.53652e-05
2.975e-05
4.57928e-05
4.63456e-05
8.03853e-05
2.88993e-05
2.62999e-05
3.58962e-05
4.38272e-05
2.27447e-05
5.05065e-05
4.79516e-05
6.24944e-05
3.5985e-05
3.69306e-05
7.1767e-05
2.24771e-05
2.81783e-05
2.64362e-05
4.15984e-05
2.34293e-05
3.25113e-05
2.16774e-05
1.39882e-05
2.04196e-05
2.25009e-05
2.55541e-05
2.97399e-05
0.000142775
6.45202e-05
8.13997e-05
8.80266e-05
6.07032e-05
7.35527e-05
6.77319e-05
3.76283e-05
7.86817e-05
7.18398e-05
2.54523e-05
0.000133378
0.000100924
2.62428e-05
4.46371e-05
6.87694e-05
1.81379e-05
2.94317e-05
5.58007e-05
2.21339e-05
7.11849e-05
1.87757e-05
2.9088e-05
3.9937e-05
2.64471e-05
0.000107654
2.97127e-05
5.38141e-05
2.02614e-05
3.91502e-05
2.23815e-05
4.18018e-05
8.14423e-05
3.12787e-05
2.39219e-05
3.80755e-05
2.95658e-05
2.71517e-05
1.54694e-05
2.02389e-05
4.17478e-05
2.13532e-05
7.41946e-05
4.4845e-05
1.57346e-05
8.00955e-05
1.52517e-05
4.35384e-05
3.23252e-05
1.66056e-05
2.35346e-05
3.57075e-05
1.62656e-05
3.65034e-05
0.000117
4.43721e-05
5.75321e-05
3.20495e-05
4.78441e-05
3.2351e-05
)
;
    }
    procBoundary2to0
    {
        type            processor;
        value           nonuniform List<scalar> 
42
(
0.00711965
0.00711965
0.000728231
0.000625817
0.00118736
0.00650771
0.000763823
0.000763823
0.0012311
0.00113234
0.00214852
0.00214852
0.00145473
0.00339845
0.00482813
0.00523903
0.00660029
0.000970295
0.00124828
0.00152071
0.00102802
0.000869231
0.000869231
0.000941323
0.00102802
0.000623118
0.00205134
0.000648319
0.00205134
0.00732999
0.00715064
0.000780637
0.000849227
0.0008059
0.000723172
0.000625817
0.00660029
0.000279682
0.00367614
0.000731282
0.000731282
0.00069034
)
;
    }
    procBoundary2to1
    {
        type            processor;
        value           uniform 0.00183137;
    }
    procBoundary2to3
    {
        type            processor;
        value           nonuniform List<scalar> 
29
(
0.00105949
0.00104109
0.00028612
0.000254089
0.000973305
0.000461947
0.000277394
0.000945116
0.0019011
0.00162963
0.000731613
0.00111584
0.000414938
0.00170127
0.00156312
0.00112827
0.0019582
0.0019582
0.00104109
0.00170127
0.00179274
0.00178516
0.000209838
0.00197651
0.00091886
0.00122369
0.0019011
0.00159065
0.00111584
)
;
    }
}


// ************************************************************************* //
