/*--------------------------------*- C++ -*----------------------------------*\
| =========                 |                                                 |
| \\      /  F ield         | OpenFOAM: The Open Source CFD Toolbox           |
|  \\    /   O peration     | Version:  v1912                                 |
|   \\  /    A nd           | Website:  www.openfoam.com                      |
|    \\/     M anipulation  |                                                 |
\*---------------------------------------------------------------------------*/
FoamFile
{
    version     2.0;
    format      ascii;
    class       volScalarField;
    location    "0.92";
    object      nut;
}
// * * * * * * * * * * * * * * * * * * * * * * * * * * * * * * * * * * * * * //

dimensions      [0 2 -1 0 0 0 0];


internalField   nonuniform List<scalar> 
1431
(
0.000511004
0.00418965
0.00226558
0.00150303
0.00056044
0.00164826
0.00133632
0.000786248
0.00759988
0.00637634
0.00124201
0.000501804
0.000671257
0.00132732
0.0053724
0.000693502
0.00483292
0.000957056
0.000241283
0.00111727
0.000440788
0.00695761
0.00310576
0.00142592
0.00143191
0.000971533
0.00138082
0.00123637
0.00100922
0.00114537
0.00147269
0.000726536
0.00194566
0.000552861
0.000450309
0.00197884
0.000781458
0.000858094
0.00199915
0.000856926
0.00235482
0.00065014
0.000784356
0.000630675
0.00365134
0.000572222
0.00234666
0.00081161
0.000889933
0.000869039
0.0010875
0.00461556
0.00539947
0.00144697
0.00095051
0.000771874
0.00246856
0.00280595
0.000993872
0.000399356
0.00326159
0.000868857
0.00229025
0.000782987
0.000904059
0.00103837
0.00233113
0.00117983
0.00354645
0.00075021
0.000505414
0.000412565
0.000842056
0.00169099
0.00149675
0.00117477
0.000613688
0.00296793
0.000784394
0.00205336
0.000805529
0.00104305
0.000417405
0.00280697
0.00199965
0.000625014
0.000823149
0.000780292
0.00153249
0.00107348
0.00115764
0.00101675
0.000798349
0.00086155
0.00101141
0.000637804
0.00140804
0.000728673
0.000876934
0.00111226
0.00453272
0.000805452
0.00119624
0.000718237
0.00112371
0.000845817
0.000785522
0.00298153
0.00208967
0.000594847
0.00231741
0.00128928
0.000755286
0.000922876
0.00114727
0.000707772
0.000893563
0.00589598
0.00164946
0.00279874
0.000859026
0.00430321
0.00394566
0.00137964
0.000831181
0.00151605
0.00178398
0.00097348
0.000658219
0.000809403
0.00131069
0.0028252
0.00101139
0.000973603
0.000761236
0.00111311
0.00093981
0.0014544
0.000939947
0.00278273
0.00668026
0.000853526
0.000769666
0.000948743
0.00111031
0.000775336
0.000733526
0.0030867
0.00104779
0.000805497
0.000818896
0.000955705
0.00186331
0.000168451
0.000440344
0.00087348
0.000802983
0.000855665
0.000756124
0.000709253
0.000969941
0.00138876
0.00119447
0.00109096
0.00086699
0.00281074
0.000642768
0.000863092
0.00111918
0.000977019
0.00107586
0.00127267
0.00136953
0.000768845
0.000771444
0.000302131
0.000418837
0.000875489
0.00118252
0.00071203
0.000839346
0.00505625
0.000754148
0.00096751
0.000773138
0.000813943
0.000753042
0.00114356
0.000842374
0.000799352
0.00138611
0.00435498
0.000633254
0.000790263
0.00829809
0.00084579
0.000784941
0.000841438
0.000478723
0.00033207
0.000267423
0.000661177
0.000754225
0.00228966
0.000785814
0.0017228
0.00063483
0.000834247
0.00148519
0.000878822
0.000789469
0.000782805
0.00164451
0.000831638
0.000890991
0.00109298
0.000756949
0.0012192
0.00190966
0.000833724
0.000830288
0.00213735
0.000776999
0.00212571
0.000825626
0.000875137
0.000976445
0.000888868
0.000830843
0.00160599
0.000672869
0.00119533
0.000746907
0.000796549
0.000790203
0.000783462
0.000736507
0.000768803
0.000826825
0.00179493
0.000841958
0.000725217
0.00816152
0.00344994
0.000861891
0.000818098
0.000830319
0.00068774
0.000883748
0.000977198
0.000723607
0.008082
0.00651336
0.00115146
0.0025647
0.00109302
0.000303388
0.00163738
0.00112852
0.00110239
0.00108122
0.00084287
0.000911886
0.00676344
0.000789825
0.000810542
0.0010294
0.000746447
0.000988481
0.00741491
0.000744718
0.000945936
0.000726529
0.000726523
0.00107051
0.000764954
0.00123219
0.00125126
0.0013553
0.00617562
0.00667168
0.00201906
0.00256047
0.000967727
0.00102634
0.00122962
0.000641351
0.0007548
0.000909052
0.000832498
0.000776418
0.000868797
0.000747884
0.00124291
0.000732123
0.000745157
0.000640849
0.000768332
0.00197075
0.000704797
0.000844044
0.00101762
0.00076757
0.000741258
0.000810569
0.00253747
0.000828546
0.00110035
0.00111051
0.000951166
0.0008361
0.000783612
0.00313547
0.000874585
0.000415921
0.00292911
0.00604497
0.00214137
0.000795113
0.00174776
0.00229718
0.00123422
0.00522627
0.00214783
0.00617316
0.00292869
0.000806644
0.00406404
0.00176651
0.000830944
0.00357032
0.00131854
0.00184982
0.0013434
0.000786132
0.00828365
0.00103813
0.00111348
0.00102151
0.000905218
0.000259649
0.000822519
0.00434972
0.000935505
0.00181445
0.000240858
0.000826201
0.000182893
0.000225711
0.000278012
0.000496917
0.000370843
0.000441239
0.000344441
0.000281169
0.000543725
0.000408871
0.000253099
0.000371865
0.00023691
0.000302316
0.000382236
0.000331334
0.000292818
0.000242343
0.000243524
0.000309376
0.00032702
0.0028135
0.00277036
0.00360952
0.00160981
0.00179973
0.000762177
0.00117593
0.00160214
0.00455073
0.00084202
0.000848847
0.000430067
0.000398845
0.000346594
0.000289651
0.000429442
0.000401931
0.000319355
0.00033078
0.00026276
0.000359532
0.000258096
0.0001922
0.00278334
0.000890377
0.000848692
0.00278267
0.00154714
0.00115778
0.000834641
0.005183
0.000771987
0.000250119
0.00444889
0.000832683
0.00101482
0.00376245
0.00078954
0.0020005
0.00072501
0.000797191
0.00349663
0.000830837
0.000549898
0.00146702
0.00215473
0.00101975
0.0010372
0.00528819
0.00733523
0.00139187
0.00111811
0.00219596
0.00220949
0.00659872
0.00161228
0.00151525
0.00553497
0.00233493
0.00491904
0.00609357
0.00552557
0.00534411
0.0012603
0.000544909
0.00285434
0.00221731
0.00591119
0.00294028
0.00298398
0.00128194
0.00210344
0.00148568
0.00134352
0.00232024
0.00191522
0.000335373
0.0034411
0.00453129
0.000997849
0.000375382
0.00442167
0.00347998
0.0059496
0.00418654
0.00675128
0.0026041
0.00666361
0.00581817
0.00512441
0.0063165
0.0022241
0.00300305
0.000362212
0.002021
0.00182361
0.00206481
0.00170557
0.000724153
0.00295189
0.0014372
0.00165061
0.00260875
0.00094523
0.000741438
0.00108121
0.00116613
0.0011373
0.00262767
0.00257375
0.00398149
0.000281527
0.00162805
0.000950262
0.00109096
0.000800109
0.000830617
0.000935413
0.00169409
0.00592612
0.00399844
0.000254111
0.000271862
0.000325974
0.00116003
0.00310543
0.000290916
0.000958589
0.0012641
0.00117546
0.000837181
0.00112249
0.00164883
0.00151382
0.00537376
0.00627016
0.00485583
0.000577547
0.000961642
0.0062797
0.0016247
0.00130723
0.00120619
0.000715384
0.000743831
0.00237423
0.000792394
0.00185107
0.00344327
0.00139092
0.00161134
0.00169642
0.00054866
0.000980354
0.000782159
0.000702458
0.00107958
0.00348854
0.00387146
0.00291511
0.000810487
0.00189599
0.00081341
0.000742303
0.00132425
0.000738708
0.00494201
0.00275025
0.00776784
0.00197932
0.00309541
0.00220747
0.00641364
0.00360414
0.00503568
0.00206928
0.000430735
0.00638338
0.0032644
0.000795948
0.00571753
0.00112018
0.00117966
0.000453916
0.00107758
0.00377158
0.00208313
0.00362446
0.00876456
0.00507106
0.00103856
0.000757975
0.00343183
0.00217392
0.00876876
0.00415483
0.0024947
0.000939509
0.00254063
0.000740066
0.00270427
0.00446315
0.000275519
0.00576187
0.00255408
0.00606988
0.00291112
0.000832351
0.00221837
0.00115093
0.0031906
0.00100142
0.000970691
0.000797936
0.00326405
0.00623423
0.000875323
0.00212879
0.00429939
0.000789155
0.00106249
0.000796505
0.00229929
0.0029785
0.000848187
0.000779209
0.000769174
0.00226518
0.000723205
0.00135387
0.000738841
0.000200236
0.00466508
0.00420595
0.000923024
0.00357729
0.00577657
0.00553827
0.00145295
0.00118614
0.00660199
0.00207312
0.00171349
0.00384007
0.00118943
0.005595
0.00193104
0.000744017
0.00279213
0.00422453
0.00746226
0.00538561
0.000864907
0.00199984
0.000962033
0.00137064
0.00100889
0.000934917
0.00105048
0.000754209
0.00383835
0.00080454
0.00639392
0.000955814
0.000366924
0.00080537
0.00210889
0.00467133
0.0010119
0.000732174
0.00108651
0.000962586
0.00386813
0.00711084
0.000806495
0.00450969
0.000729133
0.0078317
0.00406346
0.00655706
0.00527422
0.000994005
0.0014103
0.00260295
0.000765734
0.00112955
0.00710021
0.00432138
0.000820427
0.000841097
0.00162074
0.00457095
0.00675863
0.000784181
0.000978535
0.00110568
0.00082757
0.000222249
0.0008481
0.00666338
0.00499467
0.00298235
0.000736855
0.000821978
0.000976119
0.00676144
0.000802381
0.000760961
0.00132495
0.000983163
0.00137018
0.00104384
0.0052578
0.000521981
0.00120175
0.00150546
0.00120354
0.00172195
0.00148297
0.00771725
0.00415893
0.00123214
0.001937
0.00727137
0.00628519
0.000980532
0.00314628
0.00118023
0.000324096
0.000226978
0.000824479
0.00072111
0.00606592
0.00128956
0.000762758
0.00133422
0.000679511
0.00136366
0.00111887
0.00520804
0.000850308
0.00239761
0.00110994
0.000653856
0.000787641
0.00687773
0.00690424
0.000635506
0.00493379
0.00888191
0.000713863
0.00085504
0.00064448
0.000838844
0.000803505
0.00364598
0.00121197
0.000626318
0.00713288
0.00808206
0.000686449
0.000301311
0.00190653
0.000335669
0.000703117
0.000719608
0.00438507
0.000765368
0.000849192
0.00070199
0.00475963
0.000912899
0.00749391
0.00791733
0.000691269
0.000673018
0.00078532
0.000663514
0.000749008
0.000862632
0.00120358
0.000802092
0.00679019
0.000753977
0.000739648
0.000761375
0.0010791
0.00109909
0.000845058
0.000841345
0.000872567
0.00193998
0.00115415
0.00119936
0.00171861
0.00191996
0.000853444
0.00330315
0.00049663
0.00189666
0.000793608
0.000754141
0.00117937
0.00335759
0.000644447
0.000723686
0.000685201
0.000776963
0.000835852
0.00281097
0.00197213
0.00124635
0.000748137
0.000448618
0.000769266
0.00586495
0.0010452
0.0037029
0.000591768
0.0006705
0.00146235
0.00212844
0.00126116
0.000771034
0.000879068
0.000938042
0.000847845
0.000834493
0.000688049
0.000892861
0.00421621
0.000807372
0.00231851
0.00786956
0.000709689
0.00122057
0.000356854
0.00220143
0.0021121
0.000982471
0.00316294
0.000595218
0.000828724
0.000809148
0.0053604
0.000700883
0.00174259
0.00083381
0.000673751
0.00059737
0.000538644
0.000648966
0.000837384
0.000732223
0.000774036
0.00389901
0.000769888
0.000776513
0.000853774
0.0083469
0.00126842
0.000752666
0.000461929
0.000446991
0.000563623
0.000830451
0.000637088
0.00105206
0.00155741
0.00112465
0.000279298
0.00169855
0.000778005
0.000723361
0.000731677
0.000663797
0.00229957
0.000709838
0.000839937
0.00290294
0.00330785
0.000819307
0.00485302
0.00342567
0.00192742
0.000279799
0.00176682
0.000767527
0.00371843
0.00499802
0.000837715
0.000866473
0.000805781
0.000995027
0.00133525
0.00107396
0.00174494
0.00055839
0.000802996
0.000761322
0.000763137
0.000903091
0.000782957
0.0020115
0.000846366
0.00486788
0.000550513
0.000777881
0.00116783
0.000830326
0.00117491
0.000817887
0.00083671
0.00109608
0.00117451
0.00083266
0.000745884
0.000476602
0.00083834
0.00295062
0.00390032
0.000708496
0.00087648
0.00307564
0.00178759
0.000825188
0.00088891
0.00305053
0.000553111
0.000713251
0.00117876
0.000940998
0.00102999
0.0010076
0.00492674
0.00327738
0.000955204
0.000954414
0.000844913
0.00111418
0.000641876
0.000286754
0.000986232
0.000805346
0.00576197
0.00101522
0.00531567
0.00574253
0.00340071
0.000863483
0.00131554
0.000961515
0.00137023
0.00078353
0.000916289
0.000813907
0.000794101
0.00106223
0.000875295
0.00072998
0.00709812
0.000692854
0.00900225
0.000747929
0.00111282
0.000608603
0.000592761
0.000603898
0.00061982
0.000569124
0.000525563
0.0030673
0.00039218
0.000333089
0.000818951
0.000464477
0.000505007
0.000341277
0.00241477
0.00061384
0.00101058
0.000201129
0.00680356
0.000302692
0.000728997
0.00259832
0.00377354
0.00132418
0.000403554
0.000944764
0.00263323
0.00101861
0.00537574
0.00744746
0.00154418
0.00102617
0.00378318
0.000216331
0.000363766
0.000891615
0.000192039
0.00303572
0.00522519
0.0051148
0.00332986
0.000966854
0.00639768
0.00607587
0.000815857
0.000226346
0.000304177
0.00157704
0.00509403
0.000780638
0.00198344
0.00251324
0.00308501
0.000756873
0.000343662
0.0031093
0.000120379
0.00105114
0.00027927
0.000823425
0.00184108
0.00396498
0.000830215
0.00131421
0.00927153
0.00089681
0.00230758
0.000593953
0.000968178
0.00100696
0.000810112
0.00103099
0.000910343
0.000776488
0.00167351
0.00477172
0.000845987
0.0012975
0.00641462
0.00702091
0.0008123
0.000727245
0.000984034
0.00292819
0.00238137
0.0048439
0.000998999
0.00702784
0.00612909
0.00361196
0.00214317
0.00258284
0.00107507
0.00133121
0.00238163
0.00106959
0.000670148
0.00259881
0.00568606
0.00704989
0.00282278
0.00279907
0.0006874
0.00657107
0.00270526
0.00083748
0.00127477
0.00145418
0.00126603
0.000584138
0.000642713
0.000787774
0.00143253
0.00178313
0.00304845
0.00703682
0.000751135
0.00635961
0.00149805
0.00062419
0.0073057
0.00478797
0.00084183
0.000651255
0.000940481
0.000786197
0.000304671
0.000749111
0.00149886
0.00505793
0.000846337
0.000778704
0.000776991
0.00105842
0.001339
0.000777073
0.000840477
0.0071899
0.000959062
0.000797532
0.00081776
0.00208958
0.00082096
0.00114675
0.000257654
0.00077977
0.000791344
0.000802737
0.000290585
0.000598502
0.00106279
0.000739107
0.000745779
0.00031462
0.00103057
0.00103665
0.000794743
0.00815272
0.00141277
0.000743931
0.00105227
0.000767734
0.000534298
0.000151363
0.000895614
0.000833558
0.000686531
0.00243828
0.00195496
0.000160796
0.00132387
0.000881697
0.000465586
0.000865033
0.00632018
0.000721611
0.00109322
0.000809188
0.000496721
0.00655798
0.00125218
0.000698775
0.00153678
0.000907415
0.00450336
0.000696226
0.00107209
0.000800258
0.000751391
0.000986622
0.000790613
0.000178849
0.000909603
0.000120052
0.00123605
0.00151694
0.00154132
0.0010025
0.000788498
0.000295244
0.000562216
0.00958933
0.000436313
0.00108539
0.00226509
0.00103998
0.000817717
0.000468326
0.000521688
0.00105068
0.00919988
0.00710385
0.00131217
0.000799571
0.000812526
0.000361979
0.00172298
0.000821817
0.00299991
0.000563154
0.000625293
0.00753098
0.00096849
0.0010145
0.00583867
0.0011517
0.000514858
0.000835339
0.00134582
0.000144175
0.000556668
0.000641632
0.0071368
0.0015809
0.000771099
0.000509305
0.000533282
0.000130674
0.000840554
0.00160846
0.0077533
0.000801002
0.000838617
0.000839724
0.000786638
0.000288205
0.000472972
0.00425488
0.000619505
0.00324458
0.000745942
0.000659139
0.0037531
0.000827503
0.00312464
0.00901979
0.000592082
0.00060152
0.00106064
0.00221554
0.000870463
0.000178606
0.0053547
0.00747406
0.000867644
0.00590322
0.000974276
0.000739056
0.00721074
0.00254944
0.00237514
0.00105893
0.00716598
0.000881396
0.000851389
0.00120327
0.00632549
0.000842444
0.00081974
0.00161993
0.00713737
0.00125666
0.00106248
0.00103089
0.00275823
0.00185413
0.00186074
0.00158603
0.00140509
0.00707321
0.000473726
0.000285975
0.00479289
0.000745443
0.00146537
0.000740642
0.000772833
0.000844379
0.000906297
0.0020207
0.000550653
0.000900226
0.00015885
0.00593613
0.00107299
0.000746715
0.00187323
0.000555151
0.000995631
0.00311956
0.00158417
0.000871299
0.00082714
0.00669516
0.000852093
0.000463436
0.00284515
0.000727731
0.000844284
0.000930252
0.000790762
0.000976279
0.00319638
0.00561631
0.00212992
0.000622054
0.00684878
0.000949054
0.00135398
0.00142674
0.00366959
0.00549281
0.000769539
0.000844141
0.0054214
0.002391
0.00092644
0.00561658
0.00539966
0.00133382
0.000623034
0.00082837
0.00132417
0.000814266
0.00087534
0.000936207
0.000839023
0.00101097
0.000641204
0.00296783
0.000818238
0.000961266
0.00244363
0.00266935
0.00663192
0.00880225
0.00703011
0.00105823
0.00272884
0.00116937
0.0048621
0.00104931
0.000787897
0.000845888
0.000941993
0.00568336
0.00131016
0.000703002
0.00761989
0.000784789
0.00495595
0.00770029
0.00706324
0.00483772
0.00692738
0.000774612
0.00253398
0.00697255
0.000845298
0.000782731
0.000361377
0.00269586
0.00359164
0.000473432
0.00583768
0.00857707
0.000660628
0.00129777
0.000558791
0.000143923
0.00144609
0.00707805
0.00130669
0.00244701
0.00103938
0.000854919
0.00631093
0.00134368
0.00126444
0.00279785
0.000650958
0.00135049
0.000758354
0.00118749
0.00195709
0.000818219
0.00114577
0.00071398
0.00072632
0.00367995
0.00109455
0.000800707
0.000152682
0.00127948
0.00113949
0.000801512
0.00129244
0.0011302
0.00121092
0.000683383
0.00112973
0.00432785
0.00107678
0.00145945
0.000895134
0.000856568
0.000777425
0.00378936
0.0013867
0.00157512
0.000723594
0.0020415
0.00298202
0.00140187
0.000769105
0.000752674
0.000934887
0.000696424
0.000945921
0.000764693
0.00152028
0.000996609
0.00418811
0.000850565
0.00614298
0.001127
0.00079563
0.00720058
0.00135253
0.0020493
0.00186004
0.00277703
0.000811253
0.0010265
0.00186178
0.000842939
0.00274008
0.00072233
0.00119751
0.000936292
0.00134451
0.00122846
0.00689534
0.00122932
0.00118029
0.00135937
0.000411487
0.00135581
0.000852743
0.000837276
0.000831908
0.00133654
0.00252944
0.0015809
0.000877174
0.000909851
0.00091295
0.000792292
0.0012397
0.00553704
0.00901314
0.00719698
0.000741024
0.000668851
0.00951928
0.0072307
0.00916752
0.00708402
0.0058141
0.000802516
0.000758879
0.00115183
0.000744049
0.000615631
0.00095279
0.00164604
0.000567077
0.000864343
0.00120206
)
;

boundaryField
{
    frontAndBack
    {
        type            empty;
    }
    wallOuter
    {
        type            nutkWallFunction;
        Cmu             0.09;
        kappa           0.41;
        E               9.8;
        value           nonuniform List<scalar> 
90
(
8.34952e-05
7.67489e-05
7.78058e-05
7.5665e-05
8.27239e-05
8.46745e-05
8.65961e-05
9.41896e-05
8.0042e-05
8.89221e-05
9.14339e-05
9.51418e-05
9.0599e-05
9.32284e-05
9.23434e-05
0.000104904
9.97496e-05
8.1242e-05
7.22384e-05
6.52249e-05
7.83336e-05
0.000100158
8.80549e-05
9.28922e-05
8.00751e-05
0.000113524
0.000113413
8.77949e-05
8.34605e-05
7.35148e-05
7.1636e-05
7.29566e-05
7.48427e-05
6.88244e-05
6.3606e-05
5.61983e-05
2.23392e-05
3.53854e-05
8.76249e-05
4.86867e-05
2.44528e-05
4.36874e-05
0.000106283
2.08491e-05
2.58488e-05
3.60289e-05
1.13135e-05
0.000124194
3.22699e-05
0.000106919
0.000116754
8.07644e-05
7.54135e-05
9.34008e-05
9.7853e-05
3.37982e-05
3.67989e-05
0.000121896
0.000122626
8.94116e-05
6.47023e-05
1.53159e-05
1.67844e-05
0.000105158
9.69298e-05
8.41588e-05
0.000108121
1.91754e-05
0.000108318
1.10806e-05
6.23506e-05
1.47625e-05
9.25442e-05
1.27136e-05
9.59432e-05
7.48557e-05
7.16099e-05
0.000103929
1.91091e-05
0.000103563
5.73672e-05
0.000107258
1.66738e-05
7.51612e-05
7.73656e-05
1.45033e-05
9.59102e-05
1.56032e-05
8.23686e-05
8.38912e-05
)
;
    }
    inlet
    {
        type            calculated;
        value           uniform 0.000851986;
    }
    outlet
    {
        type            calculated;
        value           nonuniform 0();
    }
    wallInner
    {
        type            nutkWallFunction;
        Cmu             0.09;
        kappa           0.41;
        E               9.8;
        value           nonuniform List<scalar> 
138
(
6.043e-05
2.8673e-05
0.000220451
6.6496e-05
5.45372e-05
7.85275e-05
0.000260271
0.000138757
6.09288e-05
4.99585e-05
0.000137985
0.000119817
1.79646e-05
5.31807e-05
3.52602e-05
5.0693e-05
5.7583e-05
3.95116e-05
3.12478e-05
7.97608e-05
0.000239116
0.000128913
3.61743e-05
0.000132846
0.000129952
0.000127602
0.000121835
0.000126412
0.000121492
0.000129725
0.000130852
3.02883e-05
2.79542e-05
2.02346e-05
2.51912e-05
3.35416e-05
6.0109e-05
4.45172e-05
5.30007e-05
4.11555e-05
3.33922e-05
6.59042e-05
4.91169e-05
2.96531e-05
4.45098e-05
2.76155e-05
3.6136e-05
4.62935e-05
3.95372e-05
3.38552e-05
2.81845e-05
2.78476e-05
3.68571e-05
3.94962e-05
5.16551e-05
4.79294e-05
4.12646e-05
3.52363e-05
5.15896e-05
4.90015e-05
3.80645e-05
3.99503e-05
3.09738e-05
4.30108e-05
2.93074e-05
2.16513e-05
2.93504e-05
6.66238e-05
0.00012274
6.60444e-05
0.000156465
3.98548e-05
4.4974e-05
4.43593e-05
0.000127636
3.37217e-05
0.000128718
2.9654e-05
3.15149e-05
3.94998e-05
3.47851e-05
0.000147693
0.000174704
0.000152478
0.000141401
0.000161475
5.19314e-05
5.4815e-05
0.0001272
0.000122856
3.22799e-05
2.23601e-05
4.38253e-05
2.54068e-05
6.3121e-05
3.80177e-05
2.61105e-05
3.61022e-05
3.995e-05
8.32924e-05
0.000135894
6.02357e-05
8.26408e-05
5.42096e-05
0.000111619
4.23213e-05
5.55415e-05
0.000132418
3.31652e-05
3.37464e-05
3.47675e-05
0.00012549
4.68436e-05
3.96646e-05
4.09294e-05
0.000114833
9.08898e-05
4.07601e-05
0.000114951
0.000119285
3.65541e-05
2.95776e-05
9.35408e-05
5.6352e-05
3.58161e-05
5.29191e-05
9.72964e-05
4.29658e-05
3.48628e-05
5.74064e-05
3.31889e-05
8.06688e-05
0.000135452
8.94305e-05
7.42978e-05
0.00018885
6.86946e-05
0.000141125
)
;
    }
    procBoundary0to1
    {
        type            processor;
        value           nonuniform List<scalar> 
29
(
0.00108354
0.00188513
0.00187056
0.00187056
0.00512494
0.00512494
0.00294244
0.00132784
0.00190204
0.00240436
0.00176928
0.00194094
0.000723249
0.000581443
0.00227245
0.00129658
0.00790168
0.00581424
0.00269664
0.00183468
0.000872986
0.000732153
0.00319366
0.000742025
0.000728651
0.00581424
0.000728184
0.000916122
0.000742025
)
;
    }
    procBoundary0to2
    {
        type            processor;
        value           nonuniform List<scalar> 
42
(
0.00655783
0.00688184
0.000903813
0.000787136
0.00096002
0.00655783
0.000903813
0.000931131
0.00104022
0.000975954
0.00106567
0.00193191
0.00106567
0.00320494
0.00483812
0.00556182
0.00483812
0.000836369
0.00106135
0.00137693
0.00137693
0.000836369
0.000747665
0.000888331
0.000888331
0.000641188
0.00191698
0.000693527
0.00332913
0.00691974
0.00691974
0.000775444
0.000806937
0.00076116
0.000669196
0.000903813
0.0066237
0.000341687
0.00332913
0.000931131
0.000738452
0.000633937
)
;
    }
}


// ************************************************************************* //
