/*--------------------------------*- C++ -*----------------------------------*\
| =========                 |                                                 |
| \\      /  F ield         | OpenFOAM: The Open Source CFD Toolbox           |
|  \\    /   O peration     | Version:  v1912                                 |
|   \\  /    A nd           | Website:  www.openfoam.com                      |
|    \\/     M anipulation  |                                                 |
\*---------------------------------------------------------------------------*/
FoamFile
{
    version     2.0;
    format      ascii;
    class       volScalarField;
    location    "0.7";
    object      nut;
}
// * * * * * * * * * * * * * * * * * * * * * * * * * * * * * * * * * * * * * //

dimensions      [0 2 -1 0 0 0 0];


internalField   nonuniform List<scalar> 
5794
(
0.000544796
0.000757202
0.00524903
0.00421247
0.0108894
0.000703307
0.000822933
0.000857597
0.0022108
0.00111402
0.00204839
0.00158608
0.00131189
0.00917814
0.00206853
0.000633545
0.00948538
0.00745073
0.00111319
0.000529378
0.00140279
0.000696272
0.00123135
0.00149479
0.00107779
0.00435227
0.0122982
0.0153749
0.00382033
0.000845732
0.00130729
0.00221655
0.00238848
0.00198311
0.00201159
0.00251889
0.00078594
0.00175
0.00181309
0.00588731
0.00502753
0.00398725
0.000744103
0.000751236
0.00168671
0.00232882
0.00205529
0.00118713
0.0011345
0.000428599
0.000727547
0.00302743
0.000775182
0.00222852
0.000107718
0.002327
0.00210295
0.00166847
0.000732683
0.00576154
0.00132753
0.000537162
0.00137743
0.00520871
0.00564699
0.00073066
0.0038855
0.000662717
0.00588984
0.000743341
0.00624702
0.00372138
0.0151516
0.000916251
0.0061804
0.0115013
0.000493659
0.00386762
0.00069388
0.000193187
0.000418271
0.000511626
0.0076849
0.00167544
0.00172954
0.000870144
0.000707674
0.00101038
0.00294615
0.00207386
0.00498262
0.00201465
0.00334651
0.00546172
0.0025308
0.00813771
0.00392851
0.0031118
0.00188533
0.00142647
0.00140817
0.00123334
0.000758258
0.0130923
0.0012442
0.0116967
0.000504982
0.00408371
0.00515957
0.000659961
0.000781925
0.000514076
0.0013065
0.00153849
0.00228338
0.00407184
0.00261763
0.00550926
0.00123635
0.00101136
0.00743318
0.000242151
0.000771349
0.0138269
0.0011292
0.00374457
0.00393101
0.000699266
0.00360104
0.00388496
0.00192394
0.00165287
0.00359204
0.00367075
0.00986054
0.00235686
0.00297099
0.000600923
0.00202144
0.00143995
0.00101658
0.0108122
0.00104716
0.0126079
0.00274101
0.0129343
0.0017827
0.00148197
0.00906409
0.00636562
0.000725404
0.00203457
0.0110976
0.000947005
0.0135277
0.00180638
0.00157495
0.00103761
0.00215412
0.00156387
0.000533134
0.000887871
0.000480535
0.000872382
0.00198123
0.00193302
0.000789962
0.000727896
0.000445909
0.000294782
0.000503193
0.00195537
0.000638339
0.000649268
0.000552995
0.000946269
0.000405547
0.00085219
0.000638932
0.00188088
0.000913616
0.00126044
0.00071934
0.00153101
0.000749358
0.0037987
0.00116627
0.00110315
0.000600208
0.000854163
0.0016755
0.00149925
0.00169892
0.000941057
0.000813301
0.00104815
0.000653599
0.000362232
0.000634469
0.00101156
0.000705633
0.00210348
0.000995196
0.00089221
0.00175636
0.0020206
0.000675688
0.00571853
0.0119913
0.00183667
0.000759303
0.000857584
0.00278685
0.00198627
0.00203175
0.00235193
0.00280473
0.00414214
0.00350616
0.00564307
0.000856262
0.00200303
0.00831234
0.00358253
0.00236376
0.00637205
0.000660769
0.00271121
0.00217811
0.00267854
0.00103287
0.00093213
0.00137996
0.00365671
0.00328661
0.0100656
0.0126228
0.00211819
0.000886577
0.000520051
0.00067582
0.00751489
0.00203365
0.00162854
0.00153195
0.00122146
0.00156806
0.00836426
0.00112825
0.000929706
0.000663469
0.000716831
0.011916
0.000597735
0.000808989
0.0188248
0.000911856
0.000892527
0.00384382
0.00102238
0.00256256
0.00267436
0.00183804
0.000707099
0.00127486
0.00111385
0.00948175
0.00376518
0.000764799
0.00290364
0.00268826
0.00105933
0.00224396
0.00525534
0.000868161
0.00222207
0.00218803
0.000890087
0.00235637
0.00117889
0.000472823
0.00321046
0.00333268
0.00301703
0.00388943
0.00522951
0.00232214
0.00291374
0.00530163
0.00757332
0.00206788
0.00148012
0.00202994
0.00197098
0.000770387
0.00340045
0.00210032
0.00163732
0.00225081
0.000977126
0.000364888
0.000980951
0.000337885
0.00261984
0.0007429
0.0031578
0.00224491
0.0044804
0.00251709
0.00229525
0.00111681
0.00275888
0.00208562
0.00154172
0.000782834
0.000903706
0.00501649
0.0160504
0.00462835
0.00410841
0.00564069
0.00288876
0.00466713
0.0108474
0.000817183
0.00177333
0.000881248
0.00133845
0.00105582
0.00188234
0.00178977
0.000823193
0.000854156
0.00148573
0.00138764
0.000714608
0.000643631
0.000381264
0.000504426
0.000902842
0.000651464
0.000713603
0.0022948
0.000858644
0.000562203
0.000653692
0.001702
0.00133537
0.00226818
0.00165246
0.00189898
0.00241097
0.00147306
0.00126227
0.000783811
0.00261972
0.000465974
0.00191168
0.000742079
0.000658522
0.00568668
0.00287679
0.00299396
0.00164963
0.00110178
0.00416233
0.00177956
0.00156365
0.0013633
0.00108042
0.00288656
0.000532527
0.00482464
0.00134238
0.00639357
0.0030444
0.00168202
0.00157061
0.0017683
0.00137167
0.00663987
0.00291423
0.000749964
0.00200111
0.00165954
0.00173446
0.00622225
0.00266275
0.0022161
0.000890431
0.000746858
0.00158286
0.000656007
0.00096637
0.000599843
0.000591912
0.000535081
0.00117161
0.00113976
0.00143299
0.00139049
0.00149939
0.0129372
0.000371962
0.000353312
0.00268674
0.000804618
0.000863352
0.000494351
0.00403483
0.00328241
0.00190748
0.00449793
0.00118202
0.00176031
0.00152304
0.00068011
0.00571798
0.00196259
0.0034576
0.00176554
0.00286714
0.005199
0.00272454
0.000792284
0.000815258
0.000611428
0.00136075
0.000664563
0.000595548
0.00286185
0.000784025
0.0113083
0.00198883
0.00140011
0.00183499
0.00110937
0.00106792
0.00125954
0.00118346
0.00117068
0.000805353
0.000946014
0.00116357
0.000828983
0.00463675
0.00241623
0.00158226
0.000898552
0.00221176
0.000697226
0.000599121
0.0018372
0.00083549
0.00481838
0.000495522
0.00448198
0.00850714
0.00324688
0.00720331
0.00108204
0.0006662
0.000564346
0.00129567
0.00153352
0.00392819
0.00973529
0.0151497
0.00533033
0.000739393
0.000177649
0.0128863
0.00453636
0.00432201
0.00205003
0.00308099
0.0173973
0.0162689
0.00112591
0.000669462
0.000736122
0.0010877
0.000998711
0.00323792
0.0053138
0.00343416
0.000861123
0.000829631
0.00278698
0.000653102
0.000604466
0.00409544
0.0039741
0.00985609
0.000736973
0.00129989
0.000944774
0.00284444
0.00101178
0.00245206
0.0163169
0.0170434
0.00072837
0.00156006
0.0130664
0.000606158
0.00115148
0.0011171
0.00495184
0.000814535
0.00813705
0.00206116
0.0081722
0.000496736
0.00134266
0.00216374
0.00372843
0.000515835
0.000804813
0.0131182
0.000885802
0.000578679
0.0130844
0.00586887
0.00451814
0.000649312
0.000970641
0.00214498
0.000503871
0.000738631
0.000900832
0.000300238
0.00912762
0.00260805
0.00436442
0.00218408
0.000785235
0.00300248
0.00392768
0.00212188
0.00063369
0.00220997
0.000543075
0.006611
0.000967055
0.000746769
0.000754744
0.0125878
0.00120967
0.000790096
0.0137299
0.00143882
0.000460068
0.000775729
0.000645188
0.000805687
0.000895105
0.000656935
0.000457166
0.00653894
0.0183628
0.000643707
0.00342855
0.00239586
0.00720665
0.0010661
0.000371436
0.00454443
0.000304535
0.000945634
0.00165116
0.00282968
0.00147118
0.00129351
0.00153977
0.000858727
0.0153164
0.00316985
0.00247724
0.00295129
0.00478343
0.00238951
0.00772046
0.00718217
0.00340761
0.00138166
0.00107148
0.00432822
0.00227237
0.00480792
0.000876206
0.000874251
0.000702697
0.00529581
0.00239828
0.00323736
0.00116675
0.00083112
0.000760506
0.00244326
0.000865987
0.00178661
0.00250947
0.00556946
0.000732636
0.00283705
0.00379758
0.000648827
0.000124801
0.0049118
0.0166632
0.0190928
0.0123141
0.000724875
0.00112808
0.000768279
0.00225329
0.0010346
0.000869823
0.00151462
0.00029543
0.003438
0.00421569
0.00546489
0.000427885
0.000656103
0.00152875
0.00846948
0.0060808
0.00100376
0.000589071
0.000761412
0.000257012
0.000630747
0.000602268
0.00158158
0.0044047
0.000808928
0.0027348
0.0156522
0.000843346
0.000850869
0.00391879
0.00238826
0.00285049
0.0053683
0.00227308
0.00101129
0.00257408
0.000617396
0.000293756
0.000994228
0.00274123
0.000595963
0.00078425
0.00307458
0.0144512
0.00215098
0.00196812
0.00554387
0.00146489
0.000577868
0.000867241
0.000898179
0.000628049
0.00288426
0.00560024
0.00545067
0.00234387
0.00274934
0.00209853
0.00117843
0.011908
0.00152051
0.00161213
0.00268491
0.00586019
0.00117625
0.0125353
0.0009668
0.000623499
0.00506048
0.0024733
0.000836352
0.00700068
0.00279997
0.00381404
0.00261209
0.00240237
0.000549511
0.00518203
0.00820646
0.00427091
0.0030791
0.00158451
0.00194047
0.00616275
0.000283681
0.000645756
0.000769496
0.000486556
0.00063649
0.000284713
0.000954232
0.00625799
0.00330219
0.00269062
0.00245712
0.00284097
0.00686489
0.00112569
0.00776124
0.00337481
0.00298257
0.00449966
0.000775141
0.000733211
0.0162923
0.00320751
0.00538686
0.00754361
0.00461249
0.0031093
0.00213174
0.017626
0.00110062
0.00080591
0.000818434
0.0079814
0.00095535
0.00273841
0.00320126
0.00643846
0.00233237
0.00174901
0.00265307
0.00604737
0.00450379
0.00200798
0.00332441
0.00457449
0.000280017
0.000212967
0.000363711
0.000503547
0.00480382
0.00239013
0.00456563
0.000669567
0.000802824
0.00058568
0.000832088
0.001876
0.000499028
0.00244284
0.00515551
0.00075559
0.00596215
0.00263959
0.000708889
0.000862032
0.0183737
0.0048257
0.00286398
0.00586803
0.0058605
0.00262884
0.00343738
0.00090288
0.00395449
0.00217702
0.00453938
0.00536636
0.00270971
0.0046768
0.000749025
0.000645411
0.00088494
0.0120471
0.000816056
0.00630451
0.0153234
0.000619234
0.000974361
0.000588314
0.00499145
0.00254485
0.00656495
0.00517246
0.00243102
0.00282517
0.00569075
0.00691986
0.00428806
0.00112017
0.00267675
0.000621004
0.0026084
0.000721925
0.00411201
0.000862744
0.00548539
0.00657196
0.00104666
0.000592401
0.00223406
0.00625877
0.00556752
0.00311983
0.00879731
0.00324415
0.000944291
0.000987094
0.00107608
0.010017
0.00126893
0.00279529
0.00299176
0.00801056
0.0004491
0.000775672
0.000913723
0.00137442
0.0134042
0.0011856
0.000768513
0.00251399
0.00403447
0.00117582
0.00235148
0.00466072
0.00472462
0.000771263
0.00232026
0.00718366
0.00365273
0.00534541
0.0171758
0.000271582
0.000192196
0.000337153
0.000590394
0.00463317
0.00297461
0.000875002
0.00117995
0.000955937
0.00071182
0.000839167
0.0197003
0.00255536
0.00578734
0.00168908
0.00232842
0.00363089
0.0030834
0.0127255
0.00371033
0.0012487
0.000618119
0.00075329
0.00664504
0.000808774
0.00409206
0.00757608
0.00359405
0.00505275
0.00397625
0.00137456
0.0118301
0.00217209
0.000772984
0.00317256
0.000788021
0.00467904
0.00257972
0.00283658
0.00362249
0.000813706
0.00075252
0.000665729
0.00469504
0.00381658
0.000901949
0.000738086
0.00276516
0.00108715
0.00399988
0.000660983
0.000799216
0.00282733
0.0030929
0.00284038
0.0059454
0.00350574
0.00614024
0.00900214
0.000630568
0.00065925
0.00354617
0.00108929
0.00146459
0.000534908
0.000711774
0.00218289
0.000431288
0.000790019
0.000995305
0.00649297
0.00365598
0.00403295
0.00084551
0.00304761
0.00558706
0.0161104
0.00201118
0.00323222
0.000784622
0.00080938
0.0151945
0.00107476
0.00346556
0.000836558
0.00135171
0.00097998
0.00147416
0.000231369
0.0019574
0.00124824
0.000575763
0.000490986
0.00041468
0.000197464
0.000246255
0.00065976
0.01433
0.0128987
0.0031952
0.00175306
0.00274739
0.00740708
0.000754061
0.000477822
0.00090231
0.00625517
0.00106883
0.0178741
0.00606834
0.00229624
0.000785561
0.00701654
0.00157443
0.000626427
0.000746497
0.0196731
0.00555656
0.000834154
0.000957676
0.000877913
0.00351375
0.00141672
0.010724
0.000778929
0.000534749
0.000638392
0.000652228
0.000587235
0.00279891
0.00123977
0.00092497
0.000563132
0.000753158
0.000789257
0.00976935
0.000782401
0.00242627
0.00106298
0.0016489
0.000831591
0.000981096
0.00102206
0.001113
0.00065598
0.000940324
0.000756425
0.00187337
0.000783892
0.00155125
0.00482876
0.000893419
0.000833686
0.00369217
0.00107537
0.000830215
0.00203979
0.00077664
0.0181367
0.00207635
0.000662288
0.000825743
0.000874935
0.0133941
0.000977333
0.00276441
0.00253311
0.00535155
0.000659959
0.000902096
0.000907007
0.000567703
0.000830456
0.00125171
0.00186317
0.0016791
0.00145336
0.000193172
0.00214867
0.00143178
0.00102651
0.00107384
0.00162128
0.000497124
0.000934953
0.000633316
0.000996241
0.000746665
0.0126508
0.000796132
0.00547264
0.000789908
0.000783117
0.000736209
0.000282825
0.000747917
0.00069654
0.00730852
0.0140241
0.00429062
0.000649489
0.000826676
0.00321145
0.000978762
0.00318572
0.00119393
0.00280502
0.00506106
0.00102761
0.00680191
0.000483843
0.000841411
0.00603504
0.00079572
0.0130068
0.000724855
0.000490996
0.0051344
0.0072838
0.000588541
0.00297611
0.000625037
0.00102376
0.000627502
0.000600043
0.00140248
0.000758527
0.000830373
0.000810286
0.00122992
0.0011218
0.00101629
0.00110907
0.00418213
0.000977079
0.000723304
0.00543593
0.00239567
0.00114769
0.000703691
0.00667532
0.00455141
0.0055184
0.00847363
0.0011391
0.00111417
0.000323873
0.0147418
0.00237077
0.00439113
0.00262151
0.0168256
0.00226397
0.000210619
0.00109405
0.000359049
0.000369651
0.00237928
0.000385728
0.00113004
0.00110368
0.000271427
0.00108206
0.000186121
0.00023693
0.00057343
0.000606893
0.00108199
0.00512549
0.00296849
0.0059536
0.000477881
0.00137545
0.00217621
0.000882019
0.000627449
0.000789504
0.00893736
0.000810146
0.0029452
0.00103116
0.000745965
0.000966256
0.0186752
0.0125281
0.000552065
0.00497426
0.00685507
0.00438216
0.00751429
0.000744235
0.00686517
0.00498671
0.0031934
0.000948024
0.00943536
0.000726257
0.000726241
0.00183972
0.00178679
0.00120632
0.000662141
0.0141955
0.00107114
0.000722859
0.00312099
0.00480835
0.00490991
0.000764693
0.000600471
0.00104262
0.00082376
0.0012758
0.000738481
0.0128686
0.0013133
0.00457561
0.00355871
0.00494868
0.00192049
0.00127787
0.00309059
0.00221061
0.00095223
0.00102802
0.000620641
0.00115409
0.000883821
0.0178066
0.000951884
0.000733758
0.000754371
0.000908768
0.000832244
0.000776236
0.00086808
0.000747679
0.00287813
0.00151327
0.0107501
0.000731768
0.000744634
0.0006996
0.000602027
0.00179175
0.0109722
0.00178569
0.000987863
0.00060257
0.00076526
0.00306051
0.000790291
0.000704497
0.00073125
0.000829776
0.000843644
0.00101918
0.000617616
0.00750029
0.00049811
0.0136348
0.000721187
0.00186566
0.000821706
0.000614406
0.000650044
0.00329003
0.00116163
0.000739961
0.000536133
0.000685062
0.00102855
0.00159553
0.00114568
0.00257159
0.000805391
0.00207234
0.00132947
0.00453659
0.00596302
0.00383358
0.000828424
0.000175729
0.00792579
0.00137546
0.0059629
0.00658984
0.000475241
0.000871556
0.00110152
0.00463303
0.000257198
0.0142818
0.00559824
0.0011119
0.0122003
0.00746192
0.00121679
0.000498278
0.0072193
0.0185692
0.0103363
0.00131746
0.00137993
0.00164894
0.00295373
0.000835874
0.00027738
0.0006032
0.000783533
0.00223263
0.00163443
0.000386871
0.00569314
0.00120143
0.000441492
0.000637819
0.00427385
0.0144105
0.00100364
0.00334932
0.00435589
0.00834044
0.0143123
0.00290288
0.00230722
0.00079479
0.00515358
0.00164213
0.00805265
0.00550837
0.0023689
0.00388446
0.00661567
0.00901319
0.00467096
0.0148443
0.0037303
0.00192218
0.00193736
0.0158702
0.00155466
0.00497186
0.00392539
0.00347112
0.00354789
0.00863855
0.00726014
0.00765793
0.0137685
0.00123307
0.000347119
0.000806445
0.00811636
0.00056641
0.00522916
0.00177311
0.000830835
0.004404
0.00365753
0.00722005
0.000537458
0.0096572
0.00167921
0.00292867
0.00248007
0.00121727
0.00167903
0.00085517
0.0109049
0.000852106
0.000649514
0.000976283
0.0142718
0.00152435
0.0017708
0.0039598
0.00714033
0.00261948
0.00185979
0.0116
0.00245698
0.000785958
0.000144372
0.00603493
0.00572496
0.00850147
0.00629623
0.000726556
0.000628671
0.00542867
0.00577074
0.00094538
0.00151053
0.00128988
0.00151484
0.00107566
0.00582051
0.00145077
0.00318898
0.00569915
0.00137604
0.00602625
0.00183935
0.00102261
0.00149517
0.00158544
0.00166571
0.000706603
0.0010188
0.00191245
0.00127544
0.000434607
0.00159278
0.00065276
0.000822372
0.00852366
0.00291743
0.0054201
0.00118153
0.00476828
0.00512291
0.00684168
0.000936502
0.00227943
0.0016654
0.00137107
0.000254915
0.000201514
0.000237028
0.0180118
0.000826288
0.00259074
0.00202277
0.00389258
0.00413313
0.00167791
0.000340315
0.000312249
0.000268738
0.00044846
0.00020991
0.000420067
0.000238371
0.000337822
0.000301797
0.000485554
0.000265435
0.000460124
0.000309795
0.000242253
0.000252518
0.000277217
0.000421016
0.000253495
0.000208206
0.000229166
0.000490589
0.00021465
0.000248206
0.000184945
0.000454335
0.000343057
0.000343855
0.00017454
0.000271489
0.000319764
0.000455154
0.000437285
0.000332223
0.000183811
0.0001853
0.000430578
0.000184081
0.000336914
0.000356023
0.000333514
0.000259301
0.000276
0.00038314
0.000462557
0.00252154
0.00167495
0.0113559
0.000864744
0.00636079
0.00295235
0.0054252
0.0106509
0.00234843
0.000650646
0.000850629
0.00262721
0.00206693
0.00541304
0.0186737
0.0146114
0.00562379
0.00187448
0.00179982
0.00165573
0.000998464
0.00188983
0.000267204
0.00419032
0.00172045
0.00485267
0.0022326
0.00498786
0.0048384
0.00176001
0.00611236
0.0132441
0.0084482
0.0189977
0.00266007
0.00360386
0.00402359
0.000761804
0.0164724
0.00139782
0.00133012
0.00914277
0.00246485
0.00202934
0.00363879
0.00152467
0.00166999
0.000841895
0.000848842
0.0173756
0.00193361
0.000551892
0.000208036
0.00889995
0.0137876
0.000237828
0.00377509
0.00773537
0.000392022
0.000185172
0.000231764
0.000345764
0.000486309
0.000268567
0.000375935
0.000344465
0.000326489
0.000298677
0.000546538
0.000411049
0.000263236
0.000475323
0.000247269
0.000256771
0.00047942
0.000244161
0.000174489
0.000227246
0.000243712
0.000357891
0.000224998
0.00352029
0.00257959
0.000430094
0.000890545
0.0088268
0.000848691
0.0107368
0.000572692
0.00303104
0.0112332
0.00469221
0.00299508
0.0140804
0.00711216
0.000247789
0.0140961
0.00215882
0.00265266
0.0192746
0.00499479
0.0119485
0.00058489
0.0149372
0.00172571
0.00085819
0.0145533
0.000912775
0.0035332
0.00194643
0.000988321
0.000617692
0.00627257
0.000814852
0.0105152
0.0150433
0.00160826
0.00744932
0.000820546
0.0104427
0.00219523
0.00146178
0.000914341
0.00552805
0.00150328
0.00213699
0.00374408
0.000963941
0.00730458
0.000834636
0.0028538
0.000643047
0.00774334
0.00888884
0.0195386
0.000162101
0.000771795
0.0010451
0.00726138
0.00298941
0.000341263
0.000636219
0.00368681
0.00376276
0.0144999
0.000832667
0.00130166
0.00151299
0.00069583
0.00304473
0.000939686
0.00853881
0.000470809
0.000190589
0.000249956
0.00964512
0.00652674
0.000786543
0.00539352
0.00497657
0.00113282
0.0147053
0.0157773
0.0120326
0.0148274
0.0151434
0.00079489
0.00735805
0.000659172
0.00267598
0.00196749
0.00777894
0.000724348
0.00102785
0.00120614
0.0137226
0.000402792
0.0014111
0.00173278
0.00260575
0.00241525
0.0107657
0.0149158
0.00941677
0.00362393
0.000830445
0.0156167
0.000498329
0.00219573
0.00210605
0.00120989
0.00764914
0.0139801
0.00324453
0.0149846
0.0029244
0.00796363
0.00147063
0.000912579
0.00201058
0.0028052
0.00102943
0.00161864
0.00237064
0.0125733
0.00101887
0.00195901
0.00387159
0.00373624
0.00146832
0.00548914
0.00285005
0.0140791
0.00500243
0.00604237
0.00388859
0.00144421
0.00126864
0.00257039
0.00357149
0.00159433
0.00154507
0.00325293
0.015671
0.0152613
0.0103253
0.0113272
0.0149758
0.0107517
0.0149907
0.000591747
0.0149676
0.0152912
0.0112317
0.0125973
0.0157503
0.0119275
0.0148675
0.0159272
0.0152263
0.00152546
0.00148855
0.00196178
0.0129092
0.00120416
0.00187059
0.00178598
0.00118031
0.000210422
0.000246992
0.00754075
0.0144202
0.0072494
0.00275161
0.00275075
0.00794634
0.0141413
0.00786242
0.00323618
0.0013094
0.00122446
0.00154049
0.0038923
0.00979438
0.00290992
0.0015093
0.00242173
0.00522012
0.00213917
0.00408299
0.00190876
0.00692094
0.00239268
0.000726721
0.00189716
0.000346238
0.00735355
0.00125907
0.00164041
0.00114388
0.00178286
0.0030111
0.00281955
0.00261351
0.00440953
0.00440835
0.00148322
0.00298242
0.0114999
0.00295738
0.00275873
0.00301542
0.00400504
0.00970605
0.00168015
0.00210211
0.00961417
0.00479914
0.00306356
0.00281127
0.00151725
0.00317599
0.0107754
0.00334504
0.0020162
0.00251839
0.00213096
0.00544271
0.00136824
0.0161508
0.00285575
0.00162584
0.00209695
0.00232764
0.00489051
0.0013805
0.00137469
0.00304621
0.00564521
0.00298155
0.0154136
0.00967348
0.00184088
0.0105248
0.00206931
0.0025681
0.00352064
0.0015941
0.00293469
0.00127634
0.0147424
0.00376704
0.00270715
0.00175691
0.0078847
0.01398
0.00143002
0.00150641
0.00606614
0.00615025
0.00350857
0.00272521
0.00128686
0.00118932
0.00661563
0.00614331
0.0051427
0.0129441
0.0128763
0.00176263
0.00516705
0.00052774
0.00169802
0.00625996
0.00197989
0.00121713
0.0017248
0.00137458
0.00314207
0.00136507
0.0048385
0.000603904
0.00591639
0.00548867
0.00136633
0.00614112
0.00281584
0.00774602
0.00105614
0.00313532
0.00147846
0.00866241
0.00753266
0.00211539
0.00293839
0.00228198
0.00136391
0.00114349
0.00549956
0.0048642
0.00294898
0.0043289
0.000392263
0.000816488
0.000779059
0.00744421
0.00128339
0.00137665
0.00629352
0.0069188
0.00549359
0.00157544
0.00151206
0.0082485
0.00195004
0.00336865
0.00156887
0.00734028
0.00578833
0.00617219
0.000390204
0.00751688
0.00894345
0.0129319
0.00198718
0.00879882
0.0070365
0.00153576
0.0070239
0.00953315
0.000988596
0.00214832
0.0076237
0.00258258
0.00641283
0.0069388
0.00797948
0.0097738
0.000402867
0.00453924
0.00183448
0.00731077
0.00264352
0.00228374
0.00966157
0.00938301
0.00873863
0.00121684
0.00173697
0.00544735
0.000776773
0.00964276
0.00125254
0.00857673
0.0014661
0.00302037
0.00126487
0.000260274
0.00597106
0.00147688
0.00653908
0.00149946
0.00121678
0.00781154
0.00238956
0.00164304
0.00555598
0.00284911
0.00226459
0.00128381
0.00192729
0.000723207
0.00228685
0.00220102
0.00296494
0.000349645
0.00128093
0.000306048
0.0126094
0.0013208
0.00275987
0.00186372
0.00182421
0.00126422
0.00287272
0.00138477
0.00157396
0.00518119
0.00190999
0.00179746
0.00200182
0.00268488
0.00270266
0.0014611
0.00169178
0.00534583
0.00487122
0.0018082
0.00539638
0.00282317
0.00174915
0.0028981
0.00104589
0.0119606
0.000881631
0.0023073
0.00218109
0.0118027
0.00102142
0.00118727
0.00228811
0.00957335
0.00140194
0.00147429
0.00774953
0.0027571
0.00140154
0.00152605
0.00136005
0.00101246
0.00129825
0.00577744
0.0024441
0.00104385
0.011573
0.0130892
0.000814361
0.000740762
0.00137928
0.00212613
0.007486
0.00154368
0.00150059
0.00166442
0.00209199
0.00123196
0.00416627
0.00186174
0.00512212
0.00530823
0.00156903
0.00105808
0.00247778
0.00419611
0.00119868
0.00195124
0.00146774
0.0130235
0.00721316
0.00710158
0.0123094
0.00200509
0.00159023
0.00690341
0.00989421
0.0014773
0.00511257
0.0026293
0.00129767
0.00159539
0.00538893
0.00644101
0.00149107
0.00616721
0.0024157
0.00236589
0.0034045
0.00320978
0.0050966
0.000511029
0.00265858
0.00118294
0.0126708
0.000869482
0.00106561
0.00761942
0.000799609
0.000835391
0.0113706
0.000453103
0.00270138
0.00130941
0.00160924
0.00160847
0.0094869
0.00407336
0.00654932
0.00297567
0.00307371
0.0031685
0.00208161
0.00740335
0.00724085
0.000362935
0.00034954
0.000654482
0.000761162
0.000777554
0.00892575
0.00230564
0.001113
0.00140403
0.003397
0.00452436
0.00354328
0.000275959
0.0108249
0.00944438
0.00207176
0.000656249
0.00281715
0.0044717
0.00751128
0.000576374
0.00133271
0.0107214
0.000934297
0.00128036
0.00169114
0.00894534
0.00536599
0.00118775
0.00338377
0.0104317
0.00388195
0.00224294
0.00182843
0.00164865
0.000512604
0.000837184
0.00208509
0.00274767
0.00260399
0.00536352
0.0137288
0.00486231
0.00338815
0.00196955
0.00159429
0.0151231
0.0100372
0.0140226
0.0133464
0.00814894
0.00456291
0.00386508
0.00173594
0.00121641
0.00143494
0.00867157
0.0117266
0.0109116
0.00223286
0.0121777
0.00732883
0.00648437
0.00605555
0.000987453
0.00362469
0.00243494
0.00108116
0.00141993
0.00187125
0.0016522
0.00194899
0.00621516
0.00764319
0.00132817
0.0144772
0.00736642
0.00970624
0.00501964
0.00286758
0.00110837
0.000958222
0.001016
0.000698556
0.00119268
0.000743341
0.00879452
0.00179532
0.000792296
0.00167141
0.00350002
0.00530248
0.0048128
0.00319107
0.00609902
0.00308046
0.00445588
0.00840773
0.00250405
0.00131466
0.00277812
0.00242868
0.000327221
0.0011018
0.000962868
0.00238547
0.0150862
0.00187584
0.00143187
0.00168312
0.00580567
0.00114716
0.00628693
0.00849891
0.0016611
0.00176001
0.00220569
0.00239716
0.00381632
0.00629165
0.00166427
0.00875234
0.00159836
0.00668781
0.0143977
0.00807484
0.00252753
0.00539369
0.00212251
0.00756451
0.0109372
0.00481723
0.00145543
0.000816198
0.000740482
0.00114783
0.00359862
0.00706318
0.00192522
0.000869324
0.00792982
0.00856715
0.00617464
0.00499774
0.00135112
0.00788832
0.00778623
0.00175346
0.00191526
0.00483657
0.00708773
0.0155311
0.0027978
0.0125085
0.0016609
0.00837537
0.00193352
0.00669631
0.0108633
0.00239363
0.00297532
0.000990602
0.00498745
0.00463704
0.00166108
0.000278432
0.000195554
0.00784191
0.00676833
0.00937063
0.00618022
0.0119329
0.00981802
0.000795627
0.00466252
0.00540026
0.00370353
0.00295802
0.0077691
0.00940661
0.00196303
0.000990677
0.00132853
0.00877762
0.00160531
0.0126187
0.00348852
0.000787386
0.0103491
0.00157657
0.0017236
0.00921598
0.0153031
0.0133386
0.0133947
0.000394585
0.00107918
0.006843
0.00822409
0.0148194
0.0145347
0.00281205
0.0103716
0.00247647
0.00137441
0.00368791
0.00290021
0.0114471
0.00564096
0.0145247
0.00322546
0.00150584
0.0075656
0.00390317
0.00414894
0.00195224
0.00395176
0.00810812
0.00130406
0.00208185
0.00657834
0.00696607
0.0132451
0.00397203
0.00253756
0.0137702
0.00104017
0.000757477
0.00184551
0.00971298
0.00909696
0.00724154
0.00435956
0.00113415
0.00108658
0.00645599
0.00165602
0.0070441
0.00866003
0.00347282
0.00667576
0.00273552
0.00604844
0.0104723
0.0140184
0.00536823
0.00170673
0.00251283
0.00201598
0.00121052
0.00615213
0.00086088
0.0024862
0.0149994
0.0134808
0.0152537
0.0086903
0.0110379
0.00198018
0.00599746
0.00155329
0.0100719
0.0178529
0.0112893
0.00948922
0.000739854
0.00187246
0.00684608
0.0107982
0.00387775
0.00588165
0.00213322
0.00599921
0.00276104
0.00295
0.00286809
0.000367584
0.0143618
0.00123709
0.00898868
0.000791962
0.00758417
0.00299517
0.00216289
0.00677613
0.0091854
0.00119718
0.00765212
0.0143495
0.00261651
0.000516751
0.0107999
0.00428673
0.00328177
0.00218089
0.000586461
0.000778195
0.00380361
0.0151932
0.0111361
0.00489162
0.0062959
0.0107306
0.00125966
0.00463427
0.0031735
0.00504033
0.000693266
0.00152081
0.0109021
0.00427235
0.00371169
0.00364321
0.0163398
0.00279644
0.000979413
0.0010116
0.000997425
0.00293603
0.000797623
0.00613915
0.00294824
0.0107368
0.00102258
0.00248764
0.000937195
0.0124141
0.00612408
0.0148768
0.00418224
0.00145078
0.00484288
0.00545268
0.00435202
0.000787666
0.0110582
0.00260918
0.00116733
0.0016732
0.000785872
0.0139346
0.000851131
0.0166325
0.00825674
0.000952959
0.00898722
0.000796107
0.015482
0.00952342
0.00198798
0.00197313
0.00236652
0.0152978
0.000848174
0.000776077
0.000766262
0.00475541
0.000845692
0.00108438
0.00902072
0.00486658
0.00774262
0.00405231
0.00619308
0.00105385
0.0153245
0.00840489
0.00357078
0.000738669
0.00437482
0.00745909
0.000353522
0.000195351
0.000280409
0.0138247
0.00217474
0.01438
0.00446203
0.00473112
0.00956688
0.0136359
0.00174969
0.00307634
0.00662128
0.00487387
0.00242662
0.0045686
0.000551362
0.0071222
0.00120119
0.00210848
0.000935239
0.00126273
0.00298206
0.0023131
0.00617271
0.00308105
0.0025296
0.0162669
0.00723381
0.00758509
0.00918646
0.00158797
0.000987224
0.0033188
0.00149385
0.0105814
0.00568005
0.0101907
0.00853699
0.00153245
0.000943623
0.00123566
0.00366522
0.00132797
0.00877335
0.00190699
0.00117485
0.00264112
0.00954971
0.00348194
0.0152422
0.000528733
0.00975984
0.00184764
0.00306505
0.00159316
0.00592409
0.00776784
0.00273742
0.00164691
0.00516729
0.0060823
0.00149008
0.00234856
0.0137901
0.0105772
0.0069447
0.00793119
0.00600686
0.0170161
0.0137202
0.00170989
0.00272812
0.00320703
0.00178404
0.00372973
0.0119868
0.0141302
0.000743813
0.00687807
0.00195247
0.00232711
0.00215935
0.00315664
0.00466712
0.00383705
0.000446262
0.00810185
0.00912662
0.00176136
0.00231434
0.00175968
0.00667969
0.00348444
0.00278317
0.000614098
0.00291895
0.0119975
0.00845246
0.00407397
0.00232345
0.00507754
0.000860158
0.00105948
0.000945773
0.000723913
0.00198904
0.00188225
0.00124828
0.00190779
0.0148688
0.000717498
0.002143
0.00146237
0.000928643
0.00614899
0.00134086
0.000815394
0.00095488
0.00260033
0.00248887
0.00191444
0.0012156
0.00155848
0.00304311
0.000888548
0.00126957
0.00875558
0.00727564
0.000804262
0.00595998
0.00145639
0.00309774
0.00913501
0.00597027
0.00868817
0.000779174
0.000619518
0.000173375
0.000496888
0.00183993
0.0140175
0.00262703
0.0168285
0.00552283
0.00189163
0.00729417
0.00154345
0.000805115
0.00364343
0.00475706
0.00823967
0.00820762
0.00166903
0.000893374
0.00114946
0.000731926
0.0012064
0.0131541
0.00182127
0.00452016
0.0065522
0.000535387
0.00410013
0.00156886
0.00106201
0.00265677
0.0101144
0.0140435
0.0137769
0.0107735
0.000586932
0.000759668
0.00609888
0.0124805
0.00607482
0.00810631
0.00441467
0.00666569
0.00110646
0.000806264
0.000778941
0.00860615
0.00843226
0.00195692
0.00199498
0.00128364
0.00241679
0.00704122
0.00138904
0.00259521
0.00757226
0.012821
0.0111535
0.000915203
0.014243
0.00124417
0.0118977
0.00594887
0.00482152
0.00379303
0.00371444
0.00130701
0.00716136
0.0143104
0.0120644
0.00128422
0.00101525
0.000797709
0.000640702
0.000762786
0.0010229
0.00243641
0.00407017
0.00800789
0.00615467
0.0023723
0.000798268
0.0132006
0.000762826
0.00110516
0.00399752
0.0139475
0.00542723
0.00451562
0.0085598
0.00777783
0.000820269
0.000841071
0.00324357
0.004081
0.0101943
0.00086485
0.00848459
0.00840157
0.00169954
0.00631314
0.000928883
0.00125664
0.000673984
0.000893529
0.000338788
0.000573732
0.000785014
0.000961972
0.000827454
0.000305723
0.0001944
0.000265588
0.0166708
0.0150693
0.000848068
0.00948631
0.00315794
0.00875695
0.00841401
0.0061858
0.00490691
0.0130649
0.0100431
0.00494094
0.00447808
0.00378598
0.00936502
0.00213884
0.000900084
0.000885626
0.00163823
0.00112899
0.000937077