/*--------------------------------*- C++ -*----------------------------------*\
| =========                 |                                                 |
| \\      /  F ield         | OpenFOAM: The Open Source CFD Toolbox           |
|  \\    /   O peration     | Version:  v1912                                 |
|   \\  /    A nd           | Website:  www.openfoam.com                      |
|    \\/     M anipulation  |                                                 |
\*---------------------------------------------------------------------------*/
FoamFile
{
    version     2.0;
    format      ascii;
    class       volVectorField;
    location    "0.7";
    object      U;
}
// * * * * * * * * * * * * * * * * * * * * * * * * * * * * * * * * * * * * * //

dimensions      [0 1 -1 0 0 0 0];


internalField   nonuniform List<vector> 
5794
(
(0.0242395 -0.47561 -3.37681e-17)
(-0.15484 0.919285 0)
(-0.0185857 -1.06867 -1.36652e-16)
(0.0513402 2.58659 1.16063e-16)
(1.79715 1.85943 2.76199e-17)
(-0.0300015 -0.289858 -1.48662e-16)
(0.883498 -0.215807 -2.39612e-16)
(-0.260565 -0.171123 0)
(6.04285 0.912496 9.89254e-17)
(1.06374 -0.17102 2.15466e-16)
(4.66955 -0.111658 -3.43765e-19)
(-2.53668 -0.0473119 0)
(-2.05778 -0.35481 5.3687e-16)
(0.800074 6.2719 1.88069e-16)
(0.774549 0.167368 5.07634e-16)
(-0.783065 -0.223298 -1.65528e-16)
(1.08363 0.064471 4.71259e-17)
(0.178596 6.45277 1.31282e-16)
(0.632405 0.112931 4.85421e-16)
(0.0169302 1.3834 1.49389e-16)
(-2.94852 1.82838 -4.74042e-17)
(-0.107078 -0.391362 -1.77214e-16)
(1.91078 -0.0764686 3.07915e-16)
(1.00629 -0.102251 -6.20474e-16)
(1.71904 0.279936 -4.18926e-16)
(2.81237 10.7359 2.09605e-17)
(5.77556 -0.540431 0)
(-0.176995 1.85591 -1.50135e-16)
(-0.16399 9.36347 -3.80119e-17)
(0.821486 -0.122875 2.84745e-16)
(-1.1354 -0.663277 -6.24521e-16)
(-1.84636 0.0467967 -5.21752e-16)
(-2.11483 0.114281 -9.0923e-16)
(-0.135526 -0.428198 4.58889e-16)
(-1.4548 0.29551 -1.98726e-16)
(-0.833088 0.125695 2.15706e-16)
(9.78621 0.599717 -2.20087e-16)
(2.82894 -0.367514 0)
(2.45402 -0.447329 1.44836e-16)
(-0.125534 3.66069 0)
(-0.523704 3.47951 -1.0169e-16)
(-0.122233 1.88511 1.37698e-16)
(7.45103 0.114279 -8.96163e-19)
(0.541771 2.99699 0)
(0.868506 0.153676 -4.47721e-16)
(4.91571 -0.167206 1.34206e-16)
(4.2428 -0.143446 -2.40639e-16)
(-1.53727 -0.607503 0)
(0.280203 -0.142167 8.67196e-16)
(0.861545 -0.230352 6.86758e-17)
(-0.42131 -0.0888174 -1.72541e-16)
(6.30377 -0.203771 -1.76532e-16)
(-0.705819 0.438304 0)
(0.206698 -0.0248673 1.82362e-16)
(-0.0568988 -0.0536731 1.09553e-17)
(5.1767 -0.493152 0)
(4.50209 -0.309844 -1.91147e-16)
(-2.25655 -0.12484 1.46529e-16)
(8.47115 0.0696441 0)
(4.25028 10.0796 -7.16759e-19)
(9.13731 0.481848 1.92879e-18)
(0.524354 1.21654 -1.22256e-16)
(-0.568078 -1.3879 -1.55805e-16)
(-0.924473 0.0080779 2.15113e-16)
(-1.20559 0.140322 0)
(0.98968 0.214818 -2.66593e-18)
(0.253542 0.598884 -2.56428e-16)
(-0.159161 3.7906 0)
(0.332426 4.61766 -1.53995e-16)
(-0.0154714 0.517637 -3.8915e-21)
(4.89673 -0.472432 1.37111e-16)
(0.402569 2.02505 -3.25109e-16)
(11.5645 2.0225 -3.51419e-18)
(2.02126 0.643531 0)
(0.234046 5.81103 1.35798e-16)
(-0.00597551 0.825944 6.56504e-20)
(0.849967 -0.207269 1.31886e-16)
(1.54361 10.5637 -2.16385e-17)
(0.725579 2.94012 3.66528e-17)
(-0.498336 0.0102193 7.55032e-17)
(0.0984889 -0.689271 -2.0691e-17)
(-0.100147 0.915391 -1.6169e-16)
(-0.575745 2.36568 1.98456e-19)
(1.40405 -1.43207 -9.83079e-17)
(2.25692 -1.40637 -3.47221e-16)
(-0.139423 4.76724 -4.49567e-17)
(0.225735 5.92572 3.22957e-17)
(0.0407449 5.24213 -2.53119e-17)
(1.01595 0.221717 -1.65904e-16)
(1.11291 0.468991 -5.24121e-17)
(0.901682 5.56273 -8.0801e-17)
(0.102194 6.4963 -8.92494e-17)
(-0.12021 7.32383 1.3789e-16)
(0.118444 7.66653 5.80266e-17)
(-0.0219054 5.91095 3.68942e-17)
(-2.14661 0.0558481 5.34411e-18)
(0.012497 6.16503 -5.64498e-17)
(-0.137531 7.03171 -1.49578e-17)
(-0.0139012 6.50264 0)
(8.85673 0.531843 -3.12151e-17)
(1.68073 3.18634 -1.27509e-16)
(-1.09734 0.170209 -4.32178e-16)
(8.35662 0.147872 7.34517e-17)
(0.747433 5.27591 -2.54628e-16)
(1.07416 0.315188 0)
(-0.666954 6.00992 0)
(0.0313553 1.29469 0)
(-0.260274 0.0726937 -2.81893e-16)
(-1.35566 0.572026 -1.23396e-16)
(0.853411 2.66887 -1.03473e-16)
(0.124392 -0.0757184 -6.11704e-20)
(0.404094 0.00698065 0)
(-1.55011 4.65948 1.19164e-16)
(-0.0301126 -0.00561211 1.65557e-16)
(0.0536464 5.83319 0)
(-0.135087 7.79301 0)
(0.270394 0.170203 -3.72231e-16)
(-0.576311 8.12523 -9.25415e-20)
(9.38808 0.432638 -2.35262e-20)
(10.8524 0.590454 6.18548e-18)
(-0.752294 7.96546 1.10626e-16)
(0.89362 -0.0407853 0)
(-1.40061 0.128458 0)
(-0.118029 1.25725 -1.98161e-16)
(0.764729 0.0583239 2.34002e-16)
(4.72381 2.34522 5.10712e-17)
(1.03849 5.62087 0)
(0.0325974 -0.335447 9.39996e-17)
(6.56617 -0.567401 1.16037e-16)
(-0.4241 -0.0492885 1.70278e-16)
(-0.999008 -1.00716 3.08496e-16)
(0.034631 -0.873565 2.2224e-16)
(0.42522 1.33225 2.26776e-17)
(1.09832 10.223 -6.55903e-17)
(-0.689658 6.85965 1.37501e-16)
(0.854557 0.199283 0)
(4.27615 -0.200517 9.38535e-17)
(0.647177 1.0994 -1.80102e-16)
(-0.783806 0.00581974 1.85206e-16)
(0.300702 -0.217821 0)
(1.36895 -0.473786 -5.09463e-16)
(0.86322 2.45874 0)
(0.743538 0.0640186 0)
(0.693969 2.82412 2.7055e-16)
(-0.848779 -0.0735845 1.93504e-16)
(1.77406 -0.150018 1.53834e-17)
(-0.828091 0.774921 2.46206e-16)
(7.72888 0.284523 2.37331e-16)
(1.24401 1.13051 -1.99548e-18)
(0.312606 0.905221 4.56576e-16)
(7.29415 -0.181918 -1.75288e-16)
(0.837638 0.0559788 3.11812e-16)
(-0.66097 6.21286 0)
(-1.0337 0.465189 1.99602e-16)
(3.8044 -0.716001 0)
(4.61499 0.134788 0)
(1.42132 -0.618144 -2.76624e-16)
(1.53179 -0.100361 4.11615e-16)
(5.30156 0.180953 -2.66119e-16)
(1.95027 -0.608256 -1.32735e-16)
(0.373647 -0.00499287 4.32595e-16)
(-1.62406 -0.202225 -3.65309e-16)
(-0.332111 -0.00321019 0)
(-1.22645 -0.109698 -1.49929e-16)
(-2.93861 0.0240743 -3.0381e-16)
(-3.09567 -0.0737504 1.64913e-16)
(-0.69292 -0.204748 1.38983e-18)
(-0.384196 -0.318016 -4.37868e-18)
(0.0296549 -0.0778949 0)
(0.238716 -0.00125839 1.05231e-18)
(0.575441 0.112516 0)
(-1.82557 0.408314 -1.16213e-16)
(-1.00989 0.20265 0)
(-1.36191 0.399331 1.02508e-16)
(-0.928311 -0.196334 4.39601e-16)
(1.80261 -0.00992812 0)
(0.243256 0.0473905 -2.64559e-16)
(1.83328 0.0421022 -2.41711e-16)
(0.597589 -0.107585 -9.49465e-17)
(6.45787 0.134072 6.76112e-18)
(0.492211 -0.415607 -6.09556e-18)
(-1.32237 -0.315295 0)
(1.13652 -0.238736 0)
(-1.87483 -0.32362 1.26386e-16)
(1.19946 -0.261788 0)
(-0.500855 -0.785648 6.5165e-17)
(-1.30697 0.163537 -1.52584e-16)
(-1.21842 0.295894 -1.02105e-16)
(0.608539 -0.145007 1.39643e-16)
(-1.08879 0.0449362 3.51762e-16)
(4.5739 -0.0728595 -3.47091e-16)
(-1.95594 -0.106279 3.85916e-16)
(-2.25821 -0.0849201 6.05368e-16)
(-0.529966 -0.327709 6.42988e-16)
(-0.40593 -0.354909 -1.05108e-16)
(-1.65413 -0.580453 -4.85358e-16)
(0.62666 -0.395373 -2.36112e-17)
(0.136609 -0.045421 -2.02578e-16)
(0.614746 0.0449691 -3.15497e-16)
(6.46894 -0.0459573 1.22665e-16)
(1.43045 -0.152461 -2.18212e-17)
(6.16708 0.0247367 0)
(-0.600617 -0.54003 0)
(-0.246638 -0.349376 1.13388e-17)
(4.18052 0.00957309 -5.79454e-17)
(4.84746 0.0227499 0)
(-0.353246 -0.157182 1.26852e-17)
(0.356393 0.00285886 2.08555e-19)
(4.61051 1.12486 -6.12243e-18)
(2.08313 8.68069 1.25988e-16)
(0.349732 0.460417 1.31896e-16)
(9.76821 -0.00934281 0)
(-0.86409 -0.222287 -1.16929e-16)
(-1.18086 -0.72774 1.71838e-16)
(0.698342 -0.412723 0)
(0.753906 0.447131 7.90852e-16)
(0.62528 0.122752 -1.88423e-16)
(1.40998 1.81109 9.33139e-17)
(4.07327 -0.199498 1.35001e-16)
(1.39085 5.64496 -1.75759e-16)
(9.686 -0.00509513 0)
(1.70898 0.392434 2.31319e-16)
(-0.346742 1.98742 0)
(-0.16947 5.25398 2.79359e-17)
(5.13322 0.121787 1.33666e-16)
(11.567 0.701594 2.0962e-18)
(-0.368061 -0.209031 -7.90752e-17)
(1.1314 -0.0852698 -1.14203e-16)
(-0.40787 -0.0641759 0)
(0.705638 0.218178 -3.13922e-16)
(-0.979687 0.379685 0)
(-1.36238 0.660318 -6.6557e-17)
(-0.827179 0.0956933 -1.11373e-16)
(-1.01958 0.714843 1.54559e-16)
(2.06344 0.472898 1.65277e-16)
(10.067 0.193552 5.54002e-18)
(7.71703 0.992648 1.9451e-18)
(7.27634 0.513469 2.89863e-17)
(-2.10739 -0.025038 -1.59797e-16)
(0.205404 -0.600383 -4.43738e-16)
(-0.269881 0.681625 0)
(1.18298 0.864126 1.18514e-15)
(1.47291 4.57129 2.23506e-16)
(-0.632021 0.677033 -2.76782e-16)
(-1.53928 1.18934 2.64681e-16)
(0.197742 -0.077743 3.3884e-16)
(0.918123 0.135439 -1.53966e-16)
(0.963105 0.763805 9.30257e-18)
(-0.11785 5.93776 0)
(-0.0337797 5.52029 0)
(-0.0288534 5.17165 0)
(0.879229 0.160502 2.83957e-17)
(2.44998 -0.636368 -7.20436e-17)
(-0.221393 -0.118981 8.9977e-20)
(7.32764 1.17569 -5.79707e-17)
(4.46112 2.43482 -9.88747e-18)
(8.27226 0.217996 -1.50918e-16)
(9.04548 0.52808 1.5994e-16)
(0.0860912 -0.30401 2.97049e-16)
(0.671314 0.0439924 0)
(5.93886 -0.0551047 -1.13456e-16)
(-0.759472 -0.315962 1.01411e-16)
(-0.77412 -0.894949 -1.0093e-16)
(1.16035 -0.159515 0)
(-1.99675 -0.0804196 0)
(-1.04508 -0.0299213 -6.57293e-19)
(0.308067 1.63606 1.57194e-16)
(3.76723 0.774229 0)
(0.483138 0.00534145 -7.57533e-16)
(4.43072 0.0152659 -1.25049e-16)
(3.88383 -0.00399236 0)
(0.469312 -0.929227 -2.89494e-16)
(0.355384 1.00937 -5.41168e-16)
(5.14175 -0.317641 -1.65115e-16)
(9.53129 0.089711 3.68551e-17)
(0.448887 0.136714 3.29948e-16)
(0.257206 -0.050387 -1.93999e-16)
(1.52073 -0.356941 -8.65696e-17)
(0.622801 0.334674 -1.8767e-16)
(-1.46195 0.879339 -2.5883e-16)
(0.0775111 -0.0430015 4.31514e-16)
(0.928115 3.34792 2.59484e-16)
(-0.465702 3.5509 1.04707e-16)
(-0.0144241 1.76037 -3.75776e-16)
(-0.0340578 4.87056 4.95009e-17)
(-0.146611 5.20112 1.16951e-16)
(0.102363 5.72038 1.33234e-17)
(-0.0236502 5.55372 0)
(0.639205 5.93047 4.13293e-17)
(-0.737413 8.06465 0)
(-0.663598 0.326367 -1.7928e-17)
(-1.17819 0.745431 -1.32889e-16)
(-0.130613 -0.305143 2.61323e-18)
(0.644832 -0.0586605 0)
(8.09578 1.69815 0)
(1.31014 7.54054 6.81119e-18)
(-0.278566 2.33588 7.10766e-17)
(-0.151797 1.2088 -1.60849e-19)
(-0.0382942 3.91559 -2.29216e-16)
(0.965825 -0.185387 -1.754e-16)
(0.0115417 0.570663 1.22345e-16)
(-0.508405 6.23284 0)
(0.0585532 -0.608104 -8.32232e-16)
(0.679886 1.8699 0)
(1.24663 1.50348 -1.4876e-16)
(3.56274 0.259775 1.65713e-18)
(0.586225 0.376729 -2.59333e-16)
(0.402668 3.10681 2.94318e-16)
(5.07839 0.104923 2.46695e-16)
(4.42185 0.0763783 0)
(0.994639 -0.384562 -6.33362e-16)
(-0.157827 0.493581 -3.09595e-16)
(1.44191 7.49012 -1.41038e-16)
(0.00544398 -0.097273 -9.23544e-17)
(10.5986 0.119189 0)
(10.0258 0.301339 -1.84114e-17)
(-0.033001 0.0648469 -1.00654e-16)
(-0.219976 2.63465 -2.78861e-16)
(-2.0308 0.380009 -2.2096e-16)
(-0.0476293 6.87084 -4.2776e-17)
(-0.573403 -0.373743 4.50872e-16)
(0.156307 -0.607023 -2.08152e-16)
(-0.468887 6.89839 -8.55958e-17)
(1.62293 1.40287 -8.83289e-19)
(-0.75901 -0.122009 0)
(1.27992 -0.651466 0)
(1.02945 0.0232472 0)
(-2.28788 -0.33631 6.45714e-17)
(-1.3364 -0.276078 -3.56525e-16)
(4.4418 -0.130659 3.04231e-16)
(6.53639 -0.0136538 -7.00888e-18)
(6.63748 -0.124682 3.06795e-16)
(-1.48236 -0.296628 8.74725e-17)
(-1.81813 0.252902 5.01414e-16)
(-1.72065 0.171479 0)
(0.89079 -0.147074 -2.45642e-16)
(1.37628 -0.0710103 0)
(-0.101137 -0.0614496 0)
(0.347161 -0.115419 -3.44128e-16)
(-0.60255 0.0184119 0)
(0.813004 -0.153956 4.44636e-16)
(1.81821 0.0975588 4.15897e-16)
(6.58883 0.426656 0)
(1.92156 -0.0783726 0)
(0.129377 -0.00650484 4.49382e-16)
(1.37975 0.00729103 3.78125e-16)
(-1.07742 -0.521677 3.28973e-16)
(-0.427209 -0.404349 -2.44423e-17)
(-3.05613 -0.114999 -1.23007e-16)
(2.95453 0.0863189 6.94031e-17)
(2.90237 0.0481722 6.58959e-17)
(0.069477 0.128555 2.4644e-16)
(-2.34357 -0.162932 -2.2854e-17)
(-1.88508 -0.198801 1.5583e-16)
(0.407725 -0.429064 0)
(-1.40617 -0.581018 0)
(0.703499 0.0390281 1.87803e-16)
(5.64021 -0.413587 1.68851e-16)
(1.04344 -0.121644 7.94073e-17)
(-0.0681501 -0.228114 0)
(0.222695 0.0258593 -2.77837e-16)
(1.77108 -0.220228 4.52275e-16)
(4.69056 -0.082049 3.7057e-17)
(0.857682 -0.51135 -4.06217e-17)
(0.0936955 -0.600931 -3.17662e-16)
(0.0131393 0.187643 5.14797e-16)
(-3.19641 0.00210993 -3.81555e-17)
(4.34747 -0.336303 0)
(3.76154 -0.264888 3.30111e-16)
(-1.9696 -0.14556 -9.14199e-17)
(0.203418 0.0965056 -1.43692e-16)
(1.20469 0.0332002 0)
(0.260441 0.26753 -1.17893e-16)
(0.0442474 0.537659 3.39197e-16)
(0.546759 0.0681349 9.04571e-17)
(-2.75503 0.168005 1.41319e-16)
(3.91023 -0.00680552 0)
(3.52619 0.160428 8.51708e-17)
(-2.1759 0.526488 0)
(0.549718 0.170045 1.43807e-17)
(0.408811 -0.886887 1.39845e-16)
(0.265891 0.12056 0)
(10.7839 0.08742 0)
(-1.07489 -0.00137618 1.56187e-16)
(-1.75822 -0.0380131 -5.7032e-16)
(-0.242089 -0.34684 -3.80027e-16)
(-0.472401 9.31 -2.90542e-17)
(-0.153245 -0.62024 3.14153e-16)
(-0.0218873 -0.816452 -1.10967e-15)
(-0.237063 -0.221181 0)
(0.217097 -0.129304 -8.43705e-16)
(-1.21539 0.937619 -6.60973e-19)
(-0.0103357 0.560085 -2.66836e-18)
(0.262528 -0.0793107 1.88652e-16)
(-0.671194 0.245562 9.47796e-17)
(-0.685951 0.345987 -1.00267e-16)
(-1.0639 -0.0251939 1.111e-16)
(0.0148253 0.750369 0)
(0.784039 0.0808624 0)
(1.60019 -0.0201737 -3.09051e-16)
(0.956282 -0.244289 1.41825e-16)
(1.61162 0.170437 -4.17885e-16)
(9.37723 -0.283694 3.10038e-17)
(0.139762 -0.0107889 2.21788e-16)
(0.265858 0.0218943 0)
(6.40247 0.952107 4.67618e-17)
(-0.0827921 1.5137 2.0378e-21)
(-0.0595212 -0.385998 2.54179e-16)
(0.263581 1.30028 -3.55052e-17)
(-0.245635 5.7771 -6.18025e-17)
(-0.136769 6.79913 2.40312e-17)
(0.136004 6.5622 0)
(0.88725 0.474623 1.75853e-16)
(-0.963247 0.32175 2.81075e-16)
(5.13091 -0.0309865 2.03536e-17)
(4.43339 -0.0430217 7.16534e-17)
(0.196096 -0.507113 0)
(0.444913 3.32674 1.86212e-16)
(-2.39222 0.182677 0)
(-0.153729 6.29128 3.90071e-17)
(-0.0424637 6.55207 -6.90546e-17)
(-0.167757 7.04596 3.1468e-17)
(0.0362219 -0.0336252 -1.63015e-17)
(0.158663 0.0646227 -4.45229e-17)
(-1.20433 -0.0206157 0)
(-1.80287 -0.0193746 0)
(-0.667049 -0.189691 -2.07271e-16)
(-0.0456788 0.106376 -2.14386e-16)
(-0.045446 1.21499 -1.34986e-17)
(0.00218669 -0.571888 5.96223e-17)
(3.95308 0.753176 3.13356e-16)
(10.0113 0.164078 1.30957e-17)
(0.43679 2.15215 -3.08813e-16)
(0.924281 -3.03602 -2.18485e-17)
(0.871682 0.121172 3.3132e-16)
(-0.0836919 0.103393 0)
(0.518623 -0.485604 1.7342e-16)
(0.16261 -0.402995 -1.0701e-17)
(-1.28624 -0.0722628 -1.0119e-16)
(-1.93296 -0.163291 1.88131e-16)
(-0.39433 -0.198801 2.64883e-16)
(9.95884 0.0970087 -2.556e-16)
(0.609205 -0.487486 0)
(-0.55088 -0.324169 8.38467e-17)
(1.75523 -0.336637 -2.11552e-18)
(-0.0548204 7.80749 -5.69037e-17)
(0.0422672 5.81498 -1.35762e-20)
(-0.798273 0.0946364 0)
(0.176455 0.00735131 2.56467e-16)
(1.16547 0.318487 -8.68717e-17)
(1.40667 -0.0569645 -2.14219e-16)
(-0.00949949 1.28043 -6.5001e-17)
(-2.79276 1.41693 4.80186e-17)
(-0.149905 -0.57617 -5.8986e-16)
(-0.144563 6.45453 -2.7705e-17)
(1.14427 -0.168616 -5.09763e-16)
(0.354734 5.26282 -2.24353e-18)
(-1.66309 -0.405679 -2.16628e-16)
(-0.123454 6.01334 -3.55228e-17)
(1.00608 6.61236 8.72441e-17)
(-0.0776367 -0.528735 -1.21392e-16)
(0.0131519 1.08934 -2.2521e-16)
(-0.59576 0.713661 1.84718e-16)
(0.321494 -0.060418 -4.32921e-16)
(8.50219 0.57544 9.3831e-17)
(-0.425916 -0.0513913 -2.9236e-16)
(10.4338 0.30916 -2.09995e-18)
(2.77882 3.39236 6.05551e-17)
(0.57427 0.0610882 -4.48209e-16)
(1.20191 2.42428 -4.92248e-17)
(0.843435 -0.100329 3.83337e-17)
(6.22883 1.16422 -4.91595e-18)
(1.55888 0.708545 -6.94356e-17)
(0.227975 -0.0152003 2.94248e-17)
(0.257006 -0.275857 -2.21512e-16)
(-1.01247 -1.05702 1.15116e-15)
(8.58694 2.37516 -2.70632e-18)
(-0.273753 2.41364 1.63063e-16)
(1.38154 0.617168 1.89248e-16)
(-0.0231885 0.941949 5.55961e-17)
(-1.05824 0.657918 2.80861e-16)
(-0.183556 -0.601262 0)
(0.125882 -0.340025 -2.14565e-16)
(-0.0949733 -0.0985017 1.32093e-17)
(0.0671162 0.0386506 1.87036e-16)
(3.37089 -0.132354 -4.66781e-20)
(9.83072 0.0317136 0)
(2.019 -0.0965724 2.09176e-18)
(0.498342 -0.0931949 -5.02742e-17)
(0.0136478 -0.789747 -7.8009e-20)
(-0.0548283 1.00498 2.00599e-16)
(-0.205887 3.80035 -1.52961e-16)
(-0.394285 5.3458 4.67636e-16)
(1.33654 0.954132 8.35822e-18)
(-0.111758 1.43276 -3.07446e-20)
(0.198018 -0.119709 2.72375e-16)
(0.760261 0.0862059 0)
(0.128698 -0.00150392 0)
(-0.796024 0.0315524 -3.56984e-17)
(6.85604 0.818651 -1.37467e-19)
(3.18414 2.12519 2.23716e-17)
(8.7786 1.37741 -5.79315e-18)
(10.3906 0.531829 3.31838e-18)
(0.449985 -0.17414 0)
(0.421372 2.73366 0)
(0.0258874 0.956319 2.26454e-16)
(0.00109689 -0.49962 2.41017e-16)
(8.95191 0.49402 -4.51092e-16)
(1.5976 0.693937 0)
(0.937257 0.158979 0)
(-2.07292 0.148036 2.08347e-16)
(0.575673 0.380609 1.5506e-18)
(0.279591 -0.576588 -1.48555e-16)
(1.00883 -0.340182 1.95949e-16)
(0.158191 -0.274223 -1.02578e-16)
(0.11228 6.02462 -3.30826e-17)
(-0.27338 7.57377 -1.40085e-17)
(0.923894 -0.369313 -2.51131e-16)
(9.93013 0.164763 -6.76865e-17)
(9.38819 -0.000991747 3.45404e-18)
(0.034579 -0.501964 1.69514e-16)
(0.319574 1.34055 -3.85637e-17)
(2.2277 2.27421 -1.06892e-17)
(-0.684383 8.64409 -1.33887e-16)
(-0.160516 0.00144777 1.09495e-15)
(-0.557485 0.539907 7.04255e-18)
(0.698809 0.182583 0)
(5.54819 3.79658 6.59272e-17)
(0.0984965 1.46924 1.07739e-16)
(0.00391729 -0.343253 4.35627e-20)
(-0.806424 2.17364 1.86028e-16)
(-0.566555 -0.108378 0)
(10.6575 0.138163 0)
(-0.00288327 -0.180568 -7.25604e-17)
(0.0951024 0.163828 0)
(-0.226528 0.0877496 9.07132e-17)
(10.039 0.0645996 -1.06758e-16)
(4.80361 -0.0305407 7.66667e-17)
(-0.410662 -0.0118938 1.28679e-16)
(6.98 0.0292835 9.65118e-17)
(-0.0515509 -0.531156 9.46291e-17)
(-0.796609 -2.51501 1.91115e-16)
(0.00349184 1.3411 2.0187e-16)
(0.904318 6.37296 -1.07982e-16)
(0.356412 -0.0710882 -8.53921e-17)
(-0.707917 -0.125566 0)
(9.73317 0.821484 0)
(0.766941 2.83602 -2.66194e-16)
(-0.345033 -0.053396 -2.15431e-16)
(0.134406 -0.707798 7.23634e-16)
(0.857858 4.86014 -2.68778e-17)
(0.740249 0.149508 0)
(0.36557 0.0808971 -4.97374e-16)
(1.61568 1.86392 -1.41216e-16)
(-0.875837 0.0104217 1.72518e-16)
(0.602593 0.0508903 0)
(-0.325202 2.37968 0)
(0.0278719 -0.322447 0)
(0.160504 1.48143 -1.67502e-16)
(0.932965 1.99526 7.71111e-18)
(9.99828 2.76844 -2.44836e-18)
(0.468947 0.00697434 0)
(5.31958 1.27907 0)
(0.708831 0.0653111 -9.8826e-17)
(1.08728 6.36045 7.62632e-17)
(1.57121 0.590773 0)
(-0.661936 -0.267314 4.44379e-16)
(0.34116 -0.119193 5.83703e-20)
(0.0584974 -0.479991 -1.76281e-16)
(1.02803 0.0652951 0)
(8.05202 0.59468 -6.44303e-17)
(-1.56549 0.65965 -1.55196e-16)
(0.597547 3.04773 7.29725e-17)
(-0.00527063 4.05834 0)
(0.972359 3.51754 -1.03964e-17)
(9.95755 0.257984 -2.03964e-17)
(2.80611 2.746 -3.98325e-18)
(-0.0918493 5.11609 -1.3782e-16)
(-0.131652 1.63199 -2.59575e-16)
(-0.390063 3.45544 -4.65995e-16)
(-0.290291 6.81553 8.49649e-19)
(0.22078 6.20529 5.14149e-17)
(2.54917 2.63533 0)
(10.8663 -0.212947 2.03444e-17)
(-2.75169 -0.186535 1.37335e-16)
(8.90196 0.819239 -1.19286e-16)
(-0.052266 0.215303 1.9442e-16)
(-0.146807 6.49869 0)
(-0.0487359 6.44721 -5.58656e-17)
(-0.211349 4.90949 1.88778e-16)
(0.947901 0.139869 -7.50187e-18)
(-0.558672 0.00540512 6.23289e-17)
(0.814097 0.668525 6.56322e-18)
(-0.236175 6.65265 -2.82815e-17)
(0.13448 6.04425 -3.25695e-17)
(2.05417 8.86283 5.66207e-17)
(0.356867 0.134403 2.01459e-17)
(10.1351 0.165836 0)
(0.840074 -0.210628 4.73102e-16)
(-0.0730803 0.276664 -1.13099e-16)
(0.454315 -0.141863 -3.77898e-16)
(7.52077 0.583929 1.69963e-17)
(0.0701176 6.07551 -5.0743e-17)
(-0.137173 6.8691 1.89091e-16)
(1.09964 -0.249276 -2.57514e-19)
(-0.374424 0.0726188 -1.22866e-16)
(1.04336 6.57764 0)
(1.21038 -0.108856 0)
(-0.0523203 -0.132497 -2.19935e-17)
(-0.601414 2.68801 0)
(3.30949 4.19463 -5.66816e-17)
(4.56664 3.11725 0)
(1.13321 5.40729 -1.61041e-16)
(0.0200842 0.89663 6.75751e-17)
(0.865592 -0.21366 3.91932e-16)
(1.53776 0.00820434 4.2909e-17)
(7.18105 0.665887 -1.51392e-17)
(3.81537 -0.00522567 -2.37994e-16)
(7.76492 0.141676 -2.91124e-16)
(1.67264 0.285701 0)
(0.197292 1.3646 -8.13238e-17)
(5.07429 2.91861 1.62647e-16)
(3.59165 1.63854 -7.44352e-17)
(0.0910345 0.0460566 -3.76458e-16)
(0.281121 1.373 5.72086e-16)
(-0.681227 0.402316 3.6272e-17)
(0.096104 0.406569 -5.08584e-16)
(1.33656 1.91045 -2.04529e-19)
(0.915815 1.18697 -2.46933e-16)
(-0.405734 0.110897 2.02198e-16)
(0.0151723 -0.535026 1.12512e-16)
(-0.151513 1.00789 0)
(0.0449675 0.485066 -7.99663e-17)
(0.0302748 -0.580394 -8.84136e-17)
(0.342191 1.22087 3.07249e-16)
(-0.0266256 -0.361231 -1.2261e-16)
(1.48333 8.636 -3.66426e-17)
(10.6582 0.423451 -7.40874e-17)
(-0.329616 0.0210255 1.08813e-16)
(-0.0916034 2.39527 -4.99412e-17)
(0.0177998 -0.0117574 -1.5994e-16)
(8.73229 0.172204 3.58033e-16)
(3.91444 -0.1346 -2.46323e-17)
(0.018188 6.42828 3.69698e-18)
(4.24642 -0.149017 2.50798e-16)
(-0.0935479 4.89141 -1.76315e-16)
(0.0505198 5.43812 9.38553e-17)
(7.27877 0.278974 0)
(0.0462001 0.120112 -1.30516e-16)
(0.0604119 0.0538767 3.12374e-17)
(-1.16251 -0.172293 0)
(1.23743 0.839114 -1.71626e-16)
(0.0458179 -0.125444 6.99078e-17)
(1.14994 0.384142 2.72301e-16)
(0.953821 0.118513 2.988e-16)
(3.82102 0.177329 -4.19274e-17)
(8.98402 0.416345 -1.0986e-18)
(0.707821 1.33724 -1.75657e-16)
(-1.43857 0.220941 2.77318e-16)
(-0.468907 0.839804 -2.92051e-16)
(0.596724 0.248322 1.18777e-16)
(0.326908 -0.233455 0)
(-0.313864 -0.704789 -1.16029e-17)
(-1.89331 0.878581 -2.91963e-16)
(-0.0490971 0.871283 -1.38215e-20)
(-0.0225845 5.61227 2.98191e-17)
(0.218879 5.63331 -2.77179e-18)
(-0.202512 5.10095 -1.14946e-16)
(0.307195 5.69574 3.31338e-17)
(2.00352 4.61423 -1.43601e-16)
(7.11662 0.341519 7.1711e-17)
(0.146037 0.835628 0)
(10.5379 0.92474 0)
(-1.91918 0.138766 3.55822e-16)
(-0.863846 0.101921 5.91574e-16)
(0.0396913 6.03751 1.55113e-16)
(-0.058756 7.00334 -1.27196e-16)
(0.301069 -0.313351 1.3848e-16)
(1.23721 5.632 -4.15602e-17)
(0.514423 -0.12599 5.31882e-17)
(-0.378808 0.380117 2.46053e-17)
(0.388459 -0.0396164 1.43548e-19)
(0.127009 0.031206 -7.29655e-17)
(-0.719028 -0.0124628 -1.11173e-17)
(1.02626 2.32237 -5.71016e-17)
(3.4781 -0.0714368 -4.11134e-16)
(0.38817 3.82021 6.85392e-18)
(0.0118027 -0.112362 1.77083e-16)
(0.669363 0.278794 0)
(0.822325 -0.412529 0)
(-0.0292342 3.82653 0)
(0.818411 6.20922 2.28901e-16)
(1.23798 8.43765 2.45662e-16)
(-0.204233 6.45089 2.44831e-16)
(0.70851 -0.0987008 3.94543e-17)
(5.93332 3.31796 -3.89705e-17)
(0.351721 0.121098 0)
(-0.0817109 0.33597 1.02925e-16)
(-0.510953 -0.602025 3.42199e-17)
(10.545 0.0565791 -7.70989e-18)
(0.184754 -0.074754 -1.16173e-16)
(-1.48081 0.119262 3.36183e-18)
(-0.645656 -0.0599446 -1.69951e-16)
(9.00445 0.383291 -2.06047e-17)
(0.911119 1.63563 0)
(3.50814 1.21824 -3.55465e-16)
(3.42916 0.940037 2.17652e-16)
(-0.0961263 -0.249591 0)
(0.0524947 -0.0561251 8.09284e-17)
(1.2779 2.32641 -2.62357e-16)
(8.68311 0.168306 0)
(1.78896 5.95705 -4.6203e-16)
(-0.227538 5.81954 -1.38065e-16)
(0.195597 2.87307 0)
(1.19098 0.556618 0)
(11.3975 0.281645 4.48579e-17)
(10.3747 0.35493 3.45786e-17)
(8.96145 1.1057 1.8679e-18)
(5.32427 2.14878 -8.1653e-21)
(0.497794 2.66264 0)
(1.35292 0.639788 2.08444e-16)
(2.50892 7.09777 -2.97604e-17)
(4.58309 -0.0579448 0)
(0.152226 -0.324451 -4.96566e-16)
(3.78631 2.25182 2.17439e-17)
(0.416981 1.09465 -1.23086e-16)
(9.39711 0.924314 -5.2915e-17)
(10.8824 0.0435416 8.02911e-17)
(1.63573 1.87402 -1.86515e-16)
(9.94008 0.419413 -1.59548e-17)
(-0.0747006 6.0701 1.74191e-16)
(0.836688 8.89274 4.20226e-17)
(0.616523 6.93009 -1.02544e-16)
(6.75193 3.61347 0)
(0.691717 -0.0824882 1.55648e-16)
(-0.228903 -1.26838 -1.75757e-16)
(1.86062 0.0831166 2.8226e-17)
(-0.010957 0.0742897 1.39777e-16)
(0.0763098 6.51217 8.01896e-21)
(-0.0881551 7.20098 2.55138e-19)
(0.539832 5.96959 7.55707e-17)
(0.41482 0.484124 0)
(0.0658587 -0.214491 0)
(0.520014 -0.207786 1.08239e-16)
(0.790436 0.689669 1.6373e-16)
(-0.101619 5.31067 -1.0918e-16)
(-0.0267757 5.59495 -3.71712e-18)
(-0.235007 2.43056 0)
(-0.00387055 0.878149 -4.64179e-17)
(10.1025 0.109194 8.8258e-17)
(-0.971801 0.118709 0)
(1.74416 1.49401 -3.5325e-16)
(-0.0272308 -0.0267551 8.324e-17)
(1.08401 -0.239099 2.5017e-16)
(0.077368 6.09941 6.9952e-17)
(-0.203446 7.28839 1.39309e-16)
(9.62787 0.926913 0)
(0.268814 7.4379 -3.59271e-17)
(-0.0368744 5.9721 -3.54387e-17)
(9.53009 1.14706 -9.79314e-17)
(2.14202 0.462545 -1.32496e-19)
(7.39909 1.80139 6.52784e-18)
(-0.26316 6.51361 6.80066e-20)
(-0.00883537 5.69819 0)
(0.00789182 5.63589 2.90448e-18)
(-0.280781 4.96817 -9.89674e-17)
(0.490143 5.51822 -4.09115e-17)
(3.55576 4.14068 1.44756e-16)
(0.697842 2.15024 3.58694e-17)
(-0.166198 6.76596 2.16961e-16)
(0.0205863 6.55193 0)
(-0.275417 5.42469 -1.43125e-16)
(1.05242 1.23436 3.22006e-17)
(0.0716513 -0.0414247 -1.61269e-16)
(0.409067 0.24743 8.28395e-17)
(0.140469 0.16779 4.79596e-18)
(-0.438526 0.634462 1.3061e-16)
(0.392554 -0.155189 0)
(1.38257 3.49779 1.22842e-17)
(0.0764354 -0.520797 -2.77189e-17)
(0.590467 0.0123324 -1.26514e-16)
(8.90772 0.716999 -7.35102e-19)
(-0.248091 1.21761 -4.27606e-17)
(0.0363727 -0.423573 -2.73137e-16)
(0.129657 1.4076 -1.77637e-16)
(-0.264988 6.3636 -2.14922e-16)
(0.282236 6.17127 0)
(0.592048 0.174568 2.51528e-16)
(-0.273311 6.49294 9.15367e-17)
(0.254198 6.01746 2.53827e-17)
(-0.76581 -0.0995193 -8.20428e-17)
(3.47118 3.61804 -1.52863e-16)
(-0.866145 -1.35765 4.96642e-16)
(-0.739196 -1.03035 5.99523e-16)
(0.771185 0.646053 -2.74925e-16)
(0.341733 5.77366 2.57171e-16)
(-0.0399378 1.23671 -3.71143e-16)
(-0.99911 -0.297249 -1.94547e-16)
(-0.0496954 -0.648157 -1.34035e-16)
(1.24436 9.02919 0)
(9.88802 0.104205 0)
(0.061741 0.0853743 -3.04797e-16)
(-0.490744 -1.00362 1.59672e-16)
(0.317925 0.101611 -8.13524e-17)
(-0.822703 0.234409 0)
(0.735567 0.0199651 1.17055e-16)
(0.558615 -0.0243316 -3.21561e-20)
(0.68096 0.405541 -6.29732e-16)
(4.09858 0.0843974 2.26452e-16)
(1.06627 5.06186 1.14898e-16)
(-0.299737 6.27925 -3.03449e-16)
(1.42096 -0.392114 4.00295e-16)
(0.754614 0.502215 -1.74461e-16)
(9.76759 0.912685 -1.37405e-17)
(0.488457 3.20211 2.0833e-16)
(0.290724 -0.0936516 2.05893e-16)
(1.00809 0.403954 0)
(-0.923069 0.771542 5.54789e-17)
(2.05704 1.38113 -7.52157e-16)
(0.248179 1.38734 -2.41932e-17)
(0.0270736 -0.334473 3.29484e-16)
(0.0644852 2.55334 2.68827e-17)
(8.59964 0.558033 -1.16809e-16)
(10.2329 0.342952 -2.39826e-19)
(-0.380532 0.0258438 1.98182e-16)
(11.0749 0.0497186 0)
(0.682727 0.126144 -5.13524e-18)
(0.209969 -0.0890986 2.87004e-18)
(0.514148 -0.311874 -2.00199e-17)
(-0.000672686 6.41058 4.29481e-17)
(-0.140957 6.44839 4.07009e-17)
(0.0146201 5.05779 1.79337e-17)
(10.529 0.0377234 1.46219e-17)
(-0.0603776 -0.199032 7.15837e-20)
(-0.643162 7.76029 -4.75279e-17)
(0.194146 -0.172542 1.32799e-20)
(-0.0252987 1.09796 0)
(9.12828 1.59551 -4.44414e-18)
(0.241092 -0.216471 0)
(-0.271723 0.160829 1.02403e-16)
(0.0498366 0.240691 9.43081e-17)
(0.131657 1.02989 4.87731e-18)
(0.644978 0.266761 2.47355e-16)
(-0.850974 -0.0583376 3.35673e-16)
(9.38978 0.602695 -1.81395e-17)
(-0.127612 -0.213046 2.77666e-16)
(1.21776 -0.556993 3.19585e-16)
(9.54913 1.08122 1.00412e-16)
(9.75744 0.295701 4.20013e-17)
(6.05959 2.83806 2.64478e-17)
(0.0913666 6.00489 -5.05469e-17)
(-0.0690107 6.66277 2.42297e-17)
(0.0650557 2.61444 1.30451e-16)
(0.181305 1.889 0)
(4.15609 0.715495 4.75256e-17)
(5.67162 3.08595 8.66322e-17)
(9.46385 -0.192618 -1.96142e-17)
(0.521848 0.622516 1.20626e-16)
(0.279703 -0.355256 2.64836e-16)
(0.15513 0.113294 0)
(8.90037 1.69706 0)
(1.0072 2.24823 0)
(1.35878 1.97456 2.94053e-16)
(0.013159 0.0866754 9.97367e-17)
(2.42964 4.43556 2.08793e-16)
(-0.258251 5.23898 2.97534e-17)
(1.53178 7.17882 -5.87319e-17)
(0.177749 0.197437 0)
(-0.0939219 -0.0450596 1.05468e-16)
(0.0177935 5.66605 -1.31876e-16)
(-0.78039 -0.0251194 -7.49495e-16)
(11.2623 0.114483 9.8012e-17)
(5.73888 1.17425 0)
(-0.0623459 -0.391857 2.19979e-16)
(0.989105 5.55288 0)
(0.646669 0.19089 1.62558e-16)
(0.201371 0.0100017 -2.51877e-17)
(0.975089 9.82617 6.1495e-17)
(9.92658 1.09063 -1.36802e-17)
(9.8856 0.687748 1.04245e-16)
(-0.970161 0.291445 0)
(0.929786 2.3163 -5.74876e-17)
(-0.379346 -0.0368215 0)
(8.67519 0.340551 0)
(0.97974 0.259674 -1.38269e-16)
(0.0771678 -0.0954567 2.50121e-17)
(-2.80626 4.34931 -1.34924e-16)
(2.89938 0.800531 -1.24473e-16)
(0.811457 2.09936 1.53842e-16)
(10.2871 0.104483 -2.63172e-20)
(5.94146 3.55929 -7.85729e-17)
(0.858947 -1.52657 -3.49783e-19)
(0.00514782 5.89578 6.22349e-17)
(-0.0495103 6.28105 -5.27298e-17)
(0.648653 2.08425 -1.23252e-16)
(1.19446 6.06536 -2.50906e-16)
(1.43281 1.50671 -1.34686e-17)
(0.0590459 -0.736677 -3.76013e-16)
(-0.0922029 1.11479 -2.04601e-16)
(0.978771 0.770737 6.75372e-17)
(0.884294 0.0719353 2.16754e-16)
(0.634321 0.207293 -2.99008e-16)
(0.319394 1.35985 -5.21763e-16)
(-0.0714918 -0.436338 -4.60796e-16)
(6.957 4.22737 3.36072e-18)
(0.518324 1.30811 5.59835e-16)
(10.0832 0.0423202 -6.45371e-17)
(0.776174 0.152497 0)
(-0.228069 2.32768 1.14441e-20)
(4.20503 -0.681309 -9.93334e-17)
(-0.400442 2.57813 0)
(10.1028 0.417786 4.0508e-17)
(-0.451549 0.0416584 3.13421e-16)
(0.406572 -0.00102891 -2.79854e-16)
(9.27967 1.96215 0)
(0.0870091 6.11916 6.87846e-21)
(-0.325689 7.65547 0)
(10.0405 0.0851744 0)
(0.785367 0.125877 -5.30575e-17)
(9.75195 1.40961 -5.28391e-17)
(9.05326 4.01386 -1.83048e-16)
(1.21781 6.42336 2.4354e-17)
(7.37126 2.09615 -1.07664e-16)
(-0.0918085 3.86476 -7.44903e-17)
(0.00937012 3.60864 2.1345e-20)
(-0.0271909 4.34453 -7.66612e-17)
(-0.43151 -0.463516 0)
(-0.105497 2.41437 1.12836e-16)
(-0.0222915 -0.539563 0)
(0.512484 0.595263 0)
(0.268197 0.096171 0)
(-0.0110004 -0.302842 -2.19654e-16)
(0.008926 -0.631012 0)
(0.119454 0.946741 1.28226e-16)
(2.84776 2.57901 -2.84653e-16)
(0.39312 3.27303 0)
(-0.656131 5.43237 1.59328e-16)
(-0.195657 6.3941 -2.47608e-17)
(-0.00999528 6.46626 8.9652e-17)
(-0.153477 6.95881 -4.03094e-17)
(0.878499 1.63666 2.57114e-16)
(9.40228 1.02718 -2.76267e-17)
(0.28909 1.40626 2.1344e-17)
(0.00860885 -0.375549 -9.44651e-17)
(0.699531 0.636737 0)
(0.947715 -0.0254416 -4.92004e-20)
(4.97363 1.8482 0)
(0.588231 -0.0629567 2.93435e-21)
(3.77209 0.129247 -4.64838e-16)
(10.0589 0.0517908 3.54793e-17)
(-0.642642 7.85196 1.18989e-16)
(-2.4843 2.51021 -3.03439e-16)
(-0.0427262 1.11159 0)
(-0.115347 -0.732135 1.01765e-15)
(5.20965 2.65485 -3.20717e-17)