/*--------------------------------*- C++ -*----------------------------------*\
| =========                 |                                                 |
| \\      /  F ield         | OpenFOAM: The Open Source CFD Toolbox           |
|  \\    /   O peration     | Version:  v1912                                 |
|   \\  /    A nd           | Website:  www.openfoam.com                      |
|    \\/     M anipulation  |                                                 |
\*---------------------------------------------------------------------------*/
FoamFile
{
    version     2.0;
    format      ascii;
    class       volScalarField;
    location    "0.17";
    object      epsilon;
}
// * * * * * * * * * * * * * * * * * * * * * * * * * * * * * * * * * * * * * //

dimensions      [0 2 -3 0 0 0 0];


internalField   nonuniform List<scalar> 
5794
(
4.1635
2.14124
5.73916
2.53331
3.3336
1.85129
14.0936
1.58225
82.8014
6.96822
45.279
0.951112
0.37656
0.97832
3.36876
1.02445
145.132
0.957794
3.61157
2.26417
77.9263
1.92863
3.72185
2.04472
1.8262
155.298
92.1553
2.59431
2.55106
7.24047
0.37481
6.49215
0.447615
1.5537
1.36293
2.20132
4.43806
1.98935
0.414129
21.1745
5.86346
3.37914
9.99835
5.63271
3.39598
0.467905
7.9338
0.283726
5.51021
38.3227
0.706919
19.0079
11.3413
3.01246
0.155842
5.25065
11.3959
0.966282
6.16118
331.449
60.7266
0.997643
0.359112
11.3961
0.476996
0.471342
17.9589
15.2737
1.45394
1.69258
28.9419
19.9548
69.5006
13.327
1.2622
2.89855
3.59759
102.658
5.57926
0.410198
1.74961
1.97135
6.80716
0.723948
1.55319
3.11341
6.98617
18.9458
2.2629
2.31247
11.6885
3.06883
5.2802
17.9893
2.1088
10.4517
10.49
3.7743
2.96508
67.7743
56.7499
3.04202
8.07001
1.69667
2.04854
3.7457
1.35013
1.22503
8.03804
5.73902
0.438618
3.66814
66.53
0.312251
2.0328
15.4903
3.24091
3.30545
54.5427
22.4971
3.94118
3.82796
0.577022
2.91438
6.82329
87.5948
2.32479
1.94294
7.47215
6.1714
1.10566
0.428512
6.63624
89.9915
6.60485
3.58468
121.925
0.909956
0.357486
1.57503
29.4342
2.66666
6.22856
2.88083
0.691048
140.599
0.868312
50.6949
1.73193
2.75822
12.8701
2.18319
5.13996
1.23677
125.281
6.39523
0.482428
0.766985
4.68183
1.8222
5.18675
0.568783
1.36044
1.21739
4.31346
2.3582
1.98924
0.665101
0.625743
5.0225
4.44525
3.50126
1.40867
2.14499
1.99611
4.91647
4.78094
0.796698
1.85937
61.4817
0.454813
13.1081
0.32813
0.446402
0.505237
77.731
4.15591
0.688686
2.03004
2.90043
61.1661
7.33346
0.410881
0.359865
0.537029
1.41444
0.536781
0.927479
2.78439
7.49061
8.95996
24.2516
0.306472
1.83208
7.5908
0.380059
1.0128
1.42952
2.43166
72.615
4.61094
10.4129
2.75879
0.483448
1.43615
1.51477
3.40844
4.80674
19.2095
46.6011
9.99969
0.698651
38.667
3.84549
149.139
18.2414
6.56445
7.53746
2.23524
3.33634
1.16506
1.48252
1.35395
8.45958
1.49956
6.59115
4.71752
51.7306
0.603308
2.07606
1.97669
2.85787
51.2095
3.00015
1.51516
0.394613
3.48839
1.31513
17.664
3.46375
5.44067
0.476699
140.629
0.50493
4.93145
4.8926
8.13616
18.6031
1.80264
7.976
84.3716
3.37692
0.538935
0.260198
8.65994
0.546483
2.42907
89.463
5.51891
0.871362
7.74866
0.351409
3.47034
16.584
16.9266
3.44636
3.14906
27.9536
1.42187
0.502622
0.634534
13.9366
5.22166
2.87033
2.82749
5.36371
9.21131
4.43094
24.451
6.44045
2.29958
1.59008
1.25104
2.71636
4.81816
106.654
2.48837
3.05221
1.05916
0.267831
2.74261
58.7833
1.84462
57.468
1.97754
78.4609
1.29621
1.68411
2.28726
6.35184
0.493862
20.0725
84.6876
0.293604
9.8145
35.3021
0.965478
2.03558
7.46915
1.21632
7.07921
18.9334
2.76429
1.98821
0.73448
0.405019
10.7106
1.10742
0.430754
29.7919
44.5256
9.29793
0.525862
0.541626
5.98255
3.68434
3.21502
0.980556
2.0863
0.786376
2.42163
1.3279
65.9919
4.5851
4.35847
0.354673
0.530393
19.1978
1.9894
2.63441
0.611349
103.424
0.412427
9.71746
0.336621
50.9773
2.75464
11.2964
10.1619
0.70251
1.12003
1.38222
99.1688
11.2302
1.22268
1.5279
3.58303
1.00123
10.687
0.34557
1.22741
0.284858
1.27176
2.33639
1.46313
6.52165
9.2171
11.5189
2.18113
0.535778
10.489
1.35968
12.4956
1.89842
0.912142
1.54105
15.5628
9.38575
2.64003
3.82801
1.03204
0.575579
1.9949
0.814679
1.13998
2.11241
1.57878
2.96848
6.64651
3.81295
1.81159
1.56579
23.4961
0.428922
1.48065
69.4326
10.7051
1.56323
2.04634
18.3472
2.79465
3.31818
28.6852
4.53273
0.627832
8.25675
0.356656
2.17224
5.77791
10.5017
3.082
3.53076
2.25431
1.15668
1.36406
1.15776
1.95813
0.34026
2.11028
2.30102
49.2562
5.77151
2.81416
96.1832
2.82222
3.67032
1.66469
0.836737
1.41741
0.625719
1.46886
8.10963
0.462668
0.623279
24.8179
17.8624
2.12136
0.278531
3.35521
106.077
3.33882
1.79507
118.369
2.02749
2.89595
0.257575
12.8892
5.06867
3.40287
21.9151
2.15271
1.52859
24.234
0.478685
76.1115
7.3406
14.6113
6.79942
20.2226
4.82241
0.392027
3.65132
51.9264
1.45998
6.16759
63.1661
17.6116
2.09479
4.02045
1.56503
37.3736
2.19575
2.35387
1.54103
1.01577
32.5996
10.2804
21.3906
73.832
1.89796
1.66652
2.35324
2.70717
1.35956
18.3097
1.0635
4.21838
1.18544
0.313705
62.6036
3.22457
10.1469
8.74129
0.428623
2.5138
1.70017
2.07802
31.495
39.8186
0.375091
10.5432
1.13874
8.34546
0.257148
0.276287
2.1101
9.55936
0.256627
5.58117
21.2237
1.51935
1.33568
4.2591
6.98035
10.3494
2.22833
1.52118
76.0404
1.97465
1.74599
26.2879
0.416806
13.5831
1.20979
1.22039
2.96291
6.61132
159.557
7.7986
68.2695
2.24843
116.614
2.1619
1.20942
6.33433
0.600715
5.52859
2.80708
0.292214
1.93027
2.31363
0.949962
4.32872
2.26444
2.37003
5.50314
23.2217
1.71193
2.15933
4.83431
177.073
3.85058
90.6504
2.28715
1.20362
12.9735
0.947452
16.1601
2.30545
0.293514
86.3754
8.96339
43.7085
8.59843
43.4934
9.00614
5.30718
3.25066
3.4077
2.82505
6.56522
4.236
7.45147
11.0488
2.6353
56.1953
0.377273
2.36741
4.18416
17.3542
0.339656
1.64431
0.768758
8.59464
3.87239
58.4936
0.344543
9.32804
0.311889
5.30607
6.03388
99.4106
2.83033
11.0374
0.259586
8.79868
226.485
4.09343
0.202618
7.62313
7.015
7.37487
2.55615
9.0604
0.342846
0.477268
56.3259
3.44717
9.03506
2.03986
1.49752
77.8803
92.1983
1.05445
1.19907
2.35082
2.39537
5.73284
3.6929
0.341242
2.95003
1.53522
0.619428
1.43973
1.33798
2.11858
110.469
26.3343
1.93952
2.47058
3.19581
10.5398
11.8064
4.82041
125.582
13.5315
4.63143
51.7798
1.09823
0.58352
2.16613
1.37844
1.45857
2.19212
0.561762
79.4664
30.0765
1.29037
40.8023
1.50821
0.733438
2.85572
2.13186
57.9183
1.65367
4.23376
21.5989
5.85902
9.65717
7.5519
50.8549
2.94224
21.0431
12.1654
1.6016
2.87672
13.043
5.44759
2.79299
2.00948
1.54078
2.04909
1.32368
0.334809
2.08006
137.305
1.11824
1.03875
1.58401
0.26312
12.092
21.5952
115.035
2.50255
2.39449
67.7162
0.938647
2.53114
2.02875
9.81221
2.80727
0.749875
0.438547
19.3765
4.51105
153.046
7.39373
1.7954
1.60111
5.66743
23.2585
25.2407
3.70291
0.826484
37.8804
16.1824
8.77837
50.9948
89.4728
24.9701
1.68371
97.7074
157.385
0.861719
3.68826
2.84744
14.8209
28.1487
4.75165
38.7759
2.34854
73.9692
20.23
67.2713
2.55055
4.54341
79.6519
12.0906
2.99435
4.61631
11.3485
2.31005
2.21056
5.32871
1.72179
4.37906
9.34947
53.3368
13.905
8.97724
2.0803
1.2967
1.05902
0.256824
2.56609
11.1029
5.11847
18.4544
2.14741
8.6601
14.8045
8.2049
4.78124
3.96175
18.3913
6.24016
9.53864
8.92411
4.24931
2.39664
3.93386
15.7463
4.97192
1.52358
1.53841
0.691373
2.07478
1.75098
2.19066
1.65553
2.11242
38.0821
19.0834
1.97726
1.62382
5.61702
7.30315
0.95447
7.15136
4.5269
0.512968
10.2489
1.01951
24.7616
1.3281
8.61169
1.78511
166.712
2.08972
95.1014
9.71551
1.01369
24.1452
0.443494
2.00131
2.4227
2.74625
2.39818
82.7412
24.8514
2.70746
28.8123
1.8564
34.8268
28.7009
0.743557
1.20309
3.5591
3.49355
2.25598
1.64058
23.3074
50.0491
16.4043
0.311333
17.4143
2.07318
1.54114
1.95308
4.46265
2.55289
15.1563
9.31771
0.954293
1.55993
1.63252
1.30343
75.0773
2.21844
2.76847
4.08287
1.53272
20.3705
1.36118
26.7038
0.275318
23.6244
6.12128
10.7386
10.2136
3.04242
11.5719
5.84921
22.2855
86.7518
77.7457
21.011
32.4634
0.273217
0.674485
5.17314
3.02293
3.32958
1.26142
31.0239
4.68076
139.249
15.4183
0.813665
0.83119
0.50513
14.1116
83.75
1.52459
382.555
1.88756
1.38962
91.0528
17.1065
6.41036
1.1842
2.05312
4.61914
8.4167
0.541653
1.28129
54.4972
90.2872
5.77525
10.072
72.448
32.5837
3.50005
16.0883
45.4129
47.9512
2.68683
1.84388
1.48402
4.5443
0.304843
0.917189
1.54076
1.48031
61.0051
1.05593
7.35895
0.360922
33.9562
8.75719
7.36679
8.14972
8.34802
13.1134
19.5608
2.16459
8.43056
6.30118
0.436721
19.5233
21.9444
57.3536
7.52975
10.6213
9.37356
5.15098
2.42858
24.6512
17.3404
2.41693
2.02083
3.41505
3.42752
2.97582
77.7632
2.09289
1.40076
10.4929
3.16685
3.48439
2.88772
12.431
2.12929
1.58744
1.50182
0.285373
3.96689
3.85643
167.252
6.95007
1.98859
87.0307
1.68275
2.10679
6.90867
18.5098
10.0414
5.05795
23.9801
93.5433
2.23654
5.28687
0.716542
0.553726
0.394789
0.666607
0.720947
11.5531
0.289406
0.312768
1.63951
0.761743
7.95905
0.734581
5.36811
1.49492
0.329403
77.9647
9.71797
1.70145
2.37191
1.01505
0.525028
12.1725
4.78327
61.9444
0.625237
38.9282
42.6139
0.687453
9.98984
29.3517
0.30378
9.22848
84.0377
21.4481
6.06575
122.128
0.266298
11.0478
30.5401
1.63203
26.8996
45.2984
2.28639
19.1024
2.40214
1.69444
0.397758
0.623136
19.1763
26.4343
61.0591
50.7356
9.8839
0.48459
3.05863
12.522
10.5482
6.94308
51.8184
1.23729
1.88967
1.60785
40.4263
11.0224
2.99227
4.57011
9.42265
4.4206
4.83376
10.1028
0.514094
1.4973
2.94426
2.45828
2.7096
13.7143
1.30139
8.19701
30.8902
0.266673
1.73464
0.687897
5.16711
1.20232
0.270421
1.15011
0.71003
10.3606
1.05354
1.18161
6.09281
10.3242
0.4846
2.03578
4.58425
0.267428
88.375
20.031
1.56354
1.38506
17.3167
0.398133
0.419431
10.3591
0.82139
0.397456
1.61987
1.36842
1.36511
53.3725
28.1223
9.04254
9.62702
3.66699
0.458585
0.880572
9.89137
2.65419
6.50481
2.96746
0.558841
23.4507
0.40081
2.92907
1.75103
66.6607
1.71283
7.99356
69.621
0.580065
37.6721
44.2464
0.324349
4.39932
2.38378
31.2634
34.8564
0.469661
39.8981
0.565873
0.545231
17.5912
1.56938
2.05158
2.54946
0.603486
8.26349
5.01165
167.426
1.35122
1.24124
1.29319
4.51382
0.800196
18.4541
0.605887
28.7432
7.8705
18.3232
8.13788
2.49929
0.588054
1.04079
1.24565
6.48177
1.60329
7.18734
12.4827
64.1199
78.2227
23.3185
9.95576
8.85817
8.75239
6.94882
0.604694
1.40688
0.268237
733.21
42.5616
0.263149
0.798774
65.499
59.6187
8.73443
1.84
1.65169
2.47309
69.2266
0.404781
6.6455
10.9318
3.45433
4.24708
39.2838
4.32046
0.286711
5.34564
17.4002
1.67932
31.7815
1.66758
52.7978
1.93078
7.69973
4.96461
0.70297
4.37867
23.6877
9.24871
17.7498
11.7762
4.544
1.12259
23.9349
1.48632
10.6104
5.67459
1.4779
2.07267
49.7299
1.68418
43.2522
2.7441
18.3186
7.93046
4.39777
8.33609
7.39235
0.626669
6.94574
11.1031
27.1953
0.26993
0.838463
0.556798
155.888
0.260244
0.647067
4.94335
1.23558
1.59298
57.7878
1.87886
6.5365
2.10959
1.48088
5.84749
19.3186
15.7422
1.60153
0.790887
0.710816
0.667512
71.4203
3.94702
5.18514
8.61071
0.596318
0.835318
0.298152
17.685
0.352232
0.308171
10.6201
36.0066
1.40951
0.505002
2.89367
4.62035
33.01
7.11703
25.4756
1.78522
0.478048
0.894246
6.97471
1.49287
77.9515
0.828548
0.33856
69.042
9.9831
0.58696
0.270453
13.061
105.157
0.760998
0.380294
4.38441
1.88241
2.27419
5.87372
5.10065
2.85848
0.270854
5.50599
3.144
108.295
8.6792
5.31545
66.3045
4.44066
2.39081
1.934
0.902055
35.5005
6.77176
2.78934
24.4773
4.23479
45.1976
16.1706
6.25318
7.87998
1.3347
6.07002
0.316108
29.293
8.47481
7.6408
6.10099
2.94229
6.88121
13.4059
2.05031
0.370037
0.810033
7.39089
9.56841
0.524715
27.4489
80.9317
9.35703
69.8446
74.8478
2.12763
0.733299
30.1927
1.59782
66.8218
27.438
2.90574
1.4104
0.531668
1.91162
0.819111
6.8473
0.831073
3.68446
0.59965
1.55193
1.84605
29.4824
4.46393
31.4239
15.2604
27.9447
8.83554
0.499352
6.43247
2.56609
11.7737
2.60786
24.4749
0.490146
15.2987
0.87437
4.49424
15.2411
6.84898
34.6825
12.8944
2.31729
0.289612
10.1839
5.4484
1.9314
7.2339
1.09742
0.28456
9.27507
39.3516
0.338675
24.3597
6.53769
0.461191
0.863178
2.59823
2.51781
0.592481
7.6045
9.10451
69.1984
6.12354
0.276458
22.1637
3.74897
1.04518
18.4578
0.845104
61.4176
0.964201
2.0283
1.44104
4.92728
303.801
11.376
2.36646
7.69235
15.1053
127.127
44.1473
0.863852
0.47166
0.72492
0.514068
0.333126
1.24324
2.05874
0.387133
2.98164
0.355013
0.492191
28.5259
8.21854
0.396775
1.04921
0.317415
1.67733
1.87871
1.47267
6.73505
14.7539
1.03887
1.8516
0.445093
0.413024
7.40566
44.5876
13.7473
0.312657
0.432749
7.37938
34.436
0.597083
0.558914
0.802108
0.411008
0.432162
0.843382
0.537713
0.291713
2.20919
0.417702
42.2146
7.05455
1.2448
0.341392
6.69973
0.646755
6.21285
48.7583
83.554
2.776
1.49162
0.270891
19.9391
1.53546
53.4934
1.9876
140.512
5.97714
121.504
43.5848
0.58079
0.544836
0.287185
19.0094
2.62792
6.03033
0.442869
4.84056
4.26154
3.26494
22.6295
2.4655
30.4898
5.02847
29.2801
197.823
1.00425
15.6497
8.82091
13.5294
1.5156
49.7854
119.563
1.14783
72.6148
3.59559
21.2502
1.26976
1.66151
11.4899
13.9052
582.307
0.768512
9.19727
1.57911
0.806335
2.59399
3.14193
155.716
1.04597
0.408769
0.366808
1.972
0.926008
0.419871
2.08045
0.315791
0.43721
0.725257
0.287725
6.49328
38.9766
0.383888
6.48099
5.16713
7.76404
21.5249
1.5163
1.38688
0.497022
0.520404
1.0354
0.810635
54.4986
60.7806
0.394565
21.7821
8.65345
13.9161
1.87001
0.261588
75.1788
1.92203
1.76826
84.9523
2.97796
14.9998
0.547468
2.90401
53.2118
1.83071
12.6417
115.214
2.26199
0.266471
1.25504
56.0637
1.38167
1.14429
18.6496
238.643
1.94413
3.23691
0.379127
1.10521
0.98499
0.896789
3.506
0.959147
63.8195
0.331783
16.1816
2.72569
0.286819
0.338906
1.66639
0.495852
0.681333
0.783104
0.661288
51.1379
10.7372
1.68141
21.2082
9.82322
7.03402
9.69132
0.651893
9.10882
15.5362
1.27548
79.0487
5.00432
0.586471
4.21146
19.9064
1.32838
10.2484
0.664409
0.284909
23.7211
26.498
0.280986
0.9089
2.23016
0.383197
18.8365
31.5802
47.0345
13.5129
1.38761
47.6328
0.278199
1.41267
5.25549
2.03474
1.50843
3.18401
0.663104
37.2794
0.274492
5.03675
2.82475
0.976687
8.19269
1.24583
4.01679
2.00151
1.67151
0.611604
0.424044
1.12449
30.2443
1.10457
1.63418
37.8921
3.75147
41.3638
2.70445
46.5808
64.6766
61.2684
33.4231
2.25959
2.36626
48.7375
1.7848
60.7026
35.9884
246.673
3.51217
62.5208
48.2713
21.0576
0.397172
1.57237
11.6151
52.8326
1.08028
3.87673
26.1471
241.211
7.20248
14.7333
43.4969
11.261
1.26339
5.61969
0.853184
0.430098
8.4729
74.1275
1.32788
0.30037
5.7402
2.27589
3.47062
50.5389
43.7828
2.59674
50.4063
5.47531
0.873355
2.09263
1.44167
43.7281
32.0394
1.72505
38.9213
1.12111
1.26959
1.01793
0.966811
0.677258
1.9008
24.5363
1.03694
1.62373
1.30818
1.66845
0.511099
3.37619
19.1992
11.2729
8.63226
1.56708
1.11852
37.2834
14.4526
28.2919
28.8053
1.10273
2.83239
0.896281
8.57286
8.35822
33.4261
225.517
11.7412
9.75165
1.03257
29.8545
0.642563
26.2033
1.08487
47.6206
1.24146
0.468839
27.1261
5.33808
0.54746
3.12977
0.475674
2.47434
120.843
4.50568
4.61124
9.29849
0.737904
77.9668
20.1994
2.40873
141.467
14.4364
7.05908
18.7008
1.90958
6.3078
28.9748
3.0764
170.3
3.14418
0.856285
185.574
25.371
73.9013
7.84899
4.42235
4.90334
14.7255
0.727141
82.4677
3.19413
0.875067
0.519074
6.13167
10.9776
1.76509
0.652987
49.8924
1.96969
5.3867
77.7495
27.6579
6.24079
21.8606
6.06474
0.693608
4.97945
1.6355
196.304
0.698682
75.1561
4.47597
0.783867
1.7741
16.0838
74.1747
5.53943
240.344
15.8156
12.9077
3.29043
1.24787
5.84631
0.33043
0.378548
25.097
37.0148
25.0622
20.2883
40.1139
23.2316
24.6942
37.7367
25.6542
1.89434
0.928641
373.99
2.44089
5.44375
0.297624
22.9703
38.3675
8.94221
7.28646
4.46276
26.4088
1.59889
20.7987
7.42017
38.8084
0.654869
12.6472
9.55902
1.45578
2.72464
1.54527
4.48435
3.7015
27.5335
30.8609
2.51763
1.98621
48.4843
27.4104
46.0478
7.79086
0.430127
0.292846
28.3976
0.349381
26.6385
6.51642
0.575174
6.95938
2.70236
2.0171
56.3475
7.89644
1.95384
2.23057
143.87
26.9848
7.82538
26.9811
1.3838
6.95829
6.14132
2.16371
25.4795
8.04613
26.3295
1.17976
11.1874
2.56203
2.68624
5.1297
15.3701
8.76879
2.47114
8.55238
1.91168
9.53439
1.64581
1.44869
8.52501
7.78032
7.37426
2.48108
1.63382
26.8254
9.61917
8.67755
0.545364
13.6651
0.32977
5.57372
1.37221
0.849393
26.2725
0.293341
0.466869
6.45679
0.704122
20.8015
2.70294
2.10945
15.0478
50.9044
8.11843
1.48595
2.55186
39.4793
1.43583
1.78405
3.09533
1.21789
0.494405
0.833898
33.5879
29.4202
1.33736
2.43668
2.34604
3.35051
5.80727
0.929243
0.401345
14.6066
9.76961
3.05953
1.59828
0.50871
6.00581
0.507077
0.5587
1.51458
27.8627
0.396796
8.67017
59.8417
12.0775
5.48717
54.5713
38.7019
12.4974
1.13171
2.64428
17.4196
31.6524
4.0563
2.36353
4.54233
0.576649
0.593995
1.67042
8.12665
0.598306
0.681941
0.78357
40.8542
6.90265
9.41462
57.9988
0.566624
38.1257
22.0762
16.6743
6.29742
0.598191
1.54281
25.9589
1.46829
3.09332
4.38434
1.4646
0.585055
0.788834
1.05816
37.3282
2.52695
0.898445
56.1144
12.706
6.95644
12.438
4.05563
2.38493
30.4328
35.4194
45.0042
36.1281
1.30393
2.44882
44.9833
4.88929
0.658006
0.705506
9.46446
0.388965
0.772864
34.866
1.37723
1.01772
6.26354
68.2462
82.247
56.7191
14.8288
9.12922
38.737
12.7076
0.370245
25.9601
18.5191
59.426
24.0989
4.83608
11.2773
17.9521
2.99652
1.41565
1.90129
2.56628
2.12555
7.42753
5.81738
16.6522
3.94086
1.82194
47.473
1.88262
12.9027
7.26934
104.714
73.3459
36.9296
17.6233
29.6088
1.55217
9.106
0.393351
0.910213
2.52026
3.80338
2.43898
3.1501
20.8807
14.4258
55.1932
0.898734
60.5129
17.727
8.30874
36.7707
0.301366
38.1122
21.1641
0.671359
2.47622
30.7111
45.7078
48.2364
39.4963
14.8464
14.8719
2.03424
1.54965
0.593949
2.12738
11.3706
2.34445
0.961889
2.17075
1.64076
24.8031
19.2175
35.2105
1.79313
2.13124
12.3486
6.07199
10.0758
25.9412
3.66612
1.60928
68.7789
2.4867
1.94487
94.6916
46.8495
34.3928
38.1008
0.68119
2.79639
25.2934
15.9814
17.9416
78.9326
1.61531
10.5152
0.383197
0.840601
1.54564
1.99482
1.87347
58.5432
2.89493
4.25134
0.862594
9.82656
7.51462
18.8293
14.1784
6.41808
5.85527
4.4941
5.09643
64.977
6.4637
43.5395
43.6529
11.3
0.748808
133.09
23.6572
13.8713
14.9926
5.4879
61.9534
17.0169
7.76498
2.68323
73.9668
13.6069
4.5069
0.560618
0.300682
98.4779
46.1114
10.4094
54.8525
0.45597
0.42435
24.3341
12.9016
6.74474
14.9651
0.744704
7.16022
1.76396
1.30747
12.7391
31.5361
108.776
1.35544
2.64346
14.3319
8.01996
44.9886
2.37446
9.80353
47.0073
19.9404
29.5947
29.5945
0.282421
11.3078
6.84417
0.852077
35.4304
17.5361
50.5947
11.3981
12.7434
6.62943
2.45324
9.2651
26.4191
22.9735
14.7705
0.512612
1.67566
25.3972
14.8155
1.73992
1.6599
27.4636
3.15617
40.3003
59.5356
21.4635
38.2749
59.7802
64.0482
1.96261
2.12849
15.2928
2.96238
1.8806
0.541518
18.2124
9.47931
7.39288
25.8859
34.9226
39.4292
5.3505
55.3142
3.69172
2.26548
2.70566
11.2354
7.1324
9.55624
0.510182
0.876534
3.70752
8.65609
29.4524
34.548
0.29431
26.2633
21.3683
285.075
31.836
1.4547
0.788363
2.2162
1.03931
31.7895
6.91625
15.4594
15.682
16.6152
1.4935
35.8816
56.2725
4.21877
157.277
4.76103
22.9127
1.42708
1.94443
21.4438
1.64748
21.7149
4.02198
17.9032
49.1995
34.8105
3.14387
6.30536
0.91508
3.40937
32.2704
23.6952
2.30112
49.4028
18.5443
32.4583
4.45659
47.5143
4.20839
50.3855
23.831
32.5369
4.79143
0.2947
3.40922
7.47395
23.7489
6.28518
29.5707
461.791
1.1157
21.5516
7.75085
20.8576
2.15892
190.74
4.56838
0.967228
0.284412
10.8859
0.889029
1.17352
6.92604
0.901675
8.59828
39.9597
29.9406
82.744
8.88175
38.8696
32.6364
9.41863
1.45503
676.857
5.0085
2.63287
1.25485
19.3874
2.77372
8.98113
72.4076
24.1846
1.49692
81.0354
1.66218
1.89007
3.44931
0.281367
10.4838
0.825117
0.977482
1.32547
74.0666
9.47358
9.88442
21.1595
29.345
19.8285
94.3795
0.377173
42.1791
2.5891
1.08857
2.71131
1.0943
1.53017
170.586
2.07321
13.6631
9.33162
7.36382
46.3477
35.8587
24.3487
0.88427
28.2111
1.73965
0.281967
17.0335
75.6744
1.37076
0.982053
1.20698
2.78248
20.2694
0.888222
24.7738
15.9038
5.63522
150.487
18.6584
2.2325
0.916801
2.61528
18.8964
14.7239
12.0044
13.122
4.90576
3.1595
26.8417
15.4785
13.4124
0.554111
10.8465
0.812262
0.677524
3.72373
12.4682
13.4735
26.56
1.5679
37.1304
0.27024
7.43776
18.2784
4.51696
45.7646
2.59055
2.98091
1.43254
2.03839
13.7232
10.9651
9.56829
28.6125
0.510325
0.738966
10.4827
15.8299
8.94091
0.914073
34.916
17.3299
9.68758
32.9846
42.0459
5.14985
3.45236
5.42623
4.23532
1.76288
2.1006
2.57926
49.2185
2.76835
15.2541
11.4675
11.1991
17.2775
2.66337
2.87724
17.2826
3.95042
5.88766
10.7364
0.851196
3.51234
1.44264
12.1377
0.516605
0.807656
1.42751
0.910014
22.7898
138.29
1.49585
2.25917
22.4736
10.2416
8.0542
5.06121
4.03917
17.2599
0.739329
3.10089
69.2076
1.91651
7.58969
9.50978
0.715973
0.796227
81.5389
30.9971
10.7595
107.376
28.3502
48.8929
31.09
3.18922
1.20697
0.601315
15.5224
0.29641
1.33425
65.7176
23.8218
4.98524
0.826271
0.38422
23.4995
0.816012
0.284525
1.53913
2.58055
50.3409
7.2641
27.8179
8.53374
5.72671
24.7738
12.9407
1.47976
17.2683
86.244
0.926658
2.50302
1.37326
5.13748
3.30163
47.8109
67.8594
6.2091
8.11574
1.07248
6.13226
0.633346
25.8824
6.52914
10.2539
63.6614
0.280688
8.76027
3.5739
67.6794
1.23329
5.01755
4.22401
1.44529
82.6034
58.0442
4.51524
10.789
0.739215
0.623208
9.58889
54.3031
136.891
0.290165
49.4979
4.59894
2.74146
1.55447
4.51673
9.21864
79.1186
11.8399
0.65651
0.631351
0.836204
52.28
1.04721
1.00786
0.407179
2.57359
0.742746
0.310731
11.3032
5.51235
5.92059
21.9458
40.3883
0.702983
1.47513
8.92626
11.14
11.1677
0.897939
2.29923
2.79099
0.740754
2.69289
1.53272
1.53688
1.55444
47.3373
0.85317
0.672773
6.35522
6.08722
19.4955
6.10755
13.3873
13.065
0.687152
0.702984
4.88241
0.336493
21.7961
3.54024
1.40411
11.9917
0.30775
2.3643
0.296184
27.9832
2.04988
11.6937
4.09231
2.55313
12.8838
0.753429
8.61178
23.1649
8.78753
3.95379
17.5421
7.82871
6.01402
0.366797
6.81835
0.663385
9.35339
4.01609
56.7339
55.1266
103.769
1.58566
6.51965
0.648929
0.929601
21.329
2.41437
6.27545
1.12638
2.17435
32.9805
1.75874
24.5371
1.94367
2.29425
5.8022
0.810126
2.9699
0.92273
18.4111
27.5221
0.397069
8.47768
0.779229
1.54351
6.80431
1.112
6.71549
11.9141
214.152
2.59612
1.76995
6.39848
8.598
36.3602
2.89927
2.52179
1.4198
1.72652
13.04
5.70861
7.23542
11.8053
0.669067
29.1228
2.95731
0.326507
10.3906
4.91075
1.46173
15.2464
0.421044
1.00061
1.04626
0.284456
5.65534
0.642379
5.78006
5.37975
8.69336
3.84131
1.62109
2.0822
1.23158
2.1134
13.6813
6.83143
1.11153
6.07833
11.8332
86.4825
56.4407
3.17272
110.329
2.04478
2.19196
5.16925
57.9669
44.8514
0.735561
0.510508
1.02996
0.7757
0.480647
7.65229
5.28481
168.959
0.378826
0.660566
8.37862
16.5575
11.6881
1.14411
0.832875
0.278049
196.226
11.7611
1.5996
1.83807
2.03712
12.2873
1.05349
23.7539
39.4084
0.280036
30.9051
10.2898
2.49361
27.4049
1.57524
0.664811
1.3746
19.727
1.9381
1.60401
2.80992
0.438046
49.5064
13.6814
12.8413
2.25028
0.541248
20.7969
4.08827
10.4274
0.502536
1.55093
0.280862
21.4357
27.9826
3.50926
1.95839
2.97904
1.07522
67.116
17.2707
1.80317
52.3157
56.3644
163.896
56.1351
1.68978
22.5164
4.69297
3.51582
1.37686
0.601343
23.0834
1.55364
1.48699
11.193
1.50115
14.8619
3.71461
3.69928
1.53374
2.90397
55.634
1.06721
0.648196
1.53962
10.3937
6.55318
20.5848
1.20869
1.51612
12.8981
0.762716
0.560335
0.557795
1.39757
0.729642
1.12919
2.08277
4.65216
56.2426
22.9987
6.71147
8.87841
8.10983
5.20647
4.77595
21.7678
8.58106
14.5261
8.26045
34.2966
9.3204
0.807801
0.68905
0.970085
4.19911
12.3988
2.0486
1.83503
1.4915
2.71821
93.0851
34.7046
27.234
33.059
15.3859
23.6626
32.5105
4.25878
8.98602
13.9252
0.711844
1.77117
171.746
3.95776
0.458759
1.23721
0.702972
39.9111
35.4223
7.56486
29.5302
2.84445
7.09078
20.348
2.878
1.12979
0.386589
8.27707
0.776321
1.46946
7.80114
7.76179
27.4418
1.50096
2.34856
1.97064
1.47585
25.1606
27.6781
19.529
0.271069
0.737246
0.857121
0.980266
7.45742
3.67091
8.07968
2.33033
0.874913
43.8266
9.19636
5.58365
1.42497
12.8455
0.754633
1.95483
1.92714
0.805129
23.8969
29.4039
0.339619
18.8882
0.448082
1.72736
3.85379
9.62234
5.34802
4.02957
42.3662
1.60687
8.72845
1.24042
0.500866
2.70496
0.441931
26.2856
26.5463
7.09907
3.89234
29.0395
1.63905
0.429825
6.10157
0.577085
31.1116
43.988
0.382682
0.772111
46.4258
6.99464
2.20434
7.08483
38.2503
2.01223
5.20569
0.689707
0.426236
1.52665
3.08382
29.0276
1.72305
28.5616
0.483448
1.86621
2.96978
28.5418
1.2878
0.364743
0.834605
4.26302
16.2931
86.4879
5.92928
2.23515
0.669143
1.92793
85.7824
12.706
4.03803
2.91893
6.21315
69.7586
3.03309
35.2804
7.49425
1.73288
3.88541
1.73915
18.9361
0.647919
3.58899
4.46794
3.20005
2.52974
0.46756
1.32726
1.15179
2.25819
13.8648
20.6541
7.68107
3.42166
6.24377
1.74003
2.56876
2.56476
13.5427
23.4694
1.06083
44.2214
0.599228
39.3813
107.742
1.69907
18.8261
1.96067
7.46379
2.93345
1.18627
3.15256
40.4872
3.34939
86.5647
7.37412
22.2201
31.4186
1.36796
39.9644
30.827
5.43824
34.6262
20.8792
3.65423
27.3067
7.58363
3.63135
43.5603
4.54837
5.52001
0.923721
1.4097
1.27323
1.30358
4.37163
6.98115
28.9532
31.6189
2.12418
0.656619
3.64396
5.6066
60.4525
2.90342
0.581452
13.055
0.809474
29.1283
18.9657
1.06305
116.087
3.70687
2.78905
3.51189
52.1278
0.352784
50.7603
33.4062
1.53398
45.3503
45.456
25.9484
1.57197
0.407421
0.750641
1.59392
0.657325
7.48663
10.0741
61.9419
2.46636
20.5505
26.4101
28.7163
2.353
5.36618
24.4229
1.70768
1.77073
4.02397
4.96615
240.96
70.1295
2.45423
3.39836
3.13975
9.99448
47.1729
43.0709
4.42014
0.307263
0.753791
5.92326
30.0095
87.5774
1.62527
2.29682
1.55706
72.0373
5.13837
66.9683
15.7591
12.8624
0.882036
50.3013
0.477033
4.71552
0.687076
68.1794
2.40501
73.2175
0.281144
3.11809
24.0607
13.74
2.2898
0.480897
1.53047
38.0529
45.4145
29.5446
5.95037
1.43085
1.80246
59.1522
3.26283
4.09718
76.7603
232.522
24.2588
1.08105
14.7066
5.58452
0.922616
0.739502
7.59466
1.62545
1.7185
5.12177
2.22487
38.4624
1.77676
30.5591
4.51956
0.523535
8.62801
2.06922
9.19243
0.531533
33.4343
1.2918
2.37317
6.58276
2.88499
13.3503
87.5853
6.41072
1.70676
4.21708
25.6348
1.4034
0.275841
113.448
5.64894
2.60811
2.17089
1.369
2.40831
3.63052
5.76428
1.21141
3.26483
0.743197
109.815
0.390121
3.35624
0.711036
3.31161
0.581648
2.8631
137.347
2.26246
0.600513
46.0796
0.972683
2.23221
6.97832
1.67394
1.34114
14.462
0.613038
28.7557
1.45416
7.73285
0.58268
1.37052
3.58347
4.32384
1.2476
90.0023
45.3069
43.4547
4.75862
1.31684
1.85153
26.86
0.639317
6.8903
76.3262
2.55069
13.9626
126.104
10.3407
5.95541
1.35223
0.271384
0.579277
0.599703
6.69872
1.06125
29.3978
4.63543
1.02071
5.12187
5.91946
17.7446
1.14158
20.1916
6.12542
11.4871
1.34276
12.3803
0.559167
0.646992
0.383099
0.810993
0.893658
5.72245
2.20802
117.153
18.0818
60.2344
7.65145
6.33497
56.4725
0.695903
2.84984
4.57137
26.5725
4.31796
3.97058
1.35006
1.21413
4.23371
4.20674
17.0106
2.13875
1.74857
25.4267
2.17715
2.59404
0.680534
1.82497
8.55713
32.0326
3.66447
6.15408
4.87565
9.39167
1.33408
1.42499
22.2125
1.12759
1.90953
4.93095
1.42438
2.17029
1.05797
0.79282
0.47882
58.2752
0.65708
3.13892
1.77699
94.4388
31.3203
37.3184
0.499023
40.6982
0.55713
46.7201
35.1919
27.8697
31.913
2.00192
0.759474
0.863125
1.90856
2.01331
35.5883
0.271692
0.510801
0.289787
10.4831
2.97953
17.1476
2.24052
1.80668
3.65018
3.05386
0.931902
20.8255
0.459929
1.02701
29.3071
27.2252
10.7661
0.710606
0.515907
9.13891
0.379396
0.354126
1.29897
0.555647
1.14753
3.19038
1.2257
88.1892
1.48175
1.5055
28.5724
1.41661
23.3803
30.9301
3.91072
19.2612
2.31481
11.206
2.15044
0.810505
1.85739
159.683
4.44163
52.2506
2.89785
27.778
0.396589
0.292599
3.97093
14.9266
27.9668
4.37886
16.3754
8.39253
2.87278
1.1308
7.19646
0.82424
1.27211
13.3776
0.283339
8.57839
10.3419
4.4657
3.2956
34.7357
4.38392
63.7556
62.4748
12.9074
4.73579
1.94404
1.42972
1.41248
6.9638
9.30006
0.6661
2.5887
40.0417
184.009
13.3098
27.9523
1.88026
8.09895
6.69031
16.7024
2.04985
22.2899
4.365
17.174
0.516357
18.4912
0.828265
1.38091
0.895498
0.683891
6.01277
62.1773
53.952
2.94744
43.6779
1.75401
7.63059
5.16554
0.3856
6.20303
11.6721
745.22
16.0732
8.5216
8.31411
5.52332
3.70949
0.355429
20.8703
1.37441
0.658383
0.371987
0.794903
1.44408
48.9147
1.42089
36.1836
1.05237
1.35336
1.34661
2.34943
4.41823
1.36845
345.898
32.9499
11.0447
0.293524
12.9783
127.555
42.1339
0.349033
1.85908
1.57649
12.6513
5.67183
2.43237
5.24353
17.8643
0.87252
6.23597
0.931131
8.75562
25.036
11.4914
0.983348
4.28731
93.3435
2.3595
31.7398
9.97526
2.24109
3.11608
1.65459
0.467334
0.434775
5.23073
4.94944
60.129
1.96509
1.46928
0.380346
0.64082
106.62
0.686364
1.09559
20.7024
1.90393
12.2431
3.13068
0.643315
4.09308
0.580735
1.15026
11.6527
3.21123
47.393
5.26479
3.59789
6.40149
1.0903
55.0953
8.32086
16.8097
2.57044
3.3513
0.36765
0.496367
1.19597
0.515485
1.35974
0.359635
5.40037
1.25327
4.62
25.5932
7.46573
93.0452
3.15354
2.12442
1.61745
1.1346
12.8633
2.22499
0.566834
0.275047
1.51524
1.75242
1.54116
4.65017
143.095
3.52655
0.841003
140.754
65.7357
6.01111
80.9411
3.06769
1.85628
2.5662
6.78695
59.1352
1.66329
1.5928
10.7642
0.704345
5.96121
12.1788
83.5046
1.54554
2.48831
0.343314
0.584772
0.481407
5.68537
0.44961
0.62744
10.4171
6.81259
2.17151
10.3756
4.01174
2.20237
24.8578
9.49911
0.463512
176.853
0.614704
1.85076
65.7688
43.0939
1.75231
2.26728
15.7508
1.11208
33.3205
2.44088
4.5076
15.6664
91.0428
11.4375
2.25162
0.66256
4.27462
111.106
21.1021
22.0935
6.23226
0.507088
1.84387
14.1466
2.48733
21.3178
50.5539
1.81266
2.92139
7.93706
0.646611
0.277708
1.41249
0.591156
2.82371
7.99824
17.3582
23.9258
25.2267
5.32013
106.71
38.2923
59.8581
0.679377
0.364467
2.85274
0.624728
0.675428
8.75088
1.06334
24.9425
7.49079
7.17599
10.7101
38.5695
33.9662
4.0028
150.091
0.297511
7.55233
10.0088
0.346466
68.914
45.9485
2.01305
2.03472
60.0468
8.15153
25.6458
1.57021
2.41429
0.396195
0.540914
1.3843
1.19849
2.65225
1.92592
0.641284
0.358437
57.4282
3.00405
0.284035
2.27958
0.334542
22.8707
1.56178
5.71456
7.54293
0.666189
5.57645
72.2942
47.1282
3.19912
6.63033
32.2219
2.06082
22.7967
0.836261
1.87864
2.5185
0.907085
7.73426
0.271202
15.1986
16.891
30.5331
0.824573
0.944859
1.08471
76.2083
36.9845
649.682
13.6388
0.727493
1.28221
0.62855
3.02007
1.47321
1.746
23.8411
0.759753
15.6388
1.09346
1.31238
21.655
1.35608
5.55436
4.03283
0.721962
4.16109
24.2652
4.22514
1.41899
3.03045
9.93091
7.67376
0.861959
6.02276
141.705
28.6767
8.46614
5.08446
12.8852
0.369517
3.2888
0.408999
34.8519
1.29693
23.4911
0.98661
4.95661
3.12697
2.57641
0.814374
0.778692
39.3791
45.6371
1.38282
1.31935
14.7479
34.7729
0.796279
7.56807
35.3829