/*--------------------------------*- C++ -*----------------------------------*\
| =========                 |                                                 |
| \\      /  F ield         | OpenFOAM: The Open Source CFD Toolbox           |
|  \\    /   O peration     | Version:  v1912                                 |
|   \\  /    A nd           | Website:  www.openfoam.com                      |
|    \\/     M anipulation  |                                                 |
\*---------------------------------------------------------------------------*/
FoamFile
{
    version     2.0;
    format      ascii;
    class       surfaceScalarField;
    location    "0.01";
    object      phi;
}
// * * * * * * * * * * * * * * * * * * * * * * * * * * * * * * * * * * * * * //

dimensions      [0 3 -1 0 0 0 0];
oriented        oriented;


internalField   nonuniform List<scalar> 
2708
(
-0.000124842
-5.76757e-05
0.000122689
5.98288e-05
9.50856e-05
0.000375238
-0.00032555
-0.000144773
-0.00020957
-6.40865e-05
0.000234291
3.93651e-05
-0.000360671
0.000304963
-6.50368e-05
0.000120745
0.000165372
9.75824e-05
-0.000125379
-0.000137576
0.000580979
-0.000431576
8.90445e-05
-0.000238447
0.000193072
-0.000163842
0.000122422
-0.000151652
-0.000250042
0.00074461
5.65165e-05
-0.000551085
-0.000166824
0.000190651
0.000259241
-0.000283069
0.000114792
0.000326318
-0.000248038
0.00116696
-0.00117431
0.000273672
-0.000266317
0.000256891
-0.000248251
0.000710809
-0.000719449
-0.000274752
0.000310387
-0.000197941
0.000162306
0.000185813
0.000350432
-0.000360308
-0.000175937
0.000140254
-9.87974e-05
-8.1557e-05
4.01006e-05
0.000257394
7.39399e-05
-0.000216542
-0.000418698
0.000413041
-0.000177498
0.000183155
-9.61322e-05
0.000110029
-5.27083e-05
3.88118e-05
0.000343024
-2.66603e-05
-0.000347121
3.0757e-05
0.000109649
-3.12468e-05
-9.48719e-05
1.64702e-05
-0.000417092
0.00105506
0.000528991
-0.000210487
0.000139662
0.000256637
-0.000243563
-0.000112686
0.0001819
0.000174349
-0.000436326
-0.00110891
0.00122497
0.000320273
-0.000277127
-0.000133259
-0.000140612
5.82217e-05
0.000286493
-0.000204102
-0.00112078
-0.000195422
0.000141885
-1.3633e-05
0.000125831
6.13982e-06
-0.000118338
2.10829e-06
-0.000195792
0.000193684
-3.67301e-05
-0.000514713
0.000551443
0.000524868
4.95751e-05
-6.4603e-05
-0.00050984
-0.000328029
3.68013e-05
-2.39471e-05
0.000315175
0.000486858
5.18739e-05
-3.37869e-05
-0.000504945
0.00031209
-0.000186804
-0.000153326
2.80399e-05
0.000385019
4.98897e-05
-0.000468471
3.35618e-05
-0.000155439
0.000299382
-0.00019919
5.52473e-05
0.000177393
0.000281017
-0.000151371
-0.000175398
0.000106943
0.000100787
-3.23321e-05
-0.000200276
0.000192524
0.000134914
-0.000127161
4.15724e-05
0.000255693
-0.00028977
-7.49584e-06
-0.000185693
0.000148778
0.000194962
0.000219052
-0.000166786
-0.000248578
-0.000144788
-5.61629e-05
8.98208e-05
0.00011113
-0.000443257
0.000227402
-0.000269685
0.00048554
-9.92249e-05
0.000120089
4.9641e-05
-7.05049e-05
8.88019e-05
-0.000308157
2.49947e-06
0.000216856
-0.00102791
0.000129241
-0.000222103
0.00010504
-0.000130202
-0.00013868
4.94751e-05
0.000134499
-6.34965e-05
-0.000120478
-0.000114776
-0.000352337
0.00038882
7.82927e-05
0.000135225
-0.000126385
-0.000139087
0.000130248
0.000318843
-0.000294829
-0.000110274
8.62605e-05
-1.48283e-05
0.000738224
-0.000167527
-0.000555869
6.35897e-05
0.000346808
-8.0798e-05
-0.0003296
-5.24472e-05
0.000280502
-3.96777e-05
-0.000188377
-8.71348e-05
0.00011941
3.77465e-05
-7.00221e-05
-0.000791067
-0.000321392
0.000634025
0.000478434
0.000350771
-9.71677e-05
-0.000253603
5.7818e-05
-2.59257e-05
-3.18923e-05
0.000126621
0.000295234
-5.66293e-05
-0.000238605
0.000139892
-0.00018395
4.40589e-05
-0.000141477
-3.39205e-05
-0.000119165
-8.1111e-05
0.000144327
8.29694e-05
0.000156635
-3.84388e-05
0.000188514
-3.65842e-05
-7.89189e-05
6.56406e-05
1.32783e-05
0.00018731
-0.000209571
2.22608e-05
-0.000273385
-0.000809526
0.00108291
0.000292399
1.96909e-05
0.000315151
-2.04811e-05
-8.0356e-05
-0.000106448
0.000243584
0.000106848
-0.00011099
1.17648e-05
0.000166099
-2.31766e-05
-0.000142922
0.000215404
-4.51746e-05
-0.000170229
0.000275885
5.04327e-05
-6.83947e-05
-2.77375e-05
-0.000326092
-9.26063e-05
-0.000131397
0.000149178
-1.77806e-05
-6.80071e-05
3.60679e-05
0.000483193
-0.000451254
-0.000257418
0.000315882
3.03383e-05
-0.000137726
7.64884e-05
0.000914662
-0.000853424
1.50651e-06
0.000277018
1.52121e-05
-0.000293737
0.000221534
-1.71928e-05
8.4122e-06
-0.000212753
3.53774e-05
-4.20713e-05
-1.96805e-05
2.63743e-05
2.95725e-05
1.21826e-05
-0.000619192
0.000577437
-2.12156e-05
-1.00501e-06
-0.000566439
0.00058866
0.000242131
-1.42917e-05
-0.000314974
-3.52532e-05
0.000118948
0.000158436
-1.74878e-05
1.2153e-05
0.000112278
-3.60012e-05
0.000100828
-0.00022942
0.000164593
0.000328908
-0.000303891
3.85725e-05
3.76081e-05
-0.000422503
0.000384895
-0.00080756
-0.000143138
-0.000412926
0.000456793
9.92708e-05
-0.000177234
-0.00010293
0.000135376
0.00027253
-0.000214916
-5.76135e-05
0.000345302
-0.000134742
-0.000263007
0.000220019
-0.000102019
-0.000257762
2.16805e-05
-6.35848e-05
0.000299666
-3.64026e-05
1.09254e-05
-3.26605e-05
5.81377e-05
0.000185709
0.000113019
-8.33239e-05
-0.000538543
-2.58932e-05
0.000553675
1.0761e-05
1.35855e-05
0.000381032
-0.000375669
-1.89492e-05
-0.000219669
0.000822536
-0.000883536
0.000280669
0.000202565
-8.21234e-05
-0.000233128
0.000304411
-0.000211402
5.74693e-05
-3.60539e-05
-0.000224324
0.000215816
0.000318895
-0.000213533
5.35214e-05
-9.46492e-05
0.000254661
-0.000141215
0.000145817
0.000144175
6.17969e-05
0.000380097
5.43821e-05
-6.79087e-05
-4.55199e-05
0.00028028
-0.000278773
-1.58593e-06
9.43704e-06
0.000177873
-4.62663e-05
-5.25311e-05
0.000680249
-0.000695077
3.40126e-05
-0.000128934
-0.000680592
0.000286611
-1.07263e-05
-4.34716e-05
-7.96116e-05
-4.41365e-05
4.21911e-05
-4.52792e-05
-0.000142551
0.000123744
-0.000146722
0.0002276
5.10685e-05
-0.000131946
7.39594e-05
0.000339082
9.9997e-06
0.000100029
-0.000304551
-0.000106418
0.000264247
-7.44477e-05
-0.000369839
0.000787311
-6.05175e-05
-0.000116499
0.000286665
-4.41562e-05
0.000104115
8.90069e-05
-8.61965e-05
9.16731e-05
-0.000132171
0.000126695
0.00021563
-5.42621e-05
-0.000217997
0.00076517
2.22887e-05
-0.000729304
-5.81545e-05
8.32989e-05
9.16148e-05
0.000100909
0.000486478
3.4419e-05
3.93391e-05
-0.000560236
-0.000104867
0.000201884
8.48833e-05
9.12147e-05
0.000433252
0.000162645
-0.000129508
0.00028948
0.00018533
0.000271826
-4.77626e-06
8.28103e-05
4.11698e-05
-2.15309e-05
0.000296204
6.07032e-06
-0.000280743
-2.71156e-05
0.000307395
-0.000324287
-3.97575e-05
-8.92523e-08
0.000364134
-0.000189551
0.000149491
5.22124e-05
-0.000739058
-0.000160833
0.000742427
0.000157464
0.000248825
0.00048248
-0.000417623
-0.000313682
-4.81592e-05
2.83521e-05
-0.000526645
0.000546452
-0.000233814
0.000234299
-1.97593e-05
1.92745e-05
0.00071638
-0.000653157
4.83394e-05
-0.000111562
-0.000202694
-0.000265175
0.000269928
0.000201382
-0.000191473
-0.00010982
9.9911e-05
-1.73963e-05
-0.000218195
0.000224131
1.14602e-05
-9.20269e-05
0.000772276
-0.000213341
9.71916e-05
-8.69259e-06
0.0003496
4.11052e-05
0.000153098
-0.000137544
0.000428449
-0.00044575
-3.11232e-05
4.84237e-05
3.37642e-06
-0.000642938
-1.73822e-05
0.000656944
-0.000126599
-0.000321402
0.000318493
-4.98454e-05
0.000369496
1.80782e-05
-0.000337729
0.000235155
-0.000967155
-7.04787e-05
0.000802479
0.000460387
-0.000188666
0.000103517
0.000238169
-0.000742073
-7.23268e-05
-0.000256734
2.45099e-05
0.000318695
-0.000180973
-9.9526e-05
0.000330546
8.78225e-05
0.000281169
7.12391e-05
-0.000253259
-9.91493e-05
-0.000103711
0.000134673
0.000135465
0.000206046
-0.000252221
0.000169327
-0.000123153
0.00116004
-0.00106586
-0.000530503
0.000148335
-0.000201294
0.000371653
-0.000215826
0.000229411
-0.000266208
4.65385e-05
8.54868e-05
0.000623725
-0.000473886
9.87957e-05
5.07327e-06
0.000370017
-3.24712e-05
-2.47918e-05
-0.000651001
0.000708264
0.00046865
-0.000514282
0.000136847
0.000326091
-0.000274558
4.58e-05
-9.7333e-05
0.000257105
-0.000362916
0.000147383
0.000736383
-0.000110519
0.000196672
2.61895e-05
0.000312507
0.000591797
-0.000421824
-0.000300573
-0.000234144
0.000391579
0.000382077
-0.000374412
3.54888e-05
-4.31533e-05
2.29887e-05
1.41436e-05
2.85082e-05
-6.09015e-05
-3.51144e-05
-1.17098e-05
0.000107726
0.000277212
-0.000213974
-3.66275e-05
-2.66103e-05
-6.24302e-05
0.000201734
6.20786e-05
-0.000665383
-0.000563422
0.000891098
0.000337708
-2.72477e-05
0.000249623
-0.000232036
9.66119e-06
-0.000129639
0.000233601
-0.000256862
0.0001529
5.25147e-05
0.000531902
-0.000555555
-2.88621e-05
3.28165e-05
-0.000340493
0.000337541
-2.98645e-05
-1.53529e-05
1.32777e-05
7.74385e-06
-5.66861e-06
0.000800368
-0.000780833
-0.00017227
0.000152734
-7.78502e-05
-4.07271e-05
-0.000670829
9.4249e-05
0.00057658
-4.02303e-05
7.48583e-05
-0.000226101
0.000368031
7.471e-05
-6.17084e-05
-0.000464438
-0.000150329
7.62239e-05
-0.000206094
-0.00082789
0.000896258
-2.42691e-05
-0.000122482
0.000419281
0.000323587
-6.3409e-05
-0.000281709
0.000111564
0.000387685
-0.000117172
0.000312974
-0.000113909
0.000165456
-0.000364521
0.000265915
-0.000687225
-0.000244073
0.000175506
0.000178935
-0.00032052
-3.39208e-05
-0.000160439
0.000181362
0.000185123
0.00012794
-0.000123636
0.000171988
-0.000176292
-2.08417e-05
0.000216249
1.34487e-05
-0.000208856
-0.000458355
0.000309574
-0.00083018
0.000895723
-0.000271637
-0.000636124
0.00086496
-0.000792257
-4.93361e-05
6.48593e-05
-0.000202564
3.24293e-05
0.00034907
-0.000503522
8.03669e-05
0.00068907
0.000115765
-0.000474259
0.000654194
-0.000295699
1.9319e-06
4.77773e-06
0.000518159
6.70074e-05
-0.000537384
0.000522892
0.000144626
-5.08699e-05
0.00016335
-1.06242e-05
-0.00033203
1.46256e-05
-0.000593687
-6.05963e-05
0.000615814
3.84688e-05
0.000329028
0.000136977
-9.79738e-05
0.000103973
-0.000225604
-0.000342806
-0.000100753
0.000308704
0.000260699
-0.000248929
0.000197233
0.000241131
-0.000189435
-0.000246516
0.000263362
-8.91724e-05
-0.000223392
0.000211627
0.000225343
-0.000213578
0.00018514
-0.000214952
-0.000303076
0.000442823
-3.57735e-05
-0.000197641
8.59522e-06
0.000134952
9.33689e-06
-0.000152884
-0.000429885
0.000294365
-0.000438182
0.00103492
4.85563e-05
-0.0002666
-0.000102477
-6.87845e-05
-0.000100311
2.99176e-05
-9.21789e-06
-0.000194062
0.000714878
-0.000491243
-0.000236507
-1.47039e-05
0.000221175
-1.92671e-06
-1.5816e-05
6.94938e-05
-0.00034075
3.80173e-05
0.000299026
3.70638e-06
-0.000237163
-1.54757e-05
1.61325e-05
-0.000362358
0.000975859
0.000282221
-0.00055122
0.000635059
-0.000203961
0.000120121
-6.51278e-06
0.00023197
4.64718e-05
3.58976e-06
-0.000282032
-1.05483e-05
-0.000191437
-0.000108515
0.000169268
-4.74929e-05
-0.000236489
-0.000167314
-0.000242485
-0.000542278
-0.000781071
0.000104051
-0.000275534
-0.000164459
0.000335942
-5.01851e-05
0.000186008
0.000600561
0.000145166
-0.000878715
4.48229e-05
7.45875e-05
8.6803e-05
1.08948e-05
0.000348548
8.23005e-05
-0.000101821
-0.000326626
-7.9722e-05
-0.000245615
0.000165852
-0.000169166
0.000789029
-6.92726e-05
3.8801e-06
0.000370689
0.00089294
2.51609e-05
-0.000129072
-0.000610705
-0.000222899
4.96598e-05
0.000783944
-0.000257949
0.000324956
-0.000304121
0.000441098
-0.000300233
0.000326969
-0.000153335
-0.000186371
0.000106254
-0.000199185
0.000279302
-2.6639e-06
0.000335162
0.000385385
-0.000237337
6.3539e-05
-0.000211587
0.000310983
-9.70687e-05
-0.000286195
7.22799e-05
-0.000123014
0.00051317
-0.000458163
-0.000247485
6.02429e-05
-0.000153508
-0.000217441
8.36361e-05
-0.000118407
0.000805095
-0.000770323
0.000353692
-0.000222012
-0.000276454
7.6358e-06
-0.000142229
0.000140014
-0.000291397
0.000293611
9.28902e-05
-0.000442799
-1.81894e-05
-0.000307671
3.48081e-05
0.000291053
3.75095e-05
-0.000785104
3.3032e-05
-0.000269517
0.000456758
-0.000722966
0.000105852
-0.000321678
-0.000147967
-0.000132706
0.000256404
-0.000206588
-5.13611e-05
0.000135331
0.000276342
-0.000122193
-0.000232969
0.000232338
6.30537e-07
8.47279e-05
-0.000333911
-7.74431e-05
-0.000258386
0.000363386
0.000111449
-0.000216448
-0.000335774
-0.000431362
0.000168136
0.000599
-0.000235068
-2.2937e-05
-0.000252596
-0.00030055
0.000170619
0.000157727
0.000238718
-0.000423031
6.27679e-05
-0.000478934
0.000542682
0.000248759
-3.5399e-05
0.00032201
-8.93264e-06
6.39801e-05
-0.000114165
0.000306347
-0.000301651
0.000185955
-0.000449088
0.000307834
-6.2571e-05
-0.000354554
4.27125e-05
6.61115e-05
-5.35042e-05
3.72369e-05
0.000109016
-9.27488e-05
-0.000936635
0.000613391
0.00102906
-0.000705813
0.000372107
-0.000414682
-0.000210022
0.000292511
-0.000149802
0.000137653
-2.84592e-05
3.99839e-05
0.000315717
-3.15669e-06
-0.000330749
-0.000191868
6.81318e-05
0.000289373
-0.000165636
0.000220582
1.37091e-05
-7.72632e-05
0.000313697
-0.000150378
-0.00030942
0.000146101
0.000562759
-0.000580774
0.000240119
-0.000222104
0.00027477
-1.3768e-05
-3.98271e-05
0.000232481
-0.00038281
6.75341e-05
1.04947e-05
-6.47505e-05
0.000290523
-0.000139135
-0.000293617
0.000118151
-0.000191273
-9.81841e-05
0.000171305
-0.000237705
-5.63038e-05
-0.000250763
-0.000137262
-0.000230086
0.000272854
0.000171824
-0.000214592
-7.99563e-05
-0.000561889
-0.000193976
0.000286468
-0.00028436
-4.726e-05
-8.40934e-05
-0.000280211
0.000113542
-0.000274974
0.000329008
-0.000470234
0.000416199
-0.000105205
0.000283382
-3.23608e-05
-0.000208718
0.000198074
0.000316992
-0.000651428
0.000419911
0.000540221
-4.57494e-06
-0.000297159
0.000531445
-0.00037882
0.000740315
-0.000312013
-0.000441895
-7.71992e-05
0.000324048
7.1292e-05
-0.000318141
7.40379e-05
-0.000105809
0.000399114
-0.000367342
-0.000125461
-1.12893e-05
0.000127607
9.14383e-06
0.000373032
-3.7732e-05
-1.95829e-05
0.000296227
0.000308987
-0.000291033
-0.000314181
1.08814e-06
-1.0751e-05
-0.000115798
0.000326873
-0.000290369
-0.000150149
0.000113646
3.55694e-05
0.00014923
0.000910881
-0.00109568
-0.000463414
0.000579178
3.25514e-05
-0.000773632
0.000708609
-8.2369e-05
0.000112463
-0.000240581
-0.000307103
-0.000123877
2.81734e-05
-0.000720315
0.000972299
-8.97453e-05
-0.000162238
-0.000138614
0.00015201
-0.00085064
0.00065464
4.90553e-06
-0.000209619
0.000206822
-8.35518e-05
-0.000542829
0.00058965
0.00109473
-0.00109348
6.84159e-05
0.000109239
-8.00726e-05
-0.000342201
4.82169e-05
0.000704494
-0.00041051
-0.000225621
-0.000204391
0.00020662
0.000294264
4.9361e-05
0.000815196
-0.000781009
-0.000305823
0.000354652
-0.000107086
0.000147348
-0.000143229
0.000102968
0.000296187
-0.000279009
1.51863e-05
-3.23643e-05
-0.000431302
0.00088414
0.000271438
-0.000250971
-0.000223161
-0.000369961
0.000324319
-3.78443e-05
0.000209382
7.39929e-05
-0.000245531
0.000122143
-0.00126762
-0.000766442
8.05627e-05
0.000313936
-9.93479e-05
-0.000295151
0.000336101
2.44871e-06
-3.93695e-06
-0.000334613
0.000300984
2.83635e-07
-0.000188222
-0.000113046
0.000409808
-0.000483054
0.000108735
-0.000237701
-0.000218851
0.000230932
0.000277627
-0.000120683
-0.000254356
-5.48279e-05
9.44695e-05
0.000214714
-0.000364976
-3.75542e-05
0.000148174
-0.000232596
-3.8633e-05
3.6161e-05
0.000651081
-9.59789e-05
-8.31121e-05
-0.000306525
0.000227935
-0.000178499
0.000257088
-0.000161847
3.65092e-05
-0.000181186
-0.000128945
0.000303507
0.00024
-0.000333279
-0.000225234
0.000318513
0.000379185
-0.000371602
0.000301404
2.1918e-05
0.000310364
-0.00036444
0.000538579
4.3562e-05
0.000281635
-2.61708e-05
-6.59459e-05
0.00010525
0.000117321
-0.000156625
0.000269155
-0.000148768
4.51267e-05
-0.000165513
-0.000398818
0.000207242
-4.35211e-05
4.92076e-05
-5.68647e-06
-0.000109561
8.76135e-05
0.000293189
-0.000113437
8.9402e-05
0.000386104
-0.000210608
-0.000107364
0.000284784
-9.68352e-05
0.000105241
-0.000269591
7.79378e-05
-4.72411e-05
0.000238894
3.50904e-05
0.000346457
-4.67045e-06
-0.000113506
8.97172e-05
0.000291802
0.000210177
-0.000284723
-0.000217256
-8.13654e-05
-5.84053e-05
-0.000512849
0.000273893
-9.76249e-05
0.000108515
-5.22307e-07
0.000224781
1.24781e-05
-0.000257168
-0.000174793
-0.000109137
0.000379746
0.000267875
-0.000267106
-0.000105585
0.000118233
0.000261245
8.86581e-05
-5.14674e-05
3.12252e-05
-5.6139e-05
0.000105301
-8.04085e-05
-7.48747e-05
0.00037076
-0.000322546
-0.000132468
-0.000137393
5.63273e-05
-0.000366688
-0.000979365
0.000237139
-3.59299e-05
0.00026698
-3.74962e-05
-0.000193554
0.00025097
-0.00025439
5.6644e-05
-5.32239e-05
0.000289108
-7.40678e-05
3.67064e-05
4.76682e-05
0.000186291
4.29151e-05
0.000176243
6.99496e-05
-0.000313996
0.000217385
-9.97021e-05
0.000196313
-4.10076e-06
-0.000135573
0.000231072
-0.000132575
3.70757e-05
0.000240431
-0.000158619
5.54652e-05
-0.000101778
0.000277385
0.000104977
-8.08406e-06
-1.59201e-05
-8.0973e-05
0.000625632
0.000348623
-0.000183456
-0.000790799
0.000133828
-3.96016e-05
0.000123389
-8.50692e-07
-8.81612e-06
0.000131752
0.00015181
-0.000116578
-3.95419e-05
6.46508e-05
9.14688e-05
5.61059e-05
-6.36674e-05
0.000112737
-0.000152066
-0.000190192
0.000229521
-0.000269961
0.000256791
7.50776e-05
-6.19071e-05
-0.000279069
-9.01013e-05
9.92092e-05
-0.000132538
0.000130878
-8.58656e-05
8.75252e-05
-0.00015354
0.000162243
6.45191e-05
-7.32222e-05
-1.19908e-05
4.94193e-05
4.36036e-05
8.50021e-05
0.000182281
-0.00029393
0.000193926
1.76349e-05
-0.000796592
0.000139186
0.000757646
-0.00010024
-5.83923e-05
3.62416e-05
1.016e-05
-0.000104133
-6.0629e-05
0.000128032
4.27788e-05
-7.99182e-05
-0.000130984
5.10587e-05
-7.07282e-05
0.000150654
-0.000849134
-1.79367e-05
8.12699e-05
-0.000187389
0.000191122
3.71905e-05
-0.000100538
-6.46189e-05
4.62654e-05
-0.00011263
6.19855e-05
-2.94683e-05
-0.000927622
6.79401e-05
-8.60894e-05
-0.000111067
-0.000348637
-0.000556697
0.000159591
-0.000172178
-4.35761e-05
0.000123027
-5.82044e-06
3.44991e-05
0.000149027
-0.000196496
-7.031e-05
0.000117779
-0.000845028
0.000148276
0.000498336
-0.000386901
0.000514197
0.000128161
0.00010368
-0.000140442
0.000164317
-0.000110072
0.000108737
3.53098e-06
0.000140142
8.37133e-05
0.000204881
6.2297e-05
4.27736e-05
0.000130614
-0.000634303
0.000287611
-0.000228639
0.000140373
-6.71729e-05
-0.000187721
0.000172881
0.000159136
0.000219211
-0.000173466
4.72034e-05
-3.19114e-05
-5.24379e-05
0.000167294
-0.000144892
-1.94658e-05
-4.12293e-05
-0.000115814
0.000176509
-0.000533932
0.00012252
-0.000143516
-0.000207643
0.000142098
1.18806e-05
-2.78239e-05
0.00010904
-0.000147771
6.65546e-05
8.63971e-05
-0.000177555
0.000217994
-0.000126837
3.19021e-06
-3.22596e-05
6.87538e-05
-1.17853e-05
2.14153e-05
-0.000861665
0.000144278
0.00021213
7.18272e-05
-0.000161437
0.000197261
3.66533e-05
-0.000269168
-3.32063e-05
-0.000366894
0.000343876
5.62243e-05
-1.27773e-05
0.000256054
-0.000185055
0.00012641
9.40533e-05
-0.000188786
0.00015558
-0.000277902
-0.000624095
4.03311e-05
-0.000682615
-0.000302246
0.000106685
-9.6646e-05
2.57491e-05
0.000326754
0.000155753
-0.000149871
2.82142e-05
0.000140237
2.88103e-05
0.000133254
-0.000173855
-6.0542e-05
0.00031337
-0.000327703
8.08541e-05
-8.21419e-05
0.000132391
-0.000321177
0.00021077
0.00023612
0.000125459
-0.000359962
9.69539e-05
0.00014534
0.000225433
-0.000277379
-0.000429071
-0.00036274
0.000127247
-7.26632e-05
0.000286752
-0.000216303
0.000162394
-6.07709e-05
-0.000234255
0.000144362
0.000208646
0.00025306
-0.000251451
-2.45466e-05
-0.000989506
-6.36598e-05
0.000195505
9.31783e-06
-0.000117743
1.79186e-05
3.1289e-05
-3.81698e-06
2.44667e-05
-0.00023759
-7.17063e-05
0.00028483
0.000228856
-0.000168588
-0.00016611
0.000263499
0.000128044
0.000204468
-0.000319293
-0.000183393
0.000298217
0.000194724
0.000160415
4.32802e-05
0.000367303
-0.000293265
0.000146276
0.000224568
-0.000162198
-9.51914e-05
1.69543e-05
-0.000222725
0.000318704
-0.000244747
-0.000192496
-6.5782e-05
0.000258278
-1.08133e-05
0.000318521
-0.00028579
2.91858e-05
0.000282033
-0.000270925
9.12748e-05
7.12475e-05
-0.000250869
0.000215805
-0.000450327
0.000592871
-0.000142545
0.000189657
-0.000184447
-0.000300881
-7.86627e-05
-2.33075e-05
0.000402851
-0.000310129
0.000139254
-8.64131e-05
0.000257288
-3.69162e-05
5.71705e-05
0.000296755
0.000160886
-0.000354516
0.000353355
-0.000159725
-0.000128023
6.58634e-05
0.000106219
0.000241028
-0.000272186
0.000251565
-1.39805e-05
-8.04363e-06
0.000315003
-8.30236e-05
-0.00101442
0.000886305
-0.000288975
4.7884e-06
-0.000250204
-0.000886447
-7.78985e-05
0.000508585
0.000326608
-0.000109574
-0.00031615
0.000348525
-0.000563928
0.000682351
-0.000128465
-0.000296353
0.000315245
0.000286957
1.41868e-05
3.71865e-05
-0.000359442
0.000314212
0.000133259
-0.00023835
-3.56922e-05
0.000140783
-0.000277183
0.000243127
-7.15294e-05
-0.000555187
0.000114811
0.000769384
-0.000101795
0.000240448
0.000278181
7.77593e-05
-0.000119925
0.000106236
1.36885e-05
0.000415562
0.000252404
-0.000256371
-5.68035e-05
2.20234e-05
0.000301369
-0.000323392
-7.0744e-05
0.000273872
-0.000361747
3.73493e-05
-0.000255033
-0.000294217
-8.05915e-05
0.000264188
-0.000294529
-0.000524845
-0.000464512
0.000266643
-0.000164871
0.00036361
0.000193424
-0.000346857
0.000259883
0.000334903
-0.00035981
0.000642535
-0.000123488
5.55589e-05
-1.08632e-05
-0.00024839
-1.61373e-05
9.46077e-05
8.39237e-05
0.00029816
-0.000331718
0.000252007
-0.00026282
-0.000388324
-0.000437097
0.000302101
0.000300452
-0.000251788
-1.82217e-05
3.41007e-06
-0.000184934
0.000214705
-0.000249049
0.000219278
5.41048e-05
-0.00023608
-9.54042e-05
6.89574e-05
0.000308068
-4.09248e-05
0.000857059
0.00023787
0.000265305
-0.000276665
0.000129593
0.000160232
0.000471696
-0.000441984
-0.000235888
0.000206176
0.000208407
0.000192169
-0.000114108
-0.00132955
0.00125914
0.000293067
-0.000433558
-4.2731e-05
0.000271923
-0.000216147
-1.3044e-05
-8.31048e-05
-3.76795e-05
0.000137477
-0.000119746
-0.000314085
-9.61839e-05
5.73699e-05
-0.000326162
-5.72125e-05
0.00022929
-0.00032246
0.000379573
0.000337186
-0.000189647
0.000158949
-0.000306489
0.000122378
0.000722806
-0.000607015
2.84257e-05
-3.18318e-05
0.000350972
-0.000119066
6.42807e-05
0.000337409
-0.000199769
0.000143529
6.05834e-05
-0.000144693
-0.000273806
-2.04266e-05
0.000126663
-0.000357993
0.000390884
-0.000129075
-0.000240134
6.14615e-05
-0.000145124
0.000461214
-0.000272462
-0.000171323
0.000258851
2.37882e-05
0.000156725
-0.000169817
1.60329e-06
0.000305981
5.58015e-05
0.000273856
0.000100853
0.000137881
-0.000121233
0.0002238
0.000150699
0.000143817
-5.13894e-05
0.000171546
0.000409563
0.000767054
-0.000976765
-0.000139037
-5.49829e-05
-0.000326162
0.00011022
-0.000173695
0.000156953
0.00035212
-0.000165313
0.00045198
0.000243249
-0.000223003
-0.000109418
-0.000136657
0.000101173
0.00030079
-5.10907e-05
0.000303098
-0.000358277
-0.000159521
-0.000248942
-0.000688731
-0.000225682
-0.00029852
-0.000378475
7.52576e-05
0.000334547
-9.21019e-05
-0.000238739
0.000355159
-5.37897e-05
0.000338259
0.000224871
-6.38402e-06
-0.00011518
-0.000605841
-6.26722e-05
0.00019683
-0.000143973
5.89737e-05
-4.25967e-05
-4.56333e-05
0.000294855
0.000426859
-0.000130547
0.000131766
-8.6983e-05
0.000241861
0.000114357
0.000275287
3.20697e-05
0.000378114
0.000858473
-0.000781985
0.000336604
9.79558e-05
-0.000163293
8.70112e-05
8.56186e-05
0.000965142
-0.000106669
-0.000248107
0.000134543
0.00041123
-0.000293976
0.000160205
-0.000559711
-0.000255345
-0.000237443
-0.00069631
-8.5674e-05
-0.000101628
0.000176375
-9.21939e-05
1.74467e-05
-8.65145e-05
0.000149324
-7.64855e-05
1.36759e-05
1.01213e-06
0.000239936
-0.000275112
-6.63441e-05
-4.6222e-05
-0.000292604
0.00031149
-1.8886e-05
-0.000280107
0.000153545
0.00039006
8.85387e-05
0.000149851
0.000324601
-0.000275035
-1.75698e-05
-0.000226549
0.000251898
-2.53482e-05
-0.00010983
-0.000393278
0.000421978
-2.87001e-05
-0.000189126
5.89542e-05
-0.000205117
-2.14328e-05
0.000779769
0.00036619
-0.000344075
-2.21154e-05
-0.000141703
-0.000322326
-8.41711e-05
-0.000306881
-2.3137e-05
-8.34052e-05
0.000386503
-0.000123496
0.00108864
-8.01043e-05
0.000435263
-2.70872e-05
0.000235316
-0.000210668
0.000181972
0.00012353
-0.000122117
-0.000297742
0.000296329
-0.000195982
-0.000126194
-0.000235475
-0.000545808
-0.000148449
-0.000213703
-2.41271e-06
0.000221021
-0.000210114
0.000336047
0.000209006
-0.000338442
0.000144596
-0.000232373
-0.000157837
-0.000102986
-0.000189992
-4.64369e-05
3.50702e-05
-0.000588693
-1.85568e-05
0.000346533
0.00031035
-0.000323229
0.000141352
-0.000225708
0.000316694
1.88286e-05
-0.000334399
0.00034764
-0.000374853
-0.000265907
-0.000131831
0.00014057
-7.47272e-05
-0.00040767
0.000419535
5.29944e-05
0.000306787
1.60042e-05
0.000267161
0.000294814
-0.000310867
0.000169599
0.000136567
-8.81875e-05
4.01589e-05
0.00034177
-0.000100574
0.000458046
-0.000612674
-9.33827e-06
0.000246199
-0.000324024
0.000342102
-0.00018613
-0.000208037
0.000285554
-0.000181185
0.000288285
-0.000144596
-0.000383817
0.000125209
-5.82825e-05
-0.000314714
0.000309411
-3.89872e-05
6.83122e-05
0.000412989
-8.72052e-05
0.000194881
0.000134756
-0.000220122
0.000309933
-0.000204613
0.00019654
-0.000283018
4.52384e-05
-8.02267e-05
0.000434324
-0.000131913
0.000464798
0.000180257
-0.000277084
3.37155e-05
0.000115831
-9.3441e-05
-0.00037072
-0.000160011
-0.00031684
-0.000456692
0.000381868
0.000339805
0.000149098
0.000119235
0.000177132
9.25839e-06
2.01368e-05
-0.000199056
8.81613e-05
0.000115649
-0.000283798
-0.000217053
0.000106886
6.43677e-05
0.000607672
0.000350376
0.000171651
0.000433583
8.05946e-05
-0.000128872
0.000202069
-0.000216972
1.49027e-05
-0.000304112
0.000280529
-0.000349424
0.000185882
0.000303557
3.98676e-05
-0.000175404
-0.000251022
0.000157433
0.000288732
0.000131079
0.000330319
-0.00092015
-0.000344754
0.000328887
-0.000362242
0.000445286
3.40965e-05
-0.000326025
-0.000204114
0.000268514
-5.53537e-05
-0.000116085
-0.000183674
3.05069e-05
-3.04768e-06
2.27891e-06
0.000250776
-0.000262394
-0.000348262
0.000143351
-0.000226451
0.000261162
-0.000256982
-2.87268e-05
0.000218946
0.000126104
-7.84496e-08
5.52587e-05
5.89315e-05
-0.000318095
-7.75631e-05
0.000376683
-0.000964924
-0.000201519
0.000274805
0.000111468
0.000325998
2.48209e-05
-0.000472656
0.000666986
-0.000625632
-6.2721e-06
0.000280405
-0.00019026
0.000213105
-0.000776754
0.000134004
3.76181e-05
-0.000281199
1.18066e-06
0.0002424
-0.000171791
0.000757167
-0.000334023
-5.86591e-05
0.000159311
-0.000199192
6.43175e-05
-0.000558075
0.000496888
-0.000161712
-9.60416e-05
-0.000287304
0.000203445
-1.37561e-05
-0.000289927
8.09032e-05
0.000497091
2.53864e-05
-3.59998e-05
0.000104962
-0.000126874
0.00010011
0.000169991
0.000485996
-2.79503e-05
-0.000502728
-0.000109946
3.28298e-05
0.000191598
-3.83033e-05
0.000684501
0.000219931
2.07464e-05
1.06378e-05
-0.000277746
0.000193041
-0.000101613
0.000122153
-4.9301e-05
-0.000375541
-6.35751e-05
3.92109e-05
0.000149789
6.67405e-05
0.000217554
-0.000296554
-0.000122519
0.000129862
-7.76213e-05
0.000215588
-0.000665337
-0.00015967
0.000653216
-2.38025e-05
0.000266599
-0.000509568
0.000844186
-6.54991e-06
1.20711e-05
3.70508e-05
-8.2788e-05
0.000156178
-0.000221722
-5.91259e-05
0.000129246
-6.5896e-05
0.000152783
0.000257734
5.74797e-05
-0.00015968
0.000113021
-5.30378e-05
9.96969e-05
-0.000139324
-4.66991e-05
-0.000149828
-6.5667e-05
-0.000229356
-0.00028333
-0.000121001
0.000244651
-0.000233768
-0.000191997
-0.000143248
0.000282032
7.4957e-05
-0.000213742
-0.000163465
-0.000137286
0.000126705
0.000174046
0.000301762
-4.0663e-05
-5.31748e-05
-0.000285203
0.000278734
-0.00020585
-0.000447826
0.000770203
-0.000141632
-0.000265849
0.000499631
0.000107736
-8.48388e-05
-0.0002343
-4.26251e-05
-3.2416e-05
0.000172393
-0.000107025
0.000558154
-0.000105184
-0.000291907
-0.000398446
-4.29827e-05
0.000677028
0.000252181
-0.000130175
-0.000246064
0.000154413
-0.000508257
-0.000412225
0.000553995
-0.000268607
0.000557361
0.000913254
-0.000765192
-0.000148062
-0.000296773
0.000313723
-1.695e-05
-0.000264344
0.000231312
-0.00020485
-2.64616e-05
0.00105842
0.000303099
-0.000337942
0.000358183
-2.02408e-05
0.000345982
8.03959e-06
0.000417586
-5.94027e-05
-0.000684825
0.00118766
0.000467161
0.000647315
-0.00060092
-4.63953e-05
0.000471939
0.000279152
0.000258177
2.09745e-05
0.00045629
1.56487e-05
0.000246398
1.17796e-05
0.000249284
-2.88592e-06
0.000255354
2.923e-05
0.000581139
0.000525238
0.00011844
0.000294642
-8.51446e-05
0.000265302
0.000240815
-0.000362188
0.000123872
0.000848303
-1.53204e-05
-3.72673e-07
1.18107e-05
0.000195384
2.38986e-05
0.000615411
-0.000203748
-0.000212771
-5.43992e-05
-6.76443e-07
1.99612e-05
0.000251423
0.000125718
0.000708567
-0.000764807
-0.000187201
0.00052355
0.000223506
-0.000115253
7.64725e-06
-1.81499e-05
-0.000238794
6.22631e-05
9.44317e-05
0.000255275
0.000397853
-0.000190765
0.000208119
-0.000154671
-7.70746e-05
-0.000119228
-5.70974e-05
0.000560674
-0.000695013
6.57093e-05
0.000199976
-0.000189343
0.000509459
-0.000114641
0.000431318
-0.000826136
5.21535e-05
-5.95404e-05
-0.000155119
-0.000310899
3.27076e-05
0.000213155
0.000252011
-0.000477662
-0.000184387
4.65966e-05
0.000216717
-0.000233574
0.000231403
8.69212e-05
-0.000243246
2.26741e-05
3.55221e-05
-2.19546e-05
0.000137946
0.00010286
-0.000253908
-0.000175575
0.000250984
-0.000272144
0.000305138
-0.000332573
-2.53836e-05
2.60274e-05
3.64644e-05
6.41759e-05
0.000174926
-0.00022612
-5.31866e-05
-0.00024778
0.000257097
-8.44099e-05
-3.66207e-05
6.95632e-05
-0.000205935
0.000213582
0.000223438
-0.000526088
1.15064e-05
-0.00038035
1.39278e-05
0.000212977
-0.000271236
-0.000119239
4.27713e-05
-5.64276e-05
-3.9052e-05
-0.000380663
0.000138122
-0.000286911
0.000108354
-0.000237625
0.000314789
0.000126836
0.000100244
-0.000191884
0.000340757
-0.000191579
7.14019e-05
-9.00485e-06
0.000235445
-4.08642e-05
-0.000123618
-0.00017499
-0.000232564
6.62976e-05
-0.000196672
0.000199114
-0.000275627
-8.07918e-05
-0.000303204
-4.88065e-05
9.48267e-05
-0.0002821
-0.00046046
-5.50253e-05
-2.94194e-05
-0.000107525
9.5961e-06
-0.000290342
-0.000139012
0.000224222
1.04688e-05
0.000231303
-0.000224271
0.000138304
-6.34312e-05
0.000124077
2.61568e-05
-0.000391439
-0.000183951
0.000187515
-0.000251614
7.59234e-05
1.07064e-05
-7.8886e-05
5.56708e-05