/*--------------------------------*- C++ -*----------------------------------*\
| =========                 |                                                 |
| \\      /  F ield         | OpenFOAM: The Open Source CFD Toolbox           |
|  \\    /   O peration     | Version:  v1912                                 |
|   \\  /    A nd           | Website:  www.openfoam.com                      |
|    \\/     M anipulation  |                                                 |
\*---------------------------------------------------------------------------*/
FoamFile
{
    version     2.0;
    format      ascii;
    class       volScalarField;
    location    "0.55";
    object      nut;
}
// * * * * * * * * * * * * * * * * * * * * * * * * * * * * * * * * * * * * * //

dimensions      [0 2 -1 0 0 0 0];


internalField   nonuniform List<scalar> 
1466
(
0.0013486
0.00202075
0.00158169
0.00362052
0.00146689
0.00235272
0.00362625
0.0018459
0.000747686
0.0022328
0.00291863
0.00220216
0.000743702
0.00182754
0.0055933
0.00606796
0.00177085
0.00100443
0.00494931
0.00319789
0.00518676
0.00798415
0.0039081
0.0030114
0.000768839
0.0041541
0.00506265
0.0038494
0.000977935
0.00374514
0.00330063
0.00385696
0.00219011
0.0116808
0.00308796
0.00210784
0.0131165
0.00164329
0.00209999
0.00119436
0.00135471
0.001915
0.00183296
0.00119292
0.000837943
0.00119098
0.00187544
0.000672958
0.00146949
0.00083099
0.00108482
0.00164694
0.00165011
0.00106452
0.00106655
0.00101335
0.00102828
0.00206977
0.000773951
0.00194799
0.00581268
0.00463442
0.00404448
0.00351539
0.00544508
0.00227343
0.00813296
0.00355079
0.00221533
0.00111936
0.00763074
0.00112173
0.000884464
0.000921225
0.00377456
0.00273807
0.0043323
0.00372545
0.00122644
0.00378989
0.00279576
0.00492148
0.00155742
0.00320827
0.00501168
0.00519535
0.00896416
0.00318898
0.00243913
0.00274439
0.00512585
0.00453993
0.00384153
0.00162885
0.0021711
0.00135607
0.00185249
0.0017763
0.000824126
0.00100052
0.00145415
0.000893161
0.000591124
0.00162842
0.00212947
0.00187518
0.00142202
0.000833507
0.00184719
0.00113999
0.00581714
0.00312278
0.00340022
0.00170393
0.0014972
0.00661932
0.00296721
0.00159801
0.0029417
0.00348621
0.00603183
0.0041902
0.00334332
0.00126482
0.000780376
0.001686
0.00277568
0.00403781
0.00320595
0.0044047
0.00170391
0.00191636
0.00344638
0.00277957
0.00535016
0.0012413
0.00121133
0.00118292
0.00190304
0.00218239
0.00106723
0.00439934
0.0046509
0.00448202
0.00770515
0.00698995
0.00388805
0.00524959
0.00447449
0.00307043
0.00543725
0.00341772
0.00254598
0.00225403
0.00486451
0.00798808
0.00353298
0.00667499
0.00442085
0.00209915
0.00385607
0.00348814
0.00143121
0.0045595
0.00780859
0.0031771
0.00421879
0.00482139
0.00504177
0.00315451
0.005296
0.00274514
0.000940995
0.0023495
0.00102864
0.00087479
0.00342773
0.00420795
0.00561293
0.00610801
0.000876023
0.00396381
0.00509727
0.000665449
0.00312624
0.00544179
0.00523547
0.00274507
0.00220115
0.00151913
0.00560903
0.00509166
0.00350634
0.00785258
0.00190129
0.00636635
0.000788054
0.00326354
0.00689386
0.00752935
0.0026836
0.00442303
0.00323708
0.006519
0.00769275
0.00807206
0.00614723
0.00234722
0.00440374
0.00318681
0.00454072
0.00460796
0.00456291
0.00489213
0.00567447
0.00462543
0.00566408
0.00565809
0.00341751
0.00386756
0.00455192
0.0065354
0.00477475
0.00676303
0.00493017
0.0057235
0.00665414
0.000928482
0.00565365
0.00648892
0.00560757
0.00319732
0.00844412
0.00936745
0.00297671
0.00812597
0.00451928
0.00473378
0.00453157
0.00551607
0.00242053
0.00366995
0.00308526
0.00742071
0.00387841
0.00324448
0.00381026
0.000913658
0.00399657
0.00282421
0.00572567
0.00586725
0.00219031
0.00278006
0.00294834
0.00552362
0.00306809
0.00108712
0.00128791
0.00188468
0.00123026
0.00318967
0.00266981
0.00628028
0.00339973
0.000580316
0.00092879
0.00475035
0.00512347
0.00126941
0.00163119
0.00136821
0.00106483
0.00419389
0.00515888
0.00696917
0.00623388
0.0040834
0.0051785
0.00435193
0.00600153
0.00511413
0.00482172
0.00327122
0.00790796
0.00166486
0.00475981
0.00485128
0.000790689
0.00180843
0.00185065
0.000972174
0.000809563
0.000753809
0.00321851
0.0010193
0.00153506
0.00188007
0.00450066
0.00613399
0.00163101
0.00649347
0.000496417
0.000894219
0.00681129
0.00437924
0.00588247
0.00166889
0.00289415
0.00833994
0.00236567
0.00550922
0.00379919
0.00459166
0.00436184
0.00363411
0.00900347
0.00290045
0.00133946
0.00570508
0.000940179
0.00144795
0.00147624
0.00583437
0.00639494
0.00159173
0.00174053
0.00287989
0.00544518
0.00527437
0.00383343
0.00168872
0.00214238
0.00290383
0.00521138
0.000851905
0.0053528
0.00474108
0.00660856
0.00337345
0.00257397
0.00248647
0.00174644
0.00370367
0.00340014
0.000448928
0.00311705
0.00294154
0.00227144
0.0047809
0.0017067
0.000920643
0.00314858
0.00707022
0.00969808
0.00695442
0.00315904
0.000628307
0.00105832
0.00293116
0.00901153
0.0062687
0.00486016
0.00884548
0.0011374
0.00913934
0.00222683
0.002148
0.00113341
0.00319759
0.00286795
0.00761374
0.00144488
0.0027612
0.00192198
0.0141265
0.00363841
0.00144134
0.00213744
0.00347271
0.0122579
0.0124068
0.012624
0.0129984
0.0133943
0.0129177
0.0018566
0.00191674
0.00182937
0.00154268
0.00609739
0.0119018
0.0102228
0.0121184
0.00974944
0.0053266
0.00144031
0.00148044
0.00881367
0.000969259
0.00179302
0.00168954
0.00275853
0.00196614
0.00286931
0.0111212
0.00271178
0.00298898
0.00910947
0.00945899
0.00475291
0.00302311
0.0031382
0.0105231
0.00328887
0.00205367
0.00181099
0.00300098
0.0055629
0.00566131
0.00959043
0.0103082
0.00592436
0.00289944
0.00628077
0.00416163
0.00782507
0.00148133
0.00538206
0.00427468
0.0064692
0.00715618
0.00157431
0.00170122
0.00485392
0.000814562
0.00143878
0.000933902
0.00152781
0.00677451
0.00199662
0.000706912
0.00635207
0.00147994
0.00560744
0.00491852
0.00140716
0.00524523
0.0036667
0.00510279
0.00551003
0.00239396
0.00089873
0.000913411
0.00965751
0.000816362
0.0020775
0.001645
0.000850268
0.00589847
0.00209112
0.00635065
0.00184759
0.00236756
0.00502871
0.00265846
0.0127487
0.00628688
0.00614388
0.0121958
0.00610677
0.00189841
0.0061667
0.00121691
0.00634337
0.00298198
0.00262224
0.0080537
0.0105335
0.00581515
0.00311727
0.00384132
0.00519817
0.0102288
0.00870833
0.00207125
0.00281813
0.00255602
0.00847182
0.00521217
0.00935951
0.00366716
0.00183014
0.0132495
0.00557993
0.013993
0.0150271
0.0139002
0.00382381
0.010671
0.0133644
0.0126542
0.00208697
0.00732994
0.00127214
0.00957413
0.00342034
0.00627348
0.00245678
0.0150369
0.00574028
0.00817331
0.0076747
0.00163349
0.0152224
0.00982444
0.00948971
0.000898901
0.00142297
0.00183509
0.0139479
0.00709147
0.0102432
0.00237104
0.00792644
0.0109434
0.00859557
0.00445267
0.0114944
0.0100331
0.00149396
0.00169812
0.00863114
0.0138992
0.0146821
0.00910446
0.00243381
0.00360713
0.00972342
0.00421206
0.00194621
0.00782174
0.00126481
0.00902221
0.0119103
0.00249755
0.0121498
0.00182967
0.0085064
0.00668157
0.00727209
0.00379875
0.00271287
0.0143414
0.0016788
0.0151345
0.0150991
0.0110525
0.00191791
0.00155473
0.0100054
0.0100796
0.00598295
0.00290406
0.0012531
0.00969412
0.0136489
0.0103058
0.00372559
0.0127408
0.00653972
0.0103567
0.00453234
0.00424343
0.00297717
0.00582529
0.000945044
0.0139708
0.0149108
0.00367548
0.00519974
0.0127105
0.0149173
0.00901664
0.0117507
0.00509395
0.005953
0.00107759
0.0140351
0.010612
0.00891937
0.0021477
0.00847647
0.0146851
0.0064124
0.0046801
0.00455065
0.00287135
0.002891
0.00524332
0.00359833
0.00133944
0.00118303
0.00259741
0.00920195
0.00900575
0.00588283
0.00128116
0.00587308
0.0124224
0.00398349
0.00347378
0.00193816
0.00227069
0.00364472
0.00276781
0.0040596
0.00229674
0.00197162
0.00586649
0.00244884
0.00174014
0.0058919
0.00145571
0.00201589
0.0143549
0.00173028
0.00918682
0.00984064
0.0140883
0.00689124
0.00198047
0.00205462
0.00125155
0.0136621
0.00130513
0.00568888
0.00568532
0.00484195
0.00376534
0.00880593
0.0032997
0.00289765
0.00682535
0.0114063
0.00131492
0.00880267
0.0102649
0.00283176
0.00234254
0.0132403
0.00103209
0.00403028
0.00213143
0.0106654
0.0114326
0.00456618
0.00155571
0.00549818
0.000928704
0.0101753
0.00335075
0.00153839
0.00140119
0.00974104
0.00390022
0.00266527
0.0048605
0.00379475
0.00256842
0.0014945
0.00495317
0.0049206
0.000994444
0.0055136
0.00176367
0.00666948
0.00246228
0.00274332
0.00173206
0.00392432
0.00210168
0.00299672
0.00915107
0.000617533
0.00761186
0.000702992
0.000450798
0.00349784
0.000476584
0.0101219
0.00169046
0.00155996
0.00251026
0.000671279
0.000454719
0.00269043
0.00717608
0.000700802
0.00847721
0.00989758
0.000709681
0.000456321
0.00543729
0.0121542
0.0110428
0.00487156
0.00404704
0.000469
0.0119163
0.00569786
0.00692797
0.00138343
0.00298458
0.00896057
0.00438362
0.00182019
0.0101619
0.00942419
0.00407227
0.00248864
0.00773329
0.00902022
0.00296856
0.00160401
0.0110221
0.00375607
0.0101466
0.00955768
0.000465717
0.00696316
0.00268093
0.00822106
0.00183131
0.00786048
0.00720029
0.00104984
0.00611012
0.00161988
0.00812947
0.0135847
0.00507092
0.0124968
0.00104635
0.00381063
0.00536806
0.000745576
0.000521958
0.00750015
0.00300899
0.00383654
0.00408908
0.00370591
0.00156056
0.00312648
0.0061158
0.00541457
0.00386892
0.00136256
0.00388369
0.00479967
0.00245251
0.00716968
0.00451493
0.00980452
0.00330514
0.00395074
0.00373014
0.0058292
0.00527996
0.0054178
0.00552444
0.00344147
0.00516116
0.00837866
0.00532217
0.00397574
0.00056312
0.0115023
0.00253357
0.0091317
0.00824306
0.00421396
0.00142844
0.010199
0.00192885
0.00622965
0.0146494
0.0105798
0.00323283
0.0117807
0.00982022
0.00540232
0.00460082
0.00428897
0.00150307
0.00767944
0.00315039
0.00216962
0.00422237
0.00642994
0.00680837
0.0107872
0.00202683
0.00168088
0.00140414
0.000413538
0.00124268
0.00839608
0.00400936
0.00108557
0.00480303
0.0040943
0.00310983
0.0074329
0.00225377
0.00509809
0.00403671
0.00521832
0.00647998
0.0030722
0.00987679
0.0030616
0.00428473
0.0033932
0.00629185
0.00502868
0.00129418
0.00157474
0.00390735
0.00390242
0.00494022
0.00692624
0.0103051
0.0016397
0.00335164
0.00326433
0.00051479
0.00640111
0.0076619
0.00843419
0.0100053
0.0100935
0.00332678
0.00867104
0.00192478
0.000759401
0.010213
0.00281239
0.00419094
0.00703507
0.00295324
0.0034326
0.0117866
0.01083
0.00525296
0.00314586
0.00274157
0.00358957
0.00358988
0.00895231
0.0123507
0.000957258
0.00878248
0.0044435
0.00105724
0.00327706
0.00185423
0.00471018
0.0141383
0.0111706
0.00240095
0.00745034
0.00452895
0.0107871
0.00874881
0.0101996
0.00101243
0.000966574
0.000998923
0.000834466
0.000856803
0.000947765
0.000778804
0.00124846
0.00128958
0.00131577
0.00125535
0.0011846
0.00112305
0.00116704
0.0012303
0.00130723
0.000905616
0.00101625
0.00126199
0.00117683
0.00131082
0.0011186
0.00107275
0.00107818
0.00110896
0.000961041
0.0032072
0.000742968
0.000533094
0.00802665
0.00213044
0.00209148
0.00395295
0.00175739
0.00524107
0.0085572
0.00380781
0.0110626
0.00365176
0.000724513
0.0013049
0.00555969
0.00631512
0.00836294
0.00597116
0.0030996
0.00447703
0.00257007
0.0103172
0.00737658
0.00111592
0.00359336
0.00302759
0.000933569
0.000475485
0.000894796
0.00266103
0.00426454
0.00795771
0.00854637
0.00140987
0.00395958
0.00598152
0.00230243
0.00398282
0.00152681
0.00891823
0.00502532
0.0043559
0.00482416
0.00111302
0.00228107
0.00150384
0.00753913
0.00372508
0.00406251
0.0081581
0.00267479
0.00691642
0.00386901
0.00550797
0.00749453
0.00360786
0.0100966
0.00160307
0.0010071
0.000766341
0.00366874
0.00606383
0.00139439
0.00372683
0.0104802
0.00830649
0.00144704
0.00579983
0.00809377
0.00562818
0.00455008
0.0019169
0.00699038
0.00490745
0.00218358
0.00479066
0.00188152
0.0041538
0.00531711
0.0126034
0.0013274
0.00106316
0.0101414
0.00360026
0.00738938
0.00319566
0.00257255
0.00132023
0.00615863
0.00321804
0.00664038
0.00941241
0.00407459
0.00819835
0.00120004
0.0020943
0.0118416
0.00387543
0.00922594
0.00125636
0.00105739
0.00533016
0.00445692
0.00132089
0.00529699
0.000748182
0.00135768
0.00710924
0.00120943
0.000393259
0.0022158
0.00100447
0.00724816
0.00599294
0.00199131
0.00798642
0.000902049
0.00137373
0.0100797
0.00329289
0.00677703
0.00119627
0.00100044
0.00426618
0.00315503
0.00368056
0.00580458
0.00597508
0.00667949
0.00272696
0.0019011
0.00653967
0.00484553
0.0044742
0.00570995
0.00083184
0.00633979
0.000835075
0.00249605
0.00209283
0.000751187
0.00204359
0.00260101
0.00061246
0.00229494
0.00937616
0.00356339
0.00284507
0.00356397
0.00486037
0.000938257
0.0020794
0.00516705
0.00766954
0.00539522
0.00144669
0.0015963
0.000938997
0.000714686
0.000757899
0.00291132
0.00718256
0.001042
0.00378111
0.00279087
0.000256215
0.00491824
0.0108936
0.000564895
0.00252506
0.000579679
0.00309809
0.000968684
0.000566117
0.000583026
0.00331347
0.00252568
0.000735856
0.00104523
0.000470886
0.000511967
0.000494968
0.000470163
0.00100184
0.00102552
0.000532823
0.000593134
0.000611664
0.000596288
0.000917725
0.00978011
0.00656928
0.00498007
0.00612716
0.00514658
0.00949229
0.00477253
0.00116323
0.000965652
0.011304
0.00620409
0.00427721
0.00199312
0.00576937
0.00371741
0.00900699
0.0115088
0.000474397
0.00691798
0.00246246
0.0040253
0.000669721
0.00310341
0.00296568
0.00617304
0.00206056
0.00535576
0.00685322
0.00336216
0.000813016
0.0010182
0.000917625
0.00215243
0.00547209
0.00318503
0.00416793
0.0028852
0.00316716
0.00450046
0.00249184
0.0076062
0.00910496
0.00397825
0.00487115
0.00801726
0.00949067
0.0112074
0.00229299
0.00142848
0.00505252
0.00427853
0.00391951
0.00402056
0.00532394
0.00673998
0.00298026
0.012424
0.00105183
0.00105924
0.00880172
0.0028559
0.00144053
0.00240221
0.00319726
0.00405046
0.009374
0.00131451
0.00351634
0.00103883
0.000848927
0.0053192
0.010805
0.00268353
0.00877701
0.0065202
0.00401735
0.00599521
0.0103789
0.0117345
0.00225832
0.00187793
0.00893688
0.0034095
0.00755124
0.00753841
0.010091
0.0108557
0.00176794
0.0045973
0.00403058
0.00357833
0.00231164
0.00904022
0.00690659
0.00444589
0.00319197
0.00472662
0.00256264
0.00937085
0.00708239
0.00605486
0.00310541
0.00300976
0.0013931
0.00287064
0.00494441
0.00373899
0.00298312
0.00371425
0.00283317
0.00273991
0.00624052
0.00905225
0.000960688
0.00189364
0.00385787
0.00191764
0.00338734
0.00449285
0.0034488
0.00303444
0.00092741
0.00369762
0.000905667
0.00289121
0.0109837
0.0113306
0.00179499
0.00291473
0.000925734
0.00743613
0.00215592
0.00129336
0.00634385
0.00299471
0.0089833
0.00752415
0.00409375
0.00353547
0.00146234
0.00512329
0.00217689
0.00711279
0.00174929
0.00152419
0.00637541
0.00196943
0.00971349
0.00365588
0.00211367
0.00293066
0.00634889
0.00545324
0.000865762
0.00832293
0.00153135
0.000898835
0.0110632
0.0061954
0.00340621
0.0027175
0.00216716
0.00979883
0.00227975
0.00628726
0.0039497
0.00247475
0.00525188
0.0047871
0.00718567
0.0105598
0.0100614
0.00210806
0.0020233
0.00173595
0.00377138
0.000794802
0.00309377
0.0033577
0.000487969
0.0100706
0.003819
0.00353744
0.00996289
0.00452462
0.00628111
0.00354969
0.00094577
0.00372872
0.00448536
0.00203621
0.00188682
0.00218395
0.00843213
0.00882242
0.00970439
0.0100944
0.00451748
0.00190229
0.00172221
0.00430263
0.00084782
0.00140159
0.00556741
0.000990091
0.00433172
0.00470113
0.00665579
0.00589302
0.00402311
0.00840379
0.000921112
0.00365858
0.00644242
0.00558712
0.00191508
0.00418907
0.00274902
0.00399327
0.00337012
0.00528864
0.00614358
0.0111425
0.00105843
0.000412176
0.00294213
0.0055114
0.00317591
0.00981431
0.00679876
0.000693475
0.00336848
0.000519541
0.000905931
0.00158355
0.00226507
0.00316932
0.00893207
0.000414112
0.0106334
0.00795047
0.0090432
0.00194444
0.00160131
0.00713182
0.00126045
0.00385456
0.00236406
0.00385693
0.00682832
0.00127473
0.00351651
0.0032994
0.00316566
0.00162588
0.00296239
0.00108773
0.00545515
0.00304691
0.00612173
0.0012325
0.00376297
0.00303441
0.00384391
0.00315202
0.00329253
0.00829369
0.00277153
0.0031052
0.00257541
0.00333753
0.0076729
0.00222419
0.00149249
0.000251532
0.00039355
0.00278087
0.00484673
0.00305678
0.00606396
0.00436138
0.00112682
0.00207083
0.00911621
0.00629943
0.00453527
0.00356764
0.00490707
0.00578159
0.0107696
0.00230498
0.00311477
0.00442349
0.00244058
0.00612144
0.00257853
0.0026878
0.00552588
0.00313603
0.00476137
0.00448818
0.0033033
0.00499839
0.00227389
0.00428045
0.00309256
0.00166606
0.00504594
0.00333016
0.00440941
0.00421877
0.0035019
0.00299591
0.00676317
0.0037921
0.00595341
0.00322765
0.00829815
0.0101809
0.00522826
0.00127041
0.00661594
0.00216688
0.00373211
0.00295289
0.00315911
0.00323327
0.00410578
0.00484392
0.00314941
0.003302
0.000747645
0.00391572
0.0039127
0.00263417
0.00520712
0.00169761
0.00203727
0.0009075
0.00157153
0.00088935
0.00100248
0.00154069
0.00203517
0.000569426
0.000756505
0.00124041
0.000710231
0.00149797
0.00167911
0.00112619
0.000775477
0.00161437
0.0023789
0.00150734
0.00130075
0.000976057
0.00175254
0.000729775
0.000844158
0.000971434
0.00121112
0.000938923
0.000977186
0.00205761
0.000700138
0.000651706
0.00179737
0.000903087
0.00130463
0.00116454
0.00232325
)
;

boundaryField
{
    frontAndBack
    {
        type            empty;
    }
    wallOuter
    {
        type            nutkWallFunction;
        Cmu             0.09;
        kappa           0.41;
        E               9.8;
        value           nonuniform List<scalar> 
108
(
0.000119013
0.000132123
0.000105849
6.02982e-05
5.44876e-05
7.4576e-05
8.45727e-05
5.45408e-05
5.76659e-05
8.08786e-05
5.5042e-05
8.43114e-05
8.53568e-05
5.52005e-05
5.68048e-05
5.6542e-05
0.000123994
8.94958e-05
6.33585e-05
6.81053e-05
5.00853e-05
0.000127933
6.22954e-05
9.10902e-05
0.000120159
0.000114947
0.000118696
9.97953e-05
0.000102457
0.000112603
9.34717e-05
0.000145753
0.000150563
0.000153421
0.000146511
0.000138757
0.000131976
0.000136864
0.000144079
0.000152504
0.000107794
0.000120193
0.000147587
0.00013827
0.000152995
0.000131866
0.000126406
0.00012701
0.000130425
0.000114482
6.47172e-05
8.70593e-05
0.000131197
5.76181e-05
0.000131117
0.000119126
9.18886e-05
0.000125359
0.000125071
4.75643e-05
0.000107467
0.000140309
0.000119136
9.97945e-05
9.01381e-05
7.41801e-05
0.000111502
8.59221e-05
9.09296e-05
0.000123485
3.00074e-05
3.00074e-05
6.85218e-05
7.02217e-05
6.86153e-05
7.06029e-05
0.000123416
5.7134e-05
6.21224e-05
6.00707e-05
5.70402e-05
0.000118647
0.000121301
6.45789e-05
7.17961e-05
7.39949e-05
7.21725e-05
0.000109224
0.000136683
0.000115165
5.74761e-05
8.09313e-05
9.77126e-05
0.000120604
0.000124241
0.000125074
0.000122902
0.000101857
0.000107862
5.91454e-05
0.000101272
0.000117358
4.99158e-05
6.30569e-05
5.01446e-05
2.93836e-05
4.76054e-05
0.000132772
)
;
    }
    inlet
    {
        type            calculated;
        value           nonuniform 0();
    }
    outlet
    {
        type            calculated;
        value           nonuniform 0();
    }
    wallInner
    {
        type            nutkWallFunction;
        Cmu             0.09;
        kappa           0.41;
        E               9.8;
        value           nonuniform List<scalar> 
126
(
0.000190769
0.000235992
0.000139464
0.000160272
0.000217236
0.000208692
0.000143019
9.92647e-05
0.000141732
0.000213032
8.0971e-05
0.000170363
0.000101078
0.00012826
0.000188758
0.000189736
0.00012501
0.000128049
0.000119986
0.000123887
0.000233233
9.33232e-05
0.000220218
0.000141079
0.000159851
0.000210513
0.000202582
9.86013e-05
0.000118947
0.000168704
0.000106669
7.14959e-05
0.000187316
0.000239624
0.000214918
0.000165278
9.83981e-05
0.000209969
0.000136909
0.000195055
0.000172691
0.000151362
9.28203e-05
0.000194592
0.000217387
0.000147333
0.000143012
0.00014192
0.00012914
0.000165783
0.000121803
9.53958e-05
0.000150297
0.000213671
0.000144051
7.09829e-05
0.000110526
0.000187223
0.000159051
0.000125818
0.000118309
8.80006e-05
0.000120682
0.000177034
0.000111868
0.00016768
0.000170567
7.58712e-05
0.000133513
0.000166985
0.000166607
0.00017081
0.000117608
0.0001709
0.000181432
0.000194643
9.91632e-05
0.000112166
8.01823e-05
0.00010015
9.29462e-05
9.61773e-05
0.000187436
0.000194303
0.000192248
0.000198181
0.000179845
0.000184909
0.000124487
0.000211122
0.000159953
0.000148785
0.000128116
0.000194053
0.000108097
0.000181158
0.00010599
0.000123396
0.0001774
6.864e-05
8.90189e-05
0.000145935
8.51051e-05
0.00017187
0.000193228
0.000133148
9.30569e-05
0.000185341
0.000265084
0.000173734
0.000151978
0.000115937
0.000199798
8.774e-05
0.000100867
0.000115257
0.000144655
0.000113401
0.000115108
0.00023383
8.475e-05
7.92773e-05
0.0002045
0.000108793
0.000151971
0.000136845
)
;
    }
    procBoundary1to0
    {
        type            processor;
        value           nonuniform List<scalar> 
29
(
0.00395401
0.00395401
0.00161913
0.00409208
0.00602949
0.00246255
0.00297374
0.00100577
0.0022958
0.00401358
0.00234111
0.00246255
0.00161913
0.00190023
0.00228792
0.00119442
0.00602949
0.00532284
0.00409208
0.00361462
0.000862971
0.000751642
0.00300269
0.000711271
0.000711271
0.00300269
0.000731845
0.000907127
0.000731845
)
;
    }
    procBoundary1to2
    {
        type            processor;
        value           uniform 0.00324353;
    }
    procBoundary1to3
    {
        type            processor;
        value           nonuniform List<scalar> 
48
(
0.013624
0.00679814
0.00927289
0.00927289
0.00366323
0.00446527
0.00446527
0.00282624
0.0152453
0.00230298
0.00196897
0.00230298
0.0020621
0.00287679
0.0034626
0.0020621
0.00170422
0.00170422
0.00142215
0.00142215
0.00266093
0.00241706
0.00127548
0.00192056
0.00192056
0.00131424
0.00250799
0.00250799
0.00228372
0.00273939
0.00155162
0.00228372
0.00282624
0.0143085
0.0012528
0.00273939
0.00795245
0.00196897
0.0148804
0.00283015
0.00316087
0.0121327
0.0143085
0.0012528
0.0033746
0.000935901
0.00347132
0.00316087
)
;
    }
}


// ************************************************************************* //
