/*--------------------------------*- C++ -*----------------------------------*\
| =========                 |                                                 |
| \\      /  F ield         | OpenFOAM: The Open Source CFD Toolbox           |
|  \\    /   O peration     | Version:  v1912                                 |
|   \\  /    A nd           | Website:  www.openfoam.com                      |
|    \\/     M anipulation  |                                                 |
\*---------------------------------------------------------------------------*/
FoamFile
{
    version     2.0;
    format      ascii;
    class       volScalarField;
    location    "0.63";
    object      nut;
}
// * * * * * * * * * * * * * * * * * * * * * * * * * * * * * * * * * * * * * //

dimensions      [0 2 -1 0 0 0 0];


internalField   nonuniform List<scalar> 
5794
(
0.000699027
0.00082802
0.00489634
0.00437009
0.0116312
0.000889529
0.00100794
0.000968717
0.00220015
0.00141978
0.00203996
0.00160623
0.00139484
0.00921884
0.00156967
0.000508586
0.00943848
0.00813272
0.000774637
0.000526901
0.00140967
0.00066689
0.00149195
0.0012273
0.00122883
0.00428426
0.0121699
0.0135242
0.00361003
0.000874138
0.00135228
0.00203719
0.00234409
0.00150623
0.00259565
0.00298697
0.000785826
0.0019356
0.0017423
0.00484682
0.00458456
0.00512356
0.000747114
0.000628422
0.00119944
0.00229794
0.00199063
0.00109336
0.00175094
0.000589051
0.000468241
0.00297612
0.000824902
0.00213683
0.000120808
0.00227788
0.00196497
0.00153064
0.000739379
0.00563994
0.00134
0.000579333
0.00169697
0.00460171
0.00553024
0.000800391
0.00332704
0.000659105
0.00630874
0.000713796
0.00610833
0.0034083
0.0153782
0.000857016
0.00664923
0.00839238
0.000456362
0.00381154
0.000631411
0.000190774
0.000436011
0.000676125
0.00727659
0.00165415
0.00191245
0.000842838
0.000739471
0.00100499
0.00209227
0.00210985
0.00496271
0.00203273
0.00323997
0.00538024
0.00247164
0.00810095
0.00391253
0.00302349
0.00188139
0.00144279
0.00142001
0.0011415
0.000766424
0.0117608
0.00101227
0.0124605
0.000490673
0.00410831
0.0051087
0.000650784
0.000660707
0.000459343
0.00132177
0.00153053
0.00221406
0.00398019
0.00275562
0.00577674
0.00124576
0.00101142
0.00777676
0.000247205
0.000873396
0.0118904
0.000803669
0.0038346
0.00368295
0.000799422
0.00346577
0.00385593
0.00191833
0.00173902
0.00321666
0.00361828
0.0102275
0.00197437
0.00306711
0.00063614
0.0014962
0.0012873
0.00126295
0.00874133
0.000757157
0.00970158
0.00175256
0.0132482
0.00192369
0.00156049
0.0108312
0.00449091
0.000726188
0.00177528
0.0117452
0.000993525
0.0137669
0.00180672
0.0015094
0.00116901
0.00214061
0.00176399
0.000524973
0.00103152
0.000514742
0.00104903
0.00194595
0.00187888
0.000955168
0.000842521
0.000487483
0.00027971
0.000532349
0.00193405
0.000784745
0.000774403
0.000555031
0.000986272
0.000389516
0.00104122
0.000507239
0.00188053
0.000984205
0.00127492
0.000717935
0.00149928
0.000750589
0.00397356
0.00111964
0.00108377
0.000740877
0.000798126
0.00167027
0.00148026
0.00166271
0.00101251
0.000838782
0.00110094
0.000829935
0.000402947
0.000528756
0.00101519
0.000796847
0.00209537
0.000912472
0.000909192
0.00173921
0.00200295
0.000888442
0.0057502
0.0120581
0.00180112
0.00071779
0.000857627
0.00333113
0.00266584
0.00165083
0.00278054
0.00361789
0.00377285
0.00349303
0.00547095
0.00085633
0.00191789
0.00823829
0.00348728
0.00245027
0.0062535
0.00057297
0.00375361
0.00295059
0.00251674
0.00121622
0.00115486
0.00128421
0.00360129
0.00361651
0.00984996
0.0124912
0.00223497
0.000948727
0.000910728
0.00085099
0.00754024
0.0019806
0.00178057
0.00156941
0.000784542
0.00113765
0.0101076
0.00112215
0.000900735
0.000688142
0.000834376
0.0121257
0.000524518
0.000809506
0.0183265
0.00092136
0.000920623
0.00382577
0.000757691
0.00270928
0.00313192
0.00253231
0.000554006
0.00131409
0.00088595
0.00646823
0.0038447
0.000627825
0.00286744
0.002537
0.00117846
0.00263881
0.00508881
0.000868459
0.00191252
0.00211361
0.0014052
0.00271505
0.00130465
0.00055919
0.00320534
0.00336905
0.00441391
0.00318238
0.00512394
0.00231713
0.00284903
0.00524071
0.00765211
0.0024527
0.00201461
0.00156223
0.00179334
0.00076955
0.00344158
0.00213474
0.003144
0.00211179
0.000866124
0.000438818
0.00098636
0.000338621
0.00252603
0.000640688
0.00321959
0.0028096
0.00484321
0.00249526
0.00220653
0.00121417
0.00273294
0.00203068
0.001414
0.000782791
0.000905541
0.00505012
0.014697
0.00458136
0.00389817
0.00303039
0.00347114
0.00488476
0.0121649
0.000540577
0.00177852
0.00129224
0.001397
0.00110119
0.00187301
0.0017884
0.000825463
0.000921867
0.00145694
0.0013447
0.000862638
0.000749017
0.000410361
0.000651618
0.000889973
0.000500791
0.000863198
0.00229357
0.000850672
0.000540559
0.000641116
0.0016686
0.00136493
0.00219413
0.00183779
0.00179907
0.00230152
0.00144143
0.00126262
0.000824651
0.00272568
0.000401515
0.00189203
0.000856382
0.000847871
0.00573263
0.00311326
0.00311255
0.00230312
0.00128672
0.00562534
0.00173837
0.0015467
0.00134463
0.000922233
0.00280942
0.000538149
0.00650112
0.00123045
0.00645308
0.00300623
0.00164924
0.00147875
0.00178986
0.00145383
0.00675995
0.00311254
0.000749906
0.00235654
0.00208612
0.00142836
0.00585927
0.00286353
0.00212861
0.00108093
0.000854479
0.0015339
0.000680853
0.00117217
0.000738
0.000711001
0.000538433
0.000973901
0.000993263
0.00210203
0.00123769
0.00169796
0.0124929
0.000372779
0.00037631
0.00281491
0.00073549
0.00114198
0.000597266
0.00402542
0.00319089
0.00194573
0.00448477
0.00116981
0.00174664
0.00151118
0.000839546
0.00615226
0.0019371
0.00344439
0.00174691
0.00279446
0.00523064
0.00253306
0.000961786
0.00096127
0.000536654
0.0015307
0.000726031
0.00067737
0.00284274
0.000783771
0.00801485
0.00201669
0.000988897
0.00224644
0.00129889
0.00102082
0.0014882
0.0014228
0.00103284
0.000805321
0.000954994
0.0012552
0.00147948
0.00455375
0.00234786
0.00105942
0.000848755
0.00211528
0.000799774
0.000620936
0.00186693
0.000770584
0.00466948
0.000410251
0.00447601
0.00808097
0.00321752
0.00710886
0.00091665
0.00061839
0.000568728
0.00119273
0.00155467
0.00389519
0.00946349
0.0138054
0.00529396
0.000706664
0.000165333
0.0127961
0.00455049
0.00566134
0.00300175
0.00305294
0.0160464
0.0151787
0.000862553
0.000656589
0.000685946
0.000866496
0.00184957
0.00448021
0.00534695
0.00341873
0.000861128
0.00112546
0.00287308
0.000664444
0.000740087
0.00423224
0.00411752
0.0113003
0.00069631
0.00112255
0.000946685
0.00271902
0.000469844
0.00257867
0.016375
0.0162974
0.000727708
0.00171967
0.00906291
0.00051299
0.00112051
0.00116624
0.00495118
0.000980526
0.00809044
0.00282029
0.0077272
0.000486199
0.00107412
0.00213895
0.00361959
0.000519146
0.000804743
0.0128313
0.00146902
0.000545097
0.0131335
0.00580122
0.00447097
0.000820835
0.000885008
0.00212328
0.000492996
0.000673851
0.000871656
0.000326027
0.00883854
0.0023766
0.00580607
0.00243548
0.0007851
0.0031091
0.00388646
0.00225275
0.000649546
0.00224282
0.000560383
0.00638963
0.00116439
0.000615847
0.000754701
0.0099095
0.00118294
0.000875635
0.0117235
0.00138884
0.000404356
0.00070955
0.000904539
0.000686402
0.000855068
0.000623165
0.000464689
0.00526106
0.0188715
0.000716851
0.00354904
0.00210451
0.00686274
0.000858147
0.000654365
0.00336368
0.000283452
0.00103816
0.00167827
0.0027817
0.00145029
0.0012648
0.00156757
0.000858207
0.0147685
0.00274738
0.00401184
0.00299725
0.00464655
0.00246915
0.00773618
0.0069527
0.00329418
0.00143156
0.0013167
0.00418971
0.00239365
0.0048004
0.00104013
0.00105243
0.000683088
0.00517853
0.00244116
0.00321172
0.00142462
0.000831111
0.00075308
0.00245299
0.000824239
0.00182105
0.0025062
0.00546745
0.000547742
0.00280192
0.00379688
0.000768085
0.000141452
0.00576247
0.0147817
0.0180737
0.0104246
0.000770456
0.00121445
0.000777036
0.00237561
0.00102899
0.000876539
0.00161595
0.000288489
0.0035249
0.00429238
0.00551593
0.000433733
0.000851979
0.00145628
0.00821441
0.00607681
0.00117325
0.000866499
0.000971368
0.000259669
0.00140305
0.00059117
0.00272505
0.00436413
0.000808914
0.00356366
0.0129486
0.000962506
0.000873433
0.00391155
0.00250211
0.00294852
0.00529169
0.00227876
0.00101348
0.00299831
0.000685933
0.000433089
0.000836145
0.00287605
0.000594236
0.000735149
0.0031486
0.0143715
0.00233742
0.00204146
0.00258941
0.00250129
0.00105802
0.000673255
0.000847864
0.000674065
0.00283288
0.00553018
0.00534894
0.0023266
0.00274625
0.00221508
0.000919083
0.0118004
0.00156836
0.001472
0.00266417
0.00577012
0.000884295
0.0105979
0.000956663
0.000678763
0.00506776
0.00230817
0.000685043
0.00543221
0.00288872
0.00351893
0.00225898
0.00259256
0.000581163
0.00402541
0.00810056
0.00422157
0.00303732
0.00157324
0.00192579
0.00622765
0.000325332
0.000420612
0.000769392
0.000614181
0.00067355
0.000316294
0.000990344
0.00542953
0.00329486
0.00264262
0.00381651
0.00311542
0.00685747
0.00118123
0.00765543
0.00334562
0.00270164
0.00450119
0.000775131
0.0007328
0.0164923
0.00331008
0.00532702
0.00758474
0.00461241
0.00321502
0.00173911
0.0174468
0.000842236
0.000824555
0.000818485
0.00799465
0.000958213
0.00268383
0.00317497
0.00635839
0.00241571
0.00170608
0.00337145
0.0059232
0.00445803
0.00202512
0.00321824
0.00455526
0.000301535
0.00025158
0.0004545
0.000470608
0.0046768
0.00249038
0.00455338
0.000720539
0.000802794
0.000636164
0.000721424
0.0016736
0.000433376
0.00243041
0.00504913
0.000755555
0.00588037
0.00258405
0.000710585
0.000931765
0.0176635
0.00467973
0.0028296
0.00578894
0.00575535
0.00263402
0.00343171
0.000676374
0.00383309
0.00228141
0.00453193
0.00586177
0.00317164
0.0060299
0.000809217
0.000800971
0.000877666
0.0101101
0.000928874
0.00636047
0.0153768
0.00060433
0.000892045
0.000534113
0.0048409
0.00262907
0.00662802
0.00504063
0.00250313
0.000961963
0.00569708
0.00674483
0.00417095
0.00108688
0.00273789
0.000691413
0.00265207
0.00071554
0.00410144
0.000862502
0.00553917
0.00519825
0.00136429
0.000644156
0.00189975
0.00630846
0.00557262
0.00321053
0.00868603
0.00319682
0.00122256
0.000911062
0.00110355
0.00948661
0.00118088
0.0028914
0.00296515
0.00803679
0.000503276
0.000803635
0.000842899
0.00143605
0.012622
0.0012108
0.000768572
0.00235286
0.00551212
0.00183089
0.00247407
0.00451205
0.00471828
0.000771138
0.00189973
0.00789692
0.00528226
0.00306013
0.0175095
0.00038639
0.000235408
0.000367623
0.000678992
0.00460698
0.00188145
0.000875451
0.00105468
0.00113671
0.000708851
0.000839154
0.0185957
0.00254518
0.00569194
0.00159544
0.00237519
0.00372057
0.00317109
0.0123504
0.00299205
0.000949908
0.000683255
0.000752193
0.00517304
0.000792066
0.00534858
0.00746863
0.00356848
0.00501875
0.00394562
0.0012673
0.0123934
0.00165357
0.000772969
0.0032984
0.00109417
0.00462043
0.00261193
0.00311045
0.00356848
0.000828845
0.00075236
0.000676892
0.00511439
0.00379568
0.000913957
0.000742253
0.002732
0.00108837
0.00405861
0.000676176
0.000799189
0.00291165
0.00420171
0.002813
0.00586183
0.00329984
0.0059346
0.0103272
0.000620269
0.000835505
0.00452139
0.00117669
0.00265406
0.000601269
0.00136176
0.00225805
0.000441812
0.000789954
0.00113704
0.00564882
0.00329286
0.00477976
0.000844724
0.00300435
0.00554672
0.0147686
0.00199173
0.00313586
0.000784458
0.000944733
0.0139543
0.00110197
0.00361969
0.000831751
0.00132561
0.000953764
0.001438
0.00025799
0.00193135
0.001239
0.000558457
0.000516282
0.000509334
0.000233062
0.000254298
0.000661209
0.0105985
0.0138844
0.00318386
0.00173136
0.00268359
0.00577211
0.000765581
0.00057262
0.00105917
0.008324
0.00109567
0.0175536
0.0061093
0.00235777
0.000785452
0.00762234
0.00160071
0.000687681
0.000767988
0.0188345
0.00543228
0.000834148
0.000764837
0.000878271
0.00341612
0.00154802
0.0107118
0.000735416
0.000529592
0.000642555
0.000643786
0.00059767
0.00251307
0.00100318
0.00106084
0.00065353
0.000799451
0.000789204
0.0108136
0.00078206
0.0030674
0.00118564
0.00171446
0.000831587
0.00120404
0.00125311
0.00120407
0.000731725
0.000934486
0.000756292
0.00267556
0.000756859
0.000967759
0.00483388
0.000844994
0.00083368
0.00326415
0.000906591
0.000830209
0.00207148
0.000776674
0.0174255
0.00207361
0.000618212
0.000825744
0.00087551
0.00830578
0.00101092
0.00278053
0.00247624
0.00529433
0.000878254
0.000830846
0.00104954
0.000587319
0.000837833
0.00129116
0.00188665
0.00165361
0.00142399
0.000202639
0.00167589
0.00140549
0.000997141
0.00106748
0.00171564
0.000482257
0.000826855
0.000609723
0.000960825
0.000746566
0.00933568
0.000796266
0.00286859
0.000789874
0.000782881
0.00073596
0.000337526
0.000967384
0.000810905
0.00899392
0.00942073
0.00424931
0.000641007
0.000826659
0.00348358
0.000799022
0.00492952
0.00116429
0.00343882
0.00508367
0.000787499
0.00685431
0.000511039
0.000841381
0.00609356
0.000753181
0.0122092
0.000730735
0.00056914
0.00410666
0.00610732
0.000657827
0.0028851
0.000679683
0.0014397
0.000521954
0.000657212
0.00205144
0.000891889
0.00083037
0.000817779
0.00200236
0.00113993
0.00125848
0.00132217
0.00406217
0.000997234
0.000724051
0.00533739
0.00241914
0.00202737
0.00071291
0.00550499
0.00480838
0.00522183
0.00904239
0.00206912
0.00107424
0.000340518
0.015066
0.00241678
0.00442632
0.00282963
0.0145827
0.00219902
0.000253453
0.00109619
0.000410151
0.00030448
0.0030661
0.00034611
0.00113195
0.00110572
0.000303674
0.00108423
0.00017985
0.000276126
0.000625361
0.000517019
0.00112976
0.003949
0.00285258
0.00593723
0.000492819
0.00139863
0.00305474
0.00148673
0.000552281
0.000789398
0.00972483
0.00081536
0.00290587
0.00103256
0.00074275
0.000931508
0.0172271
0.0106178
0.000584792
0.00275805
0.00541955
0.00501643
0.00954288
0.000741437
0.00590179
0.00479902
0.00330658
0.000980409
0.0084085
0.000726149
0.000725762
0.00269536
0.00177752
0.0013103
0.000657249
0.0143636
0.00107334
0.000585909
0.00325484
0.00484675
0.00494209
0.000764082
0.000640017
0.000835405
0.000976789
0.00170925
0.000760757
0.0114004
0.00186618
0.00402688
0.00510446
0.00415551
0.00151859
0.00106202
0.0035764
0.00105603
0.000755052
0.00102961
0.000615788
0.00115597
0.000785701
0.0161382
0.000979224
0.00084729
0.000753255
0.000923436
0.000832227
0.000776226
0.000868317
0.000745334
0.00262287
0.00203057
0.00544472
0.000735126
0.000743164
0.000891507
0.00062347
0.00185616
0.00980824
0.00187693
0.000595175
0.000706367
0.000757577
0.00386711
0.000805673
0.000703385
0.000579361
0.000857243
0.00084362
0.00105981
0.000719338
0.00846788
0.000538754
0.0146937
0.00055897
0.0020837
0.000989928
0.00114284
0.000651892
0.00321431
0.00220273
0.000745271
0.000599981
0.000612851
0.0010233
0.00157155
0.00111478
0.00297634
0.000775546
0.00219486
0.0014312
0.00458323
0.00598929
0.00443145
0.000828409
0.000213151
0.00888024
0.00153786
0.00536528
0.00643019
0.000481724
0.000894295
0.00110362
0.00588165
0.000292547
0.0102153
0.00575855
0.00111387
0.0107636
0.00864659
0.00123589
0.000530621
0.00819179
0.0179234
0.00942012
0.00135225
0.00154713
0.00145065
0.00297645
0.000835859
0.000349532
0.000871141
0.000783518
0.00184263
0.00129089
0.00038511
0.00257473
0.000927322
0.000424971
0.000703527
0.00456662
0.0109682
0.000757301
0.00492962
0.00371692
0.00799239
0.0121219
0.00334696
0.0024131
0.000794813
0.00546507
0.00153334
0.00868564
0.00549571
0.00254633
0.00376007
0.00538325
0.00963581
0.00469208
0.0138418
0.00434419
0.00270011
0.00313058
0.0135417
0.001124
0.00415427
0.00328342
0.0040873
0.00397491
0.00839338
0.00725869
0.00636078
0.00878701
0.000988258
0.000327002
0.000806414
0.0071584
0.0005037
0.00434746
0.0018533
0.000830826
0.00447022
0.00374236
0.00634963
0.000502099
0.00906441
0.00163541
0.00300657
0.00152113
0.00129223
0.00190259
0.000797806
0.00612252
0.000688208
0.000722479
0.000911455
0.0122017
0.002394
0.00191233
0.00277488
0.00620639
0.00291716
0.00189159
0.0110787
0.00355524
0.000785911
0.00015951
0.00588567
0.00444004
0.00770896
0.00672399
0.000912308
0.000645626
0.0048109
0.00566975
0.000940471
0.00148473
0.00125875
0.00149594
0.00104629
0.00767318
0.00113361
0.00272412
0.00571349
0.00130381
0.00577569
0.00287657
0.000885375
0.00124291
0.00163357
0.00136221
0.00101873
0.000979321
0.00189148
0.00137911
0.000504721
0.00191628
0.000686738
0.000822357
0.00736695
0.00299002
0.00540086
0.000950034
0.00403702
0.00514645
0.0075146
0.000936469
0.00185371
0.00158173
0.00264249
0.000271197
0.000228436
0.00036834
0.0185191
0.00082629
0.00253701
0.00207989
0.00387985
0.00413179
0.00173385
0.000409731
0.000303507
0.000242579
0.000440837
0.000186363
0.000543103
0.000292673
0.000313495
0.000437826
0.000246218
0.000212403
0.000369678
0.000286205
0.000258675
0.000260079
0.000181794
0.000531272
0.000355966
0.0002417
0.000275812
0.000385835
0.000231905
0.000260448
0.000194346
0.000380648
0.000364896
0.000413786
0.000179535
0.000196691
0.000349644
0.000444413
0.000382748
0.00033824
0.000177277
0.000166895
0.000428068
0.000219131
0.000409091
0.000323924
0.000259607
0.000282166
0.000284874
0.000405861
0.000483261
0.00259681
0.0017725
0.0111448
0.000827083
0.00302673
0.00291271
0.00520133
0.00886885
0.00329588
0.000690632
0.000857985
0.00325824
0.00141497
0.00580121
0.0192489
0.0127769
0.00540062
0.00163975
0.00229866
0.0023335
0.000856935
0.00189116
0.000271641
0.00442781
0.00121188
0.00487809
0.00268457
0.00228495
0.00480798
0.00212247
0.00508392
0.011688
0.00962768
0.0196201
0.00232751
0.0042649
0.00260857
0.000770248
0.0159772
0.00170338
0.00116332
0.00862784
0.00255408
0.00147977
0.00224915
0.00151719
0.00181858
0.000841887
0.000848841
0.0177864
0.00157434
0.000451862
0.000258486
0.0095098
0.0112357
0.000283099
0.00383555
0.00821813
0.0003571
0.000202477
0.00024599
0.000435861
0.00048385
0.000397628
0.000196704
0.000352678
0.000355604
0.00021889
0.00054434
0.000397007
0.000273809
0.000510166
0.000268793
0.000243738
0.00037063
0.000253568
0.000172196
0.000238664
0.000228005
0.000431286
0.000200992
0.00347805
0.00256317
0.000435857
0.000914292
0.00752284
0.000848691
0.00925122
0.000610327
0.00314666
0.00932098
0.00625809
0.00304745
0.0112368
0.00604058
0.000256163
0.0111168
0.00228036
0.00441088
0.0180383
0.00481019
0.00753667
0.000620787
0.0146407
0.00172479
0.000903106
0.0146494
0.000928196
0.00330573
0.00240121
0.00059928
0.000644942
0.00690143
0.000861276
0.0106616
0.0127893
0.00132023
0.0070616
0.000791585
0.00968072
0.00178087
0.00120696
0.00158986
0.00598846
0.00191687
0.00260675
0.00268123
0.00102882
0.00693888
0.000834635
0.00297802
0.000636802
0.007279
0.00871921
0.0181425
0.000174879
0.000771623
0.00106911
0.0080987
0.00302651
0.000360278
0.000663149
0.0028586
0.00224118
0.0138524
0.000832665
0.00125559
0.00116412
0.00118652
0.00179
0.000984973
0.00875508
0.000465754
0.00019545
0.000312985
0.00903269
0.00624454
0.000776675
0.00731149
0.00482831
0.000609768
0.0137052
0.0136179
0.0105397
0.0134682
0.013981
0.000925634
0.00749552
0.000753436
0.00316115
0.00235969
0.008222
0.000729029
0.00150972
0.00125347
0.0115645
0.000383147
0.00160775
0.0015605
0.00219908
0.0016404
0.0103376
0.0131745
0.00930917
0.00353948
0.000830544
0.0142251
0.000455297
0.00228118
0.00219581
0.00116561
0.00603086
0.0118339
0.00319766
0.0128693
0.00293481
0.00760383
0.0014768
0.00149338
0.00199181
0.00279554
0.00107441
0.00166723
0.00260672
0.0133072
0.00100964
0.00212228
0.00375533
0.00333327
0.00147334
0.00240542
0.00342135
0.0141917
0.00363336
0.00469294
0.00435417
0.00129932
0.0013018
0.0023043
0.00347001
0.00149047
0.00131507
0.00363346
0.0162645
0.0161021
0.0111315
0.0124458
0.0158292
0.0115436
0.015929
0.000716862
0.0157774
0.0159159
0.0120452
0.0137571
0.0162791
0.0130623
0.0155677
0.016245
0.0158294
0.00154214
0.00152083
0.00219654
0.0120962
0.0012367
0.00203523
0.00196707
0.00124145
0.00023215
0.000351024
0.00854339
0.0152154
0.00617878
0.00315899
0.00245188
0.0084074
0.0150862
0.00857083
0.00375398
0.00168928
0.00134406
0.00169405
0.00473559
0.00920544
0.00357199
0.00151322
0.0029462
0.00403075
0.00182873
0.00470411
0.00248576
0.00751242
0.00291427
0.000799077
0.00193665
0.000405573
0.00738881
0.00145506
0.00130694
0.0012829
0.00157126
0.00315092
0.00280808
0.00261916
0.00392485
0.0036979
0.00179467
0.00295251
0.0113114
0.00305319
0.00275272
0.0029849
0.00334455
0.00941324
0.0013687
0.0018855
0.00948628
0.00474199
0.00305298
0.00290583
0.00213734
0.00315964
0.0106188
0.00332041
0.00188726
0.00241891
0.00178882
0.00477294
0.00185227
0.0163123
0.00285686
0.00208651
0.0025048
0.00233815
0.00417643
0.00140594
0.00162991
0.00301975
0.00555754
0.00411862
0.0154753
0.00957012
0.00155626
0.0104137
0.00209284
0.00315961
0.00457608
0.00146438
0.0029216
0.00176002
0.0147498
0.00470854
0.00339391
0.00143234
0.00781523
0.0139367
0.00103859
0.00151357
0.00600663
0.0058453
0.00426798
0.00345132
0.000913021
0.00142745
0.00647334
0.00558747
0.00512456
0.0124139
0.0121476
0.00207984
0.00570438
0.00043715
0.00162683
0.00692384
0.0014497
0.00133512
0.00171669
0.0011881
0.00350905
0.00116875
0.00481691
0.000653617
0.00521393
0.00643705
0.00150705
0.00664858
0.0028737
0.00570294
0.00121893
0.00387068
0.00127531
0.00667105
0.00568616
0.00153282
0.00351207
0.00298023
0.000971441
0.00106097
0.00624104
0.005666
0.00153437
0.00172504
0.000472761
0.000820028
0.00063026
0.0081753
0.00175494
0.00141902
0.00575124
0.00675477
0.00420878
0.00181284
0.00117846
0.00863842
0.00115396
0.00150694
0.00190065
0.00482148
0.00239558
0.00285674
0.000515476
0.00773536
0.00805456
0.0123167
0.00157167
0.00817639
0.00511825
0.000785183
0.00754555
0.00910134
0.00104122
0.00241347
0.00515458
0.00124233
0.00322535
0.00418815
0.00842297
0.0091819
0.000307129
0.0056051
0.00137376
0.0044032
0.00287201
0.00260949
0.00902948
0.00884998
0.00861065
0.000984557
0.00163872
0.00404342
0.000557442
0.00902917
0.000968568
0.00645688
0.00130116
0.00336006
0.00137924
0.000207581
0.005459
0.00138714
0.00638682
0.00159571
0.0010774
0.00553839
0.00129085
0.0014031
0.00553888
0.00282134
0.00302887
0.00158297
0.000892348
0.0007197
0.00298236
0.00166181
0.00361262
0.000264415
0.00122676
0.000229771
0.0119447
0.00139396
0.00215556
0.00223595
0.00233424
0.000964275
0.00318318
0.00152464
0.00143853
0.00516877
0.00219629
0.00149057
0.00252236
0.00142026
0.00293846
0.00157065
0.00151755
0.00520155
0.0044566
0.00163565
0.0053992
0.00280749
0.0019452
0.00140811
0.00116759
0.0112036
0.000908275
0.00201179
0.00267348
0.0128187
0.00109606
0.00100887
0.00252354
0.00905514
0.00159491
0.00143298
0.00324788
0.00272848
0.00147302
0.0013739
0.00156132
0.00110665
0.00112009
0.00578011
0.00243742
0.000515271
0.0106865
0.0121749
0.00131237
0.000746754
0.00146076
0.00227444
0.008306
0.00205501
0.00122277
0.00144314
0.00219383
0.00140469
0.00154515
0.00199573
0.00453205
0.00512693
0.00176012
0.00105081
0.00285744
0.0017884
0.00102164
0.00315078
0.00212813
0.0143045
0.0080264
0.00795823
0.013608
0.00216206
0.00188615
0.0077485
0.00932164
0.00150266
0.00174126
0.0024549
0.00127321
0.00140491
0.00497029
0.00623947
0.00146951
0.00618852
0.00238718
0.00230985
0.00325608
0.00381599
0.00232752
0.000598151
0.00331353
0.000649108
0.0116963
0.00132995
0.00105937
0.00722537
0.000799688
0.000856561
0.0104895
0.000525107
0.00245164
0.00168213
0.00200867
0.00178665
0.00905759
0.0038228
0.00568417
0.00228908
0.00339235
0.00313513
0.00371813
0.00460423
0.00779366
0.0004798
0.000459027
0.000694359
0.000579533
0.000611624
0.003804
0.00188215
0.00110079
0.00124328
0.00352313
0.00466105
0.00542256
0.000345654
0.0100199
0.00850054
0.00213864
0.000735928
0.00274092
0.00526228
0.00435578
0.000649019
0.00083896
0.00963682
0.00141629
0.0015518
0.00235975
0.00851432
0.00520443
0.0011937
0.00429381
0.00936346
0.00378655
0.00216866
0.00204006
0.00166335
0.000518035
0.000837184
0.00129758
0.00170387
0.00137258
0.00216426
0.0149604
0.00461645
0.0042259
0.00249467
0.00165506
0.016083
0.00962726
0.014966
0.0145244
0.00630616
0.00177167
0.00394233
0.00125151
0.000775902
0.00143151
0.00897557
0.0125738
0.0113799
0.00203355
0.00768422
0.00724058
0.00604448
0.00603681
0.00135933
0.00153396
0.00205263
0.0010782
0.00122377
0.00208847
0.00173854
0.00222324
0.00598439
0.00744304
0.00144236
0.0151247
0.00664037
0.00917987
0.00347649
0.00397631
0.00102307
0.00114099
0.000933355
0.000879354
0.00151808
0.000741127
0.00866766
0.00121368
0.000792275
0.00197992
0.00353114
0.00380793
0.0031306
0.00414253
0.00612023
0.00296141
0.00542091
0.00478569
0.00202282
0.00131696
0.00372956
0.00289269
0.000354482
0.000791964
0.00143191
0.00307934
0.0160741
0.00265164
0.0016146
0.00150297
0.00577872
0.00136394
0.00712041
0.0077343
0.00143755
0.00175708
0.00139158
0.00153153
0.0020648
0.00637805
0.00165197
0.00335617
0.0010969
0.00403148
0.0153562
0.00829506
0.00219102
0.00649606
0.00282259
0.00515058
0.0120631
0.00554762
0.00123978
0.000835028
0.000745076
0.00128331
0.00435846
0.00456082
0.00264127
0.000894715
0.00579948
0.00862436
0.00280132
0.00617217
0.00142381
0.00726705
0.0052215
0.00171104
0.00213028
0.00549478
0.00790555
0.014018
0.00143364
0.0134649
0.00144064
0.0093634
0.00187246
0.00630965
0.0101928
0.00245724
0.00287408
0.000775413
0.00527127
0.003069
0.00191694
0.000259686
0.000231987
0.0072697
0.00697444
0.00874947
0.00655629
0.0132335
0.0109787
0.000795531
0.00455226
0.00412641
0.00399626
0.0026934
0.0062851
0.00911488
0.00143843
0.000961762
0.00117236
0.00719482
0.00158849
0.0138719
0.00428058
0.000901182
0.00966068
0.00142514
0.00171444
0.00868573
0.0144393
0.0143929
0.0111525
0.000423681
0.00108098
0.00755819
0.00588095
0.0158698
0.0156272
0.002681
0.0115499
0.00244765
0.00119312
0.0037303
0.0030664
0.0125021
0.00613645
0.0122062
0.00198457
0.00113163
0.00657145
0.00398203
0.00277499
0.00200822
0.00414422
0.00794225
0.00132184
0.00169195
0.00343822
0.00733449
0.0144125
0.00572128
0.00252019
0.0148327
0.00104192
0.000757043
0.00185773
0.00909163
0.00859709
0.00786074
0.00498355
0.000955493
0.000959704
0.00649838
0.00165214
0.0060229
0.00803054
0.00329816
0.00659217
0.0026802
0.00725642
0.00777663
0.0151672
0.00217411
0.00169629
0.00248054
0.00181614
0.00114598
0.00725299
0.00110061
0.00214431
0.0159599
0.0145071
0.0162111
0.00921986
0.00972291
0.00196066
0.00673871
0.00159116
0.00950908
0.0157592
0.00547402
0.00938457
0.000737321
0.00239445
0.00259183
0.0100671
0.00274577
0.00587933
0.00207252
0.00613255
0.00338322
0.00301472
0.00417872
0.000431167
0.0133225
0.00108242
0.00857773
0.000798982
0.00858566
0.00154307
0.00210642
0.00706152
0.00864752
0.00125543
0.00815479
0.0154973
0.0025395
0.000580169
0.0101753
0.00209302
0.00170196
0.00187551
0.000519926
0.000663325
0.00385656
0.0121109
0.0115397
0.00608205
0.00600504
0.0101591
0.00136355
0.00461273
0.00190976
0.00547977
0.000690083
0.00101681
0.00923517
0.00434714
0.00161676
0.00191803
0.0163951
0.00204251
0.000943575
0.00051382
0.00155913
0.00261477
0.00079755
0.00577975
0.00168551
0.00921501
0.00176723
0.00436486
0.000953108
0.0131412
0.00541285
0.0159103
0.00396318
0.00179147
0.00545639
0.00482277
0.00275873
0.000746955
0.0114702
0.00225283
0.00127666
0.00174735
0.000775188
0.0149009
0.00151064
0.0163519
0.00808642
0.00090802
0.00841676
0.000799793
0.0163036
0.0100567
0.0033742
0.00206757
0.00218949
0.0125107
0.000848173
0.000765642
0.00075667
0.00535703
0.000862454
0.000927545
0.00769168
0.00443342
0.0074504
0.00253658
0.00583296
0.00108934
0.0162127
0.00900809
0.00457015
0.000736101
0.00406336
0.00757562
0.000458138
0.000239198
0.000305083
0.0116519
0.00218504
0.0121462
0.00275625
0.00344548
0.00873989
0.0146267
0.00191861
0.00305488
0.00653489
0.00472926
0.0025095
0.0045598
0.000680304
0.00557086
0.00062022
0.00156751
0.000925716
0.00111918
0.00322002
0.00198334
0.00645912
0.00299785
0.00327813
0.0153838
0.00705901
0.00700988
0.00888487
0.00159311
0.000709266
0.00288413
0.00142927
0.00849028
0.00542701
0.00830472
0.0078881
0.000935279
0.000889942
0.00107059
0.00372771
0.00136627
0.00803826
0.0018238
0.00119803
0.00264005
0.00942555
0.00342293
0.0152149
0.000640346
0.00902661
0.0013524
0.00302897
0.00151176
0.00589387
0.00833892
0.0024914
0.00155296
0.00470101
0.00588776
0.00127491
0.00205497
0.0113844
0.0110286
0.00589896
0.00784001
0.00665574
0.0163468
0.0135283
0.00165724
0.00313631
0.0030495
0.00169867
0.00352889
0.00681617
0.012951
0.000741735
0.00512228
0.00198913
0.00222677
0.0028471
0.0028574
0.00257646
0.00447938
0.000451574
0.00756975
0.00898627
0.0012183
0.00228658
0.00113496
0.00676356
0.00353627
0.00286289
0.000594599
0.00312173
0.0101641
0.00758504
0.00415664
0.00237456
0.00233807
0.00082705
0.000986781
0.000749488
0.000755295
0.00283287
0.00184366
0.00122399
0.00200308
0.0125728
0.000424846
0.00338012
0.00194552
0.000924048
0.00579099
0.000974993
0.000814754
0.000892479
0.00191935
0.00250357
0.00208422
0.001292
0.00196139
0.00497095
0.000868329
0.00134807
0.00705619
0.00787979
0.000804229
0.00592461
0.00147728
0.00317167
0.00360897
0.00671232
0.00804903
0.000847955
0.00067859
0.000217883
0.000548733
0.00154718
0.0108948
0.00337333
0.0162994
0.00565219
0.00200689
0.00826654
0.00136746
0.000805082
0.00419779
0.00466146
0.00847395
0.00632126
0.00106361
0.000858446
0.00106153
0.000728798
0.00134243
0.0141492
0.00175739
0.00577099
0.00358958
0.000582263
0.00183497
0.000635348
0.00102487
0.00243822
0.00926854
0.0127911
0.011696
0.0098989
0.000684285
0.000743882
0.00633617
0.0132013
0.00272245
0.00700495
0.00561643
0.0054491
0.0012363
0.000806233
0.00077586
0.00768019
0.00860348
0.00203118
0.00209212
0.00195088
0.00348116
0.00394497
0.0012522
0.00301095
0.00689776
0.0136055
0.00997135
0.000525716
0.0116951
0.0012667
0.00598952
0.0061704
0.00370661
0.00439545
0.00386785
0.00169548
0.00625925
0.0148309
0.0127485
0.00132661
0.00108997
0.000886257
0.000645369
0.000700212
0.0016095
0.00245592
0.00429418
0.0067347
0.00577302
0.00200432
0.000593698
0.0111586
0.000754157
0.00107474
0.00385216
0.00943522
0.0041475
0.00385341
0.00652022
0.00819197
0.000820253
0.000841069
0.00272337
0.0051245
0.00761208
0.00124681
0.00729808
0.00858914
0.00307923
0.005513
0.000964866
0.00117305
0.000632065
0.00128298
0.000318139
0.000629486
0.000657245
0.000733655
0.000827445
0.000423093
0.00023046
0.000286458
0.0164487
0.0117932
0.000848067
0.00883264
0.00199298
0.00878477
0.00684171
0.00587548
0.00493665
0.0110266
0.0097523
0.00674477
0.00466094
0.00363147
0.00885716
0.00193762
0.000937993
0.000885263
0.0018937