/*--------------------------------*- C++ -*----------------------------------*\
| =========                 |                                                 |
| \\      /  F ield         | OpenFOAM: The Open Source CFD Toolbox           |
|  \\    /   O peration     | Version:  v1912                                 |
|   \\  /    A nd           | Website:  www.openfoam.com                      |
|    \\/     M anipulation  |                                                 |
\*---------------------------------------------------------------------------*/
FoamFile
{
    version     2.0;
    format      ascii;
    class       surfaceScalarField;
    location    "0.2";
    object      phi;
}
// * * * * * * * * * * * * * * * * * * * * * * * * * * * * * * * * * * * * * //

dimensions      [0 3 -1 0 0 0 0];
oriented        oriented;


internalField   nonuniform List<scalar> 
2776
(
0.00107318
0.000326267
-0.00115822
-0.000241223
-0.000955844
0.00100674
0.000376122
-0.000427023
7.21693e-05
-7.02535e-05
-1.43123e-05
1.23965e-05
-0.000138014
0.000170817
0.000289361
-0.000322164
-0.000113414
-0.000158847
0.000208829
6.34323e-05
-0.000205593
-0.000153465
0.00032124
3.78184e-05
5.29751e-05
-0.000150709
-0.000187108
9.52514e-05
0.000183033
-9.11762e-05
0.00102423
0.000901963
-0.000905211
-0.00102098
-0.000505561
0.000352902
-8.79759e-05
0.000240635
-0.000501618
-0.00138982
0.000773728
0.00111771
0.000235019
3.33433e-05
-0.000272539
4.17722e-06
0.000899959
0.000117552
-0.00138868
0.000371169
-6.90005e-05
3.40891e-05
-7.85024e-05
-6.2013e-05
-0.000177327
3.3747e-05
0.000892519
-0.000316291
-0.00107785
-9.99255e-06
-0.000431067
0.000142225
0.000298835
3.13955e-05
-0.000597007
0.000565611
0.000511471
-0.000125121
6.14515e-05
-0.000447801
0.000448746
-4.88485e-05
3.82288e-05
-0.000438126
-0.000841948
7.67919e-05
-5.87836e-05
0.000823939
1.1901e-05
0.000204368
-0.00026899
5.2722e-05
0.000588201
5.25154e-07
-9.73692e-06
-0.000578989
0.000424466
2.26216e-05
-3.91544e-06
-0.000443173
0.000312893
-0.000386998
-0.00119202
0.00126612
-3.89446e-05
2.39467e-05
-1.99547e-05
3.49527e-05
-0.000167986
9.64957e-05
0.000236002
0.000666162
-0.000819971
-8.21926e-05
0.000152203
-0.000210029
0.000314077
-0.000256251
-0.000363699
0.000412797
0.000607539
-0.000656637
0.000764922
-0.00103023
-0.000144701
0.000410014
0.000134927
-2.53252e-05
1.65853e-05
-0.000126187
-0.000155359
0.000307834
-7.00261e-06
-0.000145472
-0.000291289
0.000310448
-1.95808e-05
4.22634e-07
4.12434e-05
9.2852e-06
0.000394452
0.000124265
0.000240102
-0.000212164
-8.46229e-05
0.000125407
-0.000285054
-0.000197101
0.00099947
-0.000170138
-0.000829332
-0.000108644
-3.1483e-05
0.000140127
-2.57825e-05
-0.000342898
0.00036868
-0.000524391
0.000569956
-4.55646e-05
-0.000463044
0.00051249
-4.94458e-05
0.000455488
-4.35649e-05
-0.000411923
0.000336957
-8.20368e-05
-0.00025492
-0.000520647
0.000182413
0.00105164
4.22676e-05
1.34076e-05
4.82947e-05
-6.17023e-05
8.75774e-05
-4.7509e-05
-4.00683e-05
-0.000279556
0.000283658
-4.10187e-06
-0.000275499
0.000235188
4.03116e-05
-0.000237591
-0.000718252
-2.94859e-05
-0.000123979
-9.58927e-05
-6.29545e-05
-0.000115445
-3.99143e-05
-0.00110534
0.00141823
-0.000725215
0.000245692
0.000479522
-0.00110528
-0.000284543
0.000316213
-0.000498434
0.000182221
-0.000521536
1.59743e-05
1.49902e-05
-8.81653e-05
9.42693e-05
-2.10942e-05
0.00020537
-0.000142933
-8.82203e-05
0.000114706
-3.6918e-05
-0.000186432
-0.000196075
7.7902e-06
0.000687462
-0.000499178
0.000781266
-0.000696596
-0.000160757
7.60864e-05
-0.000123426
0.000155525
-8.82258e-05
5.61266e-05
0.000381586
-0.000157183
1.11764e-05
-0.00023558
-0.000116226
-9.03073e-05
-0.000448942
0.000890192
-0.000894764
7.21761e-05
-6.76041e-05
-2.62249e-05
-2.739e-05
-6.42134e-05
0.000117828
0.000237812
-0.000193901
-0.000101923
5.8012e-05
3.643e-05
-0.000536136
0.000499706
2.12862e-05
-0.000253974
0.000232688
0.00107402
-0.000458925
-0.000821027
0.000205933
-5.41988e-05
6.33506e-05
5.83842e-06
-0.000655731
-7.60599e-05
0.000320548
0.000411243
-8.7191e-05
0.000249319
4.32426e-05
-0.000186281
0.000186195
0.000114793
-0.000676375
0.000489032
0.000187343
0.000103463
-0.000407774
0.000360526
-5.62157e-05
-0.000679548
-9.54851e-05
0.000192562
0.00058247
-0.000463179
0.000639274
0.000597632
2.24795e-05
2.82557e-05
-3.27719e-05
-1.79634e-05
-0.000379883
-7.84573e-05
0.000347711
0.000110629
-0.00072724
2.35077e-05
0.000706843
-3.11075e-06
-1.8764e-05
0.000668616
-0.000651175
1.32232e-06
-0.000303715
-5.50733e-05
6.7499e-05
3.9199e-05
-1.54572e-05
0.000350238
-0.00037398
0.000617021
-0.000297099
-4.27219e-06
0.000101665
8.52e-05
-0.000182593
-3.64468e-05
9.53814e-06
-1.2036e-05
-0.000227285
3.36354e-05
2.56637e-05
-0.000165032
-0.000200537
0.000227556
0.00027468
-0.000500424
0.000723518
-0.000497774
7.25082e-05
0.000135033
-0.000112289
-4.32758e-05
0.000814119
0.000192626
-5.36402e-05
-8.11145e-05
0.000173793
3.50359e-05
4.57408e-05
2.8672e-05
0.000206516
-4.53307e-05
5.87382e-05
-1.85403e-05
0.000106118
-0.000382735
-8.03094e-05
2.53459e-05
0.000157687
-7.69949e-05
-4.75979e-05
0.00049487
0.000622839
0.000347964
-7.99133e-05
-4.1488e-05
3.3236e-05
0.000549682
-0.000579547
2.69756e-05
2.88903e-06
0.000155409
0.000822295
-0.000651438
0.000109224
0.000243679
2.4832e-05
-0.000152707
9.3318e-05
3.45573e-05
0.000403958
-6.1287e-05
8.08324e-06
-0.000247856
0.000474791
4.45562e-06
0.000116631
-6.81117e-05
8.98307e-05
-1.69564e-05
-0.000170845
-0.000553518
0.000392633
0.000331702
-3.58391e-05
-2.93931e-06
-4.65439e-05
8.53223e-05
1.98784e-05
-3.68866e-06
-4.71684e-05
3.09786e-05
-6.14136e-05
0.000516901
-4.99911e-05
0.000386948
4.59265e-05
-4.96718e-05
-0.000694515
0.000177946
0.000618091
-0.000101523
-0.000304538
0.000808262
7.5588e-05
-0.000579312
-0.000195873
0.000550725
2.85951e-05
-0.000383447
-6.1412e-05
4.12545e-05
9.83798e-05
-7.82223e-05
8.3741e-05
0.00054089
8.52336e-05
0.000360519
-6.34956e-05
-2.12666e-06
3.85659e-05
2.70564e-05
0.000207874
-9.76758e-05
0.000119112
-1.83926e-05
-0.000146115
2.82783e-05
-3.80185e-05
0.000844793
-2.52699e-05
-0.000781505
0.000609795
1.48766e-05
4.68697e-06
-0.000629359
0.000544392
-5.13934e-05
4.22318e-05
-0.000535231
0.000147797
7.52043e-05
-5.96855e-05
-0.000163316
-0.000628924
-7.44849e-05
-2.19489e-05
0.000725357
0.000148645
1.38971e-05
-2.76148e-05
7.87881e-05
-4.40103e-05
-9.65573e-06
-2.51221e-05
0.000139172
-0.000116019
5.47909e-05
-7.79442e-05
0.000190011
-0.000165003
-2.92799e-05
-3.31034e-05
2.14886e-05
0.000322284
-0.000515689
0.000569527
-0.00083082
-9.21056e-05
0.000228411
-8.10936e-05
9.2795e-05
6.08068e-05
-0.000219568
-1.00819e-05
-8.52749e-05
0.000314924
0.000195084
-3.6281e-05
0.000176225
0.00051626
-6.27875e-05
-0.000629698
-0.000236482
-0.000175104
0.000107871
-1.34584e-05
8.47173e-05
1.58952e-05
-8.7154e-05
-0.000783814
0.000252451
0.000510994
2.03687e-05
-2.41829e-05
-5.29523e-06
0.000178123
-0.000633879
0.000189649
0.000547693
-0.000352413
0.000333649
0.000569141
-0.000754562
-0.000178882
0.000364302
-0.000122052
0.000191511
-0.000318705
0.000249247
-9.26612e-05
-0.000142277
0.000577239
-0.000598689
0.000106684
0.00061746
-0.000557793
2.40747e-05
0.000760651
-0.000637592
-0.00019733
7.42702e-05
6.83312e-05
0.0015376
-0.00123667
-0.000369259
0.000682278
-0.00101663
0.000570349
-3.18711e-05
5.49685e-05
9.16884e-05
-0.000114786
0.000185788
-2.56368e-07
9.81262e-05
-3.6992e-05
9.63635e-05
0.000343407
-0.000425199
8.17913e-05
-0.000410628
0.000293594
-0.00129456
0.00141159
-0.000428297
-1.89093e-05
0.000594312
-0.000147106
0.000210713
-0.000194429
-0.000379983
-4.64931e-05
2.09651e-06
-3.55167e-05
0.000155539
-4.13335e-05
0.000123606
-0.00135408
0.00119066
-0.000253799
0.000417216
0.000462772
-0.000374494
-0.000112746
2.44675e-05
8.35116e-05
-0.000730475
0.000777645
-0.000130682
-0.000198462
-7.4439e-06
0.000133449
7.24573e-05
-2.94339e-05
1.79897e-06
0.000381879
-0.000354244
0.000690047
5.53492e-05
-7.678e-05
-0.000729218
4.62069e-05
-4.42291e-05
-0.000386383
-0.000178394
0.000184894
-0.00101217
-0.000174936
0.00029234
-0.00022848
6.98366e-05
-0.000517732
0.000852119
-0.000171617
-0.00071852
-7.41938e-06
1.23689e-05
8.93198e-05
-0.000153028
-0.000106263
9.42583e-05
0.000403761
0.00042191
-0.000698828
-0.000126844
0.000116622
0.000161679
-0.00106211
7.95697e-05
-4.12993e-05
-8.47635e-05
-2.14073e-05
-5.98271e-06
-0.000508548
0.000405191
0.000638228
-0.000534871
-0.000300338
-1.47744e-06
0.000101507
0.000200308
-0.000774973
0.00054981
-0.000119494
7.64139e-05
-0.000109948
0.000153803
-7.60423e-05
-0.000486581
0.000430008
0.000358317
-0.000301744
-0.000526354
0.00054956
7.26247e-05
-9.58308e-05
-0.000180494
-1.30602e-06
-1.21005e-05
-0.000266851
-0.000546804
6.80944e-05
0.000900619
0.000472105
0.000781529
-0.000405337
-0.000848297
-2.86323e-05
5.11019e-05
4.57908e-05
-6.82604e-05
2.25048e-05
0.000450926
-2.46849e-05
3.8227e-05
0.000555836
-8.25916e-05
-3.37276e-05
2.01106e-05
-0.000700599
0.000714216
1.28759e-05
2.49955e-06
-0.000308442
0.000293066
0.000631735
-0.000239115
0.000289658
-2.59952e-05
-0.000844122
2.81694e-05
9.09986e-05
-0.000613096
0.000750232
-0.000228135
0.000715999
0.000156332
-0.000182284
-0.000746964
0.000108745
-0.000294316
-0.000346045
0.000253979
-0.000110545
0.000541737
0.000146047
-0.000136862
0.000533427
0.000220895
-7.64277e-05
5.95902e-05
-0.00013587
2.43014e-05
-6.82557e-05
0.000112923
-7.48416e-05
0.000182315
-0.000363022
0.000260217
-9.01717e-05
0.000124654
4.19681e-05
-7.64509e-05
1.44117e-05
-4.90684e-05
2.64939e-05
8.16283e-06
-6.68637e-05
4.9511e-05
-0.000127717
1.2788e-06
5.00102e-05
6.95074e-05
-0.000130666
-4.07644e-05
-4.43926e-05
0.000316116
-0.000553115
0.000281392
0.000154809
-0.000527177
-0.00032646
-5.92862e-05
0.000364685
-0.000339754
3.4355e-05
0.000162346
0.000134319
-0.000159951
-0.000136715
6.09498e-05
-0.000269789
4.95485e-05
-9.30887e-05
0.000115214
-7.16733e-05
-8.09949e-05
0.000376763
0.000124857
-0.000129536
-0.000372083
7.83997e-05
-4.53855e-05
-0.000440788
0.000456605
-0.000232989
-0.000387174
7.99838e-05
-2.50521e-05
-6.05492e-05
5.6175e-06
7.415e-05
-0.00062963
-2.50052e-05
1.53224e-05
-0.000101429
0.000111111
-0.000262976
0.000926367
-0.000299849
0.000250731
-1.58425e-05
6.4961e-05
-0.000295904
0.0007336
0.00073998
0.000208736
-0.000232717
0.000790311
-0.000413653
0.000899279
-0.000269856
0.000283628
0.000549709
-0.000563481
-1.83852e-05
0.000131786
-0.000142033
8.79251e-05
-2.25954e-05
-5.12825e-05
0.000388661
-0.000809655
-0.000988155
0.0012372
0.00056061
-0.000671874
0.000691984
-0.000388998
0.000545331
4.43057e-05
-4.18061e-05
-1.00298e-05
0.000414058
-1.12141e-05
0.000261188
-3.72945e-05
-0.000153918
0.000473629
-0.000476334
-0.000538783
0.000541488
-1.26741e-05
-0.000337334
0.000374676
-3.73415e-05
-2.45104e-05
7.20808e-05
-0.000745728
-0.000137179
-0.00132926
0.000656784
0.000175849
-0.000528262
-0.000650753
-2.11211e-05
3.21813e-05
1.21243e-05
5.3127e-05
4.17569e-05
-4.3782e-05
3.4612e-05
-8.12512e-06
-3.85688e-05
0.000130398
3.59925e-05
-0.00074756
0.00028042
-0.00018289
0.00065003
-0.000710845
0.000704988
0.000184714
-0.000209324
-9.14085e-05
4.10671e-05
2.15079e-05
2.46369e-05
-8.72119e-05
-0.000521864
2.14754e-05
0.000330108
0.000170281
0.000352556
-0.00020773
0.000465342
-0.000610168
-0.000572787
0.00051988
-3.69805e-05
9.26081e-05
-0.000289486
0.000233858
-6.61756e-05
3.48691e-05
0.0002248
-0.000193493
0.000372449
-0.000450217
5.32575e-05
4.46422e-06
0.000357903
-0.000394999
0.000101194
-0.000204629
0.000947043
-0.000851335
-0.000501044
0.000548367
0.000384517
-0.000754938
-0.00100102
-0.000157199
-0.000841116
9.40329e-05
-0.000855072
0.000460068
4.62759e-05
-0.00022467
0.000627245
-0.000581038
0.000221482
-3.08045e-05
-0.00019478
-3.2863e-05
-4.31934e-05
3.87619e-05
-7.76329e-05
5.79121e-05
7.10228e-05
-5.13019e-05
-6.31121e-05
-0.000136076
0.000134701
6.44874e-05
3.52195e-05
-5.34774e-06
-2.98717e-05
-0.000571706
0.00142999
-0.00112126
-0.000119735
7.02003e-05
-8.65167e-05
0.000364026
-0.00103579
-0.000283446
0.000160431
0.000300767
-0.000230734
-0.000230463
-0.000280488
0.000284965
0.000190539
-0.000195016
-0.000899145
0.0009326
0.000407878
-0.000441333
-0.000655325
0.000667141
-0.000907575
0.000895759
-0.00109916
0.00053893
0.000749883
-0.000228486
0.000457374
-0.000312563
0.000658427
0.000162909
0.000329742
-0.000197952
-0.000294698
8.59554e-05
-0.000463379
3.58848e-05
0.000341539
0.000629536
-5.47756e-05
1.95517e-05
-3.86521e-05
2.40058e-05
5.07064e-05
-3.60601e-05
0.000687112
-1.52814e-05
0.000317821
-0.000989652
-3.70359e-05
8.29767e-05
-0.000326429
-0.000165889
-0.000127424
0.0002313
-9.18736e-05
4.11122e-05
1.78984e-05
-0.000156361
-5.35596e-05
0.000144154
6.57666e-05
-0.00100421
0.000473817
0.00103647
-0.000506078
0.00015505
-0.000455024
0.000566407
0.000575729
-3.43827e-05
5.04446e-05
-0.000111295
0.000275071
0.000393378
-0.000557154
5.59562e-05
-0.000668462
0.000643901
-0.000470823
-0.000130827
-2.61528e-05
8.67263e-05
0.000793425
-0.00089405
0.000381046
-0.000229816
0.00031181
0.000391634
0.00124027
-0.00057248
0.000277314
-0.000945101
0.000455061
-9.13008e-05
-0.000247138
9.78916e-05
4.78386e-06
4.85044e-05
-0.000613437
5.88584e-05
0.000506074
-0.0001664
-8.48437e-05
0.000148174
0.00010307
-0.000174003
6.11155e-05
0.000128268
-1.53805e-05
-0.000400824
-1.33428e-05
-0.00043413
0.000211803
-0.000523757
0.000295394
-0.000458199
0.000498084
-0.00033528
0.000553018
0.00105597
-7.1387e-05
-1.87224e-06
3.70917e-05
-0.000593685
-1.60938e-05
0.000800355
-0.000680693
0.000405768
-0.000525429
-0.000155398
-0.000828469
-2.83013e-05
0.000231179
0.000527368
-0.000555158
-0.000728641
0.00159032
0.00037859
-0.000135808
-0.00115799
0.00127168
2.21158e-05
-3.7289e-05
0.00011315
-1.24045e-05
-7.67394e-05
0.000154787
-0.000113957
5.39702e-05
0.000184252
-8.6663e-05
-0.000485817
0.00135912
-0.000563802
-0.00152396
0.000388308
-0.000487098
4.65972e-06
7.1201e-05
0.000360383
-7.79313e-05
7.82071e-05
-5.57227e-05
0.000627545
-0.000197413
-0.000565012
0.000688303
7.41227e-05
0.000536552
-0.000472394
-3.94033e-06
0.000403235
-1.7708e-05
0.000687845
-0.00062831
-0.000518812
0.000459277
0.000689892
-0.00087033
0.00063837
-0.000457932
-0.000139384
5.27213e-05
0.000236896
0.000634736
-0.000517585
0.000355732
0.00109445
0.00030708
-2.4197e-06
0.000476291
-0.000245477
-0.000230814
0.000584939
-0.000865628
-0.000248948
8.78307e-05
3.02907e-05
-0.000212696
-0.000372167
0.000406834
0.00017803
5.27787e-05
0.000247001
-0.000266436
0.000704516
-0.000228225
0.000476509
0.00019782
-0.000399649
0.000527109
-0.000745643
0.000341943
-0.000833106
0.000805541
-0.000314377
-0.000927853
0.000332669
0.000879166
-0.000283982
0.00037955
-0.00096546
0.000948476
0.000394862
-0.000963788
-0.000400622
0.000778109
0.000437494
-0.000814982
0.000880524
0.000221906
0.000274861
-1.14066e-06
0.000128537
9.45099e-05
5.32624e-05
0.000136136
4.35152e-05
9.2724e-05
0.000216296
-0.000344438
-0.000795428
0.00092357
-0.000707868
-0.000387098
0.000721111
0.000373855
-0.000111953
-0.000502893
0.00048062
0.000134225
-0.000426409
-0.000671469
0.000390011
-0.000231579
-3.71962e-05
0.000304505
-3.57292e-05
-4.40126e-05
4.33007e-05
-2.37171e-06
3.0836e-06
4.27917e-05
3.55926e-05
-0.000283841
0.000988357
-6.96236e-05
-0.000171106
9.1505e-06
-4.15465e-05
-2.46607e-06
-0.000118957
0.000148321
1.34272e-05
0.000154472
-4.86296e-05
-0.000541678
0.000152819
-0.000587012
0.000975871
-4.70866e-05
0.000191742
-0.00113012
-0.000254633
0.00109975
0.000285
-0.000341743
0.000131108
-7.50178e-05
0.000285653
0.000649605
-0.000277611
-0.000913672
1.33768e-05
0.000250635
-0.000686959
0.000391453
0.000417438
-0.000121932
0.000424355
-0.000399472
-0.000291754
0.000266871
4.91572e-05
-8.94389e-05
-4.29282e-05
8.32099e-05
-2.20702e-05
0.000824494
-0.000625451
0.000616757
-0.000180446
0.000263058
-0.000346517
-0.000422072
0.000361005
0.000407584
0.000160824
-3.85376e-05
0.000184861
-7.11234e-05
0.000104176
-0.000200058
9.50583e-05
-0.00021179
0.000437351
-2.98112e-05
0.00024821
-0.00065575
0.000189341
-0.000158279
-0.000430534
-4.96814e-05
5.85769e-05
0.000256707
-0.000244972
0.000425616
-0.000817862
0.000208087
0.000158148
-0.000109528
0.000163648
0.000220199
-9.74308e-05
4.85002e-05
0.000289196
4.99171e-05
4.59603e-05
-0.000157505
-3.91647e-05
2.90184e-05
-0.000167013
-7.89592e-05
0.000217801
8.63027e-05
-0.000278101
-2.60021e-05
7.10328e-05
-6.37465e-05
3.60144e-05
-2.93382e-05
-0.000110046
0.00106056
7.73077e-05
-0.00113787
0.000222087
-0.000189491
0.000289688
-2.31873e-05
-1.83592e-05
-0.000219843
-7.09933e-05
6.18796e-05
-3.66714e-05
-2.52082e-05
2.19635e-05
-1.46398e-05
0.000169328
0.000112981
-0.000184502
-0.000671473
0.000887769
2.09374e-06
0.000237083
-0.000253817
0.00058299
-0.00046664
0.000153701
0.000153113
-8.47269e-05
-0.000522562
0.000156372
0.000521599
0.000179473
-0.000195414
0.00114442
0.000286432
-0.000356589
0.000223857
-0.000447581
-0.000127045
5.2063e-05
0.000152544
-0.000228676
9.09696e-05
-1.48376e-05
-0.000103297
0.000410413
9.84538e-05
-0.00040557
-0.000129054
0.000157983
0.000169853
-0.000260549
9.06964e-05
0.00144323
-5.62783e-05
-0.000733993
-0.000452399
0.000841954
-0.000421513
-0.00024996
2.06621e-05
8.37449e-05
-4.15215e-05
-6.28856e-05
-1.77211e-05
7.28515e-05
-2.68746e-05
-0.00025166
0.000265882
-8.27471e-05
0.000298075
-0.000168942
-0.000638197
-0.000407191
4.31592e-05
-4.02181e-05
0.000179891
-0.000120054
6.30621e-05
0.000202577
-0.00021286
-0.000104484
0.000173249
-0.000407556
0.000471652
0.000714013
-0.000449885
-0.000439972
0.000285181
-0.000316958
-0.000325362
0.00035714
0.00077199
-0.000299023
-0.000425253
4.52006e-05
8.17035e-05
0.000162951
-0.000190061
-0.000113078
0.000109972
6.87712e-05
-4.85592e-05
-3.75447e-05
-1.83798e-05
-0.000186419
-5.87364e-05
-0.000336147
-0.0001441
-0.000446725
9.4256e-05
0.000496569
0.000298852
-7.77826e-05
-0.00024928
2.8211e-05
0.000142037
0.000333291
-0.000251144
-0.000224183
0.000113766
0.00110591
0.000158544
-9.08612e-05
-0.000105155
0.000357661
4.63449e-05
-0.000252574
0.000316829
0.0011366
0.0002365
7.67405e-05
-5.60648e-05
-6.92349e-05
-0.000320773
-0.000634362
-4.47163e-05
3.85928e-05
0.000313204
-9.18583e-05
-0.000202509
4.1793e-05
0.00047888
-5.18332e-05
0.000168138
-0.000625299
0.000582431
0.000514521
-0.000474892
-0.000195562
-0.000530222
-0.000387461
0.000530585
0.000323294
0.000436569
-0.000315889
-0.000443975
-0.000616609
0.000428803
0.00070021
-0.000564074
0.000156937
0.00047928
-7.21423e-05
-0.000945099
0.000524979
-0.000383749
-0.000712354
0.000151004
-1.44168e-06
2.45731e-05
0.000159069
-2.06902e-05
-0.000369226
-0.000561459
-0.000207644
0.00057169
-0.000833121
0.000957158
0.000420127
5.90568e-05
-0.000255938
-6.69713e-05
0.000410226
-0.000427281
0.000340349
0.000304349
-9.61673e-05
-0.000225037
1.68556e-05
0.000381661
-0.000169987
-2.70652e-05
1.16132e-05
-0.000888148
0.00075234
0.000377623
0.000154523
-9.55768e-05
1.2276e-05
-0.000586565
-0.00046676
0.000613353
0.000719666
0.000728848
0.000206781
2.71836e-05
-0.000962812
0.000148446
5.92123e-05
0.00039025
-0.000481879
1.61796e-05
-0.00054439
0.000211252
-5.5237e-05
0.000447621
-0.000401407
9.02273e-06
-0.000849343
0.00071214
0.000115168
-0.000180232
0.000441577
0.000612646
-0.000282233
0.000279367
-0.000588549
7.02968e-05
-0.000111605
1.19696e-05
0.000569025
0.000417592
0.000192793
-0.000272105
0.000141192
0.00097886
8.17011e-05
1.05827e-05
6.6273e-05
-0.000438019
-0.000518612
-0.000412437
0.000412022
-0.000437603
-0.000937433
0.000609469
-0.000673038
-0.000527831
-0.000101937
0.00016962
-0.000641152
0.000928405
0.00012335
2.58777e-05
7.85975e-05
-0.000496892
6.76849e-05
-0.000496455
0.000623625
-0.000941858
0.000507876
-0.000500244
-0.00100155
0.000694895
-0.000630775
9.61356e-06
-4.12084e-05
0.000631699
-0.000600104
0.000285536
0.000546062
-8.00405e-05
-0.000673899
0.000207877
4.39558e-05
-0.000139463
-0.000878936
0.000504335
-0.000487969
9.07119e-05
-0.000253527
0.000311222
0.000141609
0.000495948
0.000400332
-0.000606233
4.22902e-05
0.000469558
3.42212e-06
-2.88995e-05
-0.000572485
-0.000689738
0.00126319
0.000395155
-0.000364666
0.000499525
0.000372508
0.000122569
-0.000184781
-0.000310296
-0.000135658
0.000219717
-0.00024042
-3.34358e-05
-3.35768e-07
0.000533296
-0.00051369
0.000249685
-0.000392998
0.000441899
-0.000298587
0.00120898
-0.0011175
0.0007621
-0.000853584
0.000464983
0.000415431
-0.000255618
-0.00040272
0.000902849
-0.000702279
-0.000379026
0.000178456
0.000405439
-0.000242135
-0.000305043
5.5444e-05
-0.000311775
-0.000533581
-5.49439e-05
-0.000697423
0.000346528
0.000646145
-0.00029525
-0.000824468
-0.000199636
0.000470586
0.000825091
8.76878e-05
0.000215074
-0.00112785
0.000503629
0.000367305
0.000393849
0.00013553
-0.000205817
0.000220944
-0.000930717
0.000598329
6.33681e-05
-8.55744e-05
8.17726e-05
-5.95664e-05
-0.000333947
0.000754861
-0.000754849
0.000657154
-0.000447421
0.000507193
6.13448e-05
0.00111933
-0.00110337
-0.000323387
-0.000311746
0.000872684
-0.000852548
-0.00031788
0.000558329
-0.000443309
0.00099909
-0.0010266
0.00095557
-0.000925915
-0.000469936
-0.000113239
5.59978e-05
-0.000105515
-2.59953e-05
0.00013617
-2.36798e-05
0.000250726
7.73025e-05
6.58738e-05
0.00013627
-7.12486e-05
-0.000142667
2.38543e-05
-0.000915641
-0.000431896
0.000574969
-0.000328632
-0.000187248
6.31251e-05
0.000692582
-0.000834929
0.000212091
-0.000129776
0.000832238
0.000789693
-7.33064e-05
-0.000168019
-0.00027081
-0.000905137
-0.000131574
-0.000120424
0.000112182
-0.000913794
1.03464e-05
1.47995e-05
0.000873686
-0.000898832
-0.000431666
4.36874e-05
7.52203e-05
-0.000118908
-5.4551e-05
-6.08663e-05
-1.2451e-05
9.36412e-05
-0.000359586
-0.000160483
-0.000182519
-0.000564315
-0.000235322
0.000420781
-0.00031642
-0.000370865
0.000812987
-0.000783128
-0.000881233
-0.000770447
0.000805679
0.000846
6.01098e-05
-6.91725e-05
0.000881747
0.0001379
0.000255888
0.000135643
-0.000227613
0.000658373
-0.000137868
-0.00108376
0.00111115
0.000110482
-0.00113186
6.45855e-05
9.77662e-05
-0.000146537
-0.000417635
-0.000579909
0.00028519
-0.000152398
-0.000540799
-0.000215116
0.000548271
-0.000515842
-0.000282458
-0.00105466
-0.000534485
0.000530806
0.000166587
-6.06886e-05
1.25255e-06
9.80288e-05
-0.000551542
-0.000781733
0.000393227
-8.33581e-05
2.34958e-05
5.98623e-05
-3.58291e-05
-4.2843e-05
5.33469e-05
0.000282484
-0.00129195
-5.68243e-05
0.00106629
-0.000374681
1.96193e-05
-1.1118e-05
-7.06773e-06
0.000557152
-0.000538967
-1.88554e-05
-4.10033e-05
-0.000967038
-0.000164444
1.43003e-05
-5.23654e-05
-4.64737e-05
-4.5837e-05
1.62683e-05
0.000152872
-0.00013382
0.000108992
0.000343833
0.000252319
2.76514e-06
-0.000174168
9.96721e-05
-0.000182804
-0.000554604
0.000215544
8.11411e-05
-0.000140062
8.54147e-05
9.21851e-05
-0.000144216
9.39987e-05
0.000128575
-0.000227101
3.8875e-06
-6.22616e-06
4.66427e-07
0.000428761
-0.000920639
0.000574775
-8.28967e-05
0.000874569
-2.88383e-05
6.10952e-05
0.00011178
-0.000144037
-9.63182e-05
5.59138e-05
9.61449e-06
2.74176e-05
-2.42007e-06
-6.10917e-05
3.4551e-05
0.000185609
-2.19306e-05
5.91993e-06
1.60106e-05
-2.32798e-05
3.17999e-06
-8.29018e-05
6.49496e-05
1.79523e-05
-8.37852e-05
5.30384e-05
3.07468e-05
-0.000232323
-0.000315247
-2.91286e-05
1.46732e-05
1.44553e-05
3.16473e-06
-0.00111453
0.00116412
-0.000473515
-0.00160427
-4.44677e-05
2.25371e-05
-0.000115656
0.000422555
-6.0167e-05
0.000183673
-0.000104838
2.19364e-05
3.56135e-05
0.000306994
-0.000458784
-0.000428119
2.04819e-05
2.39098e-05
3.13664e-05
-0.00037764
-0.00101972
-0.000490123
0.000271979
0.00022899
-3.95863e-05
-0.000142438
2.6782e-05
-0.000864218
0.000498672
-1.95337e-05
-0.000556715
4.49151e-05
0.000567756
0.000839815
-0.00111732
0.000530781
-0.000140333
-8.26865e-05
9.79669e-05
0.000643093
0.000122713
-0.000147104
0.000719834
5.90883e-05
0.00074299
-0.000542354
-0.000188361
2.86972e-05
5.146e-05
0.000126593
0.000128989
-0.000189263
-6.63194e-05
-0.000257618
-9.4925e-05
-0.000651054
-8.13784e-06
-0.000191016
-0.000287219
0.000327825
0.00015041
7.39455e-05
-0.000774813
-9.5969e-05
0.000229301
-0.000479915
-0.000362822
3.57964e-05
1.29535e-06
-4.97345e-05
0.000245883
-0.000135558
-0.000354645
0.000287707
6.77117e-06
-0.000141195
0.00016609
0.000116168
-0.000184652
0.000103035
8.48669e-05
-0.000342622
-0.000280339
0.000217552
0.000863646
0.000192108
-7.40071e-05
-4.83881e-06
-0.000586243
0.000319466
0.000259466
-0.000439085
0.000372181
-0.000501985
0.000137147
-0.000191538
0.000149859
-7.66519e-05
0.000118331
-0.000188292
-0.000236949
-8.98635e-05
-0.000170555
0.000147604
2.29509e-05
1.92722e-05
2.29159e-06
-2.15638e-05
1.38302e-05
-8.48448e-05
6.8603e-05
-0.000197714
0.000777419
0.000323144
1.9067e-05
8.39006e-05
0.000211824
-0.000141252
-3.58178e-05
0.000237766
0.000130721
-0.000376356
-0.000188519
0.000337261
0.00123497
-0.00117859
3.99764e-05
0.000132735
1.90545e-05
0.000150118
-0.000127193
0.000137388
0.000460039
9.55508e-06
-7.69636e-06
0.000362826
-0.000286516
-0.000383464
-4.25292e-05
-0.000784499
-0.000588194
-0.000342426
-0.000162112
8.28356e-05
-0.000428297
0.000378624
5.20384e-05
-0.00019347
-0.000237193
0.000119507
0.000122452
6.4043e-05
5.649e-05
-8.41155e-05
-0.000405918
0.000265422
0.000519718
-4.92714e-06
1.08471e-05
-0.00019467
-0.00110137
0.000290388
0.000941577
-0.000135106
0.000136516
-5.61725e-05
-0.000270849
-0.000319645
0.000318389
2.9624e-06
0.000180725
-0.000291522
0.000763465
-0.000241907
-0.00012282
1.71126e-06
-4.33353e-05
-3.00834e-05
0.000809342
0.000129395
-3.62454e-05
-0.000244662
-0.000294707
-0.000784373
0.00100087
-0.000794587
0.000497607
-0.000473467
7.72079e-05
0.00116638
-0.000120375
7.35634e-05
2.0659e-05
-0.00138509
0.000745657
-0.000396357
-0.000220968
2.12949e-05
-3.10615e-05
7.66567e-05
-7.64289e-06
-0.000180618
-8.49472e-06
-0.000224015
-7.2533e-05
8.60223e-05
0.000122703
0.000240502
-1.69604e-06
2.09682e-05
-0.000112602
0.00120085
-0.000249219
0.000162224
-0.000322868
-4.007e-06
-0.00085338
0.000686785
9.00433e-06
0.000112473
-2.06434e-05
0.000159111
-6.89449e-05
0.000129473
0.000147715
-1.59609e-05
3.97585e-05
9.11751e-05
0.000680932
8.52643e-05
-0.000362004
0.000391341
0.000283823
-0.000245224
-0.000267079
-0.00027716
0.000277869
0.000132508
0.000203782
7.01977e-05
-0.000303791
0.000700501
-0.000791175
6.05903e-05
-0.000708446
-0.000527063
0.000451136
-3.29033e-05
5.12268e-05
0.000103607
-4.29303e-05
1.74052e-05
0.000341685
-0.000633468
0.000506958
0.00030474
-0.000396626
5.75295e-05
0.000180966
-3.82211e-05
2.93064e-05
-0.000151037
9.74609e-06
0.000117686
0.00108493
-0.000586162
0.000168374
0.000504836
0.000892364
0.000277896
-0.000423333
-1.13524e-05
0.000413656
-0.00122391
-0.000291116
-0.000186012
0.000323723
-0.000264719
-0.000156915
-0.000633866
0.00055319
-7.70633e-05
-4.06257e-05
1.74693e-05
-0.000889082
-0.000550943
-0.000458675
-0.000352599
0.000386624
-0.000720658
-0.000278373
0.000339775
0.000288082
-0.000349484
0.000260391
-0.000170375
-2.26656e-05
0.000263294
-0.000286014
-0.000147616
0.000391522
-0.0003552
0.000414221
-1.3059e-05
-0.000698261
0.000508105
-0.000819925
4.95365e-05
0.000388266
-0.00025227
0.000589099
0.000106564
-0.000636805
4.82815e-05
-1.12685e-05
-3.49164e-05
-0.000296058
-0.000765303
-0.000307426
-0.000470426
0.000396347
0.000257085
-8.80396e-06
7.91628e-06
-6.41043e-05
4.12688e-05
-5.42277e-05
-8.66522e-06
-0.000197932
3.49998e-05
-0.000675359
-9.09075e-05
-0.000222944
0.000245449
-0.000184716
0.00025789
-1.24404e-05
-0.000166269
0.000136996
2.92731e-05
-0.000142457
-4.22589e-05
-5.46081e-06
-0.000766565
0.00074057
-0.000526795
0.000545873
-1.90784e-05
-0.000488568
-0.000732017
-3.45485e-05
0.000681787
0.000621014
6.07725e-05
-0.000663923
-0.000427116
0.000591842
-0.00054508
-4.67616e-05
-0.000357073
-7.00435e-05
-0.000290451
-6.66215e-05
0.000257081
-0.000258559
-3.33702e-05
0.000573673
4.73408e-05
0.000554297
1.93761e-05
0.000529027
1.85658e-06
0.000558172
-0.000380173
3.36276e-05
2.16872e-06
-0.000339219
-0.000390269
0.000430901
-0.000249123
0.00014108
-0.000155461
0.000487366
-7.04342e-05
4.44684e-05
-0.00075411
0.000608635
-3.24405e-05
9.17285e-05
0.000584613
-0.000219321
0.000373131
-0.000344825
9.61103e-05
0.000173008
0.000127504
2.00999e-05
-0.000853238
-0.000131565
0.000468639
-8.32698e-06
-8.18415e-05
0.000143077
-0.000391018
-0.000262975
-0.00155987
0.000540356
0.000183524
-0.000101838
-0.000161995
0.000472855
0.000197891
-0.000262244
0.00017293
-0.00022661
0.00107985
-0.00128319
0.000160823
9.05545e-06
-0.000169879
0.00128246
3.49248e-05
2.91696e-05
0.000431494
-0.000236653
-0.000167706
7.84482e-05
2.96913e-05
-2.60466e-05
-5.55982e-05
-0.00014237
-0.00014011
-0.000186366
-0.000278673
0.000137282
0.000484799
0.000143864
-0.000211366
-5.08712e-05
-0.000110454
2.96053e-05
-0.000212638
0.000337113
-0.000236233
0.000228862
-0.00062991
-0.000812403
-0.000251499
-1.95956e-05
0.000339151
-4.39077e-05
9.49368e-05
-0.00039018
0.00025127
0.000222753
-0.000223293
0.00021711
-0.000358449
-0.000127281
0.000234832
-0.000213814
4.32843e-05
0.000212049
2.85988e-05
2.35702e-05
-0.000139876
0.000233955
0.000625386
-0.000961233
4.40923e-05
-0.000118836
0.000727082
0.00058604
-0.000260801
-0.000166668
-0.000404047
-0.000390662
0.000338829
-0.000194207
8.1949e-06
-0.000867158
0.000702748
-0.000148153
-0.000334839
0.000171014
-6.46603e-05
0.000184429
0.000324729
-0.000458569
4.58639e-05
6.21134e-05
-0.000223048
-8.92237e-05
8.25469e-05
-0.000868809
0.000146146
-0.000134913
0.000122848
0.000496767
6.4459e-05
0.000428313
0.000393596
-0.000274344
0.000162364
-0.000193124
7.91147e-05
3.69523e-05
5.87921e-05
4.17342e-06
-4.50671e-05
0.000840598
-4.62591e-05
-1.76983e-05
-0.00022782
-0.00137938
0.00114038
0.00108072
-0.000673233
0.000677437
0.000294458
1.851e-05
-8.78968e-05
0.000163985
-0.000167237
0.000218931
-1.48975e-05
1.93342e-05
3.53217e-05
9.59674e-05
-0.00012542
9.53268e-05
6.96373e-05
-9.06805e-05
-0.000121624
0.000756944
0.000555946
-0.000509429
-2.17865e-05
0.000236491
-0.000174745
-0.000338906
-0.000130002
0.000214571
-0.000247032
0.000649411
-0.000317643
-0.000206606
0.000359336
-0.000391257
0.000238527
9.77067e-05
-4.53362e-05
0.000176286
-0.000106778
1.77787e-05