/*--------------------------------*- C++ -*----------------------------------*\
| =========                 |                                                 |
| \\      /  F ield         | OpenFOAM: The Open Source CFD Toolbox           |
|  \\    /   O peration     | Version:  v1912                                 |
|   \\  /    A nd           | Website:  www.openfoam.com                      |
|    \\/     M anipulation  |                                                 |
\*---------------------------------------------------------------------------*/
FoamFile
{
    version     2.0;
    format      ascii;
    class       volScalarField;
    location    "0.99";
    object      p;
}
// * * * * * * * * * * * * * * * * * * * * * * * * * * * * * * * * * * * * * //

dimensions      [0 2 -2 0 0 0 0];


internalField   nonuniform List<scalar> 
1466
(
89.4409
125.393
87.8012
92.8491
92.6187
105.822
88.3331
88.3059
116.847
107.116
84.4755
109.336
117.011
92.3296
105.385
83.561
89.2499
111.132
114.283
91.8282
93.7812
83.316
110.052
92.6113
117.007
126.585
82.7753
92.3694
91.4923
123.501
86.41
125.202
92.1905
92.4678
116.905
92.1301
92.475
90.4943
106.672
89.7062
88.1617
82.7532
84.4742
88.7566
91.2686
88.3546
86.4097
91.8279
107.707
92.1312
106.671
125.14
105.84
93.2386
92.284
115.272
88.5214
83.621
92.2266
106.743
126.859
88.0486
89.5451
125.769
98.3993
86.8694
112.837
91.9759
119.549
89.4236
126.987
111.078
92.9911
115.971
126.915
117.346
88.1261
90.0208
91.355
122.989
106.188
82.8899
88.2617
105.489
92.2843
89.6654
92.4317
121.445
105.507
106.091
126.539
82.6645
93.8327
90.6177
85.6302
89.7907
125.638
84.4559
118.125
92.5852
106.224
106.924
91.5911
109.796
85.2367
87.8098
106.318
92.5457
85.6554
88.8795
126.763
117.94
88.5336
83.5717
107.904
126.486
82.7171
109.626
88.255
89.4681
92.7022
88.3805
91.1482
89.3744
92.1755
90.834
120.862
110.658
91.9178
124.598
106.429
82.9872
110.257
92.6057
126.132
88.4278
89.7224
91.8268
88.2407
89.5592
92.6825
92.1055
92.5259
108.555
86.7222
94.2531
125.066
124.882
124.573
107.814
126.499
124.909
120.267
85.0751
124.609
82.5391
91.9533
92.7655
124.82
97.2275
124.895
122.201
84.5381
92.5852
124.403
85.9399
92.5326
109.635
91.4183
101.98
92.2622
124.551
91.8401
119.857
125.339
114.182
124.542
123.886
126.697
127.717
117.467
125.974
92.2407
91.9068
120.614
91.7628
92.3665
105.643
119.634
91.6547
91.8562
127.124
95.5499
101.06
96.2331
126.667
88.4564
118.198
126.152
95.1337
89.33
124.539
122.742
91.5021
126.807
126.121
99.0191
121.123
124.659
92.2035
111.593
92.7273
107.71
92.1767
95.0376
92.8541
92.5081
92.6901
112.531
92.5397
110.582
126.522
92.9564
126.718
91.8267
120.689
109.222
91.4238
126.628
126.107
127.419
119.573
105.657
97.2372
106.953
126.336
92.6155
108.994
124.609
91.7754
91.6749
122.676
123.05
103.001
124.561
122.007
125.501
115.539
123.467
122.996
92.4745
98.6109
120.517
91.6321
124.639
124.844
92.3829
105.48
92.9758
92.0037
106.485
110.898
92.64
126.17
96.172
91.8709
125.514
124.501
102.408
107.611
81.8188
92.6913
105.039
124.636
126.434
126.796
126.567
98.3561
91.7286
124.384
125.607
95.5328
96.0904
121.195
94.2059
91.1968
124.559
124.816
92.176
117.099
119.147
90.1985
117.525
91.9652
100.152
102.254
92.5592
91.8888
124.357
125.822
91.9707
105.58
127.168
116.68
92.3179
92.3698
91.6215
91.8941
115.781
91.6791
120.184
110.667
92.3889
126.023
125.79
125.237
94.1625
126.574
91.6446
105.3
104.478
92.3989
89.6109
125.833
92.6264
114.454
91.5642
131.449
125.434
126.109
111.454
115.798
87.1176
103.497
94.6313
96.387
92.7933
124.736
91.9514
89.5299
92.18
120.854
91.7758
140.793
101.396
127.014
120.745
130.538
119.09
94.0966
100.02
99.8127
95.3821
93.6243
93.7406
94.6567
91.6371
88.9425
108.449
123.442
93.1435
95.91
97.7689
91.5721
92.0836
114.111
120.077
119.462
93.4116
101.09
109.109
96.2895
143.267
105.989
87.1476
92.2276
109.752
133.229
89.8981
97.3429
91.7571
91.6196
91.6903
91.6755
91.6419
91.5877
90.8309
90.4872
91.5809
91.39
91.8791
92.2202
91.4556
92.0958
91.1134
90.8243
90.975
121.969
90.9071
91.0405
90.6763
91.0104
109.027
88.8712
106.606
82.9098
108.772
107.101
83.9179
82.5699
105.418
111.317
108.995
82.5852
107.973
90.3836
90.146
106.897
105.521
88.1094
82.1644
82.335
87.9772
108.649
88.1048
89.2319
82.3188
147.606
88.1901
89.3146
105.474
90.8143
92.9531
86.0025
125.329
90.9572
91.0996
91.0363
91.5528
105.64
90.688
91.5071
105.719
91.2806
125.582
88.1576
117.577
125.81
88.4871
106.686
126.027
89.2282
91.3043
117.45
91.9056
91.4467
85.6686
88.2926
91.3781
125.869
91.8592
91.5977
86.4194
90.8034
108.917
89.1476
91.5596
91.4044
91.3023
91.4924
91.3006
86.7753
108.766
90.8622
126.048
89.3997
92.0742
92.4911
96.1944
95.3656
101.487
90.1949
92.2214
95.299
95.8219
120.389
89.9967
92.2002
96.9204
98.1917
96.5666
92.4484
88.0569
91.6839
91.7672
92.1782
92.4574
91.6815
126.829
91.3661
91.8031
91.6983
88.0218
110.819
91.1695
91.6565
119.63
126.174
90.4129
92.2747
125.028
94.6766
91.428
94.9779
92.3156
91.5448
91.4571
117.713
118.704
86.8225
91.7191
91.3601
94.9745
125.866
93.4308
91.4038
91.3013
92.6675
91.5069
94.1953
91.0793
83.2289
95.1843
92.0561
92.0527
91.3425
103.508
128.934
91.6417
91.4333
120.495
110.217
91.8395
91.2748
91.663
107.307
91.8772
108.066
94.6265
126.287
88.2719
90.9774
92.3217
91.8621
90.8811
92.2462
92.1191
91.7556
92.9704
112.194
93.1782
94.9432
125.732
133.514
118.73
91.1393
91.8676
93.8142
137.627
92.1932
92.1307
92.8549
124.621
125.185
91.8058
91.1755
101.95
92.094
92.1847
87.8719
93.9331
92.2804
92.2037
91.7639
91.7603
92.5837
91.6354
113.944
92.2361
91.384
91.6937
112.392
91.7335
92.0525
93.0734
92.1134
110.911
95.6007
93.1245
95.9015
133.613
109.169
102.124
109.947
109.538
92.7894
125.408
90.7467
107.363
91.7368
91.1433
90.3971
117.201
100.354
91.7199
124.647
124.763
125.699
120.21
90.0538
115.914
91.5654
125.024
104.671
118.627
91.8956
91.1486
92.9731
94.3522
92.236
96.2338
118.537
120.308
102.253
92.0673
111.899
91.9685
93.3465
125.184
92.5747
93.1
116.101
94.6612
126.626
91.8614
107.711
93.305
91.9422
92.9969
122.073
92.2041
118.087
127.093
92.0209
96.8008
91.7995
91.4659
92.6094
125.181
111.817
95.9838
119.26
90.9005
111.433
96.918
124.475
89.8486
125.048
112.07
90.9951
92.3612
124.645
93.428
92.2119
108.91
91.8468
105.36
126.879
88.1908
116.85
93.9929
91.0084
126.444
112.483
123.926
93.2392
123.269
124.452
94.8678
124.294
95.8584
117.08
113.969
107.64
123.768
124.507
105.055
90.1132
122.93
91.9859
92.0466
123.558
124.382
125.654
91.7214
91.7725
124.812
90.8086
124.553
91.7759
91.1055
112.305
90.9154
96.7255
92.5479
92.1628
93.6447
92.1097
95.0753
124.264
117.231
83.4174
111.89
91.9987
92.1779
92.1512
93.0949
91.3881
92.002
126.841
92.5668
92.0914
89.3797
91.6077
113.507
125.277
92.9051
92.7388
88.9774
96.2441
92.518
105.328
91.9021
90.6766
89.4196
88.2778
121.734
127.085
91.1274
121.574
93.5088
88.4721
126.529
91.0549
89.0533
113.933
88.807
92.4108
118.208
106.248
92.5648
90.8505
126.671
126.156
97.046
123.179
91.5904
114.517
111.638
92.0616
125.207
90.7979
90.4535
88.1824
82.1347
91.3489
128.768
124.062
91.5173
109.336
92.1646
90.8955
92.0815
91.3063
95.87
91.7051
105.335
92.5392
91.8016
101.41
91.7149
97.0084
91.9866
90.7599
125.012
117.471
92.2223
84.2157
85.4938
92.3144
91.1784
92.5181
92.4469
89.08
95.7835
91.5269
127.067
118.047
82.1776
93.3164
91.9752
98.8603
111.799
92.0995
126.701
89.3292
92.3823
91.7895
126.189
93.5545
109.764
91.8855
91.1432
124.251
89.338
88.0297
91.4778
116.151
118.175
112.109
123.344
93.1661
90.8171
83.1219
88.3043
106.65
106.226
124.184
90.7656
90.7788
90.9416
91.5177
92.4672
88.3844
87.6049
107.427
121.297
92.4926
125.704
92.7221
87.0611
120.27
91.0837
92.2791
91.6721
124.729
122.835
125.354
105.914
92.8498
97.1865
92.3507
117.696
91.8078
126.755
90.5008
89.1682
91.0985
125.292
92.2472
91.5437
126.569
92.5444
124.737
96.7824
91.4652
92.1004
92.2816
91.4539
93.0861
92.2106
91.2019
93.0858
91.4375
95.6979
111.541
112.802
97.2077
94.7328
93.7987
99.265
111.24
115.555
104.755
102.051
119.52
123.549
127.564
126.365
92.8826
92.1939
91.9713
93.3259
118.457
117.345
126.713
91.6328
91.25
107.082
91.58
92.5308
105.636
91.8681
109.849
92.0467
105.31
122.153
114.741
107.22
91.6222
92.5621
125.269
90.1703
125.698
106.554
92.3796
84.6191
92.3178
88.5395
91.3663
104.58
124.648
116.515
91.3276
105.78
90.8036
92.6846
90.4438
89.2545
88.1413
91.2282
124.569
123.751
92.1247
88.0191
89.3126
125.145
111.829
119.113
116.551
126.545
106.3
123.892
82.6376
91.4876
95.4
126.811
105.645
83.3045
134.421
92.1748
110.932
92.2183
120.811
92.3482
109.585
91.3589
106.04
91.6146
88.9575
90.2499
92.5008
83.7579
92.2577
125.888
125.811
126.551
93.9909
86.0951
125.849
89.5373
92.895
109.372
92.0598
118
92.5837
92.1359
126.35
110.41
92.163
126.209
90.9137
106.366
111.574
112.928
112.819
123.978
92.439
91.5122
106.557
91.8189
95.6594
95.9487
118.044
128.016
88.0857
89.256
91.1498
107.78
116.471
92.5578
109.344
91.9614
126.664
90.1189
91.7498
85.132
125.066
125.036
91.3344
109.534
94.0033
82.76
110.115
91.681
111.344
92.5528
110.434
92.5632
89.7954
88.088
97.1184
126.344
124.52
92.3975
88.4928
125.401
126.834
96.4471
116.878
126.331
119.635
89.3689
92.1453
120.323
85.5021
127.174
126.343
87.8252
92.063
88.9071
91.8478
125.734
91.8459
119.517
91.2266
124.813
124.316
124.955
125.466
91.1073
105.248
122.555
119.903
126.77
92.7067
128.169
88.5012
91.4276
127.192
96.2479
91.8576
126.274
90.8857
125.45
88.3457
109.11
125.575
125.314
89.7808
92.198
118.404
91.6288
125.934
125.684
126.051
125.813
119.243
118.923
124.842
124.918
125.027
125.166
116.814
96.6573
92.7579
124.939
125.314
93.0308
91.831
126.072
110.404
91.8432
91.8573
87.9879
89.2196
85.866
92.1057
122.738
92.3348
91.699
124.594
110.011
125.522
124.34
127.525
117.156
118.055
92.961
90.8193
116.328
126.987
115.252
92.3522
110.694
116.08
85.4742
125.455
123.532
105.519
119.691
121.923
105.96
88.8838
92.2632
91.7427
124.421
86.9702
92.8535
82.7638
91.9978
84.9553
91.3949
106.825
121.07
101.315
106.004
92.1737
90.8689
106.107
91.8603
118.508
118.138
92.4702
124.588
87.6207
125.25
106.945
129.11
92.0504
117.175
102.197
110.292
91.8662
91.7791
97.0281
121.501
86.3998
98.3622
89.4453
88.0364
91.3862
92.266
90.0664
92.3098
87.1801
121.68
96.3499
84.9977
84.4736
97.0096
116.821
125.913
92.5328
83.3891
92.0305
91.8878
90.9317
92.2565
94.563
91.408
90.8441
85.9747
126.583
87.994
106.374
106.586
118.595
124.414
126.675
123.519
124.699
105.644
121.446
121.838
125.171
108.784
115.944
91.0734
124.529
91.3514
126.672
126.612
88.7555
91.6513
113.445
107.182
117.336
94.1566
92.3432
91.7149
86.1523
112.77
114.952
96.5307
91.8815
90.693
106.202
105.931
85.5078
96.7967
124.169
108.101
93.2341
90.8444
92.3065
84.4529
107.236
91.5212
106.066
90.8009
84.9965
90.9307
96.6337
124.765
124.936
108.951
91.7419
92.2696
91.5591
116.476
92.1052
93.2783
123.169
92.4951
118.813
84.4698
106.657
92.9762
90.8078
94.1252
125.891
91.6473
126.52
83.5287
96.6597
91.714
93.6642
95.5288
93.9232
117.049
125.334
106.978
124.737
92.0172
91.4326
122.196
91.6118
88.1753
111.784
91.6812
109.854
91.385
125.155
126.967
118.198
85.8534
92.2623
91.068
113.547
92.1431
90.3359
110.471
92.0614
90.9115
107.404
92.5027
108.737
117.816
108.767
92.2306
93.4178
105.5
92.3243
82.702
113.943
91.9127
111.403
92.2731
86.0947
90.6299
92.2738
88.2941
90.7515
88.0784
125.462
91.7975
113.319
126.537
93.0269
88.139
120.971
92.0734
82.8235
127.146
119.646
127.282
114.211
91.486
85.0482
126.873
112.892
126.482
92.0119
92.2948
91.3647
85.6847
89.362
98.0034
91.4542
125.656
92.0196
125.371
86.8344
85.6456
113.556
123.903
124.151
91.8454
124.326
108.372
125.186
124.246
93.3856
90.3753
123.478
107.985
124.51
123.192
124.028
92.6602
125.621
103.422
126.889
122.71
97.3599
93.1675
126.998
127.136
126.157
124.477
91.8599
120.255
125.937
100.579
128.208
125.857
85.7352
125.908
83.7115
84.1909
88.3665
83.0101
83.6403
84.9112
91.1034
92.4456
105.772
122.371
127.521
92.5902
118.47
92.2108
93.3272
93.0287
118.907
104.631
92.2633
90.3589
125.871
92.0405
106.121
124.875
89.7725
125.36
110.764
92.3431
121.425
92.7778
92.9495
126.127
92.3765
84.3923
87.9753
87.3204
107.363
92.2526
88.3143
88.6402
122.394
125.318
124.563
124.989
125.553
125.98
117.675
123.357
107.861
90.4059
125.945
113.877
87.7382
125.652
88.0206
108.308
91.0638
88.6413
89.7314
92.5235
91.1415
90.3181
92.3685
94.6126
102.552
88.1124
91.8039
108.769
138.161
103.582
109.437
121.054
127.229
117.812
115.737
114.409
88.285
88.3254
90.3063
88.3445
91.45
91.1851
109.207
88.0067
124.835
125.146
125.73
)
;

boundaryField
{
    frontAndBack
    {
        type            empty;
    }
    wallOuter
    {
        type            zeroGradient;
    }
    inlet
    {
        type            zeroGradient;
    }
    outlet
    {
        type            fixedValue;
        value           nonuniform 0();
    }
    wallInner
    {
        type            zeroGradient;
    }
    procBoundary1to0
    {
        type            processor;
        value           nonuniform List<scalar> 
29
(
89.5266
89.5266
88.628
88.4082
82.9967
83.5475
116.065
88.271
88.4736
88.5315
88.8664
83.5475
88.628
89.932
116.769
117.194
82.9967
83.2519
88.4082
89.6212
117.41
117.463
83.9711
116.161
116.161
83.9711
118.141
116.177
118.141
)
;
    }
    procBoundary1to2
    {
        type            processor;
        value           uniform 89.5775;
    }
    procBoundary1to3
    {
        type            processor;
        value           nonuniform List<scalar> 
48
(
92.0797
92.198
92.2006
92.2006
92.5245
91.2119
91.2119
92.2755
92.1038
89.0487
88.2986
89.0487
91.1948
89.3553
89.1643
91.1948
91.792
91.792
91.1133
91.1133
90.584
91.3428
90.5943
89.4731
89.4731
90.614
91.9331
91.9331
92.3327
91.6006
91.0408
92.3327
92.2755
92.2994
90.4982
91.6006
92.2995
88.2986
92.6333
92.497
89.6056
92.3016
92.2994
90.4982
89.2974
93.1725
92.4318
89.6056
)
;
    }
}


// ************************************************************************* //
