/*--------------------------------*- C++ -*----------------------------------*\
| =========                 |                                                 |
| \\      /  F ield         | OpenFOAM: The Open Source CFD Toolbox           |
|  \\    /   O peration     | Version:  v1912                                 |
|   \\  /    A nd           | Website:  www.openfoam.com                      |
|    \\/     M anipulation  |                                                 |
\*---------------------------------------------------------------------------*/
FoamFile
{
    version     2.0;
    format      ascii;
    class       volScalarField;
    location    "0.06";
    object      nut;
}
// * * * * * * * * * * * * * * * * * * * * * * * * * * * * * * * * * * * * * //

dimensions      [0 2 -1 0 0 0 0];


internalField   nonuniform List<scalar> 
5794
(
0.00117354
0.000615387
0.00151201
0.00129353
0.00111613
0.000686174
0.0007153
0.000703138
0.00134089
0.000755669
0.000695581
0.000979487
0.000796981
0.000985314
0.000744035
0.00087006
0.00293606
0.000881155
0.000599999
0.000651038
0.00251996
0.000828674
0.000942275
0.000867494
0.000737275
0.00205556
0.00203166
0.00103029
0.000890172
0.00106845
0.000825016
0.00128945
0.000788217
0.000991746
0.000995473
0.00103753
0.000875918
0.000806925
0.000798159
0.00099936
0.000908831
0.000919532
0.000785504
0.00137421
0.000736977
0.000740018
0.000767892
0.000764566
0.000753844
0.000486961
0.000434186
0.000761813
0.00139124
0.00107265
0.000229537
0.000806479
0.00075488
0.000840475
0.000875748
0.00249112
0.00154343
0.000749129
0.000871265
0.00124285
0.000860174
0.000854887
0.00139842
0.000840313
0.0009801
0.000611369
0.000911554
0.00140972
0.00144823
0.000955475
0.000878852
0.00116992
0.000249604
0.00186504
0.0014905
0.000228874
0.001038
0.00073787
0.000891868
0.000846454
0.000844461
0.000347489
0.000506923
0.000292458
0.00128421
0.00139632
0.00078882
0.000871176
0.000829302
0.000823418
0.000816788
0.000972235
0.000673123
0.000791304
0.000910173
0.00169163
0.00159421
0.000918927
0.000751585
0.000928397
0.000834319
0.000882442
0.000641045
0.000637053
0.00132609
0.00162822
0.000744204
0.000597068
0.00215033
0.000857812
0.000798238
0.000632111
0.00092313
0.000826972
0.00140631
0.000997887
0.000860173
0.000382836
0.000664663
0.00114877
0.000851963
0.000963513
0.000738923
0.000751898
0.00075109
0.000688179
0.000775215
0.00075222
0.000846106
0.00172615
0.000884995
0.000853606
0.000852434
0.0008208
0.000907838
0.000871238
0.00113105
0.0012577
0.000816164
0.00121475
0.00104189
0.00274926
0.000767962
0.00123393
0.00096305
0.000980329
0.00133263
0.000932444
0.000884048
0.000628578
0.00245287
0.000892491
0.00064937
0.000538914
0.000563652
0.000710971
0.000702168
0.000640778
0.000584821
0.000636324
0.000644281
0.000546032
0.000533655
0.000539014
0.000640244
0.000464087
0.000514656
0.0010298
0.000581125
0.000545977
0.000547519
0.000628961
0.000479371
0.000583987
0.000614222
0.000907922
0.000543489
0.000550625
0.000481817
0.000489043
0.000508731
0.0019101
0.000837051
0.000516966
0.000619827
0.000721262
0.000540151
0.000794495
0.000658172
0.000635974
0.000464736
0.000489625
0.000516525
0.000569471
0.000692354
0.000873605
0.000517054
0.000689018
0.000578847
0.000542407
0.000761855
0.000605267
0.000529882
0.000858488
0.00119725
0.00135834
0.00188134
0.00101535
0.000883363
0.000873899
0.000974058
0.00100465
0.00101058
0.000880055
0.000847562
0.000933581
0.000991466
0.00105625
0.000859458
0.00090924
0.00199856
0.000985496
0.000927902
0.000834303
0.000562284
0.000937223
0.000939248
0.000923556
0.000913939
0.00127199
0.00121083
0.00135647
0.00139517
0.000783937
0.000687847
0.00123441
0.0010667
0.000836592
0.00148024
0.00076471
0.000911659
0.000810726
0.000822254
0.000885809
0.000294845
0.000350569
0.000404235
0.000871217
0.00278478
0.000767721
0.00116952
0.00146049
0.000784018
0.000963308
0.000786951
0.000845132
0.000784663
0.000868005
0.000862377
0.000800396
0.000481986
0.000619304
0.0013258
0.00072306
0.000804636
0.000807889
0.000886269
0.00078816
0.00122247
0.000830931
0.00087605
0.000751733
0.00107452
0.000899401
0.000930863
0.000857796
0.000649392
0.000687852
0.000827171
0.000897745
0.00088717
0.000867084
0.00111988
0.000849585
0.000789216
0.000877858
0.000980282
0.000913059
0.000875744
0.00097512
0.000963216
0.00151739
0.000719892
0.00080186
0.000827228
0.000859795
0.000541256
0.00112899
0.000760505
0.00132211
0.00129765
0.00063101
0.000929655
0.000971412
0.000729985
0.000939113
0.000702163
0.000853946
0.00136198
0.000858723
0.000788316
0.000942974
0.00072632
0.000946296
0.0012475
0.0011242
0.00104994
0.00105184
0.000845392
0.00102333
0.000885831
0.000917113
0.000974505
0.000696142
0.0006351
0.000666888
0.000679758
0.00076828
0.000553359
0.000618063
0.000919503
0.000693823
0.000602159
0.000514028
0.000560235
0.000491189
0.000555941
0.000508968
0.00134958
0.000585671
0.000561815
0.000464533
0.000461379
0.000517088
0.000605107
0.000757419
0.000618482
0.00129407
0.00052842
0.00060837
0.000511265
0.0012985
0.000584077
0.000557698
0.000609035
0.000607792
0.000848535
0.00107628
0.000723032
0.000863535
0.000855716
0.000707822
0.000539824
0.000493025
0.000569191
0.000476053
0.000918889
0.000654975
0.000825392
0.000875951
0.000852855
0.00102214
0.000663116
0.000641734
0.000853734
0.000776504
0.00100263
0.000908819
0.000758208
0.000996276
0.00096192
0.000983997
0.000878445
0.00088348
0.000880293
0.000547973
0.000549946
0.000754037
0.000626078
0.000852907
0.000594918
0.000543129
0.000562397
0.00173952
0.000969155
0.000894811
0.000846977
0.000768663
0.00144038
0.000507599
0.00060295
0.000792592
0.00132156
0.000773973
0.00072619
0.00068313
0.000759761
0.0010348
0.000849869
0.000693481
0.000493447
0.000700378
0.00043853
0.00121838
0.000818459
0.000617022
0.000890611
0.000719597
0.000790874
0.000941206
0.00061969
0.000594319
0.000582429
0.000857018
0.000725597
0.000899663
0.00130293
0.000808169
0.00130683
0.00251312
0.000744676
0.000789881
0.000576261
0.000565612
0.00090129
0.000873515
0.000868006
0.000810951
0.000610278
0.000634673
0.000866069
0.000696392
0.000845031
0.000869386
0.00181568
0.00131909
0.000640474
0.000678572
0.00347466
0.000835129
0.00095254
0.000700776
0.000806721
0.000858884
0.00101453
0.000993317
0.000785975
0.000710863
0.00111993
0.000878598
0.00184635
0.000701134
0.00122406
0.00135359
0.000860632
0.00176628
0.000258305
0.0013344
0.000829945
0.000852618
0.000927986
0.000815456
0.00173664
0.000922186
0.00107143
0.000696379
0.00116026
0.000792971
0.000609255
0.000713835
0.000781003
0.000831043
0.0010483
0.000761957
0.00137911
0.000905506
0.000707297
0.000983878
0.000821576
0.000938792
0.0012947
0.000847365
0.000925973
0.000893322
0.000786061
0.000794447
0.00129568
0.00164085
0.000749166
0.000964823
0.00110915
0.000704177
0.000751522
0.00111005
0.000915447
0.000855943
0.00104528
0.000927175
0.000952897
0.000770851
0.000861973
0.000800761
0.000689649
0.000777189
0.000935143
0.00138328
0.000840559
0.000864137
0.00125392
0.000857255
0.000772885
0.000835055
0.00135353
0.000881493
0.00063847
0.000778919
0.00154995
0.000398366
0.0012186
0.000881483
0.000798346
0.000912441
0.000803005
0.0013546
0.000717214
0.000895164
0.000845173
0.0034569
0.000654496
0.000917621
0.000972392
0.000880279
0.000872185
0.00121501
0.00078481
0.000809103
0.000914589
0.000794793
0.000492129
0.00146833
0.000787238
0.000730604
0.00150693
0.000759944
0.000610663
0.00142025
0.00184249
0.000662218
0.000814167
0.000964545
0.000934319
0.000936135
0.000893739
0.00135306
0.000628502
0.000855891
0.00199968
0.00115674
0.000441909
0.000534166
0.000756937
0.00107349
0.00135089
0.00088139
0.000857255
0.000779187
0.000897791
0.00107841
0.000954351
0.00117469
0.000777618
0.00185738
0.000856468
0.000902058
0.00118075
0.000769369
0.000857122
0.000797852
0.000888182
0.000850671
0.00109021
0.000901723
0.000753383
0.000832774
0.000809058
0.000990253
0.000816328
0.00213986
0.00101522
0.000809341
0.000827953
0.000640933
0.00177924
0.000603212
0.00026589
0.00090608
0.00129423
0.00149516
0.000934553
0.00137513
0.000656333
0.000672632
0.000793945
0.000413074
0.000672449
0.00123268
0.00041612
0.00100497
0.000915265
0.00080712
0.000583355
0.000807544
0.000892228
0.00119751
0.000680932
0.000777708
0.00128702
0.000819776
0.000419765
0.000983235
0.00091647
0.000650161
0.001853
0.000812492
0.000611843
0.00102845
0.00102795
0.000812551
0.000860789
0.00113881
0.000925153
0.000864913
0.00115842
0.00103792
0.000884859
0.0007632
0.000562676
0.00137641
0.000883197
0.000697522
0.000654553
0.000619955
0.00139286
0.00126398
0.00114844
0.0008903
0.000924712
0.000532586
0.000793869
0.00118715
0.000682346
0.000907799
0.000829188
0.000914372
0.00116875
0.000685242
0.000767852
0.00183796
0.00126766
0.0008054
0.00091335
0.000994388
0.000851215
0.000873141
0.000966079
0.00113407
0.00104888
0.000793591
0.000989522
0.000861058
0.000953931
0.0010474
0.00132587
0.000883201
0.000934917
0.000834615
0.00096417
0.00100436
0.00186333
0.000879305
0.000929357
0.000806302
0.000833138
0.000480912
0.000642818
0.000776729
0.000609334
0.000411384
0.000386898
0.000927384
0.00124268
0.00107728
0.00109683
0.000687302
0.000893128
0.000776144
0.000849089
0.00102453
0.00103826
0.00110053
0.000834408
0.000778048
0.000749536
0.00149157
0.000927664
0.000934192
0.000903057
0.0017519
0.00121725
0.00089275
0.00137562
0.00186379
0.00101419
0.000822209
0.000839969
0.00100995
0.000779553
0.00159661
0.00089059
0.00103416
0.000944578
0.00177964
0.00196979
0.000792009
0.000893113
0.000839451
0.000765528
0.00042501
0.00062079
0.000800479
0.000694694
0.000929736
0.00121532
0.000745412
0.00136528
0.000807477
0.000659261
0.00133033
0.000979447
0.000731132
0.000962964
0.000768843
0.00086661
0.00088006
0.000818891
0.000873566
0.000956705
0.00161918
0.000994565
0.000979482
0.000862505
0.00106177
0.00133109
0.000772741
0.00157826
0.000848399
0.00116324
0.000736619
0.00101084
0.000883507
0.000865991
0.000825917
0.000880369
0.00129409
0.00107231
0.000867611
0.000853173
0.00142642
0.00118295
0.000770866
0.000702261
0.000982106
0.00125432
0.00086656
0.000904089
0.00111913
0.000903116
0.000944348
0.000857388
0.00091665
0.000935703
0.00136573
0.00070423
0.00420397
0.000873949
0.00175887
0.00106971
0.000770573
0.00113562
0.000995082
0.00071718
0.000962293
0.000851789
0.00070295
0.000613835
0.000997509
0.000888949
0.000975767
0.00160098
0.00153489
0.000913973
0.000865498
0.00112691
0.000898267
0.00092722
0.000652107
0.000762414
0.00146308
0.00147124
0.00154899
0.000780746
0.000775659
0.000959266
0.000851985
0.00087144
0.00115981
0.000941227
0.000795581
0.000779477
0.000880015
0.000880964
0.000852063
0.000897766
0.00159266
0.000753039
0.000501163
0.000514232
0.000771255
0.000873549
0.00110141
0.000857795
0.000806178
0.00127539
0.000772676
0.000841269
0.00162257
0.00103706
0.000838571
0.00108135
0.000801159
0.000713944
0.00100738
0.00139275
0.00132366
0.000863917
0.000777059
0.0009133
0.00111057
0.00185453
0.000771232
0.00100543
0.00110672
0.0020094
0.000774837
0.000944356
0.000887638
0.000955358
0.000776222
0.00080605
0.000862339
0.00220772
0.000951028
0.00089151
0.00169221
0.00113641
0.000882265
0.000454658
0.0011709
0.000687554
0.000773199
0.000858014
0.000883162
0.00181036
0.000761813
0.00176158
0.000803084
0.00102851
0.00113438
0.000983441
0.000859305
0.00135701
0.000915767
0.00101536
0.00103746
0.000788153
0.000909693
0.000867121
0.000932811
0.000846437
0.000911891
0.0010581
0.000648059
0.000802183
0.000868171
0.00127265
0.00107989
0.000966342
0.00105244
0.000634286
0.000844746
0.00173556
0.000754057
0.000678126
0.000804931
0.000869316
0.00170531
0.000945331
0.00188027
0.00119863
0.000419161
0.000516412
0.00061426
0.000525311
0.00054872
0.00036689
0.00100107
0.000909695
0.000910631
0.000498494
0.00035441
0.000682581
0.00096563
0.000887976
0.000588181
0.000895002
0.000678318
0.00114622
0.000974379
0.000707305
0.000771291
0.000883314
0.000864468
0.00142776
0.00085833
0.00222607
0.000800894
0.000867233
0.00306899
0.000693911
0.00083922
0.00154036
0.000963487
0.000835165
0.0013719
0.000865035
0.000975588
0.000908984
0.00125872
0.00087725
0.000386892
0.000425256
0.000887242
0.000877094
0.0010536
0.000918599
0.000857248
0.000773203
0.000847388
0.000798672
0.000883837
0.000811902
0.000934718
0.000867868
0.00194235
0.000832191
0.00063528
0.000564352
0.000759732
0.000874982
0.000346995
0.000857744
0.00131544
0.000569316
0.00158953
0.000889258
0.000831008
0.000834687
0.00112725
0.000954411
0.000831381
0.00309421
0.000781306
0.00147761
0.00137854
0.000867559
0.000826388
0.000857883
0.0010266
0.0013033
0.00148674
0.000689741
0.000797007
0.000792956
0.00153711
0.000868521
0.000931919
0.00100747
0.00103595
0.000844971
0.000487764
0.000600008
0.000364262
0.00131876
0.000448082
0.000562973
0.000369624
0.00110729
0.000628255
0.000804101
0.000698149
0.00161001
0.000756928
0.00119079
0.000915436
0.00100089
0.000860693
0.000825594
0.000751385
0.000487211
0.000783583
0.00144068
0.000959325
0.00121594
0.000793574
0.000716059
0.000829931
0.00164927
0.000863385
0.000852587
0.000912694
0.00176564
0.00076414
0.000868154
0.000884236
0.000823613
0.000848724
0.000821357
0.000717575
0.00136614
0.000929164
0.000774779
0.000906954
0.000960375
0.000871016
0.00136824
0.00135798
0.000789421
0.000853553
0.00133683
0.000898212
0.000854762
0.000831408
0.000874776
0.000906042
0.000917609
0.000898665
0.000905565
0.0010277
0.00136406
0.000841404
0.000836669
0.00109238
0.00091487
0.000866936
0.000982048
0.000912865
0.000902983
0.000868871
0.000923588
0.00135399
0.000422224
0.0012126
0.000937956
0.000833859
0.00094584
0.00129053
0.00153635
0.000367961
0.00108504
0.000414776
0.000484046
0.00174902
0.000527708
0.0011041
0.00108238
0.000378175
0.00108104
0.000368128
0.000368558
0.00126504
0.000740275
0.000754066
0.000964231
0.00089418
0.00085575
0.000577621
0.00073146
0.000930939
0.000894824
0.000938249
0.000842031
0.000885077
0.000939808
0.000904192
0.00100808
0.000889836
0.001092
0.00143402
0.000920357
0.000884699
0.000895532
0.000911421
0.00091605
0.000918868
0.00089419
0.00103732
0.00105591
0.000694324
0.00108153
0.00105696
0.000796853
0.000771225
0.000872805
0.000891594
0.000883951
0.000872414
0.00325053
0.00107894
0.000858787
0.00092805
0.000922418
0.000941
0.000899334
0.000795193
0.00113574
0.000675564
0.000893315
0.000751384
0.0013292
0.000861104
0.00091529
0.000928423
0.00102246
0.000947415
0.000891564
0.00165417
0.00130808
0.00111098
0.00100533
0.000687397
0.00204791
0.000813243
0.00137304
0.000648062
0.000610873
0.000817262
0.00121941
0.000836639
0.000778859
0.000954235
0.000773385
0.000980996
0.00119368
0.00110346
0.00090816
0.000891856
0.000818428
0.0011158
0.00105651
0.000925003
0.000836825
0.000553859
0.000560422
0.000982377
0.00173642
0.000837247
0.000820035
0.000468893
0.000348275
0.000847953
0.00129743
0.000875429
0.000885309
0.000851105
0.00248018
0.000845115
0.0008946
0.00157717
0.00113985
0.000977686
0.00106001
0.000839335
0.00104109
0.000612926
0.00114869
0.000428576
0.000509701
0.000666592
0.000940096
0.000880988
0.000853599
0.000819544
0.00089771
0.000853964
0.0016402
0.000830992
0.000368788
0.000873522
0.000876197
0.00111949
0.00086922
0.000289105
0.000768858
0.00108559
0.000859338
0.000373228
0.00117361
0.000823517
0.00108747
0.00117212
0.00115173
0.00087134
0.000675671
0.000933146
0.00157676
0.000934089
0.00068734
0.000875874
0.000869207
0.000970018
0.000839057
0.000493805
0.000849764
0.000785969
0.00203526
0.000917027
0.000489013
0.000919191
0.000723787
0.000553813
0.00106568
0.00158301
0.00114125
0.000870763
0.00093032
0.000917682
0.000877348
0.00129902
0.00109137
0.000885404
0.00087388
0.00087715
0.000929808
0.000919186
0.000771543
0.00146814
0.000858489
0.00100686
0.00109682
0.000977616
0.00164223
0.00175826
0.000915787
0.000930811
0.00119339
0.000905987
0.00101006
0.00106576
0.00104328
0.00171402
0.000918217
0.000894088
0.000968172
0.0011219
0.000956843
0.000550825
0.00081429
0.000958811
0.00085679
0.00105825
0.0018928
0.000832299
0.000987622
0.00101111
0.00102269
0.000599322
0.000908926
0.000950635
0.00103095
0.00174949
0.000874836
0.000872131
0.000803889
0.00131703
0.000918407
0.00129179
0.00105424
0.0011042
0.000917078
0.000873905
0.000743378
0.00149076
0.00152899
0.00100948
0.00140593
0.00109251
0.000792745
0.000248893
0.00089861
0.000895883
0.000982077
0.000849823
0.000952366
0.000817111
0.00120961
0.00087222
0.000385862
0.000483702
0.000521037
0.000449775
0.000613483
0.000918973
0.000909547
0.000978439
0.000849461
0.00105839
0.000859956
0.000928075
0.000892962
0.000960327
0.00110654
0.000854398
0.000846234
0.00134908
0.000864408
0.00084229
0.000879369
0.000964701
0.000715662
0.000826146
0.000948777
0.00103992
0.000826127
0.000869365
0.00122637
0.000867251
0.000860693
0.000932298
0.000887011
0.00121253
0.000936951
0.000345976
0.000439771
0.000794726
0.00203084
0.000826674
0.000650899
0.00122037
0.000703996
0.00183675
0.00108665
0.000445378
0.000392884
0.000391464
0.000422827
0.000393603
0.000539227
0.000302595
0.000430151
0.000385078
0.00043823
0.000470184
0.000424503
0.000378697
0.000338613
0.000336945
0.000420193
0.000552207
0.000345262
0.00047076
0.000705359
0.000533088
0.000379167
0.000330523
0.00029849
0.000553389
0.000423353
0.000431777
0.000291498
0.00044462
0.000450386
0.000481152
0.000414528
0.000455141
0.00041307
0.000384504
0.000493857
0.000375686
0.000429087
0.000493146
0.000470802
0.00039689
0.000403973
0.000409166
0.000456575
0.00101258
0.000871765
0.00140779
0.00078764
0.000911458
0.00100597
0.000980577
0.00113641
0.000929965
0.000877114
0.000571515
0.000932711
0.00222272
0.000914601
0.00207604
0.00122749
0.000787068
0.00141264
0.000907621
0.000910275
0.00092177
0.00109076
0.000609796
0.000891007
0.000886036
0.00149526
0.00162564
0.000951314
0.000876175
0.000564025
0.000987832
0.0011812
0.00112663
0.00225859
0.000901214
0.000877185
0.000860729
0.0010177
0.000913103
0.00125874
0.00224961
0.000948546
0.00100677
0.00091565
0.00174995
0.000846221
0.000825194
0.000843054
0.000848851
0.00279615
0.000880712
0.000691681
0.000498443
0.000937814
0.00103825
0.000435603
0.00103283
0.000988079
0.000521822
0.000378012
0.000317225
0.000444586
0.000519345
0.000367531
0.000435261
0.000494587
0.000491435
0.00045223
0.000517423
0.000410161
0.000401461
0.000539869
0.00039322
0.000498674
0.000456112
0.000323656
0.000340686
0.000340375
0.000390376
0.000491261
0.000377754
0.000908088
0.00133985
0.000254446
0.00124487
0.00094123
0.000848693
0.000940037
0.000852044
0.000688234
0.00107258
0.000875052
0.00101867
0.000946562
0.000984378
0.000352619
0.000941077
0.000752042
0.00085281
0.00168108
0.000851887
0.00124516
0.000840378
0.000900284
0.00100238
0.000996802
0.000894185
0.000713365
0.000874706
0.000932573
0.000840049
0.000796326
0.000856117
0.000923673
0.000947887
0.00108644
0.000906769
0.000875933
0.000581854
0.00087795
0.000925294
0.000884344
0.000903825
0.000939461
0.000684539
0.000866922
0.000894903
0.000902231
0.000995976
0.000834886
0.000776595
0.000389826
0.000897685
0.000909538
0.00153519
0.000248301
0.00078058
0.000925727
0.00089437
0.000995515
0.000698997
0.000881363
0.00089539
0.00188951
0.00091612
0.000833201
0.000885454
0.000837789
0.000813621
0.00195592
0.00085151
0.000989273
0.000466439
0.000349957
0.000364283
0.00082073
0.001032
0.000907296
0.000853656
0.000993576
0.000815767
0.000924993
0.00116708
0.000916162
0.000934237
0.000989655
0.000899742
0.000922392
0.000883005
0.000965419
0.00095848
0.000997778
0.00104228
0.000840311
0.000848181
0.00104042
0.000424453
0.00087237
0.000867993
0.000894563
0.00145498
0.000961057
0.000942262
0.000903395
0.000925571
0.00083349
0.000966877
0.000946456
0.000980668
0.000942396
0.00045458
0.00113958
0.00105161
0.000982206
0.000946504
0.00094873
0.000998841
0.000496626
0.000773609
0.00148476
0.000960421
0.000887857
0.00087599
0.000948016
0.000889188
0.000954727
0.000958054
0.000901136
0.000942738
0.000477624
0.000980612
0.000975718
0.00136501
0.00181048
0.000918688
0.000927327
0.00086663
0.000869433
0.000892794
0.00107258
0.0008889
0.00087289
0.00136411
0.000921764
0.000909416
0.000924885
0.000944713
0.000899696
0.000910645
0.000902962
0.000917999
0.00089783
0.000907039
0.000902425
0.00093206
0.000914508
0.000933878
0.000906549
0.000917531
0.000909334
0.000871017
0.000872402
0.00088699
0.00152499
0.000872009
0.000878746
0.000877426
0.000875747
0.000338579
0.000436101
0.00106421
0.000976905
0.000890747
0.000914871
0.000900231
0.000956024
0.000981074
0.000936307
0.00115899
0.00087276
0.000887729
0.000882646
0.00119854
0.000905493
0.00195584
0.000480292
0.00124861
0.00166346
0.000888948
0.00179076
0.000936948
0.000914896
0.000930685
0.000424367
0.000892457
0.000486683
0.00125457
0.000933469
0.000947572
0.000917322
0.000927278
0.00109075
0.000922693
0.000963944
0.00113981
0.000984282
0.000983759
0.000936099
0.000962948
0.00110185
0.000845796
0.000894637
0.000930679
0.000913822
0.000900646
0.000946729
0.0010447
0.000882667
0.000943873
0.00105541
0.000947974
0.000826969
0.00101516
0.00100475
0.000964675
0.000986428
0.000895473
0.00112693
0.000904544
0.00175161
0.00102919
0.000991389
0.000879115
0.000825172
0.00107354
0.000882788
0.000934935
0.000965233
0.00087554
0.000890795
0.00174019
0.00118943
0.000921726
0.00110056
0.00067568
0.00090633
0.000919169
0.000911968
0.000703362
0.000881365
0.00174777
0.00093042
0.000912588
0.000924798
0.00130745
0.00176831
0.00087308
0.000538512
0.00125833
0.00145308
0.000980007
0.000949637
0.000865051
0.000872776
0.000873199
0.00108184
0.00124982
0.00147522
0.00149652
0.00231428
0.00102607
0.000861381
0.000571439
0.00109653
0.00094194
0.000876477
0.000554636
0.000894077
0.0013686
0.000878067
0.000860959
0.000382328
0.00143641
0.00103266
0.000889235
0.00125427
0.00090449
0.0010962
0.000675452
0.00191483
0.000897719
0.000974478
0.00090296
0.000936956
0.00101627
0.000976686
0.000850976
0.000573896
0.00118308
0.00126107
0.00105163
0.000949108
0.00104309
0.000548231
0.000512864
0.000932941
0.000785241
0.000875027
0.00105519
0.000874101
0.00114624
0.000936199
0.000950453
0.000932977
0.000862334
0.000955185
0.00239281
0.000901928
0.00090144
0.000895356
0.000625709
0.0011212
0.000910803
0.00151016
0.000894935
0.000907186
0.000893282
0.000719702
0.00106147
0.000928599
0.000434087
0.000896888
0.000909021
0.000929365
0.000896149
0.000897718
0.000952781
0.00090398
0.000439725
0.00114431
0.000896707
0.000907256
0.000907692
0.000902696
0.000912086
0.000936605
0.000955197
0.000861826
0.000895146
0.000943773
0.000419375
0.000925764
0.000905362
0.000971096
0.000872943
0.00109049
0.000878683
0.000357285
0.00100712
0.000875181
0.000874996
0.000852956
0.000863743
0.00103721
0.000940695
0.000895254
0.000865949
0.00141402
0.000882747
0.000879501
0.000747576
0.000395136
0.000993693
0.000956804
0.00103251
0.000385481
0.000882987
0.000353849
0.00156712
0.00080957
0.00107261
0.00112574
0.00104246
0.000860504
0.000929774
0.000872691
0.000870392
0.000867668
0.000893048
0.000889226
0.0010123
0.000925408
0.000894622
0.000872296
0.000869238
0.000878673
0.000923292
0.000884376
0.0008697
0.00130414
0.000920546
0.000917842
0.000495093
0.00160463
0.000856755
0.000932321
0.000939404
0.000961822
0.000399863
0.000855215
0.0008694
0.000884415
0.00103856
0.000875797
0.00102284
0.000868082
0.000872536
0.000868788
0.000945142
0.000402078
0.000457791
0.000868378
0.00131347
0.000872465
0.00159566
0.00154089
0.000908765
0.000984123
0.000859311
0.000876215
0.000912859
0.000819653
0.000892827
0.000849654
0.000930597
0.000957985
0.000944927
0.000874891
0.000965232
0.000900207
0.000964668
0.000969883
0.00092823
0.000927581
0.000450194
0.000926516
0.000946373
0.000997769
0.000797964
0.000965835
0.000998994
0.000831675
0.000824873
0.000778326
0.000992653
0.00104989
0.000980706
0.00089753
0.000880408
0.000871091
0.000980692
0.000896461
0.00095449
0.000866581
0.00138578
0.00139349
0.00133672
0.000946455
0.000946438
0.000515789
0.00100983
0.000870605
0.00155165
0.000884895
0.000962188
0.000906178
0.000931945
0.000895415
0.000887449
0.000539663
0.00100263
0.000682199
0.000954441
0.000950146
0.000906549
0.000815367
0.000917082
0.000910126
0.000960651
0.000954284
0.000851148
0.000914083
0.0010002
0.000712675
0.000879386
0.000390678
0.000409292
0.000472994
0.00111902
0.000934248
0.000885762
0.00087015
0.000796026
0.000790499
0.000885901
0.000458037
0.000886386
0.000895399
0.00106973
0.000905989
0.0014696
0.00101848
0.00102849
0.000455643
0.000870829
0.00160133
0.000877275
0.000900515
0.00095151
0.000964087
0.000960202
0.000798448
0.00139443
0.000900714
0.000623673
0.000783697
0.000886799
0.000872958
0.000406895
0.000837271
0.000902896
0.000889992
0.000934375
0.00089744
0.000992733
0.000933153
0.00154768
0.00080825
0.000783167
0.00096915
0.00129289
0.000896195
0.00093482
0.00113728
0.000917991
0.00101425
0.000882324
0.000779504
0.00108014
0.000918526
0.00089822
0.000887077
0.000946941
0.00117566
0.00135124
0.00149076
0.00152224
0.00175109
0.00092439
0.000946576
0.00089712
0.000873958
0.000896964
0.000896949
0.000903001
0.00104708
0.000900196
0.00097104
0.000904449
0.000892216
0.00090535
0.000862956
0.000949622
0.000568506
0.000658502
0.000531456
0.000527305
0.00204613
0.000895171
0.000900763
0.00205059
0.000795324
0.000708553
0.000934601
0.000856248
0.00094737
0.00104688
0.000870303
0.00137308
0.00107692
0.00111147
0.00110304
0.000947362
0.00091685
0.000927398
0.000445281
0.000869848
0.00155031
0.00205801
0.000924615
0.00150065
0.000867961
0.000857146
0.000872567
0.000876985
0.00103227
0.000896886
0.000881298
0.000641502
0.000906079
0.00089872
0.00143805
0.000930598
0.000489025
0.0011471
0.000838121
0.000924295
0.000895875
0.000919315
0.000997342
0.00102141
0.00184451
0.000979059
0.000953567
0.00136881
0.000859996
0.000928457
0.00109372
0.000700689
0.00183374
0.000934905
0.00165878
0.00083475
0.000913821
0.000957219
0.000901024
0.00106869
0.00077055
0.00139526
0.000923621
0.000863534
0.000890587
0.00150271
0.000949291
0.000943924
0.000917941
0.000900399
0.00057973
0.00121361
0.00133454
0.00155644
0.000891216
0.00105058
0.00139594
0.000868676
0.00103753
0.00185772
0.00081116
0.000366566
0.000384069
0.000901957
0.000888323
0.000895359
0.00136784
0.0010935
0.00113701
0.000832211
0.000706172
0.0010083
0.000862037
0.000917421
0.000907286
0.000926046
0.00104612
0.000912972
0.000874701
0.00125905
0.000627317
0.00105607
0.00170122
0.000809333
0.000890023
0.000788379
0.000534459
0.000999215
0.000916933
0.00089917
0.00106574
0.000705383
0.00105613
0.00101914
0.000937867
0.000976473
0.000934214
0.000893422
0.0010244
0.00108767
0.000440561
0.000964501
0.00130219
0.000937685
0.000953951
0.000936211
0.00176741
0.000852151
0.00141413
0.000756047
0.00164423
0.00107757
0.00103937
0.000791299
0.000865928
0.000881872
0.000897159
0.000961614
0.00101951
0.000881019
0.00103646
0.000993892
0.0010191
0.000845935
0.00110647
0.000886885
0.000913404
0.000983783
0.00178723
0.000894346
0.000876884
0.000866812
0.000630493
0.00138355
0.00102319
0.00138683
0.00266635
0.000904123
0.00113735
0.00116748
0.000936071
0.000925242
0.000511827
0.00111882
0.000811079
0.000762736
0.000950023
0.000888891
0.000884183
0.000907107
0.000898876
0.000920747
0.00094943
0.00162046
0.000683969
0.000887807
0.00111342
0.000894049
0.00137868
0.000976419
0.00321428
0.000755269
0.000956403
0.000730205
0.000944298
0.000880027
0.00086432
0.0012326
0.00159031
0.000906324
0.0010348
0.000699722
0.000546231
0.00101736
0.000868991
0.000901843
0.000849309
0.000909672
0.000905474
0.00123783
0.000890906
0.000898179
0.00078838
0.00094788
0.000984805
0.00132999
0.000605849
0.000895899
0.00100573
0.000895592
0.000992128
0.00069472
0.00102386
0.000999391
0.000976818
0.000889522
0.00102104
0.000861504
0.000897931
0.00127325
0.000868071
0.000884128
0.00167393
0.000672333
0.000872347
0.00150455
0.000982463
0.000909403
0.000886234
0.000922517
0.0009723
0.00102473
0.000429234
0.000876975
0.000959987
0.000829654
0.000832122
0.00156594
0.00098219
0.000929331
0.000898532
0.00077942
0.00089125
0.00142193
0.000929614
0.000802315
0.00123123
0.00162014
0.00092085
0.00162508
0.000610263
0.000888718
0.000904066
0.000888069
0.000638891
0.000912706
0.000899736
0.000876404
0.00094674
0.000904834
0.000850937
0.000900287
0.000891078
0.00092178
0.0009251
0.000867028
0.000734522
0.000793945
0.000980718
0.000848213
0.000918463
0.000929606
0.00169594
0.000939902
0.000882108
0.0013688
0.0009274
0.000897013
0.000922881
0.000859461
0.000912507
0.000960553
0.00095411
0.00125024
0.000750359
0.000779733
0.00087949
0.00084063
0.000588353
0.00041372
0.00102125
0.0010629
0.00104765
0.00178615
0.00169578
0.00112997
0.000902641
0.000985839
0.000995765
0.000940553
0.000983196
0.00115873
0.000826881
0.000926173
0.00109502
0.000469061
0.00103569
0.000933138
0.000881063
0.00108196
0.000922509
0.00148006
0.000916632
0.00088328
0.000994412
0.00144685
0.000894289
0.000908123
0.000588743
0.00149652
0.000952204
0.000886008
0.00126078
0.000946037
0.00110689
0.000903013
0.00128259
0.000964946
0.000886697
0.00105786
0.00109138
0.000893153
0.00107204
0.000997246
0.000983294
0.000981285
0.000926148
0.000894067
0.000983071
0.000946807
0.000880994
0.000989347
0.001026
0.000870594
0.000925756
0.000906677
0.000898539
0.000962238
0.000869243
0.00085776
0.000898145
0.00100529
0.00088947
0.00088754
0.00118781
0.000891784
0.00142906
0.00138172
0.000676248
0.00088395
0.000967898
0.00101403
0.000933797
0.00120531
0.000925803
0.000757483
0.00103778
0.00107766
0.0011297
0.000851472
0.000953369
0.000927172
0.000983054
0.000607434
0.00131381
0.000925685
0.00114459
0.00108959
0.000876
0.000885813
0.00074282
0.00103272
0.000681079
0.00129346
0.00111815
0.00091068
0.000974472
0.0010473
0.000918575
0.00109463
0.00104918
0.000940086
0.00137067
0.00135296
0.0011663
0.000868843
0.000851043
0.0011206
0.00053755
0.000925718
0.000751919
0.00141136
0.000843969
0.00128138
0.000988525
0.000894075
0.000885587
0.0010096
0.000878946
0.000870817
0.000881641
0.000891693
0.000845282
0.000869317
0.00092755
0.000951131
0.000826489
0.000861788
0.0011121
0.000907816
0.000846195
0.000889851
0.000897634
0.00113995
0.000931675
0.000450988
0.000897977
0.000901359
0.000948278