/*--------------------------------*- C++ -*----------------------------------*\
| =========                 |                                                 |
| \\      /  F ield         | OpenFOAM: The Open Source CFD Toolbox           |
|  \\    /   O peration     | Version:  v1912                                 |
|   \\  /    A nd           | Website:  www.openfoam.com                      |
|    \\/     M anipulation  |                                                 |
\*---------------------------------------------------------------------------*/
FoamFile
{
    version     2.0;
    format      ascii;
    class       volVectorField;
    location    "0.36";
    object      U;
}
// * * * * * * * * * * * * * * * * * * * * * * * * * * * * * * * * * * * * * //

dimensions      [0 1 -1 0 0 0 0];


internalField   nonuniform List<vector> 
1431
(
(-0.342457 0.172724 -3.04563e-17)
(0.853103 -0.150942 -1.60377e-16)
(5.82929 0.952752 9.37565e-17)
(-2.99808 1.72834 -3.96606e-17)
(-0.00603174 1.07619 -1.41803e-16)
(4.65152 0.604815 1.68026e-16)
(1.8688 -0.357123 -1.5131e-16)
(9.68126 0.567713 -1.9831e-16)
(1.24695 2.91703 0)
(-0.443564 -0.348006 -1.3728e-16)
(0.270337 -1.29937 0)
(-0.493323 -0.806977 6.68866e-17)
(0.401408 0.467302 0)
(9.1501 0.445663 1.76249e-18)
(0.271405 0.287358 -2.69778e-16)
(0.462761 1.36197 0)
(0.392661 1.48087 -3.32507e-16)
(-0.819887 0.330378 0)
(-1.92801 0.116098 1.03634e-16)
(0.0983813 -1.3123 4.56735e-17)
(-0.122062 0.234064 -2.21703e-17)
(-0.100145 -1.03193 -5.37834e-19)
(3.43733 1.68338 -3.77908e-17)
(8.89203 0.49297 -2.85956e-17)
(1.82851 3.44134 -1.04511e-16)
(-0.0316334 -1.28049 -1.24865e-16)
(-1.22904 4.91949 9.30313e-17)
(9.3824 0.400056 -2.56808e-20)
(10.8112 0.669803 5.15373e-18)
(-0.77138 -2.22222 -3.76168e-16)
(7.91258 0.272528 2.18132e-16)
(7.18237 -0.168011 -1.67993e-16)
(-1.77498 0.393778 -1.15692e-16)
(-2.17438 0.256191 0)
(2.60274 -0.148768 7.98638e-17)
(2.04999 8.15835 1.18323e-16)
(-0.249924 -0.830678 1.14371e-16)
(9.59937 -0.0176252 0)
(4.71984 0.803785 -8.91129e-17)
(9.51529 -0.0140251 0)
(5.42474 0.116328 1.24194e-16)
(0.441299 0.122881 -8.22579e-17)
(-1.61502 0.715701 0)
(1.92427 -0.806202 -5.06296e-17)
(-0.928736 0.647184 1.53674e-16)
(-0.720037 0.227911 -4.23502e-16)
(1.27428 4.18369 2.11927e-16)
(7.27211 1.14554 -5.5135e-17)
(8.96993 0.488963 1.50116e-16)
(9.34257 0.0792338 3.42208e-17)
(0.237205 -0.394345 -9.04251e-17)
(-0.270718 -0.202378 1.46257e-16)
(1.58135 3.56749 4.82578e-17)
(0.0741314 0.906684 -1.3574e-17)
(1.18526 -0.764953 -1.05962e-16)
(8.03297 1.63274 0)
(0.625662 0.217638 7.15108e-17)
(1.9952 4.96167 -1.56429e-16)
(-0.364082 6.62758 0)
(0.00825303 -0.0286446 -9.52066e-16)
(0.533485 1.58904 0)
(-0.699849 -0.658371 -1.69381e-16)
(1.35006 6.9636 -1.33243e-16)
(10.5516 0.121017 0)
(9.97397 0.288086 -1.63541e-17)
(-1.20761 0.63756 0)
(6.32249 0.446175 0)
(4.45538 0.155966 0)
(-1.3691 -1.68045 1.19368e-16)
(10.7285 0.0834989 0)
(-1.6139 0.459534 7.52229e-17)
(2.17117 -0.36296 -7.85749e-17)
(0.642371 -1.15201 0)
(4.99692 0.260814 -1.79911e-16)
(1.2643 -0.0765021 3.10854e-19)
(-0.956931 0.31998 2.80461e-16)
(-0.169787 0.937303 5.17237e-17)
(4.12238 0.832435 2.8713e-16)
(9.94309 0.153473 1.18786e-17)
(1.09498 -2.96968 -1.81421e-17)
(9.89711 0.102091 -2.29645e-16)
(0.0537708 0.668028 -2.24975e-18)
(1.34249 -1.4727 1.78068e-16)
(0.905325 0.217694 -8.55222e-17)
(-2.58796 1.26849 4.04882e-17)
(-0.00482619 0.81571 -5.1689e-16)
(-0.118532 0.399831 -1.21303e-16)
(-0.843747 1.62728 1.55723e-16)
(8.56589 0.53575 8.60602e-17)
(-0.228706 -1.10583 -5.70943e-17)
(-0.963604 0.0386193 1.8997e-16)
(-1.63657 1.56613 2.22395e-16)
(-0.057421 0.250207 0)
(9.66227 0.0216925 0)
(0.299535 0.596013 2.20538e-18)
(-0.103946 0.446598 1.49975e-19)
(1.66485 0.624805 -2.86572e-19)
(10.3254 0.49847 3.01919e-18)
(-0.277308 0.381533 2.45921e-16)
(8.99812 0.462527 -4.18404e-16)
(-1.30852 -1.98461 -1.45138e-16)
(9.78611 0.157121 -6.216e-17)
(-0.6869 -0.190746 0)
(-0.0431866 1.02057 -1.55661e-20)
(-0.83181 2.49948 1.61965e-16)
(2.7343 -0.216564 6.32065e-17)
(9.97369 0.0615346 -9.73687e-17)
(5.12358 -0.0206125 7.25533e-17)
(7.24983 0.0397164 9.14989e-17)
(-0.0590679 1.08446 7.65073e-17)
(-0.496219 -2.6142 1.5111e-16)
(-1.26069 0.473949 -6.81558e-17)
(9.61742 0.780077 0)
(-0.622152 -0.650824 -1.67415e-16)
(0.117304 2.6187 0)
(-0.0476575 1.1505 0)
(-0.731906 0.212767 0)
(0.237128 -0.449559 -5.2469e-19)
(8.15106 0.557186 -5.90726e-17)
(-1.47648 0.606443 -1.53431e-16)
(9.78388 0.239117 -1.87251e-17)
(1.64667 4.28485 -1.22278e-16)
(0.205441 0.20607 -5.85281e-16)
(9.00172 0.772919 -1.09798e-16)
(10.0919 0.180704 0)
(-0.214259 0.510488 -1.02548e-16)
(7.66062 0.551963 1.56023e-17)
(1.9134 -0.544895 5.49368e-17)
(-0.452389 0.477237 8.94869e-17)
(10.6081 0.42787 -6.61155e-17)
(-0.953862 0.190878 -1.40222e-16)
(4.55947 -0.141795 2.38048e-16)
(7.04512 0.440575 0)
(-0.699025 -0.310812 -1.80069e-16)
(0.0194909 0.167117 -1.26553e-17)
(-2.13868 1.75464 -2.44214e-16)
(0.259708 -1.06603 0)
(-1.74969 0.652701 1.0772e-16)
(-0.841516 0.063222 4.78719e-17)
(3.77677 -0.0668601 -3.80373e-16)
(0.0788883 1.50584 0)
(-0.18768 -0.0313173 3.94634e-17)
(10.4935 0.0571888 -6.93575e-18)
(8.96627 0.353743 -1.96925e-17)
(8.70387 0.155521 0)
(11.3532 0.28835 3.94608e-17)
(10.3132 0.333176 3.12423e-17)
(4.91873 -0.0463796 0)
(-0.0169174 -1.05234 -1.29395e-16)
(9.30845 0.860413 -4.93526e-17)
(10.8194 0.0425893 7.28011e-17)
(9.89354 0.402006 -1.44003e-17)
(1.44507 0.564966 -1.54723e-16)
(1.46035 -1.00241 8.94188e-17)
(-0.708726 -0.17705 1.757e-16)
(2.25699 -0.234373 -3.47393e-17)
(10.0481 0.115082 7.92492e-17)
(-0.716937 -0.366344 -4.19416e-16)
(9.5156 0.879364 0)
(9.4306 1.06959 -9.08901e-17)
(-0.783685 0.464594 -3.3195e-20)
(0.0761599 -1.23312 4.15301e-17)
(-0.701198 -0.0378543 0)
(0.435204 1.75117 -3.34066e-17)
(-0.149456 0.775796 -2.32865e-16)
(-0.593058 -0.51714 -1.71117e-16)
(-0.0776193 0.820223 -1.22703e-16)
(9.71774 0.0909047 0)
(0.162316 -1.05257 3.71141e-16)
(-0.53602 -0.432506 -1.63529e-16)
(9.77949 0.849757 -1.26207e-17)
(1.14143 1.92424 2.4683e-17)
(8.71407 0.531102 -1.06146e-16)
(11.0167 0.0460615 0)
(10.4763 0.0370324 1.32004e-17)
(-0.588229 0.071891 0)
(-0.902489 0.215331 8.09153e-17)
(9.19958 0.749882 -1.65648e-17)
(-0.739001 -2.75132 2.00757e-16)
(9.45818 1.01125 9.25508e-17)
(9.69182 0.35791 3.78664e-17)
(0.234968 0.218681 1.26067e-16)
(8.80748 1.61218 0)
(-0.429291 -0.864117 3.29568e-16)
(11.2188 0.120853 8.75197e-17)
(9.86731 1.01447 -1.26394e-17)
(9.75805 0.65276 9.29939e-17)
(-2.7503 5.15521 -1.16796e-16)
(-0.117741 -1.20518 1.69674e-16)
(10.2406 0.111178 2.08532e-21)
(0.313968 -1.10397 9.74245e-19)
(0.507436 1.68029 -1.22147e-16)
(-0.209365 0.663972 -3.63887e-16)
(10.0192 0.0422927 -5.84256e-17)
(0.554884 2.41474 -1.02742e-19)
(9.92997 0.390993 3.6918e-17)
(9.97428 0.079932 0)
(7.31327 2.04191 -1.01775e-16)
(-0.376115 -0.667844 0)
(-0.0531593 -0.314353 0)
(0.359248 -0.954998 -1.87548e-16)
(2.95457 2.90496 -2.6725e-16)
(9.30489 0.956175 -2.57915e-17)
(4.05512 0.13001 -4.20421e-16)
(9.9931 0.0502041 3.23472e-17)
(-2.14577 2.55763 -2.56438e-16)
(-0.0241818 0.537831 9.78571e-16)
(9.74275 0.25194 2.286e-17)
(0.933668 -1.06412 1.41789e-17)
(9.06286 0.313521 0)
(10.0871 0.0672137 7.15147e-18)
(9.88639 0.309969 5.69846e-17)
(8.26076 0.635859 1.2819e-17)
(9.82711 0.219243 2.18442e-17)
(1.30121 0.0337924 0)
(1.99736 4.00592 2.30557e-16)
(9.40809 0.968277 0)
(0.121179 -1.33058 0)
(-0.538052 -0.524558 0)
(10.0921 0.25034 -5.61911e-17)
(9.84607 0.184124 0)
(0.369163 1.34306 1.27003e-16)
(11.0849 0.0284162 -1.15903e-16)
(4.16296 1.23415 -7.39385e-17)
(10.7087 0.363093 0)
(9.28608 1.07515 0)
(9.48617 0.875166 -6.81302e-17)
(-0.587021 -0.553642 0)
(10.5386 0.578215 0)
(7.97259 0.222907 -6.88178e-17)
(-0.00509341 0.617121 0)
(-2.7929 2.58801 2.77637e-16)
(10.5889 0.0817766 7.57744e-20)
(9.80272 0.455007 -1.71784e-16)
(9.71754 0.394518 7.86103e-17)
(9.75989 0.351496 4.38094e-17)
(10.4501 0.229776 -2.39667e-17)
(-0.541007 0.159508 2.11344e-16)
(9.809 0.116628 0)
(1.80247 0.906318 1.56944e-16)
(9.42557 0.249423 -2.95188e-17)
(9.3766 1.03916 7.72417e-17)
(1.11269 2.03764 -2.2435e-16)
(0.865528 3.7618 -2.89112e-16)
(2.2208 0.437042 -4.62856e-19)
(1.40805 0.798212 -3.33531e-20)
(10.5165 0.284526 -1.57833e-16)
(2.92037 -0.162588 0)
(-2.38579 -0.00525856 0)
(10.0601 0.819726 0)
(10.0497 0.884464 -8.69659e-17)
(1.25895 2.47868 0)
(-0.332691 -0.479401 1.39582e-16)
(6.33407 3.06748 1.99813e-17)
(1.19643 4.94015 -1.57544e-16)
(8.09706 0.0831265 -4.20752e-17)
(1.86522 0.0690208 1.58817e-17)
(1.65587 0.855104 8.97768e-20)
(8.23685 0.0156683 6.96101e-20)
(8.18963 0.0382237 8.15708e-17)
(8.06035 0.107633 8.09475e-17)
(0.442246 1.25706 2.79386e-17)
(-0.250837 0.594019 4.60944e-16)
(0.507468 1.68374 -4.83051e-17)
(9.71292 0.290605 -6.89404e-17)
(10.6471 0.490019 6.19722e-18)
(8.09002 0.00693674 -7.4891e-17)
(9.8152 0.827573 0)
(8.33986 2.53363 2.63099e-17)
(0.631536 1.50013 -1.57599e-17)
(9.71539 0.955883 0)
(9.1707 0.678819 2.83834e-16)
(10.1922 0.768114 2.5283e-17)
(10.2388 0.674281 0)
(7.99578 0.130769 -5.03879e-17)
(9.89881 0.594747 1.11752e-18)
(-0.810259 -0.130858 -1.13824e-16)
(-1.27104 -1.2836 -7.87466e-19)
(-2.37079 0.0510871 -2.94408e-17)
(-0.188769 0.187857 2.31528e-16)
(1.03774 3.37884 0)
(1.84196 0.974516 -3.19577e-17)
(-0.461659 -0.55088 0)
(-0.802805 -0.201936 2.95974e-16)
(8.15788 -0.00791367 -4.12008e-17)
(-3.39902 3.69156 4.60757e-17)
(-8.77934e-05 0.664422 1.13882e-16)
(9.13776 1.09153 4.678e-17)
(10.2614 0.755365 1.8953e-19)
(9.57799 0.213478 6.15159e-17)
(11.1327 0.439844 1.35792e-16)
(9.41997 -0.00364266 -5.5894e-17)
(9.37624 0.956185 0)
(-0.717946 -2.75559 0)
(10.0107 0.953442 -4.0651e-17)
(9.37279 1.26468 4.35675e-18)
(-0.334695 0.680877 0)
(9.01324 1.91145 1.61092e-18)
(1.67049 0.697193 -1.60913e-16)
(9.47413 1.06011 2.62461e-17)
(9.57515 0.433879 2.62064e-17)
(9.32334 0.766205 6.77519e-17)
(2.47485 -1.19751 0)
(7.96271 0.136057 0)
(-0.726931 -0.353837 -2.47895e-16)
(1.53203 0.512449 1.40169e-16)
(9.88806 0.134148 7.39158e-17)
(8.14495 0.0581933 -8.25386e-17)
(8.19883 0.0246653 -7.92799e-17)
(-0.596548 0.984357 1.50831e-16)
(9.59853 0.292783 -1.21963e-17)
(10.78 0.215618 4.79573e-17)
(0.287886 -0.131181 -1.71897e-17)
(-0.220654 0.0727974 -2.04969e-17)
(-0.947083 0.756395 -5.88564e-19)
(1.30886 0.267391 -1.6236e-16)
(-0.229064 0.881665 -5.81485e-17)
(2.33479 0.751978 -6.15871e-17)
(9.73532 0.298281 -4.16678e-17)
(-0.441767 -1.18806 -1.49995e-16)
(1.60784 0.577328 -2.34391e-16)
(-0.740169 -0.374186 2.29851e-16)
(0.0326772 1.9226 2.57226e-19)
(2.04452 0.881201 -8.53745e-20)
(0.180549 0.47445 -1.68424e-16)
(-0.599853 -1.67175 -7.65616e-17)
(9.79762 0.0767815 1.5691e-16)
(-1.04442 -1.95619 -6.18896e-17)
(8.03471 0.454288 0)
(9.72134 0.202767 -6.13738e-17)
(-0.19907 -0.599575 -9.68297e-17)
(1.933 -1.09131 0)
(1.37516 0.941799 0)
(-0.0987982 -1.69568 1.58388e-16)
(10.2548 0.115369 0)
(0.928878 1.57293 -1.24398e-16)
(1.04176 -0.884609 -5.41611e-17)
(-0.699197 0.206908 0)
(1.19249 -0.412058 -1.55144e-17)
(-0.0553341 0.0445275 1.67084e-16)
(0.22252 -0.440107 0)
(9.77629 0.0985753 -7.02007e-17)
(-0.755311 -2.03985 7.11443e-17)
(10.0727 0.242117 2.78655e-17)
(6.39105 3.29035 -2.41431e-16)
(-0.209649 -0.00372466 1.90909e-16)
(10.5094 0.255634 1.29206e-17)
(0.721777 -0.407849 1.62764e-16)
(0.328013 0.0242995 -8.76847e-17)
(-0.17695 0.0601161 -8.0457e-17)
(1.82979 0.0828005 -1.05952e-16)
(-1.55437 0.0715611 -3.49887e-16)
(-2.02494 -0.247061 0)
(0.432382 0.256683 -1.58956e-16)
(-0.957836 -0.0738107 0)
(1.6241 0.192978 0)
(-2.06225 0.114645 0)
(-0.378439 -0.092815 -3.76918e-16)
(-0.154978 0.164159 0)
(-0.855658 0.0162314 4.62119e-16)
(1.69433 -0.161103 -1.56679e-17)
(-1.33692 0.044687 1.18646e-16)
(0.829246 0.293091 2.28563e-18)
(0.208581 -0.0922245 -9.31863e-17)
(0.164436 0.0954789 2.84471e-16)
(1.25449 -0.23188 -1.4938e-16)
(1.61775 0.224168 0)
(-1.37337 0.236271 0)
(-0.368224 -0.228942 -2.50179e-17)
(0.154658 -0.19649 0)
(1.14304 0.103204 5.23731e-16)
(1.50212 0.924816 9.89446e-17)
(-0.889968 -0.959927 -1.29426e-16)
(9.96541 1.00122 4.71373e-17)
(-0.825724 -2.5044 0)
(-0.821759 -1.61102 1.81743e-16)
(-0.170512 -0.729919 9.33245e-17)
(9.78528 0.343247 2.75229e-17)
(10.0049 0.0391314 7.14479e-17)
(-0.33013 0.146383 6.56686e-16)
(-1.28425 0.211325 2.37218e-17)
(1.59098 -0.0854519 3.37647e-17)
(0.00752628 0.0526983 -2.67188e-16)
(-2.22392 -0.0502277 0)
(-1.37238 0.109558 1.13372e-16)
(1.25841 0.289387 0)
(-1.23369 0.233727 0)
(-0.619132 -0.128764 1.80311e-16)
(0.0955553 0.208092 1.59076e-16)
(0.31708 -0.0464886 1.70034e-16)
(0.0836048 -0.548376 0)
(2.76103 5.1624 1.61827e-16)
(9.73825 0.980177 -2.56825e-17)
(9.98816 0.00567741 0)
(-0.971527 -1.51903 -7.83275e-19)
(-1.40001 0.345157 -1.47624e-16)
(-0.737633 0.753382 -1.34649e-16)
(9.93688 0.210325 0)
(-0.809835 -0.79834 0)
(10.4106 0.074052 0)
(-0.292167 0.264777 -6.079e-17)
(-0.352609 -0.676597 1.69326e-16)
(9.99254 0.22573 2.45944e-17)
(1.14558 0.077587 2.84464e-17)
(-0.492716 -0.554007 1.12564e-17)
(9.88873 0.804175 0)
(2.41238 0.532453 8.26327e-17)
(8.71769 0.0157353 1.56423e-16)
(-0.506677 0.864657 -2.56741e-17)
(0.0319567 -0.426658 -1.3384e-16)
(9.66069 0.0747676 5.74835e-17)
(-0.136307 -0.816393 0)
(-2.40724 0.0240242 -9.31172e-20)
(2.30672 7.38577 -3.58798e-16)
(8.85406 0.215737 -2.08498e-17)
(1.78232 4.49561 6.31626e-17)
(0.0122936 -0.727796 -1.55514e-16)
(1.06298 1.96405 2.16275e-16)
(0.709141 -0.283622 -1.99114e-17)
(-0.694096 1.00491 -1.09196e-18)
(2.20684 0.870678 3.56007e-17)
(-0.967839 -2.85472 1.06217e-16)
(-1.33607 -1.68579 4.57418e-17)
(1.2062 0.267843 -2.5331e-16)
(-0.841519 -2.96195 0)
(0.186912 -0.668208 1.56307e-16)
(1.44528 0.326843 4.475e-17)
(0.933834 0.532188 1.01446e-17)
(-0.106407 0.576948 -1.1658e-16)
(1.19457 0.166558 -3.48569e-16)
(1.25639 0.612663 0)
(0.804709 0.178661 -2.07684e-16)
(-0.243323 -0.393205 0)
(0.753377 -0.0108799 2.41529e-16)
(1.86808 0.918699 -7.29987e-18)
(0.745021 -0.239616 0)
(-0.998662 -2.50369 -1.66207e-16)
(0.832052 0.147924 2.66538e-18)
(1.02651 0.116003 6.3329e-16)
(1.57497 0.471614 1.38359e-16)
(0.687191 -0.763949 -5.06532e-18)
(0.225668 2.10242 -4.16982e-17)
(0.739444 -0.0655373 0)
(0.789558 -0.204879 5.21829e-17)
(0.127179 -0.16195 0)
(0.000339734 -0.626144 8.75992e-18)
(0.288489 -0.00953678 -5.00153e-18)
(0.470703 -0.148594 -1.33817e-16)
(0.210316 -1.09151 0)
(0.795953 0.417066 1.61043e-16)
(0.674076 0.128891 -1.02267e-16)
(-1.46106 -1.93606 3.25793e-16)
(0.450135 0.0813752 -1.50883e-16)
(-1.08537 -1.73256 -1.26698e-16)
(-1.08983 -2.659 5.64645e-17)
(-0.820131 -1.92125 -1.8229e-16)
(-1.25884 -2.00528 -2.46839e-16)
(-1.52167 -2.0394 -5.14268e-18)
(-1.07992 -1.95648 0)
(1.88768 0.733314 0)
(3.10524 2.51412 2.4513e-16)
(-0.765541 0.0904437 0)
(3.485 0.770644 0)
(4.03634 2.13768 -1.36741e-16)
(1.95698 0.416141 1.64099e-16)
(2.13253 0.0869012 -3.45368e-16)
(-0.396532 0.773538 -1.531e-16)
(2.20331 3.40744 9.46662e-17)
(4.01424 2.26872 -1.34851e-16)
(1.19643 -0.0308247 -4.91827e-16)
(2.04988 5.32801 1.47525e-16)
(-0.987455 0.861324 0)
(7.99662 0.0891326 -1.47352e-17)
(1.05203 6.9511 -5.50454e-17)
(3.46126 3.03942 1.58451e-16)
(1.66248 -0.333954 -1.47855e-16)
(2.64275 6.93456 -2.52771e-16)
(2.26002 7.26058 2.354e-16)
(0.954493 3.37856 1.70087e-16)
(-0.40185 -2.47541 0)
(-0.820462 -2.66411 -3.24807e-17)
(-0.981268 0.959799 0)
(0.672183 8.28582 -4.39517e-17)
(9.84141 0.340153 -1.65895e-17)
(8.68275 0.134845 -3.06634e-17)
(0.101219 -0.75348 -1.413e-16)
(3.57087 2.99852 -8.24675e-17)
(-1.3307 -1.31581 1.09365e-16)
(-1.44834 -2.15088 -7.65847e-17)
(0.217764 -0.73441 0)
(0.142451 -0.390713 -1.28588e-17)
(-0.531366 -0.997389 0)
(0.88607 -0.580154 1.95868e-17)
(2.21309 6.0303 5.49053e-17)
(-0.465511 -1.83387 0)
(-0.980631 0.935756 0)
(-0.11272 4.71348 0)
(0.756116 -0.4943 4.19894e-17)
(9.91261 0.172802 -1.21423e-17)
(0.850128 -0.3769 0)
(3.2865 3.87992 -7.41604e-19)
(-0.976242 5.12583 1.31672e-17)
(1.01843 0.686896 8.21074e-20)
(1.20187 0.328263 0)
(1.36636 0.370871 2.07033e-16)
(0.472491 -0.882412 0)
(1.7807 -0.704197 -3.13707e-20)
(-1.44279 -1.53522 -5.82131e-17)
(-0.920216 -1.679 -3.39458e-17)
(0.146536 2.31092 -7.88028e-17)
(0.116717 2.24091 0)
(0.411925 -0.555992 3.58955e-17)
(9.58265 1.11466 0)
(-0.533336 -0.313197 4.1003e-17)
(10.4862 0.125479 -8.40298e-17)
(-1.07707 -1.19371 0)
(1.51244 5.12433 -3.76739e-16)
(-0.42757 4.99734 7.22126e-18)
(-0.858627 -2.20744 3.26867e-17)
(2.55192 0.281861 0)
(0.446552 -1.11368 -9.51191e-21)
(0.669798 -0.15413 -1.35163e-16)
(0.598943 -0.850714 6.05684e-17)
(-0.526128 0.65898 -1.53618e-16)
(-1.66228 0.829365 8.59648e-19)
(-1.23526 -2.45091 0)
(-0.3009 -0.398469 1.68785e-16)
(-1.22735 -2.01428 0)
(0.667734 -0.459693 4.29569e-17)
(0.876483 -0.115966 -1.12282e-16)
(8.65038 0.167693 4.21975e-17)
(7.93252 0.153662 -1.22075e-16)
(0.900931 -0.00349134 5.8279e-17)
(0.679386 -0.681094 -1.6321e-17)
(-1.55629 -2.08696 1.53425e-17)
(-1.17697 -2.35988 -2.91183e-17)
(1.07773 1.13558 3.80737e-17)
(0.978167 -0.0409636 0)
(0.226148 -0.506136 3.38173e-16)
(2.76581 3.65434 0)
(1.30008 0.532044 -1.29266e-16)
(0.593554 2.04963 1.79662e-16)
(-0.179633 -0.726373 1.64353e-16)
(-0.36019 -0.602334 0)
(-1.03369 0.166203 4.14776e-17)
(-1.15616 -0.841768 5.10362e-17)
(0.956939 0.25365 2.75717e-17)
(9.72519 0.09251 0)
(-1.54089 -1.8674 0)
(1.07161 -0.807801 5.99417e-20)
(0.87281 -0.231145 -4.96748e-17)
(-0.525742 0.0161524 2.22635e-16)
(8.09998 -0.0412763 3.98078e-17)
(-1.38949 -2.33183 5.64459e-17)
(1.17859 0.863821 2.75353e-17)
(-0.564696 -0.544302 -5.56789e-17)
(0.938491 1.33879 -7.43505e-17)
(-0.0898514 -0.770903 -1.67992e-16)
(8.0075 -0.0402827 -5.20948e-19)
(9.23279 1.10995 4.23896e-17)
(0.498319 -0.102432 -3.47933e-16)
(1.33469 0.275464 0)
(0.669325 1.59511 0)
(0.856518 2.92497 6.98801e-16)
(-2.09219 0.410077 -1.14973e-16)
(-1.55756 0.666429 -3.83899e-16)
(-0.237765 -1.33884 0)
(9.63876 0.871547 1.19491e-16)
(0.841962 0.617919 0)
(1.43558 0.451684 1.34753e-16)
(-1.14888 -0.463634 -5.23516e-16)
(-0.653987 -0.320293 1.77736e-16)
(1.69017 2.02417 0)
(-0.929798 -0.575591 9.39788e-18)
(1.57037 6.0479 0)
(-0.788234 -0.213665 2.51062e-16)
(-0.731547 -2.33818 8.93711e-17)
(-1.08592 -2.93259 7.40628e-17)
(1.46254 0.354006 -1.31155e-16)
(8.69151 2.20243 -2.68642e-17)
(-0.996068 0.709612 -3.8698e-18)
(9.72497 0.0744999 2.00871e-16)
(-0.554296 -0.550468 0)
(0.885168 -0.0696852 -5.48672e-19)
(1.70252 0.386952 -2.00109e-17)
(1.03553 0.0551404 0)
(-0.295475 -0.468857 3.2657e-16)
(9.78128 0.924991 0)
(0.199586 0.249348 4.68884e-18)
(10.7404 0.403434 -2.97932e-18)
(0.140824 -0.299243 0)
(2.46594 4.43927 -6.69532e-17)
(10.0002 0.0854009 -9.80225e-17)
(9.7208 1.14655 0)
(9.59372 1.41528 -4.77171e-18)
(1.16119 0.208725 0)
(-0.242619 -0.0140716 -9.47306e-17)
(0.642941 -0.613836 -1.77973e-17)
(9.68885 0.786603 6.47988e-18)
(0.405428 -0.195429 -2.03685e-16)
(-0.335468 -0.587358 -2.10921e-16)
(0.066584 -0.342357 -4.26187e-16)
(1.97185 -1.05305 -3.01192e-17)
(1.05802 0.314784 -5.91093e-18)
(1.097 0.710571 6.27272e-19)
(-1.09568 -1.06372 -7.93671e-17)
(0.3031 -1.22739 0)
(1.49342 -1.0478 5.44534e-21)
(-0.720118 -0.0573346 5.71289e-17)
(5.53631 1.15164 -4.26297e-17)
(6.81133 2.19098 5.84018e-18)
(-0.285626 -0.818856 -1.44305e-16)
(-1.33326 0.815947 0)
(0.904594 0.748165 -1.65505e-16)
(6.17445 1.6126 0)
(9.74018 0.683506 -1.20476e-17)
(0.479537 4.91733 0)
(-0.115961 1.75669 5.07e-17)
(1.04027 1.13625 -1.00972e-16)
(-1.44113 -1.74595 5.42547e-20)
(2.55564 -1.50444 6.97729e-17)
(2.13917 0.661877 0)
(-0.980744 0.287204 2.91562e-16)
(2.73723 -1.60992 -4.35866e-17)
(0.427991 -1.02262 -8.55538e-20)
(6.68443 1.6089 -5.88259e-17)
(2.48347 -1.71034 5.8216e-17)
(-0.278334 -0.270546 9.08649e-17)
(-0.922843 -1.83203 -1.11975e-17)
(9.73075 0.0516615 0)
(-0.422968 0.168123 5.31627e-17)
(-1.02288 0.387368 -9.0275e-17)
(-0.544288 0.0236795 -1.31813e-16)
(9.73911 0.045916 -4.20299e-17)
(1.8593 0.802273 5.72977e-17)
(-1.47027 -2.10441 2.81301e-17)
(2.26389 -1.4139 -5.62401e-17)
(9.07415 1.1272 3.35937e-17)
(8.81369 1.53512 1.91008e-17)
(-1.03163 0.273431 2.24291e-16)
(1.14481 0.376064 -1.97733e-17)
(-0.471812 0.651063 0)
(9.75518 0.0591046 1.6521e-16)
(-0.506413 -0.789026 3.33742e-16)
(0.314157 -1.24824 -1.90869e-17)
(1.11073 1.06072 0)
(1.29342 0.454194 3.21602e-17)
(1.56469 2.96997 -6.16478e-17)
(-0.315784 -0.352939 7.36754e-17)
(-1.06366 0.35375 2.83659e-16)
(-2.27876 -0.343235 0)
(1.31931 0.369948 2.38924e-17)
(9.35335 1.67476 4.00395e-17)
(8.56325 0.946662 0)
(1.39251 2.47777 8.7489e-17)
(-1.25397 -2.04941 -5.29862e-17)
(9.7295 0.075514 7.43887e-17)
(9.90097 0.184267 -2.02478e-17)
(0.555312 -0.630383 -2.70378e-16)
(-0.833224 -1.23061 -3.53342e-16)
(0.937283 0.145473 1.91109e-17)
(-0.332287 -0.117148 1.0379e-16)
(-1.00154 0.111077 -3.18742e-16)
(-1.0047 0.0660601 -1.39055e-19)
(9.73913 0.148924 0)
(-0.118123 0.0654474 1.92582e-16)
(10.0135 0.0926062 3.45329e-17)
(-1.28983 -1.11799 -4.88441e-17)
(-1.19968 -1.55011 1.20759e-16)
(0.343139 0.145473 -5.15298e-17)
(-0.338333 -0.423881 -8.72846e-17)
(9.75318 0.0963711 -2.34259e-17)
(-1.02979 0.203555 -1.65332e-16)
(0.657826 0.0968989 -2.32576e-17)
(8.59821 0.25823 0)
(8.74145 0.681312 7.50443e-17)
(2.79724 4.12658 3.84359e-17)
(0.779231 -0.438416 1.66414e-16)
(2.27147 -1.36584 0)
(8.81709 1.85503 -2.88246e-17)
(0.241238 0.138717 -1.66717e-16)
(-0.572276 0.0518152 1.57105e-18)
(1.16833 1.63627 -2.39993e-17)
(-2.35669 0.287293 1.54802e-17)
(-0.333412 -1.93407 -1.70489e-16)
(1.36531 0.411576 -8.00793e-20)
(-0.897971 -3.04413 2.44781e-16)
(1.12981 0.891671 -3.85428e-17)
(0.0549567 -0.418084 0)
(-1.41559 0.4082 1.26456e-16)
(7.42571 0.119712 2.09184e-17)
(0.875134 0.341092 0)
(1.27862 0.69203 -1.7733e-17)
(-0.50694 -0.0522763 -6.78902e-17)
(-0.568193 -1.60191 9.80505e-17)
(2.58554 -1.70578 -2.65277e-17)
(0.0384898 -0.099489 -8.10271e-17)
(-0.584251 -0.59757 3.02953e-16)
(9.74997 0.123927 0)
(8.97011 1.15866 -5.50878e-17)
(1.17882 0.722971 0)
(2.12767 -1.36488 1.0999e-16)
(9.35943 0.952132 -5.95862e-17)
(2.68689 -1.75374 5.10518e-17)
(-0.0207194 0.149944 3.42721e-16)
(4.82224 2.80901 9.24006e-17)
(8.72505 1.2239 -2.9986e-19)
(-0.492007 -0.392406 -1.91713e-16)
(10.0069 0.109242 -9.77457e-18)
(5.79775 0.327477 2.26063e-16)
(-1.22457 -2.76175 1.65036e-16)
(-0.241129 0.257662 4.25078e-18)
(2.54801 -1.14705 -7.07836e-17)
(-1.26378 -1.32404 -3.08685e-17)
(0.964016 1.02396 -9.11915e-17)
(8.08733 0.304177 6.3897e-21)
(0.255649 -0.504906 3.05433e-16)
(0.800493 2.59229 -1.05356e-16)
(8.8347 1.1554 -8.31827e-19)
(-0.713419 0.136938 8.24799e-17)
(8.4768 0.33626 0)
(9.43015 0.148095 2.06944e-17)
(9.71404 0.0962579 1.14789e-17)
(-0.965448 4.28963 1.41388e-16)
(0.744033 -0.699966 -4.06176e-16)
(7.65166 0.299928 -2.13837e-17)
(-0.627355 -1.13574 0)
(0.940836 1.36378 1.06997e-16)
(2.23436 0.16377 -2.53531e-16)
(1.33637 -0.205625 0)
(-1.39205 -0.722683 0)
(-0.464712 0.0221706 1.56477e-16)
(2.72915 0.170779 2.34889e-16)
(3.1223 0.195815 0)
(-0.160522 3.25048 -1.87172e-16)
(9.45221 0.851168 -6.50775e-18)
(-0.851006 -0.0907999 1.57243e-16)
(-0.0313632 -1.40391 1.10937e-16)
(-0.141109 -0.276171 0)
(-0.920622 0.0131593 -3.06722e-16)
(1.0764 0.621158 1.46439e-16)
(0.824796 1.5756 1.19982e-16)
(5.98662 -0.266561 0)
(-0.843155 0.0499638 0)
(5.29413 0.0962497 0)
(8.91372 0.357075 7.08511e-18)
(9.1143 1.46579 1.00131e-17)
(10.4135 0.665971 -1.2331e-17)
(9.41918 0.842816 6.70259e-17)
(2.13439 -1.03018 1.71962e-16)
(0.94977 1.95659 4.9256e-17)
(8.97992 1.24236 -1.21713e-16)
(3.54306 0.197008 0)
(4.26513 0.160788 4.59239e-17)
(-0.946194 -0.0167246 0)
(-0.861352 0.107744 -1.12995e-16)
(9.94278 0.0487068 5.26788e-18)
(10.8876 0.0469691 0)
(9.31152 0.0986318 5.01088e-18)
(7.10143 0.513778 -1.50178e-16)
(2.77238 -0.0507475 -2.83428e-16)
(6.8272 0.986758 1.14033e-16)
(4.41696 4.28547 0)
(2.88928 5.07389 1.64714e-18)
(9.4532 0.000287185 9.48603e-17)
(2.69858 2.67904 -1.36269e-16)
(0.603292 0.15197 -6.6289e-18)
(2.13577 6.32839 -3.47906e-17)
(5.45245 0.15667 6.3725e-19)
(3.93651 0.184663 7.47517e-19)
(-0.679842 -1.78748 -5.98499e-19)
(0.906302 5.31791 0)
(0.0699767 -0.0624486 1.80775e-16)
(2.25281 -1.26008 1.1768e-16)
(-0.0264667 -0.120538 -1.86723e-16)
(5.04642 0.0871727 0)
(-0.35926 0.0275862 8.92899e-17)
(0.771384 1.46495 3.1386e-17)
(0.554314 -0.507663 -1.64006e-16)
(2.62043 -1.32749 -1.33964e-17)
(2.0436 -1.10125 -8.86758e-17)
(-0.781562 0.0997798 5.94935e-17)
(4.54956 0.131778 -4.74866e-17)
(0.428893 1.96269 0)
(-1.95755 0.49139 1.30369e-16)
(3.32513 2.4701 -4.46147e-16)
(0.0451234 0.158176 -1.01262e-16)
(2.53117 -0.977096 -1.00877e-16)
(-1.14535 0.269438 -4.48727e-20)
(6.4033 0.442493 -1.29328e-18)
(-0.886837 -0.0768338 1.57417e-16)
(9.522 0.762108 0)
(1.80305 0.0388281 0)
(3.37695 1.69475 -9.68741e-17)
(9.99424 -0.00800237 2.50805e-18)
(9.83051 0.237167 0)
(0.018992 -0.257491 -9.05267e-17)
(1.87229 -1.366 0)
(0.246623 3.36085 -1.18017e-16)
(9.74825 0.106766 2.3158e-17)
(0.018827 -1.06458 2.03227e-16)
(0.813492 0.719112 0)
(8.69944 1.1043 2.64283e-17)
(2.23561 -1.67198 -8.17164e-17)
(-0.126445 -0.0715491 8.9674e-17)
(1.84782 0.627889 -1.70922e-16)
(1.62143 7.40045 9.31319e-17)
(-0.655327 0.63057 -3.41201e-17)
(2.68411 3.65322 2.98054e-16)
(-0.229372 0.860556 0)
(9.61777 0.163858 -7.76238e-17)
(9.72049 0.0738533 -2.50448e-18)
(1.88679 2.9761 -6.94283e-17)
(-0.380572 -0.3964 9.24239e-17)
(2.404 -1.59973 -1.0766e-16)
(6.11505 0.0448906 3.04189e-17)
(5.6289 0.214397 -4.22678e-17)
(4.60331 -0.288982 -1.89331e-16)
(5.19715 0.168409 0)
(5.55936 0.053256 -1.3755e-16)
(7.19177 -0.0486735 0)
(6.05987 -0.0797483 3.4995e-17)
(4.80567 0.104858 5.43959e-18)
(0.062879 -0.266177 -8.32686e-16)
(0.950099 0.149615 -3.71554e-16)
(11.0821 0.44599 4.68889e-17)
(1.21449 -1.17222 -2.56539e-17)
(0.885664 1.03704 2.05654e-17)
(1.5235 -1.26164 4.77891e-16)
(-0.215263 -0.303 -2.17826e-19)
(-1.39592 -0.471843 0)
(0.160112 0.200109 -2.10392e-16)
(2.30133 -0.359173 -3.03155e-17)
(-0.239711 0.00998921 0)
(-0.98477 0.227389 2.86144e-16)
(8.91651 0.51578 2.74591e-16)
(0.318916 -1.05965 -2.21425e-16)
(8.24019 -0.0115395 3.85941e-17)
(0.251401 0.27884 -6.99432e-17)
(-0.108397 -1.57452 -1.13061e-16)
(9.59234 0.666942 0)
(8.54711 0.834807 -3.85858e-17)
(10.3198 0.420022 0)
(5.87616 0.115533 0)
(1.19068 4.04884 2.25984e-18)
(8.59812 0.99828 1.20234e-19)
(2.49155 -0.740099 2.9073e-17)
(1.42091 0.301187 -3.58086e-16)
(0.932722 0.168042 3.14686e-16)
(9.61202 0.0323862 9.98923e-18)
(-0.0291919 -0.534285 1.35586e-16)
(1.40741 0.283622 2.49634e-16)
(1.59344 0.650414 1.32556e-16)
(-0.374612 0.135102 -3.27629e-16)
(3.17782 4.73674 3.42751e-17)
(-0.743933 -0.162115 2.27546e-16)
(-0.310591 -0.359983 -5.94354e-17)
(1.9709 3.54294 0)
(9.86317 0.227273 0)
(9.39714 0.00774871 5.50278e-17)
(9.70488 0.0549483 -7.72455e-17)
(-0.877777 -0.106422 -2.02244e-16)
(1.12681 -0.751308 -3.33475e-17)
(-1.4959 0.864423 2.8621e-17)
(2.58638 0.500671 0)
(-0.268982 0.710112 0)
(9.82409 0.236074 5.90423e-17)
(8.44395 1.66747 0)
(-0.134926 -0.16128 -8.80103e-17)
(-0.300046 -0.346373 -2.51824e-16)
(8.50205 0.38312 1.51526e-17)
(1.68933 7.03432 0)
(-0.903229 0.0723774 2.7106e-16)
(1.00108 -0.0486605 0)
(-0.136729 0.343596 1.93323e-16)
(8.56326 2.09811 -9.34184e-17)
(0.630549 1.57387 0)
(1.06975 -0.832345 -9.56924e-17)
(-1.6569 -1.84379 -5.53062e-17)
(9.71248 0.0615157 -6.97522e-17)
(-0.401287 0.241133 1.91484e-16)
(0.959968 -0.242859 0)
(-1.10408 0.355493 7.48851e-17)
(-0.786866 0.795477 -7.09785e-17)
(10.491 0.086339 0)
(-0.316629 0.361917 0)
(-0.791602 -0.0316432 2.29347e-16)
(0.000808397 0.744992 -1.15526e-16)
(0.79175 0.91021 0)
(6.88099 0.0740472 1.71385e-16)
(9.19258 0.133555 0)
(-0.594289 4.95454 -1.3487e-17)
(4.58884 1.39055 -8.24549e-17)
(9.65282 0.132816 5.85643e-17)
(-0.398272 -0.742633 -1.77438e-16)
(4.60794 2.00936 -2.5034e-16)
(-0.0492654 0.334966 -1.26567e-16)
(2.68135 -0.618892 0)
(-1.01967 -3.12914 -1.57961e-16)
(2.78114 -0.835105 2.42183e-17)
(-1.11817 -1.3392 0)
(-1.02697 -0.490956 -1.69757e-17)
(-1.4092 -1.9808 1.54905e-16)
(-1.30017 -1.75011 5.77706e-17)
(1.7913 0.0648298 0)
(2.06009 0.00184818 5.57906e-19)
(11.1524 0.169769 -4.36601e-17)
(-0.492676 -0.26543 3.79279e-17)
(-0.360843 0.591023 5.50246e-16)
(-2.06337 0.196717 8.2937e-17)
(-0.999982 0.13404 3.19739e-16)
(9.70943 0.0772196 5.452e-17)
(0.455924 3.46433 0)
(0.962402 0.430937 2.0176e-18)
(-1.14213 -2.07293 -1.55548e-16)
(0.0915901 -0.551419 -3.08358e-16)
(-0.331657 -0.53555 -9.98143e-17)
(9.37139 0.0247004 9.64158e-20)
(1.72859 1.31949 0)
(2.63761 -0.36873 4.16321e-18)
(-0.393834 -2.13366 -8.41239e-17)
(9.91066 0.213228 2.59004e-17)
(-0.873548 0.0597983 2.25504e-16)
(9.70084 0.0361634 -2.25721e-21)
(9.72309 0.123913 0)
(7.70521 0.200284 4.62848e-17)
(1.7362 0.0356095 0)
(5.79113 -0.0456537 -1.87824e-16)
(-0.584523 0.301362 -2.02419e-16)
(2.20032 0.080968 0)
(1.01882 1.6076 -7.33518e-17)
(8.49551 1.31816 -1.85606e-17)
(-0.259647 -1.06423 9.89884e-17)
(0.241259 -0.43744 -1.05392e-17)
(0.131611 -1.13551 0)
(0.213377 -0.838727 9.49228e-18)
(0.158358 -0.00811991 2.58758e-17)
(0.0424891 -1.29248 3.50112e-17)
(-0.0221763 -1.30983 -7.22826e-17)
(-0.199382 -0.301057 2.09982e-16)
(-0.205205 -0.0349543 0)
(-1.61332 -0.237913 2.80315e-16)
(9.67707 0.0724368 1.02205e-17)
(-0.0569344 -1.24558 4.20159e-20)
(-0.294819 0.539643 0)
(-0.519985 -0.0509779 7.68705e-17)
(0.437254 -2.68165 1.2054e-18)
(-0.116881 1.0566 -2.05511e-16)
(-0.321604 0.87174 -4.20287e-18)
(-0.120854 -0.267727 -2.10904e-16)
(-0.938556 -0.345189 -9.12531e-17)
(-0.0244533 1.36431 -1.06807e-16)
(0.350709 2.22674 5.64335e-17)
(0.503026 -0.357352 3.43526e-16)
(1.94586 4.24611 0)
(0.47324 -0.604013 -1.62456e-16)
(-0.0779268 -1.15068 -1.05546e-17)
(-0.994756 0.703298 3.27793e-17)
(0.280959 -0.605213 -1.10405e-16)
(-1.11719 0.48507 -3.66609e-17)
(1.51171 2.42719 1.33164e-16)
(0.777494 1.09529 7.27976e-17)
(-0.619309 -0.116879 1.25112e-16)
(-0.128818 0.859637 2.10519e-18)
(0.468815 -0.116834 -2.54021e-17)
(-0.110197 -0.472017 1.89438e-16)
(-0.0972801 -1.02324 -2.12235e-17)
(-1.80489 0.332771 -6.07445e-17)
(-0.0175238 1.34285 0)
(-0.0353813 -0.225105 4.1499e-17)
(0.163819 0.128638 1.91249e-16)