/*--------------------------------*- C++ -*----------------------------------*\
| =========                 |                                                 |
| \\      /  F ield         | OpenFOAM: The Open Source CFD Toolbox           |
|  \\    /   O peration     | Version:  v1912                                 |
|   \\  /    A nd           | Website:  www.openfoam.com                      |
|    \\/     M anipulation  |                                                 |
\*---------------------------------------------------------------------------*/
FoamFile
{
    version     2.0;
    format      ascii;
    class       volScalarField;
    location    "0.07";
    object      p;
}
// * * * * * * * * * * * * * * * * * * * * * * * * * * * * * * * * * * * * * //

dimensions      [0 2 -2 0 0 0 0];


internalField   nonuniform List<scalar> 
5794
(
88.9668
92.2965
46.5785
94.8074
84.2665
91.5064
93.9628
93.7624
82.5804
86.558
107.544
90.8854
96.0117
87.2433
89.7178
92.2761
32.1149
91.4102
89.6693
92.3408
78.2852
90.7003
92.1449
92.4083
93.3346
41.702
36.0925
92.3718
95.8466
86.181
93.7719
83.8036
100.666
91.2455
92.742
91.8527
80.8578
91.3312
96.3689
91.2603
92.6628
91.7604
107.356
84.4899
89.6722
101.06
85.0568
93.9798
85.7954
93.0142
92.316
90.4493
76.8813
88.0966
92.9265
101.142
84.457
94.1047
107.389
37.1335
91.9467
92.6519
93.8119
84.6219
100.791
92.5338
71.2568
80.1978
91.9497
92.6528
90.1686
77.0951
16.0969
89.2621
91.4692
92.5543
92.4029
47.2386
84.9622
92.088
90.8604
92.4462
92.8856
96.3837
91.2737
93.5848
81.5495
100.53
93.033
91.8378
102.607
87.9489
94.63
97.167
92.3438
90.1965
101.748
94.1748
87.4015
92.8436
67.607
80.2459
106.443
88.6546
89.4717
93.5182
92.5467
106.393
85.6452
85.2729
92.5041
90.0377
57.4872
92.3648
91.2948
96.6217
90.6105
93.5387
90.9466
78.6153
93.5263
87.9298
93.2095
92.5237
89.9013
106.688
84.3521
91.857
92.1667
107.501
91.2449
96.3556
80.9395
51.3016
93.6622
89.5866
107.676
92.7089
92.5269
92.3639
93.3501
89.1891
90.0016
89.6733
92.5735
46.7842
92.9485
101.288
84.5301
90.5302
114.07
89.6667
93.5916
90.1531
39.21
84.1048
96.406
93.9059
100.944
91.3127
89.5834
93.3836
92.3379
92.8804
89.1796
90.7916
93.4842
93.5236
92.4379
90.0221
87.9143
85.4864
91.4547
92.494
90.8269
92.457
89.8533
93.2808
92.1559
86.8778
91.2961
86.3931
93.8133
101.064
96.4642
38.4261
80.9636
100.173
86.0819
81.1014
107.73
85.444
100.792
93.8008
96.289
91.2233
93.5562
92.3424
89.7571
105.362
93.3378
89.8718
93.9486
96.5775
85.0234
101.017
91.2198
106.111
73.9759
84.5377
87.0435
79.0933
93.0263
93.4223
91.7995
92.7093
91.5153
83.4387
107.138
98.5995
79.7504
96.387
101.193
93.58
96.3177
33.1229
72.2633
86.6566
86.2741
89.5794
89.2781
90.9033
89.1851
81.5343
91.2883
45.6041
60.3099
104.943
95.2587
88.4513
92.896
105.524
83.9758
90.0851
89.2679
92.5484
89.8677
84.261
101.639
94.1784
87.1576
92.5138
34.9301
92.3701
111.367
76.0969
104.806
103.643
106.18
89.8916
107.914
93.2528
93.478
92.3419
96.9564
91.0286
90.8545
105.678
89.8766
100.954
84.9811
93.9093
93.9579
90.9497
82.8144
89.7978
87.4849
92.8009
91.3212
94.9115
92.4169
101.615
92.3621
91.6199
89.7224
93.9459
87.6886
92.0904
96.4604
93.6045
90.2207
91.3725
90.0249
88.1574
103.304
51.0267
91.6474
90.443
89.2788
92.3343
92.2608
65.7321
90.8318
74.9451
88.8561
105.297
91.5487
91.0551
100.95
84.9769
93.9252
98.7284
84.3726
92.3424
82.0822
86.1474
106.401
92.1857
87.3694
96.2995
94.0361
94.7594
93.5958
83.8698
92.2021
96.2541
90.5964
91.1517
96.1595
107.383
88.4546
107.227
93.7388
100.504
82.6227
86.3339
86.6914
92.3636
85.9749
99.6561
92.3634
93.2336
84.8998
92.2554
90.298
93.787
101.157
86.6175
91.2347
91.4247
96.3792
47.8945
100.93
85.8856
93.8156
35.1472
89.6323
91.074
93.755
93.6825
106.206
90.9587
107.756
93.7588
93.6764
85.5707
90.1005
101.108
84.7696
93.9932
91.1051
92.4063
85.7455
91.9057
106.374
88.2142
100.976
82.4815
94.1711
91.481
92.8628
91.4128
82.491
92.5103
93.161
91.8638
95.5401
93.7135
93.601
93.7164
93.5603
94.9844
92.6956
92.4547
90.3133
91.7407
90.0321
83.3547
89.3472
91.9742
92.0593
93.0363
42.1394
92.5906
90.1782
104.59
79.1304
91.1449
92.8044
101.184
93.6539
85.2714
107.877
85.5695
100.973
85.2947
93.9231
93.2423
87.2883
101.599
87.062
94.0352
106.737
90.6617
92.3026
93.0943
91.7999
92.3863
92.3754
90.1649
80.9102
82.0057
90.389
61.5923
89.7123
91.3526
91.2801
96.4689
92.6157
93.2431
92.072
82.0868
96.4064
91.2823
92.0852
96.651
91.5673
92.4159
80.9583
74.1602
86.4565
92.2788
63.5124
90.6815
94.2631
92.3351
101.832
91.7126
92.4011
97.4496
90.2825
92.1223
78.4045
92.5206
93.6291
107.594
40.849
82.6311
107.932
86.3689
92.328
67.6696
107.585
86.3351
86.0503
99.3251
56.2583
92.373
85.6804
91.9723
78.6317
90.6645
86.5577
86.37
106.436
107.425
78.1043
91.3906
47.874
90.3418
92.2234
93.9009
93.3787
83.6014
78.2225
92.4044
87.2796
91.4516
92.3755
104.496
80.1963
55.1723
85.7496
96.0562
90.3346
92.2853
89.4546
101.15
107.919
92.4703
89.5643
91.7074
92.8703
92.2985
92.2975
90.08
96.1872
92.28
78.2135
42.8498
90.7483
92.8801
83.4264
93.6007
107.848
91.7686
87.7339
97.1063
92.4109
90.5727
80.8109
92.3181
40.3702
91.7443
85.9175
75.7378
81.7719
102.859
107.685
106.956
90.4589
58.2901
92.3245
86.1307
90.5794
92.1587
81.5407
89.584
92.3352
91.8597
88.622
91.0205
89.6096
88.9962
91.3699
90.0396
80.4137
90.6942
92.5412
87.9745
19.5068
86.3451
105.21
89.5829
86.759
88.729
92.3046
59.8746
91.9573
92.4007
94.2624
81.9334
95.5349
91.5459
47.718
74.5424
82.0414
89.5837
91.2317
92.2778
95.9292
89.7479
104.525
43.3667
91.3954
95.4256
92.4056
93.9545
87.0517
101.503
92.4452
91.7147
92.7244
96.4392
90.3281
99.2533
91.8151
82.2463
92.4548
70.6048
92.3062
94.7526
91.279
96.6417
92.3261
107.965
52.0395
86.8871
92.9206
92.5805
79.7837
75.7682
86.893
78.5754
91.3299
96.4806
104.626
106.032
103.184
94.4977
92.2238
106.57
106.892
106.257
92.477
91.3923
91.919
86.3119
105.29
92.3802
89.3704
92.5037
91.8259
91.3958
92.9502
86.601
63.2231
82.4792
86.01
92.4431
90.1407
106.517
106.829
87.6676
106.772
96.4806
91.6043
88.9126
91.9484
92.9071
91.8141
88.1601
91.8207
96.4523
91.458
105.48
42.6102
94.2244
32.7925
92.135
91.9885
86.6198
90.9097
78.5999
91.9999
92.2653
96.7546
94.0088
87.9081
101.647
105.44
84.4
35.3157
96.9764
90.8918
91.534
96.5312
91.3218
85.7552
87.2113
92.7796
106.008
89.9779
92.2709
88.0211
105.927
97.002
91.5384
91.0456
92.2528
93.6709
98.5893
67.7053
92.8838
87.4634
95.3257
106.24
91.7263
91.0938
81.1385
85.9559
95.5283
92.3438
105.045
88.0681
101.394
89.6627
86.5261
91.9197
104.603
107.42
97.5063
92.4424
96.2128
107.78
80.4338
84.3716
39.0288
106.012
95.4818
105.763
63.7013
104.967
91.8283
78.2362
85.6806
100.373
82.9542
104.927
87.6141
92.7153
65.1708
98.2764
105.424
87.7927
61.3962
32.6817
107.998
87.8044
94.4023
102.174
93.3282
93.1419
75.4693
89.6303
94.1622
87.6931
101.549
77.007
82.202
90.759
89.038
90.0835
92.3194
91.0399
96.6155
82.9947
97.4941
92.4957
96.2652
90.1967
62.8789
95.2018
92.1953
96.7431
95.2461
88.8929
102.774
85.2033
93.8435
86.8637
101.453
86.764
91.8714
86.0486
92.875
92.2123
87.7921
87.1406
91.9719
106.476
41.4248
79.1126
90.3079
92.5731
95.7219
88.9355
106.148
96.2706
90.0956
92.2445
103.894
101.187
86.637
93.6826
89.4383
92.2103
55.9929
90.2636
56.9922
76.4703
106.321
92.9149
92.4053
90.8804
89.1317
106.581
105.75
105.789
99.2943
93.3614
93.1601
87.9482
94.7159
97.8684
92.4619
90.3262
100.04
105.285
92.6753
90.6655
79.0955
97.8897
44.7435
92.3586
83.0537
90.0781
86.4145
86.9146
87.3788
94.1623
101.667
81.6102
91.6469
93.1555
86.4871
92.198
34.9052
90.2096
93.7732
76.9314
92.7178
108.106
92.6906
85.1056
92.2854
93.7525
92.3607
83.2785
69.5545
91.327
96.5423
91.384
96.4341
105.409
106.174
42.94
65.9028
92.2777
92.9005
94.6149
87.9149
87.6158
86.0652
98.7543
93.1885
71.2832
107.957
90.6925
91.376
92.6266
81.7848
104.94
91.7181
52.2987
90.5377
91.64
56.3071
95.3478
79.3937
90.3372
91.9484
107.272
104.219
92.5757
91.68
70.5401
106.307
85.6086
82.2783
105.869
93.5315
92.0246
96.6247
71.067
98.5623
84.9479
90.3382
92.4058
86.6004
92.3923
92.0086
92.8122
91.3181
105.072
92.405
81.6286
92.4367
89.3836
95.0028
92.7211
72.5959
107.967
107.841
52.4061
89.7744
95.9575
81.7406
92.4849
48.6414
100.594
78.9741
108.979
94.1175
87.6884
92.1663
92.0564
96.5457
101.383
87.7863
86.2873
83.9288
92.6015
92.4997
104.314
90.3716
93.0787
101.495
86.7098
93.9417
89.3869
99.2036
92.7477
90.7217
85.3682
92.3701
73.7963
106.699
95.5135
81.7644
93.3914
58.4336
92.2297
90.6449
73.326
38.6825
83.4483
81.631
86.8011
97.4287
87.2337
84.7953
92.6844
96.4843
91.3917
92.6481
92.676
92.2731
92.4043
92.4219
92.7801
92.8674
81.705
91.5887
82.2931
91.4943
92.4141
95.3302
83.1797
91.1972
89.4859
88.683
92.5483
106.826
85.1872
93.1725
92.7145
61.1849
107.739
92.7089
82.7776
92.417
92.4637
82.7042
56.5967
81.4666
77.8779
83.4429
92.2774
83.4598
79.1854
91.0048
96.7575
68.8513
92.87
98.7555
91.2169
88.485
92.46
91.2093
90.6305
100.609
46.1426
95.0234
91.6542
92.2464
90.9062
94.0521
87.7188
101.444
103.199
92.467
90.8071
92.2328
79.1636
82.2868
89.9064
77.5463
92.3314
80.0582
81.5942
83.9699
92.4843
92.4329
88.803
85.4364
92.4487
108.025
92.6033
82.268
84.8678
92.3163
86.5443
91.1975
70.7963
106.503
92.2995
106.031
92.5824
84.8372
106.332
92.7384
84.2029
97.8889
92.4231
92.103
92.5593
92.2493
75.9957
76.8474
89.9435
92.79
77.5204
91.9967
92.4981
81.9172
92.8176
92.0479
90.931
92.5019
91.5259
98.81
94.0064
91.4523
96.6716
90.7408
92.0901
92.7678
91.8766
91.9634
92.7712
93.4942
92.0965
108.591
92.2909
81.8529
90.7257
107.416
90.9381
76.3859
83.9209
92.4226
82.8872
92.5542
92.5175
66.5765
89.4307
80.4879
81.7687
92.3676
82.9463
92.3814
92.4081
78.3313
92.5891
89.87
93.5465
91.2621
107.195
88.768
51.165
91.6988
90.4791
92.9894
80.7521
91.1681
89.3838
91.1268
69.9754
78.8985
96.8031
76.9193
87.5121
92.5904
92.1503
93.1705
92.9155
85.0211
80.7211
95.3646
97.8197
105.024
100.524
93.2702
89.9279
88.4713
85.8958
91.234
96.5605
92.2626
29.6066
82.6961
92.2888
90.7635
107.497
107.658
75.4337
91.424
87.2263
93.9383
92.9666
92.5298
84.708
92.2663
92.6999
91.6113
90.8903
92.2839
92.4051
73.2355
61.0297
87.8257
74.3846
92.2202
73.9318
90.7197
78.7956
96.6591
91.1758
91.0319
92.9844
83.8955
80.4588
81.2424
90.7785
90.8624
93.5721
91.0383
92.9865
87.0278
92.5165
90.0682
104.29
88.2506
104.006
93.9032
94.3295
93.3193
62.2507
107.205
94.3258
91.1256
96.7347
83.5494
97.9626
92.2337
91.5291
92.4906
51.6188
92.3067
91.5079
75.781
91.6708
93.2011
99.4624
86.7677
108.74
91.1914
89.622
100.252
93.022
86.9287
91.2446
92.752
91.2792
96.485
107.384
106.843
56.7921
82.5497
92.4261
91.5166
93.8401
85.8027
100.933
106.328
104.956
82.382
86.151
92.3895
92.508
93.4246
81.1381
93.585
94.3976
96.5095
92.9126
92.1356
66.8787
88.0259
50.7014
92.0151
92.3919
100.819
83.9543
92.4614
92.201
81.9602
70.1192
92.1687
92.2569
92.1103
90.3886
91.5657
77.2302
53.1391
92.3978
92.285
91.9099
93.0418
95.2842
72.553
75.3751
104.493
79.1025
93.5527
92.0399
90.8982
101.311
86.8631
93.6438
92.1607
85.5269
108.266
45.7101
63.9275
85.8689
91.8781
77.5617
92.2926
91.9574
93.7669
92.5527
74.2521
93.5739
92.7906
92.244
91.4921
92.4111
92.1035
81.8551
92.4189
91.9423
92.234
96.2513
83.4512
107.412
106.718
86.8441
92.8816
92.7822
92.1865
105.865
69.3653
96.6131
91.228
92.6033
90.9384
92.6805
70.7335
90.0362
83.9039
91.9534
91.2603
88.069
36.2275
71.0518
33.0996
42.7591
93.7631
81.7351
92.9195
92.8775
92.1249
92.9527
93.5047
93.4147
92.1376
83.0663
100.737
101.012
93.3708
91.97
96.2976
87.1141
85.6986
92.3561
92.1488
106.989
88.7679
94.011
91.8629
92.4426
92.4153
103.482
92.5843
92.9311
76.119
91.292
96.5084
84.3998
87.043
92.8816
82.1892
92.5255
105.769
107.27
92.3135
36.0295
106.27
91.3895
77.1808
91.3432
97.9132
92.0932
92.7295
90.9483
74.8378
8.01937
83.5361
93.6068
81.6358
100.516
51.3484
103.936
76.1888
91.3239
92.3413
91.8372
92.2894
76.0432
91.6759
92.3651
92.5533
92.3401
92.3608
90.8989
75.4015
91.6227
92.5112
92.3147
76.16
91.9762
92.3908
76.1392
89.8856
91.2916
92.6178
92.4583
92.6074
66.8983
93.0004
92.5382
92.3771
91.7678
74.8085
91.3157
92.4845
90.8616
92.1907
91.5201
92.2059
76.1148
92.3646
92.4534
92.1055
92.4603
92.1301
72.8068
91.0392
96.1564
48.7545
91.7144
92.1462
99.773
95.9529
87.6474
91.6847
92.2527
91.3103
91.4547
68.7163
93.5534
44.5218
83.2783
91.1729
72.2781
91.7816
91.8816
92.4557
92.4809
92.0381
92.9662
92.1472
47.1593
69.0806
92.2
108.055
86.8224
91.9356
94.017
94.9479
41.194
91.1826
93.8627
93.5752
94.2816
92.4679
93.3386
60.3172
87.4775
105.43
87.3357
65.581
96.454
91.2792
82.8048
82.1593
9.03494
91.5261
89.3846
92.4677
90.304
88.6693
90.8223
105.075
90.5219
92.3686
92.2538
91.2827
76.0577
91.6844
92.274
92.3307
92.4666
91.9253
92.4096
74.0543
91.7225
92.4538
71.0386
92.3008
76.0843
90.4677
92.5537
92.3599
91.4913
91.1103
76.2541
92.2797
99.1738
78.7654
106.335
96.1404
92.7069
82.7707
87.6539
92.2716
105.149
87.9385
85.9427
103.122
89.1105
92.0747
91.7024
89.1759
105.984
86.5727
65.1524
94.0196
90.918
92.228
91.8851
99.3344
90.1212
91.922
95.3668
95.8773
92.2359
90.9529
92.2096
91.2256
90.948
88.6062
81.8785
92.0353
92.3965
92.2342
90.269
92.1802
92.3665
92.1695
93.1749
91.7343
91.9915
91.688
91.6193
95.5303
83.3674
92.7788
85.4093
92.6301
93.6142
72.6618
92.889
82.0476
100.096
92.8416
101.858
64.6774
92.5898
90.2124
66.5531
91.5811
83.1594
91.6384
92.505
92.517
69.3911
92.3833
87.8334
86.942
92.4429
92.819
88.8625
97.4677
75.0615
85.5982
98.5328
92.3319
91.4274
80.8898
88.215
91.1613
93.0071
91.8381
95.0936
92.2451
75.3578
86.7841
90.117
108.472
91.1889
96.627
85.5668
87.2168
91.9102
92.4023
91.8927
69.0642
87.6153
90.8638
101.024
93.8179
79.4382
92.585
61.6285
105.095
104.657
88.0678
88.9966
84.684
99.2947
90.5986
99.9927
97.4669
103.655
92.2642
84.207
99.7205
106.528
96.2737
91.1687
93.8779
114.933
94.0061
101.195
85.1317
102.409
93.8843
94.427
24.8089
56.8043
92.9705
93.1151
92.4596
91.6759
75.3103
98.7005
92.1121
92.3792
75.3208
93.4452
93.5667
94.8677
94.7818
93.4412
94.8154
93.6236
92.1015
93.3343
93.1725
94.7246
94.5079
93.3363
94.6708
92.9727
93.0832
92.8438
96.4195
96.3856
91.2519
41.1497
96.4673
91.2488
91.2333
96.5443
91.8003
89.1874
93.6596
93.5769
92.3305
92.0845
91.8747
94.8426
93.6862
94.1486
93.8967
91.1869
96.6353
91.1931
94.1669
93.0693
70.0554
100.99
94.2051
53.9577
91.775
65.7015
92.1594
94.1652
92.1726
93.8636
91.8138
91.4234
91.4464
96.7005
91.1348
96.569
91.22
90.3871
100.267
88.8255
84.1006
79.94
93.4429
99.6931
90.2555
89.9122
100.074
99.6517
79.769
91.1259
92.2688
89.4006
88.9637
100.693
100.534
89.3138
93.6608
100.107
89.6851
101.007
88.8452
88.9798
89.6215
82.8896
93.7382
45.9572
89.6235
93.5937
93.4674
87.8115
81.1347
92.3267
93.6275
100.474
100.78
93.0379
45.7243
88.3456
89.6321
89.3308
86.8662
93.3606
92.7875
92.1694
99.4478
93.8269
44.7776
92.7173
93.3064
92.0805
85.3251
41.6688
89.8696
105.128
82.9434
56.1324
92.196
92.9744
89.9074
93.8612
100.946
85.3863
81.2211
41.4314
41.8972
74.462
93.9285
61.3229
87.2376
92.8395
91.491
92.4474
94.0836
92.1892
74.1863
92.4075
107.318
94.4261
50.8214
94.0842
96.7168
91.9912
91.9686
92.9704
91.914
76.0284
91.14
92.9614
92.3729
90.9456
91.2345
92.2455
89.9144
94.0211
92.6268
91.9356
92.2725
92.3239
81.7028
94.51
92.3655
93.838
92.0541
93.8642
85.8921
100.989
92.962
96.8246
91.0806
93.6524
91.8995
92.2824
82.5014
92.2955
92.2578
92.2185
92.6545
93.0141
92.7926
40.4119
91.8366
92.8127
92.257
91.7749
93.2456
93.1118
93.4604
91.8058
92.4319
92.1296
92.2351
92.2659
93.6566
92.9471
91.3256
94.0621
91.8637
92.363
91.9379
91.8787
92.8732
92.9361
93.2071
89.7553
91.8568
92.7556
92.3101
92.9047
91.0598
92.8549
92.4126
74.582
92.0786
91.6095
85.8386
93.888
101.041
96.8062
91.1296
92.8799
92.0541
91.8676
107.188
77.501
93.6511
93.6349
91.7992
93.1866
91.9999
91.0499
90.9164
91.723
92.5426
91.658
39.3956
107.744
92.2401
92.8864
90.5393
89.8775
74.8775
91.9524
92.417
107.056
93.8944
93.703
92.0383
92.5953
75.3062
91.824
92.4172
101.128
85.6865
93.9167
106.777
78.7376
94.2294
93.8148
93.754
38.4848
107.588
90.9248
89.4474
93.6885
93.6769
89.9548
89.2597
93.0705
95.7848
94.9683
92.6365
75.0704
91.7786
92.4378
92.9266
93.8814
92.7158
106.906
81.651
92.2917
38.7236
43.3698
91.0408
108.09
96.4182
91.2542
93.715
90.8089
89.8227
90.0876
89.0881
95.3336
92.61
92.6804
85.6565
101.233
93.8515
104.949
94.1146
93.7343
92.3678
86.3625
86.9547
94.4342
93.9077
94.6043
94.6346
90.3465
88.4923
94.1138
93.5426
95.7392
92.626
75.44
91.61
92.4324
86.3294
101.259
93.7126
106.752
79.9649
80.3177
74.9978
94.0911
93.6778
94.1043
94.1044
92.3235
42.5949
91.384
96.5469
95.9902
76.4417
107.808
97.1517
92.622
91.9268
90.3315
91.9733
89.6034
93.4085
82.1165
96.503
89.9909
89.7193
99.1954
86.5655
92.4874
93.4739
91.2068
88.0944
93.5857
92.5301
92.5008
92.6456
75.6483
91.5193
92.4747
92.8536
93.3892
86.5904
91.9465
96.9105
96.7698
104.704
91.6597
81.2672
94.198
93.6882
93.8625
92.3516
38.7086
91.7113
91.8593
86.8026
97.6807
98.5346
88.9881
91.3586
96.8387
96.5853
91.0613
91.269
96.3429
86.2481
83.5521
91.9334
91.8544
92.0956
92.2255
94.2156
95.7797
89.293
90.8463
88.3693
93.7203
85.6758
93.7397
94.3102
90.0542
92.177
106.876
91.8643
91.6695
86.2119
94.982
94.5716
94.6759
95.4602
92.7266
89.9471
63.3461
61.7012
90.9255
92.1491
75.6885
91.4348
92.4415
91.8731
91.9076
91.9453
85.9623
101.371
93.5281
92.3494
92.427
93.2468
92.4924
93.5093
93.505
91.6754
93.5201
91.9719
87.9782
83.4307
95.2957
64.5345
82.4669
91.929
101.018
92.6778
92.3071
93.1686
106.6
78.8287
94.4289
93.8236
87.197
87.2465
93.8943
75.545
91.7086
92.3241
92.4503
82.788
93.7072
92.0069
91.84
92.3885
107.715
91.6775
93.9438
96.5843
91.6873
88.2561
91.9196
91.8963
63.4938
95.2381
95.7579
92.6194
91.7907
92.4552
93.6649
95.0104
89.3246
93.5089
87.3098
92.7033
94.1247
90.6675
92.3198
107.928
109.278
91.7415
81.1133
92.5665
90.2444
107.481
92.5157
93.3913
92.2665
93.8485
106.222
87.8976
92.5632
96.3223
91.1805
88.2899
93.7797
91.7937
92.0425
94.3763
92.5264
94.8807
92.5005
70.4291
96.9246
104.894
74.7332
91.7766
93.0505
61.4504
91.3059
90.9858
92.1384
96.3061
92.4815
93.3581
90.1787
94.5767
94.6679
81.0899
87.3522
89.9063
89.7756
86.8239
92.471
93.3087
75.865
91.316
92.4938
87.9708
77.3273
94.3226
86.0257
92.4252
96.5786
94.9395
94.1758
95.7319
91.8834
92.5498
87.8236
89.5525
78.8448
93.7276
92.6303
93.8436
93.9324
91.9288
94.4099
100.532
92.7775
102.222
72.2212
93.8813
92.6962
89.709
68.1109
92.3168
85.7876
93.0526
62.0797
104.218
86.5724
101.415
93.4669
91.7462
92.2679
94.857
94.0751
86.5458
100.604
93.8576
76.9268
88.0009
101.826
92.7104
96.6419
93.6078
72.7824
92.2818
92.4344
106.463
83.2668
86.7639
93.5092
78.4338
48.7244
91.8314
94.3609
93.6691
94.1094
92.3588
95.3496
85.4725
92.1185
92.3038
93.9302
91.9455
91.8114
93.6576
92.7551
93.6665
94.8639
42.624
88.2287
92.4229
102.87
96.2129
74.8949
91.3938
34.998
89.9938
86.7581
91.0737
93.7378
87.6624
107.052
76.8291
69.3247
91.637
104.557
86.4456
76.3195
93.1174
92.335
93.5044
92.854
92.487
92.0021
84.4085
92.5854
93.4664
105.718
94.5589
94.0114
78.6814
92.4776
96.4391
92.3763
91.9666
88.4695
90.4909
88.6963
103.57
90.8865
94.0626
94.0495
94.3078
96.0296
93.4148
107.992
91.8363
66.9951
90.4875
92.3748
64.8672
107.275
92.0801
91.9401
92.9541
89.6124
90.787
90.9519
92.0348
95.9026
81.2864
95.265
64.7163
86.04
92.1173
86.5874
97.8942
94.0291
55.8277
93.7956
93.1556
76.3815
84.4197
96.3421
63.9986
92.6667
93.9058
91.7982
91.7798
89.0284
77.6561
93.8509
92.4366
93.188
95.456
92.3529
92.8602
88.0566
93.6582
94.9378
90.8029
91.1082
88.4142
91.1049
81.3507
80.5847
84.1443
78.3621
91.1119
92.3881
72.4262
96.0835
92.6984
92.0539
95.4545
101.888
93.6524
94.6237
92.5319
88.1924
83.8669
93.4191
72.6115
91.6126
93.1454
84.6547
101.752
83.1842
63.9412
59.7824
89.7663
93.9967
87.181
92.3472
97.0499
94.5395
88.4502
102.413
92.1943
89.7087
90.5166
75.8283
91.1878
92.4464
90.1409
90.764
87.5638
96.3492
91.846
93.2506
87.4495
92.5357
93.5357
91.7797
84.3413
96.167
91.7871
89.5572
96.8071
88.2385
92.8084
75.5713
90.9722
92.5096
106.424
102.269
93.443
74.7016
99.218
100.434
100
93.7494
92.1122
91.4717
87.1918
92.4816
90.3555
86.6567
107.566
93.804
91.698
93.8023
86.3262
101.176
92.3179
92.1306
88.2998
94.8096
92.2578
92.2735
92.634
79.9157
42.9188
66.923
91.7809
95.5479
80.0668
95.8727
92.6469
90.2707
86.4858
90.2904
103.064
89.5521
92.1218
93.3504
92.4187
93.0238
92.9
90.072
93.4949
75.8628
100.072
92.3902
92.3652
93.0061
105.859
92.5606
75.9387
79.8264
87.8664
107.074
103.873
92.127
88.4485
89.4221
92.5408
70.4614
92.9712
19.8251
92.3591
104.236
79.2859
91.9305
91.854
86.5957
114
95.3003
75.2964
90.677
92.3215
91.7534
101.381
91.2505
96.5123
91.816
86.5943
92.7676
92.3828
92.8159
93.8965
81.3429
107.764
101.312
91.0303
91.7946
92.5353
93.4938
89.2287
92.0357
93.1251
88.0684
91.0676
89.433
91.7721
93.042
89.697
107.415
91.6533
91.3763
81.4995
70.2338
37.4015
93.6043
92.5727
75.5576
90.7666
92.4275
92.7259
92.4049
94.1763
93.0385
86.2477
92.4427
92.4275
92.5869
92.3228
80.094
89.903
89.0855
94.079
88.5263
91.96
91.7992
88.4927
83.4976
93.7533
92.2049
96.5495
92.2717
93.2364
92.4266
81.6872
92.7925
92.7716
93.7851
104.645
104.229
93.1341
91.8024
92.255
92.3876
90.6507
84.4995
82.9921
85.7584
90.6779
89.3135
99.4382
91.8367
77.4163
90.9642
91.9079
92.7056
92.0299
82.8257
92.1369
94.2112
102.352
92.4477
89.4584
91.91
92.6596
92.5268
89.5721
64.6211
92.541
95.3764
88.8292
91.0098
76.2753
88.4882
73.5806
87.5342
92.2433
92.023
92.1442
92.7042
93.7903
82.2321
83.0613
91.4995
93.0963
90.3237
92.2033
92.7052
93.7617
91.9722
62.4713
92.4691
89.2123
91.4312
92.0395
90.1446
91.2626
87.0826
85.997
83.0079
72.8976
90.8112
92.9171
92.8352
90.7588
80.2063
93.2092
92.0817
93.6523
92.6193
96.008
107.749
83.8281
34.591
85.8431
90.3054
94.2628
96.0599
72.9394
89.9931
92.1474
91.8066
89.0911
92.2827
82.3282
86.8286
100.426
92.3111
91.8754
87.3641
66.853
107.466
91.2222
91.6438
92.3195
95.8856
104.511
87.8919
90.4722
89.594
72.4252
106.234
85.1566
94.8195
92.2643
101.865
73.1637
86.2108
65.8945
89.9441
91.5411
89.8756
78.6427
90.4437
92.6764
91.9869
92.4912
93.4984
65.0418
94.2805
92.5926
92.2972
93.1011
91.7135
91.2588
92.5404
91.1791
92.2474
79.476
66.9036
92.1283
92.1951
83.2261
92.0791
105.152
69.8267
87.9673
95.4808
31.5112
95.7561
102.578
91.9989
77.8107
85.3353
93.4108
92.1043
91.8388
94.3941
91.6609
93.1314
92.4566
91.9902
105.66
88.2207
81.5197
92.2115
88.5055
108.452
91.2636
96.4578
91.9724
92.861
93.9438
96.6952
92.0382
88.2916
74.1957
90.0472
92.3578
90.6012
76.2727
91.8986
91.487
87.3662
77.9883
94.9362
94.6648
93.8332
49.2487
82.5803
94.9628
93.6602
83.5613
107.494
60.5034
100.64
97.3497
73.496
90.3233
92.5153
91.9626
88.4972
72.313
90.5741
92.1464
91.4227
92.512
106.861
115.131
94.5521
102.804
96.7504
107.727
76.5997
93.6403
92.6549
78.828
94.8515
91.2094
95.2525
92.631
92.5132
92.4584
91.8164
108.082
93.2887
101.195
84.2716
94.0748
94.0192
94.8027
89.9568
91.8002
91.3706
75.91
92.4048
91.8708
93.0705
92.2776
91.4717
91.2341
96.5367
90.3716
82.7357
83.7096
32.4149
108.055
92.2703
91.8421
92.8007
92.672
92.2773
93.8229
51.9765
88.1273
91.9559
90.5754
94.7712
97.6506
93.7348
87.0626
101.218
88.0501
92.6472
91.9409
83.6183
27.8337
93.834
85.0692
100.881
85.5974
86.1681
84.2483
80.4731
86.072
85.036
88.3712
75.1644
106.334
91.9579
85.8829
92.0559
84.0584
35.8421
92.8901
92.1282
92.8664
92.2817
93.4588
93.0161
91.8152
94.9537
93.5372
92.1034
92.7158
104.128
93.9153
93.0913
92.8445
92.0946
92.673
87.7418
91.6473
92.1521
92.6238
90.7
94.6681
90.8131
94.2866
96.3624
91.2496
83.4066
84.2191
106.471
92.0788
92.7973
86.6353
101.302
85.1927
93.6023
88.0266
92.3209
92.6073
93.1456
106.928
93.7754
84.0284
92.4185
87.9851
84.8515
106.165
107.785
93.2204
76.6005
90.4235
96.3337
90.632
87.444
84.3177
85.1608
89.8884
92.2644
91.8744
91.8644
91.7498
71.3443
73.568
107.472
80.2702
92.9643
92.1973
93.0626
85.9371
110.622
96.1224
90.6141
103.542
92.3346
103.292
99.7799
90.6298
106.717
91.3833
107.89
84.4937
93.0277
86.7633
88.2001
92.2858
99.7401
93.6723
84.3436
21.9231
92.0281
105.906
95.6936
90.6464
94.9923
91.8143
87.8055
106.454
107.64
78.6064
95.1984
87.4528
72.1487
90.9687
93.1189
92.9104
92.3615
92.2484
86.6293
93.8245
92.6377
90.2731
90.7452
86.496
107.133
94.8924
89.5144
91.7622
83.1827
90.008
82.69
82.9954
91.3253
95.1021
94.3541
92.6035
91.6441
95.0095
92.293
92.0075
108.07
90.4058
104.934
98.6672
94.2343
91.9258
92.2496
92.8891
90.8402
92.8392
107.945
80.6127
94.9365
87.397
95.2109
100.549
82.2618
93.7455
93.9981
94.6149
91.0395
92.8907
93.2415
75.6169
95.7837
95.809
93.9545
93.0119
90.0371
92.437
102.689
87.3686
86.4606
92.9324
92.8467
93.2517
93.2802
93.1866
90.7828
93.6273
91.8658
89.593
87.8049
95.1312
43.1928
93.4222
91.836
83.613
91.082
76.0751
92.3295
107.052
91.4956
107.6
92.3109
92.0899
90.7063
59.3673
92.5525
92.4965
82.5926
89.7989
86.0804
101.386
93.5141
89.1184
91.7894
77.8165
92.8644
93.4835
53.1284
49.9537
93.3319
92.4139
94.2648
94.0508
92.8275
89.6689
69.4375
92.8744
92.0274
78.8538
78.3919
94.785
90.6179
94.883
93.9027
106.348
93.571
93.2582
92.5408
93.7681
91.8983
92.5653
93.5777
93.1019
86.1778
101.259
84.3771
93.9552
92.4878
74.2115
37.4775
92.1803
92.2462
85.9008
104.964
91.1842
86.4645
92.6292
90.9419
90.1686
96.1334
90.7145
86.1834
91.7982
95.7354
91.3342
76.0074
92.3687
90.5758
92.0133
86.2285
95.2319
93.5197
92.7805
97.3428
91.1862
86.6825
93.6738
89.1281
100.903
84.5761
93.8782
94.5304
88.9491
89.6742
93.4062
92.741
91.894
84.7627
92.5352
96.9711
105.585
122.081
87.3924
84.76
106.221
94.9699
91.2771
89.8006
104.769
92.3211
82.4929
7.34853
83.268
93.9509
88.1378
92.3872
90.6984
92.224
75.9053
92.3434
82.3883
93.6173
90.5142
93.1093
79.2361
93.916
106.449
77.6331
100.112
96.5591
91.1981
74.3742
90.4513
91.5686
92.3992
95.237
88.5445
75.0517
86.5653
28.6941
101.106
82.8029
94.4456
88.9034
89.706
93.261
92.3673
92.0427
96.2624
89.7696
89.7271
92.6226
90.5925
87.0998
94.8431
90.7057
91.8339
89.3352
103.924
92.4274
89.9068
91.8347
91.9056
83.2132
101.691
92.9038
79.8895
94.2448
87.8402
86.9709
92.3278
94.8143
91.7931
92.1291
92.6096
90.9586
88.7282
106.107
89.1641
91.9392
107.74
91.4054
85.7457
92.0584
67.6517
84.3085
84.3046
92.4666
82.0803
92.4757
81.0281
81.1247
84.4413
82.5911
91.0164
91.6128
93.5179
91.9216
86.3602
91.0279
92.2574
92.4657
92.2091
61.3386
75.9441
83.606
91.2364
91.9329
81.3062
82.5847
92.3048
81.8487
92.4648
92.0342
97.8222
46.2601
74.4602
89.5301
91.6243
92.796
92.3291
91.5125
75.9677
92.369
90.0578
76.5029
91.2801
106.169
89.319
91.9314
66.4201
87.524
93.6888
79.8582
58.9759
93.924
88.6709
96.3075
90.3038
92.4107
88.3063
101.271
101.295
85.1678
93.7825
93.222
92.3538
92.219
91.7409
96.3997
107.841
83.1618
94.9781
104.123
87.4265
93.5677
93.5451
91.8002
92.098
87.7439
92.1103
84.8497
96.602
90.8972
85.4601
80.9394
86.515
87.6265
107.226
85.5369
86.63
92.0618
91.1237
90.7447
102.254
107.109
91.57
92.3163
94.7992
99.4168
93.5021
93.7259
92.0835
92.2964
75.772
96.6094
91.4105
95.0897
50.1629
94.7548
93.8219
84.1452
100.841
91.9574
91.8084
93.4354
93.6408
95.0598
99.2307
93.5791
94.8549
93.3901
59.7792
92.1902
92.3438
81.3933
57.4055
15.1601
96.398
49.878
96.7645
90.7347
59.9484
92.2934
94.5671
92.3162
91.9687
92.3474
89.6772
91.0494
110.32
87.3089
107.568
90.8096
89.3563
90.9445
91.5531
92.1112
89.5964
47.8085
103.335
83.2043
92.1637
92.5922
95.5926
87.1059
96.0415
85.823
91.935
81.7694
81.0655
87.1554
87.4297
38.277
92.6051
74.1793
90.7595
93.3025
93.8363
91.3502
92.6939
75.7
46.1956
93.4554
86.9636
93.9324
92.4277
89.6745
91.2263
96.3221
92.4138
77.172
98.9307
92.7998
93.2951
90.9535
91.3254
96.4928
80.3486
91.7424
106.295
104.96
90.8366
88.8382
95.7183
90.0858
75.86
91.4938
92.3076
106.423
81.5654
94.9741
85.8323
90.3073
96.2129
92.6149
97.8223
47.5539
101.022
93.6244
84.4095
91.6278
92.3775
105.949
92.1809
91.1997
96.2452
90.0225
93.0291
71.4353
36.8126
98.4449
87.1934
92.3241
88.7859
90.4624
89.4087
96.4755
90.6722
91.33
92.2882
92.7
89.5865
106.616
93.7261
95.7317
86.7703
91.6832
47.6565
92.929
85.7583
101.229
93.4582
91.6602
89.499
82.0049
95.2709
92.3239
88.9148
75.0692
92.0364
90.1026
97.0052
107.042
92.0833
91.8015
92.3739
91.9548
93.4425
93.0625
92.5758
92.5103
96.9189
90.86
89.8045
82.4561
89.1982
92.3668
102.825
58.961
92.4861
49.3828
90.8615
88.8973
79.9256
78.7731
91.8319
90.8757
67.5297
90.095
103.696
93.6663
83.3299
100.805
106.006
107.79
92.6026
91.5255
87.5422
88.0336
94.841
90.4695
92.7698
93.3992
92.2259
100.483
100.39
84.395
85.9423
92.2413
91.3137
82.6738
92.18
92.3072
85.4149
92.171
87.6036
107.29
94.4664
94.328
94.6434
92.0469
95.1697
95.8856
79.4522
92.7493
91.5146
75.8744
92.3841
93.6067
93.5261
92.4053
93.659
92.2566
92.8117
74.8582
92.9375
92.6682
87.5941
99.1639
92.4535
92.9868
93.1939
92.4821
98.3118
105.537
92.5576
89.6514
104.191
93.7817
84.9929
91.9761
87.9954
91.7161
92.4
92.2845
91.7689
91.84
86.4292
91.611
92.2068
107.831
90.6743
92.3294
88.0037
92.4733
87.2934
90.2579
93.1019
86.2292
92.2007
80.7225
105.353
89.616
95.6124
93.6277
94.615
92.6939
92.1238
91.0057
92.9115
89.7401
92.829
92.7949
92.4492
45.4552
59.0335
108.011
91.6368
90.3107
92.5189
105.639
69.8681
47.1995
82.3114
92.5487
91.8504
92.7702
85.9837
92.7457
90.3991
78.168
92.8288
74.6737
89.5489
92.8822
93.7542
92.1161
82.1362
106.186
91.7655
86.7802
92.6792
92.2642
92.6756
88.6158
100.889
83.9406
93.8878
81.4597
95.2191
97.8307
93.7706
80.9436
106.053
92.4162
89.5525
92.4483
95.042
106.312
94.3217
91.8656
95.1592
93.2039
92.4314
92.7401
90.4703
107.847
83.9466
92.7349
89.3177
75.6896
82.7851
91.7845
93.6471
94.7581
91.7052
92.1553
90.6471
38.8871
92.1249
93.1006
95.0377
106.425
87.2257
86.5117
92.3519
107.933
91.3126
97.2684
90.3532
32.845
51.9338
91.2685
42.2835
92.4341
32.1658
94.966
98.6637
86.8122
95.641
92.7431
92.7552
92.6781
92.7317
91.082
90.7859
91.364
91.5276
92.7193
91.6669
58.6736
92.5706
92.6834
93.0137
92.8446
52.645
92.4769
94.4325
88.6608
89.8743
89.2773
88.1834
63.9321
45.8006
87.8688
72.4157
68.3439
87.7842
92.3634
82.9351
84.4963
83.868
81.8695
94.5856
91.7825
84.8598
94.3917
92.7043
95.6619
94.903
95.9622
95.2922
85.1366
97.5153
102.019
102.231
92.1935
97.8542
97.2696
87.7416
97.0525
98.2536
101.847
102.59
99.2756
98.7513
103.118
103.732
104.667
104.277
96.8521