/*--------------------------------*- C++ -*----------------------------------*\
| =========                 |                                                 |
| \\      /  F ield         | OpenFOAM: The Open Source CFD Toolbox           |
|  \\    /   O peration     | Version:  v1912                                 |
|   \\  /    A nd           | Website:  www.openfoam.com                      |
|    \\/     M anipulation  |                                                 |
\*---------------------------------------------------------------------------*/
FoamFile
{
    version     2.0;
    format      ascii;
    class       volScalarField;
    location    "0.27";
    object      nut;
}
// * * * * * * * * * * * * * * * * * * * * * * * * * * * * * * * * * * * * * //

dimensions      [0 2 -1 0 0 0 0];


internalField   nonuniform List<scalar> 
1466
(
0.000607075
0.000805753
0.000747393
0.000590458
0.00109533
0.00173177
0.000869393
0.00106295
0.00271784
0.0011489
0.000314164
0.0019252
0.000111149
0.000655611
0.000726133
0.000848972
0.000123096
0.000785938
0.00206272
0.000609643
0.000889107
0.00127236
0.000538416
0.000810269
0.000699224
0.000625884
0.000857103
0.00249911
0.000546571
0.000489536
0.00109385
0.00327972
0.00185036
0.00091993
0.00100401
0.000617531
0.000656144
0.000487
0.00221992
0.00134614
0.00187245
0.00127655
0.00244961
0.00131127
0.003269
0.00153381
0.00059057
0.000493655
0.00113006
0.000859392
0.000655744
0.000768625
0.000584827
0.00118512
0.000701237
0.00263675
0.000389124
0.00131678
0.000508713
0.00253877
0.000732798
0.00050303
0.000880864
0.00236269
0.00133633
0.00065998
0.00263514
0.000908247
0.000608073
0.00128379
0.000547624
0.000606711
0.000408773
0.000656936
0.000146461
0.00228975
0.000659398
0.000687833
0.00103512
0.00247332
0.000400935
0.000590389
0.000691712
0.00101256
0.000456852
0.000809155
0.000462761
0.00155968
0.000666844
0.000849408
0.000576413
0.000246141
0.00221997
0.000547282
0.000750398
0.000820665
0.00108973
0.000765545
0.000918869
0.000563829
0.000589041
0.00300227
0.000910149
0.000586786
0.000604051
0.0014121
0.000896983
0.000667518
0.000836662
0.000778369
0.000374801
0.000504332
0.00127907
0.000513894
0.000138324
0.0021769
0.000380749
0.00053717
0.000856489
0.0019395
0.000916441
0.00077619
0.000344975
0.00149526
0.0007146
0.00145584
0.000810693
0.000519661
0.00218261
0.00316108
0.000849537
0.000648424
0.000853611
0.00255951
0.00078598
0.00230194
0.00152198
0.000531128
0.00333531
0.00040609
0.000765739
0.000252517
0.00193072
0.00182625
0.00334079
0.000359645
0.000457084
0.00062335
0.00218347
0.000426485
0.00196482
0.000999
0.000867597
0.00124615
0.000628318
0.000521221
0.000633858
0.00161217
0.000725948
0.000670132
0.00316063
0.000611322
0.00138748
0.000871616
0.00277873
0.00212372
0.00369891
0.000374139
0.000720664
0.00104249
0.000748244
0.000794547
0.000916359
0.00179345
0.00078438
0.00130479
0.00252015
0.00241238
0.000753346
0.00233839
0.000795196
0.000659319
0.000881031
0.000690721
0.00145839
0.000567404
0.000662113
0.00178157
0.000623102
0.000479405
0.00049471
0.000310132
0.000641729
0.00137974
0.000636286
0.00063375
0.00328707
0.000840432
0.00069599
0.000668981
0.00165702
0.000725515
0.000636119
0.00070573
0.00106344
0.00158608
0.000668165
0.00120445
0.000628196
0.00090628
0.00101377
0.00189883
0.000747853
0.000638372
0.00088136
0.000643561
0.000804867
0.000231883
0.00061317
0.00062324
0.00160529
0.000759662
0.000757376
0.000606397
0.00155517
0.000660775
0.000607726
0.00100982
0.000839623
0.00383177
0.000635261
0.00138023
0.000653453
0.000679306
0.000707625
0.00102939
0.000746611
0.00074809
0.00078273
0.000804454
0.00337544
0.000769674
0.000248665
0.0017727
0.00223841
0.000268105
0.000242598
0.000264566
0.000247096
0.000273662
0.000608614
0.00239743
0.00126401
0.00125334
0.00069496
0.00231839
0.00062799
0.00343588
0.00147179
0.00243682
0.000673347
0.000585417
0.00270285
0.00071325
0.0013079
0.000799885
0.00173786
0.00136158
0.000694527
0.000615559
0.00209621
0.000803488
0.000645478
0.000603324
0.000544217
0.000744724
0.00120935
0.000764214
0.000569526
0.0019171
0.00092847
0.00025788
0.000274255
0.000651957
0.000784603
0.000551051
0.00102687
0.000276537
0.00154084
0.00049091
0.000694526
0.00109972
0.00133496
0.0019493
0.00117189
0.000822757
0.00160374
0.00128848
0.000832184
0.000480995
0.000278291
0.00186316
0.000801254
0.00130623
0.000936597
0.000911664
0.000637484
0.000808397
0.00018093
0.00209808
0.00400268
0.000777593
0.000759622
0.00163831
0.00100157
0.000642273
0.00157463
0.000484688
0.00257732
0.000852757
0.00070562
0.00217139
0.000860389
0.00032875
0.000236344
0.000298828
0.000199448
0.000301484
0.000217876
0.000348678
0.000307368
0.000318338
0.000206505
0.000380327
0.00020798
0.000320429
0.000122897
0.000362133
0.000443613
0.00027998
0.000521288
0.000386421
0.000262672
0.000226495
0.000376588
0.000208675
0.000551641
0.000254955
0.000401782
0.00194744
0.00160576
0.000707174
0.00203666
0.000755604
0.000760213
0.000680567
0.00179736
0.000591761
0.00214833
0.000889884
0.00155931
0.00243151
0.0019535
0.00040472
0.000576637
0.000410735
0.000203812
0.000211566
0.000379642
0.000621822
0.000226131
0.000193905
0.00058117
0.000314486
0.000276854
0.00021598
0.000276789
0.00126488
0.000565245
0.000168597
0.000541607
0.00132472
0.00163572
0.000786888
0.0011663
0.00101793
0.000356744
0.000744171
0.000755804
0.000725879
0.00101418
0.00310335
0.00146416
0.00132142
0.000222864
0.000649773
0.00165543
0.000436999
0.000580077
0.000136536
0.000536114
0.000711607
0.0014501
0.000716199
0.00162647
0.000778558
0.00197116
0.00189401
0.000698704
0.00077792
0.000764742
0.00122666
0.000167902
0.000534158
0.00296858
0.00166411
0.00196258
0.00261575
0.000902486
0.00125596
0.00243866
0.000246971
0.001414
0.00175977
0.00141157
0.00145845
0.00213027
0.00169521
0.00138215
0.00104921
0.00106681
0.00068218
0.00206264
0.00141789
0.000629309
0.00109492
0.00255143
0.00122126
0.00225091
0.00216313
0.000643512
0.000663209
0.00177711
0.00198395
0.00247942
0.00265004
0.00220742
0.00300289
0.00119628
0.00263963
0.00136612
0.00330802
0.00137748
0.00223972
0.00203818
0.00184565
0.00314001
0.00305768
0.000356326
0.00249866
0.00221758
0.00203839
0.00209466
0.00239607
0.00173241
0.00065068
0.00117409
0.000669582
0.000899687
0.000213978
0.00148633
0.00218097
0.00224135
0.00152667
0.0036106
0.0014215
0.000277348
0.000248211
0.00223578
0.00258889
0.000857566
0.000654332
0.00303264
0.000739907
0.00189059
0.000855342
0.000677012
0.000589778
0.00334073
0.00237526
0.00228075
0.000775954
0.000742717
0.000569216
0.000789952
0.00286061
0.00278193
0.00191905
0.000646339
0.00064949
0.000668486
0.000805758
0.000645163
0.00114416
0.00058511
0.00157138
0.00205452
0.00241633
0.00257328
0.00256448
0.00223458
0.00261628
0.0022108
0.002187
0.00124493
0.00248334
0.000640474
0.000795905
0.00220013
0.00210709
0.00201704
0.00250866
0.00176357
0.000530617
0.000368942
0.000801829
0.00175049
0.0017642
0.000253383
0.000697844
0.000951437
0.00180615
0.00268517
0.00274661
0.00182375
0.00198667
0.00313401
0.0016916
0.000831767
0.000583303
0.00186098
0.00174345
0.00232961
0.00168801
0.00268565
0.000978198
0.000242916
0.00251271
0.00209821
0.000526315
0.000911052
0.000553118
0.00141418
0.00210797
0.00197846
0.00297046
0.00130669
0.000612724
0.00201087
0.00203491
0.000781659
0.000448287
0.00211454
0.00286983
0.00187212
0.00232543
0.000705706
0.00108159
0.00263088
0.00183272
0.000440585
0.00154065
0.00245433
0.00327969
0.000722462
0.00240355
0.00112403
0.000641489
0.00244739
0.00234849
0.000566164
0.000909769
0.00187953
0.00160887
0.000572952
0.00176584
0.00243564
0.000867204
0.00109666
0.00350868
0.000327883
0.000359146
0.00254163
0.000908252
0.000521445
0.000879485
0.00231545
0.00200663
0.00184732
0.00172262
0.00113753
0.000472806
0.000998598
0.000865291
0.000544157
0.00223713
0.0019723
0.0008013
0.00338482
0.00160798
0.00224721
0.000865831
0.00343798
0.00143689
0.000709985
0.000709555
0.00302566
0.000745463
0.00125483
0.000627331
0.00094689
0.000698459
0.000925181
0.00152139
0.000906121
0.00254927
0.00061398
0.00106317
0.000717305
0.00103645
0.00278803
0.00239876
0.00085256
0.000347509
0.00199467
0.00221964
0.00177354
0.00140543
0.000489959
0.000962439
0.000712594
0.00203798
0.000400435
0.00206667
0.000694574
0.00303573
0.000860504
0.00181595
0.0020075
0.000689722
0.000997574
0.0010344
0.00197
0.00258397
0.000976926
0.00324761
0.00307912
0.00157241
0.000658057
0.000782949
0.000890692
0.00164804
0.00322367
0.00124939
0.00348781
0.00117624
0.00272932
0.00070532
0.00107127
0.00111521
0.000631165
0.000824193
0.000316776
0.000872166
0.00026819
0.00034103
0.00346762
0.00115242
0.000908882
0.000825331
0.000641987
0.00093053
0.000170071
0.000902507
0.000880658
0.0007115
0.00199561
0.000779789
0.00022039
0.00183341
0.000628125
0.000616692
0.00199449
0.0007634
0.00146756
0.000606896
0.00239885
0.000734156
0.000832457
0.00196845
0.0022291
0.00088852
0.00201543
0.00206737
0.00164112
0.000760583
0.00208818
0.00102461
0.00231396
0.000528557
0.000975911
0.000248952
0.0028698
0.000504291
0.00101008
0.000619335
0.00239404
0.0012999
0.000611709
0.000837991
0.00171659
0.00208531
0.000826696
0.0021322
0.00335311
0.00072596
0.00179974
0.000927121
0.00173288
0.00327464
0.0032476
0.000917295
0.0011393
0.000133214
0.00014071
0.00389689
0.000131441
0.000159408
0.000416836
0.00147048
0.000347029
0.000133879
0.000142481
0.000208058
0.000467773
0.000838582
0.000243305
0.000859081
0.000765646
0.00291939
0.000793324
0.000267005
0.000528884
0.00158251
0.00203171
0.000967662
0.00183317
0.00392106
0.000764743
0.000572267
0.000187472
0.000870258
0.000936069
0.000893708
0.000746243
0.00346998
0.000936193
0.000223551
0.000811622
0.000728539
0.0019001
0.00178534
0.00064827
0.000206405
0.00146445
0.000646867
0.00101614
0.00269342
0.000980346
0.00301235
0.00241943
0.0021048
0.000145104
0.000256606
0.00185493
0.000896229
0.000891395
0.00077612
0.00076704
0.00031186
0.000688127
0.000783939
0.000815364
0.000679899
0.00115504
0.003343
0.00124067
0.000715344
0.00161453
0.000283831
0.000639924
0.00170843
0.000898879
0.000766348
0.000790278
0.000214168
0.00207425
0.000500999
0.000863112
0.00252102
0.00219169
0.000238918
0.0009231
0.00190629
0.000746853
0.00302327
0.000612535
0.000232393
0.0011881
0.00318905
0.00254287
0.000885122
0.00227455
0.00198588
0.000222241
0.000243461
0.0007575
0.000745814
0.000528091
0.000585577
0.000599681
0.00130692
0.000806457
0.000267162
0.000972276
0.000736997
0.00250921
0.00130981
0.000555726
0.000671003
0.000178419
0.000597616
0.00247742
0.0032484
0.000299995
0.00196748
0.00265366
0.00281294
0.00242072
0.00197621
0.0022591
0.000787211
0.00187958
0.00225904
0.000141931
0.000676189
0.00128645
0.000238411
0.000620523
0.000165933
0.00277197
0.000291028
0.00130922
0.00127205
0.000972533
0.000478829
0.000594947
0.000891363
0.00184972
0.000639295
0.000995377
0.000196839
0.00174135
0.00149223
0.000659134
0.000767634
0.00063915
0.00134564
0.00205825
0.00251963
0.000664438
0.000763718
0.000725963
0.000921855
0.000588022
0.000624531
0.00118836
0.00299195
0.00243204
0.00156857
0.00069323
0.000763283
0.000518713
0.000654232
0.000906838
0.00180508
0.000652797
0.000712017
0.00129398
0.00186891
0.000768003
0.00087871
0.000663696
0.00157952
0.00193059
0.00015606
0.00077417
0.000678366
0.00288874
0.000937445
0.00104501
0.000432214
0.00344428
0.000251735
0.00107948
0.000200123
0.00121529
0.000642093
0.00168524
0.00107347
0.00101568
0.000708757
0.0023198
0.00168693
0.00264244
0.000718467
0.000770826
0.000789536
0.00119416
0.000952538
0.000677333
0.00106964
0.000859814
0.00242636
0.000224098
0.00170626
0.000780748
0.00278763
0.000818561
0.000189909
0.000182888
0.000164945
0.000175766
0.000393028
0.000374747
0.000376274
0.000332269
0.000198076
0.000294537
0.000293686
0.000206837
0.000212218
0.000213354
0.00078229
0.000208557
0.000204583
0.00194892
0.000246491
0.00215379
0.000155389
0.000305641
0.00115738
0.00129511
0.00107072
0.000581553
0.000251791
0.00238461
0.000569217
0.000622122
0.000700314
0.000279219
0.00163581
0.000267434
0.00049609
0.00169951
0.0002747
0.000957647
0.000458928
0.000314124
0.000908105
0.0021238
0.00309289
0.00187441
0.0040746
0.000795216
0.000702533
0.00151709
0.000803608
0.000568151
0.00163195
0.000943935
0.000621741
0.000289073
0.000314505
0.00195277
0.000488253
0.000234339
0.00132387
0.00307722
0.0013569
0.000298148
0.000307966
0.001596
0.00073364
0.00279505
0.000720747
0.000836891
0.000628831
0.000969319
0.000356246
0.000857898
0.000256719
0.000310871
0.00161375
0.000540132
0.00292295
0.000822116
0.000526224
0.000591672
0.00352001
0.000515279
0.000535974
0.000314485
0.000757503
0.00169366
0.00325072
0.00131004
0.00109361
0.00111755
0.00226769
0.000796052
0.00081633
0.00378151
0.000477111
0.000258478
0.00333204
0.00132488
0.000143214
0.000729571
0.00209446
0.00177542
0.000133055
0.000585391
0.00111603
0.000898519
0.00166578
0.00102088
0.000140134
0.00212981
0.000766263
0.000671338
0.000438989
0.000773774
0.00364025
0.000151687
0.00128509
0.00108276
0.000778562
0.000298136
0.00159318
0.00174972
0.000610119
0.000642845
0.000192374
0.000570053
0.000938841
0.000419493
0.0016023
0.00254293
0.0027861
0.000543961
0.000602395
0.000642812
0.000807495
0.00159694
0.000345889
0.0033
0.000855878
0.000941136
0.000350591
0.00159473
0.000326915
0.000413023
0.00180269
0.000839554
0.00283995
0.00219167
0.00247181
0.000829164
0.000658831
0.00125035
0.00177137
0.000459028
0.00261545
0.000343447
0.000276588
0.00128666
0.000682179
0.00115807
0.000875685
0.000323995
0.000471729
0.000739387
0.00231021
0.000798085
0.00031686
0.000177229
0.000319688
0.00257177
0.000273224
0.000770523
0.00174712
0.000735124
0.000752112
0.00172186
0.000264068
0.000440497
0.000763393
0.000783483
0.00255905
0.000149186
0.00024304
0.00235028
0.000822953
0.000184406
0.000351595
0.000794037
0.000712897
0.000588242
0.00149218
0.000430206
0.00180383
0.000661155
0.00242226
0.000417969
0.00159885
0.00170707
0.000246689
0.00128745
0.000622767
0.000266526
0.000623464
0.000397794
0.00070239
0.000682983
0.00169106
0.000162024
0.000799844
0.00201405
0.000179762
0.000636851
0.000276289
0.000386877
0.000914473
0.000279962
0.00187538
0.000267349
0.000444109
0.00201487
0.000925121
0.00080524
0.00255207
0.00221915
0.000606462
0.00210158
0.000768524
0.000416521
0.000792662
0.000708853
0.000384806
0.000211603
0.00104214
0.00246226
0.000813954
0.000252519
0.00144114
0.00259757
0.000870176
0.000669557
0.00193678
0.000202156
0.00218259
0.000804237
0.000617756
0.000206037
0.000618526
0.00127894
0.000809167
0.0031011
0.000958522
0.000814129
0.000723141
0.000872945
0.000264615
0.000625915
0.00145669
0.00372204
0.00249446
0.000532863
0.00164941
0.000682119
0.00077639
0.000858614
0.000725951
0.0006925
0.000904653
0.000390985
0.00119154
0.000753216
0.00226178
0.000688813
0.000857961
0.000776407
0.000734201
0.00256055
0.00060935
0.00181972
0.00237809
0.00172072
0.000421164
0.00129078
0.00119891
0.00096543
0.000738045
0.000796077
0.000566872
0.000226722
0.00153367
0.00349563
0.000631692
0.000543662
0.00112138
0.000413298
0.000952397
0.000497083
0.00198459
0.00053754
0.00100318
0.000549702
0.000381437
0.0018684
0.000638442
0.00297537
0.00114311
0.00272366
0.00129216
0.000791777
0.000810709
0.000723002
0.000653296
0.00239394
0.00170168
0.000913635
0.00124576
0.00241384
0.00109945
0.000690731
0.00188775
0.00221074
0.000463317
0.000878165
0.000337092
0.00098359
0.00168431
0.00192967
0.00108256
0.000788077
0.00142448
0.000316491
0.000140425
0.000250823
0.00288577
0.00174733
0.000281246
0.00176154
0.00383292
0.00368023
0.000431914
0.000526491
0.000961289
0.000665662
0.0013713
0.000828611
0.00104014
0.000823404
0.000510358
0.00177705
0.00162677
0.000677946
0.000779141
0.00288264
0.00178452
0.003954
0.0005493
0.00366304
0.00350282
0.0020387
0.000140096
0.00221559
0.000944869
0.00270423
0.00122643
0.000141974
0.000799456
0.00078103
0.00165195
0.000953916
0.0014822
9.15532e-05
0.000961712
0.00276553
0.000820497
0.000911463
0.000255534
0.000540936
0.00214516
0.000888182
0.00192843
0.000631104
0.00330092
0.000593031
0.0017845
0.0017557
0.000746243
0.00100822
0.00191432
0.000810181
0.000999554
0.000499909
0.00185482
0.000879945
0.00291359
0.000451534
0.00103855
0.00153565
0.000140864
0.000745098
0.000709663
0.000387131
0.00061927
0.000908365
0.0010653
0.000211622
0.000587217
0.000579046
0.000205377
0.000708978
0.000753578
0.000824032
0.00039436
0.00244269
0.000561092
0.00315736
0.000610862
0.000428414
0.00173095
0.00161444
0.00225081
0.000725327
0.000952586
0.000488462
0.000932172
0.000526491
0.000639058
0.000377454
0.000780627
0.000777776
0.00169923
0.0011239
0.000149448
0.000550901
0.00156454
0.000575053
0.00101728
0.000166621
0.000418689
0.000288474
0.00248252
0.000778984
0.000755361
0.000396518
0.000781004
0.00124384
0.000716362
0.000807814
0.000924937
0.00068493
0.00267801
0.0007384
0.0015973
0.000464473
0.00132254
0.000866891
0.00131036
0.000769749
0.00024276
0.000717289
0.000912738
0.00173492
0.00033275
0.00147191
0.00316181
0.00239734
0.0005391
0.00104121
0.00187076
0.000227202
0.000692357
0.000588088
0.000952353
0.000904746
0.000644897
0.000807262
0.000778161
0.0007752
0.000935554
0.00068319
0.00173178
0.00148996
0.0036426
0.00381093
0.00069708
0.000881337
0.000692512
0.000479465
0.00192632
0.00195887
0.000936781
0.000791832
0.000787745
0.000791887
0.000656451
0.000733287
0.000503887
0.000796478
0.000705006
0.0014098
0.000385361
0.000859114
0.00120907
0.000935864
0.00278927
0.000865725
0.00170309
0.00178557
0.000620839
0.000876968
0.00203419
0.000877682
0.000571668
0.00193375
0.000199858
0.00185088
0.00347631
0.00285575
0.000597866
0.00127753
0.0031015
0.000475814
0.00112399
0.000524625
0.000622367
0.00075799
0.000437141
0.000834758
0.000599272
)
;

boundaryField
{
    frontAndBack
    {
        type            empty;
    }
    wallOuter
    {
        type            nutkWallFunction;
        Cmu             0.09;
        kappa           0.41;
        E               9.8;
        value           nonuniform List<scalar> 
102
(
9.76915e-06
9.76915e-06
6.53483e-05
1.48678e-05
1.37122e-05
1.94741e-05
2.49669e-05
1.81607e-05
1.33597e-05
1.44245e-05
1.31187e-05
1.70702e-05
1.34928e-05
1.46386e-05
2.37689e-05
5.50433e-05
2.74615e-05
3.18934e-05
2.12411e-05
2.617e-05
2.31789e-05
1.45208e-05
2.92742e-05
3.38931e-05
7.55702e-05
2.44513e-05
2.72484e-05
1.42598e-05
1.81912e-05
2.83874e-05
2.23094e-05
2.11885e-05
2.022e-05
1.77651e-05
1.9249e-05
4.49139e-05
4.30311e-05
4.268e-05
3.73028e-05
2.23631e-05
3.27618e-05
3.29801e-05
2.35932e-05
2.42946e-05
2.43703e-05
2.36254e-05
2.29961e-05
1.58753e-05
3.47268e-05
3.23132e-05
3.17395e-05
3.18526e-05
3.59903e-05
3.34398e-05
3.62068e-05
2.7181e-05
3.44672e-05
3.55581e-05
2.98433e-05
3.7371e-05
5.81536e-05
1.46296e-05
1.32244e-05
1.40164e-05
1.61239e-05
2.12217e-05
7.28971e-05
3.79078e-05
5.03676e-05
3.29377e-05
3.90892e-05
5.73912e-05
1.90659e-05
3.86582e-05
3.17836e-05
3.09463e-05
1.52023e-05
1.95036e-05
7.10477e-05
2.86972e-05
3.10296e-05
1.69414e-05
3.21525e-05
3.06026e-05
7.32957e-05
2.40246e-05
2.93573e-05
2.24193e-05
3.10457e-05
2.60484e-05
3.62651e-05
1.43209e-05
1.40077e-05
1.43839e-05
7.11909e-06
2.97961e-05
1.45312e-05
2.40517e-05
2.22303e-05
1.52515e-05
1.72358e-05
3.3139e-05
)
;
    }
    inlet
    {
        type            calculated;
        value           nonuniform 0();
    }
    outlet
    {
        type            calculated;
        value           nonuniform 0();
    }
    wallInner
    {
        type            nutkWallFunction;
        Cmu             0.09;
        kappa           0.41;
        E               9.8;
        value           nonuniform List<scalar> 
138
(
3.87382e-05
1.14563e-05
6.72618e-05
5.88833e-05
9.2471e-05
6.9872e-05
0.000142732
8.32133e-05
6.01905e-05
2.83916e-05
7.26262e-05
6.94196e-05
4.1419e-05
9.14084e-05
2.91277e-05
4.34082e-05
5.62634e-05
4.40974e-05
5.67048e-05
5.9002e-05
3.71558e-05
2.67675e-05
2.88041e-05
3.14712e-05
2.90792e-05
3.05488e-05
2.87524e-05
3.20593e-05
0.0001557
3.01944e-05
3.19514e-05
3.25161e-05
3.95473e-05
2.83777e-05
3.53439e-05
2.24509e-05
3.49247e-05
2.50551e-05
4.1695e-05
3.36079e-05
3.80706e-05
2.349e-05
4.59811e-05
2.45215e-05
3.84626e-05
1.19903e-05
4.53938e-05
5.47995e-05
3.23927e-05
6.06003e-05
4.64154e-05
3.08717e-05
2.58841e-05
4.503e-05
2.37714e-05
6.73621e-05
2.88281e-05
7.00684e-05
4.89566e-05
6.68298e-05
4.88799e-05
2.29227e-05
2.42195e-05
4.51105e-05
7.4773e-05
2.54466e-05
2.16273e-05
7.11777e-05
3.76702e-05
3.27016e-05
2.36857e-05
3.26013e-05
1.84838e-05
1.38643e-05
6.64352e-05
1.81343e-05
6.23582e-05
2.85398e-05
7.52482e-05
8.09082e-05
4.26993e-05
8.17681e-05
2.47862e-05
3.30255e-05
2.94338e-05
9.01658e-05
8.13968e-05
8.17827e-05
7.43121e-05
6.51799e-05
4.54463e-05
2.98808e-05
2.82916e-05
0.000130075
4.00268e-05
4.33868e-05
0.000108439
4.11528e-05
0.000143729
3.25874e-05
4.11231e-05
2.5499e-05
2.92042e-05
5.23385e-05
4.15022e-05
7.85801e-05
3.74922e-05
2.46469e-05
2.79786e-05
2.70448e-05
3.13304e-05
8.31427e-05
1.934e-05
2.68821e-05
2.20028e-05
1.61188e-05
2.57298e-05
2.88509e-05
2.98069e-05
4.29099e-05
3.68911e-05
8.90906e-05
3.05363e-05
4.33836e-05
4.09365e-05
2.84519e-05
1.93697e-05
3.28717e-05
5.04328e-05
2.22754e-05
5.0557e-05
8.143e-05
0.000131961
6.22241e-05
9.03364e-05
5.26354e-05
9.639e-05
7.12634e-05
)
;
    }
    procBoundary2to0
    {
        type            processor;
        value           nonuniform List<scalar> 
42
(
0.00208971
0.00208971
0.00191685
0.0014272
0.00155877
0.00249264
0.00172437
0.00172437
0.0011479
0.000756863
0.00174167
0.00174167
0.00183077
0.00153081
0.00138501
0.00254171
0.00141923
0.000770287
0.000867375
0.00394935
0.0039387
0.000803934
0.000803934
0.00350504
0.0039387
0.000735132
0.00293951
0.000619491
0.00293951
0.00209557
0.00173918
0.00055313
0.000557155
0.000609983
0.000712893
0.0014272
0.00141923
0.000612111
0.0027405
0.00102025
0.00102025
0.000822337
)
;
    }
    procBoundary2to1
    {
        type            processor;
        value           uniform 0.00414544;
    }
    procBoundary2to3
    {
        type            processor;
        value           nonuniform List<scalar> 
29
(
0.000961313
0.00103948
0.00077824
0.00059331
0.00150561
0.00055231
0.000974691
0.000927959
0.00220496
0.00186391
0.000769999
0.00246803
0.000553532
0.0022087
0.00300942
0.00282313
0.00193046
0.00193046
0.00103948
0.0022087
0.00239248
0.00157089
0.000568829
0.00242195
0.0026033
0.00127403
0.00220496
0.00409839
0.00246803
)
;
    }
}


// ************************************************************************* //
