/*--------------------------------*- C++ -*----------------------------------*\
| =========                 |                                                 |
| \\      /  F ield         | OpenFOAM: The Open Source CFD Toolbox           |
|  \\    /   O peration     | Version:  v1912                                 |
|   \\  /    A nd           | Website:  www.openfoam.com                      |
|    \\/     M anipulation  |                                                 |
\*---------------------------------------------------------------------------*/
FoamFile
{
    version     2.0;
    format      ascii;
    class       volScalarField;
    location    "0.27";
    object      k;
}
// * * * * * * * * * * * * * * * * * * * * * * * * * * * * * * * * * * * * * //

dimensions      [0 2 -2 0 0 0 0];


internalField   nonuniform List<scalar> 
1466
(
0.534032
0.932041
0.282481
1.75633
0.378032
0.497802
0.755851
0.564504
0.280946
1.14279
1.66628
1.10574
0.210175
0.506299
0.907147
2.38382
0.312366
0.821521
2.09061
1.14014
2.01267
2.96696
1.53659
0.990909
0.244548
0.506624
1.95974
1.38032
0.0725387
1.44057
1.97812
0.88832
0.3997
1.60507
1.91173
0.254178
1.7117
0.249002
1.35285
0.396415
0.788077
1.33293
1.51143
0.823695
0.234193
0.284679
1.79164
0.177816
0.685454
0.301112
0.282442
0.94311
0.480986
0.295092
0.28171
0.27866
0.347824
1.55779
0.281381
1.16474
1.02483
1.09885
0.58067
1.18487
1.49046
0.939282
3.24875
1.30564
0.778212
0.179491
2.08065
1.17958
0.709413
0.260541
0.699101
1.31191
1.17952
0.552235
0.444964
1.70912
1.34297
2.33887
0.252309
1.40536
2.12453
1.92074
1.8382
1.60679
1.32244
1.0819
0.70616
1.80896
2.58328
0.951229
0.583213
0.253921
0.864471
1.62326
0.284122
0.206072
0.401635
0.1873
0.135134
0.908826
1.78566
0.831607
0.544545
0.231822
1.54458
0.436076
0.894838
1.67491
0.64929
1.33471
1.05556
1.35796
1.49581
0.933843
0.905808
0.84152
1.79737
1.26281
0.924292
0.842718
0.265477
1.18686
1.02823
1.44574
1.10314
1.33878
1.22541
1.23851
1.41437
0.94914
1.07209
0.523516
0.689129
0.230149
0.780928
0.658824
0.347792
1.57955
1.52534
1.55365
3.42364
2.53707
0.861072
1.04363
1.65091
1.65348
0.836178
1.17964
0.911207
0.529877
1.5205
2.88133
1.23574
2.08558
0.850219
0.986188
0.788604
1.39843
0.827641
1.5721
2.64429
2.18338
1.33897
1.74001
1.81579
0.942489
1.90522
0.502613
0.28708
0.82155
0.673208
0.26782
1.28519
1.69336
0.802453
2.14727
0.267617
1.2802
2.35832
0.207351
1.58011
2.14779
2.15856
0.960731
0.796129
0.575945
2.00712
1.0995
2.45714
3.41027
0.928899
1.08053
0.163159
2.08623
2.85326
2.79914
1.92695
1.49368
1.24717
1.72421
1.79597
2.75923
2.54616
0.824833
0.767218
1.08855
1.83856
1.96969
2.10601
1.72718
2.19824
1.57328
2.26864
2.16647
1.0954
1.21364
1.63301
1.48124
1.64083
1.24574
1.72023
1.81054
1.51079
0.218853
0.806637
1.51953
1.62351
1.61212
3.63808
3.58696
0.501631
2.32463
1.4579
1.67678
1.04879
2.02817
0.855903
1.6413
1.14717
2.54355
0.898618
1.26634
0.859707
0.256682
1.79838
1.03373
2.16136
1.63572
0.762936
2.5845
0.497686
1.09555
1.14998
0.368292
1.08217
1.12056
0.943981
1.33297
0.950523
1.51402
1.43626
0.226243
0.692354
1.59932
1.99612
0.383315
0.986248
1.21061
0.662659
0.753779
0.80553
1.35518
1.04497
1.25779
1.93708
1.68216
1.48053
4.19272
1.71792
1.41735
3.97692
0.281646
1.76598
1.73445
0.317879
0.604088
0.60394
0.548231
0.23918
0.366191
1.05477
0.51293
1.62016
0.309679
1.72581
1.41668
0.449267
1.39682
0.137355
0.265189
2.22817
0.961768
1.06029
0.246851
1.08059
2.12007
0.819383
2.07741
1.31285
1.36719
1.60117
1.35045
3.76454
1.05622
0.232851
1.07628
0.494408
1.37315
0.803129
1.31052
1.68587
0.531315
0.294595
1.07185
1.21303
1.59148
1.3783
0.563304
0.27627
0.874557
2.12313
0.397949
2.58136
1.00077
0.876723
1.13977
0.715033
0.888783
0.319708
1.71237
0.973399
0.13534
1.34663
1.18647
0.850682
2.1644
0.710672
0.364114
1.35279
3.07552
3.48182
2.77133
0.643088
0.389198
0.293585
1.15547
3.34309
2.17415
1.39906
1.84679
0.282512
3.79176
0.775123
0.733001
1.03759
0.898033
0.984985
2.70362
1.33093
0.831091
0.276514
1.34544
1.4755
1.34262
1.20906
1.29038
1.19431
1.03301
1.22761
1.22894
1.08601
1.06874
0.302054
0.288804
0.243081
0.246861
0.877888
1.00659
1.71929
0.963704
1.07555
0.535099
0.254003
1.34341
1.07684
0.351271
0.252989
0.26897
1.28415
0.278139
1.06002
4.3613
1.46828
0.845248
4.14667
3.56117
0.835159
1.58694
2.03066
4.0415
1.52099
0.487257
0.423879
1.28891
1.17051
0.643905
3.34625
3.76183
0.61048
1.99191
0.678201
1.59419
2.72876
1.31948
0.662981
1.43159
1.91649
0.740902
1.51377
1.67167
1.47086
0.448739
0.247945
0.578722
0.590275
1.97373
0.277635
0.555888
1.96114
0.336225
1.5887
0.898017
0.537685
1.63567
1.06503
1.93194
1.71809
1.11937
0.561787
0.300171
0.910627
0.546182
0.464704
0.983791
0.541088
1.71468
0.3191
0.9154
0.31711
0.160306
1.66588
1.4396
0.980015
0.93875
0.910679
0.948903
0.962258
0.607511
1.41759
0.253818
1.7816
1.41221
0.797255
2.47663
4.62953
3.63513
0.863611
0.595382
1.67987
4.25494
4.39759
0.720601
1.34703
0.831173
3.0541
1.44663
4.89175
1.32251
0.306851
0.996101
1.79657
1.09643
1.29592
1.08994
1.39225
1.79443
1.22815
1.3862
1.51915
1.777
0.377617
1.97991
1.58439
1.87063
1.31116
1.22898
1.35049
3.69937
1.79038
1.51512
1.30196
1.87102
0.920923
0.283507
0.480378
0.404536
1.2084
0.826025
3.90403
0.871735
2.99495
0.888491
0.862141
1.94623
0.920666
3.76452
1.66059
1.6121
3.54442
1.04549
1.14086
0.900783
0.838912
1.74164
0.922733
1.60595
0.680134
2.07533
0.497812
1.82948
0.935369
0.806282
0.944508
0.641923
2.96585
1.85756
4.50518
1.16608
0.902119
1.10784
1.55459
1.26542
1.25086
1.59641
1.18523
0.52997
3.29165
3.83728
1.59461
1.1443
0.400654
1.44679
1.01341
3.65864
1.81519
1.4127
1.64886
3.40352
1.21469
1.58659
1.68378
2.08854
0.36384
1.3423
1.18753
2.34564
2.76725
1.40092
1.27317
2.00685
1.45613
2.12715
1.88525
0.296931
1.1564
1.36451
2.07959
0.732838
3.04862
1.24151
2.15653
1.56984
1.48833
1.11452
2.06997
1.60857
1.35797
0.441963
0.429727
0.840748
3.89327
3.02913
1.44726
0.286404
1.32979
1.39843
1.58353
2.34985
0.678997
0.864712
1.51668
1.01093
1.55268
0.849382
0.652505
1.98071
0.847595
0.294622
1.33385
0.526755
0.782436
1.21814
2.09462
3.19669
3.59997
1.36006
4.46756
0.669351
0.68145
0.449857
1.34385
0.389607
2.083
1.82185
1.68241
1.92525
3.07043
1.40556
1.22823
1.3972
1.54677
0.437982
3.48022
2.53949
1.17099
0.852268
1.36245
0.319651
1.26526
0.324834
4.19308
1.55959
1.03884
1.48407
1.2186
0.246257
4.08732
1.72492
0.770152
0.451165
4.98309
1.21304
1.93098
1.45752
1.3307
1.09008
0.27754
0.98147
3.88283
0.276312
1.39896
0.488041
1.46733
0.3196
0.481502
0.56317
2.30361
0.306231
0.427447
2.78516
0.367895
3.53775
0.461559
0.203358
2.86306
0.271397
4.04995
0.535119
0.494878
1.23481
0.392603
0.187894
1.09801
4.4648
0.476798
2.16259
1.71499
0.436163
0.2345
1.2018
1.43762
1.73037
1.24626
0.665363
0.19209
1.47076
1.70233
2.80505
0.660215
1.35808
3.06297
2.15543
1.04063
1.9001
3.91183
1.66621
1.13794
3.19032
3.09553
1.25371
1.77093
1.50368
2.02062
0.841975
0.912421
0.141848
4.21616
1.11083
3.83417
0.570336
2.25872
2.18508
0.922642
1.97517
0.110849
2.75926
1.46128
1.57732
1.40121
0.153924
1.53889
0.586572
0.524663
0.332973
1.79742
1.14788
2.15057
2.76702
0.494145
0.290896
2.16175
1.60852
2.02863
1.85105
0.402288
1.776
2.05467
1.18787
1.54568
1.55768
3.95664
1.26429
1.33724
1.94407
1.64337
2.33092
1.28883
1.32554
1.04195
1.13624
2.91424
2.18722
1.39167
0.338623
0.900625
1.74006
0.901802
0.870728
1.48002
1.64684
4.03865
0.52241
1.43834
1.4772
1.84475
0.915019
0.97332
4.81243
2.04537
0.948281
1.29204
0.459274
2.516
1.67034
0.234279
0.879377
1.09889
2.51948
1.46532
0.283405
0.863812
0.285826
0.214203
0.380955
2.93237
1.81931
0.955122
1.40256
1.42706
1.07123
1.62866
0.34594
2.37962
1.41935
0.934848
2.11895
1.68977
1.98332
0.492559
1.73631
1.53881
0.721699
1.8498
0.381053
0.486599
1.38229
1.76646
2.29196
1.48608
4.20745
0.324331
0.921268
0.464811
0.306522
0.96934
1.03876
1.47884
1.85948
2.91715
0.548094
4.71467
1.30041
0.53834
1.54874
1.1053
2.16277
4.22876
1.28861
1.75607
1.12895
1.05268
1.21069
1.57673
0.982265
1.5296
1.71132
3.2813
1.43312
0.29725
0.814589
0.524234
1.35597
1.7792
2.42582
1.30016
1.19919
1.30283
0.346628
2.61791
0.817632
4.74847
0.794739
2.65977
0.794408
0.820911
0.765508
0.849014
0.825135
0.887461
0.813266
1.26492
1.36743
1.47475
1.29195
1.22882
1.19232
1.23419
1.27024
1.58735
0.942184
1.06968
1.69017
1.73695
1.53336
1.65443
1.15597
1.13127
1.10571
0.737695
1.6976
0.215988
0.153288
3.49169
1.61455
0.350304
0.868383
0.420392
0.842486
2.22936
1.39936
1.53315
0.567786
0.509154
0.376816
1.77774
0.785426
2.85787
1.48498
1.81582
1.47641
1.09346
3.1899
3.26383
1.06905
1.24359
0.657787
0.290866
0.231092
0.25644
0.694753
1.37475
2.84699
1.57779
0.0835942
1.61946
0.599605
0.430541
0.778325
0.736655
1.56291
0.974091
0.75995
1.31175
0.865751
0.859569
0.450778
1.95608
1.2929
1.75052
3.02438
1.75941
4.40251
0.498833
1.6955
2.56182
1.42838
3.01415
0.734844
0.999578
0.552108
1.66156
2.47067
0.272824
1.46421
0.843969
3.33959
0.289322
2.15275
3.18553
2.08411
1.43895
0.835352
1.68606
2.25597
0.748945
1.00263
0.728726
1.78665
2.2664
1.42558
0.476585
1.03326
1.7788
1.18312
2.78611
1.45944
0.503578
0.360343
1.39698
1.39917
2.61793
3.96596
1.68043
2.82538
0.190633
0.35149
1.11489
3.60634
4.29912
0.371181
0.86355
0.803314
1.05598
0.247867
1.05086
0.254287
0.727182
2.01157
0.316135
0.139106
1.68373
0.292787
3.46827
1.3493
1.14025
2.47751
0.791732
1.7955
3.79923
1.82439
1.66396
0.919206
0.655713
1.67466
1.04036
1.122
0.960671
2.38061
1.83872
0.577807
1.78311
2.8174
1.40156
0.644491
4.51563
0.249168
1.75892
0.611793
0.929913
0.461186
0.567502
0.275312
0.75147
0.24814
1.07406
2.76765
1.33991
0.813253
0.744044
2.21859
0.641556
0.825189
1.26915
2.92954
1.10426
0.724911
1.71067
0.279646
0.49435
0.589474
0.335117
1.73094
1.11299
1.33921
0.944687
0.0518328
4.01746
0.910106
0.232093
1.99264
0.324424
0.575115
0.267751
0.316286
0.331692
1.25191
0.707093
0.258726
0.98777
0.242989
0.292071
0.244577
0.261443
0.674921
0.710667
0.28975
0.313755
0.331896
0.336344
0.818012
4.57463
2.65416
1.27877
1.47691
2.00033
2.36233
1.54631
0.981157
0.685653
1.04338
0.801753
1.37161
0.231985
1.97314
1.53042
3.0406
1.39457
0.20774
2.81266
1.11901
1.52922
0.693989
1.91322
1.61967
2.06002
0.374201
1.83758
1.50134
1.65697
0.681522
1.09167
0.248742
0.436888
1.23047
1.55061
1.25719
1.3037
1.59744
1.65585
0.741873
1.0501
0.992053
1.37778
2.91222
1.72137
3.62604
1.54544
0.370327
0.260255
0.90236
1.33032
1.11508
0.785675
0.839381
0.843636
1.11606
1.43222
0.748208
0.813201
1.54047
0.484104
0.180266
0.90737
1.44916
1.33003
1.67184
0.49478
1.05035
1.02515
0.681852
1.85662
4.42233
0.980638
4.95568
1.90977
1.17841
0.882816
1.09745
1.07137
0.947184
0.506922
4.19106
1.49281
4.70666
3.80948
4.6112
4.63835
0.734287
1.42114
1.41544
2.08147
1.33095
1.61396
0.892633
0.838063
3.12544
3.57919
0.32969
5.00952
1.74797
0.713508
1.34134
1.04814
0.48584
0.808462
0.620925
1.48478
0.529317
0.545353
1.04651
1.00566
1.48181
3.21962
0.267423
1.70623
1.05512
0.804586
0.383206
1.46292
1.25996
0.725435
0.250053
1.53942
0.808501
2.01887
1.47164
1.60523
0.228694
1.25489
0.247455
4.83376
1.9834
0.348718
1.95888
1.31685
4.20628
4.7869
1.75981
1.40535
1.1282
0.945026
0.660485
3.47459
0.440401
0.443946
1.38209
0.278909
4.67377
1.69563
1.47727
0.566457
2.9303
1.24335
0.199266
2.01392
1.69921
0.249472
1.90196
1.94229
1.16276
1.09347
0.830516
4.82639
1.16903
1.78338
1.41111
2.39865
1.60801
2.07691
1.77623
4.51144
4.13832
1.92235
1.67293
1.5604
2.75929
0.242821
1.09532
1.36918
0.260553
2.46035
0.86134
1.56792
2.0003
0.576095
2.40448
1.20656
0.251118
0.680823
1.27779
0.313525
0.760547
0.734877
0.921418
0.911571
3.48163
1.73763
2.35253
1.34594
0.614265
0.883001
0.814809
0.957962
1.69638
0.832665
1.45777
1.56293
2.30024
1.84529
0.826582
3.01508
0.25367
1.33306
2.41368
1.94924
0.331489
1.17857
0.832251
1.24569
0.605529
0.592955
1.53061
1.67723
0.294749
0.181965
2.80128
0.54501
1.60067
1.9486
2.35333
0.158705
1.71156
0.483477
0.255018
0.43199
0.356251
0.460679
2.81363
0.168713
1.81025
0.975537
1.03065
0.20651
0.173727
2.20859
0.301057
0.829412
1.12225
0.886681
3.88351
1.38068
1.74031
1.53834
1.26501
1.72216
0.940681
0.92568
1.18685
1.09181
1.73788
0.0938386
1.53323
1.50084
1.23587
1.56314
1.43222
1.91312
0.965377
1.06187
0.491047
1.30809
2.50285
2.16742
0.315656
0.118943
0.246274
0.688966
1.91421
1.55518
1.68024
1.25162
1.25082
0.840728
4.94337
1.83445
1.85076
1.64588
0.49318
1.95343
4.47571
0.269207
0.638339
1.64075
0.420066
2.83065
0.98917
1.08881
2.45716
1.17865
1.85239
1.72588
1.72374
1.97724
0.671683
1.07747
0.629928
0.330902
0.838672
0.675789
3.21529
1.2593
1.35256
1.0466
2.46476
1.3247
1.98389
0.56479
1.84729
4.62551
0.635537
0.197878
2.68364
2.05756
0.46595
0.370766
1.59023
1.15672
2.20042
1.32658
1.0558
0.604448
0.29618
1.65487
1.43727
2.34271
1.03967
1.71611
1.5903
0.739047
1.90906
0.279442
0.855723
1.62242
1.86994
0.430573
0.624833
0.31663
0.254404
0.823995
1.68043
0.530368
0.237043
0.878486
1.69972
1.03044
0.709579
0.69917
1.23184
0.296567
0.269941
0.274244
0.813482
0.328033
0.241198
1.26936
0.0577711
0.0518522
1.47849
0.219
1.01337
0.698504
0.874828
)
;

boundaryField
{
    frontAndBack
    {
        type            empty;
    }
    wallOuter
    {
        type            kqRWallFunction;
        value           nonuniform List<scalar> 
108
(
0.821521
1.17958
0.709413
0.137355
0.13534
0.367895
0.461559
0.203358
0.271397
0.392603
0.187894
0.476798
0.436163
0.2345
0.19209
0.141848
0.922642
0.524663
0.332973
0.338623
0.214203
0.955122
0.306522
0.53834
0.794408
0.820911
0.765508
0.849014
0.825135
0.887461
0.813266
1.26492
1.36743
1.47475
1.29195
1.22882
1.19232
1.23419
1.27024
1.58735
0.942184
1.06968
1.69017
1.73695
1.53336
1.65443
1.15597
1.13127
1.10571
0.737695
0.153288
0.509154
1.06905
0.231092
0.865751
0.999578
0.552108
1.03326
0.86355
0.139106
0.791732
0.919206
0.655713
0.611793
0.567502
0.24814
0.641556
0.49435
0.589474
1.11299
0.0518328
0.0518328
0.232093
0.324424
0.316286
0.331692
0.98777
0.242989
0.292071
0.244577
0.261443
0.674921
0.710667
0.28975
0.313755
0.331896
0.336344
0.818012
0.981157
0.685653
0.20774
0.693989
0.681522
1.09167
0.748208
0.813201
1.02515
0.681852
0.808501
0.260553
0.814809
0.832665
0.181965
0.483477
0.168713
0.118943
0.246274
1.25082
)
;
    }
    inlet
    {
        type            fixedValue;
        value           nonuniform 0();
    }
    outlet
    {
        type            zeroGradient;
    }
    wallInner
    {
        type            kqRWallFunction;
        value           nonuniform List<scalar> 
126
(
0.249002
1.35285
0.396415
0.788077
1.33293
1.51143
0.823695
0.234193
0.284679
1.79164
0.177816
0.685454
0.301112
0.282442
0.94311
0.480986
0.295092
0.28171
0.27866
0.347824
1.55779
0.281381
1.16474
0.444964
0.253921
0.864471
1.62326
0.284122
0.206072
0.401635
0.1873
0.135134
0.908826
1.78566
0.831607
0.544545
0.231822
1.54458
0.436076
1.33471
1.05556
0.842718
0.265477
1.22541
1.23851
0.523516
0.689129
0.230149
0.347792
0.827641
0.673208
0.163159
1.08217
1.12056
0.943981
0.226243
0.692354
0.986248
1.21061
0.662659
0.548231
0.366191
0.51293
1.62016
0.494408
1.37315
0.803129
0.389198
1.03759
1.33093
1.34262
1.34341
0.351271
1.31948
1.51377
1.67167
0.448739
0.578722
0.555888
0.561787
0.546182
0.541088
1.51512
1.6121
1.55459
2.09462
1.48407
1.77093
1.35597
2.42582
1.7955
1.38068
0.92568
1.71611
0.739047
1.90906
0.279442
0.855723
1.62242
0.430573
0.624833
0.31663
0.254404
0.823995
1.68043
0.530368
0.237043
0.878486
1.69972
1.03044
0.709579
0.69917
1.23184
0.296567
0.269941
0.274244
0.813482
0.328033
0.241198
1.26936
0.0577711
0.0518522
1.47849
0.219
1.01337
0.698504
)
;
    }
    procBoundary1to0
    {
        type            processor;
        value           nonuniform List<scalar> 
29
(
1.32175
1.32175
0.525818
0.648471
2.27385
1.19628
1.8775
0.298209
1.99898
0.486461
0.345814
1.19628
0.525818
0.914151
1.05555
0.451018
2.27385
1.85564
0.648471
1.46961
0.285481
0.211933
1.75508
0.296894
0.296894
1.75508
0.241842
0.889069
0.241842
)
;
    }
    procBoundary1to2
    {
        type            processor;
        value           uniform 1.36448;
    }
    procBoundary1to3
    {
        type            processor;
        value           nonuniform List<scalar> 
48
(
1.81282
1.68147
2.14756
2.14756
1.25168
0.627761
0.627761
0.96491
1.38048
0.35681
0.16738
0.35681
0.509405
1.42181
1.50799
0.509405
0.547967
0.547967
0.451304
0.451304
1.09482
0.991355
0.370956
0.0899741
0.0899741
0.279347
0.906597
0.906597
0.903052
1.02719
0.397566
0.903052
0.96491
1.219
0.277708
1.02719
1.09445
0.16738
1.5408
1.06181
1.37112
1.16558
1.219
0.277708
1.45158
0.624269
1.12739
1.37112
)
;
    }
}


// ************************************************************************* //
