/*--------------------------------*- C++ -*----------------------------------*\
| =========                 |                                                 |
| \\      /  F ield         | OpenFOAM: The Open Source CFD Toolbox           |
|  \\    /   O peration     | Version:  v1912                                 |
|   \\  /    A nd           | Website:  www.openfoam.com                      |
|    \\/     M anipulation  |                                                 |
\*---------------------------------------------------------------------------*/
FoamFile
{
    version     2.0;
    format      ascii;
    class       volScalarField;
    location    "0.35";
    object      nut;
}
// * * * * * * * * * * * * * * * * * * * * * * * * * * * * * * * * * * * * * //

dimensions      [0 2 -1 0 0 0 0];


internalField   nonuniform List<scalar> 
1466
(
0.00139344
0.00202382
0.00146817
0.00440815
0.00172249
0.00244918
0.00314458
0.00212383
0.000737729
0.0022829
0.00301807
0.00234473
0.000722329
0.00152182
0.00580665
0.00604936
0.00201337
0.00105668
0.00519839
0.00343358
0.00532573
0.00834096
0.00411913
0.00318367
0.000743018
0.0042514
0.00518299
0.00405412
0.000759221
0.00330072
0.00355114
0.0040046
0.00166355
0.00946462
0.00275718
0.0020756
0.00898083
0.00191937
0.00210109
0.00162225
0.00136602
0.00200628
0.00196127
0.00101709
0.00113802
0.001693
0.00198715
0.000840361
0.00162881
0.000768076
0.00115266
0.00163441
0.00182307
0.00112652
0.000962077
0.00100188
0.00128532
0.00217019
0.000941899
0.00195356
0.00617583
0.0032732
0.00295311
0.00359734
0.00561823
0.00256711
0.00851774
0.00395596
0.00179522
0.00101445
0.0081669
0.00117864
0.000971727
0.000891046
0.00377687
0.00226259
0.0032206
0.00287092
0.00102282
0.00342253
0.00279608
0.00512583
0.00138037
0.00338219
0.00511735
0.00522894
0.00849498
0.00291732
0.00241876
0.00289358
0.00535188
0.00463568
0.00440511
0.00184584
0.00228797
0.00124557
0.00185863
0.00187733
0.00081697
0.000841861
0.00157631
0.000910904
0.0007786
0.00179219
0.00230441
0.00220145
0.00157908
0.000907914
0.00193097
0.0013664
0.00616207
0.00271566
0.00179823
0.00180736
0.00151579
0.007181
0.0030648
0.00167545
0.0029446
0.00332869
0.00717589
0.00308372
0.00445829
0.000958965
0.00107181
0.00180928
0.00227883
0.00427165
0.00340879
0.00436905
0.00170448
0.00197749
0.0036374
0.00291476
0.00584749
0.00136858
0.00159526
0.00143195
0.00200663
0.00209241
0.000969486
0.00454167
0.00490947
0.00474606
0.00896835
0.00703733
0.00398077
0.00521969
0.00432161
0.00324376
0.00572065
0.00346043
0.00206947
0.00204954
0.00477036
0.00821492
0.0037667
0.00706741
0.00434787
0.00209577
0.00385491
0.00297147
0.00145973
0.0048247
0.00834625
0.00352083
0.00448758
0.00512902
0.00522162
0.00302604
0.00545527
0.00280409
0.000796496
0.00190057
0.00105876
0.000852871
0.00299165
0.00381193
0.00591857
0.00645455
0.00080512
0.00412027
0.00520456
0.000634841
0.00282043
0.00549686
0.00527721
0.00287891
0.00178885
0.00130315
0.00571938
0.00538939
0.00431236
0.00803094
0.00188673
0.0068371
0.00071399
0.00320099
0.00730669
0.00757877
0.00344724
0.00431999
0.00277705
0.00693806
0.00827231
0.00862372
0.00630315
0.00197699
0.00435117
0.00341552
0.00476768
0.00486448
0.00484213
0.00508439
0.00581015
0.00487082
0.00574283
0.00561011
0.00358931
0.00410564
0.004839
0.0071482
0.0050289
0.00729326
0.00515907
0.00610678
0.00714377
0.00134816
0.00597693
0.00713415
0.00599406
0.00284581
0.00865326
0.0104701
0.00262587
0.00869895
0.00479394
0.00503097
0.00453395
0.00564479
0.00211766
0.00327092
0.00266586
0.00740829
0.00393115
0.00272375
0.00405028
0.000875074
0.00370056
0.0024196
0.00581219
0.0060753
0.00185126
0.00406373
0.00287355
0.00552509
0.00329173
0.000981491
0.00133568
0.00193917
0.00129687
0.00336756
0.00278408
0.00692016
0.00357701
0.000561268
0.000943453
0.00463201
0.00527968
0.00111573
0.00166335
0.00140671
0.00112033
0.00418861
0.0054458
0.00750907
0.00668259
0.00426674
0.0053056
0.00412053
0.00637434
0.00852168
0.00520376
0.00281534
0.0112235
0.00113627
0.00450095
0.00461545
0.000810906
0.0015351
0.00151465
0.00111476
0.000762697
0.000642943
0.00331666
0.00105947
0.00153992
0.00124927
0.00421539
0.00672587
0.00157564
0.00698091
0.000560818
0.000820145
0.00600582
0.00366352
0.00303216
0.00141009
0.00265289
0.00948569
0.00194451
0.00584742
0.0041148
0.00437915
0.00396692
0.00318567
0.0104646
0.00249278
0.00107284
0.00574087
0.000988075
0.00147347
0.00150762
0.00635882
0.00758598
0.00138061
0.00121755
0.00248266
0.00579291
0.00572277
0.00399622
0.00144776
0.00197637
0.00288891
0.00571244
0.000822868
0.00584316
0.00472661
0.00302548
0.0027138
0.00246043
0.00209435
0.00191461
0.00329098
0.00328036
0.000501253
0.00266398
0.00259955
0.00184757
0.00517612
0.00165363
0.0008627
0.00358102
0.00801759
0.0117411
0.00780204
0.00318028
0.000641748
0.000969921
0.00264036
0.010586
0.00685964
0.00507552
0.00876858
0.00106053
0.00948788
0.00186695
0.00178362
0.00123713
0.00317962
0.00266766
0.00836952
0.0013755
0.00264226
0.00202554
0.00941036
0.00402331
0.00137595
0.0024167
0.00365393
0.00850447
0.00614712
0.0090193
0.00912918
0.00582726
0.00609974
0.00194639
0.00189626
0.00131746
0.00104704
0.0031011
0.00291895
0.00856211
0.00248283
0.0051308
0.00270061
0.00111383
0.00141775
0.00535399
0.000536361
0.0012433
0.00113788
0.00265888
0.000886677
0.0027691
0.0113307
0.00263115
0.0028425
0.00948755
0.00924581
0.00426844
0.00295488
0.00317972
0.0104746
0.00326915
0.00119203
0.00123668
0.00294927
0.00537354
0.00251761
0.00932503
0.0103878
0.0025623
0.00293359
0.00289076
0.00540875
0.0077341
0.00140822
0.00293107
0.00511756
0.00684917
0.00395171
0.0017433
0.00167218
0.00498488
0.000563816
0.00114112
0.000909537
0.00171292
0.0073058
0.00136164
0.000743332
0.00681557
0.00120328
0.00586246
0.00251267
0.00118136
0.0054879
0.00238254
0.00562319
0.00586819
0.00220834
0.00059605
0.000832985
0.00245135
0.000709273
0.00173742
0.00179775
0.000637853
0.00631262
0.00141321
0.00230068
0.00152294
0.00278141
0.00562636
0.0027227
0.00338985
0.00149011
0.000982653
0.00364961
0.0010435
0.00194966
0.00669585
0.00157056
0.00690842
0.00289543
0.00376098
0.0093899
0.0129145
0.00877765
0.0030451
0.00385742
0.00463211
0.0124758
0.0115839
0.00176188
0.00289722
0.00333302
0.00936882
0.00540966
0.0124907
0.00389507
0.00203764
0.00318602
0.00651144
0.00339968
0.00778027
0.0055136
0.00338277
0.00982387
0.00895189
0.0108714
0.00265111
0.0076951
0.00152925
0.0100916
0.00312066
0.00680588
0.00269838
0.00548202
0.00572755
0.0105869
0.0077496
0.00162395
0.00760636
0.00943372
0.00138406
0.000821836
0.00118631
0.00208908
0.00844065
0.001628
0.0118813
0.00204353
0.00978661
0.00211733
0.00137099
0.00466386
0.00193325
0.0119927
0.00210665
0.00167439
0.00987796
0.00318723
0.00520517
0.0012445
0.00242656
0.00326032
0.0017802
0.00401067
0.00167887
0.00823988
0.00152833
0.00787313
0.00193452
0.00243908
0.00212227
0.00172153
0.00951777
0.00733113
0.0090313
0.00280494
0.00328671
0.00528359
0.00166066
0.00653466
0.0056613
0.00897
0.0019259
0.00137803
0.0116241
0.0119725
0.00640495
0.00252482
0.00106216
0.00706356
0.00311234
0.0118463
0.00333682
0.0105238
0.00781865
0.0117597
0.00453072
0.00382594
0.00419638
0.00682069
0.000883773
0.00948058
0.0053082
0.00417624
0.00744711
0.0103181
0.00765987
0.00968898
0.0095341
0.00665316
0.00706218
0.000950663
0.00380106
0.00728536
0.00825735
0.00202046
0.0109683
0.00764412
0.00645893
0.00491227
0.00478834
0.00289603
0.00469922
0.00555366
0.00319302
0.00118041
0.00108275
0.00246626
0.00944984
0.0110202
0.00593168
0.00161826
0.00647442
0.0108246
0.00447289
0.00397696
0.00173546
0.00227374
0.0035821
0.00237078
0.00362671
0.00201434
0.00161309
0.00691759
0.00227729
0.00108399
0.00589421
0.00134374
0.00163846
0.00788759
0.00189017
0.0116245
0.0122898
0.00934552
0.0104123
0.00166742
0.00168135
0.00114819
0.00963451
0.00114159
0.00657248
0.00615908
0.00461121
0.00455091
0.0098704
0.00317527
0.00313307
0.00739833
0.0112252
0.00117179
0.0116758
0.0112307
0.00295359
0.002115
0.00996634
0.000910319
0.00376395
0.00137233
0.0126281
0.0112368
0.00281665
0.00172604
0.00571589
0.000892664
0.0118103
0.00295943
0.00171437
0.00121864
0.0129286
0.00386631
0.00302631
0.00474091
0.00407812
0.00241248
0.00145274
0.00492841
0.00763542
0.00144148
0.00598573
0.00139093
0.00698003
0.00236543
0.0018959
0.00146396
0.00449688
0.00188492
0.00305654
0.00940077
0.000625489
0.00862033
0.000701617
0.000461307
0.00608141
0.000487512
0.0118295
0.00140879
0.00133552
0.00238922
0.000676488
0.000461922
0.00257477
0.00951034
0.000695693
0.00938785
0.010647
0.000712152
0.000468322
0.00585678
0.0106004
0.0102637
0.00482316
0.00277948
0.000473875
0.0101797
0.00551561
0.00720811
0.00125585
0.00340039
0.0100398
0.00431221
0.00180281
0.0103285
0.0123847
0.00389247
0.0020369
0.0078586
0.00941393
0.00334455
0.00177072
0.0107407
0.00443985
0.00241166
0.00402669
0.000511951
0.00991452
0.0027293
0.0105556
0.00146772
0.00807514
0.0077183
0.00111475
0.0066906
0.000828922
0.00903329
0.00925521
0.00501927
0.010875
0.00107751
0.00530182
0.00258259
0.000731253
0.000585697
0.00678501
0.00249878
0.0044572
0.00500228
0.00374337
0.00103642
0.00358022
0.00618742
0.00546065
0.00475254
0.00113417
0.00411591
0.0049862
0.00318108
0.00777578
0.00420534
0.0111096
0.00285166
0.00416222
0.00369234
0.00622312
0.00543519
0.00535501
0.00471666
0.0048582
0.00307665
0.00841824
0.00539164
0.00357514
0.000571173
0.00382814
0.00250045
0.00319271
0.00348234
0.00439789
0.00190934
0.0125922
0.00137218
0.00626809
0.00847778
0.010502
0.00311504
0.00573081
0.0130335
0.00537496
0.00400012
0.00431049
0.00125082
0.00855615
0.00319263
0.00196531
0.00332538
0.00275046
0.00761671
0.0102068
0.0019442
0.00165188
0.0010275
0.000464865
0.0010511
0.00853588
0.00493878
0.00115
0.00496707
0.00431313
0.00329063
0.0080334
0.00199653
0.00551578
0.00425207
0.00563626
0.00715426
0.00304065
0.0104003
0.00206253
0.00398534
0.00555657
0.00282635
0.00460967
0.00109803
0.00129622
0.00409336
0.00357168
0.00535698
0.00583164
0.010432
0.00176111
0.00312759
0.00281267
0.000523631
0.00457855
0.00524793
0.00661217
0.0106542
0.0114291
0.0018173
0.0106838
0.00184302
0.000742818
0.00964664
0.00280922
0.00453985
0.00840462
0.00251804
0.00405354
0.00392516
0.00542517
0.00520134
0.00295211
0.00292191
0.00348197
0.00411101
0.0099302
0.0100075
0.000860145
0.00336445
0.00447582
0.0012383
0.00373136
0.00200499
0.00463621
0.00437991
0.00754061
0.0023852
0.00889614
0.00445146
0.0130993
0.00261178
0.0113184
0.00110268
0.0010491
0.0010917
0.000893494
0.000926935
0.00100994
0.000839857
0.00131062
0.00135509
0.00138291
0.00131982
0.00124215
0.00117643
0.00122771
0.00129268
0.00137484
0.000952839
0.00106944
0.00132906
0.00124222
0.00139337
0.00118474
0.00112286
0.0011289
0.00116214
0.0010533
0.00280855
0.00072237
0.000575245
0.0108411
0.00300357
0.00192878
0.00236729
0.00163163
0.00557903
0.0096006
0.00395694
0.0109054
0.00348224
0.00071307
0.00111065
0.00623021
0.00252212
0.0103898
0.00609213
0.00338992
0.0046155
0.00241045
0.0115805
0.00798793
0.0011694
0.00293548
0.00304325
0.000910624
0.000483917
0.000819307
0.00207485
0.00412076
0.0099978
0.00913742
0.000995849
0.00538395
0.00270272
0.00198037
0.00402799
0.00161154
0.00973119
0.00326621
0.00344955
0.00467619
0.00117111
0.00184068
0.0012492
0.00812032
0.00354049
0.00370375
0.0078596
0.00318125
0.0106768
0.00380666
0.00554507
0.0071911
0.00337692
0.0112365
0.00166959
0.00105739
0.000748021
0.0040152
0.00643831
0.00102301
0.00389086
0.00370122
0.0102967
0.00134506
0.00568368
0.00858902
0.00553894
0.00480597
0.0019317
0.00763617
0.00554955
0.00236629
0.00522111
0.00152402
0.00446498
0.00564317
0.0106853
0.00112705
0.00111479
0.0107934
0.00370266
0.00784287
0.00358082
0.00265802
0.00176313
0.00678118
0.00296343
0.00694462
0.00969666
0.00369958
0.009686
0.00150775
0.00195663
0.00758431
0.0071253
0.0124907
0.00105688
0.00114
0.00319907
0.00443819
0.00139393
0.00578058
0.000731715
0.00159364
0.00756655
0.001043
0.000423882
0.00228901
0.000889159
0.00801541
0.00608188
0.00194828
0.00904223
0.000948621
0.00155957
0.0103242
0.00330927
0.0080772
0.00125858
0.00109422
0.00448522
0.00336081
0.00489587
0.00304613
0.0061107
0.00733034
0.00280822
0.00317281
0.00777042
0.00471061
0.00451084
0.00951156
0.000780508
0.00694564
0.000818737
0.00212359
0.00159644
0.000731873
0.00206431
0.00264361
0.000648113
0.00269267
0.0104148
0.00293556
0.00370766
0.00387101
0.00452122
0.000919663
0.00153683
0.00507861
0.00817075
0.00546392
0.0015001
0.00231389
0.000909721
0.000706239
0.000741535
0.00283883
0.00838866
0.00113421
0.00281516
0.00466002
0.000281243
0.00851954
0.00486084
0.000598419
0.00302526
0.000626488
0.00184031
0.000918329
0.00061288
0.000625881
0.00280498
0.00272019
0.000720346
0.00110199
0.000503567
0.000554113
0.000523387
0.000506708
0.000980374
0.00100142
0.000554127
0.00062236
0.000646378
0.000635773
0.000907119
0.0129468
0.00792882
0.00489848
0.00636662
0.00477303
0.0104141
0.00499425
0.00122348
0.00105485
0.00636128
0.00297007
0.00486693
0.00170894
0.00585505
0.00322416
0.0100681
0.00845767
0.000479632
0.00716624
0.0024425
0.00389382
0.00074211
0.00279067
0.00257525
0.00623503
0.00154123
0.00565181
0.00736012
0.00328055
0.000894531
0.00106999
0.000837628
0.00226459
0.00575699
0.00304185
0.00392947
0.00247267
0.00292154
0.00485177
0.00165608
0.00412396
0.00357329
0.0038931
0.00555325
0.00852447
0.00941031
0.0110787
0.00215137
0.00144401
0.00549806
0.00459773
0.00387364
0.00354577
0.00310431
0.00196543
0.00276615
0.010827
0.00103013
0.00103689
0.0095104
0.00285077
0.00133571
0.00256892
0.00314429
0.00370577
0.0101965
0.00112259
0.00343107
0.00109214
0.000930477
0.00476456
0.0128239
0.00225168
0.0105487
0.00687355
0.0046167
0.00308592
0.00510496
0.00339289
0.00195271
0.00164588
0.0107094
0.00296542
0.0113592
0.00826262
0.010743
0.0130068
0.0014699
0.00500995
0.00432127
0.0038179
0.00244326
0.00989994
0.0020127
0.00283005
0.00560442
0.00661649
0.00150686
0.0109574
0.00772228
0.00273551
0.00315616
0.00292831
0.00117149
0.00288974
0.00512408
0.00329167
0.00287198
0.00333121
0.00236477
0.00232098
0.00637291
0.00913917
0.000942923
0.00262247
0.00387809
0.000902238
0.0034206
0.00421681
0.00291963
0.00341558
0.000892808
0.00407845
0.000892005
0.00294318
0.0105293
0.0111086
0.00163319
0.00280871
0.000844114
0.0111006
0.00278345
0.00183189
0.00694244
0.00319172
0.0102934
0.0113775
0.00384418
0.00365673
0.00154306
0.00169157
0.00158546
0.00766256
0.0018151
0.00176668
0.00694832
0.00117301
0.0107989
0.00379268
0.00220234
0.00283158
0.00671478
0.00592228
0.00113724
0.00955052
0.00222797
0.0008235
0.00892223
0.00710809
0.00368408
0.00292179
0.0017533
0.0108703
0.00241304
0.00734451
0.00375129
0.00431367
0.00564814
0.00473351
0.00779518
0.0109132
0.0115831
0.0025278
0.00213358
0.00171816
0.00426011
0.000757666
0.00313873
0.00329004
0.000501617
0.0109654
0.00156453
0.00311605
0.0105336
0.00242372
0.00659984
0.00387297
0.000902319
0.00278645
0.00436165
0.00196523
0.00155156
0.00207772
0.00354736
0.00309966
0.00993112
0.0107958
0.00560959
0.00180575
0.00139121
0.00102674
0.000891529
0.00153983
0.0058983
0.000968026
0.00456653
0.00493852
0.0066948
0.00612786
0.00323392
0.00818333
0.000886786
0.0040218
0.00680726
0.00500841
0.0021051
0.00271825
0.00278383
0.00312373
0.00295496
0.00239418
0.00639978
0.0107725
0.000936174
0.000438334
0.00463545
0.00251625
0.00288422
0.0104684
0.00644005
0.000762001
0.00298221
0.000579725
0.000869774
0.00158482
0.00191909
0.00307072
0.00900742
0.00043957
0.0108121
0.0038204
0.00334375
0.00171444
0.0010252
0.00765748
0.000973437
0.00414512
0.00231108
0.00405008
0.00789393
0.00134191
0.00340957
0.00317789
0.00309196
0.00254959
0.0029416
0.00110954
0.00560437
0.00299628
0.00729075
0.001066
0.00331396
0.00300817
0.00419011
0.00298322
0.00319097
0.00956154
0.00289179
0.0030345
0.00252697
0.00285176
0.00840236
0.0034361
0.00148057
0.000281018
0.00041475
0.00284142
0.0045828
0.00273939
0.00661565
0.00441344
0.00119761
0.00210548
0.0105818
0.00681159
0.00448251
0.00353876
0.00249905
0.00538957
0.0112835
0.00198573
0.00226675
0.00456429
0.00232206
0.00646574
0.00261831
0.00287903
0.00581688
0.00336666
0.00490449
0.00463629
0.0029059
0.00516434
0.00207743
0.00239782
0.00336431
0.00167905
0.00544473
0.00326958
0.00581705
0.00402682
0.00370628
0.00315095
0.00718753
0.00407599
0.00603164
0.00344779
0.00955769
0.0109646
0.00247374
0.00117496
0.00683045
0.00305083
0.00244731
0.00250665
0.00293917
0.00324683
0.0039839
0.00480882
0.00333599
0.0035884
0.000735812
0.00346104
0.0040578
0.00348721
0.00568962
0.00168788
0.00216585
0.00091771
0.00174802
0.000871588
0.000614686
0.00166253
0.00236962
0.000771904
0.000850984
0.00131484
0.000857149
0.0012519
0.0019404
0.00114511
0.000732791
0.00166303
0.0023534
0.00147831
0.00141313
0.00101521
0.00169583
0.000725384
0.000828841
0.000951273
0.00116272
0.00121053
0.00131871
0.00241558
0.000659302
0.000595989
0.00179491
0.000831989
0.00128359
0.00118963
0.0023863
)
;

boundaryField
{
    frontAndBack
    {
        type            empty;
    }
    wallOuter
    {
        type            nutkWallFunction;
        Cmu             0.09;
        kappa           0.41;
        E               9.8;
        value           nonuniform List<scalar> 
108
(
0.000124759
0.000138846
0.00011555
6.80347e-05
6.07907e-05
7.56692e-05
8.4591e-05
5.59357e-05
5.92262e-05
8.16688e-05
5.58989e-05
8.38759e-05
8.58299e-05
5.68727e-05
5.7284e-05
6.19595e-05
0.000131044
8.79461e-05
7.13542e-05
6.92351e-05
5.65798e-05
0.000134841
6.35672e-05
8.92709e-05
0.000130084
0.000124075
0.000128903
0.000106428
0.000110305
0.000119474
0.000100361
0.000151671
0.000158183
0.000161212
0.00015268
0.000144243
0.000137092
0.000142708
0.000151374
0.00016036
0.000112545
0.000125382
0.000155425
0.000145987
0.00016262
0.00013972
0.00013125
0.000131988
0.000135725
0.000124663
6.9391e-05
8.58535e-05
0.000136589
5.85681e-05
0.000137599
0.000124404
8.98628e-05
0.000130666
0.000135017
5.11043e-05
0.000112488
0.000147339
0.000129535
9.79995e-05
8.79881e-05
7.81979e-05
0.000109479
8.50806e-05
8.91069e-05
0.000134446
3.30003e-05
3.30003e-05
7.23827e-05
7.62813e-05
7.46496e-05
7.61989e-05
0.000129454
6.11953e-05
6.75436e-05
6.34452e-05
6.17148e-05
0.000116317
0.000118677
6.72891e-05
7.5535e-05
7.8466e-05
7.73143e-05
0.000108091
0.000143584
0.000125131
5.79812e-05
9.0017e-05
0.000106848
0.000126781
0.000121893
0.000122643
0.0001292
0.000111019
0.000106376
6.08238e-05
0.000105836
0.000114932
5.29017e-05
7.0698e-05
5.30596e-05
3.31937e-05
5.0164e-05
0.000141028
)
;
    }
    inlet
    {
        type            calculated;
        value           nonuniform 0();
    }
    outlet
    {
        type            calculated;
        value           nonuniform 0();
    }
    wallInner
    {
        type            nutkWallFunction;
        Cmu             0.09;
        kappa           0.41;
        E               9.8;
        value           nonuniform List<scalar> 
126
(
0.000217882
0.000235954
0.000182141
0.000152622
0.000228336
0.000223914
0.000114407
0.000128845
0.000187963
0.000226005
0.000103305
0.000190011
9.34381e-05
0.000135819
0.000187909
0.000209952
0.000135897
0.000110404
0.000118774
0.000144086
0.000244887
0.000109197
0.000221212
0.000123373
0.000141332
0.00021158
0.000214424
9.78483e-05
0.000103841
0.000182658
0.000107658
9.57866e-05
0.000207412
0.00025988
0.000247616
0.000184379
0.000111167
0.000219814
0.000152416
0.000207514
0.000175592
0.000109229
0.000121586
0.000194621
0.000225219
0.000159495
0.000182542
0.000163773
0.000116317
0.000168229
0.000125578
8.44947e-05
0.000155262
0.000218289
0.000151191
6.91017e-05
0.000112423
0.000190234
0.000162901
0.000132039
0.000126176
8.0195e-05
0.000125349
0.0001771
0.00011748
0.000170016
0.000172652
7.76034e-05
0.000145929
0.000160264
0.000160263
0.000164732
6.66685e-05
0.000163849
0.00020086
0.000192209
7.14952e-05
0.000111771
8.85518e-05
7.05439e-05
8.2845e-05
7.39927e-05
0.000187012
0.000192436
0.000190947
0.000215693
0.000198228
0.000203055
0.000147179
0.000227698
0.000181354
0.000156941
0.000131426
0.000193333
0.000109465
0.000201643
0.000104024
7.59417e-05
0.000191768
8.80796e-05
9.84266e-05
0.000152712
0.000102202
0.0001478
0.000220802
0.000134154
8.64925e-05
0.000191376
0.000263373
0.000170692
0.000165444
0.000120806
0.000194646
8.73006e-05
9.91623e-05
0.000113037
0.000130361
0.000136721
0.000148656
0.000269843
8.05512e-05
7.20786e-05
0.000204288
9.763e-05
0.000150154
0.000139969
)
;
    }
    procBoundary1to0
    {
        type            processor;
        value           nonuniform List<scalar> 
29
(
0.0042775
0.0042775
0.0017048
0.00252029
0.00600848
0.00254056
0.00264193
0.00150935
0.00243957
0.00251748
0.00257961
0.00254056
0.0017048
0.00258553
0.00188041
0.00102644
0.00600848
0.00494797
0.00252029
0.00559672
0.000800997
0.000733423
0.00311347
0.000704188
0.000704188
0.00311347
0.000715098
0.000899473
0.000715098
)
;
    }
    procBoundary1to2
    {
        type            processor;
        value           uniform 0.00410936;
    }
    procBoundary1to3
    {
        type            processor;
        value           nonuniform List<scalar> 
48
(
0.00872897
0.00544154
0.00737834
0.00737834
0.00406483
0.00424835
0.00424835
0.00376134
0.0068759
0.000847578
0.000782073
0.000847578
0.0013029
0.00539487
0.0052267
0.0013029
0.0013628
0.0013628
0.00173349
0.00173349
0.00509073
0.00456535
0.00188187
0.00183682
0.00183682
0.00171736
0.00434284
0.00434284
0.00362173
0.00308345
0.00178027
0.00362173
0.00376134
0.00515556
0.00173138
0.00308345
0.00453559
0.000782073
0.00829263
0.00297887
0.00564436
0.00457522
0.00515556
0.00173138
0.00465068
0.00102403
0.0037667
0.00564436
)
;
    }
}


// ************************************************************************* //
