/*--------------------------------*- C++ -*----------------------------------*\
| =========                 |                                                 |
| \\      /  F ield         | OpenFOAM: The Open Source CFD Toolbox           |
|  \\    /   O peration     | Version:  v1912                                 |
|   \\  /    A nd           | Website:  www.openfoam.com                      |
|    \\/     M anipulation  |                                                 |
\*---------------------------------------------------------------------------*/
FoamFile
{
    version     2.0;
    format      ascii;
    class       surfaceScalarField;
    location    "0.86";
    object      phi;
}
// * * * * * * * * * * * * * * * * * * * * * * * * * * * * * * * * * * * * * //

dimensions      [0 3 -1 0 0 0 0];
oriented        oriented;


internalField   nonuniform List<scalar> 
2776
(
-0.000492703
-5.47665e-05
0.000397693
0.000149776
-0.000874965
0.000946232
0.000303041
-0.000374308
-0.000478469
-0.000220595
0.000294685
0.000404379
0.000130331
-4.08668e-05
0.00100143
-0.00109089
-0.000126288
9.70248e-05
0.0001258
-9.65365e-05
-0.000118987
-0.000449498
0.000378907
0.000189577
-0.000135486
-2.23049e-05
0.000498659
-0.00012252
-0.000663793
0.000287654
0.00100695
0.000885689
-0.000889414
-0.00100323
-0.000937047
0.00074251
-0.000225062
0.000419599
-0.000335116
-0.00113671
0.00051233
0.0009595
0.000419116
0.000176599
-0.000549867
-4.58489e-05
0.000883675
0.000114738
-0.00136403
0.000365618
-0.000130514
-0.000115832
0.000120058
0.000116422
-3.85975e-05
-0.000196812
0.000467236
-0.00013796
-0.000664392
-0.000274674
0.000249901
0.000260019
-0.000235246
3.1955e-05
-0.000483661
0.000451706
0.000527169
-0.000156503
7.92782e-05
-0.000449945
0.000724376
-4.80938e-05
5.5472e-05
-0.000731754
-0.000695341
3.86808e-05
-2.73463e-05
0.000684007
-3.44551e-07
0.000224159
-0.00032529
0.000101475
0.000589778
2.24483e-05
-2.26175e-05
-0.000589609
0.00068973
4.52751e-05
-3.06155e-05
-0.00070439
0.000308127
-0.000380943
-0.00117108
0.0012439
1.64588e-05
1.0765e-06
2.4981e-05
-4.25163e-05
-0.000244107
3.56316e-06
0.000123452
0.000641479
-0.00072531
-3.96212e-05
0.000152582
-0.000121544
0.000180333
-0.000211371
-0.000354914
0.000407068
0.000625441
-0.000677595
0.000557483
-0.000821034
-0.000111494
0.000375045
4.54415e-05
-5.22051e-06
4.68415e-06
-4.49052e-05
0.000172194
-2.12678e-05
-0.000181118
3.01917e-05
-0.000328209
0.0002902
-0.000684173
0.000722183
3.79674e-05
9.1248e-06
0.000370997
0.000301032
-0.000151013
2.56302e-06
-0.000474533
-5.93928e-05
-0.000333108
0.000223985
0.000955345
-0.000230276
-0.000725069
-7.23164e-05
0.000243122
-0.000170805
-3.63749e-05
0.000289046
-0.000252671
-0.000481329
0.000546576
-6.5247e-05
-0.000486855
0.000481674
5.1814e-06
-0.000214195
-2.10471e-05
0.000235242
-1.06098e-05
-8.26733e-05
9.32831e-05
0.00058618
-9.6276e-05
0.00092733
8.56962e-05
0.00024027
-0.000229151
-1.11187e-05
-0.00027184
0.00031615
-4.431e-05
-7.02764e-05
0.000141544
-7.12672e-05
-0.000230942
0.000149966
8.09755e-05
-0.000212217
-0.000662748
-0.000362358
-8.71402e-05
0.000178638
-8.16135e-05
0.000280109
-0.000107915
-0.00108718
0.0013953
0.00045499
-1.34616e-05
-0.000441528
-0.000943216
-0.000193498
-4.97903e-05
-1.84759e-05
6.82662e-05
-0.000793159
-0.000143888
2.5994e-05
-1.63126e-05
1.7937e-05
-2.76184e-05
-0.000159919
0.000136064
-1.252e-05
-8.28136e-05
8.4195e-05
-7.36978e-05
-0.000205581
5.06071e-05
0.000596216
-0.000441243
0.000790618
-0.000684652
-0.000185736
7.97702e-05
0.00022203
-0.000268161
5.40282e-05
-7.89674e-06
0.000254768
4.85646e-06
-4.52467e-05
-0.000214378
-0.000204363
-5.38225e-05
-0.000451443
0.000869672
-0.00087241
6.88475e-05
-6.61097e-05
0.000184657
-0.000284405
-0.000151346
0.000251094
0.000162035
-0.00014446
-6.04254e-06
-1.15327e-05
5.35226e-05
-0.000546733
0.00049321
5.18777e-05
-0.000545527
0.000493649
0.00105563
-0.000450949
-0.000807329
0.000202648
1.08106e-05
-2.87524e-05
4.39358e-05
-0.000629262
-7.1392e-05
0.000304997
0.000395658
-1.63222e-05
-0.000161025
1.74283e-05
-0.000112115
-4.82206e-05
7.7522e-05
-0.000191278
9.62008e-05
9.50772e-05
0.000106766
-0.000389643
0.000342288
-5.94113e-05
-0.000590745
3.29976e-05
-5.60044e-05
0.000613751
-0.000285755
0.000466808
0.000331278
3.98648e-05
0.000258495
-7.37992e-06
-0.00029098
-0.000339561
-6.35313e-05
0.00029612
0.000106972
-0.000559275
1.64677e-05
0.000553959
-1.1152e-05
-3.61603e-05
0.000588706
-0.000576635
2.40894e-05
-0.000615058
0.00105044
-0.000763592
4.06562e-05
-1.66296e-05
0.000326184
-0.000350211
0.000760161
-0.000395561
2.88918e-05
2.33329e-05
7.79787e-05
-0.000130203
2.91055e-06
8.73411e-06
4.81414e-06
-0.000238976
6.49469e-05
-7.00774e-05
0.000232524
-0.000785089
0.000682895
3.12539e-06
0.000190151
-0.000275736
8.24591e-05
-6.31453e-05
-0.000242911
0.000183537
-0.00019836
0.000807603
0.000138629
-1.58867e-05
-8.02272e-05
0.000149322
-2.3522e-05
0.000147966
2.27116e-05
0.000127254
9.90802e-06
0.000230362
-4.05348e-05
-0.000231305
-0.00051638
2.95254e-05
-7.814e-05
-0.000585653
-4.62078e-05
-5.05129e-05
0.000368841
0.000590659
-3.77127e-05
-9.20169e-06
-1.92131e-05
1.21023e-05
0.000521147
-0.000548401
2.49464e-05
2.30796e-06
5.01035e-05
-0.000336164
0.000231294
0.000274429
0.000468081
-7.31615e-06
-8.25265e-05
2.95364e-05
6.03062e-05
0.000426284
-0.000118684
0.000136674
-0.000422232
0.000704674
3.59688e-05
-0.000129901
-4.15533e-05
4.4512e-05
-0.000115777
-5.91661e-05
-0.00105423
0.000942104
7.12587e-05
4.07765e-06
4.93479e-05
-5.11906e-05
-2.23487e-06
-9.5274e-05
6.45706e-05
-3.57555e-05
6.64589e-05
-8.43078e-06
-0.000205765
-5.35507e-05
4.29409e-05
0.000379345
-0.000154823
-0.000680251
0.000176258
0.000606293
-0.0001023
-0.00021317
0.000717488
4.53237e-05
-0.000549642
-0.000317926
0.000897332
6.27354e-05
-0.000642142
-6.14937e-05
6.60075e-06
8.33937e-05
-2.85007e-05
0.00011145
0.000531851
0.000129685
0.000611923
-8.0526e-06
-4.32493e-06
4.57995e-06
7.79758e-06
-0.000216536
-0.000208946
0.000174195
-5.73911e-05
-8.1602e-05
-9.15442e-05
-8.12737e-05
0.000718459
1.93531e-05
-0.000656539
0.000664811
2.04899e-05
-1.61025e-05
-0.000669199
0.000515008
-2.63707e-05
3.19007e-05
-0.000520538
0.000222267
-0.000132483
-0.000144979
5.5195e-05
-0.000557153
-9.1429e-05
1.50872e-05
0.000633495
5.07811e-05
4.34406e-06
-9.6836e-06
8.49409e-05
-4.42469e-05
-3.38483e-05
-6.84561e-06
0.000134873
-0.000113557
3.06618e-05
-5.19782e-05
0.000179194
-0.000143883
-6.4191e-06
1.85071e-06
-6.25631e-06
0.000229258
-0.000423047
0.00049683
-0.000812871
-9.22062e-05
0.000224826
6.40595e-05
-7.94051e-05
-4.77998e-05
-0.000177114
-4.38223e-05
-2.08769e-05
0.000241813
0.000235189
-7.62769e-05
9.12503e-05
0.000680857
-5.4235e-05
-0.000717873
0.000741446
-0.000605027
-0.000751477
2.93228e-06
1.70766e-05
6.46438e-06
-2.64732e-05
-0.000735948
0.000234458
0.000479139
2.23511e-05
-6.13721e-06
-3.08312e-06
6.00014e-05
-0.000625013
0.000191144
0.000540634
-0.000271686
0.000235526
0.000501227
-0.00075131
-0.000156375
0.000406458
-3.88807e-05
0.000117114
-0.000349244
0.000271011
8.5138e-05
-0.000379252
0.000735676
-0.000681085
7.50936e-05
0.000552754
-0.000514163
7.2859e-05
0.000643958
-0.000543997
-6.4121e-05
-3.58395e-05
0.000103409
0.00154561
-0.0012129
-0.000436124
0.000597769
-0.000825047
0.00035073
-6.78016e-06
1.32159e-05
3.74886e-05
-4.39243e-05
0.00012607
-3.30602e-05
4.85337e-05
-3.7811e-05
9.46122e-05
0.000531197
-0.000640831
0.000109634
-0.00040359
0.000288828
-0.00127401
0.00138877
-0.000442015
-3.07822e-05
0.000605844
-0.000133047
0.000223134
-0.000187495
-0.000390553
-7.47561e-06
-1.72078e-06
-5.3008e-09
4.76094e-05
2.31317e-05
9.12938e-05
-0.00132996
0.0011684
-0.00024851
0.000410075
0.000381682
-0.000326052
-0.000130723
7.50929e-05
0.000137239
-0.000556581
0.00053572
-0.000116379
-0.000149422
-5.49187e-06
0.000102055
5.2859e-05
-2.61735e-05
2.30565e-07
0.000358568
-0.000332626
0.000601881
3.1632e-05
-4.48072e-05
-0.000550877
2.33556e-05
-3.17534e-05
-0.000364321
-0.000190603
0.000215363
-0.000983282
-0.000170844
0.000281716
-5.74628e-05
4.34472e-05
-0.000177262
0.000689119
-0.000181797
-0.000588596
3.5083e-05
-2.6507e-05
9.36104e-06
-0.00040141
0.000282517
0.000351417
0.000304646
0.000362984
-0.000587828
-7.98012e-05
0.000113945
0.000163517
-0.00101341
3.6005e-05
-1.54027e-05
-2.80779e-05
-9.38316e-05
-0.000190573
-0.000403461
0.000326171
0.000521931
-0.00044464
-0.000253254
4.54139e-05
4.76467e-05
0.000160194
-0.000721053
0.000468546
-0.000385756
-0.000181911
0.000166257
0.000110911
-3.75313e-05
-0.000495871
0.000440304
0.000360634
-0.000305066
-0.000272695
0.000281218
1.84308e-05
-2.69544e-05
-0.000129816
-4.06414e-05
2.59979e-05
-0.000244526
-0.000436327
7.10438e-05
0.000728268
0.000493323
0.000778377
-0.000418922
-0.000852778
-5.50987e-06
3.33553e-06
1.25985e-05
-1.04242e-05
1.38873e-05
0.000715985
-5.49682e-06
4.47508e-05
0.000572712
-9.0293e-05
-2.90016e-05
1.13572e-06
-0.000561876
0.000589742
-2.32939e-05
2.30444e-05
-0.000261996
0.000262246
0.000427982
-0.000167835
0.000337622
-8.93454e-08
-0.000694948
-3.03677e-07
4.48646e-05
-0.000573335
0.000765695
-0.000237225
0.000618883
0.000117368
-0.00013437
-0.000530709
2.46962e-05
-0.00024809
-0.000449982
0.000333752
-0.00017499
0.000680207
0.000230459
-0.000155815
0.00052652
0.000182049
-4.74056e-05
3.61506e-06
-3.8736e-05
-4.24116e-05
-2.9696e-05
5.66462e-05
-3.98543e-05
-1.61019e-05
-0.000464642
0.000333665
-0.000118735
-0.000161871
7.14549e-05
0.000209151
4.20567e-05
0.000115219
-6.10165e-07
-0.000156665
-6.12567e-06
-8.20057e-06
-9.21489e-05
4.35386e-05
1.20468e-06
3.96086e-05
-6.67912e-05
2.114e-05
-4.19948e-05
0.000301468
-0.000523671
0.000264198
8.36561e-05
-0.000431854
-0.00023963
-6.64317e-05
0.000427656
-0.000385109
2.38847e-05
0.000155253
9.71994e-05
-0.000136816
-0.000115637
-1.30051e-05
-0.000243053
4.7484e-05
-8.741e-05
6.04826e-05
-2.05566e-05
1.31148e-06
0.00020463
0.000113308
-9.54981e-05
-0.00022244
8.15563e-05
-4.84955e-05
-0.000422703
0.000458377
-0.000296937
-0.000340459
2.48932e-05
6.68937e-06
-1.59645e-05
-1.5618e-05
7.57375e-05
-0.000619194
-2.39168e-06
2.38405e-06
-4.07925e-05
4.08001e-05
-0.000258043
0.000910084
-0.000282742
0.000241948
-2.66598e-05
6.74534e-05
-0.000312713
0.000740308
0.000597509
0.000197199
-0.000175825
0.000827596
-0.000425853
0.000891516
-2.42321e-05
3.98769e-05
0.000456483
-0.000472128
-2.59791e-06
4.82939e-05
-5.12059e-05
6.82846e-05
1.95885e-05
-7.63068e-05
0.000600789
-0.000785609
-0.000967364
0.00119321
0.000559763
-0.000411642
0.000412777
-0.000267158
0.000384526
6.93678e-05
-4.63234e-05
-2.61438e-05
0.00040218
-2.14235e-05
0.000458356
-3.48352e-05
-6.53664e-05
0.000438537
-0.000441636
-0.000501101
0.0005042
-2.3352e-05
-0.00042569
0.000504661
-7.89715e-05
-5.96019e-05
7.01279e-05
-0.000586257
-0.000144825
-0.00129743
0.000656646
0.000199518
-0.000471205
-0.000399069
-1.25727e-05
7.71205e-05
-7.75268e-06
1.17172e-05
6.51385e-07
-9.03306e-06
-1.51139e-05
2.05797e-05
-3.82726e-05
6.73004e-05
3.21449e-05
-0.000702466
0.00024936
-0.000161834
0.00061494
-0.000575278
0.000459262
0.000168568
-0.000205642
-7.64834e-05
2.93377e-07
4.60262e-05
1.3743e-05
-6.00626e-05
-0.000319811
0.000250839
0.000177581
-0.000108609
0.000318059
-0.000186
0.000431594
-0.000563653
-0.000552474
0.000500924
0.000220071
5.3934e-05
-0.000159278
-0.000114728
5.32096e-05
-9.06668e-05
9.37743e-05
-5.63172e-05
0.000340522
-0.000422364
2.22398e-05
-2.20709e-05
0.000318771
-5.09233e-05
4.65261e-05
-1.40787e-05
0.000930351
-0.000841876
-0.000507397
0.00054079
0.000378477
-0.00074301
0.000285144
0.000112549
-0.00082723
4.52775e-05
-0.000804973
0.000420566
-1.35892e-05
-0.000177013
0.000382601
-0.000359246
8.3037e-05
-9.0568e-05
-6.37361e-05
-5.06068e-05
1.2241e-05
3.53063e-06
-8.0607e-05
-9.34437e-05
0.000113216
6.08344e-05
-2.77203e-05
5.73909e-05
4.75808e-05
-7.72515e-05
5.72865e-05
-1.04444e-05
-4.68421e-05
-0.000560452
0.00140305
-0.00110064
0.000526779
-0.000569338
-0.000653882
-2.69508e-05
-7.44678e-05
5.25247e-05
-6.3743e-05
-9.74504e-05
9.25543e-05
6.86391e-05
7.91352e-07
-5.52831e-05
0.000251174
-0.000196682
-0.000887034
0.000915951
0.000372307
-0.000401225
-0.000206151
0.000139092
-0.00083853
0.000905589
-0.00109163
0.000532841
0.00074993
-0.000135969
0.000449319
-0.000355917
0.000718198
0.000129989
0.000286598
-0.000153233
-0.000263354
7.34034e-05
-0.000454449
4.99253e-05
0.000331121
0.000636525
-3.81131e-05
7.43195e-06
-5.64801e-05
5.20394e-05
4.65952e-05
-4.21544e-05
0.000693695
-8.63661e-06
0.000315271
-0.00100033
-0.000146241
0.000196535
-4.95021e-05
2.64436e-05
9.00427e-07
8.90784e-05
-4.61609e-05
-7.18522e-06
2.73933e-06
-0.000930044
-6.92969e-05
0.000121357
0.000877984
-0.000979695
0.000479582
0.00100367
-0.000503553
0.000103186
-0.000455541
0.000574277
0.000574959
-2.61007e-06
5.11761e-07
-6.6356e-05
0.000147552
0.000386406
-0.000467602
6.26837e-05
-0.000539835
0.000509107
-0.000475197
-0.000191336
0.000141514
-0.000170773
0.000761843
-0.000855783
0.000343299
-0.000209257
0.000291734
0.000356061
0.00121511
-0.000559467
0.000263252
-0.000918893
0.000441756
-7.45323e-05
-0.000253279
8.89005e-05
-2.96992e-05
-1.59495e-05
7.50593e-05
4.82447e-05
-0.000107355
7.85382e-05
-3.24651e-05
-6.33418e-05
1.72687e-05
-1.30851e-05
-7.4784e-05
3.06476e-05
5.72215e-05
-0.000413231
-2.81395e-06
-0.000436733
0.000300488
0.000123609
0.000290103
-0.00045174
0.000513954
-0.000352318
0.00047982
0.0011033
-3.75094e-05
-7.64867e-06
6.49352e-05
-0.000572381
-1.79039e-05
0.000795953
-0.000683472
0.000388298
-0.000500779
-0.000151869
-0.000803305
-2.81077e-05
0.000234578
0.000502416
-0.000524378
-0.000699334
0.00155186
0.000362577
-3.69993e-05
-0.00115174
0.0013147
-0.000125958
-3.11591e-05
0.00011042
0.000101359
-0.000159739
0.000152329
0.000204998
0.000406842
-0.000310808
-7.95584e-05
-0.000479908
0.00134246
-0.000547746
-0.00149405
0.000360926
-0.000452007
6.61052e-05
1.31556e-05
0.000344099
-7.43394e-05
5.81765e-05
-4.60724e-05
0.000602836
-7.33591e-05
-0.000294696
0.000360776
7.27949e-06
4.80705e-06
-0.000104522
-5.28658e-05
0.000276682
3.09524e-05
0.000684062
-0.000634892
-0.000519532
0.000470362
0.000682917
-0.000869955
0.000645032
-0.000457994
-0.000173031
9.34726e-05
0.000210458
0.000609562
-0.00046806
0.000320638
0.00106337
0.000309827
-1.18e-05
0.000499089
-0.000279898
-0.000219191
0.00058497
-0.000842572
-0.000248729
9.72603e-05
-3.98675e-05
-0.000464967
-0.000116924
6.8645e-05
0.000513246
0.000215793
0.000377128
-0.000416322
0.000710746
-0.000211656
-0.000203646
-1.01056e-05
0.000216877
0.000486715
-0.000694307
0.000221972
-0.000120322
6.6492e-05
-0.000168142
-6.56887e-05
0.000193347
3.11722e-05
-0.00015883
0.000272279
-0.000115996
5.60284e-05
0.000323625
-0.000107374
-0.000228542
1.18162e-05
0.000253434
-3.67077e-05
2.08331e-05
0.000385197
-0.000139993
2.26108e-05
0.000204652
0.000157935
8.89646e-06
0.000264888
2.65739e-08
0.000205405
-1.25916e-05
1.33558e-05
-4.7064e-06
3.94221e-06
-0.000131872
2.69031e-06
0.00015385
-2.46679e-05
1.08406e-05
-0.000174298
0.000161365
2.09197e-06
5.09194e-06
-0.000117059
-1.99053e-05
2.51783e-06
9.40205e-06
6.12089e-06
-1.80408e-05
-9.40038e-06
5.3827e-06
8.57503e-05
-8.17326e-05
2.11327e-05
-0.000111773
-0.000260473
0.000971219
-1.59805e-05
6.78959e-06
1.17087e-05
7.05977e-05
-7.99981e-05
-1.15564e-05
3.90363e-06
2.87855e-05
8.42301e-05
-2.01214e-06
-0.000531058
0.000101662
-0.000511402
0.000940798
-2.04986e-08
0.000143907
-0.00114614
-0.000209872
0.00113536
0.000220654
-5.33923e-05
1.81417e-05
6.56486e-05
-3.03981e-05
0.000575843
-0.000286723
-0.000820178
3.33836e-05
0.000145203
-0.000286993
0.000115949
0.000216796
-4.57516e-05
0.00012022
-9.15173e-05
-0.000125305
9.66024e-05
1.2268e-05
4.08191e-05
-1.05126e-06
-5.20359e-05
-5.70414e-05
0.000734546
-0.000495626
0.000471968
-5.08407e-06
7.1912e-05
-0.000232815
-0.000307706
0.000279821
0.0002607
0.000195703
0.000105926
0.000197002
-1.3194e-06
3.1084e-05
-0.000118697
2.78966e-05
1.0815e-05
-8.45704e-05
4.702e-05
-0.000121412
0.000158962
-2.84332e-05
-3.04368e-06
-6.00404e-05
5.73292e-05
-9.08465e-05
-2.09509e-05
2.42838e-05
-8.79032e-05
-0.00070437
-4.26179e-06
2.6438e-06
-1.93329e-05
-2.87719e-05
3.22063e-05
2.96773e-05
-0.000100714
7.61422e-05
1.02052e-05
2.13408e-05
1.19079e-05
-5.55536e-05
5.60522e-06
-7.98769e-07
-3.30947e-05
3.75998e-05
-1.93655e-05
-6.8352e-05
5.01177e-05
-4.94475e-05
4.05704e-05
1.42598e-05
3.04586e-05
-0.00020349
0.0010963
4.99589e-05
-0.00114625
0.00014782
-0.000167445
0.000248884
6.44545e-05
6.14318e-06
-3.54548e-05
-0.00012582
2.78676e-05
-7.71868e-05
4.93192e-05
0.000116962
1.49968e-05
-5.11734e-06
-8.23597e-06
-2.33152e-05
2.67977e-05
-3.93893e-05
5.84362e-05
0.000101858
-0.000145298
7.33233e-05
-0.000104066
0.000141789
9.58736e-05
-8.9843e-05
0.000188099
6.79223e-05
-0.000205918
0.00017604
-0.000188291
0.0011161
0.000174046
-0.000237519
0.000205263
0.000148852
0.00016055
-0.000121302
0.000137691
-0.000228934
9.35971e-05
-2.35432e-06
-0.000118312
0.000257514
0.000136866
-0.000276067
0.000131249
-0.000186043
-1.85215e-05
1.14413e-05
7.08025e-06
0.00141937
-5.44169e-05
-5.29595e-05
9.75319e-06
5.65621e-05
2.50845e-05
1.7132e-06
-7.67862e-05
-5.01254e-06
0.000124398
-4.25996e-05
4.74913e-05
0.00030655
-9.5546e-05
6.56304e-06
0.000151473
-9.57388e-05
9.6761e-05
-1.29907e-05
-9.67239e-06
6.6792e-06
0.000118206
-0.000147501
0.000145066
-0.000205343
0.000174968
0.000109989
-6.91637e-05
0.00015473
-3.35868e-05
-0.000155905
0.000169167
-1.44597e-06
-1.38479e-05
1.07385e-05
1.90766e-05
-3.39213e-06
2.10496e-05
-3.67341e-05
-3.41666e-07
-0.00013473
1.667e-05
-7.03682e-05
0.000183562
-0.000105929
0.000162163
8.67754e-05
-0.000137366
9.83475e-05
4.37209e-05
3.73766e-05
7.36324e-05
5.13097e-05
-1.44921e-05
4.85206e-05
-5.84598e-05
-0.00031443
3.19008e-05
0.000340989
0.000298323
-6.3866e-05
-0.000256345
2.18882e-05
0.000120756
0.000170415
-0.000102176
-0.000188995
0.000129673
0.00106486
-0.000402528
-0.000899793
-7.06567e-05
0.000342834
2.61454e-05
-0.000166438
0.000223328
0.00111851
0.00025259
-0.000112122
6.14144e-05
9.44281e-05
-8.31494e-06
5.49053e-05
-4.78562e-05
1.92052e-05
0.000338478
-9.33561e-05
-0.000116823
4.37414e-05
0.00048237
-8.72552e-06
-0.000128703
-4.89798e-06
-3.3022e-06
0.000177367
-0.000256957
-7.4198e-05
-0.000197852
-1.35048e-05
0.000214047
2.70954e-05
0.000485032
-0.000397087
-0.000115041
-8.89011e-06
0.000257426
0.000701292
-0.000263347
-3.30296e-05
0.000245439
5.0938e-05
-0.000133903
0.00042082
-0.000428532
-0.000185967
0.000480596
-0.000149574
0.000119499
-4.73145e-05
-0.000178114
-0.000179785
-0.000394886
-0.000127474
0.000449
-0.000832331
0.000944166
0.000227315
0.000128546
0.000130725
-2.59697e-05
0.000296012
-0.000296367
2.74506e-05
0.000228296
-7.37617e-05
-0.000170407
1.58726e-05
0.000274199
-0.000121527
-1.87173e-05
5.23926e-06
-0.00107602
0.00103902
0.000255183
-4.70572e-06
0.000234555
0.000108269
9.31853e-06
-5.17503e-05
5.31703e-05
0.000706875
0.000712631
0.000202027
2.67662e-05
-0.000941424
-5.74487e-05
0.000109856
0.000344515
6.74151e-05
3.58927e-05
1.46623e-05
-5.39471e-05
-2.0396e-05
0.000495171
-0.000466617
-8.15871e-06
-0.000846234
0.000705964
5.89006e-05
-9.91318e-05
9.85824e-05
-1.18829e-05
-8.70412e-05
4.69632e-05
9.97905e-06
4.48794e-05
-7.3918e-05
5.94972e-05
0.000106455
0.000381339
-2.98397e-05
-1.15275e-05
6.92348e-05
0.00107384
2.24526e-05
9.66617e-06
6.83234e-05
-8.2618e-06
-0.000184499
-0.000260813
0.000275649
-2.30979e-05
-0.000889513
0.000571256
-0.000683061
6.88995e-06
-0.000806248
-0.000496073
-0.00063201
0.000904284
-0.000100176
5.78047e-05
0.00015402
-0.000218586
1.02952e-06
-0.000168048
0.000110043
-0.000903704
0.000468487
2.73727e-06
-0.000960255
0.000667932
-0.000597189
2.86256e-05
-4.39077e-05
0.000696394
-0.000681112
0.000232118
0.000283697
4.26907e-05
-0.000356611
3.02231e-05
-2.79485e-05
9.49302e-05
-4.25294e-05
4.394e-06
-7.78078e-06
-2.1788e-06
-0.000230035
6.12713e-05
1.611e-06
0.000126725
0.000401604
-0.000588599
1.49313e-06
0.000411747
5.37134e-05
-8.62017e-05
-0.000560934
-0.00067577
0.00123653
7.66386e-05
-6.6207e-05
0.00052529
6.92979e-05
0.00057013
-0.00053192
-0.000107508
-8.79468e-05
0.000134081
-0.000976178
-4.21118e-05
2.79219e-05
0.00053948
-0.000514633
0.000132606
-0.000158031
0.000162604
-0.000137179
0.00147851
-0.000923868
0.000347657
-0.000902301
0.000439676
3.8205e-05
-0.000433874
-3.42232e-05
0.000742082
-0.000541262
-0.000345579
0.000144758
0.000223483
-0.000174595
-0.000160128
0.000613334
-0.000362665
-0.000364559
-4.90444e-05
-0.000164093
0.000233777
9.35213e-05
-0.000163205
-0.00119993
4.56803e-05
0.000100022
0.000812074
8.89324e-05
0.000206801
-0.00110781
0.000230029
1.14693e-05
8.48659e-05
-6.13536e-06
4.74966e-05
0.000433606
-0.000898765
0.000566316
-0.000139939
-0.00026181
0.000139811
0.000261939
-0.000347558
0.000651154
-0.00065728
0.000685847
-0.000444999
0.000503859
5.18323e-05
0.00114815
-0.00115003
-0.00011369
-0.000218935
0.000938398
-0.000930474
-0.000322889
0.00054553
-0.000442112
0.000964444
-0.000997529
0.000914615
-0.000900497
-0.000362735
-8.57833e-05
1.66645e-05
-0.000186923
0.000102094
0.000150934
-4.87514e-06
0.000187588
4.55832e-05
-0.000107033
-6.36126e-05
-0.000106164
0.000118691
0.000149635
-0.000167175
-0.00036873
0.000184096
-9.56899e-05
-0.000775211
-0.000191789
0.000673451
-0.000787296
-0.000499004
-0.000618051
0.00081848
0.000780885
-7.40943e-05
-0.000166
7.24298e-05
-0.000884017
5.85193e-05
-9.82245e-05
9.27474e-05
-0.000873479
1.01629e-05
1.44436e-05
0.000846517
-0.000871123
-1.08237e-05
3.61938e-05
0.000756763
-0.000792957
-0.000225504
5.77873e-05
-0.000163813
0.000600144
-0.000201938
-0.000127839
-6.76929e-05
-0.000571045
-0.000235004
0.000412588
-0.000410319
-3.43782e-05
0.000811538
-0.000766504
-0.000695443
-0.000842402
0.00097488
0.000562964
4.57183e-05
-2.97407e-05
0.000922421
0.000147095
0.000221601
0.000977792
-0.00102955
0.000700001
-9.57174e-05
-0.00105692
0.00110153
5.11126e-05
-0.00114087
-1.30513e-05
6.90829e-05
-6.50158e-05
-0.000539232
-0.000203272
0.000556537
5.23548e-05
-0.00047062
-0.0001549
0.000498046
-0.000344942
2.03738e-06
-0.0010342
-0.00049031
0.000473866
0.000146432
-4.19219e-05
-3.57845e-05
9.69116e-05
-0.000514694
-0.000191713
-0.000141348
-0.00073464
-4.24656e-05
0.000777106
1.2573e-06
-3.37754e-06
-3.10028e-06
0.000276038
-0.00126919
-5.36639e-05
0.00104681
-0.000448452
7.981e-06
-1.04592e-05
-6.92556e-06
0.000529077
-0.000511693
-4.62053e-05
3.34729e-05
-0.000945163
-6.76012e-05
2.76717e-05
-7.68939e-05
-4.6481e-05
-1.80665e-05
2.70162e-05
0.000622821
-0.000339022
0.000120791
0.000268117
0.000342447
0.000171355
2.28334e-05
5.7252e-05
0.000159769
-0.000412064
-6.75162e-05
0.000126788
-0.000225639
9.82408e-05
-0.000105539
0.000141752
3.52415e-05
2.38131e-05
-5.72027e-07
-9.2712e-06
4.05566e-05
-3.8934e-05
-0.000287126
0.000424458
-0.000146021
8.6894e-06
0.000859562
-0.000827177
0.000583818
3.62716e-05
0.000207087
-2.84738e-05
0.000220135
-3.3531e-05
3.20044e-05
-1.35872e-05
8.91505e-06
-6.8754e-05
1.25245e-05
1.41675e-05
-3.0302e-05
1.61345e-05
-6.43433e-05
2.9666e-06
-5.28816e-05
3.19522e-05
2.09294e-05
-6.57813e-05
5.89911e-05
6.79018e-06
-3.96758e-05
-0.00026301
-5.28436e-05
4.7378e-05
5.46559e-06
1.46015e-05
-0.00110362
0.00117772
-0.000487971
-0.00150993
-9.1467e-06
2.33142e-05
-7.25615e-05
0.000207725
0.000128534
-5.25619e-05
-7.65214e-05
2.36397e-05
-5.13878e-06
0.000673097
-0.000655123
-0.000221246
2.28055e-05
6.14755e-06
3.94775e-06
-0.000300453
-0.000184273
-0.000180921
0.000262267
0.000151574
4.56882e-05
-7.72249e-05
4.66344e-06
-0.000186998
0.000163185
-6.04357e-06
-0.000431713
5.29174e-05
0.000441479
-0.000186273
0.000195682
0.000704494
-8.52405e-05
-4.25133e-05
8.32303e-05
0.000659284
0.00110246
-0.000860017
0.000693606
7.05753e-05
0.000416639
-0.000318171
9.80137e-06
-1.49582e-05
-9.49206e-05
0.000118681
0.000113859
-0.000171852
-6.06891e-05
-0.000105512
-8.64048e-05
-0.000456048
2.21231e-05
-0.000608469
-0.000138763
9.3662e-05
0.00065357
0.000930618
-5.42943e-06
-7.16327e-05
6.52189e-05
8.18021e-06
1.66012e-06
7.07398e-05
-5.80463e-06
0.000208216
-0.000435149
-0.000333915
-9.45261e-05
1.23922e-06
0.000221821
-0.000158379
0.000167769
-4.1978e-05
-0.000103229
7.64534e-05
3.38673e-06
-0.000365636
-0.000633259
0.000579024
0.000866856
1.72122e-05
-0.000114677
-1.47885e-05
-0.000674482
0.000415811
-2.8225e-05
-0.000295571
0.000267792
-0.000195981
0.000331636
-0.000178511
0.000180563
-8.84062e-05
8.63547e-05
2.41186e-05
1.43022e-05
1.89797e-05
-0.000145714
0.000121923
2.37903e-05
5.04736e-05
-5.72857e-05
6.81215e-06
3.76168e-07
-8.69949e-05
6.09762e-05
-8.09557e-05
0.000604112
0.000218926
-3.49732e-05
7.16075e-05
9.77408e-05
-8.51182e-05
-0.000301964
0.000303629
-3.15979e-06
-0.00110384
-3.83163e-05
0.000112607
0.00121309
-0.00115611
3.76386e-05
-3.46186e-05
3.82518e-05
0.000105174
-7.59454e-05
0.000123874
0.000428847
5.38448e-06
-1.27087e-05
0.00043498
-0.000286145
-0.000394263
4.86379e-06
-0.000786858
-0.000454564
-0.000256603
-0.000140869
5.75032e-05
-0.000326135
4.46745e-05
-2.4228e-05
-6.06035e-06
-1.43861e-05
-3.08159e-05
0.000123385
2.6781e-05
4.5219e-05
-0.000173835
-0.000331471
0.000106924
0.000502277
-4.0551e-05
1.0249e-05
-0.000108988
-0.00101315
-3.7894e-05
7.45508e-05
-8.50965e-06
-5.69184e-05
-5.53869e-06
-0.000163037
-6.8799e-05
0.000220309
-8.65584e-05
0.000286656
-0.000333774
2.13461e-05
-0.000113685
-6.03018e-06
2.56125e-05
-8.71836e-05
-0.000133174
0.000556597
-2.19006e-05
3.29702e-05
-0.000195818
-0.000232105
-0.000772885
0.000985361
-0.000712137
0.000358903
-0.000489168
7.06762e-05
0.000798199
-0.000105705
0.000156099
9.11194e-05
-5.72485e-05
-6.31625e-05
4.59433e-05
0.000133018
-7.96616e-05
3.91975e-05
6.76782e-05
-1.203e-05
-0.000129566
0.000706349
-0.000184754
-0.000681723
0.000226721
0.000119872
0.000128368
2.22865e-05
2.81871e-05
-0.00011117
0.00117686
2.63374e-05
-0.000128744
-0.000628395
-1.28074e-05
-0.000932455
0.000574381
-1.77101e-05
0.000160818
-1.76171e-05
0.000191349
-6.29147e-05
-0.000142412
0.000197751
3.31344e-05
1.74594e-05
2.87617e-05
0.000533703
7.22884e-05
-0.000202445
0.000333274
6.88551e-05
-7.89922e-05
-4.73257e-05
-0.000274455
3.04917e-05
5.89565e-05
3.85602e-07
2.35499e-06
4.42794e-05
0.000394833
-0.000486959
-4.10488e-05
-0.000694904
-0.000519004
0.000441024
-4.56053e-05
8.01505e-05
0.000107041
-4.74943e-05
-1.54912e-05
5.41221e-05
-0.000230547
0.000143176
-0.000133786
0.000432839
-1.93724e-06
0.000130221
-8.65277e-05
7.8988e-05
-0.000129276
6.82702e-06
-5.55818e-06
0.000775163
-0.000455638
-0.000180432
0.00043453
-0.000376864
2.98805e-06
-0.000143391
9.15553e-05
0.000452144
-0.00118354
-0.000281752
-0.000162343
0.000272778
-0.000330021
-0.000126527
-0.000558218
0.000472529
-0.000155398
-6.01213e-05
3.87028e-05
-0.000476269
-0.000529707
-0.001237
-3.90394e-05
6.1854e-06
-0.000183691
-6.94152e-06
5.81998e-05
-2.73989e-05
-2.38594e-05
0.00017172
-0.000148317
-2.39332e-05
0.000235807
-0.000260369
-0.000161306
0.000474243
-0.000379294
0.000152557
-7.9439e-05
-0.000468679
0.00101717
-0.000966163
3.31388e-05
0.000381011
-0.000246809
-4.50921e-05
7.96852e-05
1.36517e-05
-1.86426e-05
5.78875e-06
1.11331e-05
-0.000113718
-0.00146654
-0.000831273
-0.000382853
0.000313829
7.95354e-05
-2.70863e-05
1.70941e-05
-0.000122371
-2.43345e-05
-8.69268e-06
-1.93221e-07
-0.000207219
-6.49265e-05
7.95618e-06
-8.51346e-05
-0.000566762
0.000580649
-0.00051129
0.000576142
4.50712e-06
-0.000502717
0.000442839
5.9878e-05
-0.000447171
-6.4119e-05
-4.3316e-06
-0.000680199
0.00068011
-0.000554347
0.00056935
-1.50031e-05
-0.000509596
-0.000631793
-4.84067e-05
0.000652764
0.00062587
2.68936e-05
-0.000560749
-0.000430318
0.000490621
-0.000444622
-4.59989e-05
-0.000333381
-9.69375e-05
-0.000240177
-9.32032e-05
0.000178994
-0.00013358
-6.11834e-05
0.000612538
1.33324e-05
0.000629793
-1.72556e-05
0.000649146
1.51049e-06
0.0005298
-0.000371758
7.16914e-05
-9.51549e-07
-7.00069e-05
-0.000136632
6.94601e-05
-0.000239757
0.000146832
5.59064e-05
-0.000140428
0.00015166
-0.000236371
-0.000678664
0.00018779
-2.33599e-05
7.38391e-05
0.000458627
-0.000568992
0.000138964
-0.000178441
0.000138516
0.00014014
0.000100455
2.14688e-05
-0.00083929
-3.76364e-05
-5.41123e-05
0.000119534
-7.62835e-05
9.64264e-05
-0.000788384
-0.000194216
-0.00149391
0.000537576
0.000278249
-0.000219708
-2.90155e-05
0.000643608
-9.5936e-05
0.000136853
3.51117e-06
7.50875e-06
0.00105624
-0.00126011
7.98228e-05
3.93228e-07
-8.0216e-05
0.00125805
3.38374e-05
6.24781e-05
0.000213759
-0.000132199
7.85286e-06
3.12739e-05
0.000222812
0.000767635
-0.000776785
-0.000175605
-0.000185568
2.19483e-05
-0.000374564
0.00020634
0.000699421
0.000791088
-0.00079577
9.44631e-05
-1.57903e-05
6.00545e-05
-5.74614e-05
0.000276801
-0.000164681
0.000174478
-0.000529266
-0.000786998
-0.00021352
-7.01751e-05
0.000170819
-7.59995e-05
0.00012396
-0.00021878
0.000235351
0.000223395
-0.000216798
8.73029e-05
-7.12011e-05
-8.16573e-05
-0.000229375
0.00059355
0.000120457
1.56546e-05
-1.43052e-05
-1.36086e-05
3.57649e-05
0.000163675
0.000281987
-0.000400875
-6.41702e-06
-0.000130921
0.000686656
0.000581553
-0.000198878
-0.000100945
-0.000526051
-0.000603987
0.000595261
-0.00017189
9.54648e-06
-0.000730466
0.000533809
-0.00015926
-0.000334903
0.000194199
4.7353e-06
0.000120864
0.000349061
-0.000505629
-6.8495e-05
0.000206929
2.27452e-05
-7.88268e-05
9.73181e-05
-0.000574398
1.27815e-06
-4.18595e-05
-3.39033e-05
0.000399082
0.000119466
0.000419168
0.000439042
-0.000134828
0.000130119
0.000464555
-0.000485764
-9.90215e-05
1.89145e-05
-4.20983e-06
-1.19653e-05
-0.000259767
-6.56304e-05
2.02139e-07
-0.000472637
-0.00134982
0.00111575
0.000224189
-0.000128506
0.000679479
0.000201528
6.86368e-05
5.38784e-05
5.39155e-05
-0.00019433
0.000272091
-3.52541e-05
1.25883e-05
4.01252e-05
3.26758e-05
-4.48544e-05
-9.4854e-05
5.69428e-05
-6.18675e-05
0.000123616
0.000764312
0.000500492
-0.000404428
-3.31363e-05
0.000236394
-0.000172627
-0.000338223
-0.000142927
0.000213423
-0.000245309
3.4814e-05
-0.000109435
6.76954e-05
0.000241191
-0.000302364
-6.52257e-06
-6.10221e-05
-4.53655e-05
1.91546e-05
2.04541e-05
-0.000205647
0.000151942