/*--------------------------------*- C++ -*----------------------------------*\
| =========                 |                                                 |
| \\      /  F ield         | OpenFOAM: The Open Source CFD Toolbox           |
|  \\    /   O peration     | Version:  v1912                                 |
|   \\  /    A nd           | Website:  www.openfoam.com                      |
|    \\/     M anipulation  |                                                 |
\*---------------------------------------------------------------------------*/
FoamFile
{
    version     2.0;
    format      ascii;
    class       surfaceScalarField;
    location    "0.72";
    object      phi;
}
// * * * * * * * * * * * * * * * * * * * * * * * * * * * * * * * * * * * * * //

dimensions      [0 3 -1 0 0 0 0];
oriented        oriented;


internalField   nonuniform List<scalar> 
2776
(
-1.63244e-05
8.44763e-05
8.12128e-06
-7.62732e-05
1.07847e-05
-7.31755e-07
4.55944e-05
-5.56473e-05
9.74408e-05
-1.05739e-05
2.14271e-05
-0.000108294
-2.1675e-05
1.28174e-05
0.000109078
-0.000100221
0.000121127
0.000131538
-6.94655e-05
-0.0001832
0.000240863
0.000146751
-0.00025357
-0.000134044
7.75912e-05
-6.0659e-05
5.87813e-05
-7.57135e-05
0.000104698
-2.42799e-05
3.38347e-05
0.000199977
-0.000222696
-1.11161e-05
4.71687e-05
-3.98986e-05
2.56426e-05
-3.29128e-05
-3.33524e-05
-2.9105e-05
6.24574e-05
3.8282e-05
-3.75771e-05
-1.03169e-05
9.61201e-06
9.23259e-06
-9.23259e-06
0.000168642
-8.59738e-05
-7.95251e-05
-3.14326e-06
-1.89833e-05
-0.000130892
0.000105212
4.46626e-05
3.21765e-06
4.45976e-05
1.38797e-07
-4.79541e-05
2.852e-05
4.55535e-07
-2.89756e-05
4.70119e-05
3.05908e-05
-3.24052e-06
-7.43622e-05
3.25055e-05
1.45199e-05
9.56633e-05
-0.000142689
3.51426e-05
-5.27661e-05
0.000137959
-0.000120335
-2.60551e-06
2.16294e-06
-2.96579e-06
3.40837e-06
-5.0157e-06
-4.11219e-05
3.74223e-05
8.71532e-06
0.000100361
-9.65339e-05
-3.82723e-06
-7.44599e-06
-6.729e-05
5.767e-05
1.70661e-05
6.83717e-05
0.000125899
-2.56283e-05
-9.56881e-05
-5.36624e-06
9.74519e-05
3.60246e-06
-9.53328e-05
6.48054e-05
-3.03822e-05
6.09096e-05
2.3205e-06
3.09632e-06
-8.58978e-05
8.04809e-05
-7.37051e-05
1.44946e-05
0.000161654
-0.000146579
-1.50752e-05
-3.73529e-05
2.0381e-05
-7.5546e-05
9.7615e-05
-0.000117753
-8.85225e-05
0.00010866
4.73154e-05
-5.65795e-05
-5.98057e-05
-4.58301e-06
-5.40366e-06
-0.000125172
0.000135159
-6.75929e-05
-4.43906e-05
5.07014e-05
6.12821e-05
9.29703e-05
-0.000104842
-7.11162e-06
9.55163e-06
3.47619e-05
-2.88203e-05
-1.54933e-05
2.38727e-05
0.000101171
-7.13268e-05
-5.37164e-05
-3.7819e-05
0.000126628
-0.000159625
7.08163e-05
1.10402e-05
-1.6657e-05
1.87201e-05
3.80138e-05
-1.84519e-05
-7.12776e-05
8.90899e-05
-6.64598e-06
-1.11663e-05
-0.000201434
0.000127395
0.000107874
-6.21693e-05
3.71479e-05
4.20775e-05
-1.70562e-05
8.37567e-05
-7.51701e-05
-2.73422e-05
1.87556e-05
2.64549e-05
-9.19976e-05
0.000134513
-6.89701e-05
2.80101e-05
9.4033e-05
-4.17659e-06
-0.000117867
2.96271e-05
-3.09932e-05
4.8378e-05
-5.8701e-05
-9.81151e-06
-2.76507e-06
7.09119e-06
-1.1004e-06
-8.5963e-06
8.43486e-06
-8.97103e-06
0.00010517
-0.000104633
-1.59876e-05
2.22226e-05
-2.89058e-05
-1.09804e-05
-4.10782e-05
3.63259e-05
-5.90456e-06
1.06568e-05
-9.39487e-05
-2.63935e-06
9.28359e-05
3.75215e-06
-7.29669e-05
1.85928e-05
4.334e-05
1.10341e-05
-1.93413e-05
4.42673e-05
-3.59974e-05
1.10714e-05
-3.61294e-06
-4.78299e-05
1.03647e-05
2.00145e-06
5.76828e-07
5.11045e-05
-5.36828e-05
0.000157071
-2.46526e-05
6.51068e-05
-3.61696e-05
-4.28464e-06
7.98719e-05
-0.000150973
7.87643e-05
-7.66277e-06
3.4635e-05
-8.62837e-06
1.03194e-05
3.0778e-07
-1.40414e-05
1.58966e-05
-1.80268e-05
-0.000107051
0.000126486
-1.40866e-06
-2.35021e-05
-1.40195e-05
3.25059e-05
1.87414e-05
-1.60393e-05
0.000109641
-0.000112344
-9.73118e-05
0.000112808
-4.31055e-05
2.76094e-05
-2.26077e-06
0.000102132
-7.59985e-05
-9.68889e-05
2.13913e-05
0.000107465
-3.19676e-05
8.35261e-05
-8.57869e-05
5.58651e-05
-3.16946e-05
-5.06461e-05
-8.64575e-05
-9.31845e-06
-1.11302e-06
6.66444e-05
-0.000107565
7.05473e-05
-0.00010615
-6.891e-05
0.000101355
2.62448e-06
-2.94627e-05
2.32252e-05
5.28361e-06
-6.26863e-06
0.00010612
-0.000105135
8.14946e-05
3.75146e-05
-7.50926e-05
-4.39167e-05
9.06549e-05
-1.39296e-05
-9.43038e-05
1.75784e-05
-1.71748e-05
-3.85784e-05
-2.94783e-06
0.000128516
-0.000117866
-9.51829e-06
-1.13187e-06
2.35411e-05
1.10749e-05
-4.24651e-06
-3.03695e-05
7.11808e-05
5.90959e-05
-1.76097e-06
-9.62223e-05
-2.28004e-05
4.71581e-05
7.18646e-05
0.000167523
1.00996e-05
-3.49399e-05
-0.000142682
-2.45654e-05
4.11017e-05
-6.82092e-05
5.16729e-05
0.000127451
-3.00941e-05
4.03636e-05
-0.000137721
-4.74446e-06
7.75306e-05
-7.27862e-05
-7.26792e-06
2.80887e-06
-8.32699e-06
1.2786e-05
-2.98231e-05
-7.85006e-05
0.000115586
-7.26192e-06
9.7191e-06
9.27316e-05
-9.40158e-05
4.40291e-05
-4.16823e-05
1.88993e-05
8.1868e-05
-1.21916e-05
-8.85757e-05
1.02493e-05
-1.81021e-05
-5.45365e-05
6.23893e-05
7.77922e-05
-1.9837e-05
-0.000106897
4.89416e-05
2.00339e-05
-1.74704e-05
0.000124888
-2.85587e-05
8.14017e-05
-8.64023e-05
7.32112e-06
-8.54969e-06
4.82832e-05
6.8806e-05
-0.00010854
-4.06637e-05
5.9563e-05
9.17455e-06
-8.95536e-05
8.39821e-05
-3.60302e-06
-3.85727e-05
-0.000136406
-2.44455e-05
2.38305e-05
9.22775e-07
-1.02444e-05
8.9894e-05
1.10054e-05
3.34033e-05
4.94564e-05
-5.06751e-06
9.32101e-05
-9.63053e-05
7.11778e-05
-6.80827e-05
-1.15164e-05
6.74612e-06
-2.46212e-05
2.93916e-05
1.07116e-05
-4.10391e-05
-6.8991e-05
9.93186e-05
9.97717e-06
-2.74599e-05
-4.84027e-05
6.58854e-05
1.72328e-05
0.000111948
1.50322e-05
-5.7996e-06
-0.000130744
-0.000234749
1.9475e-05
0.000346019
0.000158862
4.12923e-05
-7.99997e-05
-0.000120155
0.000160184
-0.000111558
0.000110236
-7.88132e-05
-5.06101e-06
5.93087e-05
-3.30736e-05
1.93471e-05
4.42881e-05
-3.05617e-05
-4.23317e-05
-1.1451e-05
3.97413e-05
9.0865e-06
-5.94603e-05
7.75011e-05
-2.71273e-05
7.14134e-05
-3.01212e-05
-5.85226e-05
5.40237e-05
-9.17235e-05
6.19538e-05
-1.9611e-05
0.00012518
-9.08207e-06
3.91013e-06
-1.55325e-05
2.07044e-05
8.67253e-06
-9.22619e-06
3.30569e-06
-2.75203e-06
8.73483e-05
-5.06814e-05
0.000128537
-0.000165204
-9.7635e-06
-4.09769e-06
6.59327e-06
3.57881e-05
0.000129583
-4.0818e-05
-0.000124553
-3.20816e-05
-6.30923e-05
3.4821e-05
6.03528e-05
-9.64195e-06
1.37405e-05
-9.0556e-05
5.31964e-05
-5.24547e-05
-1.96691e-05
1.89274e-05
-1.21266e-05
7.47887e-06
3.92827e-05
4.50263e-06
-9.65465e-05
-3.75483e-06
9.57987e-05
8.50658e-06
-1.35335e-05
7.65144e-06
7.3885e-05
-2.87089e-06
1.80758e-05
8.41487e-05
-9.74521e-05
8.11595e-05
-6.78561e-05
-0.000109468
9.13854e-05
3.54021e-05
-1.73196e-05
3.46291e-05
-2.04562e-05
-2.38148e-05
-2.76129e-05
-1.22858e-05
1.26841e-06
7.62622e-05
4.8665e-06
-2.46628e-06
-9.3622e-06
6.96199e-06
-2.25469e-05
4.28274e-05
5.36881e-06
-2.56493e-05
-5.7236e-05
3.15248e-05
-6.4306e-05
6.35389e-05
7.67016e-07
4.44719e-05
8.47656e-06
-5.29485e-05
-1.29063e-05
9.34938e-05
3.02091e-05
-0.000110797
-7.55756e-06
7.71112e-06
-1.22802e-05
1.49923e-06
4.87541e-06
-9.7724e-06
-2.37547e-05
1.37879e-05
1.86393e-05
4.53062e-05
5.54094e-05
-5.96139e-05
1.38563e-05
6.27929e-05
-4.54097e-05
-3.12395e-05
4.23989e-05
8.15471e-05
-0.000103912
-6.28464e-05
-3.94567e-05
1.46487e-05
8.76544e-05
9.27574e-05
-5.59361e-05
-8.90755e-05
0.000151017
-3.68164e-05
-2.51247e-05
2.21047e-05
-1.46186e-05
1.63532e-05
-2.38393e-05
2.44718e-06
-9.41666e-05
1.26467e-05
8.14457e-05
-1.26907e-05
0.00016561
-1.46721e-05
-1.53691e-05
-0.000135569
-6.32368e-05
-6.4914e-06
1.90856e-05
-9.91522e-05
-7.80775e-07
1.35307e-05
-2.08661e-06
1.34021e-05
0.000160674
-0.000133565
-1.07488e-05
-1.63597e-05
-2.68656e-05
-1.33048e-05
4.01705e-05
-0.000119398
7.34355e-05
-6.30518e-06
5.22673e-05
-4.78379e-05
4.61755e-05
-9.36704e-05
1.0212e-05
3.48416e-05
-2.15125e-05
-2.79689e-05
3.61401e-05
2.90376e-06
1.70903e-05
-1.6953e-05
-9.36351e-06
-7.38855e-06
-1.16929e-06
1.00027e-06
8.50183e-05
-0.000115901
-8.78797e-05
5.01744e-05
4.849e-05
-1.67515e-05
-8.00743e-05
-2.32637e-06
3.42997e-06
2.37722e-06
-3.52698e-05
-2.28617e-05
-2.91175e-06
-0.000105118
-1.84306e-05
-9.50005e-05
8.76996e-05
-8.35464e-05
5.02136e-06
-6.23357e-05
8.26929e-05
-5.24388e-05
1.5597e-05
0.000126229
-2.1067e-05
-6.21082e-05
-1.70063e-05
9.12165e-05
7.96535e-05
-7.75232e-05
-1.23747e-05
4.7788e-05
-0.000285096
-3.79627e-05
0.00027527
8.17398e-05
1.67708e-05
-5.54029e-06
4.66846e-05
-6.42705e-05
-9.74616e-06
7.40167e-05
-0.000102601
8.83936e-05
1.42077e-05
2.47366e-05
-2.09304e-05
-4.06431e-05
9.35839e-05
3.47588e-05
-3.48369e-05
3.02824e-05
2.67384e-05
-1.8916e-05
8.3563e-05
-5.90624e-05
4.32708e-05
-7.94397e-05
9.52314e-05
-7.11576e-05
0.000105305
-0.00011524
-7.27208e-05
9.16555e-05
-7.67899e-05
1.0727e-05
-8.5951e-05
4.31941e-06
-1.94077e-05
4.03536e-05
-2.52653e-05
-4.33656e-06
4.6769e-06
-5.96618e-06
-0.0001027
-1.07312e-05
3.07567e-05
-3.74211e-05
-6.63973e-05
7.20151e-05
-1.54292e-05
-8.2294e-06
6.97033e-05
-0.00012573
-3.59709e-05
-0.000109055
-1.86486e-05
-3.68257e-05
4.48825e-05
-1.57499e-05
7.69316e-06
-6.26316e-05
6.90767e-05
9.04994e-05
-2.21584e-05
-0.000145131
4.07732e-05
-3.22218e-05
-4.23191e-06
0.000107974
-7.50807e-05
-3.16058e-06
-2.97323e-05
6.85958e-05
-9.71299e-06
-8.16693e-05
2.73193e-05
8.39676e-05
-2.96175e-05
-2.60311e-05
-8.45747e-06
3.44886e-05
0.00011309
-4.91982e-05
-0.000143892
-0.000104873
1.28498e-05
8.27053e-05
1.99712e-05
-5.61875e-05
-2.73535e-05
6.35698e-05
-7.56068e-05
-4.10129e-05
0.000100295
-7.27327e-05
0.000111093
6.5369e-05
1.43702e-05
1.42938e-05
1.42182e-06
-1.25871e-05
3.77676e-06
1.42845e-05
9.60408e-05
-4.49564e-05
6.97696e-05
-0.000116638
5.20207e-05
3.86696e-05
-8.33814e-05
-7.30891e-06
-1.16194e-05
-2.70104e-05
1.43851e-05
2.42447e-05
-0.000193614
-4.91589e-05
5.99491e-05
0.000182824
-2.95487e-05
7.29552e-05
4.07422e-05
-5.41007e-05
6.61582e-05
-3.81359e-05
2.60784e-05
9.04515e-05
-0.00010042
3.81361e-05
-2.81678e-05
-4.04265e-05
3.63286e-05
1.97903e-05
-1.56924e-05
2.76791e-05
5.49888e-05
-6.33087e-05
3.90767e-05
-2.2945e-05
4.79793e-05
-6.54608e-05
9.81701e-05
-1.55405e-05
-7.04968e-05
9.31097e-05
-3.99318e-05
3.62812e-05
-2.99178e-05
-5.40678e-05
-2.38083e-05
-6.43521e-05
-8.4341e-06
5.74993e-05
-3.65798e-07
-7.64399e-05
-6.5053e-06
-2.78254e-05
1.6206e-05
-9.47752e-05
9.52314e-05
-4.56223e-07
6.48112e-05
-1.64795e-05
-4.6298e-05
1.84726e-05
4.00962e-05
8.37973e-05
5.08013e-05
4.86668e-06
-4.20819e-05
-1.35861e-05
-6.16585e-05
-2.19136e-05
-6.9199e-05
6.22565e-05
0.000112557
-5.70453e-05
3.62399e-05
-4.44074e-05
5.89687e-05
-7.12966e-05
9.17944e-05
1.80705e-05
0.000100179
4.24246e-05
-0.000368299
9.72689e-05
0.000406277
-0.000135246
7.02878e-05
8.13706e-06
-0.0001168
5.60036e-05
-7.0126e-05
8.41768e-05
2.2189e-05
-7.92449e-05
1.34829e-05
-0.000175252
-7.83178e-05
8.63018e-05
5.57361e-05
-9.73753e-05
-0.000326816
6.55479e-05
-7.24278e-05
4.58704e-07
-3.72803e-05
4.00735e-05
-2.22009e-05
4.10291e-05
-9.31086e-05
8.81587e-05
-3.60792e-05
1.71929e-05
-8.8822e-05
-2.33714e-05
-4.39974e-05
4.90927e-05
6.78599e-05
-5.5935e-05
5.4408e-05
3.53701e-05
-4.60092e-05
-8.70212e-06
2.92966e-05
2.864e-05
-0.000127369
-1.10709e-05
4.67269e-05
-2.73521e-07
1.85132e-05
-2.25529e-07
-3.27102e-06
6.80224e-06
1.65812e-05
-1.76717e-05
-2.50226e-05
2.61131e-05
-5.45158e-05
2.32763e-05
4.1613e-05
-1.03735e-05
1.10197e-05
-4.74088e-06
-2.42446e-05
1.79658e-05
-5.41401e-05
-8.71263e-05
7.75578e-05
5.2459e-05
-4.28905e-05
-2.95639e-05
6.308e-05
7.91775e-05
1.37028e-05
-8.64883e-06
-0.00023171
-8.64573e-05
3.12566e-05
1.21086e-06
2.32517e-05
-5.57191e-05
-3.56745e-05
-2.89328e-05
3.15948e-05
7.29716e-05
-2.18735e-05
-1.50158e-05
1.41135e-05
-2.2222e-05
2.31244e-05
1.06594e-05
-0.000210448
0.000247577
-5.34201e-05
0.000212052
9.48096e-05
-0.000253441
2.20143e-05
3.74299e-06
6.06723e-05
-6.26516e-06
-1.94409e-05
-1.2756e-05
2.99626e-05
2.23433e-06
-0.000136757
6.27402e-06
-3.69903e-06
1.01777e-05
-1.27526e-05
2.21172e-05
2.01591e-05
-7.69452e-05
5.18261e-06
6.88509e-05
-2.77483e-05
-1.56059e-05
2.40577e-05
1.92965e-05
-1.52765e-05
-2.61969e-06
1.8841e-06
1.60121e-05
4.13869e-05
4.14133e-05
-1.70735e-05
1.6848e-05
0.000129492
0.000363004
-1.65071e-05
-0.000206075
0.000173423
-7.82654e-05
7.12847e-06
8.0856e-05
1.51128e-05
3.93543e-05
-1.30216e-05
5.77629e-06
1.49564e-05
3.02891e-05
4.44586e-05
-5.66861e-05
-2.50528e-05
1.65115e-06
-1.92688e-05
-5.48102e-05
-2.52215e-05
0.000104874
5.12627e-05
3.96098e-05
-6.41342e-05
6.37761e-06
4.13931e-06
-7.3884e-05
4.32215e-05
-4.05243e-08
5.27063e-06
2.42133e-06
3.02935e-05
-2.55449e-05
-5.71874e-05
0.000116711
-0.000107915
-8.79681e-06
8.66735e-06
3.75845e-06
-1.24258e-05
-9.84013e-05
6.56373e-05
3.27641e-05
-5.9198e-05
5.46137e-05
4.58437e-06
0.000141078
-0.00012307
-1.80083e-05
7.13776e-05
-4.6689e-06
-6.67087e-05
-0.000105873
-1.5402e-05
0.000121275
6.88394e-05
-4.80325e-05
-2.08069e-05
0.000129092
-0.000123369
-5.72293e-06
-6.83312e-05
9.13317e-06
9.27316e-05
-8.49193e-05
-7.81224e-06
2.73184e-05
-1.8651e-05
0.000121473
-4.7612e-06
3.54478e-05
-4.42504e-05
8.8026e-06
-0.000119997
4.47674e-05
-4.81659e-05
3.39856e-06
-0.000100589
0.000109104
-4.02646e-05
0.000160316
-3.12244e-05
-4.09647e-05
2.4888e-05
1.60767e-05
-5.59101e-05
-4.01836e-06
5.99285e-05
-0.000160378
6.19766e-05
9.71652e-05
-1.93381e-06
-9.27063e-05
7.76162e-05
1.50901e-05
-0.000115544
8.44901e-05
3.10542e-05
-7.68263e-06
-2.60367e-05
1.42785e-05
3.33725e-05
-9.31827e-05
-2.73161e-05
6.84965e-05
-1.74385e-05
9.24041e-05
1.8626e-05
6.7498e-05
-1.44308e-05
-5.43624e-05
1.30291e-07
1.96351e-05
3.4597e-05
2.33531e-05
-1.30286e-05
-0.000106458
-4.70753e-06
0.000431178
0.00025041
-1.72993e-05
-9.66364e-06
6.44182e-05
-6.4008e-05
7.71476e-05
1.72802e-05
8.00017e-06
-4.81616e-06
5.11934e-05
4.15382e-05
-7.30035e-06
1.92489e-05
-1.19486e-05
-1.93e-05
-1.29642e-06
3.04641e-06
4.47723e-05
1.63977e-05
-3.42417e-06
8.13403e-05
3.14976e-06
8.00025e-05
-2.38629e-06
-1.8966e-06
-8.38986e-05
-1.02073e-06
-2.07141e-05
2.46726e-05
1.15847e-05
-1.48842e-05
1.80936e-05
-2.57762e-05
-1.73537e-05
-1.43999e-05
2.08966e-07
-2.2612e-05
2.72935e-05
-1.63827e-05
1.17011e-05
-7.86001e-05
-3.68366e-06
-2.02784e-05
-4.0333e-05
-2.31532e-05
-1.59922e-05
-1.49947e-05
1.6242e-05
3.89443e-05
1.06301e-05
3.86053e-06
-8.49874e-05
-8.68498e-06
8.28674e-06
-3.25295e-05
3.29278e-05
-3.21037e-05
2.68574e-05
-3.43863e-06
-7.03542e-05
3.9453e-06
2.31979e-05
4.3211e-05
7.70763e-06
-1.43006e-05
-5.99413e-06
-7.24855e-05
-0.000187463
0.000204999
5.4949e-05
-1.06959e-05
-4.11638e-05
3.74142e-05
8.31794e-06
-1.85649e-06
1.24617e-06
-2.29559e-05
0.000127373
-1.01822e-05
5.35211e-05
2.67166e-05
8.73113e-06
3.65351e-05
8.23225e-06
-9.58837e-05
0.000119509
-2.05791e-05
-2.0091e-05
-2.16869e-06
7.95906e-06
7.85644e-05
6.29325e-05
4.76e-05
-3.96372e-05
-4.36373e-05
-9.66044e-06
5.84375e-06
2.03979e-05
2.57762e-05
-2.53904e-05
-2.29327e-05
-0.000176741
-0.000368617
0.000177059
3.33296e-05
-3.48554e-06
-3.2061e-05
2.21695e-06
1.71338e-05
-1.73879e-05
-2.47778e-05
2.50318e-05
-3.55399e-05
3.41102e-05
-3.36584e-05
2.43481e-05
-1.07806e-05
5.33761e-06
1.94579e-05
0.000127927
-0.000171268
0.000114675
-7.13344e-05
-9.42789e-06
1.15208e-05
1.38271e-05
-1.59199e-05
-4.28045e-05
4.46267e-06
6.41181e-05
3.44369e-05
1.38376e-05
-6.1339e-05
1.30645e-05
6.79216e-06
2.88977e-06
-4.17857e-05
2.35883e-05
-2.6224e-05
-9.62603e-06
2.06396e-05
2.34234e-05
3.35345e-05
-2.52477e-05
-6.27864e-05
7.1282e-05
-4.96176e-05
-9.11447e-05
8.41168e-05
-0.000109835
0.000116863
-8.17278e-05
-7.22032e-05
8.85026e-05
-6.88139e-05
-0.000101416
-0.000100074
-8.78381e-05
0.000131332
5.5325e-05
-0.000119818
9.84855e-05
-0.000120707
7.67051e-05
-7.58159e-05
-4.30545e-06
-4.21689e-05
-2.05158e-05
-3.7225e-05
-3.69399e-07
-8.82266e-06
-3.36125e-05
-5.67742e-05
1.60868e-05
-7.29524e-05
0.00011364
0.000167416
-0.000156756
-1.89444e-05
-6.28815e-05
2.50517e-05
0.000187292
7.53311e-05
-0.000134696
-7.82279e-05
-0.000128247
7.99346e-05
2.05294e-05
2.77834e-05
9.74844e-05
-6.81491e-05
-0.000128751
9.94157e-05
-2.47912e-05
-0.000114549
0.00013934
-7.27944e-06
-2.23603e-05
-0.00010097
2.64572e-05
9.05994e-05
4.88029e-05
-3.77128e-05
-6.03092e-05
4.92192e-05
5.04845e-05
-8.12475e-05
-9.67931e-06
4.39971e-05
0.000152974
-9.81326e-05
7.10873e-05
-8.08205e-05
0.000107866
-0.000113474
5.80173e-05
-4.2676e-05
-0.000110461
5.20365e-05
-1.42063e-05
7.26308e-05
3.30295e-05
4.51542e-05
-6.43461e-05
-9.87412e-05
5.9488e-05
-7.12078e-05
0.000196181
-0.000245232
3.93721e-05
-3.56373e-05
2.92574e-05
5.51828e-05
-7.48361e-07
-3.55028e-05
-7.45299e-06
4.37041e-05
9.7308e-05
6.59431e-05
-8.792e-05
6.9972e-06
5.13895e-05
2.1548e-05
0.000104793
-6.22139e-05
-0.000156053
8.3286e-07
0.000157994
3.73534e-05
-3.7203e-05
3.49328e-05
2.27022e-06
4.54241e-05
3.94501e-05
-5.18448e-05
4.6628e-05
9.46771e-05
5.48123e-05
-2.89279e-05
-2.62538e-05
-4.06853e-05
5.52439e-05
-1.5307e-05
2.08325e-06
3.34449e-05
-4.24691e-05
-8.32919e-05
5.95413e-05
-3.52869e-05
-2.42544e-05
6.58392e-05
-5.40203e-05
-3.07633e-05
-1.45571e-05
-3.09813e-05
-4.35223e-06
-2.76859e-05
-8.46106e-05
-8.22704e-06
9.28376e-05
-4.95823e-05
6.58431e-05
-8.30265e-05
1.44338e-05
4.29469e-05
-1.14571e-06
-5.67011e-05
6.41901e-05
-2.04205e-05
4.04014e-05
-0.000109547
0.000101651
-2.90343e-05
-0.000128829
0.000120044
-1.52776e-05
-2.39067e-06
-2.18268e-05
-0.000112689
0.000126601
-1.15727e-05
1.50258e-05
-4.97076e-05
4.22356e-05
4.78734e-05
-1.42534e-05
3.35142e-05
-1.33505e-05
3.51074e-05
-0.000108078
0.000107119
-1.13619e-06
2.0952e-06
0.000107017
-6.21832e-06
-2.2179e-05
8.06239e-06
-1.72183e-05
-4.05517e-05
1.80186e-06
-1.36476e-06
-1.54713e-05
-0.000108122
-4.28462e-06
4.32902e-06
1.38731e-05
-4.75315e-05
-5.90167e-05
-4.24676e-05
0.000115609
6.08306e-05
-3.87682e-05
4.38807e-05
8.79821e-05
-2.84407e-05
-2.65667e-05
-4.13808e-05
-1.68244e-05
3.34275e-05
-1.592e-05
-2.32976e-05
7.15661e-06
1.92447e-06
-1.32746e-06
-0.000104103
-2.69213e-06
3.91006e-06
-9.14737e-06
3.06861e-06
-4.19421e-05
-4.62041e-05
4.81521e-05
-6.22573e-05
7.54555e-05
-4.19271e-05
-5.70748e-05
2.35464e-05
-7.87461e-05
0.00014895
3.22073e-05
-0.00011007
-7.50413e-05
-1.19369e-06
9.3411e-05
-1.26105e-05
4.07223e-05
4.688e-05
-3.31165e-05
6.78788e-05
6.4106e-05
-5.19424e-05
6.42393e-06
7.34035e-06
-2.46251e-05
-2.64461e-05
1.15829e-05
2.63459e-05
-3.56787e-05
6.57631e-06
0.000107057
-0.000170456
-0.000107868
6.03115e-05
-3.72612e-05
-5.1491e-05
8.91924e-05
7.82234e-05
4.25043e-05
4.66881e-05
2.23505e-05
1.89255e-05
-8.34821e-06
-4.95471e-05
-5.25769e-05
7.75825e-06
0.000104221
-9.58411e-06
-9.59645e-05
-5.50274e-05
4.94265e-05
2.59987e-05
5.81732e-06
1.05008e-05
-6.11289e-05
-5.29731e-05
-5.00195e-05
5.6825e-05
3.61379e-06
4.63989e-06
-7.4004e-05
7.29236e-05
8.40149e-06
-1.7919e-05
-8.12105e-05
1.52748e-05
-2.06217e-05
4.07201e-06
-6.57962e-05
6.9295e-05
-8.29304e-05
-7.42846e-05
5.61615e-05
-3.21892e-05
-3.52694e-05
-6.76133e-05
-1.46102e-05
7.42619e-05
6.70569e-05
-9.71767e-05
-0.00022795
0.000106905
0.000218221
-0.000110569
-5.3752e-05
-6.08894e-06
4.30165e-05
-2.53925e-05
-1.08289e-05
1.29237e-05
5.66125e-06
9.12308e-05
-9.22152e-05
-5.50689e-05
-6.1411e-05
-1.17425e-05
1.10045e-05
-9.35139e-06
1.00894e-05
4.61932e-07
1.87574e-05
-2.39137e-05
0.000121688
-0.000159989
-3.34907e-05
-2.7947e-05
-6.7617e-05
-2.6294e-05
6.41988e-05
-4.92378e-06
-9.32655e-05
7.23802e-05
-3.5903e-05
-7.24777e-05
8.32981e-05
2.50826e-05
3.94996e-05
-1.80186e-05
8.4816e-06
-4.20387e-06
1.74518e-05
-0.000265018
-6.13334e-05
0.000229175
-4.49882e-05
-5.46726e-05
9.2199e-06
-9.91722e-05
2.11116e-05
3.82817e-05
-2.08287e-05
-5.48741e-05
-6.29037e-05
-5.4729e-05
-8.76715e-05
-0.000212764
8.67344e-06
-1.53094e-05
8.91616e-05
-8.25256e-05
5.15739e-05
-8.10727e-05
9.3917e-05
-5.86698e-05
-4.6161e-05
-7.12186e-05
-1.88402e-05
1.48886e-05
-0.000115466
-2.64646e-05
3.11339e-05
-4.49219e-05
1.82284e-05
-3.03813e-05
8.55003e-06
-0.000114612
0.000106062
-9.89103e-05
1.3549e-05
-6.29337e-05
-4.37377e-05
-5.63165e-05
-4.72752e-05
5.71016e-05
-1.44529e-05
1.37716e-05
-5.64202e-05
1.04993e-05
-1.9659e-05
5.40422e-05
9.843e-06
3.47165e-06
5.08034e-05
1.00126e-05
-9.56094e-05
0.000152171
8.49225e-05
-4.40085e-05
0.000116611
6.19098e-05
3.65975e-05
5.11351e-05
-4.43423e-05
-4.33903e-05
1.71592e-05
-1.47666e-05
-0.000189855
-9.46754e-05
3.79795e-05
-1.17522e-05
6.84481e-05
-5.54916e-06
1.40257e-05
9.36061e-05
-3.00672e-05
-7.37203e-05
1.03235e-05
7.85677e-05
1.04343e-05
1.85453e-05
-3.62837e-06
2.19541e-05
-2.31434e-05
6.06478e-06
0.000141448
1.82301e-05
2.28336e-06
0.000176591
-0.000152658
2.81039e-05
-5.301e-05
4.01768e-08
4.68808e-05
-3.26353e-05
1.94033e-06
1.98661e-05
8.58399e-06
-6.61683e-05
-2.4085e-05
-1.51899e-06
7.6015e-05
-0.000119531
0.000107741
5.28193e-05
9.13703e-05
-1.73285e-05
-5.06881e-05
5.37294e-05
-0.000161337
3.07796e-05
0.000283118
6.57645e-05
-0.000237979
-0.000110904
-5.74182e-07
5.43489e-05
0.000148736
-0.000160581
-0.000168855
9.22502e-05
8.20218e-05
-0.000269849
1.16321e-05
-5.78304e-07
-4.77981e-06
3.01308e-05
-3.2522e-05
-9.65192e-05
0.000248368
-0.000138015
-3.16621e-05
3.31945e-05
-7.15495e-05
6.82007e-05
5.58078e-05
-9.40736e-06
-4.34766e-07
-5.43439e-06
-3.26262e-05
-1.19896e-05
1.68675e-05
-7.53719e-05
1.09584e-05
7.79405e-05
-3.32399e-05
-4.47006e-05
-6.98156e-06
-8.43417e-05
6.94498e-05
4.28342e-05
5.36495e-05
-4.53486e-05
-5.27554e-05
1.49628e-05
-3.86847e-05
2.72985e-05
1.97808e-05
-3.56856e-05
-6.81078e-05
-2.24273e-06
5.10747e-05
-4.7338e-05
-5.7757e-05
-7.56122e-06
-5.76981e-05
-6.95714e-05
9.02106e-05
2.18241e-05
-0.000101711
-3.20563e-05
5.19067e-06
-2.06774e-07
3.54204e-06
-3.93861e-05
-5.94692e-05
-6.98843e-05
9.20505e-06
2.87442e-05
-6.23887e-05
-1.39485e-05
-4.46328e-05
-6.91482e-06
-9.20676e-05
3.7802e-06
0.000113493
-9.68464e-05
8.27695e-05
-8.12428e-05
-1.93098e-05
-7.51609e-05
3.76191e-07
-5.74315e-05
0.000118201
2.94413e-05
-0.000110107
9.61074e-05
-2.88909e-05
0.000256336
-2.40775e-05
2.13492e-05
-0.000253607
-5.59427e-05
-1.88206e-05
9.40328e-06
-1.48149e-05
2.51925e-05
0.000131963
6.17869e-05
-5.81121e-05
2.50751e-05
0.000128732
2.27931e-05
1.71871e-05
8.55203e-05
-8.45315e-05
0.000176489
-1.28135e-05
-5.50058e-06
-1.44274e-05
-5.22607e-05
-1.3395e-05
-9.66995e-05
6.10921e-05
-8.42777e-07
7.42274e-06
3.80177e-05
-2.85903e-05
1.43517e-05
-3.66714e-05
0.000219651
1.67876e-05
-4.10996e-05
4.80333e-05
4.76377e-05
-6.1693e-05
-3.3978e-05
1.78546e-05
8.7757e-05
-7.13117e-05
-3.42998e-05
0.000139574
-4.68899e-05
-7.15832e-06
-5.67792e-05
-1.02181e-06
3.69868e-05
-4.55622e-05
-5.82765e-06
1.44031e-05
6.62493e-07
-2.23626e-05
-7.30849e-07
2.2431e-05
0.000104938
2.18471e-05
-1.79071e-06
-1.43084e-05
-6.64108e-05
7.11504e-05
4.0089e-05
5.03302e-05
-3.67697e-05
2.14268e-05
1.57075e-06
-3.03874e-06
-6.51216e-06
-3.49428e-05
-3.297e-05
3.52867e-05
8.50253e-05
3.68048e-05
-7.35318e-05
-5.35293e-05
7.03994e-05
9.14567e-05
3.71856e-05
-4.93465e-05
3.70862e-05
-4.842e-05
0.000113754
-9.37586e-05
-1.99956e-05
-5.28142e-05
0.000119915
1.72798e-06
-6.90792e-05
5.18843e-06
7.41454e-05
6.71306e-05
-1.51736e-05
-4.50734e-06
4.14405e-05
-1.68762e-05
8.2409e-05
-3.17784e-05
6.84454e-05
-1.20183e-05
-3.78108e-05
5.03698e-05
6.60054e-05
-1.30219e-05
-5.94128e-05
-2.68799e-06
2.11786e-05
-9.67228e-05
-4.97363e-05
6.24561e-05
6.12312e-05
4.58759e-05
-4.61722e-06
-5.74969e-05
2.71963e-05
-2.32085e-05
-5.88516e-05
-6.87202e-05
3.58715e-05
3.38904e-05
1.82958e-05
6.59224e-06
-0.000108249
-1.12337e-05
0.000100567
3.54769e-05
2.38411e-05
-1.83882e-05
5.40986e-05
5.71651e-05
-0.000161766
-5.31883e-06
-9.50505e-05
8.01161e-05
-1.54478e-05
-1.08352e-05
-1.71276e-05
-2.45979e-06
3.04226e-05
4.45373e-05
5.7828e-06
-2.99951e-05
-3.89723e-05
1.56966e-05
7.58776e-05
1.14369e-05
3.54638e-05
-6.55305e-05
-8.67397e-05
-2.37672e-05
5.3271e-05
1.80721e-05
2.24193e-05
-1.07638e-05
1.4589e-05
-3.82526e-06
-1.01013e-05
0.000245507
-2.86075e-05
1.137e-05
-0.00022827
2.13352e-05
-1.28343e-05
2.73298e-06
-2.81183e-05
-9.18783e-05
9.81635e-05
1.91371e-05
-9.28045e-06
3.06156e-05
-9.13784e-06
-3.69643e-06
-6.72153e-05
4.55571e-05
2.16582e-05
5.33957e-05
-2.64002e-05
-2.69955e-05
4.94903e-05
-1.10204e-05
-4.81336e-05
-6.58847e-07
1.00621e-05
-5.48508e-05
3.39264e-05
5.45834e-05
-3.3659e-05
5.96303e-06
-7.16478e-05
-5.83949e-06
-3.04189e-05
3.12631e-05
-0.00011631
-8.1939e-05
8.74796e-05
-5.54054e-06
3.0621e-05
-4.31652e-06
1.28787e-05
-2.11351e-05
-1.4887e-05
4.60851e-06
8.64188e-05
9.10597e-05
0.000382539
-0.000128101
0.000104302
-5.50429e-05
-0.000101838
-1.87932e-05
-3.5251e-05
-2.87233e-05
8.03933e-06
7.30163e-05
-6.34699e-05
-9.54634e-06
1.09769e-05
3.8768e-05
-4.45542e-05
5.64366e-05
-1.23569e-05
6.22718e-06
3.70951e-05
4.71347e-05
-4.85619e-05
4.0047e-05
-6.16992e-05
-0.000119667
-8.92275e-06
-9.06505e-05
1.56339e-05
0.000104825
-2.98083e-05
-4.72177e-05
4.75517e-05
6.72124e-05
-6.75465e-05
5.4239e-05
-0.000102863
0.000139725
-0.000125205
8.38934e-05
-8.83381e-06
8.23177e-05
-4.89093e-07
-6.3974e-05
-2.61496e-05
-9.70771e-06
1.13547e-05
-2.20303e-05
-0.000119208
-4.54584e-05
0.000122198
-0.000224115
0.000180099
-2.65694e-05
7.61539e-06
-4.21551e-05
3.3124e-05
-8.15248e-05
8.03652e-05
-4.22307e-05
4.50587e-05
0.000126088
-2.52055e-05
-0.000100882
6.51e-05
-9.37874e-06
-1.87345e-05
2.65887e-05
-1.07297e-05
-3.1465e-05
-3.6027e-06
-7.56634e-06
8.54935e-06
2.33454e-05
-3.60986e-05
-0.000108573
-2.37354e-05
4.95748e-05
-0.00013516
6.73341e-06
2.64965e-05
-6.1888e-05
-4.1756e-05
-3.13638e-05
-8.18873e-05
6.47123e-06
-7.52406e-05
-3.62793e-05
-2.08622e-05
1.10678e-05
-1.40705e-05
-2.30555e-05
0.00013681
4.43224e-05
-8.14264e-05
-8.49884e-05
8.81862e-06
6.59876e-05
7.14665e-05
-3.64499e-05
4.33867e-05
-7.87413e-05
-0.000348128
0.000229921
-8.24434e-07
1.91202e-05
3.3809e-05
5.19137e-05
-0.000104571
9.69798e-05
-0.000122725
-2.77339e-06
-3.78993e-06
-9.72711e-05
7.41339e-06
-7.81247e-05
-6.89143e-05
7.80631e-05
-0.00015697
0.000169968
-2.47946e-05
4.21547e-05
-5.42587e-05
-2.94752e-05
3.93266e-05
-5.08011e-06
-2.08164e-05
-6.70732e-05
7.57466e-05
-6.07684e-05
-6.30474e-06
2.46296e-05
-5.53797e-05
-2.51874e-05
5.59375e-05
8.79615e-05
6.54201e-06
1.21371e-05
2.17558e-06
-3.31147e-05
1.8802e-05
2.85694e-05
-9.91003e-05
7.25656e-05
-2.03477e-06
3.61739e-05
-1.35443e-05
-1.15295e-05
-5.88273e-05
-4.25132e-06
-6.61866e-05
2.00969e-05
0.000108066
-3.67276e-05
1.33604e-06
-9.71365e-05
3.18674e-05
0.000108656
-4.16332e-05
-6.43687e-05
0.000100904
2.50883e-05
1.6283e-06
3.55496e-05
-5.56809e-05
3.22684e-05
-8.18327e-05
6.93026e-05
-0.000135543
0.000102029
-2.49858e-05
5.35616e-06
5.04107e-06
5.02534e-06
-3.89943e-05
5.58036e-05
5.64152e-05
-2.11804e-05
3.32678e-05
3.59459e-05
-3.36515e-05
-1.65866e-05
-8.69129e-06
-9.36644e-05
7.8776e-06
0.000104439
2.22983e-05
-1.95923e-05
-0.000103477
-0.000124629
2.83941e-05
-5.32206e-05
7.8249e-06
-1.86111e-05
-1.41997e-05
-4.91127e-05
-1.04361e-05
1.59565e-05
-4.10433e-05
3.39295e-05
1.39693e-05
7.44991e-06
2.99111e-05
-8.73515e-05
-1.6493e-05
6.5733e-06
2.52712e-05
6.12914e-05
2.49759e-05
-4.90815e-05
6.17804e-05
-1.66454e-05
-0.000111322
-9.65732e-06
-1.34959e-05
8.40131e-05
5.5778e-05
-2.40337e-05
0.000116422
-3.15926e-05
-5.58694e-05
4.16033e-05
-6.37269e-05
4.71044e-05
-2.95252e-05
0.000238974
0.000171045
1.87209e-05
2.2435e-05
-2.80914e-05
3.88877e-05
-2.29024e-05
9.47718e-05
-8.86331e-05
7.08454e-05
-5.63059e-05
2.73916e-05
8.43186e-05
6.23808e-06
-6.08044e-06
-3.2456e-05
1.05729e-05
-1.26995e-05
2.49386e-05
1.05781e-05
-2.28172e-05
-5.21883e-05
8.43737e-05
3.66765e-05
-4.30174e-05
-4.36743e-06
1.95047e-05
6.63669e-06
0.000124795
0.000158048
-3.52655e-05
-9.83899e-05
6.88505e-05
2.80204e-05
-0.000122142
2.73546e-05
-9.13145e-05
6.1759e-06
-8.72179e-05
8.41384e-05
-4.00165e-05
3.41925e-05
4.78069e-05
1.76866e-05
-3.0752e-05
-5.03061e-05
4.75001e-05
6.40974e-05
5.18982e-05
-2.33782e-05
-4.25275e-05
9.07848e-05
-8.85158e-05
5.80546e-05
-5.33191e-05
-5.12681e-05
-7.52684e-05
-1.95374e-05
0.0001094
3.38574e-05
3.8536e-05
-6.83975e-05
3.73625e-05
3.1035e-05
-2.00351e-05
-5.621e-06
3.21472e-06
2.40629e-06
1.7753e-05
-2.64231e-05
2.73901e-05
4.3673e-05
-6.57097e-06
2.51544e-05
-6.22926e-05
2.74741e-05
-2.22268e-05
6.50677e-05
-3.59145e-05
5.01745e-05
0.000125389
-4.72885e-05
3.70517e-05
-3.20418e-05
-3.95291e-05
2.86534e-05
3.95501e-06
-9.78439e-05
-4.3356e-05
4.02262e-05
-5.57074e-05
0.000266391
-1.8704e-05
-4.01654e-05
-3.15738e-05
2.15135e-05
7.51835e-06
-3.69009e-06
1.05569e-05
-1.09261e-05
9.99611e-06
9.30031e-07
-1.28607e-05
1.93457e-06
1.67173e-05
-2.07676e-05
4.05028e-06
3.85659e-06
3.72299e-05
-4.00784e-05
2.84855e-06
3.32504e-05
3.97944e-06
-4.08102e-05
-3.93479e-05
-1.46222e-06
1.05729e-05
-4.24528e-05
3.10489e-06
-5.02274e-05
7.77452e-06
1.095e-05
-3.7703e-07
1.10888e-05
1.0246e-05
3.83507e-05
-1.90585e-05
7.96335e-06
2.28264e-06
2.34235e-06
-2.11149e-05
1.75848e-05
4.15439e-05
-6.9664e-07
2.40222e-06
9.42468e-05
-4.2989e-06
-8.99479e-05
-5.76733e-05
-9.58056e-06
-4.23921e-05
3.70885e-05
2.26731e-05
2.45032e-05
-2.48781e-05
-1.01634e-05
1.89372e-05
4.3247e-05
6.05368e-06
8.07274e-06
-7.95065e-06
0.000126717
2.2933e-05
-1.64364e-05
4.30494e-05
-2.49815e-05
-1.80679e-05
7.08005e-06
-9.08408e-05
8.95349e-06
-0.00010779
0.00010585
-3.02242e-05
3.40647e-05
1.94113e-05
5.93718e-05
-1.63225e-05
4.50762e-05
8.7194e-06
1.89277e-05
3.5403e-05
-5.68988e-05
-7.74514e-07
-6.93175e-05
-8.32105e-06
4.59765e-05
0.000164556
0.000146185
9.70863e-05
0.000131914
3.89998e-05
-1.44322e-05
1.59219e-05
-2.57818e-05
2.94365e-05
-8.97011e-05
7.66623e-05
5.69183e-05
-0.000116372
0.000104226
3.9557e-05
2.3324e-05
-2.41133e-06
7.62329e-05
-8.60132e-05
7.30614e-06
1.79281e-05
-4e-06
-2.09815e-05
-4.38393e-05
-1.30595e-05
7.25136e-05
-8.40779e-07
0.00010346
-9.06428e-05
-0.00014659
-9.28704e-05
-0.000201439
1.92096e-05
-2.32096e-05
-4.36967e-05
-7.02625e-05
-2.25039e-05
5.77341e-05
6.93804e-05
-4.3733e-05
0.000106012
-8.51744e-05
-1.57224e-05
-2.99898e-05
6.17495e-06
-8.11168e-05
8.73549e-05
-3.49452e-05
0.000138405
4.13331e-05