/*--------------------------------*- C++ -*----------------------------------*\
| =========                 |                                                 |
| \\      /  F ield         | OpenFOAM: The Open Source CFD Toolbox           |
|  \\    /   O peration     | Version:  v1912                                 |
|   \\  /    A nd           | Website:  www.openfoam.com                      |
|    \\/     M anipulation  |                                                 |
\*---------------------------------------------------------------------------*/
FoamFile
{
    version     2.0;
    format      ascii;
    class       volScalarField;
    location    "0.68";
    object      epsilon;
}
// * * * * * * * * * * * * * * * * * * * * * * * * * * * * * * * * * * * * * //

dimensions      [0 2 -3 0 0 0 0];


internalField   nonuniform List<scalar> 
1431
(
0.323387
3.9039
88.2788
56.6343
0.355145
9.56248
4.55255
4.43425
66.3532
19.6232
8.21426
1.9379
1.11213
59.9416
34.8603
24.1263
46.9665
1.86904
16.2466
7.75667
0.274058
23.4865
13.3223
66.7788
49.695
7.78582
51.9131
53.9442
22.2196
0.708316
52.263
12.1779
30.9685
5.33828
5.83178
43.042
5.92649
10.3053
4.9918
9.86323
151.085
6.3994
3.33146
4.22931
33.9035
0.659917
33.4226
4.9558
19.115
16.4119
0.650573
19.4791
48.0679
3.6158
4.12264
4.82331
21.7227
47.7173
53.5449
0.320423
36.4145
4.85149
45.8955
9.82015
35.1823
1.13591
73.5158
9.91428
9.0044
12.5013
3.68227
4.09026
5.87804
7.16847
4.70245
28.612
0.279238
58.5374
5.76036
75.7135
8.11287
0.785815
4.96299
46.5895
78.5685
0.393722
0.288172
9.03298
74.8995
6.40257
3.10927
21.8483
0.28785
10.2006
1.09054
0.338195
4.05799
8.71575
0.334781
32.4425
11.4624
5.55945
3.64093
0.284254
16.1047
1.04881
6.60728
163.8
68.4509
0.311298
91.8052
0.968038
5.51733
4.89047
13.6377
0.273207
2.40644
9.56487
84.9758
27.5798
8.97276
47.6354
21.7782
56.5558
9.33142
1.88994
97.8997
1.94448
0.300451
26.3827
0.689084
128.847
48.485
4.91035
0.327809
42.5128
6.27482
1.10963
2.16119
140.647
29.687
0.32611
9.82173
19.7488
22.5753
16.2047
8.76079
162.663
6.3976
15.2889
28.2086
38.6093
2.6606
5.15003
4.7311
1.36636
8.98321
4.60219
5.11149
8.71201
1.51347
6.38788
1.86382
5.39224
0.333128
119.409
0.380158
9.66312
0.657718
5.25446
34.6751
11.3349
51.1284
17.4267
9.32414
1.13653
1.82819
25.5613
1.07686
6.1034
10.7409
20.4647
5.10397
6.1499
14.1281
17.2352
6.39142
47.4111
8.29738
10.0807
3.59366
65.252
0.300492
7.35869
73.2684
8.13041
6.29441
7.27774
5.19753
4.97653
3.39331
72.5642
12.733
167.092
6.94883
57.7525
0.41506
10.043
6.09101
23.0614
7.96093
5.35319
78.9476
9.71859
10.7574
22.7014
4.77925
1.7089
7.27024
9.99361
9.22994
59.293
21.4851
134.107
11.0556
29.0997
27.5851
5.80464
19.0347
53.0895
0.312786
30.0144
11.0241
4.56844
4.41213
4.81969
10.0885
0.453202
8.19969
2.56071
10.3556
10.4734
64.7827
61.4111
1.32872
1.67664
10.3641
4.99058
4.483
27.9263
9.02006
66.9568
19.3043
18.7418
41.9461
36.3286
0.936454
2.45358
30.8561
34.0337
38.2149
2.47936
0.376981
32.9087
4.50171
18.3362
28.8901
7.50938
15.6034
47.7302
6.90292
23.9747
8.82133
8.71618
40.4741
8.69777
3.90116
0.932995
0.916166
20.3145
63.8005
2.55209
3.19046
4.11808
31.875
43.4127
0.359449
4.36721
23.4958
9.24905
17.7735
11.5399
4.51962
1.89894
10.594
5.54505
0.273564
7.41086
2.77175
7.39486
11.1042
28.1767
2.12908
6.56556
4.20719
3.18167
8.61395
34.9462
32.4113
0.513471
9.98481
13.0742
28.1503
0.303933
2.06934
3.27276
21.9576
2.24714
4.43275
7.16615
3.265
5.16701
30.1065
3.17968
39.4013
8.93853
7.39133
10.1464
82.2724
9.35815
5.20408
1.24204
1.94987
2.90814
8.83938
61.0133
0.740142
3.84084
0.662545
0.907147
4.19026
7.6041
12.0836
18.4286
42.6986
0.960279
11.3809
1.48393
0.807544
1.80858
1.1808
0.659721
1.10937
1.63132
1.11894
1.14265
0.675467
0.573984
2.49217
3.51776
0.915831
1.5238
1.33201
0.194371
1.00846
1.44786
0.990861
2.9147
10.7404
18.1623
3.70643
1.9632
5.92852
13.5543
1.19394
44.8364
3.49827
11.493
13.9055
2.86686
0.580626
1.36745
1.21963
0.850323
2.26924
1.1159
3.04918
0.701209
2.00296
0.434105
1.60371
60.3345
22.1132
13.9162
7.32315
0.802225
2.12012
10.7385
23.792
9.11403
1.95673
2.8703
10.2508
0.679558
3.83786
12.07
1.87979
7.87808
0.391142
7.6225
41.365
7.29954
0.802125
57.7314
21.0255
39.446
3.36381
47.8779
1.2474
0.971183
2.74723
6.4662
24.7057
2.80288
6.45463
4.1913
3.79638
16.6443
44.8524
6.74437
55.8926
2.64616
6.05248
11.2436
2.37947
5.81337
7.60128
10.2134
2.89694
4.03116
4.4377
72.3963
8.50907
6.7624
2.37774
15.1089
23.8593
2.49266
3.02249
17.5361
14.2848
19.6707
20.4454
24.0328
7.43311
22.3656
17.3977
15.1977
20.9131
2.09072
50.7766
19.7224
4.43203
5.4016
1.77739
1.46141
0.325184
79.4211
3.46567
1.39929
74.0156
1.08779
6.24116
41.811
3.83215
1.20182
57.8574
54.2329
73.8425
8.30845
7.33736
1.05723
43.8079
4.8315
11.0915
4.96625
7.25648
24.074
11.4849
2.60771
2.16293
13.6356
1.09686
59.4817
10.3291
1.02387
78.2893
3.7995
11.3712
3.59041
12.1269
107.753
15.5009
8.27582
6.75426
2.06055
1.05203
24.6016
8.62541
53.2484
42.2613
2.33448
6.25691
8.60831
11.3106
9.38964
67.2185
93.6891
7.89755
1.52744
1.89597
2.30065
2.02152
0.473447
1.224
9.11321
2.61719
9.09297
2.16787
6.26968
11.4008
6.91779
3.46822
2.08247
14.9644
8.31201
21.0776
5.90988
13.9885
38.1442
9.44347
48.1518
2.83854
9.00907
0.721664
29.7187
9.83614
5.34134
19.578
1.00953
3.48817
0.480923
31.6608
10.4607
1.96666
3.29271
27.2866
3.93331
32.4525
4.45278
15.1266
4.29062
43.4229
60.7164
39.5038
2.06254
9.36027
4.9807
36.611
7.0013
1.46717
30.6182
43.0141
30.0647
58.4355
3.67973
6.62253
1.02413
5.05035
17.2872
0.96643
5.62659
3.09856
6.91152
2.08294
5.53834
2.53456
11.2046
0.699862
18.182
15.8878
43.0416
13.7238
9.95626
8.78326
5.0454
0.417232
4.24264
5.13214
3.0987
2.57109
2.78897
0.958194
9.24023
14.1429
23.5633
6.72824
1.04629
35.8704
75.6318
48.47
16.161
1.87833
20.4721
62.4352
5.12161
56.3528
26.7232
23.3467
18.683
0.892303
2.77322
1.83629
1.03187
1.92064
9.02106
0.923007
0.370168
11.3888
5.91369
37.7853
1.53952
2.17813
6.35053
3.3266
13.9709
0.966075
4.86795
23.5258
1.76233
8.4325
30.8921
6.81589
19.7872
1.57658
18.2111
7.39153
49.6556
17.5198
1.50426
0.823942
3.50883
7.96524
29.5995
47.741
12.5744
7.23419
11.8061
5.19898
17.4242
8.89195
0.278034
2.26777
2.62411
8.69385
1.98013
13.6826
29.2445
17.6182
22.0927
0.297369
7.65061
2.00867
11.8424
11.9505
12.0999
14.2261
7.64383
0.866991
20.1713
23.004
0.551654
4.3125
0.709859
1.2946
2.71567
5.52642
15.218
7.50724
3.52374
68.1023
11.7038
10.8597
0.705038
10.2884
1.00237
0.163342
1.58718
8.10915
5.19516
12.5007
1.10551
4.18789
0.957082
0.359858
28.4928
26.9134
27.0801
13.9262
172.177
0.741449
0.428666
0.901707
29.1695
24.3619
25.1536
3.40166
77.6933
5.58824
0.982473
23.8935
9.61076
5.33163
65.0927
0.937753
26.2736
27.1232
46.2158
30.2174
0.894507
5.56727
2.16105
28.4634
28.1941
52.3799
4.25516
3.04855
1.40024
24.6305
2.6147
12.652
60.8325
12.9734
2.65357
40.2154
22.2188
5.33813
20.7095
43.5675
1.83713
37.0645
4.3513
28.6896
31.4046
2.94753
1.19117
13.0552
29.1352
18.3431
114.646
19.6752
47.4711
31.686
31.6791
9.90943
26.5331
3.7075
36.8339
42.8015
29.7888
0.921321
61.9534
0.468769
0.887457
8.46639
37.7907
0.309866
34.0047
7.42968
1.13478
3.48286
0.854698
33.2089
31.5162
3.61495
141.531
0.519626
0.878703
0.78072
136.307
3.61624
4.31808
83.3078
33.9351
13.9625
10.3411
0.384483
0.939301
58.4423
5.88918
9.2929
18.2385
6.16948
0.948923
0.256275
3.4501
37.6957
1.27858
37.0054
0.280137
8.55581
6.11868
36.9955
0.253908
75.4111
31.2097
37.1633
40.5134
46.6225
35.1149
27.8227
31.8699
35.3442
2.80682
2.47225
17.172
4.33008
22.0825
0.946407
0.240452
1.50613
0.68397
0.952521
0.306017
1.08725
28.437
5.01766
30.6734
1.40459
5.50479
4.37462
8.60867
8.55863
34.6959
88.1857
7.08022
1.00314
3.35803
3.38355
6.17916
2.86654
4.17441
2.66506
2.51989
38.1131
3.50516
17.7013
42.0211
11.0453
12.3677
5.6619
3.43279
1.18348
1.18123
1.71507
0.299384
5.2173
4.91587
0.204458
1.12303
12.0007
35.1326
2.95066
5.0886
0.582535
7.04763
3.1456
3.83859
0.710417
6.78304
0.343356
0.769549
1.05115
0.632326
10.3778
0.321283
2.58335
54.9863
44.1146
10.8896
20.5664
70.4696
7.49645
7.93418
7.0101
56.8561
0.550494
0.933184
1.08662
0.905189
0.721325
0.782143
13.246
9.49847
60.9065
54.8958
25.6057
2.16312
0.391317
10.3241
2.45747
5.56044
74.0649
0.771046
14.4758
7.87311
6.27615
13.2984
3.84664
0.738655
3.01015
5.54134
2.08516
6.01268
5.07408
43.0686
0.848503
34.6652
27.9695
37.0167
35.5708
4.37631
5.90813
17.3659
13.2008
15.2596
19.2613
11.0659
8.7134
3.34529
0.41261
1.3914
6.90196
5.90147
0.313151
1.44533
91.7607
0.305619
0.997198
0.544604
34.0171
0.29659
25.9425
10.3555
94.3291
1.04476
2.93382
1.14932
11.1496
1.26565
32.9158
44.0707
1.60755
0.88886
3.04918
0.471449
1.28099
57.443
0.440939
15.5687
28.8837
13.9198
3.26977
30.4055
24.2646
18.5429
6.3506
0.543947
0.811575
0.728404
4.06759
18.9032
6.911
51.103
26.0724
45.5292
0.532621
58.5997
0.472039
30.2344
0.378085
6.97716
5.82579
4.20535
11.6665
1.01409
49.3595
43.7799
113.528
0.344153
37.3705
69.5109
23.1375
3.89231
4.51744
4.56571
13.3344
56.981
13.0643
3.34794
29.8259
27.2488
5.77321
8.68971
56.394
64.0169
35.8857
28.22
1.30635
41.921
6.37411
22.7826
1.90295
34.458
44.4773
1.12474
3.78455
1.04279
22.3055
159.401
30.8363
25.4403
3.97876
76.1108
2.94046
26.8406
55.3189
10.7622
2.32354
1.0924
30.5556
0.307948
0.212766
1.08475
3.71659
1.59936
60.7175
45.7095
4.32875
23.7762
1.35028
30.6547
43.6939
14.1303
3.84531
4.52036
2.41567
18.3042
0.987601
5.10792
4.704
62.162
12.988
38.7052
5.33687
3.00131
11.1212
11.0791
11.48
39.1026
1.94608
4.61357
26.4824
31.9554
6.53596
0.755889
0.424725
69.2955
14.1779
14.1362
0.308492
4.33046
0.707631
1.31709
7.48043
0.3144
24.5168
57.0651
22.8556
35.4905
4.86874
17.9328
0.703665
5.09867
43.425
0.439942
1.58299
12.0798
0.350914
51.9543
77.7214
0.396348
11.2066
73.8414
0.745153
14.6688
8.1414
0.286524
0.962351
45.1487
1.99441
45.1
3.19714
60.8538
0.658241
79.9747
5.34707
1.69748
17.1684
6.94418
1.33804
0.879053
15.2967
0.376961
96.6997
0.440408
0.744148
7.62803
3.4318
3.87586
14.459
5.76705
0.356058
53.7642
2.20032
5.37824
4.17189
27.2233
1.32737
0.630102
0.953371
1.43098
77.7152
26.1556
2.99687
4.82935
57.7286
0.405084
54.3383
7.37429
56.9736
0.346547
1.07849
28.3499
1.16469
0.912765
65.4484
48.7355
46.813
8.89915
113.357
0.416574
0.683723
1.05332
35.2012
63.9723
113.67
0.509349
1.0023
0.47671
12.1213
4.09655
67.3016
88.1588
39.0254
14.3822
4.79979
3.61629
1.26315
12.087
108.302
46.5975
4.49799
0.280428
8.73211
43.7336
69.743
31.9155
28.4412
0.410038
1.19464
55.0268
30.6625
0.369489
75.0766
55.3799
59.525
18.0873
2.90527
11.0233
17.8694
24.8262
49.3647
0.762787
57.2411
46.8428
12.6572
0.661495
40.3091
13.2129
14.2268
41.4995
34.7614
6.03502
0.882189
1.00866
88.3596
3.40966
2.12485
66.1028
1.01335
38.4189
35.2838
0.342287
53.4627
4.71001
6.63587
8.91716
19.7909
12.6208
37.0643
85.8976
0.352173
85.2644
0.37356
35.0407
53.1766
0.373341
1.96811
1.54272
1.11877
64.6248
38.6122
4.58322
5.11389
22.049
0.300096
1.52989
19.8792
9.04549
0.3096
7.13624
4.63975
1.57181
94.0747
33.3594
52.2812
30.9201
47.2611
1.2913
0.722219
2.20483
55.9248
33.0611
18.3143
12.385
5.57491
53.6044
1.27326
78.6303
4.88489
0.828775
0.917524
7.63137
8.96549
5.65517
15.7693
7.63579
34.4512
41.2612
20.8816
3.83588
5.85716
14.2666
3.11356
69.5908
38.9321
67.515
24.2242
1.12526
76.1754
41.8681
36.0699
1.45551
0.558711
13.0983
1.89604
39.1556
0.796911
0.266051
53.9851
6.01268
33.9654
34.7424
28.9278
21.7976
24.8834
12.5265
3.0808
32.3183
11.8582
20.325
0.416284
6.45627
3.44541
0.257055
5.26425
36.8583
2.52148
0.8228
0.294626
0.447059
1.50967
31.1106
1.53318
63.9381
52.4055
13.3293
19.8301
3.39323
2.64677
3.37217
0.363073
2.12614
5.39045
0.870069
66.0243
5.89626
21.0987
0.285032
7.1517
3.09558
0.737774
114.107
0.422715
1.15369
2.2648
5.07612
0.52531
1.08219
0.946022
35.9039
5.11512
3.0324
1.18006
1.9325
2.2161
30.2754
7.96676
5.23126
1.05147
1.74991
7.41573
1.73484
57.49
9.65696
7.91638
5.0237
1.70292
20.161
37.3156
2.28423
5.49746
1.00798
3.41917
2.96892
12.9308
0.844151
6.74631
32.6046
9.84591
42.4778
1.79384
162.386
6.11943
44.382
76.8311
12.0929
4.02586
0.284025
12.0863
4.57263
52.7776
5.46478
46.7335
0.608128
45.011
0.8354
0.36988
10.5899
1.08388
12.607
8.24323
56.4997
7.70534
46.5031
41.4534
34.1327
41.4971
4.83831
2.32993
16.0887
52.3533
28.7667
11.8946
11.8794
54.9039
30.5472
73.5753
25.0219
13.6316
23.8217
5.0612
43.2015
17.9906
3.31131
40.5694
120.873
2.91378
20.7787
34.5448
)
;

boundaryField
{
    frontAndBack
    {
        type            empty;
    }
    wallOuter
    {
        lowReCorrection 0;
        type            epsilonWallFunction;
        value           nonuniform List<scalar> 
90
(
24.1263
25.1536
23.8935
26.2736
30.2174
28.4634
28.1941
40.2154
22.2188
28.6896
31.4046
42.8015
29.7888
37.7907
33.2089
83.3078
31.2097
37.1633
40.5134
46.6225
35.1149
27.8227
31.8699
35.3442
34.6959
60.9065
54.8958
34.6652
37.0167
17.3659
13.2008
15.2596
19.2613
11.0659
8.7134
5.90147
0.544604
0.29659
25.9425
2.93382
0.471449
1.28099
57.443
0.440939
0.543947
0.811575
0.472039
30.2344
0.378085
43.7799
56.394
22.3055
30.6547
38.7052
26.4824
0.308492
0.3144
24.5168
57.0651
17.9328
43.425
0.439942
0.396348
73.8414
45.1487
60.8538
79.9747
0.376961
96.6997
0.440408
46.813
0.416574
113.67
0.47671
88.1588
108.302
28.4412
30.6625
0.369489
59.525
35.2838
85.2644
0.37356
30.9201
20.8816
0.447059
114.107
0.422715
35.9039
20.161
)
;
    }
    inlet
    {
        type            fixedValue;
        value           uniform 14.855;
    }
    outlet
    {
        type            zeroGradient;
    }
    wallInner
    {
        lowReCorrection 0;
        type            epsilonWallFunction;
        value           nonuniform List<scalar> 
138
(
1.9379
16.2466
30.9685
5.33828
5.83178
6.3994
73.5158
9.91428
3.68227
4.09026
28.612
48.485
5.15003
4.7311
1.13653
1.82819
5.19753
4.97653
3.39331
72.5642
134.107
36.3286
0.936454
30.8561
34.0337
38.2149
28.8901
40.4741
31.875
34.9462
32.4113
4.19026
0.960279
1.48393
0.807544
1.80858
1.1808
0.659721
1.10937
1.63132
1.11894
1.14265
0.675467
0.573984
2.49217
3.51776
0.915831
1.5238
1.33201
0.194371
1.00846
1.44786
0.990861
2.9147
2.86686
0.580626
1.36745
1.21963
0.850323
2.26924
1.1159
3.04918
0.701209
2.00296
0.434105
1.60371
1.95673
7.29954
39.446
6.05248
72.3963
2.37774
3.02249
19.7224
41.811
8.30845
43.8079
2.60771
2.16293
13.6356
10.3291
78.2893
107.753
53.2484
42.2613
93.6891
0.721664
0.480923
31.6608
32.4525
1.46717
3.0987
2.17813
1.98013
0.551654
0.163342
1.58718
0.894507
2.16105
12.9734
19.6752
3.7075
8.46639
0.854698
33.9351
0.256275
1.50613
30.6734
1.40459
2.51989
10.3241
43.0686
0.41261
1.3914
1.44533
30.4055
45.5292
0.532621
37.3705
69.5109
0.987601
0.424725
69.2955
0.745153
5.76705
2.20032
57.7286
0.405084
3.61629
1.26315
0.342287
11.8794
43.2015
17.9906
3.31131
120.873
2.91378
34.5448
)
;
    }
    procBoundary0to1
    {
        type            processor;
        value           nonuniform List<scalar> 
29
(
4.43618
5.38042
4.13303
4.13303
45.2335
45.2335
125.749
6.966
76.6729
5.34004
5.88716
55.589
5.86543
6.18487
72.4149
27.7988
59.4975
72.1289
4.97129
5.7688
11.7429
6.2952
59.0688
10.5032
10.5783
72.1289
8.3167
67.3533
10.5032
)
;
    }
    procBoundary0to2
    {
        type            processor;
        value           nonuniform List<scalar> 
42
(
19.2278
22.4446
0.379764
0.334034
4.47789
19.2278
0.379764
0.407006
2.49994
0.450675
6.09694
8.98118
6.09694
10.7505
14.1567
16.4267
14.1567
0.331315
1.00669
4.713
4.713
0.331315
0.29428
3.97665
3.97665
0.373503
5.65065
0.376914
13.5531
23.4038
23.4038
0.3716
0.333442
0.273195
0.236577
0.379764
20.3599
0.295751
13.5531
0.407006
0.323015
0.259237
)
;
    }
}


// ************************************************************************* //
