/*--------------------------------*- C++ -*----------------------------------*\
| =========                 |                                                 |
| \\      /  F ield         | OpenFOAM: The Open Source CFD Toolbox           |
|  \\    /   O peration     | Version:  v1912                                 |
|   \\  /    A nd           | Website:  www.openfoam.com                      |
|    \\/     M anipulation  |                                                 |
\*---------------------------------------------------------------------------*/
FoamFile
{
    version     2.0;
    format      ascii;
    class       volScalarField;
    location    "0.05";
    object      k;
}
// * * * * * * * * * * * * * * * * * * * * * * * * * * * * * * * * * * * * * //

dimensions      [0 2 -2 0 0 0 0];


internalField   nonuniform List<scalar> 
1431
(
0.324406
0.235276
0.135858
0.152294
0.167299
0.169655
0.137444
1.50138
0.151645
0.132181
1.04185
0.75594
0.205279
0.236746
0.145433
0.133951
0.147909
0.132315
0.150251
0.144812
1.77473
0.212437
0.197316
0.413302
0.161752
0.256727
0.716695
0.138408
0.136973
0.26528
0.200686
0.171094
0.220307
0.244864
0.147006
0.146838
0.134635
0.138052
0.133138
0.173105
0.144537
0.139041
0.251039
0.139422
0.199811
0.133029
0.213999
0.579339
0.144293
0.134727
0.246307
0.136158
0.248635
0.931753
0.17412
0.219408
0.163871
0.974147
0.199094
0.121531
0.14106
0.149427
0.136017
0.136795
0.134215
0.139968
0.131695
0.137646
0.127172
0.14261
0.654526
0.202744
0.152834
0.240347
0.174185
0.121774
0.126979
0.133114
0.139488
0.126124
0.156419
0.128923
0.242707
0.236622
0.308415
0.142238
0.121055
0.240041
0.27471
0.284384
0.20371
0.190471
0.139734
0.136036
0.158419
0.211299
1.20312
0.300252
0.142613
0.141368
0.377497
0.147629
0.165556
0.130696
0.131973
0.343384
0.219922
0.690944
0.204933
0.186825
0.128021
0.174831
0.191786
0.157831
0.195004
0.138193
0.198084
0.155154
0.157458
0.130533
0.137375
0.152534
0.626775
0.152093
0.493127
0.14459
0.13464
0.180955
0.135348
0.131398
0.14792
0.121067
0.1349
0.17446
0.172601
0.164694
0.135149
0.161127
0.351492
0.130513
0.135764
0.271791
0.165552
0.114079
0.301253
0.221765
0.13714
0.31066
0.134043
0.133983
0.150167
0.133256
0.179743
0.158517
0.225204
0.137033
0.282101
0.285204
0.27283
0.133359
0.426833
0.173248
0.133957
0.128262
0.515731
0.206818
0.162308
0.171363
0.135752
0.262606
0.349399
0.242799
0.167226
0.314693
0.268899
0.285081
0.131789
0.183335
0.237064
0.150987
0.136121
0.13357
0.397459
0.595393
0.177893
0.195879
0.429083
0.28484
0.219963
0.298405
0.342173
0.221727
0.21412
1.0576
0.154374
0.267912
0.3161
0.152511
0.129242
0.262525
0.303296
0.132317
0.650765
0.122341
0.182732
0.313554
0.294248
0.134712
0.322663
0.253948
0.493039
0.137315
0.240694
0.34549
0.292352
0.209791
0.223499
0.160078
0.236265
0.625272
0.174294
0.399907
0.371123
0.129555
0.227691
0.369484
0.679549
0.279221
0.159035
0.480648
0.865964
0.211215
0.464735
0.198641
0.16975
0.342181
0.255865
0.363075
0.329208
0.242123
0.134923
0.208335
0.339475
0.308629
0.228701
0.161042
0.337165
0.633182
0.173077
0.135561
0.211816
0.361985
0.133641
0.137917
0.3338
0.142795
0.134133
0.421417
0.359061
0.228779
0.258284
0.325151
0.291605
0.12984
0.245257
0.725184
0.140621
1.7311
0.547849
0.143718
0.263418
0.241663
0.198031
0.183688
0.439141
0.163601
0.425395
0.633094
0.186632
0.181691
0.180237
0.136912
0.223933
0.222982
0.149213
0.288539
0.140795
0.323757
0.327579
0.292007
0.114982
0.14233
0.309437
0.229214
0.420012
0.143988
0.48263
0.220039
0.277903
0.204481
0.256331
0.134716
0.178597
0.227053
0.600328
0.134777
0.300578
0.228801
0.136742
0.245857
0.269835
0.148246
0.145837
0.431352
0.145176
0.304595
0.14981
0.160374
0.137054
1.9216
0.28477
0.289166
0.128677
0.304745
0.148914
0.137811
0.12249
0.15251
0.746563
0.136437
0.317566
0.135468
0.147709
0.178034
0.133761
0.220308
0.152604
0.330847
0.153514
0.353782
0.131677
0.220346
0.275431
0.158464
0.160986
0.567766
0.237902
0.384571
0.236492
0.224474
0.204966
0.133929
0.361384
0.21028
0.134422
0.197987
0.503062
0.438182
0.318381
0.141612
0.221401
0.170809
0.264931
0.16337
0.136164
0.448352
0.151523
0.840419
0.140522
0.333879
0.814193
0.15954
0.289599
0.240738
0.16644
0.58808
0.249541
0.202323
0.218221
0.681081
0.158016
0.163512
0.331714
0.135116
1.4034
0.160411
0.185594
0.20239
0.15441
0.213824
0.138131
0.172878
0.175184
0.135513
0.383919
0.300811
0.147879
0.146884
0.157351
0.15357
0.200767
0.171232
0.333425
0.144654
0.161769
0.147926
0.175261
0.174192
0.140288
0.148782
0.229875
0.145285
0.150096
0.206325
0.200907
0.133976
0.180677
0.152829
0.15537
0.15192
0.176115
0.197122
0.237798
0.189714
0.153658
0.143909
0.152407
0.162487
0.158964
0.353244
0.144148
0.139773
0.137892
0.137989
0.137776
0.14087
0.142432
0.143125
0.148149
0.144728
0.134881
0.408459
0.133874
0.133899
0.134641
0.135436
0.150216
0.145516
0.318074
0.225924
0.227399
0.138778
0.157302
0.146683
0.167457
0.146564
0.221613
0.498139
0.161621
0.135661
0.22651
0.136846
0.514649
0.14869
0.139567
0.141619
0.134065
0.540366
0.143361
0.576354
0.138592
0.137429
0.13315
0.172356
0.374403
0.371185
0.158988
0.134762
0.13893
0.136679
0.162467
0.150566
0.398946
0.14324
0.148695
0.154633
0.133617
0.136881
0.135044
0.141056
0.448616
0.138353
0.137469
0.147893
0.145488
0.135457
0.145259
0.490548
0.139045
0.188854
0.235602
0.188491
0.189867
0.162641
0.502505
0.40838
0.134513
0.148273
0.141993
0.194493
0.153921
0.150912
0.154874
0.14641
0.19568
0.158691
0.256057
0.162543
0.152484
0.44364
0.214735
0.156449
0.205772
0.136156
0.208069
0.136508
0.542033
0.172218
0.136613
0.158632
0.314584
0.25132
0.230311
0.183187
0.143429
0.199473
0.346267
0.310782
0.213664
0.145115
0.155902
0.171536
0.26234
0.186464
0.178446
0.311737
0.299612
0.298989
0.15104
0.139666
0.182649
0.136296
0.171282
0.152361
0.139967
0.211144
0.135277
0.243071
0.301803
2.03734
0.139665
0.511097
0.297168
0.230636
2.43253
0.202923
0.269954
0.128674
0.22579
0.145639
0.167405
0.420329
0.15188
0.171105
0.13981
0.165804
0.140296
0.270859
0.161823
0.142603
0.165272
0.352338
0.204686
0.173595
0.18408
0.214554
0.282811
0.21
0.16746
0.233114
0.190248
0.258442
0.25455
0.227344
0.176395
0.148813
0.146883
0.175093
0.299667
0.315121
0.322478
0.23003
0.146524
0.223629
0.204695
0.161484
0.717612
0.208538
0.146229
0.135233
0.13819
0.214466
0.181011
0.165111
0.251947
0.157827
0.353045
0.133364
0.231278
0.150956
0.221421
0.319376
0.153987
0.155806
0.256603
0.228707
0.143918
0.214912
0.240173
0.305552
0.223466
0.291657
0.140374
0.15494
0.167495
0.171714
0.974761
0.146607
0.174616
0.30383
0.16583
0.319537
0.135866
0.147787
0.234934
0.275748
0.182159
0.148042
0.690771
0.236176
0.234005
0.137238
0.256122
0.186969
0.135233
0.153571
0.176188
0.261635
0.226824
0.319504
0.400806
0.144164
0.224011
0.224283
0.249981
0.195412
0.197728
0.224476
0.274342
0.134116
0.155445
0.188132
0.351106
0.146242
0.240091
0.152527
0.352714
0.190701
0.189071
0.197704
0.2149
0.200913
0.2047
0.349147
0.133165
0.131521
0.187132
0.171233
0.135619
0.155117
0.301918
0.2082
0.24396
0.150133
0.143006
0.137106
0.19738
0.220895
0.140885
0.35252
0.176786
0.16645
0.161614
0.146084
0.215345
0.356047
0.241359
0.186553
0.286603
0.145231
0.253037
0.19613
0.595574
0.152166
0.155691
0.18733
0.216416
0.196924
0.149499
0.171872
0.263724
0.296337
0.349643
0.187709
0.148292
0.164383
0.470182
0.227775
0.618368
1.29566
0.134257
0.243413
0.183935
0.141802
0.248882
0.240423
0.223872
0.20942
0.348722
0.134481
0.169538
0.214197
0.15923
0.205485
0.154761
0.185342
0.197335
0.133209
0.237858
0.149489
0.222054
0.312639
0.148522
0.142445
0.525064
0.223709
0.160597
0.193385
0.184549
0.154753
0.503572
0.332065
0.290538
0.173924
0.1772
0.221523
0.136764
0.139363
0.145395
0.231614
0.251237
0.391047
0.208049
0.199214
0.176888
0.234651
0.138079
0.415536
0.140341
0.224943
0.177123
0.133649
0.191257
0.150841
0.161122
0.508896
0.17283
0.21087
0.173183
0.205403
0.17253
0.201235
0.275398
0.141553
0.262463
0.13962
0.135572
0.596306
0.138457
0.188825
0.176417
0.204058
0.191113
0.14731
0.157542
2.29592
0.265435
0.159029
0.31373
0.17547
1.02115
0.124169
0.356159
0.283549
0.138733
0.50777
0.187107
0.138255
0.135599
0.16139
0.136364
0.703939
0.201041
0.14891
0.168275
0.170259
0.145585
0.288962
0.145783
0.135207
0.139385
0.221459
0.348571
0.18019
0.235044
0.877525
0.334183
0.135399
0.158082
0.20436
0.182449
0.1432
0.136356
0.306335
0.165206
0.350489
0.13833
0.817572
0.497232
0.394314
0.144688
0.316637
0.240688
0.471073
0.130169
0.133815
0.135461
0.403603
0.133588
0.1338
0.383333
0.190461
0.252704
0.242687
0.17221
0.142416
0.172858
0.134716
0.36632
0.143785
0.149509
1.95295
0.141598
0.234271
0.231152
0.134499
0.143086
0.202239
0.144266
0.198562
0.617932
0.140469
0.18657
0.880607
1.2772
0.812608
1.13933
0.367565
0.149328
0.143763
0.135237
0.138212
0.39935
0.153959
0.170907
0.169254
0.169662
0.175891
0.331201
0.431138
0.183744
0.293418
0.306735
0.191195
0.158046
0.161826
0.198289
0.165101
0.16823
0.204805
0.170774
0.182945
0.42073
0.135553
0.257279
0.170552
0.193819
0.24198
0.637232
0.137764
0.334338
0.240034
0.186159
0.172705
0.823796
0.145161
0.137799
0.417031
0.237482
0.165881
0.232693
0.121312
0.536914
0.189155
0.172219
0.146225
0.196305
0.149175
0.153889
0.294581
0.272328
0.226776
0.189745
0.166974
0.253535
0.227835
0.556033
0.15199
0.137818
0.138925
0.148779
0.191717
0.139558
0.256837
0.284614
0.225297
0.171267
0.265632
0.150542
0.182355
0.165364
0.280355
0.158759
0.211246
0.230169
0.132951
0.179082
0.134308
0.171622
0.156641
0.131467
0.225673
0.661975
0.348865
0.146221
0.148993
0.13349
0.178033
0.160151
1.83386
0.144181
0.306013
0.134833
1.4143
0.142482
0.313085
0.141485
0.135972
0.134055
0.178024
0.145823
0.160538
0.565528
1.77698
0.31451
0.1724
0.14297
0.153625
0.563912
0.14948
0.155201
0.571681
0.203083
0.178993
0.633217
0.151805
0.485575
0.135986
0.134943
0.144603
0.156926
0.368303
0.33618
0.132337
0.151964
0.277841
0.195857
0.16272
0.159524
0.191304
0.3079
2.11465
0.138437
0.134852
0.271793
0.128264
0.142313
0.923105
0.247569
0.19405
0.218274
0.43406
0.334717
0.137551
0.216138
0.165805
0.148678
0.233593
0.294281
0.138177
0.183007
0.129586
0.378798
0.127303
0.146373
0.35798
0.371589
0.134439
0.898988
0.508497
0.144678
0.246696
0.144561
0.128758
0.14666
0.124403
0.133962
0.130856
0.157297
0.136006
0.156564
0.173149
0.137729
0.448544
0.133098
0.132197
0.160557
0.313367
0.143102
0.313317
0.135085
0.157951
0.304987
0.171188
0.265545
0.276299
0.286992
0.319489
0.325792
0.330958
0.296774
0.337564
0.140453
0.127566
0.128955
0.139692
0.13587
0.133288
0.180953
0.254291
0.139326
0.358127
0.144794
0.23927
0.13639
0.158352
0.136522
0.155775
0.204215
0.136041
0.213408
0.145087
0.133661
0.216954
0.192083
0.192457
0.146281
0.14948
0.145193
0.578453
0.166476
0.185265
1.3674
0.209244
0.181072
0.274117
0.207563
0.140528
0.226826
0.304566
0.136949
0.140818
0.133165
0.166982
0.136684
0.21814
0.252011
0.138683
0.134736
0.146972
0.134126
0.139037
0.225265
0.13579
0.145848
0.160001
0.258979
1.27134
0.136929
0.31692
0.366125
0.141025
0.303563
0.256754
0.137992
0.366233
0.492648
0.122598
0.14737
0.236085
0.494718
0.13796
0.229797
0.353836
0.195036
0.137087
0.139065
0.312458
0.17447
0.485467
0.468677
0.327725
0.26508
0.210833
0.332175
0.237256
0.151764
0.1943
0.134032
0.153698
0.132406
0.541498
0.167031
0.137475
0.463371
0.219039
0.23722
0.139004
0.142238
0.247289
0.802686
0.526024
0.145008
0.134682
0.206242
0.260781
0.338687
0.137446
0.339772
0.141188
0.138137
0.148378
0.920708
0.260281
0.267086
0.140585
0.144425
0.147778
0.814225
0.195842
0.28042
0.147873
0.14611
0.13529
0.139312
0.147091
0.393678
0.405789
0.281262
0.284323
0.155923
0.311432
0.160137
0.142841
0.200764
0.136265
0.22508
0.149303
0.141184
0.287416
0.145763
0.177234
0.197901
0.162803
0.161488
0.14786
0.136817
0.145426
0.244896
0.165835
0.908568
0.288738
0.133936
0.175736
0.562367
0.161566
0.17555
0.196633
0.333914
0.222603
0.181971
0.282859
0.281623
0.329748
0.299741
0.327301
0.217913
0.140703
0.145761
0.57724
0.142316
0.719493
0.160962
0.264557
0.145228
0.156657
0.285516
0.170362
0.207743
0.226475
0.14337
0.175784
1.80173
0.1512
0.157257
0.136285
0.135364
0.555839
0.160643
0.289815
0.255159
0.142091
0.136023
0.303712
0.258402
0.163452
0.144224
0.186222
0.424094
0.219832
0.133896
0.279499
0.523281
0.23024
0.189397
0.285213
0.220142
0.867251
0.220369
0.13328
0.165018
0.145044
0.653724
0.548866
0.450996
0.141572
0.848358
0.250849
0.134164
0.135169
0.859681
0.155373
0.141846
0.148848
0.146005
0.371374
0.138674
0.889616
0.146221
0.139111
0.127974
0.874061
0.127073
1.35368
0.28114
0.15052
0.239389
0.519934
0.886314
0.13492
0.360563
0.130626
0.178822
0.153844
0.254701
0.187108
0.529552
0.121371
0.178332
0.346919
0.847542
0.113869
0.147757
0.128313
0.296112
0.134823
0.290799
0.149649
0.775967
0.154258
0.125663
0.166916
0.208236
0.318395
0.290008
0.203989
0.151059
0.138897
0.27405
0.824983
0.138475
0.150274
0.193803
0.159745
0.285784
0.175745
0.267374
0.143066
0.15555
0.16401
0.184173
0.17165
0.282177
0.17219
0.129561
0.141824
0.422177
0.145795
0.134708
0.142124
0.172189
0.144776
0.270601
0.204079
0.205495
0.126961
0.131106
0.278196
0.271166
0.234154
0.18781
0.146854
0.134059
0.134595
0.147254
0.138349
0.142391
0.13691
0.140985
0.18608
0.15148
0.335765
0.137131
0.332684
0.162384
0.239208
0.301678
0.147468
0.149892
0.276029
0.288767
0.11898
1.19162
0.133769
0.185117
0.156015
0.159372
0.132001
0.160505
0.152907
0.15777
0.150549
0.384371
0.448769
0.232053
0.292754
0.201903
0.265575
0.144429
0.246854
0.263373
0.14796
0.124574
0.200351
0.226683
0.123649
0.129473
0.230554
0.201704
0.111487
0.13764
)
;

boundaryField
{
    frontAndBack
    {
        type            empty;
    }
    wallOuter
    {
        type            kqRWallFunction;
        value           nonuniform List<scalar> 
96
(
0.136973
0.26528
0.211299
0.351106
0.352714
0.349147
0.155117
0.150133
0.143006
0.19738
0.140885
0.176786
0.146084
0.356047
0.186553
0.20942
0.348722
0.169538
0.138079
0.161122
0.13962
0.168275
0.170259
0.221459
0.348571
0.367565
0.149328
0.143763
0.135237
0.138212
0.39935
0.153959
0.170907
0.169254
0.169662
0.175891
0.331201
0.431138
0.183744
0.293418
0.306735
0.191195
0.158046
0.161826
0.198289
0.165101
0.16823
0.204805
0.170774
0.172219
0.139558
0.256837
0.171622
0.131467
0.348865
0.1724
0.485575
0.134852
0.271793
0.247569
0.233593
0.129586
0.127303
0.371589
0.313367
0.313317
0.304987
0.171188
0.265545
0.276299
0.286992
0.319489
0.325792
0.330958
0.296774
0.337564
0.140453
0.127566
0.128955
0.139692
0.13587
0.133288
0.23927
0.133661
0.21814
0.229797
0.339772
0.136265
0.244896
0.255159
0.133896
0.279499
0.127073
0.360563
0.346919
0.128313
)
;
    }
    inlet
    {
        type            fixedValue;
        value           nonuniform 0();
    }
    outlet
    {
        type            zeroGradient;
    }
    wallInner
    {
        type            kqRWallFunction;
        value           nonuniform List<scalar> 
126
(
0.199094
0.121531
0.14106
0.149427
0.136017
0.136795
0.134215
0.139968
0.131695
0.137646
0.127172
0.14261
0.654526
0.202744
0.152834
0.240347
0.174185
0.121774
0.126979
0.133114
0.139488
0.126124
0.156419
0.128923
0.141368
0.138193
0.198084
0.155154
0.157458
0.130533
0.137375
0.152534
0.626775
0.152093
0.493127
0.14459
0.13464
0.14792
0.121067
0.130513
0.135764
0.165552
0.114079
0.13714
0.133983
0.133256
0.158517
0.515731
0.136121
0.195879
0.429083
0.154374
0.493039
0.143718
0.186632
0.181691
0.114982
0.48263
0.220039
0.204481
0.134716
0.148246
0.145837
0.431352
0.137811
0.12249
0.317566
0.353782
0.131677
0.438182
0.170809
0.264931
0.174192
0.152829
0.162641
0.19568
0.158632
0.310782
0.171536
0.298989
0.136296
0.301803
0.13981
0.270859
0.16746
0.258442
0.322478
0.153987
0.140374
0.234934
0.256122
0.215345
0.241359
0.154753
0.234271
0.202239
0.165364
0.468677
0.113869
0.147757
0.288767
0.11898
0.133769
0.156015
0.159372
0.132001
0.152907
0.150549
0.384371
0.448769
0.232053
0.292754
0.201903
0.144429
0.246854
0.263373
0.14796
0.124574
0.200351
0.226683
0.123649
0.129473
0.230554
0.201704
0.111487
0.13764
)
;
    }
    procBoundary3to1
    {
        type            processor;
        value           nonuniform List<scalar> 
48
(
0.135265
0.149931
0.14502
0.137294
0.174154
0.161053
0.149931
0.234797
0.139078
0.160223
0.160223
0.137558
0.137558
0.134955
0.1408
0.133174
0.133504
0.133131
0.133504
0.134338
0.134495
0.138473
0.134338
0.181047
0.183679
0.161786
0.152983
0.138473
0.179073
0.197522
0.197522
0.224765
0.224765
0.139078
0.138861
0.197728
0.194629
0.183679
0.135594
0.14934
0.134955
0.16517
0.150982
0.134338
0.149293
0.141941
0.159283
0.134345
)
;
    }
    procBoundary3to2
    {
        type            processor;
        value           nonuniform List<scalar> 
29
(
0.170166
0.170166
0.148593
0.144581
0.136179
0.142912
0.153749
0.172521
0.159144
0.146247
0.15125
0.14993
0.169734
0.168832
0.139856
0.167791
0.183453
0.166316
0.168071
0.15887
0.151255
0.183453
0.140137
0.166316
0.135799
0.190456
0.166316
0.157244
0.157244
)
;
    }
}


// ************************************************************************* //
