/*--------------------------------*- C++ -*----------------------------------*\
| =========                 |                                                 |
| \\      /  F ield         | OpenFOAM: The Open Source CFD Toolbox           |
|  \\    /   O peration     | Version:  v1912                                 |
|   \\  /    A nd           | Website:  www.openfoam.com                      |
|    \\/     M anipulation  |                                                 |
\*---------------------------------------------------------------------------*/
FoamFile
{
    version     2.0;
    format      ascii;
    class       volScalarField;
    location    "0.36";
    object      k;
}
// * * * * * * * * * * * * * * * * * * * * * * * * * * * * * * * * * * * * * //

dimensions      [0 2 -2 0 0 0 0];


internalField   nonuniform List<scalar> 
1466
(
0.50014
0.896528
0.406349
2.14807
0.383268
0.836581
1.18987
1.1177
0.274658
1.05323
1.47487
1.02555
0.211006
0.297851
1.38804
2.36768
0.850214
1.13558
2.63121
1.60567
2.64231
2.58081
2.0248
1.40428
0.242005
0.736602
1.6431
1.99622
0.225395
1.3397
1.72306
0.737273
0.429366
2.94249
1.91551
1.29975
2.63012
0.92778
1.35149
0.697012
0.510046
1.21002
1.35026
0.374712
0.453975
0.884958
1.41385
0.269263
1.01313
0.209797
0.478552
0.903117
0.81921
0.321689
0.384159
0.27223
0.618679
1.30774
0.301683
1.06882
1.273
1.03564
0.861024
1.09122
2.26917
1.0855
4.01777
1.6197
0.769761
0.356395
2.39024
1.45432
0.991511
0.256487
0.936895
1.345
0.969841
0.755316
0.425578
1.6485
1.29855
2.1424
0.410062
1.80872
2.30278
2.95221
2.83782
1.56118
1.29694
1.23147
0.942824
1.59156
2.51736
0.484954
0.776782
0.396675
0.832992
1.30347
0.27734
0.222313
0.669886
0.331719
0.245967
1.31383
1.57904
1.36177
0.87021
0.290897
1.35231
0.539801
1.12664
1.67803
0.576904
1.21127
0.94398
1.38834
1.35161
0.85722
0.934979
1.02733
2.85456
0.884131
0.898216
0.333206
0.387504
1.20782
1.00071
2.04275
1.41074
1.27662
1.157
1.12103
1.89158
1.33082
1.04164
0.606211
0.806803
0.64363
0.62859
0.81446
0.254097
2.22543
1.9656
2.0734
2.82202
3.68365
0.726182
1.0082
1.58348
1.90326
1.04378
1.12756
0.891325
0.538181
1.46437
2.50541
1.79465
2.56235
0.754581
1.04599
0.687184
1.34171
1.43189
2.12583
3.20966
1.93716
1.76283
2.36649
2.3563
1.14761
2.55636
0.507344
0.194012
0.808078
0.606001
0.262234
1.15529
1.6027
1.03169
2.44986
0.269113
1.14527
2.76271
0.172956
1.54451
3.04687
2.37778
1.281
0.791308
0.602987
2.76686
1.36292
2.54346
4.09052
0.951838
1.2514
0.292504
2.33892
3.17479
4.0735
1.84072
1.42752
1.17099
1.82856
2.06813
3.11951
3.12784
0.74587
0.74197
1.54207
2.35697
2.14343
2.73086
2.35667
2.8298
2.08836
3.11046
2.45783
1.52554
1.6243
2.24882
1.41986
2.1803
1.41468
2.27107
2.42292
2.24377
0.346426
1.03022
1.3916
1.83698
1.58698
4.41938
4.31527
0.658328
2.72313
1.88994
2.24664
1.03362
2.7028
1.03365
1.58659
1.0418
4.15168
0.865931
1.22011
0.742925
0.253012
1.7327
0.92146
2.99338
2.46591
0.682013
1.68812
0.50293
0.987976
1.67289
0.351751
1.28402
1.61705
1.1935
1.80276
1.29773
1.35502
1.62251
0.168858
0.644112
1.52845
2.54687
0.363599
1.68509
1.42836
0.876691
0.749652
0.985105
1.57091
1.2227
1.70493
2.46435
1.61906
1.19625
2.81522
2.17328
1.38296
3.22524
0.173663
1.67999
1.64233
0.258406
0.553111
0.588132
0.439179
0.241452
0.27534
1.32256
0.693131
1.86462
0.251144
1.64608
1.24841
0.278801
1.68458
0.233818
0.263758
2.42905
0.695375
0.648282
0.475655
1.02979
3.67262
0.780813
2.79525
1.6672
1.30413
1.46708
1.20236
3.70155
0.906723
0.259984
1.42291
0.663925
1.6084
1.37308
1.13419
2.75021
0.485322
0.214896
0.918131
0.989062
1.45353
1.93014
0.513392
0.557613
1.08412
2.48159
0.383714
2.63311
1.00978
0.728021
0.660588
0.52364
0.812247
0.765363
1.51664
1.22649
0.233457
1.3184
1.0531
0.849107
2.35175
0.756963
0.350519
1.57262
3.30321
3.47218
3.18949
1.98904
0.383866
0.283678
1.05939
3.39895
2.80901
2.04417
2.2894
0.302702
4.62887
0.721716
0.691224
1.02163
1.19634
0.996784
3.3929
1.21017
0.952794
0.636582
2.62478
1.50223
1.22988
0.609658
1.55486
2.31846
1.67124
2.50475
2.55853
1.59254
1.67711
0.693665
0.641171
0.397253
0.224538
1.06236
0.855393
2.18142
0.784434
1.15464
0.46755
0.186799
1.24089
1.16572
0.199835
0.165118
0.160235
1.41784
0.189564
1.19872
3.69175
1.55927
0.962842
3.73789
3.44915
1.0946
1.78715
2.11647
3.6605
1.63797
0.250775
0.233774
1.30443
1.38234
0.804538
2.98087
3.19384
0.835078
2.06802
1.06226
1.34299
2.28642
1.1893
1.11738
1.29212
1.95829
0.732795
1.43792
1.97533
1.34691
0.229659
0.242006
0.358107
0.30483
1.99273
0.230363
0.383181
1.9517
0.33856
1.3656
0.729806
0.552074
1.45671
0.663375
1.86872
1.52389
0.591622
0.22745
0.306137
0.988389
0.336617
0.495196
0.880227
0.271305
1.48391
0.386222
0.899029
0.50834
1.54861
1.81392
0.704956
0.971942
0.714435
0.367269
1.06256
0.455477
0.796537
2.01596
0.317668
1.54727
0.717983
0.678071
2.8408
4.69212
2.93389
1.11402
2.32609
2.28611
4.43165
3.90876
0.636986
0.677159
0.573132
3.80714
2.18984
4.24647
1.92254
0.734191
0.884539
1.82006
0.80006
1.93885
1.47122
1.23234
2.62785
2.5038
3.27763
1.39304
2.76265
0.542306
3.00074
1.45924
1.66954
0.649244
1.20687
1.30079
3.48841
1.99094
1.73484
1.84563
2.48653
0.553307
0.288162
0.483033
0.949222
2.31878
0.452895
4.59297
0.75242
3.0962
0.623321
0.418612
1.95115
0.586511
4.15533
0.780976
1.88976
3.7619
0.804375
1.26973
0.425425
0.966262
1.58026
0.73134
2.2791
0.604971
3.01781
0.694205
1.95392
0.605473
0.915164
0.678231
0.668457
3.80465
1.67101
3.23369
0.638265
0.516919
1.3557
1.80435
1.46994
1.21243
2.3489
1.14886
0.501526
3.93458
3.86452
1.32077
0.992
0.401381
1.72551
0.827633
4.52834
1.62852
3.21099
2.85924
4.4605
1.1731
1.45777
1.26265
2.96166
0.351077
2.66628
1.22407
1.93133
2.41025
3.13704
1.92544
2.80921
2.6032
2.00943
2.88947
0.288772
0.824504
1.8196
2.78037
0.757812
2.83391
1.96984
3.16414
2.05251
2.04554
1.32704
1.56695
2.10101
1.1811
0.41593
0.421822
0.898304
4.8316
3.01437
1.36656
0.286462
1.7224
3.2111
1.1934
2.33835
0.640239
0.969424
2.26421
0.879404
1.43339
0.753522
0.631322
2.91002
0.844377
0.209525
1.2561
0.537528
0.794475
2.1025
2.28852
3.09711
3.52717
2.62172
3.48007
0.617884
0.653908
0.452596
2.76004
0.370895
2.71677
2.37856
1.58937
2.14144
3.96906
1.67523
1.40836
1.46417
3.61288
0.419859
3.1534
3.82457
1.36769
0.795552
2.92935
0.319785
1.17048
0.319578
4.46104
3.55551
0.646862
1.95644
0.980782
0.240764
4.64593
1.7068
0.37425
0.420787
4.35395
1.15067
1.97585
1.40801
1.57378
0.582923
0.535312
0.974328
2.59933
0.440115
1.99569
0.27291
1.69967
0.488345
0.737437
0.528576
2.07572
0.598266
0.646169
4.06322
0.355927
3.44374
0.443894
0.204475
2.10122
0.251035
4.20002
0.509037
0.462279
1.25932
0.381155
0.195984
1.19917
3.17964
0.457411
2.74277
3.69916
0.421418
0.223323
1.00857
3.0903
2.8466
1.23904
0.48315
0.198619
2.88564
1.36993
3.45955
0.406772
1.58697
4.02528
2.24784
1.00945
3.05624
3.59725
1.6142
1.17673
3.05322
4.16263
1.48667
2.10334
3.51847
2.09882
0.703988
0.932532
0.244344
3.06982
1.9978
3.04261
0.288138
3.51072
2.7087
1.22991
2.59731
0.201471
3.58873
2.64803
1.65998
3.31704
0.219985
1.14473
0.947078
0.504094
0.426799
1.65074
1.11159
2.0762
2.08754
0.723225
0.230342
2.20698
2.81236
3.1688
2.18696
0.396629
2.30162
2.22705
0.674405
1.6422
1.44617
4.55803
1.17315
1.92271
2.21193
2.24322
2.91743
1.26934
1.04616
1.02234
0.924126
2.43817
2.62793
1.24068
0.322313
1.1036
1.77357
1.15091
0.666073
2.11956
1.04208
3.96114
0.280389
1.6235
2.25681
3.06484
1.14854
1.51079
4.29413
2.4628
0.747715
1.25003
0.446462
3.38314
1.48543
0.508484
0.681018
0.5236
2.4739
3.30316
0.592188
0.857182
0.196443
0.303124
0.379984
2.52494
2.22807
1.26965
1.82378
2.02835
1.34056
1.80996
0.57602
2.35895
2.01684
1.00843
2.80874
1.8291
3.22371
0.586905
1.66706
1.34909
0.963028
2.11073
0.372062
0.476607
1.95981
1.70158
2.34452
1.3513
3.87811
0.806227
0.963496
0.717755
0.285274
0.890138
1.11234
1.56607
3.62333
3.81491
0.610873
3.40081
1.24422
0.51812
3.13153
1.059
1.96956
3.17295
1.26548
2.13039
0.891025
1.27314
1.21106
1.52368
0.872409
1.55586
2.15432
4.06916
3.0614
0.297982
0.870901
0.772076
0.876057
2.12998
2.51181
1.27173
0.895107
1.92804
0.531038
2.53315
0.756709
4.83943
0.747071
3.78547
1.10021
1.12996
1.06339
1.13766
1.1268
1.18596
1.09974
1.58169
1.66095
1.77463
1.61402
1.5443
1.50361
1.55146
1.55323
1.88585
1.22711
1.37021
1.9681
1.96928
1.68768
1.8344
1.46231
1.443
1.42324
1.02784
1.6921
0.21698
0.261349
2.93498
0.941898
0.528483
0.616943
0.30496
1.35426
3.68697
1.92437
3.58292
0.965029
0.488502
0.363608
1.80709
0.694059
2.7563
1.33407
2.13848
1.35858
1.08041
4.37241
2.73178
1.37972
0.733687
0.660967
0.282835
0.222193
0.254421
0.870151
1.47021
2.656
3.09791
0.31993
1.21529
0.992144
0.600931
0.770138
0.677538
3.35612
1.10423
1.01229
1.27748
1.18625
0.864757
0.435687
2.24037
1.33837
1.67969
2.76234
2.08579
3.28798
0.714108
1.77701
2.85098
1.27512
4.27063
0.840809
1.29805
0.532349
1.83143
3.15999
0.1812
1.43087
1.02339
2.84241
0.23616
2.47964
2.74385
2.45138
1.27434
0.794662
1.65148
2.26954
0.900596
0.914632
0.461483
1.97285
2.98339
3.28407
0.481643
1.33641
3.67969
1.07965
3.53658
1.64906
0.609122
0.287822
1.67667
1.31486
3.30416
4.92984
1.60474
2.84352
0.308393
0.583966
1.99886
2.46734
3.78096
0.368655
1.00055
1.19428
1.21487
0.278626
1.61724
0.250183
0.923524
2.72039
0.307556
0.234975
1.85952
0.324529
2.83239
1.18179
1.06029
3.57425
1.09543
1.6747
3.20052
1.9934
2.98499
1.24185
0.942657
2.17315
1.47752
1.12024
0.995845
2.99888
1.72449
0.557545
1.15161
2.5349
1.35674
0.890594
3.11897
0.247725
1.73319
0.592855
0.47894
0.429659
0.548174
0.584144
0.961822
0.334825
1.21034
3.99318
0.751982
0.712151
0.719838
2.21689
0.623068
0.446103
1.25454
3.43237
0.935947
0.651235
0.86813
0.271732
0.474027
0.570457
0.531617
3.13731
1.19116
0.761187
0.908326
0.102791
2.88328
1.21007
0.298493
0.851913
0.322731
0.665499
0.260136
0.323172
0.323147
0.65651
0.525071
0.254639
1.3013
0.290058
0.312379
0.292159
0.298724
0.657607
0.695188
0.26566
0.290179
0.314823
0.322271
0.802852
4.12642
2.50036
1.26277
1.21087
2.22538
3.80046
1.37682
1.3042
0.974069
1.58826
1.05649
1.21696
0.385251
2.81716
1.46439
4.04868
2.20637
0.207348
3.45211
1.05986
1.48082
0.77573
1.90941
1.62613
3.00368
0.427731
2.46991
1.75224
1.97209
0.956741
1.36261
0.244852
0.71708
0.99611
1.4974
1.35776
1.28383
1.5485
1.63441
0.520393
0.977262
0.750503
1.32271
2.40143
2.90003
3.60438
3.61635
0.51366
0.276639
1.44294
1.69924
1.44276
0.93968
0.903149
0.362667
1.09939
3.34755
0.732202
0.798845
3.24612
0.497439
0.360033
0.817765
1.49198
1.20524
3.56786
0.502017
1.84261
1.3178
0.96141
2.09139
4.69223
0.920543
3.55887
2.78503
1.15073
1.07373
1.15924
0.87794
0.406544
0.402821
3.22106
1.45166
3.58663
3.26682
3.81934
4.82615
0.749881
1.344
1.9603
1.81553
1.67837
3.44769
0.370626
0.66486
2.03466
2.39697
0.322806
3.60677
1.78217
0.889683
1.29772
1.20643
0.489159
0.749794
0.859452
1.39805
0.518964
0.885722
0.992547
0.934395
1.29222
5.02219
0.26207
0.889216
0.997973
0.367016
0.61028
1.36833
0.740498
0.693612
0.24486
1.49223
0.794466
2.09863
3.42529
3.44464
0.411571
1.43505
0.242993
3.67384
1.38009
0.277479
1.92211
1.2483
3.22373
3.6705
1.69778
1.75481
1.28838
0.344518
0.376277
3.12184
0.596332
0.301812
1.6711
0.241447
3.50267
1.02273
1.69968
0.538113
3.29408
1.8893
0.293199
3.66311
1.04636
0.246685
2.8356
2.56829
1.3011
1.58021
0.838829
3.75981
1.08405
2.64811
0.876234
1.58886
1.43653
2.41053
1.92034
3.91987
4.66054
1.4229
2.00813
1.77453
2.77973
0.241088
1.03374
1.41121
0.243542
3.84943
0.442012
1.51981
3.46064
0.795747
3.12729
1.54188
0.245006
0.982568
1.23331
0.470905
0.773239
0.684407
1.09306
0.607048
4.95569
3.71573
2.28197
1.25957
0.409176
0.239578
1.10201
1.10572
2.2229
0.820045
1.97026
2.01732
3.37674
1.87552
1.19736
3.21613
0.248809
1.6497
3.16285
2.17668
0.751716
0.572048
0.479388
0.843983
0.688165
0.748456
1.27481
3.20285
0.287817
0.263707
1.78418
0.834316
1.5596
3.53702
2.55438
0.249941
1.68946
0.578463
0.250753
0.31324
0.404042
0.668715
4.61076
0.248866
3.42219
1.04057
0.649518
0.400152
0.176386
3.0836
0.259431
0.753441
1.33108
0.747981
3.09788
1.18355
2.07046
1.4885
1.22954
1.04668
0.890378
0.805008
0.974427
1.05559
2.83892
0.184603
1.45653
1.58178
1.23421
1.50941
1.38952
3.60901
0.853834
1.25648
0.682437
1.2392
3.34784
1.3796
0.452586
0.182583
0.277777
0.641275
2.2042
1.52516
1.77403
1.6227
1.47814
0.777464
3.64603
2.12749
1.81417
1.53264
0.84946
2.04229
3.60298
0.451786
0.842769
2.28078
0.726537
3.2995
1.16802
1.54917
2.99549
1.65117
2.47842
2.35258
1.71251
2.49488
0.418189
0.496574
0.666635
0.302263
1.36978
0.604251
2.24533
1.19109
1.86755
1.37596
3.10216
1.85517
2.87691
0.685526
3.57141
3.57039
0.750763
0.356339
3.29097
1.34914
0.832564
0.902828
1.53868
1.11759
2.68477
1.29943
0.926637
0.687023
0.289887
1.5825
1.96252
1.63159
0.98314
1.84231
1.36836
0.699763
1.76359
0.272368
0.206156
1.3196
1.43214
0.31664
0.369056
0.831962
0.395714
0.829902
1.85778
0.659002
0.321501
0.916747
2.0294
1.01604
1.0787
0.663199
1.12809
0.289004
0.264176
0.267899
0.452339
0.711918
0.567468
1.70302
0.24277
0.193537
1.52539
0.351981
0.957894
0.63574
0.789285
)
;

boundaryField
{
    frontAndBack
    {
        type            empty;
    }
    wallOuter
    {
        type            kqRWallFunction;
        value           nonuniform List<scalar> 
108
(
1.13558
1.45432
0.991511
0.233818
0.233457
0.355927
0.443894
0.204475
0.251035
0.381155
0.195984
0.457411
0.421418
0.223323
0.198619
0.244344
1.22991
0.504094
0.426799
0.322313
0.303124
1.26965
0.285274
0.51812
1.10021
1.12996
1.06339
1.13766
1.1268
1.18596
1.09974
1.58169
1.66095
1.77463
1.61402
1.5443
1.50361
1.55146
1.55323
1.88585
1.22711
1.37021
1.9681
1.96928
1.68768
1.8344
1.46231
1.443
1.42324
1.02784
0.261349
0.488502
1.37972
0.222193
1.18625
1.29805
0.532349
1.33641
1.00055
0.234975
1.09543
1.24185
0.942657
0.592855
0.548174
0.334825
0.623068
0.474027
0.570457
1.19116
0.102791
0.102791
0.298493
0.322731
0.323172
0.323147
1.3013
0.290058
0.312379
0.292159
0.298724
0.657607
0.695188
0.26566
0.290179
0.314823
0.322271
0.802852
1.3042
0.974069
0.207348
0.77573
0.956741
1.36261
0.732202
0.798845
1.3178
0.96141
0.794466
0.243542
1.10201
0.820045
0.263707
0.578463
0.248866
0.182583
0.277777
1.47814
)
;
    }
    inlet
    {
        type            fixedValue;
        value           nonuniform 0();
    }
    outlet
    {
        type            zeroGradient;
    }
    wallInner
    {
        type            kqRWallFunction;
        value           nonuniform List<scalar> 
126
(
0.92778
1.35149
0.697012
0.510046
1.21002
1.35026
0.374712
0.453975
0.884958
1.41385
0.269263
1.01313
0.209797
0.478552
0.903117
0.81921
0.321689
0.384159
0.27223
0.618679
1.30774
0.301683
1.06882
0.425578
0.396675
0.832992
1.30347
0.27734
0.222313
0.669886
0.331719
0.245967
1.31383
1.57904
1.36177
0.87021
0.290897
1.35231
0.539801
1.21127
0.94398
0.333206
0.387504
1.157
1.12103
0.606211
0.806803
0.64363
0.254097
1.43189
0.606001
0.292504
1.28402
1.61705
1.1935
0.168858
0.644112
1.68509
1.42836
0.876691
0.439179
0.27534
0.693131
1.86462
0.663925
1.6084
1.37308
0.383866
1.02163
1.21017
1.22988
1.24089
0.199835
1.1893
1.43792
1.97533
0.229659
0.358107
0.383181
0.22745
0.336617
0.271305
1.73484
1.88976
1.80435
2.28852
1.95644
2.10334
0.876057
2.51181
1.6747
1.18355
0.805008
1.84231
0.699763
1.76359
0.272368
0.206156
1.3196
0.31664
0.369056
0.831962
0.395714
0.829902
1.85778
0.659002
0.321501
0.916747
2.0294
1.01604
1.0787
0.663199
1.12809
0.289004
0.264176
0.267899
0.452339
0.711918
0.567468
1.70302
0.24277
0.193537
1.52539
0.351981
0.957894
0.63574
)
;
    }
    procBoundary1to0
    {
        type            processor;
        value           nonuniform List<scalar> 
29
(
1.16772
1.16772
0.644277
0.923042
1.76493
1.06965
1.88955
1.00499
1.55112
0.892159
0.999876
1.06965
0.644277
0.921356
1.09878
0.465263
1.76493
1.75809
0.923042
1.20893
0.293111
0.215345
1.50062
0.289538
0.289538
1.50062
0.239223
0.873013
0.239223
)
;
    }
    procBoundary1to2
    {
        type            processor;
        value           uniform 0.895843;
    }
    procBoundary1to3
    {
        type            processor;
        value           nonuniform List<scalar> 
48
(
2.48069
2.31777
2.58405
2.58405
1.61402
2.32206
2.32206
0.621358
1.55095
0.227612
0.22794
0.227612
0.296552
1.25402
1.21556
0.296552
0.292322
0.292322
0.300767
0.300767
1.13135
0.973485
0.344186
0.848134
0.848134
0.349079
0.837388
0.837388
0.556832
1.28288
0.559679
0.556832
0.621358
1.04869
0.293247
1.28288
0.951851
0.22794
2.15955
1.2602
1.35453
0.94209
1.04869
0.293247
1.03819
0.91037
1.46622
1.35453
)
;
    }
}


// ************************************************************************* //
