/*--------------------------------*- C++ -*----------------------------------*\
| =========                 |                                                 |
| \\      /  F ield         | OpenFOAM: The Open Source CFD Toolbox           |
|  \\    /   O peration     | Version:  v1912                                 |
|   \\  /    A nd           | Website:  www.openfoam.com                      |
|    \\/     M anipulation  |                                                 |
\*---------------------------------------------------------------------------*/
FoamFile
{
    version     2.0;
    format      ascii;
    class       volScalarField;
    location    "0.12";
    object      p;
}
// * * * * * * * * * * * * * * * * * * * * * * * * * * * * * * * * * * * * * //

dimensions      [0 2 -2 0 0 0 0];


internalField   nonuniform List<scalar> 
1431
(
95.2698
72.9184
89.6064
83.9404
96.1279
90.4767
95.7919
93.2891
87.7048
94.437
91.3087
93.2446
83.5052
98.9776
75.3733
87.8203
79.2756
95.3159
95.5669
91.5801
95.4667
95.528
88.5942
99.3778
73.2986
92.1569
65.0851
98.5007
84.0528
95.2289
102.294
106.171
89.4265
91.5186
95.5242
88.6826
95.1894
92.3786
91.1704
92.508
101.241
77.3742
90.6836
94.491
88.2169
94.1186
87.7822
110.753
101.974
93.7102
95.6837
94.7822
87.8956
91.0862
94.4488
105.685
94.7841
89.5122
72.3819
95.6969
83.8626
92.2896
88.2291
93.2925
96.1166
95.4479
90.0741
91.0195
97.292
93.9431
91.054
94.8083
90.4281
91.3107
88.236
89.184
95.5274
88.1297
93.9043
67.4601
93.2718
95.8721
86.0791
86.8125
72.6293
96.0725
96.2901
83.235
99.6965
93.1919
93.8543
83.2987
96.458
92.0333
95.9436
95.7249
86.9631
95.6233
96.0393
102
96.8424
92.1862
94.7175
96.1358
84.9002
80.6841
93.577
101.305
100.204
95.8254
67.6878
95.4009
93.7592
93.8256
85.1639
96.1306
95.3398
73.9713
99.9107
88.7015
90.4137
90.0571
94.6416
101.045
92.7556
80.0145
100.082
87.2851
94.9224
92.8047
95.1828
99.7508
101
94.7162
96.4416
83.419
91.1102
95.6202
93.7094
100.255
83.083
96.5692
92.4963
101.874
100.267
91.1091
95.2361
100.769
91.578
103.648
93.9535
97.2041
77.063
76.3657
93.372
85.9519
93.238
94.4273
94.4075
101.142
95.4329
91.5646
94.4886
84.3542
96.0464
64.7006
95.8169
91.308
95.5952
95.2246
100.268
86.8761
102.15
94.403
93.057
94.2517
81.6664
94.2166
95.8483
98.7596
92.5974
79.0501
99.6888
94.1321
92.5547
100.79
92.3239
78.286
93.046
93.164
88.0716
79.5051
95.5207
93.1929
88.3207
89.9195
93.6109
112.09
90.5839
91.1393
89.4036
111.759
103.111
100.744
93.4654
67.5819
96.0634
93.2118
90.1155
97.2689
93.1541
94.1107
101.01
93.2213
94.5012
89.6727
95.1463
87.8131
84.5867
92.975
93.0319
63.0218
92.6768
91.1698
93.6375
86.7614
101.991
94.7254
98.1583
101.354
96.3335
84.3188
93.8046
91.6092
92.9793
93.711
95.0697
94.8238
93.1266
76.285
94.8096
102.267
84.1834
81.6876
85.1303
84.4859
92.3069
95.5975
91.5777
99.8151
98.2315
85.6104
95.0893
115.376
87.2906
94.1448
96.4112
77.2373
92.9644
93.5254
93.9168
83.9178
95.9427
82.5966
93.3144
97.5575
87.7879
92.2004
100.312
81.9019
93.374
102.852
97.6271
96.9662
93.6618
90.2731
94.2585
93.8426
95.292
93.5651
90.8716
76.7158
84.1298
94.3757
90.0665
81.0245
96.2613
97.9012
99.2381
94.2181
90.9127
93.2238
97.7309
92.8431
99.1412
95.4364
95.2284
98.4552
75.949
99.9172
92.7106
102.788
83.7177
102.152
93.8783
75.0862
93.2339
93.8904
93.2198
96.8407
93.7998
92.5205
86.5678
96.5129
82.2777
74.9617
91.4257
78.6998
92.5705
97.4178
75.2728
97.4491
84.3309
75.2908
82.6036
97.2337
93.1975
97.0516
101.506
93.6023
84.4347
80.9973
78.1377
91.0934
93.0688
84.0509
96.3287
97.2582
95.9469
82.7563
90.93
93.2052
96.9239
82.3088
100.577
81.0856
93.4981
80.6685
96.4614
96.707
80.1122
95.6254
95.0106
95.7508
80.6607
79.5657
95.5428
80.7534
95.529
80.6428
96.5874
80.7377
95.8918
96.2865
96.5468
80.5714
96.2396
80.3985
87.1879
85.5348
73.3087
77.6878
97.6234
99.9835
92.0746
84.4507
82.1296
91.7616
90.813
95.4063
95.6058
80.408
96.6258
95.3212
80.491
96.0589
80.2913
80.6421
95.6289
96.3648
80.809
90.1895
101.507
91.7202
97.4471
95.5088
97.0489
93.1042
87.2653
93.5545
80.9196
83.6719
93.1444
96.0138
85.7495
90.1324
79.8296
101.775
96.7642
83.8095
90.696
84.2634
95.2963
90.371
101.231
130.117
77.4547
83.053
80.9425
96.9303
76.8814
99.7741
94.0992
74.2129
101.251
74.4092
71.8315
82.6836
88.2907
68.7716
87.7948
77.5321
83.7565
85.2511
77.9237
69.3909
97.9762
82.9731
73.9011
91.4714
94.7902
85.0476
83.6926
82.5487
79.7432
88.4117
85.7254
77.5662
81.7231
85.6863
86.4737
95.1167
85.8046
94.9684
100.478
95.7523
96.0636
96.0925
95.5359
79.2856
88.2681
98.0394
90.9876
88.885
80.265
80.7647
96.6916
89.49
89.8491
80.8591
90.5004
95.6476
101.085
115.992
89.048
80.7908
90.1324
87.9021
81.0574
104.889
102.459
95.742
102.779
91.3763
100.658
94.0111
88.0561
90.8429
97.3646
79.5505
79.4351
99.6565
80.3948
90.9507
102.358
95.7604
90.8908
81.406
93.0637
78.5306
87.8425
88.7772
79.8543
69.3719
69.3515
80.9505
80.3987
92.5808
99.1665
86.21
88.3092
78.9402
94.2887
86.418
93.1818
97.9357
85.7718
89.7797
101.141
80.3822
84.3306
75.8553
82.9021
96.7208
95.6618
98.2856
83.4827
98.5437
77.3395
80.0609
101.847
103.665
74.4761
79.7249
95.8686
99.8192
78.2881
77.4068
88.3987
94.6292
70.3644
81.8217
80.9424
94.4402
95.4996
89.177
79.5096
93.3223
94.1236
79.6462
76.118
94.5628
92.4242
97.9519
78.9209
85.816
78.0086
79.5944
91.3659
96.2042
87.4549
71.8613
81.4699
82.6624
89.1803
96.8498
92.1224
97.4774
86.7355
70.1628
81.4512
85.0155
89.0267
86.8649
84.1315
94.3125
95.9344
93.3015
70.716
95.6831
95.6791
93.3829
85.1318
69.2183
77.1653
74.9574
83.652
91.8593
95.7755
96.8845
94.7782
87.8041
89.5791
92.3621
93.186
72.7842
96.2717
84.2382
96.7171
78.654
83.389
81.6028
79.7148
76.802
77.0823
88.9512
91.1454
79.3188
85.2801
87.2898
91.9043
88.9185
96.9541
83.8508
89.2898
95.9999
91.9025
88.6384
80.8352
93.007
79.8538
76.3481
95.1594
81.2018
86.1364
116.714
80.1441
96.0333
93.9674
93.2055
83.3493
95.2193
94.3188
93.1739
74.7192
95.6437
79.3927
98.985
90.1161
95.0381
74.2509
87.4743
93.1924
88.0374
88.0168
75.7255
71.9386
85.9942
95.3095
95.1774
94.9695
75.1447
95.3946
91.052
84.3042
95.1724
93.3954
92.2884
85.7404
90.0937
69.8746
95.964
94.6403
94.3001
93.4865
80.8743
87.7575
91.3509
91.6621
84.9603
95.7409
93.2208
94.904
71.894
102.717
104.063
88.6064
94.4409
81.9101
92.4505
77.148
94.8792
84.963
95.5131
91.1558
75.1266
99.0127
73.5009
82.1711
97.0999
100.517
71.0835
72.2194
95.1288
92.9255
79.8855
96.2609
81.1367
93.2803
100.191
74.4942
79.9251
96.597
80.9687
95.9883
126.506
90.0177
85.0379
85.379
100.799
94.3891
96.4345
80.1303
93.0834
83.1513
93.5063
76.3857
89.6447
101.761
94.2287
93.2727
94.8061
93.0765
88.545
82.0187
94.0005
94.7205
85.289
100.048
97.204
97.474
95.1335
99.8643
99.723
87.1646
95.875
94.3708
89.3914
85.4695
94.4705
71.7801
83.0545
103.625
93.7539
96.6056
93.8703
97.3635
98.6873
100.688
82.2112
82.8547
98.5063
99.6109
99.2578
94.2222
94.9484
92.2794
93.8735
93.7792
100.275
89.4838
101.098
110.83
102.74
92.9238
86.6684
76.2642
110.875
96.2565
99.4716
91.7671
91.2482
96.3108
80.3936
82.8766
97.761
96.0328
85.799
87.1915
82.1152
86.4281
95.3521
98.9651
83.9321
96.878
92.8569
96.4411
80.4943
95.3636
100.498
94.0647
95.165
101.151
136.715
91.6403
92.9984
96.1562
80.5944
87.3633
92.6311
91.4947
73.9442
103.282
80.844
96.3177
74.595
93.7606
95.5956
86.5928
95.3227
93.8146
92.7943
85.441
95.5533
72.3778
95.1353
94.9593
92.59
92.2419
92.2645
95.3793
93.5001
98.55
81.8644
76.3448
93.7741
89.1566
75.6395
81.5826
95.9189
94.3651
96.5499
80.5942
96.3341
82.3619
86.5759
89.6584
92.8229
81.4247
92.788
94.5202
105.024
95.3575
91.8163
91.3109
104.447
80.5767
73.9575
76.3226
93.2221
80.4149
71.1089
76.8969
96.7748
121.882
94.1096
95.2591
86.9244
92.651
93.4398
93.1854
94.2511
79.955
95.6597
79.7873
95.1844
91.6709
102.553
96.184
81.7019
103.031
99.5626
94.2055
69.8625
96.5918
102.302
90.3235
94.1715
93.8537
93.351
95.7794
83.1994
95.2487
96.7959
93.9524
95.1355
94.4047
88.7837
87.4635
99.6984
95.2387
88.7664
89.8191
93.4494
95.0164
88.7876
96.5327
80.6603
94.7533
85.0225
95.146
95.397
96.722
97.6634
101.344
101.068
95.7837
95.3565
96.637
96.6141
94.636
93.0914
91.5181
96.0739
96.5612
75.4079
85.6498
93.718
85.8407
84.5687
92.4724
94.0102
94.6305
93.2145
93.3306
95.6576
84.0483
93.8863
90.5553
100.392
82.8502
102.262
92.0333
90.9686
91.6366
91.3508
90.4291
91.9088
92.3709
83.0221
96.4602
82.0443
93.4937
93.1655
95.1204
94.0968
65.7977
95.6814
95.8613
95.9825
87.8632
96.1807
87.0741
87.7939
95.4418
79.6441
94.0714
95.5148
89.2961
95.3057
85.0469
83.9357
80.6716
95.9139
78.6148
96.0395
94.8417
88.8215
96.0562
86.9981
84.5362
96.7632
76.5936
80.5809
88.0998
96.5577
93.3097
95.9018
95.5061
95.5955
72.583
96.7297
89.9131
92.4906
92.045
79.2125
96.3354
91.7853
95.3003
88.8513
96.1758
93.6186
94.3305
70.9818
93.539
80.0755
84.0534
100.133
71.4843
95.9249
90.7819
90.1246
94.4761
89.4818
94.1728
93.8172
89.8634
77.1668
90.4322
93.9148
85.238
94.656
93.1547
96.269
101.395
90.5562
89.7261
85.915
95.8045
82.4119
71.2924
87.0599
79.8341
89.4032
96.9749
80.5906
74.0649
95.3652
88.7649
101.339
84.1972
95.4808
71.1559
87.5422
80.8827
85.1058
88.1042
92.5154
94.6338
95.6114
86.1282
96.2404
96.1676
81.2259
94.4435
80.562
89.4236
81.588
100.144
74.8335
80.9514
92.0756
81.6484
81.03
91.1783
94.8708
95.0571
96.5678
99.2258
107.714
97.1352
84.7582
88.0275
74.3037
107.315
93.5911
89.2701
93.5026
91.9835
82.3943
94.8594
92.5884
86.7977
95.4783
93.3929
92.7745
95.4585
89.5508
93.6338
93.5244
96.2272
101.981
94.1516
96.817
105.339
96.1899
87.3667
101.314
93.911
78.664
97.3188
96.7407
94.6725
107.686
90.8527
95.8548
78.7836
93.6681
94.8219
91.6362
87.8654
95.3911
88.0976
71.0849
95.1611
93.8565
71.1157
95.9962
81.0788
98.1287
80.2844
80.3171
96.7131
100.571
95.6141
99.8576
69.0343
80.1992
106.582
106.827
80.4214
95.5434
93.7114
95.6464
72.9575
95.5547
94.5468
96.6046
90.6064
93.8525
93.7086
96.6906
95.4998
85.9603
77.3858
93.0005
74.8084
88.3933
80.8311
96.4629
80.6394
95.0763
89.4841
92.7751
93.9906
92.7752
73.2843
96.0703
88.2606
93.4243
88.0049
96.2457
80.8405
76.1806
80.2788
96.0487
92.1757
97.7615
100.407
93.9661
75.3073
95.8336
96.6715
80.409
87.3294
101.629
100.273
96.3512
80.671
95.2336
92.8874
90.4936
85.9555
85.0896
91.6566
91.1693
108.703
96.8022
78.5469
96.8883
100.781
87.7071
104.445
95.0049
97.3537
89.0057
90.4612
80.5619
94.2414
96.5506
80.8074
93.108
96.2214
95.5304
87.1468
81.9312
73.8207
96.1751
88.1452
94.2268
73.3618
93.9993
91.1272
94.7799
83.1624
95.6106
87.6039
83.5738
82.3953
92.8722
92.6447
95.941
84.4519
92.2112
95.131
96.8699
90.5756
74.6827
78.5792
86.1136
95.5093
84.4581
91.5652
95.1694
84.1886
106.316
90.7196
104.961
92.4823
91.7132
95.3215
79.0257
96.0243
70.3778
95.7429
83.6424
73.0386
96.3045
80.2193
93.6955
95.7429
86.2868
93.9357
90.0723
94.4172
96.1746
96.2876
82.9061
85.9643
101.687
96.1182
83.7999
93.2589
95.6587
87.0635
83.2042
88.4161
88.3522
81.8082
95.3606
82.7332
79.378
92.5525
85.6472
93.4479
90.1761
77.2981
89.4173
79.8533
89.7295
70.5573
94.4692
96.7561
93.6502
91.1026
92.9236
89.7181
94.1705
93.6293
96.9231
89.6784
76.3194
110.969
117.955
73.4432
87.6938
84.0905
85.4112
94.8678
95.5746
92.9032
95.4794
85.4122
80.9587
95.7686
91.326
95.5404
78.6985
82.512
95.5929
83.2449
93.8543
75.7899
85.0048
93.7702
86.0965
95.5639
93.2774
74.7185
90.4156
90.9898
96.1919
94.5145
97.5513
75.3609
95.1431
72.3099
84.4341
95.4149
94.9857
94.7571
95.2806
79.4227
92.2169
79.3533
89.3495
80.177
85.6787
96.2472
93.7865
80.1962
73.2125
94.5734
80.3745
94.4794
80.4119
66.5335
93.0674
84.389
96.2083
104.238
78.9652
93.455
78.7833
95.9458
80.8719
97.4494
92.9762
95.5668
80.5037
80.6799
91.948
100.241
78.9474
95.5552
80.5005
95.4523
93.8868
94.5169
69.6362
95.5311
79.6147
102.109
80.5421
89.9918
96.9621
93.8882
95.3155
81.4786
95.2919
95.1682
95.6577
89.2916
97.6212
76.0475
94.764
72.3381
83.4416
108.849
90.1752
90.7691
100.872
80.3941
101.59
92.7438
97.1769
88.3831
91.521
79.4677
96.0822
85.8219
95.5795
76.1931
96.8672
82.4821
83.7381
89.5329
82.5022
95.6987
90.1751
95.766
93.6464
93.6203
91.6064
97.4226
90.4929
91.9109
93.4974
94.0579
93.2999
81.2417
96.6712
86.0892
93.7673
94.4962
98.8271
86.8009
92.3231
87.3038
94.022
73.4743
93.5725
94.834
87.1981
106.509
90.4411
90.6135
97.564
94.2957
93.8858
86.7663
)
;

boundaryField
{
    frontAndBack
    {
        type            empty;
    }
    wallOuter
    {
        type            zeroGradient;
    }
    inlet
    {
        type            zeroGradient;
    }
    outlet
    {
        type            fixedValue;
        value           nonuniform 0();
    }
    wallInner
    {
        type            zeroGradient;
    }
    procBoundary0to1
    {
        type            processor;
        value           nonuniform List<scalar> 
29
(
96.452
96.1962
91.9436
91.9436
89.0761
89.0761
99.3643
92
89.8016
91.7753
91.8587
89.3696
92.0764
96.3207
99.349
99.4103
88.7203
89.0042
91.8277
95.554
99.3489
100.183
89.6204
101.337
101.221
89.0042
101.991
99.4469
101.337
)
;
    }
    procBoundary0to2
    {
        type            processor;
        value           nonuniform List<scalar> 
42
(
95.6132
96.0536
95.9392
95.9253
97.1148
95.6132
95.9392
95.7241
97.0319
96.8698
97.3935
97.2195
97.3935
97.1267
96.8473
95.6869
96.8473
96.7834
96.9545
94.0568
94.0568
96.7834
96.6514
93.682
93.682
96.5517
94.1651
96.4363
95.1563
96.0735
96.0735
96.2537
95.9314
95.4642
95.1133
95.9392
96.5177
96.1753
95.1563
95.7241
95.2941
95.1005
)
;
    }
}


// ************************************************************************* //
