# vtk DataFile Version 2.0
track0
ASCII
DATASET POLYDATA
POINTS 15 double
2.01419e-18 0.210526 1e-06
1.24088e-05 0.210238 1e-06
4.15683e-05 0.209951 1e-06
7.27127e-05 0.209665 1e-06
0.000104245 0.209378 1e-06
0.000137207 0.20908 1e-06
0.00034275 0.207243 1e-06
0.000122894 0.205408 1e-06
0 0.204386 1e-06
4.34675e-19 0.631579 1e-06
3.4774e-19 0.631579 1e-06
2.60805e-19 0.631579 1e-06
1.7387e-19 0.631579 1e-06
8.6935e-20 0.631579 1e-06
0 0.631579 1e-06
LINES 2 17
9 0 1 2 3 4 5 6 7 8
6 9 10 11 12 13 14
POINT_DATA 15
 FIELD attributes 1
U 3 15 float
3.71807e-14 	-8.63117e-13 	2.13681e-35 0.265514 	-2.61192 	2.43508e-23 0.896204 	-8.24827 	6.16883e-23 1.56982 	-14.2683 	1.01567e-22 2.25183 	-20.3632 	1.41943e-22 2.96764 	-26.5212 	1.75687e-22 -7.27181 	-60.7013 	-3.0694e-23 -2.63557 	-21.9099 	-1.09523e-23 0 	0 	0
-5.02609e-13 	7.80082e-14 	0 -4.02088e-13 	6.24065e-14 	0 -3.01566e-13 	4.68049e-14 	0 -2.01044e-13 	3.12033e-14 	0 -1.00522e-13 	1.56016e-14 	0 0 	0 	0
