/*--------------------------------*- C++ -*----------------------------------*\
| =========                 |                                                 |
| \\      /  F ield         | OpenFOAM: The Open Source CFD Toolbox           |
|  \\    /   O peration     | Version:  v1912                                 |
|   \\  /    A nd           | Website:  www.openfoam.com                      |
|    \\/     M anipulation  |                                                 |
\*---------------------------------------------------------------------------*/
FoamFile
{
    version     2.0;
    format      ascii;
    class       volScalarField;
    location    "0.81";
    object      k;
}
// * * * * * * * * * * * * * * * * * * * * * * * * * * * * * * * * * * * * * //

dimensions      [0 2 -2 0 0 0 0];


internalField   nonuniform List<scalar> 
1466
(
0.248624
0.914412
0.343072
2.10772
0.283456
0.766502
0.236663
0.959143
0.27798
1.11738
1.42831
1.07041
0.216934
0.248928
1.29397
2.41134
0.704527
1.06039
2.46942
1.61032
2.61515
2.48639
1.89444
1.40646
0.247894
0.627878
1.6083
2.00226
0.19816
1.42283
1.68138
0.69055
0.372156
3.32982
2.00472
1.08521
3.42911
0.771789
1.40141
0.130608
0.145515
1.17572
1.29321
0.145946
0.119107
0.493133
1.29196
0.164589
0.923661
0.181803
0.453634
0.930058
0.736587
0.210476
0.32921
0.276242
0.322122
1.23299
0.236849
1.13172
1.08365
0.255658
0.179577
1.07835
2.25754
0.935196
3.8379
1.53965
0.863171
0.306881
2.15694
1.36162
0.958992
0.263791
0.774627
1.47327
0.248669
0.169442
0.542416
1.70667
1.38713
2.11746
0.341466
1.70821
2.41631
2.97217
2.8555
1.60726
1.36207
1.1627
0.811116
1.5675
2.50494
0.164274
0.646126
0.337996
0.845903
1.2003
0.280771
0.210056
0.616366
0.335831
0.148502
1.21926
1.49915
1.17886
0.78308
0.18471
1.30528
0.270339
0.958446
1.78094
0.293234
1.16446
0.998338
1.21709
1.32498
0.892811
0.205092
0.159088
2.7037
0.24768
0.185312
0.164577
0.132005
1.0964
1.10895
1.89023
1.39909
1.27337
1.21912
1.10672
1.76464
1.33112
0.900408
0.1471
0.132839
0.50787
0.16138
0.140856
0.216377
2.2286
1.98758
1.93324
2.62951
3.68037
0.694784
1.02268
1.58607
1.82098
0.902059
1.12804
0.995713
0.424748
1.46102
2.44409
1.804
2.44978
0.764853
1.06305
0.673782
1.45048
1.46652
2.13717
2.98277
1.8145
1.76061
2.18462
2.38781
1.19876
2.57992
0.518597
0.170037
0.907042
0.587344
0.268594
1.24318
1.66456
0.873592
2.21672
0.285002
1.11101
2.82495
0.144713
1.6073
3.07606
2.50538
1.20807
0.883881
0.766594
2.78426
1.15364
2.37879
4.00911
0.96786
1.08774
0.254936
2.41772
2.91082
4.06667
1.69583
1.42825
1.26259
1.50512
1.88554
2.85757
3.05323
0.825982
0.761139
1.54591
2.21503
2.19658
2.57078
2.37638
2.79098
2.11286
3.14007
2.58007
1.44113
1.61721
2.07333
1.25201
2.20073
1.24512
2.29145
2.26281
2.16192
0.209577
0.883087
1.22153
1.60247
1.66768
4.31965
4.08368
0.699901
2.5162
1.89984
2.08086
1.03642
2.72799
1.14071
1.65805
1.12766
4.16752
0.869517
1.33214
0.67073
0.261725
1.76369
1.00864
3.01794
2.45502
0.75691
1.4252
0.525055
0.996973
1.67854
0.372763
1.3263
1.64864
1.12898
1.67941
1.29736
1.20307
1.61648
0.143266
0.642263
1.52756
2.45214
0.394495
1.73028
1.49047
0.824348
0.765222
0.853532
1.38971
1.06298
1.68822
2.50948
1.63608
1.13435
2.15403
2.12915
1.48133
2.69587
0.189667
1.70039
1.65735
0.290946
0.611641
0.656123
0.201903
0.253085
0.342339
1.32165
0.660622
1.9983
0.248541
1.67625
1.11173
0.242285
1.5977
0.171713
0.278991
2.41469
1.26877
0.478657
0.369904
1.10358
3.52698
0.867555
2.59153
1.64358
1.32598
1.53165
1.29317
3.48319
0.99834
0.278335
1.37523
0.622205
1.6973
1.39925
1.02642
2.56014
0.530594
0.213946
1.01357
0.917806
1.33832
1.79543
0.565136
0.450792
1.09951
2.42536
0.390997
2.58932
1.0188
0.70961
0.221865
0.275481
0.895518
0.611742
1.66894
1.27839
0.175533
1.41822
1.15438
0.94568
2.31783
0.778262
0.362824
1.59852
3.18568
3.1586
3.07285
1.72403
0.380354
0.301753
1.14805
3.16952
2.7247
2.01827
2.08049
0.329239
4.48305
0.797056
0.766067
0.964313
1.21115
1.05717
3.26708
1.31172
0.987831
0.508285
3.57479
1.5357
1.32998
0.189592
1.54467
2.32322
2.12675
2.58169
2.79041
2.48566
2.32738
0.549598
0.505157
0.319467
0.231941
1.12499
2.16079
1.84395
2.08651
1.04009
0.400422
0.220141
1.33766
0.928733
0.209282
0.17559
0.163828
1.46991
0.214522
1.25369
3.66158
1.60457
1.0068
3.71132
3.5161
1.18631
1.82265
2.08851
3.68771
1.66095
0.237471
0.221684
1.31904
1.46499
0.453631
3.01096
3.17175
0.490362
2.05764
0.385686
0.207182
2.26817
1.28953
0.327812
0.218018
2.03158
0.615083
1.34136
2.05787
1.32421
0.174983
0.301606
0.23877
0.25831
1.96191
0.291102
0.459636
2.00521
0.435111
1.32067
0.310935
0.605474
1.40334
0.25975
1.93162
1.43668
0.215733
0.318266
0.326209
1.57454
0.425791
0.374529
0.755724
0.371402
1.39457
0.327458
1.04
0.402558
1.09113
1.7963
0.202762
2.02579
0.90045
0.655277
1.86009
0.756673
0.651795
1.9676
0.189463
1.41891
0.192299
0.411636
2.3597
4.08363
2.15381
1.14006
2.00208
2.20377
3.82425
3.14505
0.706784
0.195057
0.564052
3.64353
2.16897
3.48467
1.92993
0.597037
2.18581
1.40555
2.63411
3.44597
2.61267
1.32029
2.37537
2.97201
3.36304
1.24519
2.73822
0.442935
2.81875
1.58247
1.53732
0.196118
3.12358
1.30206
2.78148
1.74579
1.78887
3.49206
2.26443
1.26039
0.306603
0.532613
0.807426
3.0791
0.733458
4.1827
0.831346
2.49455
1.43816
0.94636
1.87313
1.61469
3.59869
0.4796
1.96227
3.57219
2.5073
2.89559
1.09156
0.981709
1.72294
1.43336
2.15129
0.665848
2.93766
0.5967
1.62536
1.79214
0.938463
1.96437
0.697618
3.61632
1.50983
2.91149
0.274256
0.933577
2.75099
1.86879
3.31917
3.19148
2.02614
1.14351
0.54005
3.46384
3.54748
1.24247
1.0963
0.440439
1.36539
2.35102
4.14619
1.78433
3.61438
2.66772
4.12293
1.16893
1.52918
0.865697
2.85451
0.364252
3.52509
3.0266
1.84119
1.74706
3.59207
3.36497
2.54753
2.36787
1.47889
2.74704
0.313111
2.74477
1.52573
2.80593
0.792897
2.48547
3.25928
3.16743
2.08425
1.92695
1.39395
1.07418
2.11305
1.28257
0.448498
0.443651
0.936505
4.72376
2.72424
1.35941
0.18645
1.65472
3.18109
0.858836
2.32283
0.688494
0.984174
2.12125
0.967702
1.5109
0.824416
0.704219
2.78475
0.891896
0.22149
1.26051
0.564384
0.88285
3.15728
2.19187
2.73775
3.13613
3.60682
2.6416
0.684424
0.729951
0.476625
3.46924
0.404144
2.64686
2.37626
1.60417
2.07964
3.77408
1.74564
1.45838
1.30066
3.56105
0.449606
2.71776
3.60439
1.43233
0.855385
3.43141
0.344921
1.22168
0.297195
4.08177
3.46828
0.385971
1.8257
0.942091
0.248617
4.24798
1.80172
0.256611
0.458246
3.63726
1.15426
1.89692
1.40906
1.60563
0.220759
0.415002
0.986313
2.08206
0.297726
1.88458
0.249545
1.67017
0.397328
0.411273
0.584016
2.02221
0.478668
0.570387
4.05161
0.358783
3.33004
0.453742
0.207402
1.45774
0.252409
3.9108
0.565825
0.508758
1.32478
0.386192
0.20162
1.25806
2.77183
0.470074
2.3774
3.58902
0.428423
0.22444
0.922497
2.97618
2.62191
1.23872
0.3726
0.205935
2.70286
1.05393
3.27897
0.181038
1.6144
3.83515
2.15709
1.01966
2.90837
3.11741
1.61837
1.29747
3.07861
4.05698
1.38691
1.98514
3.5459
2.03953
1.25211
1.12681
0.190255
2.57399
1.84215
2.71873
0.23753
3.54014
2.52417
1.22353
2.58409
0.1901
3.42662
3.51964
1.82566
3.44942
0.185077
0.225365
0.363061
0.523123
0.327739
1.34176
1.22203
2.02101
1.92101
0.629402
0.248322
2.16191
2.88463
3.18164
2.12361
0.44075
2.16411
2.31041
0.400831
1.48052
1.4866
4.26681
1.2646
1.93731
2.24715
2.24573
2.95063
1.2741
0.719393
0.143845
0.283198
2.41157
2.69371
1.3163
0.32568
1.66345
1.82549
1.61056
0.654454
2.12399
0.854362
3.54602
0.237328
1.69055
3.59727
2.89852
1.19004
1.87041
3.6407
2.55001
0.495176
1.25247
0.49642
3.28907
1.46141
0.406893
1.07537
0.422096
2.33196
3.38537
0.47029
0.872226
0.186685
0.230551
0.418089
2.48567
2.16822
1.26376
1.84584
1.87459
1.32489
1.64632
0.468765
2.30247
2.02985
0.860885
2.78413
1.87979
3.07734
0.760578
1.69837
0.185738
0.42703
2.28281
0.410377
0.531748
1.81487
1.7454
2.30531
0.97597
3.88615
0.443654
1.02107
0.75539
0.288274
0.649006
0.826951
1.17919
3.52514
3.44623
0.318875
3.09426
1.32588
0.538338
3.19594
1.08356
1.82628
2.92281
1.36228
2.11157
2.38603
1.3415
1.2161
1.53902
0.826733
1.6582
2.13704
3.87694
3.50351
0.318671
1.06297
0.645131
0.730325
2.13199
2.43979
1.28405
2.8666
1.69314
0.46481
2.29585
0.77489
4.27581
1.00091
3.49771
1.07476
1.10762
1.03521
1.12575
1.10699
1.17751
1.08193
1.54819
1.55252
1.65631
1.57283
1.51711
1.48231
1.50186
1.45336
1.75513
1.16571
1.31292
1.82256
1.8094
1.51603
1.667
1.44635
1.43145
1.41497
0.997317
1.79207
0.223044
0.212971
2.52562
0.617579
0.536874
0.397784
0.259414
1.23785
3.55699
1.80158
3.57711
0.934664
0.505777
0.401754
1.78943
0.697013
2.46025
1.31814
2.15876
1.32813
1.15175
4.08797
2.58567
1.37473
0.224591
0.19907
0.290523
0.225153
0.269435
1.00108
1.61098
2.3709
2.96777
0.255641
0.220124
0.39749
0.491373
0.779826
0.643373
3.21605
0.272926
0.184026
1.28925
1.1067
0.967084
0.486317
2.07074
1.42308
1.72991
2.77972
1.87208
2.61507
0.588222
1.94312
2.96704
1.36917
4.04058
0.794305
1.29636
0.553301
1.82219
2.98721
0.169004
1.53504
1.40476
2.58752
0.207191
2.60133
2.6202
2.55827
1.21261
0.802964
1.4845
2.16845
0.7584
0.80492
0.213355
1.99489
2.80524
3.60084
0.525621
1.33353
3.57911
1.0606
3.38063
1.58971
0.540132
0.210893
1.58595
1.41732
3.11014
4.8104
1.65937
2.62993
0.216985
0.5773
1.99677
1.7594
3.21894
0.407363
0.864389
0.30382
0.197289
0.195833
1.52143
0.254264
0.843058
2.59273
0.374663
0.192367
1.8901
0.331732
2.66727
1.17599
1.11295
3.44081
1.02522
1.5231
3.14906
1.97887
2.79818
1.15868
0.90991
2.03941
1.48114
0.144977
0.331169
2.94548
1.55828
0.563036
0.819519
2.3269
1.36122
0.739948
2.34753
0.258637
1.57376
0.61286
0.217752
0.185063
0.569542
0.469604
0.792039
0.293872
1.04614
3.82228
0.221993
0.270448
0.627535
2.14193
0.643663
0.208108
1.26072
3.17826
0.92991
0.63418
0.566891
0.280091
0.489171
0.591212
0.444109
2.96874
1.00062
0.239714
0.224704
0.0806221
2.07117
1.53725
0.261156
0.498875
0.28091
0.360192
0.271151
0.278182
0.287314
0.200051
0.395533
0.25814
1.29849
0.250803
0.266513
0.258656
0.25534
0.679606
0.71896
0.255531
0.273395
0.291872
0.292185
0.820698
3.53571
2.25064
1.26417
1.17792
2.43722
3.6662
1.32414
1.21748
0.943632
1.6427
0.345948
0.191169
0.309819
2.82914
1.56342
3.86876
1.95829
0.213834
3.29153
1.09624
1.48284
0.620193
1.98936
1.72332
3.00816
0.570187
2.3204
1.54383
2.01407
0.923045
1.27589
0.260045
0.586829
0.942561
1.49689
1.47766
1.37646
1.58416
1.72325
0.254559
1.76785
0.876539
1.32634
2.2832
2.77195
3.66254
3.58537
0.407566
0.215465
1.33578
1.57926
1.48565
1.02721
1.06826
0.412646
1.17428
3.56505
0.754876
0.823542
3.11002
0.515963
0.301592
0.77004
1.55173
1.26817
3.44399
0.546005
1.89634
1.23225
0.930095
2.29541
4.26047
1.00966
3.27341
2.75402
0.177644
0.340138
1.15834
2.25011
0.242048
0.224984
2.9783
1.54379
2.85615
3.16039
3.72886
4.33031
0.821788
1.23171
1.96189
1.77338
1.7152
3.31168
0.42144
0.981416
1.51966
2.03777
0.436404
3.37325
1.61952
0.407053
1.39624
1.25881
0.536646
0.756493
0.723391
1.48023
0.538466
0.900004
1.08936
1.02044
1.27794
5.04424
0.267198
0.568683
0.999947
0.335582
0.513543
1.40135
0.223786
0.214764
0.252609
1.5425
0.814369
2.00611
3.48823
3.32156
0.343091
1.48991
0.258307
2.84782
1.22739
0.227021
1.90937
1.31344
3.02858
2.88971
1.71546
1.68777
1.31437
0.272967
0.507208
3.05253
0.575639
0.245007
1.56397
0.28297
3.32856
0.675695
1.7507
0.549402
3.03647
1.78245
0.176251
3.49945
0.836828
0.261328
3.16431
2.40009
1.1962
1.58471
0.934621
3.59915
1.13677
2.46714
0.560506
1.14917
1.33675
2.50893
1.76092
3.88134
4.30468
1.30405
1.89888
1.83324
2.73372
0.249246
1.03268
1.45167
0.240852
3.68039
0.451623
1.60166
3.3566
0.495987
2.92701
1.49237
0.254232
1.1557
1.25532
0.37412
0.853015
0.553594
1.59963
0.700205
4.9351
3.61098
2.05157
1.35305
0.502399
0.251391
1.03702
1.08832
2.10281
0.845516
1.85114
2.04884
3.37729
2.00451
1.3232
3.31178
0.256674
1.60553
2.96453
2.42314
0.622792
0.25933
0.711256
0.236176
0.173518
0.410423
1.23793
3.03711
0.311315
0.225264
1.43596
0.492533
1.61466
3.43461
2.67378
0.183012
1.78162
0.453017
0.258964
0.246096
0.309713
0.54641
4.6483
0.214554
3.30221
1.65181
0.759394
0.328284
0.186484
3.01537
0.264068
0.669661
1.41163
0.689776
2.91816
1.13602
2.16283
1.48127
1.22804
0.798082
0.901961
0.845746
0.952266
1.06169
2.68252
0.173416
1.53807
1.62755
1.12901
1.51627
1.3825
3.43399
0.830193
1.31782
0.55505
1.33724
3.23073
1.09709
0.356324
0.140399
0.24677
0.645174
2.34572
1.59493
1.61939
1.65309
1.32898
0.778018
3.41203
1.96492
1.84459
1.53928
0.464112
2.13551
3.53266
0.354178
1.00327
2.27752
0.705119
3.06226
0.999058
1.55753
2.79928
1.65683
2.46032
2.34179
1.81128
2.38344
0.426901
0.240033
0.577511
0.247873
1.25061
0.602623
1.98172
1.22698
1.73233
1.37238
2.89131
1.85541
2.88239
0.599736
3.39122
3.44981
0.359057
0.302501
3.15298
1.14253
0.495915
0.528201
1.56392
1.13159
2.78064
1.30569
0.884834
0.593941
0.293246
1.66704
1.84847
1.44635
0.854302
1.89912
1.32523
0.703001
1.63348
0.279016
0.163929
1.24889
1.32816
0.216333
0.141119
0.758126
0.309848
1.07939
1.70616
0.620951
0.339018
0.950672
2.08561
1.0618
0.995551
0.626476
1.1963
0.292024
0.269683
0.274358
0.141856
0.380905
0.123313
1.50092
0.180697
0.154068
1.57333
0.301164
0.996659
0.626525
0.781272
)
;

boundaryField
{
    frontAndBack
    {
        type            empty;
    }
    wallOuter
    {
        type            kqRWallFunction;
        value           nonuniform List<scalar> 
108
(
1.06039
1.36162
0.958992
0.171713
0.175533
0.358783
0.453742
0.207402
0.252409
0.386192
0.20162
0.470074
0.428423
0.22444
0.205935
0.190255
1.22353
0.523123
0.327739
0.32568
0.230551
1.26376
0.288274
0.538338
1.07476
1.10762
1.03521
1.12575
1.10699
1.17751
1.08193
1.54819
1.55252
1.65631
1.57283
1.51711
1.48231
1.50186
1.45336
1.75513
1.16571
1.31292
1.82256
1.8094
1.51603
1.667
1.44635
1.43145
1.41497
0.997317
0.212971
0.505777
1.37473
0.225153
1.1067
1.29636
0.553301
1.33353
0.864389
0.192367
1.02522
1.15868
0.90991
0.61286
0.569542
0.293872
0.643663
0.489171
0.591212
1.00062
0.0806221
0.0806221
0.261156
0.28091
0.278182
0.287314
1.29849
0.250803
0.266513
0.258656
0.25534
0.679606
0.71896
0.255531
0.273395
0.291872
0.292185
0.820698
1.21748
0.943632
0.213834
0.620193
0.923045
1.27589
0.754876
0.823542
1.23225
0.930095
0.814369
0.240852
1.03702
0.845516
0.225264
0.453017
0.214554
0.140399
0.24677
1.32898
)
;
    }
    inlet
    {
        type            fixedValue;
        value           nonuniform 0();
    }
    outlet
    {
        type            zeroGradient;
    }
    wallInner
    {
        type            kqRWallFunction;
        value           nonuniform List<scalar> 
126
(
0.771789
1.40141
0.130608
0.145515
1.17572
1.29321
0.145946
0.119107
0.493133
1.29196
0.164589
0.923661
0.181803
0.453634
0.930058
0.736587
0.210476
0.32921
0.276242
0.322122
1.23299
0.236849
1.13172
0.542416
0.337996
0.845903
1.2003
0.280771
0.210056
0.616366
0.335831
0.148502
1.21926
1.49915
1.17886
0.78308
0.18471
1.30528
0.270339
1.16446
0.998338
0.164577
0.132005
1.21912
1.10672
0.1471
0.132839
0.50787
0.216377
1.46652
0.587344
0.254936
1.3263
1.64864
1.12898
0.143266
0.642263
1.73028
1.49047
0.824348
0.201903
0.342339
0.660622
1.9983
0.622205
1.6973
1.39925
0.380354
0.964313
1.31172
1.32998
1.33766
0.209282
1.28953
1.34136
2.05787
0.174983
0.23877
0.459636
0.318266
0.425791
0.371402
1.78887
1.96227
1.86879
2.19187
1.8257
1.98514
0.730325
2.43979
1.5231
1.13602
0.845746
1.89912
0.703001
1.63348
0.279016
0.163929
1.24889
0.216333
0.141119
0.758126
0.309848
1.07939
1.70616
0.620951
0.339018
0.950672
2.08561
1.0618
0.995551
0.626476
1.1963
0.292024
0.269683
0.274358
0.141856
0.380905
0.123313
1.50092
0.180697
0.154068
1.57333
0.301164
0.996659
0.626525
)
;
    }
    procBoundary1to0
    {
        type            processor;
        value           nonuniform List<scalar> 
29
(
0.177139
0.177139
0.15076
0.251374
1.73895
1.05773
1.98428
0.571971
1.40863
0.433013
0.591343
1.05773
0.15076
0.131699
1.21015
0.506376
1.73895
1.80022
0.251374
0.177744
0.310412
0.22264
1.45092
0.292419
0.292419
1.45092
0.242885
0.890998
0.242885
)
;
    }
    procBoundary1to2
    {
        type            processor;
        value           uniform 0.230137;
    }
    procBoundary1to3
    {
        type            processor;
        value           nonuniform List<scalar> 
48
(
3.45842
2.34636
2.77199
2.77199
1.5163
2.07383
2.07383
1.22242
3.45453
0.264975
0.20858
0.264975
0.263395
0.185586
0.20635
0.263395
0.27112
0.27112
0.275824
0.275824
0.140935
0.187566
0.283194
0.628347
0.628347
0.210746
0.399747
0.399747
0.741389
1.17056
0.442792
0.741389
1.22242
3.01561
0.191432
1.17056
2.00311
0.20858
3.62
1.24143
0.14559
2.5711
3.01561
0.191432
0.217361
0.875759
1.40937
0.14559
)
;
    }
}


// ************************************************************************* //
