/*--------------------------------*- C++ -*----------------------------------*\
| =========                 |                                                 |
| \\      /  F ield         | OpenFOAM: The Open Source CFD Toolbox           |
|  \\    /   O peration     | Version:  v1912                                 |
|   \\  /    A nd           | Website:  www.openfoam.com                      |
|    \\/     M anipulation  |                                                 |
\*---------------------------------------------------------------------------*/
FoamFile
{
    version     2.0;
    format      ascii;
    class       volScalarField;
    location    "0.31";
    object      k;
}
// * * * * * * * * * * * * * * * * * * * * * * * * * * * * * * * * * * * * * //

dimensions      [0 2 -2 0 0 0 0];


internalField   nonuniform List<scalar> 
1431
(
0.417872
0.384303
1.89248
1.1769
0.36275
0.653183
1.21614
0.196524
0.631976
1.39052
0.341964
0.426393
0.449463
0.907908
1.28812
0.299182
1.68135
0.232486
0.55344
0.368292
0.171046
0.916655
0.897936
0.98533
0.92827
0.391962
1.00682
0.837076
0.494395
0.36303
0.786007
0.316227
0.917902
0.347704
0.715058
1.27336
0.455856
0.313454
0.609569
0.306235
1.80342
0.125101
0.721977
1.57966
1.3628
0.208121
1.24551
0.209275
0.384628
0.397304
0.282394
1.41498
0.735066
0.603585
1.66328
0.202669
2.17391
1.02517
0.790761
0.136693
1.63929
0.253819
1.47601
0.292635
0.590391
0.326233
1.73159
0.546354
0.896389
0.323073
0.273896
0.892116
0.308116
0.579065
0.442626
0.695053
0.25945
1.62774
0.224319
1.46657
0.269746
0.293877
0.260132
1.64264
1.68997
0.400658
0.32406
0.48486
1.07199
0.417239
0.231748
0.56895
0.289376
0.312851
0.345843
0.261001
0.594902
0.263603
0.17564
0.547695
0.839583
0.223086
0.336084
0.431727
0.583467
0.618271
0.240396
2.11452
1.05269
0.274582
1.76027
0.340983
0.21524
0.362406
0.517236
0.418791
0.232706
0.760441
1.17275
1.09397
0.293568
0.907753
2.30414
0.824982
0.293732
0.685881
1.29549
0.417299
0.311605
0.488136
0.275856
1.86232
0.737521
0.332808
0.335074
0.705006
0.311532
0.404086
0.232686
1.9408
0.499988
0.0731553
0.290136
0.397337
0.448004
0.374203
0.266646
2.15411
0.314152
0.331412
0.507633
0.633785
0.420433
0.224318
0.166697
0.521716
0.283437
0.313221
0.207177
0.246591
0.238444
0.366806
0.317721
0.471258
0.407839
2.39395
0.311587
0.305042
0.294295
0.419619
0.586689
0.491562
0.764551
0.3862
0.28301
0.137599
0.246212
0.497085
0.373433
0.213263
0.316683
1.47981
0.207364
0.437797
0.348852
0.360517
0.231517
0.832146
0.415701
0.299594
0.544051
2.42499
0.212586
0.254477
0.793448
0.277542
0.234572
0.265148
0.230074
0.196511
0.221212
0.736117
0.297471
1.9105
0.246552
1.30199
0.397365
0.305203
0.327945
0.473723
0.264556
0.215998
1.05903
0.29972
2.25403
0.85245
0.200267
0.535354
0.582353
0.304414
0.2919
1.37587
0.431389
2.24509
0.318638
0.529946
0.48234
0.395881
0.403315
0.814164
0.456607
0.691765
0.302666
0.20086
0.196663
0.204905
0.286683
0.357418
0.274668
0.456414
0.311842
0.268921
0.759462
2.18204
0.589956
0.493789
0.309377
0.809035
0.450415
0.508912
0.259401
0.644403
1.0424
0.569679
1.49329
0.66194
0.1508
0.442902
0.61988
0.64334
0.67538
0.480493
0.26628
0.628708
0.198752
0.395146
0.572877
0.252749
0.469146
0.777423
0.241757
0.442259
0.260303
0.260751
0.691855
0.272499
0.282393
0.72369
0.538314
2.05182
0.793387
0.470196
0.34402
0.282808
0.600506
0.850683
0.447459
0.190449
0.456495
0.292687
0.392146
0.333196
0.191969
0.482648
0.278613
0.21559
0.199072
0.258824
0.439788
0.229918
0.323203
0.490045
0.288892
0.218608
0.275152
0.433626
0.281804
0.651324
0.630176
0.0922883
0.304769
0.337783
1.44088
0.0804305
0.335678
0.42044
1.26892
0.55618
0.197723
0.568868
0.454759
0.52944
0.490437
0.514362
0.730704
0.596527
0.257597
0.693067
1.10272
0.294028
0.708183
0.502898
0.478793
0.52364
0.278185
0.751949
0.268561
0.390062
0.298588
0.562861
0.19872
0.263717
0.59076
0.43528
1.1863
0.205062
0.32334
0.439833
0.0427078
0.026506
0.375765
0.200844
0.320213
0.149025
0.332266
0.311943
0.229708
0.246834
0.135892
0.3987
0.13158
0.381794
0.157558
0.035304
0.0439341
0.41014
0.163176
0.42663
0.848007
1.10165
0.386912
0.45824
0.650369
0.315371
0.485802
1.20347
0.605941
0.328066
0.362158
0.146644
0.226624
0.379671
0.0351053
0.270202
0.43421
0.164551
0.456304
0.287247
0.141232
0.0397512
0.457425
1.58847
0.419158
0.362257
0.695587
0.288922
0.243861
0.315621
0.808097
0.279871
0.37212
0.483759
0.308053
0.341859
0.550645
0.334733
0.572852
0.246962
0.076397
0.911217
0.618198
0.32946
0.550956
1.35938
0.420156
0.778943
0.42169
0.80877
0.680282
0.142586
0.53668
0.588065
1.03393
0.356214
0.615531
0.453401
0.338588
0.371642
1.95707
0.418452
1.85025
0.363709
0.196518
0.524533
0.477875
0.442843
0.601041
0.416144
0.3675
0.54201
1.70125
0.455026
0.476271
0.417299
0.176457
0.646093
0.79105
0.329771
0.468477
0.542073
0.635973
0.980425
0.826548
0.875068
0.708791
0.815566
0.837101
0.972465
0.829303
0.475404
1.5869
0.683124
0.591261
0.858473
0.459935
0.453575
0.080385
1.71324
0.720875
0.546828
1.54539
0.291544
0.212452
0.824513
0.759956
0.484007
1.60425
1.71831
2.51808
0.465226
0.704305
0.307502
0.85444
0.207114
0.285616
1.58531
0.885869
1.01883
0.945248
0.323618
0.209584
0.600205
0.654355
2.01483
0.525219
0.32088
1.25084
0.409078
0.325252
0.377616
0.856456
1.64751
0.327669
0.408447
0.368475
0.377488
0.483627
1.09469
1.00728
0.347836
0.288528
0.347115
0.229565
0.699341
0.315941
1.10386
2.32078
1.42479
0.845681
0.593942
0.453439
0.370802
0.43662
0.0626722
0.40057
0.726697
0.323464
0.978604
0.380284
0.377112
0.287955
0.225397
0.367635
0.388237
0.956773
0.852008
0.30916
0.355973
0.70436
1.25745
0.352474
1.97534
0.419029
1.25549
0.1893
1.10086
0.351757
0.217397
1.00085
0.62842
0.378424
0.155638
0.613318
0.851664
0.505966
0.462374
0.398239
0.604053
0.609359
0.193179
0.772567
0.335642
0.591862
2.19218
1.17026
0.130028
0.575192
0.200087
1.42876
0.317291
0.394342
0.7727
1.46239
0.923885
1.97738
0.270417
0.527152
0.459748
0.323771
0.493923
0.32932
0.223433
0.404939
0.488333
0.5084
0.349445
0.342275
0.323416
0.286604
0.393247
1.6817
0.92972
0.35966
0.303295
0.282935
0.333161
0.0855421
0.463643
0.20294
0.15381
0.376077
0.295253
0.480673
0.331201
0.310527
0.897181
0.348794
0.575541
0.874999
1.59765
1.19422
0.584118
0.206776
0.387467
1.42363
0.204148
1.49077
0.416995
0.314953
0.938536
0.450209
0.542604
0.237617
0.437231
0.499545
0.309534
0.457334
0.0738732
0.650017
0.230011
0.693131
0.259451
0.148037
0.238516
0.487596
0.881445
0.460525
0.195814
0.587976
0.274438
0.318418
0.831
0.247305
0.647624
0.531882
0.319127
0.306123
0.701038
1.1049
0.298846
0.619093
0.439063
0.2685
0.652318
0.772617
0.772718
0.256884
0.332199
0.533703
0.725354
0.486242
0.0477099
0.264572
0.247092
0.282818
0.158417
0.359137
1.25461
0.835026
1.25725
0.0595413
0.264369
0.250214
0.647196
0.293635
0.290399
0.835319
1.87891
0.442772
0.540616
1.48031
0.172866
0.484001
0.476285
0.521021
0.391752
0.529366
0.351739
0.97216
0.362593
1.02784
0.552919
0.309789
0.401587
0.578436
0.434558
0.0314674
0.453279
0.272612
0.199017
0.302634
0.504653
0.187233
0.420476
0.31239
0.740993
0.627817
0.705104
0.36287
1.94926
0.427015
0.0882264
0.446316
1.26138
0.347438
0.421306
0.361022
0.629839
0.203392
0.275247
0.413571
0.299829
0.218155
1.9221
0.625525
0.427365
0.941118
0.555893
0.474115
0.134828
0.691916
0.161268
0.473202
0.479758
1.86991
0.189228
0.260006
0.644583
0.636657
0.265516
0.416752
0.856364
0.318294
0.199659
0.591759
0.404701
0.211709
0.423225
0.685687
0.329111
0.759888
0.190195
0.491353
0.519807
0.255397
0.275827
0.350122
0.52143
0.421004
1.44741
0.52164
0.79732
0.960839
1.0315
0.306153
0.90236
0.191774
1.0375
0.612764
0.504983
0.618331
2.2004
0.0817984
0.601055
0.13388
0.571706
0.0550721
1.43093
0.604981
0.416005
0.318443
0.169035
0.535878
0.610847
0.271485
3.08179
0.0867254
0.598344
0.278972
1.63924
0.258125
0.191609
0.876047
0.676342
0.36267
0.309686
0.0698667
0.603818
2.12834
0.2299
0.623386
0.524025
0.21063
0.474629
0.0292286
0.519043
1.1814
0.253674
0.88928
0.280351
0.280836
0.234529
0.777559
0.0500903
1.33023
0.537166
0.526914
0.518129
0.527909
0.502841
0.508592
0.509081
0.553127
0.262764
0.324123
0.38545
0.316817
0.459945
0.527824
0.0494761
0.368571
0.0746286
0.764431
0.0439848
0.545338
0.576883
0.597406
0.616883
0.36064
0.57102
0.193972
0.243535
0.262698
0.505754
1.59043
0.222586
0.44185
0.411892
0.341145
0.237299
0.337254
0.394937
0.423992
0.0268692
1.00491
0.239987
1.2266
0.742371
0.320671
0.34442
0.2252
0.262069
0.604439
0.373678
0.591884
0.328356
0.215734
0.203867
0.0441146
0.706797
0.292229
1.08163
0.21513
0.415177
0.0712929
0.253074
0.655247
1.66773
0.563166
0.248326
0.0794421
0.472985
0.321218
0.0685394
0.293209
0.409644
0.24449
1.65991
1.58327
0.291241
0.4469
1.84647
0.775889
0.269832
0.455585
1.78189
0.0869891
0.60241
0.433832
0.424589
0.36379
0.342843
0.875663
1.02249
0.793947
0.720173
0.488634
0.423449
0.0690412
0.313236
0.234606
0.223067
1.30581
0.365384
0.769775
0.723314
0.729804
0.356481
0.582532
0.518944
0.513937
0.219878
0.273365
0.233206
0.211631
0.711369
0.488868
0.529779
1.4292
0.509848
0.333211
0.188229
0.326179
0.222648
0.262711
0.245806
0.191073
0.275851
0.287524
0.267955
0.029559
0.311993
0.250662
0.293658
0.380109
0.142957
1.75459
0.257656
0.284278
0.308073
1.11979
0.255131
0.402925
0.689373
2.63624
0.67878
0.291789
0.276051
0.69788
0.310228
0.788785
0.75924
0.774858
0.293476
0.276632
0.287442
0.290225
0.8824
0.224266
1.0883
0.721095
0.693609
0.329078
0.601001
0.591661
0.507137
0.239975
0.289729
0.294879
0.302307
0.392936
0.4009
0.63624
1.29737
0.865466
0.67035
0.104364
1.92567
0.262993
0.662183
0.261406
0.252846
0.520675
0.388714
0.328105
0.735847
0.492862
0.657585
1.96653
0.285016
0.307318
1.11377
0.455423
0.712583
1.80727
0.198212
0.661145
2.11592
0.350472
0.245494
0.549555
0.905246
0.228269
0.261897
0.760994
1.70053
1.28795
0.406893
0.320077
0.577618
0.51927
0.880024
0.52749
1.21002
0.7166
0.762284
0.474944
0.439903
0.197525
1.94268
0.833771
0.875356
0.368799
1.98941
0.335894
0.450106
1.70042
0.316544
0.468894
0.444321
0.775112
0.395316
0.051009
0.823306
0.482307
0.594468
1.61228
0.598851
0.188602
0.865972
0.764348
0.461227
0.61999
1.26701
0.619703
1.37877
0.229148
0.394311
0.267312
0.198197
0.492101
1.81864
0.349585
0.602754
0.207846
0.224078
0.411668
0.309654
0.327503
0.517975
0.286371
0.202062
0.48886
1.11137
0.244316
0.515641
0.105225
0.783121
0.353193
0.355136
0.254245
0.420406
0.467653
0.0632573
0.232237
0.258881
0.565626
0.763159
0.446848
0.682329
0.538281
0.385006
0.404781
0.200636
0.507858
0.268262
0.534657
0.33449
0.349762
1.5523
1.51737
0.233925
0.513125
0.931463
0.161414
0.374714
0.574472
0.0574286
0.596869
0.634788
0.6591
1.1902
0.489144
0.657808
0.419737
0.872465
0.398844
0.703885
0.533341
0.253608
0.628622
0.333834
0.366954
0.212801
1.09498
0.266793
0.575015
0.65578
0.62011
1.64586
0.356152
0.144609
0.442066
0.416792
0.182558
0.368789
0.304864
0.592663
0.537324
0.0797114
0.785141
0.305505
0.515523
1.84361
0.263955
0.207049
0.750234
0.12543
1.18981
0.259576
1.59906
0.0618687
0.813953
0.724329
0.671759
0.364234
1.02933
0.772527
0.495636
0.287837
1.31413
0.202053
0.0578972
0.748771
1.03802
0.910158
0.947241
0.0734877
0.8022
0.258698
0.336474
0.696449
0.964737
0.996609
0.604378
0.36633
0.203333
0.0548803
0.236708
0.957692
0.834655
1.57373
0.189286
0.239557
0.806244
0.635377
2.07465
0.353609
0.432197
0.0838267
0.450416
1.51117
0.544072
0.222082
1.79049
0.823997
0.819473
0.764658
0.347057
0.300232
0.674207
1.95253
1.19812
0.460064
1.10606
0.674063
0.346435
0.46472
0.620641
0.351665
0.359994
1.0875
0.549672
0.386424
0.450605
0.107905
1.79251
0.337917
0.572453
1.21252
0.496788
0.733445
0.430438
0.095667
1.84667
0.191984
0.331744
0.249953
0.412822
0.344141
0.610465
1.63567
0.321414
1.01998
0.206042
0.87509
0.853265
0.359157
0.662176
0.194596
0.269623
1.99166
1.01342
0.757534
1.95378
0.765917
0.112496
0.434061
1.14424
0.268014
0.383711
0.498848
0.201911
0.292356
2.37215
0.645582
1.40961
0.462295
0.682538
0.263478
0.437641
0.447502
2.03627
0.782572
0.396156
0.340933
0.663089
1.39784
0.595183
1.58241
0.434939
0.683367
0.0495919
0.265309
0.32022
0.226233
0.392711
0.446999
0.567965
0.6719
0.156049
0.288322
0.227928
0.396661
0.389854
1.87864
0.866002
0.582355
0.988883
0.348046
1.88333
0.859674
0.670111
0.492261
0.425386
0.350886
0.267166
1.23213
0.482056
0.0471047
0.878997
0.229243
1.59852
0.400163
1.20136
0.705392
0.837685
0.32876
0.41556
1.38718
0.333956
0.417769
0.138394
0.795592
0.361261
0.143018
0.493224
0.348241
0.176339
0.56478
0.164203
0.247223
0.555274
1.50725
0.493303
1.70086
0.776059
0.356123
0.756039
0.244396
0.418006
0.397806
0.240708
0.699875
0.212767
0.562272
1.33537
0.231644
0.663451
0.437449
0.236587
0.228425
0.462236
1.12787
0.206536
0.703024
0.436594
0.21258
0.288896
0.551352
0.599129
0.521683
0.478566
0.29203
0.424398
0.72336
0.249065
0.534276
0.447991
0.362027
0.36814
0.626089
0.239263
0.546122
1.72107
0.860802
0.434948
0.203977
0.389359
0.39497
0.624475
0.443234
0.354874
0.291702
0.350006
0.209246
0.753832
0.388845
0.241462
1.44012
0.316091
1.26528
0.655743
2.02469
0.234829
0.708217
1.44775
0.336631
0.148898
0.401482
0.483131
0.455646
0.919207
0.462393
0.870707
0.453449
0.776489
0.420068
0.364044
0.341848
0.433505
0.342453
0.276389
0.920646
0.925268
1.03525
0.635752
0.586294
0.648618
0.206405
0.464292
0.606902
0.426302
1.24784
0.312321
0.297866
0.389082
1.63725
0.489055
1.32594
0.847936
0.460253
0.205956
0.855585
0.392654
0.254088
0.932484
1.9123
1.05925
1.19057
0.568894
)
;

boundaryField
{
    frontAndBack
    {
        type            empty;
    }
    wallOuter
    {
        type            kqRWallFunction;
        value           nonuniform List<scalar> 
90
(
0.299182
0.421306
0.413571
0.427365
0.474115
0.473202
0.479758
0.591759
0.404701
0.491353
0.519807
0.612764
0.504983
0.571706
0.535878
0.876047
0.537166
0.526914
0.518129
0.527909
0.502841
0.508592
0.509081
0.553127
0.505754
0.793947
0.720173
0.529779
0.509848
0.222648
0.262711
0.245806
0.191073
0.275851
0.287524
0.293658
0.308073
0.255131
0.402925
0.291789
0.287442
0.290225
0.8824
0.224266
0.289729
0.294879
0.262993
0.662183
0.261406
0.657585
0.760994
0.197525
0.461227
0.602754
0.48886
0.254245
0.258881
0.565626
0.763159
0.385006
0.507858
0.268262
0.233925
0.931463
0.634788
0.657808
0.872465
0.212801
1.09498
0.266793
0.495636
0.202053
0.947241
0.258698
0.996609
0.834655
0.432197
0.544072
0.222082
0.819473
0.430438
1.01998
0.206042
0.462295
0.156049
0.247223
1.12787
0.206536
0.521683
0.39497
)
;
    }
    inlet
    {
        type            fixedValue;
        value           uniform 0.375;
    }
    outlet
    {
        type            zeroGradient;
    }
    wallInner
    {
        type            kqRWallFunction;
        value           nonuniform List<scalar> 
138
(
0.426393
0.55344
0.917902
0.347704
0.715058
0.125101
1.73159
0.546354
0.273896
0.892116
0.695053
0.737521
0.224318
0.166697
0.137599
0.246212
0.230074
0.196511
0.221212
0.736117
2.24509
0.66194
0.1508
0.61988
0.64334
0.67538
0.572877
0.691855
0.600506
0.651324
0.630176
0.19872
0.205062
0.439833
0.0427078
0.026506
0.375765
0.200844
0.320213
0.149025
0.332266
0.311943
0.229708
0.246834
0.135892
0.3987
0.13158
0.381794
0.157558
0.035304
0.0439341
0.41014
0.163176
0.42663
0.146644
0.226624
0.379671
0.0351053
0.270202
0.43421
0.164551
0.456304
0.287247
0.141232
0.0397512
0.457425
0.37212
0.32946
0.778943
0.196518
0.455026
0.176457
0.468477
0.683124
0.824513
0.465226
0.85444
0.323618
0.209584
0.600205
0.525219
1.25084
1.64751
0.347836
0.288528
1.42479
0.1893
0.155638
0.613318
0.609359
0.394342
0.15381
0.148037
0.158417
0.172866
0.0314674
0.453279
0.134828
0.161268
0.318294
0.52164
0.191774
0.13388
0.169035
0.676342
0.0292286
0.368571
0.616883
0.36064
0.0268692
0.313236
0.711369
0.029559
0.311993
0.142957
0.601001
0.67035
0.104364
0.307318
1.11377
0.267312
0.105225
0.783121
0.161414
0.144609
0.182558
0.750234
0.12543
0.0548803
0.236708
0.095667
0.297866
0.855585
0.392654
0.254088
1.9123
1.05925
0.568894
)
;
    }
    procBoundary0to1
    {
        type            processor;
        value           nonuniform List<scalar> 
29
(
0.875845
1.7473
0.612416
0.612416
1.80223
1.80223
1.89197
0.465011
1.57119
0.548954
0.513816
1.22276
0.346008
0.610428
1.12796
0.530372
2.49972
2.08561
0.513424
1.79041
0.297762
0.215039
1.57606
0.290778
0.290623
2.08561
0.25493
0.802201
0.290778
)
;
    }
    procBoundary0to2
    {
        type            processor;
        value           nonuniform List<scalar> 
42
(
0.957125
0.815152
0.371295
0.376151
0.335416
0.957125
0.371295
0.150351
0.235603
0.112025
0.494068
0.49364
0.494068
0.528715
0.492987
0.967889
0.492987
0.0933328
0.156754
1.42293
1.42293
0.0933328
0.0942272
1.34371
1.34371
0.0920378
1.06412
0.0928326
1.00339
0.787576
0.787576
0.0908049
0.0792198
0.0619534
0.049679
0.371295
0.435824
0.255887
1.00339
0.150351
0.0540793
0.0464936
)
;
    }
}


// ************************************************************************* //
