/*--------------------------------*- C++ -*----------------------------------*\
| =========                 |                                                 |
| \\      /  F ield         | OpenFOAM: The Open Source CFD Toolbox           |
|  \\    /   O peration     | Version:  v1912                                 |
|   \\  /    A nd           | Website:  www.openfoam.com                      |
|    \\/     M anipulation  |                                                 |
\*---------------------------------------------------------------------------*/
FoamFile
{
    version     2.0;
    format      ascii;
    class       volScalarField;
    location    "0.71";
    object      nut;
}
// * * * * * * * * * * * * * * * * * * * * * * * * * * * * * * * * * * * * * //

dimensions      [0 2 -1 0 0 0 0];


internalField   nonuniform List<scalar> 
1431
(
0.000516878
0.00524276
0.0022166
0.00140427
0.000694951
0.00124235
0.00196426
0.000785952
0.00605791
0.00520206
0.000775237
0.000414154
0.00076949
0.00132635
0.00398553
0.000663588
0.00379624
0.000959274
0.000495512
0.000711814
0.000425534
0.00778716
0.00215563
0.0014249
0.00140797
0.000669108
0.00130654
0.00123547
0.00101138
0.000918785
0.00147339
0.000725503
0.00195752
0.000621664
0.000633974
0.00185244
0.00075959
0.000857592
0.00265942
0.000856263
0.00235456
0.000665743
0.00101141
0.000911789
0.0036642
0.00047017
0.00206373
0.000809091
0.000889553
0.000868155
0.000830262
0.00338227
0.00403277
0.00201742
0.00143376
0.00077052
0.00209328
0.00228986
0.000980881
0.000340799
0.00267294
0.000756853
0.00210814
0.000782837
0.000903535
0.000899436
0.00229811
0.000882512
0.00651846
0.000749967
0.000583754
0.000578471
0.0011544
0.00138467
0.000815959
0.00118317
0.000611415
0.00287155
0.000784046
0.00198788
0.000805354
0.000816746
0.000908951
0.00226556
0.00183711
0.000858329
0.00108618
0.000567546
0.00153147
0.000751019
0.00113351
0.000748259
0.00111271
0.000861135
0.000885186
0.000666776
0.00074665
0.000728427
0.00112296
0.00111187
0.00809151
0.000804812
0.000964656
0.000739764
0.000908507
0.00207566
0.000785245
0.00298964
0.00210567
0.000654765
0.00220907
0.000960977
0.000754754
0.000783801
0.000904391
0.000661741
0.00110359
0.00465725
0.00164851
0.00283441
0.000858778
0.00326313
0.00298366
0.00137674
0.00083112
0.00242334
0.0017832
0.00071634
0.000587467
0.000808921
0.000830607
0.00283799
0.00101128
0.00100926
0.000911739
0.000908555
0.00118296
0.00115358
0.000899736
0.0027892
0.00543055
0.000687366
0.000769504
0.000950158
0.00111868
0.000775138
0.000733246
0.00309629
0.0011211
0.000804108
0.00081842
0.000955087
0.00263181
0.000348898
0.000504447
0.000665529
0.000802824
0.000842678
0.000755603
0.000708778
0.000899584
0.000937337
0.000862672
0.000627354
0.000944465
0.00260783
0.000738468
0.000862775
0.000862796
0.000992686
0.00107346
0.0009262
0.00136804
0.000768502
0.000771273
0.000253029
0.00033564
0.000875005
0.000896892
0.000712105
0.000839165
0.00383221
0.000753381
0.000812365
0.000772982
0.000812306
0.000752541
0.00108845
0.000662397
0.000799217
0.00288261
0.00357183
0.000642104
0.000790023
0.0066188
0.000845578
0.000784636
0.000837316
0.000573576
0.000481941
0.000401193
0.000659748
0.000753005
0.00228985
0.000785569
0.00157456
0.000765707
0.000834154
0.000975405
0.000877912
0.00078926
0.00078243
0.00164226
0.00083159
0.000956453
0.00110913
0.000756449
0.00175308
0.00161837
0.000833685
0.000830215
0.00203937
0.00077663
0.00208065
0.000825744
0.000874942
0.00097405
0.00090463
0.000829779
0.00161049
0.000941984
0.00100487
0.000746672
0.000796121
0.000789913
0.00078314
0.000736229
0.000668586
0.000826675
0.00271741
0.000841406
0.000724356
0.00742298
0.00301805
0.00062108
0.00059526
0.000830374
0.000993953
0.00108459
0.000975185
0.000723251
0.00684253
0.00566882
0.00112137
0.00229438
0.00109404
0.000372074
0.00231327
0.00113002
0.00110366
0.00108205
0.000569669
0.00102903
0.00537188
0.000789515
0.000809669
0.00103112
0.000746169
0.000971539
0.0070351
0.000744411
0.000944712
0.000726271
0.000726284
0.00107113
0.000764763
0.00105509
0.00122948
0.00131244
0.00476065
0.00509569
0.00300893
0.00230878
0.000978982
0.00102798
0.00115578
0.000909587
0.000754484
0.000907405
0.000832242
0.000776234
0.000868072
0.00074789
0.00142285
0.000731485
0.000744718
0.000613098
0.000766101
0.00297779
0.000704632
0.00084364
0.00101514
0.000797183
0.000739533
0.000693859
0.0037496
0.000828424
0.00110151
0.00111188
0.00140194
0.000835872
0.000783533
0.00232753
0.00123601
0.000627665
0.00421079
0.00454685
0.00281877
0.000794789
0.00663107
0.00362441
0.00496476
0.00408331
0.00344609
0.00853531
0.00770151
0.000806446
0.0081353
0.00176482
0.000830834
0.00260622
0.000658606
0.0025818
0.00227891
0.00078596
0.00853007
0.000698853
0.00318965
0.000691691
0.00102591
0.000420292
0.000822371
0.00856744
0.000936507
0.00168712
0.000228091
0.000826289
0.000331078
0.000310516
0.000450721
0.000404741
0.000242935
0.000299688
0.000467927
0.00031149
0.000412658
0.000264375
0.000229884
0.000490225
0.000338937
0.000351355
0.000453991
0.000447244
0.000181649
0.000429353
0.000325996
0.00039771
0.000458381
0.00216081
0.00195171
0.00481967
0.00218973
0.00613096
0.00076105
0.00133134
0.00137166
0.00376673
0.000841894
0.000848842
0.0005449
0.000230297
0.000332421
0.000486595
0.000275311
0.000543533
0.000423852
0.000470386
0.00025981
0.000483703
0.000241995
0.000347804
0.00259649
0.000888283
0.000848691
0.00714223
0.000975886
0.00220947
0.000834636
0.00876081
0.00077181
0.000338428
0.00388147
0.000832667
0.000704716
0.00315719
0.00078753
0.00258425
0.000723954
0.00141571
0.00253644
0.000830427
0.0005053
0.00101304
0.00202431
0.00102404
0.00102189
0.00508952
0.00624729
0.00255867
0.00162843
0.00316677
0.0037239
0.00976838
0.00287677
0.00232165
0.0052941
0.00404383
0.00723095
0.0060751
0.00615491
0.00515632
0.00175259
0.000530088
0.00601657
0.00307262
0.00595062
0.00524656
0.00594701
0.00305476
0.00286788
0.0022158
0.00116136
0.00526616
0.00463924
0.000389372
0.00716991
0.00801604
0.00154107
0.000372694
0.00732937
0.00678377
0.00943542
0.00773041
0.00976093
0.00432081
0.00965615
0.00931181
0.0085744
0.00961103
0.00295194
0.00286379
0.000719068
0.00285882
0.00177912
0.00279893
0.00262095
0.0014579
0.00283558
0.00209842
0.00271345
0.0024575
0.000820666
0.00074021
0.00106137
0.00154699
0.0025966
0.00243464
0.00238802
0.00345365
0.000493244
0.00255622
0.000853521
0.001069
0.000799598
0.000832821
0.00126502
0.00161851
0.00939965
0.00697642
0.000344706
0.000333604
0.000643844
0.0023297
0.00284518
0.00056021
0.000896636
0.00119117
0.00317862
0.000837184
0.00321247
0.00161847
0.00144032
0.00724859
0.00650611
0.00603649
0.000911875
0.00244117
0.00964529
0.00271269
0.0011274
0.00103546
0.00114302
0.000743475
0.00187821
0.000792297
0.00305453
0.0031165
0.0013189
0.00263665
0.00232283
0.000866505
0.00229821
0.00172325
0.00143007
0.00108955
0.00601955
0.00392319
0.00512363
0.00201027
0.00461982
0.000814063
0.000740171
0.00348687
0.00178768
0.00836211
0.00473268
0.00791268
0.00467547
0.00679799
0.00196246
0.00671623
0.00302749
0.00474331
0.00165004
0.000271731
0.00935964
0.00602754
0.000795636
0.00927118
0.00201225
0.00334736
0.000391915
0.00107914
0.00656306
0.00286537
0.00331787
0.00765356
0.00427025
0.00104012
0.00075753
0.00697727
0.00428997
0.00715121
0.00352575
0.00251588
0.00203769
0.00585212
0.000740077
0.00218087
0.00596395
0.000359018
0.00891071
0.00219981
0.00914156
0.00264623
0.000792933
0.0046313
0.00118076
0.00499396
0.000984755
0.00093878
0.000797629
0.00304354
0.00616366
0.00132606
0.00471849
0.00444752
0.000786964
0.000816721
0.000795769
0.00197305
0.00241305
0.000848174
0.000777138
0.000767237
0.00466193
0.000835469
0.00334421
0.000738891
0.000337335
0.00456888
0.00478968
0.002151
0.00606099
0.00719068
0.00907607
0.00101973
0.00160794
0.00880958
0.00193104
0.00161236
0.00752003
0.00238017
0.00780822
0.00180626
0.000743992
0.00235464
0.00325967
0.00809515
0.00896363
0.00182185
0.00283311
0.000901842
0.000746761
0.00184097
0.000929514
0.00141588
0.000809723
0.00702533
0.000804264
0.0086747
0.000809944
0.000459918
0.000805117
0.0035276
0.0080082
0.00174461
0.000732221
0.00106771
0.000788212
0.00602231
0.00688155
0.000806265
0.00824375
0.00115493
0.00761645
0.00589772
0.00501855
0.00376218
0.000825292
0.00106482
0.00397818
0.000763731
0.00111031
0.00564439
0.00753425
0.000820268
0.000841071
0.00383971
0.0082062
0.0063652
0.00127696
0.000818174
0.00100737
0.000827453
0.000286382
0.000848068
0.0095049
0.00857511
0.00221137
0.000902286
0.000821841
0.000856352
0.00568491
0.000802015
0.000759857
0.00134183
0.00116201
0.000877347
0.00102603
0.00391687
0.000397972
0.000646271
0.00100154
0.00150638
0.00264492
0.00256111
0.00726767
0.00309487
0.00336377
0.00194731
0.00645314
0.00687081
0.000691289
0.00645111
0.00126054
0.000173697
0.000364626
0.00082435
0.000721201
0.00704665
0.00111082
0.00076272
0.000901224
0.000660801
0.00132938
0.00109955
0.00862833
0.00085024
0.00239841
0.00104568
0.00098166
0.0021671
0.00954093
0.00813153
0.000635549
0.00534136
0.00725672
0.000713886
0.000715
0.000644502
0.000838239
0.000803083
0.00312329
0.0010975
0.000626389
0.00865188
0.00884957
0.000687493
0.000335637
0.00547027
0.000469968
0.000704272
0.000720793
0.00367399
0.000765316
0.000774564
0.00080332
0.00825546
0.000787326
0.00689322
0.00782253
0.000691008
0.000967919
0.000785733
0.000663524
0.000748425
0.000861306
0.00120085
0.00061181
0.00532597
0.00075357
0.000740797
0.000762333
0.000973331
0.000783017
0.000845058
0.000840786
0.000871596
0.00193953
0.000926633
0.00119638
0.00159152
0.00174186
0.000852689
0.00250605
0.000480528
0.00176247
0.000793879
0.00075521
0.00132583
0.00307788
0.000686249
0.00178929
0.000705087
0.000777518
0.00127226
0.00229411
0.00477762
0.000619462
0.000902713
0.000293293
0.000770098
0.00434269
0.00277145
0.00352519
0.00077977
0.00202216
0.000923546
0.00212858
0.00108459
0.000770914
0.000883082
0.00093063
0.000847849
0.000834458
0.000677602
0.00150414
0.00361749
0.000806706
0.00564458
0.00666072
0.00070952
0.00113336
0.000216023
0.0033641
0.00194637
0.000864681
0.00253442
0.000547921
0.000828457
0.000808476
0.00376501
0.00112769
0.00168896
0.00083394
0.000673927
0.000597569
0.000538671
0.000649028
0.000837402
0.000732219
0.000774732
0.00429927
0.00112579
0.000776342
0.00103648
0.00714394
0.00110196
0.00102656
0.000346231
0.000660386
0.00155576
0.00120056
0.00101772
0.00105413
0.00362079
0.00112622
0.000358964
0.00394561
0.000777809
0.000722474
0.000731423
0.000663796
0.00222635
0.000709336
0.00239489
0.00414057
0.00450884
0.000818681
0.00510521
0.00482497
0.00275739
0.000464322
0.0016674
0.000678717
0.00285283
0.0035931
0.000837686
0.000865704
0.000805456
0.000961513
0.000984522
0.00102092
0.00213302
0.000515094
0.0008024
0.000760309
0.000833572
0.00120134
0.000781813
0.00184781
0.00113814
0.00573887
0.00116415
0.000775254
0.00159233
0.00117904
0.00130775
0.000817662
0.00116033
0.000902777
0.000878479
0.00152475
0.000745659
0.000521001
0.000674136
0.00295467
0.00376855
0.000708707
0.000875453
0.00266411
0.00160437
0.00082491
0.000917734
0.00288677
0.000969951
0.00213487
0.00103592
0.000820796
0.00103795
0.00100414
0.00841485
0.0057512
0.000961464
0.000959062
0.000844399
0.00075368
0.00140033
0.000591184
0.00104805
0.000804938
0.00454107
0.000747008
0.00891861
0.00463989
0.002494
0.000862687
0.000681759
0.00079225
0.0021804
0.000783169
0.000716199
0.000813581
0.000793786
0.00106257
0.000776538
0.000730091
0.00684256
0.000693501
0.00848537
0.000747593
0.000992871
0.000581825
0.000559836
0.000574662
0.000593987
0.00053067
0.000478735
0.00293706
0.000276991
0.000328582
0.000818665
0.000404286
0.000508767
0.000451984
0.00232925
0.000652226
0.000830184
0.000141146
0.00891566
0.000165081
0.000696083
0.00583898
0.00347132
0.00140059
0.000319655
0.000808816
0.00614712
0.000861455
0.00372817
0.00881005
0.00229486
0.000822901
0.00474334
0.000143069
0.000243058
0.000861091
0.000151703
0.00223874
0.0083987
0.00887768
0.00457254
0.000958519
0.00513961
0.00929412
0.000815559
0.000162013
0.000195831
0.000996674
0.00554123
0.000780047
0.00469671
0.00210788
0.00248043
0.000738839
0.000262507
0.00285394
0.00014887
0.000996594
0.00019192
0.000822851
0.00411631
0.00517701
0.00083029
0.00170462
0.00775069
0.000896805
0.00217795
0.000701117
0.00082127
0.000939183
0.000809619
0.00143599
0.00124664
0.000776266
0.00122091
0.0037814
0.000845963
0.00111459
0.00841844
0.0093938
0.000811972
0.000727008
0.000989532
0.00250891
0.00207322
0.00379543
0.000941743
0.00815044
0.00555179
0.0025995
0.00294837
0.00264811
0.00107434
0.00192473
0.00378262
0.00120108
0.00064227
0.00260044
0.0084153
0.00884925
0.00439221
0.00246046
0.000896347
0.00539055
0.00233015
0.000837405
0.00138185
0.00121486
0.00111058
0.000700266
0.000554554
0.00125224
0.00233075
0.0027859
0.0029579
0.00814744
0.000750782
0.00488421
0.00222705
0.000624132
0.00711705
0.00357306
0.00107009
0.000938325
0.00109893
0.000785552
0.00033713
0.000748095
0.00260968
0.00415481
0.000846279
0.000770713
0.000774049
0.00106664
0.000922118
0.00077694
0.000840418
0.00707623
0.000764759
0.000797176
0.000778658
0.00187428
0.000820356
0.00130747
0.00018831
0.000777647
0.000791405
0.000802779
0.00016273
0.000692229
0.00121762
0.00160288
0.000743689
0.000199465
0.000978106
0.00104084
0.000794232
0.0065516
0.00465249
0.000743932
0.00107288
0.000765935
0.000534247
0.000135735
0.00133707
0.000833617
0.000592676
0.00216987
0.00182518
0.000158751
0.000936751
0.000863454
0.000324375
0.000864204
0.00556214
0.000771427
0.00128701
0.00080932
0.0011644
0.00509636
0.00147123
0.00070288
0.000996119
0.000912104
0.0056501
0.00163116
0.00104494
0.000796943
0.001457
0.000975275
0.00079061
0.000161634
0.000888892
0.000148728
0.00131747
0.00398447
0.00217069
0.00145691
0.000788548
0.000563578
0.000492833
0.00829306
0.000414109
0.000847296
0.00321651
0.00102378
0.00101192
0.000551051
0.00154034
0.000821643
0.00777627
0.00694186
0.00101238
0.000799184
0.000805371
0.000266412
0.00155938
0.000821535
0.00293761
0.000497336
0.00134009
0.0060154
0.00184889
0.000810571
0.00444327
0.00115089
0.000515861
0.000834722
0.00133524
0.000144441
0.0012182
0.00144183
0.0081248
0.00158021
0.000774019
0.000506989
0.00145681
0.000147897
0.000840556
0.00212138
0.00611492
0.000778766
0.000838136
0.000839725
0.000784795
0.000506958
0.000380875
0.00735679
0.000621484
0.00309385
0.000745529
0.000592752
0.0074756
0.000827113
0.00294175
0.00812733
0.000592186
0.00125187
0.00250363
0.00201814
0.000870527
0.000164565
0.0043719
0.00811181
0.000851625
0.00934358
0.000853992
0.000738776
0.00592925
0.0021618
0.00201565
0.00122592
0.00560462
0.000881052
0.000851125
0.00081622
0.00849456
0.000842463
0.000819758
0.00152879
0.00699567
0.000823119
0.00122357
0.00180614
0.00273306
0.00257761
0.00236135
0.00148592
0.00127436
0.00813852
0.000473847
0.000207581
0.00390878
0.000744803
0.00103168
0.00073903
0.000772478
0.000844356
0.000905631
0.0019075
0.000658781
0.000880229
0.000152312
0.00855216
0.0010368
0.00068014
0.00282181
0.000639959
0.000842216
0.00258082
0.00150306
0.00114975
0.0011374
0.00943119
0.0012263
0.000718188
0.00201277
0.000726733
0.00101395
0.000602669
0.00079045
0.000987119
0.00276813
0.00855383
0.00183766
0.000622032
0.0082502
0.000803571
0.000731859
0.0018381
0.00324752
0.00381165
0.000769188
0.000844072
0.00445133
0.00246346
0.0013505
0.0045256
0.00575656
0.00113913
0.00135318
0.000827744
0.000836585
0.000813774
0.000876025
0.000772387
0.000838522
0.0010103
0.000614949
0.00405456
0.000814671
0.00095518
0.00348158
0.00229283
0.0087207
0.00838032
0.00745463
0.000956254
0.00244569
0.00114004
0.00361616
0.000558647
0.000383796
0.000845878
0.00103453
0.0043615
0.000868756
0.00128986
0.0085905
0.000784461
0.00367942
0.00864819
0.00923134
0.0078913
0.00943322
0.000774476
0.00359059
0.00898601
0.000845117
0.000782209
0.000274339
0.00632313
0.00479246
0.000447556
0.0054698
0.00867066
0.000916634
0.00132429
0.000474666
0.000150867
0.00212942
0.0090159
0.00160573
0.00219926
0.00103869
0.000854753
0.00949967
0.0011066
0.00152629
0.00396331
0.000524278
0.00216782
0.000758126
0.00101463
0.00189238
0.00081757
0.000931672
0.000850494
0.000724238
0.0044381
0.00119416
0.000780096
0.000141803
0.00145748
0.000990929
0.0008011
0.000626917
0.000799319
0.00115958
0.000683485
0.00151107
0.00507179
0.00115308
0.00221618
0.00107319
0.000856034
0.000743465
0.0053272
0.00107009
0.00250766
0.000722675
0.00288727
0.0027636
0.00225256
0.000659101
0.000752583
0.000536968
0.000696427
0.000945407
0.00062581
0.000890895
0.000706829
0.00514288
0.00118414
0.00481699
0.000726069
0.000792032
0.00814832
0.000877937
0.00186415
0.00277259
0.00278146
0.000810604
0.00102593
0.00173359
0.00084288
0.00316776
0.000670909
0.00090572
0.000857788
0.00132516
0.00354046
0.00858159
0.000806439
0.00117381
0.000672553
0.000272827
0.000906383
0.000499898
0.000837315
0.000831283
0.00133117
0.00467345
0.0015082
0.000876633
0.000909363
0.000912314
0.000791977
0.00158779
0.00915886
0.0088333
0.00843147
0.000740736
0.000668859
0.00866152
0.00824481
0.00814959
0.00715761
0.0044178
0.000802024
0.000758736
0.00114818
0.000743192
0.000640185
0.000933098
0.00159378
0.000561229
0.000828551
0.00100408
)
;

boundaryField
{
    frontAndBack
    {
        type            empty;
    }
    wallOuter
    {
        type            nutkWallFunction;
        Cmu             0.09;
        kappa           0.41;
        E               9.8;
        value           nonuniform List<scalar> 
90
(
7.99906e-05
7.67538e-05
7.78083e-05
7.56733e-05
8.28654e-05
8.48027e-05
8.67148e-05
9.42346e-05
8.0043e-05
8.90322e-05
9.15253e-05
9.51738e-05
9.07002e-05
9.3286e-05
9.24244e-05
0.000105401
9.97641e-05
8.12615e-05
7.22604e-05
6.52281e-05
7.83407e-05
0.00010016
8.80544e-05
9.29619e-05
8.0075e-05
0.000114247
0.000114037
8.78073e-05
8.36043e-05
7.02965e-05
6.75661e-05
6.94016e-05
7.17664e-05
6.39654e-05
5.75228e-05
4.81388e-05
1.45387e-05
1.7565e-05
8.37813e-05
3.71851e-05
1.46754e-05
2.73112e-05
0.000102837
1.60858e-05
1.69549e-05
2.15541e-05
1.58486e-05
0.000118052
2.17246e-05
0.000106925
0.000117429
7.74892e-05
7.54069e-05
9.25103e-05
9.33363e-05
1.74393e-05
2.26323e-05
0.00011598
0.00012321
8.94116e-05
6.46964e-05
1.38119e-05
1.69134e-05
0.000103137
9.69486e-05
8.46931e-05
0.000108686
1.69481e-05
0.000106029
1.57545e-05
6.25195e-05
1.46698e-05
9.29262e-05
1.56812e-05
9.34313e-05
7.51243e-05
7.16221e-05
0.000103936
1.7545e-05
0.00010179
5.73816e-05
0.000105045
1.56235e-05
7.51588e-05
7.42626e-05
1.59803e-05
9.35903e-05
1.44596e-05
8.23801e-05
8.38915e-05
)
;
    }
    inlet
    {
        type            calculated;
        value           uniform 0.000851986;
    }
    outlet
    {
        type            calculated;
        value           nonuniform 0();
    }
    wallInner
    {
        type            nutkWallFunction;
        Cmu             0.09;
        kappa           0.41;
        E               9.8;
        value           nonuniform List<scalar> 
138
(
5.11576e-05
5.98596e-05
0.0002215
7.62993e-05
7.76403e-05
7.9874e-05
0.000256679
0.000103743
7.17691e-05
7.09474e-05
0.000138798
0.000119813
4.2977e-05
6.1017e-05
3.09595e-05
4.03172e-05
6.95413e-05
5.90045e-05
4.94306e-05
7.96014e-05
0.000234186
0.000129032
4.38695e-05
0.000133018
0.0001301
0.000127702
0.000122032
0.000126488
0.000121682
0.000129861
0.00013101
5.18374e-05
2.69554e-05
4.03079e-05
3.71024e-05
5.43885e-05
5.00073e-05
2.78032e-05
3.58686e-05
5.60274e-05
3.69647e-05
5.05226e-05
3.02763e-05
2.64006e-05
5.93321e-05
4.09203e-05
4.1697e-05
5.50284e-05
5.33295e-05
2.00707e-05
5.201e-05
3.97811e-05
4.69128e-05
5.57913e-05
6.63814e-05
2.65627e-05
4.07727e-05
5.89149e-05
3.20897e-05
6.60173e-05
5.0249e-05
5.73154e-05
3.01559e-05
5.82063e-05
2.81676e-05
4.24928e-05
4.07592e-05
6.06843e-05
0.000120799
6.40035e-05
0.000135297
4.72112e-05
4.61758e-05
8.67916e-05
0.000125186
6.10058e-05
0.00012603
4.26936e-05
4.11211e-05
7.84582e-05
6.89393e-05
0.000139544
0.000166523
0.000131468
0.000121217
0.000153456
3.24123e-05
4.74904e-05
0.000127381
0.000123037
4.37933e-05
4.16138e-05
5.82299e-05
3.53171e-05
4.84097e-05
1.88851e-05
4.45876e-05
4.02249e-05
5.83773e-05
8.32455e-05
0.000108375
5.72916e-05
8.51337e-05
3.54318e-05
0.000110585
2.44455e-05
4.22941e-05
0.000132598
4.33234e-05
5.59085e-05
7.11323e-05
0.000125536
3.21487e-05
3.99026e-05
5.42775e-05
0.000113788
8.88064e-05
3.00135e-05
9.71185e-05
0.00011153
4.08731e-05
2.05702e-05
9.33066e-05
3.91333e-05
6.77062e-05
4.90235e-05
9.64943e-05
3.06637e-05
6.09621e-05
4.4806e-05
2.31486e-05
8.0663e-05
0.000134911
8.92979e-05
7.77765e-05
0.00018301
6.82658e-05
0.000117345
)
;
    }
    procBoundary0to1
    {
        type            processor;
        value           nonuniform List<scalar> 
29
(
0.00162603
0.00264061
0.00247017
0.00247017
0.00516352
0.00516352
0.00295834
0.000965379
0.00188285
0.00309762
0.00156064
0.00196462
0.000773292
0.000795802
0.0022949
0.00131117
0.00789382
0.00567544
0.003496
0.00282393
0.00087813
0.000731444
0.00311247
0.000742291
0.000729388
0.00567544
0.000727817
0.000920782
0.000742291
)
;
    }
    procBoundary0to2
    {
        type            processor;
        value           nonuniform List<scalar> 
42
(
0.00615353
0.00811205
0.00090271
0.000751784
0.00277507
0.00615353
0.00090271
0.0010318
0.00190712
0.00128638
0.00520152
0.00725413
0.00520152
0.00811848
0.00889073
0.00423292
0.00889073
0.00139324
0.00139311
0.00220231
0.00220231
0.00139324
0.00138594
0.00148069
0.00148069
0.00129266
0.00156051
0.00107083
0.00255699
0.00903205
0.00903205
0.000926129
0.00089162
0.000968905
0.00114926
0.00090271
0.0091599
0.000188993
0.00255699
0.0010318
0.00112994
0.00122665
)
;
    }
}


// ************************************************************************* //
