/*--------------------------------*- C++ -*----------------------------------*\
| =========                 |                                                 |
| \\      /  F ield         | OpenFOAM: The Open Source CFD Toolbox           |
|  \\    /   O peration     | Version:  v1912                                 |
|   \\  /    A nd           | Website:  www.openfoam.com                      |
|    \\/     M anipulation  |                                                 |
\*---------------------------------------------------------------------------*/
FoamFile
{
    version     2.0;
    format      ascii;
    class       volScalarField;
    location    "0.71";
    object      p;
}
// * * * * * * * * * * * * * * * * * * * * * * * * * * * * * * * * * * * * * //

dimensions      [0 2 -2 0 0 0 0];


internalField   nonuniform List<scalar> 
1431
(
93.0345
91.5346
90.0604
93.2518
93.3377
89.5136
90.4028
98.7337
92.0823
92.492
91.5804
91.2063
90.9137
104.412
91.3612
91.3517
91.6704
92.0718
93.6017
92.0555
92.9269
92.2725
90.379
105.315
81.4467
92.5938
75.1965
103.56
92.8049
92.1903
114.751
121.417
83.1827
89.544
91.5689
89.2014
93.2469
97.8147
89.2884
97.9099
111.675
91.7329
89.7847
92.0395
82.572
92.7962
92.8292
119.897
115.725
99.2473
92.0833
92.7967
91.5697
89.3302
90.909
112.87
92.9658
90.5249
81.7239
92.9441
91.768
91.4229
92.3251
98.6701
100.696
91.2474
88.5665
89.31
92.1409
99.0703
89.7489
91.9669
90.9814
89.6146
90.8419
83.3477
93.0396
83.4097
99.068
76.1096
98.696
91.881
90.9962
91.892
84.0652
93.2231
93.4795
91.0785
106.244
92.452
92.383
91.4941
93.4016
97.5404
91.8954
93.0526
90.793
100.853
93.5956
114.713
92.0915
97.6958
93.0876
93.5073
91.739
90.9825
98.7967
114.95
116.597
93.1528
78.3261
91.25
99.257
92.1186
91.361
93.5904
92.1999
91.4512
107.132
83.6092
96.1596
90.835
92.3407
109.94
98.4125
90.8877
107.948
90.809
92.9446
98.5596
91.3391
115.882
105.381
93.0267
93.2778
92.6853
90.9888
91.3351
92.7221
115.452
92.5836
93.2912
97.8075
115.815
117.01
96.6866
100.324
115.377
91.1353
114.3
99.3789
101.81
90.9179
90.7114
91.0916
90.6554
98.705
92.5501
100.034
109.211
91.8287
91.4027
93.0153
91.1037
93.603
74.5656
93.1279
96.9342
92.1545
93.2159
107.838
90.7922
113.632
99.5707
98.3123
92.2075
90.9609
100.309
92.2842
105.866
98.7723
91.7338
106.072
92.7009
98.1001
108.879
97.7332
88.9726
92.9798
98.6773
91.7999
91.6997
93.0086
98.4908
91.8287
95.8527
98.8037
118.409
91.3884
91.2464
91.0904
118.46
112.751
110.392
98.7194
78.502
93.1685
99.166
90.9706
102.663
98.4903
99.3467
110.612
99.0643
92.8906
90.2906
100.957
91.3855
91.4353
98.7608
98.7524
71.7178
97.9761
103.925
99.4397
93.6048
111.665
92.9049
103.632
115.051
93.384
92.2967
98.9554
97.1168
98.4104
99.0659
100.094
93.0029
98.6542
90.841
100.555
111.058
92.2055
91.5409
90.6858
90.8633
98.0091
91.1151
89.3523
106.738
104.599
92.247
92.5103
118.764
92.3416
99.5893
92.1733
90.796
98.4193
98.9359
99.4365
91.1255
93.6386
92.3084
98.6442
102.738
93.802
97.5867
104.758
92.1066
98.7813
114.691
103.583
102.594
99.0332
95.7447
92.89
91.4705
91.7213
92.369
91.8011
90.8429
91.6566
92.7452
95.771
90.8233
93.3188
104.512
105.571
99.8557
96.6053
98.6349
104.382
92.1073
106.086
101.245
92.9601
104.042
90.9669
107.457
98.9099
113.305
90.6917
117.54
91.6695
91.1831
98.823
99.2917
98.6485
92.9879
99.6662
98.1664
91.7254
93.4978
91.0881
91.3588
92.3806
91.063
98.0121
92.5339
91.1977
92.8933
92.8811
90.9964
92.0698
92.3092
98.5912
92.0897
112.162
99.3659
91.7601
90.9976
90.7241
91.9531
98.4263
92.2634
92.3214
93.0286
92.2111
91.0104
91.0415
98.6911
92.1507
91.585
103.577
91.0581
99.4031
91.0752
93.3962
93.1635
91.077
91.5627
91.6226
92.0831
91.0837
91.1675
91.6362
91.0611
92.4266
90.8519
92.2581
91.0999
92.0713
93.4991
93.2903
91.0317
92.1221
91.0975
91.7679
91.7952
91.3764
90.6928
92.6144
107.479
91.7965
91.3977
91.6735
98.1761
97.4413
92.5705
91.4811
91.0295
93.2007
91.6694
91.1206
92.0911
91.0363
91.0672
92.1983
93.4597
91.1355
90.2858
110.35
98.1759
92.2911
91.3088
93.0408
99.1139
91.9464
98.7471
90.7459
91.7461
99.028
92.1146
91.8152
95.4973
91.0616
117.3
92.9763
91.6757
95.8956
91.5015
91.6927
87.7688
116.418
131.766
91.5994
92.0227
91.0192
93.0123
91.0272
92.3268
91.8051
90.8896
92.4395
91.56
91.0618
91.8382
82.1803
91.3552
82.4271
90.7493
91.6736
91.9947
90.9048
91.396
92.1436
91.9071
90.9442
89.1816
90.2813
93.4118
91.8239
91.6696
90.4782
92.1702
92.1429
90.5852
89.5976
92.2128
92.1143
91.8908
92.2357
91.8563
92.1878
91.8494
91.8509
91.9397
91.8697
90.9856
85.3396
91.0839
89.3137
89.9247
91.0157
91.0008
92.9779
86.2969
89.6317
90.9974
86.9588
91.3492
117.243
115.034
89.8582
90.9806
90.2696
90.0358
91.5936
92.2175
92.2645
91.4113
101.171
96.9857
117.205
92.1918
89.9627
91.812
91.9424
90.029
90.2873
91.6462
91.0122
94.7698
92.0552
91.5551
90.2337
91.2596
99.1964
91.0434
89.9452
85.7744
91.7111
91.2736
91.2992
90.2763
90.9811
91.792
91.965
92.9975
93.0316
90.3825
99.8201
91.6392
98.7604
91.9358
92.3283
86.5966
92.1208
91.0476
90.3234
90.7871
90.9092
93.02
91.4637
92.0516
91.6716
92.0054
90.7073
91.4743
117.204
118.069
90.9635
90.7003
91.8948
92.0732
91.5849
91.2785
92.2262
96.9297
91.2136
91.3472
91.6681
92.5659
91.37
91.804
91.6371
98.5893
91.8451
91.017
90.9694
91.3556
97.9597
91.9813
90.8277
91.7815
91.4612
91.6074
96.9522
102.336
92.1955
91.1013
91.5237
92.6679
82.6725
93.2821
92.217
103.703
92.0074
91.2115
91.1982
91.88
93.056
91.838
90.645
92.1762
92.2571
91.9835
91.1684
100.509
91.7145
98.6552
91.7137
91.4133
91.2469
91.1674
91.6981
96.9367
91.9923
101.878
92.8051
90.5091
96.4633
97.4711
98.5181
91.1145
93.3863
91.5477
102.67
90.8086
91.7246
91.6646
90.992
91.4283
91.5236
91.8572
91.1567
91.0259
91.8833
92.1723
96.3737
92.0547
93.1574
91.9963
94.1108
101.703
91.9215
92.5786
91.7875
91.8523
91.0065
91.1589
91.974
90.9355
91.2635
124.011
91.0271
93.5106
92.0104
98.5192
91.9996
91.5823
92.311
98.5132
91.0148
91.907
91.0049
105.999
95.1185
91.5457
91.2992
92.0706
98.5605
91.9798
90.8723
91.4121
91.2437
92.0613
92.7267
91.406
91.6707
91.2841
100.905
95.7436
92.1574
91.955
98.8367
98.5762
91.7753
91.9861
91.2386
93.6235
91.9532
92.2495
99.125
90.9942
95.0709
91.7861
91.8997
91.657
93.579
98.7508
91.9194
91.3144
117.085
116.45
90.0626
92.6006
90.855
97.5024
91.407
91.312
90.9809
91.642
91.6087
90.8618
92.3696
91.2842
91.6385
93.2024
115.4
91.2145
91.2715
93.0883
92.1413
91.0005
93.5458
91.1968
98.8598
107.549
91.3705
91.0141
102.755
90.9426
93.054
130.11
94.7651
91.9394
93.4241
110.386
92.0678
93.2289
90.9815
91.751
91.9655
99.5011
91.5812
92.0425
109.632
92.928
99.338
100.285
98.4169
91.0011
91.0171
99.9292
92.0311
92.213
108.706
92.354
92.7893
92.3047
108.155
107.54
91.742
101.78
92.0113
90.6819
92.1401
92.0005
91.2353
92.075
118.588
92.3587
101.09
100.002
103.483
104.551
108.88
90.7359
91.7917
105.076
106.876
105.319
92.3444
91.3746
98.6517
98.8755
99.2552
108.696
90.477
107.106
111.977
103.563
98.3234
90.9584
91.4477
110.446
100.651
106.127
91.3357
99.1232
93.43
91.0248
91.7646
102.515
93.6278
91.6101
92.002
90.7822
90.8734
91.3331
104.5
92.442
93.402
107.605
93.2948
90.9881
91.2971
109.401
92.6873
100.85
111.723
141.774
97.9845
98.9987
93.5204
91.0626
93.7954
98.082
92.2499
91.2547
111.85
91.0245
93.5743
91.1738
95.0083
91.7255
90.6429
92.9995
99.3728
98.1947
91.4711
93.6115
81.1982
100.077
99.8441
97.2649
97.403
97.5381
100.802
98.9514
103.654
91.6336
91.3341
99.5899
90.8886
91.3125
91.0021
93.5996
91.4834
93.2097
90.9758
93.599
91.1559
92.9226
92.0462
98.3209
90.7161
92.2238
100.033
115.672
100.506
97.2856
86.4102
113.927
90.9647
91.3348
91.3916
98.5995
91.6588
91.3086
90.9379
93.2141
122.698
91.5192
92.8551
91.0765
98.8093
98.8567
98.5008
92.5073
91.046
91.2947
91.1086
92.982
97.2329
109.257
93.5821
91.13
116.962
99.7473
92.2784
91.4455
93.0966
107.933
89.6207
91.7355
91.667
98.7664
93.6484
90.8076
91.3255
93.0422
99.0658
92.9981
91.417
84.5564
83.242
115.897
100.528
89.553
89.71
98.998
93.1357
88.8016
93.1666
90.9661
92.1794
90.571
91.9806
91.9326
91.9208
92.0872
112.857
115.053
100.678
93.1855
93.0213
93.7084
92.1886
98.4197
92.0687
92.0226
91.9122
91.6067
91.8036
99.1525
90.843
90.5471
92.1448
99.2027
91.5411
98.5819
98.6017
100.399
90.6765
98.9811
92.1201
109.515
91.8562
109.689
91.4353
91.4315
92.1937
91.7569
91.2574
92.6267
92.9457
91.6779
93.5716
91.3103
98.9413
93.1093
92.9826
91.4589
75.3383
93.1068
91.6764
93.1555
91.8432
93.6261
91.9384
92.107
110.079
91.0497
93.1629
91.4066
92.1807
91.352
91.9917
92.3619
91.0664
91.7618
91.5568
93.1807
93.183
97.5692
93.3433
91.8077
92.0856
92.004
91.5148
87.7781
92.2727
92.1031
98.7014
93.1927
93.1778
91.4099
91.5203
101.598
92.094
92.0365
92.7381
89.581
92.7656
98.5265
93.0185
96.2449
93.4063
99.0429
92.2664
91.4394
99.5494
91.0414
91.7258
104.851
82.7851
93.2124
93.0558
91.287
99.4717
89.9172
92.3298
99.1926
89.7086
91.5252
97.1187
92.4772
92.2508
91.9548
98.5058
101.658
113.788
90.4987
93.3509
92.705
91.9195
91.9934
91.4573
91.9648
90.9501
83.9736
101.629
91.0298
91.2142
91.7554
91.1258
112.802
92.2508
92.0827
91.17
92.1233
90.6377
92.4209
92.512
98.6839
92.2768
91.4914
93.8475
93.4009
93.5512
91.139
92.2731
91.0171
83.3415
91.9413
107.082
91.264
91.0354
97.7505
92.2732
91.6641
89.493
91.3589
92.193
101.463
92.4408
117.826
92.2878
91.9452
95.2
84.1014
120.072
92.5169
90.8063
98.9423
98.3067
92.1828
91.5176
97.9971
92.6959
97.328
98.7851
91.6494
92.927
97.4447
99.7246
99.6957
93.5497
92.43
91.8464
93.1734
118.682
93.4781
93.8608
114.52
98.7761
91.3567
93.0935
102.94
92.0073
119.231
96.3484
93.1008
91.2179
99.7815
92.9763
94.9977
92.413
93.0143
90.7061
80.5646
91.3267
99.3402
91.4001
93.572
91.0878
102.665
90.8981
91.5591
92.44
115.04
91.5539
115.992
91.3447
90.7884
110.324
112.637
90.655
91.8444
99.6248
93.0967
83.5601
93.059
91.7134
93.0916
89.4442
91.2685
99.7115
93.5622
93.0872
91.9405
91.3006
91.9017
91.415
94.0013
90.6528
93.3575
91.0071
91.3726
92.0508
92.1121
92.8429
98.1577
83.8358
92.8552
92.3503
98.9355
83.7154
93.5086
91.1025
91.2373
91.0583
91.9395
92.2738
102.567
109.683
99.4258
84.5258
93.2167
93.0914
91.0154
91.936
113.322
115.603
93.4566
91.0524
92.996
99.1394
89.5334
91.6347
95.1151
97.1829
97.4356
116.66
93.3538
91.2488
91.957
110.587
83.902
112.511
92.9343
92.1148
94.5317
98.5307
91.6463
100.11
93.0912
90.9681
96.7443
101.29
93.0491
92.0253
92.1037
83.2604
91.9304
90.8289
99.2239
91.1769
92.5476
90.6206
91.8401
91.5856
100.288
94.5542
90.6129
92.0053
99.1657
98.8786
99.8629
92.1065
91.8749
91.8223
93.0906
86.2387
91.3245
91.1502
91.7739
91.6265
91.9677
97.347
92.7962
91.5883
115.246
91.0606
117.867
97.7504
98.1227
100.449
89.9006
93.2675
80.3473
93.1535
92.2649
84.0882
93.1137
90.9681
92.5314
91.6647
91.6385
93.833
90.0238
92.4792
92.0023
93.5479
91.0443
91.7892
116.652
93.5447
91.1228
98.5665
92.0198
92.1475
92.0602
92.2786
93.8808
92.0267
91.5282
90.7114
90.7516
97.5621
92.446
98.6613
96.9159
91.5852
83.6467
91.1338
91.9412
91.521
91.5803
93.1072
99.1263
91.2624
98.2836
95.5532
92.8553
99.1206
101.528
91.1656
91.446
122.03
127.776
91.0195
92.0751
92.1599
92.2295
92.2056
91.2046
97.2296
93.8573
93.7656
91.04
93.1811
97.8263
92.2
91.476
90.8439
93.6233
92.1788
99.0239
91.4386
92.1259
91.8304
92.2133
91.9494
98.7708
91.1157
91.8504
97.5827
101.074
92.6425
92.3138
91.4337
92.877
91.5399
92.0125
92.3437
91.7479
92.8322
92.995
90.6628
91.8954
90.6335
93.6041
88.3068
93.3745
91.928
92.6536
90.6875
91.2159
92.8693
91.0119
99.7915
91.0605
74.8438
98.4329
91.8783
93.4449
118.288
91.554
91.875
89.6406
93.2798
91.0652
92.5732
98.335
91.4705
91.058
91.0641
97.0345
92.4691
91.5898
91.6307
91.0596
92.3324
98.598
93.2713
91.2642
91.2404
90.7959
117.931
91.0139
93.4771
92.3464
93.1126
100.821
90.9282
101.472
100.065
93.2583
90.9091
92.4148
91.5593
92.2768
91.3045
90.5635
122.591
91.9543
91.0558
102.708
91.0203
114.242
98.1103
102.106
92.6018
97.969
91.6315
93.6691
91.0347
93.2336
84.1082
93.3899
92.1617
90.5205
96.6287
90.6952
93.1454
90.9353
93.2591
99.8574
99.1164
99.0662
92.275
86.2246
97.0957
98.3886
99.233
98.5855
90.7936
92.0203
92.1731
91.9563
99.5682
114.847
92.0722
91.9504
92.1297
92.1437
91.5001
98.6204
100.211
80.2908
124.466
89.9239
90.3224
118.191
92.1981
92.5703
94.9026
)
;

boundaryField
{
    frontAndBack
    {
        type            empty;
    }
    wallOuter
    {
        type            zeroGradient;
    }
    inlet
    {
        type            zeroGradient;
    }
    outlet
    {
        type            fixedValue;
        value           nonuniform 0();
    }
    wallInner
    {
        type            zeroGradient;
    }
    procBoundary0to1
    {
        type            processor;
        value           nonuniform List<scalar> 
29
(
90.6434
90.0899
89.1883
89.1883
81.9429
81.9429
116.716
89.3486
86.0277
89.1923
89.4207
82.1265
89.3242
91.0859
117.046
117.377
81.5069
82.2134
89.1227
90.001
117.235
117.123
83.5487
117.45
117.578
82.2134
118.203
116.624
117.45
)
;
    }
    procBoundary0to2
    {
        type            processor;
        value           nonuniform List<scalar> 
42
(
92.5759
92.3648
93.6702
93.7479
93.0094
92.5759
93.6702
93.6733
92.9771
92.9645
92.7912
92.5446
92.7912
92.4055
92.2798
92.9568
92.2798
92.9414
92.9686
90.7172
90.7172
92.9414
92.9973
91.8189
91.8189
93.0664
92.3432
93.1961
92.8603
92.1969
92.1969
93.3534
93.4873
93.5696
93.6136
93.6702
92.2904
93.694
92.8603
93.6733
93.6721
93.6493
)
;
    }
}


// ************************************************************************* //
