# vtk DataFile Version 2.0
track0
ASCII
DATASET POLYDATA
POINTS 66 double
2.01419e-18 0.210526 1e-06
1.61136e-18 0.210526 1e-06
1.20852e-18 0.210526 1e-06
8.05678e-19 0.210526 1e-06
4.02839e-19 0.210526 1e-06
0 0.210526 1e-06
4.34675e-19 0.631579 1e-06
0.000357266 0.632535 1e-06
0.000783366 0.633462 1e-06
0.0012097 0.634389 1e-06
0.00163611 0.635316 1e-06
0.00211493 0.636357 1e-06
0.00297367 0.638223 1e-06
0.0050125 0.638474 1e-06
0.00663307 0.639736 1e-06
0.00847273 0.64065 1e-06
0.00880494 0.640818 1e-06
0.0107015 0.641775 1e-06
0.0127903 0.642164 1e-06
0.0148933 0.642466 1e-06
0.0169934 0.642788 1e-06
0.0183108 0.642995 1e-06
0.0203082 0.643311 1e-06
0.0222975 0.643674 1e-06
0.0242795 0.644076 1e-06
0.0262554 0.644506 1e-06
0.0282981 0.644976 1e-06
0.0291228 0.645142 1e-06
0.0299402 0.645341 1e-06
0.0307491 0.645571 1e-06
0.0315026 0.645819 1e-06
0.0330507 0.64639 1e-06
0.0345333 0.647114 1e-06
0.0359301 0.647992 1e-06
0.0372198 0.649022 1e-06
0.0394001 0.651204 1e-06
0.0400768 0.65224 1e-06
0.0406644 0.653329 1e-06
0.0411597 0.654463 1e-06
0.0415612 0.655633 1e-06
0.0417743 0.656373 1e-06
0.0423542 0.658563 1e-06
0.0429598 0.660746 1e-06
0.043491 0.662948 1e-06
0.0439374 0.665169 1e-06
0.0442731 0.667324 1e-06
0.0445134 0.669575 1e-06
0.0448945 0.671808 1e-06
0.0453919 0.674017 1e-06
0.0460257 0.676191 1e-06
0.0469072 0.678533 1e-06
0.0479874 0.680711 1e-06
0.0492658 0.682778 1e-06
0.0507575 0.684697 1e-06
0.0524574 0.686435 1e-06
0.0559327 0.68928 1e-06
0.0570133 0.689896 1e-06
0.0580944 0.690511 1e-06
0.0591761 0.691124 1e-06
0.0602584 0.691737 1e-06
0.0613294 0.692342 1e-06
0.0640466 0.693874 1e-06
0.066764 0.695405 1e-06
0.0694814 0.696936 1e-06
0.072199 0.698467 1e-06
0.0749229 0.7 1e-06
LINES 2 68
6 0 1 2 3 4 5
60 6 7 8 9 10 11 12 13 14 15 16 17 18 19 20 21 22 23 24 25 26 27 28 29 30 31 32 33 34 35 36 37 38 39 40 41 42 43 44 45 46 47 48 49 50 51 52 53 54 55 56 57 58 59 60 61 62 63 64 65
POINT_DATA 66
 FIELD attributes 1
p 1 66 float
4.56552e+15 4.56552e+15 4.56552e+15 4.56552e+15 4.56552e+15 4.56552e+15
2.55218e+15 2.53033e+15 2.50691e+15 2.48348e+15 2.46005e+15 2.43369e+15 2.32598e+15 2.2584e+15 2.15682e+15 2.06487e+15 2.04811e+15 1.89761e+15 1.77151e+15 1.69042e+15 1.60896e+15 1.55778e+15 1.51389e+15 1.46907e+15 1.42348e+15 1.3773e+15 1.3027e+15 1.29665e+15 1.29089e+15 1.28539e+15 1.28049e+15 1.29219e+15 1.31081e+15 1.33656e+15 1.38011e+15 1.48627e+15 1.53397e+15 1.58474e+15 1.63823e+15 1.68481e+15 1.71178e+15 1.76531e+15 1.83928e+15 1.91582e+15 1.99518e+15 2.07445e+15 2.11709e+15 2.16398e+15 2.20793e+15 2.24721e+15 2.28408e+15 2.2892e+15 2.28606e+15 2.27416e+15 2.25402e+15 2.20247e+15 2.17829e+15 2.15408e+15 2.12985e+15 2.10559e+15 2.08156e+15 2.00455e+15 1.92753e+15 1.85051e+15 1.77348e+15 1.69626e+15
