/*--------------------------------*- C++ -*----------------------------------*\
| =========                 |                                                 |
| \\      /  F ield         | OpenFOAM: The Open Source CFD Toolbox           |
|  \\    /   O peration     | Version:  v1912                                 |
|   \\  /    A nd           | Website:  www.openfoam.com                      |
|    \\/     M anipulation  |                                                 |
\*---------------------------------------------------------------------------*/
FoamFile
{
    version     2.0;
    format      ascii;
    class       surfaceScalarField;
    location    "0.22";
    object      phi;
}
// * * * * * * * * * * * * * * * * * * * * * * * * * * * * * * * * * * * * * //

dimensions      [0 3 -1 0 0 0 0];
oriented        oriented;


internalField   nonuniform List<scalar> 
11117
(
-0.000153051
5.81277e-05
7.12814e-05
2.36417e-05
1.43403e-05
0.000204558
-9.06492e-06
-0.000209833
-0.000137681
0.000195485
-9.31047e-06
-4.84937e-05
1.84923e-05
-7.91011e-05
7.51277e-05
-1.45189e-05
7.53429e-05
0.000389643
-0.000362511
-0.000102475
-2.89358e-05
5.50435e-06
-0.000189453
0.000212885
0.000854816
0.000213198
-0.000849019
-0.000218996
0.00135974
0.000205172
-0.00113289
-0.000432027
0.00126856
0.00025968
-0.000735839
-0.000792399
0.000142546
-0.000105556
-3.62781e-05
-7.11106e-07
-0.000931478
0.00102215
0.000333681
-0.000424357
-0.000309181
-6.95072e-05
0.000210216
0.000168472
0.000226831
-0.000100871
-0.000104311
-2.1649e-05
0.000588093
-0.000561552
0.00020821
-0.000234751
0.000438676
-0.000319528
0.000268933
-0.000388081
-3.21888e-05
8.3913e-05
-8.06911e-05
2.89669e-05
-8.88876e-05
0.000245963
-4.96262e-05
-0.00010745
-9.30935e-05
0.000111298
0.000327178
-0.000345383
0.000317854
0.00069852
-0.000577698
-2.82884e-05
1.50419e-05
0.000168374
-0.000155128
-0.000307455
0.00016466
4.82311e-05
9.45642e-05
-2.85556e-05
1.92985e-05
0.000252593
-0.000243336
-0.000101987
-0.000232896
0.000164498
0.000170385
0.000191643
0.000184743
-0.000118468
-0.000257919
-0.000275928
-0.000297757
0.000331963
0.000241721
0.000876392
-0.000910534
0.000277499
-0.000243356
0.000257354
-0.000348697
0.000900455
-0.000809112
-0.000866957
0.0008475
-0.000480655
0.000500112
-6.63118e-06
0.000176933
0.000599192
-0.000769494
-5.68934e-05
2.71177e-05
-2.08773e-05
5.0653e-05
-0.000110781
-5.28387e-05
0.000140796
2.28236e-05
-4.97866e-05
-0.000286094
0.000219003
0.000116878
-0.000242443
-0.000540593
0.000527988
0.000255048
-0.000159096
0.000174512
-8.78476e-05
7.24324e-05
7.39175e-05
0.000328346
-0.00037929
-2.29733e-05
0.000223911
2.80901e-06
-0.000128137
-9.85827e-05
0.000600194
-0.000830605
0.00101113
-0.000780719
0.000344602
-0.000363654
-0.000129799
0.000148851
3.46389e-05
2.12298e-05
-6.63642e-05
1.04956e-05
-8.00059e-05
0.000199022
-0.000252607
0.000133591
-0.000317591
5.60262e-05
-4.46923e-05
0.000306257
2.43755e-05
-5.57115e-06
4.79291e-05
-6.67335e-05
0.00103146
0.000906462
-0.000910658
-0.00102727
-0.000304168
4.14455e-05
-3.3033e-05
0.000295755
0.000504782
0.000196492
-0.000383419
-0.000865518
0.000529851
-0.000114718
0.000450386
-0.000788262
0.000662647
-0.00022642
0.000352034
0.000487394
-0.000585055
0.000325659
-0.000227997
-0.00015009
0.000104101
3.2331e-06
4.27552e-05
-3.24232e-05
1.31879e-06
3.11045e-05
2.5469e-05
4.27626e-05
-6.82316e-05
-0.000571948
-0.001483
0.000764009
0.00129094
-0.000181485
0.000223004
-6.58957e-05
2.43768e-05
0.000469408
-0.000433002
0.000129617
-0.000166023
8.24742e-06
-8.24742e-06
0.000290455
0.000120766
-0.000383709
-2.75121e-05
0.000406518
0.000119809
-0.000501931
-2.43959e-05
-0.000349678
-0.000125777
0.000465659
9.79638e-06
0.000898849
0.000116283
-0.00138811
0.000372977
-0.000368681
0.000722515
0.000522557
0.000862648
-0.000875
3.69705e-05
-2.46183e-05
0.00024766
-0.000133485
-0.000116534
2.35915e-06
-0.000104929
-4.5233e-06
-1.32865e-06
5.52556e-05
1.3267e-05
-0.000118309
0.000137183
-0.000161905
-0.000217722
1.5184e-05
-0.000194259
0.000153237
2.58373e-05
0.000204398
3.03134e-05
1.12433e-05
-0.000245955
4.39509e-05
-5.99327e-05
1.59817e-05
-0.000286133
-6.26202e-05
0.000245456
0.000103297
3.77453e-06
8.14729e-05
6.17755e-07
-8.58652e-05
0.000833541
-0.000357046
-0.00104844
2.31629e-05
0.000144669
3.65659e-05
-0.000264931
-0.00134847
0.00137997
0.00023343
0.000217376
-0.000461369
0.000279477
-3.54842e-05
-0.000288603
-9.06238e-05
-0.000460721
0.000267121
0.000866299
-0.0006727
-2.89156e-05
2.84294e-05
4.86158e-07
-0.000879564
-0.00016243
0.00013146
-0.000298528
5.60592e-06
-1.1246e-05
-1.86795e-05
-1.69781e-06
2.03773e-05
4.16166e-05
6.92704e-05
-5.98099e-06
-0.000104906
0.000125339
4.83589e-05
-1.07748e-06
-0.00017262
-0.000233597
0.000209822
0.000143254
-0.000119479
-8.49353e-05
-0.000331066
0.00021235
0.000203652
-0.000153526
0.000219031
0.00012818
-0.000193686
3.41662e-05
-0.000181683
0.000147517
-1.82867e-05
-0.000458239
0.000476526
2.66665e-05
-0.000550999
0.000524333
-3.34359e-05
3.7202e-05
0.000118229
-0.000121995
-0.000100879
-1.76948e-05
-0.000112992
0.000231565
0.000505873
-0.000122035
6.05967e-05
-0.000444435
0.000539305
4.97435e-05
-5.93884e-05
-0.00052966
0.000644871
7.29007e-07
2.23756e-05
-0.000667975
-0.000794724
4.37121e-05
-3.43838e-05
0.000785396
-0.000336711
2.92835e-06
5.34268e-06
0.00032844
-2.78676e-05
0.000228935
-0.000310446
0.000109378
0.000568266
1.09585e-05
-1.63518e-05
-0.000562872
0.0005345
6.58213e-05
-1.81185e-05
-0.000582203
0.000527689
4.09157e-05
-2.76765e-05
-0.000540928
0.000835833
5.35718e-05
-2.67568e-05
0.000374964
6.73627e-05
-0.0004008
-4.15263e-05
-8.77035e-05
7.22146e-05
1.36207e-05
1.8682e-06
0.000315382
-0.00038795
-0.00119716
0.00126973
0.000492598
0.000134159
-0.000555685
-7.10708e-05
-9.82475e-05
0.000434742
-0.000332371
-4.12279e-06
-0.000382292
-0.000293275
0.000375241
0.000300326
5.90445e-05
-7.39839e-05
0.000199181
-0.000184242
1.07958e-05
-2.86526e-05
4.79581e-05
-3.01013e-05
-0.00018673
9.76615e-05
2.38362e-05
6.52324e-05
-0.000276861
1.01063e-05
-3.17725e-05
-1.5777e-05
-1.17796e-06
9.86869e-05
-8.1732e-05
0.000349274
-0.000322864
-0.000162662
0.000136252
-0.000403911
0.000331183
-0.000158577
0.000231305
5.65109e-05
-4.65957e-05
3.05004e-05
-4.04157e-05
4.71395e-05
0.00035329
-0.000395847
-4.58251e-06
0.00017031
0.000754572
-0.000858349
-6.65324e-05
-0.000208009
-0.000249293
0.000362765
9.45367e-05
0.000116824
-0.000105714
0.000237932
-0.000249042
3.07742e-05
-1.72879e-05
-0.000888486
-0.00103694
8.26877e-05
0.000956283
-2.03153e-06
0.000434428
-0.000327993
1.03888e-05
0.000327674
-0.000280376
-4.7298e-05
0.000159124
-0.000137134
0.000143872
-0.000165862
-0.000466108
-0.000861569
9.60143e-05
-2.1455e-05
-2.40013e-05
-5.0558e-05
-0.000356707
0.000411273
0.000624846
-0.000679412
-0.000400866
0.000458997
-0.000397997
0.000339866
1.48412e-05
0.000185373
-0.000169695
-3.05188e-05
0.000824828
-0.00122778
-0.000142264
0.000545211
0.000129957
-7.87908e-06
6.40701e-06
-0.000128484
0.000205279
-0.000194611
-0.000119129
0.000108462
-0.000323259
0.000510465
6.72364e-05
-0.000254442
0.000166681
-0.000177315
-4.80985e-05
5.87328e-05
-0.000822636
0.000107023
-0.000163951
-0.000305858
0.000371088
-0.000179177
0.000113947
0.00010209
-0.000210714
-0.000210904
-0.000455026
4.43943e-05
8.32682e-06
0.000402305
8.0685e-05
0.000198285
-3.13097e-05
-2.50811e-05
-2.59709e-05
7.61635e-06
4.34357e-05
5.98032e-05
-7.1293e-05
-7.10461e-05
8.25359e-05
0.000345535
-0.000343985
-9.274e-05
9.11905e-05
-0.000154424
-0.000287951
0.000358332
8.40434e-05
-2.16847e-05
-4.18479e-05
0.000112115
-4.85823e-05
0.0002276
-0.000180732
-9.82741e-05
5.14062e-05
-1.60662e-05
-1.76529e-05
1.31701e-05
2.05489e-05
-1.10752e-05
0.000275402
-0.000134741
-0.000129585
0.000176349
0.000129426
-0.000146651
-0.000452574
0.00101481
-0.000583119
2.0883e-05
5.44068e-05
0.000445132
-5.71666e-05
-0.000442372
-8.08563e-05
1.12405e-05
5.32804e-05
1.63353e-05
0.000952264
0.00046358
-0.000630945
-0.000784899
-5.02038e-05
4.00625e-05
-0.000180914
0.000191055
-0.000124422
0.000228087
-0.000485957
5.41601e-05
-9.43341e-05
-4.42896e-05
8.44636e-05
-0.000511259
-0.000393863
0.000595248
0.000309874
0.000724602
-0.000198607
-0.000525995
-5.02964e-05
-0.000221725
7.86024e-05
0.000143123
0.00119754
-0.000295078
-0.000902465
0.000191077
-0.000398541
0.000159117
0.000239424
-2.09117e-06
-0.000443087
0.000445178
-8.55697e-05
0.000165692
-8.01222e-05
4.57183e-05
-0.000655352
0.000609634
-0.000581433
0.00062048
-3.90473e-05
-0.000626224
0.0006093
1.69243e-05
0.00056661
3.12166e-05
-0.000597827
0.00023985
0.000135692
-0.000375543
3.41329e-05
-4.99099e-05
0.000211825
0.000137449
0.000104691
-0.000140117
3.54254e-05
0.000226963
0.00014544
-0.000372403
-0.000238689
0.000283963
-4.52744e-05
0.000175816
-0.000114415
-6.14017e-05
0.000223606
-0.000239146
1.55409e-05
0.000136535
-0.000330068
0.000193533
-0.000533402
0.000322894
0.000210508
0.0003633
-0.00068157
0.00031827
-0.000173443
0.00014164
3.18036e-05
0.00107521
-0.00109918
2.39785e-05
9.86004e-05
-3.78875e-05
-6.07129e-05
-0.000153156
0.000199605
-4.64483e-05
0.000186669
-0.000101157
-8.55122e-05
-9.44696e-05
0.000202657
-0.000108187
-0.000398426
0.000372207
2.62195e-05
-0.000116945
0.000141047
-2.41028e-05
-0.000123929
3.62255e-05
-0.000336156
0.000229117
0.00010704
-0.000179682
0.000177315
2.36697e-06
-1.16024e-05
8.3817e-05
-0.000237804
-0.000693674
-0.000236638
-4.9456e-05
-0.000343098
-0.000197495
2.42811e-05
-7.71198e-05
-0.00028075
-4.25086e-05
0.00023969
-3.44114e-05
-0.00106994
0.000290565
0.00077938
-6.92438e-05
4.7248e-05
2.19958e-05
0.0004464
0.00025212
-0.00111375
0.00142913
-0.000607784
0.000212138
0.000395646
-0.00115461
-0.000328397
0.000265095
0.000222299
0.000243986
-0.000459471
0.000215486
-0.000645351
-0.000142911
-0.000831619
-3.3899e-05
-7.50284e-05
1.3608e-05
6.14204e-05
3.61452e-05
-3.05769e-05
4.69736e-05
-5.25418e-05
-0.000106241
5.86753e-05
0.000631034
-0.000583468
-0.000825576
0.000977849
0.000341802
-0.000494075
-0.000116524
2.94404e-05
0.000293478
-0.000206394
-0.0011901
0.00114637
-5.29791e-05
9.67087e-05
0.000398561
-0.000319216
-3.3627e-05
0.000274729
-0.00021334
-6.34803e-05
-1.86693e-05
1.00898e-05
-7.8159e-05
8.67386e-05
-0.00037534
0.000610645
0.000429614
-0.000664919
-0.000215817
0.000296597
0.0004096
-0.00049038
-0.000276538
0.000270501
0.000172717
-0.000232769
4.53378e-05
0.000686882
-0.000499451
0.000836745
-0.000722695
-0.000157045
4.29943e-05
-0.00140553
-3.57117e-05
0.000251142
1.23872e-05
-2.89594e-05
1.67263e-05
-1.54084e-07
0.000330609
-0.00011121
-1.17367e-06
-0.000218225
0.00088577
-0.000133879
-0.000144536
-0.000607355
-0.000388371
-0.000277174
4.92623e-05
0.000616282
-8.36958e-05
5.42135e-05
0.00128036
-0.00125088
-5.48904e-05
4.24091e-07
5.44663e-05
3.84722e-05
0.000145641
-4.94414e-05
-0.000134672
0.000397486
-7.70019e-06
4.30259e-06
-0.000394088
0.000234196
-0.000163299
-0.00030061
0.000229712
7.70627e-05
-8.76532e-05
0.000105042
-9.44517e-05
8.26196e-05
-0.000121848
-0.000226592
0.000265821
-2.25065e-05
3.08866e-05
-0.000239788
0.000231408
-6.18945e-05
0.00015673
-0.000188574
9.37386e-05
0.000127378
-0.000150614
1.09379e-05
1.22979e-05
2.22411e-05
2.50823e-05
-0.000977194
0.000929871
-7.15283e-05
2.14611e-05
-0.000782925
0.000832992
0.000901293
-0.000905096
7.18438e-05
-6.80408e-05
-1.79902e-05
-6.89549e-05
-0.000150107
0.000237052
6.93427e-05
-0.00038268
-9.27751e-06
0.000322615
-0.00021279
-2.55479e-05
0.00015094
8.7398e-05
0.000208056
-0.000173925
-4.23222e-05
8.19117e-06
3.12885e-05
0.000553318
-0.000298041
-0.000286565
-4.06994e-05
4.99521e-05
4.49075e-05
8.10401e-05
-0.000112547
-9.19229e-06
6.28421e-05
-9.02512e-05
2.62311e-05
-0.000210141
0.000238518
-0.000305698
0.000277321
0.000458442
-0.000443031
3.89954e-05
4.17881e-05
-0.000520375
0.000478587
3.0925e-05
-0.000266623
0.000235698
3.77747e-05
-0.000426767
0.000388992
0.000141944
-0.000156145
2.93856e-05
-0.000370849
1.65079e-06
5.32704e-05
-5.19196e-05
-3.00156e-06
-3.31644e-05
4.05409e-05
-0.000977577
0.0009702
-0.000184371
-0.000478837
0.000528441
0.000134767
0.00107862
-0.000460261
-0.0008257
0.000207343
-0.000662768
0.00118229
-0.000881794
0.000362268
-1.48012e-05
1.67124e-05
3.4234e-05
0.000197571
8.28773e-05
-0.000184434
-0.000664807
-7.8879e-05
0.000324665
0.000419021
-2.17553e-05
0.000432124
-1.18072e-05
3.41776e-05
0.000310187
-6.96353e-05
1.88566e-05
7.18614e-05
-5.30934e-05
-3.76246e-05
-0.000536667
0.000443713
9.29549e-05
2.08037e-05
2.20143e-06
-2.30051e-05
0.000143367
-0.000136077
-8.81466e-05
0.000108195
-0.000413494
0.000365121
-5.98222e-05
-0.000362648
0.000161678
-0.000828647
-4.42091e-05
4.56928e-05
0.000827164
-0.000475765
3.82655e-05
-8.33387e-05
0.000520838
0.000159743
-6.48662e-05
0.000189157
-0.000284034
-0.000274223
-0.000176252
0.000210972
0.000239503
-0.000543268
0.000734738
0.000572539
2.96478e-05
-0.00108713
0.00111357
-5.60859e-05
7.20722e-05
0.000418825
-0.000256701
-5.08217e-05
0.000462469
5.77611e-05
-0.000372747
-1.88912e-05
0.00037885
1.27882e-05
-9.00472e-05
0.000130435
-1.01707e-05
-3.02167e-05
7.59713e-05
-8.52851e-05
-7.30697e-05
8.23835e-05
-7.56493e-05
-3.92365e-05
4.5642e-05
-0.000351829
-6.65018e-05
0.00032304
9.52904e-05
-7.94573e-05
2.716e-05
-0.000265293
4.01909e-05
-1.59704e-05
1.55003e-07
-0.000183423
0.0001127
-9.28327e-06
-0.000802403
5.6624e-05
0.000808292
-6.25128e-05
-0.000457229
-1.75911e-05
0.00046375
1.10701e-05
-2.63237e-05
0.000555762
-0.000539455
1.00168e-05
-4.88383e-05
0.000656444
-0.000636452
2.88472e-05
-0.000290381
0.000144921
-0.000160399
-0.000184154
4.72715e-05
0.00014409
-7.20761e-06
-0.000507978
0.000240282
0.000202004
6.56922e-05
-0.000160317
0.000110072
-3.98106e-06
5.42263e-05
0.000428361
-0.000369052
-7.83334e-06
-5.14752e-05
-0.00098292
9.67903e-05
0.00097018
-8.40504e-05
-0.000135832
0.000605824
-0.000659894
0.000189902
0.000318798
-0.000274221
-0.000185133
0.000140556
7.23336e-05
-0.000116735
-3.45966e-05
7.89978e-05
8.32691e-06
3.3489e-05
6.72945e-05
-0.00010911
2.52411e-05
7.5859e-05
-4.30544e-07
-0.00010067
6.53676e-05
-0.000118031
0.000178002
-0.00056152
0.000532574
3.29557e-05
4.08252e-05
-3.21644e-05
0.000176404
-0.000148545
3.4296e-06
-0.000228744
-0.000171044
0.000259403
0.000140384
4.18348e-05
-1.69893e-05
0.000350069
-0.000374914
-6.57145e-05
-7.36983e-06
-1.69629e-05
0.000249074
-7.90636e-05
-0.000232631
0.000875828
-0.000506932
0.000607086
-0.000358248
-0.000200229
0.000138247
5.45307e-06
9.38534e-05
8.93048e-05
-0.000188611
0.000234833
-0.000625243
-0.000435167
2.44597e-05
6.39854e-05
-3.19342e-05
-0.000427553
0.000473055
0.00101286
-0.00105836
0.000851481
-0.00017125
-4.86731e-05
-0.000631558
1.40667e-05
-3.20704e-05
2.87994e-05
-0.000420576
0.000525673
0.000742403
-0.000242757
4.52836e-05
1.07434e-05
9.29124e-05
-0.000326907
0.000227363
-0.000373137
-0.00079465
0.000958363
0.000209424
0.00010957
-0.000354763
0.000545164
-0.00029997
-0.000186852
0.000110204
-2.90655e-05
5.53177e-05
0.000465157
5.81763e-05
-7.95599e-05
2.68296e-05
-5.44607e-06
4.72262e-05
7.63382e-07
-2.67598e-05
-3.80968e-05
4.47165e-05
0.00027574
-0.00028236
-6.94911e-05
-5.39197e-05
0.000865704
0.00015645
-7.93993e-05
-8.22811e-05
0.000120534
2.02619e-05
0.000191831
9.50737e-05
-3.71369e-05
-4.98288e-05
8.8301e-05
-5.14368e-05
2.72257e-05
3.89988e-05
0.000190118
1.82003e-05
8.73721e-05
0.000169373
3.45477e-05
-0.00046133
-5.35604e-05
0.00024023
-4.73125e-05
-4.71571e-05
-3.79326e-05
-0.000115224
-0.000633061
6.83668e-06
-7.71612e-05
-0.000286493
-6.37194e-06
-5.99923e-05
5.00136e-05
-6.10889e-05
-0.000140441
-3.70328e-05
-7.68761e-05
-6.63254e-06
0.00014768
0.000288115
0.000158285
0.000503956
0.000786985
0.000247033
0.0002898
-1.26704e-05
-5.56275e-05
3.7721e-05
-8.20382e-05
-0.000122984
7.52233e-05
0.000558147
-0.000589897
2.62348e-05
5.51542e-06
4.78594e-05
0.00065495
-0.000489612
-9.76017e-05
0.00102403
-0.000721252
-0.000211257
0.000377577
6.34116e-05
-0.000229732
0.000240967
0.000288884
0.000218311
0.000444337
-9.42666e-05
-0.000490789
-0.000117335
0.000156432
-0.000161182
0.000122085
-9.13907e-05
1.21017e-05
8.09551e-05
-1.66603e-06
-0.000531033
-0.000114968
0.000434744
-2.98193e-05
3.03805e-05
1.73464e-05
-1.79076e-05
3.38208e-05
-8.73538e-05
4.70424e-05
6.49048e-06
0.000450461
-7.27378e-05
3.08828e-05
-0.000261371
0.000520944
8.03758e-05
-0.000419941
0.000746083
-0.000334379
0.000480992
-0.000496292
-1.45386e-05
7.6161e-05
-6.96224e-05
8.00005e-06
-5.78423e-05
-6.42005e-05
5.46704e-05
6.73724e-05
-0.000119912
-8.97519e-05
9.23288e-05
-0.000625198
0.00103045
-0.000735784
0.000330532
-2.92688e-05
0.000268804
-1.56242e-05
9.03877e-05
0.000178927
-0.000195398
8.60016e-05
-9.3012e-05
-0.000152086
-0.000964787
0.000792851
0.00034887
-0.000126999
-8.65098e-05
0.000125776
8.77335e-05
0.000108017
-0.000161774
0.000141721
-8.79638e-05
-2.58226e-05
0.000592433
6.31259e-05
0.000176725
0.000154885
-9.69041e-05
-1.04081e-06
1.23842e-06
8.87499e-05
-8.89476e-05
5.07955e-05
-3.70855e-05
2.88884e-05
-4.25984e-05
-0.000161626
0.000258436
0.000201099
-0.000324381
9.6746e-05
0.000319745
-9.21093e-05
-0.000186796
0.000120965
0.000224948
-0.000414165
0.000184274
-0.000585724
0.00131766
9.76644e-05
-0.0012775
-0.000137827
0.000161529
-0.000143335
-0.000179529
-0.000706586
0.000181226
0.000630669
-0.00010531
0.000189053
0.000161136
-0.000121499
-0.00022869
9.67648e-05
-0.000274834
0.000149808
2.82612e-05
9.91529e-05
-0.000201706
0.000104749
-2.19581e-06
-0.000271641
0.000755372
6.62829e-05
-0.000550014
-0.000212075
0.000642593
2.3298e-05
-0.000453816
0.000518867
2.10617e-05
7.02113e-05
-0.00061014
-6.8669e-05
1.72244e-05
9.91392e-05
-4.76946e-05
8.50025e-05
0.00014196
-2.14963e-05
9.50012e-05
0.000171951
0.000495744
9.0989e-05
0.000519065
9.55442e-05
0.000469919
0.000131323
0.000434102
-2.86878e-05
-6.04383e-05
1.90118e-05
7.01143e-05
0.000223114
-0.000223371
0.00015669
0.000461361
-0.00049063
0.000218329
-0.000127941
-0.000206861
0.000292863
-3.49346e-05
3.79653e-05
-4.96264e-05
-1.29794e-05
-0.000207261
0.000230642
-1.04018e-05
-5.89954e-05
-0.000268056
0.000322662
4.3891e-06
8.59422e-05
0.00113309
-0.000959355
0.000968904
6.45636e-05
-0.00101688
-1.65904e-05
-0.000124524
0.000168519
9.93718e-05
0.00013795
-0.000266915
-7.08528e-05
0.000199817
0.00054676
-0.000258872
0.000352162
-0.000301299
0.000116048
0.000193689
7.48124e-05
-4.58306e-05
-0.000134181
-0.000954851
0.00092741
-0.000400112
0.000112039
-9.60106e-05
-4.20089e-05
-0.00038411
3.25697e-05
0.000393549
-9.02047e-05
0.000845411
1.24597e-05
-0.000767666
-7.28686e-05
0.000382293
2.28412e-05
-0.000332266
1.99437e-05
-2.58459e-05
-1.28347e-05
1.87369e-05
0.000221964
-0.000313991
0.000279691
-0.000187664
4.95552e-06
-0.00011019
0.000133649
-2.84142e-05
-4.85591e-05
-1.26973e-06
-0.000183183
0.000221864
-7.93264e-05
4.0646e-05
-0.000260418
-6.32151e-05
0.000197357
0.000126276
-0.000190217
0.000258818
-0.000120727
5.21266e-05
0.00079984
7.07669e-05
-4.11033e-05
-0.000829503
4.01553e-06
6.71808e-05
-5.23397e-05
0.000517295
-3.53683e-05
3.09202e-05
-0.000512847
0.000244401
-0.00012779
-0.000107382
-9.22889e-06
-0.000413063
-2.37737e-05
-1.00428e-05
0.00044688
-0.000605907
-9.60299e-05
7.94517e-06
0.000693992
-0.000168902
6.38996e-05
0.000194618
-8.96151e-05
-0.000224869
8.10284e-05
0.000217033
-7.31918e-05
-0.000128869
3.05614e-05
9.18453e-05
6.46185e-06
7.03479e-05
-6.12027e-05
-9.93964e-05
0.000799006
7.23761e-05
-3.55492e-05
0.00013817
2.6466e-06
-1.08603e-05
-0.00124636
-0.00015
0.00121989
0.000176471
0.00026043
0.000440028
-0.000358509
-0.000341949
8.9692e-05
-5.07774e-05
1.96239e-06
-4.0877e-05
6.55117e-05
-0.000108577
0.000286549
-0.000243484
5.82655e-05
-5.425e-05
-9.69544e-05
5.60582e-05
-0.000698205
0.000739101
0.000149792
-0.000124714
2.92326e-05
-5.43109e-05
-0.000440044
0.000427427
1.6383e-05
-3.76564e-06
4.66114e-05
-0.000249969
0.000388276
-0.000184919
0.000187534
-0.000164794
-1.72877e-05
0.000994626
-0.000869625
0.000139295
-0.000264296
-0.000390556
-0.000747017
0.000656918
-0.000225739
-0.000260884
0.000204868
0.000281754
-0.000222007
-3.67826e-05
3.39204e-05
-0.000261326
0.000175511
-4.30533e-05
-0.000140583
-4.47774e-05
1.64581e-05
0.00045613
-0.000419778
-0.00021972
0.000183368
4.27064e-06
-0.000453427
0.000450308
-1.15181e-06
4.26183e-05
5.26927e-06
0.000267031
-0.000503157
0.000569807
0.00113317
-1.83384e-05
3.1541e-05
3.49221e-05
-5.54024e-05
0.000406284
-0.000385803
-4.24884e-05
9.25021e-05
0.000131737
-0.000213439
0.000114657
0.000125146
-0.000241286
0.000181507
7.58159e-05
0.000124895
-0.000182219
-0.000221964
0.000110928
0.000469001
4.47589e-05
0.000212982
8.89109e-05
-0.00011284
-5.154e-05
6.14333e-05
0.000115323
0.00011966
-0.000130291
-0.000143005
-8.38084e-05
0.000106902
-1.26741e-05
2.30433e-05
-2.21768e-05
1.18075e-05
-0.000842826
-9.52274e-05
0.000231468
0.000497314
-0.000516771
-3.88479e-05
5.83049e-05
-8.08345e-05
-0.000893977
2.12654e-05
0.000953546
-6.22431e-05
-0.00100498
0.00103317
3.40496e-05
-6.31757e-06
-3.50974e-06
5.70535e-05
-0.000143006
-0.000233881
0.000252364
0.000166476
0.000125158
-0.000181786
-0.000109848
0.000132815
8.9518e-05
-0.000116688
-0.000105646
-0.000823304
-0.000292038
-0.000199286
-2.78823e-05
-5.85512e-05
0.00028572
0.000112767
3.63633e-05
-0.000129298
-1.98323e-05
0.000219333
-2.9445e-05
-1.21613e-05
-4.20243e-05
-1.15289e-05
-0.000120635
-6.84637e-05
0.000131257
9.00676e-05
-7.76094e-05
-2.65086e-05
1.40504e-05
2.24676e-05
6.69268e-05
-6.94633e-05
-1.99312e-05
-7.00871e-06
0.000459761
3.56875e-07
-0.00045311
0.000194279
0.000726796
-0.000100792
-0.000820283
2.12196e-05
5.48552e-05
1.39927e-05
2.86411e-05
-0.00109046
0.00109051
-2.86875e-05
0.000301801
-0.0016379
9.01513e-06
0.00132709
0.000244912
6.09102e-05
-6.92901e-05
-0.000236532
0.00027046
2.59702e-05
-6.21515e-05
-0.000234279
0.000458148
-0.000161555
9.30498e-05
-7.88461e-06
-0.000143941
-0.000138556
1.50709e-05
6.99054e-05
3.30342e-06
-8.82798e-05
-0.00018423
0.000184671
-3.72221e-06
3.2807e-06
0.000142703
-0.000121668
-0.000247331
0.000226296
-0.00075722
0.000253601
0.000489266
1.4353e-05
0.000182332
-4.00058e-05
7.74613e-05
-0.000219788
0.00025621
-7.86326e-05
0.000102825
-0.000280403
0.00017673
-3.10832e-05
7.69141e-05
-0.000222561
-1.29886e-05
-5.20207e-05
6.50094e-05
0.000324429
-0.00126899
-6.57655e-05
8.00864e-05
0.000122769
-0.00013709
-7.22092e-05
-0.000461347
2.52392e-06
-0.000219949
0.000181849
2.36816e-05
1.44186e-05
0.00104157
-0.00146642
0.00018514
0.000239713
0.000515451
1.01501e-05
1.2049e-05
-0.00053765
-4.8492e-06
-1.61086e-05
0.000159128
8.99624e-05
9.37239e-05
-0.00100442
0.000820739
-6.24713e-05
-0.00020129
0.000291628
-2.78666e-05
8.31014e-06
0.000173567
-0.000228409
4.65313e-05
-4.1268e-05
-0.000133473
0.000188454
-1.37139e-05
0.000557672
-0.000370445
-3.1078e-05
0.000186136
-0.000193155
3.56771e-05
3.74586e-05
-1.49594e-05
0.00084843
-0.000582645
4.55549e-05
-0.000311339
-9.41932e-05
0.000264818
5.69749e-05
-5.02508e-05
6.17218e-05
-3.62735e-05
-0.000207814
3.83298e-05
0.000205758
0.000363166
1.20138e-05
-0.000299035
-7.61453e-05
1.1419e-05
-2.14769e-05
-8.57485e-05
9.58063e-05
-0.000254803
0.00018224
-0.000222694
-0.000188289
-2.39008e-06
0.000197579
4.22444e-06
-0.000199413
-9.5759e-05
-8.85875e-05
0.000110276
-6.94638e-05
0.000135917
5.3265e-05
-4.22206e-05
0.000245166
3.44387e-05
-1.99365e-05
0.00016783
8.57413e-05
-0.000166437
0.00011324
-3.25447e-05
0.00121078
-0.00121786
-0.000257852
5.84292e-05
-0.000650126
0.000194809
0.000563513
0.000250543
-0.000234017
-6.67294e-05
0.000293581
-0.000143534
0.000407626
0.000304444
0.000206756
-0.000293824
2.52212e-05
-2.06254e-05
-9.07746e-05
8.61788e-05
0.00010364
-3.10945e-05
-0.000140438
6.78923e-05
0.000162331
-0.000198604
4.10396e-05
-8.77686e-05
7.27898e-05
-2.60607e-05
0.000748352
9.38391e-05
-4.31855e-05
-1.08385e-06
8.46293e-05
-0.000301403
0.000252565
-0.000523641
0.000497318
-0.00023184
9.60087e-05
-0.00114155
0.00114336
9.40946e-05
-9.5904e-05
8.8049e-05
0.000630529
-1.36861e-06
-0.000173728
0.000100608
1.19164e-05
0.000432018
-0.000192678
0.000685668
-0.000903451
-0.000249177
0.00046696
-0.000584316
0.00021222
-4.4936e-05
0.000417031
-8.31188e-05
0.000157961
-0.000333284
0.000258441
-4.00571e-05
-5.19157e-05
-0.00106606
0.00115804
5.72043e-05
-0.000445865
0.000796844
0.000172522
-0.000843107
-0.000126259
4.55479e-05
-5.70915e-05
-2.3391e-05
0.000732429
-0.000778497
0.000177391
0.00050353
-0.000542474
0.000134488
0.000577483
-0.000526927
4.04321e-05
3.91893e-05
9.98078e-05
-2.623e-05
-0.00021318
1.43426e-06
0.000209356
0.000136045
-0.000145958
0.000114216
-0.000104303
0.000808053
-0.000652016
-0.000156788
7.50793e-07
0.000470512
-0.000408857
1.90983e-05
-8.07532e-05
6.00941e-05
0.00161195
-0.00127916
-0.000392882
-5.35468e-06
4.0501e-06
-6.51794e-05
6.6484e-05
-0.000994726
-0.000637545
0.00105598
0.000576287
9.48887e-06
-2.02691e-05
-2.01557e-05
3.0936e-05
0.000137642
-0.000250273
-0.000168938
0.000281569
-4.97505e-05
7.76706e-05
8.42759e-05
-0.000112196
0.000112517
-4.28795e-05
0.000678715
0.000407657
-0.000581971
0.000221454
0.000706517
-0.000960325
0.000424118
2.02791e-05
7.68234e-05
-2.19496e-05
4.78999e-05
5.00904e-05
-7.60407e-05
0.000520545
-5.77942e-05
0.000143073
-1.72554e-05
1.2772e-05
-4.52453e-06
0.000129698
-2.16141e-05
-0.000153198
4.51143e-05
0.00028285
0.000659167
-0.000501989
-0.000328193
-0.000280303
0.000424124
0.000483984
-0.000461015
-3.04876e-05
7.51825e-06
0.000398263
-1.93796e-05
-0.000217748
-5.77e-06
-2.51077e-05
-7.00975e-06
0.000226661
1.85621e-05
0.000126983
-3.89276e-05
9.73948e-05
0.000440949
-0.000555122
0.000114173
-0.000412419
0.000295405
-0.00130467
0.00142169
4.38836e-05
-4.76475e-05
-7.7493e-05
8.12569e-05
0.000225699
5.64473e-05
-0.000112187
-0.000169959
-0.000437695
-2.36809e-05
0.000600811
-0.000139434
0.000232195
-0.000189113
-0.000399789
-3.84832e-05
1.74536e-05
8.35917e-06
0.00021653
-0.000164078
0.000173247
8.5161e-06
-0.000190679
-2.06668e-06
-5.80489e-05
7.62649e-05
5.37793e-05
-7.19953e-05
0.00017495
-8.96854e-05
-7.45241e-05
-1.07401e-05
0.000105471
-1.43156e-05
0.000116901
3.61098e-05
2.08169e-05
-1.89615e-05
0.00011714
-8.36537e-05
0.000122054
-0.00015554
-7.46748e-06
-0.000137196
0.000178769
-3.41055e-05
8.96143e-05
-3.3167e-05
0.000150971
-7.68541e-05
0.000170796
0.00010959
-4.56579e-05
0.000206528
-0.000112927
0.00045771
0.000111347
-0.00054679
-0.000405442
0.000697982
0.00025425
0.000823063
-0.00104199
0.00035717
-0.000138239
-1.85472e-05
0.000417672
-0.000402152
3.02679e-06
-0.000182753
0.000449043
-0.000562755
0.000296465
0.000108549
-9.93033e-05
1.50092e-05
-2.42549e-05
-0.00135108
0.00118918
-0.000255928
0.000417829
0.000458524
-0.000377431
-0.000140106
5.9013e-05
5.58294e-06
0.000535566
-0.000532849
-8.3004e-06
-0.000386898
2.18341e-05
0.000159333
-0.00061682
0.000589691
-0.000132204
0.000140995
-0.000506932
0.000496302
-0.000130365
-0.000100462
-0.000760923
0.000861385
-2.74925e-06
-1.44972e-05
-1.82098e-05
3.54562e-05
1.55641e-05
-2.93555e-05
1.71493e-05
-3.35794e-06
-0.000145734
0.000136688
-2.0961e-07
9.25549e-06
0.00015537
0.000234997
-0.000247664
-4.95086e-05
8.92902e-05
-0.000105547
-0.000227694
3.00829e-05
0.000134696
6.29159e-05
-4.79074e-06
-1.74958e-05
2.52737e-05
-2.98722e-06
-2.79442e-05
5.33452e-07
0.000383539
-0.000356128
0.00121826
-0.00124081
-7.99632e-05
0.000102515
1.5927e-05
-5.11445e-05
1.26711e-05
2.56425e-05
-3.83136e-05
0.000425831
7.95589e-05
-0.000393112
-0.000112278
-2.56732e-05
-5.96706e-05
2.88243e-05
5.65195e-05
-8.62066e-05
0.000133323
-0.000466894
-8.19583e-06
-5.33144e-06
-0.000127056
-3.96406e-05
3.62533e-05
-0.000257939
7.35702e-06
1.07036e-05
-0.000240068
0.00055609
1.88379e-05
-1.91668e-05
0.000675628
2.53449e-05
-4.45294e-05
-0.00077242
7.57338e-05
-0.000105717
-0.000400412
-7.0129e-05
1.33124e-05
-0.00036253
-0.000164807
0.000175509
-0.00102371
-0.000175715
0.00029433
-0.000316684
3.81583e-05
-4.58555e-05
-0.000105256
-0.00124078
0.00126234
-0.000168125
-5.0847e-06
-0.000363458
-4.95226e-05
-5.43117e-05
0.000124638
0.000466966
-0.000164388
-0.000375447
0.000790644
-0.000210178
-0.000670671
3.95449e-05
8.56261e-06
-0.000253844
0.000205736
7.07811e-05
0.000492722
-7.9519e-05
0.00032735
-0.000326629
0.000116092
-0.000116814
2.57054e-05
-6.0992e-06
-0.000131366
0.00011176
2.15145e-05
-2.68945e-05
5.23536e-05
-0.000341186
0.000187595
0.000376705
-2.63614e-05
6.83514e-06
1.89144e-05
6.1186e-07
0.000245406
-0.000142178
0.000202435
-0.000305663
-0.000363457
-9.11105e-05
6.76699e-05
-5.53986e-05
6.16241e-05
8.66869e-05
-0.00015845
-7.96714e-05
9.51157e-05
0.000123851
-1.62255e-05
2.28087e-05
2.57124e-05
-8.07522e-05
8.1828e-05
-2.67881e-05
6.30343e-05
-1.91313e-05
-0.000121301
7.73981e-05
0.000354303
0.000401655
-0.000651264
-0.000104694
0.000212838
-0.000535557
-0.000224071
0.000300728
0.000193193
-0.000429016
-6.49056e-05
-0.000544226
0.000454856
5.44951e-05
3.48754e-05
0.00013559
0.000148514
-0.00104132
2.08906e-05
1.50114e-05
-7.43853e-05
0.000155222
-1.3217e-05
-0.000134648
3.27531e-05
-6.11554e-05
2.02064e-05
0.000900131
-2.35007e-05
-0.000767282
-0.000109348
4.81954e-05
5.59061e-05
-5.43617e-05
-1.45933e-05
-1.63595e-05
-3.56613e-05
-0.000104857
0.00113292
0.000154234
-2.9646e-06
3.24251e-05
5.62807e-05
-0.000498825
0.000392948
0.000631926
-0.000526049
0.000242474
-0.000259779
0.000359914
-0.000342609
-1.17405e-05
0.000464457
1.06068e-05
-0.000463324
7.39908e-05
-7.32972e-05
-5.72467e-05
5.65531e-05
-0.000286636
1.72687e-05
8.16493e-05
0.000187718
-0.00113313
0.00113139
9.54635e-05
-0.000769515
0.00051791
-0.000570128
0.000457793
-2.7145e-05
-0.000110043
8.17898e-05
0.000127388
-4.62647e-05
0.000860709
-0.00102883
-0.000263298
0.000431423
-0.00023024
-0.000989465
0.00119151
2.81935e-05
-0.00120081
0.00121972
-0.00012416
-0.000504947
0.000449687
0.000363996
-0.000308736
-0.000545115
0.000549418
-9.45258e-06
5.14961e-06
-0.000153466
-5.69292e-05
3.64702e-05
-0.000494067
0.000649893
-0.000561268
0.000167645
-1.56511e-05
-0.000159384
-0.000173424
0.000145043
0.000187765
-6.61278e-05
8.46042e-05
2.77266e-06
-1.12677e-05
-0.000308189
-0.000926473
0.000893793
-0.00027132
0.000304
0.00127228