/*--------------------------------*- C++ -*----------------------------------*\
| =========                 |                                                 |
| \\      /  F ield         | OpenFOAM: The Open Source CFD Toolbox           |
|  \\    /   O peration     | Version:  v1912                                 |
|   \\  /    A nd           | Website:  www.openfoam.com                      |
|    \\/     M anipulation  |                                                 |
\*---------------------------------------------------------------------------*/
FoamFile
{
    version     2.0;
    format      ascii;
    class       volScalarField;
    location    "0.61";
    object      k;
}
// * * * * * * * * * * * * * * * * * * * * * * * * * * * * * * * * * * * * * //

dimensions      [0 2 -2 0 0 0 0];


internalField   nonuniform List<scalar> 
1466
(
0.257181
0.913256
0.36826
1.96323
0.314187
0.705551
0.52679
0.756718
0.280635
1.08057
1.39844
1.0188
0.224747
0.38153
1.19648
2.35007
0.582322
1.03081
2.39606
1.46206
2.50837
2.42004
1.83822
1.26667
0.2553
0.630665
1.56216
1.88699
0.267458
1.49753
1.63187
0.666111
0.381467
3.28628
2.07687
1.00068
3.59184
0.586097
1.38836
0.320309
0.341396
1.12411
1.21319
0.352753
0.252375
0.336767
1.26753
0.194174
0.845637
0.205114
0.42071
0.936631
0.675066
0.277835
0.324008
0.279812
0.275528
1.2126
0.255735
1.10375
1.07235
0.504375
0.519715
1.05034
2.16339
0.686956
3.68308
1.35394
0.976926
0.331809
2.10317
1.31916
0.827699
0.272737
0.772849
1.63068
0.469174
0.485372
0.71138
1.7438
1.35059
2.05826
0.357062
1.65813
2.27322
2.836
2.60833
1.63028
1.34052
1.13298
0.807322
1.5168
2.29935
0.71236
0.503564
0.345227
0.840504
1.18159
0.283428
0.28868
0.568624
0.314803
0.16009
1.12032
1.39474
0.904864
0.716227
0.250629
1.27949
0.248271
0.951173
1.88205
0.426293
1.1022
0.962924
1.19103
1.27506
0.850038
0.461959
0.453992
2.33329
0.393892
0.393364
0.417027
0.239523
0.947888
1.22973
1.83552
1.23868
1.2403
1.19632
1.06635
1.71253
1.19692
0.880694
0.353475
0.352786
0.339506
0.374531
0.366965
0.254595
2.11805
1.77927
1.87845
2.48138
3.51832
0.668849
0.989518
1.55924
1.78484
0.891802
1.10792
1.11714
0.374205
1.43341
2.38244
1.66893
2.18971
0.735211
1.04737
0.647591
1.55567
1.39603
1.93911
2.89792
1.68047
1.54926
2.11925
2.20309
1.20703
2.422
0.497611
0.18725
1.02576
0.571833
0.275792
1.32811
1.71072
0.869044
2.16001
0.306259
1.07621
2.67932
0.153149
1.64997
2.93388
2.3691
1.17986
0.997376
0.943949
2.64018
1.14012
1.94568
3.85354
0.955734
1.07229
0.285286
2.42193
2.82665
3.88586
1.32629
1.39831
1.35226
1.24063
1.8382
2.7773
2.94196
0.911159
0.73037
1.39797
2.14928
1.99965
2.47987
2.22206
2.68122
1.91083
2.99164
2.4234
1.40848
1.42313
2.0127
1.21991
1.98608
1.2232
2.08974
2.20649
2.00151
0.20563
0.877029
1.1877
1.5717
1.73174
4.14662
3.75534
0.662636
2.44629
1.68494
2.01966
1.00592
2.57358
1.14917
1.71097
1.21257
3.96598
0.841159
1.44655
0.650647
0.272637
1.77095
1.09678
2.87133
2.34261
0.836011
1.34085
0.501057
0.961619
1.54657
0.394457
1.23396
1.58013
1.08445
1.63
1.16716
1.16621
1.55866
0.154272
0.628897
1.50017
2.37175
0.429912
1.63994
1.39116
0.79508
0.735513
0.840346
1.36349
1.04724
1.62269
2.34419
1.62737
1.09312
1.85757
2.02489
1.57322
2.34973
0.2132
1.69942
1.65384
0.42476
0.675618
0.739056
0.206431
0.268942
0.493864
1.28397
0.645763
1.89578
0.259869
1.68429
1.0769
0.345366
1.48095
0.176224
0.298953
2.23231
1.44651
1.27345
0.301928
1.15659
3.11926
0.966418
2.51013
1.43603
1.33153
1.58288
1.37909
3.18802
1.08917
0.339515
1.28237
0.601452
1.59367
1.34127
0.994171
2.19676
0.577427
0.229308
1.10492
0.886878
1.29522
1.74802
0.620547
0.440711
1.08661
2.30045
0.395337
2.4613
0.987829
1.64673
0.5707
0.325405
0.984098
0.47451
1.78368
1.27837
0.180049
1.51554
1.23915
1.06477
2.2098
0.778526
0.373523
1.51227
2.98986
2.79761
2.88019
1.60428
0.374475
0.323151
1.21747
2.86875
2.5668
1.93174
1.82465
0.43189
4.28766
0.879147
0.850209
0.881598
1.19264
1.09476
3.05472
1.3816
0.999615
0.461553
4.00221
1.4434
1.39698
0.588617
1.48885
2.60274
2.8341
2.8993
3.17791
3.36062
3.10749
0.429184
0.39013
0.263883
0.266958
1.75707
3.11537
1.70243
3.12282
1.29031
0.719237
0.263505
1.40079
1.12454
0.458823
0.224137
0.190623
1.48418
0.330194
1.26299
3.59008
1.62225
0.980784
3.63108
3.46278
1.12504
1.82904
2.08776
3.62508
1.65234
0.371905
0.323925
1.30575
1.38571
0.671792
2.94134
3.10401
0.732992
2.05986
0.720858
0.656868
2.20881
1.36046
0.668859
0.654191
1.91503
0.885808
1.21145
2.06239
1.28023
0.339881
0.399136
0.309053
0.335522
1.83612
0.404856
0.724855
1.88655
0.584457
1.27084
0.480219
0.679616
1.34913
0.360679
1.81656
1.38131
0.329229
0.858875
0.353911
2.49617
0.785813
0.352405
0.619659
0.812464
1.33975
0.299779
1.80577
0.370396
0.866301
1.66861
0.438632
3.19467
1.80519
1.8195
2.98127
1.80313
0.505313
1.81162
0.251707
1.36488
0.510492
0.285942
1.95933
3.50049
1.70426
1.13385
1.82185
2.10273
3.26099
2.56873
0.779186
0.73202
0.370078
3.3882
2.07726
2.87291
1.81437
0.515747
3.37346
1.12963
3.67161
4.15197
3.58076
1.4004
2.16723
3.43642
3.48124
0.964288
2.54277
0.524855
2.49391
1.66868
1.4792
0.82388
4.0501
1.26788
2.26529
1.48765
1.77527
4.21841
2.01772
2.42212
0.33206
0.599405
0.664606
3.68928
1.96935
3.7139
0.908713
2.0425
2.73378
2.24839
1.75832
2.88604
3.07328
0.452375
1.96172
3.30177
3.6164
3.90881
2.34686
0.972342
1.8267
2.48222
2.05861
0.726639
2.75047
0.612312
1.46916
3.00695
0.940676
3.09549
0.714203
3.28719
1.45778
2.75676
1.05665
0.782112
3.76842
1.86294
4.12169
4.08718
1.91884
1.11162
0.575797
2.98047
3.17066
1.1956
1.18906
0.492929
1.38755
3.5166
3.68383
1.90003
3.71224
2.28367
3.67033
1.13548
1.58831
0.695054
2.54405
0.375197
3.95582
4.00053
1.77675
1.38054
3.67378
4.11934
2.21021
2.34912
1.17208
2.39041
0.343312
3.71789
1.58317
2.55592
0.814345
2.18029
4.02288
3.02536
1.88654
1.87673
1.38843
0.877059
1.99128
1.36892
0.482113
0.460929
0.955716
4.51973
2.403
1.31734
0.26031
1.5196
3.2453
0.694548
2.10632
0.730667
0.971324
2.01206
1.05667
1.57773
0.889581
0.791952
2.45201
0.924497
0.248159
1.21981
0.581958
0.998218
3.87796
1.93157
2.38557
2.73626
3.98872
2.10418
0.757561
0.820401
0.493446
3.85568
0.443098
2.38039
2.20969
1.60275
1.93914
3.415
1.7547
1.41553
1.27181
3.41422
0.477701
2.35942
3.20727
1.4135
0.904684
3.73232
0.378413
1.25726
0.295969
3.64043
3.31367
1.30876
1.57237
0.907625
0.257857
3.78531
1.88305
0.387921
0.49957
3.03306
1.12451
1.66123
1.3889
1.49921
1.05654
0.341344
0.955011
1.86705
0.265687
1.7514
0.377328
1.55837
0.40226
0.443404
0.646972
1.93752
0.397761
0.565526
3.81628
0.352927
3.1313
0.454132
0.198587
1.18523
0.245373
3.5436
0.632824
0.561337
1.35575
0.383015
0.192008
1.27692
2.60146
0.472924
2.01966
3.25783
0.426651
0.216563
0.893658
2.99213
2.43245
1.20991
0.602816
0.195715
2.68623
0.88723
3.16618
0.330089
1.53142
3.45671
2.00766
1.0044
2.62652
2.68765
1.59619
1.4537
3.00513
3.85214
1.27633
1.7225
3.35924
1.91949
2.52764
1.8198
0.194589
2.33829
1.71222
2.54447
0.338949
3.30472
2.45418
1.13478
2.37676
0.296638
3.13375
3.78214
1.74579
3.53267
0.270155
0.685362
0.684665
0.533268
0.329258
1.17657
1.33984
1.92307
1.8368
0.627229
0.28912
1.92363
2.6982
3.03511
1.9679
0.49862
2.09189
2.14054
0.447853
1.44413
1.51224
3.88591
1.35316
1.80465
2.24936
2.08038
2.7964
1.24861
0.721092
0.413433
0.46708
2.35242
2.53332
1.38104
0.319377
2.7305
1.84615
2.41103
1.00569
2.00896
0.814952
3.11101
0.358988
1.59308
4.09318
2.64297
1.19346
2.53966
3.06997
2.39028
0.625226
1.23128
0.558491
2.97065
1.42675
0.398896
1.32371
1.07453
2.14073
3.17626
0.406851
0.864116
0.200865
0.232814
0.469238
2.42545
2.00695
1.17823
1.76123
1.82259
1.1706
1.60521
0.451042
2.1865
1.90082
0.845248
2.53849
1.87553
2.75402
0.94415
1.70828
0.581109
0.690127
2.22219
0.458685
0.601512
1.76618
1.76634
2.19312
0.95024
3.82968
0.357958
0.987402
0.709935
0.281846
0.806519
0.974519
1.17294
3.21063
2.99895
0.43819
2.95515
1.37099
0.550812
2.95589
1.08879
1.64439
2.78945
1.45941
1.98058
3.20707
1.69224
1.18517
1.53176
0.805099
1.62208
1.98204
3.58894
3.52652
0.346132
2.06113
0.648378
0.726105
2.01292
2.18034
1.27595
3.78276
1.77386
0.465601
2.0327
0.744018
3.70287
2.23445
3.08067
0.945376
0.982349
0.90419
1.02791
0.98988
1.0846
0.975427
1.49395
1.50478
1.60579
1.5196
1.46274
1.42776
1.4536
1.40832
1.70208
1.13341
1.27413
1.7681
1.75638
1.47612
1.62021
1.39132
1.37276
1.35189
0.865673
1.88542
0.230965
0.216416
2.25189
0.518928
0.502815
1.38093
0.374556
1.13756
3.17558
1.75361
3.39937
0.868765
0.513442
0.448734
1.66685
1.80909
2.15803
1.27255
2.05128
1.28332
1.19238
3.64889
2.48906
1.31083
0.431969
0.393525
0.298239
0.214395
0.288976
1.04064
1.55588
2.09304
2.60095
0.351963
0.676884
0.725101
0.467616
0.751979
0.627101
2.84062
0.564615
0.553829
1.28267
1.0749
1.09622
0.549209
2.01387
1.38771
1.75937
2.72457
1.47293
2.20898
0.591692
1.84976
2.92347
1.43579
3.61813
0.776848
1.22844
0.568064
1.6191
2.87455
0.188115
1.46546
2.43371
2.40413
0.285922
2.43652
2.54448
2.39124
1.17145
0.794344
1.44248
1.99804
0.565511
0.785589
0.285018
1.79008
2.70408
3.68596
0.584384
1.26825
3.26882
1.03111
3.2331
1.41638
0.530032
0.294489
1.46129
1.48547
3.00627
4.59721
1.69706
2.37161
0.289104
0.537867
2.27758
1.45638
2.74419
0.459233
0.850556
0.629479
0.603573
0.261276
1.39268
0.258739
0.790913
2.44333
0.513213
0.195151
1.8259
0.346764
2.54969
1.13345
1.14313
3.07427
0.997472
1.3443
3.08087
1.9781
2.3968
1.12463
0.779909
1.97879
1.33674
0.498253
0.542613
2.83371
1.50889
0.543301
0.718561
2.14098
1.34733
0.739968
1.94531
0.272914
1.52751
0.625591
0.56257
0.311461
0.586785
0.43711
0.787902
0.290057
0.782381
3.43004
0.453979
0.327046
0.612785
1.99803
0.657299
1.02307
1.24092
3.08553
0.895936
0.618102
0.505853
0.288548
0.494415
0.604764
0.449139
2.55876
0.981663
0.379717
0.321322
0.0824661
1.6469
2.2085
0.257448
0.463288
0.273683
0.441113
0.283769
0.271817
0.278829
0.631737
0.330462
0.261635
1.2198
0.246707
0.260896
0.253895
0.250911
0.695136
0.736699
0.244729
0.262558
0.281066
0.282446
0.829558
3.01241
1.97901
1.24194
1.13338
2.35625
3.29296
1.27608
1.18122
0.812419
1.95083
0.65962
0.600872
0.32334
2.69245
1.65267
3.4826
1.98031
0.203258
3.17768
1.11233
1.45373
0.615464
2.04951
1.82151
2.87051
0.732341
2.25865
1.51402
2.01501
0.793084
1.23604
0.279399
0.469564
0.909621
1.47378
1.43012
1.46917
1.59657
1.63033
0.342614
2.3369
1.53876
1.29557
2.19467
2.42623
3.61541
3.42318
0.381365
0.303948
1.22135
1.54463
1.45935
0.98191
1.57983
0.831503
1.22074
3.62577
0.771221
0.841207
2.73516
0.493198
0.325154
0.750445
1.52869
1.31711
3.09157
0.604448
1.79064
1.19438
0.800612
2.22968
3.77337
1.10393
3.14953
2.59646
0.566131
0.596012
1.47511
3.13523
0.651415
0.33527
2.84373
1.62495
2.3632
3.05911
3.64347
3.79649
0.91624
1.19616
1.7704
1.71852
1.63504
2.94426
0.947327
1.38872
1.33541
1.88489
0.584416
3.25371
1.57375
0.624314
1.34695
1.26073
0.600119
0.737721
0.724464
1.55336
0.514191
0.842154
1.1926
1.10934
1.23077
4.7846
0.272734
0.497599
0.971163
1.08217
0.518514
1.41906
0.454091
0.367694
0.261795
1.45673
0.825401
1.87827
3.29518
3.14749
0.361989
1.50019
0.277646
2.3026
1.17378
0.314768
1.78471
1.25326
2.89869
2.36244
1.71035
1.61933
1.20446
0.757974
0.687739
2.95956
0.548447
0.326215
1.44261
0.350839
3.21704
0.581042
1.71734
0.52527
2.94618
1.64425
0.181278
3.06735
0.782696
0.280162
3.0614
2.09429
1.16876
1.45876
1.05798
3.49981
1.08556
2.13103
0.561786
1.00657
1.29073
2.40259
1.7125
3.81259
3.86956
1.25441
1.72067
1.8274
2.46896
0.259854
1.01327
1.42838
0.229948
3.29792
1.44252
1.66823
3.03784
0.638609
2.83231
1.29596
0.265112
1.21401
1.25941
0.378801
0.957471
0.442664
2.31153
1.13899
4.65781
3.29356
1.80001
1.41156
0.747975
0.616937
1.00958
0.989043
1.99779
0.864221
1.80119
1.84889
3.22777
1.89943
1.42957
3.27028
0.266107
1.40245
2.86274
2.33411
0.530548
0.898168
0.683131
0.442047
0.434363
0.59118
1.19206
2.84284
0.340692
0.225432
1.31537
0.714473
1.64769
3.10997
2.63142
0.187107
1.85779
0.452303
0.269045
0.310181
0.320953
0.549706
4.38111
0.214295
3.03404
2.29368
1.31098
0.340535
0.284556
2.81184
0.29029
0.65231
1.37653
0.66713
2.80352
1.1139
2.17151
1.45177
1.19939
0.730402
0.882396
0.813099
0.917542
1.0373
2.30324
0.277566
1.6086
1.61405
1.10016
1.50086
1.35214
2.99038
0.809238
1.3193
0.556829
1.4332
2.97973
1.01455
0.359827
0.142054
0.240797
0.626414
2.27267
1.6479
1.57547
1.59905
1.29649
0.7651
3.29989
1.91285
1.79574
1.49967
0.662369
2.09055
3.44747
0.353721
1.06106
2.17169
0.655293
2.97047
0.985503
1.43862
2.71575
1.51391
2.35576
2.23816
1.8995
2.30922
0.475176
0.766595
0.566117
0.367284
1.14522
0.577953
1.87387
1.24683
1.6817
1.22583
2.8106
1.67239
2.74779
0.589848
2.943
3.3539
0.530832
0.332254
3.04552
1.08198
0.564088
0.500755
1.56606
1.126
2.78445
1.2883
0.861298
0.583509
0.296099
1.73668
1.79742
1.37871
0.83448
1.89704
1.29292
0.691531
1.47259
0.285916
0.404538
1.21305
1.28084
0.27963
0.558572
0.70047
0.294138
1.2595
1.38137
0.59455
0.351981
0.899925
2.08484
1.08919
0.925955
0.610693
1.23945
0.293671
0.275564
0.281371
0.33398
0.31013
0.284325
1.15941
0.253741
0.210221
1.56622
0.327383
1.01382
0.611379
0.764831
)
;

boundaryField
{
    frontAndBack
    {
        type            empty;
    }
    wallOuter
    {
        type            kqRWallFunction;
        value           nonuniform List<scalar> 
108
(
1.03081
1.31916
0.827699
0.176224
0.180049
0.352927
0.454132
0.198587
0.245373
0.383015
0.192008
0.472924
0.426651
0.216563
0.195715
0.194589
1.13478
0.533268
0.329258
0.319377
0.232814
1.17823
0.281846
0.550812
0.945376
0.982349
0.90419
1.02791
0.98988
1.0846
0.975427
1.49395
1.50478
1.60579
1.5196
1.46274
1.42776
1.4536
1.40832
1.70208
1.13341
1.27413
1.7681
1.75638
1.47612
1.62021
1.39132
1.37276
1.35189
0.865673
0.216416
0.513442
1.31083
0.214395
1.0749
1.22844
0.568064
1.26825
0.850556
0.195151
0.997472
1.12463
0.779909
0.625591
0.586785
0.290057
0.657299
0.494415
0.604764
0.981663
0.0824661
0.0824661
0.257448
0.273683
0.271817
0.278829
1.2198
0.246707
0.260896
0.253895
0.250911
0.695136
0.736699
0.244729
0.262558
0.281066
0.282446
0.829558
1.18122
0.812419
0.203258
0.615464
0.793084
1.23604
0.771221
0.841207
1.19438
0.800612
0.825401
0.229948
1.00958
0.864221
0.225432
0.452303
0.214295
0.142054
0.240797
1.29649
)
;
    }
    inlet
    {
        type            fixedValue;
        value           nonuniform 0();
    }
    outlet
    {
        type            zeroGradient;
    }
    wallInner
    {
        type            kqRWallFunction;
        value           nonuniform List<scalar> 
126
(
0.586097
1.38836
0.320309
0.341396
1.12411
1.21319
0.352753
0.252375
0.336767
1.26753
0.194174
0.845637
0.205114
0.42071
0.936631
0.675066
0.277835
0.324008
0.279812
0.275528
1.2126
0.255735
1.10375
0.71138
0.345227
0.840504
1.18159
0.283428
0.28868
0.568624
0.314803
0.16009
1.12032
1.39474
0.904864
0.716227
0.250629
1.27949
0.248271
1.1022
0.962924
0.417027
0.239523
1.19632
1.06635
0.353475
0.352786
0.339506
0.254595
1.39603
0.571833
0.285286
1.23396
1.58013
1.08445
0.154272
0.628897
1.63994
1.39116
0.79508
0.206431
0.493864
0.645763
1.89578
0.601452
1.59367
1.34127
0.374475
0.881598
1.3816
1.39698
1.40079
0.458823
1.36046
1.21145
2.06239
0.339881
0.309053
0.724855
0.858875
0.785813
0.812464
1.77527
1.96172
1.86294
1.93157
1.57237
1.7225
0.726105
2.18034
1.3443
1.1139
0.813099
1.89704
0.691531
1.47259
0.285916
0.404538
1.21305
0.27963
0.558572
0.70047
0.294138
1.2595
1.38137
0.59455
0.351981
0.899925
2.08484
1.08919
0.925955
0.610693
1.23945
0.293671
0.275564
0.281371
0.33398
0.31013
0.284325
1.15941
0.253741
0.210221
1.56622
0.327383
1.01382
0.611379
)
;
    }
    procBoundary1to0
    {
        type            processor;
        value           nonuniform List<scalar> 
29
(
0.520365
0.520365
0.364463
0.5579
1.68535
1.02015
2.06657
0.35183
1.37442
0.57993
0.461408
1.02015
0.364463
0.366496
1.35685
0.564375
1.68535
1.75432
0.5579
0.53799
0.334511
0.232597
1.41603
0.293829
0.293829
1.41603
0.246659
0.897364
0.246659
)
;
    }
    procBoundary1to2
    {
        type            processor;
        value           uniform 0.617522;
    }
    procBoundary1to3
    {
        type            processor;
        value           nonuniform List<scalar> 
48
(
3.70812
2.24703
2.6344
2.6344
1.32734
1.936
1.936
1.09049
4.2154
0.383994
0.32988
0.383994
0.392872
0.524128
0.628288
0.392872
0.37536
0.37536
0.33495
0.33495
0.357638
0.310669
0.370703
0.530802
0.530802
0.368896
0.267768
0.267768
0.376418
1.13271
0.57647
0.376418
1.09049
3.8695
0.313803
1.13271
2.50938
0.32988
4.17061
1.09456
0.466123
3.34325
3.8695
0.313803
0.632144
0.74778
1.22029
0.466123
)
;
    }
}


// ************************************************************************* //
