/*--------------------------------*- C++ -*----------------------------------*\
| =========                 |                                                 |
| \\      /  F ield         | OpenFOAM: The Open Source CFD Toolbox           |
|  \\    /   O peration     | Version:  v1912                                 |
|   \\  /    A nd           | Website:  www.openfoam.com                      |
|    \\/     M anipulation  |                                                 |
\*---------------------------------------------------------------------------*/
FoamFile
{
    version     2.0;
    format      ascii;
    class       volScalarField;
    location    "0.96";
    object      p;
}
// * * * * * * * * * * * * * * * * * * * * * * * * * * * * * * * * * * * * * //

dimensions      [0 2 -2 0 0 0 0];


internalField   nonuniform List<scalar> 
1466
(
93.5755
91.8271
93.3844
93.896
92.9156
90.3544
93.9302
92.7858
92.8591
94.1411
92.8253
94.1509
94.0708
94.0051
93.9139
94.0268
93.6116
93.6796
92.8438
93.977
93.7451
93.8929
94.1716
92.2384
94.015
93.0181
92.8569
94.1286
93.8773
92.7902
92.7343
89.7482
93.8555
92.7149
93.6428
93.8882
93.9337
93.8365
93.0561
93.8418
94.1492
94.1092
92.997
92.6806
94.1453
92.8827
93.8358
93.7105
94.1198
93.7863
93.3116
94.1319
92.9503
90.3345
93.8589
94.1527
93.7776
94.139
94.0965
94.1497
94.0007
92.7532
92.8419
89.9194
91.8038
93.9778
94.154
93.7253
93.6898
93.9066
93.1286
93.8302
93.888
93.9532
93.9013
94.13
93.9099
93.7289
93.8807
94.1479
93.2393
93.9721
93.796
94.1252
93.9605
93.9033
94.0001
91.8102
93.9629
93.4876
93.9906
93.8644
94.1462
93.7819
93.3113
93.816
91.7343
94.0952
93.0053
94.0137
93.9082
94.1291
93.4611
91.2895
93.7286
92.7107
93.7289
93.7545
93.1583
94.0274
94.102
94.1137
92.094
93.8843
94.0614
92.3476
93.9551
93.9877
93.3941
94.1232
93.7388
93.6045
93.9153
91.8503
93.9387
94.1649
94.0151
92.3177
94.1504
93.4826
94.1102
93.8399
93.6082
94.1527
93.2502
94.1454
94.1047
94.02
94.1468
93.7948
94.1464
93.8154
94.1572
94.1107
94.147
93.9661
91.8673
93.216
94.1564
93.9211
94.1543
94.0254
93.5541
91.7055
94.0028
92.8415
93.7609
92.2335
94.1774
93.3708
94.137
94.018
91.9713
93.768
94.121
94.1428
93.7051
93.5683
93.977
92.8432
93.9274
93.9503
94.0128
94.1534
92.9176
91.7743
94.114
94.1466
93.9761
94.1465
93.6865
93.7122
94.1143
93.9616
91.8265
93.9999
93.7315
92.6296
93.826
90.7297
91.3739
93.9214
93.9903
91.9349
93.7386
93.7983
94.1428
94.0508
94.0079
94.0046
92.0403
94.1221
93.7309
93.9756
94.0195
94.1283
93.7107
92.7909
93.9428
94.1442
94.1055
92.1104
94.1461
93.9956
93.2412
93.7713
93.4567
93.9275
93.9856
93.9229
92.4104
93.5677
93.9998
93.8928
94.1457
93.9244
93.99
94.0327
93.8245
93.2485
94.0274
91.854
93.9772
94.0972
93.8508
94.0405
94.1011
92.783
94.1015
94.0232
93.0147
94.1031
93.9173
94.1057
94.1173
93.8329
93.0816
93.7835
93.9173
93.7927
93.9993
93.9967
94.1293
91.8258
93.9367
94.0001
93.9849
93.9431
92.4902
94.1292
94.0153
93.9583
93.9874
93.4706
91.9804
93.9308
92.7227
91.9954
94.097
93.8771
93.9925
93.6479
94.0553
93.9769
93.9342
94.1017
91.8543
93.9241
92.9765
94.1221
94.0583
93.8793
93.7743
94.0234
94.0167
94.0711
94.1661
93.958
92.46
93.8926
93.9661
92.6883
94.142
94.1393
94.1298
94.1371
92.7619
92.2891
94.1633
93.9561
94.129
92.1426
94.0303
94.1541
94.0394
93.7416
91.7455
94.1126
94.0505
92.3303
92.9707
93.3216
94.0966
94.1539
94.1222
94.1311
92.0417
92.9621
94.1379
94.0367
93.8712
94.1464
94.1285
93.7777
91.8705
93.8983
93.2438
94.0091
93.0584
93.2842
92.1309
93.8634
93.1956
93.4365
91.9452
93.767
94.1503
92.9481
92.1777
93.2254
92.1854
93.9482
93.844
93.3154
93.9415
93.1123
92.2003
94.0858
94.1445
92.3445
94.1368
94.0423
94.1395
94.1043
94.113
94.1557
92.0781
91.3867
92.4406
94.1382
92.561
94.1504
94.1415
93.4901
94.1592
93.9812
93.2828
93.1349
94.0295
92.2083
93.1591
94.1166
92.1654
93.7987
93.3962
92.0403
93.8561
92.293
93.9796
94.1453
94.0456
94.1631
94.154
93.2944
94.1519
94.1504
93.9737
94.0445
94.0943
94.1748
94.1711
94.0369
94.1356
92.1722
94.065
93.9786
94.1335
93.0629
93.7446
94.1903
92.206
93.1067
94.1225
94.0684
94.1409
93.9948
94.1271
92.6197
93.8672
92.0801
94.0271
94.1153
94.1241
94.1841
92.1702
94.1617
94.1082
94.0404
94.1722
94.1706
94.0639
94.1872
93.9037
93.8925
93.9108
93.9233
93.8621
93.8836
93.9074
93.9246
91.9909
94.0732
94.1238
92.183
92.6777
92.1895
92.1873
92.723
93.7096
93.2664
92.2102
94.1784
92.2163
94.2492
93.7089
92.2087
92.9889
92.9403
92.2565
94.0729
92.2622
92.2854
94.4247
94.0696
92.185
93.8258
92.7321
92.3334
94.6438
94.1183
92.2214
94.1106
94.0857
94.0897
92.1721
92.0452
92.1414
94.0527
92.0269
94.3585
92.1478
94.1433
94.1206
94.3963
89.8505
92.7099
94.6259
94.5834
92.7829
91.1363
92.0721
94.012
90.1836
93.9566
92.7139
92.0859
93.9262
93.2794
90.3982
94.1313
92.7115
92.0625
93.8384
93.2414
94.0984
92.7513
91.099
92.1887
92.0889
92.1639
92.0166
93.7847
94.1359
94.1374
93.198
94.1022
94.1333
94.1527
94.0237
94.0363
93.2885
92.6814
93.4541
94.1692
94.3739
93.7651
91.9877
93.7719
94.0847
94.1028
94.1034
92.1715
92.1587
92.6621
93.0029
94.1637
92.1385
92.2485
94.1671
93.205
93.9636
94.1349
94.0987
94.0722
94.245
92.198
94.1359
92.114
93.8422
94.1567
92.1299
92.1442
92.766
92.14
94.0058
94.2612
93.3431
92.208
92.1428
91.921
93.7295
93.7552
92.1282
94.1459
94.1383
92.5346
92.0337
94.1032
94.0902
92.9754
93.902
94.1345
94.1437
92.2636
94.1358
94.1462
93.8058
94.0193
93.9956
92.2169
93.8487
92.6676
93.9591
94.1433
93.2851
94.0086
94.0114
93.1532
93.847
93.9503
94.1268
94.1235
94.091
94.1194
93.7857
92.3274
92.819
93.7363
92.2249
94.0633
91.8534
93.9006
94.1406
93.4257
91.8695
93.7213
94.1532
94.1507
92.1724
94.1248
92.233
91.8076
93.6992
93.4425
93.0756
93.9789
94.0673
93.9672
92.2299
92.2747
94.1486
92.8953
93.9541
92.7109
94.0216
93.1136
92.2298
94.0029
92.5321
91.671
93.7355
93.7528
94.0628
94.1362
93.7156
94.0517
94.1062
94.0947
93.7103
92.1706
93.993
92.2485
93.3888
93.5798
94.1489
94.1464
94.1425
92.1402
91.7358
93.6966
93.7029
92.2996
93.7826
93.1199
93.0206
94.1328
93.3993
92.4539
92.4833
93.7192
94.1328
92.223
94.143
92.2708
94.1736
94.0011
93.1429
94.0791
93.7564
93.3711
94.0303
92.1301
94.1397
94.0186
93.4063
92.1268
94.023
94.0934
92.1766
94.1327
93.8113
93.8716
94.0978
93.3999
91.8364
93.8278
94.0723
92.129
93.7297
94.1561
91.6172
93.7474
93.9343
93.4389
94.1131
93.1656
92.6782
93.9858
93.3536
91.989
94.0106
93.8754
93.3654
94.1871
92.2063
93.9641
94.138
94.0718
94.1258
94.1535
93.6755
93.4833
94.1429
92.2572
94.1608
93.5465
94.1377
92.1994
93.8091
91.6434
93.7047
93.8538
94.1502
91.7158
93.701
93.7663
94.1477
92.2642
93.9309
92.7781
94.092
94.0769
93.7847
94.1502
92.2336
94.0015
94.1001
94.0296
92.3711
94.1579
94.0428
93.6127
94.165
94.0962
94.0943
92.5774
94.0982
94.0936
92.5878
92.2945
93.5374
94.0985
94.0914
94.031
92.0065
94.0603
94.1606
93.5532
92.4547
94.131
93.3344
94.141
93.9516
94.1512
94.1374
92.6251
92.4188
93.5341
93.3834
93.9738
94.1127
93.6067
94.1355
91.8196
93.8802
93.6849
93.9425
94.1249
93.3956
93.3537
94.005
93.3536
92.8623
93.9697
94.1405
94.1265
94.0177
94.1345
94.0748
92.9416
92.4584
92.2868
94.0558
94.1023
94.1462
94.1198
93.7698
93.8731
92.6436
93.9616
93.9247
93.794
91.7339
93.93
91.8645
93.7475
92.9102
93.8329
93.9177
94.0414
92.0155
94.103
93.8125
93.3428
93.4653
93.2666
92.7395
93.7666
93.7544
93.9822
92.5533
93.853
93.7385
92.6423
93.9867
92.8456
93.6491
93.3723
91.4497
93.1698
92.1323
93.778
94.0183
94.1478
93.8514
93.8675
93.0645
94.0412
94.0645
93.3231
93.9645
94.1685
93.821
92.9231
93.8972
93.8794
93.9727
94.1445
93.9869
92.2558
94.2291
94.0869
94.1427
93.7886
94.0992
94.1272
94.1495
94.1484
94.0018
94.1373
92.2648
94.1403
94.1291
92.3507
93.8748
93.2442
94.1623
93.9968
93.1969
94.1037
93.0076
94.0946
92.2687
91.6497
93.7143
91.7941
93.6223
93.7689
94.0659
93.8585
93.8908
93.9395
92.5704
92.6656
93.3441
93.9455
93.9628
91.7841
93.2337
94.023
93.9359
93.3359
92.7258
93.9831
93.5903
93.2938
91.798
93.9905
94.0079
92.8072
94.1175
93.8934
93.9663
94.1401
93.8559
92.5093
93.0292
92.9689
92.7732
94.1363
93.5086
93.9044
94.1464
94.1928
94.0442
93.8639
93.8192
93.8218
94.146
93.5055
94.0237
93.1331
94.0213
94.0003
94.1494
94.033
94.1527
93.9955
91.8607
94.0565
91.8113
93.8926
93.5907
92.2101
92.406
93.9806
93.7192
94.1734
94.1572
92.8356
93.9267
91.7745
94.1199
94.0529
93.9573
92.4922
93.7645
93.9998
93.8125
94.0089
94.0016
94.0064
94.0001
92.0254
92.0811
91.9395
91.9495
94.0196
92.0728
92.2371
94.0303
94.0353
94.0342
93.4414
94.0319
94.0318
94.1474
93.8283
94.1557
93.818
92.4316
92.2526
94.1669
94.0352
93.6046
92.9954
92.6023
93.7384
93.3209
93.8062
93.5438
94.0959
94.0367
93.2416
94.1328
93.58
93.7192
91.883
92.6696
94.0167
92.5058
93.4077
92.9798
92.7539
93.7088
93.3413
94.158
92.1606
93.9972
94.1225
92.2241
94.1615
93.4695
92.9349
92.8366
93.1893
93.902
92.2748
93.2206
92.6666
93.3467
93.1702
93.9251
93.7522
94.1455
94.0106
94.0078
93.0125
94.0293
93.7256
93.7583
93.6043
93.9478
94.1578
94.0933
94.1532
93.7583
91.9838
94.1074
94.0022
93.7514
93.8247
93.0561
94.0157
92.7035
94.1438
93.8914
94.0985
92.8899
91.4275
93.7235
93.5131
92.419
94.1719
93.9626
94.0036
92.5836
94.0454
94.0978
92.9978
94.5995
94.0406
94.0832
92.058
94.1031
94.0658
91.979
94.0419
94.0116
93.8104
92.056
93.2897
93.1265
92.6739
94.0988
94.169
92.2311
93.2153
94.1961
92.2678
92.5654
93.9419
93.8295
94.0337
93.9959
92.1223
93.8107
92.303
94.1447
94.1447
94.0982
94.1656
93.9076
92.1135
92.5189
94.0978
94.1513
92.7185
93.4584
92.2054
93.854
94.0735
94.1645
92.7133
93.5878
94.1454
92.4674
94.143
93.36
93.9326
92.6299
93.9851
94.0201
92.3649
93.7072
94.0198
93.6402
92.8715
94.1535
93.9552
93.9891
94.1751
93.9762
93.7765
94.0268
94.0388
94.0336
94.1543
94.1592
93.5935
92.9207
94.0634
94.0625
93.5891
92.8895
93.6519
94.013
92.0553
93.8875
94.1614
93.8456
93.364
94.0333
93.775
93.8066
94.1356
92.1456
93.223
94.1607
93.0268
94.1722
92.174
94.0703
93.9956
94.1478
92.1387
94.1542
93.7295
92.2901
93.108
93.5987
94.0943
94.1148
93.8639
93.8734
92.6818
94.0319
92.4709
94.039
93.8361
93.5632
93.9612
93.7902
94.0379
94.1591
94.1234
94.1875
94.1956
92.2275
93.8509
93.3552
93.9827
92.5215
94.1627
94.0519
93.5448
93.7403
94.0154
93.8041
93.1845
93.8136
93.9549
92.4152
93.8102
93.6135
92.7469
90.2335
92.942
93.9912
94.1453
93.9672
94.116
93.62
93.9902
93.9323
94.0172
94.1389
92.087
93.8733
91.9358
93.8466
94.0753
94.0275
93.6865
93.9644
92.39
93.5851
94.0217
94.0225
93.9526
94.0771
92.9678
92.8769
94.0479
93.8801
91.7086
93.8512
92.2734
93.0451
92.4611
94.1088
93.9785
93.1824
93.261
92.3681
93.7803
94.0282
94.0068
94.0072
93.6579
93.8505
91.5011
92.0649
94.0806
93.0699
93.8558
93.7687
92.3822
93.0748
93.7963
94.0843
92.1012
94.0371
93.6369
93.9744
94.1171
93.2848
92.7368
93.936
93.3483
93.871
93.9855
92.2646
92.2437
94.0183
92.3336
93.8187
91.6492
93.3537
94.0861
93.5823
93.4741
94.1782
92.2372
94.045
94.0339
94.1697
92.1881
94.0626
92.9085
93.8746
94.1008
93.9734
94.1094
93.9841
94.0262
93.8802
93.8757
91.9939
94.0236
94.0444
93.9927
94.1457
94.024
92.3345
92.9153
92.7905
94.1003
93.7821
94.0736
93.2791
93.6149
93.9683
93.5331
93.7599
91.7872
93.9879
94.0245
93.4918
93.839
94.1579
92.3442
93.1586
93.3744
92.3454
92.4715
94.0171
94.0304
94.0037
93.6322
93.8954
92.2377
94.0405
93.6483
92.9838
93.9388
94.1065
92.2333
94.0666
94.1769
94.1444
91.8581
93.6202
93.6283
94.0827
94.0287
93.5092
92.1449
94.171
92.3257
94.1534
92.1025
93.9529
93.8721
94.1515
94.1205
93.5342
93.9119
94.1881
92.2578
93.6069
92.3061
94.0989
92.1332
93.938
94.0976
94.1195
93.7506
91.9514
93.9556
92.5752
92.7166
93.8565
93.8665
92.1289
93.8279
94.0901
93.2623
93.7368
91.8564
94.0155
93.9924
94.0254
93.7995
92.0512
93.5112
94.1462
93.844
93.1609
94.1029
94.0686
92.1601
93.9677
93.4203
94.0139
92.7771
93.2831
94.1586
92.2678
94.0289
94.1281
92.0804
94.0486
92.0916
93.8015
93.9757
94.1198
94.0143
93.8096
91.7803
93.8115
94.0168
94.111
94.008
93.9573
94.0373
93.9788
94.1396
94.0752
94.123
93.8888
91.8561
93.5636
93.0228
94.027
94.0182
93.8597
91.767
93.9674
94.0779
94.1489
94.1382
92.3779
94.0531
92.1286
93.9324
94.0837
93.8978
94.0246
94.1013
94.0324
93.9725
93.328
93.9841
91.8918
94.0342
93.8393
93.9949
92.3523
93.3145
89.4955
93.8535
91.7269
93.9557
93.9396
93.9674
93.9642
94.039
93.7947
91.6807
91.9826
93.5402
93.9363
93.9987
91.9223
93.4024
91.6658
93.9507
94.1335
91.5311
91.8657
94.1462
94.0363
93.9527
93.9695
93.3614
94.0872
94.1477
94.0224
94.1801
92.273
94.0471
94.1257
92.5001
92.4448
93.9543
94.1008
92.6421
93.3306
96.4554
92.7686
92.889
92.824
93.9533
93.8638
94.144
)
;

boundaryField
{
    frontAndBack
    {
        type            empty;
    }
    wallOuter
    {
        type            zeroGradient;
    }
    inlet
    {
        type            zeroGradient;
    }
    outlet
    {
        type            fixedValue;
        value           nonuniform 0();
    }
    wallInner
    {
        type            zeroGradient;
    }
    procBoundary2to0
    {
        type            processor;
        value           nonuniform List<scalar> 
42
(
92.344
92.344
92.1206
92.1313
92.0131
92.3078
91.9395
91.9395
91.9693
92.0196
92.1962
92.1962
92.0828
92.2412
92.2708
92.4179
92.2902
92.061
91.9754
89.5365
90.1387
92.078
92.078
90.5238
90.1387
92.0755
91.0875
91.9903
91.0875
92.3354
92.3068
91.8473
91.6936
91.5994
91.5942
92.1313
92.2902
92.2616
91.7103
91.773
91.773
91.6545
)
;
    }
    procBoundary2to1
    {
        type            processor;
        value           uniform 89.3456;
    }
    procBoundary2to3
    {
        type            processor;
        value           nonuniform List<scalar> 
29
(
92.894
92.7505
93.8314
93.8242
89.8414
92.9507
94.1241
92.7914
93.8395
93.8259
92.8898
89.6817
92.9343
94.1278
94.1354
94.1197
93.8382
93.8382
92.7505
94.1278
94.1305
93.8343
94.1596
93.8271
94.1404
93.8316
93.8395
89.2401
89.6817
)
;
    }
}


// ************************************************************************* //
