/*--------------------------------*- C++ -*----------------------------------*\
| =========                 |                                                 |
| \\      /  F ield         | OpenFOAM: The Open Source CFD Toolbox           |
|  \\    /   O peration     | Version:  v1912                                 |
|   \\  /    A nd           | Website:  www.openfoam.com                      |
|    \\/     M anipulation  |                                                 |
\*---------------------------------------------------------------------------*/
FoamFile
{
    version     2.0;
    format      ascii;
    class       volScalarField;
    location    "0.09";
    object      epsilon;
}
// * * * * * * * * * * * * * * * * * * * * * * * * * * * * * * * * * * * * * //

dimensions      [0 2 -3 0 0 0 0];


internalField   nonuniform List<scalar> 
1466
(
1.01044
1.05896
0.994336
1.98032
0.867714
0.881166
1.91539
1.07207
15.4816
0.883875
1.15566
1.01892
11.7845
0.817351
0.834588
1.43352
0.872871
2.03476
2.2374
1.55469
1.55844
1.46216
1.74192
1.48343
12.202
0.840637
6.97113
1.74327
1.29163
2.59917
1.36496
0.867081
0.822541
0.977535
69.5236
1.93829
0.91461
1.06009
1.05681
1.14713
1.13599
1.93602
1.33319
1.09965
1.09745
1.80559
7.36716
0.99283
0.975418
0.967801
1.17845
1.37137
1.03528
0.997356
1.03202
10.099
1.08529
1.4654
1.00483
1.02096
1.02782
0.950787
1.01514
0.835656
4.20824
2.19206
1.60498
3.59093
9.96949
1.2391
1.36873
2.78182
3.27783
9.15948
0.993991
67.1342
0.879905
0.903529
1.16344
4.72133
0.832218
1.03168
1.25044
2.32925
3.60355
2.79417
1.22821
9.76251
0.892596
2.06765
0.806965
4.84942
2.84716
2.44718
1.38313
0.99595
1.10764
2.2771
13.7854
1.08545
1.06407
1.27575
1.02923
0.956224
1.33441
1.52214
1.03509
0.999612
1.27072
1.07699
0.950682
45.1323
0.87762
1.56016
1.20169
0.805794
2.70914
1.56363
1.46213
1.58864
1.42772
0.846933
0.811955
1.11817
1.09531
1.64126
6.42973
1.4145
1.9649
2.6109
1.1282
3.97555
1.70163
1.56696
0.776462
1.8631
1.75623
1.03072
1.25043
1.4071
0.974189
1.68264
1.87534
1.94498
2.56108
2.63764
0.908487
1.32856
2.89646
3.92892
0.783678
0.894445
7.35047
1.4875
2.39033
2.0772
1.63825
1.6207
1.14589
5.88954
0.978575
4.17633
3.5501
1.68396
2.23937
2.06332
1.84706
1.59185
1.89205
2.83759
1.92511
2.97027
0.82005
8.478
1.37002
8.7954
2.88922
2.57258
0.895385
1.52583
10.8763
0.813372
3.13186
0.988835
13.0207
2.94765
3.69626
2.40832
12.1624
1.93107
2.1258
1.11852
4.81582
1.62195
6.32499
0.874263
1.57674
5.58051
1.80801
2.7031
2.48385
2.78559
2.90517
1.58132
1.15907
1.70583
1.3898
3.55408
1.59812
1.51655
2.03491
3.92546
2.41271
1.80446
1.50427
1.81838
2.96432
3.62596
2.71287
1.77507
1.51602
0.790012
1.87866
0.933537
1.77911
2.88176
1.12357
1.07222
0.840421
0.784602
1.24331
17.9367
1.58457
4.0646
1.45067
1.53979
1.89384
1.74902
2.13859
2.07696
2.98656
5.26227
3.0521
3.0532
2.75024
4.78821
0.818572
8.43686
3.88234
3.33823
2.61417
3.49781
3.94306
4.89896
1.81363
1.10835
1.65281
4.8971
3.92318
2.61921
2.01798
1.69829
1.63365
0.783262
5.88668
1.02105
1.53678
2.49302
1.16724
4.50269
4.06447
5.12572
1.9404
1.92173
0.780955
1.02141
0.822577
6.33469
2.08254
2.95677
0.799264
4.86406
6.04657
8.06256
5.88297
0.843049
2.44876
2.45522
0.852893
4.19608
5.71818
1.37702
11.8757
1.06169
6.55246
2.64072
9.36565
0.813193
2.5567
0.783295
0.799483
0.813093
0.752114
8.83009
1.66112
5.2066
3.94416
0.796257
3.44926
1.29219
3.96816
1.50683
2.65828
2.75027
2.70618
2.94857
5.55624
3.39982
0.80264
0.859803
2.22346
6.88976
2.88597
0.785541
1.42007
5.32277
0.817393
3.75415
0.803331
0.835375
1.14362
4.71791
0.919526
5.50851
5.55857
7.06668
8.39828
1.85789
3.19162
1.07855
0.877026
3.31874
0.827767
4.23831
2.51533
0.832669
9.44373
3.88018
15.1931
6.63818
5.75
5.37878
3.91727
6.34954
8.12268
5.04885
2.5768
8.62305
4.59705
3.70329
9.3502
5.82102
5.88755
1.17438
0.808974
1.59184
3.4865
3.58664
4.6226
5.19827
3.21771
5.60424
8.46431
4.0545
0.868512
0.882947
1.00597
7.43968
1.79403
6.3235
1.24416
1.43805
1.14326
1.07296
1.23038
1.3112
0.803383
0.794803
0.792285
0.801297
5.77278
2.79329
1.26343
2.70596
2.43736
4.3345
0.86661
6.50051
2.6796
2.36986
1.18414
1.02436
3.16553
1.38292
2.6255
1.41113
3.62721
2.22075
1.04423
4.03744
1.07444
3.77309
4.18093
2.65935
3.38062
1.09789
1.20087
2.58713
0.908949
0.980028
6.021
3.5971
1.2276
4.70403
1.2279
1.45256
8.81118
9.84368
1.70579
1.83088
0.805003
3.84285
4.96245
11.671
0.828533
3.16069
0.874722
3.53983
0.794299
0.807634
1.26297
2.53287
0.809866
0.91596
0.803659
0.832909
34.4988
0.800345
0.910545
0.835777
0.796066
1.18835
5.22812
16.3533
3.98054
2.04263
1.6574
1.68231
3.03259
0.791624
0.793977
4.60116
1.50871
2.10323
0.968669
1.23962
1.61765
4.10845
4.22609
1.72194
4.30623
1.87472
1.02676
1.06255
0.787159
1.36331
0.934843
1.8197
3.11349
3.26976
4.31378
2.76661
2.20252
2.58495
3.20911
4.3781
2.10887
1.27318
5.25641
5.11782
3.6996
1.8026
0.842918
1.56592
1.89282
1.6259
0.924638
1.18597
3.03867
1.04781
1.01232
0.9334
1.96341
1.62704
1.75797
1.15719
3.35614
0.796677
2.58479
1.10686
0.995427
2.6907
1.34875
5.41402
0.924651
1.09217
3.36597
14.1551
13.983
0.947177
0.988844
3.60273
2.01569
4.24407
2.20813
2.38375
3.36936
5.94021
2.29187
2.11653
5.76742
9.08129
4.67268
1.62536
1.15386
3.32805
6.66214
3.71407
3.52219
2.86768
4.94897
1.69961
2.10658
1.3486
2.34185
5.80153
2.498
6.50585
1.75058
0.795824
3.74805
3.60702
3.07262
1.16369
6.85919
0.997062
1.08344
1.22292
13.8703
5.99032
1.75594
4.87753
0.792282
3.92454
10.9326
1.77018
1.58074
1.70901
4.04838
0.886061
1.32581
1.51564
2.34287
2.59753
2.52794
2.01448
4.96212
0.892214
1.13829
2.25876
2.78727
0.888523
0.941469
1.31019
1.15138
2.29926
1.55534
4.70443
1.53562
1.61332
1.21284
5.85014
5.59234
0.959586
2.25796
1.82283
2.49075
4.37248
3.01804
2.25769
4.03232
5.24555
5.0384
4.36004
1.60384
9.6851
0.900475
0.86866
0.839631
0.965999
2.08166
2.31998
5.55863
6.47415
3.46771
3.38708
2.54198
4.58998
5.11833
1.7446
4.61184
0.804457
0.992666
6.30477
26.3736
0.974667
6.20397
7.80683
6.5468
0.87908
3.6872
3.78597
4.45732
5.34912
0.90389
4.32283
2.39766
2.30736
2.5102
2.67146
1.66871
5.13296
4.21082
0.854191
0.920414
5.83043
6.60734
1.21054
4.33882
4.70544
0.916259
9.75127
4.30593
0.809477
4.60499
0.937957
3.66436
4.73711
0.858543
5.30789
2.4428
25.1309
3.46685
4.71811
4.08358
3.60105
2.36049
2.35237
1.42239
3.22979
0.813399
1.62528
5.12295
1.06982
1.09287
0.803171
0.81497
0.840391
0.982767
3.92768
3.00593
0.797547
0.900883
2.01467
3.3488
10.1446
4.72003
1.93045
3.49406
2.39726
4.53647
3.97473
4.24561
3.3882
3.63389
1.7889
2.84504
4.4432
5.35447
1.52752
0.967052
4.07074
2.11377
0.791566
1.00388
1.00409
2.03569
3.83195
1.62181
1.05874
1.75288
1.22194
1.82585
4.09805
1.59831
2.5882
10.5693
1.02916
5.7033
3.90813
70.9996
1.11272
2.00148
4.37503
5.52142
0.915007
2.84684
2.54298
2.51361
0.891228
5.16124
3.76573
4.02972
0.927708
2.14505
2.04933
2.79196
2.22254
1.3681
1.90741
0.893961
0.829706
0.91513
1.20682
2.08214
2.14494
7.1598
1.22821
1.50759
5.56284
2.93033
3.16603
0.846558
1.59436
2.33393
2.86741
2.876
2.36614
6.67867
2.5092
3.71717
5.00575
0.914756
2.74896
3.48728
2.7907
1.679
5.54979
1.44623
2.91662
1.18601
2.88112
0.817145
0.815111
6.14714
2.50717
3.22976
3.04595
1.88771
5.43207
4.61575
4.10894
1.67842
5.94891
4.57578
0.85341
0.833717
0.896158
0.994934
3.37574
1.63258
4.31003
2.39337
4.26348
0.938088
5.03794
1.71683
9.4458
1.10321
4.77964
4.23237
6.04724
0.949366
0.816663
7.28931
0.833142
1.05261
9.14027
3.43392
1.96478
2.84288
2.07457
1.29183
1.9125
1.01352
0.84955
12.4643
1.7806
0.789799
2.04044
3.22533
1.09863
2.72181
2.94323
1.03004
0.904213
3.25214
5.25151
6.11375
1.21058
4.29287
10.199
2.29131
1.24534
1.22488
1.79815
1.17765
2.7165
3.54145
2.94625
1.98295
1.05374
1.50026
0.887521
3.29406
4.85045
7.88706
1.01609
1.23834
6.2814
2.86731
11.1857
2.2467
2.29066
1.91991
1.4963
7.23394
0.895853
0.967999
3.15147
4.69571
0.911305
10.2453
2.60008
0.874773
5.06077
2.70229
6.90528
1.24239
1.41044
1.52084
0.92869
5.81515
1.33541
3.64363
2.86431
1.32083
2.79423
2.88118
2.85848
3.16355
3.12558
2.9315
3.2925
2.67224
2.82422
2.95671
2.56326
2.89644
3.11879
2.50107
2.75199
3.11888
2.43184
2.44414
3.19361
3.11367
2.11237
2.73798
3.30637
3.33828
3.26041
2.99833
36.6086
12.6245
0.881877
4.95301
3.05361
1.27978
3.65181
0.820554
0.839028
1.35947
1.11163
0.911969
0.91001
6.56759
4.3955
0.849144
3.3193
7.21261
0.846366
3.3492
0.820788
2.98736
1.39175
0.995523
3.19193
0.855098
0.843869
6.26374
1.44945
7.75471
2.96689
0.918337
5.01603
1.11283
1.34298
1.79254
1.60153
0.815054
2.31528
1.30107
1.01861
1.04559
1.19093
1.94855
1.94297
19.3098
4.54163
1.22835
1.49001
3.37933
8.42762
4.72218
4.52425
0.894077
0.807999
4.90405
6.32267
1.32256
2.12316
3.30236
8.8255
4.44633
1.94046
0.93505
0.810751
2.16453
4.05091
1.22345
3.11674
1.02159
2.62607
0.806738
1.01068
0.83624
2.3047
1.70581
0.795978
1.15965
4.07358
2.0869
0.891508
17.4391
3.25474
1.01436
0.822847
1.90939
4.53443
0.890143
0.810801
0.813934
2.99868
1.28817
1.64695
2.93661
10.4508
1.0711
1.09937
1.40288
4.24399
4.55423
7.80227
1.82607
1.26195
1.45349
0.849106
0.838095
13.6227
2.91294
1.79597
0.834524
1.1822
4.09187
1.60786
1.24552
0.919981
2.55561
1.64836
2.18666
7.98766
1.7321
3.90508
1.22293
1.93762
3.18959
1.85421
1.48237
0.864968
0.83277
1.47809
0.82713
3.76472
3.53719
5.7066
2.36767
0.95516
4.34023
9.79736
0.909926
11.757
0.923128
0.908234
10.1769
1.03618
1.111
1.10162
2.35209
1.3707
1.01875
0.84316
0.83475
2.26843
12.5359
4.00715
1.40456
2.17025
0.995133
1.06053
4.73268
5.53396
5.93373
11.1378
0.837786
1.16244
1.88397
0.932125
0.826243
0.663677
3.8614
1.96566
1.16765
4.1918
1.21238
0.885914
4.97294
1.21838
1.22996
1.41175
0.971663
15.1154
3.10357
1.25902
1.28283
1.17664
1.31753
14.5655
17.2208
1.3637
1.24228
1.2163
1.22826
36.1785
4.38389
4.89484
1.91068
0.83202
6.08789
1.26002
0.802938
2.15935
3.31564
1.6444
0.991666
1.20021
1.32188
2.08516
3.72432
1.5273
1.32487
1.51521
1.1805
1.64312
3.93526
1.72162
62.5813
55.5234
2.09523
1.36723
2.7321
1.12625
4.39061
3.58258
2.79576
5.81514
1.16555
0.82184
6.74317
1.15418
13.5122
8.62771
0.819416
0.937726
4.41512
3.11924
3.85323
1.54735
1.22011
1.87726
0.912064
1.26988
0.816227
0.829641
2.71076
2.25195
1.37229
6.08972
4.78996
2.82672
0.901769
19.8732
24.7884
1.05183
2.30797
1.16574
0.960669
1.21903
4.18292
0.977581
20.3799
2.80938
2.55087
3.56918
4.01943
4.47921
3.21774
2.6366
2.99761
0.993618
0.896847
2.17672
2.63778
1.05855
0.91555
2.86695
6.94146
4.29347
1.36689
1.06981
4.12303
36.1075
0.921424
1.60735
1.10009
3.00817
0.99725
4.52848
4.87182
4.73446
4.77599
2.12571
2.16736
0.903272
0.836489
0.812765
2.65691
15.3654
5.32805
0.855638
2.71028
1.47092
1.01534
3.55401
3.1096
0.864615
2.97994
9.60484
3.91553
3.22488
4.53534
0.837852
2.97334
0.892169
0.827705
5.86667
0.869362
33.9467
3.7688
0.924307
0.956979
1.15291
3.33502
5.3768
4.02882
5.29977
0.809919
0.82122
0.849718
1.76278
4.22506
3.74764
2.01234
4.14906
1.95301
1.64025
1.09487
1.26045
0.798993
0.811116
1.88884
1.16564
2.68936
4.95757
1.26548
1.9862
0.868442
0.912039
1.19791
4.86708
6.7385
1.02772
1.55617
1.95501
1.68795
22.8607
1.32311
0.922836
1.49981
3.5935
3.96485
0.810903
3.08645
1.01809
1.03238
2.94341
4.71761
4.56398
5.81888
4.87347
10.8618
0.876779
2.15588
1.42388
1.18043
4.21629
6.01677
1.09192
1.16018
1.37973
2.73392
5.0436
3.79659
1.62226
0.849087
31.1855
1.76023
4.84978
4.12433
2.2615
0.987226
5.06175
5.45439
2.36973
2.19211
2.34894
3.93154
1.8007
31.3597
2.19152
1.8512
2.46046
0.804943
6.82513
3.05884
6.71906
3.16716
1.5238
5.7495
0.960935
3.22445
2.21025
0.849842
0.856684
0.864826
0.814172
0.975278
5.0035
1.21119
5.03552
1.63539
11.1718
1.09839
7.97532
0.682964
20.5158
1.33854
7.735
1.01586
1.43923
0.918831
2.68207
1.31401
1.00129
4.80481
3.73382
1.24081
1.28198
2.58577
1.40845
0.813528
3.13124
0.837283
2.0826
1.7538
7.65627
6.35957
6.12987
4.2036
5.83417
1.41679
0.903695
6.10904
1.34676
1.17096
2.98894
1.83929
1.12885
6.88102
6.11152
1.12514
0.85341
3.55892
0.949814
3.21156
2.20456
4.52069
0.860711
0.817247
1.35296
4.61212
3.02786
15.3215
1.06237
2.05178
2.35864
0.943674
1.93662
1.54779
2.31979
4.46364
2.34101
9.69235
0.994909
1.29121
3.10948
1.66965
0.965623
2.24355
1.37951
1.68061
2.35471
1.58832
1.61335
1.65295
30.4706
1.13257
1.10398
1.51387
0.844882
0.814076
0.833898
1.09243
4.09289
2.50636
1.57457
1.70119
2.62367
1.54217
1.99339
0.816435
1.07317
0.980254
0.836958
1.16549
1.16212
4.9623
1.59855
2.4138
7.80645
1.04738
9.86393
1.05743
0.842254
0.824884
17.8422
3.41267
1.09729
4.2279
0.783252
3.94696
1.99218
1.75779
3.22219
6.94001
1.35643
3.06185
3.62511
1.46369
3.29061
1.85821
1.52862
4.03005
5.40596
1.60808
1.51999
2.3618
6.81635
3.07796
1.16763
1.91928
2.91984
16.9789
9.91517
7.13348
1.10501
1.23325
1.10696
3.04144
1.51437
1.59445
1.55971
1.42794
2.25178
1.24632
0.891564
)
;

boundaryField
{
    frontAndBack
    {
        type            empty;
    }
    wallOuter
    {
        lowReCorrection 0;
        type            epsilonWallFunction;
        value           nonuniform List<scalar> 
108
(
2.03476
2.78182
3.27783
0.752114
0.832669
3.3488
4.72003
1.93045
2.39726
3.63389
1.7889
5.35447
4.07074
2.11377
1.62181
0.891228
2.79196
7.1598
1.22821
3.04595
1.05261
2.84288
2.7165
7.88706
2.79423
2.88118
2.85848
3.16355
3.12558
2.9315
3.2925
2.67224
2.82422
2.95671
2.56326
2.89644
3.11879
2.50107
2.75199
3.11888
2.43184
2.44414
3.19361
3.11367
2.11237
2.73798
3.30637
3.33828
3.26041
2.99833
0.881877
6.56759
3.19193
1.44945
1.94297
3.30236
8.8255
3.25474
1.82607
1.1822
2.18666
1.93762
3.18959
11.757
10.1769
1.10162
12.5359
5.93373
11.1378
1.88397
0.663677
0.663677
1.16765
1.21238
1.21838
1.22996
3.10357
1.25902
1.28283
1.17664
1.31753
14.5655
17.2208
1.3637
1.24228
1.2163
1.22826
36.1785
2.15935
3.31564
1.51521
1.72162
3.58258
2.79576
19.8732
24.7884
2.55087
3.56918
33.9467
1.42388
2.34894
31.3597
1.21119
1.33854
1.31401
0.817247
1.35296
2.35864
)
;
    }
    inlet
    {
        type            fixedValue;
        value           nonuniform 0();
    }
    outlet
    {
        type            zeroGradient;
    }
    wallInner
    {
        lowReCorrection 0;
        type            epsilonWallFunction;
        value           nonuniform List<scalar> 
126
(
1.06009
1.05681
1.14713
1.13599
1.93602
1.33319
1.09965
1.09745
1.80559
7.36716
0.99283
0.975418
0.967801
1.17845
1.37137
1.03528
0.997356
1.03202
10.099
1.08529
1.4654
1.00483
1.02096
1.16344
0.99595
1.10764
2.2771
13.7854
1.08545
1.06407
1.27575
1.02923
0.956224
1.33441
1.52214
1.03509
0.999612
1.27072
1.07699
1.56016
1.20169
1.11817
1.09531
1.1282
3.97555
1.8631
1.75623
1.03072
0.974189
3.5501
1.37002
1.57674
3.92318
2.61921
2.01798
1.02105
1.53678
4.06447
5.12572
1.9404
1.37702
1.06169
2.64072
9.36565
2.22346
6.88976
2.88597
8.62305
4.6226
8.46431
7.43968
6.50051
2.36986
9.84368
4.96245
11.671
3.16069
3.53983
2.53287
5.22812
2.04263
3.03259
5.41402
9.08129
6.85919
6.20397
4.73711
5.52142
5.06077
6.90528
7.98766
1.7538
1.41679
3.94696
1.75779
3.22219
6.94001
1.35643
3.06185
1.46369
3.29061
1.85821
1.52862
4.03005
5.40596
1.60808
1.51999
2.3618
6.81635
3.07796
1.16763
1.91928
2.91984
16.9789
9.91517
7.13348
1.10501
1.23325
1.10696
3.04144
1.51437
1.59445
1.55971
1.42794
2.25178
1.24632
)
;
    }
    procBoundary1to0
    {
        type            processor;
        value           nonuniform List<scalar> 
29
(
1.86247
1.86247
1.97553
2.28371
7.91099
4.73733
81.6575
3.49222
14.6081
2.86723
3.39916
4.73733
1.97553
1.79988
79.2392
39.1802
7.91099
9.81117
2.28371
1.80261
19.9795
13.3292
11.8582
17.4417
17.4417
11.8582
13.8754
39.9667
13.8754
)
;
    }
    procBoundary1to2
    {
        type            processor;
        value           uniform 2.25934;
    }
    procBoundary1to3
    {
        type            processor;
        value           nonuniform List<scalar> 
48
(
0.893744
1.64938
1.22916
1.22916
3.41554
2.33399
2.33399
4.09009
0.976653
1.34057
1.56554
1.34057
0.94629
1.20173
1.52512
0.94629
0.798565
0.798565
0.796362
0.796362
0.8226
0.827326
0.845049
1.72004
1.72004
1.22103
0.898105
0.898105
1.73157
3.5968
1.97332
1.73157
4.09009
1.26921
0.880656
3.5968
3.58282
1.56554
0.885607
1.98094
0.892842
1.9266
1.26921
0.880656
1.89868
3.35773
2.4867
0.892842
)
;
    }
}


// ************************************************************************* //
