/*--------------------------------*- C++ -*----------------------------------*\
| =========                 |                                                 |
| \\      /  F ield         | OpenFOAM: The Open Source CFD Toolbox           |
|  \\    /   O peration     | Version:  v1912                                 |
|   \\  /    A nd           | Website:  www.openfoam.com                      |
|    \\/     M anipulation  |                                                 |
\*---------------------------------------------------------------------------*/
FoamFile
{
    version     2.0;
    format      ascii;
    class       volScalarField;
    location    "0.09";
    object      p;
}
// * * * * * * * * * * * * * * * * * * * * * * * * * * * * * * * * * * * * * //

dimensions      [0 2 -2 0 0 0 0];


internalField   nonuniform List<scalar> 
1466
(
92.6302
111.586
96.3548
96.1316
95.0255
101.04
88.9648
96.5146
101.34
101.665
90.4127
101.951
101.292
95.0516
101.205
90.2527
96.6008
101.337
103.891
96.0231
97.8223
90.3674
102.543
95.7619
101.026
109.962
89.0596
97.1396
94.774
109.015
90.9916
111.377
96.6586
95.2577
99.2902
94.6413
95.206
96.5812
101.189
94.9063
90.5094
90.4509
90.2311
92.076
95.115
89.5103
89.6066
95.1078
101.585
96.7895
100.439
111.888
101.211
95.0584
96.5982
99.8548
91.4025
90.2423
96.8462
101.539
109.584
90.8394
94.9466
110.96
96.9576
96.1602
102.082
94.912
103.468
95.8994
108.655
102.501
95.7296
100.608
109.7
100.54
91.3932
95.013
97.2215
106.357
101.367
90.556
95.4792
102.051
95.72
97.1445
95.1759
104.963
101.302
98.912
109.958
89.983
96.3666
94.1432
96.3602
96.4789
111.338
89.9978
101.85
95.0028
100.843
99.9034
95.1341
101.706
90.0316
96.4451
101.408
95.0827
90.6419
92.1578
109.721
102.339
92.2902
90.4029
101.791
109.896
90.207
101.938
89.6305
94.6426
96.0294
92.4969
95.147
92.7614
95.2169
95.6459
104.299
101.959
95.1197
111.058
101.395
90.0468
102.372
95.6217
110.388
89.3185
94.5841
96.6844
89.993
94.7339
96.7192
97.163
95.8528
102.6
88.9358
98.1468
111.477
111.916
110.265
99.4846
109.993
111.376
103.857
96.1378
111.503
90.4251
96.9091
95.219
111.748
92.8563
111.563
105.688
96.1453
96.8753
107.026
89.3494
95.5576
102.2
96.9906
98.4494
97.1005
111.306
96.808
103.57
109.321
99.4493
109.241
109.115
109.789
108.286
101.734
110.508
96.926
96.8418
104.617
97.4295
95.8642
102.135
103.728
97.2813
97.0097
109.432
96.8141
99.3181
90.6713
109.745
96.0576
101.584
107.169
98.2348
95.7988
110.698
107.439
96.2681
109.021
107.693
98.984
107.101
111.79
95.9074
103.18
95.8526
102.099
97.1326
98.1827
96.4954
97.3797
96.6229
104.093
95.4
102.209
110.031
96.8105
109.614
97.0017
105.986
101.8
95.0904
109.86
110.168
109.022
104.164
100.139
96.0767
99.9031
108.258
95.7728
102.385
111.843
96.984
96.7907
105.848
108.413
99.615
111.193
105.189
111.093
100.46
107.528
108.149
97.2086
97.339
106.783
92.2828
111.666
111.805
96.8181
98.3855
95.8543
97.1746
101.789
102.287
95.4963
110.332
92.9959
96.8375
110.502
110.901
99.4902
98.7281
95.8152
95.8256
101.792
111.692
110.076
109.446
109.857
96.5205
97.092
109.796
111.006
89.9504
94.0678
104.614
84.5048
96.854
110.505
111.098
96.9362
105.129
103.322
93.182
101.886
97.0136
97.6768
99.9493
95.4223
96.7923
110.012
110.527
95.069
101.412
109.922
101.423
94.9046
95.0264
94.1515
96.7749
101.118
95.8737
104.623
102.047
95.1794
112.723
111.018
109.736
84.3383
108.712
96.8844
101.089
101.116
95.3855
96.9356
110.727
95.5356
104.246
96.824
108.819
111.1
109.698
101.367
104.779
96.4412
98.6935
90.3292
88.2138
85.3252
111.936
94.7964
93.2248
95.261
106.874
96.6912
107.874
98.5323
109.927
104.37
104.688
103.749
87.7182
96.3591
92.121
96.4844
84.9331
81.1929
89.1807
94.4379
81.7916
97.9308
102.722
81.7004
93.3495
96.1157
95.8603
96.8967
102.025
106.012
105.021
84.7535
97.9093
99.8466
93.4546
105.657
98.9664
96.5341
95.5293
101.973
103.916
93.6124
95.7005
95.6359
95.7834
95.739
95.8118
95.9337
95.8851
96.6701
96.6594
96.7466
96.8252
96.0608
95.5524
95.5305
95.7722
95.1341
95.5191
96.911
102.094
95.4892
95.3956
96.9452
96.8498
99.7038
94.6693
99.4673
90.2905
99.3751
99.1925
90.449
89.9367
100.912
99.8775
99.2834
90.225
100.635
94.9576
94.8699
99.7987
101.097
90.7595
90.0028
90.2936
90.2798
99.0846
90.1478
94.7864
88.5959
107.983
89.4126
94.393
101.421
95.7097
83.2766
94.6087
111.201
96.0102
96.9907
96.2762
95.0775
101.507
97.0662
95.9859
101.597
97.0869
111.009
92.1404
100.079
110.83
92.6864
101.771
110.433
93.2057
96.4817
100.386
96.0286
96.22
95.6929
95.2299
96.3693
110.616
96.712
96.1907
95.4368
94.102
101.959
93.2151
96.0682
96.3726
96.2885
96.0219
96.4413
95.5193
101.925
95.0187
110.4
93.2657
95.2049
96.3842
96.1926
95.5189
97.8771
94.2075
94.7451
96.4459
95.7741
106.459
93.4743
95.2007
94.3499
96.4037
95.1047
97.1333
96.5888
96.0269
96.3711
95.608
95.4319
95.9182
110.296
95.6218
95.8466
95.8122
95.2923
102.109
94.864
95.9852
101.802
110.183
93.7133
95.4531
111.761
96.1901
96.0573
96.2939
95.329
95.6954
96.3387
101.647
103.351
96.5129
95.8277
96.0708
96.8067
107.232
96.375
96.1986
96.1856
84.8381
96.2272
96.5079
96.3074
94.5365
89.1712
95.7734
95.7328
96.3416
99.5346
103.532
96.1949
94.5592
105.945
102.031
95.0038
95.6856
96.1368
100.1
95.9735
101.708
96.7778
109.995
89.7833
93.7999
95.0771
95.8469
95.7869
95.2737
95.3482
95.4717
85.7224
103.386
96.4383
84.8173
110.816
106.951
103.376
95.4807
95.9208
96.5692
105.533
95.6124
95.6433
96.3478
111.49
110.533
96.3213
95.6605
94.8357
95.6386
95.5936
91.4858
96.0668
95.5071
95.5627
96.1455
95.5744
96.3261
95.8815
100.257
95.4466
95.3083
94.9841
102.006
82.7929
95.6824
97.7185
96.0422
103.508
96.5539
95.9862
96.9815
109.952
101.712
96.5113
100.175
100.96
81.153
111.552
95.07
101.789
95.7941
96.3713
95.6822
104.145
98.0752
94.6925
108.427
109.907
105.685
103.937
95.7524
101.711
96.8063
111.766
100.215
103.171
95.7766
95.1422
81.0266
82.105
95.4046
94.7619
105.486
104.115
96.8875
95.7261
101.051
95.9519
96.3591
111.532
95.7587
96.3526
100.843
96.2942
109.714
95.8296
101.176
82.119
96.1037
96.0118
103.63
95.7849
102.659
113.168
96.7524
91.7785
95.819
94.2476
95.3773
111.384
97.8086
96.9087
104.164
96.2173
102.399
94.0243
110.448
95.3756
112.092
102.106
94.2438
96.7964
112.019
89.197
95.2009
101.733
95.0521
101.321
109.924
90.718
104.152
95.5511
96.6447
110.031
102.188
108.622
83.1872
107.197
110.74
95.2931
109.9
89.9399
103.158
103.045
99.2991
108.202
111.087
99.1297
88.22
106.685
96.2926
95.8857
107.732
110.333
110.92
95.7479
95.6769
112.045
96.0274
111.354
95.6842
96.2296
101.482
93.8831
96.4023
96.2251
94.9068
86.8143
95.8094
84.0232
108.997
99.2664
90.398
102.184
94.9612
95.31
95.6749
95.6661
96.0839
95.0171
109.934
86.1435
94.9255
86.6788
95.0083
102.248
107.728
96.8986
96.2605
94.1059
97.2702
95.2936
101.301
95.7924
94.7665
94.0122
88.9305
105.502
109.768
95.9345
104.785
95.6104
91.4641
110.019
96.8093
95.2891
102.22
96.9996
96.0223
102.38
102.239
95.9073
96.4438
109.53
111.761
96.5518
107.991
96.9226
101.089
102.13
96.904
111.946
96.2669
95.0875
92.0227
89.9615
96.948
111.085
109.034
95.9174
99.6133
95.8008
95.1237
97.1098
95.677
86.5096
95.0459
101.228
95.28
95.7226
98.2171
95.6244
92.2591
97.2159
96.297
111.582
102.3
96.1592
89.7041
96.3195
95.1872
93.9106
84.0699
95.5037
96.5881
88.5879
96.8221
109.878
102.457
90.2986
96.3591
96.8913
97.8394
101.822
95.0701
109.299
96.5361
84.6255
97.0649
110.225
96.3067
101.151
95.9277
97.3145
109.101
94.9352
90.8911
97.1995
101.14
102.547
101.651
106.964
83.9146
96.026
90.306
90.1884
100.215
100.448
109.46
96.0212
95.8275
95.757
95.8291
96.3242
91.81
88.7707
99.6088
105.118
95.3704
112.033
83.1272
90.5804
104.193
95.7146
95.2068
95.0211
112.105
106.189
109.557
101.188
95.7739
95.346
95.3823
102.206
95.3977
109.88
95.91
95.4197
95.3426
112.008
95.319
95.2857
110
82.7856
111.797
95.7095
95.9095
96.213
95.9192
95.967
95.9227
96.5901
96.142
96.8043
96.3613
98.1921
102.972
103.284
98.5394
97.9283
97.6723
98.9492
102.762
103.871
100.014
99.4695
104.745
105.757
107.276
106.648
97.4294
97.2496
97.1755
95.8773
103.174
100.736
109.942
83.8712
96.2853
99.9362
94.9691
95.0689
101.339
95.8453
100.973
95.7397
100.928
105.864
101.358
101.822
95.5876
82.168
111.339
95.6221
111.034
99.0292
96.2424
90.1325
97.1904
92.4203
95.1547
92.5489
111.639
101.28
96.8369
101.198
84.6737
95.491
94.2114
94.4983
89.6183
96.6073
111.506
108.596
95.6407
90.3453
94.8346
112.524
101.604
103.861
101.904
108.769
100.904
107.891
89.2491
96.6046
87.4347
109.867
101.421
89.7473
111.097
96.1786
103.734
97.0483
104.768
95.2708
101.941
96.8138
101.584
95.7324
86.6252
94.7905
97.1093
90.2645
97.3063
110.276
111.033
109.714
95.4366
96.2942
110.698
93.2701
95.5932
101.968
95.6935
102.203
97.1674
95.8613
110.735
102.066
95.0969
110.294
95.0803
101.647
100.343
101.782
101.627
108.369
82.528
94.9254
100.409
95.4913
93.471
87.1291
102.34
108.928
89.9018
94.704
95.108
101.708
100.645
95.1959
101.9
96.9911
109.981
95.893
96.7941
89.857
111.593
112.48
95.8641
100.971
81.2653
90.3714
100.063
95.8276
101.745
95.2182
102.788
95.8621
95.0186
91.4681
98.6328
109.735
111.001
95.8103
87.9434
112.324
109.775
91.7196
101.34
109.407
104.571
93.0078
95.2573
104.634
96.4266
109.632
110.101
95.987
96.0459
93.0104
95.2074
110.797
94.8064
104.549
95.0397
112.181
106.695
111.624
109.63
96.1615
93.6266
106.241
104.604
109.932
95.9679
108.529
92.8057
95.1663
109.925
94.3053
95.3843
110.252
96.4274
111.165
91.2393
97.5333
111.032
111.296
93.3994
95.2459
101.91
96.9288
110.62
110.893
110.506
110.75
104.325
103.971
111.647
111.581
111.513
111.419
99.5165
89.7528
83.126
112.314
111.307
97.0229
95.9128
110.638
101.829
95.1557
95.2792
90.5438
94.8776
95.6289
97.1847
106.429
96.2158
95.4154
111.538
100.989
112.215
109.589
109.369
100.485
101.673
97.5335
97.2133
104.752
109.24
100.754
95.4981
102.204
100.878
96.4165
111.233
107.273
101.044
104.038
105.313
101.677
92.7822
94.9644
94.5226
110.031
90.9805
95.3919
90.1832
95.795
96.2937
95.0954
101.603
106.626
98.5305
100.634
95.8668
94.8159
99.0819
95.744
103.394
102.717
95.5595
111.533
95.8394
109.298
101.123
112.089
95.8317
101.361
99.7899
101.973
95.2775
97.4467
93.5987
106.454
89.8156
97.5396
94.9569
90.9793
94.9622
95.3399
93.3684
95.3621
88.5642
104.955
89.857
90.6741
90.3618
94.8861
100.427
109.338
96.6833
90.7804
96.93
95.7374
94.1729
95.4783
92.5777
90.2701
97.1571
89.5873
109.466
91.3532
101.476
99.3953
103.09
110.224
109.881
108.243
111.719
100.794
105.794
107.192
111.477
100.92
100.682
96.3077
110.839
96.0941
109.948
112.206
92.7505
95.1958
98.8805
101.843
100.856
95.2817
95.5977
95.7832
96.2008
100.38
100.272
93.796
94.01
95.0813
101.69
101.743
89.6643
91.9846
108.34
101.674
95.6405
94.0261
95.4438
90.641
99.5183
95.0785
101.53
96.964
90.0116
96.5316
96.1038
111.708
106.595
101.739
95.1355
95.9159
95.5143
101.152
95.1246
95.4432
108.043
96.645
103.526
90.3636
101.835
95.4797
96.379
94.8819
109.981
96.8814
109.151
90.3534
96.8224
93.8985
95.4349
96.1691
96.3068
101.27
111.198
100.715
111.674
95.9937
95.8111
105.382
95.8631
90.5216
101.845
94.903
97.0162
97.3819
112.243
109.915
102.66
96.0025
95.5024
94.6391
102.041
95.8779
85.2452
100.638
95.7698
94.5996
100.527
95.3202
101.709
101.918
102.847
95.8531
97.9399
101.517
97.72
89.9172
99.3326
94.9665
102.039
97.5238
96.4971
93.5827
95.1791
91.9609
95.0892
91.1692
111.164
95.7473
99.5963
110.005
92.0852
89.7731
104.699
95.8674
89.5004
109.926
104.37
109.609
99.5694
94.9699
95.8678
109.861
101.703
110.072
95.7523
95.2018
94.4478
95.9401
94.5374
97.6252
96.7729
110.93
96.8377
111.243
90.6337
91.1074
99.8586
107.922
108.901
95.6028
109.785
101.976
111.492
109.359
96.117
94.5366
107.699
101.087
108.755
106.694
108.386
95.9592
110.115
98.5169
109.822
106.899
97.5483
94.3823
109.902
109.915
110.387
110.636
97.0754
104.612
108.99
98.3411
107.926
110.696
90.1262
108.507
89.9656
89.689
89.0268
87.9831
90.2907
96.1121
97.0577
97.2957
100.717
105.845
109.164
96.4847
104.878
96.2842
97.6051
97.451
103.77
99.9931
95.2922
93.6277
110.686
95.0828
101.471
111.67
91.2196
112.674
102.159
95.3313
105.894
96.5324
97.3862
110.418
95.9927
90.2249
91.6556
96.1064
100.454
94.0916
89.9935
89.3399
105.732
111.78
102.028
111.806
109.841
110.561
101.122
107.167
100.541
92.5052
110.555
101.537
91.4831
110.924
88.5457
95.3604
93.6137
92.0782
92.6676
95.4788
94.7265
94.9221
95.2613
97.7618
97.3889
96.0694
96.8256
101.797
102.642
99.1304
101.6
107.697
113.594
101.624
100.498
99.262
91.2869
90.5889
94.9774
96.4949
94.9205
94.8209
101.167
96.2774
112.21
109.933
110.42
)
;

boundaryField
{
    frontAndBack
    {
        type            empty;
    }
    wallOuter
    {
        type            zeroGradient;
    }
    inlet
    {
        type            zeroGradient;
    }
    outlet
    {
        type            fixedValue;
        value           nonuniform 0();
    }
    wallInner
    {
        type            zeroGradient;
    }
    procBoundary1to0
    {
        type            processor;
        value           nonuniform List<scalar> 
29
(
94.133
94.133
88.4318
88.1465
87.1521
89.29
97.4786
88.5558
88.4145
87.9625
88.524
89.29
88.4318
94.0323
97.4503
98.3338
87.1521
85.7121
88.1465
93.3921
99.6471
100.513
88.0881
100.271
100.271
88.0881
101.536
97.9479
101.536
)
;
    }
    procBoundary1to2
    {
        type            processor;
        value           uniform 94.1808;
    }
    procBoundary1to3
    {
        type            processor;
        value           nonuniform List<scalar> 
48
(
95.1408
94.9345
95.0286
95.0286
94.9814
94.455
94.455
95.0491
95.243
94.844
94.3807
94.844
95.0322
94.9482
94.8157
95.0322
95.0656
95.0656
95.0813
95.0813
95.1009
95.1483
95.085
93.9902
93.9902
95.0331
95.1918
95.1918
95.1693
94.827
94.8266
95.1693
95.0491
95.2599
95.0652
94.827
95.1238
94.3807
95.2142
95.0883
94.9914
95.2253
95.2599
95.0652
94.6216
95.2622
95.0212
94.9914
)
;
    }
}


// ************************************************************************* //
