/*--------------------------------*- C++ -*----------------------------------*\
| =========                 |                                                 |
| \\      /  F ield         | OpenFOAM: The Open Source CFD Toolbox           |
|  \\    /   O peration     | Version:  v1912                                 |
|   \\  /    A nd           | Website:  www.openfoam.com                      |
|    \\/     M anipulation  |                                                 |
\*---------------------------------------------------------------------------*/
FoamFile
{
    version     2.0;
    format      ascii;
    class       volScalarField;
    location    "0.98";
    object      nut;
}
// * * * * * * * * * * * * * * * * * * * * * * * * * * * * * * * * * * * * * //

dimensions      [0 2 -1 0 0 0 0];


internalField   nonuniform List<scalar> 
5794
(
0.000644554
0.000578523
0.00409511
0.0048899
0.0169393
0.00117103
0.00120528
0.000899488
0.00226553
0.000580844
0.00203366
0.00134439
0.00141589
0.00789221
0.00131292
0.00203448
0.0102639
0.00699103
0.000852949
0.000614787
0.00150973
0.000609816
0.00158809
0.000811579
0.00114946
0.0038105
0.0136921
0.012659
0.00386888
0.00070542
0.00153957
0.00207856
0.00241034
0.00106833
0.00137154
0.00203379
0.000786261
0.00172548
0.0018984
0.0075384
0.00642016
0.00297194
0.000743777
0.00130638
0.00136653
0.00231054
0.00187219
0.00103544
0.000500216
0.000516433
0.000548779
0.00296908
0.000669636
0.00159131
0.000103545
0.00230124
0.00178101
0.00144843
0.000733722
0.00502072
0.00132899
0.000397168
0.00131229
0.00480026
0.00571637
0.00080472
0.00560896
0.000696809
0.00554302
0.000317496
0.00616796
0.00499689
0.0159284
0.00103952
0.00582699
0.00872537
0.000206049
0.0033833
0.00117777
0.000267708
0.000563046
0.000356975
0.00695769
0.00177122
0.00164629
0.000897394
0.000748323
0.00102077
0.00155021
0.00294935
0.00502607
0.00210768
0.00342104
0.005407
0.00260572
0.00804116
0.00396782
0.00318398
0.00198474
0.00142809
0.00143441
0.00119497
0.000757492
0.0118662
0.00331742
0.0125934
0.000430983
0.00416684
0.00511615
0.00102422
0.000676111
0.000612889
0.00138559
0.0016745
0.00232956
0.00406225
0.00100031
0.00630961
0.00123763
0.00100889
0.00870565
0.000184706
0.000828609
0.0108998
0.00126249
0.00361393
0.00350145
0.0014163
0.00339736
0.00391168
0.00164349
0.00188233
0.00303241
0.00319397
0.0111215
0.00150495
0.0029596
0.000435717
0.00337245
0.000789603
0.00125648
0.0127736
0.00142338
0.0131088
0.00441217
0.0130674
0.00195392
0.00148469
0.0141782
0.00690505
0.000726754
0.00107508
0.0121647
0.000836278
0.0144406
0.00171552
0.00172055
0.00126103
0.00213064
0.00156249
0.000342861
0.000695241
0.00034276
0.000909321
0.00193871
0.00186455
0.000852184
0.000627071
0.000390172
0.000231147
0.000286755
0.00194156
0.000604788
0.00046715
0.000309925
0.00128557
0.00021401
0.00103092
0.00047198
0.00190287
0.000651254
0.0011611
0.000605352
0.0015319
0.000716001
0.00377172
0.00111039
0.0011132
0.000235573
0.000822948
0.00165335
0.00138724
0.00170634
0.000836634
0.000968412
0.000867417
0.000813212
0.000341965
0.000385536
0.00100967
0.0010198
0.00209817
0.000908682
0.000830979
0.00164433
0.00199896
0.000665
0.0058246
0.0136704
0.00197651
0.000815119
0.000858059
0.00277571
0.00147177
0.00108269
0.00153486
0.00200967
0.0036071
0.00355215
0.00545622
0.000856915
0.00223327
0.00835449
0.00369809
0.00236754
0.00695691
0.000668763
0.00110468
0.000357947
0.00144099
0.000823681
0.000631507
0.000689974
0.00364159
0.00304473
0.0108199
0.0138194
0.00206008
0.000998855
0.000743262
0.00029868
0.00767757
0.00234888
0.00155707
0.00129719
0.00131935
0.00146877
0.0121352
0.00114097
0.000944459
0.000706072
0.000898435
0.0127109
0.000471287
0.000811869
0.0230014
0.000908877
0.000894176
0.00382212
0.001055
0.00254193
0.00262829
0.00141591
0.000765957
0.00114189
0.00119186
0.00968999
0.00368396
0.000666592
0.0028936
0.0024762
0.00116757
0.00320511
0.00504342
0.000869037
0.000932833
0.00156966
0.00118473
0.000591669
0.00134413
0.000611399
0.00324848
0.0046274
0.00184763
0.00530975
0.00525479
0.00255184
0.00307865
0.00531953
0.00882802
0.00146222
0.00092547
0.00121207
0.00153373
0.00077191
0.00310919
0.00246184
0.00125976
0.00279805
0.00118851
0.000291903
0.000995185
0.0004734
0.00330528
0.00100337
0.00310851
0.000579875
0.00432283
0.00249666
0.00214056
0.00132032
0.00279486
0.00228798
0.0017111
0.000783008
0.000904343
0.00513439
0.0136962
0.00458879
0.00403764
0.00184672
0.00116161
0.00514513
0.0161526
0.00316844
0.0019857
0.001114
0.00113636
0.00123272
0.00186641
0.00180107
0.00082199
0.000885516
0.00149646
0.00130312
0.000292452
0.000260057
0.000308568
0.000194892
0.000912794
0.000463493
0.000893331
0.00233243
0.00114326
0.000271973
0.000553274
0.00170076
0.001226
0.00217187
0.00171672
0.00199135
0.00253408
0.00147662
0.0011647
0.000670171
0.00264664
0.000362454
0.00187527
0.00111817
0.000861186
0.00581095
0.00255475
0.00296812
0.00191741
0.0010846
0.00426194
0.00172868
0.00154653
0.00125431
0.000987027
0.00151437
0.000530506
0.00486701
0.00355606
0.00660986
0.00300092
0.00166438
0.0013898
0.00167619
0.00041676
0.0035048
0.00153498
0.000750245
0.00170458
0.00114149
0.000941093
0.00638351
0.0027999
0.00125324
0.000927126
0.00067789
0.00167634
0.000438858
0.00111965
0.000544862
0.000418951
0.000301741
0.00103962
0.00124373
0.00163396
0.000752232
0.00117376
0.0145724
0.000360948
0.000374528
0.00260419
0.00167867
0.00114809
0.000903081
0.004092
0.00336751
0.0020372
0.0044193
0.00117237
0.00174129
0.00143593
0.000703751
0.00550172
0.00193662
0.0034961
0.00186926
0.00292416
0.00535932
0.0015485
0.000803757
0.000617426
0.00037223
0.00160331
0.000381662
0.000804441
0.00296205
0.000784429
0.0116345
0.0020631
0.00110846
0.000591953
0.00105017
0.00127287
0.00118654
0.000845159
0.000777358
0.000805555
0.000932184
0.000841727
0.00113013
0.00460089
0.00247726
0.00312794
0.000440987
0.00284343
0.000302795
0.000658907
0.00201087
0.000718106
0.00493852
0.000503445
0.00453865
0.00793769
0.00347322
0.00719176
0.00100378
0.00102642
0.000797183
0.00165386
0.00153531
0.00394499
0.0106698
0.0200395
0.00529913
0.00117807
0.000164065
0.0143345
0.0044525
0.000894017
0.00126178
0.00311257
0.0201639
0.0137538
0.00128489
0.00084461
0.00102372
0.000973891
0.000746957
0.000623142
0.00545112
0.0034496
0.000861498
0.00112117
0.00279861
0.000777177
0.00055136
0.00459876
0.00426588
0.0138613
0.00157313
0.000879562
0.000742178
0.00179913
0.00178229
0.00237705
0.0211065
0.0191585
0.000728652
0.00183948
0.0132091
0.00106413
0.00104211
0.00111964
0.00485851
0.00104372
0.00805283
0.000636407
0.00435137
0.000585873
0.00175238
0.00224692
0.00376236
0.000598989
0.0008055
0.014538
0.00121534
0.00110277
0.0188468
0.00678117
0.00448869
0.00127071
0.00126933
0.00210472
0.000933507
0.00082847
0.00113681
0.000282778
0.00999358
0.00234593
0.00260621
0.00087518
0.000785556
0.00299901
0.00391875
0.00211162
0.000671044
0.00233064
0.000340029
0.00551172
0.00136512
0.00300849
0.000755315
0.0133129
0.00134952
0.00102327
0.0127686
0.000543938
0.000246352
0.00103745
0.00204971
0.00139621
0.00116396
0.000800874
0.000923523
0.0115871
0.0186242
0.000369585
0.00332507
0.00117899
0.00588789
0.000997063
0.00127426
0.0061417
0.00042795
0.00117723
0.00165309
0.00279084
0.00146777
0.00132671
0.00151085
0.000858908
0.0206761
0.00427414
0.00175619
0.00393313
0.0048752
0.00256999
0.00787245
0.0077321
0.00324432
0.00138664
0.00145977
0.004465
0.0024252
0.00488217
0.00113258
0.00195386
0.000512124
0.00534017
0.00260843
0.00311956
0.000349173
0.00083119
0.00115096
0.00144072
0.000765896
0.00178862
0.00271418
0.00555847
0.00083359
0.00279136
0.00340461
0.000248917
0.000121511
0.00554276
0.0204785
0.0234141
0.0113909
0.00114944
0.000682538
0.000809952
0.00218662
0.00104148
0.000866599
0.00184443
0.000238447
0.00329504
0.00409706
0.00559952
0.000322567
0.00163046
0.00377405
0.0145134
0.00617687
0.00122359
0.000930931
0.000501084
0.000184328
0.001251
0.00103617
0.000833326
0.00377915
0.000809478
0.000632581
0.0134332
0.00134974
0.000845723
0.00400183
0.00255598
0.00284228
0.00533905
0.00249691
0.0010114
0.0024196
0.0005877
0.000891548
0.00104241
0.00240579
0.000583084
0.000533557
0.00302945
0.0157251
0.002748
0.00207428
0.00367181
0.00100389
0.000537944
0.000917406
0.00111338
0.000717838
0.00307709
0.00559821
0.00547664
0.00255647
0.00277626
0.00204634
0.0011489
0.0129375
0.00144437
0.00143665
0.00289084
0.00583328
0.00153199
0.0116986
0.00109792
0.000914644
0.00512577
0.00161738
0.00338872
0.0118465
0.00279765
0.00379953
0.00202209
0.000675545
0.000734898
0.00654678
0.00813916
0.0036155
0.00328386
0.00149955
0.0019052
0.00634421
0.00039903
0.000984777
0.000769684
0.000230318
0.000707557
0.000271943
0.000954425
0.0114566
0.00327121
0.00243988
0.000772301
0.00270617
0.00697678
0.00111972
0.00774636
0.00361103
0.00295269
0.0044177
0.000775368
0.000733535
0.017274
0.00309417
0.00600448
0.00771945
0.00407227
0.00310441
0.00308451
0.0221453
0.00125693
0.000808172
0.000818977
0.00814198
0.000956117
0.0028654
0.00282181
0.0063811
0.00222873
0.00153051
0.00179357
0.00637772
0.00446981
0.00210452
0.00340318
0.00461281
0.000237619
0.000333429
0.000167658
0.000461356
0.00487263
0.00260268
0.00463057
0.000994655
0.000803006
0.00207818
0.000940463
0.00174225
0.000538502
0.00261524
0.0051576
0.00075615
0.00590552
0.00274346
0.000709497
0.00104597
0.0208942
0.00493775
0.00308279
0.00585051
0.00590929
0.00282461
0.00345765
0.00156441
0.00408007
0.00231938
0.00460911
0.011462
0.00238782
0.0033603
0.000704175
0.000910011
0.00137642
0.0152111
0.00112648
0.00652775
0.016479
0.00116041
0.00102699
0.00110043
0.00510685
0.00271226
0.00674776
0.00525057
0.00263323
0.00473933
0.00577411
0.00691185
0.00359038
0.00083494
0.00285294
0.000520107
0.00282612
0.000767587
0.00358673
0.000863005
0.00563979
0.00103672
0.00291621
0.00179425
0.00129292
0.00648677
0.00565639
0.00307865
0.00874177
0.00346596
0.00122088
0.00103607
0.00107965
0.0095117
0.00103477
0.00230551
0.00303602
0.0081784
0.00094334
0.00087888
0.00130187
0.00137853
0.0150997
0.00129879
0.000768908
0.00102617
0.000969691
0.00141671
0.00251494
0.00479451
0.00479311
0.000771461
0.00223725
0.00852475
0.00109375
0.00263515
0.0179261
0.000358078
0.000153235
0.000416121
0.000690152
0.00456398
0.00435406
0.000875404
0.00144439
0.00129703
0.000711679
0.000839375
0.0230935
0.00277411
0.00576298
0.00164737
0.00243577
0.00355045
0.00295632
0.0142095
0.00524469
0.00176736
0.000621515
0.000754189
0.011752
0.00106956
0.0011628
0.0075961
0.00383959
0.00422359
0.00391734
0.00172743
0.0109824
0.00331441
0.000773163
0.0030748
0.00123222
0.00408111
0.000869228
0.00186412
0.0031419
0.000816047
0.000753053
0.000581662
0.00458908
0.00385803
0.00089788
0.000706143
0.00210677
0.00114685
0.00391864
0.000886019
0.000799372
0.00269876
0.00145291
0.00305828
0.00592661
0.00444969
0.00590147
0.0150373
0.000802617
0.000517887
0.00886185
0.00140489
0.00123841
0.000950679
0.00127131
0.00208237
0.000342688
0.000790297
0.00132334
0.00845633
0.0029943
0.00488725
0.000845655
0.00301181
0.00558126
0.018717
0.00207113
0.00327477
0.000784976
0.00105066
0.0176137
0.00105319
0.00305925
0.000841457
0.00135036
0.00104791
0.00152953
0.000413816
0.0019423
0.00125937
0.00052873
0.000372122
0.000285928
0.000295796
0.000181897
0.000661342
0.0140407
0.0131606
0.00323304
0.00186404
0.0027981
0.0108265
0.000755842
0.000963365
0.000966836
0.00989412
0.00133419
0.0210409
0.00628466
0.0022983
0.000785845
0.00830968
0.00173071
0.000642178
0.00074631
0.0234501
0.00602562
0.000834262
0.00170159
0.000878808
0.0034244
0.00146684
0.0169173
0.000594015
0.000504543
0.000453231
0.00053242
0.000449346
0.000890003
0.00231238
0.00118124
0.000752795
0.000691019
0.000789499
0.00955836
0.000782837
0.000726588
0.00140004
0.00165382
0.000831645
0.000898102
0.00045562
0.00110599
0.000750294
0.00093946
0.000756958
0.00127628
0.000649033
0.00195699
0.00473793
0.000696633
0.000833729
0.000750822
0.00266485
0.0008303
0.00214523
0.000777062
0.0229229
0.0021278
0.00114418
0.000825609
0.00087501
0.0132187
0.00098123
0.00252986
0.00261785
0.00531467
0.00194767
0.000973264
0.00119875
0.00175328
0.000831864
0.00121685
0.00180693
0.00167494
0.00148865
0.00013753
0.00198703
0.00143211
0.0010936
0.00108657
0.00162088
0.000382248
0.000782887
0.000873371
0.00120172
0.000746936
0.0128985
0.000796594
0.00380881
0.000790237
0.000783492
0.000736531
0.000724823
0.000585324
0.00100317
0.0130675
0.0122433
0.00425274
0.000448247
0.000826848
0.00297121
0.00124515
0.00122529
0.00172249
0.00187598
0.00518265
0.00137517
0.00697029
0.000402552
0.000842038
0.00622063
0.000445006
0.0185703
0.000726031
0.000681345
0.00284386
0.00808361
0.00102965
0.00347694
0.00099461
0.00111054
0.00115224
0.000954073
0.000502657
0.000927744
0.000830311
0.000659633
0.000728808
0.000593505
0.000708025
0.000961672
0.00407732
0.000979957
0.000723753
0.00545296
0.00260871
0.00106399
0.000501842
0.0079872
0.00292027
0.00659451
0.00987165
0.001274
0.00114787
0.00029984
0.0197701
0.000786306
0.00430138
0.000755578
0.0190686
0.00256353
0.000220021
0.00109297
0.000306864
0.000669745
0.00174072
0.00050679
0.00112846
0.00110233
0.000260273
0.00108117
0.000168504
0.00023628
0.000938581
0.00111702
0.00107839
0.00658314
0.0032342
0.00605792
0.000279725
0.00129717
0.000821437
0.0010452
0.00117866
0.000789864
0.00833549
0.000811276
0.00338651
0.00102934
0.000746395
0.000985932
0.0228467
0.0116631
0.000518906
0.00280787
0.00736544
0.00538803
0.0121191
0.000744684
0.00553954
0.00484471
0.00312063
0.000950691
0.00828241
0.000726572
0.000726522
0.000814124
0.00093672
0.00122787
0.00125548
0.0131259
0.00107047
0.00099684
0.00302373
0.00469893
0.00479579
0.000764875
0.00146279
0.00132314
0.00113297
0.00127433
0.000702193
0.0178389
0.00140463
0.00616732
0.00301535
0.00667544
0.000911599
0.00223551
0.0020269
0.00263013
0.00104126
0.00102629
0.000772164
0.00123343
0.000739762
0.0219154
0.000753348
0.000816362
0.000754684
0.000911054
0.000832539
0.000776446
0.000868786
0.000747631
0.00330325
0.00136304
0.0110853
0.000732607
0.000745182
0.000514475
0.000852041
0.00171923
0.00953107
0.0017289
0.000679465
0.000943752
0.000768044
0.00202718
0.000788487
0.000704676
0.000818912
0.000678378
0.000844104
0.00102348
0.000986661
0.0077659
0.000515032
0.0127225
0.000898703
0.000494694
0.00072308
0.000823606
0.00108452
0.00320517
0.00136922
0.000742168
0.00205014
0.000904129
0.0010337
0.00159723
0.00121157
0.000702325
0.000606191
0.00120167
0.00149557
0.00443095
0.00615196
0.00255269
0.000828565
0.000197856
0.00786488
0.00116891
0.00534065
0.00666139
0.000491528
0.000863841
0.00110029
0.00167316
0.000249934
0.0120563
0.006518
0.00111045
0.00822379
0.00338526
0.00162703
0.0004496
0.00829259
0.0212931
0.00883249
0.00131001
0.000690456
0.00179635
0.00281579
0.000836136
0.000546806
0.000661915
0.000783624
0.00321058
0.00312086
0.000345394
0.00571512
0.00102978
0.000702413
0.000406815
0.00290976
0.0118162
0.00152397
0.00306653
0.00599695
0.00864702
0.0146234
0.00210805
0.00222205
0.000795155
0.0058174
0.0036034
0.00740031
0.00559245
0.00252353
0.00400746
0.00139203
0.0153397
0.00454537
0.0169294
0.00234261
0.00101494
0.00116631
0.017343
0.00215377
0.00102483
0.00510052
0.00400647
0.00212218
0.0062913
0.00626711
0.00251329
0.0130304
0.00270477
0.000266884
0.000806674
0.00372476
0.0010698
0.000859563
0.00177809
0.000830961
0.00425164
0.00349929
0.00626452
0.000434158
0.00915882
0.00360387
0.00277517
0.0037256
0.00117364
0.000979961
0.000699501
0.0112913
0.00143637
0.00111397
0.00078694
0.0173924
0.00071878
0.00146033
0.00940247
0.00827579
0.00185854
0.00191328
0.0129436
0.00143411
0.000786156
0.000144151
0.00663627
0.00392149
0.00824731
0.00739275
0.00111394
0.00218017
0.0051385
0.00584027
0.000957857
0.00151199
0.0013274
0.0015117
0.00114084
0.0108285
0.00203059
0.000994772
0.00586131
0.00157833
0.00678384
0.000928045
0.00229898
0.000841901
0.00152447
0.00217302
0.00110172
0.000821976
0.00109152
0.00136461
0.000284203
0.00159468
0.000595041
0.000822542
0.0039109
0.00275989
0.00549978
0.0015316
0.00520845
0.00529483
0.00657536
0.000935397
0.00194559
0.00180926
0.00141843
0.000226147
0.000180461
0.000230224
0.017957
0.000826189
0.00266734
0.00208803
0.00391758
0.00364944
0.00161084
0.000181708
0.000282328
0.000293194
0.000228394
0.00041259
0.000499519
0.000371022
0.000334277
0.00045351
0.000535966
0.000491351
0.000358495
0.000270635
0.000200925
0.000200644
0.000459141
0.000543176
0.000414281
0.000406322
0.000240385
0.000393534
0.000185441
0.000213209
0.000179225
0.00081852
0.000225255
0.000301038
0.000168848
0.00048727
0.000269221
0.000361946
0.000342923
0.000245857
0.000334551
0.000257703
0.000276311
0.000364278
0.000265331
0.000367905
0.000599517
0.000234736
0.000177348
0.000316393
0.000302229
0.00184011
0.00191411
0.0122376
0.000991949
0.00594942
0.00287038
0.00526015
0.0145887
0.00105375
0.00136581
0.000845113
0.000954055
0.0028937
0.00618271
0.0190309
0.0186982
0.00544088
0.00285316
0.000488159
0.000521188
0.00248214
0.000782963
0.000363318
0.0056443
0.00240475
0.0035198
0.00169544
0.00553001
0.00478077
0.00529939
0.00146939
0.00909764
0.00344487
0.0189961
0.00176576
0.002224
0.00167355
0.000763347
0.0143217
0.00126091
0.00162516
0.007696
0.00236039
0.0052517
0.00472772
0.00171376
0.00148415
0.000842041
0.000848847
0.0166676
0.00210822
0.000464961
0.000377005
0.00796629
0.0140081
0.000205201
0.00359132
0.00696969
0.000403097
0.000380825
0.000395992
0.000358598
0.000250475
0.000438847
0.000510612
0.000237082
0.000288153
0.000533619
0.000371714
0.00032895
0.000207077
0.000308484
0.000233726
0.000250078
0.000378456
0.000202786
0.000338539
0.000189673
0.000310456
0.000182478
0.000270919
0.00338079
0.00278188
0.000444478
0.000893708
0.00427237
0.000848692
0.00938578
0.000840485
0.00296335
0.014376
0.00569811
0.0028392
0.0139269
0.00242764
0.000193287
0.0138727
0.00210995
0.00132778
0.0224523
0.00484643
0.0122567
0.000717623
0.0135301
0.00169387
0.00127879
0.0133571
0.000903532
0.00333627
0.00377981
0.0015879
0.00230194
0.00620148
0.00121898
0.00924452
0.0169754
0.00307802
0.00716469
0.000574752
0.0098493
0.000982263
0.00199233
0.00113126
0.00637418
0.00166099
0.00234069
0.00296291
0.00178438
0.00703174
0.000834641
0.00302487
0.000631212
0.00608928
0.00511134
0.0232449
0.000157434
0.000772001
0.00102675
0.00864525
0.00284111
0.000241087
0.000619225
0.00581656
0.00460466
0.0130556
0.000832686
0.00209072
0.00207783
0.00110403
0.00389907
0.00113929
0.0073677
0.000801649
0.000249008
0.000181488
0.00915925
0.00631515
0.000789336
0.00747853
0.0048582
0.00329988
0.0132405
0.0186556
0.0108181
0.0134208
0.0121214
0.00193335
0.00835569
0.00132426
0.00199134
0.00143533
0.00693332
0.000725846
0.00083588
0.00107992
0.0151923
0.00086225
0.000601811
0.00162797
0.00329562
0.00364433
0.00940406
0.0136075
0.00942385
0.0037831
0.000830913
0.0127651
0.000558399
0.00210894
0.00202567
0.00115913
0.0113129
0.0161979
0.00316308
0.013815
0.00279993
0.00768515
0.00143244
0.00150272
0.00215156
0.00270969
0.00102712
0.00179096
0.00182843
0.013046
0.00103617
0.00144551
0.00382287
0.00298586
0.00143002
0.00156207
0.00189837
0.0149822
0.00543742
0.00720676
0.00505875
0.00115312
0.000674442
0.0013514
0.00347959
0.000844313
0.00192389
0.00214575
0.0141771
0.0141853
0.0110948
0.0104187
0.014226
0.0114673
0.0142113
0.00142146
0.0143003
0.0142484
0.0117903
0.0113562
0.0143264
0.0109133
0.0140847
0.0143386
0.0142649
0.00177561
0.00181817
0.00167397
0.014932
0.00166633
0.00140993
0.000975214
0.00120894
0.000188801
0.000218733
0.00549765
0.0115458
0.00631471
0.0030858
0.00361733
0.00945053
0.0111065
0.00841395
0.00445059
0.000865935
0.00119542
0.000843296
0.00228461
0.0063878
0.00152189
0.00146987
0.00157457
0.00568675
0.00342493
0.00196671
0.00270006
0.00753959
0.00298201
0.000787168
0.0035636
0.000356955
0.00453912
0.00139299
0.000927049
0.00124151
0.000920469
0.00180036
0.00273218
0.00212996
0.00391966
0.00434015
0.00140096
0.00285703
0.0112662
0.00224341
0.00268756
0.00305784
0.0037948
0.00931628
0.000872826
0.0017337
0.00955106
0.00486241
0.00299775
0.00243239
0.00143857
0.0031506
0.0106404
0.00331317
0.00177735
0.00184013
0.00165481
0.00524617
0.00141985
0.0172809
0.00185475
0.0014463
0.00160419
0.00217698
0.00482533
0.000713322
0.00144628
0.00304942
0.00571712
0.00281681
0.0166572
0.00966794
0.001642
0.0104082
0.00210367
0.00192062
0.00315569
0.000819431
0.00290611
0.0014046
0.0160608
0.00353272
0.00216742
0.000909918
0.00788697
0.0153696
0.00149878
0.00146778
0.00608101
0.00532184
0.00308342
0.00201974
0.00148267
0.00111601
0.00668623
0.00559922
0.00533158
0.0147118
0.0146909
0.00135425
0.00599352
0.000555918
0.0016143
0.00276823
0.00110314
0.00108005
0.00170043
0.000847114
0.00219036
0.00207621
0.0049116
0.000653923
0.00595454
0.00296505
0.00128729
0.00274007
0.00369854
0.00279374
0.00126652
0.00113568
0.000958928
0.0040497
0.00645188
0.0012352
0.0022006
0.00149273
0.00156798
0.00132598
0.00222436
0.001791
0.00441013
0.0045305
0.000338222
0.000785014
0.000399705
0.00339938
0.00224942
0.00113422
0.00563278
0.00698484
0.00165681
0.00170233
0.000958139
0.0045254
0.00403612
0.00431686
0.00116004
0.00642983
0.00476279
0.00473067
0.000385098
0.00423856
0.00581751
0.0148067
0.00354519
0.00625492
0.00613655
0.00325036
0.00338474
0.00570557
0.000728174
0.00377288
0.00633585
0.00379871
0.00507157
0.00605136
0.00411264
0.00649719
0.000660214
0.0026764
0.00372763
0.00633072
0.00386592
0.0038872
0.00631571
0.00553237
0.00499204
0.0030727
0.00362384
0.00201581
0.000580995
0.00598062
0.00104116
0.00458945
0.00182149
0.00220874
0.000723729
0.000522804
0.00527844
0.001156
0.00658257
0.00135663
0.00097131
0.00362648
0.00419264
0.00373521
0.00566885
0.00299816
0.00307826
0.00124023
0.00344764
0.000323942
0.00139991
0.00125255
0.00208946
0.000615124
0.00272484
0.000575804
0.0145523
0.00130934
0.00129856
0.00197344
0.00177464
0.00218414
0.00207168
0.000621827
0.00151612
0.00530287
0.00255733
0.00112219
0.0012565
0.00402279
0.00171836
0.000568267
0.00143924
0.00534044
0.00410129
0.00130359
0.00555563
0.00294581
0.00193772
0.001035
0.000599746
0.0139283
0.000877684
0.00117511
0.00146906
0.00871905
0.000713017
0.00322825
0.00217587
0.00721337
0.0016616
0.00155935
0.00580361
0.0016344
0.00062445
0.00105957
0.00170309
0.0006551
0.000860972
0.00594568
0.00260453
0.00315276
0.0135992
0.0151298
0.00100157
0.000742488
0.00182998
0.00151582
0.00527205
0.000886779
0.00497382
0.00426283
0.00169694
0.00149866
0.00418043
0.00224477
0.00405092
0.00525764
0.00106881
0.00108037
0.00220936
0.00119116
0.000735391
0.00146988
0.00158473
0.0101482
0.00460295
0.00302785
0.00940797
0.000978132
0.00115142
0.00377684
0.00705395
0.00171799
0.00538733
0.00117493
0.000581769
0.00122431
0.00435004
0.00641367
0.000981384
0.00637345
0.00262892
0.00257871
0.00403904
0.00223974
0.00151482
0.000261658
0.00163596
0.00334508
0.0147973
0.00100669
0.00109018
0.00778107
0.000800156
0.000834176
0.0106705
0.000286677
0.00115978
0.00093236
0.0019238
0.00166056
0.00577957
0.00360382
0.0058678
0.00606057
0.00297105
0.00307515
0.00136625
0.00580296
0.0041098
0.000265696
0.000291618
0.000305118
0.000508919
0.000458087
0.007394
0.00105893
0.000707952
0.00134143
0.0036874
0.00494742
0.00146069
0.000214919
0.0102853
0.00877373
0.00197375
0.00124192
0.00312156
0.00206135
0.00307119
0.000279699
0.00353188
0.0127584
0.00101756
0.00230108
0.00156053
0.00857302
0.00521546
0.00126939
0.00109379
0.00953746
0.0038858
0.00229586
0.00165298
0.00177336
0.000755144
0.000837181
0.0039992
0.00333218
0.00411894
0.00436175
0.0108972
0.00516575
0.000992906
0.000751367
0.00165543
0.0127313
0.0160317
0.0136294
0.0118479
0.00951908
0.00420504
0.00369437
0.00391096
0.0030246
0.0015206
0.010156
0.0120925
0.0120387
0.0022309
0.00995401
0.00492235
0.00613068
0.00445297
0.000619148
0.00396613
0.000937941
0.000622138
0.0014029
0.00371435
0.00371572
0.0038354
0.00525893
0.00760561
0.00113285
0.0137589
0.00629781
0.00611273
0.00277384
0.00184979
0.00129343
0.00118336
0.00119599
0.000895204
0.000775771
0.000743824
0.00931052
0.00243681
0.000792409
0.0015742
0.0033366
0.00248059
0.0028834
0.00207183
0.00630574
0.00347474
0.00187906
0.00316968
0.00515129
0.00139688
0.00171389
0.00169253
0.000271193
0.00378237
0.000563918
0.000993366
0.0136456
0.000767756
0.000559595
0.00156508
0.00577886
0.00114825
0.00349586
0.00811045
0.0023073
0.00172067
0.00372226
0.00346708
0.00394939
0.00714134
0.00164113
0.00810242
0.00385952
0.00471091
0.0138922
0.00933286
0.00130569
0.00317996
0.000817311
0.00426242
0.00718942
0.0016869
0.00173578
0.000816455
0.000743081
0.000991387
0.00110217
0.0045677
0.000729357
0.000864883
0.00620899
0.00485196
0.005084
0.00293422
0.00132681
0.00747283
0.00566028
0.00183978
0.00173869
0.00166593
0.00305536
0.0138443
0.003794
0.0124867
0.00126152
0.0032761
0.00220855
0.00620107
0.0103528
0.00227036
0.00364737
0.00280924
0.00548327
0.00518093
0.00207928
0.000425483
0.00036008
0.00774335
0.00608922
0.00634885
0.00289543
0.00776142
0.00499001
0.000795988
0.00452914
0.00832784
0.00363066
0.00502982
0.00637464
0.00552013
0.000942604
0.000752703
0.00150074
0.0134698
0.00156242
0.00880615
0.00100045
0.000913306
0.0100068
0.00133924
0.00169969
0.00876571
0.0136972
0.0133483
0.0140725
0.000453087
0.00107753
0.00384634
0.00541653
0.0122388
0.0128713
0.00304358
0.00610384
0.00241002
0.000986988
0.00351195
0.00204315
0.00811487
0.00648756
0.0136102
0.00372913
0.000936137
0.0087847
0.00408299
0.00526234
0.00186281
0.00342873
0.00810183
0.0012114
0.00248368
0.00552157
0.00822454
0.0097488
0.00134718
0.00245882
0.0105341
0.00103852
0.000757942
0.00179073
0.00748257
0.00865203
0.0033389
0.00174727
0.000841238
0.00197865
0.0066927
0.00161692
0.00893826
0.00766535
0.00423913
0.00579627
0.0038402
0.00214093
0.00572008
0.0123727
0.00485927
0.00168325
0.0024893
0.00071539
0.000956856
0.00257425
0.00150506
0.0026177
0.0139931
0.0134702
0.0139017
0.0102833
0.0132272
0.00194042
0.00587738
0.00149935
0.00991876
0.0206842
0.0111524
0.00845323
0.000739807
0.00150289
0.00698055
0.0102226
0.00915908
0.00603132
0.00273874
0.00396
0.0015962
0.00279153
0.000693056
0.000290466
0.0111593
0.00153223
0.00580017
0.000653398
0.00892082
0.00348502
0.00256571
0.00605036
0.00606773
0.00117599
0.00864011
0.0116169
0.00292385
0.000525991
0.0103879
0.00530043
0.00331284
0.00148667
0.00218251
0.000912484
0.00361992
0.0142146
0.012191
0.00233053
0.00696884
0.010421
0.00125609
0.00455808
0.00323763
0.00271763
0.000494249
0.00378163
0.0108317
0.00412456
0.00357248
0.0032105
0.0144311
0.00712104
0.000999051
0.00105721
0.00103461
0.00275618
0.000797978
0.00610718
0.0033472
0.00945664
0.00165402
0.00156988
0.000927288
0.0129076
0.00624113
0.0133026
0.00382169
0.000857748
0.00171803
0.00510258
0.00437662
0.000640352
0.0121308
0.00354753
0.00227655
0.00171672
0.000788841
0.0134293
0.00115482
0.0140567
0.00871137
0.0011049
0.00657152
0.00079704
0.0140709
0.011023
0.00120644
0.00230685
0.00295074
0.0141075
0.000848189
0.00077884
0.000768803
0.00180031
0.000638944
0.00150769
0.00848534
0.00483565
0.00602806
0.0028097
0.00628548
0.00103057
0.0131392
0.00957721
0.00132521
0.00073858
0.00394418
0.00872435
0.000196442
0.000175847
0.000253926
0.0142551
0.00209822
0.0154698
0.00477077
0.00424861
0.00875422
0.0131374
0.00160077
0.00329487
0.00661124
0.00498054
0.00258363
0.00460866
0.00201145
0.00994919
0.00121881
0.000817116
0.000680393
0.00154736
0.00264886
0.00176579
0.00309755
0.00291404
0.00215625
0.0130285
0.00529613
0.00622706
0.00541713
0.00172453
0.0016552
0.00289214
0.0025565
0.0121949
0.00535317
0.0134816
0.00604675
0.000923341
0.000781356
0.00160699
0.00348377
0.00128812
0.00667979
0.00207384
0.00115262
0.00254253
0.00951178
0.00370755
0.0138478
0.00188996
0.00917271
0.0033341
0.00310964
0.00170943
0.00593699
0.00376702
0.00374099
0.00113208
0.00420489
0.00608609
0.001439
0.000985937
0.0139548
0.0118346
0.00610419
0.00535841
0.00593749
0.0220945
0.0150776
0.00166306
0.00216992
0.00343291
0.00192887
0.00366226
0.0102644
0.012877
0.00074382
0.00795937
0.00187291
0.00284536
0.002028
0.00415842
0.0026348
0.00478357
0.000426889
0.00712766
0.00519419
0.000695879
0.00225925
0.00415014
0.00606002
0.00357478
0.0026448
0.000388945
0.00195299
0.0111813
0.00700769
0.00393387
0.00220946
0.00508684
0.00103512
0.000753452
0.00149299
0.00108882
0.00102063
0.00173229
0.00153963
0.00184363
0.0155368
0.000524342
0.00141264
0.0031379
0.000935085
0.00617257
0.000735015
0.000710839
0.00150033
0.00331353
0.00238625
0.00102419
0.00129466
0.00043414
0.0015389
0.000714466
0.0015989
0.00538834
0.00370422
0.000804582
0.00594369
0.001422
0.00290187
0.00896524
0.00591703
0.00650588
0.00102498
0.0025495
0.000197296
0.000399219
0.00187426
0.0137494
0.0019337
0.0140974
0.00484604
0.00186181
0.00801
0.00195962
0.000805408
0.00213772
0.0051151
0.00456967
0.00600228
0.000788721
0.000729569
0.00161063
0.000731791
0.00157485
0.0128055
0.00180525
0.000997095
0.00500819
0.00054317
0.00474192
0.003295
0.00108481
0.00117905
0.00939218
0.0101317
0.012964
0.0100359
0.0025159
0.00103718
0.00331669
0.0130267
0.00584172
0.0070972
0.00487757
0.00712467
0.00147094
0.00080653
0.000657403
0.00585639
0.00443631
0.00187767
0.00192343
0.000737096
0.00167048
0.00630056
0.00320636
0.00225097
0.00761987
0.0180611
0.0165194
0.000981134
0.0135296
0.00122141
0.0114107
0.00349431
0.00640552
0.00186382
0.00532935
0.00206506
0.00630794
0.0134824
0.0126701
0.00124824
0.00130835
0.0010667
0.00277361
0.000296876
0.00143876
0.00187277
0.00266765
0.00621046
0.00596204
0.00140936
0.000573538
0.0129046
0.00076539
0.00112922
0.00866
0.012524
0.00693174
0.00194668
0.00538052
0.00418382
0.000820452
0.000841101
0.00298135
0.00164356
0.0109329
0.00147528
0.00590293
0.00441339
0.00150782
0.00680409
0.00112104
0.000852419
0.000894124
0.000311321
0.000243507
0.00237099
0.00106291
0.00120455
0.000827588
0.000215388
0.00017623
0.000240743
0.0144924
0.0142795
0.000848105
0.00660447
0.00251356
0.00480003
0.00592613
0.00583909
0.00478703
0.0125171
0.0112049
0.00829922
0.00429208
0.00400899
0.00896356
0.00305997
0.000736458
0.00139404
0.00153371
0.000688494
0.00141527
0.000822
0.0135356
0.00326664