/*--------------------------------*- C++ -*----------------------------------*\
| =========                 |                                                 |
| \\      /  F ield         | OpenFOAM: The Open Source CFD Toolbox           |
|  \\    /   O peration     | Version:  v1912                                 |
|   \\  /    A nd           | Website:  www.openfoam.com                      |
|    \\/     M anipulation  |                                                 |
\*---------------------------------------------------------------------------*/
FoamFile
{
    version     2.0;
    format      ascii;
    class       surfaceScalarField;
    location    "0.98";
    object      phi;
}
// * * * * * * * * * * * * * * * * * * * * * * * * * * * * * * * * * * * * * //

dimensions      [0 3 -1 0 0 0 0];
oriented        oriented;


internalField   nonuniform List<scalar> 
11117
(
-4.19789e-06
-1.62917e-05
7.17759e-06
1.3312e-05
-1.41546e-05
-1.99933e-05
7.00532e-06
2.71425e-05
-3.52822e-05
4.27917e-05
-0.000174836
0.000167326
-0.000518058
1.52686e-05
0.000206396
0.000296394
0.000166896
0.000219129
-0.000170319
-0.000215706
1.43154e-05
2.39416e-06
0.00017397
-0.00019068
-0.000501768
-6.36926e-05
0.000421378
0.000144082
-0.000314726
-1.14463e-05
0.000204266
0.000121907
0.00123182
0.000235024
-0.000912891
-0.000553951
1.01582e-05
-1.12152e-05
-4.28981e-07
1.48597e-06
-0.000869218
0.000940115
0.000300921
-0.000371818
-0.00040462
-0.000210587
0.000308501
0.000306705
-0.000485385
-0.00022548
0.000299913
0.000410953
0.000795969
-0.00101672
0.000485721
-0.000264974
3.12907e-05
-3.36767e-05
3.20349e-05
-2.96488e-05
8.30346e-05
1.69152e-06
1.40321e-05
-9.87582e-05
-0.000132968
0.000196773
-1.66069e-05
-4.71987e-05
-0.000663675
0.000685479
0.000716117
-0.000737922
2.5464e-05
3.54023e-05
-2.95756e-05
1.21103e-06
-1.29717e-06
-2.39507e-05
2.40368e-05
-0.000329309
0.000185402
6.24526e-05
8.14543e-05
5.46301e-05
-2.47501e-05
-0.000108211
7.8331e-05
0.000423217
0.000315878
-0.000215977
-0.000523119
0.000121793
0.000116454
-6.83922e-05
-0.000169855
0.000359156
0.000226396
-0.000407653
-0.000177899
0.000944622
-0.000977168
0.000293381
-0.000260834
0.000279405
-0.000349552
0.000733652
-0.000663504
-0.000196118
0.000256207
-0.000255625
0.000195537
0.000123385
-3.54142e-05
0.000998549
-0.00108652
3.43595e-05
-2.37151e-05
1.97444e-05
-3.03887e-05
-0.000164785
3.36563e-06
0.000216198
-5.47783e-05
-0.000113989
-0.000382472
0.000355733
0.000140729
-0.000118484
-0.000447187
0.000377114
0.000188557
-1.97998e-05
4.89348e-05
-2.0371e-05
-8.76399e-06
-0.00015821
5.38372e-05
-1.55106e-05
0.000119883
-0.000158304
6.60821e-05
-2.20273e-05
0.000114249
0.00060261
-0.000824087
0.00100446
-0.000782985
0.000379072
-0.000541077
-0.000121599
0.000283604
0.000487099
-0.000120091
-0.000653771
0.000286763
0.000191933
0.000349068
-0.000438007
-0.000102994
0.000167889
0.000274727
-0.000322067
-0.000120548
2.62665e-05
0.000270532
-0.000297643
8.44567e-07
0.00100429
0.000883649
-0.000887398
-0.00100054
0.000245249
1.62582e-05
-2.13226e-05
-0.000240185
4.37977e-05
2.76281e-05
-4.59618e-05
-0.000933533
0.000739585
-0.000224186
0.000418135
-0.000740632
0.000568234
-0.000165967
0.000338366
0.000150956
-0.000262424
0.000172673
-6.12051e-05
-2.50534e-07
-1.20195e-05
1.02716e-05
1.99847e-06
-7.66474e-05
0.000215934
-0.000139286
5.27763e-05
1.12555e-06
-5.39019e-05
-0.000332833
-0.00113207
0.000511473
0.000953429
5.00159e-06
-2.36135e-05
-4.03342e-05
5.89461e-05
4.11083e-05
-4.25732e-05
-7.31912e-06
8.78402e-06
1.08836e-05
-1.08836e-05
0.000417614
0.000175833
-0.000547827
-4.56198e-05
0.000311959
0.000141689
-0.000415132
-3.85159e-05
-0.000141991
-5.81744e-05
0.00019214
8.02502e-06
0.000883513
0.000114663
-0.00136351
0.000365329
-0.000405742
0.000798601
0.000551763
0.000847162
-0.000862346
4.28408e-05
-2.76572e-05
7.7477e-05
-2.91322e-05
-4.03635e-05
-7.98132e-06
-0.000139278
-9.86273e-05
7.31199e-05
7.50477e-05
-4.23197e-05
-0.000146717
0.000115791
-3.85097e-05
-0.000195766
-3.10683e-05
-6.79796e-05
5.57882e-05
4.32597e-05
0.000140555
-0.00015273
6.5918e-05
-5.37429e-05
1.70255e-06
-0.000327258
0.000325556
-0.000714629
-0.000392243
0.000574555
0.000532317
1.38294e-05
4.12679e-05
-9.92092e-06
-4.51764e-05
0.000466431
-0.000137037
-0.000662228
-0.000231489
0.000205248
0.000166795
-0.000277541
-0.00124418
0.00128719
0.000234531
-9.32657e-05
0.000256883
-0.000192909
2.92912e-05
-0.000772684
-0.00060562
-9.86541e-05
2.75268e-05
0.000191381
-0.000120254
1.6513e-05
-1.46271e-05
-1.88586e-06
-0.000951734
-0.000163579
0.000138145
0.000243524
3.79489e-05
-3.62235e-05
-4.3057e-06
2.67021e-05
-2.23964e-05
-0.000101774
-5.69371e-05
1.57275e-05
0.000142984
-3.17053e-05
-2.06913e-05
6.05644e-06
4.63402e-05
0.000114926
-8.66723e-05
0.000135561
-0.000163815
-0.000274362
0.000241485
0.000262903
-0.000230027
-0.000242817
0.000105559
0.000273647
-0.000136389
5.59835e-05
-0.000494444
0.00043846
-1.68514e-05
-0.000559091
0.000575943
3.17446e-05
-0.000481644
0.000449899
4.51652e-05
8.71223e-06
8.87943e-05
-0.000142672
-4.87166e-05
6.52054e-05
0.000240112
-0.000256601
0.000524373
-0.000155769
7.89508e-05
-0.000447555
0.000679957
5.33691e-05
-5.37e-05
-0.000679626
0.000714056
-4.62194e-05
5.41882e-05
-0.000722025
-0.000692088
3.87049e-05
-2.74215e-05
0.000680805
-0.000626924
5.22115e-05
-2.48539e-05
0.000599566
-4.24959e-07
0.00022468
-0.000326021
0.000101766
0.000586498
2.24061e-05
-2.25277e-05
-0.000586377
0.000678711
4.49904e-05
-3.00577e-05
-0.000693643
0.000649301
4.97964e-05
-2.78227e-05
-0.000671275
0.000816898
6.01857e-05
-2.99212e-05
0.000380695
7.73025e-05
-0.000408853
-4.91442e-05
-0.000248277
0.000181904
7.63952e-05
-1.00221e-05
0.000307428
-0.000380792
-0.00116896
0.00124233
0.000726267
0.000334422
-0.000747119
-0.00031357
-2.42931e-05
3.86704e-05
-2.21477e-05
7.77042e-06
-0.000856308
0.000249363
0.000764136
-0.00015719
9.4583e-06
-2.38328e-05
4.83671e-05
-3.39925e-05
1.69058e-05
1.36639e-06
2.51221e-05
-4.33943e-05
-0.000244828
3.68293e-06
0.000102148
0.000138996
0.000223044
-5.11256e-05
7.16054e-05
-8.00641e-05
5.28356e-05
8.07176e-05
-5.34892e-05
-5.31509e-05
7.65473e-05
2.60515e-05
-4.9448e-05
-0.000415137
0.000345138
-0.000160362
0.000230362
-3.34732e-05
3.27511e-05
2.73557e-06
-2.01348e-06
9.74528e-05
0.000551459
-0.000627946
-2.09663e-05
0.000123729
0.000637234
-0.000721002
-3.9962e-05
-3.25757e-05
-1.57516e-05
4.69538e-05
1.37356e-06
-0.000537943
0.000499388
0.000891585
-0.000853029
3.5832e-05
-2.01316e-05
-0.000878046
-0.00103787
8.48564e-05
0.000958621
-5.60546e-06
0.000970856
-0.000691143
-0.000817656
3.58274e-05
-2.78967e-05
-7.9307e-06
0.00015998
-0.000111913
0.000175177
-0.000223244
-0.000152482
-0.00014229
-3.91586e-05
-2.40338e-05
2.08384e-05
4.2354e-05
-0.000351238
0.000403636
0.000619714
-0.000672112
-0.000473966
0.000705841
-0.000543226
0.000311351
2.34495e-06
-0.000146383
0.000144338
-3.00207e-07
0.000557526
-0.000815899
-0.000111966
0.000370338
4.48092e-05
-5.11862e-06
4.58933e-06
-4.42799e-05
0.000135368
1.43075e-05
-0.000166254
1.65784e-05
0.00017381
-2.5854e-05
-0.000179203
3.12476e-05
0.000156845
-9.4968e-05
-7.14405e-05
9.56336e-06
-0.000903532
0.000108404
-0.000156606
-0.000327041
0.000288444
-0.000678281
0.000716879
3.13042e-05
-3.29327e-05
-3.20482e-05
-0.000410067
3.67201e-05
9.2414e-06
0.000364105
3.09387e-05
6.312e-05
-1.65816e-05
-0.000118538
-1.21614e-05
0.000113613
1.70857e-05
5.91115e-05
-1.43219e-06
-6.4071e-05
6.39166e-06
-0.000183241
9.16679e-05
9.02145e-05
1.35841e-06
6.33338e-05
-0.000333235
0.000367354
-9.7453e-05
6.0543e-05
-5.04725e-05
-3.15209e-05
2.14505e-05
0.000434085
-0.000220764
-0.000219039
5.71766e-06
-0.000112228
6.64784e-05
-2.00202e-05
6.57701e-05
4.77124e-06
0.000306675
-0.000155144
-0.000156303
0.000300452
-0.000148823
8.35057e-06
-0.00043149
0.000966226
-0.000553709
1.89742e-05
9.77293e-05
0.000168726
-0.000133076
-0.000133379
-9.55526e-05
0.000221596
-5.35666e-07
-0.000125508
0.000925693
0.000447411
-0.000611468
-0.000761636
-5.9768e-06
6.89034e-06
-2.10676e-05
2.01541e-05
-0.000468287
-5.76901e-05
-0.000330331
0.000125356
-0.00020509
-8.66732e-05
0.000166407
-0.000419586
-0.000383504
0.000484545
0.000318545
0.000780692
-0.000175493
-0.000605199
0.000212738
0.00023414
5.56127e-05
-0.000289752
0.000952192
-0.000229528
-0.000722664
0.000136255
6.26328e-05
-1.68403e-05
-4.57926e-05
-5.84195e-05
0.000328535
-0.000270115
6.21191e-06
2.09999e-05
-2.72118e-05
-3.28057e-05
0.000355951
-0.000323145
-0.000483066
0.000548424
-6.53584e-05
-0.000488666
0.000483491
5.17478e-06
-0.000304775
-1.08562e-05
0.000315631
-0.000153225
-6.51829e-05
0.000218408
-3.61312e-05
-4.39329e-05
-2.91426e-05
-2.40083e-05
-4.23344e-05
4.2206e-05
1.28385e-07
0.000210907
0.000197489
-0.000408395
0.000128661
-0.00016876
4.00988e-05
0.000105727
-0.000153711
4.79843e-05
7.24255e-05
-7.17321e-05
-6.93399e-07
-0.000450941
0.000545286
-9.43447e-05
-2.91283e-05
1.57815e-05
1.33468e-05
-0.00039803
0.000489018
-9.09878e-05
-0.000112994
0.000109074
3.91994e-06
0.00092464
-0.0010104
8.57635e-05
-8.92007e-05
0.000141157
-5.19561e-05
-0.00015129
0.000226202
-7.49117e-05
0.000208998
-0.000176819
-3.21785e-05
-0.00027053
0.000314525
-4.39954e-05
-6.19831e-05
0.000126958
-6.49754e-05
-0.000164355
0.000146775
1.75801e-05
-0.000259636
1.13592e-05
-0.000229963
0.000149431
8.0532e-05
-1.0529e-05
5.7041e-06
4.82495e-06
4.64289e-05
0.000135475
-0.000210845
-0.000658373
-0.000292303
-9.01698e-05
-0.000360459
-8.67279e-05
0.000103488
-0.000100122
0.000283078
-0.000109268
0.000229774
-9.44057e-05
0.000325143
2.5281e-05
-0.000350424
1.10417e-05
2.07372e-05
-3.17788e-05
1.66855e-05
1.87168e-05
-0.00108431
0.00139174
0.00045157
-2.59257e-05
-0.000425644
-0.000939984
-0.000192085
1.64844e-05
0.000134471
-3.92498e-05
-2.68689e-05
6.61187e-05
-0.000634595
-0.000106038
-0.000790275
-0.000143259
-1.27176e-05
-5.0622e-05
6.33395e-05
2.63479e-05
-1.6076e-05
1.75182e-05
-2.77901e-05
-0.0001616
8.17169e-05
0.000501211
-0.000421327
-0.000881221
0.000873224
0.000683062
-0.000675065
0.000146465
-3.44811e-05
-0.000188357
7.63733e-05
-0.00118392
0.00114079
-5.19618e-05
9.50931e-05
-0.000189197
0.000156708
-3.17147e-07
-0.000157765
0.000136184
-3.68388e-05
-7.62425e-06
-1.58258e-05
-7.50129e-05
9.8463e-05
0.00013
-0.000133273
-0.000161502
0.000164775
6.42836e-05
-7.01649e-05
-0.0001093
0.000115181
-0.000196618
0.000161102
0.000192362
-0.000204435
5.05202e-05
0.000592251
-0.000438336
0.000788308
-0.000682046
-0.0001833
7.70382e-05
-0.00139787
-3.49306e-05
0.000248887
0.000218209
-0.000264649
5.12827e-05
-4.84238e-06
0.000252959
4.58167e-06
-4.48235e-05
-0.000212717
0.000698651
-0.000200836
-5.29833e-05
-0.000444832
-0.00035021
-0.000251833
4.08369e-05
0.000561206
-7.94204e-05
5.45336e-05
0.00120033
-0.00117544
0.000125556
-8.89563e-06
-0.00011666
8.4139e-06
1.59711e-05
-1.14137e-05
-1.29713e-05
3.15498e-05
1.31559e-05
-5.77058e-06
-3.89351e-05
1.57385e-05
-1.27847e-05
-4.5374e-05
4.24201e-05
-5.00275e-05
7.1473e-05
-0.000157841
0.000136395
-5.1217e-05
7.89668e-05
-0.00013945
0.0001117
-1.09794e-05
1.10097e-05
-5.84833e-05
5.84531e-05
0.000141893
-5.09941e-05
-0.000223205
0.000132306
0.00018978
-0.00021177
2.29889e-05
-9.99226e-07
2.76157e-05
2.48805e-05
-0.00100391
0.000951413
-0.000120003
4.61245e-05
-0.00074453
0.000818408
0.000862766
-0.000865185
6.87612e-05
-6.6342e-05
0.000187055
-0.000286603
-0.000149312
0.000248861
0.000102535
0.000158689
-0.000143921
-0.000117303
6.2895e-05
6.82165e-06
-5.5338e-05
-1.43786e-05
0.000161057
-0.000143887
-5.08733e-06
-1.20832e-05
5.49961e-05
0.000688615
-0.000382745
-0.000360865
-4.34864e-06
0.000236971
-0.000107266
0.000223431
-0.000224113
-3.66657e-06
7.35759e-06
-3.44173e-05
7.98953e-05
-2.28532e-05
3.94466e-05
-5.29828e-05
3.63895e-05
0.000139363
-0.000102823
6.11888e-05
5.32751e-05
-0.000544201
0.000490926
5.08864e-05
-0.000534842
0.000483956
3.75416e-05
-0.000491644
0.000454102
3.77485e-05
-3.67353e-05
-3.20815e-05
-0.000304537
-1.25914e-05
1.58702e-05
-2.72568e-05
2.3978e-05
-1.58394e-05
2.63703e-05
-0.000952033
0.000941503
-0.000281545
-0.000389115
0.000455176
0.000215484
0.00105394
-0.000450316
-0.000805745
0.000202126
-0.000654746
0.00116029
-0.000869982
0.000364439
1.13698e-05
-2.98855e-05
4.48636e-05
-4.28458e-05
-3.65407e-05
4.02279e-05
-0.000620924
-6.98749e-05
0.000300261
0.000390538
3.44448e-06
-0.000200155
7.51401e-06
-6.3382e-05
-0.00014609
5.17072e-05
1.71938e-05
8.18934e-05
-4.92972e-05
-4.979e-05
-0.000198204
0.000101069
9.71353e-05
-0.000170356
0.000162382
7.97453e-06
0.000301484
-0.000200701
-0.000196335
0.000105252
-0.000385237
0.00033851
-5.85255e-05
5.15378e-05
-3.17508e-05
-0.000588912
3.27556e-05
-5.56425e-05
0.000611798
-0.000480902
2.19733e-05
-3.88671e-05
0.000497795
-0.000102656
-6.6955e-05
0.000140606
2.9005e-05
-4.13246e-06
0.000248425
-0.000317926
7.36341e-05
-0.000283885
0.000463957
0.000331401
3.014e-05
-0.00108003
0.00110648
-5.65881e-05
-1.64695e-06
4.23624e-05
-2.49769e-05
7.29728e-06
3.85808e-05
-4.7697e-06
0.000181255
-2.37504e-05
-0.000195351
3.78464e-05
-3.8081e-05
4.33549e-05
3.35593e-05
-3.88332e-05
4.09072e-05
0.000267827
-6.85233e-06
-0.000301882
-1.71633e-05
2.28371e-06
2.59213e-05
-0.000337324
-6.31157e-05
0.000294162
0.000106278
-0.00045719
0.000283928
0.000341151
-0.000320179
0.000200378
0.000146068
-0.000588792
0.000348108
0.000432617
-0.000551917
1.68297e-05
0.000546951
-1.18633e-05
-0.000613412
-9.82896e-07
0.000624252
-9.85684e-06
3.96405e-06
0.000624089
-0.000606094
-2.19591e-05
-3.58265e-05
0.000586207
-0.000574187
2.38067e-05
-0.00061294
0.00104692
-0.000761017
-5.18225e-05
6.42744e-05
-7.8997e-05
6.65452e-05
-2.73039e-05
5.18669e-05
-9.98601e-05
7.52971e-05
-1.78291e-05
1.54229e-05
4.97685e-06
-2.57059e-06
4.29389e-05
-3.89665e-05
2.94705e-06
-6.91945e-06
-0.000966849
0.000116855
0.000949284
-9.92909e-05
-0.000115148
0.000689109
-0.000741777
0.000167816
-8.38268e-05
-8.76079e-05
0.000493994
-0.000322559
6.73777e-06
-5.57846e-05
0.000201513
-0.000152467
-0.000124516
-8.24219e-05
0.000614256
-0.000407318
1.47375e-05
5.7255e-05
9.00548e-06
-8.09979e-05
-2.78872e-05
4.64564e-05
-5.02746e-05
-0.000571137
0.000536695
-7.54231e-05
0.000138964
-0.000165315
0.000342409
-0.000288647
1.23336e-06
9.48453e-05
5.22372e-05
-4.7691e-05
-9.93915e-05
3.97456e-05
-1.62166e-05
0.000322059
-0.000345589
-3.52758e-05
3.52803e-05
-3.80855e-05
0.000520839
-0.000330397
-0.000582684
0.000757519
-0.000394238
0.000612622
-0.000312831
5.04706e-05
8.10133e-05
2.83626e-05
2.38028e-05
7.7718e-05
-0.000129883
0.000467747
-0.000753069
-0.000595899
7.2033e-06
-3.19879e-05
-8.68855e-06
-0.000426503
0.000471996
0.00101159
-0.00105708
0.000846547
-0.000171048
-4.72579e-05
-0.000628241
3.02106e-06
9.28557e-06
4.59915e-06
-0.000364959
0.000189053
0.000432113
-0.000239744
6.50312e-05
-7.01144e-05
0.000223314
-0.000774667
0.000674738
2.36619e-05
7.64363e-05
-0.000128882
2.87837e-05
6.76603e-06
0.000226485
-0.000308735
7.54835e-05
-0.00067878
0.000609397
0.000568771
0.000117421
0.0002182
1.85814e-05
-2.3653e-05
7.52038e-05
-7.01321e-05
-6.32159e-05
-0.00024036
0.000183485
3.00209e-07
6.43435e-07
-0.000242495
0.000241551
-0.000174845
-0.000202307
0.000802597
0.000137518
-1.53435e-05
-8.00154e-05
0.000213253
2.94515e-06
0.000147151
9.60966e-05
-3.70845e-07
-1.25464e-06
9.66853e-06
-2.99193e-05
5.45358e-06
2.26244e-05
0.000126807
8.79942e-06
-3.88746e-05
0.000221415
-2.7724e-05
-3.07752e-05
-1.52142e-06
0.000210519
-4.02204e-05
-0.000230309
-5.62051e-05
-9.5085e-05
-0.000517997
2.93309e-05
-8.27297e-05
-0.000458347
-7.80384e-05
-0.000575733
0.000132636
-0.000127865
-4.5934e-05
-6.61007e-05
-7.33316e-05
-6.61146e-05
0.00021289
-4.63431e-06
2.13198e-05
0.00036839
0.000585038
-5.0198e-05
1.04165e-05
-9.07731e-06
-1.91153e-05
1.21166e-05
-8.35757e-05
-0.000204777
0.000166754
0.000512625
-0.000538915
2.46158e-05
1.67452e-06
2.80209e-05
-0.000318492
0.000226779
0.000100885
-0.00028674
0.000174409
-2.00931e-05
3.04475e-05
2.40343e-06
-1.27579e-05
0.000273369
0.000466216
0.000220424
0.000347809
-3.61492e-05
-0.000226275
-3.10746e-05
3.74196e-05
1.62823e-05
-2.26273e-05
-8.44833e-05
1.01541e-06
8.29778e-05
4.90033e-07
-4.69126e-05
-2.46087e-05
5.14282e-05
-0.000101592
-9.26877e-06
6.25533e-05
4.83071e-05
-7.97095e-06
-8.24698e-05
2.93164e-05
6.11244e-05
0.000427573
-0.000118893
0.000136
-0.000420597
0.000702211
6.87912e-05
-0.000309293
0.000552462
-0.000138853
0.00021825
-0.000221387
3.15525e-06
8.18285e-06
-9.78086e-06
-1.55725e-06
-3.95986e-06
4.79151e-05
-3.30399e-05
-1.09154e-05
1.36072e-05
-2.44253e-05
-2.02565e-05
-0.000624237
0.00102916
-0.000734257
0.000329337
3.97489e-05
-0.000155372
-4.26809e-05
3.99292e-05
-0.000150278
-4.78616e-05
2.67737e-05
-8.97101e-06
-3.76026e-05
-0.00105682
0.000945202
7.62034e-05
3.11486e-05
4.54179e-05
-5.12306e-05
-2.53358e-05
-5.29396e-05
8.42386e-05
-8.01394e-05
4.88404e-05
5.03565e-06
-0.00030981
-4.66802e-05
-0.000106545
0.00037696
-0.000148998
7.95105e-07
-2.74951e-06
4.45124e-05
-4.2558e-05
3.35999e-05
-2.89428e-05
-2.47175e-05
2.00605e-05
7.86332e-05
5.45097e-05
6.14461e-05
6.31393e-05
-1.14773e-05
-5.70216e-05
5.3595e-06
5.67078e-05
-2.06697e-05
-5.28783e-05
0.000352438
0.000117629
0.000317522
0.00115849
0.000122413
-0.00112107
-0.000159828
8.80752e-05
1.57281e-05
6.08192e-05
-0.000674193
0.000174481
0.000600469
-0.000100758
-9.53495e-05
7.8982e-07
-6.53844e-06
0.000101098
-6.69564e-05
0.000221248
-0.000122493
-3.17989e-05
1.03459e-05
-4.65934e-05
2.58747e-05
1.03729e-05
-0.000211738
0.000713041
4.51315e-05
-0.000546434
-0.000312681
0.000881983
6.17874e-05
-0.00063109
0.000642634
3.07061e-05
7.8602e-05
-0.000751942
-6.11123e-05
6.42859e-06
8.28849e-05
-2.82011e-05
6.51047e-05
0.000145802
-0.000183112
0.000384055
0.000373612
0.000492604
0.000110889
0.000528884
0.000112897
0.000573946
0.00012796
0.000601637
-7.7082e-06
-4.1969e-06
4.36786e-06
7.53724e-06
4.36033e-05
1.42938e-05
-2.04774e-05
-0.000259668
0.000299417
-0.000251271
0.0002912
-5.02234e-05
7.69972e-05
3.07841e-05
-2.92216e-06
4.88908e-06
1.38606e-05
1.762e-05
-2.67546e-05
-4.7259e-06
2.45309e-05
6.02684e-05
-8.45267e-05
-2.72705e-07
2.05962e-05
0.000638009
-0.000423581
0.000966969
6.24082e-05
-0.00101484
-1.45338e-05
-0.000247546
0.000263987
0.000285043
0.000136142
-0.000264488
-6.96173e-05
0.000197963
3.96613e-05
-1.55477e-05
3.70036e-05
-5.40316e-05
0.000123537
0.000173488
-5.90884e-05
-7.30136e-05
-3.81946e-05
-0.000953236
0.000925585
-0.000398851
-8.78371e-05
-7.48932e-05
3.66871e-05
0.000209052
-2.245e-05
-0.000223289
-8.01756e-05
0.00071454
1.88139e-05
-0.000653178
-8.14477e-05
0.000620141
2.11713e-05
-0.000559865
4.04297e-05
-4.87531e-05
0.000110175
-0.000101852
-3.77821e-05
2.2424e-05
-1.08054e-05
2.61635e-05
5.2728e-05
-0.000143508
0.000191951
-0.000101171
-1.49001e-05
1.36455e-05
3.73787e-05
-3.52109e-05
7.14394e-06
-9.31178e-06
-0.000277619
-6.33283e-05
0.000201694
0.000139253
0.000145874
-0.000126951
1.99159e-05
-3.88394e-05
0.000655958
2.08591e-05
-1.62628e-05
-0.000660554
-3.46776e-06
8.61798e-05
-6.55182e-05
0.000511661
-2.60239e-05
3.16658e-05
-0.000517303
0.000222715
-0.000132907
-0.000144182
5.43743e-05
-0.000550417
-1.2243e-05
-6.55762e-05
0.000628236
-0.000554673
-9.09925e-05
1.504e-05
0.000630625
0.000173935
-6.89094e-06
-0.000179862
1.2818e-05
1.51316e-06
-3.87815e-05
1.26145e-05
2.46538e-05
-6.85922e-05
-3.66492e-05
5.82499e-05
4.69914e-05
-5.98065e-05
6.47055e-05
-3.93163e-05
0.000775946
7.94402e-05
-3.84888e-05
5.0047e-05
4.21226e-06
-9.45007e-06
-0.00116744
-0.000120802
0.00112777
0.000160473
0.000462509
0.000321057
-0.000279242
-0.000504324
8.49834e-05
-4.42532e-05
-3.38249e-05
-6.90534e-06
-0.000106695
0.000122022
-0.000174611
0.000159284
6.36837e-05
-6.71514e-05
-0.000156184
8.24859e-05
-0.000598682
0.000672381
0.000133868
-0.000112592
3.02597e-05
-5.1536e-05
-5.05567e-05
4.74853e-05
2.24767e-05
-1.94053e-05
-5.97709e-07
-3.03054e-05
3.83231e-05
-7.41988e-06
0.000178653
-0.000143026
-7.26528e-06
0.0010341
-0.000896285
0.000209954
-0.000347773
-0.000300041
-0.000218416
0.000262833
0.000138329
0.000118273
-0.000109041
-0.000147561
2.45641e-05
2.34361e-05
-4.6487e-05
-0.000214564
0.000188411
-4.24396e-05
0.000158232
-2.53225e-05
4.10258e-05
5.66881e-05
-5.43821e-05
-2.66813e-05
2.43753e-05
1.73434e-05
-5.37684e-05
5.07601e-05
-1.43352e-05
1.73374e-06
-6.68363e-06
0.000227677
-0.000420363
0.000493607
0.0011281
-1.72058e-05
2.98865e-05
-4.54837e-06
1.38623e-05
-0.00017471
0.000165396
-6.11331e-05
0.000193769
-9.96367e-05
0.000146525
-0.000122311
-3.50473e-05
4.01349e-05
-3.29748e-05
-0.000832817
0.000360983
-4.62239e-05
-0.000948571
-0.000563027
0.000181109
7.56756e-05
-5.47711e-06
-8.58609e-05
-4.01151e-06
3.11018e-05
-1.59232e-05
-5.19861e-05
-3.6719e-05
4.63707e-05
8.5052e-06
-1.80575e-05
2.31594e-05
-3.98988e-06
1.38696e-05
0.000111164
-0.000121044
-0.000806225
-9.07519e-05
0.000222784
0.000379579
-0.000355983
-0.000171307
0.000147711
-0.000132755
-0.000920153
5.8889e-05
0.00099402
-6.71954e-05
-0.00100265
0.00103084
3.90107e-05
6.54294e-05
-7.99065e-05
-4.87388e-05
-0.000267847
-0.000315362
0.000335663
3.63663e-05
-2.03564e-05
-4.1515e-05
2.55051e-05
-0.000134532
-5.14647e-05
0.00014553
4.04664e-05
-0.000802541
-0.000283695
-0.000175615
-4.36486e-05
-2.04831e-05
0.000239747
5.66676e-05
-2.13205e-05
-5.44606e-05
1.91135e-05
0.000235715
-7.63931e-05
2.47767e-05
-3.21878e-05
-2.78647e-05
2.99423e-05
-4.30084e-06
-2.96013e-05
0.000102892
-9.63083e-05
-1.31015e-05
6.51827e-06
9.16199e-06
-1.93411e-05
2.73568e-05
-1.71777e-05
3.6676e-05
0.000650341
-2.57567e-05
-0.00066126
9.23292e-05
0.000673945
-5.46136e-05
-0.00071166
3.99996e-05
5.45629e-05
8.3291e-06
3.05922e-05
-0.00108548
0.00108564
-3.07483e-05
0.000254678
-0.00145224
3.47166e-05
0.00116285
-0.000149667
-8.08623e-05
6.25496e-05
0.00016798
4.6001e-05
3.35091e-05
-4.207e-05
-3.74401e-05
0.000322765
-0.000310465
0.000206829
0.000739557
-0.000601959
-0.000750538
3.26356e-06
1.6555e-05
6.29672e-06
-2.61153e-05
6.95326e-05
-5.85057e-05
-4.82724e-05
3.72455e-05
-6.37506e-05
2.31331e-05
0.000130103
-8.94853e-05
-0.000733424
0.00023345
0.000477589
2.23853e-05
2.79973e-06
1.4144e-05
-2.10504e-05
4.10662e-06
-0.00017877
9.14526e-09
-2.28823e-05
0.000201643
0.000210789
2.21508e-05
8.34863e-06
-0.000241288
-4.99073e-06
7.10604e-05
-6.60697e-05
0.000305097
-0.00121786
-1.36349e-05
1.51296e-05
-6.92978e-08
-1.42543e-06
1.9433e-06
-3.64097e-05
-1.24462e-05
6.77549e-05
-8.91979e-05
-4.64059e-05
6.78488e-05
0.00103949
-0.00146343
0.000183763
0.000240183
0.000464841
8.65552e-06
1.27502e-05
-0.000486246
-5.93146e-06
-3.15079e-06
5.91292e-05
8.74955e-05
8.66136e-05
-0.000944257
0.000770148
3.31386e-05
4.7753e-05
-7.70538e-05
-3.83787e-06
-3.6564e-06
0.000170468
-0.000217936
5.11246e-05
1.53692e-05
1.65028e-05
-2.72492e-05
-4.6227e-06
0.000998863
-0.00067686
4.10345e-06
-0.00015812
0.000154317
1.42151e-05
5.92119e-05
-5.48456e-05
0.00084393
-0.000578022
5.02101e-05
-0.000316119
9.20489e-05
0.000391133
-4.90971e-05
5.60975e-05
-5.38849e-05
-2.38731e-05
0.000194833
1.1082e-05
-0.000182042
0.000570374
-0.000122182
-0.00042369
-2.45018e-05
3.12742e-07
7.99292e-07
-7.27282e-06
6.16078e-06
-1.37942e-05
-0.000194011
0.000126663
0.000162193
5.91265e-05
-0.000107439
-8.23134e-05
0.000130626
2.17647e-05
6.48298e-05
1.62676e-06
-1.7273e-06
0.000210889
5.8374e-06
-7.4094e-06
-0.000177198
-1.73947e-05
9.9983e-06
1.01961e-05
0.000214961
-0.000235176
8.13544e-05
-6.11399e-05
0.0011473
-0.00112128
-0.000303557
-1.76266e-05
-0.00061875
0.000189021
0.000534981
3.23082e-05
-3.67203e-05
-1.56469e-06
0.000559506
-7.11421e-05
0.000510499
-0.000155413
-5.62073e-05
0.000118355
-6.41854e-06
3.85682e-05
5.28296e-05
-8.49793e-05
3.20103e-05
-1.59435e-06
-4.28439e-05
1.24279e-05
-9.03852e-05
6.65121e-05
8.0003e-06
-6.00569e-05
5.74265e-05
-5.36986e-06
0.000720846
0.000100617
-4.55174e-05
0.0001733
0.000166081
-0.000270794
0.000234967
-0.000458347
0.000462311
-0.000355311
0.000240163
-0.00113695
0.00113914
9.62441e-05
-9.84404e-05
0.000219842
0.000565432
-0.000299417
-0.000413891
-8.40545e-05
-0.000229387
-0.000232623
-0.000308394
0.000497506
-0.00074321
-0.000156326
0.00040203
-0.000812156
0.000359827
-0.000108324
0.000560654
-3.81609e-05
0.000116038
-0.000347673
0.000269795
-2.19274e-05
-5.59239e-05
-0.00107067
0.00114853
8.49518e-05
-0.000380233
0.000765854
0.000180391
-0.000817732
-0.000128514
-9.2728e-06
1.22486e-05
2.78084e-05
0.000724538
-0.000671618
7.50398e-05
0.00064959
-0.000703682
0.000166989
0.00054899
-0.000510704
7.26029e-05
-1.30062e-05
5.88318e-05
1.0842e-05
0.000118923
3.70133e-05
-9.68098e-05
3.747e-05
-6.00727e-05
5.23482e-05
-2.97455e-05
0.000639064
-0.000539756
-6.54122e-05
-3.38958e-05
0.000675846
-0.00057485
-1.56689e-05
-8.53275e-05
0.000101294
0.00154151
-0.00120958
-0.000433217
6.73733e-06
-1.64885e-06
-1.76244e-05
1.2536e-05
-0.000992615
-0.000637318
0.00105467
0.00057526
-1.75643e-05
3.1854e-05
2.22593e-05
-3.6549e-05
2.12256e-05
-3.38738e-05
-3.90348e-05
5.1683e-05
2.8074e-05
-4.78132e-05
-3.44351e-05
5.41742e-05
0.00011836
-4.45019e-05
0.000646988
0.00058443
-0.000822012
0.000335035
0.000593482
-0.000820049
0.000350296
1.27007e-05
8.39301e-05
-6.68603e-06
1.311e-05
3.67856e-05
-4.32096e-05
0.000615134
-6.90134e-05
0.000142989
-1.54667e-06
1.99019e-05
-9.01824e-06
-0.000121444
-0.00015927
5.91459e-05
0.000221568
0.000166558
0.000797209
-0.00064271
-0.000294477
-0.000348637
0.000361569
0.00067526
-0.000635325
-0.000167255
0.00012732
-2.65884e-05
-1.50825e-07
2.75291e-05
0.000106343
-1.97169e-05
5.45311e-05
0.00011416
-3.06145e-05
4.34133e-05
-3.68604e-05
9.3401e-05
0.000529107
-0.000638137
0.000109031
-0.00040276
0.000288391
-0.00127066
0.00138502
-0.00019927
0.000151892
0.000300477
-0.000253098
4.79424e-05
2.62598e-05
-4.12463e-05
-3.2956e-05
-0.000438856
-3.07345e-05
0.000601201
-0.00013161
0.000221031
-0.000185476
-0.000386792
-7.23935e-06
-1.85101e-06
1.30554e-08
7.38814e-05
-6.32044e-05
3.72654e-05
-6.3463e-05
8.63126e-05
4.6683e-05
-6.87572e-05
-2.51221e-07
0.000104303
-3.52945e-05
0.000192943
-0.000207153
0.00012785
-0.00011364
4.66016e-05
2.37106e-05
9.0745e-05
-5.60351e-05
-1.25247e-06
5.43654e-05
-1.12371e-05
3.59402e-05
-6.11623e-05
3.64592e-05
4.62118e-06
1.77315e-05
-2.38167e-05
1.46397e-06
2.88373e-05
-2.57741e-06
-0.000108724
3.98918e-05
-8.08353e-05
3.94336e-05
-3.04491e-05
3.70165e-05
-1.18034e-05
5.5767e-05
1.27245e-05
-0.000660889
-0.000389301
0.000798481
0.00025171
0.000822285
-0.00104065
0.000356292
-0.000137929
1.11954e-05
1.73332e-05
-2.38364e-05
-4.69217e-06
-1.55739e-05
0.000280942
-0.000329132
6.37639e-05
-8.0862e-05
5.76077e-05
1.82631e-05
4.99115e-06
-0.00133008
0.00116783
-0.000247592
0.00040985
0.000379029
-0.000323866
-0.000130041
7.48786e-05
1.12511e-05
0.000695692
-0.000693202
-1.37408e-05
-0.000342232
1.96612e-05
0.000134759
-0.000554909
0.000534119
-0.000113969
0.000166817
-0.000637551
0.000637471
-0.000166736
-0.00010312
-0.000753008
0.000856128
-1.06782e-05
2.52987e-06
-1.59438e-05
2.4092e-05
-2.02153e-06
3.65809e-07
-2.65118e-06
4.3069e-06
0.000155787
-0.000111628
0.00011053
-0.00015469
-8.52576e-05
-0.000193876
0.000215383
-1.11152e-05
6.78443e-06
-9.30412e-06
-0.000135686
-6.91873e-06
9.38844e-05
4.87206e-05
-0.0001192
-2.95934e-06
9.29966e-05
2.91629e-05
-2.63052e-05
4.86499e-07
0.000353617
-0.000327799
0.00105672
-0.00107872
-6.13056e-05
8.33034e-05
-0.000195353
1.13513e-05
0.000145702
4.42557e-06
-0.000150128
-1.25308e-05
0.000220774
-1.88095e-05
-0.000189434
3.4576e-06
-4.69726e-05
-1.73455e-06
4.52496e-05
-1.23275e-05
1.88504e-05
-6.09051e-05
5.93504e-05
-7.06658e-05
0.000169547
-9.31701e-06
4.90918e-05
-0.000254339
-2.43742e-05
7.1997e-06
4.17385e-05
0.000642854
4.86711e-05
-6.74364e-05
0.000599248
3.18434e-05
-4.48842e-05
-0.000543679
2.49533e-05
-3.3192e-05
-0.00054141
-4.32073e-05
-2.87944e-05
-0.000362131
-0.000189397
0.000214205
-0.000974129
-0.000170418
0.000279362
7.16625e-05
-4.29751e-06
-4.22562e-06
-9.9409e-05
-0.0011344
0.00115438
-5.69988e-05
4.55071e-05
-0.000186713
-8.78725e-05
-1.49527e-05
-6.75313e-05
0.000667789
-0.000193552
-0.000555684
0.000685647
-0.000180027
-0.000585795
-2.63979e-05
1.13983e-06
0.000179298
-0.00015404
-8.45372e-06
0.000677568
6.14585e-06
-0.00010576
0.000144059
1.02609e-05
-4.856e-05
1.17363e-05
-2.67822e-05
4.80591e-05
-3.30133e-05
3.581e-05
-2.70012e-05
8.7094e-06
8.8534e-06
-1.56015e-05
5.03514e-05
-1.58116e-05
-4.49198e-05
1.07918e-05
4.99396e-05
0.000258835
-2.31878e-05
3.80898e-05
-0.000273737
-0.000324699
-7.6776e-05
5.92427e-05
-0.000395982
0.000274664
0.000344631
5.86342e-06
-1.49462e-05
1.7588e-05
2.94985e-05
2.42427e-05
-1.03863e-05
3.87903e-05
-7.28996e-05
7.34741e-05
-3.93648e-05
-0.000394317
4.32531e-05
0.000364219
-1.31553e-05
0.000303035
0.000361262
-0.000584979
-7.9319e-05
0.000227438
-0.000597126
-0.000291201
0.000457838
0.000329607
-0.000640374
-0.000147072
-5.46786e-05
4.62281e-05
-1.52721e-06
9.97768e-06
0.000113532
0.000163151
-0.00101011
3.6258e-05
-1.57614e-05
-2.7736e-05
-9.31045e-06
-4.4573e-05
2.95093e-05
-0.000113749
9.65423e-05
7.65573e-05
0.000898768
-2.32037e-05
-0.000765943
-0.000109621
-1.41779e-05
2.15836e-06
-9.38151e-05
-0.000192788
-2.79797e-06
7.38584e-05
-0.00010378
0.00110838
0.000155688
-6.93914e-05
0.000197038
8.73148e-05
-0.000403094
0.000324905
0.000519872
-0.000441683
0.000282526
-0.000266045
0.000458291
-0.000474773
6.8683e-06
5.61177e-05
-6.87532e-06
-5.61107e-05
1.90637e-05
-1.75899e-05
-1.59759e-05
1.4502e-05
-0.00025185
4.55759e-05
4.7065e-05
0.000159209
-0.00110465
0.00109921
9.20482e-05
-0.00071818
0.000466542
-0.000644204
0.000551626
-0.000383826
-0.000173339
0.000161183
0.000109954
-3.71989e-05
0.000859763
-0.00102749
-0.000262707
0.00043043
-0.000226183
-0.000987948
0.00118927
2.48651e-05
-0.00104545
0.00107375
-0.000127711
-0.000491997
0.000436322
0.000357541
-0.000301866
-0.000267755
0.000275838
1.49703e-05
-2.30537e-05
-0.000129516
-4.06808e-05
2.63101e-05
-0.000638753
0.000746574
-0.000497122
0.00015172
-1.15787e-05
-3.22586e-05
1.79555e-05
2.17936e-05
-7.49053e-06
-0.000177718
0.000168182
-2.28842e-05
7.71508e-06
8.68316e-05
-0.000916812
0.000879789