/*--------------------------------*- C++ -*----------------------------------*\
| =========                 |                                                 |
| \\      /  F ield         | OpenFOAM: The Open Source CFD Toolbox           |
|  \\    /   O peration     | Version:  v1912                                 |
|   \\  /    A nd           | Website:  www.openfoam.com                      |
|    \\/     M anipulation  |                                                 |
\*---------------------------------------------------------------------------*/
FoamFile
{
    version     2.0;
    format      ascii;
    class       volScalarField;
    location    "0.99";
    object      p;
}
// * * * * * * * * * * * * * * * * * * * * * * * * * * * * * * * * * * * * * //

dimensions      [0 2 -2 0 0 0 0];


internalField   nonuniform List<scalar> 
1431
(
94.6901
93.4424
91.9369
94.2394
88.7141
90.5751
94.0306
38.3752
92.5197
94.0126
45.5057
44.9424
93.1649
85.0043
89.4539
93.9952
86.5598
92.4286
88.4465
91.2146
40.5378
84.8152
92.8493
20.2141
92.2354
93.1792
51.5866
90.6642
92.976
84.9569
87.7459
92.2842
88.0609
85.7253
92.3113
93.8495
92.0797
93.193
93.941
91.7501
92.198
92.2006
93.1766
93.974
87.8728
92.0931
86.2899
55.718
94.0458
93.1734
93.4892
93.9505
93.5673
53.0956
94.0426
94.068
90.0447
48.2596
85.3207
92.0703
90.9957
94.0306
93.1942
93.2394
93.9624
94.0554
89.8801
93.08
91.9629
87.0437
47.1986
85.4361
94.2625
85.8515
85.2919
92.2344
90.5816
93.218
93.9952
93.0886
86.0277
92.0139
87.1664
86.7557
40.362
94.2275
94.2931
88.8186
52.4296
70.4168
90.8579
89.5419
93.1729
93.9624
94.2358
88.0498
44.7559
87.0074
93.9871
91.1522
94.045
94.014
85.3793
92.9979
93.2261
87.3427
92.3677
55.8554
90.7027
84.8062
93.0068
93.0836
92.3005
91.7564
93.7406
90.2576
85.1592
94.2451
94.2289
93.2397
88.4
89.0526
54.9721
85.9506
43.4179
93.9797
91.3012
87.5084
91.2096
94.2934
87.2383
91.9443
94.2927
88.2223
92.1671
93.0054
93.1396
94.0428
49.9672
93.2126
93.9411
86.9716
85.5807
93.1943
95.1431
87.9782
93.0363
93.9285
93.9715
91.8359
93.0911
92.5873
91.7197
94.2409
91.7415
93.1103
48.9536
91.3887
79.5981
94.2715
63.4465
93.0497
94.2633
94.2774
54.506
92.6339
91.2119
94.0577
93.2033
91.0248
62.7306
93.8102
90.4118
50.6848
92.7888
48.4654
94.2916
89.239
93.6418
92.5596
94.0255
93.932
93.9085
23.5415
90.1556
91.6446
51.1092
91.4808
90.1605
51.1191
87.9559
90.6882
91.7361
58.3309
94.2358
88.3867
85.7191
91.4175
91.7868
91.8531
94.0437
94.2607
66.7392
94.2951
93.112
87.9234
92.1792
92.0824
50.2558
91.1721
37.4652
94.2667
92.2892
87.5242
42.2644
91.659
91.7064
90.6091
93.5046
70.8677
92.122
94.0592
91.5454
94.2633
91.784
45.6918
67.7745
89.3253
91.919
68.9061
35.6058
87.8808
87.9515
91.6335
92.2213
72.1464
92.2733
88.656
88.3046
94.2012
94.2927
93.0018
48.5911
88.9401
90.5362
87.5162
89.3518
61.2676
92.5544
93.156
87.2747
50.9834
94.2599
94.2716
87.954
92.6465
94.2513
40.8667
79.3844
91.6189
92.0298
51.3058
93.7018
94.2946
92.0964
74.9993
92.7789
59.4487
60.54
89.4625
91.4847
92.089
93.9092
94.3055
58.284
90.17
54.0218
84.1522
87.9609
92.3297
93.5814
92.543
87.9016
93.5082
94.2715
85.3115
92.4638
83.7122
46.8722
93.131
91.8705
92.6496
88.0764
93.5223
72.3032
91.8468
50.3397
92.1336
91.5105
87.2765
93.6855
93.1105
94.1445
93.0164
89.3431
94.2466
92.7894
91.2811
92.4767
92.3473
84.8982
93.823
94.0676
57.9501
92.4421
86.5938
91.9547
94.2002
91.1919
32.0833
92.4553
88.2351
91.9099
93.6572
92.3537
92.2881
91.5465
92.0122
57.2098
94.2645
85.9453
91.7637
92.3281
85.1272
94.2913
93.054
92.5758
76.9984
91.7897
56.1311
93.1703
92.9816
79.5561
91.8936
91.9201
88.712
93.8704
52.1803
85.2617
93.209
90.9312
91.5393
93.7933
91.0498
91.6705
93.4125
41.3668
36.5994
50.3247
92.3345
84.6577
91.896
85.9901
94.2492
91.531
40.7573
92.1883
11.2695
92.5478
85.4267
56.8867
88.3255
56.306
93.4308
92.7171
50.208
91.108
94.2507
92.2785
46.2898
92.8908
91.018
93.5638
92.0119
12.0251
92.553
93.0736
91.8818
91.5987
93.3587
94.2905
93.0147
93.0545
94.2459
74.1683
93.9565
92.996
93.3317
91.8821
91.6611
89.0279
92.7452
82.2039
92.612
93.9691
93.1785
90.8553
93.772
94.2902
93.0818
88.7822
92.5181
93.1006
92.7137
92.1889
91.7311
91.5183
93.4462
91.0416
93.1747
92.5245
93.0617
93.5118
91.2
93.2347
88.4329
90.775
89.1097
92.2654
30.1276
92.2684
92.3066
92.3477
92.1038
92.0866
92.3801
92.2119
92.733
92.65
92.6884
90.5118
47.8278
91.4705
91.2757
91.2651
91.0105
90.9425
91.1363
86.4219
85.0418
85.423
93.111
94.0521
89.0487
94.0704
94.0341
84.8362
52.9095
88.4097
89.3553
84.7312
93.1497
52.9576
94.0253
89.1643
93.0671
91.1948
52.6345
93.032
49.6635
93.9788
93.966
91.792
84.998
49.1945
48.8631
92.8732
93.1326
90.8164
93.9538
85.2477
90.8908
48.5098
93.8595
91.0191
85.4209
91.1133
91.0214
90.584
93.0281
47.0405
93.9017
91.3428
93.0462
86.4493
90.5943
91.9696
45.1634
93.8819
89.8056
92.1414
93.1771
89.4731
92.2824
45.313
49.6182
91.7395
93.8214
93.8965
88.2171
93.1083
88.5827
90.614
91.9331
92.0656
94.2696
92.0715
93.0588
88.0592
47.8471
86.673
93.8303
88.9037
94.2476
93.1039
94.2361
44.2011
91.5285
90.3489
93.9821
93.7995
93.9071
93.2993
89.8322
92.8161
92.3327
93.8231
92.2573
93.0273
88.5402
93.0144
92.7654
92.0701
93.8745
90.0018
94.0581
93.7157
81.6021
93.0156
92.4234
92.8279
92.5246
92.4272
93.1
93.1744
88.758
94.2379
92.358
87.2616
54.3015
92.4977
47.3815
83.8392
93.2598
38.2939
93.2894
93.5792
94.2695
92.306
92.8562
93.3715
71.2799
92.6718
93.782
93.468
90.2996
94.2424
90.6206
92.3239
92.2187
93.2493
77.7525
87.6602
90.4064
89.5896
92.3173
88.5311
93.762
93.2573
88.2832
92.2927
90.0856
93.5311
93.3421
92.7241
93.009
86.959
92.9118
89.7423
50.7559
71.6383
93.122
92.9873
93.8204
85.2131
91.2837
20.9676
86.1278
94.2336
91.4632
94.2382
93.1635
93.463
92.5259
91.2838
91.6157
45.7679
94.2829
92.2096
92.5231
93.1997
93.302
93.7067
93.1045
93.1032
86.9868
92.8701
87.4641
82.4633
94.2084
93.1743
94.0485
93.9992
92.706
93.5248
89.2076
40.8888
94.2816
90.8339
93.8162
91.5298
82.406
94.2811
92.6762
90.6118
93.0818
87.9464
92.2152
35.5932
92.3431
92.152
91.8733
90.3573
87.5774
91.88
92.3454
92.6093
82.6079
92.2755
56.6622
68.6194
92.8755
93.1176
93.3876
92.6173
90.7813
91.4855
92.2939
93.8164
92.0031
93.3858
93.6789
39.9601
92.8892
92.1003
87.05
34.7123
84.8557
88.8849
94.2021
94.149
93.4027
92.313
43.8093
93.1987
89.6439
92.4617
91.0199
91.0149
95.1058
91.1523
91.6006
92.1586
94.9568
94.5504
92.3829
91.5336
87.2158
94.4031
79.5021
94.299
91.1942
93.1781
94.7542
92.367
27.8121
90.524
93.2159
93.5182
92.6109
91.3455
93.3809
87.0871
92.6958
92.4617
93.2066
92.5111
90.8254
94.3157
91.3796
92.1617
87.7483
50.0163
93.1784
93.1285
94.3652
90.3932
93.0521
57.416
55.755
93.1568
90.3953
92.2995
94.2826
91.7414
92.0194
92.6756
89.1477
45.7046
94.2444
90.798
91.4734
94.2762
88.9603
92.4702
93.131
84.7319
92.2634
91.1721
94.0203
92.9829
94.1401
94.304
93.9974
10.0348
90.65
92.8096
91.2656
91.2179
93.1373
33.9129
91.2088
93.4138
94.0677
88.2986
92.4087
93.9844
94.0159
93.0438
94.2722
92.9097
87.7221
90.0805
92.9236
92.0572
93.5147
94.2924
93.7419
92.7887
90.1259
91.8429
93.1213
93.3141
93
95.1116
50.6594
90.3741
93.2069
90.5016
93.3271
90.7487
91.0408
92.0699
92.606
91.1154
94.3198
94.2327
88.3272
94.2297
92.9883
91.6968
84.7523
88.5309
92.2173
92.4487
17.502
91.4146
92.2476
93.5071
90.0776
53.0474
94.2945
93.8961
45.643
92.5721
52.8748
92.2345
89.5622
92.6181
91.4488
91.5538
87.6234
93.7218
92.92
94.8824
90.633
92.6401
86.7901
89.8485
93.9182
92.4969
86.025
44.8865
91.1147
93.044
53.9796
87.1036
92.1502
93.2256
93.7541
93.0995
93.0847
93.0853
91.469
93.3953
67.3689
93.0789
55.0332
94.0439
76.5328
92.497
86.4485
93.1277
94.0353
89.7111
93.1814
94.3011
95.0234
90.6442
93.1941
93.8105
92.3823
93.4587
93.5408
92.8755
93.0657
92.7006
93.9352
52.1914
92.8891
92.6608
52.4816
92.6304
90.2752
84.9875
91.5721
94.0575
93.7931
92.663
90.9947
47.8001
94.23
91.6357
37.2092
58.1885
50.2304
36.2741
62.6147
92.1222
91.8029
91.5617
91.62
56.6269
92.5001
88.6285
90.6481
89.6862
87.9599
67.7545
49.5969
87.6954
76.3224
72.0694
88.0385
92.5539
92.2298
88.5062
91.8537
91.6544
88.5239
91.6084
92.5696
76.7211
93.1432
92.2946
92.8183
85.1721
85.9953
40.0533
92.3917
83.3987
84.6532
89.3069
93.7326
53.6666
86.9626
90.4982
76.7011
90.2219
92.7078
85.8778
94.2946
52.1741
89.1278
91.7224
92.1662
93.0039
94.1974
93.9699
49.8445
91.5983
85.0239
92.8733
92.5112
93.4688
93.1272
57.7854
92.9217
93.9657
91.2828
94.2424
93.4179
93.1725
86.0695
92.195
93.4398
93.0393
85.2528
89.0922
93.252
93.9435
47.9644
93.1576
93.3239
90.623
92.3313
85.0805
94.2804
91.3947
87.5939
94.2893
93.5361
87.6849
42.8345
91.4621
85.5887
92.0383
92.1502
94.047
28.4621
92.9823
91.5047
93.9324
41.1696
93.017
81.5699
94.0048
93.8511
94.255
87.3347
92.0828
93.2587
87.9386
59.4997
37.0952
91.7236
92.787
94.2487
88.8314
86.017
92.4318
87.5072
88.0039
92.6552
90.0049
92.2371
39.712
92.7563
94.2392
93.0979
87.1476
92.422
87.6022
91.4316
92.8422
93.1355
93.1388
91.7949
92.8348
92.9705
28.0271
19.1631
94.0418
92.2517
83.1608
94.2858
93.0323
51.3013
86.5103
91.8098
88.1028
70.0424
49.5171
94.2575
85.8013
91.9001
92.825
82.2381
50.658
92.499
92.6364
94.2903
50.9278
94.2903
92.0349
93.8296
8.21586
92.6921
42.2297
58.2275
92.4118
92.2911
92.8207
94.2922
93.1768
94.2801
94.2683
94.2606
93.1677
92.6866
91.8502
92.2639
92.4443
64.006
93.2143
90.0981
92.6684
54.1683
92.9794
53.3409
92.6333
93.0377
55.0241
90.8956
69.1894
65.2613
61.4361
51.9225
51.9911
51.2687
57.6983
52.182
94.2941
94.2772
94.2718
94.2878
94.2737
94.2555
93.2061
86.4082
92.3834
89.3517
92.3287
86.6323
94.2526
92.3016
93.1722
94.0597
93.6125
93.9344
91.8509
94.5632
94.289
89.3356
87.8452
93.0872
92.2994
92.6743
92.3439
79.2538
94.2704
92.5052
46.8653
92.2433
91.1565
89.3014
93.0314
93.0447
93.4851
35.0319
93.0808
92.6624
94.2671
87.3316
94.2289
87.4741
84.8046
89.9967
94.2765
85.7257
91.1191
91.7219
91.9346
92.4494
93.0746
86.499
93.7708
17.6895
93.2088
44.2891
8.56094
94.3101
49.218
85.544
90.449
89.9608
43.5379
94.2868
92.7652
93.5572
73.8999
92.5439
86.9902
91.7213
87.0871
93.9386
92.522
94.1139
93.4514
60.4013
40.2273
18.2917
88.2487
89.4855
93.7338
92.4169
94.22
90.9913
89.6056
85.6321
92.8541
49.7845
93.1557
93.926
42.1366
93.2289
84.8674
92.7798
93.9438
92.8406
82.0764
65.3609
92.4524
93.1543
88.9319
92.9129
47.5515
92.3527
48.2458
93.9791
90.762
87.0451
38.605
83.72
93.1279
92.4759
92.5694
94.2671
54.5679
87.9992
89.7012
85.9303
85.9639
91.3182
92.6879
94.2433
87.7284
90.642
53.8311
85.354
93.1478
93.1838
85.6048
94.2472
91.0409
94.2896
89.8245
87.531
92.7182
47.2636
92.9089
93.3302
93.3118
89.5763
94.2578
86.6136
91.3007
92.4219
77.9217
92.6526
29.6957
91.6174
94.4025
92.0388
62.8685
91.7613
94.0661
93.598
93.103
92.6304
93.138
92.2904
93.6509
96.4223
86.3037
93.6135
85.5139
94.2334
92.0699
55.9902
92.7427
58.4228
92.3046
92.9865
92.4297
93.3402
85.6517
88.5459
92.2156
85.1227
94.241
92.4854
38.1636
92.3846
92.6873
93.1332
89.4001
87.2807
92.2459
91.2139
73.4902
92.5059
92.2943
50.5124
85.9885
93.1426
92.7852
93.4135
90.4043
91.8449
91.7168
80.2671
88.0064
87.9362
86.0752
87.7557
92.245
52.2988
93.6212
91.7546
85.1386
93.0121
57.842
87.6794
92.4616
88.5313
55.4464
93.2515
89.6121
93.1716
39.0936
91.8909
92.7544
93.0032
89.2974
43.7228
94.4972
53.409
94.2203
94.2282
94.3029
55.0948
94.2846
36.8556
75.058
93.0131
92.4609
88.1429
49.5857
92.196
17.7176
94.3305
91.6214
94.5515
92.3417
87.8718
65.8001
94.2907
93.9179
44.4756
58.1984
91.9827
87.6311
94.2914
51.455
94.2656
86.0989
89.3912
55.9947
94.0706
94.2865
93.2113
91.7651
85.9909
91.8289
87.1924
94.2586
94.2426
59.1624
55.4413
94.2323
91.3428
87.3562
92.9184
91.2383
91.8405
84.8922
92.3363
94.2585
89.0121
88.4647
92.1883
65.9594
92.0287
94.2646
92.1571
75.9222
94.257
94.2506
92.6492
85.759
94.2309
87.5109
89.066
92.1701
94.2733
94.2567
62.0339
51.3776
87.6451
94.0784
94.2323
89.9566
93.1648
92.665
93.0854
93.0172
89.4564
89.7558
88.7505
94.249
58.8328
92.2384
80.3362
93.0836
86.64
48.7044
92.9105
94.2543
85.6734
89.6621
90.1925
38.3971
93.1828
93.2819
92.2829
93.5671
93.9221
94.0091
94.0261
93.6551
94.2359
22.337
57.2864
86.2686
103.299
85.8267
87.363
87.2054
93.9134
99.3504
90.1473
91.3541
95.7741
99.5153
90.0878
93.21
86.814
90.1583
90.6669
89.0012
)
;

boundaryField
{
    frontAndBack
    {
        type            empty;
    }
    wallOuter
    {
        type            zeroGradient;
    }
    inlet
    {
        type            zeroGradient;
    }
    outlet
    {
        type            fixedValue;
        value           uniform 0;
    }
    wallInner
    {
        type            zeroGradient;
    }
    procBoundary3to1
    {
        type            processor;
        value           nonuniform List<scalar> 
48
(
92.475
92.2214
92.3179
92.1052
91.9759
90.1949
92.2214
92.3698
92.2462
88.8712
88.8712
90.3836
90.3836
89.338
89.2319
91.7051
91.5528
91.8468
91.5528
90.693
90.4535
91.4276
90.693
90.8034
88.9774
90.8622
92.0742
91.4276
92.2002
91.1695
91.1695
92.3217
92.3217
92.2462
90.7467
91.9987
92.2632
88.9774
92.5392
92.0995
89.338
92.2791
92.2472
90.693
89.2545
92.5528
91.6812
89.7954
)
;
    }
    procBoundary3to2
    {
        type            processor;
        value           nonuniform List<scalar> 
29
(
92.8972
92.8972
94.1095
94.0868
90.4207
93.0596
94.2836
92.8405
94.0839
94.0714
92.9675
90.0179
92.8821
94.2798
94.2806
94.2764
94.0851
94.0754
92.8387
94.2794
94.2741
94.0851
94.3012
94.0754
94.2884
94.0828
94.0754
89.5775
89.5775
)
;
    }
}


// ************************************************************************* //
