/*--------------------------------*- C++ -*----------------------------------*\
| =========                 |                                                 |
| \\      /  F ield         | OpenFOAM: The Open Source CFD Toolbox           |
|  \\    /   O peration     | Version:  v1912                                 |
|   \\  /    A nd           | Website:  www.openfoam.com                      |
|    \\/     M anipulation  |                                                 |
\*---------------------------------------------------------------------------*/
FoamFile
{
    version     2.0;
    format      ascii;
    class       surfaceScalarField;
    location    "0.99";
    object      phi;
}
// * * * * * * * * * * * * * * * * * * * * * * * * * * * * * * * * * * * * * //

dimensions      [0 3 -1 0 0 0 0];
oriented        oriented;


internalField   nonuniform List<scalar> 
2708
(
-0.000516861
1.48192e-05
0.000206335
0.000295707
0.000166928
0.00021915
-0.000170323
-0.000215756
-0.00033134
-1.414e-05
0.000220411
0.000125069
8.52078e-06
-9.92874e-06
-6.71656e-07
2.07961e-06
-0.000409715
-0.000210513
0.000311722
0.000308506
0.000795792
-0.00101541
0.000484578
-0.000264958
3.31377e-05
-3.49572e-05
3.33011e-05
-3.14816e-05
-0.000132664
0.000195668
-1.66475e-05
-4.63563e-05
-0.000662735
0.000684467
0.000715501
-0.000737233
2.66348e-05
3.90202e-05
-3.25173e-05
0.00094466
-0.00097725
0.000293221
-0.000260631
0.000279206
-0.000349635
0.000733448
-0.000663019
-0.000194702
0.00025483
-0.000254767
0.000194639
-0.000114086
-0.000383591
0.000356322
0.000141355
0.000383045
-0.000543796
-0.000123607
0.000284358
4.64753e-05
2.80402e-05
-4.78808e-05
-0.000742903
0.000570477
-0.000166849
0.000339275
0.000147791
-0.000260545
0.000172173
-5.94189e-05
0.000313414
0.000142034
-0.000416877
-3.85713e-05
-0.000142285
-5.72939e-05
0.00019203
7.54917e-06
-0.00040543
0.000798577
0.000551514
7.54714e-05
-4.21135e-05
-0.000147444
-0.000714136
-0.000391786
0.000574344
0.000531578
-0.000277396
-0.00124448
0.00128741
0.00023447
-0.000772036
-0.000604836
-9.79968e-05
2.72393e-05
0.00018956
-0.000118802
-0.000951822
-0.0001635
0.000138072
-0.000244426
0.000109558
0.000274611
-0.000139743
5.59348e-05
-0.000493609
0.000437674
-1.68962e-05
-0.000558886
0.000575782
0.000679477
5.33878e-05
-5.37748e-05
-0.00067909
-0.000625844
5.21205e-05
-2.47887e-05
0.000598512
0.000648913
4.97678e-05
-2.78339e-05
-0.000670847
-0.000247961
0.000181548
7.62958e-05
-9.8818e-06
0.000725133
0.00033323
-0.000745999
-0.000312365
-2.57609e-05
4.21621e-05
-2.47786e-05
8.37748e-06
0.000248877
0.000763922
-0.000156602
-7.57537e-05
5.06783e-05
7.84315e-05
-5.33561e-05
-5.48015e-05
7.72053e-05
2.75711e-05
-4.99749e-05
9.72122e-05
0.000550549
-0.00062688
-2.08811e-05
-0.000537622
0.000498807
0.000891475
0.000971213
-0.000151782
-0.000140918
-4.04081e-05
-2.41407e-05
2.1767e-05
4.27819e-05
-0.00047437
0.000705841
-0.000543587
0.000312116
0.000139783
1.02846e-05
-0.000168721
1.86531e-05
0.000157213
-9.53892e-05
-7.15098e-05
9.68572e-06
-0.000903582
0.000108392
-0.000156631
3.21894e-05
-3.41722e-05
-3.29745e-05
5.87585e-05
-2.77322e-06
-6.39278e-05
7.94252e-06
6.15084e-05
-0.000333013
0.000367422
-9.59169e-05
6.0657e-05
-5.07582e-05
-3.30557e-05
2.3157e-05
0.000432807
-0.000221065
-0.00021804
6.29843e-06
4.76131e-06
0.000305886
-0.000155064
-0.000155583
9.77292e-05
0.000168549
-0.000133068
-0.00013321
-9.39004e-05
0.000219669
-1.44924e-06
-0.00012432
0.000125465
-0.000205123
-8.62268e-05
0.000165885
-0.000418553
-0.000383399
0.00048404
0.000317912
0.000782037
-0.000176068
-0.000605968
0.000239662
5.34427e-05
-0.000293105
0.000138619
6.59885e-05
-1.73307e-05
-4.86578e-05
1.99561e-06
2.60363e-05
-2.80319e-05
-3.2204e-05
-4.35497e-05
-3.02357e-05
-2.45658e-05
1.76466e-05
1.45757e-05
0.000492111
-9.23079e-05
0.000111467
3.8101e-06
-8.61256e-05
0.000138727
-5.26009e-05
-0.000152178
0.000227152
-7.49736e-05
-0.00016397
0.000148135
1.5835e-05
-0.000259667
1.17057e-05
-8.76054e-06
4.98019e-06
4.60876e-05
0.00013546
-0.000293297
-9.02932e-05
0.000234498
-9.47149e-05
0.000337132
2.09948e-05
-0.000358127
1.30888e-05
2.05269e-05
-3.36157e-05
2.01682e-05
1.88521e-05
1.38914e-05
0.000133899
-0.000636263
-0.00010664
-1.36168e-05
-4.83696e-05
6.19864e-05
-0.000161685
8.17501e-05
0.000501079
-0.000421144
-0.000197262
0.000161655
0.00019282
-7.93405e-05
5.4512e-05
0.00120091
-0.00117608
8.37864e-06
1.67294e-05
-1.12183e-05
-1.38897e-05
3.17979e-05
1.3424e-05
-5.99184e-06
-3.92301e-05
0.000190325
-0.000212577
2.26613e-05
-4.09311e-07
2.75518e-05
2.49318e-05
-0.0010045
0.000952017
-0.000120184
4.62059e-05
-0.000744628
0.000818606
-4.07845e-06
0.000236775
-0.000107231
0.000224913
-0.000226096
-2.89485e-06
7.88716e-06
-3.50732e-05
7.78643e-05
-2.24624e-05
3.96234e-05
-5.51162e-05
3.79551e-05
0.000139064
-0.000102531
6.11959e-05
3.75677e-05
-0.000491612
0.000454044
-0.000303317
-0.00028168
-0.000389056
0.000455148
0.000215588
-4.45659e-05
-3.70629e-05
4.12207e-05
-0.000167864
0.000158812
9.05189e-06
0.000300296
-0.000199007
-0.000195189
5.38296e-05
-3.2407e-05
-0.000481825
2.22238e-05
-3.93738e-05
0.000498975
-0.000106136
-6.79398e-05
0.000141291
3.27854e-05
-1.54166e-05
3.84624e-06
2.46592e-05
-0.0006129
-1.08167e-06
0.000623714
-9.7314e-06
3.99127e-06
0.000623343
-0.000605374
-2.19601e-05
-0.000115272
0.000688933
-0.000741586
0.000167924
0.000521404
-0.000330615
-0.000582575
0.000614039
-0.000313828
5.40484e-05
7.94776e-05
-0.000364057
0.00018831
0.000430578
2.7146e-05
8.19381e-05
-0.000138731
2.96468e-05
-0.000678174
0.000609003
0.000567978
0.000117446
0.000218032
-0.000175216
9.66549e-05
-2.3976e-07
-1.41557e-07
8.52019e-06
-3.02084e-05
-5.62922e-05
-9.58858e-05
-8.37667e-05
-0.000460029
0.000131359
-0.000126598
-6.61457e-05
-6.59894e-05
0.000214124
-1.48948e-06
2.16576e-05
5.79271e-06
-8.51944e-05
-0.000205244
0.000166831
9.7064e-05
-0.000288476
0.000177272
-1.98735e-05
3.02803e-05
2.31911e-06
-1.27259e-05
0.000221036
0.000349441
-3.49873e-05
-0.000225558
-4.68384e-05
-2.44256e-05
5.13904e-05
6.9281e-05
-0.00031087
0.000555003
-0.000138442
0.000218009
-0.000221852
2.68691e-05
-1.11275e-05
-3.73083e-05
3.36013e-05
-2.83672e-05
-2.61795e-05
2.09454e-05
5.83195e-05
-2.10492e-05
-5.4601e-05
0.00115932
0.000122567
-0.00112191
-0.000159984
8.63187e-05
1.66154e-05
6.05899e-05
0.000642194
3.06642e-05
7.86066e-05
-0.000751465
-0.000182841
0.00038359
0.000373595
0.00011286
0.000573621
-5.35182e-05
-0.000245927
0.000263484
0.000282738
4.2865e-05
0.000125002
-3.86094e-05
-7.5841e-05
-8.13571e-05
0.000619066
2.11629e-05
-0.000558872
-1.4872e-05
1.47305e-05
-0.000549675
-1.2165e-05
-6.55316e-05
0.000627371
-5.70452e-05
6.29031e-05
-4.09311e-05
-0.00116829
-0.000120738
0.00112853
0.000160499
0.000462655
0.000321306
-0.000279492
-0.000504469
-0.000156324
8.25471e-05
-0.000598613
0.00067239
-5.0199e-05
4.72188e-05
2.25473e-05
-1.9567e-05
0.00103471
-0.000896699
0.000210274
-0.00034829
-0.000299318
-0.00021727
0.000261822
5.59213e-05
-5.34995e-05
-2.68288e-05
2.4407e-05
1.71971e-05
-5.32919e-05
5.04513e-05
-1.43565e-05
-6.1165e-05
0.000192524
-0.000831018
0.000360645
-4.64886e-05
0.000180824
7.56857e-05
2.81175e-05
-1.29088e-05
0.000379494
-0.000355868
-0.000171422
0.000147795
-0.000133061
-0.00092053
5.90565e-05
0.000994534
-0.000266496
-0.000314328
0.000334897
3.63997e-05
0.000649529
-2.55934e-05
-0.000660335
0.000254742
-0.00145326
3.49263e-05
0.0011636
0.000322813
-0.000310557
0.000206895
0.000305249
-0.0012188
2.26099e-06
-3.61838e-05
-1.29155e-05
0.000997737
-0.000676316
9.02512e-05
0.000390613
-4.80563e-05
0.00056927
-0.000121367
-0.000423
-2.49023e-05
-1.48707e-05
2.32719e-05
6.49562e-05
0.00021511
-0.000235492
8.21557e-05
-6.17738e-05
0.00114729
-0.00112131
-0.000303374
0.000558659
-7.16027e-05
0.000510681
-0.000457964
0.000461956
-0.000354663
0.000239391
0.000219943
0.000565525
-0.000811268
0.000359124
-0.000107973
0.000560117
-2.1957e-05
-5.59577e-05
-0.00107143
0.00114934
0.000649026
-0.000703089
0.000166923
0.000674959
-0.000574125
-1.54365e-05
-8.5398e-05
0.000583597
-0.000820834
0.000334449
0.000614938
-6.89369e-05
0.000142932
-1.40855e-06
0.00016668
0.000797507
-0.000642882
-0.000294495
-0.000348765
0.00036158
0.00067479
-0.00063483
-0.000166773
0.000126812
0.000105187
-2.01536e-05
5.36928e-05
-0.00019917
0.000151024
0.000300286
-0.00025214
0.000193189
-0.000207273
0.000127638
-0.000113554
-1.2088e-05
5.50865e-05
1.29228e-05
-0.000660481
-0.000389614
0.00079822
0.000251875
1.16833e-05
1.70999e-05
-2.38645e-05
-4.91873e-06
-1.52543e-05
0.000279766
-0.000327845
6.33333e-05
1.12255e-05
0.000695118
-0.000692634
-1.37096e-05
0.000166672
-0.000636777
0.000636691
-0.000166585
-0.000118213
-3.3337e-06
9.25473e-05
2.89997e-05
0.0010572
-0.00107932
-6.1059e-05
8.31795e-05
-0.000195184
1.08331e-05
0.000146636
4.41065e-06
-0.000151047
-1.20876e-05
1.88051e-05
-6.0217e-05
0.00064208
4.86104e-05
-6.73481e-05
-0.000540947
-4.33922e-05
-2.85608e-05
-9.9232e-05
-0.00113499
0.00115488
-8.71238e-05
-1.4434e-05
-6.63058e-05
0.000666798
-0.000193322
-0.000554833
-8.2386e-06
0.000677232
5.79724e-06
0.000259246
-2.44559e-05
3.94373e-05
-0.000274227
0.000227502
-0.000597058
-0.000290926
0.000457321
0.000329068
-0.000639495
-0.000146894
-6.98117e-05
0.000197027
8.78947e-05
0.000282694
-0.00026655
0.000458554
-0.000474699
6.40229e-06
5.55188e-05
-6.44998e-06
-5.54711e-05
-0.000643351
0.000550997
-0.00104579
0.00107398
-0.000127419
-0.000637948
0.000746229
-0.000497895
-0.000177831
0.00016827
-0.000438878
3.94274e-05
0.000728519
-0.000504678
5.82655e-05
0.000673915
-3.95097e-05
-0.000167335
0.000283819
-7.69741e-05
-1.36884e-05
1.34557e-05
0.00067971
7.60837e-07
-0.000621633
0.000632098
0.00038901
-0.000133744
0.000328331
-1.29925e-05
-0.000647116
3.4265e-05
-0.000750663
-0.000224657
0.000830439
0.00014488
0.000646411
0.00013702
-0.000141352
-1.26238e-05
-0.000380912
-0.000147412
-0.000133302
0.000430692
0.000351637
-8.32163e-05
6.90114e-05
0.000201214
-0.000187009
-4.33386e-05
5.0341e-05
-4.74146e-06
-0.0001332
0.000345534
0.000144843
-0.000357178
0.000102486
-9.10792e-05
-0.00035946
0.000538857
-0.000192021
-9.9909e-05
-0.000139246
-8.60399e-05
9.30299e-05
0.000132256
-0.000381247
0.000201355
-0.000265436
0.000862301
0.000308499
-0.000549088
-0.000398906
-8.22839e-05
-7.04727e-05
3.34054e-05
-4.81271e-05
-0.00035393
0.00119733
-0.000815845
-5.22891e-05
1.92872e-05
5.09503e-05
4.81758e-06
-9.61785e-06
4.17967e-05
-0.00113293
4.14661e-05
0.000898804
0.000192664
-5.25998e-05
1.32735e-05
-1.29627e-05
-0.000192124
0.00110323
0.000162873
-0.000596284
0.000757021
-0.00044468
0.000283943
1.26354e-05
0.000275968
0.000155467
-8.60864e-05
-0.000345349
9.26622e-05
-0.000386603
-4.97679e-05
7.35216e-05
1.40916e-05
-3.85921e-05
3.15895e-05
-0.000366441
-0.000663357
-0.000571648
0.000414984
-0.000479501
-0.000577698
0.000642216
-6.11523e-05
0.000174956
0.000501134
0.000110075
-0.000812302
-6.89226e-05
-0.0001362
0.000231538
0.000107025
0.00062375
0.000192634
-0.000169972
-0.000150097
-0.000153294
-6.22225e-05
0.000113512
-0.000134506
0.00121031
-0.000308652
-4.62122e-05
0.000587768
0.00147428
-0.000182158
-8.1813e-05
-0.000724524
-8.45642e-05
-1.86869e-05
0.000827775
-0.000425635
0.000426396
-0.000510566
0.000647587
-0.00032162
0.000377667
-0.000322543
-0.000267148
0.000288566
-0.00052685
0.000505433
-1.04546e-06
0.000441364
0.000292888
-0.000162741
-8.08418e-05
-4.93055e-05
0.000101163
-8.44476e-05
-7.23894e-05
5.56739e-05
-0.000264313
0.000553619
-0.000450991
-0.000961479
0.000148084
-0.00031954
-0.000405449
6.76756e-05
-8.61486e-05
0.00115129
-0.00113281
0.000168245
-0.000117254
-0.000266746
-1.3026e-05
-0.000610326
0.000544807
-0.00063834
0.00070386
-1.24141e-05
-0.000459912
2.30023e-05
-0.00027136
-3.23492e-05
0.000280706
1.95477e-05
-0.000815151
3.6737e-05
-0.000622509
0.000260793
-0.000615456
6.65419e-05
-0.000524506
1.48023e-05
-0.000152735
5.08091e-05
-0.00042014
-5.49457e-06
0.000264506
0.000274504
-0.000275526
4.15597e-05
-4.05956e-05
-9.64109e-07
0.000109044
-0.000127142
-0.000132
-0.000231892
0.000272262
-2.40932e-05
-1.6277e-05
-0.000267892
-0.000566953
0.00013699
0.000697855
-5.20993e-05
5.90177e-06
-0.000421805
-0.000648161
0.000463046
0.000377834
0.000842257
-0.000288318
0.000152393
-0.00071866
0.000784426
0.000100914
-3.16596e-06
1.67648e-06
-3.8721e-06
-0.000170454
0.000109302
0.000711393
-0.000676344
0.000649418
-0.000577814
0.000216635
-0.000400632
-0.00049971
0.000265513
7.69972e-05
2.6835e-05
-8.88438e-05
0.000112989
-5.09801e-05
-0.000642308
0.000588764
0.000767784
-0.00071424
0.000247474
-0.000290761
-0.000378519
0.000153884
6.5809e-05
-7.72136e-05
4.61508e-05
-1.73069e-05
0.000250292
-2.8034e-06
-0.000224487
-0.000600225
0.000316324
0.000453095
-0.000169194
0.000138585
8.18255e-05
8.15981e-05
0.00075261
-0.000681966
-0.000692576
0.000621933
0.000338795
-0.000354188
9.11577e-05
-7.57646e-05
6.43951e-05
-8.23428e-07
-1.26214e-05
0.000421222
-0.000464614
8.41008e-05
-7.31028e-05
-6.35989e-05
0.000751898
-0.000669462
-0.000692762
-3.05562e-05
2.67363e-05
5.602e-05
-5.22001e-05
-4.35083e-05
1.42613e-05
-0.000235996
-1.11499e-05
-0.000719304
0.000530172
0.000621466
-0.000432335
-0.000246389
-0.000660598
-0.000737453
0.000418916
-0.000281688
2.61431e-05
-1.84457e-05
-0.000221741
4.19044e-06
-0.000171125
0.000302375
-0.000741349
0.000610099
-0.00030783
0.00105469
-0.000137861
-0.000622056
0.000462094
0.000871356
-0.000836928
0.000547087
0.000720532
-9.76556e-05
-0.000172893
0.000752848
-0.000522274
0.0012437
-0.000197039
-0.000692746
2.13123e-05
0.000262614
-3.58523e-05
-0.000248074
7.24965e-05
-2.90418e-05
0.00079962
-0.000843075
9.94872e-06
0.000165553
-4.50603e-05
-0.000130441
0.000340187
-1.65002e-05
-7.33942e-05
0.000492922
0.000212883
-0.00048971
-0.000216095
-0.000214735
0.000236657
-1.19729e-05
0.000189368
-0.000142725
-2.06783e-05
-2.59647e-05
0.000345603
-2.30609e-05
0.000968914
-0.00129146
5.44369e-05
-9.39466e-05
0.00011349
-0.00130784
0.00117239
1.7471e-06
-1.63024e-06
7.53545e-05
-9.17443e-05
-0.000119845
9.07822e-05
-0.000738944
0.00112483
0.000133948
-0.000519837
-0.000688237
0.000668099
-0.00057479
0.000443823
0.000117759
-0.000657271
0.000595446
-3.9459e-05
-0.000681283
0.000703845
0.000853027
-0.000873595
-0.000141658
-0.000111318
4.24631e-05
-0.000575259
9.54349e-05
0.00110615
-0.000626328
-0.000324273
-0.000107998
0.000299071
0.000927292
0.000275487
0.000893367
-0.000877262
-0.000143524
0.000235927
-9.64953e-05
5.71794e-05
-4.19019e-05
8.12179e-05
0.0001059
-7.19253e-05
-1.60121e-05
-1.79629e-05
-0.000230337
0.00093158
0.000305194
-0.000230321
-0.000374192
-0.000674975
0.000496181
-1.92868e-05
0.000134695
2.68225e-05
-0.000142231
1.9825e-05
-0.000957756
-0.000730276
6.67292e-05
0.000723581
-6.89008e-05
-0.00072141
0.000432224
0.000192339
-0.000194796
-0.000429767
0.000659941
-7.27273e-06
-0.00044879
-0.000203878
0.000817807
-0.000942882
-4.16981e-05
-0.000359951
-0.000117598
0.000153275
6.45744e-05
-3.8659e-05
-0.000397632
7.78022e-05
1.80274e-05
0.000301802
-0.000520888
9.30366e-05
3.022e-05
-5.19981e-05
-2.13675e-06
2.03556e-06
0.000843147
-0.000332514
-0.000173148
-0.000636426
0.000462987
-0.000146845
0.000320284
-0.000373401
-8.56027e-05
-0.000177422
-0.000688923
0.000772071
0.00022145
-0.000764316
-0.000232651
0.000775517
0.000603994
-0.000601924
0.000210813
6.91893e-05
0.000899568
-0.000594128
0.000550258
-1.42495e-06
0.000803411
9.68181e-05
-1.18429e-05
7.87216e-05
1.9111e-05
-8.59897e-05
0.000472666
-8.16394e-05
-4.6291e-05
-0.000344735
-0.000831572
3.76109e-05
-6.44132e-05
4.62173e-05
1.81959e-05
-5.60446e-05
3.50457e-05
0.000492909
-1.06799e-05
-9.56367e-06
0.000699433
-0.000436793
5.36834e-05
0.000469951
7.26856e-06
1.56901e-05
-0.000152607
6.07805e-05
-6.37539e-05
0.00015558
2.40668e-06
0.000724263
7.28067e-05
4.86297e-05
-7.52855e-05
0.000492702
0.000121483
-0.000476522
-0.000137664
-8.37e-05
0.000266583
-0.00101316
0.000451243
-4.34427e-06
2.30519e-05
-0.000111082
0.000602078
0.000207164
-0.000170154
-0.000198898
8.69572e-05
0.000267439
0.000179851
-0.000176859
-2.68007e-05
3.80636e-05
0.00043998
7.66795e-05
-7.10909e-05
-0.000147247
-8.65999e-05
-8.53755e-05
0.000114681
0.000196542
0.000260476
-0.000314984
-0.000129671
2.33373e-05
0.00013348
-0.000221585
-0.00118041
0.000157511
-0.000151621
0.000308152
3.46203e-05
-0.000191151
0.0003175
-0.000285217
0.000163923
-0.000196205
0.000431663
-0.000265784
0.000147687
-4.99891e-05
0.000260607
0.000168398
0.000259039
4.22568e-06
-0.000359951
0.000390709
-0.000267385
0.000236627
0.000116599
-0.000116499
0.000393207
-0.000265693
-1.10155e-05
0.000352922
-7.87115e-05
-1.47539e-05
-5.84944e-05
0.000466456
2.18753e-06
-0.000302106
0.000168772
0.000131146
0.00103566
0.000521697
-0.000288611
-0.00126874
-1.12739e-05
0.000250118
-1.3845e-05
0.000168124
9.06137e-05
-6.28673e-05
-1.20752e-05
-5.76093e-05
-8.07744e-06
2.63983e-05
3.92884e-05
7.76795e-05
-2.22998e-05
0.000204716
-0.000186621
-0.000247349
0.000229254
-5.24006e-05
4.20461e-05
6.004e-05
-4.96855e-05
-7.43532e-05
-7.68932e-05
9.88458e-05
-6.14338e-05
-2.16374e-05
3.72896e-05
4.57816e-05
-4.28541e-05
4.38316e-05
2.48592e-05
-2.58366e-05
-5.91383e-05
-0.000130114
1.68875e-05
3.05813e-05
4.54397e-05
-4.17524e-05
4.2687e-05
8.12493e-07
-0.00095751
3.64611e-05
0.000895915
2.51341e-05
1.68321e-05
-2.32687e-05
-5.27017e-05
-9.42049e-05
-0.000124836
0.000149419
2.69853e-05
-2.66915e-05
-3.71139e-05
8.3031e-05
-6.80629e-05
2.21457e-05
-0.00102908
0.0001065
2.98749e-05
-5.24382e-05
5.31446e-05
2.14866e-05
-0.00010094
4.84486e-05
-2.17403e-05
-6.38222e-05
-0.00028172
-0.00016851
-0.00114103
0.000204611
3.79673e-05
-5.09524e-05
-0.000316133
-0.000702333
5.15125e-05
-5.01678e-05
-2.54854e-05
2.25213e-05
-0.000217658
-0.000134657
5.0669e-05
-1.37684e-05
-7.3077e-05
3.61764e-05
-0.00128264
0.00027422
0.000817407
-0.000641431
0.000859683
1.80859e-05
-2.86533e-05
2.5092e-05
5.29904e-05
-4.44811e-05
-1.49069e-07
-2.00035e-05
5.43301e-05
7.81462e-06
-1.51992e-07
2.02648e-05
2.3097e-05
3.1522e-06
-0.000904228
0.000438999
-3.60035e-05
2.68604e-05
-1.66179e-05
9.38651e-05
-6.17162e-05
3.0894e-05
0.000104456
-0.000135502
-0.000139173
-5.35523e-05
1.09943e-05
0.000156567
-0.000220216
-1.2487e-05
1.05173e-05
-1.13043e-05
1.32739e-05
-0.000732166
4.90312e-05
-1.93046e-05
-6.573e-05
9.09786e-05
-0.000141878
-8.17407e-06
2.7095e-05
-3.5579e-05
1.6658e-05
0.000133061
-0.000196522
4.55198e-05
1.79413e-05
7.3264e-06
1.55519e-05
-6.86333e-05
0.000122772
-0.000161464
-0.001196
0.000175226
5.57906e-05
2.54576e-05
-3.2217e-05
0.000117183
0.000318478
-0.000210748
8.67062e-07
-9.16462e-05
9.71401e-05
-6.36099e-06
-1.2799e-05
0.000139178
-9.91399e-05
0.000353681
9.78126e-05
-3.38866e-05
3.47536e-05
-0.000333739
-0.000860712
-1.55279e-06
-0.00115825
-0.00046442
9.5399e-05
-1.40016e-05
-2.01814e-05
0.000102832
5.94799e-05
-4.58652e-05
0.0002045
7.59442e-05
-0.000163262
5.06512e-05
-7.16243e-05
0.000179659
4.11551e-05
-2.4272e-05
-5.12326e-07
-1.59551e-05
7.89614e-06
-4.17827e-05
3.91724e-05
2.3139e-05
-3.41476e-06
-8.03353e-05
1.75901e-05
6.01561e-05
-0.000114311
0.000154725
-0.000739146
-0.00023696
0.000345997
-0.000204426
0.00011802
-0.000327387
0.000201272
-1.04696e-05
-5.36165e-05
3.3855e-05
0.000122913
4.39768e-05
-4.31605e-05
5.08546e-06
-0.00140201
-0.000197847
0.000414211
2.59413e-06
-3.94678e-05
2.34273e-05
2.279e-05
-0.000171212
0.000120587
-0.000176656
-0.000132896
0.000188966
0.000177866
-0.000162457
-4.01093e-05
1.30912e-05
-8.72931e-05
0.000458631
-0.000413049
-0.000550149
0.000504567
-5.62443e-06
0.000118054
3.48375e-05
0.000705514
-0.000633017
8.53795e-06
0.00012784
-1.34642e-05
-6.43837e-05
0.000208999
-0.000405854
0.000490473
-0.000166258
-4.36751e-05
-2.18372e-05
6.55122e-05
2.05192e-05
0.000782787
-0.000734117
8.78912e-05
0.000150716
-0.000489724
0.000480815
4.49857e-05
-0.000286382
0.00026054
-0.000771489
0.000895053
-0.000123564
0.000189403
-0.000132269
-0.000558607
1.77703e-05
-0.000218616
0.000759453
-0.000336826
0.000324308
-0.000290181
0.000302699
-8.92147e-06
5.57544e-05
0.000842389
0.000406166
-0.000428444
0.000487644
-0.000465366
-1.7425e-05
-2.11577e-05
1.05508e-05
0.000110114
-0.000236263
4.44509e-05
1.27994e-05
-1.64892e-05
0.000104708
-6.59755e-05
-0.000767352
0.000615768
-0.000253846
-0.000128559
-0.000444803
-0.00129082
-0.00029335
0.000755609
0.000182702
-2.53574e-06
-0.000186812
0.00021066
-0.000533698
0.000689966
-1.35029e-05
-0.000155898
0.000166865
0.000191735
-1.07358e-05
-1.78676e-05
-0.000151566
0.000152945
0.00020644
-0.000666177
2.3305e-05
0.000436433
-0.000380854
0.000347956
6.09744e-06
-0.000860807
0.000391635
0.000771546
-4.36912e-05
0.000338118
0.000102152
8.85714e-05
-0.000113452
0.000107823
5.62873e-06
0.000780527
4.35627e-05
-4.55479e-05
-8.48442e-06
6.1392e-05
0.000519951
-0.000581343
7.41315e-06
0.000284063
-0.000370187
0.000128706
-0.000266237
-0.000399643
1.44447e-05
0.000258566
-0.000258187
-0.000861185
-0.000485608
0.000709808
-0.000461159
0.000596956
9.99318e-05
-0.000575404
0.000174883
0.000624449
-0.000639676
0.000773243
-0.000262947
0.000108743
-0.000120768
-0.000126955
-7.16057e-05
0.000148726
0.000124151
0.00021418
-0.000224634
0.000602553
-0.000582034
-0.000323604
-0.000458913
0.000167893
0.000330458
-0.000577265
-0.000227936
0.000256114
-0.000439054
0.000287184
-0.000282935
0.000434805
-0.000137717
9.46653e-05
0.000197777
0.000273603
0.000398897
-0.000240276
0.00115362
0.000175254
0.000491022
-0.000519852
6.68937e-05
6.21238e-05
0.000779301
-0.000775017
-0.000163166
0.000158882
0.00070026
0.000204607
-0.00048595
-0.00115805
0.00107548
0.000220236
-0.000702168
-1.5062e-05
5.65999e-05
-2.87494e-05
-1.27885e-05
4.40409e-05
-1.73457e-06
4.75578e-06
-0.000113189
-4.74649e-05
-0.000353909
0.00021292
-0.000379899
2.89243e-06
0.000237479
-0.000621171
0.000684969
0.000745689
-0.000720596
0.000630667
-0.00065576
0.000142739
0.00108369
-0.00092118
-1.83052e-05
2.20157e-05
0.000133709
-1.36766e-06
-2.64414e-05
0.000675226
-0.000129223
2.32668e-05
0.000136609
-0.000276102
-0.000185871
1.09881e-05
9.68348e-05
-0.000463305
0.000539742
-0.000430346
-0.000126184
-5.58724e-05
-9.22226e-05
0.000825867
-0.000378654
-0.00049239
0.000431991
-6.61342e-05
0.000147384
-0.000160016
0.000117926
0.000230851
-7.65151e-05
0.000211965
2.3594e-05
0.0001068
-7.78034e-05
0.000309121
0.000108824
0.000237318
1.81445e-06
8.67126e-05
0.000690451
0.000661431
-0.000795649
-8.32146e-05
-0.000438141
-0.000674345
0.000622763
-0.000211907
7.36457e-05
0.000766711
-0.000702988
0.000378116
4.85556e-05
-4.03072e-05
-1.29899e-05
-4.292e-05
4.72553e-05
0.000486686
-3.60993e-05
0.000638653
-0.000121447
-0.000644081
5.87883e-05
-0.000171686
-0.000393497
-0.000201117
-0.000145616
-1.2311e-05
0.000851915
-9.55283e-05
-0.000563722
0.000517607
2.34357e-06
0.000509273
0.000625023
-4.51903e-05
-0.000137664
-0.000959869
-0.000278208
0.000339179
-0.000425396
-2.29728e-05
1.4227e-05
-3.43641e-05
0.000117235
0.00022828
0.000101477
-7.546e-05
-0.000148358
3.11233e-05
0.000255406
0.000505884
8.36589e-05
0.000233774
0.000981321
-0.000926809
0.000591026
-1.53216e-05
-1.12164e-05
2.55111e-05
7.87353e-05
0.00106876
-8.74341e-05
-2.91455e-05
0.000730914
0.000177255
-9.5886e-05
0.000131192
-0.00018696
-0.000162989
-0.000407367
-0.000858545
-6.82642e-05
-5.76649e-05
6.58279e-05
9.87581e-06
-1.80388e-05
-0.000250541
0.000373059
-0.000119342
-3.17631e-06
3.40262e-05
0.000183046
-0.000706596
-2.91061e-05
0.000183877
-4.76962e-05
8.34731e-05
-3.57769e-05
-0.00028761
8.00872e-05
0.000220614
0.000217782
0.000271492
0.000802442
-1.93023e-05
-2.8394e-05
1.42707e-05
-1.82627e-06
-1.24444e-05
-0.000275494
-0.000285863
0.000354662
-6.87986e-05
-0.000120603
0.000269338
1.77407e-05
-3.47002e-06
0.00110265
0.000224105
-0.000170623
-5.34822e-05
-4.14795e-05
-0.000528128
3.09857e-05
-0.00042336
-2.11286e-05
-6.48127e-05
0.000703465
-9.9276e-05
0.00116803
4.72681e-06
0.00051288
-6.17579e-05
0.000138806
-0.000110707
0.000270972
8.12058e-05
-7.05163e-05
-0.000679002
0.000668313
-0.000433146
-0.000195297
-3.1717e-05
-0.000696368
-6.76153e-05
-0.000665925
0.000171312
0.000612372
-8.08243e-05
8.06785e-05
0.000790762
-0.000412115
5.56915e-05
-4.20545e-05
-7.58595e-05
-0.000596558
-0.000499195
4.05649e-05
3.41448e-06
-0.000709737
-2.5502e-05
0.000581398
0.000328206
-0.000333073
-3.81818e-05
2.052e-05
-2.29338e-05
4.20803e-05
-0.000141844
0.000183423
-0.000445389
-0.000136012
-0.000118236
8.40939e-05
-5.99651e-05
-0.000330804
0.000376354
0.00012272
0.000169033
-3.94676e-05
6.55881e-05
8.76422e-05
-5.53385e-05
4.77835e-05
0.000267629
-7.99388e-06
-4.18534e-05
0.000856497
-0.000118868
0.000436412
-0.00079087
1.97591e-05
4.3979e-05
-0.000515428
0.000489834
-0.000419842
3.78117e-05
0.000551393
-0.000231362
0.000275072
-9.08956e-06
-0.00106513
0.000180354
-1.19112e-05
-0.000266037
0.000238574
-0.000187388
4.69583e-05
0.000714878
-2.75656e-05
5.57874e-05
-7.24339e-06
1.46642e-05
0.000120419
-7.48361e-05
8.48544e-05
-7.33658e-05
4.78322e-05
-3.14433e-05
0.000318975
-4.46573e-05
0.000764263
0.000283468
-0.000796331
6.37778e-05
8.4482e-05
-7.05802e-05
-0.000766916
-0.000109313
-0.000115417
-0.00023967
0.000182342
0.00013358
-9.24749e-05
0.000284644
4.86283e-05
8.40374e-06
5.02022e-05
-5.25614e-05
3.086e-05
4.21553e-05
-0.000538955
-6.19583e-05
4.20032e-05
-8.21281e-05
0.000884002
0.0010239
0.000116065
0.000833477
-0.000124244
3.27525e-05
-1.46935e-05
8.0919e-06
6.60159e-06
-0.000172895
0.000181079
-0.000678777
0.000604267
0.000619317
0.000112008
-0.000105851
-0.000412151
1.62212e-06
0.000319678
1.87448e-05
0.000125553
-0.00125387
-0.000741144
0.000983563
-0.000415592
0.000483687
2.26536e-05
-0.000698425
-0.000420464
0.000228406
-0.000206349
-0.000425201
-0.000403607
8.98948e-05
3.04723e-06
1.91783e-05
3.24942e-05
-3.19133e-05
-0.000399968
0.000156979
-0.000323964
3.03323e-05
-2.8745e-05
3.49818e-06
0.000210741
4.49314e-05
4.82095e-06
5.21977e-05
9.5817e-05
-0.00025859
2.14836e-05
0.000115802
-0.000689734
-0.000233641
0.00061129
7.02185e-05
0.000734569
-4.00489e-07
-0.000276959
0.000649526
-0.000602904
-7.28345e-06
1.14678e-05
-0.000237727
0.000110674
-0.00112556
9.30599e-05
-6.44234e-05
-0.000704418
0.000164118
0.000604723
-4.2888e-05
0.000877744
-0.000215461
0.000178719
0.000235157
-0.000506425
0.000131449
-0.000581885
0.000528819
-3.14983e-05
-0.000200449
-0.000294319
0.000385171
-4.50696e-05
-0.000492774
7.281e-05
0.000645079
1.27562e-05
-1.56413e-05
-0.000107815
-5.81824e-05
4.92373e-05
0.000259499
0.000515841
-7.94295e-05
-0.000679493
-0.000111376
4.41168e-05
0.000321352
-0.000106106
0.000350827
0.000448376
3.90336e-05
-0.000136534
-0.000436513
0.000307263
5.64323e-05
0.00016159
7.3095e-05
-0.000349735
3.06738e-06
-1.17885e-05
3.68502e-05
-2.47909e-05
0.000426313
-0.000574742
-8.52118e-05
0.000320528
1.51498e-05
-2.60146e-05
-0.000608808
-3.68691e-05
0.000602789
-2.94828e-05
0.000194062
-0.000914031
0.00101961
-5.93054e-05
0.000112195
2.09306e-05
-5.71343e-05
0.000151734
-0.000176804
-0.000119733
0.000361303
2.14757e-06
5.16545e-05
4.92288e-05
1.60972e-05
-0.000278012
0.000181093
-0.000173946
0.000270865
-0.000330184
4.75e-05
-3.59474e-05
3.44271e-05
-0.000400187
-0.000427709
-0.000506799
0.000656497
-0.000179318
-0.000249901
-8.62644e-05
0.00063527
4.63154e-05
-0.000595321
-0.000127059
-0.000151908
0.000141973
0.000136994
4.45624e-05
1.99603e-05
-3.65613e-05
-0.00061538
0.000587019
-0.000196214
-0.000398553
0.000480624
-0.000547227
-0.000516314
0.000430752
0.000134797
-6.78322e-05
-0.000380793
0.000142092
-0.000250002
3.17766e-05
-2.15011e-05
0.00081953
-5.92067e-05
-0.000688697
-0.000661849
-0.000346823
0.000789049
2.10356e-05
-0.00053136
-2.21055e-05
7.47951e-05
-0.000361269
-0.000314243
0.000528842
-0.000360936
0.000238652
0.000801508
-0.00068802
-0.000113488
-0.000472305
0.000488176
-1.58709e-05
-0.000432878
0.000396141
-0.000374996
-2.11446e-05
0.000911583
0.000475184
-0.000395289
0.000399033
-3.74349e-06
0.000443622
4.83332e-05
0.000457449
-5.84162e-05
-0.000629755
0.00101997
0.000510837
0.000610207
-0.000582929
-2.72783e-05
0.000524292
0.000450395
0.000430632
1.97629e-05
0.000519445
4.84684e-06
0.000423062
7.56966e-06
0.00044096
-1.78982e-05
0.000462123
-7.76721e-06
0.000921232
0.000364119
-2.53412e-06
5.91502e-05
-4.59898e-05
-0.000181717
3.57079e-05
-6.7643e-06
-0.000100453
0.000804975
-0.000129411
-5.18211e-05
0.000142126
0.000505141
-4.39073e-07
0.000685598
9.17725e-05
0.000124937
-0.000175039
0.000307372
1.86914e-05
5.8568e-05
7.21654e-05
0.000630349
-0.000629955
-2.89284e-05
0.000385317
0.000313931
-9.93187e-05
-4.65563e-06
1.2589e-05
-9.05967e-05
-6.62348e-05
-0.000246088
0.000466944
0.000870349
-0.000353288
0.000149385
-3.4174e-05
-3.11206e-05
-5.63184e-05
-0.000122247
0.000861395
-0.00112575
9.62968e-05
0.000243449
-0.000130428
0.000887195
2.59032e-05
0.000236007
-0.0011491
-1.27248e-05
-6.6881e-05
-4.02488e-05
-1.49204e-05
3.62627e-06
1.06225e-05
0.000293426
-0.000537955
-2.25527e-05
-0.000120896
7.01652e-05
-2.34733e-05
0.000171275
9.63463e-05
-0.000207581
0.000156532
-8.51861e-05
-9.46143e-05
4.66476e-05
6.7352e-05
-0.000445693
-0.000106924
0.000405772
-0.000368719
0.000398465
-0.000340693
-0.000113361
-0.000187177
1.64765e-05
2.08137e-05
0.000144684
-3.89839e-05
1.29379e-05
-0.000446063
0.000448657
7.10544e-05
-0.000119861
-2.22839e-05
-8.76591e-06
4.11027e-06
0.000269384
-0.000665615
-4.39036e-06
-0.000536754
0.000105815
0.000291658
-0.000413149
-4.53582e-05
-2.00514e-05
2.04918e-05
0.000171733
-0.000239873
-7.41696e-05
-0.000562582
3.93166e-05
-0.000163047
0.000674427
2.77485e-05
5.38231e-05
-0.000173638
0.00065841
-0.000289717
0.000176964
2.51804e-05
4.13459e-05
-1.65078e-05
0.000130025
-0.000160463
-0.000245102
8.2803e-06
-0.000113981
0.000137346
-1.15281e-05
-3.632e-06
-0.000298269
9.34664e-05
-9.34688e-05
9.46676e-05
-0.000616513
-9.86855e-05
0.000196125
4.83546e-05
9.72813e-05
-0.000227166
-0.000206452
0.000729169
2.64179e-05
3.12566e-05
0.000166638
-2.51533e-05
-4.31744e-05
-0.000185726
0.000460438
-0.000393864
-0.000140668
0.000449972
-0.000155867
5.08513e-05
0.000122255
-8.05594e-05
-0.000164062
0.000462963
-0.000493698
0.000199426
-0.00125082