/*--------------------------------*- C++ -*----------------------------------*\
| =========                 |                                                 |
| \\      /  F ield         | OpenFOAM: The Open Source CFD Toolbox           |
|  \\    /   O peration     | Version:  v1912                                 |
|   \\  /    A nd           | Website:  www.openfoam.com                      |
|    \\/     M anipulation  |                                                 |
\*---------------------------------------------------------------------------*/
FoamFile
{
    version     2.0;
    format      ascii;
    class       surfaceScalarField;
    location    "0.07";
    object      phi;
}
// * * * * * * * * * * * * * * * * * * * * * * * * * * * * * * * * * * * * * //

dimensions      [0 3 -1 0 0 0 0];
oriented        oriented;


internalField   nonuniform List<scalar> 
2708
(
-8.36628e-06
0.000244546
4.02911e-06
-0.000240209
-5.56292e-05
0.000113241
8.24225e-05
-0.000140034
0.000468126
0.000289946
-0.000547091
-0.000210981
-0.000323162
0.000174252
-1.29482e-05
0.000161858
-7.49635e-05
3.72766e-05
0.000252468
-0.000214781
0.000141804
0.000154934
-8.24721e-05
-0.000214266
0.000133785
-0.000116672
0.000675385
-0.000783724
0.000969796
-0.000861456
0.000153903
0.000515708
-0.000595572
-7.40385e-05
0.000186206
0.000326418
-0.000347121
-0.000165502
0.000284633
8.91476e-05
-5.66748e-05
-0.000317106
4.54198e-06
-2.05869e-05
1.60449e-05
0.000249041
-0.000224106
0.000201551
-0.000226486
0.000661088
-0.000717694
0.000113188
-5.65823e-05
0.00035437
-0.00121975
0.00100555
-0.000140169
-1.41365e-05
-0.000330634
0.00034477
-0.000878668
0.00047542
0.000757619
-8.64101e-05
6.03693e-05
9.84825e-05
-7.24417e-05
-5.31438e-05
1.66982e-05
3.64456e-05
0.000239082
9.32657e-05
-4.77144e-05
0.000247282
9.97816e-05
-6.13207e-06
-0.000340931
-0.000220919
-0.000302035
6.82828e-05
1.64467e-05
0.000137858
-0.000222588
0.000585048
0.000130325
-5.42845e-05
0.000406242
2.74961e-05
-0.000410425
-2.33135e-05
0.000187372
-3.25891e-05
8.4299e-05
-0.000381244
0.000300144
-0.000208514
0.000289615
0.000102097
-5.17346e-05
-0.000768057
-0.00103631
8.13872e-05
0.000952642
2.28177e-06
6.86222e-05
-4.35465e-05
-3.86345e-05
1.35588e-05
-0.000335311
0.000566175
-0.000313896
8.30323e-05
0.000600631
0.00031202
-0.000432075
-0.000480577
0.000367827
0.000199513
-0.00056734
0.000243564
-0.0002001
-4.34647e-05
0.000179715
-0.000147749
-3.19668e-05
-0.000789043
0.000552687
0.000943418
-0.000707061
1.26829e-05
1.54679e-05
-0.000186921
0.000158771
-0.00117805
0.00113557
-4.24039e-05
8.48815e-05
-5.99097e-05
4.74164e-05
-0.000106452
-0.00139181
-2.85734e-05
0.000242339
-5.09885e-05
-0.000102601
-4.74342e-06
0.000158333
-0.000254315
-0.000231183
0.000485499
1.36152e-05
-4.66645e-05
-0.000198213
0.000231263
-4.37144e-06
-6.78756e-06
-0.00013374
0.000144899
0.000413482
-0.000279335
-0.00013287
-1.27695e-06
-0.000467375
-5.58547e-05
0.000342276
0.000180954
0.000189969
0.00104814
-0.000683457
-0.000554653
7.4196e-05
-3.58501e-05
-0.000819526
0.000781181
-0.000418566
0.000927498
-0.00076065
0.000251718
2.87906e-05
-0.00108408
0.00110839
-5.30936e-05
-5.54383e-05
-9.80462e-06
4.94451e-05
1.57978e-05
-0.000404177
0.000269425
0.000320958
-0.000517685
0.000337775
0.000333813
-0.00011457
5.84653e-05
0.000122574
-6.64693e-05
-5.52408e-05
2.35352e-05
8.80666e-05
-5.6361e-05
-0.000858856
0.000213621
0.000832168
-0.000186933
-6.17946e-05
-9.37104e-05
0.000392865
-0.00023736
6.64939e-06
-0.000155261
0.00034509
-0.000196479
-0.000566301
0.000591299
0.000139911
-0.000251921
0.000359291
0.00106187
-0.00108236
0.000210457
0.000260841
3.37881e-05
-0.000189246
-0.000105383
0.000825311
-0.000918697
-0.000695658
-0.000430942
0.000475529
0.00102046
-0.00106504
0.000820875
-0.000178471
-2.9169e-05
-0.000613235
5.95257e-05
-6.96728e-05
6.81635e-05
-5.80164e-05
0.000282608
2.7488e-05
0.000122199
-0.000323089
0.000229577
-2.8688e-05
-0.000631949
0.00104437
-0.000738657
0.000326237
0.00025718
0.000175344
0.000211862
2.44007e-05
-0.00018002
-5.62431e-05
-0.000290924
3.87298e-05
-1.94683e-05
0.000271663
0.000116271
0.000251556
-3.14698e-05
-0.000255441
0.000293484
-6.5733e-06
0.000218741
0.000215419
-0.000144215
0.000984369
3.54738e-05
-0.0010316
1.17527e-05
0.000148858
-0.00029428
-9.25052e-05
0.000237927
-0.000960267
0.000933346
-0.000404021
1.46854e-05
-4.51047e-05
-1.03275e-05
4.07468e-05
0.000205675
-4.77875e-05
-0.000103353
-5.45346e-05
0.000506828
-0.000587379
0.000402164
-0.000321613
-0.000227309
-9.25916e-05
0.000211863
0.000108037
-0.00031701
0.000330111
-8.92257e-05
7.61245e-05
-0.00040912
9.6931e-05
0.000398137
-8.59481e-05
-0.000230746
-0.000111183
0.000233354
0.000108576
0.000496737
0.000141951
-5.36398e-05
-6.75077e-05
0.000118043
-0.000280196
0.000229661
-8.02759e-05
6.90507e-05
-6.15564e-05
7.27816e-05
-0.000379539
0.000257451
-0.000108658
-0.000399012
-1.3998e-05
3.89042e-06
0.00112679
-4.95288e-06
1.37322e-05
-4.72084e-06
1.68171e-05
1.85936e-05
-3.06899e-05
0.000221441
-0.000402787
0.000321257
-1.72574e-06
-0.00029523
6.03202e-06
-0.000141038
-0.00101222
0.00104161
0.000111649
0.000299841
0.00018334
-0.000322477
-0.000160704
-0.00061474
-0.000139138
-0.00025089
0.000210951
0.000162138
5.66719e-05
-0.00109219
0.00109391
-5.83912e-05
-0.000353363
0.000385384
-1.39882e-05
-1.80323e-05
0.000333538
-4.59653e-05
0.000102685
-0.000390258
0.000243544
7.49572e-05
-3.81433e-05
-0.000280358
9.33127e-05
-6.58943e-05
1.31856e-05
-4.0604e-05
0.0010539
-0.00148158
0.00017441
0.000253268
0.000229532
-8.25683e-05
5.16406e-05
-0.000198604
0.000171125
-8.46018e-05
-0.000623828
-7.14857e-05
-0.000167388
0.000244429
-5.55502e-06
6.14339e-05
0.000201013
-0.000295684
3.32374e-05
4.71843e-05
8.39415e-05
-7.16001e-05
0.00082584
-0.000545358
0.00012183
-0.000402311
-0.000107254
0.000324928
4.31665e-05
-5.07511e-05
3.05894e-05
0.000263705
3.60405e-05
-2.04163e-05
0.000317914
4.34024e-06
-0.000128462
3.77113e-05
-0.000297272
-0.000758265
0.000317022
0.000738515
0.00039962
0.000146128
-4.90113e-05
0.000305559
0.000307437
-0.00114
0.00114992
0.0001289
-0.000138822
-0.000179777
-0.000331259
-0.000217267
-0.000248705
0.000428688
0.000194013
-0.000512523
-0.000110178
-0.00100109
-0.00063835
0.00105914
0.000580306
6.40512e-05
1.61554e-05
4.31416e-05
-0.000123348
0.000142356
-4.06775e-05
0.000297941
-0.000285195
0.00016157
0.000162355
-5.07382e-06
-0.000223352
0.00028605
-5.76243e-05
0.000825364
-0.00104615
0.00035961
-0.000138822
0.000140069
-9.98523e-05
-8.51692e-05
4.49529e-05
-0.000171488
4.74188e-05
-9.55128e-05
-0.000770512
0.000866025
-0.000301951
-5.72455e-05
5.83284e-06
-3.8351e-05
7.62314e-05
-0.000436892
-4.11567e-05
5.19052e-07
-0.000338901
0.000230867
6.29104e-05
-8.19146e-05
-2.63272e-05
3.092e-05
-6.64556e-05
6.18628e-05
8.33568e-05
-7.34089e-05
-0.000280041
0.000270093
-0.000215242
-1.04092e-05
5.41634e-05
-0.000344356
3.73952e-05
0.000323895
-1.69338e-05
0.000249396
-7.15787e-05
-0.000216168
0.000907622
-2.25547e-05
-0.000772619
-0.000112449
7.02229e-05
0.00083443
2.2845e-05
-0.000810056
-6.53671e-05
0.000864294
-0.00103347
-0.000265546
0.000434724
-0.00017827
-0.00100641
0.00120793
-2.32448e-05
-2.27628e-05
3.70523e-05
-0.000102231
6.8839e-05
0.000264259
-0.000805337
0.000728096
-0.000225117
0.000302359
0.00128083
7.68419e-05
-0.000318395
-0.00103928
-6.70293e-05
0.000864601
2.33036e-05
-0.000439009
0.000659956
-0.000313973
9.30271e-05
-0.000104896
0.000310571
0.000109271
-7.54833e-05
-0.00028431
-2.61122e-06
-0.000935923
-0.000382757
0.000358412
-6.63913e-05
-0.000216178
-1.93817e-05
0.000881872
0.000229611
-0.000285644
-0.000280022
0.000851862
-0.000853179
0.00028134
8.699e-06
0.00013135
-7.96799e-05
-0.000315494
0.000306528
2.90828e-05
0.000409007
-5.27063e-05
-0.000101538
0.000202763
-0.000151976
0.000129407
-0.000340117
-4.08979e-05
5.68743e-05
4.54575e-05
0.000289522
-0.000139566
4.34623e-05
-9.2616e-06
2.24456e-05
-0.000354736
0.000443609
-0.000146118
-0.000730284
0.000258463
0.000614177
-3.47323e-05
0.000318396
-0.0002978
0.000232641
-0.00039445
-0.000301965
0.000463774
1.78853e-05
0.000235207
-0.000885042
-3.14318e-05
0.00092758
1.14743e-05
0.000175116
-0.000180698
5.5823e-06
6.62855e-05
-0.000107442
0.00109235
-0.00126861
-0.000140354
0.000316614
-0.000131893
2.33266e-05
6.50201e-05
-0.000752684
-0.000498172
0.000823512
0.000427344
-9.2517e-05
0.00105275
-0.000952993
-7.24112e-06
-0.000443873
0.00116373
0.000208056
-0.000927913
0.00026351
-0.000899025
0.000847917
-0.000212402
0.000361535
-0.000306666
-0.000162122
-0.000337264
0.000250318
0.000951241
-0.000801879
0.000747636
-0.000225779
0.000662482
-0.000532455
-3.19372e-05
0.000574469
-0.000542013
-1.68256e-05
0.00013669
-0.000337275
-0.000914075
0.000315427
1.07351e-05
0.000208691
-0.000304821
8.5395e-05
-0.00116264
0.000714699
-0.000198027
0.000645967
-0.000334475
0.00102857
-0.000901698
-0.000158302
0.000666695
-0.000219588
0.000229357
-0.000676464
-0.000242801
0.000215397
0.00117733
2.22406e-05
8.25457e-06
0.00102341
0.000238504
0.000694183
-0.000779987
-0.0001527
-0.000108363
-8.08834e-05
-3.95235e-05
-2.33869e-05
-0.00019294
0.000273129
-8.0189e-05
-0.000214639
-0.000842372
0.000251674
-3.77178e-05
1.41788e-05
-2.74495e-05
-0.000206808
-0.000246205
-0.000150609
0.000123121
3.48953e-05
0.00102958
-8.25175e-05
-0.000981954
3.59958e-05
0.000290278
-0.000275858
-5.0415e-05
-6.64439e-05
0.00106329
-0.000656784
-0.000267468
0.000712715
1.76776e-05
-0.000908662
0.000125425
0.000419088
-0.000115825
0.000983464
0.000145229
-0.000156725
-0.000971969
0.000160608
-0.000104683
-0.000149636
0.000129023
-0.000217209
-6.70758e-05
0.000338669
0.000851922
-0.000308718
-0.000179714
-5.35307e-05
0.00024398
-1.44041e-05
0.000112939
9.07859e-05
-0.000189321
0.000368092
-9.04836e-05
0.000587319
-0.000864927
0.000350463
-0.000124143
0.000518287
0.00123807
-0.000378246
-0.000168845
0.000812602
-0.000886582
-1.65032e-05
-0.00101122
-0.000837598
0.000580206
0.000605044
-0.000694258
-9.61992e-05
-0.000959412
0.000146721
0.000925879
0.00055383
-0.000331379
5.58166e-05
0.000261564
-0.000158715
0.000218814
0.000197352
0.00102517
0.000193609
-0.000601692
0.0010515
-0.00123353
-0.000469719
-0.000916611
0.000784637
-0.000613595
0.000856591
-4.73792e-05
-0.00100893
4.98972e-05
-0.000399855
-2.4989e-05
0.000416478
-0.000943128
0.000668098
-6.22455e-05
-0.000438552
0.000249716
-0.00032639
0.000515226
-0.00111711
-2.82247e-05
0.00107889
-0.00024739
0.00025688
-0.000472513
-0.000107505
0.000155055
0.000424962
-0.00114215
0.000804825
-0.000248076
7.27171e-05
-0.000108951
-0.000190737
0.000109398
-0.000166737
0.000761571
7.76406e-05
0.000119104
-0.000839665
0.000255509
-0.000965442
-0.000200816
0.00113622
3.00366e-05
0.000137243
-9.40473e-05
0.000192016
-0.000190872
0.000550552
0.000557747
-0.000869795
0.000524152
-0.000394708
-0.000966483
0.000989424
-2.29409e-05
-4.79474e-05
4.51333e-05
2.8141e-06
9.9284e-05
6.33701e-05
-0.000601206
-0.00105149
-2.7856e-05
0.00107935
-0.00100685
0.00101863
-1.17754e-05
-0.000937692
-4.32341e-05
-0.000473574
0.000159922
-3.07051e-05
0.000289647
-0.000885565
-0.000991265
0.00013395
-0.00104688
0.00117578
0.000903752
-0.000119441
-0.000772154
-0.000262093
0.000750166
0.000284081
-0.000287474
1.76326e-05
0.000439333
-0.000169492
0.000962272
0.000171091
0.000345997
-0.000978117
0.000170349
-0.000157674
0.000193248
-0.00102464
-3.27127e-05
-0.00090498
0.0010913
-0.000572257
-0.000247977
-2.56449e-05
0.000259634
-2.17956e-05
6.98024e-07
2.56396e-05
1.08523e-05
-1.49329e-05
4.70492e-05
-4.29686e-05
-0.000448248
-0.00011614
4.02672e-06
-0.000779376
0.000328565
-0.000311285
0.000232436
4.30267e-06
0.000104459
-0.000123166
-0.000217479
-2.46652e-05
-0.00100342
-0.00050813
-0.000754267
0.000488195
0.000774202
-0.00089853
-0.00105942
-8.74467e-05
4.94098e-05
0.00109746
0.000553463
3.28633e-05
0.00115092
-1.35392e-05
-0.00117024
-0.000751655
-0.000509159
-0.000108258
4.3991e-05
-0.00013471
0.000198977
0.000893558
-0.000971048
-0.000533009
0.000369421
0.00113464
2.20755e-05
-0.000315074
-4.14769e-05
0.00035323
-0.000924418
0.000834699
0.000145594
0.000462562
-0.000508872
-0.000350142
0.000320475
-0.00134998
-1.45228e-05
0.000186598
-5.65441e-05
-0.000234951
0.000193803
0.000828633
3.63545e-05
-0.00105879
-6.37397e-05
0.000316938
0.000161307
-0.000332651
0.000383116
-0.000267107
-1.7428e-05
-1.52075e-05
1.66486e-05
1.80555e-05
0.000868223
0.000143118
-0.000209069
0.000207608
-0.000141657
-9.3712e-05
0.000346998
-0.000173583
0.00013121
-0.000217342
0.000328916
0.000205364
-4.73236e-05
-0.000350984
-4.99399e-05
9.67697e-05
-0.000122848
-7.30627e-05
9.91406e-05
0.000364624
-0.000991588
-0.000121662
-0.00015436
4.96344e-05
0.000574234
-3.9654e-06
-4.06649e-05
-9.85492e-06
1.86772e-05
-0.000283156
0.000301874
0.000140682
-0.000128644
0.000316528
-0.000114566
0.000288531
0.000138831
-0.000312796
-0.00012466
-0.000254393
0.000408948
0.000931552
-0.000407154
0.000319577
0.00010774
-7.77124e-05
-0.000349604
0.00108736
0.000261237
0.000380152
-0.00032486
-0.00031653
0.000156168
-0.00011843
0.00014191
-0.000179648
-0.000255616
0.000256585
-0.000312254
7.95353e-06
-0.000171909
0.000372646
-4.34444e-05
-0.000467942
0.000403882
6.06778e-05
1.19078e-05
-8.18472e-05
-1.38711e-05
4.13138e-05
-1.41366e-06
5.22868e-05
-0.000248364
-0.000123002
0.000164906
0.000206459
0.00118538
-0.000900036
-0.000136294
-5.94405e-05
0.000134241
-0.00011471
-0.000128571
-0.000516407
0.000759688
0.000158944
-0.000290651
0.000131707
0.000103126
-0.000918462
-7.12461e-05
-0.000112425
0.000135279
-2.2854e-05
-2.18663e-05
3.64349e-05
-1.45686e-05
-1.61543e-06
9.06199e-06
-7.44656e-06
-8.61599e-05
8.7356e-05
-1.19617e-06
-4.87038e-05
-1.65798e-06
5.03618e-05
3.76756e-05
-9.69585e-06
-2.79798e-05
-3.19756e-05
2.57755e-05
6.20006e-06
-1.28041e-05
-1.45993e-06
1.4264e-05
-3.68833e-05
-4.92765e-05
-4.41631e-05
-4.54069e-06
5.03832e-05
0.000108561
-3.93795e-05
-8.71333e-06
4.80929e-05
0.000165889
-0.000146447
-1.94416e-05
-4.93611e-05
-2.18549e-05
9.05084e-06
-3.66964e-05
-5.90685e-05
8.92653e-05
-3.01968e-05
-9.5035e-06
-1.23628e-05
-9.70286e-05
-1.53969e-05
4.10865e-05
4.04685e-06
-4.14114e-06
4.55325e-05
-4.13914e-05
4.01387e-05
-9.07468e-05
0.000109036
-5.84275e-05
0.000457446
0.000310619
-8.53054e-05
-1.21847e-05
4.18609e-05
-0.000518636
-8.29658e-05
-0.00011206
0.000111348
-0.000235679
1.60732e-05
-3.8277e-05
2.35182e-05
0.000127698
0.000168479
-0.000279444
0.000491117
2.05968e-05
-0.000336378
-0.000637212
-0.000338262
0.00038693
0.00106244
-0.000135944
9.65646e-05
6.55595e-05
-9.45762e-06
-5.61019e-05
-9.67252e-06
-1.11189e-05
-6.48749e-06
-2.5996e-05
4.39007e-06
9.94832e-05
-5.39507e-05
4.89233e-05
1.70622e-05
-2.26335e-05
0.000170196
-3.49163e-05
-0.000334189
-0.00021815
0.00029728
0.000255059
0.00103947
-0.00026662
-0.000229619
1.67316e-05
7.7805e-05
-6.44444e-05
-3.00922e-05
-1.63776e-05
3.6568e-05
0.000918525
-0.000927116
8.95487e-05
-8.09574e-05
-4.54688e-06
0.000268249
-7.25931e-05
-0.000191109
6.44668e-05
0.000101422
0.000312467
-0.00045783
-0.000179497
9.79906e-06
4.53019e-05
-0.000310518
4.83372e-06
0.000306331
-6.46775e-07
0.00111927
-0.00014741
-1.80822e-05
7.28036e-05
4.20483e-05
0.000282608
-0.000762338
0.000673533
-1.56858e-05
1.43522e-05
0.000200466
0.000425459
0.000157899
-0.000374761
0.000735148
5.25089e-05
-3.83411e-05
4.2706e-05
0.000275889
0.000760038
-0.00048324
-6.83861e-05
9.27606e-05
0.000625693
-0.00041757
-0.000208123
0.000528762
-0.000437155
0.00015365
-0.000245257
-0.000481228
-0.000171385
0.000365139
-3.55407e-05
2.54779e-05
3.93751e-05
-2.93124e-05
2.44958e-05
-0.000171685
0.000189519
6.71679e-05
-8.90076e-05
0.000226123
-0.000204284
-9.31202e-05
0.000446283
-0.000323849
-2.93141e-05
-0.000389358
0.000245443
-0.000471381
0.000615295
0.000167477
6.27077e-07
-0.000100937
-3.32369e-05
-1.31851e-06
0.000563317
-0.000181174
-0.00033508
0.000126896
0.000317173
-0.00032256
0.000188792
-0.000183406
-0.000153575
0.000170226
0.000350545
-0.000609172
8.84011e-05
5.02782e-05
-0.000431547
0.000233627
0.000443364
5.68116e-05
-0.000197693
-0.000202948
0.000123469
0.000277172
0.000185657
-0.000124905
0.00051585
8.9569e-05
-0.000307546
-0.000297873
0.000296881
-0.000364011
-2.18774e-05
0.000376507
0.000190233
-0.000249566
4.78987e-05
-0.000184459
-0.00033482
-0.000147058
0.00024231
-0.000223633
-0.000100539
0.000279353
-0.000164333
0.000254026
-0.000204485
-0.000362558
0.000567044
-0.00018544
-0.000266061
9.0638e-05
0.000360862
-0.000333431
0.000202545
-5.45542e-05
-0.000216473
-0.00041956
8.87951e-05
-8.34069e-05
-5.38817e-06
0.0002942
-0.000540286
4.31382e-05
0.000293175
0.000124494
0.000317992
-0.000105062
-0.00030605
0.000191638
-0.000214375
-0.000310694
0.000205812
7.44786e-05
0.000165993
4.68196e-06
-1.7297e-05
0.000238739
-0.000174056
0.000190984
0.000188884
0.000275875
-0.000173861
0.000215977
-0.000270463
0.000187579
-2.21777e-05
0.000176298
0.000129594
-1.69991e-05
8.06591e-05
-0.000127881
8.4664e-05
-3.74425e-05
-3.82633e-05
2.02739e-05
1.79894e-05
1.03626e-05
-0.000110005
0.00010693
-0.000196258
0.000157611
0.000116367
-4.85551e-06
1.74974e-05
-1.2563e-05
0.000111433
1.71842e-05
-0.00011986
-0.000188127
-2.62023e-05
-8.49215e-05
0.000130382
6.14689e-05
5.76298e-05
-7.5673e-05
0.000525381
-0.000369352
-4.08219e-05
3.69136e-05
-3.94478e-05
4.3356e-05
5.3396e-05
-1.57882e-05
0.000788129
-0.000162436
9.97251e-07
-4.07056e-05
-4.52131e-05
6.59129e-05
1.71948e-05
-0.000435144
0.000742375
0.00101198
-0.000687088
0.000736122
-0.00106115
0.00103973
2.27454e-05
0.000104699
-0.000127445
0.000194905
-4.34952e-05
2.80314e-05
-2.5358e-05
-0.000108027
0.000896157
-0.00111171
-0.000896037
4.34531e-05
-0.000115472
-8.37681e-05
-0.000115022
-8.02383e-05
0.000302598
1.29099e-05
-0.000290516
-2.49917e-05
-2.61489e-05
3.07552e-05
-0.000272841
0.000268234
0.000197054
-0.000108259
-0.000165505
-6.87572e-05
3.04939e-05
5.21507e-05
3.09712e-05
-4.37467e-05
-0.000542767
0.00104895
0.000236196
3.59422e-05
2.01325e-05
-4.5213e-05
-1.84147e-05
-0.000261915
0.000121112
0.000140803
-6.00628e-05
0.000227196
-0.000276844
0.000109711
9.20224e-05
-8.72071e-05
-0.000931932
0.000266449
-0.000327029
5.17322e-07
-0.000144613
-1.11143e-05
0.000392683
0.000177439
-0.000570122
0.000318496
-0.000352296
-0.00028876
0.000295555
0.000521956
-0.000647285
0.000346248
0.000299852
0.000123075
-3.45949e-05
-0.000196739
7.13023e-05
4.67612e-05
-3.75084e-05
1.62573e-05
0.000190185
-0.000201133
4.14423e-05
0.000239669
2.64151e-06
2.87813e-05
0.000210887
-0.000258902
0.000329893
-0.000106225
-4.29573e-05
4.53784e-05
0.00016508
0.00120534
0.000130767
2.97137e-05
-3.09881e-05
9.12286e-05
-0.000162083
4.40815e-05
-0.000109194
-0.000262467
-9.51838e-06
7.46308e-05
1.83248e-05
-1.77473e-05
1.37746e-05
5.27857e-05
1.76252e-05
-5.02785e-05
0.000276937
2.64657e-06
0.000228014
0.000387432
-0.00031483
-0.000300616
-0.000253532
0.000268826
-6.01917e-05
-0.000307904
-0.00013345
-0.000307727
-0.000928069
6.04906e-05
-0.000811532
-0.000307749
-6.38961e-05
-0.000383031
4.65902e-05
-0.000286298
1.492e-05
0.000360358
0.000460941
-0.000505739
-0.000315559
-8.91056e-05
-0.000371373
6.6935e-05
-0.000141357
-0.000366362
0.00034195
0.000753706
-0.000729294
0.000450376
0.00048902
-0.00041744
-0.000404132
-0.000320655
8.22911e-05
-0.000290222
0.000293736
9.39614e-06
-0.000238797
-0.000974223
-1.12341e-05
0.0010077
-0.000296968
0.000113215
2.41012e-05
-0.000106345
-0.000371283
-0.000238102
8.92796e-05
0.000148822
0.00100837
-0.00105077
1.90164e-05
0.000227218
-9.55383e-05
-0.000226248
-0.000175017
-0.000320405
0.000362817
-0.000633967
0.000591555
2.66427e-05
0.000618125
-0.000435353
-0.000158942
0.000248976
-0.000304409
-0.000313412
-0.000202582
0.000642885
-0.000681517
-0.000281773
0.000971365
-0.000644697
-2.63336e-05
4.50201e-05
-3.06522e-05
1.19658e-05
0.000319857
-0.0002772
4.79809e-05
-0.000868435
0.000146817
0.000379198
0.000619438
-0.000688017
0.000468352
0.000328272
-0.000197561
2.51176e-05
0.000172443
0.000274453
-6.06728e-05
-0.000218327
0.000780696
-0.00076786
-6.12693e-06
-9.64202e-06
-7.75737e-05
-0.000159287
-4.71548e-05
-0.000303659
-1.31972e-05
0.000120718
3.46213e-05
-0.000180139
0.000469863
-0.000888787
-4.67876e-05
1.626e-05
-0.000746738
2.57823e-05
0.000559862
-0.000653184
-0.000154141
0.000100357
3.95156e-06
4.98331e-05
-1.63637e-05
-0.000444025
0.000620971
-0.000408556
0.00107599
0.000214372
1.41395e-05
-0.00103477
-9.75372e-05
-6.47146e-05
0.000136924
-6.36711e-05
0.000300082
0.000108679
0.000248431
0.00124961
0.00103215
0.000373731
0.000406116
0.00099546
-0.000601977
1.07258e-05
-4.83841e-07
6.42081e-05
0.000215437
0.000148301
-0.000925591
0.000227505
0.000352422
-4.1851e-05
0.000167975
-0.000354173
-0.000291269
0.000236886
9.69786e-05
8.75383e-05
-0.000384113
-0.000226057
-0.000376051
-2.83942e-05
-0.000308261
0.000201964
2.85613e-05
-0.000206424
-0.000302589
0.00029864
-5.69269e-06
0.00107525
-0.000437999
-0.000869936
0.000232681
-0.000798716
0.000644041
0.000624538
0.000227508
0.000126787
6.56781e-06
3.90297e-05
-2.87953e-05
-0.000326246
-2.52472e-05
-0.000507008
0.000783547
0.000258906
-0.000991249
0.000213029
0.000469032
-0.000560948
1.24399e-05
0.000326133
-0.000309791
0.000403401
-0.000231221
-2.70627e-05
-0.000294897
0.000183007
-0.00015224
-0.000127034
9.62674e-05
-6.27937e-06
4.16567e-05
0.000103741
0.000107066
-0.000112325
-5.46796e-05
9.96889e-05
0.000111159
0.000110354
0.000197187
0.000571192
-0.00016797
0.000125326
0.00022565
2.46774e-05
8.77793e-05
0.000319102
5.85098e-05
-0.000399489
-0.00101883
0.00105531
-0.000282683
-8.37092e-06
-0.000354891
9.57414e-05
7.92255e-05
-7.12262e-05
0.000286183
-0.000111067
-0.000976389
-0.000200744
0.000436216
-0.000294345
0.000146703
0.000772833
0.000142706
0.00100833
-0.00104021
-2.73426e-05
-1.39119e-05
0.000136996
-0.000219074
-0.000451008
0.000328811
1.27622e-05
-2.0828e-05
-0.000320745
-0.000312306
0.00030997
0.000124192
-0.000206654
0.000100904
-0.000549862
0.00040694
-0.000492779
0.000464381
1.06374e-05
2.63353e-05
-6.97815e-05
0.000121664
-3.23877e-05
-1.56493e-05
0.00044935
-0.000145331
0.000270215
0.000387466
-0.000316424
0.00106402
-0.00139862
0.00054898
0.000138208
2.74039e-05
0.000727288
5.4068e-05
0.000948626
0.000274842
-9.66298e-05
-0.00112684
0.000122833
0.000295887
-0.000331803
0.000244379
0.000132464
-0.000108533
-7.80008e-05
5.40699e-05
7.27991e-05
-0.000117827
0.000115098
-7.0071e-05
2.82724e-05
-3.57492e-05
0.00134408
9.37435e-05
6.17704e-05
3.3248e-05
0.00132629
0.000291365
1.86282e-05
0.000364593
0.000455311
4.17879e-05
8.57679e-05
-0.00103952
7.72418e-05
-2.46719e-05
0.000616707
7.98737e-05
-0.00102838
-0.000844733
-0.00108196
0.00066731
-7.92611e-05
-1.95786e-05
-0.000264358
-8.03611e-05
0.000187848
0.00015687
0.000668431
-8.5721e-05
-0.000152381
0.000257246
5.49158e-05
4.63996e-05
-8.23436e-06
1.62544e-05
8.38892e-05
9.23968e-05
-0.000203866
-0.000114069
0.000113652
0.000423878
-0.000628928
-0.000344812
0.000816694
3.2443e-05
4.79005e-05
0.000854157
6.9288e-06
0.000420119
-0.000462046
9.1274e-05
-0.000227908
0.00020664
0.000118302
-2.90363e-05
-2.73649e-05
3.74485e-05
0.000851999
0.000241309
-0.000254026
-0.000797696
4.19714e-05
-0.000102569
0.000273218
0.000312328
0.00043541
0.000397533
-0.000285244
0.00108492
-0.000133641
-1.9902e-05
-3.89481e-05
4.30449e-05
-4.27314e-05
4.18682e-05
6.44486e-06
5.78026e-05
-9.72984e-05
0.000248881
1.31697e-05
-0.000106251
-0.000729874
0.000681358
4.85164e-05
-0.000297903
0.000350251
-0.000297604
0.000151483
0.000649782
-0.00013457
0.000885327
0.000248012
-0.000791021
6.11468e-05
4.61376e-05
0.00108216
-7.94616e-05
-0.000961491
0.00102972
-0.000479737
0.000660719
0.000122317
-0.000303298
-0.000278899
-9.38337e-05
0.000124369
5.72778e-05
0.00062408
-0.000191586
0.000284887
0.000186418
-0.00027972
0.000522388
-4.21932e-05
2.78654e-05
-0.00050806
4.39293e-05
3.3594e-05
-7.75233e-05
-3.74533e-05
-2.8739e-05
-6.03118e-05
-2.30088e-05
0.000189298
9.68847e-05
7.52051e-06
3.64088e-05
-3.3157e-05
0.000705396
-0.000715619
-0.000469514
-0.000878909
-0.000103183
0.000175484
-0.000149875
7.49294e-05
-0.000327323
0.000127237
0.000136955
-0.000125039
-0.000192211
0.000373615
-0.000120037
0.000257552
0.000343079
7.75775e-05
-0.000155104
-3.35407e-05
-0.000390272
0.000343292
4.69799e-05
8.19033e-05
-0.000872924
-8.08136e-05
-0.000124125
0.000259284
-0.000114537
-9.08019e-05
0.000836095
-8.21683e-05
0.000135808
-0.000190093
3.00692e-05
0.000135158
0.000181642
-0.000127294
0.000878912
-0.000193567
0.000354124
-0.00096999
0.000656179
0.000640049
-0.00107047
-4.63274e-05
0.000210225
0.000156257
-0.00013981
-0.000646838
0.000656776
0.000387882
-0.000486912
0.000293001
0.000705725
-0.000268753
-0.000301269
-3.82564e-05
0.000259287
-0.000145211
-0.000109105
-0.000615169
0.000745734
-0.00043617
4.58977e-05
6.93883e-05
0.000183971
0.00018653
0.000678445
-1.82043e-05
3.69187e-05
4.54937e-05
-0.000130786
0.00017296
5.40934e-05
0.000438205
-0.000381393
0.000298409
4.48827e-05
0.000270127
-0.000121452
-1.6211e-05
0.000153645
0.000263032
0.000136972
-2.36182e-05
-7.16734e-05
-2.31383e-05
1.67322e-06
-2.5137e-05
0.000107428
-0.000246675
-0.000180947
5.77131e-05
1.70329e-05
6.04302e-05
-0.000334217
0.000142232
-0.000186261
-5.76077e-06
2.94247e-05
-0.000107449
3.44659e-05
-0.000180888
2.13711e-05
0.000133872
-0.000905647
-0.000115439
0.000110696
-0.000105242
-0.000169159
0.00101365
-0.000964938
6.31475e-05
6.15504e-05
0.000215268
8.30185e-05
0.000637932
0.000517404
-0.00109143
1.29763e-05
-5.47119e-06
-0.000204794
0.00065248
-0.000255959
-0.000588732
0.000916923
0.000225283
0.000193874
7.37479e-05
-3.86958e-07
0.000118689
4.42306e-05
0.000266018
-0.00101267
0.000602269
1.56968e-05
6.78668e-05
-1.19308e-05
-4.72369e-05
-1.23006e-05
-0.000235871
2.50594e-06
0.00112602
6.51841e-05
-0.00108601
-0.000453129
0.000579037
2.92802e-05
5.9323e-05
8.2916e-05
-0.000112382
0.000178324
0.000492997
-0.000723565
0.000230568
0.000419871
7.31258e-05
0.000427055
-7.1841e-06
-0.000313245
0.000471144
-0.000688006
-0.000611164
-0.000511364
-9.98002e-05
-1.44228e-05
-0.00065458
-6.48583e-05
2.00044e-05
-0.000941544
-0.000121112
-0.000198559
-0.0003263
-0.000165387
1.10679e-05
-9.03203e-05
-1.19349e-05
-1.19542e-05
-1.57021e-05
1.52935e-05
-2.33494e-05
0.000105625
-9.19479e-05
-0.000124603
-4.71099e-05
-0.000231583
-6.5001e-05
0.000559209
0.000831967
0.000176518
-0.000477438
0.000541905
4.28224e-05
-0.000350549
0.000302255
-0.000338162
-0.00096838
0.000188776
-9.13667e-05
0.000287072
-0.000482582
-2.87819e-05
2.71881e-05
-0.000225617
-0.000284811
0.000200217
3.74862e-05
-8.80234e-05
-4.96673e-05
-0.000252981
0.00014877
-0.000162974
0.000463554
9.90291e-05
-0.00115634
0.00104377
-0.00053406
-6.66279e-05
-9.08581e-06
-0.000198078
0.000273792
5.79905e-05
9.30937e-05
-8.64828e-06
1.77103e-05
-0.000149688
-7.33391e-05
7.57109e-05
-0.00118537
3.35482e-06
0.000691696
-0.000383125
0.000103638
-0.000215754
5.44899e-05
-5.48205e-05
6.58807e-05
-0.000219751
-1.57596e-05
-3.60126e-07
-0.000156627
0.0002281
-0.000239039
-0.000113922
-0.000300299
-2.98689e-05
-0.000563146
-0.000374967
3.22164e-05
0.000114412
-3.60986e-06
0.000370652
-0.000277473
-5.45638e-06
-1.85083e-05
1.20105e-05
0.000800706
8.60762e-05
-7.42754e-05
3.64062e-05
-1.96586e-05
-3.26946e-05
-3.35345e-06
3.67461e-05
-0.000811101
0.00113124
0.000171607
-0.000230806
-9.36136e-05
9.2386e-05
2.21782e-05
1.42022e-05
-1.83884e-05
0.00105181
0.000223964
-3.48629e-07
2.09311e-05
-0.000210283
5.15078e-05
6.59244e-05
0.000102575
-5.3574e-05
-0.000565217
3.89549e-05
0.000637889
0.000200269
-7.98494e-05
0.000154988
0.00109681
6.66566e-05
0.000278018
0.000113124
-0.000243446
-2.69192e-05
-5.01237e-05
-0.000252143
1.45811e-05
5.14912e-05
-5.09994e-05
2.19537e-05
4.84768e-05
1.88123e-05
-0.000237172
-8.8849e-06
-0.00010028
-1.51595e-05
1.02984e-05
2.6754e-05
-0.000968803
0.00101986
-0.000259989
0.000208934
-3.64698e-05
-1.90715e-05
-4.67089e-05
-6.43495e-06
-2.82047e-05
-0.000244012
0.000666089
-0.000672648
3.90212e-05
0.000273673
0.000153255
-0.000716045
0.000165836
0.000269952
-4.74897e-05
-0.00115531
-0.000239272
-0.000121822
0.000280759
2.83276e-05
-0.000153681
-0.00108019
0.000978473
-1.69819e-06
6.87117e-07
0.00100871
-0.000204458
0.000559016
-0.000484872
-7.4144e-05
0.000334282
-5.2795e-05
-9.74253e-05
-0.000182928
-0.00053907
0.000490777
-0.000865002
0.000873975
0.000294006
-0.000110631
0.000224193
-0.000273366
4.91728e-05
-0.000169257
0.000112582
5.49366e-05
-0.00031062
3.7254e-05
6.48676e-05
3.22785e-05
0.000318288
-0.00107532
1.54529e-05
-8.61568e-07
-4.78095e-05
-1.34709e-05
-3.50534e-05
2.65125e-05
-9.50243e-05
-2.02004e-05
0.000115225
1.63951e-05
0.000291641
-0.000213944
6.09279e-07
-0.000309813
-2.08211e-05
0.000271206
-0.000481033
0.000333346
4.22666e-05
-0.000145052
1.61561e-05
-7.03162e-07
3.51075e-05
-9.71753e-05
-9.52316e-05
0.000449978
0.000179253
0.000299691
-4.03038e-05
6.76489e-05
-5.33412e-05
-1.27214e-05
-0.000395795
-0.000301171
0.000405697
-6.64635e-05
-2.85608e-05
3.27595e-05
-1.66034e-05
-2.71695e-05
0.000201422
0.000186682
-0.000149406
-0.00010068
-0.000239344
-9.17805e-05
0.000287741
8.18908e-05
0.000582728
-0.000325782
-0.000224235
-0.000316428
-0.000261258
-4.82273e-05
-1.82362e-05
-4.2982e-05
0.000430255
0.00104475
-5.5386e-05
-0.00101261
-0.000116757
0.000247857
0.000337931
-8.4847e-05
0.00036104
-0.000267493
-7.14078e-05
-0.000256722
4.0554e-05
5.24422e-05
-0.000157523
0.000157174
-0.000231436
0.000204266
-9.36434e-05
0.000280326
0.00141424
-0.00114344
4.65771e-05
-0.000926499
-7.29203e-05
-4.96963e-06
-5.91083e-05
0.000609168
0.000263074
0.000503199
-0.00068167
-0.000177545
9.37237e-05
5.01712e-07
0.000154701
0.000126041
2.40461e-05
-9.30021e-05
-0.00089419
-3.83981e-05
-6.69405e-05
-0.000415291
0.000338472
-0.000824715
0.000590781
0.000922803
-0.000263974
9.4973e-05
-0.000474588
0.000475533
-0.00029085
0.000265257
0.000688643
7.14741e-06
0.000150918
-6.1939e-05
-3.83409e-05
0.000207708
0.000223894
-5.27595e-06
2.48661e-05
-7.23904e-08
-0.000319008
-7.35402e-06
0.000317991
0.000593539
-0.000584062
-4.33212e-05
8.00199e-05
9.50094e-05
0.000115209
0.00027624
0.000147468
8.13808e-05
0.000820711