/*--------------------------------*- C++ -*----------------------------------*\
| =========                 |                                                 |
| \\      /  F ield         | OpenFOAM: The Open Source CFD Toolbox           |
|  \\    /   O peration     | Version:  v1912                                 |
|   \\  /    A nd           | Website:  www.openfoam.com                      |
|    \\/     M anipulation  |                                                 |
\*---------------------------------------------------------------------------*/
FoamFile
{
    version     2.0;
    format      ascii;
    class       surfaceScalarField;
    location    "0.62";
    object      phi;
}
// * * * * * * * * * * * * * * * * * * * * * * * * * * * * * * * * * * * * * //

dimensions      [0 3 -1 0 0 0 0];
oriented        oriented;


internalField   nonuniform List<scalar> 
2776
(
-0.000197548
1.06129e-05
0.000108881
7.80539e-05
-0.00085103
0.000919281
0.000295587
-0.000363838
-0.000339086
-0.00023568
0.000220383
0.000354383
7.68024e-05
5.56176e-06
0.000988948
-0.00107131
-0.000251153
-0.000315138
0.00044164
0.000124651
-0.000116714
-0.000438324
0.000370296
0.000184743
-0.000200135
-6.67458e-05
0.000323181
-5.81074e-05
-0.000515079
0.000250006
0.00100906
0.00088862
-0.000892809
-0.00100487
-0.000937268
0.000743085
-0.000225736
0.000419919
-0.000353216
-0.00118331
0.000535273
0.00100125
0.000421714
0.000174467
-0.000551359
-4.48224e-05
0.000891938
0.000115379
-0.00137615
0.000368836
-0.000161025
-1.44349e-05
-7.56932e-05
0.000113541
-3.81643e-05
-0.000192091
0.000492383
-0.000147097
-0.000698503
-0.000221528
8.58395e-05
0.000257976
-0.000122287
3.01463e-05
-0.000476315
0.000446169
0.000516822
-0.000152898
7.73837e-05
-0.000441307
0.000673817
-3.50912e-05
4.68693e-05
-0.000685596
-0.000692611
3.84217e-05
-2.75201e-05
0.00068171
-4.92338e-07
0.000221782
-0.00032148
0.000100191
0.000577785
2.23411e-05
-2.22968e-05
-0.000577829
0.000631961
4.57713e-05
-2.78757e-05
-0.000649857
0.000309367
-0.000384595
-0.00117696
0.00125219
1.43923e-05
3.52863e-06
2.15786e-05
-3.94996e-05
-0.000240084
6.87947e-06
0.000129108
0.000634997
-0.00072066
-4.34448e-05
0.000128478
-7.86732e-05
0.000137002
-0.000186807
-0.000341894
0.000395253
0.000604866
-0.000658225
0.000579798
-0.000861645
-0.000114336
0.000396183
4.06727e-05
-5.41736e-06
4.75593e-06
-4.00113e-05
5.9509e-05
9.50915e-05
-0.000133102
-2.14989e-05
-0.000362753
0.000329099
-0.000692586
0.00072624
3.39165e-05
9.53364e-06
0.000348831
0.000236039
-0.000106576
-9.85537e-07
-0.000474199
-3.11469e-05
-0.000381393
0.000101653
0.000957588
-0.000230635
-0.000726953
-0.000100501
0.000404813
-0.000304312
-7.34399e-05
0.000376831
-0.000303391
-0.000480273
0.000544424
-6.41515e-05
-0.000486592
0.000480765
5.82644e-06
-0.000196013
-5.46877e-05
0.000250701
-0.000137389
-8.09737e-05
0.000218363
0.000315494
-5.63356e-05
0.000962986
9.013e-05
0.00010049
3.19958e-06
-0.00010369
-0.000266207
0.000308644
-4.24369e-05
-0.000153251
0.000196433
-4.31817e-05
-0.000226498
0.000148104
7.83943e-05
-0.000206158
-0.000644871
-0.000353269
-8.50557e-05
-0.000135728
-0.000179409
0.000152553
-9.30442e-05
-0.00108956
0.00139892
0.000213221
1.66761e-05
-0.000229897
-0.000979803
-0.000203507
1.71004e-05
-0.00011459
9.74893e-05
-0.000793577
-0.000143691
2.51477e-05
-1.84397e-05
1.97225e-05
-2.64304e-05
-0.000208591
0.000184507
-4.93564e-05
-0.000190903
0.000184303
-9.39005e-05
-0.000200252
4.92445e-05
0.000580295
-0.000429287
0.000781986
-0.000677523
-0.000180878
7.64147e-05
0.000175844
-0.000211188
4.30153e-05
-7.67113e-06
0.000251345
2.21522e-06
-4.32569e-05
-0.000210304
-0.000180774
-5.78904e-05
-0.000429182
0.000847701
-0.000849312
6.88038e-05
-6.71926e-05
0.00018484
-0.00028197
-0.000154257
0.000251387
0.000160952
-0.000143559
-8.40191e-06
-8.99033e-06
5.24754e-05
-0.000535355
0.00048288
4.65281e-05
-0.000476697
0.000430169
0.00106175
-0.000453936
-0.000811065
0.000203253
8.94851e-06
-2.6191e-05
4.23902e-05
-0.00060153
-6.66203e-05
0.000289167
0.000378983
-5.91691e-05
-0.000202112
5.26905e-05
-0.000121374
-0.000155478
8.5949e-05
-0.000318203
0.000198783
0.00011942
0.000101391
-0.000375455
0.000330363
-5.6298e-05
-0.000593205
3.23546e-05
-5.52784e-05
0.000616129
-0.000302889
0.000490824
0.000347338
4.93974e-05
0.000241786
-2.7342e-05
-0.000263841
-0.00033651
-6.27498e-05
0.000294421
0.000104838
-0.000529024
1.99753e-05
0.000526286
-1.72372e-05
-3.72472e-05
0.000589642
-0.000577497
2.51022e-05
-0.000638255
0.00104743
-0.000771928
3.736e-05
-1.5116e-05
0.000313554
-0.000335797
0.000761222
-0.000396839
2.64846e-05
2.61873e-05
7.65386e-05
-0.000129211
6.03289e-07
1.1169e-05
2.62006e-06
-0.000237001
6.35983e-05
-6.66807e-05
0.000169906
-0.00072656
0.000633457
0.00015273
5.66758e-05
-7.32874e-05
-0.000136118
-1.68408e-05
-0.000199332
0.000158065
-0.000186533
0.000784226
0.000135055
-1.6817e-05
-8.04933e-05
0.000335131
0.000106509
0.000143798
2.20045e-05
0.000126099
-4.16746e-05
0.000142165
-3.88846e-05
-0.000227322
-0.00051717
3.05788e-05
-4.74192e-05
-0.00046766
-4.46248e-05
-0.000132529
0.000383138
0.000618115
1.56731e-05
-1.179e-05
-1.86695e-05
1.20198e-05
0.000493234
-0.000517359
2.38134e-05
3.12032e-07
7.8478e-05
-0.00013624
6.83753e-05
0.000273563
0.000469522
-8.89026e-06
-8.53837e-05
3.12988e-05
6.29752e-05
0.00042365
-0.000116227
0.000134358
-0.0004247
0.000712056
6.1453e-05
-0.000176334
-8.52544e-05
7.44605e-05
-0.000197429
-0.000111487
-0.00107386
0.000966226
0.000113192
7.17625e-05
8.24653e-05
-0.000153304
-9.23597e-07
-4.07021e-05
8.22029e-05
-8.2813e-05
4.13121e-05
-3.29961e-05
-0.000163017
-4.43846e-05
-9.30045e-05
0.000361538
-0.0001273
-0.000660265
0.000170342
0.000586767
-9.68445e-05
-0.000209251
0.000702418
4.48866e-05
-0.000538053
-0.000286062
0.000813516
5.40539e-05
-0.000581508
-6.13794e-05
5.61955e-06
8.33594e-05
-2.75995e-05
0.000109483
0.000520777
0.00012285
0.000555639
-7.32878e-06
-8.24331e-08
4.22277e-06
3.18845e-06
-0.000302699
-0.000339152
0.000118753
-0.000102202
-0.000131768
-5.81595e-05
-7.81646e-05
0.000715215
1.7058e-05
-0.000654108
0.000627227
2.43606e-05
-1.85511e-05
-0.000633037
0.000506412
-2.55271e-05
3.09784e-05
-0.000511863
0.000220036
-0.000139943
-0.000137856
5.77627e-05
-0.000557168
-9.3319e-05
1.75464e-05
0.000632941
4.55566e-05
4.26319e-06
-9.14707e-06
8.81456e-05
-4.5921e-05
-3.56229e-05
-6.6017e-06
0.000133136
-0.000111268
2.91699e-05
-5.10381e-05
0.000177419
-0.000140851
-1.0084e-05
-2.29908e-06
-5.98789e-06
0.000225014
-0.000413112
0.000483684
-0.000791471
-8.70843e-05
0.000218291
5.11224e-05
-6.24721e-05
-5.49121e-06
-0.000173298
-4.38832e-05
-1.8814e-05
0.000235996
0.000231921
-7.42911e-05
0.0001053
0.000655564
-6.09792e-05
-0.000699884
0.000696286
-0.000590792
-0.000743749
4.14957e-06
1.31387e-05
5.95563e-06
-2.32439e-05
-0.000737238
0.00023579
0.000479653
2.17951e-05
-5.68446e-06
-2.73085e-06
5.39719e-05
-0.000603845
0.000183814
0.000521421
-0.000269539
0.000232292
0.000494515
-0.000718896
-0.000164392
0.000388773
-4.01813e-05
0.000116901
-0.000342148
0.000265428
8.75187e-05
-0.000384653
0.000683233
-0.000639904
7.95216e-05
0.000542153
-0.00050525
7.25792e-05
0.000632006
-0.000533348
-7.88893e-05
-1.97688e-05
9.80626e-05
0.00153341
-0.00120568
-0.000425795
0.000590215
-0.00082084
0.000359733
-6.31693e-06
1.24243e-05
3.37306e-05
-3.9838e-05
0.000146603
-1.49932e-05
6.48228e-05
-3.43789e-05
9.06084e-05
0.000518068
-0.000624346
0.000106278
-0.000405386
0.000290513
-0.00127718
0.00139206
-0.000430816
-3.02579e-05
0.000589015
-0.000127941
0.000216312
-0.000180702
-0.000377505
-7.75515e-06
-2.23767e-06
-1.79715e-06
4.91291e-05
2.14637e-05
9.03587e-05
-0.0013425
0.00117619
-0.000247392
0.000413702
0.000371476
-0.000317275
-0.000127609
7.34086e-05
0.000129347
-0.000558684
0.000541234
-0.000111897
-0.00016019
4.8945e-06
0.000102682
5.26129e-05
-2.69286e-05
1.28875e-06
0.000342949
-0.000317309
0.000602422
3.19505e-05
-4.47305e-05
-0.000520756
3.58171e-05
-4.40852e-05
-0.000359746
-0.000187754
0.000210991
-0.000953506
-0.000169967
0.00027416
-9.07639e-05
4.31369e-05
-0.000270576
0.000687909
-0.000178114
-0.00058796
3.35787e-05
-2.48761e-05
1.10199e-05
-0.00035904
0.000223562
0.000305385
0.00029997
0.000361807
-0.000584816
-7.69614e-05
0.000115414
0.000162873
-0.00101552
3.83395e-05
-1.78953e-05
-2.81993e-05
-0.000102236
-0.000179734
-0.000407495
0.000327074
0.000523184
-0.000442763
-0.000249455
4.35756e-05
4.79214e-05
0.000157958
-0.000724748
0.000467549
-0.000349885
-0.000126888
0.000117732
0.00010859
-3.6833e-05
-0.000482595
0.000426384
0.000350041
-0.00029383
-0.000289739
0.000298576
1.83708e-05
-2.72072e-05
-0.000129601
-3.78563e-05
2.38977e-05
-0.000240507
-0.000432207
7.13023e-05
0.000722712
0.000484288
0.000768982
-0.000415556
-0.000837713
-5.37934e-06
3.21744e-07
1.1866e-05
-6.80843e-06
1.04683e-05
0.000663463
-1.13612e-07
4.36449e-05
0.000561378
-8.82017e-05
-3.30943e-05
6.34761e-06
-0.000534803
0.00056155
-2.35036e-05
2.36609e-05
-0.000260816
0.000260658
0.000435229
-0.000171626
0.000326612
9.10694e-08
-0.000691443
-1.2591e-06
6.46192e-05
-0.000552962
0.000729564
-0.000241221
0.000618252
0.000119167
-0.000134997
-0.000514494
5.83578e-05
-0.000245235
-0.000440671
0.000326159
-0.000161247
0.000635965
0.000208515
-0.000152607
0.000516372
0.000178388
-4.96838e-05
2.21377e-06
-3.79137e-05
-1.8112e-05
-4.0335e-05
5.83793e-05
-3.87094e-05
1.84106e-05
-0.000454198
0.000325865
-0.000114297
-0.00015792
6.81412e-05
0.000204075
-2.04779e-05
8.10012e-05
2.25948e-05
-8.3118e-05
-7.63944e-06
-6.72727e-06
-9.51263e-05
4.51149e-05
3.27589e-07
3.95329e-05
-6.74123e-05
1.94775e-05
-3.89722e-05
0.000286862
-0.000499574
0.000251684
7.84187e-05
-0.000429652
-0.000233583
-6.2138e-05
0.000418698
-0.000375043
1.84828e-05
0.000151179
9.4962e-05
-0.000133497
-0.000112644
-1.00057e-05
-0.000239492
4.85788e-05
-8.83455e-05
5.93772e-05
-1.96104e-05
-3.58357e-06
0.000210116
0.000106142
-9.06489e-05
-0.000225608
7.66976e-05
-4.54087e-05
-0.000406744
0.000448724
-0.000303705
-0.000342624
2.38001e-05
9.38525e-06
-1.52415e-05
-1.79439e-05
7.14069e-05
-0.000598554
-2.87756e-06
2.67278e-06
-3.5637e-05
3.58418e-05
-0.000259353
0.000915715
-0.000273438
0.000233781
-2.49278e-05
6.45844e-05
-0.000308454
0.00072692
0.000599104
0.000195666
-0.000176518
0.00081791
-0.000423818
0.000884346
-4.25052e-05
5.75372e-05
0.000490353
-0.000505385
-2.50308e-06
4.39763e-05
-4.68525e-05
6.90241e-05
2.32711e-05
-7.99565e-05
0.000571128
-0.000787702
-0.000969241
0.0011963
0.000560638
-0.000394131
0.000400479
-0.000264242
0.000383409
6.52101e-05
-4.15492e-05
-2.55463e-05
0.000393717
-1.9479e-05
0.000413871
-3.69974e-05
-6.54577e-05
0.00043897
-0.000440792
-0.00050237
0.000504192
-1.35865e-05
-0.000413491
0.000490471
-7.698e-05
-5.9089e-05
7.02543e-05
-0.000579422
-0.000144988
-0.00130027
0.000657555
0.000203267
-0.000472806
-0.000378288
-1.58434e-05
7.32884e-05
-8.07834e-06
1.10077e-05
-2.19916e-06
-8.48677e-06
-1.33435e-05
1.32582e-05
-3.64419e-05
6.83908e-05
3.48283e-05
-0.000700248
0.000249883
-0.000160529
0.000610894
-0.000565162
0.000467043
0.000163472
-0.000200056
-7.46842e-05
-6.44059e-07
4.76028e-05
1.54149e-05
-6.23736e-05
-0.000351974
0.000258534
0.000198414
-0.000104974
0.000317371
-0.00018229
0.000427528
-0.000562609
-0.000531447
0.000481722
0.000218644
5.5146e-05
-0.000168345
-0.000105444
2.44136e-06
-3.23264e-05
0.000103477
-7.35921e-05
0.000329811
-0.000408954
2.00538e-05
-2.25562e-05
0.000308484
-0.000134609
7.55345e-05
-5.55148e-05
0.000927205
-0.000835945
-0.000506816
0.000530528
0.000372434
-0.00073262
4.13851e-05
6.74959e-05
-0.000835155
6.41736e-05
-0.000804327
0.00042145
-1.05386e-05
-0.000177215
0.000358312
-0.000322495
0.000114224
-6.85039e-05
-8.89019e-05
-5.43625e-05
1.3208e-05
4.15709e-06
-0.000157835
-1.88218e-05
0.000195432
-1.87751e-05
-2.67858e-05
5.56338e-05
4.64336e-05
-7.52816e-05
5.60498e-05
-1.01534e-05
-4.58964e-05
-0.000562772
0.0014129
-0.00110948
0.000481747
-0.000551531
-0.000626959
-1.04491e-05
1.37674e-05
1.91203e-06
4.17267e-06
-7.24002e-05
8.45862e-05
-1.63587e-05
-9.09983e-05
5.04716e-05
0.000234832
-0.000194305
-0.000881496
0.000910557
0.000374097
-0.000403158
-0.000248149
0.000170722
-0.000854141
0.000931567
-0.0010706
0.000523003
0.000731414
-0.000133516
0.000440636
-0.000328175
0.000678078
0.000123871
0.00028039
-0.000148105
-0.000256155
6.96526e-05
-0.000438541
4.9125e-05
0.000319763
0.000618126
-3.58819e-05
6.77168e-06
-5.02201e-05
6.35233e-05
3.81162e-05
-5.14194e-05
0.000681273
-7.38611e-06
0.000310057
-0.000983943
-0.000146394
0.000180756
-0.00012536
2.50664e-05
5.86167e-07
8.78884e-05
-4.82621e-05
-1.13859e-05
5.28549e-06
-0.000936596
-8.85095e-05
0.000148902
0.000876203
-0.000978646
0.000478785
0.00100382
-0.000503961
0.000101672
-0.000451457
0.000565954
0.000566777
7.9519e-07
-4.31681e-06
-6.35459e-05
0.000142404
0.000377481
-0.000456339
5.92829e-05
-0.000529526
0.000500389
-0.00047526
-0.000233597
0.000101616
-0.000103699
0.000758592
-0.000853453
0.000344744
-0.000204482
0.0002888
0.000354652
0.00121747
-0.000560403
0.000263757
-0.000920827
0.000439662
-7.16869e-05
-0.000252561
9.07838e-05
-3.11974e-05
0.000103028
-9.93325e-06
-5.59621e-05
-3.71331e-05
8.14541e-05
-2.9551e-05
-8.87299e-05
3.68268e-05
3.88848e-05
-6.16823e-05
-2.48187e-05
4.76162e-05
-0.000408196
-2.32624e-06
-0.00042719
0.000238159
-3.35659e-05
0.00028726
-0.000448929
0.000504455
-0.000342787
0.000482713
0.00109235
-4.16597e-05
-7.29982e-06
6.33496e-05
-0.000550477
-1.5349e-05
0.000790082
-0.00067685
0.000388885
-0.000502116
-0.000151488
-0.000777443
-2.45749e-05
0.000234659
0.000502805
-0.000525522
-0.000701949
0.00155566
0.000363757
-4.60971e-05
-0.00114765
0.00130739
-0.000113643
-2.0043e-05
0.000118365
0.000112956
-0.000167799
0.000144626
0.000150282
0.000326881
-0.000241123
-8.02049e-05
-0.000480198
0.00134626
-0.000548126
-0.00150008
0.000362653
-0.000454067
7.75778e-05
2.07446e-05
0.000336272
-6.92737e-05
5.93512e-05
-4.55278e-05
0.000597071
-8.45608e-05
-0.000313427
0.000385529
1.24589e-05
0.000130382
-0.000201242
-4.91816e-05
0.000274679
2.58483e-05
0.000675375
-0.000628561
-0.000508322
0.000461509
0.000674787
-0.000860971
0.000632552
-0.000446368
-0.000173611
9.34061e-05
0.000211305
0.000606638
-0.000469821
0.000322161
0.00105822
0.00029929
-8.54549e-06
0.000488765
-0.000269343
-0.000219422
0.000580119
-0.000838635
-0.000297439
9.03895e-05
-2.65475e-05
-0.00046029
-0.000154701
0.000106839
0.000508152
0.000211504
0.000381563
-0.0004186
0.000701294
-0.000212529
-9.28484e-06
0.00010901
5.30041e-05
0.000486967
-0.000694924
0.000199262
-0.000157353
0.000106413
-0.000148322
-0.000105143
0.000143427
6.94027e-05
-0.000107687
0.000247631
-0.000153511
9.73053e-05
0.000297627
-0.000147302
-0.000178344
5.42558e-05
0.000204534
-8.04455e-05
6.23886e-05
0.000314969
-2.6339e-05
-2.50322e-05
0.000177383
0.000162619
-2.32948e-05
0.000233095
-6.08741e-06
0.000163548
-2.96639e-06
-6.59213e-06
7.72857e-05
-6.77272e-05
-6.4886e-05
-2.7796e-05
8.68446e-05
5.83735e-06
1.44084e-06
-0.000200032
0.000185957
1.26339e-05
-2.6009e-05
-4.5829e-05
6.95191e-06
-2.80805e-05
7.3012e-06
3.87798e-05
-1.80005e-05
-2.85383e-05
2.45679e-05
8.54527e-05
-8.14823e-05
1.4928e-05
-5.33418e-05
-0.000261352
0.000962646
-2.82152e-05
-1.59356e-05
1.60703e-05
7.58747e-05
-0.000104413
-5.57373e-05
5.12355e-05
1.94297e-05
8.3217e-05
-3.54771e-05
-0.00052701
0.000104902
-0.000513069
0.000935178
-0.000175009
6.76384e-05
-0.00113556
-0.000212213
0.00112444
0.00022333
-6.06782e-05
2.31723e-05
6.06262e-05
-2.31203e-05
0.000576747
-0.000282802
-0.000820956
3.01802e-05
0.000147187
-0.000303264
0.00012185
0.000232187
-5.07735e-05
0.000129293
-9.97837e-05
-0.000132298
0.000102788
1.23808e-05
3.95104e-05
-1.66415e-06
-5.02271e-05
-5.33633e-05
0.000735012
-0.000501765
0.000478582
-1.0086e-05
7.87008e-05
-0.000236373
-0.000311832
0.000282634
0.000265571
0.000154418
-6.45266e-05
0.000181036
-0.000201627
3.44344e-05
-0.00012362
2.80699e-05
9.37738e-06
-1.50964e-05
2.98884e-05
-5.44207e-05
3.96288e-05
-2.27305e-05
-7.34173e-06
-6.97115e-05
5.37094e-05
-8.65258e-05
1.5423e-05
-1.01944e-06
-2.95001e-05
-0.000708028
3.81146e-05
4.28995e-05
-6.5591e-05
1.55566e-05
6.91816e-05
-3.08384e-05
-9.53814e-05
8.15694e-05
1.79173e-05
4.24703e-05
-1.26014e-05
-9.66146e-05
4.03313e-05
-1.7786e-05
-0.000102487
3.83925e-05
-1.92887e-05
-6.9225e-05
5.01213e-05
-3.32546e-05
3.48954e-05
2.29271e-05
2.71423e-05
-0.000200753
0.00108649
5.25169e-05
-0.001139
0.000146403
-0.000164825
0.000243436
6.6665e-05
9.20969e-06
-7.58061e-05
-0.000102896
3.19176e-05
-7.84417e-05
4.65241e-05
0.000158874
1.62772e-05
-4.67042e-06
2.76579e-05
-5.22285e-05
0.000104846
-0.000107813
5.93936e-05
0.000102604
-0.00014572
0.000192583
-0.000176058
0.000139731
9.63099e-05
-8.96376e-05
-1.28772e-06
0.000145391
-6.56253e-05
0.000175786
-0.0001808
0.0010976
0.000171419
-0.000232635
0.000200947
-2.28168e-05
0.000119423
-9.78937e-05
0.000137305
-0.000230016
9.65108e-05
-3.79916e-06
-0.000116687
0.000251972
0.000134168
-0.000269453
8.71154e-05
-0.000119217
-0.000136335
-2.48397e-05
0.000161175
0.0014292
-5.47717e-05
2.90795e-05
-1.79032e-05
-1.77684e-05
0.000119273
-1.4427e-05
-5.59915e-05
1.19627e-05
9.03638e-05
-4.6335e-05
2.68464e-05
0.000286587
-7.16475e-05
-1.70617e-05
0.000150383
-9.56506e-05
0.000125609
-2.56161e-05
8.1303e-05
-1.84443e-05
0.000112557
-0.000141702
0.000153709
-0.000244958
0.000170074
0.000115188
-7.37578e-05
0.000108287
8.78384e-05
-8.30367e-05
9.96046e-05
3.76878e-05
8.51754e-05
-2.09342e-05
-8.02284e-05
4.16108e-05
-1.5817e-05
5.44346e-05
3.83838e-05
-5.90319e-05
-1.98927e-05
-4.67e-05
0.000171219
-0.000100282
0.000156059
4.08286e-05
-4.98533e-05
9.81333e-05
-4.41776e-05
0.000103814
4.86509e-05
2.31964e-05
2.69771e-05
5.90461e-05
-6.25825e-05
-0.000327447
3.62228e-05
0.000353807
0.000300454
-7.38675e-05
-0.000255636
2.90492e-05
0.000133931
0.000182322
-0.000110005
-0.000206249
0.000126658
0.0010601
-0.000323654
-0.000807441
-8.07206e-05
0.00034779
3.33847e-05
-0.000172364
0.000232427
0.00111288
0.000250251
-0.000162646
9.14177e-05
2.70506e-05
3.82722e-05
5.25899e-05
-4.62062e-05
1.79291e-05
0.000327567
-0.000104344
-0.000120412
5.23919e-05
0.000476422
-1.30506e-05
-6.58022e-05
-4.61057e-05
3.36005e-05
0.00011211
-0.000273685
-7.8637e-05
-0.000141137
-4.70796e-05
0.00016042
6.35769e-05
0.000472492
-0.000375981
-0.000160088
-5.23856e-05
0.000210814
0.000680392
-0.000285647
-1.76924e-05
0.000260615
4.27244e-05
-0.000180623
0.000397804
-0.000422697
-0.000226291
0.000468365
-0.000109999
0.000115976
-4.21688e-05
-0.00017409
-0.000162445
-0.000407033
-0.00013612
0.000458592
-0.000824042
0.000936787
0.000223157
0.000126948
3.15986e-05
-0.00014124
0.000263486
-0.000258284
5.83749e-05
0.0002261
-7.26795e-05
-0.000168299
1.48783e-05
0.000285907
-0.000134201
-2.27011e-05
7.85002e-06
-0.00105389
0.00100779
0.000265098
2.37236e-05
0.00018367
0.000101322
-2.56216e-05
4.01464e-05
-3.5459e-05
0.000709419
0.000704078
0.000199361
2.78201e-05
-0.000931259
-2.79037e-06
0.000130509
0.000324337
2.1082e-05
-4.15816e-05
9.84821e-06
7.33442e-05
-2.65848e-05
0.00049518
-0.000464193
-4.40158e-06
-0.000842684
0.000701284
6.6897e-05
-0.000108437
1.19538e-05
2.28372e-05
3.59278e-06
-4.3091e-05
-1.43076e-05
4.54368e-05
-7.60553e-05
5.77608e-05
2.402e-05
0.000388102
-2.0479e-05
-2.59655e-05
7.83621e-05
0.00105912
2.73672e-05
1.7984e-05
5.73687e-05
-4.34819e-05
-0.000123664
-0.000217358
0.000234491
-6.06149e-05
-0.000889838
0.000572478
-0.000673918
-2.48238e-05
-0.000694908
-0.000436187
-0.000632152
0.000902348
-9.66686e-05
5.47251e-05
0.000133324
-0.000214768
4.24214e-06
-0.000191815
3.27967e-05
-0.000902257
0.000470254
-3.09354e-05
-0.000960923
0.000668951
-0.000597866
2.61736e-05
-4.32974e-05
0.000693862
-0.000676738
0.000230359
0.000299089
2.72668e-05
-0.00037548
4.91238e-05
-7.97816e-05
0.000115553
3.78819e-05
4.24893e-05
-4.90338e-05
5.22826e-06
-0.000200562
8.66475e-05
1.51985e-05
0.000153066
0.0004026
-0.000589253
5.40318e-06
0.000418922
6.23515e-05
-9.57869e-05
-0.000559826
-0.000674386
0.00122698
0.000106274
-9.47304e-05
0.000526757
0.00010526
0.000580921
-0.000543622
-0.000142559
-0.00011589
0.000168258
-0.000988964
-4.21848e-05
2.73084e-05
0.000541633
-0.000496979
0.000143586
-0.000172764
0.000179977
-0.0001508
0.00148168
-0.000957949
0.000379124
-0.000902851
0.000441436
7.58057e-05
-0.000430836
-7.08727e-05
0.000779017
-0.000575897
-0.000361087
0.000157968
0.000238536
-0.000190414
-0.00019638
0.000622599
-0.000340015
-0.000376974
-5.27597e-05
-0.000199121
0.000230807
0.000131353
-0.000163039
-0.0012154
-3.31371e-06
0.000144862
0.000814627
9.07232e-05
0.000207355
-0.00111271
0.000178544
4.02511e-05
0.000109541
9.36716e-06
3.14424e-05
0.000464457
-0.000897659
0.00056788
-0.000149658
-0.000253775
0.00013583
0.000267602
-0.000324824
0.000650475
-0.000656784
0.000650388
-0.000437134
0.000495227
5.28286e-05
0.00114096
-0.00114127
-0.000124382
-0.000238795
0.000932649
-0.000923118
-0.000311
0.00053499
-0.000442595
0.000966151
-0.000998816
0.000916582
-0.000897049
-0.000360985
-8.12402e-05
1.25734e-05
-0.000190829
0.000112134
0.000156273
-5.51148e-06
0.000185869
4.57429e-05
-2.36873e-05
0.000105414
-0.000102815
0.000114706
0.000144169
-0.000207131
-0.000362867
0.0002068
-0.00010546
-0.000719678
-0.00013377
0.00067364
-0.000788598
-0.000429337
-0.000506695
0.000815098
0.00076552
-7.01509e-05
-0.00016484
1.81232e-05
-0.000880862
2.14522e-05
-9.8042e-05
9.43866e-05
-0.000875046
1.17031e-05
1.33989e-05
0.000820275
-0.000845377
-4.95209e-05
5.33203e-05
0.000635941
-0.000689261
-0.00022753
6.44793e-05
-0.000169926
0.000589422
-0.000241358
-0.000140136
-7.42127e-05
-0.000568767
-0.000233676
0.000412856
-0.000412145
-6.82114e-05
0.00080998
-0.000763989
-0.000712996
-0.000834745
0.000961738
0.000586002
4.72437e-05
-3.31364e-05
0.000918542
0.000144433
0.000213176
0.000933408
-0.000995978
0.000698921
-9.69048e-05
-0.00104997
0.0010936
5.32764e-05
-0.00113519
-7.22986e-06
7.10151e-05
-6.43861e-05
-0.000549672
-0.000245342
0.000568724
5.55929e-05
-0.00047701
-0.000162343
0.000503234
-0.000369202
-2.18612e-05
-0.0010378
-0.000478064
0.000461878
0.000140056
-2.81748e-05
-4.19783e-05
8.80822e-05
-0.000523442
-0.000233361
-4.91534e-05
-0.000603589
-3.12397e-05
0.000634829
2.30918e-06
8.37674e-08
-7.81031e-06
0.000276797
-0.00127519
-5.35528e-05
0.00105195
-0.000443492
1.26833e-05
-1.18073e-05
-5.6073e-06
0.000503769
-0.000486354
-4.52311e-05
3.34545e-05
-0.000944994
-6.951e-05
3.53947e-05
-8.62963e-05
-4.79112e-05
-1.78725e-05
2.89508e-05
0.000583459
-0.000293569
0.000120148
0.00026028
0.000348048
0.000167873
-0.000133718
5.67289e-05
0.000145071
-0.000440693
-5.63513e-05
0.000107608
-0.000174635
8.96225e-05
-0.000104103
0.000141448
3.07968e-05
0.000111143
-1.81926e-06
-8.53583e-06
3.88519e-05
-3.76158e-05
-0.000149724
0.000206417
-5.40654e-05
-2.62731e-06
0.000856206
-0.000772614
0.000549593
4.14067e-05
0.000181615
-3.20289e-05
0.000183796
-2.90025e-05
2.86471e-05
-1.29881e-05
8.34187e-06
-6.70965e-05
1.65859e-05
1.04609e-05
-2.67716e-05
1.63106e-05
-6.3575e-05
1.26327e-05
-5.5321e-05
3.51256e-05
2.01954e-05
-6.21697e-05
5.57701e-05
6.39957e-06
-4.57257e-05
-0.000284905
-4.98423e-05
4.43689e-05
5.47334e-06
2.06485e-05
-0.00110196
0.00116591
-0.000481397
-0.00150547
-1.27432e-05
2.32042e-05
-6.84866e-05
0.000220383
0.000113058
-3.43517e-05
-7.7931e-05
2.261e-05
-4.79653e-06
0.000695234
-0.000677371
-0.000263206
2.23823e-05
5.92785e-06
4.82426e-06
-0.000294167
-0.000222212
-0.000200905
0.000262399
0.000148328
4.94312e-05
-7.28351e-05
4.34851e-06
-0.000220713
0.000184299
-4.70628e-06
-0.000424223
4.84547e-05
0.000435051
3.18559e-06
-3.50879e-05
0.000686932
-9.2542e-05
-4.63978e-05
8.62515e-05
0.000659067
0.0010317
-0.000764754
0.000695215
7.11418e-05
0.000440719
-0.000335883
-3.51291e-06
-1.69613e-05
-9.7819e-05
0.000115123
0.000112832
-0.000168158
-5.97964e-05
-0.000113769
-8.61115e-05
-0.000446306
3.23513e-05
-0.000629132
-0.000174863
0.000127561
0.000676435
0.00087725
-3.72032e-05
2.64883e-05
1.8801e-05
-4.55939e-05
1.68596e-05
6.86652e-05
-5.31552e-06
0.000197108
-0.000358518
-0.000254753
-9.7868e-05
1.07339e-06
0.000209853
-0.000237474
0.000297598
-3.79134e-05
-0.000108972
7.97887e-05
6.01356e-06
-0.000358167
-0.000600367
0.000539388
0.000864914
-3.3832e-05
-0.00024103
-1.28754e-05
-0.000668264
0.000444322
-2.68368e-05
-0.000297153
0.000268711
-0.00023359
0.000332754
-0.000170451
0.000283335
-0.000165953
5.30691e-05
-8.56376e-06
-2.37642e-05
2.04553e-05
-0.000142832
0.00012066
2.21718e-05
4.94299e-05
-5.56113e-05
6.18144e-06
3.34445e-07
-8.19379e-05
7.33957e-05
-0.000100153
0.000637613
0.000241557
-3.23703e-05
6.40786e-05
0.000114321
-9.51824e-05
-0.000246217
0.000309369
7.65206e-07
-0.00109298
-6.23699e-05
0.000159377
0.00120421
-0.00114967
3.60721e-05
-2.50408e-05
3.80164e-05
0.000105912
-7.36059e-05
0.000117881
0.000415058
-3.68269e-07
-8.47308e-06
0.000427539
-0.000276192
-0.000384359
-2.8476e-06
-0.000775926
-0.000460358
-0.00025897
-0.000137694
5.55328e-05
-0.000321874
6.70087e-05
-2.08183e-05
-1.88051e-05
-2.73853e-05
4.83105e-05
0.00013769
0.000124363
9.27905e-05
-0.000169404
-0.0003252
0.00011977
0.000487273
-3.73054e-05
1.05338e-05
-2.68323e-05
-0.00101201
-1.15339e-05
7.17361e-07
-3.26084e-05
-2.88613e-05
-9.02876e-06
-0.000182107
-8.86722e-05
0.000244813
-9.20997e-05
0.000282538
-0.000326454
6.13719e-05
-6.26463e-05
-5.7204e-06
3.2714e-05
-9.65035e-05
-0.000107244
0.000554518
-5.0453e-06
2.94357e-05
-0.000191349
-0.000227274
-0.000770816
0.00097841
-0.000717193
0.000369999
-0.000487551
7.49153e-05
0.000837696
-0.000164469
0.000190497
7.55875e-05
4.66172e-05
-4.20261e-05
9.17629e-06
0.000101137
-2.27036e-05
6.15239e-06
6.61067e-05
-6.19202e-06
-0.00013597
0.000722395
-0.000216144
-0.000702631
0.000220979
0.000121126
0.000152909
2.17879e-05
2.7642e-05
-0.000112866
0.00116987
-1.32047e-05
-9.08315e-05
-0.000603215
-1.25312e-05
-0.000923462
0.000562696
-1.64245e-05
0.000156147
-1.83294e-05
0.000182425
-6.01309e-05
-6.92524e-05
0.000195009
2.71081e-05
1.35034e-05
3.40787e-05
0.000536629
7.30794e-05
-0.000215778
0.000338486
0.000105263
-0.000100574
-9.54531e-05
-0.000265634
7.5289e-05
5.75158e-05
5.5435e-05
9.649e-06
-3.51956e-05
0.000406261
-0.000493173
-2.03316e-05
-0.000689879
-0.000522103
0.000441166
-4.35321e-05
7.67022e-05
0.000102179
-4.52544e-05
-1.60232e-05
7.83256e-05
-0.000243968
0.000153371
-6.67551e-05
0.000232524
-3.64827e-07
0.000129761
-8.37056e-05
7.64972e-05
-0.000126289
7.06351e-06
9.03181e-06
0.000801941
-0.000465914
-0.000165305
0.000441434
-0.000172505
5.19377e-05
-0.000150275
7.96741e-05
0.000443051
-0.00117577
-0.000279286
-0.000157948
0.000311345
-0.000360879
-0.000122578
-0.00054384
0.000460259
-0.000158963
-4.79824e-05
2.82975e-05
-0.00050393
-0.000508601
-0.0012084
-6.45842e-05
3.47171e-05
-0.000113522
-3.53926e-05
6.52239e-05
1.98875e-05
-4.97188e-05
0.000168616
-0.00014751
-2.26442e-05
0.000229242
-0.000252006
-0.000156462
0.000462145
-0.000369229
0.000154724
-7.91955e-05
-0.000472368
0.00096619
-0.000962402
2.89386e-05
0.000383591
-0.000245201
-6.44902e-06
-1.13237e-05
-3.81894e-05
-1.67684e-05
4.77206e-06
9.75864e-06
-0.000135583
-0.00143649
-0.000751631
-0.000374369
0.000307324
8.93465e-05
-2.61491e-05
1.53574e-05
-0.000123721
-3.29354e-05
-2.30629e-06
-2.71392e-07
-0.000203612
5.95525e-05
-2.32159e-05
-8.83362e-05
-0.00049905
0.000509518
-0.00045218
0.000504573
4.94517e-06
-0.000459431
0.000397659
6.17726e-05
-0.000397089
-5.50916e-05
5.69876e-07
-0.000677735
0.000677826
-0.000543124
0.000557652
-1.4528e-05
-0.000499479
-0.00062892
-4.8815e-05
0.000650306
0.000622854
2.74514e-05
-0.000557618
-0.000422095
0.000487363
-0.000441063
-4.63005e-05
-0.000327534
-9.45614e-05
-0.000236652
-9.08816e-05
0.000177205
-0.000133629
-5.94478e-05
0.00060867
1.41847e-05
0.000624573
-1.59031e-05
0.000641631
2.2193e-06
0.000502717
-0.0003734
6.87082e-05
-4.30502e-08
-8.38339e-05
-0.00015775
9.07841e-05
-0.000234602
0.000143962
-0.000108293
-6.25582e-05
-5.96709e-05
-0.000230713
-0.000686992
0.000211976
-2.19741e-05
7.04752e-05
0.000451888
-0.000585349
0.000173379
-0.000217163
0.000135278
0.000137353
0.000100575
2.00848e-05
-0.000835457
-3.92682e-05
-5.51894e-05
0.000124242
-7.59798e-05
9.70232e-05
-0.000763869
-0.000189452
-0.00148822
0.000539548
0.000275063
-0.000216625
-2.78591e-05
0.000632602
-0.00011454
0.000164009
-6.09437e-05
9.8762e-05
0.00105875
-0.00126215
7.53382e-05
3.77785e-07
-7.5716e-05
0.00126656
3.34731e-05
5.12266e-05
0.000222968
-0.000133052
2.08811e-05
2.18451e-05
0.000224876
0.000776962
-0.000795544
-0.000197562
-0.000279776
1.74893e-06
-0.000365671
0.000199771
0.000683968
0.000815397
-0.000822002
0.00013897
-5.66643e-05
0.000144793
-9.2258e-05
0.000271878
-0.000160263
0.000168775
-0.000519847
-0.00076143
-0.000210783
-6.65649e-05
0.000172737
-7.44682e-05
0.000124111
-0.00022238
0.000228263
0.000214769
-0.00020925
9.11715e-05
-7.93136e-05
-7.77633e-05
-0.000174006
0.000475331
0.000127104
2.59858e-05
-1.27283e-05
-1.25759e-05
3.52752e-05
0.000164211
0.000296979
-0.000423004
-6.27283e-06
-0.000120843
0.00067375
0.0005828
-0.000205595
-0.000101751
-0.000516136
-0.000589157
0.000576107
-0.000166145
8.19758e-06
-0.00069674
0.000515914
-0.000147349
-0.000331354
0.000192324
5.51369e-06
0.000122326
0.000350589
-0.000507713
-6.8612e-05
0.000203921
2.68129e-05
-0.000237921
0.000248506
-0.000573697
4.10901e-05
-4.05907e-05
-7.68253e-07
0.000388777
0.000116867
0.000407143
0.000426328
-0.000131733
0.000130322
0.000424579
-0.000465778
-7.0907e-05
1.618e-05
-3.24837e-06
-7.64612e-06
-4.85356e-05
-5.56683e-05
1.88321e-06
-0.000484272
-0.00134094
0.00110695
0.000269286
-0.000168449
0.000701104
0.000196116
6.69043e-05
5.27337e-05
5.34794e-05
-0.000179923
0.000249531
-3.22586e-05
1.10541e-05
3.4708e-05
0.000163556
-0.000231327
4.40836e-05
5.44697e-05
-5.95365e-05
0.000119772
0.000756454
0.000502494
-0.000396702
-3.78515e-05
0.000227313
-0.000166392
-0.000326555
-0.00020248
0.00029969
-0.000239913
8.20347e-05
-9.90039e-05
6.3956e-05
0.000265033
-0.000328112
-8.77466e-07
-6.28151e-05
-4.69905e-05
2.18067e-05