/*--------------------------------*- C++ -*----------------------------------*\
| =========                 |                                                 |
| \\      /  F ield         | OpenFOAM: The Open Source CFD Toolbox           |
|  \\    /   O peration     | Version:  v1912                                 |
|   \\  /    A nd           | Website:  www.openfoam.com                      |
|    \\/     M anipulation  |                                                 |
\*---------------------------------------------------------------------------*/
FoamFile
{
    version     2.0;
    format      ascii;
    class       volScalarField;
    location    "0.49";
    object      epsilon;
}
// * * * * * * * * * * * * * * * * * * * * * * * * * * * * * * * * * * * * * //

dimensions      [0 2 -3 0 0 0 0];


internalField   nonuniform List<scalar> 
1466
(
0.559639
0.993674
0.37193
1.10406
1.13216
27.1075
1.03198
1.9434
0.994938
5.20694
0.210792
4.83537
0.27549
0.601168
0.557034
0.990504
1.79819
1.08066
1.00142
0.569922
0.93358
0.807417
1.56035
0.790727
0.563113
0.401545
0.645463
2.21014
0.794415
2.95853
1.41389
18.1271
0.853267
1.81154
0.772494
0.618967
0.602458
1.15474
27.3916
0.948145
4.00586
2.77292
0.967118
1.30223
2.67154
1.35196
0.805594
1.31894
2.87648
0.883808
0.29902
7.14889
2.13146
29.53
1.44317
5.91934
0.84237
0.9383
1.30786
6.56987
0.818103
2.92512
1.55755
19.4828
1.1354
0.758057
5.40859
0.993096
0.594845
0.932089
0.301081
0.758054
1.14533
0.767769
0.338185
3.05703
0.751301
0.862968
0.573142
5.65411
0.528083
0.81287
0.579742
2.7588
0.65207
0.74976
0.297542
1.56141
0.600411
0.855819
0.968381
1.67003
3.93667
0.760561
0.303625
1.22494
0.882036
1.60596
0.890373
1.00231
0.690962
3.01909
0.369542
0.753844
0.54786
1.24101
1.00966
0.563328
0.696008
0.510919
0.876491
0.530043
1.03435
1.22902
0.316047
2.518
0.636322
0.596574
0.883885
0.73832
1.09746
0.69818
0.390436
1.47361
0.542603
1.62029
0.473289
0.594231
3.59028
0.636183
2.04558
0.784395
0.395163
5.13942
0.381902
4.69745
2.71343
0.324501
2.47007
1.27216
7.24588
1.63088
2.11341
2.20068
2.46541
0.886833
0.738728
0.553429
5.37811
1.02793
2.79509
0.718974
0.809928
0.958035
0.805297
0.342022
0.700965
2.41134
1.07236
0.525089
2.77678
0.898052
0.830148
1.15885
3.23772
3.82869
0.534118
1.14658
0.625792
0.674038
1.11374
0.681203
0.567286
4.64953
0.499839
1.18013
3.57136
6.16768
0.51063
5.04303
0.781064
0.548932
2.92544
0.593752
1.40869
0.582547
0.628692
4.588
0.647329
0.672458
1.93733
1.20633
0.803635
1.10142
0.537832
0.726398
3.19757
0.518853
0.46707
0.488627
1.11149
0.391444
0.549566
0.636969
0.778096
4.09938
0.589963
1.57765
0.555769
1.08678
0.744448
1.36746
0.593337
0.879476
0.897175
0.650628
0.193074
0.26548
0.59987
0.753204
0.242104
0.712009
0.664878
0.927963
2.91571
0.937376
0.503694
0.995433
0.810128
0.720791
0.560209
1.56369
0.661915
0.855894
0.580532
0.730603
0.892445
2.26781
1.24366
0.598317
0.854569
1.77469
1.61444
2.73735
3.91769
1.00327
0.161203
1.52833
0.491126
1.2095
0.762737
1.08711
3.74161
1.50136
0.581701
1.08149
0.489994
0.548793
8.14428
4.12395
0.852286
1.06994
1.11682
0.463746
41.869
0.734402
1.29411
0.862594
0.449528
0.7322
0.938038
0.745678
0.385165
0.500984
1.1111
1.50321
0.883387
0.566372
0.566835
4.1123
0.604693
0.754778
1.37063
0.51158
0.446066
0.228959
0.864071
1.41959
1.06917
1.08394
0.872352
1.92002
0.757197
3.56704
4.23479
0.680484
5.4344
3.03335
0.890618
0.440456
1.3219
1.75065
0.520922
0.769059
0.666627
0.47433
0.359006
1.52456
0.769101
21.0383
0.882408
0.330914
0.358225
6.24175
2.96272
0.440713
0.862376
0.368548
3.06736
0.709789
0.72884
4.31047
2.95518
0.857989
0.757666
0.638109
0.379744
0.717195
0.166172
0.63821
1.1369
0.900263
0.245534
0.761865
0.885502
0.911711
0.31918
0.286809
1.98565
0.49121
1.10012
0.733128
0.404908
0.481014
0.602109
0.0936396
1.83324
0.673325
1.15126
0.903361
5.18124
0.778855
5.57764
1.37383
1.31685
0.407933
1.03791
1.09244
25.3453
0.920032
1.10319
5.11006
3.54537
0.750009
1.85012
0.625736
0.465169
0.173306
0.64476
1.5809
0.219474
0.522307
1.81572
0.929768
0.918764
1.01572
0.547926
2.44193
0.629083
1.22631
0.226521
4.67074
0.860626
0.38813
2.0387
0.890299
1.22124
0.443829
0.711788
1.07203
1.04967
0.762813
2.23251
1.87912
1.08525
0.476729
2.78303
0.2101
0.581823
0.168602
1.38353
0.141497
2.11829
0.617003
2.7778
0.446781
1.85517
16.3535
0.485186
0.806983
0.473675
1.70205
1.68559
2.00962
0.985431
1.23132
1.55485
0.856772
0.9842
1.02553
0.878453
0.794913
0.727107
0.653179
0.672849
0.6761
0.740113
0.737904
0.633579
0.781989
0.814405
0.464618
1.38739
2.3148
11.3022
2.27778
0.836481
1.43878
1.47993
0.948932
2.83993
1.19424
2.124
1.31007
0.982779
0.806567
0.921958
0.909938
2.13877
0.695999
3.21226
1.05257
1.90774
1.06912
0.679137
1.90485
1.1358
1.29765
0.951734
0.713272
0.565844
1.27021
1.0972
0.729974
1.91304
0.645863
1.86818
0.447627
0.891654
2.85175
1.84012
1.43369
0.722819
2.08425
18.5143
1.2319
0.918158
1.80936
0.849882
28.0606
1.00036
0.448697
23.2383
0.448026
0.885969
0.953093
0.46958
0.379898
23.2725
4.0722
0.808487
0.782164
0.548188
0.415305
1.98386
0.696856
30.0234
0.59773
1.36302
2.01865
0.50502
0.473732
2.0831
1.69439
0.397195
2.12002
3.0587
0.909045
0.721276
0.955234
0.720065
0.759056
0.715568
0.86541
1.72935
0.723755
0.42856
0.503212
0.898804
0.749007
0.911417
1.2705
1.16535
3.51103
2.40784
1.06566
1.50537
0.639398
0.947071
0.357442
0.444712
3.04715
0.714917
0.673346
1.16354
0.596574
3.90278
1.39601
0.828767
1.1146
1.01798
0.974265
1.12702
0.947177
0.726203
1.55091
0.445987
1.78506
1.09936
0.351496
0.488436
0.602886
1.2892
2.02148
3.14872
1.38004
0.816788
0.460701
1.34324
1.04204
0.472724
1.7037
3.03669
1.95878
2.58007
6.97815
0.622105
0.858474
0.66327
2.0041
0.796835
1.01318
0.672587
3.01422
0.284147
0.733225
1.86859
0.300847
0.662739
0.675338
2.32806
1.02951
1.50388
2.53974
0.710798
6.5533
0.926897
0.473066
2.00761
0.690955
0.515817
0.777039
2.50226
0.268864
0.266902
0.491871
4.99291
3.93519
1.62468
2.60235
2.07861
0.294107
0.500274
0.206065
0.28772
0.901257
1.3217
0.437728
1.03285
2.21271
4.79167
2.50981
0.565611
8.55076
0.3918
0.215895
1.43075
0.725347
0.629532
0.317704
0.461197
0.533829
2.1545
5.82031
0.446681
0.840328
1.02705
0.811107
0.601142
1.89962
1.08281
2.10095
0.249877
0.979034
4.29918
5.94991
3.31093
1.24605
0.236381
0.476921
0.67979
0.284166
0.7812
1.06075
0.142881
4.45397
0.199889
1.34505
2.12435
0.73481
1.00444
2.02322
6.54455
1.01674
0.896726
1.16422
0.798616
1.67894
0.745967
0.239756
1.06409
1.37697
3.42197
1.8518
0.651258
1.57628
0.888867
0.943936
1.84661
4.89528
0.719792
0.709212
0.468075
0.203724
0.62348
0.795726
0.916466
1.52918
0.44535
1.26684
0.358811
0.452876
0.270062
0.211022
1.95357
0.223798
1.02741
0.346549
0.267485
0.988784
0.781985
0.675649
1.20385
1.0106
2.55164
0.512996
5.54015
0.87783
3.4771
1.64887
0.659273
0.216217
6.7733
0.39503
1.48519
0.709183
1.61734
2.10565
0.656274
0.259876
0.469074
0.238267
2.76435
0.28476
0.498537
0.954261
6.83758
2.07089
0.609725
0.792521
2.02849
1.25993
0.517818
2.66075
1.12587
0.829327
1.88256
0.661453
0.527025
2.18595
0.647999
0.762029
1.22645
0.938928
0.617474
1.11185
1.31102
0.360753
0.370908
2.83671
0.901468
1.66456
0.257025
0.588816
1.2661
1.00986
1.63245
0.251957
0.228681
4.92765
0.23671
2.26573
0.444577
2.88859
2.36593
0.86899
16.944
0.635182
0.252974
0.471239
2.43986
0.420169
3.8884
0.441081
0.483731
0.524815
1.08563
2.39634
0.212397
0.257036
0.951017
26.907
1.1764
0.193793
5.39279
1.27219
0.722202
5.28787
0.935204
0.636824
30.4201
0.465564
0.520537
1.41824
4.94311
2.22227
0.435448
1.25823
0.295067
0.928676
0.967417
0.41917
0.388615
0.5773
1.19895
0.722781
8.55667
0.377738
0.766792
0.576743
1.00573
2.3616
0.464223
0.282257
0.221897
0.188635
1.20842
0.693939
0.431554
1.03748
24.8844
0.227544
1.03168
1.34185
0.628311
0.70361
0.580417
0.335554
0.969469
0.657907
33.3247
0.458513
1.12131
1.34733
1.43002
1.49579
0.645845
0.784063
0.765806
0.427173
0.524795
1.24932
0.466056
0.193426
0.464513
0.83338
1.38711
3.61089
0.509412
1.10892
0.15933
0.923962
2.50675
0.577171
0.305841
1.09556
6.53761
6.13007
0.946955
1.15195
0.702927
2.25362
2.63335
1.25968
0.422932
0.382916
0.800564
0.719157
0.285453
2.39619
0.853359
0.233867
2.53295
1.03622
0.51485
0.373383
0.57914
0.9315
1.52868
0.47173
0.434145
2.02259
1.28164
1.21491
0.250363
0.701075
0.732339
1.31774
22.516
1.01004
0.81308
0.257732
0.346057
0.451205
0.568234
0.255465
0.885786
1.38332
1.06681
1.06514
1.97098
0.652784
0.359862
1.18958
0.486963
2.93232
0.298653
0.476334
0.850714
1.72839
0.701383
0.44737
1.4514
1.02677
1.22465
0.766575
0.626758
0.642246
5.71668
0.26756
0.896453
0.234197
0.81157
1.72559
1.9014
0.506525
4.21049
0.697868
1.31668
0.818636
1.00159
0.600463
0.642402
2.1905
1.45591
0.607172
0.880497
1.04282
1.52832
0.522837
0.667472
1.46415
1.98851
0.816748
0.189176
1.76302
0.627255
1.00144
0.825867
0.330044
0.29306
0.331937
0.281257
1.65785
1.70885
1.6196
1.6636
0.382907
1.73812
1.68911
0.437263
0.490692
0.534126
0.69379
0.554497
0.552818
3.43157
0.500581
5.1515
0.883236
1.56784
2.40183
0.837878
1.03845
0.573827
0.16835
1.3295
0.650228
0.330781
0.791756
1.23009
2.04879
0.673354
0.470594
0.771118
1.20346
0.510625
0.417712
1.44945
0.885698
1.45341
0.56522
14.6103
1.06928
0.81411
0.249781
5.38632
1.17889
0.459142
0.770328
0.769641
7.91491
1.24544
1.36713
1.16608
0.434194
0.711439
2.82876
0.730495
2.29057
1.27239
1.30584
0.711541
0.86891
5.23403
0.721851
0.774911
2.52282
0.886177
1.60388
0.945755
1.16449
0.870038
2.08531
0.393748
2.17091
0.485211
0.500071
0.75777
0.976357
0.624716
0.843667
4.50715
2.61718
1.11323
2.53289
0.5677
1.9372
1.07082
26.5295
0.713726
0.195002
1.21056
1.86836
0.898365
0.979481
2.69887
0.144348
1.05623
0.905358
21.6937
0.177724
0.451685
0.869562
1.64949
1.57546
0.865702
0.302286
1.02474
0.465567
0.628265
0.537213
0.192429
1.18556
2.21919
0.909154
2.47739
0.345927
0.920468
1.54869
2.50385
1.18672
0.43842
0.433696
0.437264
0.972259
0.764
2.85937
1.98989
3.82584
0.592023
1.41473
0.450076
0.919701
4.30702
1.25711
2.33055
1.78042
0.249724
0.559443
0.791091
1.52356
1.98963
1.11436
0.247956
3.22343
2.73505
2.75824
0.218905
0.625979
0.803612
0.937108
0.908986
2.06498
1.76883
0.745116
0.957533
0.568721
5.14366
0.548896
0.750611
1.79187
0.820168
0.637983
0.585031
0.149093
0.353478
2.14531
1.90963
1.16912
0.647719
1.53268
0.785896
0.693162
0.926474
0.991782
0.74737
1.12243
0.707308
1.96017
0.651084
0.391686
1.14336
0.436338
1.22731
0.41173
1.38909
0.356628
1.85674
0.799192
0.22302
1.00501
0.323602
1.03531
0.312347
1.13616
0.931641
0.863143
2.23412
0.245776
1.16031
1.45866
1.76289
1.22444
0.699828
1.08402
0.291891
0.73508
1.18802
0.456414
0.548383
0.902304
0.943942
0.845625
1.8074
0.756783
2.13173
0.262283
1.06012
0.448989
0.225273
0.675541
1.17848
1.43059
1.25476
0.407033
1.65063
0.893462
0.463086
0.418852
0.685742
0.447546
1.40371
0.451755
1.14132
1.04222
22.6593
0.708858
0.746097
0.830544
0.601247
2.22418
0.720862
0.738554
2.01571
0.317416
0.822715
0.852764
0.588582
0.864092
0.55904
0.470552
0.845107
0.912904
0.511836
8.12732
0.585449
0.758334
0.314601
0.900673
0.369629
0.321722
1.8422
0.641939
0.695488
1.06467
1.06621
2.18823
0.194386
2.31636
1.20937
0.491433
0.225661
0.612727
2.1806
0.612487
1.16989
1.1089
1.03196
1.87329
0.822764
1.06299
0.8101
0.669079
0.144023
0.993136
0.785783
5.2354
0.825145
0.845799
0.477196
0.995133
0.385465
0.471329
0.582986
1.12051
0.44842
1.80273
0.918554
0.712145
0.654192
0.786621
1.6148
2.10438
0.765979
3.21859
0.468185
0.6298
0.277951
1.09199
0.836665
13.5276
0.959575
2.76404
1.03555
0.99522
0.791404
1.58265
1.18088
0.190397
1.02109
0.654802
0.506469
2.03208
0.837925
0.881097
0.707877
0.821108
1.9144
0.50305
1.30081
0.658712
4.10447
0.135668
8.80491
0.896449
0.975773
1.086
0.75902
0.674119
0.352283
1.25416
1.95973
11.6308
0.540994
0.442323
0.880016
1.27157
0.577614
0.618296
1.91924
13.662
0.753126
0.521836
1.11131
1.34712
1.02134
0.27292
1.0405
0.950466
0.623458
2.61267
0.174426
0.995227
0.187781
0.70401
1.0367
2.43098
0.25024
0.930285
4.53281
1.02922
0.85296
1.08149
0.279695
1.15344
0.388281
1.05066
0.391662
1.16845
0.41233
0.921745
0.736284
0.683775
5.05475
0.91654
0.208179
0.674089
1.11368
2.17871
0.770863
1.4172
0.540272
1.18678
0.75691
1.98374
1.74192
0.561263
0.602484
0.927609
0.735211
0.82697
0.632899
0.486752
0.899475
1.32406
0.531392
0.411632
0.573976
0.505309
1.11269
0.737001
0.867536
0.525171
0.73992
1.23498
0.808697
0.804192
0.269923
2.01131
0.506688
1.25137
0.589635
0.478497
0.170696
0.686787
0.356626
1.05465
2.27134
0.266409
0.483511
0.930235
0.444783
0.961825
1.08334
1.66401
1.73076
0.983054
0.47986
0.401762
1.05665
0.488379
1.66349
0.702586
1.43097
1.03855
0.703169
2.18948
0.511957
1.69573
0.889004
1.2239
0.416487
0.62022
0.647443
0.161881
0.509897
0.549963
0.833278
0.18128
3.33221
4.43582
1.74852
0.448592
1.02166
0.862778
0.182369
1.3278
1.00361
1.65711
1.04465
0.551191
0.692703
0.681535
0.958693
0.922795
0.597197
1.04409
6.71851
0.671985
15.2015
0.569813
0.706002
0.527916
1.06791
0.798951
1.11134
0.974801
0.415834
0.435947
0.916074
0.560794
0.621433
0.735429
1.04886
0.594285
1.40931
0.837106
1.27531
1.20363
0.925857
3.98706
0.675937
0.757089
0.78338
0.419604
0.999419
1.83322
0.812576
0.972697
1.77692
0.145064
0.907006
1.09336
1.15555
0.574264
1.9701
1.03735
0.527989
36.6577
3.71289
2.41797
1.65007
1.73792
1.33295
7.62933
)
;

boundaryField
{
    frontAndBack
    {
        type            empty;
    }
    wallOuter
    {
        lowReCorrection 0;
        type            epsilonWallFunction;
        value           nonuniform List<scalar> 
102
(
0.27549
0.27549
1.56035
0.338185
0.316047
0.769101
1.08525
0.270062
0.938928
0.617474
1.31102
0.360753
1.66456
0.257025
0.588816
1.2661
1.63245
2.26573
2.43986
2.39634
0.193793
0.520537
1.41824
0.576743
1.00573
1.43002
1.49579
0.422932
2.39619
1.72559
0.506525
0.330044
0.29306
0.331937
0.281257
1.65785
1.70885
1.6196
1.6636
0.382907
1.73812
1.68911
0.437263
0.490692
0.534126
0.554497
0.552818
0.883236
1.56784
1.23009
0.673354
1.20346
1.44945
1.24544
1.36713
0.711439
1.27239
1.30584
1.16449
0.870038
1.86836
0.144348
0.177724
0.302286
2.21919
0.433696
1.41473
1.52356
1.98963
0.745116
0.750611
1.79187
0.353478
2.14531
1.16912
0.991782
0.651084
1.22731
1.85674
0.863143
1.16031
0.291891
1.8074
2.13173
1.43059
0.685742
1.14132
2.01571
0.912904
0.785783
1.9144
0.50305
0.27292
0.174426
0.25024
1.08149
1.98374
0.632899
1.32406
0.266409
1.08334
1.73076
)
;
    }
    inlet
    {
        type            fixedValue;
        value           nonuniform 0();
    }
    outlet
    {
        type            zeroGradient;
    }
    wallInner
    {
        lowReCorrection 0;
        type            epsilonWallFunction;
        value           nonuniform List<scalar> 
138
(
0.210792
1.79819
0.794415
2.95853
7.14889
2.13146
29.53
1.44317
2.92512
1.67003
0.690962
0.753844
0.390436
7.24588
1.63088
0.886833
0.738728
1.14658
0.672458
1.93733
1.20633
0.26548
1.61444
1.00327
0.161203
1.52833
0.491126
1.2095
41.869
0.754778
1.37063
1.41959
0.857989
0.757666
0.638109
0.379744
0.717195
0.166172
0.63821
1.1369
0.900263
0.245534
0.761865
0.885502
0.911711
0.31918
0.286809
1.98565
0.49121
1.10012
0.733128
0.404908
0.481014
0.602109
0.0936396
1.83324
0.673325
1.09244
0.750009
1.85012
0.625736
0.465169
0.173306
0.64476
1.5809
0.219474
0.522307
1.81572
0.929768
0.918764
1.01572
0.547926
1.22631
0.168602
1.38353
1.68559
2.00962
0.794913
11.3022
2.83993
0.951734
0.645863
2.85175
0.918158
1.80936
1.98386
1.36302
2.01865
2.0831
3.51103
2.40784
0.947071
0.445987
1.86859
0.515817
0.777039
2.1545
0.979034
1.8518
0.62348
0.795726
0.267485
0.238267
0.370908
0.901468
1.1764
0.928676
0.188635
0.227544
0.335554
0.193426
1.10892
0.15933
0.719157
2.02259
0.766575
0.189176
0.500581
0.16835
1.60388
4.50715
2.61718
0.898365
0.559443
1.76883
0.391686
0.456414
0.902304
1.65063
0.601247
1.87329
1.3278
36.6577
3.71289
1.65007
1.73792
1.33295
7.62933
)
;
    }
    procBoundary2to0
    {
        type            processor;
        value           nonuniform List<scalar> 
42
(
16.0176
16.0176
0.849634
0.705731
1.17673
26.7333
1.10823
1.10823
0.956378
0.998138
2.15967
2.15967
1.5613
2.37439
2.39341
31.5916
2.65021
1.11396
0.908491
15.8179
20.0545
1.06928
1.06928
24.1293
20.0545
0.904195
31.149
0.395696
31.149
12.0788
5.27412
0.226582
0.235925
0.301882
0.427542
0.705731
2.65021
1.05732
34.7054
1.17088
1.17088
0.654644
)
;
    }
    procBoundary2to1
    {
        type            processor;
        value           uniform 13.9057;
    }
    procBoundary2to3
    {
        type            processor;
        value           nonuniform List<scalar> 
29
(
2.48768
1.91858
1.14616
1.39323
17.1335
2.07331
6.98249
1.9505
0.87425
0.94162
2.03894
15.2232
3.78877
3.52852
5.9878
4.15989
0.813088
0.813088
1.91858
3.52852
5.06753
0.901522
2.96025
0.841097
5.86771
1.01912
0.87425
12.9833
15.2232
)
;
    }
}


// ************************************************************************* //
