/*--------------------------------*- C++ -*----------------------------------*\
| =========                 |                                                 |
| \\      /  F ield         | OpenFOAM: The Open Source CFD Toolbox           |
|  \\    /   O peration     | Version:  v1912                                 |
|   \\  /    A nd           | Website:  www.openfoam.com                      |
|    \\/     M anipulation  |                                                 |
\*---------------------------------------------------------------------------*/
FoamFile
{
    version     2.0;
    format      ascii;
    class       volScalarField;
    location    "0.49";
    object      k;
}
// * * * * * * * * * * * * * * * * * * * * * * * * * * * * * * * * * * * * * //

dimensions      [0 2 -2 0 0 0 0];


internalField   nonuniform List<scalar> 
1466
(
0.0610347
0.0977985
0.0562501
0.0851971
0.115745
0.813535
0.0771399
0.185586
0.170785
0.276892
0.0218754
0.354428
0.0211493
0.0596932
0.0777032
0.0874225
0.0666153
0.107781
0.111423
0.0591158
0.12602
0.101622
0.0707917
0.080897
0.059745
0.0664212
0.0994932
0.23897
0.0549667
0.132423
0.164507
0.936638
0.112939
0.202198
0.0938086
0.0863981
0.0627346
0.0826207
1.43412
0.10667
0.341474
0.275421
0.167608
0.174314
0.279091
0.202499
0.0773022
0.0912965
0.282966
0.115483
0.0476139
0.2411
0.10577
0.608304
0.0838191
0.388682
0.0650878
0.12543
0.15091
0.426663
0.0728434
0.137645
0.149927
0.784105
0.123731
0.0790055
0.359963
0.134607
0.0570135
0.0890994
0.0409252
0.0702093
0.0776171
0.0760258
0.0239602
0.298742
0.0750896
0.0886919
0.0595001
0.342958
0.050413
0.0747564
0.0845018
0.278375
0.0594402
0.0887923
0.0372621
0.16602
0.0692575
0.0951569
0.084074
0.0870412
0.290946
0.0623815
0.0477846
0.134847
0.0902166
0.170772
0.0934031
0.0870886
0.0562111
0.30672
0.0578248
0.0528012
0.0741128
0.196315
0.135878
0.0830363
0.0823389
0.0612689
0.114979
0.0597595
0.120923
0.0897028
0.0244732
0.251005
0.0458358
0.0537029
0.095836
0.12275
0.12961
0.0834946
0.0337122
0.152654
0.0662068
0.195138
0.0661177
0.0490908
0.295922
0.118914
0.236648
0.0768462
0.0589923
0.342736
0.0517128
0.29523
0.271952
0.0484474
0.220194
0.0749323
0.2533
0.0844442
0.231913
0.2272
0.24765
0.0535834
0.048756
0.0610383
0.260147
0.0755706
0.27208
0.0878045
0.0930981
0.104956
0.0792571
0.0608668
0.0690144
0.278229
0.109053
0.0630266
0.290386
0.0856776
0.0921974
0.133117
0.316147
0.264023
0.110459
0.0595523
0.0686911
0.0994263
0.116834
0.080254
0.0738048
0.227799
0.0790784
0.123239
0.330678
0.39434
0.070847
0.338354
0.0887205
0.0818852
0.294798
0.0693494
0.147398
0.0546926
0.0957214
0.378924
0.093075
0.0447014
0.0815006
0.0585815
0.0818513
0.120067
0.0732923
0.0719641
0.238257
0.0661496
0.0601002
0.0566344
0.147221
0.0589365
0.0792686
0.0700823
0.0906248
0.353023
0.0904715
0.210611
0.0765029
0.0996815
0.0861635
0.168908
0.0734606
0.0827967
0.0953641
0.0965697
0.0364344
0.0241098
0.0590358
0.0730005
0.0402308
0.0858922
0.0708515
0.0836608
0.18573
0.0857024
0.0550825
0.096778
0.086377
0.130957
0.0701485
0.169001
0.070085
0.13413
0.0826573
0.0839494
0.139195
0.164715
0.172236
0.0659344
0.149775
0.214465
0.0876654
0.273975
0.345202
0.0593905
0.0200062
0.0799422
0.0365899
0.0674555
0.0746596
0.193334
0.336533
0.163
0.0664436
0.192772
0.0617654
0.114986
0.649174
0.352826
0.0856632
0.0894758
0.190844
0.0606897
0.800044
0.0842185
0.203871
0.126536
0.0632214
0.0702902
0.168879
0.0876617
0.0594802
0.0629723
0.0875384
0.185031
0.102533
0.0666604
0.0554612
0.353279
0.0723903
0.0490136
0.0738738
0.0603505
0.0670427
0.0457993
0.106481
0.0868854
0.153608
0.0772271
0.0836681
0.24439
0.112452
0.301844
0.367932
0.0870975
0.368299
0.318396
0.0993937
0.0435515
0.101566
0.221555
0.0621317
0.113275
0.0812428
0.0699447
0.0591354
0.197059
0.0412565
1.32087
0.14678
0.0498241
0.0580058
0.267323
0.295244
0.0597018
0.117862
0.0586699
0.255445
0.0810025
0.0774572
0.253831
0.30198
0.0510657
0.0471569
0.0450336
0.0324235
0.0507571
0.0194168
0.0494664
0.0618768
0.0531156
0.0250446
0.0548342
0.0515387
0.0525469
0.0239451
0.0313276
0.07959
0.0403092
0.0709543
0.0543322
0.0322252
0.0370267
0.0491149
0.0138281
0.0909266
0.0471042
0.0930167
0.138247
0.411537
0.0854422
0.427337
0.180316
0.17856
0.0581502
0.130438
0.0648583
1.46303
0.111206
0.155266
0.293394
0.232262
0.0552928
0.0860088
0.0517824
0.0363791
0.0200785
0.0518099
0.093408
0.0239267
0.0397453
0.0900775
0.053016
0.0520242
0.0561343
0.0396492
0.309201
0.0665731
0.065798
0.0411545
0.208787
0.136917
0.0547811
0.148761
0.111412
0.104986
0.0649839
0.117366
0.105465
0.1278
0.147735
0.175935
0.258334
0.0514267
0.0651847
0.202795
0.0370151
0.0708484
0.0170319
0.0687031
0.030234
0.185835
0.0788645
0.282805
0.0729156
0.214349
1.097
0.0821145
0.0949069
0.0674978
0.161234
0.0782236
0.0879422
0.168743
0.170006
0.207339
0.157614
0.118065
0.139896
0.158595
0.0556139
0.114149
0.103726
0.114353
0.116182
0.102851
0.111219
0.0995518
0.105115
0.123055
0.0640874
0.194533
0.290163
0.337786
0.29901
0.145527
0.177183
0.136556
0.121091
0.11179
0.113227
0.233184
0.128501
0.116252
0.13834
0.136092
0.139365
0.271694
0.129383
0.342139
0.169334
0.138088
0.181771
0.117884
0.144308
0.162786
0.187456
0.054056
0.117563
0.101949
0.190891
0.181085
0.134067
0.214773
0.0440043
0.263404
0.0640515
0.121696
0.108152
0.250216
0.133376
0.120991
0.150395
0.913652
0.159843
0.0528159
0.0823972
0.119831
1.38197
0.119772
0.0684958
1.10913
0.0790817
0.13555
0.108493
0.081647
0.0498785
0.98592
0.303048
0.137645
0.0876625
0.0928913
0.0500387
0.103616
0.121189
1.40004
0.0969078
0.070899
0.0914076
0.0688895
0.0808725
0.0964203
0.147427
0.0485566
0.196051
0.269744
0.117041
0.136083
0.116204
0.119246
0.137354
0.114274
0.119061
0.130743
0.110916
0.0596544
0.0861821
0.158688
0.134287
0.157176
0.202804
0.130451
0.155149
0.102101
0.107122
0.177128
0.0704884
0.0620576
0.0470519
0.0732211
0.224619
0.11416
0.123664
0.125452
0.0827629
0.365882
0.200978
0.101611
0.0947526
0.141957
0.15931
0.156632
0.147606
0.111609
0.13123
0.0354621
0.251406
0.179928
0.0562324
0.0798324
0.0725545
0.19903
0.220346
0.243682
0.186709
0.116185
0.0605938
0.200603
0.135418
0.0684493
0.16075
0.254363
0.259299
0.260063
0.458309
0.0743965
0.0936511
0.118266
0.260514
0.0711841
0.143687
0.126158
0.31157
0.0418837
0.140133
0.107547
0.0419505
0.116658
0.129987
0.248222
0.0970686
0.209694
0.208806
0.0726441
0.593162
0.161438
0.0744763
0.260626
0.133016
0.0387432
0.0501974
0.242296
0.0510595
0.0475804
0.0798944
0.266014
0.335279
0.239107
0.221044
0.263087
0.0522794
0.077481
0.0397564
0.0491925
0.161289
0.204242
0.0663733
0.173359
0.255932
0.354362
0.199946
0.115218
0.674168
0.051794
0.0364582
0.221335
0.0713971
0.100197
0.0573289
0.0683267
0.0777019
0.0966695
0.440649
0.0653065
0.156904
0.14592
0.0916854
0.0926014
0.265942
0.188234
0.254332
0.0487178
0.0555725
0.232855
0.41314
0.208456
0.19687
0.0472115
0.0726321
0.104959
0.0500508
0.0652636
0.126528
0.0311887
0.388162
0.0410439
0.181177
0.251315
0.111399
0.0993658
0.26812
0.456115
0.157223
0.106348
0.175592
0.144649
0.175124
0.109758
0.0450913
0.0936009
0.214376
0.340571
0.106333
0.124472
0.23542
0.166697
0.130452
0.258997
0.399724
0.102229
0.0767996
0.073348
0.0378821
0.0425016
0.0496341
0.137576
0.230605
0.0617839
0.133309
0.0639814
0.0654085
0.0225348
0.0431839
0.223993
0.0393001
0.169089
0.0588713
0.0255559
0.112862
0.0788162
0.0924581
0.122692
0.111907
0.300337
0.0695922
0.425484
0.101907
0.329542
0.204158
0.118459
0.0429192
0.476072
0.0722577
0.188226
0.0855756
0.203156
0.281393
0.121782
0.0517897
0.0680114
0.022758
0.180369
0.0526879
0.0740904
0.0882119
0.474484
0.258075
0.0819254
0.118238
0.219049
0.198561
0.0861826
0.25067
0.18847
0.0837944
0.219655
0.0745771
0.0884932
0.208369
0.130746
0.0912838
0.14737
0.0486789
0.0383545
0.175383
0.0595246
0.0290479
0.0353054
0.325851
0.0550145
0.0690752
0.0213107
0.0326485
0.0547487
0.121462
0.0612047
0.0467403
0.0341504
0.404733
0.037485
0.0844932
0.0522963
0.289289
0.229625
0.0904568
1.11421
0.12043
0.0407775
0.0601228
0.0886437
0.0584279
0.351526
0.0613625
0.0608962
0.10911
0.116
0.0877866
0.0369621
0.0384898
0.163157
1.04391
0.0654499
0.0204462
0.418114
0.152011
0.0842468
0.416533
0.0968323
0.114959
1.5792
0.0821803
0.0319943
0.0599597
0.389663
0.246848
0.0628549
0.131943
0.0530638
0.0508038
0.0841428
0.0598815
0.062156
0.0670313
0.0988528
0.121247
0.642118
0.0597722
0.117445
0.0388165
0.0564931
0.223973
0.0720594
0.043819
0.0388658
0.020089
0.1562
0.0686088
0.0572283
0.181143
1.45585
0.0229447
0.121711
0.170173
0.0687612
0.131685
0.0584988
0.0297982
0.0893369
0.126012
1.65982
0.0629638
0.196664
0.185945
0.0592346
0.0615956
0.0699507
0.0844584
0.0862724
0.0534245
0.0703372
0.160732
0.0599423
0.022809
0.0615332
0.0763749
0.191913
0.334164
0.0519591
0.0651162
0.017867
0.101898
0.26511
0.115753
0.053029
0.171868
0.459032
0.440327
0.174071
0.17357
0.117272
0.239329
0.232625
0.177637
0.0273769
0.0492265
0.116012
0.0484687
0.038306
0.0880184
0.152978
0.0435574
0.316305
0.111355
0.0766271
0.0605731
0.0591814
0.104782
0.209816
0.0550016
0.0714612
0.0899013
0.170347
0.175384
0.0355857
0.077015
0.0731933
0.149134
1.3553
0.179598
0.0766119
0.0442711
0.0620538
0.0688753
0.0600922
0.0351102
0.0926562
0.191034
0.189684
0.129683
0.229958
0.0761983
0.0474976
0.0909983
0.0786372
0.230226
0.0522881
0.0774031
0.123022
0.1723
0.0843716
0.0800749
0.144174
0.125422
0.192603
0.0442302
0.0808475
0.0808227
0.423466
0.0500081
0.0931968
0.0333254
0.150718
0.0647722
0.211496
0.0300897
0.301285
0.074716
0.144509
0.0937537
0.123969
0.0673967
0.119279
0.258846
0.195282
0.0670783
0.128318
0.107097
0.178871
0.0761642
0.0704019
0.162011
0.228842
0.155058
0.0194312
0.243702
0.0909742
0.180753
0.104848
0.0230369
0.0208037
0.020551
0.0195812
0.0651696
0.062088
0.065024
0.0634275
0.0257728
0.0627053
0.0630236
0.0283635
0.0305254
0.0319084
0.0830943
0.032107
0.0317797
0.32557
0.0392438
0.339066
0.043821
0.0627739
0.305758
0.120269
0.101557
0.0593728
0.0185946
0.174816
0.0575603
0.0505436
0.108137
0.0567502
0.211403
0.0408547
0.0512933
0.129406
0.0561136
0.0785072
0.0644218
0.0619382
0.0877591
0.187797
0.110543
1.01641
0.163799
0.121124
0.0454351
0.260669
0.129822
0.0612369
0.122605
0.086752
0.261888
0.0575721
0.0608619
0.146284
0.049256
0.0384716
0.310766
0.122936
0.239665
0.058521
0.0596138
0.122918
0.122747
0.406018
0.068791
0.0795593
0.244643
0.0890017
0.07636
0.124431
0.0544264
0.0517828
0.23358
0.0746708
0.169992
0.0775174
0.0714592
0.119445
0.15215
0.0688802
0.0663249
0.139411
0.108986
0.171171
0.267171
0.0795548
0.216684
0.098594
1.22215
0.106978
0.0386684
0.185296
0.0820605
0.0444598
0.170005
0.185149
0.0137969
0.152477
0.105726
1.216
0.0155282
0.0607117
0.117551
0.197656
0.187493
0.0890215
0.0235177
0.18214
0.0760706
0.0822684
0.0511146
0.0340051
0.172146
0.0841161
0.129085
0.31476
0.0485696
0.0672344
0.129553
0.225589
0.0920106
0.0486554
0.0275082
0.0654125
0.114632
0.0678103
0.281239
0.207356
0.358509
0.100562
0.0698297
0.0702839
0.107574
0.378598
0.109713
0.23873
0.191202
0.0489
0.0355423
0.0881738
0.068683
0.0826302
0.148876
0.0449332
0.325758
0.245825
0.291583
0.0375724
0.080813
0.120557
0.13387
0.0937847
0.258521
0.074455
0.0441097
0.0740178
0.0913718
0.275614
0.0748646
0.0486778
0.0754915
0.0937566
0.122532
0.0828314
0.0276696
0.0243615
0.0821409
0.175128
0.0555773
0.100214
0.198551
0.0886475
0.0834943
0.123492
0.0510804
0.0610312
0.0873717
0.0726181
0.160536
0.0365148
0.0328802
0.195679
0.0556428
0.0535179
0.0362018
0.091663
0.0516373
0.0854182
0.1012
0.0298581
0.0853527
0.0588946
0.186608
0.0327139
0.0899482
0.145304
0.0453496
0.286296
0.0405893
0.0550599
0.162316
0.170563
0.127322
0.0921253
0.155194
0.0218668
0.0769469
0.197499
0.0337727
0.0619557
0.0465429
0.067889
0.0848827
0.0678611
0.131729
0.0717273
0.0355568
0.0973786
0.0551555
0.0402039
0.132619
0.194837
0.0717621
0.203582
0.0579447
0.0837086
0.0794492
0.0500438
0.0446175
0.0358311
0.0689604
0.21779
0.0514004
0.0536277
0.139583
1.09789
0.0828224
0.0667723
0.121766
0.0420513
0.241044
0.0859244
0.0650123
0.064213
0.0450336
0.117719
0.0851298
0.119962
0.0946221
0.0945022
0.0743709
0.0823627
0.0488263
0.0653844
0.645929
0.115597
0.146169
0.0422389
0.140782
0.0709103
0.0577056
0.230766
0.077703
0.0716125
0.132687
0.0729888
0.25889
0.0377898
0.237869
0.162961
0.0709047
0.0377395
0.0672988
0.245511
0.0771418
0.177833
0.195557
0.153794
0.0848371
0.0777749
0.0926609
0.0901401
0.0962106
0.0301157
0.076265
0.0407132
0.48331
0.133603
0.0804741
0.0590479
0.12376
0.0414735
0.0643006
0.0524173
0.17847
0.0514827
0.211161
0.0757774
0.0533854
0.0907614
0.077345
0.237912
0.258562
0.148639
0.32042
0.0619023
0.0928563
0.0496616
0.124093
0.114877
0.92897
0.109912
0.32999
0.180696
0.100585
0.0824104
0.177828
0.196185
0.038416
0.08893
0.0933673
0.0719964
0.224451
0.152434
0.0943052
0.0864713
0.110018
0.0577894
0.0234761
0.0847481
0.131925
0.29552
0.0219898
0.721128
0.143575
0.161841
0.133201
0.0712478
0.0812487
0.0489144
0.104578
0.120748
0.678623
0.0711516
0.0612268
0.148072
0.157387
0.0634549
0.0694728
0.160989
0.970678
0.131293
0.0554237
0.182316
0.191391
0.17618
0.0216653
0.186716
0.101246
0.122886
0.321672
0.0153088
0.104458
0.038514
0.125302
0.126292
0.300534
0.0157303
0.107681
0.385621
0.0970739
0.0993892
0.052569
0.0563811
0.197878
0.0579955
0.119621
0.0535642
0.194231
0.0530284
0.110075
0.132605
0.0830104
0.287357
0.154004
0.0389196
0.0787326
0.0973012
0.229255
0.0924275
0.22059
0.0582054
0.127089
0.125109
0.0779082
0.216121
0.0756138
0.0766765
0.0819575
0.084353
0.123773
0.0339001
0.0691544
0.102673
0.0566195
0.0960206
0.0564296
0.0759537
0.0678344
0.193626
0.0638557
0.16192
0.0714753
0.0882862
0.112337
0.13134
0.103529
0.0401339
0.225514
0.057409
0.133979
0.0561164
0.0569386
0.0268061
0.0733455
0.050913
0.156173
0.292807
0.0210438
0.0571223
0.114836
0.0639578
0.118039
0.0493707
0.127011
0.068088
0.177775
0.0629974
0.056119
0.0728499
0.0658382
0.172258
0.0836567
0.122704
0.094877
0.0745901
0.233207
0.0879704
0.173652
0.0743825
0.131032
0.0590811
0.0750605
0.0753863
0.0189963
0.0621521
0.0792804
0.134996
0.034838
0.302582
0.290331
0.245928
0.0589562
0.122623
0.124143
0.0283658
0.0756958
0.0897535
0.172255
0.0937894
0.0617194
0.0825653
0.076371
0.0928764
0.0901902
0.0798784
0.117684
0.571461
0.122344
0.839431
0.0648326
0.0984167
0.0646526
0.0763184
0.144184
0.163845
0.0923133
0.0591647
0.0708009
0.0891826
0.0626579
0.0747616
0.0624142
0.0917019
0.0650928
0.132741
0.0560521
0.137301
0.104496
0.0976418
0.218278
0.0737285
0.131588
0.140542
0.0547039
0.0940632
0.173032
0.0863764
0.0890212
0.182899
0.0216592
0.14869
0.180547
0.192182
0.0614261
0.216877
0.175024
0.0526262
0.663265
0.168318
0.224564
0.080311
0.0823816
0.0854585
0.244678
)
;

boundaryField
{
    frontAndBack
    {
        type            empty;
    }
    wallOuter
    {
        type            kqRWallFunction;
        value           nonuniform List<scalar> 
102
(
0.0211493
0.0211493
0.0707917
0.0239602
0.0244732
0.0412565
0.0514267
0.0225348
0.0486789
0.0383545
0.0595246
0.0290479
0.0690752
0.0213107
0.0326485
0.0547487
0.0612047
0.0844932
0.0886437
0.0877866
0.0204462
0.0319943
0.0599597
0.0388165
0.0564931
0.0592346
0.0615956
0.0273769
0.0880184
0.0647722
0.0300897
0.0230369
0.0208037
0.020551
0.0195812
0.0651696
0.062088
0.065024
0.0634275
0.0257728
0.0627053
0.0630236
0.0283635
0.0305254
0.0319084
0.032107
0.0317797
0.043821
0.0627739
0.0567502
0.0408547
0.0561136
0.0619382
0.0575721
0.0608619
0.0384716
0.058521
0.0596138
0.0544264
0.0517828
0.0820605
0.0137969
0.0155282
0.0235177
0.0841161
0.0275082
0.0698297
0.068683
0.0826302
0.0441097
0.0486778
0.0754915
0.0243615
0.0821409
0.0555773
0.0510804
0.0365148
0.0535179
0.0854182
0.0453496
0.0550599
0.0218668
0.0678611
0.0717273
0.0717621
0.0358311
0.0536277
0.064213
0.0488263
0.0407132
0.0577894
0.0234761
0.0216653
0.0153088
0.0157303
0.052569
0.0779082
0.0339001
0.0566195
0.0210438
0.0493707
0.068088
)
;
    }
    inlet
    {
        type            fixedValue;
        value           nonuniform 0();
    }
    outlet
    {
        type            zeroGradient;
    }
    wallInner
    {
        type            kqRWallFunction;
        value           nonuniform List<scalar> 
138
(
0.0218754
0.0666153
0.0549667
0.132423
0.2411
0.10577
0.608304
0.0838191
0.137645
0.0870412
0.0562111
0.0528012
0.0337122
0.2533
0.0844442
0.0535834
0.048756
0.0595523
0.0447014
0.0815006
0.0585815
0.0241098
0.0876654
0.0593905
0.0200062
0.0799422
0.0365899
0.0674555
0.800044
0.0490136
0.0738738
0.0868854
0.0510657
0.0471569
0.0450336
0.0324235
0.0507571
0.0194168
0.0494664
0.0618768
0.0531156
0.0250446
0.0548342
0.0515387
0.0525469
0.0239451
0.0313276
0.07959
0.0403092
0.0709543
0.0543322
0.0322252
0.0370267
0.0491149
0.0138281
0.0909266
0.0471042
0.0648583
0.0552928
0.0860088
0.0517824
0.0363791
0.0200785
0.0518099
0.093408
0.0239267
0.0397453
0.0900775
0.053016
0.0520242
0.0561343
0.0396492
0.065798
0.0170319
0.0687031
0.0782236
0.0879422
0.0556139
0.337786
0.11179
0.054056
0.0440043
0.108152
0.0528159
0.0823972
0.103616
0.070899
0.0914076
0.0964203
0.155149
0.102101
0.0620576
0.0354621
0.107547
0.0387432
0.0501974
0.0966695
0.0555725
0.106333
0.0425016
0.0496341
0.0255559
0.022758
0.0353054
0.0550145
0.0654499
0.0508038
0.020089
0.0229447
0.0297982
0.022809
0.0651162
0.017867
0.0484687
0.0899013
0.0442302
0.0194312
0.0392438
0.0185946
0.07636
0.139411
0.108986
0.0444598
0.0355423
0.074455
0.0328802
0.0337727
0.0465429
0.0837086
0.0420513
0.0848371
0.0756958
0.663265
0.168318
0.080311
0.0823816
0.0854585
0.244678
)
;
    }
    procBoundary2to0
    {
        type            processor;
        value           nonuniform List<scalar> 
42
(
1.12376
1.12376
0.0974105
0.0758277
0.165369
1.52217
0.126131
0.126131
0.142629
0.130253
0.277872
0.277872
0.21134
0.304163
0.307143
1.62769
0.318665
0.127464
0.134447
0.799833
0.86676
0.116616
0.116616
0.866232
0.86676
0.0942454
1.34662
0.0554591
1.34662
0.94163
0.517342
0.0442525
0.0484284
0.0572555
0.0718395
0.0758277
0.318665
0.0555385
1.66014
0.139455
0.139455
0.0955429
)
;
    }
    procBoundary2to1
    {
        type            processor;
        value           uniform 0.763679;
    }
    procBoundary2to3
    {
        type            processor;
        value           nonuniform List<scalar> 
29
(
0.205542
0.200748
0.0733247
0.0753624
0.488477
0.115673
0.257333
0.192738
0.113077
0.113611
0.172563
0.707859
0.16774
0.312988
0.360857
0.365804
0.0931565
0.0931565
0.200748
0.312988
0.354982
0.0932428
0.115246
0.109148
0.275433
0.0894862
0.113077
0.758192
0.707859
)
;
    }
}


// ************************************************************************* //
