/*--------------------------------*- C++ -*----------------------------------*\
| =========                 |                                                 |
| \\      /  F ield         | OpenFOAM: The Open Source CFD Toolbox           |
|  \\    /   O peration     | Version:  v1912                                 |
|   \\  /    A nd           | Website:  www.openfoam.com                      |
|    \\/     M anipulation  |                                                 |
\*---------------------------------------------------------------------------*/
FoamFile
{
    version     2.0;
    format      ascii;
    class       volScalarField;
    location    "0.49";
    object      nut;
}
// * * * * * * * * * * * * * * * * * * * * * * * * * * * * * * * * * * * * * //

dimensions      [0 2 -1 0 0 0 0];


internalField   nonuniform List<scalar> 
1466
(
0.000599084
0.000866289
0.000765647
0.000591698
0.00106499
0.00219738
0.000518956
0.00159504
0.00263843
0.0013252
0.000204315
0.00233814
0.000146126
0.000533453
0.000975526
0.000694437
0.000222103
0.000967481
0.00111577
0.000551868
0.00153099
0.00115111
0.000289059
0.00074487
0.000570493
0.000988829
0.00138025
0.00232547
0.00034229
0.000533446
0.00172266
0.00435571
0.00134539
0.00203119
0.00102526
0.00108538
0.000587936
0.000532029
0.00675765
0.00108007
0.00261976
0.00246206
0.00261429
0.0021
0.00262405
0.00272976
0.000667589
0.000568756
0.00250524
0.00135808
0.000682354
0.00073181
0.000472379
0.00112777
0.000438137
0.00229698
0.000452625
0.00150904
0.00156716
0.00249377
0.000583735
0.000582931
0.00129886
0.00284014
0.00121353
0.000741064
0.00215612
0.00164205
0.000491806
0.00076654
0.000500657
0.000585236
0.000473399
0.000677539
0.000152781
0.00262746
0.000675442
0.00082038
0.000555924
0.00187223
0.000433137
0.000618755
0.00110851
0.00252803
0.000487651
0.000946392
0.000419982
0.00158873
0.000718997
0.000952228
0.00065693
0.000408289
0.00193526
0.00046049
0.000676832
0.00133601
0.000830479
0.00163435
0.000881848
0.000681023
0.00041156
0.00280447
0.000814342
0.00033285
0.000902318
0.00279496
0.00164575
0.00110158
0.000876675
0.000661257
0.00135748
0.00060638
0.00127231
0.000589245
0.000170558
0.0022519
0.000297149
0.000435085
0.0009352
0.00183672
0.00137761
0.000898653
0.000261979
0.00142323
0.000727053
0.00211512
0.000831288
0.000364996
0.00219518
0.00200043
0.00246395
0.000677566
0.000792605
0.00205706
0.000630212
0.00166994
0.00245306
0.00065098
0.00176662
0.000397227
0.000796931
0.000393515
0.00229039
0.00211106
0.00223888
0.000291381
0.000289611
0.000605878
0.00113253
0.000500019
0.00238363
0.00096508
0.000963113
0.00103484
0.000702041
0.000974876
0.000611541
0.00288928
0.000998107
0.00068086
0.00273308
0.000735657
0.000921561
0.00137621
0.00277831
0.00163861
0.00205592
0.000278379
0.000678599
0.00131996
0.00110305
0.000850941
0.00086419
0.00100447
0.00112597
0.00115827
0.00275562
0.00226914
0.000884665
0.00204312
0.000906992
0.00109935
0.00267363
0.000728993
0.00138806
0.000462134
0.00131166
0.00281659
0.00120444
0.000267436
0.000308575
0.000256033
0.000750299
0.00117797
0.000898902
0.000641653
0.00159777
0.000759018
0.000696006
0.000590781
0.00175501
0.000798621
0.00102902
0.000693972
0.000949955
0.00273609
0.00124865
0.00253043
0.000947773
0.000822871
0.000897542
0.00187771
0.000818561
0.000701527
0.000912295
0.00129001
0.000618787
0.00019706
0.000522898
0.000636768
0.000601671
0.000932533
0.000679515
0.000678823
0.00106479
0.000705203
0.000542129
0.000846806
0.000828869
0.00214138
0.00079055
0.00164388
0.000667869
0.0018918
0.0010592
0.000868153
0.00195393
0.00107672
0.00214678
0.000653935
0.0023625
0.00233255
0.000428427
0.00246794
0.00273754
0.000316417
0.000223461
0.000376337
0.000245343
0.000338588
0.000657717
0.00309449
0.0027242
0.0015927
0.000683045
0.0030925
0.000700717
0.00216831
0.00465706
0.00271676
0.0007749
0.000673436
0.00293506
0.000714813
0.00137587
0.000869208
0.00289057
0.00167056
0.000800227
0.000607299
0.00273636
0.000927494
0.000826686
0.000712389
0.000620707
0.0020498
0.00107107
0.000706117
0.000488387
0.00273145
0.000779954
0.000286455
0.000358346
0.000640753
0.000906872
0.000824526
0.00118096
0.000478601
0.00198619
0.000495194
0.000722221
0.00279964
0.00150304
0.00229879
0.00287703
0.00100331
0.00224643
0.00300784
0.000998317
0.000387567
0.000702326
0.00252353
0.000666955
0.00150159
0.000891106
0.000928265
0.00087667
0.0022924
0.000199179
0.0074637
0.00219739
0.000675158
0.000845337
0.0010304
0.00264797
0.000727883
0.00144974
0.000840581
0.00191457
0.000831976
0.000740856
0.00134526
0.00277725
0.000273539
0.000264153
0.000286037
0.000249157
0.000323295
0.000204192
0.000345063
0.000303093
0.000282044
0.000229911
0.000355196
0.000269973
0.000272571
0.000161674
0.000307967
0.000287116
0.000297703
0.000411869
0.00036239
0.000230822
0.000256515
0.000360574
0.000183783
0.000405887
0.000296577
0.000676382
0.00190413
0.00294188
0.000843588
0.00294669
0.00212998
0.00217909
0.000746028
0.00147534
0.000346557
0.00760072
0.00120975
0.00196672
0.00151606
0.00136942
0.000366871
0.000359855
0.00038567
0.000256057
0.000209359
0.000374688
0.000496712
0.000234761
0.0002722
0.000402185
0.000272071
0.000265124
0.000279207
0.000258219
0.00352362
0.000634062
0.000317737
0.000672929
0.00083997
0.00196038
0.000695866
0.000976937
0.00125478
0.000812282
0.000856325
0.0017417
0.000933801
0.0014004
0.00257509
0.00124783
0.00319631
0.000219325
0.000802164
0.00132996
0.000586913
0.000776446
0.000154847
0.000307048
0.000581415
0.00146727
0.000907231
0.00259129
0.001071
0.00222896
0.00662291
0.00125076
0.00100456
0.000865647
0.00137462
0.000326712
0.000346356
0.00260055
0.00211251
0.00248836
0.00260954
0.00127468
0.00171753
0.00257695
0.000350179
0.00161282
0.00148246
0.00174913
0.00179683
0.00128634
0.0015087
0.0014078
0.00127166
0.00167341
0.000795595
0.00245489
0.00327349
0.000908578
0.00353267
0.00227862
0.00196379
0.00113403
0.00139069
0.000396042
0.000966157
0.00230401
0.00113439
0.00123762
0.0021355
0.00180799
0.00192106
0.00310627
0.00216467
0.00327971
0.00245176
0.000899567
0.00278141
0.0018416
0.000983918
0.00209979
0.00243715
0.000276322
0.00174393
0.00165315
0.00258187
0.00268983
0.00221605
0.00217008
0.000269831
0.00334247
0.000824869
0.00149486
0.000369146
0.00306215
0.00111671
0.00182271
0.000976695
0.00405785
0.00186661
0.000273435
0.000337709
0.00152061
0.00612548
0.0012906
0.000941061
0.00476437
0.00125629
0.00186648
0.0011115
0.00127765
0.00058939
0.00375909
0.00202972
0.00210908
0.000884246
0.00141665
0.000542609
0.000487061
0.00189681
0.00587576
0.00141402
0.00033191
0.000372516
0.000845745
0.00124254
0.000401671
0.00115448
0.000534238
0.0016317
0.00214095
0.00135624
0.00231073
0.00127225
0.00177728
0.00223691
0.00164243
0.0014742
0.000889604
0.00152982
0.000747337
0.00132839
0.00252155
0.00216684
0.00243949
0.00291355
0.00131427
0.000617029
0.000389648
0.000969137
0.00187574
0.000699369
0.000365974
0.000557431
0.00108502
0.00149019
0.00164063
0.00204406
0.00121736
0.00103335
0.00308711
0.00260406
0.00112122
0.000724946
0.00178162
0.00234452
0.00195916
0.00207022
0.00154377
0.000999357
0.000253775
0.00318668
0.00265033
0.000809645
0.00117434
0.000785844
0.00276541
0.00216164
0.00169728
0.00227343
0.00148743
0.000717265
0.00269626
0.00158384
0.000892016
0.00136505
0.00191756
0.00308928
0.00235921
0.00270906
0.000800726
0.000919478
0.00189789
0.00304779
0.000572322
0.00183395
0.00212972
0.00289855
0.000555636
0.00241038
0.000557091
0.000526466
0.00184812
0.00225174
0.00238193
0.000823704
0.00263149
0.00154504
0.000668186
0.00483202
0.00253061
0.00105525
0.00304507
0.00230463
0.000261902
0.000291852
0.00211155
0.000872697
0.000763391
0.00116795
0.00127555
0.00257093
0.00316709
0.0016898
0.00299689
0.00083637
0.00108
0.000690321
0.000756955
0.00259779
0.00284054
0.000905786
0.00261875
0.00266421
0.00235857
0.00143359
0.00211234
0.00478381
0.000616222
0.000554103
0.00308161
0.000632495
0.00143528
0.000931038
0.000911039
0.0010179
0.000390368
0.00300249
0.000859325
0.00263669
0.00186588
0.00093275
0.00128381
0.00335079
0.00294501
0.00277096
0.000854855
0.0002839
0.00113509
0.00258182
0.00118119
0.0027994
0.000848643
0.000995527
0.00145851
0.000793401
0.000490706
0.00135832
0.000612719
0.00304453
0.000758492
0.0021964
0.0026758
0.00151996
0.000884695
0.00319784
0.00286096
0.00218809
0.00113511
0.00238352
0.00235794
0.00164398
0.00145342
0.000763234
0.00074101
0.0030038
0.00305057
0.000549527
0.00214108
0.00316442
0.00281361
0.00162256
0.00326931
0.00293755
0.00130673
0.000748488
0.00103444
0.000633972
0.000260753
0.000278637
0.00185872
0.00312984
0.000771422
0.00126253
0.00102679
0.000850221
0.000169234
0.000795349
0.00231144
0.000621118
0.00250456
0.000900088
0.000219749
0.00115941
0.000714949
0.00113871
0.0011254
0.00111527
0.00318157
0.000849669
0.00294095
0.00106473
0.00281092
0.00227503
0.00191565
0.000766752
0.00301154
0.00118954
0.00214694
0.000929359
0.00229668
0.00338441
0.00203388
0.000928889
0.000887492
0.000195635
0.00105919
0.000877377
0.000990989
0.000733887
0.00296335
0.00289453
0.000990707
0.00158763
0.00212889
0.00281632
0.00129094
0.00212542
0.00283949
0.000761985
0.00230661
0.000756754
0.00133731
0.0017876
0.00237423
0.000984144
0.00159371
0.000227139
0.000214416
0.00248984
0.000243235
0.000210504
0.000302452
0.00336872
0.000302166
0.00025798
0.000159024
0.000162925
0.00021307
0.00131479
0.000206525
0.000780367
0.000458991
0.00299185
0.000534245
0.000283582
0.000553652
0.00260748
0.00200576
0.000847442
0.00659421
0.00205502
0.000591571
0.000690367
0.000289849
0.000731239
0.00286014
0.000768299
0.000689953
0.00204159
0.00111551
0.000289435
0.000578905
0.000518728
0.00251923
0.00364503
0.000327723
0.000194146
0.00291755
0.0016347
0.000884485
0.00295298
0.000902354
0.0018677
0.00737827
0.00130556
0.000176985
0.000228145
0.00276452
0.00246777
0.000816554
0.00124524
0.000858851
0.000250132
0.000658662
0.000769906
0.000894724
0.000700481
0.000733535
0.00183053
0.00433678
0.000851237
0.00161894
0.000235122
0.000285595
0.00191174
0.00100669
0.000612243
0.000612668
0.000192548
0.00181715
0.000610494
0.000683014
0.00284645
0.00766567
0.00020823
0.0012923
0.00194231
0.00067726
0.00221812
0.000530636
0.000238155
0.000740918
0.00217222
0.00744044
0.000778168
0.00310432
0.00230959
0.000220826
0.000228282
0.000681866
0.0008188
0.000874717
0.000601339
0.000848445
0.00186112
0.000693859
0.000242069
0.000733608
0.000629942
0.00238969
0.00278323
0.000476976
0.00034413
0.000180322
0.0010114
0.00252339
0.00208931
0.000827509
0.0024266
0.00290074
0.00284661
0.00287983
0.00235375
0.00176084
0.00228746
0.00184946
0.00225449
0.000159493
0.000569556
0.00151305
0.000293996
0.000462638
0.000290983
0.00246813
0.000730128
0.00355491
0.00107699
0.00102642
0.000884399
0.000544289
0.00106081
0.0025918
0.000577164
0.00105864
0.000359639
0.00203773
0.00227864
0.000455223
0.000761427
0.000658374
0.00151903
0.00734219
0.00287413
0.000649683
0.000684408
0.00100145
0.000946229
0.000571941
0.000434288
0.000872294
0.00237432
0.00303542
0.00142102
0.00241468
0.000800503
0.000564223
0.000626492
0.00114289
0.00162682
0.000823911
0.00113201
0.00160112
0.00154586
0.00091344
0.00128994
0.00128892
0.00137885
0.00272618
0.000229681
0.00093859
0.000915393
0.00282317
0.000841206
0.000872001
0.000426787
0.00251912
0.000218818
0.00211725
0.000160871
0.00194028
0.00071994
0.00142742
0.000966337
0.00138094
0.000680823
0.00199325
0.00275285
0.00235741
0.000666953
0.00168301
0.000989895
0.00188411
0.000998568
0.00066831
0.00161341
0.00237021
0.00264939
0.000179628
0.00303183
0.0011875
0.00293621
0.00119798
0.000144717
0.000132913
0.000114513
0.000122692
0.000230563
0.000203026
0.000234954
0.000217645
0.000156125
0.000203597
0.000211636
0.000165585
0.000170906
0.000171557
0.000895689
0.000167318
0.000164422
0.00277997
0.000276892
0.00200853
0.000195673
0.000226203
0.00350312
0.00155371
0.000893874
0.000552887
0.000184844
0.0020688
0.000458589
0.000695079
0.00132923
0.000235635
0.00196322
0.000223092
0.000503173
0.00195448
0.000235476
0.00108632
0.000894193
0.000238208
0.000782602
0.0021839
0.00194576
0.00636383
0.00225825
0.00162188
0.000743815
0.00113535
0.00128667
0.000735059
0.00175624
0.000880061
0.000779881
0.00023952
0.00024385
0.0016516
0.000502895
0.000187234
0.00307264
0.00186202
0.00225688
0.000242241
0.000244932
0.00191107
0.00156059
0.00283464
0.000590008
0.000735145
0.00213511
0.000804486
0.000327193
0.0014734
0.000228943
0.00027738
0.00235473
0.00127446
0.001198
0.00111458
0.000919025
0.00169449
0.00213392
0.000683516
0.000469272
0.000388092
0.000408458
0.00236876
0.00253632
0.00100336
0.00218132
0.000817006
0.00506713
0.00144312
0.000690108
0.00255262
0.000324377
0.000198027
0.00265564
0.00114314
0.000118685
0.00198103
0.00111119
0.00613445
0.000122107
0.000734433
0.00143019
0.00213163
0.00200818
0.00082388
0.00016467
0.00291367
0.00111865
0.00096954
0.000437709
0.000540829
0.00224964
0.00028695
0.00164952
0.0035992
0.000613745
0.000441994
0.000975379
0.00182924
0.000642049
0.000485975
0.000157029
0.000880683
0.00121638
0.000541677
0.00248956
0.00194467
0.00302354
0.00153735
0.000310205
0.000987799
0.00113243
0.00299518
0.000861752
0.00220089
0.00184801
0.000861787
0.000203225
0.000884495
0.000278664
0.00030885
0.00179006
0.000732827
0.00296287
0.00198852
0.00277418
0.000580396
0.000938957
0.00162772
0.00172115
0.000870861
0.00291287
0.000282062
0.000235011
0.000514945
0.0013212
0.00132914
0.000918978
0.000284112
0.000286241
0.000964591
0.00211804
0.00105549
0.000462159
0.000151108
0.000283055
0.00144545
0.000237781
0.00139544
0.00231491
0.000899933
0.000905152
0.00148145
0.000236774
0.00044855
0.000612104
0.000671003
0.00118329
0.000184308
0.000248413
0.00301403
0.000638611
0.000210032
0.000286478
0.000544376
0.000672905
0.000353666
0.00115334
0.000359769
0.000652391
0.00096468
0.00302713
0.000308368
0.000640897
0.00203961
0.00021444
0.00330193
0.000603289
0.000235146
0.0016256
0.00148521
0.00119155
0.00109146
0.00199967
0.000147432
0.00072492
0.00295496
0.000224914
0.000629971
0.000216072
0.000439436
0.000766837
0.000229313
0.00206364
0.00021721
0.000433827
0.000805036
0.000609796
0.000645758
0.00234316
0.00289909
0.000323979
0.00297278
0.000742405
0.000382062
0.000635837
0.000486722
0.000427753
0.000168501
0.000956321
0.00304118
0.000526347
0.000226784
0.00168248
0.00478755
0.000870921
0.000537823
0.00160668
0.000264696
0.00235107
0.000921772
0.000515051
0.000184103
0.000575025
0.00151597
0.000764852
0.0022005
0.000932541
0.00143775
0.00105789
0.000722423
0.000235031
0.000751726
0.00462024
0.0020542
0.00253566
0.000510397
0.00198048
0.00122432
0.00093153
0.00260165
0.000846496
0.000663636
0.00148828
0.000449688
0.00275664
0.000661194
0.00219843
0.00197629
0.000920722
0.00056804
0.000665258
0.00248775
0.00087443
0.00243289
0.00310383
0.00206281
0.000345788
0.000661676
0.000726955
0.000902693
0.00124512
0.000566756
0.000527089
0.000189849
0.00401553
0.00194691
0.00068911
0.00065759
0.00138524
0.000401605
0.000789494
0.000424164
0.00255834
0.000531962
0.00222608
0.000562623
0.000360179
0.00113329
0.000684448
0.00315468
0.00285923
0.00259591
0.00287089
0.000736612
0.00123215
0.000798574
0.00126917
0.00141957
0.00574149
0.00113305
0.00354567
0.00283772
0.00091494
0.00077234
0.00179828
0.00293336
0.000697603
0.00069707
0.00119818
0.000921108
0.00223124
0.00249574
0.000908426
0.000950667
0.00132669
0.000157002
9.86012e-05
0.000496922
0.00237793
0.00191496
0.000320782
0.00531548
0.00206953
0.00241585
0.00147038
0.000601911
0.00088133
0.000611257
0.000784821
0.000669585
0.0035636
0.000842207
0.000762756
0.00224231
0.00175324
0.000627386
0.000702547
0.00121536
0.00620697
0.00205995
0.000529784
0.00269189
0.00244725
0.00273517
0.000154787
0.00301553
0.000970654
0.00217993
0.0035644
0.000120925
0.000986735
0.000710929
0.00200716
0.00138465
0.00334385
8.89944e-05
0.00112177
0.00295254
0.000824025
0.0010423
0.000229973
0.00102288
0.00305522
0.000779623
0.00122574
0.000659296
0.00290582
0.000613781
0.00118307
0.0021494
0.000906974
0.00147023
0.00232892
0.000654849
0.000827626
0.000765103
0.00217111
0.000997397
0.00309018
0.00056436
0.00122485
0.00186114
0.000275375
0.00241328
0.000916807
0.000878256
0.00065171
0.000871027
0.00166727
0.000163421
0.000884249
0.00105478
0.000217905
0.00156155
0.000696222
0.000904579
0.000819568
0.00303246
0.000497935
0.00271991
0.000875494
0.000948077
0.000919652
0.00191977
0.00119951
0.000537064
0.00227568
0.000585412
0.001291
0.000480661
0.000609786
0.000378866
0.000704964
0.000654164
0.00208137
0.00339721
0.000149604
0.000607362
0.00127586
0.000827715
0.00130375
0.000202497
0.000872509
0.000241072
0.00289339
0.000744342
0.000705494
0.000452032
0.000798806
0.00160539
0.000896488
0.000946955
0.000780073
0.000712108
0.00223555
0.00136045
0.00160046
0.00056012
0.00126255
0.00075429
0.00081756
0.000789997
0.000200625
0.000681823
0.00102859
0.0019683
0.000602559
0.00247284
0.00171023
0.00311306
0.000697347
0.00132458
0.00160765
0.000397085
0.000388378
0.000722401
0.00161152
0.000757844
0.00062199
0.000885707
0.000770213
0.000809792
0.000793334
0.000961576
0.00119382
0.00437464
0.00200469
0.00417182
0.000663892
0.00123474
0.000712606
0.00049087
0.00234183
0.00217402
0.000786784
0.000757614
0.00103487
0.000781397
0.000630072
0.000809478
0.000476726
0.000721573
0.000641672
0.00112524
0.000337789
0.00133038
0.000816491
0.000926767
0.00107549
0.000723782
0.00205838
0.00226924
0.00064186
0.000796772
0.00146987
0.000826359
0.000733249
0.00169432
0.000291049
0.0021938
0.00268324
0.00287661
0.000591338
0.00214872
0.00265774
0.000472086
0.00108007
0.000686741
0.00187703
0.000351797
0.000351458
0.000493103
0.000706229
)
;

boundaryField
{
    frontAndBack
    {
        type            empty;
    }
    wallOuter
    {
        type            nutkWallFunction;
        Cmu             0.09;
        kappa           0.41;
        E               9.8;
        value           nonuniform List<scalar> 
102
(
1.50645e-05
1.50645e-05
3.5407e-05
1.61572e-05
1.84876e-05
2.25535e-05
2.5328e-05
1.85587e-05
2.58231e-05
2.39611e-05
2.81204e-05
2.32783e-05
3.02506e-05
1.63461e-05
1.76222e-05
2.44592e-05
2.36621e-05
3.4445e-05
3.49689e-05
3.50739e-05
2.20721e-05
1.9455e-05
2.65593e-05
2.75425e-05
3.40932e-05
2.55262e-05
2.65482e-05
1.70089e-05
3.49486e-05
2.53309e-05
1.72133e-05
1.49542e-05
1.32292e-05
1.05225e-05
1.1704e-05
2.66378e-05
2.29943e-05
2.7169e-05
2.48451e-05
1.65919e-05
2.29244e-05
2.39878e-05
1.7931e-05
1.86678e-05
1.8729e-05
1.81201e-05
1.77172e-05
2.20722e-05
2.59385e-05
2.73802e-05
2.59827e-05
2.74003e-05
2.75512e-05
2.78578e-05
2.8325e-05
2.12954e-05
2.81804e-05
2.85009e-05
2.66064e-05
3.35607e-05
3.99795e-05
1.09625e-05
1.13111e-05
1.76409e-05
3.41843e-05
1.66772e-05
3.77697e-05
3.33388e-05
3.78204e-05
2.76325e-05
3.42651e-05
3.51698e-05
1.5831e-05
3.43634e-05
2.77466e-05
2.75688e-05
2.05021e-05
2.40452e-05
4.05056e-05
2.43136e-05
2.74232e-05
1.52668e-05
2.67826e-05
2.5136e-05
3.82646e-05
1.79149e-05
2.63149e-05
2.05322e-05
2.72293e-05
2.08481e-05
1.66646e-05
8.22313e-06
1.62436e-05
1.14649e-05
6.41778e-06
2.6718e-05
3.25429e-05
1.74922e-05
2.51221e-05
1.55296e-05
2.30111e-05
2.83656e-05
)
;
    }
    inlet
    {
        type            calculated;
        value           nonuniform 0();
    }
    outlet
    {
        type            calculated;
        value           nonuniform 0();
    }
    wallInner
    {
        type            nutkWallFunction;
        Cmu             0.09;
        kappa           0.41;
        E               9.8;
        value           nonuniform List<scalar> 
138
(
2.30788e-05
2.61087e-05
4.20379e-05
6.65029e-05
8.96475e-05
5.89171e-05
0.000129777
5.41606e-05
7.14922e-05
4.93493e-05
4.86836e-05
3.94669e-05
3.07162e-05
9.69703e-05
4.74433e-05
3.45915e-05
3.38012e-05
3.39738e-05
3.12218e-05
3.60257e-05
3.00754e-05
2.22612e-05
5.19182e-05
3.7572e-05
2.56882e-05
4.52295e-05
2.85508e-05
4.03935e-05
0.000155642
3.37761e-05
4.29199e-05
5.82485e-05
3.23781e-05
3.09858e-05
3.4174e-05
2.90979e-05
3.8847e-05
2.32384e-05
4.20566e-05
3.62409e-05
3.33442e-05
2.65582e-05
4.35592e-05
3.18637e-05
3.22053e-05
1.68062e-05
3.67542e-05
3.44623e-05
3.57305e-05
5.00307e-05
4.3567e-05
2.70702e-05
3.0006e-05
4.36934e-05
2.02293e-05
4.96603e-05
3.50921e-05
4.1003e-05
4.50889e-05
4.35107e-05
4.68161e-05
2.99694e-05
2.39362e-05
4.50808e-05
6.08849e-05
2.71272e-05
3.18221e-05
4.92266e-05
3.20877e-05
3.17442e-05
3.31181e-05
3.06038e-05
3.80533e-05
1.60201e-05
3.69937e-05
3.92118e-05
4.22895e-05
4.20532e-05
0.000102662
4.84791e-05
3.2332e-05
3.14324e-05
4.55585e-05
3.25421e-05
4.13252e-05
5.8334e-05
4.00068e-05
4.52657e-05
4.88123e-05
7.1106e-05
4.80319e-05
4.41057e-05
2.9611e-05
6.70766e-05
3.0246e-05
3.46998e-05
4.75098e-05
3.45659e-05
6.62281e-05
3.03561e-05
3.30408e-05
2.50475e-05
2.22852e-05
3.61104e-05
3.68202e-05
3.99124e-05
2.933e-05
2.14231e-05
2.31447e-05
2.74913e-05
2.83219e-05
4.17714e-05
1.96396e-05
3.49737e-05
4.36039e-05
2.69282e-05
1.9862e-05
3.23769e-05
2.05451e-05
3.97184e-05
4.75424e-05
4.859e-05
2.22845e-05
2.31967e-05
3.37237e-05
2.88677e-05
2.59483e-05
2.47604e-05
4.68934e-05
3.10098e-05
4.19366e-05
4.75873e-05
0.000122647
8.3265e-05
4.27935e-05
4.0828e-05
5.99117e-05
8.63418e-05
)
;
    }
    procBoundary2to0
    {
        type            processor;
        value           nonuniform List<scalar> 
42
(
0.00709563
0.00709563
0.00100513
0.000733263
0.00209158
0.0078004
0.00129199
0.00129199
0.00191437
0.00152978
0.0032177
0.0032177
0.00257465
0.00350674
0.00354736
0.00754773
0.00344851
0.00131265
0.00179071
0.00363992
0.00337155
0.00114464
0.00114464
0.00279877
0.00337155
0.000884099
0.00523946
0.000699564
0.00523946
0.00660661
0.00456717
0.000777844
0.000894681
0.000977328
0.0010864
0.000733263
0.00344851
0.000262558
0.00714714
0.00149485
0.00149485
0.00125497
)
;
    }
    procBoundary2to1
    {
        type            processor;
        value           uniform 0.00377461;
    }
    procBoundary2to3
    {
        type            processor;
        value           nonuniform List<scalar> 
29
(
0.00152844
0.00189045
0.000422179
0.000366883
0.00125338
0.000580825
0.000853538
0.00171409
0.0013163
0.00123368
0.00131443
0.00296231
0.000668374
0.00249864
0.00195724
0.00289505
0.000960576
0.000960576
0.00189045
0.00249864
0.002238
0.000867954
0.000403802
0.00127476
0.0011636
0.000707177
0.0013163
0.00398488
0.00296231
)
;
    }
}


// ************************************************************************* //
