/*--------------------------------*- C++ -*----------------------------------*\
| =========                 |                                                 |
| \\      /  F ield         | OpenFOAM: The Open Source CFD Toolbox           |
|  \\    /   O peration     | Version:  v1912                                 |
|   \\  /    A nd           | Website:  www.openfoam.com                      |
|    \\/     M anipulation  |                                                 |
\*---------------------------------------------------------------------------*/
FoamFile
{
    version     2.0;
    format      ascii;
    class       volScalarField;
    location    "0.17";
    object      k;
}
// * * * * * * * * * * * * * * * * * * * * * * * * * * * * * * * * * * * * * //

dimensions      [0 2 -2 0 0 0 0];


internalField   nonuniform List<scalar> 
1431
(
0.242421
0.361305
1.47328
1.2453
0.125784
0.184494
0.123896
0.19696
0.558306
0.351008
0.279846
0.778774
0.37563
0.950166
0.889882
0.30664
0.964948
0.545384
0.105627
0.290207
0.126981
0.427658
0.140105
1.04144
0.989035
0.298172
1.09607
0.868311
0.503359
1.1206
0.918513
0.321258
0.192084
0.0844799
0.107655
1.50654
0.262785
0.315349
0.207386
0.308708
1.98716
0.201509
0.101338
0.122149
0.364135
0.13888
1.28077
0.208904
0.431681
0.404811
1.13465
0.317902
0.147924
0.170845
0.131824
0.20208
0.185809
0.0983904
0.830247
0.114515
1.64832
0.117344
1.74725
0.292215
0.59568
0.516238
1.31617
0.188587
0.48806
0.322749
0.0751058
0.108882
0.175372
0.206355
0.375574
0.181775
0.157982
1.16337
0.22437
1.5491
0.269403
1.05897
0.161269
2.09428
1.79318
0.141508
0.16006
0.523184
1.14537
0.272653
0.207489
0.638796
0.163039
0.313955
0.774443
0.149984
0.512059
0.266216
0.151493
0.62807
0.429748
0.223495
0.119946
0.125385
0.615246
0.240644
0.240264
2.31381
1.29649
0.135509
1.86033
0.342143
0.215413
0.171522
0.547717
0.12317
0.499923
0.783419
1.26725
0.343821
0.293358
0.149414
0.189999
0.934583
0.293505
0.292083
1.41543
0.345238
0.202326
0.486352
0.201654
1.99936
0.773039
0.111662
0.159054
0.807409
0.170351
0.326376
0.130078
2.06127
0.440182
0.108779
0.289707
0.457441
0.555508
0.373309
0.267613
2.3356
0.162174
0.365395
0.505787
0.642084
0.25581
0.155135
0.0843861
0.442561
0.282999
0.10984
0.207375
0.262027
0.605797
0.240767
0.131936
0.500289
0.149772
2.46662
0.149568
0.305437
1.1355
0.14669
0.648985
0.527753
0.878705
0.385631
0.282648
0.111222
0.138852
0.511458
0.93114
0.22046
0.316395
1.2991
0.207214
0.225895
0.348144
0.394662
0.231646
0.880747
0.302548
0.299084
1.19794
1.51301
0.148001
0.254216
1.06618
0.276863
0.234486
0.262134
0.111319
0.0928947
0.132508
0.765205
0.323815
2.07843
0.246378
1.44144
0.154082
0.305051
0.251855
0.48501
0.264237
0.216199
1.20297
0.299648
0.141605
0.0962005
0.200581
1.87328
1.11336
0.304204
0.291763
1.53492
0.430148
1.68091
0.318428
0.547565
0.542149
0.139954
0.421908
0.975613
0.14156
0.750593
0.302487
0.201136
0.197088
0.205248
0.28764
0.199706
0.274391
0.341139
0.311169
0.289367
0.1896
2.16913
0.538911
0.485708
0.309192
0.10707
0.106762
0.555433
0.270108
0.315178
0.40054
0.56426
1.61695
0.683025
0.762723
0.299992
0.63
0.658614
0.699753
0.486045
0.153276
0.136405
0.19913
0.408518
0.574951
0.254431
0.453187
0.101498
0.242798
0.497306
0.267784
0.266096
0.719816
0.272692
0.117497
2.00663
0.562925
0.22264
0.917473
0.349501
0.743809
0.119052
0.603954
0.912252
0.140946
0.191724
0.491289
0.292416
0.391245
0.337379
0.194529
0.90831
0.294474
0.215887
0.156458
0.258313
0.303525
0.241197
0.322551
0.556138
0.212336
0.230871
0.124488
0.34369
0.281527
0.669376
0.642707
0.0849547
0.304462
0.337223
2.19935
0.12306
0.244481
0.341315
0.159405
0.358509
0.198128
0.617272
0.3928
0.664079
0.310517
0.387761
0.156292
0.513741
0.257369
0.471255
1.27115
0.293886
1.08375
0.279365
0.293135
1.03154
0.277815
0.379458
0.949895
0.360734
0.959607
0.297227
0.107739
0.263599
0.463141
0.438186
1.19517
0.160017
0.323214
0.0546435
0.0365524
0.0407188
0.0788798
0.0888582
0.129713
0.596907
0.231588
0.0967423
0.0884735
0.198516
0.396252
0.195868
0.767967
0.251224
0.665219
0.0397203
0.0379986
0.0530603
0.742802
0.22229
1.46215
1.33762
0.320279
0.286247
0.668934
0.33949
1.60615
1.799
0.986274
0.327813
0.362142
0.307469
0.0857239
0.057828
0.0395485
0.0977523
0.236725
0.711827
0.21332
0.217971
0.504121
0.0380349
0.0643055
1.46776
0.465888
0.362253
0.533318
0.211856
0.163295
0.315556
0.335716
0.279574
0.165826
0.918367
0.307928
0.946814
1.0206
0.343807
0.34565
0.255442
0.0736869
1.17394
0.617638
0.663117
0.248768
1.3336
0.49937
0.803312
0.624616
0.104441
0.422313
0.107679
0.374699
0.396977
0.460334
0.971938
0.506434
0.545954
0.942032
1.07145
0.521836
0.585517
0.951763
1.03341
0.469345
0.913395
0.354821
0.469648
0.340002
1.08
1.27876
0.191899
0.127132
0.127142
1.08537
1.22481
0.767983
0.31438
0.27917
1.38183
1.60612
0.930907
0.876639
0.440531
0.521565
0.485595
0.402195
0.475437
0.429365
0.398979
0.475095
0.362766
1.28168
0.598259
0.201578
0.15219
0.376576
0.380901
0.0665912
1.32418
0.178786
0.435843
1.26953
0.749428
0.22736
0.846968
0.170318
0.490616
1.60865
1.87812
1.68913
0.590335
0.520041
0.836401
0.878339
0.20735
0.329266
0.158725
0.146131
0.403292
0.377214
1.27964
1.01161
0.586043
0.425721
1.63759
0.580911
0.938701
0.729147
1.51535
0.325225
1.42082
0.153227
1.19002
1.10432
0.718609
0.74519
1.91102
0.511852
0.414045
0.561327
0.196319
0.154459
1.59094
0.230111
1.27099
0.315418
0.579916
1.72402
0.987289
0.544184
0.316274
2.3289
1.39616
1.82433
0.0670001
0.645458
0.334719
0.678612
0.458176
1.51845
1.26419
0.323335
0.236005
1.28846
1.6826
0.364382
0.433057
1.08115
1.19956
0.517981
1.32012
0.95271
1.84689
0.789227
0.220008
0.0916133
0.401643
1.14849
0.217598
0.395518
0.417569
1.34863
0.0819881
0.619772
0.353939
0.304184
0.903535
1.06626
0.880173
0.614339
0.193761
0.786337
1.16675
1.0732
1.18012
0.229924
0.0896518
0.421019
0.203196
1.6555
0.981583
0.0975927
0.454258
1.60745
0.480023
2.14406
0.11505
0.397699
1.24871
1.01479
0.47916
1.05676
0.223576
0.825644
0.586975
0.210227
1.20747
0.714151
0.329817
1.10768
0.402801
0.218475
0.126297
0.359621
0.306841
0.284391
1.17601
0.0704184
1.5082
0.20584
0.140719
0.780193
0.602304
0.540531
1.1225
1.09829
0.405892
0.232337
0.391917
0.507664
1.70587
1.18704
0.235352
0.11491
0.979852
1.45692
0.206271
1.28096
0.321475
1.0707
0.35973
0.487971
0.328171
0.467756
0.355162
1.80212
0.305134
0.507698
0.0797122
0.274387
0.230083
0.464414
0.50671
0.15311
0.238488
0.386089
0.332206
0.537671
0.199529
0.588961
0.411381
1.13658
0.294274
0.247186
0.210814
2.59166
1.07928
1.10965
0.132344
0.36308
0.412355
0.39597
0.390667
0.268743
0.690474
0.114722
0.299971
0.256798
0.332144
1.12001
0.254937
0.720451
0.104022
0.289782
0.264774
0.282698
0.133268
0.359045
0.377945
0.321819
1.36727
0.0861948
0.264336
0.385883
0.806218
0.324849
0.316593
0.134548
0.155173
0.434252
0.530244
1.15236
0.101384
0.507638
0.207764
1.59577
0.457648
0.543391
1.06444
1.16976
0.176778
1.22676
0.838822
1.08222
0.198057
0.293248
0.498608
0.0398114
0.0810413
0.272536
0.204626
1.10136
0.36469
0.188788
0.456561
0.152461
0.748674
0.647108
0.224958
0.362696
2.15977
1.26114
0.0608301
0.444034
0.435111
1.02798
0.421541
0.48042
1.15757
0.211014
0.140536
0.41369
0.299331
0.218543
1.30748
0.37718
0.427765
0.431828
0.839507
0.489487
0.761498
0.716461
0.221503
0.478092
0.479452
1.17144
0.190518
0.144806
2.03664
0.198127
0.202189
0.975684
0.137431
0.323869
0.1696
0.595214
0.404749
0.211794
0.448942
0.768111
0.224223
0.100962
0.191344
0.48919
0.518411
0.198339
0.185489
0.350115
0.521612
0.429454
1.59665
0.142679
0.836121
0.997725
1.05926
0.309152
0.124152
0.152258
1.05483
0.616945
0.502747
2.37309
1.49758
0.0697712
0.293867
0.351332
0.57413
0.126555
1.51039
0.883978
0.294055
0.232986
0.0942853
0.535735
0.121477
0.101141
2.14165
0.0621763
0.247036
0.210591
1.82057
0.139268
0.192559
0.948309
0.687854
0.36268
0.309632
0.0779056
0.352484
1.17697
0.23044
0.620979
0.993831
0.220539
0.49186
0.0407544
0.351288
1.26798
0.698181
0.133591
0.176764
0.280638
0.235213
0.117798
0.0943945
1.41167
0.538963
0.528957
0.520215
0.52891
0.503896
0.509304
0.509594
0.554316
0.556429
0.156034
0.384561
0.201488
1.0495
0.430704
0.0889276
0.295198
0.0552836
0.126726
0.10124
0.192749
0.580626
0.86687
0.62504
0.152525
0.704681
0.194635
0.260746
0.264238
0.506194
1.1954
0.235285
0.400667
0.299128
0.405623
0.237639
0.632898
0.400284
0.256525
0.0456731
1.03409
0.110954
0.292294
0.122977
0.320618
0.349253
0.225382
0.14931
0.26945
0.582024
0.307361
0.200579
0.216036
0.203572
0.0747281
0.234237
0.319409
1.1053
0.249101
0.428466
0.0596458
0.251863
0.15962
0.134092
2.03167
0.248329
0.135797
0.380683
0.318679
0.0754842
0.293302
0.238969
0.133116
1.30763
1.04745
0.301086
0.456437
1.2093
0.170036
0.26971
0.200095
1.45451
0.0596587
0.22997
0.95087
0.367287
1.41523
1.31084
0.402021
0.471838
0.870686
0.809495
0.490695
0.175686
0.0618049
0.0655226
0.341136
0.22341
1.15559
0.911879
0.421985
0.811954
1.23067
0.362042
0.581061
0.463633
0.823054
0.220004
0.186267
0.233388
0.211886
0.743168
0.447862
0.531328
0.190907
0.545506
1.05134
0.190858
0.167949
0.179213
0.203897
0.193935
0.157465
0.211137
0.215818
0.556667
0.0538072
0.0939147
0.250669
0.211925
0.224804
0.0771997
1.83385
0.146235
0.896254
0.1643
0.362958
0.0971199
0.419974
0.831172
1.88881
0.272901
0.199142
0.66636
0.750938
0.460097
0.107206
0.601805
0.29204
0.988612
0.447406
0.181615
0.189727
0.934418
0.0984953
1.7505
0.211307
0.43289
0.42912
0.669264
0.30235
0.429107
0.240085
0.18072
0.185424
0.215944
0.413635
0.405851
0.78288
1.22136
0.149832
0.69847
0.102624
1.61513
0.169085
0.691455
0.101264
0.252977
0.53955
0.370503
0.328063
0.28586
1.05589
0.662265
2.05646
0.129603
0.119151
0.29965
0.456474
0.143846
0.135892
0.198799
0.166587
1.12664
0.350407
0.17333
0.902788
0.46106
0.228489
0.265689
0.849312
1.12186
1.31513
0.375563
0.705337
0.565207
0.564023
0.11986
0.319671
0.552349
0.73275
0.29653
0.374768
0.99475
0.159362
2.13893
0.538375
0.447037
0.550615
2.30085
0.37644
0.536966
1.96401
0.316399
0.749673
0.334642
0.809962
0.124819
0.0701943
0.221272
0.64952
0.365107
1.09854
0.193264
0.190389
0.908662
0.306909
0.461036
0.158696
1.31065
0.106999
0.118504
0.421512
0.401122
0.734043
0.203805
0.509307
1.14569
0.34941
0.631748
0.212608
0.156231
0.353261
0.309168
0.327373
0.54147
0.295596
0.202457
0.510291
1.12692
0.244595
2.02164
0.0807456
0.817493
0.35303
0.35507
0.0969682
0.653325
1.75724
0.0774872
0.244926
0.0991431
0.59062
0.860647
0.449934
1.06285
0.505417
0.385008
1.44067
0.206042
0.507795
0.1872
0.214447
0.334508
0.215802
1.68761
1.71297
0.147025
0.451623
0.989867
0.0964445
0.38118
0.646493
0.0843437
0.40352
0.639368
0.224618
1.04571
0.636037
0.732348
0.186008
0.927283
0.508494
0.231004
0.52336
0.25174
0.226779
1.18299
0.366361
0.130094
1.16055
0.175743
1.54324
0.706067
0.191753
0.121278
0.355802
0.0613694
0.237311
1.06641
0.104689
0.201816
0.28707
0.642035
0.224368
0.056626
0.122474
0.295615
1.09758
0.262103
0.121708
0.207444
0.782582
0.107253
1.56047
0.259524
1.21986
0.066879
0.173614
1.0205
0.209464
0.84877
1.29102
0.795158
0.532803
0.287549
1.39762
0.111959
0.0597475
0.146615
0.321833
1.04993
1.00637
0.0615774
0.137338
0.162843
0.336458
0.191291
1.07113
1.05066
0.601989
0.366314
0.202184
0.0535997
0.103414
0.394725
0.894861
1.18954
0.192869
0.177664
0.474058
0.633242
1.74532
1.06726
0.432814
0.0576337
0.38301
1.57696
0.545577
0.138292
1.15241
0.115012
0.870325
0.454519
0.258098
0.301096
0.934983
0.133924
0.146365
1.59318
1.08
0.678592
0.345855
0.425517
0.187645
0.351696
0.359967
1.06887
0.550491
0.256155
1.28164
0.0885286
1.30421
0.232249
0.314036
1.49501
0.404646
0.531015
0.431323
0.0911965
1.05872
0.196543
0.232834
0.267027
0.411863
0.344081
0.610432
1.70582
0.128137
1.08281
0.121304
0.277864
0.903958
0.155046
0.302791
0.13142
0.796233
2.66396
1.1145
0.0968241
0.123958
0.453237
0.142164
0.249079
1.55613
0.275015
0.153653
0.531127
0.202257
0.639642
3.10287
0.175721
1.95531
0.462359
0.135249
0.574133
0.435887
0.250844
1.3246
0.107752
0.39542
0.340756
0.827807
0.828184
0.205724
1.08875
0.453058
0.954233
0.0674061
0.26534
0.272554
0.226573
0.393729
0.270821
0.565718
0.683455
0.130699
0.387132
0.23165
0.401084
0.361674
2.51825
0.382956
0.615018
0.417294
0.551975
1.36547
0.881208
0.119351
0.321797
0.261604
0.350856
0.577938
0.975441
0.41674
0.103665
0.239469
0.229221
1.05051
0.984177
0.424241
0.843749
0.47123
0.32818
0.279419
0.311704
0.333597
0.421235
0.107738
0.562142
0.376797
0.120514
0.554292
1.02485
0.311998
0.936208
0.137001
0.155359
0.262828
0.36417
0.252846
1.83767
0.813483
0.355559
0.455527
0.140854
0.403368
0.318669
0.158798
0.287168
0.21354
0.345217
1.41454
0.23203
0.697986
0.133041
0.241219
0.426542
1.61781
1.19034
0.103164
0.319176
0.690136
0.212975
0.122675
0.344862
0.342721
0.523123
0.616123
0.497739
0.781332
0.282434
0.542066
0.53753
0.290878
0.690177
0.3485
0.277304
0.247689
0.349178
1.49597
0.681737
0.294203
0.205407
0.274316
0.394983
0.626637
0.261003
0.294353
0.885242
0.418284
0.300538
0.779167
0.318368
0.245919
0.243775
0.279157
1.32067
0.324628
2.22154
0.235526
0.712173
1.71375
0.336485
0.353022
0.126198
0.516926
0.193757
0.977495
0.252091
0.173099
0.406006
0.818773
0.366296
0.233087
0.30448
0.292461
0.342491
0.276281
0.97757
0.588189
0.96647
0.635113
0.587545
0.648205
0.206709
0.239161
0.433192
0.999548
0.392587
0.313078
0.30445
1.06196
0.307642
0.895909
0.374574
0.82318
0.460777
0.206966
0.737781
0.398106
0.0717377
0.0835735
1.33691
0.110422
0.115831
0.125698
)
;

boundaryField
{
    frontAndBack
    {
        type            empty;
    }
    wallOuter
    {
        type            kqRWallFunction;
        value           nonuniform List<scalar> 
90
(
0.30664
0.421541
0.41369
0.427765
0.489487
0.478092
0.479452
0.595214
0.404749
0.48919
0.518411
0.616945
0.502747
0.57413
0.535735
0.948309
0.538963
0.528957
0.520215
0.52891
0.503896
0.509304
0.509594
0.554316
0.506194
0.870686
0.809495
0.531328
0.545506
0.179213
0.203897
0.193935
0.157465
0.211137
0.215818
0.211925
0.1643
0.0971199
0.419974
0.199142
0.181615
0.189727
0.934418
0.0984953
0.18072
0.185424
0.169085
0.691455
0.101264
0.662265
0.849312
0.159362
0.461036
0.631748
0.510291
0.0969682
0.0991431
0.59062
0.860647
0.385008
0.507795
0.1872
0.147025
0.989867
0.639368
0.732348
0.927283
0.130094
1.16055
0.175743
0.532803
0.111959
1.00637
0.162843
1.05066
0.894861
0.432814
0.545577
0.138292
0.870325
0.431323
1.08281
0.121304
0.462359
0.130699
0.155359
1.19034
0.103164
0.523123
0.394983
)
;
    }
    inlet
    {
        type            fixedValue;
        value           uniform 0.375;
    }
    outlet
    {
        type            zeroGradient;
    }
    wallInner
    {
        type            kqRWallFunction;
        value           nonuniform List<scalar> 
138
(
0.778774
0.105627
0.192084
0.0844799
0.107655
0.201509
1.31617
0.188587
0.0751058
0.108882
0.181775
0.773039
0.155135
0.0843861
0.111222
0.138852
0.111319
0.0928947
0.132508
0.765205
1.68091
0.683025
0.762723
0.63
0.658614
0.699753
0.574951
0.719816
0.603954
0.669376
0.642707
0.107739
0.160017
0.0546435
0.0365524
0.0407188
0.0788798
0.0888582
0.129713
0.596907
0.231588
0.0967423
0.0884735
0.198516
0.396252
0.195868
0.767967
0.251224
0.665219
0.0397203
0.0379986
0.0530603
0.742802
0.22229
0.307469
0.0857239
0.057828
0.0395485
0.0977523
0.236725
0.711827
0.21332
0.217971
0.504121
0.0380349
0.0643055
0.165826
0.663117
0.803312
0.469345
0.127142
0.767983
1.60612
0.598259
0.846968
0.590335
0.878339
1.27964
1.01161
0.586043
0.580911
0.729147
1.19002
0.196319
0.154459
0.987289
0.0916133
0.0819881
0.619772
0.614339
0.0975927
0.140719
0.15311
0.133268
0.101384
0.0398114
0.0810413
0.761498
0.221503
0.323869
0.142679
0.152258
0.351332
0.0942853
0.687854
0.0407544
0.295198
0.62504
0.152525
0.0456731
0.0655226
0.743168
0.0538072
0.0939147
0.0771997
0.669264
0.69847
0.102624
0.119151
0.29965
0.734043
0.0807456
0.817493
0.0964445
0.0613694
0.104689
0.782582
0.107253
0.0535997
0.103414
0.0911965
0.30445
0.737781
0.398106
0.0717377
1.33691
0.110422
0.125698
)
;
    }
    procBoundary0to1
    {
        type            processor;
        value           nonuniform List<scalar> 
29
(
0.094238
0.115629
0.164926
0.164926
0.354752
0.354752
2.01447
0.222089
1.13708
0.228235
0.216854
0.248024
0.0906902
0.0781946
1.41107
0.686249
0.549258
0.916256
0.232274
0.111104
0.36172
0.229314
1.00425
0.303517
0.302281
0.916256
0.265526
0.854198
0.303517
)
;
    }
    procBoundary0to2
    {
        type            processor;
        value           nonuniform List<scalar> 
42
(
0.411727
0.423542
0.148885
0.128541
0.417728
0.411727
0.148885
0.142566
0.225381
0.106677
0.66843
0.584973
0.66843
0.510557
0.454671
0.390263
0.454671
0.0866957
0.152847
0.110669
0.110669
0.0866957
0.0680442
0.128333
0.128333
0.057467
0.196851
0.0581106
0.317028
0.444257
0.444257
0.0672401
0.0754152
0.0796787
0.0873009
0.148885
0.420657
0.099824
0.317028
0.142566
0.114349
0.0977751
)
;
    }
}


// ************************************************************************* //
