/*--------------------------------*- C++ -*----------------------------------*\
| =========                 |                                                 |
| \\      /  F ield         | OpenFOAM: The Open Source CFD Toolbox           |
|  \\    /   O peration     | Version:  v1912                                 |
|   \\  /    A nd           | Website:  www.openfoam.com                      |
|    \\/     M anipulation  |                                                 |
\*---------------------------------------------------------------------------*/
FoamFile
{
    version     2.0;
    format      ascii;
    class       volScalarField;
    location    "0.9";
    object      p;
}
// * * * * * * * * * * * * * * * * * * * * * * * * * * * * * * * * * * * * * //

dimensions      [0 2 -2 0 0 0 0];


internalField   nonuniform List<scalar> 
1431
(
93.5006
92.9735
91.1141
93.5842
88.2118
89.5542
93.0667
39.0885
91.2819
93.0625
45.2919
45.3516
91.9494
84.3226
88.8082
93.0474
85.9103
90.8176
87.679
89.885
40.2935
84.1778
91.5584
20.0209
91.0062
91.9606
51.4069
89.9923
91.7271
83.9735
86.9566
90.9425
87.2477
84.9201
91.3205
92.9653
90.8837
92.0342
92.9314
90.4552
91.0109
91.0088
91.9733
92.9916
86.9188
90.8527
85.4212
55.5322
93.0725
92.1175
92.8041
92.9607
92.7189
53.2569
93.5905
93.0404
89.0062
48.5391
84.6142
91.3567
90.1813
93.0431
92.2641
92.1106
92.9646
93.0805
89.3359
92.1872
90.5536
86.3345
47.4504
84.6653
93.5194
85.033
84.6461
91.1101
90.4114
92.1735
93.0615
91.6094
85.3757
90.8557
86.5135
85.8584
40.1966
93.6619
93.7419
87.8275
52.5521
69.9818
89.7593
88.4856
91.9874
93.0155
93.7626
87.1893
45.0909
86.4045
93.0039
89.7297
93.0338
93.0253
84.7311
91.792
92.1291
86.7187
91.0046
55.9072
89.5207
84.1787
91.9357
91.8638
90.9506
90.5455
93.2724
89.5991
84.4321
93.5529
93.656
92.1928
87.5635
88.2462
55.178
85.3122
43.827
93.0389
90.895
86.8617
90.9759
93.8063
86.5457
90.4277
93.8179
87.4395
90.8844
92.1668
91.9706
93.0571
50.0971
92.0296
92.923
86.0196
84.9204
91.87
93.6954
87.1346
92.2154
92.9552
93.0402
90.8248
92.2071
91.1621
90.3869
93.7223
90.377
91.9241
48.8922
90.8466
78.9959
93.74
63.1837
91.8356
93.5885
93.716
54.5962
91.4287
89.9834
93.5677
92.1089
90.4654
62.5033
92.816
89.2873
50.6827
92.2962
48.4791
93.7954
88.2274
92.8536
91.663
93.0688
92.9205
93.4732
23.2999
89.1204
90.2413
51.3387
90.9467
89.1446
51.2446
87.1348
89.4652
90.4144
58.318
93.6093
87.795
85.1233
90.7155
90.3435
90.6666
93.5877
93.6119
66.2524
93.7769
91.8938
87.1631
90.8228
90.7009
50.1176
89.8724
37.9139
93.5747
90.9319
86.9143
42.0583
90.3958
90.3573
89.9604
93.0082
70.2095
90.7899
93.6248
90.3373
93.6611
90.4237
45.4533
67.2748
88.7394
90.5772
68.3422
36.0439
87.1002
87.2101
90.3517
90.8789
71.6647
90.9192
87.8693
87.4159
93.7657
93.8167
92.505
48.3989
88.084
89.4078
86.7148
88.3951
61.0353
91.2471
92.0106
86.5547
51.1499
93.7066
93.5342
87.1682
91.4908
93.6726
40.5979
78.7951
90.2769
90.6525
51.3409
93.2489
93.7834
90.7617
74.217
91.5866
59.3888
60.2562
88.5541
90.2602
90.7315
93.4594
93.884
58.235
89.1287
54.1175
83.1764
87.2563
90.9686
92.5682
91.3509
87.0056
92.7411
93.827
84.6844
91.2872
83.1066
46.7706
92.6497
90.444
91.445
87.4866
92.4611
71.6064
90.5176
50.6889
90.7369
90.1825
86.6216
92.7564
91.9197
93.7055
91.8119
88.2673
93.6409
92.289
89.982
91.2839
91.8218
84.2789
92.9846
93.0727
57.9994
91.2223
85.9913
91.223
93.7559
89.6767
31.8356
91.9439
87.6378
90.679
92.6091
91.4782
91.0855
90.1554
90.8521
57.1821
93.5537
85.5353
90.3013
91.1417
84.5216
93.7945
91.8251
91.47
76.431
90.8515
56.2195
92.0143
91.7461
78.95
90.7144
90.6831
87.7597
93.4154
52.3181
84.6518
92.1207
90.1878
90.1558
92.7468
90.508
90.4612
92.8885
41.801
36.8942
50.4854
91.1521
84.0081
90.5186
85.5045
93.8146
90.0441
40.7647
90.9912
11.1127
91.2786
84.4114
56.7679
87.9356
56.2942
92.9544
91.5708
49.9708
90.5635
93.8477
90.926
45.9981
91.6782
90.0626
93.1603
90.9237
11.8555
91.3628
92.3715
90.6264
90.8061
92.8586
93.8383
92.176
92.1664
93.6127
73.6089
92.9248
91.7856
92.1231
90.7311
90.5916
88.4537
91.6421
81.6192
91.4755
92.9813
92.0081
89.7683
93.3947
93.8361
91.9318
88.1993
91.7228
91.9774
91.5378
90.9662
90.3693
90.9716
93.1042
90.0751
92.0762
91.2557
91.8596
92.8619
90.6604
92.1584
88.0361
89.449
88.3128
91.0483
29.9023
91.0473
91.0849
91.1321
90.9008
90.8855
91.1843
91.0018
91.534
91.4504
91.4919
89.7124
48.145
90.1713
89.8263
89.751
89.4665
89.4525
89.6517
85.5605
84.3082
84.6394
92.1628
93.0731
88.5603
93.086
93.0621
84.1753
52.8715
87.646
88.984
84.0462
92.1871
52.9793
93.0501
88.6815
92.1583
90.492
52.7022
92.1378
49.8387
93.0066
92.9927
90.374
84.397
49.3962
49.1091
92.0044
91.9842
89.2609
92.9921
84.6537
89.421
48.759
92.9449
89.5556
84.8347
89.4515
89.4706
90.5309
91.7966
47.3785
92.9534
90.9208
91.8128
85.8263
89.0801
91.0355
45.6361
92.8967
88.697
91.0099
91.946
88.2203
91.1893
45.8214
49.8747
90.4519
92.8783
92.877
87.3051
91.8782
87.8028
89.2749
90.9942
90.9943
93.5128
90.8595
91.8181
87.2601
48.2132
85.787
92.8516
87.8589
93.5882
91.8524
93.6315
44.7155
90.2588
89.7069
93.5923
93.327
92.9741
92.0729
88.8903
91.6097
91.014
93.4331
91.5942
91.7697
88.0946
91.8378
91.639
91.0342
92.9441
88.8702
93.6661
93.2581
81.1172
91.8168
91.2343
92.224
91.4113
91.3509
92.084
92.2058
87.8623
93.6637
91.2319
86.7912
54.0815
91.3099
47.7545
83.2144
92.2026
38.0223
92.2899
93.1267
93.6881
91.1443
91.7315
92.2959
70.6794
91.4766
92.8986
92.5351
89.597
93.5803
89.3623
91.1328
90.9918
92.1555
77.1678
86.7362
89.8286
89.0201
90.9681
87.7681
92.9195
92.3362
87.323
91.1108
89.1457
92.7428
92.806
91.437
91.7917
86.2763
92.2456
89.1707
50.6858
71.1755
91.9012
91.9074
92.804
84.6158
90.3113
20.8286
85.5276
93.8139
90.013
93.6046
92.1016
92.5516
91.3384
90.0316
90.4902
45.8048
93.7695
90.8918
91.6816
92.7076
92.8198
92.7176
92.1504
91.9991
86.3772
91.6562
86.6779
81.8574
93.792
92.0308
93.0838
93.0101
91.509
92.4662
88.6019
41.623
93.8456
89.7199
93.3619
90.4157
81.7997
93.829
91.6152
89.6523
91.954
87.3257
91.4102
35.7611
91.8317
90.9656
90.7049
89.1578
86.9843
90.4595
91.4445
91.3328
82.0204
90.9366
56.6456
68.1825
91.6587
91.8902
92.3206
91.4751
89.8313
90.2154
90.9219
92.92
90.7416
92.3372
93.1656
39.824
91.6889
90.8528
86.3036
34.5636
84.2434
87.8856
93.7691
93.7083
92.8062
91.8011
43.6951
92.2154
89.4266
91.2839
89.8428
90.1018
94.5384
90.0848
90.3332
91.1434
94.4043
94.0321
91.1843
90.8648
86.2882
93.8973
78.8876
93.6748
90.5902
92.0618
94.2169
91.3847
27.665
89.3631
92.5675
93.0493
91.4838
90.0922
92.9369
86.0291
91.425
91.09
92.0157
91.3481
89.7221
93.8979
90.2766
91.0512
87.0166
50.2079
92.0718
91.9639
93.8127
89.3632
91.8685
57.3876
55.5919
92.0459
89.7946
91.0033
93.8528
90.6705
90.7526
91.6513
88.4681
45.6271
93.6998
89.6994
90.2208
93.8521
87.9589
91.2261
92.1819
84.1024
91.3347
89.9648
93.0391
91.7831
93.7043
93.8404
93.0213
9.91335
89.5254
91.7244
89.8366
90.1017
92.8087
33.6346
90.182
92.1816
93.0825
87.268
91.046
93.0275
93.0539
91.9394
93.8531
91.7473
87.0137
89.0351
91.8939
91.0065
92.9303
93.7884
92.7099
91.5764
88.8245
91.2744
91.9408
92.2304
92.1385
94.5281
50.9067
89.3848
92.5589
89.3057
92.7823
89.7666
89.7523
90.7096
91.3957
89.7643
93.8193
93.6963
87.2874
93.6255
91.786
90.3782
84.1238
87.3365
90.9946
91.2353
17.2839
90.126
91.0999
92.5029
89.0767
52.7601
93.7877
93.4435
45.4733
91.4152
52.7659
91.0299
89.0195
91.4067
90.294
90.0954
86.6178
92.6838
91.7049
94.2803
89.4753
91.514
85.8071
89.2933
92.914
91.3032
85.3513
44.8691
89.8896
92.5554
54.0719
86.1988
90.9427
92.0829
92.9513
91.9628
91.865
91.8884
90.1037
92.4116
67.0021
91.8644
54.9834
93.009
75.9757
91.2399
85.4394
91.9259
93.6251
89.4227
92.2459
93.8301
93.6281
90.5985
92.084
93.3926
91.8626
92.2503
93.059
91.6714
91.8937
91.5066
93.0184
52.3193
91.7772
91.4531
52.1962
91.4257
89.1627
84.307
91.0181
93.0794
92.8468
91.5053
89.9539
48.0912
93.701
90.6093
37.5423
57.9689
50.4455
36.679
62.2154
90.7865
90.4616
90.2319
90.2821
56.357
91.1729
87.6944
89.5973
88.6853
87.1069
67.2114
49.4059
86.8914
75.5453
71.3983
87.2398
91.2257
90.8915
87.6841
90.5063
90.3096
87.6766
90.2784
91.3856
76.0915
92.1395
90.8823
91.8255
84.5482
85.1417
40.525
91.108
82.4258
83.9849
88.1435
92.9261
53.7489
86.3064
89.0402
76.1039
89.1146
91.5174
85.0455
93.762
52
88.2009
90.4168
91.2279
92.4849
93.7902
92.9223
49.9017
90.1962
84.3554
91.6827
91.4348
92.4271
92.0095
57.7293
92.0338
92.97
90.4127
93.5747
92.3468
91.9404
85.0847
90.8456
92.7242
91.8115
84.516
88.6035
92.084
92.9361
47.839
91.942
92.5129
89.6383
91.003
84.4645
93.8034
90.133
87.1766
93.7499
92.649
86.8717
42.8884
90.0257
84.9863
90.3544
90.9073
93.0654
28.0886
91.8512
90.3145
92.8867
41.6552
91.8406
80.9562
93.0376
92.9734
93.7368
86.9012
91.0687
92.2218
87.1785
59.3724
36.8702
90.4395
91.6285
93.5467
87.8155
85.3989
91.1666
86.467
87.2121
91.3791
88.9068
90.9863
39.5486
91.5537
93.7344
92.1886
86.4312
91.1263
86.7269
89.978
91.9154
92.6497
92.5389
90.4094
92.0772
92.4115
27.8483
18.9645
93.0698
90.9693
82.2057
93.7434
91.8323
51.4892
85.5481
90.6353
87.3093
69.5173
49.7161
93.8271
84.9646
90.5532
92.0365
81.5942
50.7157
91.33
92.0673
93.7311
50.5078
93.6937
90.86
93.3772
8.15078
91.4785
42.8161
58.0918
91.2228
90.9333
91.7627
93.7663
91.9674
93.677
93.7717
93.6361
92.3432
91.4897
90.7418
90.9853
91.2708
63.6053
92.1698
90.0136
91.4659
54.2323
91.8398
53.4313
91.4222
91.8195
55.0366
89.6786
68.8062
64.9864
61.2602
52.0332
52.0901
51.3597
57.6212
52.2399
93.5641
93.6526
93.6336
93.578
93.5749
93.5739
92.0486
85.5373
91.1957
88.5357
91.1771
85.7109
93.5659
91.053
92.1704
93.0805
92.6586
92.96
90.5011
94.0478
93.7658
88.0695
87.0922
92.4848
91.0802
91.3927
91.2853
78.3931
93.8626
91.9653
46.5275
90.8954
89.7576
88.2056
92.4891
91.8228
92.9266
34.8514
91.8724
91.4518
93.5575
86.8167
93.6587
86.6027
84.1213
89.6285
93.5396
85.1374
89.4838
91.0815
91.3615
91.2545
91.8684
85.8384
92.9126
17.5262
92.1726
44.1502
8.47925
93.8482
49.3842
84.7997
90.0549
88.8345
43.9206
93.6984
91.7702
92.2536
73.4186
91.3736
86.1039
90.4266
86.5171
92.999
91.3751
93.0857
92.3994
60.0415
40.805
18.144
87.6286
88.5612
93.2699
91.0524
93.7377
89.5558
89.478
84.995
91.4037
49.9943
91.9696
92.8856
42.3516
92.3593
84.1678
91.5831
92.8662
91.5467
81.2454
64.9217
91.4284
92.0934
87.9283
91.5787
47.5084
91.1749
48.327
92.9889
89.3288
86.4014
39.2165
83.079
91.9749
91.2885
91.3562
93.5277
54.584
87.4411
88.6164
85.3308
85.3866
89.7515
91.5204
93.5493
87.0303
89.5747
53.9012
84.5859
91.9315
92.0041
84.9913
93.557
89.6001
93.7786
89.1786
86.7599
91.5138
47.3084
91.8764
92.1094
92.5648
88.6118
93.5171
86.0003
89.8666
91.3269
77.3361
92.0001
29.3941
90.2413
93.9131
91.4387
62.7527
91.1238
93.0769
92.8858
91.9587
91.7117
92.0506
90.9658
92.5982
95.2205
85.4426
93.1466
84.7095
93.5976
91.1857
56.0548
91.6035
58.427
91.0735
91.8343
91.5974
92.4702
84.8667
87.6133
90.9348
84.3726
93.5752
91.8812
38.6497
91.6783
91.9625
92.1961
88.9848
86.2841
91.592
89.8254
72.9929
91.3076
91.0798
50.614
85.1444
92.3656
91.7004
92.35
89.3154
90.5685
90.4053
79.3784
87.3012
87.0684
85.3327
87.037
90.892
52.4355
92.5667
90.1308
84.5498
91.8206
57.7347
86.6954
91.3007
88.1028
55.4943
92.0551
89.4196
92.1362
38.7732
90.8633
91.5441
92.1153
88.7054
43.8223
93.996
53.658
93.7691
93.7349
93.8102
54.9008
93.6736
37.2424
74.5246
91.7853
91.1825
87.0958
49.8821
90.9936
17.6033
93.8444
90.2205
94.019
90.9789
87.2107
65.5557
93.7191
93.3414
44.5594
58.0964
90.6463
86.9215
93.712
51.5433
93.8067
85.2955
88.6207
56.0073
93.0888
93.7884
92.0045
91.1378
85.178
90.4509
86.5694
93.5262
93.8055
59.0718
55.3283
93.77
90.3344
86.8634
92.021
89.8259
90.5004
84.1837
91.1488
93.5233
88.1066
87.6368
90.8457
65.6415
90.686
93.6224
90.8421
75.1677
93.5412
93.7715
91.4397
85.1302
93.6283
86.607
88.2197
90.8251
93.6523
93.5975
61.8416
51.5296
86.7113
93.0479
93.5954
89.9434
92.0672
91.3734
92.1984
92.1365
88.9241
89.0922
87.9944
93.5412
58.7381
90.9424
79.426
91.8758
85.7675
48.9004
92.1613
93.5378
84.8566
88.5965
89.1589
39.0081
91.9885
92.1063
91.0434
92.5486
92.856
92.9735
93.319
93.0357
93.772
21.9962
57.3253
85.5422
101.526
85.0127
86.4421
86.4885
93.0221
97.6772
89.2001
89.9595
94.5747
98.486
89.9213
92.224
85.9725
89.0433
89.9225
88.3439
)
;

boundaryField
{
    frontAndBack
    {
        type            empty;
    }
    wallOuter
    {
        type            zeroGradient;
    }
    inlet
    {
        type            zeroGradient;
    }
    outlet
    {
        type            fixedValue;
        value           uniform 0;
    }
    wallInner
    {
        type            zeroGradient;
    }
    procBoundary3to1
    {
        type            processor;
        value           nonuniform List<scalar> 
48
(
91.2929
91.021
91.1225
90.9293
90.7197
88.8685
91.021
91.087
91.0485
88.1661
88.1661
89.8102
89.8102
89.0429
88.7213
90.7348
89.9087
90.6132
89.9087
89.0943
90.382
90.905
89.0943
89.4907
87.8751
89.5131
91.0554
90.905
91.0236
89.8843
89.8843
91.0247
91.0247
91.0485
89.2644
90.7552
91.0321
87.8751
91.3582
90.8502
89.0429
91.0733
91.0614
89.0943
88.665
91.3126
90.4175
89.6972
)
;
    }
    procBoundary3to2
    {
        type            processor;
        value           nonuniform List<scalar> 
29
(
92.0615
92.0615
93.106
93.1092
89.6725
92.1889
93.4924
91.9441
93.103
93.0917
92.0568
89.2636
92.0788
93.4934
93.521
93.5015
93.0975
93.0912
91.9645
93.5068
93.5124
93.0975
93.5502
93.0912
93.5291
93.0895
93.0912
88.8769
88.8769
)
;
    }
}


// ************************************************************************* //
