/*--------------------------------*- C++ -*----------------------------------*\
| =========                 |                                                 |
| \\      /  F ield         | OpenFOAM: The Open Source CFD Toolbox           |
|  \\    /   O peration     | Version:  v1912                                 |
|   \\  /    A nd           | Website:  www.openfoam.com                      |
|    \\/     M anipulation  |                                                 |
\*---------------------------------------------------------------------------*/
FoamFile
{
    version     2.0;
    format      ascii;
    class       volVectorField;
    location    "0.69";
    object      U;
}
// * * * * * * * * * * * * * * * * * * * * * * * * * * * * * * * * * * * * * //

dimensions      [0 1 -1 0 0 0 0];


internalField   nonuniform List<vector> 
5794
(
(0.0201559 -0.498768 -3.37559e-17)
(-0.154265 0.963273 0)
(0.00217659 -1.04353 -1.3768e-16)
(0.0478921 2.5725 1.17053e-16)
(1.75103 1.88551 2.77469e-17)
(-0.0479652 -0.176144 -1.51421e-16)
(0.836794 -0.215169 -2.42225e-16)
(-0.257556 -0.168575 0)
(6.05725 0.913502 9.92896e-17)
(1.11187 -0.159967 2.14311e-16)
(4.66075 -0.111423 -3.41959e-19)
(-2.58673 -0.0213238 0)
(-2.04454 -0.362412 5.40655e-16)
(0.810939 6.28753 1.88149e-16)
(0.823488 0.167381 5.06006e-16)
(-0.723502 -0.284782 -1.67046e-16)
(1.02108 0.0626808 4.71795e-17)
(0.219587 6.44124 1.32017e-16)
(0.685498 0.11012 4.83885e-16)
(0.0306506 1.45282 1.48366e-16)
(-2.94823 1.82991 -4.76406e-17)
(-0.116709 -0.317058 -1.80244e-16)
(1.81933 -0.0549455 3.13672e-16)
(1.00823 -0.0804221 -6.23088e-16)
(1.75734 0.288158 -4.17695e-16)
(2.80152 10.7745 2.09422e-17)
(5.7173 -0.549075 0)
(-0.150505 1.81648 -1.52025e-16)
(-0.183545 9.3402 -3.83224e-17)
(0.904432 -0.113944 2.81659e-16)
(-1.26794 -0.630795 -6.17248e-16)
(-1.8614 0.0497966 -5.22451e-16)
(-2.11211 0.114253 -9.1319e-16)
(-0.0215602 -0.435295 4.63023e-16)
(-1.50467 0.324382 -1.98133e-16)
(-0.892687 0.135945 2.14417e-16)
(9.78643 0.602554 -2.21069e-16)
(2.92867 -0.356409 0)
(2.41627 -0.449065 1.46244e-16)
(-0.170093 3.76413 0)
(-0.533566 3.55041 -1.01944e-16)
(-0.0678476 1.88363 1.36727e-16)
(7.45274 0.114386 -8.96843e-19)
(0.580147 3.00934 0)
(0.91314 0.150492 -4.46772e-16)
(4.91102 -0.166906 1.34786e-16)
(4.29011 -0.143999 -2.40209e-16)
(-1.3579 -0.648741 0)
(0.292306 -0.168261 8.64667e-16)
(0.776963 -0.261029 6.9613e-17)
(-0.477088 -0.0627067 -1.72799e-16)
(6.31624 -0.205259 -1.77211e-16)
(-0.732238 0.494383 0)
(0.147648 -0.0667017 1.8469e-16)
(-0.0579999 -0.0546539 1.09929e-17)
(5.17234 -0.492466 0)
(4.55784 -0.313582 -1.90706e-16)
(-2.25895 -0.179807 1.48181e-16)
(8.4775 0.0700138 0)
(4.23917 10.1198 -7.17165e-19)
(9.12899 0.484621 1.93805e-18)
(0.539014 1.19012 -1.23292e-16)
(-0.668604 -1.35991 -1.58005e-16)
(-0.934838 0.0147665 2.15684e-16)
(-1.20466 0.14065 0)
(0.961037 0.230553 -2.68078e-18)
(0.262363 0.60333 -2.58172e-16)
(-0.15744 3.79624 0)
(0.368348 4.66182 -1.54267e-16)
(-0.0206563 0.51932 -4.03181e-21)
(4.90996 -0.474503 1.37644e-16)
(0.411353 2.0306 -3.27053e-16)
(11.5648 2.0245 -3.5328e-18)
(2.01256 0.596295 0)
(0.275208 5.83495 1.36306e-16)
(0.0226914 0.796723 8.40305e-20)
(0.865231 -0.20418 1.32504e-16)
(1.53658 10.6056 -2.16077e-17)
(0.757645 2.91575 3.68945e-17)
(-0.493935 0.0130296 7.55326e-17)
(0.0788364 -0.637604 -2.11553e-17)
(-0.111005 0.986607 -1.5982e-16)
(-0.59487 2.45137 2.19129e-19)
(1.36112 -1.4266 -9.93341e-17)
(2.38663 -1.41091 -3.44133e-16)
(-0.138067 4.72875 -4.54569e-17)
(0.224872 5.99289 3.22072e-17)
(0.0408338 5.23426 -2.54234e-17)
(1.01352 0.246659 -1.67169e-16)
(1.01078 0.454322 -5.3056e-17)
(0.900399 5.55485 -8.11337e-17)
(0.10862 6.54758 -8.91552e-17)
(-0.12292 7.28522 1.39287e-16)
(0.117902 7.65633 5.83516e-17)
(-0.0179117 5.86953 3.7311e-17)
(-2.14551 0.0554293 5.37041e-18)
(0.0122461 6.15594 -5.67012e-17)
(-0.137091 6.99087 -1.51125e-17)
(-0.0150001 6.56031 0)
(8.84652 0.534688 -3.13663e-17)
(1.68002 3.18669 -1.28244e-16)
(-1.09413 0.169183 -4.33636e-16)
(8.36059 0.148206 7.36903e-17)
(0.766812 5.25932 -2.5608e-16)
(1.12447 0.323106 0)
(-0.674873 5.99585 0)
(0.0189242 1.29926 0)
(-0.260009 0.0733724 -2.82663e-16)
(-1.35409 0.573191 -1.24017e-16)
(0.858525 2.59414 -1.05005e-16)
(0.153554 -0.0688991 -8.97117e-20)
(0.452955 0.0138815 0)
(-1.55129 4.65973 1.19837e-16)
(-0.0340744 -0.0163833 1.6621e-16)
(0.0630741 5.80946 0)
(-0.138499 7.77934 0)
(0.286621 0.190965 -3.70979e-16)
(-0.573876 8.08355 -9.1005e-20)
(9.38133 0.435227 -2.34882e-20)
(10.8524 0.590671 6.2163e-18)
(-0.753553 7.94441 1.11597e-16)
(0.850517 -0.038086 0)
(-1.37594 0.142073 0)
(-0.0974672 1.22119 -2.0082e-16)
(0.804832 0.056113 2.33217e-16)
(4.71184 2.33843 5.12752e-17)
(1.05662 5.71347 0)
(0.00433411 -0.136474 9.89435e-17)
(6.57751 -0.570112 1.16483e-16)
(-0.421867 -0.0491612 1.70888e-16)
(-1.10258 -1.0111 3.04776e-16)
(0.0499968 -0.86542 2.23414e-16)
(0.428117 1.34614 2.27143e-17)
(1.09379 10.2684 -6.54486e-17)
(-0.698562 6.85445 1.38465e-16)
(0.899047 0.204528 0)
(4.25153 -0.201027 9.43598e-17)
(0.656017 1.06567 -1.81194e-16)
(-0.734985 0.0674144 1.87657e-16)
(0.377785 -0.20192 0)
(1.36268 -0.464629 -5.10754e-16)
(0.880705 2.44353 0)
(0.787143 0.0676477 0)
(0.718896 2.81662 2.74285e-16)
(-0.796208 -0.00716019 1.98901e-16)
(1.72152 -0.158162 1.54022e-17)
(-0.817984 0.764914 2.48387e-16)
(7.70901 0.284622 2.38527e-16)
(1.18134 1.14986 -1.9973e-18)
(0.336558 0.84526 4.65823e-16)
(7.29523 -0.182517 -1.75878e-16)
(0.814765 0.0303461 3.1318e-16)
(-0.669986 6.20259 0)
(-1.01689 0.466503 2.01015e-16)
(3.73639 -0.721594 0)
(4.66222 0.136789 0)
(1.38583 -0.616203 -2.79077e-16)
(1.65449 -0.0811095 4.10742e-16)
(5.29587 0.180587 -2.6727e-16)
(2.06103 -0.612071 -1.32171e-16)
(0.414744 -0.00655457 4.32003e-16)
(-1.72723 -0.192577 -3.6333e-16)
(-0.288921 0.00543693 0)
(-1.28907 -0.115043 -1.49567e-16)
(-2.94061 0.0238948 -3.0522e-16)
(-3.09656 -0.0740509 1.65683e-16)
(-0.739154 -0.210287 1.38825e-18)
(-0.488588 -0.321811 -4.35192e-18)
(0.0592328 -0.0771686 0)
(0.277698 0.000850062 1.04947e-18)
(0.617373 0.111353 0)
(-1.82472 0.40888 -1.16786e-16)
(-1.05708 0.214961 0)
(-1.3998 0.408326 1.02608e-16)
(-0.892005 -0.213209 4.43483e-16)
(1.74853 0.00074152 0)
(0.292566 0.045789 -2.63869e-16)
(1.8942 0.050791 -2.41077e-16)
(0.634243 -0.0956525 -9.53466e-17)
(6.47157 0.133871 6.78745e-18)
(0.433958 -0.430738 -6.14583e-18)
(-1.34777 -0.316024 0)
(1.03962 -0.250454 0)
(-1.87339 -0.323001 1.26891e-16)
(1.20236 -0.258223 0)
(-0.584278 -0.781198 6.46359e-17)
(-1.30666 0.167584 -1.53014e-16)
(-1.21666 0.295457 -1.02527e-16)
(0.665569 -0.154417 1.39148e-16)
(-1.09474 0.0380816 3.52777e-16)
(4.56535 -0.0730517 -3.48358e-16)
(-1.97395 -0.105512 3.86438e-16)
(-2.25537 -0.0847171 6.07942e-16)
(-0.655291 -0.329681 6.41873e-16)
(-0.386849 -0.349055 -1.05827e-16)
(-1.76136 -0.580566 -4.83138e-16)
(0.694129 -0.41253 -2.35613e-17)
(0.204768 -0.0426407 -2.02684e-16)
(0.664908 0.0448387 -3.15026e-16)
(6.47 -0.0460572 1.23094e-16)
(1.39263 -0.151601 -2.1971e-17)
(6.17826 0.0241114 0)
(-0.498669 -0.527619 0)
(-0.265658 -0.353669 1.13688e-17)
(4.2247 0.0102198 -5.79065e-17)
(4.84261 0.0227427 0)
(-0.337638 -0.157219 1.27309e-17)
(0.356286 0.00275536 2.08366e-19)
(4.57564 1.13599 -6.16658e-18)
(2.09261 8.69421 1.26476e-16)
(0.317585 0.406334 1.34366e-16)
(9.76847 -0.00891776 0)
(-0.929182 -0.228188 -1.16198e-16)
(-1.26733 -0.707017 1.70777e-16)
(0.786243 -0.38581 0)
(0.750937 0.464615 7.91772e-16)
(0.597465 0.14274 -1.88918e-16)
(1.42529 1.83818 9.33347e-17)
(4.06596 -0.19875 1.35504e-16)
(1.39208 5.64178 -1.76678e-16)
(9.68616 -0.00478418 0)
(1.68339 0.392564 2.33655e-16)
(-0.346461 1.98406 0)
(-0.170978 5.23102 2.82056e-17)
(5.10639 0.121758 1.34491e-16)
(11.5894 0.700753 2.10114e-18)
(-0.273495 -0.173922 -8.05047e-17)
(1.12762 -0.0703793 -1.14155e-16)
(-0.499055 -0.0612811 0)
(0.744646 0.238691 -3.12474e-16)
(-1.03068 0.403262 0)
(-1.40197 0.673548 -6.65007e-17)
(-0.751525 0.0996699 -1.1299e-16)
(-1.01755 0.716201 1.55373e-16)
(2.12006 0.492357 1.64822e-16)
(10.1051 0.196226 5.53056e-18)
(7.71914 1.00503 1.95284e-18)
(7.25986 0.510569 2.91059e-17)
(-2.1019 -0.0197701 -1.60781e-16)
(0.122587 -0.514754 -4.54937e-16)
(-0.277473 0.752771 0)
(1.18192 0.862888 1.18874e-15)
(1.48196 4.5839 2.24431e-16)
(-0.614922 0.673558 -2.78006e-16)
(-1.53501 1.19576 2.65607e-16)
(0.23026 -0.0578371 3.41477e-16)
(0.958086 0.132912 -1.53713e-16)
(0.887181 0.779951 9.31067e-18)
(-0.117769 5.92926 0)
(-0.0323876 5.47525 0)
(-0.0321443 5.25031 0)
(0.842556 0.173868 2.85519e-17)
(2.36845 -0.640059 -7.23127e-17)
(-0.189768 -0.11852 8.85636e-20)
(7.32558 1.17539 -5.81957e-17)
(4.424 2.45981 -9.96973e-18)
(8.27589 0.217887 -1.51413e-16)
(9.04627 0.530193 1.60512e-16)
(0.08593 -0.304528 2.97859e-16)
(0.715455 0.0405897 0)
(5.91182 -0.0563285 -1.14051e-16)
(-0.822159 -0.323571 1.00951e-16)
(-0.860457 -0.891657 -1.00363e-16)
(1.17322 -0.189382 0)
(-2.02494 -0.0786197 0)
(-0.95688 0.0133012 -6.65384e-19)
(0.327375 1.59745 1.59774e-16)
(3.75521 0.770761 0)
(0.530757 0.00304963 -7.54783e-16)
(4.42611 0.0154083 -1.25597e-16)
(3.92427 -0.00257108 0)
(0.61427 -0.92524 -2.87151e-16)
(0.359522 1.01934 -5.42199e-16)
(5.15445 -0.320115 -1.65738e-16)
(9.53104 0.08975 3.70222e-17)
(0.487917 0.146054 3.28836e-16)
(0.199118 -0.0896788 -1.96586e-16)
(1.44446 -0.283439 -8.81686e-17)
(0.620181 0.31414 -1.87823e-16)
(-1.46674 0.881026 -2.60091e-16)
(0.153441 -0.0385908 4.27797e-16)
(0.926568 3.34335 2.60646e-16)
(-0.462347 3.5271 1.05617e-16)
(0.0765553 1.82303 -3.70089e-16)
(-0.0975016 4.94223 4.9622e-17)
(-0.148147 5.17544 1.18017e-16)
(0.112361 5.71806 1.33662e-17)
(-0.0210675 5.51759 0)
(0.63836 5.92376 4.15638e-17)
(-0.742637 8.05575 0)
(-0.717273 0.346523 -1.78086e-17)
(-1.21568 0.764267 -1.32538e-16)
(-0.00910496 -0.301781 2.678e-18)
(0.593976 -0.0799287 0)
(8.09248 1.70019 0)
(1.30713 7.56579 6.79118e-18)
(-0.285686 2.23258 7.20599e-17)
(-0.0182079 1.39054 -1.19523e-19)
(-0.088336 3.86256 -2.32386e-16)
(0.975126 -0.216446 -1.75494e-16)
(0.00997621 0.625333 1.21046e-16)
(-0.508942 6.23244 0)
(0.0631469 -0.57521 -8.44584e-16)
(0.683568 1.87356 0)
(1.25803 1.57771 -1.48061e-16)
(3.54938 0.257571 1.66429e-18)
(0.579519 0.368629 -2.58803e-16)
(0.437859 3.1554 2.94418e-16)
(5.07307 0.104794 2.47793e-16)
(4.46728 0.0781971 0)
(1.13497 -0.374877 -6.26324e-16)
(-0.157019 0.494061 -3.10864e-16)
(1.45126 7.50325 -1.41595e-16)
(0.00665732 -0.113457 -9.24594e-17)
(10.5985 0.11935 0)
(10.0234 0.302346 -1.84996e-17)
(-0.0323319 0.0657881 -1.00924e-16)
(-0.188186 2.58879 -2.81932e-16)
(-2.03036 0.38075 -2.22063e-16)
(-0.0673657 6.82173 -4.31888e-17)
(-0.573908 -0.400139 4.55474e-16)
(0.0768763 -0.641046 -2.07358e-16)
(-0.467239 6.8506 -8.65325e-17)
(1.56318 1.42599 -8.85706e-19)
(-0.727393 -0.179121 0)
(1.25778 -0.653874 0)
(0.947813 -0.0989576 0)
(-2.36404 -0.329389 6.44438e-17)
(-1.31976 -0.278 -3.59124e-16)
(4.43365 -0.130313 3.0533e-16)
(6.54932 -0.0143113 -7.03701e-18)
(6.63873 -0.124774 3.07862e-16)
(-1.56514 -0.27688 8.6926e-17)
(-1.81552 0.252596 5.0353e-16)
(-1.72849 0.175184 0)
(0.950469 -0.145348 -2.44737e-16)
(1.3999 -0.0677443 0)
(-0.056398 -0.0543801 0)
(0.38108 -0.133524 -3.42922e-16)
(-0.601956 0.018218 0)
(0.823151 -0.134943 4.47035e-16)
(1.86756 0.103937 4.1516e-16)
(6.60413 0.427025 0)
(1.844 -0.0609923 0)
(0.167021 0.00283678 4.4865e-16)
(1.32198 0.0124273 3.82639e-16)
(-1.07721 -0.520915 3.30264e-16)
(-0.451579 -0.412674 -2.44432e-17)
(-3.05621 -0.114881 -1.23593e-16)
(3.03906 0.096602 6.92412e-17)
(2.86407 0.0442277 6.64994e-17)
(0.00464413 0.129724 2.47782e-16)
(-2.34111 -0.162532 -2.29484e-17)
(-1.90956 -0.197066 1.5598e-16)
(0.278957 -0.426993 0)
(-1.47908 -0.581542 0)
(0.750379 0.0406025 1.87657e-16)
(5.64813 -0.414957 1.6954e-16)
(1.00491 -0.120837 7.99639e-17)
(-0.029888 -0.256333 0)
(0.222684 0.0260448 -2.78579e-16)
(1.83125 -0.194182 4.50218e-16)
(4.66613 -0.0824902 3.72486e-17)
(0.797397 -0.513878 -4.0987e-17)
(0.148303 -0.651355 -3.14583e-16)
(-0.072666 0.184688 5.11354e-16)
(-3.19827 0.00177968 -3.83304e-17)
(4.34347 -0.335895 0)
(3.8037 -0.267289 3.29813e-16)
(-1.83658 -0.203188 -9.35213e-17)
(0.15016 0.0477406 -1.45142e-16)
(1.2219 0.0275588 0)
(0.187768 0.262141 -1.18504e-16)
(0.075529 0.521899 3.42194e-16)
(0.546967 0.0691847 9.07e-17)
(-2.75603 0.168203 1.41979e-16)
(3.90708 -0.00667033 0)
(3.56678 0.158854 8.50295e-17)
(-2.15906 0.499632 0)
(0.582615 0.168602 1.43231e-17)
(0.376941 -0.91204 1.40218e-16)
(0.215465 0.0832138 0)
(10.7836 0.0878427 0)
(-1.14053 0.00144801 1.54943e-16)
(-1.82638 -0.00990509 -5.67168e-16)
(-0.140378 -0.361647 -3.86789e-16)
(-0.494971 9.31587 -2.92263e-17)
(-0.213236 -0.634066 3.11617e-16)
(-0.0364304 -0.865177 -1.11551e-15)
(-0.272164 -0.228707 0)
(0.138179 -0.146939 -8.48644e-16)
(-1.22116 0.929323 -6.48674e-19)
(-0.0168572 0.548473 -2.67952e-18)
(0.343825 -0.0587846 1.86531e-16)
(-0.697351 0.257102 9.49265e-17)
(-0.705717 0.351497 -1.00481e-16)
(-1.03226 -0.0421237 1.12e-16)
(0.0275551 0.764143 0)
(0.823181 0.0781647 0)
(1.52936 0.000758605 -3.11799e-16)
(0.974229 -0.221149 1.43026e-16)
(1.64207 0.184879 -4.16723e-16)
(9.3932 -0.294268 3.09711e-17)
(0.153105 3.31473e-05 2.23265e-16)
(0.296866 0.0281764 0)
(6.3848 0.947731 4.69662e-17)
(-0.0764568 1.54131 -2.49833e-21)
(-0.0616234 -0.296883 2.59346e-16)
(0.264479 1.28028 -3.57523e-17)
(-0.245529 5.76785 -6.20827e-17)
(-0.136326 6.75687 2.42913e-17)
(0.133677 6.62162 0)
(0.88633 0.473651 1.76417e-16)
(-0.962051 0.32216 2.82471e-16)
(5.12567 -0.0309557 2.04408e-17)
(4.47949 -0.0420737 7.15988e-17)
(0.315489 -0.521388 0)
(0.473523 3.37477 1.86494e-16)
(-2.39297 0.183137 0)
(-0.153786 6.28188 3.91823e-17)
(-0.0455924 6.61516 -6.88997e-17)
(-0.166583 7.00277 3.18037e-17)
(0.0372132 -0.0331777 -1.63507e-17)
(0.104167 0.00905303 -4.49936e-17)
(-1.26235 -0.0208601 0)
(-1.86845 -0.00488502 0)
(-0.642718 -0.205254 -2.09393e-16)
(-0.0518587 0.101458 -2.14892e-16)
(-0.0489571 1.28299 -1.33968e-17)
(-0.0158152 -0.488412 6.0877e-17)
(3.96129 0.753578 3.14674e-16)
(10.0112 0.165192 1.31564e-17)
(0.460786 2.13495 -3.13347e-16)
(0.923691 -3.03484 -2.1975e-17)
(0.920424 0.11918 3.3077e-16)
(-0.0798081 0.11939 0)
(0.606315 -0.502865 1.72803e-16)
(0.138839 -0.398367 -1.07674e-17)
(-1.35447 -0.0755372 -1.00403e-16)
(-2.0231 -0.142941 1.86498e-16)
(-0.336524 -0.215673 2.69444e-16)
(9.95868 0.0971496 -2.5677e-16)
(0.622722 -0.484365 0)
(-0.647048 -0.342207 8.38356e-17)
(1.61364 -0.311659 -2.16516e-18)
(-0.0567183 7.79545 -5.7255e-17)
(0.0485802 5.78294 -1.72475e-20)
(-0.773763 0.110458 0)
(0.19745 -0.0568197 2.55041e-16)
(1.16574 0.318793 -8.74412e-17)
(1.42098 -0.0539312 -2.14174e-16)
(0.00167027 1.35469 -6.42892e-17)
(-2.79258 1.41849 4.8269e-17)
(-0.147911 -0.500507 -6.04277e-16)
(-0.145627 6.42484 -2.79656e-17)
(1.14142 -0.196002 -5.11501e-16)
(0.353833 5.25495 -2.25375e-18)
(-1.66158 -0.40362 -2.17914e-16)
(-0.120899 5.97261 -3.59132e-17)
(1.00533 6.60433 8.7728e-17)
(-0.0906678 -0.46536 -1.23774e-16)
(0.0413951 1.16525 -2.22314e-16)
(-0.621059 0.750776 1.84591e-16)
(0.385118 -0.0316672 -4.33995e-16)
(8.4897 0.578165 9.42972e-17)
(-0.423671 -0.0511818 -2.93418e-16)
(10.4605 0.30248 -2.10349e-18)
(2.75003 3.42399 6.10556e-17)
(0.574674 0.0609167 -4.49616e-16)
(1.18817 2.38675 -4.97948e-17)
(0.791997 -0.11699 3.87248e-17)
(6.21122 1.17632 -4.9464e-18)
(1.5558 0.70687 -6.96586e-17)
(0.165439 -0.00992398 2.94159e-17)
(0.218861 -0.328015 -2.2087e-16)
(-1.01179 -1.05638 1.15589e-15)
(8.60889 2.41335 -2.71827e-18)
(-0.252658 2.37087 1.64841e-16)
(1.40403 0.751984 1.89313e-16)
(-0.00217463 1.01535 5.49581e-17)
(-1.07379 0.675173 2.81195e-16)
(-0.197612 -0.540659 0)
(-0.036438 -0.349745 -2.15345e-16)
(-0.173086 -0.086908 1.29663e-17)
(0.0678382 0.0395319 1.87518e-16)
(3.36513 -0.131965 -4.55737e-20)
(9.8311 0.0322668 0)
(1.94021 -0.143145 2.11804e-18)
(0.443149 -0.109952 -5.04932e-17)
(0.0280414 -0.715593 -1.09749e-19)
(-0.0565229 1.07015 1.98728e-16)
(-0.207171 3.76693 -1.54421e-16)
(-0.394441 5.297 4.72808e-16)
(1.26499 0.972559 8.37859e-18)
(-0.106062 1.46685 -3.36694e-20)
(0.260791 -0.107581 2.71682e-16)
(0.81492 0.0942849 0)
(0.0787317 -0.0461911 0)
(-0.778464 0.0176137 -3.61421e-17)
(6.83896 0.814681 -1.37024e-19)
(3.1361 2.14973 2.25092e-17)
(8.80004 1.39767 -5.8118e-18)
(10.3907 0.534726 3.33271e-18)
(0.439632 -0.179226 0)
(0.456593 2.7368 0)
(0.063843 1.03887 2.23258e-16)
(-0.00873031 -0.447985 2.44944e-16)
(8.94233 0.495439 -4.52978e-16)
(1.59449 0.692144 0)
(0.921398 0.172178 0)
(-2.07208 0.147977 2.09367e-16)
(0.566031 0.387455 1.53796e-18)
(0.244315 -0.589503 -1.4938e-16)
(0.992119 -0.36149 1.97006e-16)
(0.172105 -0.303332 -1.02609e-16)
(0.129263 6.02805 -3.33157e-17)
(-0.278815 7.55175 -1.41128e-17)
(0.894363 -0.36826 -2.53501e-16)
(9.9306 0.16564 -6.79886e-17)
(9.4016 -0.0127613 3.45555e-18)
(0.024438 -0.420601 1.72385e-16)
(0.351041 1.38243 -3.85998e-17)
(2.18428 2.30256 -1.07506e-17)
(-0.68474 8.62278 -1.35029e-16)
(-0.158735 0.0014835 1.09879e-15)
(-0.541662 0.623302 7.00256e-18)
(0.70906 0.231348 0)
(5.548 3.79701 6.62235e-17)
(0.124666 1.52604 1.07008e-16)
(-0.00508712 -0.254 4.15678e-20)
(-0.811069 2.1856 1.86679e-16)
(-0.562323 -0.116896 0)
(10.6907 0.131812 0)
(-0.0368753 -0.23798 -7.20628e-17)
(0.0217656 0.158679 0)
(-0.209196 0.0469645 9.15335e-17)
(10.0389 0.0650907 -1.07247e-16)
(4.7762 -0.0315016 7.709e-17)
(-0.408452 -0.0117229 1.29144e-16)
(6.9548 0.0280082 9.69836e-17)
(-0.0374919 -0.453337 9.69815e-17)
(-0.796561 -2.51316 1.92253e-16)
(0.00949889 1.41836 1.99612e-16)
(0.916046 6.43031 -1.07835e-16)
(0.308246 -0.167175 -8.50858e-17)
(-0.692311 -0.17028 0)
(9.73311 0.825135 0)
(0.789163 2.82823 -2.70099e-16)
(-0.343148 -0.0672567 -2.15815e-16)
(0.125743 -0.599281 7.39522e-16)
(0.876491 4.85182 -2.70755e-17)
(0.762221 0.137167 0)
(0.412053 0.0772434 -4.95919e-16)
(1.58037 1.89635 -1.41735e-16)
(-0.801269 0.0624789 1.74584e-16)
(0.650216 0.0617838 0)
(-0.328945 2.39428 0)
(0.0226371 -0.227074 0)
(0.186533 1.51913 -1.66758e-16)
(0.940731 2.0052 7.78961e-18)
(9.98227 2.77215 -2.46336e-18)
(0.520036 0.0118476 0)
(5.30367 1.27358 0)
(0.677364 0.0318548 -9.94387e-17)
(1.09541 6.39997 7.62163e-17)
(1.62996 0.608331 0)
(-0.54811 -0.277456 4.53744e-16)
(0.352986 -0.108113 6.93387e-20)
(0.0529243 -0.509448 -1.77315e-16)
(1.03964 0.0628657 0)
(8.03682 0.597024 -6.47635e-17)
(-1.56371 0.660252 -1.56005e-16)
(0.596697 3.04382 7.33847e-17)
(-0.00477739 4.03267 0)
(0.976953 3.53281 -1.03747e-17)
(9.95871 0.258881 -2.0487e-17)
(2.76599 2.77538 -4.00898e-18)
(-0.149172 5.14085 -1.38595e-16)
(-0.018873 1.77784 -2.54356e-16)
(-0.392376 3.39052 -4.70589e-16)
(-0.299912 6.79394 8.6951e-19)
(0.247978 6.19986 5.17511e-17)
(2.54591 2.63162 0)
(10.9092 -0.216563 2.03056e-17)
(-2.75171 -0.185693 1.38017e-16)
(8.887 0.821576 -1.19857e-16)
(-0.05706 0.221393 1.94631e-16)
(-0.147515 6.4673 0)
(-0.0500372 6.47333 -5.58831e-17)
(-0.211551 4.90183 1.89606e-16)
(0.945827 0.150777 -7.50844e-18)
(-0.474516 0.0405409 6.33256e-17)
(0.801801 0.64827 6.61933e-18)
(-0.2443 6.637 -2.84777e-17)
(0.157407 6.02011 -3.28508e-17)
(2.05453 8.85796 5.68727e-17)
(0.384495 0.145367 2.00034e-17)
(10.135 0.165911 0)
(0.879276 -0.211131 4.71149e-16)
(-0.110557 0.280659 -1.13194e-16)
(0.409952 -0.147306 -3.84102e-16)
(7.50259 0.585659 1.70871e-17)
(0.0835554 6.04183 -5.12908e-17)
(-0.141438 6.85742 1.90241e-16)
(1.1118 -0.286354 -2.77727e-19)
(-0.37213 0.0725029 -1.23313e-16)
(1.03836 6.6048 0)
(1.25026 -0.103335 0)
(-0.0543433 -0.135828 -2.20544e-17)
(-0.539868 2.71375 0)
(3.2829 4.22955 -5.7216e-17)
(4.5339 3.14813 0)
(1.13143 5.43014 -1.61829e-16)
(0.0335963 0.913137 6.75202e-17)
(0.82915 -0.221259 3.96643e-16)
(1.53374 0.0119242 4.31709e-17)
(7.16472 0.662422 -1.52046e-17)
(3.81037 -0.00513655 -2.38823e-16)
(7.76675 0.14133 -2.92136e-16)
(1.67029 0.310532 0)
(0.200744 1.3654 -8.16454e-17)
(5.06344 2.91163 1.63235e-16)
(3.58131 1.63319 -7.47197e-17)
(0.091089 0.0464497 -3.7742e-16)
(0.287128 1.36428 5.75167e-16)
(-0.658307 0.48474 3.61293e-17)
(0.160049 0.391256 -5.14173e-16)
(1.31646 1.93026 -1.83368e-19)
(0.914958 1.18505 -2.47694e-16)
(-0.412093 0.107719 2.027e-16)
(-0.0503661 -0.498671 1.14138e-16)
(-0.16024 1.05323 0)
(0.0539299 0.484733 -8.02021e-17)
(0.00125294 -0.477886 -9.06831e-17)
(0.362211 1.26351 3.07124e-16)
(-0.153467 -0.351055 -1.2116e-16)
(1.48312 8.66819 -3.66162e-17)
(10.6581 0.423481 -7.44256e-17)
(-0.418812 0.0179684 1.07024e-16)
(-0.0426388 2.35964 -5.04771e-17)
(-0.0369668 -0.0391421 -1.6159e-16)
(8.73839 0.172055 3.59161e-16)
(3.90755 -0.133858 -2.47246e-17)
(0.020821 6.44851 3.70126e-18)
(4.22097 -0.149505 2.52143e-16)
(-0.0969922 4.88647 -1.773e-16)
(0.0616641 5.39546 9.48357e-17)
(7.27828 0.279273 0)
(0.0473279 0.0761512 -1.31443e-16)
(0.0570701 0.0493951 3.13981e-17)
(-1.01651 -0.122735 0)
(1.22249 0.902228 -1.71022e-16)
(0.0240996 -0.177952 6.96235e-17)
(1.13989 0.381641 2.73958e-16)
(0.944113 0.114242 3.01286e-16)
(3.80497 0.175038 -4.21068e-17)
(8.98434 0.403537 -1.10202e-18)
(0.704597 1.36004 -1.76067e-16)
(-1.50125 0.225461 2.74776e-16)
(-0.509273 0.729742 -3.02974e-16)
(0.581633 0.290625 1.1811e-16)
(0.154568 -0.268683 0)
(-0.326975 -0.642174 -1.17773e-17)
(-1.89099 0.878269 -2.93014e-16)
(-0.0362938 0.940424 -1.46217e-20)
(-0.0191074 5.57475 3.0146e-17)
(0.218129 5.62679 -2.79076e-18)
(-0.208615 5.074 -1.15958e-16)
(0.331602 5.69322 3.32517e-17)
(2.00048 4.60801 -1.44262e-16)
(7.09851 0.338773 7.20272e-17)
(0.181535 0.856989 0)
(10.5488 0.919745 0)
(-1.94713 0.144464 3.56158e-16)
(-0.80598 0.154528 6.00025e-16)
(0.0483993 5.99884 1.56732e-16)
(-0.0610641 6.9934 -1.27956e-16)
(0.32269 -0.340508 1.38286e-16)
(1.23244 5.66129 -4.18248e-17)
(0.481239 -0.0373275 5.37286e-17)
(-0.358503 0.473905 2.4381e-17)
(0.388326 -0.0401034 1.42695e-19)
(0.0711784 -0.0259675 -7.35239e-17)
(-0.678004 -0.0354216 -1.12184e-17)
(1.04969 2.32741 -5.76775e-17)
(3.45402 -0.0717033 -4.13661e-16)
(0.369802 3.78182 6.91307e-18)
(-0.0357811 -0.164871 1.7642e-16)
(0.666138 0.250844 0)
(0.779744 -0.387708 0)
(-0.0730126 3.94934 0)
(0.817859 6.20062 2.30124e-16)
(1.23713 8.47402 2.45353e-16)
(-0.201738 6.40655 2.47576e-16)
(0.635429 -0.115047 3.99724e-17)
(5.93332 3.31846 -3.91546e-17)
(0.351867 0.121821 0)
(-0.0701704 0.393293 1.02509e-16)
(-0.515492 -0.563554 3.46303e-17)
(10.5449 0.0568094 -7.74536e-18)
(0.184673 -0.0882181 -1.16344e-16)
(-1.47848 0.116961 3.38277e-18)
(-0.649095 -0.0668898 -1.70328e-16)
(9.00197 0.384802 -2.06801e-17)
(0.911039 1.63982 0)
(3.50351 1.21746 -3.56884e-16)
(3.45499 0.952599 2.17547e-16)
(-0.184979 -0.224716 0)
(0.0471496 -0.115383 8.06527e-17)
(1.27639 2.32305 -2.6326e-16)
(8.67598 0.168624 0)
(1.78794 5.94999 -4.64526e-16)
(-0.225694 5.78169 -1.39618e-16)
(0.177838 2.84427 0)
(1.18915 0.555461 0)
(11.3973 0.281702 4.50741e-17)
(10.3746 0.356849 3.47394e-17)
(8.9507 1.09468 1.87763e-18)
(5.31058 2.14213 -8.22516e-21)
(0.488804 2.66731 0)
(1.35161 0.639276 2.09057e-16)
(2.51626 7.11385 -2.97527e-17)
(4.5552 -0.0588793 0)
(0.142527 -0.387849 -4.96695e-16)
(3.74291 2.27602 2.19022e-17)
(0.475686 1.14705 -1.22378e-16)
(9.39901 0.928079 -5.31016e-17)
(10.8821 0.0436299 8.06577e-17)
(1.63381 1.87139 -1.87121e-16)
(9.93709 0.420701 -1.60306e-17)
(-0.0727214 6.02595 1.76211e-16)
(0.835836 8.94523 4.19285e-17)
(0.61602 6.92037 -1.03102e-16)
(6.74397 3.60856 0)
(0.632194 -0.0970459 1.57763e-16)
(-0.238409 -1.29429 -1.75666e-16)
(1.79049 0.0847586 2.84381e-17)
(-0.00950751 0.0742696 1.40244e-16)
(0.0795646 6.56493 8.73175e-21)
(-0.0894205 7.1618 2.5759e-19)
(0.538988 5.96102 7.59037e-17)
(0.414539 0.504485 0)
(-0.00657235 -0.167477 0)
(0.574512 -0.249988 1.07703e-16)
(0.790777 0.738418 1.63901e-16)
(-0.101956 5.28824 -1.10155e-16)
(-0.0261121 5.58242 -3.73075e-18)
(-0.234964 2.4276 0)
(0.0157625 0.908643 -4.63221e-17)
(10.1024 0.10931 8.86612e-17)
(-0.960168 0.230743 0)
(1.69764 1.54923 -3.53652e-16)
(-0.0844988 -0.0856579 8.24492e-17)
(1.07382 -0.268622 2.5145e-16)
(0.092864 6.07428 7.06467e-17)
(-0.208565 7.2746 1.40241e-16)
(9.62763 0.930811 0)
(0.268334 7.42792 -3.61279e-17)
(-0.0334282 5.92943 -3.58387e-17)
(9.53293 1.15213 -9.82937e-17)
(2.09808 0.367844 -1.40814e-19)
(7.39595 1.82476 6.56341e-18)
(-0.271721 6.48764 4.95164e-20)
(-0.00391772 5.65852 0)
(0.00693647 5.62935 2.92048e-18)
(-0.293751 4.94448 -9.96831e-17)
(0.529417 5.50342 -4.10675e-17)
(3.55087 4.13503 1.45328e-16)
(0.759025 2.20813 3.56992e-17)
(-0.166073 6.72933 2.19259e-16)
(0.0183141 6.59077 0)
(-0.275455 5.41609 -1.43785e-16)
(1.03472 1.24046 3.23873e-17)
(0.063025 -0.0894175 -1.60654e-16)
(0.350357 0.241785 8.30697e-17)
(0.135429 0.163515 4.822e-18)
(-0.428334 0.713966 1.29844e-16)
(0.389017 -0.12395 0)
(1.38161 3.51444 1.24061e-17)
(0.00942382 -0.360501 -2.91574e-17)
(0.590453 0.0131594 -1.26891e-16)
(8.90211 0.704504 -7.37583e-19)
(-0.259625 1.25359 -4.26167e-17)
(0.0265416 -0.343655 -2.79965e-16)
(0.165274 1.47138 -1.75414e-16)
(-0.276006 6.34202 -2.16772e-16)
(0.312918 6.17081 0)
(0.591887 0.175066 2.52202e-16)
(-0.284299 6.47529 9.21847e-17)
(0.28321 5.99818 2.55424e-17)
(-0.778562 -0.0403556 -8.40374e-17)
(3.4664 3.61297 -1.53468e-16)
(-0.866357 -1.35607 4.98802e-16)
(-0.747865 -1.04601 5.99709e-16)
(0.761986 0.614603 -2.7819e-16)
(0.375599 5.75932 2.58765e-16)
(-0.0363323 1.30894 -3.67696e-16)
(-0.999844 -0.295723 -1.95636e-16)
(-0.0391906 -0.561634 -1.36991e-16)
(1.24111 9.06145 0)
(9.8887 0.104938 0)
(0.0621067 0.0861625 -3.05574e-16)
(-0.533723 -1.00861 1.6061e-16)
(0.323916 0.0995257 -8.14324e-17)
(-0.808759 0.358771 0)
(0.699792 -0.00880248 1.18117e-16)
(0.558798 -0.023521 -3.18389e-20)
(0.680576 0.404673 -6.31602e-16)
(4.07987 0.0825059 2.27619e-16)
(1.06568 5.05467 1.15451e-16)
(-0.297999 6.23915 -3.06777e-16)
(1.39134 -0.345108 4.0403e-16)
(0.741138 0.510376 -1.75154e-16)
(9.75969 0.916761 -1.38015e-17)
(0.491204 3.19993 2.09671e-16)
(0.353649 -0.073357 2.05502e-16)
(1.04456 0.436128 0)
(-0.922194 0.770541 5.5713e-17)
(2.05456 1.37941 -7.54495e-16)
(0.265555 1.39054 -2.43103e-17)
(0.0275857 -0.237949 3.365e-16)
(0.0657507 2.57311 2.69573e-17)
(8.58434 0.558882 -1.17376e-16)
(10.2753 0.34639 -2.43663e-19)
(-0.385745 0.0167725 1.98739e-16)
(11.0745 0.0500455 0)
(0.656911 0.0889091 -5.17378e-18)
(0.146523 -0.0758663 2.87117e-18)
(0.363237 -0.365677 -2.03081e-17)
(0.000141574 6.43192 4.29904e-17)
(-0.141862 6.41822 4.10883e-17)
(0.0141598 5.05006 1.80122e-17)
(10.5288 0.0380051 1.46894e-17)
(-0.102701 -0.257338 6.98274e-20)
(-0.633408 7.72576 -4.79356e-17)
(0.129304 -0.149742 1.35286e-20)
(-0.069194 1.00512 0)
(9.11299 1.58739 -4.46783e-18)
(0.159743 -0.128134 0)
(-0.281627 0.193604 1.02166e-16)
(-0.00363133 0.246995 9.41261e-17)
(0.115432 1.00373 4.92455e-18)
(0.644845 0.266272 2.48154e-16)
(-0.784895 -0.00235347 3.44871e-16)
(9.38945 0.603008 -1.82213e-17)
(-0.107279 -0.23457 2.78529e-16)
(1.21007 -0.600019 3.19677e-16)
(9.55078 1.08611 1.00813e-16)
(9.75731 0.295846 4.21926e-17)
(6.03927 2.86879 2.66439e-17)
(0.103138 5.96736 -5.10294e-17)
(-0.0726667 6.65274 2.43768e-17)
(0.0743938 2.58222 1.31891e-16)
(0.17499 1.88362 0)
(4.14221 0.711718 4.77226e-17)
(5.66108 3.07957 8.6963e-17)
(9.48082 -0.203647 -1.96099e-17)
(0.529455 0.623944 1.21636e-16)
(0.301311 -0.388523 2.64954e-16)
(0.157412 0.107648 0)
(8.89757 1.70112 0)
(1.0246 2.25985 0)
(1.31444 1.94324 2.97536e-16)
(-0.0615844 0.0826271 9.89135e-17)
(2.42824 4.43047 2.09871e-16)
(-0.258069 5.20777 3.00581e-17)
(1.53238 7.1953 -5.87464e-17)
(0.178787 0.197126 0)
(-0.13673 -0.101358 1.04453e-16)
(0.0606022 5.59395 -1.33045e-16)
(-0.715997 0.0411973 -7.67891e-16)
(11.2621 0.114558 9.84614e-17)
(5.72217 1.16888 0)
(-0.104012 -0.270735 2.25761e-16)
(0.983782 5.58324 0)
(0.625079 0.15188 1.6296e-16)
(0.159577 -0.023493 -2.52476e-17)
(0.972742 9.874 6.13364e-17)
(9.9255 1.09559 -1.37341e-17)
(9.88585 0.691135 1.04714e-16)
(-0.953434 0.303128 0)
(0.967923 2.36409 -5.75163e-17)
(-0.377238 -0.0368002 0)
(8.67957 0.340386 0)
(0.951618 0.275064 -1.38997e-16)
(0.0389576 -0.141142 2.50272e-17)
(-2.80705 4.34897 -1.3551e-16)
(2.89118 0.797947 -1.2493e-16)
(0.781124 1.99073 1.57392e-16)
(10.287 0.104578 -2.6205e-20)
(5.93259 3.55351 -7.88645e-17)
(0.816129 -1.60448 -3.21826e-19)
(0.0115595 5.85477 6.29671e-17)
(-0.0509185 6.27329 -5.30341e-17)
(0.655941 2.08687 -1.23998e-16)
(1.19587 6.06265 -2.52169e-16)
(1.38494 1.52842 -1.34968e-17)
(0.0424266 -0.650159 -3.84921e-16)
(-0.0993224 1.18144 -2.02925e-16)
(0.955879 0.767831 6.77638e-17)
(0.894938 0.0682973 2.16893e-16)
(0.615131 0.248692 -2.98004e-16)
(0.319606 1.36188 -5.23824e-16)
(-0.0912273 -0.335712 -4.72139e-16)
(6.95162 4.22342 3.35502e-18)
(0.538964 1.30314 5.63272e-16)
(10.083 0.042589 -6.48341e-17)
(0.781329 0.174844 0)
(-0.225968 2.36292 7.90398e-21)
(4.21324 -0.682251 -9.97472e-17)
(-0.345492 2.61729 0)
(10.1045 0.419591 4.06832e-17)
(-0.449244 0.0417276 3.14568e-16)
(0.407362 -0.000914431 -2.80724e-16)
(9.31472 1.99515 0)
(0.103361 6.13507 3.1557e-21)
(-0.330375 7.62806 0)
(10.0403 0.0858303 0)
(0.756251 0.146629 -5.32119e-17)
(9.79091 1.43185 -5.28502e-17)
(9.05403 4.01419 -1.83742e-16)
(1.2148 6.43768 2.43682e-17)
(7.36665 2.09641 -1.08139e-16)
(-0.0946096 3.84866 -7.51231e-17)
(0.010771 3.53626 2.37311e-20)
(-0.023867 4.31284 -7.74929e-17)
(-0.346527 -0.477845 0)
(-0.106345 2.41221 1.13404e-16)
(-0.0230295 -0.537708 0)
(0.54163 0.653615 0)
(0.304372 0.10697 0)
(0.00758096 -0.378442 -2.19076e-16)
(-0.0193736 -0.557671 0)
(0.107345 0.991123 1.27607e-16)
(2.84766 2.57937 -2.85777e-16)
(0.434927 3.27206 0)
(-0.653418 5.40151 1.60567e-16)
(-0.195615 6.38444 -2.4875e-17)
(-0.0136854 6.53577 8.93862e-17)
(-0.152016 6.91313 -4.07601e-17)
(0.904911 1.61055 2.61671e-16)
(9.40507 1.03154 -2.77254e-17)
(0.29964 1.40173 2.14824e-17)
(0.0212375 -0.286296 -9.63287e-17)
(0.632929 0.642663 0)
(0.957691 -0.0413849 -4.94791e-20)
(4.94023 1.86689 0)
(0.58835 -0.0623898 3.08465e-21)
(3.74693 0.128969 -4.68074e-16)
(10.0588 0.0521603 3.56418e-17)
(-0.637475 7.81935 1.20023e-16)
(-2.48526 2.51161 -3.05038e-16)
(-0.0352981 1.18077 0)
(-0.100328 -0.657149 1.04059e-15)
(5.18014 2.68207 -3.23287e-17)