/*--------------------------------*- C++ -*----------------------------------*\
| =========                 |                                                 |
| \\      /  F ield         | OpenFOAM: The Open Source CFD Toolbox           |
|  \\    /   O peration     | Version:  v1912                                 |
|   \\  /    A nd           | Website:  www.openfoam.com                      |
|    \\/     M anipulation  |                                                 |
\*---------------------------------------------------------------------------*/
FoamFile
{
    version     2.0;
    format      ascii;
    class       volVectorField;
    location    "0.39";
    object      U;
}
// * * * * * * * * * * * * * * * * * * * * * * * * * * * * * * * * * * * * * //

dimensions      [0 1 -1 0 0 0 0];


internalField   nonuniform List<vector> 
1431
(
(0.0956155 3.44915 8.43264e-17)
(2.75877 2.89863 2.48866e-17)
(-1.11141 0.185755 0)
(-2.1503 -0.0584151 1.62563e-16)
(-0.657404 -0.530573 0)
(-0.0094931 5.26782 1.80506e-16)
(0.556487 -0.253625 4.34898e-16)
(2.61165 -0.00185464 5.93111e-17)
(-0.65125 7.27592 9.89796e-17)
(0.549252 -0.337923 4.09164e-16)
(2.99414 9.78223 2.07211e-17)
(6.79696 -0.0981366 0)
(-0.44121 3.66148 -1.09746e-16)
(-0.927721 0.0811913 -4.93134e-16)
(0.454972 -0.351148 0)
(0.392348 -0.862165 -3.7294e-16)
(2.13654 -0.16403 -2.52683e-16)
(-2.34833 -0.301456 0)
(2.01014 -0.314413 -2.09295e-16)
(-2.22805 0.14071 1.12667e-16)
(4.51 9.22317 -6.82622e-19)
(-0.338461 0.0773215 2.06379e-16)
(-0.180541 4.49989 -1.23648e-16)
(11.7803 2.15366 -3.62841e-18)
(-0.428949 6.24888 1.04006e-16)
(-0.170319 2.18623 -3.05359e-20)
(1.60294 9.56043 -2.16551e-17)
(-0.518851 -1.00713 -3.14558e-16)
(-0.156479 5.72095 -3.24548e-17)
(0.158512 5.94456 2.59964e-17)
(0.0536166 6.84092 -6.99593e-17)
(-0.0476399 7.06079 2.61772e-17)
(0.00276223 6.81138 0)
(-0.24971 0.0427851 -4.10069e-16)
(-0.43105 6.38831 -2.07605e-16)
(-1.1847 0.223742 0)
(-0.163598 6.38344 0)
(1.24684 0.316965 -6.97161e-19)
(0.236005 -0.687781 0)
(-0.0389292 6.80704 0)
(-0.373475 8.94397 1.08174e-19)
(-0.406942 8.13383 8.46669e-17)
(-0.29638 2.87311 -1.46412e-16)
(-0.0859947 -1.19987 1.66085e-16)
(0.58567 2.99136 0)
(1.10985 -0.524414 2.50451e-16)
(0.588526 0.583048 2.32882e-17)
(1.0304 9.22878 -6.53785e-17)
(0.282577 0.131531 0)
(0.790733 0.748968 0)
(-0.245874 5.66947 0)
(0.303688 -1.33597 0)
(-0.601249 5.95523 1.9752e-16)
(2.73629 0.134042 1.86285e-17)
(1.6691 1.74264 -1.84993e-18)
(-0.156967 3.22884 2.79278e-16)
(-1.2248 0.0796431 1.5749e-16)
(5.21841 -0.248955 0)
(2.17125 0.0814055 0)
(-0.154053 -0.185581 3.68563e-16)
(0.1868 -0.226601 -1.242e-16)
(-1.27066 0.16385 3.25682e-16)
(2.79166 0.197137 0)
(1.55004 0.275362 0)
(-0.374062 -0.310676 8.3233e-19)
(0.673626 0.0866016 -2.08503e-16)
(-0.174761 -0.357411 -2.18224e-16)
(-1.73425 -0.522068 -6.26954e-17)
(1.72355 0.0353297 -4.15886e-18)
(-0.650867 -0.235742 0)
(0.852098 -0.32523 7.76745e-17)
(-0.435175 0.127218 -1.3696e-16)
(-2.11491 0.16659 1.06665e-16)
(-0.463913 -0.0809828 3.1366e-16)
(-1.05554 -0.073183 3.48859e-16)
(0.699672 -0.101263 -4.4505e-16)
(-1.32294 -0.157274 -1.72294e-17)
(-3.15427 -0.18242 -1.1188e-16)
(-0.0855733 -0.437124 -2.62385e-16)
(-1.53041 -0.461373 0)
(2.11981 -0.0132352 -5.69168e-17)
(-1.44379 -0.428221 8.59523e-18)
(5.63826 0.858588 -6.0341e-18)
(0.82504 0.709169 1.00258e-16)
(11.1579 0.801389 2.20443e-18)
(-1.40333 -0.438576 -9.3917e-17)
(0.691294 -0.141197 0)
(1.12852 -0.213041 1.52209e-16)
(8.98892 0.0769775 7.03083e-18)
(7.73767 0.540003 2.16645e-18)
(-0.7772 0.34636 -2.20871e-16)
(-0.802455 0.136551 2.39478e-16)
(1.00944 0.36765 2.24093e-16)
(0.177478 -1.41344 -1.18729e-16)
(1.40978 1.07007 8.84501e-18)
(0.000816737 5.22541 0)
(4.02228 -0.234117 -8.33962e-17)
(5.73402 2.14992 -1.1032e-17)
(-0.606267 -0.700079 0)
(-2.20725 0.0711571 -4.57672e-19)
(-0.343841 4.06496 1.04037e-16)
(-1.31303 -0.143871 -5.57329e-16)
(2.01883 0.0431362 0)
(-1.09864 -0.927233 -2.23232e-16)
(-3.13414 0.101859 1.97447e-16)
(0.042778 5.97923 1.04846e-17)
(-0.0191233 6.32061 0)
(0.914839 6.84517 7.4513e-18)
(-0.00593102 2.57763 2.48449e-16)
(2.20111 0.104399 0)
(-0.123043 -0.409486 -5.70536e-16)
(-0.549063 4.48595 -2.05546e-16)
(0.309067 0.777595 3.59787e-16)
(-0.322089 8.1653 -6.06039e-17)
(2.37327 2.03799 -8.30596e-19)
(-0.200522 -0.277251 6.26829e-17)
(-0.77678 0.164922 0)
(-2.26041 0.0604432 -1.91889e-16)
(-1.6979 -0.246368 0)
(2.17228 0.327154 0)
(0.0216629 -0.198293 -2.15993e-17)
(0.864027 -0.167185 6.92217e-17)
(1.32709 0.113204 2.49718e-16)
(-1.01274 -0.158148 1.3899e-16)
(0.602639 0.20616 0)
(-1.35605 -0.302678 1.46469e-16)
(-1.38032 0.0151909 0)
(0.424829 -0.641331 4.65621e-16)
(-0.410909 0.285006 -2.18376e-16)
(0.296763 0.148933 4.89654e-16)
(1.67211 -0.213556 3.2891e-16)
(-2.36309 0.0818854 -6.83381e-17)
(-0.00442622 0.0924816 -1.15465e-16)
(1.33361 0.0845947 9.36413e-17)
(-2.09897 0.579846 0)
(1.58036 -0.652294 -2.26202e-16)
(-1.73276 0.517461 1.02097e-16)
(-1.39091 0.294291 0)
(9.07151 0.0452333 3.88041e-17)
(0.923136 0.205345 1.52918e-16)
(0.499823 -0.396769 0)
(0.135575 6.92944 0)
(2.26512 -0.0155155 7.08326e-17)
(-0.400837 -0.268979 0)
(0.0698043 2.84318 1.5471e-16)
(-0.00787466 6.85279 -5.39483e-17)
(2.88806 -0.102003 -1.29749e-16)
(-0.551046 4.95142 -2.02393e-16)
(-0.0258938 -1.01165 2.62508e-16)
(-0.589019 -0.462711 1.37371e-16)
(2.87048 -0.0634577 1.31581e-16)
(1.64214 -0.144906 5.90441e-17)
(-0.015942 6.87984 3.24621e-20)
(-1.13045 -0.413915 -1.93317e-16)
(-0.0985263 6.95217 -2.56136e-17)
(0.753329 0.825715 -2.78063e-16)
(9.86836 0.553021 -2.34e-18)
(4.27928 4.00155 5.50826e-17)
(6.82483 0.738866 -5.08897e-18)
(0.172935 -0.450048 2.61632e-17)
(8.27929 1.26764 -3.31932e-18)
(-0.470956 4.26304 1.20446e-16)
(1.46712 -0.15958 -1.52826e-16)
(0.739753 -0.313908 1.1104e-17)
(1.47401 0.0534636 -5.01959e-17)
(-0.136168 5.05173 -1.10351e-16)
(-0.235333 6.78941 3.29374e-16)
(2.01413 1.28413 8.02133e-18)
(2.08684 0.761259 1.59461e-16)
(4.52375 2.27845 2.35597e-17)
(8.39848 0.728184 -7.09667e-18)
(-0.748617 5.50862 0)
(-0.043116 6.71875 -2.43707e-17)
(9.21401 0.354571 4.0007e-18)
(3.47882 3.12736 -9.74293e-18)
(9.89448 0.337698 0)
(0.115676 -0.0667308 0)
(0.290132 4.29447 -1.10594e-16)
(-0.484157 6.00503 -1.79972e-16)
(-0.360952 6.27438 -2.32817e-17)
(0.645121 0.051374 -4.00275e-16)
(0.488694 -0.91657 0)
(1.06091 4.73325 5.58168e-18)
(10.5041 2.84805 -2.50236e-18)
(0.382491 4.26534 8.16572e-17)
(0.0142483 4.54333 0)
(0.673706 3.73264 -1.01409e-17)
(4.25579 3.29048 -3.83769e-18)
(-0.00662172 6.73245 3.88079e-17)
(9.6958 -0.142143 2.46819e-17)
(0.00212759 6.83632 -4.36039e-17)
(-0.0845081 6.72771 -2.41859e-17)
(-0.067101 6.92549 -3.66992e-17)
(0.965264 6.21511 0)
(-2.05143 -0.0774914 0)
(4.64605 4.16305 -5.44144e-17)
(5.88898 2.72625 0)
(0.857118 4.69036 -1.6481e-16)
(1.78233 0.281831 2.55948e-16)
(1.95789 0.0286672 0)
(2.05898 3.88276 2.71779e-19)
(1.31211 -0.206958 -9.09493e-17)
(0.926204 8.26321 -3.32496e-17)
(0.46394 -0.0500013 1.02659e-16)
(-0.636939 4.21282 -3.95238e-17)
(0.014849 6.77622 2.89976e-18)
(-0.086223 6.13124 6.95528e-17)
(1.12949 0.384205 2.23435e-16)
(9.19524 0.833227 -1.22991e-18)
(0.908602 1.34042 -1.35426e-16)
(0.451298 0.0151054 3.66913e-16)
(1.4799 -0.126607 0)
(-0.0436328 6.38153 2.17805e-17)
(0.130763 5.94264 2.60892e-17)
(10.428 1.18161 0)
(-1.61075 0.224885 4.14161e-16)
(-0.0481936 6.98293 1.11801e-16)
(1.16464 4.59794 -4.32542e-17)
(0.416856 5.13268 -4.39754e-17)
(0.769976 8.2199 2.18315e-16)
(-0.186411 7.4984 1.76442e-16)
(1.27826 4.40337 0)
(1.39484 0.334229 2.53316e-16)
(1.01845 -0.291517 0)
(-0.16983 6.66592 -9.96266e-17)
(9.43029 1.50964 2.01567e-18)
(1.3592 6.94129 -2.80364e-17)
(5.12878 2.18052 2.38004e-17)
(-0.0570613 7.20664 1.22923e-16)
(0.516817 8.28775 3.83462e-17)
(3.56416 0.387434 3.34482e-17)
(0.0563991 6.83748 9.89651e-22)
(0.00876334 5.93139 -2.91463e-18)
(-0.0747169 6.95364 5.04379e-17)
(-0.0477118 7.11804 -2.52396e-17)
(7.68141 1.0844 7.72196e-18)
(-0.0551614 6.48261 0)
(0.196531 5.84765 -3.20525e-17)
(0.0496516 6.96473 0)
(1.32957 3.35813 2.45479e-17)
(-0.325853 -0.155351 7.84079e-17)
(1.70124 5.52012 1.06554e-17)
(9.26517 1.13981 -8.19893e-19)
(0.0491734 6.56367 0)
(-0.0031882 6.61064 1.93111e-17)
(0.0198154 -0.783018 5.37533e-16)
(0.0585498 6.18334 1.97575e-16)
(0.888105 8.35846 0)
(-0.260797 7.17387 -2.21369e-16)
(1.27065 0.90429 1.31708e-16)
(0.176025 -0.610583 0)
(9.12922 0.170267 -1.78407e-19)
(0.321198 -0.450022 2.48734e-18)
(1.16637 0.0456362 -1.52102e-17)
(0.0250149 6.77266 3.35407e-17)
(-0.588864 8.42078 -3.59101e-17)
(0.442693 -0.427672 -8.06419e-20)
(9.68193 1.94748 -4.76306e-18)
(6.9546 2.01545 2.939e-17)
(-0.0283296 6.86793 -3.70619e-17)
(-0.0755197 2.99514 9.71985e-17)
(9.16577 0.134314 -2.34828e-17)
(0.759746 4.97354 0)
(0.252406 -0.192635 9.10259e-17)
(-0.156875 5.88715 2.20894e-17)
(0.915804 7.31331 -5.02413e-17)
(-0.936237 7.56526 -9.63871e-17)
(1.24027 5.35217 0)
(0.760882 8.92993 6.1477e-17)
(-0.982769 -0.0660116 0)
(0.440459 1.47067 -4.9506e-17)
(-0.0573811 6.76455 4.44731e-17)
(2.04997 2.56534 -1.18947e-17)
(0.55059 2.32873 5.5405e-17)
(8.58292 0.978216 0)
(-0.062415 6.73092 5.10634e-20)
(8.82664 0.669033 -6.78478e-17)
(0.785391 7.02107 1.95923e-17)
(0.00802507 4.2075 1.79819e-20)
(-0.0598353 4.86189 -5.67139e-17)
(-0.878614 6.07864 0)
(-0.425265 6.37313 1.24135e-16)
(0.0262007 6.7504 6.97138e-17)
(-0.414471 4.75227 1.67443e-16)
(0.488683 0.95176 0)
(6.03224 1.46996 0)
(-0.495903 8.41448 8.91582e-17)
(6.36273 2.11862 -3.53659e-17)
(10.6425 0.563041 0)
(2.92069 3.65025 -2.47529e-17)
(1.08035 0.357416 -1.84163e-16)
(-0.899983 7.96245 9.67228e-17)
(5.44963 2.79082 -2.88469e-17)
(-0.634887 4.53598 -4.13608e-17)
(0.472627 8.04714 -1.19637e-16)
(-0.0487492 7.27149 -2.89952e-17)
(1.25186 4.56982 0)
(0.078382 4.51181 0)
(-0.873575 1.53049 1.57743e-16)
(0.0257533 4.18506 6.89997e-18)
(-0.688314 5.72108 -1.2594e-16)
(-2.54532 0.248742 -1.3996e-16)
(1.35205 2.15758 -3.50006e-18)
(-0.671246 3.33723 5.71225e-17)
(0.28418 5.64145 -3.64644e-17)
(0.550693 -0.391511 -5.65271e-17)
(3.54317 3.93349 1.68119e-17)
(-0.117765 6.63911 -2.10931e-16)
(-0.395489 7.61193 -1.75498e-16)
(3.84666 2.34213 -1.63662e-17)
(4.71597 4.2572 1.93812e-16)
(-1.94019 0.0765948 0)
(-0.724951 0.24639 -8.12602e-17)
(0.450699 1.52502 0)
(-0.822707 7.70093 -1.80595e-16)
(5.68848 3.15221 0)
(0.636606 5.0095 -3.06715e-19)
(1.03642 1.37745 1.6344e-17)
(0.781852 0.586313 -1.77234e-17)
(6.57638 5.29007 1.12138e-18)
(3.29322 4.58926 1.5456e-17)
(5.20685 3.62916 0)
(-2.01708 -0.171282 0)
(-0.445976 3.70692 0)
(0.372118 4.66555 3.21308e-16)
(-1.05296 0.171731 -1.83898e-16)
(-2.06597 0.0599901 0)
(-0.825743 8.23117 1.93585e-16)
(3.02067 0.739735 3.13752e-17)
(1.19261 -0.0531375 7.24151e-17)
(0.208228 4.2499 1.63879e-16)
(1.49409 -0.122228 1.30986e-16)
(-0.83079 8.12337 -1.94853e-16)
(-0.133053 -0.127363 -3.38711e-16)
(-0.177124 -0.324873 -1.88929e-17)
(-0.588774 3.3473 -2.53017e-17)
(-0.722484 8.3201 0)
(7.21098 1.25112 5.3651e-18)
(0.29908 4.6402 -1.52246e-16)
(0.506486 2.49307 0)
(-3.07881 0.146522 0)
(-0.487141 3.281 2.02688e-17)
(3.74658 4.79418 7.85437e-17)
(-0.465158 8.46886 0)
(-0.634487 6.90666 1.08092e-16)
(0.0712227 6.50154 0)
(2.36613 3.32547 1.62561e-17)
(9.00577 0.417123 6.06515e-17)
(3.92641 4.61093 -1.37232e-16)
(-0.643409 4.08438 0)
(0.593043 3.35905 1.71744e-16)
(-1.04893 -0.850274 -2.61942e-16)
(-0.454127 4.03846 1.31998e-16)
(3.11444 4.95115 -5.66786e-19)
(-0.959745 -1.40204 1.98302e-16)
(0.0776226 4.50468 -1.19382e-16)
(7.65569 1.57728 2.26515e-18)
(0.667232 0.371748 -8.181e-17)
(9.27359 0.0951413 -4.58151e-20)
(-0.435166 8.70763 6.28428e-19)
(-0.00803854 0.175458 -4.09294e-16)
(-0.0439387 4.63188 -2.39375e-17)
(0.085269 4.25971 -5.36834e-17)
(0.688178 1.62776 3.73069e-18)
(1.36727 0.503341 -2.99973e-17)
(6.51382 3.72715 2.03812e-17)
(-0.671225 7.5785 9.75148e-17)
(11.5092 3.85423 -3.5255e-19)
(-0.29244 7.68084 2.3981e-17)
(0.305002 7.08148 9.05296e-18)
(1.24708 8.27995 -8.35765e-17)
(-0.312906 -1.0368 -1.61035e-16)
(8.74582 0.18705 9.85363e-17)
(1.47955 5.4576 0)
(-0.498471 8.57957 5.05384e-17)
(7.64175 1.62689 -1.13267e-18)
(3.71394 4.6188 -1.66002e-17)
(0.406585 2.58624 -5.87969e-17)
(0.735752 1.60553 0)
(7.71529 2.18452 -2.23268e-18)
(-0.509838 4.8651 2.36294e-16)
(0.291527 4.52448 7.74503e-17)
(0.308513 3.71515 0)
(-1.33455 -1.11983 1.10734e-16)
(9.93224 5.08461 -1.07583e-17)
(-0.648547 6.85604 2.99944e-17)
(-0.0201395 6.19105 -3.51179e-16)
(-0.508785 6.056 1.72677e-18)
(0.650774 4.05044 0)
(1.09418 5.6784 -1.89951e-17)
(-0.316877 0.226812 1.54026e-16)
(-0.470031 6.43543 -1.05627e-16)
(-0.62704 6.54244 1.10685e-16)
(0.674881 -0.3359 1.8959e-16)
(7.48636 1.78584 -4.0224e-18)
(-0.588447 4.67567 -4.32395e-19)
(-0.750243 6.12537 -6.75201e-20)
(-0.733762 6.31556 -6.73072e-17)
(-0.709222 7.83645 -1.95991e-16)
(-0.419454 6.29287 -3.38312e-17)
(3.18143 4.86259 -6.92154e-17)
(-0.506205 8.6093 1.48689e-17)
(6.40397 2.73593 9.92118e-17)
(-0.623472 8.42436 -1.49032e-17)
(-0.102163 2.5375 -5.37007e-17)
(-0.859181 6.42489 -1.39554e-19)
(-0.126583 5.27369 6.40693e-17)
(0.16792 2.00667 7.5294e-17)
(0.0837748 0.478846 4.14216e-17)
(-0.879937 6.47765 8.9013e-18)
(3.92469 4.60917 0)
(0.377233 5.02909 0)
(-0.919907 6.55803 4.37198e-18)
(-0.341257 3.05968 1.00933e-16)
(-0.464492 5.90653 -1.13566e-17)
(-2.02239 -0.343759 1.39785e-16)
(1.93629 5.24187 -3.69964e-19)
(0.0339265 2.34041 0)
(0.0262896 5.32058 -1.3172e-16)
(-0.960905 6.63296 0)
(-0.203908 5.88315 -5.21395e-17)
(-0.389395 3.51646 -2.81086e-16)
(-0.227176 4.97437 -6.24435e-17)
(2.49769 5.1417 2.83902e-17)
(-0.980151 6.67684 9.64011e-18)
(-0.22037 -1.40458 3.05642e-16)
(-1.18134 0.688625 2.27793e-19)
(1.29666 -0.446415 9.55315e-17)
(0.733768 0.879297 -1.88717e-16)
(11.3233 1.84206 2.17561e-18)
(-0.0744717 4.78819 9.6849e-17)
(0.0203927 4.95613 1.47363e-16)
(-0.115561 5.32094 8.82904e-20)
(0.121041 4.98109 0)
(-0.22129 5.52663 -8.54491e-17)
(-0.310278 5.41983 -6.37504e-17)
(-0.193128 5.01647 -6.76124e-17)
(-0.417305 5.73202 -1.25148e-16)
(-0.352828 5.14864 2.08658e-16)
(-0.449732 5.69329 5.4031e-17)
(-0.113104 -1.60341 0)
(9.01401 0.153101 6.6277e-19)
(0.0596166 -1.24273 -7.83156e-17)
(0.0375372 -0.644978 2.36456e-16)
(-1.08535 -0.136358 -3.1795e-16)
(-0.125597 0.295791 -1.8247e-18)
(0.0621699 1.20628 0)
(0.531744 1.07694 -7.2959e-17)
(1.10892 0.510369 4.68331e-17)
(0.524285 0.487156 5.76561e-17)
(0.598163 0.527175 5.42105e-17)
(0.122463 0.0206609 -1.90877e-16)
(-0.405414 0.410794 -1.61601e-16)
(-0.204729 -1.39481 0)
(-0.707987 0.761006 -8.23107e-17)
(0.015001 -0.0684153 2.94966e-16)
(0.478034 0.222948 8.34755e-17)
(7.88189 0.544152 -2.49511e-18)
(0.27858 -1.38952 0)
(0.32734 -0.477651 2.27817e-16)
(0.418689 0.3799 -1.10124e-16)
(-1.60126 0.00756506 1.36404e-16)
(7.909 0.298455 -3.44224e-17)
(-0.374579 -0.18642 -2.56312e-16)
(0.402923 -0.627598 -1.32628e-16)
(-1.78022 -0.499177 1.54503e-16)
(-0.600378 -1.58825 2.55528e-16)
(7.86399 0.104969 1.16984e-19)
(-0.739696 -0.653251 -1.78995e-16)
(7.92653 -0.00247783 -3.04554e-17)
(0.0480415 -1.26496 -5.74206e-16)
(0.165582 -1.50399 0)
(-0.683952 -1.42907 -2.69797e-18)
(0.561591 -0.111743 0)
(9.04506 0.0729708 4.33704e-17)
(9.27235 0.127458 1.30327e-16)
(-0.673971 -1.16778 9.12039e-17)
(-0.811899 0.73706 -8.75718e-17)
(-0.665047 0.818787 5.11747e-16)
(0.127515 -1.53254 0)
(0.270112 -0.214772 0)
(-0.596703 0.864993 0)
(8.84632 0.0756149 3.06766e-17)
(-0.716594 -0.0081854 1.87169e-16)
(-1.43828 0.436445 1.27305e-17)
(0.632001 -0.335765 2.25651e-16)
(-0.539064 -0.576733 0)
(-1.37268 0.318218 0)
(0.728053 0.40892 1.66347e-17)
(-1.01454 0.773256 1.08923e-16)
(8.39783 0.0911881 -8.70734e-17)
(-0.247581 -0.760327 1.8838e-16)
(0.631777 0.610208 1.27083e-16)
(-0.471116 0.986441 2.2687e-16)
(0.98902 -0.533007 -2.79258e-16)
(-0.715676 0.0914346 -1.42271e-16)
(0.409582 0.701946 1.12677e-16)
(8.19317 0.208269 2.07416e-17)
(-0.0556284 0.113044 -2.41542e-16)
(-0.486467 0.796227 -4.09732e-16)
(-0.0343591 1.6302 1.1316e-16)
(0.0211989 1.40401 -2.88949e-16)
(-0.453852 1.16545 7.00173e-16)
(-0.170545 0.75193 -1.50614e-16)
(8.24828 0.341417 -4.14389e-17)
(9.12617 0.217472 -1.0748e-16)
(0.758175 -1.09897 -2.32868e-16)
(-0.4424 1.28542 1.70034e-16)
(0.0319121 1.1375 1.49743e-16)
(-0.374444 0.11608 0)
(-0.00309935 1.0374 1.73248e-16)
(0.60116 -0.801956 2.59055e-16)
(-0.424398 0.892509 0)
(1.29414 0.906301 0)
(-0.192363 0.649679 1.69334e-16)
(-0.532309 0.247379 -1.86453e-16)
(0.124861 1.52492 -5.89661e-17)
(-0.430695 1.29942 9.78487e-17)
(0.0860967 -1.0248 1.56474e-16)
(8.93003 0.336256 -3.45934e-17)
(0.732925 1.12415 0)
(-0.252544 2.29434 -2.49546e-16)
(-0.0870217 0.926284 -1.60391e-16)
(0.841561 -0.256562 -7.40109e-17)
(-0.333831 1.85755 -7.17145e-17)
(-0.124813 -0.447133 -1.04026e-16)
(8.37033 0.573799 6.94569e-17)
(-0.0229948 6.64756 -2.64516e-19)
(-0.5393 -1.52733 0)
(0.191406 1.56312 2.05758e-17)
(2.60586 3.95573 1.0279e-16)
(-0.468115 4.25138 -1.45302e-16)
(-0.390813 2.61613 0)
(-0.031538 -0.112023 0)
(-0.639822 6.21272 0)
(1.19508 1.05172 2.8339e-16)
(0.471648 3.52657 1.81497e-18)
(0.241057 2.65187 2.84406e-17)
(-0.693001 1.95312 4.29629e-17)
(-0.0783519 -0.851545 1.9206e-16)
(-0.772167 5.60418 9.93499e-17)
(-0.21135 1.10708 -2.32289e-16)
(-0.484944 7.74025 -3.58376e-17)
(-0.460363 3.5653 2.82305e-16)
(-0.278644 2.53322 2.93687e-16)
(0.540747 3.15556 4.20766e-17)
(1.25188 5.20018 -5.36609e-18)
(0.756156 3.99242 -4.70264e-17)
(-0.757321 5.85592 0)
(-0.585602 6.47517 0)
(0.692108 5.7997 1.68172e-16)
(-0.178239 0.940053 2.76244e-16)
(-0.501286 8.58107 0)
(-0.917264 6.89872 -2.06035e-16)
(2.77009 0.283058 -2.10364e-16)
(0.0379769 0.944591 -5.25076e-16)
(-0.185704 -0.506985 1.73565e-17)
(-0.148713 1.77312 -1.07795e-16)
(0.39226 3.23492 4.71949e-18)
(2.95665 6.92169 0)
(-0.515374 6.36265 2.3223e-17)
(8.71805 0.851771 -6.25746e-18)
(5.45555 3.81251 5.86206e-17)
(-0.526862 3.25578 0)
(5.57031 7.53732 0)
(-0.377664 2.39923 5.80013e-17)
(0.34897 4.48044 0)
(0.883447 -0.312043 -1.10189e-17)
(-0.194083 2.61221 -7.23764e-17)
(-0.690079 8.30475 9.23818e-17)
(-0.901283 6.02409 -2.09006e-17)
(4.20839 4.88485 -3.33697e-17)
(-0.40753 5.03868 -4.06543e-17)
(-0.561002 2.61316 -7.50953e-17)
(-0.217534 1.54779 7.00831e-17)
(0.896733 4.04447 4.07038e-17)
(0.152123 -0.281427 1.36758e-16)
(-0.169193 3.14962 0)
(-0.281233 4.42968 8.58521e-18)
(0.177814 4.54651 6.18103e-19)
(-0.872995 5.9097 0)
(2.24988 4.93461 1.74534e-18)
(0.770753 2.09846 1.7123e-16)
(1.85477 4.99434 -1.02164e-16)
(2.46906 4.9713 1.37941e-16)
(-0.0388621 6.97485 1.4614e-20)
(0.00679193 6.74481 -8.95065e-17)
(-0.491129 4.40428 -3.4807e-16)
(-0.409115 1.23544 0)
(0.147224 0.0495886 1.14296e-16)
(-0.249308 3.5295 -2.16615e-17)
(-0.744379 6.08792 2.1492e-17)
(-0.451649 5.46301 -1.21654e-19)
(0.488095 5.67913 -9.525e-17)
(-0.276298 6.63644 -1.31209e-19)
(-0.667167 5.82367 0)
(-0.0163841 -0.818512 -1.7048e-16)
(0.282238 5.98136 3.01163e-16)
(4.96092 3.09485 0)
(9.18194 0.586038 2.37564e-18)
(1.116 5.38108 3.11281e-17)
(-0.57233 2.6072 5.21053e-18)
(-0.999978 7.13965 2.93184e-17)
(-0.3326 3.65992 0)
(1.91141 4.54078 1.02915e-16)
(0.506942 3.80083 -2.10699e-16)
(2.73071 11.3681 4.82321e-18)
(3.04905 4.7904 5.25397e-17)
(-0.585447 0.498628 -4.9134e-17)
(0.966398 -0.182383 -2.08805e-16)
(-0.019438 -0.378382 6.9102e-17)
(-0.620944 2.40391 -7.08302e-17)
(-0.756687 6.52934 1.67125e-16)
(-0.362814 4.36549 -1.15626e-17)
(-0.337858 4.84596 -4.917e-17)
(-0.77402 8.24995 9.58188e-17)
(10.4626 0.17716 -1.08834e-17)
(0.00163658 -0.410366 -4.33877e-17)
(0.420877 1.99373 -9.19664e-17)
(-0.196335 6.06606 -1.90532e-17)
(3.10525 2.24026 -1.17957e-17)
(2.7956 4.48346 -2.02495e-16)
(-0.144144 1.87276 -6.81183e-17)
(-0.754216 6.76813 1.00349e-16)
(-0.632875 3.14962 6.41171e-17)
(0.859045 3.8002 -7.18352e-17)
(-0.700617 6.35022 -1.09601e-16)
(-0.144382 -0.339578 0)
(2.76245 4.78524 -5.3233e-17)
(0.896878 3.663 0)
(-0.680748 3.55039 7.46231e-17)
(-0.523458 4.71112 0)
(-0.930378 -0.189363 3.91398e-16)
(-0.451944 4.92745 -1.20955e-16)
(-0.922782 6.11227 2.65868e-17)
(1.63126 4.66382 7.98776e-17)
(5.95922 0.205078 -7.64536e-17)
(0.0339503 0.882546 1.37578e-16)
(-0.371074 4.68264 -1.21835e-16)
(1.81724 4.07938 5.99183e-17)
(-0.717808 8.04437 -9.66504e-17)
(6.05639 3.29956 -1.8712e-16)
(-0.664339 -0.0964006 5.87775e-17)
(-0.980217 7.08467 0)
(-0.447036 5.95064 -2.05947e-17)
(-0.706238 2.79349 5.32869e-17)
(1.29975 4.25633 -2.00119e-17)
(0.527212 4.41662 1.10577e-16)
(2.5904 0.669608 1.61178e-16)
(2.86595 5.01321 1.4951e-17)
(-0.051714 2.46847 9.54829e-17)
(-0.511948 7.40005 -3.58604e-18)
(-0.0709647 2.91315 1.15635e-16)
(2.26702 4.76718 -9.19475e-17)
(1.37148 -0.661184 4.68055e-17)
(0.486171 3.85612 -6.94087e-17)
(-0.421419 5.99855 -1.17384e-16)
(1.35397 4.32245 -4.86214e-17)
(1.01222 1.36435 0)
(8.79823 0.331661 -1.62025e-16)
(7.93644 1.51878 1.08197e-17)
(-0.741565 6.50243 7.20261e-17)
(-0.337547 2.89253 3.53288e-16)
(-0.622574 4.2877 2.13608e-17)
(-0.221585 1.98734 0)
(0.796376 0.0389063 -1.57565e-16)
(-1.15854 1.09894 4.71723e-17)
(0.783146 1.10782 -2.1931e-16)
(-0.579594 5.44772 -4.43742e-19)
(-1.91803 -0.836443 -1.08714e-17)
(-0.96825 6.71503 3.52166e-17)
(2.67952 1.43187 -7.4597e-18)
(9.11158 0.48819 0)
(-0.497629 5.722 0)
(0.158563 2.28695 -4.70767e-17)
(0.389426 -0.467006 1.91336e-16)
(9.75005 0.549351 0)
(0.16707 -0.0076826 9.42931e-20)
(0.630565 3.19441 -2.86743e-16)
(1.06155 2.5856 0)
(1.74686 3.10954 0)
(-0.210211 4.16061 -8.19048e-17)
(2.3613 5.26622 1.63982e-17)
(8.47075 0.431014 0)
(-3.33096 -0.377468 1.02218e-16)
(-0.984634 -0.398197 -1.02638e-16)
(-0.331971 3.60867 0)
(-0.262618 4.59724 0)
(0.380175 -1.41176 1.34394e-16)
(1.60371 0.285235 -6.66572e-18)
(0.190395 2.09521 1.04428e-16)
(-0.192165 3.04889 -1.89403e-16)
(-0.285616 7.72456 3.49025e-17)
(1.15894 0.240381 0)
(0.509988 0.133341 0)
(-0.339351 5.84465 -8.73456e-17)
(4.58487 0.375997 -2.19241e-18)
(0.838169 1.27078 -2.27508e-16)
(0.308346 0.0689413 1.89088e-17)
(4.52105 4.46636 -2.90232e-18)
(3.31053 0.366055 0)
(1.37563 5.01999 0)
(-0.834392 5.76581 -4.40604e-18)
(0.791631 0.191506 0)
(-0.280475 5.48108 0)
(10.6461 0.621812 -1.27246e-18)
(0.00685098 2.7712 -2.36081e-16)
(3.93953 0.374078 0)
(1.84359 5.1908 -2.75113e-18)
(-0.818324 7.26282 1.87961e-17)
(-0.417711 5.0684 5.72655e-17)
(0.0844332 3.7896 -1.3662e-16)
(0.446646 6.85648 -2.71055e-18)
(-0.279132 7.35616 2.10876e-17)
(-0.677944 0.327921 6.95237e-21)
(-0.426684 7.42629 -1.99908e-16)
(-0.284646 2.79785 -4.09106e-19)
(-0.429937 2.29995 1.66991e-16)
(-0.303228 1.07387 -2.57267e-16)
(-0.52334 6.79425 1.04659e-16)
(-0.684466 7.48473 0)
(0.0150365 6.80945 1.42371e-18)
(9.2283 0.141192 -9.63287e-18)
(-0.746382 4.93308 0)
(-2.29453 0.445205 3.26214e-16)
(2.37869 0.796412 1.52458e-17)
(0.168711 3.5504 0)
(-0.317464 2.84469 2.50018e-16)
(1.1551 7.11362 0)
(1.97434 7.97115 2.62346e-17)
(0.0513932 0.923034 0)
(4.71052 1.51151 1.60242e-17)
(0.679797 2.16079 -2.21934e-16)
(-0.408823 0.581017 -1.07754e-16)
(0.397914 1.19063 -1.82192e-17)
(-0.380945 2.52008 1.59259e-16)
(-0.27084 7.63224 -3.26698e-17)
(5.19555 0.374769 7.80739e-18)
(7.9723 0.370367 0)
(-0.25343 -0.565863 -1.96537e-17)
(-0.00432256 5.36476 0)
(-0.446083 5.78518 0)
(0.236995 1.56075 -1.20819e-16)
(0.788433 2.12752 0)
(-0.0196625 4.1924 0)
(0.507444 3.08357 -3.30296e-17)
(1.06247 0.0923986 0)
(-0.810695 -1.38764 1.36016e-16)
(-0.223661 4.63791 4.67578e-17)
(-0.880046 -0.188761 2.05946e-16)
(-0.968161 1.896 9.70253e-17)
(1.35561 3.93616 1.24645e-17)
(0.901096 0.82014 -5.88196e-17)
(-0.330247 -0.751813 -3.60078e-16)
(12.8343 2.74018 0)
(-0.102523 4.42721 0)
(-0.614472 8.39404 -9.76985e-17)
(0.166683 1.15275 -1.00482e-18)
(-0.271743 5.52681 9.77253e-18)
(-0.214643 2.44507 1.73043e-17)
(10.0538 2.45473 3.22059e-18)
(0.885651 1.32625 4.41229e-17)
(-0.504949 2.23825 -5.79954e-17)
(-1.05662 0.647194 3.26902e-16)
(-0.441287 -0.790279 -2.39582e-16)
(-0.0303282 6.33945 0)
(0.252091 -1.25669 3.83682e-16)
(0.292019 -0.54034 -2.28273e-16)
(-1.00505 7.17272 -1.83332e-17)
(0.783594 3.05283 -1.30028e-17)
(-0.262289 2.31466 -2.84e-16)
(0.000868275 5.9615 -4.40031e-18)
(0.0373222 4.28865 1.4683e-16)
(-0.444634 7.58141 5.3759e-17)
(-0.616531 8.02755 0)
(0.10439 5.75202 5.6374e-17)
(0.106599 -0.02066 7.57232e-17)
(-0.226149 2.84912 0)
(-0.891465 7.46068 -8.65438e-17)
(0.0611658 1.72794 -4.49324e-16)
(1.47829 5.31304 0)
(-2.55946 0.308185 -9.71793e-17)
(-0.762526 5.11892 0)
(0.519128 -0.667251 3.21084e-18)
(2.11795 0.32382 -3.01217e-18)
(8.46044 1.30557 2.18708e-18)
(0.659226 3.00697 0)
(0.0948202 6.10188 1.12358e-16)
(-0.0334132 6.7354 -7.42006e-17)
(0.711827 5.87327 0)
(0.246404 -0.31321 -1.12744e-16)
(-0.583184 1.37454 -1.0484e-16)
(-0.0689428 6.45339 -7.14662e-17)
(-0.809709 6.98145 6.47252e-17)
(-0.101696 6.1678 1.60801e-16)
(0.177039 0.0179277 -4.06143e-17)
(-0.82302 -0.634629 0)
(0.159543 6.35643 0)
(-0.867466 -0.444085 2.93876e-17)
(-0.693832 4.14129 1.01268e-16)
(-0.0278332 6.83028 -2.57143e-17)
(0.451821 0.0960554 1.15516e-16)
(-0.16968 -0.0954549 -2.12517e-16)
(0.0688114 4.37644 0)
(-0.162526 4.39971 6.56718e-17)
(9.95232 7.38452 -1.26091e-18)
(-0.106571 6.01614 2.24351e-17)
(-0.593623 6.65198 -9.96001e-18)
(-0.243679 2.60005 -6.03759e-17)
(0.553837 3.59832 1.73443e-16)
(5.07992 2.24002 2.54717e-18)
(0.384793 -0.0143981 -1.60125e-16)
(1.77614 4.54299 0)
(10.1409 0.929919 2.4807e-18)
(-0.642103 7.75706 3.439e-17)
(7.78563 0.823563 1.23775e-18)
(-0.114217 3.42454 -8.28632e-17)
(0.0622447 -1.47328 -1.24477e-16)
(-0.324661 6.09852 -1.66694e-16)
(-0.491056 6.53458 3.49252e-19)
(1.36698 0.597657 2.93767e-16)
(0.663372 5.86358 -9.99652e-17)
(-0.789619 5.43358 -2.04882e-16)
(-0.604849 5.59178 2.86863e-19)
(2.70459 0.35186 1.16697e-17)
(0.0248344 5.40883 -4.03399e-17)
(-0.64491 8.37084 1.77006e-17)
(0.163609 6.9358 -1.65415e-18)
(0.0536735 -1.05031 0)
(0.340158 -0.602252 0)
(-0.405012 5.92285 -4.50696e-17)
(5.8163 0.365846 1.75069e-18)
(7.51747 0.260503 -1.50564e-17)
(-0.027353 6.66464 1.04361e-16)
(2.12141 5.29927 -2.07221e-17)
(3.14346 0.191858 7.48615e-17)
(1.58129 0.264621 8.71396e-18)
(-0.160634 5.74038 3.37227e-17)
(-0.791584 5.6146 -6.91476e-17)
(-0.405252 3.94468 2.77387e-16)
(-0.723261 4.70346 -6.62121e-17)
(0.322869 0.733011 0)
(-0.240909 0.925269 -8.7042e-17)
(-0.169496 4.4308 -7.70104e-17)
(-0.892587 6.59171 0)
(8.07706 0.908756 -9.41736e-18)
(-1.8974 0.470056 5.56571e-17)
(5.6023 0.61763 0)
(-0.189778 3.19514 0)
(6.90986 2.68921 -2.56695e-17)
(-0.257584 7.71759 1.08872e-17)
(0.211204 6.97899 -4.65218e-18)
(-0.676456 2.6243 0)
(0.830404 4.08322 5.0991e-17)
(-0.674632 -0.261315 6.31009e-16)
(-2.69059 -0.354372 -3.50108e-16)
(0.310128 0.310307 -5.0708e-17)
(0.777969 0.828165 7.51958e-17)
(-0.76804 0.0820705 1.78214e-16)
(-2.35016 0.262096 0)
(0.622749 4.34269 -4.97924e-17)
(1.87251 5.42677 -1.3546e-18)
(0.65581 1.90968 8.02389e-17)
(0.887734 5.45459 -1.95556e-17)
(-0.444377 4.14382 0)
(-0.943803 7.62618 5.5921e-17)
(-0.426373 4.04581 5.71444e-17)
(-1.13496 -0.847042 0)
(9.07328 0.269202 1.49193e-16)
(-0.954343 7.42892 0)
(-0.520628 5.41315 0)
(4.00761 5.05204 -2.59071e-18)
(-0.85927 7.56964 1.06451e-16)
(0.121732 2.73004 1.30899e-16)
(1.50719 0.225599 -2.14718e-16)
(-0.101514 -0.801448 1.93299e-16)
(0.415329 0.326472 2.39036e-16)
(-0.391392 5.63639 0)
(-0.857748 7.43423 -2.02129e-20)
(-0.331318 4.78042 -1.31539e-16)
(7.47589 -0.103487 -7.71003e-17)
(-1.21292 -0.582663 5.08844e-17)
(-0.504047 6.99712 1.94259e-16)
(1.50397 0.248107 -1.34127e-16)
(2.85031 2.64985 1.43157e-17)
(6.52646 -0.105307 4.63979e-17)
(4.30922 0.228791 -7.39901e-17)
(0.111807 7.93176 8.12798e-17)
(0.08462 5.39036 3.49889e-19)
(0.0827039 5.30876 6.89038e-17)
(0.0166478 5.12604 6.28457e-19)
(0.0559551 5.20866 0)
(0.125651 8.56641 -7.20887e-17)
(0.0767247 5.38817 -1.31761e-16)
(-0.0114586 4.91165 -6.65747e-19)
(-0.0424518 5.19393 -1.74273e-17)
(-0.0495113 4.95442 0)
(0.0426618 5.02106 3.78964e-17)
(0.115087 7.5104 0)
(0.275534 9.27475 0)
(0.0641651 5.22153 -5.02524e-17)
(0.201584 6.75287 -3.67273e-18)
(0.158582 7.15133 -3.52072e-18)
(0.0667386 5.33368 1.60376e-17)
(0.0521077 5.29297 6.88252e-17)
(0.0290272 5.23407 0)
(0.0424074 5.35468 -2.22576e-17)
(0.0263468 5.20675 0)
(0.0331662 5.24785 0)
(0.00856771 5.32347 1.65665e-17)
(0.0412068 5.30246 0)
(-0.388935 3.69917 6.61287e-17)
(5.57101 3.90538 -4.97424e-17)
(-0.687111 0.313176 1.90554e-16)
(0.521691 1.18977 0)
(0.590374 3.00022 -1.11706e-16)
(-0.595799 -0.0625165 9.51652e-17)
(0.248573 0.214252 5.02699e-16)
(7.32694 0.968767 -2.14716e-17)
(-0.266548 7.61436 -1.36069e-17)
(0.4071 7.30076 0)
(-0.368185 0.240201 5.03226e-16)
(1.97909 -0.510123 2.21648e-16)
(-0.777226 1.99003 0)
(5.65116 0.127944 3.59633e-17)
(0.422905 -0.654565 -2.35191e-16)
(-0.0840115 0.644524 -1.41995e-16)
(6.46705 3.19609 8.72625e-17)
(0.784 1.56258 -5.89421e-17)
(-0.413972 4.32204 6.15085e-17)
(0.721134 0.550212 -4.87871e-17)
(0.569746 -0.100984 -1.04507e-16)
(7.67958 1.17442 -3.0633e-19)
(-1.09748 -0.116806 -2.43242e-16)
(0.037495 5.37109 0)
(-0.170208 5.81432 2.342e-16)
(1.29911 5.67823 6.93232e-19)
(-0.108136 1.08171 6.03117e-17)
(0.206065 1.61434 0)
(9.61281 0.106748 3.27454e-17)
(-0.183954 2.56662 -1.05859e-16)
(1.09823 0.222728 3.77637e-18)
(-0.390999 3.5209 8.87168e-17)
(-0.534312 8.4747 0)
(-0.455312 3.43689 5.85556e-18)
(-0.671901 3.86408 -4.30793e-17)
(7.81929 1.94594 2.4809e-17)
(-1.5821 -1.30929 1.91188e-16)
(0.000410494 -1.08178 -2.33302e-16)
(0.486036 -1.06211 1.57294e-16)
(-1.51839 -0.202062 -5.46033e-17)
(-0.788637 5.31468 2.1696e-17)
(-0.119858 6.07731 7.57751e-21)
(0.129213 5.75265 -1.50593e-17)
(0.293318 1.37442 0)
(-0.267273 6.09152 4.45752e-19)
(-0.976499 1.20085 4.09333e-17)
(1.05508 0.409967 1.10377e-16)
(0.355339 -1.3293 0)
(-1.24654 1.19055 -2.46773e-16)
(-0.150638 2.28276 0)
(9.96152 0.725763 2.30595e-18)
(-0.673237 5.19201 0)
(-0.492193 6.33773 -3.95061e-17)
(-0.287159 2.12212 1.11889e-16)
(-1.18266 -1.58909 1.96115e-16)
(1.08658 -0.0717301 0)
(-0.61054 -0.415822 -3.07036e-17)
(0.028068 5.263 2.89056e-19)
(-0.157635 -1.13703 0)
(0.220383 -0.0973849 0)
(-0.70718 6.18356 -1.22962e-16)