/*--------------------------------*- C++ -*----------------------------------*\
| =========                 |                                                 |
| \\      /  F ield         | OpenFOAM: The Open Source CFD Toolbox           |
|  \\    /   O peration     | Version:  v1912                                 |
|   \\  /    A nd           | Website:  www.openfoam.com                      |
|    \\/     M anipulation  |                                                 |
\*---------------------------------------------------------------------------*/
FoamFile
{
    version     2.0;
    format      ascii;
    class       surfaceScalarField;
    location    "0.44";
    object      phi;
}
// * * * * * * * * * * * * * * * * * * * * * * * * * * * * * * * * * * * * * //

dimensions      [0 3 -1 0 0 0 0];
oriented        oriented;


internalField   nonuniform List<scalar> 
2776
(
-0.000820998
-0.000132205
0.000728982
0.000224221
-0.000869374
0.000941382
0.000298929
-0.000370936
-0.000650944
-0.000212696
0.00039127
0.00047237
0.000187692
-8.88469e-05
0.000963679
-0.00106252
-0.000104953
0.000161539
6.97736e-05
-0.00012636
-0.000120722
-0.000455729
0.000382833
0.000193618
-0.000228237
-6.03783e-07
0.000716236
-0.000206142
-0.000853819
0.000343726
0.000982527
0.000865354
-0.00086902
-0.000978861
-0.000932239
0.000739697
-0.000224612
0.000417153
-0.000335011
-0.00112719
0.00051008
0.000952125
0.000417177
0.000177248
-0.000548141
-4.6284e-05
0.000868536
0.000113505
-0.00134007
0.000358029
-0.000126515
-0.000137996
0.000159558
0.00012168
-3.94712e-05
-0.00020293
0.00046766
-0.000138487
-0.000664184
-0.000334831
0.000449232
0.000259692
-0.000374093
3.08367e-05
-0.000467083
0.000436246
0.000514674
-0.000153597
7.81177e-05
-0.000439194
0.00076316
-6.33309e-05
6.41645e-05
-0.000763993
-0.00067396
3.56479e-05
-2.54257e-05
0.000663738
8.74244e-07
0.000224383
-0.000326006
0.00010075
0.000574549
2.32471e-05
-2.30043e-05
-0.000574792
0.000738338
4.22528e-05
-3.20901e-05
-0.000748501
0.000300863
-0.000373496
-0.00114528
0.00121791
2.23513e-05
-1.67641e-06
3.15932e-05
-5.22681e-05
-0.000245088
3.03484e-06
0.000113283
0.000629378
-0.00070829
-3.43715e-05
0.000160715
-0.000144889
0.000200641
-0.000216468
-0.000353335
0.000405762
0.000617131
-0.000669558
0.000552775
-0.000817116
-0.000109873
0.000374214
5.26288e-05
-5.1977e-06
4.43811e-06
-5.18692e-05
0.000325755
-0.000179014
-0.000256447
0.000109706
-0.000268075
0.000232377
-0.000671914
0.000707611
3.64471e-05
9.34704e-06
0.000365468
0.000348635
-0.000213502
2.55822e-05
-0.000477095
-0.000102887
-0.000255185
0.000381405
0.000944021
-0.000229365
-0.000714657
-3.1138e-05
-0.000238763
0.000269901
-5.38793e-05
0.000536072
-0.000482192
-0.000479592
0.000545925
-6.63327e-05
-0.000481951
0.000478718
3.23254e-06
-0.000442868
-2.03645e-05
0.000463232
0.000368193
-4.0452e-05
-0.000327741
0.000816021
-0.000157567
0.000917095
8.37279e-05
0.00029267
-0.000286414
-6.25584e-06
-0.000279147
0.000322478
-4.33302e-05
2.3855e-05
7.9875e-05
-0.00010373
-0.000232267
0.000149936
8.23305e-05
-0.000211074
-0.0006583
-0.000367949
-8.77802e-05
0.000237887
-7.63481e-05
0.000443803
-0.000118048
-0.00106063
0.00136149
0.000718427
-5.35846e-05
-0.000664842
-0.000933732
-0.000193463
-0.000133134
6.99153e-06
0.000126142
-0.000787872
-0.000144367
2.98183e-05
-1.09214e-05
1.209e-05
-3.09869e-05
-0.000272452
0.000223485
-4.91248e-06
0.000278008
-0.000236134
-7.30117e-05
-0.000203233
5.06021e-05
0.000589591
-0.00043696
0.000781631
-0.000678379
-0.000187868
8.46155e-05
0.000291646
-0.000364728
7.08943e-05
2.18777e-06
0.000236739
1.3802e-05
-4.63583e-05
-0.000204183
-0.000234331
-4.38967e-05
-0.000466508
0.000860763
-0.000863575
6.75235e-05
-6.47113e-05
0.000190708
-0.000290241
-0.000143002
0.000242534
0.000154075
-0.000138842
3.88654e-06
-1.91192e-05
5.33884e-05
-0.000534782
0.000481394
5.55661e-05
-0.000610947
0.000555381
0.00103229
-0.0004415
-0.000788734
0.000197941
1.67244e-05
-3.87003e-05
5.17941e-05
-0.000621675
-6.98221e-05
0.000301688
0.000389809
-3.79862e-06
-0.000287613
1.89603e-05
-0.00010663
0.000326797
5.784e-05
-4.80812e-05
2.14502e-05
2.6631e-05
0.000107323
-0.000384317
0.000336701
-5.97072e-05
-0.000583255
3.41992e-05
-5.83936e-05
0.000607449
-0.000285526
0.000465242
0.000330365
2.44324e-05
0.000296685
2.36247e-05
-0.000344742
-0.000323423
-6.10177e-05
0.000281277
0.000103164
-0.000581527
1.22293e-05
0.000572982
-3.68412e-06
-3.75103e-05
0.000568959
-0.000557386
2.59369e-05
-0.000546693
0.00101842
-0.000739798
4.12676e-05
-1.69872e-05
0.000321359
-0.000345639
0.000753673
-0.000392906
2.95214e-05
2.20056e-05
7.84277e-05
-0.000129955
7.62092e-06
7.37857e-06
7.35185e-06
-0.000239284
6.54755e-05
-7.12794e-05
0.000300402
-0.000813802
0.000701092
-0.000118368
0.000332859
-0.000502339
0.000287849
-0.000124462
-0.000314765
0.000233085
-0.000207141
0.000804603
0.000136779
-1.66364e-05
-7.81029e-05
0.000111498
-4.1724e-05
0.000150567
2.31661e-05
0.00012677
1.54142e-05
0.000277255
-3.97432e-05
-0.000239404
-0.000509802
2.78516e-05
-0.00011955
-0.000734269
-4.54713e-05
-4.85264e-05
0.000366048
0.000586077
-0.000102571
-3.92703e-06
-2.00595e-05
1.30651e-05
0.000515057
-0.000541238
2.48613e-05
1.31927e-06
1.69031e-05
-0.000551935
0.000402827
0.000273931
0.000465767
-8.174e-06
-7.42011e-05
2.45954e-05
5.77797e-05
0.00042662
-0.000119979
0.000139187
-0.000419482
0.000697473
5.55483e-05
-0.000232196
-5.15894e-05
1.95914e-05
0.000141867
1.905e-05
-0.000992943
0.000877374
2.67219e-05
2.86953e-05
5.93477e-05
-4.48134e-05
-4.32295e-05
-0.000353114
-1.79963e-05
0.000199639
0.00017147
1.41849e-05
-0.000457053
-6.21162e-05
0.00043031
0.000398299
-0.000183159
-0.000673572
0.000175735
0.000600572
-0.000102735
-0.00020199
0.000692936
4.26536e-05
-0.0005336
-0.000351962
0.000975465
7.34657e-05
-0.000696969
-5.65672e-05
8.61322e-06
7.65642e-05
-2.86101e-05
0.000110282
0.000517655
0.00013243
0.000661475
-7.53662e-06
-1.28608e-05
4.34663e-06
1.60508e-05
-0.00039126
9.68257e-05
0.000248272
-8.73841e-05
-7.06793e-08
-0.000155159
-8.26065e-05
0.000700268
2.13019e-05
-0.000638963
0.000693407
1.50716e-05
-1.21794e-05
-0.000696299
0.000497215
-2.40882e-05
3.02377e-05
-0.000503364
0.000220926
-0.000131013
-0.000146422
5.65092e-05
-0.000540439
-9.10021e-05
1.74486e-05
0.000613992
5.79425e-05
3.95633e-06
-9.27003e-06
7.35182e-05
-3.80154e-05
-2.82475e-05
-7.25535e-06
0.000126987
-0.000108375
3.18195e-05
-5.04319e-05
0.000177051
-0.000144044
-3.48574e-06
8.67916e-06
-9.23224e-06
0.000223162
-0.000415556
0.000491323
-0.000804615
-9.25481e-05
0.000223591
9.44847e-05
-0.000112439
-0.000106508
-0.000170075
-3.93981e-05
-2.39956e-05
0.000233468
0.000235842
-7.77922e-05
7.25067e-05
0.000689598
-4.49025e-05
-0.000717203
0.000766793
-0.000577244
-0.000736242
7.47305e-07
2.39276e-05
6.84272e-06
-3.15177e-05
-0.000725251
0.000233352
0.000471546
2.03525e-05
-6.58441e-06
-3.89062e-06
6.84175e-05
-0.000618857
0.000191313
0.000534867
-0.000257213
0.000219703
0.0004946
-0.000767828
-0.00014238
0.000415608
-3.13294e-05
0.000108265
-0.000343536
0.0002666
8.40966e-05
-0.000372973
0.000781187
-0.000713754
6.49962e-05
0.000532359
-0.000495822
7.37452e-05
0.000637393
-0.000538577
-4.5712e-05
-5.3104e-05
0.000106635
0.00152056
-0.00119325
-0.000433942
0.000587511
-0.000803284
0.000329056
-7.14894e-06
1.4003e-05
4.17747e-05
-4.86288e-05
9.97769e-05
-4.74553e-05
2.75534e-05
-3.84365e-05
9.45847e-05
0.000528209
-0.000637884
0.000109675
-0.000394724
0.000282145
-0.00124339
0.00135597
-0.000436673
-2.85003e-05
0.000599713
-0.000134539
0.000216364
-0.000185582
-0.000384117
-6.11394e-06
-9.33827e-07
3.12074e-06
3.80063e-05
2.84997e-05
8.7569e-05
-0.00130883
0.00115043
-0.000243873
0.000402267
0.000376937
-0.000322477
-0.00012877
7.43104e-05
0.000141192
-0.000532877
0.000507909
-0.000116224
-0.000128329
-1.67294e-05
9.28899e-05
5.2168e-05
-2.52308e-05
-2.70426e-07
0.00035427
-0.000328769
0.000581849
2.81087e-05
-4.09979e-05
-0.000572128
4.9885e-06
-1.43878e-05
-0.000350208
-0.000182979
0.000209765
-0.000973537
-0.000168666
0.000278628
-3.09322e-05
2.52348e-05
-4.23837e-05
0.000668352
-0.000180113
-0.000570846
4.1462e-05
-3.21896e-05
2.81756e-06
-0.00044184
0.00034972
0.000392522
0.000290991
0.000352031
-0.000567943
-7.50793e-05
0.000113899
0.000157752
-0.000996902
3.23839e-05
-1.2574e-05
-2.59239e-05
-8.34241e-05
-0.000206816
-0.000394663
0.000319363
0.00051176
-0.00043646
-0.000245186
4.81501e-05
4.26831e-05
0.000154353
-0.000701294
0.000451846
-0.000432909
-0.000251234
0.000242303
0.000106985
-3.65648e-05
-0.000489782
0.000434495
0.000358931
-0.000303644
-0.000293212
0.000295786
1.83083e-05
-2.08818e-05
-0.000124891
-4.54564e-05
3.15048e-05
-0.000238509
-0.000420702
6.96299e-05
0.000703103
0.000485307
0.000769461
-0.000410402
-0.000844367
-6.3194e-06
9.85207e-06
1.3748e-05
-1.72807e-05
1.77394e-05
0.000757359
-1.19384e-05
4.37769e-05
0.000558768
-8.78707e-05
-2.1906e-05
-7.31921e-06
-0.000579976
0.000609201
-2.46399e-05
2.37872e-05
-0.000248746
0.000249599
0.000406458
-0.000158615
0.000339669
1.06002e-06
-0.000672624
-2.39601e-06
1.70776e-05
-0.000581899
0.000789641
-0.000224819
0.000599415
0.000110795
-0.000128361
-0.00053184
-2.32101e-05
-0.000236922
-0.000442043
0.000328757
-0.000185097
0.000714174
0.00025211
-0.000152888
0.00051037
0.000174877
-4.06581e-05
1.81202e-06
-3.5355e-05
-7.1454e-05
-1.5845e-05
5.23162e-05
-3.99917e-05
-5.79282e-05
-0.000458344
0.000329687
-0.000113436
-0.000168334
6.79653e-05
0.000213805
4.89968e-05
0.000152624
-5.96157e-06
-0.00019566
-1.92445e-06
-1.23259e-05
-8.09506e-05
3.97199e-05
5.72544e-07
3.80537e-05
-6.16525e-05
2.74853e-05
-4.16593e-05
0.000298698
-0.000518204
0.000261166
7.59538e-05
-0.00041608
-0.000227817
-7.13926e-05
0.000421183
-0.000380989
3.11987e-05
0.000157839
9.964e-05
-0.00013957
-0.000117909
-2.05494e-05
-0.000237078
4.16449e-05
-7.83067e-05
5.8156e-05
-2.14942e-05
6.26037e-06
0.000182205
0.000116015
-9.43067e-05
-0.000203913
8.24593e-05
-4.90941e-05
-0.000417682
0.000454396
-0.000294503
-0.000330837
2.57381e-05
3.04144e-07
-1.62271e-05
-9.81514e-06
7.69739e-05
-0.000613372
-2.19478e-06
2.31531e-06
-4.83472e-05
4.82266e-05
-0.000253083
0.000890652
-0.00027724
0.000237682
-2.7956e-05
6.75141e-05
-0.000306369
0.000732265
0.000575425
0.000193065
-0.000169075
0.000816874
-0.000416321
0.000879413
-3.36771e-05
5.01297e-05
0.000457397
-0.000473849
-3.09118e-06
5.35997e-05
-5.6828e-05
6.32992e-05
1.09663e-05
-6.94541e-05
0.000616672
-0.000771955
-0.000947027
0.00117242
0.000546563
-0.000411108
0.000403788
-0.000247811
0.000358606
6.9979e-05
-4.61917e-05
-2.65032e-05
0.00039127
-2.20468e-05
0.000498424
-2.83268e-05
-6.01604e-05
0.000436832
-0.000437086
-0.000495912
0.000496166
-2.85516e-05
-0.000425014
0.000503736
-7.87215e-05
-5.4477e-05
6.84326e-05
-0.000564213
-0.000139039
-0.00127523
0.000642315
0.000196542
-0.000453755
-0.00040303
-8.07794e-06
7.84215e-05
-8.44256e-06
1.28415e-05
7.18703e-06
-1.01765e-05
-2.26792e-05
3.31704e-05
-4.1008e-05
6.23373e-05
3.00495e-05
-0.000696556
0.000243677
-0.000158292
0.000611172
-0.000566692
0.000434573
0.000164815
-0.000198666
-7.45233e-05
2.40272e-06
3.97466e-05
9.75514e-06
-5.19045e-05
-0.000301235
0.000237244
0.000164604
-0.000100613
0.000312911
-0.00018443
0.000432387
-0.000560868
-0.000547238
0.000495957
0.000221317
4.16779e-05
-0.000136485
-0.00012651
8.70559e-05
-0.000119674
8.32751e-05
-5.06567e-05
0.000332984
-0.000412998
2.55368e-05
-1.87288e-05
0.000312315
-1.30548e-05
2.19365e-05
-1.89016e-06
0.000916543
-0.000830874
-0.00049607
0.000534695
0.00037477
-0.00073373
0.00056416
0.000164823
-0.000813787
8.39539e-06
-0.000795579
0.000411933
-1.74039e-05
-0.000165575
0.0003908
-0.000385812
4.98555e-05
-0.000112206
-4.13799e-05
-4.00794e-05
9.6279e-06
2.12471e-06
-7.32353e-05
-0.000122102
0.000111295
8.40427e-05
-2.89548e-05
6.27011e-05
4.78802e-05
-8.16265e-05
6.39956e-05
-1.28378e-05
-5.11578e-05
-0.000551308
0.00137841
-0.00108018
0.000561631
-0.000568788
-0.000635358
-0.000108448
-0.000205521
0.000192985
-7.36353e-05
-0.000127543
0.000141854
5.9324e-05
0.000148479
-0.000200837
0.000356843
-0.000304485
-0.000871576
0.000900033
0.000362905
-0.000391362
-0.000160522
0.000108438
-0.000797506
0.00084959
-0.00107944
0.00052909
0.000741665
-0.00012425
0.00043263
-0.000384889
0.000747101
0.000129108
0.000279537
-0.000150502
-0.000258142
7.52034e-05
-0.000448812
4.72774e-05
0.000326331
0.000630509
-4.0588e-05
9.7919e-06
-6.20578e-05
5.12239e-05
4.72814e-05
-3.64475e-05
0.000686169
-1.14669e-05
0.000313248
-0.000987951
-0.000163692
0.000224378
8.77924e-05
2.98795e-05
6.86765e-07
9.11135e-05
-3.91935e-05
1.14489e-06
-2.03077e-06
-0.000884269
-4.3936e-05
8.58968e-05
0.000842308
-0.000963933
0.000468301
0.000986949
-0.000491318
8.94561e-05
-0.00044762
0.000567226
0.000566563
-8.34015e-06
8.5481e-06
-6.6499e-05
0.000145554
0.000379998
-0.000459053
6.0529e-05
-0.000518684
0.000488991
-0.000463711
-0.000147532
0.000192761
-0.000257925
0.000752632
-0.000844143
0.000335187
-0.000209342
0.00029429
0.000351884
0.00118948
-0.000547344
0.000259008
-0.000901148
0.000440276
-7.4179e-05
-0.000252198
7.88602e-05
-2.43738e-05
-7.79114e-05
0.000181838
0.000132987
-0.000236914
0.000157569
1.71691e-05
-0.00013433
-4.04086e-05
-0.00017731
-0.000171849
0.000231112
0.000118047
-0.000405831
-5.42702e-06
-0.000433109
0.000376662
0.000320842
0.000285347
-0.000443552
0.000507478
-0.000349273
0.000467562
0.00108597
-3.29739e-05
-9.78486e-06
7.37804e-05
-0.000567068
-1.86062e-05
0.000782591
-0.000673036
0.00037968
-0.000489235
-0.000150249
-0.000795329
-2.79587e-05
0.000236542
0.000492432
-0.000516798
-0.000688641
0.00152054
0.000357588
-2.68739e-05
-0.00112755
0.00128925
-0.000134825
-3.48584e-05
0.000104376
0.000101931
-0.000155083
0.000157142
0.0002762
0.000468861
-0.000396426
-7.65036e-05
-0.000470841
0.00131508
-0.000540345
-0.00146338
0.00035214
-0.000441125
6.2583e-05
6.93454e-06
0.00034659
-7.24948e-05
5.44383e-05
-4.21555e-05
0.000598889
-8.18684e-05
-0.000296817
0.000347125
3.15604e-05
-0.000142499
7.43642e-07
-5.26083e-05
0.000260602
2.87448e-05
0.000676814
-0.000624762
-0.000515746
0.000463694
0.000676005
-0.000857589
0.000636884
-0.0004553
-0.000169514
9.30108e-05
0.000205437
0.000601634
-0.000456541
0.000312467
0.00104411
0.000311059
-6.62507e-06
0.000491963
-0.000277334
-0.000214629
0.000578512
-0.000829616
-0.000186183
0.000104441
-6.57896e-05
-0.000481564
-6.81926e-05
1.93258e-05
0.000530431
0.000215392
0.000375488
-0.000413633
0.000698633
-0.000206669
-0.000363909
-8.20481e-05
0.000327589
0.000478161
-0.000687144
0.000221592
-6.91662e-05
-6.8051e-06
-0.000145621
1.00125e-05
0.000278494
-6.73661e-05
-0.00022114
0.000291466
-5.98617e-05
-2.20584e-05
0.000359684
-4.61588e-05
-0.000330075
-7.06368e-05
0.000359174
4.15379e-05
-7.36397e-05
0.000463301
-0.000287476
9.52335e-05
0.000229131
0.000138936
9.53287e-05
0.000356748
5.97067e-05
0.00026
-5.90912e-07
-1.54468e-05
6.80656e-05
-5.20279e-05
-0.000125937
3.03834e-05
0.000164932
-6.93785e-05
-1.2305e-05
-0.00015242
0.000127529
3.71961e-05
2.056e-05
-0.000130491
-1.6006e-05
3.85814e-05
-5.04098e-05
-5.02754e-05
6.21039e-05
3.88915e-05
-5.68322e-05
9.57689e-05
-7.78283e-05
5.49096e-05
-0.000114877
-0.000253954
0.000952587
5.55103e-05
2.3936e-05
-4.08649e-05
8.26709e-05
-4.37794e-05
3.25335e-05
-3.09757e-05
5.33518e-05
8.15056e-05
3.43031e-05
-0.000521228
9.74517e-05
-0.000498971
0.000922747
2.98892e-05
0.000156467
-0.00112647
-0.000204602
0.00111598
0.000215093
-5.14141e-05
1.6084e-05
6.93544e-05
-3.40243e-05
0.000561937
-0.000282818
-0.000800347
3.65328e-05
0.000143312
-0.000286615
0.000115304
0.000215311
-4.39993e-05
0.000119319
-9.15982e-05
-0.000124898
9.71777e-05
8.98717e-06
4.36766e-05
1.86637e-06
-5.45301e-05
-5.83958e-05
0.000717785
-0.000480341
0.000458478
-3.55656e-06
7.14614e-05
-0.000228639
-0.000299125
0.000275404
0.00025236
0.000196579
0.000142158
0.000200808
2.56603e-05
2.67337e-05
-0.000112061
2.4603e-05
1.42636e-05
-0.000201598
7.38245e-05
-0.00019476
0.000322533
-2.95791e-05
-2.00277e-06
-6.00163e-05
5.91761e-05
-9.23118e-05
-6.7412e-05
7.59023e-05
-0.000210088
-0.000684732
-5.51863e-05
-2.01232e-05
7.89744e-06
-0.000190016
2.84438e-06
0.000241479
-0.000101757
7.61048e-05
8.01283e-06
2.35095e-05
4.71485e-05
-7.12618e-05
-0.00013663
1.30801e-05
0.000190979
3.27869e-05
-1.75681e-05
-6.46981e-05
4.94792e-05
-6.06311e-05
2.48588e-05
-2.10599e-05
3.29737e-05
-0.000202488
0.00108163
4.53583e-05
-0.00112699
0.000141324
-0.000161965
0.000243803
8.66424e-05
-3.97147e-06
3.4497e-05
-6.15819e-05
4.50097e-05
-9.94822e-05
5.44725e-05
0.0001333
1.30404e-05
-9.20829e-06
-1.81867e-05
2.17081e-05
5.16319e-05
-5.22228e-05
5.80551e-05
9.5644e-05
-0.000140659
-7.24887e-06
-2.77021e-05
0.000136685
8.89907e-05
-8.43517e-05
0.000347817
2.50208e-05
-0.000355935
0.00017156
-0.000184319
0.00110338
0.000167809
-0.00023171
0.000200586
0.000293728
0.000192408
-0.000138319
0.000134079
-0.000225028
9.28149e-05
-1.86566e-06
-0.000113967
0.0002507
0.000133889
-0.000270621
0.000166681
-0.000236863
-7.45975e-05
1.48842e-05
5.97133e-05
0.00139971
-5.4542e-05
-3.45413e-06
-3.2243e-06
-8.76834e-06
7.45895e-05
-2.29576e-05
-0.000111588
-3.27365e-05
0.000184214
-3.98891e-05
7.79813e-05
0.000345525
-0.000126821
-8.03884e-09
0.000143385
-8.95438e-05
9.94005e-05
9.00075e-07
6.00169e-05
-1.49089e-05
0.000139483
-0.00017309
0.000111682
-0.000201434
0.000172734
0.000106242
-6.35842e-05
0.000168847
-8.42133e-05
-0.000305844
0.000305301
-7.00932e-05
3.9194e-05
2.08149e-05
1.72842e-06
2.65895e-05
8.29673e-05
-0.000111285
-9.34459e-05
-0.000286038
5.58066e-05
-0.000113696
0.000220442
-0.000111729
0.000171027
0.000127287
-0.000189955
9.28528e-05
4.49495e-05
5.8844e-05
6.50531e-05
0.000211098
-0.000213109
7.58621e-05
-6.45235e-05
-0.000319935
3.57089e-05
0.00034875
0.000290126
-5.88e-05
-0.000247633
1.63063e-05
0.000117934
0.000171342
-9.92707e-05
-0.000190006
0.000131803
0.00104834
-0.000489561
-0.000931981
-6.96465e-05
0.000336511
2.3262e-05
-0.000159147
0.000218282
0.00110182
0.000245894
-0.000109931
8.07603e-05
7.41198e-05
-0.000140099
0.00015876
-5.23128e-05
2.61991e-05
0.000337173
-8.7248e-05
-0.0001084
3.65004e-05
0.00047468
-3.91666e-06
-0.000213967
6.02219e-05
-4.57636e-05
0.000290842
-0.000274533
-8.32025e-05
-0.000263246
2.33465e-05
0.000270282
-2.15024e-05
0.000521392
-0.000444468
-5.5421e-05
6.2073e-05
0.000357323
0.000694245
-0.000240742
-1.08834e-05
0.000210595
4.10306e-05
-6.41819e-05
0.000465403
-0.000423561
-0.000132951
0.00049233
-0.00020108
0.000118066
-5.19818e-05
-0.000177813
-0.000180016
-0.000393226
-0.00012483
0.000436188
-0.000817999
0.00092695
0.000218917
0.000124635
0.000176208
4.14501e-05
0.000353237
-0.000365086
-9.65311e-06
0.000218701
-7.14047e-05
-0.000163839
1.65422e-05
0.000274088
-0.000125453
-2.48075e-05
2.37764e-05
-0.00107467
0.00104779
0.000249999
-4.46636e-05
0.000316056
9.40777e-05
5.03635e-05
-6.37042e-05
3.41556e-05
0.00069943
0.000704009
0.000199134
2.69561e-05
-0.000930099
-0.000124795
9.4428e-05
0.000390512
0.000136965
0.000107828
0.000124314
-0.000205553
-2.04771e-05
0.000486267
-0.000457402
-8.38752e-06
-0.000829773
0.000695402
6.17572e-05
-0.000107604
0.000208583
-8.36059e-05
-0.000218423
9.15035e-05
9.92922e-05
4.29308e-05
-7.08923e-05
6.09352e-05
0.000188853
0.000377791
-3.19661e-05
-1.20651e-05
8.90409e-05
0.00106527
1.63586e-05
1.1806e-05
7.28412e-05
2.96061e-05
-0.000272292
-0.000349488
0.00035377
2.53235e-05
-0.000876682
0.000559264
-0.000672529
1.57926e-05
-0.000870851
-0.000550692
-0.000617684
0.000889732
-0.000106266
5.59991e-05
0.000179256
-0.000206647
4.32907e-05
-0.000164151
0.000158882
-0.000889978
0.000457769
2.51666e-05
-0.000944714
0.000653324
-0.000585293
2.65955e-05
-4.11256e-05
0.000682511
-0.000667981
0.000223282
0.00027069
4.19252e-05
-0.000347526
3.49114e-05
-1.75421e-05
0.000120115
-0.00020062
-4.37172e-05
5.15524e-05
-9.39468e-06
-0.000279567
2.90064e-05
2.02202e-05
9.64257e-05
0.00039495
-0.000575449
3.77556e-06
0.000409724
5.75631e-05
-8.22045e-05
-0.000549362
-0.000666843
0.0012206
3.69517e-05
-4.40709e-05
0.000516638
2.32371e-05
0.000559468
-0.000519425
-6.32801e-05
-5.60202e-05
9.39887e-05
-0.000922237
-3.85482e-05
2.47574e-05
0.000530428
-0.000508129
0.000149691
-0.000174077
0.000186995
-0.000162608
0.0014293
-0.000863651
0.000310081
-0.00087573
0.000434472
-1.13029e-05
-0.000447024
1.20302e-05
0.000736807
-0.000541161
-0.000342631
0.000146985
0.000232446
-0.000186557
-0.000112299
0.000603575
-0.000413112
-0.00036991
-4.8124e-05
-0.000136372
0.000197884
5.02841e-05
-0.000111796
-0.00114221
9.65458e-05
5.27216e-05
0.000797439
8.54972e-05
0.000204711
-0.00108765
0.000288039
-2.74101e-05
3.60898e-05
3.8058e-05
8.12945e-05
0.000368335
-0.0008842
0.000553486
-0.000142001
-0.000259767
0.000138484
0.000263285
-0.000399092
0.000632183
-0.000637533
0.000711922
-0.000431904
0.000488071
4.80089e-05
0.00112577
-0.00112842
-0.000120472
-0.000240162
0.000919792
-0.000912909
-0.000322067
0.000539357
-0.000431025
0.000947904
-0.00098059
0.000899147
-0.000885791
-0.00034743
-8.01963e-05
1.15469e-05
-0.000182494
9.97594e-05
0.000145318
-3.43539e-06
0.000179425
4.27116e-05
-0.000144237
-8.45435e-05
-0.000103888
0.000126032
0.000148883
-0.000115449
-0.000354271
0.000216488
-0.000112696
-0.000810647
-0.000254389
0.000658856
-0.00077627
-0.000569244
-0.000698033
0.000804896
0.000772498
-7.49531e-05
-0.00016285
0.000126569
-0.000869147
9.7138e-05
-9.24694e-05
8.43639e-05
-0.000859287
1.06706e-05
1.32114e-05
0.00083746
-0.000861342
4.29727e-05
1.60746e-05
0.000848602
-0.000864677
-0.000222564
6.50149e-05
-0.000162535
0.000623807
-0.000148798
-0.000123155
-6.3364e-05
-0.000559891
-0.000229969
0.000402701
-0.000413636
9.58512e-06
0.00079643
-0.000756578
-0.000659832
-0.000827804
0.000961116
0.00052652
4.12435e-05
-2.37421e-05
0.00090229
0.000140241
0.000219352
0.000967057
-0.001007
0.000685207
-9.45872e-05
-0.0010375
0.00108252
4.95613e-05
-0.00111839
-1.85531e-05
6.59549e-05
-6.18293e-05
-0.000509815
-0.000152849
0.000529714
6.37677e-05
-0.000464153
-0.000147256
0.000486579
-0.00031208
3.54086e-05
-0.00101902
-0.000483995
0.000467154
0.000145949
-4.34596e-05
-2.30637e-05
9.27224e-05
-0.000481939
-0.000143325
-0.000222997
-0.00084035
-5.58929e-05
0.000896243
-1.17281e-06
-9.33275e-06
5.30786e-06
0.000271517
-0.00124174
-5.40643e-05
0.00102429
-0.000439525
5.38544e-06
-1.05721e-05
-6.76528e-06
0.000523704
-0.000506367
-5.92055e-05
4.63657e-05
-0.000930098
-5.86903e-05
1.90525e-05
-6.87619e-05
-4.06515e-05
-1.73938e-05
2.14804e-05
0.000653533
-0.000382055
0.00011251
0.000261199
0.000342392
0.000172283
0.000151312
5.45928e-05
0.000155838
-0.000398858
-5.82143e-05
0.000151188
-0.000269761
0.000112611
-0.000112234
0.00015251
2.76895e-05
-1.04901e-05
5.66181e-06
-1.22257e-05
4.81539e-05
-4.5713e-05
-0.000417647
0.000661863
-0.000275594
3.13783e-05
0.000847673
-0.000835351
0.000582837
2.29236e-05
0.00022959
-2.15948e-05
0.000251626
-4.22331e-05
3.63851e-05
-1.68312e-05
1.26321e-05
-7.10082e-05
6.39426e-06
1.8369e-05
-3.36301e-05
1.52611e-05
-6.6206e-05
-1.03844e-06
-4.72656e-05
2.64193e-05
2.08463e-05
-6.72153e-05
6.03433e-05
6.87199e-06
-4.14772e-05
-0.000269
-5.43551e-05
4.92906e-05
5.06445e-06
2.27566e-05
-0.00108508
0.00115788
-0.000480817
-0.00147741
-4.04794e-06
2.24169e-05
-7.43643e-05
0.000190245
0.000127765
-4.73199e-05
-7.08281e-05
2.35625e-05
-2.85191e-06
0.000628678
-0.000609713
-0.000171815
2.23713e-05
5.98824e-06
2.55988e-06
-0.00027745
-0.000136682
-0.00016176
0.000235983
0.000146292
3.2592e-05
-7.95699e-05
5.20561e-06
-0.000148732
0.000177086
1.85207e-05
-0.000411267
4.96685e-05
0.000422128
-0.000416688
0.000478509
0.00070491
-7.54939e-05
-3.69868e-05
7.75531e-05
0.00064464
0.00110475
-0.000907206
0.00068176
7.07779e-05
0.000389821
-0.000306848
1.11046e-05
-2.17484e-05
-9.9109e-05
0.000116398
0.000107264
-0.000165071
-5.85912e-05
-0.000104482
-7.98324e-05
-0.000452959
8.25205e-06
-0.000576286
-9.512e-05
5.13889e-05
0.000620017
0.000931373
0.0001026
-0.000221731
5.4639e-05
5.08514e-05
7.63478e-05
8.1662e-05
-7.88153e-06
0.000209598
-0.00051407
-0.000397464
-8.42306e-05
-1.35978e-05
0.000225593
-0.000138947
0.000154745
-4.5806e-05
-0.000100712
7.55096e-05
-4.07072e-06
-0.000360015
-0.000651189
0.000606286
0.000846751
2.30319e-05
-9.32783e-05
-1.42214e-05
-0.000662147
0.00037909
-3.09516e-05
-0.000289696
0.000262254
-0.000147607
0.000327856
-0.000180541
0.000159903
-7.29099e-05
9.35485e-05
0.000149959
7.05752e-05
5.48679e-05
-0.000140532
0.000116517
2.40151e-05
5.50759e-05
-6.46401e-05
9.56411e-06
3.67115e-05
-8.77532e-05
4.0129e-05
-8.56491e-05
0.000598506
0.000223951
-4.41135e-05
7.70389e-05
6.21544e-05
-5.76878e-05
-0.000358194
0.000305118
-8.5321e-06
-0.0010559
-1.33791e-05
6.22731e-05
0.0011966
-0.00114036
3.83448e-05
-3.77942e-05
5.21938e-05
0.00010113
-7.51667e-05
0.000124497
0.000421185
1.16998e-05
-1.77263e-05
0.000427209
-0.000285468
-0.000389517
1.30068e-05
-0.000775922
-0.000443104
-0.000250684
-0.000137565
5.71206e-05
-0.000313429
4.62272e-05
-7.77428e-06
-1.78767e-05
-2.05762e-05
-0.00031352
5.2544e-05
1.34923e-05
4.02238e-05
-0.000175039
-0.000325601
8.79649e-05
0.000496676
-4.31097e-05
9.47953e-06
-0.000250804
-0.000988498
-5.09526e-05
2.61783e-05
8.66539e-05
-9.17748e-05
-1.76173e-06
-0.000172934
-7.67548e-05
0.000237624
-8.11964e-05
0.000269091
-0.000332777
-8.43226e-05
-0.000143623
2.91491e-06
1.5659e-05
-7.72643e-05
-0.000157244
0.000538713
-3.64843e-05
3.12821e-05
-0.000192116
-0.000226875
-0.000760536
0.000972456
-0.000689187
0.000340399
-0.000479016
6.94152e-05
0.000795546
-4.91565e-05
0.000129304
0.000112614
-0.000151237
-0.000224675
0.00017039
0.00018112
-4.46241e-06
-3.48027e-05
6.73605e-05
-1.53627e-05
-0.00012289
0.000679165
-0.000140917
-0.000650548
0.000221782
0.00011933
8.84579e-05
2.53176e-05
2.97583e-05
-0.000109176
0.00116111
6.87862e-05
-0.000161003
-0.000638182
-1.1228e-05
-0.000915902
0.00055286
-1.83098e-05
0.000158386
-1.36748e-05
0.000192724
-6.47691e-05
-0.000243284
0.000199074
3.84271e-05
2.08821e-05
2.27384e-05
0.000522922
7.18449e-05
-0.000192796
0.000322135
2.0654e-05
-6.07209e-05
9.13465e-06
-0.00026785
-5.34984e-05
0.000111549
-3.65983e-05
-4.81185e-06
0.000115235
0.000364219
-0.000458634
-6.28291e-05
-0.000686459
-0.000508846
0.000434769
-4.46993e-05
7.88761e-05
0.000107277
-4.78165e-05
1.65237e-05
4.82242e-05
-0.0002292
0.000140802
-0.000235089
0.000633464
-4.69173e-06
0.000131065
-8.87605e-05
8.15565e-05
-0.000132366
6.18097e-06
-1.93998e-05
0.000721221
-0.000431311
-0.000181473
0.00043163
-0.000606681
-4.78253e-05
-0.000135832
9.35261e-05
0.000447611
-0.00115965
-0.000276459
-0.000157519
0.000217136
-0.00027777
-0.000125472
-0.000552249
0.000466647
-0.000151834
-6.60173e-05
3.71059e-05
-0.000470281
-0.000524775
-0.00122037
1.61102e-06
-6.40197e-05
-0.000223806
-1.89861e-05
-1.256e-05
-1.51543e-05
4.67004e-05
0.000166202
-0.000139857
-2.39906e-05
0.000229755
-0.000254858
-0.000160725
0.00046985
-0.000375625
0.000146492
-8.03254e-05
-0.000459073
0.00104194
-0.000944475
4.07998e-05
0.000374191
-0.000242773
-0.000188011
0.000196923
0.000124075
-2.42894e-05
8.47347e-06
1.48821e-05
-0.000118462
-0.00145199
-0.000878056
-0.00037509
0.000306738
3.7324e-05
-3.2261e-05
1.97407e-05
-0.000120329
-2.13891e-05
-1.01159e-05
-6.08398e-07
-0.000199432
-0.00023562
0.000138203
-8.06472e-05
-0.000628619
0.000646359
-0.000564455
0.000643037
3.32154e-06
-0.000536832
0.000481194
5.56375e-05
-0.000491512
-7.29431e-05
-1.03173e-05
-0.000661128
0.000662188
-0.000543573
0.000557787
-1.42141e-05
-0.000499796
-0.000613201
-4.79273e-05
0.000636762
0.000611844
2.49189e-05
-0.000543571
-0.000421678
0.000475138
-0.000430252
-4.4886e-05
-0.000325569
-9.61087e-05
-0.000232687
-9.28821e-05
0.000170697
-0.000122547
-6.19902e-05
0.000600134
1.171e-05
0.000618503
-1.83691e-05
0.000639805
1.69016e-06
0.000524037
-0.0003646
8.38167e-05
-2.15471e-06
-8.4218e-05
-0.000170181
9.17904e-05
-0.000241971
0.000147228
0.000229117
-0.000314719
0.000194505
-0.00024283
-0.000651705
0.00016428
-2.21654e-05
7.02943e-05
0.000440863
-0.000539825
9.51866e-05
-0.000131647
0.000142487
0.000142245
9.48187e-05
2.1698e-05
-0.000827983
-3.33938e-05
-0.000194514
0.000117915
-7.2058e-05
8.95183e-05
-0.000792108
-0.000191141
-0.00146374
0.000527334
0.00027826
-0.000220188
-3.0221e-05
0.000638043
-0.000194221
0.000267754
0.000258777
-0.000338889
0.00103278
-0.0012321
8.2661e-05
7.64344e-07
-8.34254e-05
0.00123573
3.34961e-05
7.23471e-05
0.000186897
-0.000128941
8.24742e-06
3.33035e-05
0.000221734
0.000736131
-0.000736242
-0.000140806
-0.00015282
6.25374e-05
-0.000370858
0.000207416
0.000691651
0.000744156
-0.000745287
0.000142974
-6.87377e-06
-0.000212873
-2.33315e-05
0.000268098
-0.000160851
0.00017229
-0.000511782
-0.000778945
-0.000208367
-7.41682e-05
0.00016559
-7.87311e-05
0.000124877
-0.000211736
0.000229028
0.000221606
-0.000212952
8.83379e-05
-7.22494e-05
-9.80171e-05
-0.000284345
0.000732082
0.000108119
2.61499e-06
-1.93499e-05
-1.71652e-05
3.74613e-05
0.000160095
0.00028245
-0.000402683
-4.66571e-06
-0.000132005
0.000679374
0.000568441
-0.000188363
-9.16838e-05
-0.000515934
-0.000603671
0.000599755
-0.000167494
9.97478e-06
-0.000751559
0.000538824
-0.000172154
-0.000319846
0.000184559
1.10365e-05
0.000106032
0.000344848
-0.000500544
-6.89154e-05
0.000207167
2.6674e-05
-5.43502e-05
7.46168e-05
-0.000554544
-4.87497e-05
-4.45136e-05
-7.37597e-05
0.000393004
0.000117822
0.000417217
0.000437988
-0.000130139
0.000126089
0.000492267
-0.000486674
-0.00014267
2.32114e-05
-5.61591e-06
-1.96262e-05
-0.000488728
-7.73615e-05
3.49835e-06
-0.000458451
-0.00133259
0.00110193
0.000175835
-8.73959e-05
0.000632782
0.000198805
6.83084e-05
6.02022e-05
4.45247e-05
-0.000211425
0.00029729
-4.15026e-05
1.38472e-05
4.85375e-05
3.27546e-05
-4.44663e-05
-0.000132526
5.54383e-05
-6.03846e-05
0.000130978
0.00075241
0.000487008
-0.000384999
-3.71594e-05
0.00023509
-0.000170551
-0.000332389
-0.000138682
0.000195829
-0.000248401
-3.50916e-05
-6.02451e-05
6.42327e-05
0.000234906
-0.000298587
-5.50923e-07
-7.21863e-05
-4.39563e-05
6.47821e-06
3.15755e-05
-0.000257294