/*--------------------------------*- C++ -*----------------------------------*\
| =========                 |                                                 |
| \\      /  F ield         | OpenFOAM: The Open Source CFD Toolbox           |
|  \\    /   O peration     | Version:  v1912                                 |
|   \\  /    A nd           | Website:  www.openfoam.com                      |
|    \\/     M anipulation  |                                                 |
\*---------------------------------------------------------------------------*/
FoamFile
{
    version     2.0;
    format      ascii;
    class       surfaceScalarField;
    location    "0.8";
    object      phi;
}
// * * * * * * * * * * * * * * * * * * * * * * * * * * * * * * * * * * * * * //

dimensions      [0 3 -1 0 0 0 0];
oriented        oriented;


internalField   nonuniform List<scalar> 
11117
(
1.6316e-05
-4.11892e-05
-4.44398e-06
2.93173e-05
-2.84961e-05
2.53742e-05
1.28936e-05
-9.77168e-06
-3.62082e-05
4.60126e-05
-0.000152865
0.000143061
-0.000480714
2.6907e-06
0.000207902
0.000270121
0.000166632
0.000250645
-0.000199026
-0.000218251
2.70371e-05
-4.56954e-06
0.000158115
-0.000180582
-0.000364951
-3.35442e-05
0.000277836
0.00012066
-4.29253e-05
1.70469e-05
-4.52501e-06
3.04034e-05
0.00124718
0.000238097
-0.000917338
-0.000567939
-4.70637e-05
6.16366e-05
-2.32488e-05
8.67595e-06
-0.000873871
0.0009444
0.000303186
-0.000373716
-0.000360911
-0.000217964
0.000282607
0.000296268
-0.000421145
-0.000217935
0.000261224
0.000377856
0.000752815
-0.000954531
0.000462818
-0.000261103
3.62997e-05
-4.19945e-05
2.10786e-05
-1.53838e-05
9.59417e-05
-2.14767e-05
3.23098e-05
-0.000106775
-0.00012994
0.000226293
-2.10933e-05
-7.52594e-05
-0.000641087
0.000687185
0.000666961
-0.000713059
1.10833e-05
3.03801e-05
-5.16359e-06
-1.22904e-05
8.25819e-06
5.56279e-05
-5.15957e-05
-0.000325191
0.000184065
6.56824e-05
7.54439e-05
1.29004e-05
-8.4031e-06
-7.85587e-05
7.40614e-05
0.000431768
0.0003369
-0.000222575
-0.000546093
9.37147e-05
0.000108877
-4.78585e-05
-0.000154733
0.000263094
0.000171269
-0.000307341
-0.000127022
0.000923526
-0.000956033
0.000294558
-0.000262051
0.000278844
-0.000347146
0.000760388
-0.000692085
-0.000189513
0.000246199
-0.000280142
0.000223457
0.000128706
-3.90937e-05
0.00100633
-0.00109594
1.58927e-05
-1.67563e-05
1.63268e-05
-1.54632e-05
-0.00012743
0.000102144
0.000125529
-0.000100244
-0.000107897
-0.000365237
0.000340993
0.000132142
-0.000119267
-0.000451111
0.000379889
0.000190489
-4.27929e-05
9.23943e-05
-5.07723e-05
1.17098e-06
-0.000134851
7.44628e-05
-4.35897e-05
0.000103978
-0.00010917
6.36105e-05
-2.58955e-05
7.14551e-05
0.000602366
-0.000826565
0.00100693
-0.000782735
0.000282494
-0.000448992
-8.65815e-05
0.000253079
0.000461384
-0.00010678
-0.000635496
0.000280892
0.000189474
0.000315199
-0.000410961
-9.37118e-05
0.000151065
0.000284535
-0.000314664
-0.000120936
-3.15889e-05
0.000177335
-0.000206043
6.02973e-05
0.00101019
0.000888396
-0.00089217
-0.00100642
0.000263858
1.98249e-05
-2.66197e-05
-0.000257063
5.40725e-05
1.54274e-05
-5.84166e-05
-0.000945816
0.000750629
-0.000227879
0.000423066
-0.000723339
0.000563032
-0.000166727
0.000327034
0.000258837
-0.000354014
0.000208278
-0.0001131
2.36651e-05
-3.31122e-05
2.43121e-05
-1.48649e-05
-5.453e-05
0.000112366
-5.78356e-05
-2.08595e-05
-1.34663e-05
3.43258e-05
-0.000342474
-0.00115356
0.000517953
0.000978081
3.63927e-05
-4.45289e-05
-9.65829e-07
9.10207e-06
6.43481e-05
-6.68568e-05
2.10635e-06
4.02392e-07
9.95836e-06
-9.95836e-06
0.000424701
0.000177202
-0.000556084
-4.58188e-05
0.000314619
0.000129906
-0.000410355
-3.4171e-05
-0.00016653
-8.33919e-05
0.000230989
1.89322e-05
0.000885507
0.000114897
-0.00136697
0.000366567
-0.000404173
0.000775566
0.000552133
0.00085224
-0.000866596
4.11662e-05
-2.68104e-05
0.000143693
-7.65159e-05
-6.64447e-05
-7.32612e-07
-0.000134527
-0.000118984
0.000126081
6.49003e-05
-3.93349e-05
-0.000133463
0.000117335
-3.84919e-05
-0.000198109
-1.67843e-05
-0.000135028
0.000110524
4.12884e-05
0.000131741
-0.000133044
5.36539e-05
-5.23508e-05
-1.41266e-06
-0.000329476
0.000330889
-0.000639113
-0.000358335
0.000501962
0.000495485
1.08677e-05
4.41226e-05
-2.27989e-06
-5.27104e-05
0.000472119
-0.000141784
-0.000672809
-0.000213293
0.000193109
0.000151926
-0.000271485
-0.00125609
0.00129633
0.000231244
-8.2637e-05
0.000236176
-0.000185045
3.15055e-05
-0.000717484
-0.000562715
-0.000117363
4.93892e-05
0.000180898
-0.000112923
-1.34004e-05
-2.56377e-05
3.9038e-05
-0.000928593
-0.000166195
0.000138755
0.000259581
4.8589e-05
-4.43119e-05
1.69517e-05
1.52182e-05
-3.21698e-05
-7.20557e-05
-4.02084e-05
1.0228e-05
0.000102036
1.89234e-07
9.31954e-06
9.2472e-08
-9.60124e-06
0.000124762
-0.000108025
0.000166117
-0.000182855
-0.000261508
0.000211533
0.000259398
-0.000209423
-0.00020537
3.75695e-05
0.000244754
-7.69534e-05
5.96951e-05
-0.000491249
0.000431554
-1.93985e-05
-0.000516553
0.000535952
3.13815e-05
-0.000482602
0.000451221
2.9951e-05
1.04683e-05
7.84342e-05
-0.000118853
-3.0536e-05
6.71282e-05
0.000258471
-0.000295063
0.000527456
-0.000156168
7.9012e-05
-0.0004503
0.000629783
4.83905e-05
-4.91669e-05
-0.000629007
0.000728398
-4.71789e-05
5.50552e-05
-0.000736274
-0.000699657
3.80762e-05
-2.70306e-05
0.000688612
-0.000614877
5.39011e-05
-2.46876e-05
0.000585663
-7.46412e-07
0.00022526
-0.000327597
0.000103084
0.000589968
2.27341e-05
-2.28036e-05
-0.000589899
0.000692331
4.68494e-05
-3.14195e-05
-0.000707761
0.000599351
4.57348e-05
-2.40572e-05
-0.000621029
0.000822952
5.83712e-05
-2.90833e-05
0.000373483
7.88094e-05
-0.000404709
-4.75839e-05
-0.000236253
0.000171118
7.22118e-05
-7.07724e-06
0.000309116
-0.000381869
-0.00117445
0.00124721
0.000722008
0.000336732
-0.000753073
-0.000305666
-2.66446e-05
5.02299e-05
-3.2084e-05
8.49871e-06
-0.00088963
0.000238807
0.000800559
-0.000149736
2.26243e-05
-5.50253e-05
0.000113779
-8.13776e-05
1.49776e-05
1.94775e-06
2.32175e-05
-4.01429e-05
-0.000243544
4.04077e-06
0.000101195
0.000138308
0.0002297
-6.01215e-05
9.0002e-05
-4.13019e-05
2.65847e-05
5.49614e-05
-4.02442e-05
-6.38379e-06
3.32776e-05
1.5095e-06
-2.84033e-05
-0.000415593
0.000347957
-0.000150941
0.000218577
-7.67345e-06
1.01248e-05
1.75406e-07
-2.62674e-06
9.91363e-05
0.000528861
-0.000606504
-2.14931e-05
0.000124386
0.000647195
-0.000731556
-4.00253e-05
-5.77065e-06
-1.73766e-05
2.22016e-05
9.45679e-07
-0.000531026
0.000483602
0.000914945
-0.000867521
3.43498e-05
-1.93069e-05
-0.000881639
-0.00103823
8.28645e-05
0.000958706
-3.33716e-06
0.00101026
-0.000713974
-0.000827308
9.89397e-05
-8.90504e-05
-9.88936e-06
0.000145651
-0.000115524
0.000176374
-0.000206501
-0.000170139
-0.000136738
-3.27309e-05
-1.7556e-05
2.14596e-05
2.88273e-05
-0.000355895
0.00040813
0.00062712
-0.000679355
-0.000437875
0.000631324
-0.000482413
0.000288964
3.41954e-06
-0.000137802
0.000136781
-2.39875e-06
0.000562743
-0.000837878
-0.000111579
0.000386715
4.4144e-05
-5.47748e-06
4.86429e-06
-4.35308e-05
9.52186e-05
4.65477e-05
-0.000139276
-2.49057e-06
0.00012878
3.02609e-05
-0.000168107
9.06632e-06
0.000153688
-0.000100673
-6.95556e-05
1.65407e-05
-0.000878188
0.000109235
-0.00015964
-0.000342572
0.000304882
-0.000693342
0.000731032
2.36162e-05
-2.32577e-05
-4.2353e-05
-0.000422031
3.86234e-05
9.06147e-06
0.000374346
4.29707e-05
0.000118883
-1.81608e-05
-0.00011379
-3.13432e-06
0.000121879
-4.9546e-06
3.87386e-05
-1.86209e-05
-3.92302e-05
1.91125e-05
-0.00025497
0.000145134
0.000114371
-4.53437e-06
5.59845e-05
-0.000332607
0.000370101
-9.34781e-05
4.37172e-05
-4.05302e-05
-2.05441e-05
1.73571e-05
0.000435735
-0.00021487
-0.000223543
2.67843e-06
-9.5768e-05
9.50393e-05
-4.82918e-05
4.90205e-05
3.07463e-06
0.000319736
-0.000155197
-0.000167614
0.000287739
-0.00014172
-3.68308e-07
-0.000437038
0.000979504
-0.000561806
1.93401e-05
9.72811e-05
0.000195681
-0.000133242
-0.00015972
-0.000118995
0.000224266
2.40564e-05
-0.000129328
0.000931933
0.000450901
-0.000615691
-0.000767143
-1.18908e-05
1.24058e-05
-6.25638e-05
6.20488e-05
-0.000482139
-5.21625e-05
-0.000355328
0.000129631
-0.000202975
-8.18713e-05
0.000155215
-0.000449968
-0.000386105
0.000508444
0.000327628
0.000755147
-0.00017245
-0.000582697
0.000199876
0.000103671
7.19531e-05
-0.000175624
0.000962812
-0.00023237
-0.000730442
7.71247e-05
1.60956e-05
-7.33773e-06
-8.75784e-06
-8.6819e-05
0.000222739
-0.00013592
-1.35781e-05
4.23263e-05
-2.87482e-05
-4.16757e-05
0.000229414
-0.000187738
-0.00048046
0.000545382
-6.49212e-05
-0.000488328
0.000481207
7.12104e-06
-0.000119767
-3.54197e-05
0.000155187
3.06683e-05
-7.63945e-05
4.57262e-05
-1.06865e-05
-3.06154e-05
-4.73623e-07
-5.91017e-06
-1.9737e-05
1.25869e-05
7.15007e-06
0.00021065
0.000195776
-0.000406426
0.000114244
-0.000137144
2.28998e-05
0.000105657
-0.000151101
4.54439e-05
0.000121519
-0.000113379
-8.14033e-06
-0.000448135
0.000524626
-7.6491e-05
9.84882e-06
-5.53916e-06
-4.30967e-06
-0.000285123
0.000329385
-4.42621e-05
-6.70588e-05
3.61675e-05
3.08913e-05
0.000938099
-0.00102377
8.56718e-05
-0.000106834
0.000148791
-4.19572e-05
-0.000136169
0.000211744
-7.55752e-05
0.000244145
-0.00023333
-1.08147e-05
-0.000273903
0.00031794
-4.40373e-05
-0.000115579
0.000182503
-6.69239e-05
-0.000166059
0.000118357
4.77019e-05
-0.00024881
1.2557e-05
-0.000231348
0.000150162
8.11858e-05
2.98293e-05
-2.39297e-05
-5.89954e-06
4.64472e-05
0.000124671
-0.000211756
-0.000662115
-0.000277996
-8.72405e-05
-0.000363911
-8.72001e-05
0.000183237
-8.1093e-05
0.000231312
-0.000102533
0.000187599
-9.238e-05
8.59588e-05
6.39746e-05
-0.000149933
-5.11292e-05
3.02314e-05
2.08977e-05
2.6294e-05
4.0861e-06
-0.0010907
0.00139982
0.000351565
9.58487e-06
-0.000361149
-0.000955585
-0.000197976
8.4278e-05
0.000174559
-4.22876e-05
-3.33848e-05
7.56724e-05
-0.000617368
-0.00010597
-0.000800148
-0.000145668
2.08648e-05
-8.92086e-05
6.83438e-05
2.52646e-05
-1.77438e-05
1.94194e-05
-2.69401e-05
-0.000158889
8.05623e-05
0.000515685
-0.000437359
-0.000877202
0.000877228
0.000670595
-0.000670621
0.000136952
-2.47587e-05
-0.000164751
5.25575e-05
-0.0011876
0.00114424
-5.23522e-05
9.57082e-05
-0.000107272
9.46011e-05
-2.90051e-05
-6.43364e-05
7.42671e-05
-9.67498e-05
-4.83345e-05
3.87626e-05
-3.69955e-05
4.65674e-05
8.86206e-05
-0.000107022
-0.000121081
0.000139483
4.75861e-05
-5.65883e-05
-0.000118884
0.000127886
-0.000198877
0.000173855
0.00017871
-0.000205092
5.01871e-05
0.000595571
-0.000440667
0.000791602
-0.000686367
-0.000187532
8.2297e-05
-0.00140226
-3.52165e-05
0.000249881
0.000217729
-0.000259247
5.75342e-05
-1.60167e-05
0.000255082
5.81095e-06
-4.56639e-05
-0.000215229
0.000716646
-0.000201096
-5.82918e-05
-0.000457258
-0.000360585
-0.000258328
4.27828e-05
0.00057613
-7.90341e-05
5.40302e-05
0.00121142
-0.00118641
0.000108003
-1.79137e-05
-9.00892e-05
2.47375e-05
9.51057e-05
-3.69457e-05
-8.28975e-05
2.3412e-05
1.93531e-05
-1.05206e-05
-3.22444e-05
1.79036e-05
-2.20939e-05
-3.48434e-05
3.90338e-05
-3.3888e-05
4.61513e-05
-0.000124022
0.000111759
-5.33904e-05
8.23039e-05
-0.000140232
0.000111318
-1.78182e-06
-7.19772e-06
-0.000109955
0.000118934
0.00014137
-5.03152e-05
-0.000221554
0.000130499
0.000162416
-0.000179691
2.09442e-05
-3.66877e-06
2.64982e-05
2.52893e-05
-0.00100082
0.000949033
-0.000114077
4.34885e-05
-0.000750901
0.00082149
0.000873087
-0.000875972
6.89889e-05
-6.61042e-05
0.000180632
-0.000280468
-0.000155338
0.000255174
7.19e-05
0.000130067
-9.4436e-05
-0.000107531
1.89001e-05
-5.50358e-05
-6.14339e-06
4.22791e-05
0.000163341
-0.000145311
-8.37826e-06
-9.65211e-06
5.28236e-05
0.000674355
-0.000372967
-0.000354212
-6.46046e-06
0.000220051
-8.39596e-05
0.000223876
-0.000224082
-6.25486e-06
1.31373e-05
-3.27251e-05
4.61725e-05
-7.62309e-06
3.13548e-05
-6.44139e-05
4.06822e-05
0.000162417
-0.000124624
5.94877e-05
5.36857e-05
-0.000545938
0.000492253
5.26842e-05
-0.00054349
0.000490806
3.28223e-05
-0.000443765
0.000410943
8.28444e-05
-8.83238e-05
-1.13049e-05
-0.000337183
-5.50855e-06
3.72767e-05
-4.22107e-05
1.04425e-05
-1.82845e-05
2.85695e-05
-0.000958089
0.000947804
-0.000278645
-0.000409723
0.000475819
0.00021255
0.00105869
-0.000452246
-0.000809765
0.000203323
-0.000656775
0.00116513
-0.000872022
0.000363671
9.25878e-06
-2.62536e-05
4.22594e-05
-2.62206e-05
-2.49163e-05
1.8406e-05
-0.000633261
-7.21725e-05
0.000307173
0.00039826
-4.02771e-05
-9.95461e-05
3.25515e-05
-0.000130625
-2.39049e-05
9.01938e-05
2.53611e-05
8.41918e-05
-6.77334e-05
-4.18195e-05
-0.0002187
0.000119605
9.90953e-05
-0.000229625
0.000212271
1.73544e-05
0.000293242
-0.000220866
-0.000191371
0.000107161
-0.000391754
0.000344225
-5.96315e-05
8.09786e-06
-1.82229e-05
-0.000595548
3.35569e-05
-5.70369e-05
0.000619028
-0.000468755
2.1962e-05
-3.95315e-05
0.000486325
-2.75888e-05
-6.85947e-05
0.000159716
-6.35325e-05
-2.0993e-05
0.000179296
-0.000243572
8.52685e-05
-0.00029242
0.000476307
0.000334066
2.99622e-05
-0.00108407
0.00111049
-5.63915e-05
-1.23328e-06
2.61187e-05
-6.98183e-06
1.15225e-05
5.91225e-05
-6.29694e-06
0.000248144
-2.90654e-06
-0.000254333
9.09545e-06
-5.65621e-05
6.89507e-05
5.11815e-06
-1.75067e-05
4.01353e-05
0.000237216
-1.36888e-05
-0.000263663
-6.49067e-05
-2.83769e-05
4.21544e-05
-0.000342231
-6.38626e-05
0.000298987
0.000107107
-0.000453646
0.000294147
0.000310564
-0.000161562
9.60382e-05
3.39348e-05
-0.000556429
0.000322663
0.00042324
-0.000562863
1.70103e-05
0.000557951
-1.20982e-05
-0.000604729
9.9424e-07
0.000615822
-1.20869e-05
7.66418e-06
0.000631345
-0.000612923
-2.60863e-05
-3.79478e-05
0.000593588
-0.000581409
2.57686e-05
-0.000631107
0.00105904
-0.000770505
-4.29397e-05
4.64694e-05
-4.44907e-05
4.0961e-05
-4.30269e-05
5.50922e-05
-8.99473e-05
7.78819e-05
-8.31545e-05
5.26884e-05
2.97263e-05
7.39766e-07
8.57468e-05
-7.68234e-05
-1.08668e-05
1.94348e-06
-0.000971876
0.000113756
0.000954869
-9.67484e-05
-0.000120119
0.000671228
-0.000724717
0.000173608
-5.72027e-05
-9.22819e-05
0.000444551
-0.000295066
5.88461e-05
-9.83371e-05
8.82652e-05
-4.87743e-05
-0.000135652
-6.94646e-05
0.000606158
-0.000401042
3.38133e-05
7.90493e-05
-1.087e-05
-0.000101993
2.82877e-06
1.5612e-05
-1.82516e-05
-0.000565819
0.000523709
-4.62049e-05
8.95222e-05
-0.000115373
0.000325871
-0.000271636
-1.41073e-06
0.000125964
9.40399e-05
-8.06832e-05
-0.000139321
4.08964e-05
-1.67215e-05
0.000328339
-0.000352514
-4.92494e-05
1.00522e-05
-1.73649e-05
0.000441967
-0.000300063
-0.000500239
0.000766591
-0.000399327
0.000595406
-0.000309015
-1.56833e-05
9.17657e-05
2.8861e-05
2.36582e-05
7.7933e-05
-0.000130452
0.000456351
-0.00074274
-0.000590813
4.18775e-06
-5.41564e-06
-6.44555e-06
-0.000426976
0.000472457
0.00101223
-0.00105771
0.000848424
-0.00017119
-4.77192e-05
-0.000629516
1.67705e-06
9.31497e-06
3.9856e-06
-0.000397055
0.000178868
0.000464386
-0.000238551
6.46016e-05
-6.95953e-05
0.000231809
-0.000788178
0.000685075
2.44333e-05
-4.59383e-06
1.11575e-06
-2.09552e-05
6.69657e-06
0.000137151
-0.000191928
4.80805e-05
-0.00068163
0.000613504
0.000551728
0.000115705
0.000246608
1.03383e-05
-1.61101e-05
0.000115035
-0.000109263
-4.87297e-05
-0.000237999
0.000179949
-1.51636e-05
2.34501e-05
-0.000251292
0.000243005
-0.000173312
-0.000189833
0.00080557
0.000138829
-1.74855e-05
-8.05108e-05
0.000149278
-2.37489e-05
0.000148541
9.21832e-05
-1.72345e-05
9.87727e-05
-7.40352e-05
-2.42646e-05
-2.64637e-07
2.27129e-05
0.000127449
2.66559e-05
-2.2029e-05
0.000223408
-1.63662e-05
8.61553e-06
9.96668e-06
0.000234178
-4.03797e-05
-0.000233523
-5.45945e-05
-8.15748e-05
-0.000519938
3.16107e-05
-6.40776e-05
-0.000384914
-6.9134e-05
-0.000566362
0.00014522
-0.000142145
-4.59705e-05
-6.6252e-05
-5.00925e-05
-5.92772e-05
0.000177634
2.54033e-05
8.90623e-07
0.000372608
0.000605473
-1.33866e-05
4.30336e-05
-1.07028e-05
-1.914e-05
1.20989e-05
-6.45812e-05
-0.000181338
0.000159338
0.000525119
-0.00055289
2.50868e-05
2.68447e-06
6.41492e-05
-0.000285419
0.000187725
8.28322e-05
-0.000103511
3.77253e-05
-4.6048e-05
4.36399e-05
1.33056e-05
-1.08975e-05
0.000276506
0.000474123
0.000211009
0.000352023
-6.66984e-05
-0.000287316
-5.39591e-05
5.56163e-05
-5.25505e-06
3.59792e-06
-8.66817e-05
2.54428e-06
8.25703e-05
1.56712e-06
-6.76628e-05
-5.13652e-05
7.29801e-05
-6.90182e-05
-1.252e-05
3.9983e-05
4.15552e-05
-7.26035e-06
-8.44274e-05
3.08104e-05
6.08774e-05
0.00042507
-0.000118239
0.0001373
-0.000428304
0.000715704
6.21722e-05
-0.000317852
0.000570299
-0.000164768
0.000268384
-0.000270145
-8.21397e-06
1.99332e-05
-1.65046e-05
4.78534e-06
2.92628e-05
9.48423e-05
-5.54741e-05
-6.86311e-05
-4.7426e-07
-5.22713e-05
-1.21362e-06
-0.000624706
0.00102982
-0.000734922
0.000329806
3.62692e-05
-0.000102708
-4.27315e-05
5.24246e-05
-0.00011113
-7.61458e-05
3.93247e-05
-1.97749e-05
-6.23428e-05
-0.00105775
0.000946213
7.24464e-05
-3.73096e-05
4.78559e-05
-3.62832e-05
2.57368e-05
-7.50064e-05
5.28644e-05
-3.63526e-05
5.84947e-05
-2.19466e-05
-9.78204e-05
-4.82933e-05
7.89616e-05
0.000378199
-0.000157432
1.0386e-05
-3.58493e-06
6.06064e-05
-6.74075e-05
4.22957e-05
-4.55192e-05
1.56273e-05
-1.24038e-05
8.0356e-05
5.2267e-05
0.000119737
8.21611e-05
-8.97803e-06
-7.87573e-05
5.57429e-06
5.28004e-05
-1.4144e-05
-4.59941e-05
0.00036812
8.71984e-05
0.000237861
0.00117587
0.000116619
-0.00113721
-0.000155275
6.80987e-05
-6.9301e-06
4.02077e-05
-0.000683008
0.000176964
0.000608822
-0.000102778
-0.000118115
-1.72304e-06
-1.89875e-06
0.000121737
-3.82111e-05
0.000196681
-0.00011019
-4.828e-05
4.60079e-05
-0.000108062
6.13439e-05
7.0974e-07
-0.000212952
0.000717386
4.51423e-05
-0.000549576
-0.000315433
0.000897837
6.06898e-05
-0.000643093
0.000595233
2.96552e-05
7.0611e-05
-0.000695499
-6.23629e-05
6.28288e-06
8.45571e-05
-2.84771e-05
6.47491e-05
0.000145901
-0.000164942
0.000345476
0.000321428
0.000489672
0.000111869
0.000531786
0.000103971
0.000528203
0.00013184
0.000613175
-8.1797e-06
-2.4393e-06
4.68732e-06
5.93169e-06
5.97335e-05
-1.4173e-05
1.00557e-05
-0.000182877
0.000219147
-0.000208949
0.000261374
-7.00283e-05
0.000109353
1.28624e-05
-3.78039e-06
1.04277e-06
-7.93589e-06
-5.40468e-05
6.44997e-05
-2.51694e-06
2.00563e-05
8.61035e-05
-0.000103709
-2.45098e-06
2.22136e-05
0.000653104
-0.000437221
0.000967878
6.30802e-05
-0.0010158
-1.51532e-05
-0.000262033
0.000257907
0.000297368
0.000137237
-0.000264905
-6.77933e-05
0.000195462
5.05355e-05
-9.93579e-06
-1.15625e-05
1.57277e-05
9.79895e-05
0.000157588
-5.61714e-05
-9.73399e-05
-4.74768e-05
-0.00095403
0.000926482
-0.000399428
-8.53178e-05
-6.02866e-05
-7.54604e-06
0.00025668
9.66313e-06
-0.000258797
-8.23948e-05
0.000724383
1.96892e-05
-0.000661677
-7.71799e-05
0.000600839
1.92551e-05
-0.000542914
4.81889e-05
-5.444e-05
0.000130053
-0.000123802
-1.3405e-05
3.18267e-05
-3.63337e-05
1.7912e-05
4.60991e-05
-0.000136401
0.000185558
-9.5256e-05
-3.47907e-05
0.000133563
-3.97465e-05
4.93973e-05
-2.3023e-05
1.33721e-05
-0.000280519
-6.36892e-05
0.000202528
0.00014168
8.49298e-05
-9.89159e-05
3.45153e-05
-2.05292e-05
0.000669423
2.16236e-05
-1.72174e-05
-0.000673829
4.55555e-06
8.56107e-05
-6.48052e-05
0.000516885
-2.63617e-05
3.17244e-05
-0.000522248
0.000224013
-0.00013739
-0.000145986
5.93625e-05
-0.000551243
-7.11694e-06
-7.11775e-05
0.000629538
-0.000561735
-9.38125e-05
1.71487e-05
0.000638398
9.87296e-05
-2.39995e-05
-0.000100273
2.55429e-05
-3.01113e-05
-8.50086e-06
4.47538e-05
-6.14163e-06
-6.21761e-05
-4.79706e-05
6.37846e-05
4.6362e-05
-1.87567e-05
2.72233e-05
-4.11918e-05
0.000783129
7.76052e-05
-3.7782e-05
4.93505e-05
4.45246e-06
-9.65897e-06
-0.00117792
-0.000125415
0.0011402
0.00016314
0.000460757
0.000361067
-0.000315109
-0.000506715
8.67568e-05
-4.52426e-05
-3.48021e-05
-6.71207e-06
-0.000126292
0.000154901
-0.000195518
0.000166909
7.97271e-05
-7.51715e-05
-0.000151108
8.0423e-05
-0.000611301
0.000681986
0.000136301
-0.000114557
3.05501e-05
-5.22943e-05
-6.56056e-05
6.28666e-05
2.8592e-05
-2.5853e-05
2.41041e-05
-4.74651e-05
5.7311e-05
-3.39501e-05
0.000179343
-0.000144126
-6.35634e-06
0.00103261
-0.000899811
0.000199614
-0.000332409
-0.000326105
-0.000213389
0.000259352
0.000113862
0.000112668
-0.000105389
-0.00012114
-1.82211e-05
2.39309e-06
-1.42833e-05
-0.000191578
0.000177722
-4.83198e-05
0.000101311
1.42982e-05
-1.68801e-05
9.86787e-05
-9.84928e-05
-3.07151e-05
3.05293e-05
3.12725e-05
-5.8945e-05
4.96112e-05
-2.19387e-05
1.41091e-07
-5.72439e-06
0.000229989
-0.000423057
0.000496254
0.00113139
-1.75705e-05
3.04179e-05
6.43417e-06
-1.09311e-05
-0.000194633
0.00019913
-5.99611e-05
0.000205181
-7.07194e-05
0.000123364
-9.88498e-05
2.30199e-05
-3.439e-05
1.41989e-05
-0.000786499
0.000363323
-5.75371e-05
-0.000924278
-0.00054385
0.000204638
7.34841e-05
-1.20616e-05
-0.000107214
1.1602e-06
5.79984e-06
2.32334e-06
-2.54283e-05
-3.18119e-05
3.75032e-05
-2.27958e-06
-3.45597e-05
3.6365e-05
-4.445e-06
1.59559e-05
0.000119826
-0.000131337
-0.000816064
-9.26864e-05
0.000225743
0.000403126
-0.000383705
-0.000163197
0.000143776
-0.000124177
-0.000922337
5.37755e-05
0.000992738
-6.57416e-05
-0.00100354
0.00103171
3.75735e-05
6.00491e-05
-7.59769e-05
-3.28018e-05
-0.000284651
-0.000310755
0.000333373
3.91702e-05
-4.58186e-06
-3.11278e-05
-3.46049e-06
-9.56963e-05
-3.07245e-05
9.96429e-05
2.67779e-05
-0.000807669
-0.000286144
-0.000178296
-4.43584e-05
-2.03986e-05
0.000243053
9.51467e-05
2.1936e-06
-0.000100131
2.79065e-06
0.000236116
-7.57776e-05
5.75045e-06
-3.85365e-05
-1.64633e-05
8.28868e-05
2.37289e-05
-7.73528e-05
0.000115759
-0.000100776
-2.88337e-05
1.38515e-05
1.04435e-05
2.89907e-06
1.75569e-06
-1.50983e-05
4.30172e-05
0.000613781
-2.74776e-05
-0.00062932
9.32651e-05
0.000686206
-5.54933e-05
-0.000723978
4.02439e-05
6.43722e-05
1.11426e-05
3.00631e-05
-0.00108811
0.00108821
-3.01673e-05
0.000262315
-0.00147376
2.9411e-05
0.00118203
-0.000130222
-0.000114139
0.000110952
0.00013341
8.66674e-05
3.01648e-05
-4.2811e-05
-7.40212e-05
0.000357742
-0.000312621
0.000205525
0.000734998
-0.000611998
-0.000754107
3.17582e-06
1.58664e-05
6.43656e-06
-2.54787e-05
5.72461e-05
-4.15276e-05
-6.98028e-05
5.40843e-05
-5.5107e-05
1.13838e-05
0.000115768
-7.20443e-05
-0.000739172
0.000235864
0.00048113
2.21779e-05
7.22073e-05
-9.54357e-06
9.97142e-06
-7.26351e-05
-9.36817e-05
1.54542e-05
-2.18339e-05
0.000100061
0.000205895
1.95225e-05
7.38943e-06
-0.000232807
-2.07335e-06
7.73256e-05
-7.52523e-05
0.000308673
-0.00122428
-9.55395e-06
1.04551e-05
4.61286e-06
-5.51403e-06
-2.44719e-05
-4.97677e-05
6.57674e-06
3.3966e-05
-6.77679e-05
-3.71771e-05
7.0979e-05
0.00104048
-0.00146485
0.000184241
0.000240134
0.000478361
9.06631e-06
1.25747e-05
-0.000500002
-6.1801e-06
-2.86918e-06
5.83998e-05
8.84079e-05
8.81905e-05
-0.000960866
0.000784267
2.3694e-05
6.02666e-05
-8.77505e-05
3.78991e-06
-1.15162e-05
0.000169902
-0.000212581
5.41956e-05
-1.31601e-05
-4.14647e-05
6.02946e-05
-5.66982e-06
0.000915232
-0.000600291
1.66645e-06
-0.000170519
0.000153689
6.377e-06
0.000106991
-0.00010303
0.0008459
-0.000579836
4.88955e-05
-0.00031496
9.41355e-05
0.000392244
-5.06446e-05
4.56057e-05
-4.34913e-05
-2.6994e-05
0.000192573
1.497e-05
-0.000180549
0.000569596
-0.000118171
-0.000426203
-2.5222e-05
8.03447e-06
-1.38439e-05
-2.56445e-05
3.14539e-05
-1.07028e-05
-0.000237862
0.000142057
0.000221769
6.36012e-05
-9.95562e-05
-8.98903e-05
0.000125845
3.41107e-06
4.18157e-05
-1.17379e-06
-1.06637e-06
0.000208135
2.79044e-06
4.28388e-06
-0.000100756
5.92586e-07
-3.13181e-06
7.47465e-05
0.000216334
-0.000240687
0.000105159
-8.08059e-05
0.00115387
-0.00113286
-0.0002925
-9.5356e-06
-0.000627623
0.000191822
0.000542961
7.24217e-05
-7.54848e-05
-8.82767e-06
0.00051653
-8.03218e-05
0.000479023
-0.000141285
-5.40164e-05
0.000112664
-2.56315e-05
3.28977e-05
8.95529e-05
-9.68191e-05
3.49167e-05
6.86044e-07
-4.44672e-05
8.8645e-06
-7.54348e-05
4.84408e-05
2.01964e-05
-8.69074e-05
7.82188e-05
-1.15078e-05
0.000729193
9.89926e-05
-4.50572e-05
0.000170459
0.000166687
-0.000270922
0.000232974
-0.000471557
0.000479222
-0.000334541
0.000214422
-0.0011401
0.00114208
9.58729e-05
-9.78524e-05
0.000215648
0.000602851
-0.000297288
-0.000394792
2.56569e-05
-0.000128373
-0.000209812
-0.000301037
0.000505714
-0.000756201
-0.000158767
0.000409255
-0.00079143
0.000364674
-0.000110163
0.00053692
-4.05649e-05
0.000118794
-0.000348997
0.000270768
-2.52802e-05
-5.40383e-05
-0.00107018
0.0011495
8.82468e-05
-0.000384172
0.000774646
0.000178837
-0.000825035
-0.000128448
-8.35561e-06
3.90411e-06
1.73139e-05
0.00073908
-0.000685631
7.83912e-05
0.000614674
-0.000670821
0.000160119
0.000553955
-0.000515973
7.38863e-05
8.4222e-06
9.12985e-05
-4.57399e-06
0.000111415
3.92859e-05
-8.70999e-05
7.86736e-05
-0.000101314
8.15809e-05
-5.89408e-05
0.000649266
-0.00054836
-6.56384e-05
-3.52681e-05
0.00066652
-0.000567426
-2.30986e-05
-7.59952e-05
0.000104413
0.00154834
-0.00121601
-0.000436743
-1.53765e-07
3.41554e-07
-1.48305e-05
1.46427e-05
-0.000993632
-0.00063744
0.00105532
0.000575751
-3.04672e-06
-1.11328e-05
-4.04677e-05
5.46472e-05
2.44919e-05
-2.81875e-05
-9.71045e-06
1.34061e-05
1.52728e-05
-4.58705e-05
-6.55322e-05
9.61299e-05
0.000117126
-4.42987e-05
0.000656367
0.000572501
-0.000816369
0.000343005
0.000603099
-0.00083227
0.000353557
2.61772e-05
9.18279e-05
-6.69018e-06
1.30481e-05
3.66902e-05
-4.30482e-05
0.000594312
-6.92647e-05
0.000146181
-1.23986e-05
1.6422e-05
-6.46367e-06
-0.000110591
-0.000204227
1.08239e-05
0.000303995
0.000194863
0.000810705
-0.000644502
-0.000309427
-0.00035129
0.000382072
0.000660188
-0.000626076
-0.000142706
0.000108594
-8.33489e-05
2.51102e-05
5.65156e-05
0.000108289
-1.57899e-05
5.62925e-05
0.000148868
-2.7995e-05
6.16301e-05
-3.81028e-05
9.51256e-05
0.000529308
-0.000638449
0.000109141
-0.000404843
0.000289651
-0.00127821
0.0013934
-0.00015479
0.000136308
0.000237727
-0.000219244
0.000119615
3.66717e-05
-6.95909e-05
-8.66953e-05
-0.000442885
-3.0636e-05
0.00060693
-0.000133409
0.000224328
-0.000188199
-0.000392024
-7.92452e-06
-1.82625e-06
-9.52016e-07
0.000125766
-9.61043e-05
8.99529e-05
-7.62132e-05
7.62395e-05
5.72198e-05
-4.61061e-05
-1.81604e-06
7.32272e-05
-2.53051e-05
0.000216956
-0.000218539
0.000107807
-0.000106225
4.97787e-05
2.16974e-05
9.18649e-05
-4.59989e-05
-5.00405e-06
4.72225e-05
-2.07446e-05
4.75673e-05
-6.85084e-05
4.16857e-05
1.44612e-05
-1.68913e-05
2.39115e-05
-2.14814e-05
5.29152e-05
-1.62435e-05
-0.000137314
8.72387e-05
-8.0147e-05
5.39589e-05
-3.28903e-05
6.55988e-05
-5.54243e-06
9.17424e-05
1.24787e-05
-0.000633354
-0.000392132
0.000773609
0.000251877
0.000822666
-0.0010413
0.000356709
-0.000138078
3.36225e-06
2.03537e-05
-1.889e-05
-4.82589e-06
1.13915e-05
0.000294204
-0.000347909
4.23139e-05
-9.86382e-05
6.19568e-05
2.47178e-05
1.19636e-05
-0.00133247
0.00117083
-0.000249477
0.000411114
0.000381399
-0.00032568
-0.000130474
7.47539e-05
1.09952e-05
0.000665488
-0.000664131
-1.23525e-05
-0.00035383
2.02073e-05
0.00013914
-0.000559358
0.000538468
-0.000118251
0.000160471
-0.000650986
0.000658452
-0.000167937
-0.000102018
-0.000757568
0.000859586
-1.5428e-05
7.58602e-06
-1.76455e-05
2.54875e-05
5.25768e-06
-7.18542e-06
2.21574e-06
-2.87989e-07
0.0001471
-0.000104239
0.000118629
-0.00016149
-9.01721e-05
-0.000179691
0.000214756
-7.05718e-06
9.61356e-06
-1.21103e-05
-0.000169894
-2.2995e-08
0.000111526
5.83915e-05
-0.000119648
-4.54054e-06
9.43563e-05
2.98322e-05
-2.62408e-05
2.06176e-07
0.000360964
-0.000334929
0.00107621
-0.001098
-6.42825e-05
8.60741e-05
-0.000163423
1.13241e-05
0.00010394
1.11866e-05
-0.000115126
4.34722e-05
0.000147586
-4.84805e-05
-0.000142578
-4.36483e-06
-7.17324e-05
9.06961e-06
6.70277e-05
-2.06036e-05
2.49686e-05
-0.000102858
-2.12759e-05
8.13105e-07
0.000121774
-7.37127e-06
5.41664e-05
-0.000238373
-1.03865e-05
7.56845e-06
-1.5403e-05
0.000650816
5.12895e-05
-7.07601e-05
0.000606825
3.08311e-05
-4.40679e-05
-0.00055414
2.45137e-05
-3.32372e-05
-0.000534609
-3.6182e-05
-3.39381e-05
-0.00036618
-0.000191468
0.000215417
-0.000987666
-0.000171177
0.000282872
8.85845e-05
-3.86277e-07
-6.0372e-06
-9.89158e-05
-0.00114881
0.00116869
-6.76555e-05
3.72506e-05
-0.000188295
-0.000103231
-6.09939e-06
-0.000120294
0.000664725
-0.000189837
-0.000552068
0.000694816
-0.000183807
-0.000593404
2.79576e-06
-3.97223e-06
0.000136884
-0.000135708
1.21365e-05
0.000660915
-1.28636e-05
-0.000101509
0.000122846
-5.99661e-07
-2.07373e-05
6.62085e-05
-7.71492e-05
3.41054e-05
-2.31647e-05
3.36233e-05
-2.52218e-05
1.10178e-05
-2.8245e-05
1.47016e-05
7.32769e-05
-1.86746e-05
-8.80533e-05
1.05086e-05
9.62193e-05
0.0002651
-4.2261e-05
5.68746e-05
-0.000279713
-0.000334954
-8.02635e-05
6.13876e-05
-0.000398689
0.0002798
0.000350698
-2.90219e-06
-1.97082e-05
2.03308e-05
5.58929e-05
-1.53333e-06
1.45911e-05
5.65186e-05
-9.04507e-05
8.66466e-05
-5.27145e-05
-0.00033691
4.82417e-05
0.000314413
-2.57445e-05
0.000304187
0.000365423
-0.000590946
-7.86639e-05
0.0002238
-0.000585232
-0.000271922
0.000467227
0.000323994
-0.000640278
-0.000150943
-0.000110801
9.31836e-05
1.93931e-05
-1.77598e-06
0.000114595
0.000163855
-0.00101762
3.70303e-05
-1.62766e-05
-2.86782e-05
-1.09184e-05
-1.94404e-05
1.99723e-05
-9.42736e-05
-2.86603e-05
0.000101658
0.000899424
-2.3307e-05
-0.000766567
-0.00010955
-2.78002e-05
-5.31204e-06
-9.66746e-05
-0.000183794
2.17791e-07
7.71078e-05
-0.000104024
0.00111405
0.0001551
-9.04901e-05
0.000195125
0.000111699
-0.000405792
0.000328568
0.000525807
-0.000448583
0.000272044
-0.000256122
0.000438559
-0.000454482
2.39094e-05
7.2067e-05
-1.26729e-05
-8.33035e-05
2.29101e-05
-1.91324e-05
-1.15554e-05
7.7778e-06
-0.000254072
4.44744e-05
4.86864e-05
0.000160911
-0.00111145
0.00110712
9.25235e-05
-0.000728739
0.000471191
-0.000643636
0.00055962
-0.000378574
-0.000181539
0.000161425
0.000111649
-3.7711e-05
0.000860223
-0.00102813
-0.000262985
0.000430895
-0.000227445
-0.000988635
0.0011902
2.58769e-05
-0.00106443
0.00109183
-0.000126316
-0.000497395
0.00044179
0.00036167
-0.000306064
-0.000285934
0.000294172
2.46204e-05
-3.28588e-05
-0.000130625
-3.93735e-05
2.46883e-05
-0.000611729
0.000727154
-0.000507557
0.000155898
-1.24913e-05
-2.70004e-05
1.37483e-05
1.54528e-05
-2.20072e-06
-0.000171163
0.000164565
-3.0423e-05
1.17818e-05
0.000107226
-0.000918722