/*--------------------------------*- C++ -*----------------------------------*\
| =========                 |                                                 |
| \\      /  F ield         | OpenFOAM: The Open Source CFD Toolbox           |
|  \\    /   O peration     | Version:  v1912                                 |
|   \\  /    A nd           | Website:  www.openfoam.com                      |
|    \\/     M anipulation  |                                                 |
\*---------------------------------------------------------------------------*/
FoamFile
{
    version     2.0;
    format      ascii;
    class       volScalarField;
    location    "0.22";
    object      k;
}
// * * * * * * * * * * * * * * * * * * * * * * * * * * * * * * * * * * * * * //

dimensions      [0 2 -2 0 0 0 0];


internalField   nonuniform List<scalar> 
1466
(
1.14957
1.10121
0.136646
2.23642
0.0529124
0.306404
1.38576
0.180206
0.282211
0.983717
1.58212
0.594539
0.2142
0.0777793
0.634156
1.89813
0.3923
0.450721
0.782904
1.30513
0.913173
1.9475
0.602636
1.5387
0.248303
0.185138
1.37303
0.760647
0.0643426
1.47544
1.54345
0.704883
0.157259
0.334889
1.97513
0.069814
0.195728
0.199874
1.48013
0.284051
0.506951
0.742373
0.918782
0.359076
0.161162
0.674582
1.94876
0.0555558
0.0882015
0.10769
0.187102
1.12491
0.225242
0.0437975
0.0963149
0.280247
0.929724
1.62079
0.487288
1.07783
0.299889
1.13516
0.569575
1.22043
1.43744
0.0846123
1.10266
0.846668
0.83058
0.110002
0.654472
0.445933
0.535924
0.265051
0.176526
1.40763
1.01406
0.413005
0.675125
1.68571
1.25371
1.76495
0.188913
0.681195
1.14296
0.883187
0.300361
1.61016
1.3505
0.557416
0.335705
0.930467
1.15939
1.29352
0.208047
0.103114
1.02752
1.75238
0.285263
0.0440843
0.252266
0.131731
0.0617836
0.0523744
1.06837
0.0887591
0.158218
0.0454233
1.45478
1.05846
0.306153
1.7472
1.22843
0.801255
0.760141
0.783869
0.792355
0.441248
1.22066
0.666787
1.89077
1.27913
0.353697
0.340149
0.133603
0.776605
1.07218
0.710952
1.28943
1.35422
1.22685
0.618162
0.561486
1.53413
0.633143
0.352472
0.231129
0.360973
0.627303
0.401202
0.130499
0.822344
0.93072
0.670904
2.17581
1.06607
0.754563
1.19592
1.71745
1.25922
0.477022
1.32212
0.960289
0.172638
1.53141
1.85299
0.851018
0.295202
0.923135
0.817937
0.747061
1.41241
0.437167
0.934325
0.967356
1.28249
1.06374
0.767792
1.05628
1.04616
1.0972
0.457868
0.104051
0.873039
0.555131
0.271284
1.34503
1.7074
0.314706
0.607517
0.278925
1.15047
1.37844
0.0947592
1.60222
1.01376
1.20182
0.528169
0.850761
0.746249
1.0968
0.274433
0.389087
1.33006
0.754011
0.537239
0.0413227
2.36935
0.839191
1.11997
0.533753
1.5707
1.25035
0.670306
0.702423
0.841375
1.03693
0.851342
0.860487
1.41036
0.709662
0.97848
1.20301
0.991541
0.959772
0.93723
1.14701
1.23084
0.638611
1.16983
0.720874
0.978338
0.929157
0.552178
0.975445
0.839836
0.127777
0.223546
0.347358
0.984703
0.402661
1.65489
1.34926
2.11382
0.333794
0.866712
0.977931
0.714934
1.03378
1.16071
0.610382
1.6349
1.18738
0.990719
0.84471
1.29368
0.554693
0.26225
1.75109
1.0809
1.12073
1.55656
0.790805
1.26996
0.519177
1.25668
0.89842
0.363
0.959452
0.617674
0.423352
0.536675
1.50838
1.09414
1.09345
0.0817821
0.732579
1.64743
0.85155
0.394136
0.47563
1.0274
0.288394
0.797241
0.504671
0.517918
0.556928
1.09152
1.1578
1.72052
1.37143
1.68793
1.31747
1.45112
1.65042
0.195225
1.83171
1.79341
0.562402
0.621088
0.635117
1.21586
0.247621
0.597589
0.903736
0.39247
1.24119
0.213076
1.77839
1.03491
0.140852
0.888672
0.0370224
0.275479
0.10899
1.07802
0.753377
0.474956
1.14284
1.6408
0.842981
1.06908
1.03602
1.45531
1.66923
1.4324
1.30366
1.13382
0.479166
0.832417
0.242082
1.11619
0.45678
0.917953
0.828348
0.536811
0.187774
1.16301
1.00682
0.956296
0.669644
0.575178
0.278987
0.816657
1.50656
0.361378
1.59423
1.03236
0.724698
0.617256
0.838624
0.908974
0.438389
1.93359
1.09193
0.0358469
1.3873
1.28289
0.909927
1.48406
0.624064
0.343205
1.29128
1.82715
0.869209
1.73087
0.0753193
0.298357
0.303358
1.23449
1.0257
1.57645
1.26783
0.597182
0.537334
1.16175
0.792947
0.752452
0.362104
0.883597
1.03932
1.75196
1.5315
0.837273
0.374343
1.08217
0.6241
1.54976
1.18967
1.02929
0.699956
0.841088
0.911816
1.11438
1.16607
1.03873
0.427411
0.437026
0.423891
0.351285
1.90312
1.0856
0.460237
1.16379
0.903621
0.764798
0.256863
1.5517
0.844034
0.375526
0.199398
0.167387
1.40385
0.0649214
1.18853
3.06083
1.55116
0.531576
2.59985
2.75636
0.774002
1.66464
1.85666
2.9783
1.46942
0.0606322
0.0619768
0.999924
0.981838
1.37214
2.68459
2.76074
1.27291
1.87227
1.55568
0.967547
2.39165
1.51088
1.48563
0.811517
1.2193
0.852231
0.417344
1.96039
1.57364
0.330917
0.388135
0.376818
0.203327
1.1137
0.308931
1.54
1.06483
0.606974
1.58278
1.68105
0.577079
1.56349
1.61456
1.00438
1.38395
1.42111
1.46349
0.314914
1.43524
1.53109
0.118812
0.569916
1.47383
1.48626
0.334072
2.01903
0.130957
0.0795384
0.497138
1.47574
1.14553
2.0057
1.51152
1.00931
1.95379
0.22142
0.246951
0.330823
1.47162
1.08217
1.46134
0.863399
1.34437
1.2487
0.88068
0.0815572
0.104665
1.25106
1.19521
0.747692
0.867367
1.47784
1.90373
1.36449
1.26538
0.764059
0.388991
1.19854
0.781103
1.10004
0.801784
1.23256
1.49018
0.53755
1.23145
1.32233
0.740079
0.191399
0.676199
0.865665
1.78276
1.35105
0.990881
0.904097
1.55419
1.09433
0.60017
1.72687
0.556336
0.557121
1.42802
0.297076
0.514657
0.376672
1.32005
1.04745
1.83579
0.919498
0.975484
1.04998
1.0601
0.899893
1.20065
1.16393
0.679429
1.88563
1.69137
1.18443
1.25494
1.25133
0.732578
1.96633
1.50053
0.0826549
0.697369
0.15354
0.715882
0.484975
1.25507
0.742141
1.22698
0.591797
1.9944
1.30069
2.07845
0.717
1.19741
1.27794
1.80532
0.542626
0.711681
0.449845
0.855003
0.522459
1.10174
1.0599
1.4209
1.24691
0.427155
0.591344
1.21006
1.82073
2.05233
1.29355
1.18681
1.82667
1.19275
1.65709
0.84741
1.67169
0.343801
1.34918
1.12537
1.53929
1.0936
1.00096
1.12421
0.781422
0.576763
0.9279
1.72253
0.310259
0.949241
0.579314
0.152077
0.689387
1.05081
1.32258
0.999908
0.912718
0.691512
1.26206
1.03247
1.44805
1.5079
0.439987
0.404882
0.825006
1.32861
0.725932
1.65838
0.192228
0.404416
1.22637
0.689297
1.50774
0.668732
0.729476
0.0768169
1.06912
1.61047
0.878905
0.681463
1.63894
0.834334
0.236113
1.58682
0.495545
0.845046
1.37885
0.200587
0.825805
0.926394
0.71759
1.38122
0.688785
0.708056
0.42549
1.48651
0.40365
1.64435
1.57655
1.7299
0.779742
2.06697
1.61029
1.26776
0.802378
1.44508
0.430618
1.15581
1.3582
1.28004
0.85776
1.4933
0.336787
1.42537
0.255926
1.31354
1.35729
0.804315
0.12666
1.1748
0.250843
1.91405
1.78077
0.439439
0.458681
1.28935
1.29049
1.60775
1.48944
0.451664
1.01889
0.483476
1.06881
1.63896
0.332554
0.0718155
0.107572
0.992184
0.0894903
1.01083
0.580715
0.279251
0.393837
0.225912
0.319414
0.406634
1.67333
0.476337
0.169902
1.22273
0.251249
1.35122
0.556067
0.510154
1.37056
0.428171
0.179276
1.23335
2.11374
0.48911
0.789373
1.59553
0.457475
0.188269
0.900419
1.05352
0.671323
1.26589
0.614501
0.198005
0.786273
0.588026
1.21568
1.32346
1.34054
2.08562
0.119803
0.794533
0.938027
1.21647
1.66639
1.22924
2.18561
0.68839
0.738764
0.117458
1.46681
0.490205
0.88362
0.713339
0.038157
2.01278
0.0765122
2.16729
0.0599557
0.303942
0.912598
0.579511
1.66248
0.0718599
1.91171
0.374764
1.2673
1.47974
0.0632959
0.752788
1.16405
0.537693
0.0747915
0.522283
1.18425
0.342598
1.5206
0.22829
0.190475
1.67678
0.423158
0.902997
1.29024
0.428096
0.931463
1.05968
0.536408
0.780384
1.62797
2.12452
1.2832
0.844022
2.06827
0.328789
1.26988
1.4591
0.579637
0.418649
1.48717
2.16733
1.33975
1.50234
0.374903
0.829289
1.82533
1.29792
0.956421
0.789968
0.890087
1.06064
0.0727469
1.07359
0.282572
0.88415
0.983496
0.685677
1.30562
1.23094
0.587819
1.46436
0.483662
1.92461
1.85273
0.228509
1.24415
0.706992
0.767115
0.910219
0.376675
0.690399
0.149557
0.0541588
0.406096
1.91865
1.90107
0.605333
1.31698
0.703432
1.21664
0.733858
0.277365
1.35694
0.860012
0.523301
1.75613
1.82648
1.06214
0.593345
1.73209
1.00557
1.91661
1.21103
0.401303
0.51559
0.682746
1.727
1.39898
0.559734
2.85174
0.892024
0.638826
0.396779
0.323566
0.631153
0.714036
0.572513
1.49231
1.11208
1.10981
2.56219
1.48338
0.552409
0.608953
1.277
0.497622
1.99447
1.33281
2.11366
0.83511
0.753954
1.34599
1.55019
0.714774
1.4051
1.61442
2.02623
0.658017
0.31161
0.682615
0.172249
0.815098
1.92615
0.375754
1.4569
0.773114
0.563198
0.132207
0.612616
0.925637
1.41962
0.81108
1.1999
0.580389
0.589384
0.56952
0.512875
0.556223
0.547051
0.491842
0.646256
0.478045
0.494734
0.639839
0.651422
0.6553
0.609333
0.460739
0.505936
0.504162
0.551396
0.500256
0.465679
0.344275
0.395513
0.657591
0.661496
0.662718
0.555319
1.76457
0.220025
0.0452062
1.59662
0.773392
0.265107
0.888534
0.0955288
0.5393
1.70539
0.659596
1.63
0.510516
0.521379
0.395948
0.803701
0.870416
0.74337
1.64194
1.83351
1.49034
1.23254
1.85474
2.34924
0.658449
0.869015
0.315953
0.294384
0.234691
0.2665
0.514333
1.2629
1.02516
0.788971
0.072386
0.898206
1.30088
0.272631
0.758772
0.536227
1.38307
1.29057
0.692988
1.40119
0.452418
0.927161
0.475383
0.826809
1.09429
1.71033
2.63092
0.107666
1.58324
0.129735
1.22852
2.01415
1.6334
1.92981
0.486424
0.638605
0.567226
0.852707
1.40571
0.143835
1.13068
0.710274
1.96563
0.0642118
1.24284
2.2254
1.21112
1.13214
0.969645
1.00096
0.308924
0.117029
0.575953
1.31062
0.919877
1.39004
1.50378
0.508268
0.650444
1.48618
1.16605
1.12231
0.791228
0.287325
0.175988
0.588219
1.56982
1.19266
1.2692
1.65558
0.828005
0.0494655
0.295379
0.5893
1.40021
1.24786
0.395983
0.222209
1.54031
0.859631
0.141555
0.17583
0.256418
0.780861
0.200576
0.583334
0.0424058
1.72728
0.213821
2.45114
1.55986
1.3279
1.85348
0.451393
0.419454
2.81055
1.75967
1.63879
0.456076
0.468601
0.652304
1.49762
0.602556
1.66408
1.00037
1.06258
0.487872
0.962307
1.60018
1.45036
0.1882
1.67499
0.256623
0.902744
0.626566
0.437868
0.257423
0.583678
0.320606
0.170997
0.12112
0.146184
1.95783
0.999465
0.605762
0.405458
0.104429
0.657399
1.39569
1.40174
0.961619
1.19042
0.636935
0.720068
0.283031
0.506082
0.603903
0.109482
1.90566
0.19958
1.61278
0.66471
0.0193326
1.39881
0.638109
0.111704
0.62451
0.203894
0.989924
0.273882
0.184464
0.226906
0.703195
1.62051
0.260528
0.625179
0.137347
0.16146
0.142507
0.141347
0.692533
0.73031
0.26332
0.269333
0.268732
0.252362
0.833907
1.23164
0.684873
1.33783
1.57508
1.43486
1.70749
1.36715
0.460094
0.535306
0.614814
1.67451
0.860557
0.0996943
1.02781
1.52675
2.11508
0.485764
0.216897
1.20399
1.29663
1.58746
0.106882
1.96839
1.68928
0.997746
0.537526
0.810729
0.471691
1.77817
0.518496
0.433446
0.258107
0.344582
1.08677
1.51605
1.13396
1.35042
1.5903
1.07926
1.31657
0.915639
0.849494
1.4744
1.69928
0.555871
2.57327
1.60194
0.27721
0.120827
0.279078
0.698014
1.18434
0.60209
1.66967
0.742349
1.23081
1.57433
0.766206
0.832681
1.05488
0.483201
0.0922562
0.639597
1.38924
1.47069
1.75587
0.527012
0.502371
0.43717
0.546511
1.25392
1.42424
0.993735
2.63125
1.68817
0.826816
1.75784
0.860761
0.9773
0.449909
1.18356
2.61513
1.51583
1.53644
2.13548
2.84631
1.45087
0.787597
0.795594
0.946802
1.55274
0.802157
1.66934
0.629183
1.42824
1.33106
1.59977
0.318732
2.90277
0.898434
1.80462
1.17722
1.17012
0.519077
0.857915
0.216798
1.4851
0.552242
0.504261
1.06128
1.01961
1.67542
0.84863
0.270066
0.745213
1.04979
1.82464
0.129603
1.5388
0.917401
0.351283
0.25459
0.779892
0.824475
0.151157
1.19641
1.25378
0.129549
1.39668
0.256753
1.47197
1.14295
0.271386
0.935726
0.911372
2.61659
1.5558
1.71872
0.620405
0.996774
0.429255
1.43819
2.10767
0.239516
0.143456
0.790049
0.214183
2.94562
0.663115
1.66872
0.578244
0.882476
0.0665201
0.0952798
1.59788
0.885256
0.259122
0.168803
0.489696
0.614939
1.00389
0.895924
2.79446
0.727628
0.618507
0.581093
1.17957
1.08602
1.27058
0.828913
2.97752
2.02876
1.21762
0.149605
1.83532
0.610156
0.248345
1.20521
1.18658
0.251608
1.56257
1.54853
1.57678
1.32224
1.06928
1.16681
0.99448
0.256603
0.586317
1.42706
0.0825403
0.817871
0.107119
1.16546
0.961857
0.475745
1.50448
0.799703
1.53771
1.5499
0.468328
0.461496
0.868674
0.405438
0.852367
0.654755
0.910214
1.01761
1.16523
0.799593
2.25894
0.258413
0.927406
1.15097
1.37324
0.368895
0.616287
1.33773
0.903403
0.309832
1.34277
1.55703
0.982355
0.307779
0.0652189
1.29081
1.08094
1.61376
1.42381
1.99301
0.0411351
1.76231
0.0963601
0.26013
0.0571108
0.129124
0.12428
0.596457
0.0639121
1.17996
1.04641
0.936832
0.106296
0.0707321
1.78312
0.19126
0.481318
0.757086
0.63855
1.99882
1.27129
2.03962
1.50468
1.31085
0.912939
1.0493
0.508146
1.21346
1.18916
1.96947
0.0691512
1.5155
1.54308
0.661236
1.52985
1.42385
1.65113
0.847023
1.20318
0.120024
1.30771
1.84129
1.12976
0.0796401
0.0375237
0.133621
0.622418
1.20161
1.58753
0.792873
1.24502
0.341835
0.905923
2.67073
0.810754
1.73624
1.73916
0.918949
1.77589
3.04433
0.183561
0.49972
0.822808
0.363436
0.91025
0.208529
1.15366
0.864493
1.19425
0.871137
0.837307
1.78687
0.860595
1.57253
0.50595
0.325482
0.104545
0.446923
0.660863
1.54935
1.41127
0.577579
1.41018
0.932984
1.01983
0.990263
0.33426
1.7605
3.04393
1.49409
0.0859565
1.14448
1.11274
0.954279
0.824132
1.57302
1.32386
2.47955
1.49946
0.808091
0.328932
0.297692
1.63287
0.659302
1.27334
0.604901
1.94833
1.35414
0.83743
0.877119
0.282841
0.370931
1.23827
1.23616
1.13481
1.45948
0.0595988
0.373862
0.858854
0.125795
0.384538
0.193175
0.355793
1.95279
1.17871
0.0948375
0.480026
1.4262
0.297521
0.272786
0.277623
0.419872
0.765424
0.20922
0.0651075
0.0478228
0.0536929
1.66696
0.0410266
1.19696
0.662845
0.867599
)
;

boundaryField
{
    frontAndBack
    {
        type            empty;
    }
    wallOuter
    {
        type            kqRWallFunction;
        value           nonuniform List<scalar> 
108
(
0.450721
0.445933
0.535924
0.0370224
0.0358469
0.406634
0.476337
0.169902
0.251249
0.428171
0.179276
0.48911
0.457475
0.188269
0.198005
0.038157
0.579511
0.537693
0.0747915
0.374903
0.0541588
0.605333
0.323566
0.552409
0.580389
0.589384
0.56952
0.512875
0.556223
0.547051
0.491842
0.646256
0.478045
0.494734
0.639839
0.651422
0.6553
0.609333
0.460739
0.505936
0.504162
0.551396
0.500256
0.465679
0.344275
0.395513
0.657591
0.661496
0.662718
0.555319
0.0452062
0.521379
0.658449
0.234691
0.452418
0.638605
0.567226
0.650444
0.222209
0.0424058
0.451393
0.456076
0.468601
0.626566
0.583678
0.12112
0.657399
0.506082
0.603903
0.19958
0.0193326
0.0193326
0.111704
0.203894
0.184464
0.226906
0.625179
0.137347
0.16146
0.142507
0.141347
0.692533
0.73031
0.26332
0.269333
0.268732
0.252362
0.833907
0.460094
0.535306
0.216897
0.106882
0.518496
0.433446
0.766206
0.832681
0.43717
0.546511
0.824475
0.251608
0.461496
0.852367
0.0652189
0.0963601
0.0639121
0.0375237
0.133621
0.341835
)
;
    }
    inlet
    {
        type            fixedValue;
        value           nonuniform 0();
    }
    outlet
    {
        type            zeroGradient;
    }
    wallInner
    {
        type            kqRWallFunction;
        value           nonuniform List<scalar> 
126
(
0.199874
1.48013
0.284051
0.506951
0.742373
0.918782
0.359076
0.161162
0.674582
1.94876
0.0555558
0.0882015
0.10769
0.187102
1.12491
0.225242
0.0437975
0.0963149
0.280247
0.929724
1.62079
0.487288
1.07783
0.675125
0.103114
1.02752
1.75238
0.285263
0.0440843
0.252266
0.131731
0.0617836
0.0523744
1.06837
0.0887591
0.158218
0.0454233
1.45478
1.05846
0.801255
0.760141
0.340149
0.133603
1.22685
0.618162
0.352472
0.231129
0.360973
0.130499
0.437167
0.555131
0.0413227
0.959452
0.617674
0.423352
0.0817821
0.732579
0.47563
1.0274
0.288394
1.21586
0.597589
0.39247
1.24119
0.242082
1.11619
0.45678
0.298357
0.362104
1.5315
1.54976
1.5517
0.375526
1.51088
0.417344
1.96039
0.330917
0.376818
1.54
1.46349
1.53109
1.47383
1.72687
1.88563
1.80532
0.200587
0.12666
0.117458
0.815098
0.375754
0.419454
1.27129
0.508146
1.94833
0.83743
0.877119
0.282841
0.370931
1.23827
1.13481
1.45948
0.0595988
0.373862
0.858854
0.125795
0.384538
0.193175
0.355793
1.95279
1.17871
0.0948375
0.480026
1.4262
0.297521
0.272786
0.277623
0.419872
0.765424
0.20922
0.0651075
0.0478228
0.0536929
1.66696
0.0410266
1.19696
0.662845
)
;
    }
    procBoundary1to0
    {
        type            processor;
        value           nonuniform List<scalar> 
29
(
0.594659
0.594659
0.424364
1.1854
2.29402
0.615358
1.94635
0.461059
2.20083
0.813484
0.798524
0.615358
0.424364
0.355627
1.14033
0.481139
2.29402
1.78699
1.1854
0.557864
0.298224
0.216958
1.99387
0.298016
0.298016
1.99387
0.243924
0.906154
0.243924
)
;
    }
    procBoundary1to2
    {
        type            processor;
        value           uniform 0.800558;
    }
    procBoundary1to3
    {
        type            processor;
        value           nonuniform List<scalar> 
48
(
0.189201
0.137349
0.132955
0.132955
0.818314
0.111565
0.111565
1.09353
0.343199
0.0589038
0.0672136
0.0589038
0.0693905
0.929064
0.986682
0.0693905
0.146618
0.146618
0.254537
0.254537
0.768623
0.873068
0.370452
0.0772677
0.0772677
0.441891
1.3436
1.3436
1.28534
0.709573
0.646475
1.28534
1.09353
0.592057
0.322107
0.709573
0.766787
0.0672136
0.237943
1.09863
0.957862
0.66481
0.592057
0.322107
0.947149
0.407464
0.964229
0.957862
)
;
    }
}


// ************************************************************************* //
