/*--------------------------------*- C++ -*----------------------------------*\
| =========                 |                                                 |
| \\      /  F ield         | OpenFOAM: The Open Source CFD Toolbox           |
|  \\    /   O peration     | Version:  v1912                                 |
|   \\  /    A nd           | Website:  www.openfoam.com                      |
|    \\/     M anipulation  |                                                 |
\*---------------------------------------------------------------------------*/
FoamFile
{
    version     2.0;
    format      ascii;
    class       volVectorField;
    location    "0.22";
    object      U;
}
// * * * * * * * * * * * * * * * * * * * * * * * * * * * * * * * * * * * * * //

dimensions      [0 1 -1 0 0 0 0];


internalField   nonuniform List<vector> 
1466
(
(-4.89297 -0.305211 -1.10601e-16)
(5.1719 -0.0799207 2.36832e-19)
(0.574411 -0.562652 6.37848e-16)
(-1.05917 5.81111 -4.99852e-17)
(-0.567167 -0.31884 -6.53127e-16)
(-2.88937 0.12548 -8.00582e-16)
(0.48932 -1.10421 1.89712e-16)
(0.210092 0.0787264 1.94646e-16)
(7.56607 0.115464 -9.08248e-19)
(4.02969 -0.91021 1.48864e-16)
(8.23115 -0.141277 -1.32273e-16)
(3.43776 -0.288735 0)
(8.54241 0.0628053 0)
(-0.572658 -0.698213 -1.70033e-16)
(-1.98964 -0.720659 0)
(7.97961 -0.250253 9.313e-17)
(-1.48981 -1.2589 -9.46641e-17)
(0.0929205 6.09123 -2.30915e-17)
(0.643117 5.37031 -9.01838e-17)
(-0.378633 6.7243 1.478e-16)
(0.0811676 8.66973 5.62538e-17)
(-2.24368 0.276837 4.69971e-18)
(0.0951297 5.95321 -6.21412e-17)
(-0.15714 5.87663 -1.61582e-17)
(8.45696 0.143732 7.004e-17)
(-0.389025 -0.181044 -3.26983e-16)
(-0.637553 0.895709 -1.17712e-16)
(-0.392257 9.13407 0)
(-1.31812 0.0865594 0)
(4.78488 2.39143 4.93645e-17)
(8.83436 -0.720032 8.43294e-17)
(-1.32291 -0.0619507 1.47784e-16)
(2.54287 -0.191802 1.66492e-16)
(-2.02894 2.21134 2.37422e-16)
(4.67746 -0.184452 8.73943e-17)
(-1.61532 0.289355 2.36509e-16)
(-2.57439 2.26143 0)
(0.147259 0.0541774 -3.14921e-16)
(6.44868 0.217792 -2.24862e-16)
(2.3816 -0.450491 -3.26055e-16)
(3.57257 -0.246507 -1.06805e-16)
(-3.56694 -0.0338557 -2.47472e-16)
(-3.93491 -0.22574 1.31617e-16)
(3.71996 -0.0341848 8.87175e-19)
(2.04736 0.34366 -3.34522e-18)
(-1.11275 -0.347306 0)
(6.78362 0.311514 5.90831e-18)
(0.986911 -0.206316 0)
(-0.941416 -0.318643 1.39034e-16)
(2.27779 0.137107 0)
(-1.85318 0.366265 -8.90078e-17)
(4.90106 -0.0368044 -3.21818e-16)
(-2.33645 0.00278404 5.60261e-16)
(-0.187157 -0.201725 6.45994e-16)
(1.9138 -0.0574627 -8.81353e-17)
(6.57062 -0.0470475 1.1666e-16)
(-3.46061 -0.776288 -1.51264e-17)
(7.35826 0.145859 0)
(-2.13186 -0.760534 8.89585e-18)
(4.3931 -0.617071 0)
(0.645362 0.0221437 1.64369e-19)
(2.48686 -0.423409 -8.22657e-17)
(1.55262 -0.542038 1.48859e-16)
(4.73955 -0.300446 1.21522e-16)
(1.80027 5.77491 -1.75206e-16)
(0.159091 -0.0627676 3.25672e-16)
(0.318469 2.42126 0)
(-1.27085 6.95498 2.53024e-17)
(7.56704 0.535928 2.73532e-17)
(-1.04946 -0.938057 -1.78827e-16)
(1.32869 1.17593 1.3725e-15)
(-0.0837384 5.75559 0)
(0.0475019 2.88143 0)
(8.36988 0.2168 -1.43567e-16)
(0.370392 -0.134938 3.53307e-16)
(6.35111 -0.0332721 -1.05951e-16)
(2.68288 -0.0506988 7.1568e-17)
(1.9239 0.313933 -8.39015e-17)
(-3.72239 0.158734 0)
(4.03098 0.795827 0)
(5.92433 -0.658954 -1.02933e-16)
(7.9243 -0.339612 -1.10876e-16)
(-0.029431 -1.01004 -2.99059e-16)
(0.88406 3.5087 2.77231e-16)
(-0.5316 7.55267 9.87438e-17)
(0.734253 6.47862 4.15831e-17)
(-1.6205 1.93842 0)
(3.83931 0.276031 1.55704e-18)
(6.35426 -0.0695571 2.04155e-16)
(-0.11739 1.02375 -2.87326e-16)
(-0.296757 -0.300139 -1.2195e-16)
(-1.80439 0.578128 -2.07925e-16)
(0.0787882 2.60528 -6.85578e-17)
(-3.59158 0.8774 -1.24656e-16)
(-0.312293 -0.23297 0)
(1.2847 -0.424089 -3.65841e-16)
(4.83519 -0.152939 2.80964e-16)
(7.50772 0.0905913 -5.86636e-18)
(6.74202 -0.124867 2.92385e-16)
(-0.656212 -0.101015 9.47664e-17)
(-2.61493 0.32841 4.36364e-16)
(-1.13518 0.0119592 0)
(1.3016 0.167746 3.46284e-16)
(-0.133115 -0.316847 3.94932e-16)
(-3.75877 -0.339112 -1.0021e-16)
(0.43578 -0.0584638 8.96175e-17)
(-1.77125 -0.213007 -2.34872e-17)
(0.326236 -0.242844 0)
(6.8419 -0.473276 1.32188e-16)
(-4.41966 -0.66877 4.8024e-17)
(0.484803 -0.129268 -3.37863e-16)
(5.07631 -0.0705115 3.45945e-17)
(-4.33748 -0.0322442 -1.99791e-17)
(-3.9895 -0.08227 -3.00947e-17)
(2.7705 -0.511405 0)
(0.522187 -0.400376 1.0265e-16)
(-3.01548 0.207246 1.19013e-16)
(2.53508 0.39711 0)
(1.79092 -0.921586 1.2574e-16)
(0.276166 -1.62112 -5.73745e-16)
(-2.18948 7.93692 -3.07482e-17)
(1.06601 0.496878 2.11002e-16)
(-0.0713487 1.84629 -9.06992e-16)
(3.41911 0.0112538 0)
(1.24579 0.152077 -7.03535e-16)
(-0.382709 -0.338906 2.00785e-18)
(6.70133 0.989296 4.41517e-17)
(0.10448 6.06708 -6.1678e-17)
(-0.406159 5.206 2.83111e-17)
(0.989334 0.693007 1.63723e-16)
(5.53667 -0.496836 1.85223e-17)
(-2.56178 0.247935 0)
(0.00689533 6.13879 4.23309e-17)
(-0.127888 5.5011 3.50191e-17)
(-0.563332 -0.179178 -1.60327e-17)
(2.93727 0.0891531 0)
(1.16534 -0.196793 0)
(-0.709054 -0.632553 -9.51914e-18)
(3.06034 -0.296543 -7.1866e-17)
(1.87001 -0.756318 1.86231e-16)
(2.68639 0.097547 0)
(-0.133528 9.00878 -5.38831e-17)
(-0.492592 8.01 -2.49567e-17)
(0.36523 5.24087 -2.46026e-18)
(-1.27765 -0.706657 -2.21371e-16)
(0.984218 7.11253 9.28656e-17)
(-1.30131 -0.0190509 -2.52514e-16)
(0.680087 0.422304 -4.29667e-16)
(1.69794 0.743567 -6.54973e-17)
(-1.12184 -1.20245 1.1043e-15)
(-0.290222 -0.271699 2.12962e-16)
(3.95876 -0.0738007 1.39792e-19)
(7.15012 0.852249 -1.56615e-19)
(-0.312729 -0.43195 0)
(1.71743 0.99501 0)
(-1.98774 0.461234 1.93286e-16)
(-0.902017 8.55078 -1.2973e-17)
(-1.01928 1.62364 -2.87314e-16)
(-0.744782 0.212887 9.85973e-16)
(5.58093 3.9668 6.38632e-17)
(-1.21627 0.0882552 1.10648e-16)
(5.58733 1.31969 0)
(0.66917 3.30102 7.00044e-17)
(-1.08095 8.42044 7.52663e-19)
(2.22444 2.85454 0)
(-3.08979 -0.390149 1.17016e-16)
(-0.539823 7.41258 0)
(0.036736 5.06561 2.05252e-16)
(-0.759023 8.1635 -2.53198e-17)
(2.466 9.09899 5.36829e-17)
(-0.269959 7.99288 1.74807e-16)
(-0.57385 0.338387 -1.14606e-16)
(2.22229 0.340701 3.56621e-17)
(7.46874 0.693882 -1.43019e-17)
(3.10041 -0.0671049 -2.43749e-16)
(7.8711 0.142715 -2.76347e-16)
(5.05582 2.99462 1.57364e-16)
(3.71291 1.66531 -7.15356e-17)
(0.274606 -0.214093 -4.93014e-16)
(0.887463 1.79421 -2.72589e-16)
(8.79645 0.172765 3.42088e-16)
(4.61279 -0.365589 -2.2465e-17)
(-0.0558638 5.37941 -1.71921e-16)
(1.30141 0.564654 2.51277e-16)
(4.12034 0.196345 -3.93176e-17)
(0.307676 6.24343 -2.74239e-18)
(-0.675372 7.2459 -9.73395e-17)
(1.64363 4.38475 -1.57838e-16)
(7.42538 0.363788 6.74483e-17)
(-2.89134 0.613214 2.91697e-16)
(-0.0420028 7.90534 -1.23642e-16)
(0.644885 0.24973 4.2005e-19)
(0.326065 0.92407 1.04477e-17)
(0.662722 6.93209 2.38842e-16)
(5.96334 3.515 -3.67575e-17)
(0.516714 -0.264736 0)
(-0.440593 0.0262575 4.05793e-18)
(4.05909 1.601 -3.19772e-16)
(1.13241 2.86889 -3.04581e-16)
(1.65728 6.37325 -4.77703e-16)
(0.724287 0.526205 0)
(1.3191 0.659994 0)
(5.47562 2.18381 -8.13053e-20)
(0.256966 4.71455 0)
(1.70577 0.691287 2.45828e-16)
(1.54355 2.30963 -2.09525e-16)
(0.544875 7.90955 -1.00511e-16)
(6.73407 3.67416 0)
(-0.280327 0.453284 1.25283e-16)
(-0.252823 6.48905 2.52746e-19)
(0.406712 5.69874 8.42958e-17)
(-0.480779 7.91625 -8.81158e-17)
(0.0352884 2.66376 0)
(-0.578422 8.74046 1.27629e-16)
(0.230373 8.38062 -3.5302e-17)
(-0.990604 8.3484 -7.28624e-20)
(0.1041 6.217 2.88648e-18)
(-0.84257 6.93443 -8.46758e-17)
(2.71623 3.94232 1.61348e-16)
(-0.438362 6.56242 2.17939e-16)
(0.0265597 5.58776 -1.53082e-16)
(0.592461 -0.316155 -1.30522e-16)
(-1.10848 8.43646 -1.88402e-16)
(0.909312 -0.137074 2.98782e-16)
(-1.00158 8.35388 8.10409e-17)
(2.77853 3.56572 -1.74136e-16)
(0.462317 -0.445376 6.78783e-16)
(0.241911 0.481894 -2.5617e-16)
(0.0122597 -0.294409 -3.72457e-16)
(0.355235 -0.368097 -1.54893e-19)
(0.767705 0.803265 -7.36816e-16)
(4.42357 0.102045 2.10535e-16)
(0.967953 5.68687 1.19715e-16)
(0.814379 3.06737 2.3247e-16)
(-1.05818 1.42455 4.94881e-17)
(2.15305 1.60249 -8.80721e-16)
(-0.47629 7.7457 3.71642e-17)
(0.140421 5.16536 1.97449e-17)
(0.766245 0.73952 2.27208e-16)
(-0.0673841 7.55679 2.30934e-17)
(0.402593 1.93063 0)
(4.43587 0.742898 4.49134e-17)
(5.67127 3.14914 8.39784e-17)
(2.22866 4.85805 2.24562e-16)
(0.169137 0.49554 0)
(6.01968 1.21832 0)
(-1.2958 -0.0995739 0)
(8.76809 0.339464 0)
(3.13986 0.797883 -1.18959e-16)
(5.89798 3.63708 -7.64624e-17)
(0.032393 6.96823 -5.22414e-17)
(1.62042 6.23813 -2.48953e-16)
(6.89138 4.29443 3.49401e-18)
(6.33541 0.013362 -7.00366e-17)
(-1.00251 0.317763 2.75998e-16)
(0.37951 0.295697 -2.63483e-16)
(-0.909867 7.99261 0)
(8.99603 4.12703 -1.76208e-16)
(-0.478936 6.3961 -5.51132e-17)
(-0.037685 2.58052 1.10049e-16)
(-0.170445 -0.441763 0)
(-0.00774662 6.29235 -2.70219e-17)
(-0.101607 4.90782 -4.6859e-17)
(0.44917 -0.24563 -1.26141e-20)
(4.36578 3.99609 1.03313e-17)
(1.48574 0.331199 -2.7314e-16)
(4.01203 -0.204529 2.35408e-16)
(1.68404 0.942382 -1.15503e-16)
(0.498844 7.88008 -1.82602e-17)
(9.35396 3.72401 -8.49222e-17)
(1.81833 4.37921 -1.18014e-16)
(-0.449374 6.00446 0)
(-0.385394 -0.502317 7.84833e-18)
(-0.132124 0.51738 -1.6225e-16)
(-0.544247 -0.220039 -4.1916e-16)
(1.09601 0.109555 5.81165e-16)
(0.217794 -0.377961 -3.08532e-16)
(2.97709 5.40637 -1.24132e-16)
(-0.497 7.58315 -1.13294e-16)
(2.16876 0.83941 1.78916e-16)
(0.196823 -0.0705639 2.27873e-16)
(3.87946 -0.23871 2.16314e-17)
(2.58547 3.73123 0)
(5.52147 0.535724 -4.00619e-17)
(1.11419 -1.2382 5.08635e-16)
(1.93307 1.06738 -1.32918e-16)
(2.69233 1.33739 0)
(2.74257 1.39228 -3.29827e-16)
(-3.24394 -0.39694 0)
(7.84859 4.1581 -2.84682e-16)
(7.86141 1.20752 1.42645e-16)
(-4.38785 -0.390543 1.40046e-18)
(8.71617 0.129949 -3.58769e-16)
(-3.21681 0.0369428 0)
(4.0996 5.98364 1.06486e-16)
(1.06905 2.39266 -4.0439e-16)
(-0.464141 4.73015 1.17335e-16)
(2.68757 0.253293 3.44742e-17)
(2.64658 1.24327 8.04559e-17)
(0.105014 -0.196084 -3.03319e-16)
(-0.286765 -1.05885 0)
(-0.889975 -1.50975 1.98144e-16)
(-0.444431 -0.222033 0)
(8.93312 0.40192 -2.15492e-16)
(-2.21446 1.53897 0)
(-3.71016 6.48104 5.47192e-17)
(-0.00902165 2.08706 1.15938e-16)
(-1.59769 -1.45916 -2.00599e-17)
(3.41659 8.60513 -2.65643e-17)
(-1.93435 8.33614 6.29534e-17)
(7.20329 1.92388 1.56762e-16)
(0.0219957 4.64696 0)
(-0.685945 7.05149 -1.8322e-18)
(3.22832 0.639317 -1.38826e-16)
(3.77827 1.97056 -1.9228e-16)
(4.76399 2.93786 -2.9045e-16)
(-0.529035 -0.383683 0)
(5.20175 3.63085 2.17943e-16)
(-0.993473 -0.201523 0)
(-0.943175 -0.146501 3.08935e-16)
(0.0843485 -0.669836 0)
(-0.438269 5.37435 -1.18461e-16)
(0.132395 2.06241 -6.8013e-17)
(-0.122342 -0.0440131 3.65757e-16)
(-0.940954 3.17342 -3.55625e-17)
(7.80612 5.37573 -8.90918e-17)
(2.35 0.774374 -6.80787e-17)
(4.75556 3.82687 -2.20403e-16)
(-0.566137 -0.0899324 -2.75684e-16)
(3.83094 -0.360958 1.69435e-16)
(0.26018 6.60853 9.82807e-17)
(7.87208 4.76534 5.40175e-16)
(0.278326 -1.30616 -4.15136e-16)
(3.84924 7.41883 2.27083e-17)
(2.31764 2.71987 -1.7206e-16)
(7.39704 1.83611 6.27687e-17)
(2.20901 1.56158 -4.60553e-16)
(0.852428 0.599352 4.11383e-16)
(-1.37495 2.0995 -1.7122e-16)
(2.06421 0.832773 -1.36373e-16)
(-0.382539 0.978201 6.76905e-18)
(6.53303 3.20965 7.09638e-17)
(-2.32497 -1.62511 3.60281e-17)
(3.15779 3.3749 -3.42661e-17)
(2.0637 9.00353 -5.65389e-17)
(-0.60586 -0.14611 -1.01744e-16)
(5.78423 0.436203 -1.88019e-17)
(3.90752 6.20765 -8.00643e-17)
(7.13827 0.240707 2.51176e-17)
(2.6827 2.38528 1.84591e-16)
(6.40402 4.76983 -2.1772e-18)
(8.79961 2.88582 -4.78342e-17)
(-0.467316 10.7512 -6.10376e-17)
(0.491029 0.783781 1.49947e-17)
(-0.987757 -1.10548 0)
(0.793623 1.35879 2.65814e-16)
(-1.67626 0.528788 -3.37286e-16)
(3.58082 0.454611 6.99202e-18)
(9.70337 2.62792 0)
(3.62252 7.54417 2.38891e-17)
(-0.873255 -0.560073 0)
(1.44373 2.73736 1.16454e-16)
(2.24647 4.99727 1.1135e-16)
(-0.356287 4.71941 0)
(-3.36153 -0.687446 -2.10221e-16)
(0.519639 2.64386 1.27605e-18)
(7.15702 3.00149 5.63571e-17)
(7.39749 2.5588 4.87446e-17)
(-1.52326 -1.932 1.65328e-16)
(3.15207 7.10878 3.88145e-18)
(3.34199 9.16788 0)
(0.870801 2.10993 1.27381e-16)
(1.39664 3.06046 -3.32734e-17)
(3.35659 8.67734 -3.12345e-18)
(-0.586911 -1.81897 5.85819e-16)
(-2.58141 3.96781 5.13104e-17)
(2.6886 -0.448538 -3.03593e-17)
(1.26613 5.4899 7.35958e-17)
(-2.28772 0.987949 4.04049e-16)
(4.1948 4.77594 -8.77623e-17)
(-1.56727 4.36781 8.50898e-17)
(-2.16499 4.22617 -2.71111e-16)
(-2.07069 4.71 -1.67976e-16)
(-3.04411 5.52615 2.23456e-16)
(-4.08302 5.73524 0)
(-3.01318 4.89145 1.23004e-16)
(-1.57021 -2.06523 -1.93227e-17)
(-0.226554 -1.72677 -2.14964e-16)
(0.664892 -0.959585 1.63029e-16)
(0.777341 0.000387099 -4.25434e-17)
(-2.95641 4.68642 1.20535e-17)
(-4.29274 6.06864 3.47947e-17)
(-0.553522 4.49896 -5.35455e-17)
(-4.59373 6.13616 -3.95476e-17)
(-0.442501 1.74432 5.57617e-19)
(-0.638911 -0.777939 1.29378e-16)
(0.769152 1.00048 -4.83844e-17)
(1.29077 7.27369 -2.94635e-17)
(-0.602344 1.59528 6.90601e-17)
(0.00205556 -0.852517 0)
(0.637318 1.62596 -1.58907e-16)
(1.42124 1.54395 1.80575e-16)
(2.14793 9.39337 0)
(-1.14493 -0.414641 2.77378e-16)
(1.64713 9.93896 -1.92313e-17)
(1.77533 0.0316886 -1.09982e-19)
(2.09505 8.27012 -2.96056e-16)
(0.0819968 1.06062 -1.14255e-16)
(5.556 -0.431353 0)
(4.68437 0.151036 7.45354e-17)
(0.237234 0.651587 -1.38918e-16)
(1.92343 7.49708 -1.31301e-16)
(1.55538 4.31486 2.36833e-16)
(3.25436 0.0961752 4.24255e-16)
(3.82021 2.08575 -9.77514e-17)
(-1.0235 -0.495393 0)
(-1.0728 -0.375622 0)
(1.66363 1.55164 1.16371e-16)
(0.547953 0.0598058 0)
(-3.0839 -1.13608 0)
(2.50222 0.435718 -1.27473e-16)
(0.94469 0.398217 3.5127e-16)
(-3.23247 -1.3919 0)
(1.34532 5.17159 9.68675e-17)
(-1.35815 -1.37428 1.0662e-16)
(-2.79019 -2.43393 1.28828e-18)
(1.39105 0.675166 3.45793e-16)
(2.09519 0.612757 2.65215e-17)
(-0.79345 -1.35967 -6.38144e-16)
(-2.34386 -2.58161 2.93751e-16)
(1.67107 -1.7195 0)
(-0.55074 0.323938 -1.42517e-18)
(-0.55077 -0.373467 5.9587e-16)
(-1.64457 10.6617 1.7846e-17)
(2.65841 -0.0214125 -4.62605e-16)
(-0.0289264 -1.16184 -3.41077e-16)
(-0.988473 0.917919 6.58975e-17)
(-0.539896 -1.43708 -5.96458e-17)
(-0.765611 -1.38765 3.27908e-16)
(0.76778 -1.83585 -3.26291e-16)
(-0.40476 1.52443 3.67898e-17)
(-1.66488 3.59738 -6.08444e-17)
(1.59443 -2.01144 2.62146e-16)
(-2.84631 0.391078 0)
(1.62584 -0.0391639 -2.88501e-16)
(-1.97504 -0.00629827 1.20267e-16)
(8.81845 0.120073 7.61018e-17)
(2.75884 -0.168524 0)
(-2.15157 0.34939 -6.96109e-17)
(2.68361 -1.46429 1.61678e-16)
(3.29621 -0.366026 3.97562e-19)
(-2.67598 0.668836 -8.44452e-17)
(-0.31012 -2.05629 -4.12251e-17)
(8.88014 0.150973 3.49211e-17)
(-4.01537 5.37969 -1.32636e-18)
(-1.32083 1.60301 4.83579e-18)
(0.163702 -0.289786 0)
(0.281943 -0.369323 0)
(-1.00986 -0.0948658 0)
(1.84497 -0.173762 2.57447e-16)
(1.92738 -0.659708 -4.04818e-16)
(-2.47623 3.24085 -1.67983e-17)
(0.242309 -0.672884 -2.74e-16)
(-1.47 0.0569498 6.41193e-16)
(1.67466 -0.689971 2.39359e-16)
(-0.976617 0.845697 -1.15391e-16)
(-3.88558 5.04143 -8.62656e-17)
(-2.10293 1.93327 -2.72701e-17)
(-2.10923 0.918789 -4.99394e-17)
(-2.93422 4.23817 4.66925e-17)
(-1.92568 1.0197 1.17884e-16)
(0.495387 -0.39365 -8.99348e-19)
(0.796863 -0.613015 -7.4829e-16)
(-0.371827 0.180738 1.17639e-19)
(1.34677 -0.273998 1.55825e-16)
(0.335925 1.06396 1.10268e-18)
(-2.46443 4.01899 -1.4274e-16)
(0.605062 4.15179 0)
(0.897627 2.29231 0)
(2.30862 2.58577 -8.24299e-18)
(2.89233 7.7749 -8.67134e-17)
(-1.69567 0.481407 2.93875e-16)
(-1.90264 1.08449 -2.58788e-16)
(0.801511 2.8568 9.14377e-17)
(1.55409 2.29228 -3.32684e-17)
(6.78644 4.85835 -1.76579e-16)
(0.197453 1.26733 -1.33603e-16)
(-3.44915 5.75 1.16773e-16)
(0.736392 2.1315 -1.26262e-16)
(1.92204 5.23812 1.06706e-16)
(1.54866 1.56394 1.51591e-16)
(-0.46928 9.10383 3.26769e-17)
(-1.25641 -1.817 -1.84639e-16)
(-4.64085 5.73004 8.00116e-17)
(0.8104 4.51101 0)
(-4.076 5.53544 2.13553e-17)
(-2.67873 3.5743 0)
(-4.79358 6.19851 4.66786e-18)
(4.45044 2.83147 0)
(-0.760255 4.73233 6.141e-17)
(-4.16122 6.42978 0)
(-4.07209 7.01114 0)
(0.562276 0.467069 3.22282e-19)
(1.01783 -0.0320168 3.407e-16)
(-1.5266 3.00669 -1.94922e-16)
(-0.338059 4.57505 0)
(2.42764 8.22478 0)
(2.7197 -0.371335 2.16824e-16)
(-0.835032 1.34848 8.97395e-17)
(-3.18518 4.29622 0)
(2.20424 0.137036 2.49039e-16)
(1.37496 3.0272 -1.48526e-17)
(-0.116543 4.75817 4.53222e-17)
(-0.928733 9.10627 -6.49446e-17)
(-2.64971 3.18548 -1.07265e-16)
(-0.547966 4.73969 -8.90067e-17)
(-2.85399 3.24686 -1.69985e-17)
(8.93453 0.157775 -3.24115e-16)
(8.42529 0.27749 8.07057e-18)
(-1.10437 -0.872292 6.93285e-16)
(-4.71352 6.5638 -4.29943e-18)
(-2.12832 1.50217 1.95299e-16)
(0.233737 4.24875 6.9697e-18)
(5.69092 4.93653 0)
(1.03033 3.6798 0)
(-2.74429 3.46222 2.84863e-17)
(-2.24292 2.09644 0)
(-0.510289 -0.917047 -4.59364e-16)
(-3.50518 4.24395 -3.62131e-17)
(0.600257 3.40791 -1.18031e-16)
(1.48635 0.127996 1.31807e-16)
(-1.2746 10.6354 -2.06429e-17)
(0.0262628 0.332559 -3.19908e-16)
(-4.58172 5.92839 0)
(-4.34925 5.66145 0)
(-2.37311 2.46031 -3.39143e-17)
(5.43471 6.39964 0)
(2.37528 6.76578 0)
(-3.49973 4.31831 0)
(-1.94655 1.01419 -2.59939e-16)
(6.7319 5.60842 7.05608e-17)
(0.609222 -0.0553886 -3.49972e-16)
(-0.913294 3.68578 -1.78091e-16)
(-0.380394 4.50759 1.42911e-16)
(-4.23271 5.11388 4.28808e-17)
(4.70957 7.4016 -3.12036e-17)
(-4.61305 5.80681 1.28077e-18)
(6.67773 6.40823 -3.66463e-17)
(-0.166832 6.57742 -4.60835e-17)
(1.9058 -0.39004 1.24152e-16)
(4.99741 -1.05856 1.47788e-16)
(-0.236514 1.75367 6.93538e-17)
(-3.91861 7.10379 -2.1871e-17)
(-4.81794 6.12724 -7.39856e-18)
(-0.991613 9.91175 2.56727e-17)
(-2.75463 3.47438 1.8726e-16)
(-2.88809 3.80642 -1.09032e-19)
(-0.766157 4.63211 2.41365e-17)
(2.04743 -0.0691842 1.25114e-16)
(7.48818 5.98848 -1.57411e-16)
(0.352386 3.88723 1.43925e-17)
(-0.472009 -0.866781 2.48729e-16)
(0.791438 -0.0671327 2.87636e-16)
(4.31177 4.84885 2.6337e-17)
(8.47589 0.355413 -2.7901e-16)
(-0.505113 3.33806 5.47641e-17)
(-4.85154 6.02883 4.96268e-18)
(0.0325725 4.68789 -1.3215e-17)
(2.57497 5.03432 5.72219e-17)
(-2.70898 4.60567 1.07841e-16)
(-1.41882 3.98294 2.77706e-17)
(-0.125704 5.08437 0)
(0.956902 0.746165 0)
(3.84491 2.07828 4.66781e-16)
(1.86455 4.06431 -4.27291e-18)
(-1.59712 9.5343 4.50326e-17)
(8.87212 3.75215 -3.7931e-17)
(-3.33007 5.00036 2.43263e-17)
(-3.70175 5.002 -1.11142e-17)
(7.86087 -0.56381 1.73874e-16)
(1.9993 3.41311 -4.46581e-17)
(-1.99773 3.58119 -5.80397e-17)
(-3.17735 4.4682 9.40893e-17)
(-0.0704487 4.5221 -1.43064e-16)
(-1.12079 4.59673 1.61618e-16)
(1.45704 4.08979 5.06976e-17)
(-2.10097 8.8486 -2.29902e-19)
(9.15796 1.89893 1.04416e-17)
(-3.56023 4.97626 -1.37405e-16)
(-0.586171 3.54534 -8.82464e-17)
(-2.19449 1.76234 -1.48895e-16)
(5.62833 7.13546 0)
(-0.952597 -1.12068 0)
(-3.91561 5.35743 -8.83347e-17)
(0.263767 7.49071 2.76875e-19)
(-0.784475 8.32602 2.82698e-17)
(1.14622 5.19232 8.34904e-17)
(-0.485392 10.7214 4.75287e-18)
(2.62348 3.47068 1.70516e-18)
(-0.263133 8.78901 1.52937e-17)
(4.16767 2.45173 0)
(8.56313 4.85113 -5.66361e-18)
(8.39491 4.53654 -7.47141e-17)
(3.94563 8.38786 2.9509e-18)
(0.994946 4.346 -7.73799e-17)
(-1.20639 -1.03357 -2.17989e-16)
(2.2414 0.0828757 -1.86546e-16)
(0.535381 -0.570512 -1.26856e-16)
(0.445578 -1.14402 -1.21981e-16)
(-3.05335 6.22589 0)
(0.960161 4.35678 4.93541e-18)
(-0.0141327 3.08418 0)
(6.37051 6.49447 0)
(5.95903 5.47914 3.93147e-17)
(-1.89605 0.930524 0)
(5.69579 4.02708 1.04662e-16)
(4.12848 2.16685 -1.26618e-16)
(5.51091 5.96852 4.68541e-17)
(7.56911 1.38428 0)
(-1.88142 9.54248 -6.6337e-18)
(4.47813 7.88085 1.0796e-17)
(2.24293 0.395498 2.89982e-16)
(1.33991 0.167651 -1.36808e-16)
(7.40295 5.6141 2.15366e-16)
(7.52858 0.135914 -5.30061e-18)
(-4.53703 6.1301 8.27602e-17)
(-0.398598 0.904308 1.84356e-16)
(-1.03648 -1.23729 1.30231e-16)
(-0.517589 -1.24382 -2.33885e-16)
(-2.17414 2.99813 0)
(2.36608 1.77769 -4.5747e-17)
(7.64038 3.57599 1.02904e-16)
(7.57826 1.72715 -1.04868e-16)
(7.73532 4.91603 6.07179e-17)
(-4.03571 6.00162 -4.53795e-17)
(9.15331 2.9818 5.40013e-17)
(-1.27039 9.88379 -2.63121e-18)
(-0.329684 9.0898 -2.07639e-17)
(2.8877 1.32793 3.71052e-16)
(-0.873739 2.71785 6.05803e-17)
(-0.300302 6.90235 4.63875e-17)
(0.968001 9.16246 2.73236e-17)
(-0.14575 10.989 4.97744e-18)
(0.983811 -0.298013 2.42245e-16)
(-3.79437 7.59715 -7.41226e-17)
(8.23285 5.34521 -9.20197e-17)
(-0.280813 -1.36569 1.28055e-16)
(-0.359739 4.88401 0)
(-0.18635 11.0387 2.21879e-18)
(5.04306 7.01883 -2.30855e-17)
(-4.43136 6.7545 -3.78809e-17)
(8.82074 0.396095 3.91741e-16)
(4.05192 0.493479 4.6656e-19)
(2.7327 -0.225944 1.83967e-16)
(0.302074 -0.0577199 2.71073e-16)
(-3.07355 7.04906 1.35844e-16)
(-0.853024 1.87955 1.16661e-16)
(0.380486 0.680644 2.35302e-16)
(-0.509997 -0.0420053 3.39016e-16)
(9.63163 1.20116 6.40512e-17)
(0.44643 3.88129 -8.52812e-17)
(4.90944 0.0285913 4.66117e-18)
(-0.0725018 -1.13101 3.39735e-16)
(8.6778 4.28788 0)
(1.43718 0.877191 0)
(0.646682 0.336709 1.54962e-16)
(-0.244405 2.35686 -3.32348e-18)
(2.12763 1.03221 0)
(2.38298 0.395471 0)
(-1.88296 1.27027 0)
(-3.21265 -1.44831 -3.20514e-17)
(0.722613 0.59156 5.14931e-17)
(4.70931 -0.630228 0)
(1.29355 -0.0654032 7.51645e-16)
(0.0975689 -0.157238 -1.14558e-15)
(-0.813161 -0.96913 1.38806e-16)
(-0.213228 -1.21737 -2.59333e-16)
(-0.282445 -0.135763 3.08783e-17)
(-4.79879 -1.08706 7.07067e-17)
(8.15167 3.117 2.54472e-16)
(0.168153 1.3336 9.94674e-18)
(1.26681 -1.34511 -1.71963e-17)
(-0.777868 -0.167663 9.34197e-16)
(0.884491 0.600406 0)
(-0.0397763 0.101467 -3.87922e-16)
(-0.249404 -0.197205 3.01978e-16)
(0.680635 0.205142 0)
(-0.389133 0.0413909 2.17859e-16)
(3.03812 2.61696 7.55381e-18)
(-0.254675 -0.00250083 0)
(-0.0412607 -0.249455 1.4571e-16)
(8.28115 2.51685 -3.71543e-17)
(8.63304 3.74921 -1.71327e-16)
(2.46107 9.72246 -1.06618e-16)
(0.161701 0.137897 3.60284e-16)
(-0.57375 0.0695215 -7.31479e-16)
(2.26618 10.1827 -6.21864e-17)
(3.65261 -1.14785 -8.30279e-17)
(0.927827 0.205268 -5.30718e-18)
(0.223403 4.41144 7.89975e-17)
(-3.49315 7.94948 1.18039e-16)
(0.435367 0.169025 0)
(-0.29087 0.0124033 2.05371e-16)
(-0.5604 -0.0617174 0)
(-1.99648 5.19621 0)
(-0.93243 4.76867 9.83104e-17)
(1.42939 0.766549 -1.64182e-16)
(-0.475511 -0.931139 8.17805e-17)
(-0.818051 0.0872898 3.40906e-16)
(-1.37268 4.69478 -8.28364e-17)
(0.295646 4.54066 0)
(0.531115 5.14498 1.3989e-18)
(-4.70232 -0.460422 1.72499e-16)
(-0.76107 10.7541 1.84934e-17)
(-0.42162 7.14974 4.70578e-17)
(-1.69775 1.43298 2.54326e-16)
(4.45175 1.57035 -4.65088e-17)
(-0.633955 4.78814 -7.60617e-19)
(0.200211 -1.18351 -1.98139e-16)
(1.89917 0.585526 -1.10955e-16)
(7.03641 -0.0328537 5.70775e-17)
(6.94241 -0.333451 -1.07789e-16)
(0.347433 0.624829 0)
(-1.35016 6.57277 0)
(0.202872 0.456144 0)
(-2.82571 5.31552 2.91695e-16)
(-0.475675 2.11321 -4.15221e-17)
(-2.25668 2.92249 0)
(-0.939852 2.75834 0)
(-0.759521 -0.111542 6.05166e-17)
(2.44795 -1.14557 7.74879e-17)
(-1.62089 0.67124 2.59729e-16)
(0.900707 -1.20467 3.45372e-16)
(-0.804298 -0.438885 0)
(1.47899 0.639584 -5.83974e-17)
(2.87747 2.06147 7.84163e-16)
(-0.461235 5.44366 -1.99779e-20)
(-0.466771 9.10197 0)
(-1.29499 -0.353757 -2.40508e-16)
(0.0985975 6.26112 4.34877e-17)
(-2.33704 2.59744 1.20077e-16)
(3.09759 -0.92138 9.58123e-17)
(-4.31582 7.09802 0)
(-1.41353 -0.110218 1.58209e-16)
(-3.62203 -2.52584 4.16959e-16)
(-2.25135 -1.41804 2.39393e-16)
(1.69687 0.177662 0)
(0.221305 -0.342007 3.16988e-17)
(-0.14808 4.53646 -9.1638e-17)
(6.31773 1.09891 -9.4637e-18)
(-0.0177282 1.65857 -2.65773e-17)
(7.86492 -0.632225 -2.11762e-16)
(-0.601713 -0.153357 1.38817e-18)
(0.949126 1.68966 1.14804e-16)
(-0.21502 3.38331 3.12208e-16)
(2.12651 1.37611 -1.19457e-16)
(1.38435 6.66015 1.16057e-16)
(-1.06993 3.61166 0)
(8.66008 0.938401 -1.15219e-16)
(0.366676 3.0132 -9.34929e-17)
(-0.466943 7.79226 4.7188e-17)
(0.470033 0.133939 1.57029e-16)
(1.5468 -0.106802 -9.38687e-19)
(3.39636 1.50124 -3.98826e-17)
(0.756588 3.38282 -5.66714e-17)
(5.60158 2.70762 0)
(-0.757987 8.84013 -1.69697e-17)
(3.46999 3.74542 0)
(1.66527 0.0304074 0)
(-0.0146504 5.97303 1.73513e-16)
(2.35751 0.253114 -6.95036e-17)
(0.45651 2.88243 7.44176e-19)
(-0.384989 1.28132 2.19569e-16)
(0.402461 0.174076 1.49443e-16)
(0.0470463 0.745971 8.05536e-19)
(-0.17716 6.09782 -2.75114e-16)
(4.0046 2.01143 2.79329e-17)
(-0.169575 0.0549635 4.04958e-16)
(-2.23833 3.63664 -1.54834e-18)
(1.61492 6.85904 1.4864e-16)
(-4.32676 6.15084 0)
(-0.455601 0.192069 3.89069e-17)
(-0.242913 8.99928 2.26298e-17)
(3.78447 0.928425 -1.20789e-17)
(0.0701653 -0.89913 -9.1718e-17)
(-0.826444 -0.728724 -2.51326e-16)
(0.787855 -0.661308 3.17782e-16)
(-2.63184 2.79862 0)
(-0.803719 4.77321 5.47796e-17)
(2.69185 8.42591 -1.33132e-16)
(-1.73221 3.85333 9.05343e-17)
(1.33413 0.213179 -4.83125e-16)
(-0.493995 6.7802 0)
(-0.17638 0.448558 -4.28222e-16)
(3.373 0.0123142 -9.08407e-18)
(8.47656 1.51855 -5.7793e-17)
(-0.911674 8.3001 7.63943e-17)
(8.34888 0.563429 6.30308e-18)
(-0.0612679 -1.11169 -2.52477e-16)
(-4.10951 6.74045 -2.77796e-17)
(0.84817 1.65037 -2.32575e-16)
(-1.06182 -0.913448 -1.81733e-16)
(-1.45022 3.29181 1.31763e-16)
(0.577009 -1.65117 -2.66232e-16)
(6.01408 2.88313 1.84585e-16)
(2.02884 0.714288 -2.63763e-16)
(0.087007 -0.471971 2.01124e-16)
(8.64716 0.528403 7.72265e-17)
(-1.05044 0.585421 1.43243e-18)
(-1.06713 4.57538 1.08016e-16)
(-0.420599 6.22874 4.68005e-17)
(0.0144108 8.45155 -5.59785e-17)
(0.16308 6.12348 3.88443e-18)
(-0.420849 4.83871 1.09531e-16)
(1.76466 0.243281 -7.95711e-19)
(1.13827 -1.04153 2.11393e-16)
(0.608175 -0.125205 -9.06687e-17)
(-0.559447 8.80528 0)
(-0.683249 -0.246286 -1.89824e-16)
(-0.830081 9.2493 -4.61866e-17)
(5.62203 0.960741 -5.96153e-17)
(-0.488904 4.78492 -3.42628e-19)
(-1.31882 1.32443 -2.08396e-16)
(2.84928 1.08734 -9.45752e-17)
(-2.77265 -1.02584 1.26454e-16)
(-1.43873 -0.697466 1.2625e-16)
(-0.133514 4.21149 0)
(8.91477 1.46878 0)
(8.38808 1.0882 4.22336e-17)
(0.205781 6.30929 0)
(3.61414 0.833674 0)
(1.76421 0.920209 -2.26631e-16)
(-0.0680023 3.25282 0)
(4.49408 -0.215903 6.56081e-17)
(-2.50154 -0.377765 1.49563e-16)
(0.483679 1.28234 1.64586e-18)
(-1.23156 1.11241 -9.30246e-17)
(-0.232455 0.0161936 -4.12631e-16)
(-0.36869 1.09899 -5.86462e-18)
(-0.56485 1.62709 0)
(-0.398088 3.30217 -5.44019e-17)
(-1.47836 6.42678 8.24781e-17)
(0.106862 4.25416 2.72187e-17)
(-5.13183 -0.539439 -1.08082e-18)
(2.4157 -1.09871 0)
(2.35522 9.00787 2.41862e-18)
(1.91608 0.142487 -1.44741e-16)
(-1.10034 2.43103 2.73073e-16)
(4.75771 0.0591641 0)
(-0.89269 -0.545198 -6.9122e-16)
(6.12617 -0.917429 1.19397e-16)
(5.87816 0.327883 3.85512e-17)
(-1.06908 6.93312 -6.00215e-17)
(-3.34152 5.16982 0)
(-0.655993 2.89579 1.09278e-16)
(1.49259 0.519088 5.77513e-16)
(2.94065 0.384155 -8.7837e-19)
(4.28365 -0.221333 4.29063e-16)
(4.89163 -0.179843 4.63329e-17)
(-1.29754 10.3807 -9.86586e-17)
(0.792023 2.57373 -3.61644e-16)
(-1.65138 2.69842 -4.76507e-16)
(8.8234 0.253493 6.63393e-19)
(-1.65008 2.63573 -4.04881e-16)
(0.0662014 -0.094106 -1.72158e-17)
(2.01165 0.166109 1.27423e-16)
(-0.877578 7.79092 6.07158e-17)
(-0.836028 1.6189 -3.07974e-16)
(3.47273 0.156441 2.10019e-16)
(-3.13314 4.41718 5.05344e-17)
(-0.79759 3.8218 -6.3621e-17)
(-0.70244 -0.00285191 5.81616e-16)
(-1.12754 -0.717791 -1.1861e-16)
(-0.442188 0.335344 -6.04675e-17)
(0.879683 1.74826 -1.42702e-16)
(-2.0357 2.41824 -2.62051e-18)
(-0.1275 4.55043 0)
(0.123697 3.16825 0)
(0.099199 3.23937 0)
(0.117302 3.09089 -5.06154e-17)
(-0.242484 3.67372 2.83087e-17)
(0.0497327 3.19581 0)
(-0.395561 4.51405 0)
(-0.0986128 3.17269 0)
(0.0912655 8.35962 -7.10133e-17)
(0.00918392 5.77824 0)
(0.0607944 5.59648 0)
(0.143976 8.058 7.15432e-17)
(0.00197519 8.36974 0)
(-0.0785829 8.27139 -3.27395e-17)
(0.168612 7.70814 1.7413e-17)
(-0.0419414 5.84957 0)
(0.135068 5.24012 -1.05747e-16)
(0.200464 6.89619 -3.34855e-17)
(0.201519 7.33008 2.04639e-17)
(0.222249 4.70145 1.16574e-16)
(0.302769 3.99663 3.46313e-17)
(0.463674 2.68761 1.81155e-17)
(0.376357 3.33726 -2.00001e-17)
(-0.112053 8.14156 3.43178e-17)
(-0.117366 8.0771 0)
(-0.126014 8.02443 0)
(0.0850851 3.02473 5.05764e-17)
(5.05271 -0.0486907 4.08026e-17)
(8.49561 0.0279272 -2.29458e-18)
(-0.775288 -0.203579 -3.12446e-16)
(0.0726284 -1.24745 -9.3879e-17)
(2.29465 3.47939 -1.05096e-16)
(-1.76923 0.927441 -1.82753e-16)
(-2.29678 1.23499 2.0237e-16)
(-0.12727 -0.668325 2.66113e-16)
(-2.10571 -1.04209 0)
(-1.37372 7.41617 -1.36967e-16)
(0.323785 6.99712 -6.52362e-17)
(-3.4567 6.39432 -4.87991e-17)
(-2.05386 0.11576 -3.64985e-16)
(1.4575 0.199114 0)
(8.92392 2.25875 -9.82656e-18)
(1.49161 -1.31048 -1.45773e-16)
(-2.04968 1.623 1.18576e-16)
(-1.14949 -0.906072 1.06233e-16)
(1.80495 -0.0187723 7.62362e-16)
(-0.554949 7.39637 1.06557e-16)
(3.79422 -0.152791 0)
(2.72874 10.0174 2.91652e-16)
(-0.28917 5.46515 0)
(-1.59563 -0.419409 0)
(-0.184873 7.87855 0)
(2.79969 0.445318 5.18956e-17)
(1.63952 1.02422 1.33412e-16)
(9.18526 0.938443 -2.44361e-16)
(-1.293 0.114019 -1.85183e-16)
(8.96122 0.588026 -7.63041e-17)
(0.364826 2.1096 0)
(3.1016 -0.150513 0)
(-1.706 -0.52862 -1.2563e-16)
(-0.917169 2.95656 3.08337e-16)
(-1.56196 -0.036159 0)
(-3.7576 -2.73301 -1.75796e-16)
(-2.20839 -1.50962 0)
(1.83059 -0.845145 0)
(-0.0180505 0.548686 3.49123e-17)
(3.74339 0.155259 -3.29264e-19)
(-2.15462 4.85149 -5.32953e-17)
(1.743 -0.741335 -3.02327e-16)
(0.734531 -1.34349 2.33991e-16)
(3.03425 0.492063 -1.36992e-16)
(0.0729299 6.00872 0)
(7.25761 0.194816 3.09653e-17)
(8.60129 1.96142 0)
(2.4571 0.940119 -4.07283e-16)
(2.66376 0.797655 -2.22606e-16)
(3.45669 1.03105 -3.02483e-16)
(4.15861 0.52025 -1.25857e-16)
(0.373821 0.235124 -2.62925e-16)
(2.19479 -0.829721 -5.64354e-16)
(0.038834 -0.151922 -1.9321e-17)
(3.15746 -1.39404 4.54451e-17)
(6.874 0.303777 -8.29266e-18)
(4.2315 0.444394 1.51296e-17)
(-0.511184 5.94698 9.32446e-17)
(3.6707 2.37442 3.03662e-16)
(-0.288786 6.94619 1.87861e-17)
(2.07855 0.100241 6.8481e-19)
(-0.771613 7.82817 -1.44208e-18)
(-0.122863 1.93654 -5.27044e-19)
(1.67789 1.11945 2.11245e-16)
(4.33842 -1.54455 2.15076e-16)
(-1.88135 3.1868 1.03867e-16)
(-0.735339 -0.825036 -4.19452e-16)
(-1.15271 -0.242907 2.66728e-16)
(-0.851842 6.76792 2.76958e-16)