/*--------------------------------*- C++ -*----------------------------------*\
| =========                 |                                                 |
| \\      /  F ield         | OpenFOAM: The Open Source CFD Toolbox           |
|  \\    /   O peration     | Version:  v1912                                 |
|   \\  /    A nd           | Website:  www.openfoam.com                      |
|    \\/     M anipulation  |                                                 |
\*---------------------------------------------------------------------------*/
FoamFile
{
    version     2.0;
    format      ascii;
    class       volScalarField;
    location    "0.14";
    object      nut;
}
// * * * * * * * * * * * * * * * * * * * * * * * * * * * * * * * * * * * * * //

dimensions      [0 2 -1 0 0 0 0];


internalField   nonuniform List<scalar> 
5794
(
0.00107206
0.000892427
0.00262268
0.00100536
0.00119317
0.000743275
0.000912906
0.000509141
0.00158743
0.00119544
0.000996107
0.000825969
0.000624801
0.000994589
0.000837007
0.000747616
0.0037796
0.000734145
0.00068427
0.000773186
0.00185575
0.000940897
0.000521639
0.000665681
0.000559726
0.00356079
0.00348349
0.00149391
0.00113233
0.00112325
0.000745971
0.0012632
0.000653038
0.0011495
0.00110044
0.000786221
0.000786251
0.000741351
0.000600132
0.00112806
0.00218191
0.000788736
0.000800387
0.000968378
0.000823764
0.000525542
0.00110217
0.000589559
0.00103593
0.00105903
0.000333676
0.00065884
0.000895506
0.00126827
0.000134183
0.000808477
0.00112769
0.000656746
0.000864721
0.00447611
0.00138993
0.000447112
0.000876322
0.0025689
0.000848558
0.000814261
0.00379592
0.000607638
0.000767471
0.000615772
0.000762871
0.00305704
0.00360994
0.00073955
0.000712002
0.00139771
0.000289847
0.00330231
0.00110177
0.0001541
0.00118585
0.000821602
0.00210104
0.000692402
0.000803158
0.000312792
0.000473748
0.000458978
0.000915101
0.00063704
0.00166248
0.00103375
0.000711908
0.000936852
0.000775823
0.00101419
0.00142092
0.000719374
0.000986014
0.00150768
0.00149272
0.000913896
0.000948671
0.00137034
0.00075848
0.000850997
0.000526601
0.000429499
0.00131651
0.00116194
0.00067536
0.00117602
0.00165437
0.000818582
0.000773883
0.000749369
0.00103961
0.000730742
0.00128411
0.00100337
0.000768925
0.000373449
0.000539672
0.0015313
0.00145353
0.00335187
0.000618776
0.000816528
0.00105845
0.00093886
0.000830897
0.000563892
0.00084289
0.00324486
0.000830966
0.000955054
0.00364008
0.000493431
0.000853424
0.00105495
0.0037074
0.00108708
0.00137343
0.00127555
0.0010395
0.00554583
0.000682162
0.00202727
0.00100081
0.00098863
0.000732968
0.00142552
0.000841664
0.000531016
0.00458159
0.000884801
0.00042665
0.00044939
0.000437402
0.000734712
0.000907478
0.000466803
0.00051085
0.000538113
0.000631135
0.000465885
0.000537442
0.000364548
0.000469572
0.000490218
0.000599447
0.000955699
0.0004073
0.000496146
0.000500702
0.000617023
0.000560773
0.000520962
0.000616318
0.00119707
0.000359647
0.000829709
0.000312896
0.000324272
0.000349817
0.0023541
0.000822524
0.00039554
0.00054921
0.000651666
0.00112476
0.000998659
0.000434989
0.000422048
0.000333062
0.000431517
0.000341379
0.000483927
0.000773948
0.00111479
0.000733009
0.0006507
0.000370013
0.000378833
0.000989167
0.000404661
0.000438849
0.000831266
0.000900521
0.00192435
0.00141679
0.000858751
0.000884995
0.000963187
0.000837632
0.000759153
0.000713104
0.000748901
0.000868086
0.00178162
0.000858968
0.000768121
0.00157829
0.00104696
0.00277812
0.00168657
0.000902639
0.00157226
0.000566512
0.00100631
0.000693955
0.000836002
0.000731384
0.00116545
0.000890243
0.00147226
0.00118022
0.00467229
0.000503442
0.00109
0.000881755
0.00111432
0.00262309
0.000718865
0.000849273
0.000700612
0.000947833
0.000775564
0.000496186
0.000307171
0.000378167
0.000824501
0.00465839
0.000679756
0.000774125
0.00133573
0.00121245
0.00112141
0.000782693
0.00163615
0.00403778
0.00087312
0.000866214
0.000679566
0.000596782
0.000431241
0.00107634
0.00472881
0.00137711
0.000626256
0.00120757
0.00056942
0.000988916
0.000951599
0.000871415
0.000846686
0.001313
0.00284109
0.00130153
0.000928064
0.00050942
0.00116122
0.00204508
0.000671882
0.000821265
0.00126303
0.00129125
0.00104115
0.00114555
0.000833143
0.000850056
0.00101217
0.000991718
0.00148486
0.000745664
0.00245606
0.0012765
0.000658252
0.000909816
0.000789197
0.000526231
0.001031
0.000832999
0.00374055
0.000506212
0.00427044
0.00126254
0.000786166
0.000554993
0.00101989
0.000504248
0.000840084
0.00228336
0.000814057
0.000783576
0.000915103
0.00050653
0.00135209
0.00148172
0.00103908
0.00111125
0.00171113
0.000772768
0.00103303
0.00094877
0.000798613
0.000890385
0.000602427
0.000437845
0.000990108
0.000855927
0.000886111
0.000403403
0.000448405
0.000960828
0.000726603
0.000602215
0.00041051
0.000528035
0.000382379
0.000534973
0.000455763
0.00173126
0.00045387
0.000652467
0.000306308
0.000324839
0.000904346
0.000671363
0.000700952
0.000524259
0.00152014
0.000343833
0.00082094
0.000331415
0.00153123
0.000601541
0.000487631
0.000895741
0.000397027
0.000716558
0.000959973
0.00427793
0.0010609
0.000727934
0.000656847
0.000466027
0.000388005
0.000829597
0.000299308
0.00108532
0.000460783
0.000872113
0.00127959
0.000744159
0.00124995
0.000995405
0.000855183
0.000740116
0.000853038
0.00298238
0.00108687
0.000751312
0.000731784
0.0010389
0.00112543
0.00126018
0.00110174
0.000849622
0.000674699
0.000395527
0.000705959
0.000604623
0.000718361
0.000439817
0.000490292
0.000497916
0.00100664
0.00163508
0.000622364
0.000668319
0.000556289
0.0023434
0.000330893
0.000552079
0.00503936
0.000925276
0.00102604
0.000693547
0.00125189
0.000781927
0.00111869
0.00224
0.000622327
0.000320086
0.000813038
0.000292344
0.0009053
0.000774757
0.00125713
0.000915106
0.000692572
0.000688547
0.00112024
0.000473909
0.000538539
0.00058599
0.000825178
0.000802116
0.000962989
0.00130775
0.000784915
0.00127611
0.00220666
0.000796823
0.00095914
0.000566863
0.00036989
0.000624133
0.000762563
0.000900551
0.000806299
0.000410774
0.000447503
0.00197989
0.000843326
0.000790441
0.000798277
0.000772583
0.00323922
0.000647396
0.000723327
0.0025692
0.00103704
0.000907816
0.000560666
0.00147444
0.00239372
0.00111661
0.0012584
0.00110714
0.000653405
0.00114548
0.000907221
0.00163886
0.00100556
0.00197708
0.00153849
0.00130123
0.00112734
0.000174354
0.00105285
0.00277643
0.00107852
0.0012666
0.00121143
0.0022672
0.00136668
0.000717046
0.000638053
0.00115704
0.00108223
0.000771681
0.00081079
0.000584749
0.00101007
0.00086161
0.0012315
0.00179476
0.00121931
0.000706998
0.000892858
0.000809992
0.000805589
0.000957846
0.00101003
0.000920408
0.00105602
0.000561223
0.00495848
0.00115877
0.00176291
0.000728904
0.000919941
0.00157329
0.000572085
0.000957587
0.00147018
0.00223093
0.000796835
0.00115255
0.0012204
0.00265901
0.00064487
0.00081297
0.000855243
0.000708037
0.000647271
0.000808184
0.00236581
0.00103374
0.000660371
0.0012547
0.000887043
0.00125379
0.000871309
0.00104609
0.00201896
0.000716874
0.00101498
0.00132111
0.000271622
0.00189385
0.00103894
0.000829355
0.00157246
0.000786236
0.00351161
0.0010783
0.003344
0.000847917
0.00268355
0.000758602
0.000903536
0.000902401
0.000974972
0.000755038
0.00122759
0.000686902
0.000947041
0.00159647
0.00101375
0.000573672
0.00103927
0.000887911
0.00132168
0.00118438
0.00102394
0.000705691
0.0011368
0.00616472
0.000692124
0.00501641
0.00144987
0.000961878
0.000676803
0.000843983
0.00472114
0.000524279
0.000763856
0.00178748
0.00115191
0.000769886
0.000570293
0.00090991
0.000857232
0.00136228
0.000703014
0.000657092
0.00194477
0.00084184
0.00124901
0.00169128
0.00156244
0.00154229
0.00162804
0.00083088
0.000880496
0.00139095
0.00145868
0.000783629
0.00089308
0.000680216
0.000910483
0.00110296
0.00192316
0.000692974
0.000831479
0.000647444
0.00125247
0.000664915
0.00196316
0.000960859
0.00091527
0.000723584
0.00153753
0.00311976
0.000655721
0.000162458
0.0012318
0.00170433
0.00161941
0.00154699
0.00102648
0.000503509
0.00057967
0.00482902
0.000368189
0.00108313
0.000669521
0.000312714
0.0029196
0.0035913
0.00061515
0.000385841
0.000884071
0.00136118
0.00137534
0.000962773
0.000707073
0.00124327
0.000850832
0.000306831
0.00103906
0.00071131
0.000823697
0.0036163
0.000811598
0.000578436
0.0014908
0.000800432
0.00148806
0.000789839
0.00142181
0.003437
0.000996437
0.00101533
0.00100922
0.00122159
0.000637418
0.000500144
0.000982173
0.00112014
0.0006043
0.000529576
0.00435812
0.00275908
0.000963002
0.00123148
0.00089404
0.00111282
0.000653917
0.00107828
0.0011053
0.000634426
0.00106092
0.00110538
0.00127209
0.00130862
0.00108502
0.00461801
0.000937786
0.00233259
0.00074381
0.000765247
0.000979319
0.000976473
0.000993279
0.00156336
0.000894281
0.00081246
0.000898269
0.00121971
0.000865098
0.000702805
0.00313676
0.00103742
0.00101835
0.00134084
0.000718053
0.00164791
0.00114811
0.00395939
0.00096013
0.00142905
0.00194039
0.000664069
0.000436302
0.000477599
0.000770053
0.000599986
0.000313669
0.000266072
0.00132217
0.00113738
0.00160969
0.000905937
0.000834945
0.00120404
0.00133035
0.00194218
0.00134516
0.00116608
0.0010073
0.00247665
0.000776376
0.000733651
0.00360482
0.00388238
0.00167408
0.00109439
0.00301882
0.0035887
0.000960332
0.00121282
0.000834817
0.000924258
0.000821569
0.00133793
0.000971379
0.000833259
0.00326192
0.00105513
0.00281948
0.00145408
0.00179482
0.00229761
0.00139762
0.00104671
0.000721828
0.00160579
0.000411688
0.000441345
0.000484973
0.000341654
0.00119064
0.00145485
0.00172107
0.000984607
0.000803672
0.000686929
0.000973731
0.00116815
0.000599565
0.000925259
0.000864923
0.000755229
0.000983116
0.000812299
0.000726765
0.000788631
0.00157809
0.000860288
0.00107171
0.00107159
0.0012894
0.00153319
0.00132341
0.00106549
0.00084087
0.00134221
0.00137574
0.00131585
0.00120618
0.00107542
0.000725398
0.000858458
0.00108819
0.000972824
0.00103598
0.000761124
0.00310226
0.0011219
0.00110493
0.000676081
0.000873493
0.00154016
0.000769821
0.00089156
0.00124357
0.000876007
0.00167261
0.000779184
0.0025041
0.000840053
0.00165338
0.000736351
0.00340687
0.00106112
0.00319996
0.000862155
0.000549544
0.00161488
0.00102799
0.000746954
0.00147655
0.000769509
0.000831375
0.00449587
0.00122302
0.00100415
0.00327086
0.00120424
0.00120042
0.00180688
0.000949632
0.0009836
0.000982202
0.00137308
0.000696698
0.00103756
0.00093907
0.00174635
0.0021252
0.000693109
0.000771208
0.00140591
0.0010953
0.00130396
0.00141601
0.000908053
0.0014818
0.00077174
0.000987153
0.000730941
0.00111307
0.000840063
0.00432235
0.000376936
0.00041569
0.000522848
0.000684973
0.00174368
0.0011878
0.000875774
0.00070205
0.00388069
0.000708761
0.000840107
0.00179479
0.000977403
0.000951519
0.00102484
0.00106809
0.00491551
0.00298816
0.0022926
0.00448439
0.000813069
0.000625322
0.000738617
0.000828714
0.00121233
0.000805545
0.00152846
0.00130612
0.00433639
0.00186849
0.00108126
0.00094452
0.000918823
0.000773968
0.00507062
0.00101543
0.00422634
0.00135922
0.0010951
0.00332491
0.000886072
0.00075264
0.000349813
0.000890194
0.000820944
0.00129393
0.000818367
0.0010704
0.00134177
0.00422719
0.00124349
0.000799949
0.00278623
0.00420304
0.00104704
0.00103892
0.00368819
0.00176375
0.00116062
0.00127213
0.000820128
0.0013177
0.000820217
0.00114631
0.000697326
0.00104229
0.00257913
0.000398053
0.000791179
0.000837319
0.00241824
0.00226754
0.00116938
0.000843638
0.00134526
0.00116429
0.00236969
0.000841386
0.000649795
0.000785639
0.000838402
0.00235425
0.00161528
0.00359493
0.00080368
0.000554966
0.000545711
0.000657272
0.000448055
0.000806599
0.0005496
0.000415972
0.000402044
0.000498727
0.000395861
0.000349487
0.000662985
0.00155438
0.000901704
0.00116582
0.000910772
0.00068845
0.00106671
0.00082392
0.000699174
0.00103419
0.000949514
0.000805362
0.00119867
0.000786662
0.00256995
0.000786512
0.000733313
0.0022237
0.000698285
0.00111057
0.0015531
0.00155398
0.000834632
0.000929662
0.000880794
0.00217821
0.00139078
0.00133935
0.000801879
0.000269259
0.000272894
0.000716068
0.000568343
0.00116728
0.000873612
0.000773051
0.000690794
0.000697664
0.000790306
0.000824473
0.000783144
0.00123268
0.000829802
0.00199529
0.000831839
0.000989495
0.000675437
0.000861135
0.000799908
0.000378354
0.000754795
0.00546464
0.000514477
0.0026121
0.00246935
0.000806823
0.000833932
0.00157808
0.000901228
0.000830614
0.00248756
0.000779162
0.00144843
0.00180119
0.000809357
0.000825333
0.000874279
0.00116983
0.00115425
0.00290087
0.000734139
0.00101038
0.000889182
0.00110972
0.000841613
0.000945946
0.000866628
0.00198627
0.00109976
0.000879946
0.000636052
0.000254411
0.00119607
0.000582035
0.000563656
0.000420634
0.00237509
0.000460434
0.00109448
0.000714882
0.0013496
0.000747733
0.00144055
0.000798266
0.00134633
0.000790598
0.000783557
0.000737251
0.000333697
0.000856479
0.00126627
0.00114228
0.00139923
0.001534
0.000609572
0.000827487
0.00311889
0.000800168
0.00113153
0.00101672
0.00193104
0.000582786
0.00082248
0.000881027
0.000468764
0.000844322
0.000655067
0.000573431
0.0014163
0.000762737
0.000755208
0.000803658
0.000877759
0.000799322
0.00317782
0.000932823
0.00102355
0.000598206
0.000967139
0.000963022
0.000809051
0.000830225
0.000740524
0.000975
0.000776184
0.000803522
0.000569046
0.00181031
0.00106753
0.000732937
0.000939103
0.00103877
0.00100737
0.000570969
0.000895401
0.00079054
0.00206263
0.00077766
0.00103658
0.00128371
0.000286676
0.00112027
0.0013793
0.00313357
0.00129925
0.00199539
0.00270572
0.000269541
0.00108318
0.0013293
0.000302652
0.00187414
0.000494513
0.0011166
0.00109101
0.000263754
0.0010727
0.000266502
0.000266377
0.00105139
0.000602382
0.00102007
0.00124913
0.000899567
0.000902349
0.000698982
0.00155238
0.00121588
0.0010007
0.000636995
0.000790162
0.000798284
0.000837103
0.000915101
0.00102125
0.000738925
0.00104794
0.00176464
0.00154762
0.000599672
0.000851252
0.00117825
0.00143589
0.00097471
0.00073742
0.0018069
0.00199808
0.00517269
0.00116424
0.00165342
0.000731693
0.000729107
0.00130603
0.000899007
0.000901336
0.000821217
0.00928179
0.00106362
0.000784561
0.000863788
0.00286502
0.00262445
0.000761701
0.000780052
0.000874997
0.000531442
0.0031601
0.000636583
0.00149161
0.00145945
0.00219085
0.000800785
0.00164809
0.00100427
0.000851598
0.00192709
0.00240909
0.000878772
0.00101789
0.000713293
0.00147633
0.00107379
0.0017483
0.00041743
0.000473723
0.00074951
0.000975455
0.000833664
0.000777382
0.000871033
0.000742392
0.000833543
0.00396877
0.00099401
0.00075252
0.000736885
0.000836399
0.00126273
0.00245145
0.00131829
0.00389907
0.000372477
0.000880198
0.00075048
0.00191287
0.00118451
0.000709967
0.000341238
0.000347149
0.000845703
0.00124826
0.000811319
0.000741033
0.000495145
0.0076401
0.000754573
0.00107877
0.000969609
0.000999867
0.000769668
0.00182273
0.00121072
0.000803713
0.000598642
0.000933138
0.000526113
0.000632972
0.000643421
0.00125916
0.000773403
0.000842605
0.000797887
0.0031586
0.000799632
0.00201284
0.000829085
0.000271054
0.000742313
0.00085735
0.00293368
0.000851589
0.000192728
0.00159675
0.00108955
0.00106403
0.000264899
0.00146731
0.000760042
0.00109887
0.00166088
0.00170095
0.000813393
0.000573049
0.000757612
0.00145761
0.00123065
0.00111317
0.000874202
0.000849257
0.00244675
0.000837093
0.000358326
0.000743917
0.000784051
0.00399609
0.000993505
0.000331071
0.00128711
0.000710192
0.00050168
0.000911512
0.00203995
0.00150085
0.000831225
0.000827863
0.00204957
0.00141641
0.00211725
0.00187954
0.00402513
0.000796056
0.00076033
0.0012143
0.000779642
0.00145467
0.00166214
0.000873762
0.00196705
0.00128551
0.00198957
0.00218073
0.00203511
0.00124005
0.00118805
0.00187076
0.000891891
0.00146065
0.00137101
0.00110231
0.00189398
0.00115278
0.00182523
0.0025181
0.00122123
0.000959272
0.000370247
0.000807535
0.002855
0.000624468
0.00161607
0.00222081
0.000831417
0.00275644
0.00281571
0.0012272
0.000451379
0.00224636
0.00117213
0.00263859
0.00393338
0.000834571
0.000835396
0.000756717
0.00125221
0.000724503
0.00141779
0.000691545
0.00132381
0.00107629
0.000865389
0.000550946
0.00219764
0.00162797
0.00114476
0.00200149
0.00383333
0.000786815
0.000179755
0.00200851
0.000809346
0.00121301
0.000726436
0.0032967
0.000879546
0.00274444
0.000903717
0.000460844
0.000608309
0.000570847
0.000743393
0.000599027
0.00112932
0.000867117
0.00113916
0.000822946
0.00127316
0.0010056
0.00118649
0.000824835
0.0010832
0.00205482
0.000684534
0.00274247
0.00116119
0.000809792
0.000853531
0.000444863
0.00137951
0.000651658
0.000823202
0.00274567
0.00265028
0.000907581
0.000836315
0.00174422
0.000812061
0.000701203
0.000933021
0.000991875
0.0021162
0.00113939
0.000366553
0.000358444
0.000574488
0.00720422
0.000826005
0.000695441
0.00160553
0.0010041
0.00315564
0.00222628
0.000326615
0.000284469
0.000303691
0.000294656
0.000256769
0.0005175
0.000283941
0.000284542
0.000462303
0.000282769
0.000338862
0.00074648
0.000618023
0.000232691
0.000281661
0.000271271
0.000542302
0.000343957
0.000478153
0.000589492
0.000465349
0.000308058
0.000338299
0.000193281
0.000355781
0.000415063
0.0014384
0.000364485
0.00028656
0.000307243
0.000795316
0.000915628
0.000334232
0.000288468
0.000307631
0.000341039
0.000261641
0.000337266
0.000358567
0.000293028
0.000325362
0.0002668
0.00121238
0.000629443
0.00111953
0.000870206
0.00143076
0.0007615
0.00128523
0.00182299
0.0022262
0.000971448
0.00117521
0.000830938
0.00112629
0.00116603
0.00343121
0.000754652
0.00652224
0.00152393
0.00265739
0.00369816
0.00107741
0.00105957
0.000853449
0.00131166
0.000499755
0.0018037
0.000905772
0.00213188
0.00170648
0.00129941
0.00158946
0.000554949
0.00184784
0.00170115
0.0016365
0.00760087
0.00103833
0.00113814
0.000705672
0.000803645
0.0012017
0.00508697
0.00266897
0.00104856
0.0030668
0.000669274
0.00375974
0.000680963
0.000765134
0.000842521
0.000848859
0.00947958
0.000962917
0.000425103
0.000517254
0.00084752
0.00137105
0.000424519
0.0030489
0.000811342
0.000352246
0.000252365
0.000297309
0.00037697
0.000358315
0.000394789
0.000278898
0.000335923
0.000343706
0.000282734
0.00080272
0.00107537
0.000262641
0.000592567
0.000393934
0.000594407
0.000590757
0.000305711
0.000318706
0.000237121
0.000281568
0.00033542
0.000305782
0.00189084
0.00220334
0.000180738
0.001008
0.00256143
0.000848694
0.00134722
0.000761032
0.00513701
0.000890027
0.00109497
0.00268853
0.00165423
0.00257912
0.000260596
0.00169983
0.0046498
0.00114922
0.00196894
0.00251348
0.00142735
0.000724946
0.00113371
0.00182206
0.00115137
0.00107827
0.00132593
0.00201594
0.00123248
0.000795319
0.000802612
0.000682471
0.00103337
0.000995383
0.00147084
0.000973961
0.00229541
0.000404651
0.00207565
0.00086328
0.000849586
0.000929937
0.000752586
0.000638995
0.00105376
0.000868485
0.000993297
0.00217749
0.000834682
0.000758165
0.000686382
0.00126378
0.0013879
0.00191497
0.000188996
0.000772078
0.00167872
0.00073153
0.00258515
0.000443626
0.000762908
0.00110353
0.00371521
0.00119641
0.000832784
0.000958073
0.000690919
0.00224351
0.00382894
0.000753881
0.000935651
0.000389506
0.000222036
0.000471824
0.00225154
0.00201374
0.000771651
0.000918183
0.00177559
0.000742164
0.00124898
0.00162121
0.00145861
0.00129822
0.00174638
0.000985088
0.00163098
0.000841664
0.00187796
0.00115594
0.000826907
0.00075762
0.000711838
0.00066005
0.00116348
0.000346116
0.000866666
0.000860652
0.000980918
0.0039252
0.00109159
0.00134918
0.00153928
0.00110688
0.000833601
0.0015373
0.000951848
0.00313035
0.0034146
0.000793353
0.00093277
0.00118542
0.00179362
0.00140523
0.0022945
0.00201932
0.00139863
0.00115718
0.00199652
0.00198245
0.00158634
0.000869455
0.00107367
0.000898997
0.00112028
0.000931948
0.00111893
0.00180491
0.00137005
0.00101666
0.0015918
0.00301324
0.00322299
0.00108959
0.00149789
0.000841486
0.000790263
0.00193345
0.0019666
0.000838608
0.000845239
0.00183447
0.00109676
0.00101888
0.00145626
0.00136677
0.000987933
0.00134799
0.000960528
0.00102483
0.00098662
0.00101713
0.00124839
0.00117973
0.00106186
0.00126867
0.000992899
0.00105801
0.0010028
0.000812596
0.000848345
0.00102521
0.00224691
0.000856045
0.000960008
0.000922454
0.000876892
0.000239691
0.00041549
0.00146082
0.00127508
0.000914733
0.00125837
0.000985767
0.00166297
0.00126136
0.00179509
0.00247166
0.000813019
0.000910389
0.00089753
0.00279213
0.00191651
0.00347191
0.00138569
0.00334995
0.00358417
0.000996457
0.00379001
0.00111278
0.00188332
0.00124929
0.000897972
0.00105646
0.000321373
0.00277133
0.000992
0.000954977
0.000904068
0.000921079
0.000996977
0.00223635
0.000848285
0.000890478
0.00171632
0.00101148
0.002121
0.00101964
0.000741981
0.00210729
0.000906595
0.0012296
0.00140182
0.00114049
0.00120535
0.000998899
0.000975987
0.00219259
0.000656346
0.00097014
0.00153494
0.000994541
0.00117333
0.00129771
0.000996978
0.00109721
0.00241035
0.00100251
0.00442046
0.00092156
0.000881327
0.000838661
0.000946906
0.00209074
0.000934653
0.00102746
0.0010105
0.000917786
0.000958596
0.00408413
0.00118739
0.00131567
0.00113253
0.000925489
0.000908336
0.000889305
0.000928042
0.00184886
0.00092771
0.00379794
0.000903334
0.00103589
0.00104396
0.00128435
0.00355313
0.00125165
0.00145303
0.00107285
0.00450454
0.00085926
0.00104871
0.00131088
0.000841488
0.000839801
0.00288758
0.00109023
0.00234717
0.00217989
0.00308343
0.00214428
0.000802269
0.00106175
0.00264299
0.00110964
0.000889226
0.00146288
0.00093104
0.00190185
0.000838815
0.000942387
0.000958884
0.00433544
0.0022459
0.000903599
0.00301593
0.00106058
0.00152558
0.000625937
0.00450506
0.00089971
0.00170483
0.000988079
0.00103312
0.000827862
0.001012
0.00108509
0.000448802
0.00320405
0.00361701
0.00147684
0.00120018
0.00117387
0.0014172
0.00065033
0.00191709
0.000729271
0.00085252
0.00315569
0.000858352
0.00155546
0.00110552
0.000954929
0.00173428
0.00146822
0.00125644
0.00359313
0.00100145
0.00100827
0.000944974
0.00148548
0.00243415
0.00200001
0.00235487
0.00109295
0.00218498
0.000908495
0.00110996
0.00242747
0.0020284
0.000555474
0.00103664
0.00109797
0.00141921
0.000948824
0.000977247
0.00203177
0.00199925
0.000384167
0.00280048
0.00124405
0.00112539
0.00107953
0.00107349
0.00219715
0.00223858
0.00215625
0.000871853
0.00116125
0.00146292
0.000468217
0.0022906
0.000826048
0.00150187
0.000831647
0.00185937
0.000883573
0.000264635
0.00272811
0.000844787
0.000855653
0.00081748
0.000771659
0.00142519
0.00149918
0.00128925
0.00089118
0.00157148
0.00122363
0.0008487
0.00123797
0.00117675
0.000915375
0.000997628
0.000787421
0.000320205
0.000779923
0.00027565
0.00247588
0.00249974
0.000806061
0.000912816
0.000718256
0.00100093
0.00185519
0.000849455
0.00083597
0.000847942
0.00132546
0.000858128
0.000908873
0.000908236
0.00186633
0.000852824
0.00087218
0.000871838
0.00228771
0.000859814
0.000798499
0.00193974
0.00148817
0.000891116
0.000698409
0.00253828
0.00146546
0.000915064
0.000806195
0.00144374
0.000597602
0.00109516
0.000828604
0.0016533
0.000924321
0.000958951
0.000962172
0.00191196
0.000801556
0.000866409
0.000896546
0.000632444
0.000394594
0.00081766
0.00215808
0.000845282
0.00245541
0.00218711
0.00103448
0.000847572
0.00082519
0.00101348
0.00151902
0.000974555
0.000984886
0.00112909
0.000889193
0.000967556
0.00092074
0.000863951
0.00252041
0.00102217
0.00096512
0.00114423
0.00139588
0.000900419
0.000392435
0.00121567
0.00131249
0.00122249
0.00159312
0.00168984
0.00129921
0.000911935
0.000844111
0.00165928
0.00169707
0.000959901
0.000945364
0.00198492
0.000836057
0.00091221
0.00260526
0.000876854
0.000934683
0.000796682
0.00228595
0.00219195
0.00300972
0.00139857
0.000894027
0.00129683
0.00332849
0.000834903
0.0022266
0.0012244
0.00114401
0.00164072
0.000802455
0.00120979
0.00176534
0.000547821
0.000787057
0.00107124
0.000965597
0.000790993
0.00160884
0.000713933
0.00192456
0.00108987
0.00083258
0.00185598
0.00116531
0.00123123
0.00242012
0.00134586
0.00125673
0.00125924
0.000512959
0.000580437
0.00104518
0.00203124
0.000803162
0.000871249
0.000829891
0.000747828
0.00120411
0.00045776
0.0016833
0.00186772
0.00239232
0.00100685
0.00241062
0.00159709
0.00116426
0.00128739
0.000835637
0.00242069
0.00147691
0.000980827
0.00123821
0.00195707
0.00176501
0.00102545
0.00458913
0.00198878
0.000724929
0.000774651
0.000909518
0.000815917
0.00038582
0.000837186
0.00137462
0.000954486
0.0013216
0.000976706
0.00116354
0.00169459
0.00464212
0.000758791
0.000857582
0.00109935
0.00139975
0.000916346
0.00111034
0.00111154
0.00106527
0.0027028
0.00140623
0.00106207
0.00143025
0.00159402
0.00114902
0.00113533
0.000975798
0.00134185
0.00298918
0.00489158
0.00461438
0.00484672
0.00111463
0.0020193
0.000867029
0.000925157
0.00112571
0.00124536
0.00117306
0.00328706
0.0011532
0.000958531
0.000977541
0.00098138
0.00173874
0.00138446
0.00322923
0.000474429
0.000578457
0.000454159
0.000455327
0.00430397
0.00073638
0.00159454
0.0029728
0.000792858
0.000762075
0.00278437
0.00141807
0.00135874
0.00298421
0.000798575
0.00245602
0.00160285
0.00124785
0.00106042
0.0012617
0.00330532
0.00180404
0.000315755
0.000857952
0.00538279
0.00450225
0.000989949
0.00529135
0.000861578
0.000871839
0.00117872
0.00125238
0.00225239
0.00175489
0.000952575
0.000590158
0.00119721
0.00106096
0.00284084
0.00165907
0.000857484
0.00105353
0.0014205
0.00138785
0.000915824
0.0016137
0.00139691
0.00295572
0.00479402
0.00138138
0.00147834
0.00387189
0.000812634
0.00107729
0.000772536
0.000752326
0.00476933
0.00137909
0.00503854
0.00149878
0.001119
0.00206692
0.00101901
0.0028799
0.00323448
0.00292806
0.00123473
0.000730035
0.000832472
0.00411997
0.00210988
0.00133395
0.00115372
0.00108328
0.000497733
0.00160762
0.00238221
0.00489968
0.00165101
0.00243714
0.00372058
0.00104466
0.000862464
0.00334769
0.00109244
0.00031782
0.000284686
0.00167759
0.00104319
0.00163482
0.00337856
0.00136946
0.00153362
0.0007968
0.00196179
0.00109609
0.000788945
0.00109447
0.00103644
0.00186527
0.00210652
0.000795168
0.000850723
0.00102168
0.000590709
0.0013143
0.00471286
0.000649004
0.00163791
0.00275061
0.00130788
0.00218943
0.00122351
0.000924391
0.0012356
0.00047972
0.00106726
0.00231903
0.00127204
0.00110438
0.00102024
0.00106351
0.00150417
0.00183395
0.000403548
0.00297322
0.00155832
0.00145528
0.00075287
0.00148335
0.00347428
0.00121216
0.00286629
0.0007652
0.00376057
0.00223403
0.00301639
0.00102817
0.000842908
0.000968238
0.000985199
0.00168403
0.00127779
0.00119349
0.00188331
0.00126016
0.00102956
0.000754196
0.00185281
0.00165246
0.00174788
0.00232096
0.00462388
0.000943213
0.000799556
0.000798162
0.000579694
0.00252857
0.00156724
0.00274912
0.00534221
0.000997839
0.00165396
0.00151196
0.0010578
0.00114512
0.00109147
0.00122152
0.000724061
0.000677752
0.00209999
0.000969203
0.00101004
0.000958583
0.000932624
0.000990574
0.00164094
0.00245083
0.00182841
0.00100773
0.00191576
0.00162057
0.00207059
0.000847648
0.00688896
0.000735384
0.00120163
0.000549591
0.0021909
0.000637542
0.000849336
0.00319409
0.00490495
0.00110942
0.00270302
0.000822983
0.000380718
0.00181284
0.000836597
0.00144147
0.000640931
0.000740255
0.0010474
0.00277327
0.00119308
0.00153897
0.00284481
0.00173675
0.00112454
0.00249292
0.000394464
0.00164986
0.001289
0.000969867
0.00147892
0.000889021
0.000929336
0.00309917
0.00146341
0.000920935
0.00228593
0.00104338
0.00164617
0.00450786
0.00197905
0.000916654
0.0044848
0.000555789
0.000841301
0.00231792
0.00291006
0.00103543
0.000921244
0.00108362
0.000981047
0.00104815
0.000297741
0.00179729
0.00180439
0.00079894
0.00162883
0.00303203
0.00141599
0.00103838
0.0012159
0.00135973
0.000934353
0.00478143
0.000997545
0.00128403
0.000983502
0.0044853
0.00182391
0.0030708
0.000525832
0.000882274
0.000963112
0.000961682
0.00048986
0.00077152
0.000941162
0.00239958
0.00121206
0.00161654
0.000764709
0.00223004
0.000816399
0.0010527
0.00155195
0.000681713
0.00125496
0.000992045
0.00144801
0.000848223
0.000763342
0.000754659
0.00483301
0.000941809
0.0009556
0.00196108
0.0017397
0.00147005
0.000785784
0.00134706
0.00210301
0.00110076
0.00170111
0.00445734
0.000733942
0.000632796
0.000816619
0.000548077
0.000419793
0.000419939
0.00140543
0.00196756
0.00140486
0.00336716
0.00277767
0.00164305
0.000976492
0.00139475
0.00105632
0.0011381
0.000878762
0.00141639
0.00156828
0.000912621
0.00111169
0.000317527
0.00206285
0.000878825
0.000903967
0.000854998
0.00106175
0.00374076
0.0020622
0.00118789
0.00154688
0.00336443
0.00109531
0.00149561
0.000460635
0.00106108
0.00186019
0.000953655
0.00114305
0.00191853
0.000855296
0.0018451
0.00212552
0.000747094
0.000812903
0.00275997
0.00187193
0.00161925
0.00232847
0.001637
0.00205963
0.00136511
0.00109456
0.00108881
0.000945458
0.00166366
0.00080589
0.000750538
0.00197745
0.00110204
0.0017792
0.000965827
0.000890362
0.00248282
0.000857281
0.000813076
0.000723926
0.00141308
0.00122416
0.000866322
0.00248384
0.00132944
0.00141028
0.00252346
0.000685318
0.00113729
0.00177863
0.00219309
0.000967835
0.00125416
0.00125781
0.00073953
0.00105218
0.00207982
0.0025285
0.000824997
0.00150483
0.000761874
0.00125765
0.000465066
0.00264851
0.00174282
0.00170767
0.00187193
0.000851482
0.000929774
0.000761275
0.00264795
0.000504921
0.00142841
0.0017151
0.0010958
0.00314175
0.00234986
0.00121925
0.000755711
0.000796623
0.000678092
0.00189157
0.00520528
0.0016667
0.00083592
0.00392526
0.00173984
0.000426009
0.00116156
0.00119032
0.00089025
0.00147186
0.00168835
0.000949553
0.000901511
0.000932747
0.00215073
0.000917533
0.000881482
0.000937222
0.00121233
0.00080538
0.000844311
0.00149194
0.00192482
0.000805685
0.00114746
0.0017497
0.000860702
0.000680529
0.0011477
0.00146897
0.000812973
0.000984308
0.000420541
0.000464078
0.00100157
0.00168389
0.00114069
0.00123945
0.000775868
0.0039542
0.000774841
0.000967058
0.000806465
0.00195996
0.00139755
0.00197964
0.00118118
0.00207368
0.000854693
0.000850866
0.00072385
0.000849739
0.00102397
0.000484401
0.00106614
0.0013982
0.000440424
0.00134095
0.000744459
0.00110495
0.00133684
0.00175133
0.00172904
0.0016392
0.00192174
0.000983887
0.000839451
0.00420457
0.000870817
0.00122396
0.00200819
0.000910552
0.00198898
0.00085142
0.000807521
0.000671898
0.00157085
0.0015386
0.00275512
0.00384414
0.0058192
0.00114245
0.00107986
0.00104289
0.000755477
0.00338589
0.00107191
0.00142897
0.000345221
0.00157994
0.00168349
0.000997065