/*--------------------------------*- C++ -*----------------------------------*\
| =========                 |                                                 |
| \\      /  F ield         | OpenFOAM: The Open Source CFD Toolbox           |
|  \\    /   O peration     | Version:  v1912                                 |
|   \\  /    A nd           | Website:  www.openfoam.com                      |
|    \\/     M anipulation  |                                                 |
\*---------------------------------------------------------------------------*/
FoamFile
{
    version     2.0;
    format      ascii;
    class       volScalarField;
    location    "0.98";
    object      epsilon;
}
// * * * * * * * * * * * * * * * * * * * * * * * * * * * * * * * * * * * * * //

dimensions      [0 2 -3 0 0 0 0];


internalField   nonuniform List<scalar> 
1466
(
8.97207
36.5677
9.182
93.8841
5.5724
21.2327
4.0345
39.3723
9.36546
46.9601
59.6946
42.8424
5.88499
4.87333
25.4927
80.4578
23.6475
99.7966
109.959
64.9851
110.029
64.9742
82
53.3401
7.39778
9.01529
43.5064
84.8327
6.28648
51.0946
69.3448
10.9466
9.0721
95.7103
124.367
54.8548
92.9135
29.2717
81.2669
2.08899
4.66794
59.7389
72.5417
6.52179
2.55069
18.4999
79.645
3.01156
48.0597
4.21249
16.2189
46.5608
27.6059
3.51317
13.9007
6.81902
13.3085
64.3559
5.7635
55.9013
19.0612
5.19028
2.30845
29.2639
76.779
30.1008
156.612
55.9214
34.485
10.5822
56.1795
147.163
83.0033
6.98344
14.9516
81.1123
5.13227
2.39814
22.6717
71.3733
58.0784
74.5132
9.67544
81.3421
97.295
144.404
85.877
74.8057
65.2358
43.1667
12.1309
45.8681
125.521
6.07849
16.8002
10.931
34.0573
72.1455
8.63965
6.23149
22.1768
10.9174
2.61319
75.3757
82.2982
56.3586
35.928
3.48449
78.405
10.3538
14.981
98.8217
8.69029
64.4963
55.869
21.0279
49.597
41.1625
4.12148
1.92697
91.9632
6.04181
2.40127
7.79528
2.92745
61.1443
44.462
79.3977
50.0469
32.1347
74.7398
54.0763
80.8238
52.023
14.1939
4.72704
2.14584
18.4074
4.14989
1.8695
5.36601
93.2005
69.0581
74.8386
68.9721
163.298
10.9226
17.3499
49.8898
95.1515
14.0906
32.8512
39.5237
8.96601
38.7301
63.1791
74.1035
78.3849
11.4772
46.4535
10.269
58.4923
127.868
80.5529
103.393
79.676
59.9129
89.0659
92.0965
39.6568
102.728
8.32769
3.24597
35.8245
29.7971
7.55846
42.9425
61.0959
12.9488
73.5072
8.95554
27.7487
128.729
2.9445
77.3345
146.204
100.7
47.6949
36.3838
38.7149
114.265
24.5186
114.464
172.217
42.63
17.5705
10.393
159.511
111.559
185.046
72.0462
40.6273
47.4417
26.8277
42.6273
92.2901
127.941
28.4361
11.3207
60.2286
96.3136
85.9532
128.52
93.9067
114.911
77.9576
145.226
99.1433
54.3299
55.3125
85.0026
22.4287
81.7626
21.5521
86.1411
80.6903
58.1524
3.13223
13.0934
21.4623
42.337
82.5602
186.512
136.84
14.2329
71.1791
64.9712
82.2555
20.5495
110.8
52.1856
70.2795
39.5199
198.227
16.759
53.7094
10.6087
6.98356
70.9758
34.7307
132.374
83.1162
25.516
49.1804
7.96274
15.7245
73.6819
12.0372
113.736
121.638
90.7535
79.1874
51.611
21.3396
64.4583
3.36998
39.1043
43.4475
100.159
11.8553
155.533
136.212
56.553
11.9817
13.2364
25.915
17.1148
58.3194
99.7797
55.312
19.1446
53.2561
77.3382
64.8645
60.5223
2.92607
54.847
51.0029
7.05874
20.2297
23.5962
9.18996
7.54417
13.0369
45.9824
38.0329
223.343
4.39839
56.6555
18.5628
3.62117
33.2016
5.96109
8.36956
82.1998
12.6821
8.65751
10.4748
38.3763
118.92
31.8382
108.965
58.3174
34.474
49.8249
43.6637
103.488
32.9759
5.28687
28.241
36.7064
168.538
113.604
16.4819
81.8592
16.9892
3.2778
34.0756
13.8532
31.0351
74.5903
18.3459
10.621
35.9661
92.4263
16.0853
102.585
18.9835
10.2998
5.47889
2.42697
31.5601
19.8648
70.2589
41.1655
6.87043
62.8415
42.3669
40.3861
92.5894
31.2932
13.1078
62.1802
115.137
75.2987
108.771
86.0623
19.7327
8.17898
41.5016
84.6841
95.7366
69.5845
42.9789
7.24552
187.755
28.082
27.1307
62.8593
39.5146
35.1473
111.624
108.058
31.245
12.9398
94.2994
52.5497
111.018
5.76359
57.6401
55.5303
44.1997
62.7861
68.6163
51.1008
48.3359
15.9433
14.1226
8.52933
3.95478
14.8089
31.4101
36.904
29.8348
21.2355
8.82491
4.19371
108.988
16.083
20.0998
2.94019
2.28648
69.7032
5.35619
47.5717
100.606
84.946
29.4459
122.557
110.731
25.3233
98.3129
123.271
108.842
73.7731
6.59703
5.48573
50.5051
32.7354
10.8668
80.3238
82.4977
9.86675
129.647
7.16355
3.31842
56.0874
102.105
5.66261
3.02815
53.4855
10.4809
85.4153
219.834
31.8831
13.3502
7.03298
8.35928
3.90547
47.6866
6.80018
17.8309
52.7159
12.8336
27.612
9.12252
26.7607
33.3706
7.81129
59.9335
33.6677
6.86673
7.72205
11.3875
19.8505
15.0575
9.153
29.0342
11.5366
29.6313
8.19889
12.8953
11.2491
45.5489
52.1194
6.47953
32.9312
10.2572
6.02563
30.098
7.76191
20.7524
51.4204
1.99254
28.8805
5.66441
2.35995
50.7809
111.54
47.7127
36.1802
94.2988
87.0602
101.699
74.0284
23.3928
4.98077
3.42969
123.16
74.5227
84.0759
82.3251
17.271
35.6798
25.412
44.9577
80.8441
52.6109
42.942
53.8793
73.5753
94.1262
51.0869
84.2881
14.0335
68.6826
67.1501
34.2612
5.42027
62.8997
26.0467
63.2327
32.827
171.328
80.726
49.0595
13.8649
10.1927
20.364
28.9429
74.6534
6.42856
128.346
27.8958
54.7476
17.3356
8.86529
62.8502
20.585
93.9192
8.9903
199.796
115.071
42.0509
57.6438
10.9818
34.354
75.9648
17.1014
98.1994
21.8425
92.1767
24.6227
29.6361
23.9987
30.933
27.4346
23.9837
117.525
31.4298
82.9804
5.71297
7.07322
54.7727
182.825
70.4477
64.5187
44.0324
57.344
17.6696
89.8555
92.6653
23.1741
39.1867
15.6563
25.0457
38.8
126.954
79.3711
103.996
85.8604
126.503
26.2029
51.3483
15.6842
106.758
12.8797
93.3973
60.6135
71.4714
36.4827
102.818
78.6108
57.8285
57.2243
28.4613
96.0711
8.8808
47.8992
31.5527
84.5182
26.3632
50.7656
76.2211
131.615
75.286
72.9488
56.9258
23.3352
66.2963
42.8225
14.3171
15.3819
30.0947
205.119
59.7716
27.686
1.68316
38.433
87.0208
13.1169
118.916
22.7985
36.9116
108.772
32.5857
52.72
27.9249
25.4498
100.389
29.4043
3.55297
23.6777
19.994
40.0903
74.6697
217.349
57.4328
70.6803
95.5985
59.6525
23.2548
26.1694
16.7252
92.9722
12.1808
92.7915
76.2255
47.8819
88.5117
124.036
82.1
58.231
23.2399
106.999
14.4971
57.2622
101.275
59.5082
28.8649
93.7616
11.3827
33.7732
6.60038
114.379
102.14
6.26671
168.633
14.2733
6.15729
132.517
92.6972
7.97827
14.4823
88.7084
29.7697
104.658
36.2229
55.2531
5.34206
12.5165
17.0545
54.7588
5.90167
53.8127
4.21414
35.3827
6.14051
12.761
19.4138
83.0334
12.9645
10.1139
149.817
18.1597
116.23
25.8824
8.09758
34.7444
11.4405
113.592
18.9036
16.2386
62.7288
19.4493
7.59834
51.9101
74.0652
27.9975
51.7626
113.756
22.7497
9.3928
14.1418
79.297
63.6885
27.6104
7.59864
7.71847
68.9683
15.5079
134.688
7.5726
67.2959
126.281
93.0809
49.0811
74.1038
69.752
57.4369
70.1141
100.852
154.757
55.2003
192.354
108.134
86.6999
14.1474
21.6969
7.72953
63.239
110.088
65.1477
5.69385
131.875
80.5324
116.412
83.32
4.17631
110.447
94.1834
55.0583
98.0607
4.87467
2.92338
5.6565
33.0175
20.0457
21.6227
49.2369
84.1988
66.3847
10.0273
5.77814
114.337
112.264
158.698
88.728
14.4845
107.208
92.0358
5.99439
28.4952
44.6786
140.845
46.425
76.9001
120.882
70.6125
135
26.4801
8.53207
2.6937
7.30679
59.114
112.798
40.5863
16.3209
26.473
117.172
20.1526
12.9837
87.6783
32.9072
87.58
6.14801
38.813
90.4827
74.0631
38.1906
38.565
89.0121
100.898
6.74667
32.3076
16.5243
108.11
60.2349
8.91757
10.2325
8.64918
61.3642
101.401
11.9376
39.3159
2.85584
12.5892
14.228
62.5003
89.0704
120.503
56.1384
76.9809
46.5902
33.8042
11.5327
84.2455
82.7575
13.3895
91.0214
101.405
80.2164
22.6049
61.2964
4.54049
10.1421
92.8924
13.0096
18.2596
75.3162
71.783
87.8592
12.8415
121.817
15.0249
26.6845
15.1045
13.9029
8.82953
12.2376
18.3194
107.507
90.546
9.49984
81.06
82.0085
34.4596
95.1644
37.0282
58.3953
88.506
61.4227
101.074
37.0957
30.9889
24.6927
68.1037
22.5386
65.1468
98.7604
130.638
100.267
10.3676
15.2815
8.93577
36.4338
110.01
251.397
31.128
51.6082
37.4551
8.44194
51.0643
11.4524
119.894
10.371
94.4405
91.3393
101.77
85.7414
122.98
114.908
118.979
121.062
163.179
166.724
186.23
168.013
164.773
165.525
165.919
152.987
210.916
131.501
147.24
236.376
251.077
160.313
225.685
164.548
159.656
150.978
82.6411
96.7269
6.22419
8.36526
54.5379
10.4896
11.9259
5.58084
4.29473
24.7842
118.175
74.8956
109.526
20.5374
31.6273
12.2993
47.3281
6.95453
51.3841
25.6625
121.618
34.8573
46.4646
126.213
73.6967
141.231
5.12047
2.43665
8.25821
9.21036
7.79993
40.2402
51.2076
50.1462
90.5927
8.24723
3.28805
6.68711
12.8926
13.0968
24.3816
100.343
5.4585
2.39226
30.7656
98.1344
42.4603
15.8586
52.1955
46.3319
67.9256
80.8168
97.2121
60.1552
8.52571
57.3077
100.07
47.4677
126.909
35.2094
138.256
36.201
73.9865
129.405
2.32445
52.3398
21.1965
59.878
4.68355
98.6216
70.5179
98.0678
29.0303
29.6497
29.3401
78.2201
21.9353
12.453
7.20677
78.36
131.086
104.293
21.0463
139.067
110.637
27.7068
133.574
65.2902
10.5762
2.4269
34.0724
56.8855
127.565
208.64
62.545
63.3209
5.14566
13.7239
46.667
43.3803
73.892
13.3886
65.2213
5.64191
2.71614
2.06675
36.2742
7.90373
43.8712
80.2776
10.0457
9.23295
136.78
11.5725
78.0171
20.2754
55.734
114.841
103.734
121.343
82.894
105.791
90.6081
100.07
67.0556
86.9153
56.146
3.11616
7.69093
122.045
33.5775
9.91557
20.1363
62.2154
34.0371
11.5957
54.9867
7.61703
36.0763
40.6373
6.41955
2.50638
39.2748
10.714
22.6128
13.3849
36.5632
122.241
5.76338
2.38079
10.1615
86.1819
39.9383
5.81416
27.2321
119.286
14.0442
24.7239
10.4791
7.66161
29.8629
41.725
6.47242
96.7761
90.7239
7.10028
2.59508
2.50442
47.4496
30.6717
11.4921
6.3365
12.341
10.947
7.06677
12.5371
12.6859
5.01067
2.65513
8.26914
132.845
12.6095
12.9032
12.7378
13.0176
41.8054
45.8498
10.7293
11.0844
12.2877
12.7184
66.0114
85.2051
55.0221
28.3423
19.9935
102.11
114.128
32.7647
113.601
74.5381
37.4709
7.09553
3.01484
6.69125
115.579
62.87
128.404
44.1794
8.27459
134.906
43.4586
48.3331
54.9893
121.047
97.6866
122.903
18.2227
90.0251
32.3701
108.3
83.7222
142.295
7.07443
14.4371
14.4242
62.846
44.4061
64.0459
72.6578
54.2973
7.97884
22.017
19.0584
38.8135
81.3004
84.3396
118.591
109.207
7.87339
2.61408
29.5314
52.7457
46.699
22.4756
12.0729
9.25324
41.8463
103.673
49.1625
58.1672
95.9097
7.91815
8.13537
22.3688
64.8463
36.5754
109.356
22.8766
87.8747
130.173
81.848
89.9449
121.919
37.2619
90.4016
92.1703
3.28184
7.57537
26.2076
33.5566
8.36538
2.69044
75.3634
66.9481
65.1819
102.842
110.854
123.786
39.1307
30.2684
76.3011
71.047
104.379
104.41
9.19764
9.80878
42.1532
58.3805
10.8376
92.5448
34.3317
10.9442
52.4284
45.1709
20.9996
17.2438
10.1013
55.4235
8.31524
18.7932
41.2668
36.9902
23.0443
234.651
6.78041
9.47637
22.4194
5.12773
7.4441
39.6895
5.32234
2.36021
6.36447
52.3903
66.1171
117.068
105.459
95.1238
8.10249
67.6101
6.91582
65.0367
50.599
3.01298
47.7473
47.5507
79.1499
66.3911
65.0055
69.2892
97.3262
7.48622
4.45145
102.929
16.5349
3.40826
32.2353
6.57011
89.8102
8.98116
121.379
8.85703
131.253
48.3846
2.33653
117.529
27.5206
7.29054
91.6709
76.4245
38.3274
74.1128
41.7775
103.446
46.7851
78.4854
6.59674
32.1551
30.8773
111.093
39.8355
117.322
137.987
60.5333
145.629
170.25
152.166
7.31869
30.435
54.1706
10.3358
108.449
5.12426
68.6999
95.6207
13.7341
120.491
52.2303
6.34891
38.6172
31.42
6.59405
39.7259
13.9133
19.6541
15.731
210.338
113.352
67.0582
86.8311
6.01579
8.88439
112.352
69.3817
68.5846
65.7149
70.8305
72.5726
144.5
56.8641
44.9023
110.425
6.62061
58.0739
120.461
94.5055
17.6589
5.38803
5.50473
5.04998
2.47728
11.2856
22.1004
81.6454
8.9357
11.8856
44.4032
9.64801
76.3162
101.877
90.5359
4.82613
89.8906
38.1059
6.87332
5.40344
5.96206
8.93178
202.325
10.6694
93.9983
20.2787
17.7723
7.25452
4.15822
99.3473
6.80907
10.5549
73.9172
10.9804
93.4002
84.9594
118.113
59.1086
41.9228
22.6081
23.9034
54.825
14.6238
32.3858
89.5208
4.21313
59.412
76.1141
30.4332
65.5704
51.3877
113.976
22.2192
47.9152
11.2808
51.7805
104.679
35.5621
8.15405
7.66643
14.6763
12.8519
99.4388
78.4722
39.8654
50.5977
143.083
25.8389
96.7346
56.0879
64.5179
58.4463
8.73688
68.6512
95.4074
7.07558
35.9952
97.1396
17.5179
137.823
35.4855
72.5299
126.952
70.123
105.785
101.391
95.4712
97.6758
3.25953
5.3742
10.0051
3.62942
26.1193
9.45693
62.0576
32.2112
76.8751
51.3902
111.369
72.5003
116.642
10.3926
111.758
94.2211
10.3158
9.17314
128.724
41.8782
13.9166
15.8013
70.4964
35.0324
169.818
31.1843
22.3965
9.97432
10.4436
66.9228
76.2003
56.8142
13.0413
187.44
70.9174
47.9138
126.17
7.97995
15.0649
80.6641
66.3204
4.76367
7.60375
41.306
10.0235
76.9785
126.487
31.6121
14.5847
46.2617
162.738
66.6456
64.71
36.0707
73.5404
10.526
7.85481
7.07619
5.4365
17.6267
2.33437
81.5286
6.75856
5.37367
120.618
12.5494
67.8501
29.784
23.3111
)
;

boundaryField
{
    frontAndBack
    {
        type            empty;
    }
    wallOuter
    {
        lowReCorrection 0;
        type            epsilonWallFunction;
        value           nonuniform List<scalar> 
108
(
99.7966
147.163
83.0033
5.96109
6.87043
18.1597
25.8824
8.09758
11.4405
19.4493
7.59834
27.9975
22.7497
9.3928
7.71847
7.72953
116.412
33.0175
20.0457
16.3209
12.5892
120.503
13.9029
34.4596
91.3393
101.77
85.7414
122.98
114.908
118.979
121.062
163.179
166.724
186.23
168.013
164.773
165.525
165.919
152.987
210.916
131.501
147.24
236.376
251.077
160.313
225.685
164.548
159.656
150.978
82.6411
8.36526
31.6273
141.231
9.21036
98.1344
138.256
36.201
139.067
65.2213
9.23295
103.734
100.07
67.0556
40.6373
39.2748
13.3849
39.9383
29.8629
41.725
90.7239
2.50442
2.50442
11.4921
12.341
12.5371
12.6859
132.845
12.6095
12.9032
12.7378
13.0176
41.8054
45.8498
10.7293
11.0844
12.2877
12.7184
66.0114
113.601
74.5381
8.27459
54.9893
83.7222
142.295
49.1625
58.1672
130.173
81.848
66.1171
10.3358
112.352
65.7149
11.8856
38.1059
10.6694
7.66643
14.6763
143.083
)
;
    }
    inlet
    {
        type            fixedValue;
        value           nonuniform 0();
    }
    outlet
    {
        type            zeroGradient;
    }
    wallInner
    {
        lowReCorrection 0;
        type            epsilonWallFunction;
        value           nonuniform List<scalar> 
126
(
29.2717
81.2669
2.08899
4.66794
59.7389
72.5417
6.52179
2.55069
18.4999
79.645
3.01156
48.0597
4.21249
16.2189
46.5608
27.6059
3.51317
13.9007
6.81902
13.3085
64.3559
5.7635
55.9013
22.6717
10.931
34.0573
72.1455
8.63965
6.23149
22.1768
10.9174
2.61319
75.3757
82.2982
56.3586
35.928
3.48449
78.405
10.3538
64.4963
55.869
7.79528
2.92745
74.7398
54.0763
4.72704
2.14584
18.4074
5.36601
127.868
29.7971
10.393
113.736
121.638
90.7535
3.36998
39.1043
155.533
136.212
56.553
9.18996
13.0369
38.0329
223.343
36.7064
168.538
113.604
19.7327
62.8593
108.058
111.018
108.988
20.0998
102.105
85.4153
219.834
13.3502
8.35928
17.8309
7.72205
15.0575
11.5366
171.328
199.796
182.825
217.349
168.633
192.354
36.4338
251.397
121.343
84.9594
54.825
187.44
47.9138
126.17
7.97995
15.0649
80.6641
4.76367
7.60375
41.306
10.0235
76.9785
126.487
31.6121
14.5847
46.2617
162.738
66.6456
64.71
36.0707
73.5404
10.526
7.85481
7.07619
5.4365
17.6267
2.33437
81.5286
6.75856
5.37367
120.618
12.5494
67.8501
29.784
)
;
    }
    procBoundary1to0
    {
        type            processor;
        value           nonuniform List<scalar> 
29
(
2.04329
2.04329
3.5537
3.46548
42.8304
38.6486
127.292
26.675
77.6024
8.27888
19.7359
38.6486
3.5537
1.7122
66.4402
21.837
42.8304
53.052
3.46548
1.81698
10.8304
6.16633
62.5729
10.8557
10.8557
62.5729
7.38368
78.4221
7.38368
)
;
    }
    procBoundary1to2
    {
        type            processor;
        value           uniform 5.29537;
    }
    procBoundary1to3
    {
        type            processor;
        value           nonuniform List<scalar> 
48
(
90.7181
80.5674
84.3204
84.3204
53.4688
87.6961
87.6961
10.2319
75.4658
7.6224
4.51213
7.6224
8.13364
4.9503
4.68696
8.13364
4.83641
4.83641
4.3887
4.3887
3.30475
3.02001
4.21799
22.1598
22.1598
2.19105
2.386
2.386
3.77617
43.2838
11.4582
3.77617
10.2319
56.8029
1.82563
43.2838
26.4887
4.51213
89.0395
45.1596
4.19804
42.0447
56.8029
1.82563
4.92302
66.6561
48.1982
4.19804
)
;
    }
}


// ************************************************************************* //
