/*--------------------------------*- C++ -*----------------------------------*\
| =========                 |                                                 |
| \\      /  F ield         | OpenFOAM: The Open Source CFD Toolbox           |
|  \\    /   O peration     | Version:  v1912                                 |
|   \\  /    A nd           | Website:  www.openfoam.com                      |
|    \\/     M anipulation  |                                                 |
\*---------------------------------------------------------------------------*/
FoamFile
{
    version     2.0;
    format      ascii;
    class       volScalarField;
    location    "0.86";
    object      p;
}
// * * * * * * * * * * * * * * * * * * * * * * * * * * * * * * * * * * * * * //

dimensions      [0 2 -2 0 0 0 0];


internalField   nonuniform List<scalar> 
1431
(
91.2346
89.4191
88.096
90.8793
90.8186
86.5814
88.2478
96.9375
90.5944
90.4518
89.1323
89.3759
89.1241
102.642
89.1338
89.6379
89.5198
89.7344
90.6343
89.3683
90.8741
90.4072
88.9058
103.558
79.1925
89.7741
72.3537
101.779
90.4998
90.314
113.188
119.974
82.3215
86.8754
88.7549
87.7034
91.1251
95.9943
86.5835
96.0879
110.068
89.4826
87.0774
89.0099
81.6777
90.8891
90.9718
118.266
114.194
97.4098
90.1395
90.4156
90.098
86.6971
88.4943
111.167
89.6951
87.8733
79.1192
90.8438
89.7369
89.0152
90.5547
96.8355
98.8877
89.4849
86.8187
86.3566
90.5187
97.2496
87.0487
88.9357
88.9042
86.9147
89.2002
82.505
91.0111
82.3108
97.2565
73.7396
96.8607
89.9827
88.9627
89.9144
80.9371
90.9253
90.7784
89.074
104.504
89.7268
90.2903
89.5702
90.9049
95.7227
89.8939
90.9314
89.2568
99.0622
90.5702
113.154
90.5313
95.8816
91.3015
90.7166
89.6096
89.0492
96.9764
113.414
115.115
90.938
75.2856
89.329
97.4603
89.4081
89.3687
90.6606
89.7359
89.2973
105.411
82.7426
94.3484
89.0602
90.211
108.281
96.555
88.7103
106.248
89.14
91.1197
96.6861
89.0844
114.401
103.749
90.9377
91.0114
90.3353
88.9167
89.5333
90.9316
113.954
91.3949
91.1118
95.977
114.302
115.538
94.8338
98.5208
113.869
88.9709
112.689
97.5367
100.002
88.8488
89.0609
88.8866
89.1852
96.8656
89.938
98.242
107.524
89.6965
89.0813
91.3391
89.1656
90.5912
71.7536
90.9425
95.1191
90.2316
91.1491
106.134
89.1931
112.035
97.7464
96.4864
89.1339
88.661
98.4199
90.4356
104.134
96.8567
89.5873
104.317
89.9741
96.2508
107.195
95.9357
86.2532
90.2872
96.8337
90.173
89.5401
90.9647
96.6649
90.1131
94.0412
96.9862
116.676
88.974
88.9494
88.804
116.522
111.115
108.768
96.8969
75.4417
90.9407
97.2789
89.0542
100.873
96.6608
97.5427
108.977
97.1884
89.6558
87.5013
99.1724
89.6702
89.5224
96.889
96.8904
69.2493
96.1442
100.842
97.5643
91.6153
110.028
90.3358
101.861
113.521
90.8234
90.3138
97.135
95.3172
96.6092
97.2647
98.2867
91.3044
96.8115
88.6321
98.7073
109.395
90.9029
89.4587
89.2207
89.2282
96.1456
88.5442
86.7125
105.013
102.852
90.8779
90.4628
116.946
90.4905
97.7649
90.1321
88.6591
96.5989
97.1168
97.602
89.2532
90.4471
91.2444
96.8381
100.957
91.9916
95.7859
102.964
90.9767
96.9773
113.109
101.821
100.821
97.2296
93.953
91.0465
89.5896
89.7661
90.4224
90.1609
88.6073
89.7756
90.5943
93.9594
88.4
90.9016
102.759
103.828
98.0158
94.7399
96.8095
102.635
90.428
104.358
99.458
90.9957
102.258
88.7374
105.746
96.9964
111.685
89.112
116.077
89.069
88.9325
96.9739
97.4744
96.8267
90.1887
97.7959
96.3074
89.7746
90.9363
88.9667
89.1286
90.7823
88.6932
96.2059
90.3883
88.8622
90.3561
91.7645
88.6645
90.8542
90.3991
96.7584
90.4346
110.55
97.5041
89.7369
89.0861
88.6044
90.3318
96.5938
90.9568
90.3548
90.2894
90.2138
89.1122
88.893
96.8528
90.3969
89.1793
101.795
89.1133
97.5153
89.0887
90.5808
90.3668
89.0852
89.7216
89.7213
89.8358
89.182
89.0153
89.7289
89.1358
89.8312
88.7096
90.2385
89.1339
89.9068
90.6057
90.5474
89.1101
90.0465
88.9301
89.856
89.7666
89.2113
88.6228
90.4062
105.773
90.0298
89.561
89.6108
96.2238
95.454
89.8944
89.5308
89.1129
90.4624
89.7504
89.0464
89.975
88.8106
89.1684
89.7948
90.5919
89.0791
88.6626
108.689
96.2132
90.4225
89.38
90.2236
97.214
90.7994
96.9249
88.7088
89.7476
97.1445
90.1138
89.8646
93.7013
88.7624
115.841
90.2247
89.6003
94.0703
89.6712
89.7465
86.5663
114.927
129.831
89.5237
90.9854
89.0537
90.187
88.6524
90.6701
90.6601
88.853
90.6278
89.455
88.9403
90.4361
81.2485
89.2223
81.4986
88.7896
89.9006
90.6914
88.6187
89.2347
90.6752
90.4255
88.8722
86.5609
88.2323
92.5969
90.3782
90.08
88.5954
90.8346
90.8556
88.6533
88.1644
90.9122
90.8525
90.6678
90.9334
90.591
90.6271
90.477
90.5611
90.655
90.5258
88.6803
84.1715
90.4184
86.6739
87.2054
88.773
88.8864
90.2678
85.2126
86.9093
88.9457
85.899
89.6793
115.788
113.201
87.0735
89.02
88.6564
88.2846
89.4709
90.5295
90.5725
89.7523
99.5641
95.1787
115.742
89.1099
87.1962
90.7743
90.6524
88.4371
88.4747
90.5249
89.0884
92.9009
90.5492
89.8336
88.0694
89.4395
97.2796
89.1352
87.1735
83.6738
90.1523
89.1197
89.1833
88.4815
89.0719
90.7313
90.577
91.4672
91.1779
88.4788
98.02
89.7181
96.9097
90.5372
90.3613
84.3669
90.5788
88.8664
88.5977
88.7545
89.0417
90.2682
89.7579
90.6666
89.7306
90.6225
88.7181
89.7685
115.727
116.583
88.9549
88.7714
90.6867
90.6304
89.8631
89.4469
90.9186
95.1797
89.0804
89.2846
89.631
89.5919
89.3982
90.8048
90.026
96.7713
90.7148
89.0918
88.9876
88.9891
96.1418
90.673
88.6263
89.8402
89.5672
89.5116
95.1385
100.564
90.9317
88.9884
89.6324
90.597
81.7939
90.2486
90.8242
101.946
90.0287
89.1165
89.0871
90.8142
91.1989
90.8233
88.6821
89.6203
90.7483
90.2169
89.0433
98.6884
89.9007
96.8339
89.788
89.2619
88.8264
89.2253
89.7349
95.1194
90.0565
100.088
89.6429
88.0269
94.4389
95.6508
96.7058
89.0946
90.4639
89.8503
100.902
89.0861
89.7507
89.68
89.0782
89.6609
89.792
90.7895
88.9937
89.0789
90.8703
90.3018
94.5185
90.7742
90.2267
90.6429
92.216
99.924
89.9228
90.6401
90.2416
90.7425
89.0614
88.7306
89.6947
89.0813
89.4918
122.292
89.0561
90.4481
90.7067
96.6967
90.9018
89.4971
89.7451
96.6866
88.7219
90.7083
89.0648
104.263
93.2735
89.3224
89.3879
90.8681
96.7299
90.7688
89.1135
89.5162
89.2088
90.7609
90.5857
89.2816
89.7298
88.9757
99.1032
93.9135
90.9213
90.7072
97.0048
96.6386
90.2472
90.7544
89.03
90.6061
89.5945
90.0395
97.2764
89.1002
92.9825
90.7513
90.7495
89.6044
90.423
96.9085
89.6372
89.1213
115.59
114.886
87.253
89.541
89.0897
95.6566
89.2005
88.9464
89.2418
89.7197
89.8473
88.8043
90.6225
89.2394
89.5452
90.2895
113.899
89.0146
89.2363
91.3693
90.7585
89.0603
90.6352
89.0848
97.0144
105.831
89.4754
89.0719
100.99
89.0717
90.9617
128.235
92.9256
90.8031
91.2203
108.749
90.241
90.4586
89.0774
90.6473
90.548
97.6003
89.5151
90.476
107.939
91.2446
97.4284
98.4713
96.599
88.9873
89.0852
98.0359
90.5321
90.9156
107.038
90.3602
90.4331
89.729
106.47
105.836
89.7931
100.004
89.5348
88.9875
90.831
89.5617
89.0876
90.8633
117.134
90.1422
99.2951
98.0841
101.709
102.793
107.198
89.102
90.9208
103.325
105.154
103.563
90.1425
88.9334
96.7009
97.0553
97.4339
107.017
89.7289
105.239
110.163
101.798
96.5014
89.7736
89.1499
108.631
98.8499
104.388
89.5165
97.3013
90.5038
89.069
90.0259
100.725
90.5141
89.6209
90.6518
89.1049
89.1109
89.235
102.73
91.7773
90.3136
104.972
90.5074
89.0924
89.233
107.742
90.7308
99.065
110.12
139.873
96.0373
97.102
90.4953
89.0601
91.8457
96.2654
90.8848
89.126
110.184
89.0648
90.8158
88.7848
93.3435
89.7367
88.6132
91.0624
97.5387
96.3783
90.2645
90.3907
78.8934
98.2561
98.0266
95.4571
95.5775
95.706
98.9579
97.1064
101.873
89.6689
88.894
97.7108
88.9887
89.2657
89.0721
90.5236
89.6132
90.5147
89.1172
90.8406
89.0845
91.1045
90.6047
96.5009
88.7429
90.7944
98.2408
114.072
98.7086
95.4408
85.5503
112.291
89.0689
89.0895
89.1909
96.7784
89.6441
89.1411
88.7851
90.3017
120.806
88.9734
90.0414
89.4398
96.8905
97.0321
96.6786
90.3182
89.0835
89.6446
88.8081
91.1162
95.4224
107.527
90.6741
89.0806
115.443
98.0225
90.0579
89.3054
90.4431
106.17
86.9343
88.9067
89.7697
96.9357
90.3552
89.1307
89.2139
90.2146
97.2484
91.2128
88.8916
83.7018
82.2968
114.47
98.7454
87.4852
87.0271
97.159
90.7048
87.079
90.4779
89.0988
90.3856
89.1733
90.0993
90.0255
90.5807
90.589
111.272
113.523
98.8618
91.3225
90.3319
90.459
89.9122
96.601
90.3035
90.031
90.4923
89.4619
89.8316
97.3267
89.2747
89.1833
90.5835
97.3945
88.9371
96.7556
96.7864
98.7039
89.1734
97.1563
90.7843
107.864
90.3094
107.983
89.057
89.2436
89.607
89.3495
89.2706
89.9585
90.3314
89.7986
91.2352
89.2569
97.1094
90.659
91.1717
89.0053
72.6556
90.9919
89.8465
91.2033
90.8359
90.6141
90.1237
90.8307
107.921
89.0972
90.9354
89.6303
90.8796
89.3973
91.3072
91.0324
89.003
89.9142
89.4541
91.1658
91.13
95.4188
90.796
89.8826
90.816
90.4695
89.3296
85.9162
90.832
90.3113
96.8718
91.1444
91.1567
89.5384
89.4185
99.7942
90.752
90.0249
90.4872
86.8892
91.0833
96.4124
91.1989
94.2356
90.7352
97.2184
90.778
89.2822
97.6481
89.1124
90.0131
103.032
79.6621
90.9258
91.0836
89.1716
97.6541
87.1713
89.1815
97.3954
87.3208
89.3225
95.1235
90.4315
90.9649
90.5986
96.6825
99.8749
112.221
88.4499
91.5378
91.1387
89.8333
90.9305
89.3036
92.4417
88.6987
83.1631
99.8329
89.0992
88.8659
89.8534
89.4171
111.217
90.96
90.4349
89.0488
90.1931
88.7333
91.109
90.6021
96.7661
90.572
89.7027
91.7821
90.7305
90.5623
89.0727
90.6768
88.9106
82.2463
90.8565
105.349
89.0454
89.0556
95.8852
91.1133
89.5482
86.8499
88.6839
89.7946
99.6667
90.4865
116.222
90.6682
89.9622
93.1348
81.6176
118.544
90.5436
89.1546
97.1024
96.3661
91.0799
89.1086
96.1868
90.7644
95.5651
96.9624
89.8147
90.782
95.2346
97.8118
97.7722
90.6833
90.5514
89.9872
90.234
117.156
90.732
91.8694
112.972
96.9689
89.2982
90.3694
101.013
90.1746
117.666
94.5023
91.2269
88.8472
97.8664
91.243
93.195
90.5699
91.1031
89.1592
78.0597
89.0735
97.5082
89.2143
90.492
89.0688
100.854
88.7296
89.4662
90.6341
113.525
89.6551
114.515
89.2022
88.6873
108.533
110.891
88.6767
89.9607
97.7344
91.0106
80.6921
91.2155
89.7722
90.5085
86.7804
88.7326
97.8101
90.3506
91.2431
90.3929
88.8947
89.2905
89.0946
92.2304
88.7214
90.5504
89.1088
89.0795
90.5802
90.6175
91.0784
96.3438
80.9443
90.8994
90.5187
97.0972
82.8159
90.5406
89.0683
89.0565
88.9857
89.9602
90.6571
100.777
108.045
97.6083
82.1637
90.9153
90.3663
89.0604
90.8634
111.743
114.108
90.5445
89.0816
91.1744
97.2059
86.8761
89.7578
92.6559
95.3336
95.4991
114.989
90.2954
88.9213
90.6011
108.966
82.8518
110.833
91.0305
90.4829
92.6841
95.9724
89.9285
98.2231
90.4063
88.991
94.9328
99.4625
91.0582
90.0546
90.8945
80.8329
90.4734
89.0659
97.4143
88.97
89.8801
88.3993
89.935
89.5786
98.4744
92.5327
89.1422
90.8759
97.2256
96.9465
98.0567
90.9865
89.2952
89.895
90.1992
85.3496
88.9193
88.749
89.9768
89.7438
90.9244
95.4696
90.5901
89.5479
113.602
88.9968
116.318
95.9209
96.1679
98.6221
87.0572
90.8735
77.6405
90.9612
90.9257
81.1141
91.0213
88.7491
90.3878
89.7867
89.6691
92.42
87.2253
89.1307
90.3787
90.7191
89.0722
89.8009
115.197
90.6811
89.1113
96.7576
89.7943
90.2297
90.8485
90.4232
92.0328
90.8912
89.5851
89.1095
88.6954
95.8527
92.3323
96.835
94.9146
89.461
82.8238
88.9197
90.047
89.4055
89.6694
90.2765
97.2962
89.0451
96.4631
93.7628
90.3259
97.2733
99.7255
89.351
89.2146
120.462
126.12
88.8592
90.192
90.8759
90.9136
90.495
89.5512
95.389
92.5063
93.8992
89.087
91.2199
95.8576
89.8078
89.3241
89.1057
90.3593
90.9048
97.2091
89.2214
90.7942
90.623
90.9564
90.4688
96.9263
88.9054
90.7857
95.6071
99.2666
90.3215
90.4495
89.2916
90.8639
89.4117
90.5907
89.7812
89.779
90.8423
91.1425
88.6321
90.7339
88.6548
91.7306
86.1328
91.2319
90.4272
90.7362
88.7413
88.9999
90.9974
88.8044
97.993
89.1229
72.5708
96.6117
89.7413
90.7772
116.807
89.4707
90.063
86.8478
90.8585
89.137
90.635
96.5183
89.6003
89.0978
89.1482
95.2127
90.6003
89.5527
89.8154
88.9006
89.8257
96.7896
91.1052
89.1477
89.4354
88.6534
116.47
88.8026
91.4837
90.4664
90.7163
99.0333
89.0933
99.5473
98.2464
91.1588
89.1335
90.453
89.4802
89.8255
89.0772
89.1345
121.107
90.797
89.0655
100.951
88.8453
112.68
96.2953
100.285
90.7748
96.0105
89.5706
90.5519
89.2504
91.081
81.9883
90.4164
90.8971
89.1445
94.6197
89.1079
91.2203
89.124
91.2483
97.9288
97.2874
96.9926
90.4898
85.2399
95.2697
96.5723
97.4053
96.7732
88.7848
90.3968
90.8314
90.5997
97.7536
113.431
90.6467
90.6944
90.7598
90.5503
89.3292
96.8014
98.4166
79.5427
123.129
87.2034
87.7141
116.135
89.0315
89.545
97.2192
)
;

boundaryField
{
    frontAndBack
    {
        type            empty;
    }
    wallOuter
    {
        type            zeroGradient;
    }
    inlet
    {
        type            zeroGradient;
    }
    outlet
    {
        type            fixedValue;
        value           nonuniform 0();
    }
    wallInner
    {
        type            zeroGradient;
    }
    procBoundary0to1
    {
        type            processor;
        value           nonuniform List<scalar> 
29
(
88.3528
88.1151
86.5419
86.5419
81.0324
81.0324
115.26
86.4868
84.7131
86.5045
86.772
81.2441
86.6261
88.5249
115.592
115.925
80.5788
81.2671
86.4596
88.1092
115.795
115.681
82.4933
116.003
116.143
81.2671
116.746
115.164
116.003
)
;
    }
    procBoundary0to2
    {
        type            processor;
        value           nonuniform List<scalar> 
42
(
90.3854
90.3051
90.4519
90.4086
90.3154
90.3854
90.4519
90.2912
90.2503
90.1973
90.3777
90.3565
90.3777
90.3717
90.3411
90.5096
90.3411
90.2287
90.2035
88.4871
88.4871
90.2287
90.3042
88.9866
88.9866
90.3759
89.5925
90.4308
90.3828
90.3394
90.3394
90.4367
90.4116
90.3673
90.3049
90.4519
90.2491
90.4689
90.3828
90.2912
90.1833
90.2382
)
;
    }
}


// ************************************************************************* //
