/*--------------------------------*- C++ -*----------------------------------*\
| =========                 |                                                 |
| \\      /  F ield         | OpenFOAM: The Open Source CFD Toolbox           |
|  \\    /   O peration     | Version:  v1912                                 |
|   \\  /    A nd           | Website:  www.openfoam.com                      |
|    \\/     M anipulation  |                                                 |
\*---------------------------------------------------------------------------*/
FoamFile
{
    version     2.0;
    format      ascii;
    class       volScalarField;
    location    "0.43";
    object      epsilon;
}
// * * * * * * * * * * * * * * * * * * * * * * * * * * * * * * * * * * * * * //

dimensions      [0 2 -3 0 0 0 0];


internalField   nonuniform List<scalar> 
5794
(
1.53691
1.03634
2.84636
150.41
42.3697
1.15974
22.99
8.33385
97.6328
9.69268
35.2841
2.28602
12.8488
42.2686
1.80246
0.64319
151.551
57.2879
3.67588
1.62554
77.0042
0.958956
39.1554
5.24059
8.00511
76.0962
100.381
25.5801
91.5327
0.641735
6.12979
2.84109
21.7227
10.0058
8.63761
23.3247
4.41098
8.23246
58.9185
45.2967
19.195
2.20081
9.12807
1.26923
6.10082
46.824
2.98978
12.8645
7.86013
15.8298
0.193339
60.8606
5.32602
5.40194
0.296282
43.1111
3.00096
17.2169
5.69864
153.622
59.1928
0.767048
5.02989
3.19398
25.8814
0.687102
48.2208
26.3682
71.7328
1.4655
80.5778
61.3145
110.597
3.88771
67.9325
17.5199
13.7855
49.0502
1.11835
1.75287
1.05938
2.10237
7.95671
36.1124
4.60983
85.3571
34.8699
100.36
2.8027
48.928
110.696
31.3825
71.4404
112.918
44.8132
66.1934
82.5542
60.1631
28.1087
65.7137
54.1877
1.69676
7.15792
34.4253
22.3033
68.5572
0.681698
10.2996
44.1136
1.12555
9.67631
5.21004
62.6515
1.06964
37.8748
87.9739
1.62247
83.9673
53.4261
21.7023
84.9208
4.26447
7.05307
21.6557
5.03855
49.304
67.2009
0.982671
70.1947
11.2433
3.77598
15.4423
14.7936
39.4988
86.3134
1.60369
120.612
0.750469
0.642355
12.8421
5.24635
30.9162
5.92965
33.9866
1.12921
121.05
81.5565
48.5626
46.2395
28.3097
11.9619
2.65307
73.9333
2.442
118.93
7.79329
46.9527
14.3824
78.8581
2.48174
3.58758
12.8092
18.0716
22.531
61.5097
76.1482
24.7654
12.659
11.6812
6.2619
1.87825
30.9665
17.0465
12.1867
12.8068
37.2496
2.20042
3.95099
10.6431
83.4549
3.82185
5.25561
5.3027
49.2304
6.51869
85.3997
2.21685
16.6513
10.8995
1.64926
44.5228
3.58866
28.2289
6.04521
21.3353
3.38028
5.35364
16.3206
9.39266
6.63182
31.8625
66.1434
9.20105
15.4015
3.64959
55.5078
10.0698
20.9598
103.529
47.4644
1.26404
10.1133
28.5413
7.30323
9.18211
8.12691
23.8172
20.4907
29.3643
75.7893
9.69775
43.8436
157.04
67.1808
144.351
58.2142
3.58126
9.37923
6.58734
1.84986
12.2291
16.8325
6.50256
33.5997
22.4585
68.3534
95.2937
31.4142
14.3157
1.24781
1.21996
58.8338
40.2671
43.209
4.42266
7.54247
9.99837
54.4553
147.985
101.278
39.2406
0.693834
130.011
0.519304
4.89057
74.8348
6.71726
17.9787
17.3503
3.75475
76.0672
27.6953
7.57988
1.49304
8.26766
23.816
34.8614
70.0179
3.66666
57.2667
3.84008
7.61911
9.42288
75.7424
16.2174
1.81034
5.83948
3.74606
1.80376
14.2136
14.5649
81.3506
20.2839
2.20666
49.6506
100.375
42.2753
61.8675
143.728
88.6532
14.9553
13.2628
7.24282
4.586
4.75472
81.5921
26.006
3.29919
48.1368
0.89153
2.33782
56.1717
0.814925
50.9082
0.951709
73.3001
1.63797
66.2631
63.7274
5.34712
7.27102
42.0921
51.4147
1.06742
9.86054
35.123
13.3882
29.3805
46.548
120.753
8.72871
18.8529
89.128
50.1345
0.392437
26.87
4.64196
2.34058
15.7223
33.0853
75.3066
8.42264
4.17709
22.7276
2.97352
11.247
14.4931
16.8276
10.6166
11.1553
7.14485
7.29544
81.4861
50.0955
2.57039
4.79282
77.3827
7.44932
87.6051
17.0714
84.4727
119.086
36.728
4.41155
5.89431
57.3139
21.446
79.3793
26.0969
7.72849
16.5029
8.91713
94.7486
22.1834
7.47435
31.9248
67.1632
55.9037
3.74599
18.8323
2.85705
1.17875
30.1852
0.822692
22.5134
50.6838
41.363
4.97597
30.2593
1.0043
3.38676
2.3873
12.5579
22.0555
8.13209
12.8099
102.883
31.0318
7.21761
26.9003
11.8676
76.3552
1.23648
11.345
10.0092
9.01427
9.66966
4.89167
2.47426
30.7444
9.87847
5.98817
48.9934
7.99473
6.95361
41.0876
13.2208
1.33908
0.931431
79.8558
58.4848
24.1453
31.6407
28.5847
73.7236
5.07467
5.91559
81.505
54.8811
81.4535
27.8763
59.3734
15.3056
3.60378
24.4442
13.2493
17.8865
1.06632
1.2243
1.13394
61.2626
5.78839
34.5811
97.9655
12.13
1.50068
5.50205
34.2817
20.7699
10.0299
14.9072
8.14167
9.87495
3.89489
4.00723
96.1821
40.4176
0.257226
13.4636
68.1159
15.9986
1.34091
118.451
0.931938
77.0691
1.62755
75.1628
72.1272
52.3434
163.409
1.18867
1.13484
17.2947
9.39489
73.3936
11.1267
49.4917
41.7358
17.1394
1.03219
0.444135
102.455
49.8747
11.303
6.82821
91.6674
71.0624
26.6448
1.67878
1.21003
28.145
1.05482
2.514
6.14672
15.3871
32.5526
9.99691
4.69949
75.1298
0.879661
1.35214
118.942
100.795
59.8464
11.5953
11.1959
1.56066
2.15867
0.62399
36.2108
66.8644
75.7403
8.72273
15.7117
36.4139
1.07779
1.21421
30.3371
38.4614
0.711039
64.0908
1.45534
3.4422
1.27646
0.950262
33.2353
78.7325
0.818385
5.50515
49.4376
1.26849
0.711185
45.8236
85.2372
11.4641
1.2643
1.0491
44.6362
1.28316
1.17516
22.1641
1.31529
50.1269
2.13161
24.0529
4.4372
6.63546
155.778
10.4369
62.2312
1.0233
119.537
1.51911
56.987
4.93572
0.343979
5.42989
33.1722
1.18229
0.950191
33.3916
1.70512
1.98242
0.886766
1.34009
5.2812
18.8846
1.21529
1.28163
31.25
193.663
0.97582
55.3922
3.10558
52.5162
3.39877
0.663484
13.526
0.734618
0.708071
82.8538
27.2748
124.891
116.779
106.097
8.78369
49.3348
54.7404
2.92511
25.6849
89.0423
31.1353
104.872
65.9469
86.1599
54.0497
1.02265
69.5204
23.0007
89.6333
0.705864
1.14629
0.758679
99.3414
35.4942
37.6468
0.452157
9.34954
0.553088
6.23715
1.77431
94.9246
36.9217
107.261
1.50985
8.05284
102.642
13.2798
0.333095
4.2747
40.8445
63.0312
27.8327
11.8545
3.48585
4.66946
32.6344
30.0245
7.28709
113.044
0.776882
40.9145
60.0522
14.3524
0.72468
1.34184
0.586362
32.3463
77.0978
0.979281
1.35202
1.17505
0.440043
0.983037
0.649768
2.5958
48.2887
26.5407
14.358
29.2687
4.66371
8.45063
28.2318
25.1365
123.201
132.38
53.0456
48.0935
0.975367
0.636747
0.682284
0.986909
2.08192
3.56897
4.11928
75.0683
59.9825
67.7004
54.0832
1.14273
0.855954
2.64338
0.922534
47.4114
1.29423
58.288
146.813
103.395
44.3211
47.7106
33.2623
1.43099
56.6379
18.6114
39.7125
41.0413
117.268
4.72077
26.3271
1.17959
0.576131
27.149
4.24969
0.393642
31.2007
135.077
131.601
2.02387
1.96647
0.765524
15.7291
174.995
42.1158
51.6212
4.19659
41.0657
18.9322
1.90471
0.663041
9.86701
9.83608
13.4798
1.26904
18.3334
30.532
150.192
42.7639
3.20363
1.70667
115.542
20.417
184.918
56.3672
84.8683
40.3298
16.2857
8.78133
85.1074
45.1727
32.9682
44.3129
65.0869
154.918
1.77169
72.3961
0.975641
14.5901
28.4103
95.342
38.5043
50.9442
29.9962
131.036
26.3026
4.48513
5.12236
128.566
11.1635
30.049
66.7463
96.7938
1.04634
0.652975
17.0226
1.17394
94.8931
38.4677
126.773
8.55383
9.01865
0.588535
0.931982
4.28459
1.5338
35.1116
98.5437
5.036
117.903
46.002
8.53142
4.52029
84.9744
86.0256
53.8756
146.922
104.364
43.418
54.0202
1.02193
64.5579
22.7072
85.6936
29.097
1.7123
26.4952
1.039
1.1944
1.10415
30.8938
0.954528
23.9566
69.8292
11.5961
1.40261
1.05378
90.7529
34.3814
22.9658
94.8786
33.1029
0.26769
80.7009
59.101
17.2046
5.28425
39.203
1.25181
176.342
0.924098
51.7744
9.46251
14.37
3.52426
0.464205
0.556031
3.43083
23.0045
45.5573
79.5022
189.127
54.9344
4.43981
1.04851
33.6487
142.672
10.094
7.57409
14.3221
73.1187
1.09679
1.28629
16.4384
48.1182
52.8152
1.08336
17.5155
2.70107
7.94224
3.18779
23.7929
73.9063
82.7583
9.36618
2.00455
68.535
5.54686
1.14554
109.601
2.33744
2.84893
8.89621
0.788778
20.0005
1.23155
25.3246
1.18751
5.68475
6.05794
10.7579
76.2325
39.728
114.802
52.6689
49.9025
68.372
37.4471
48.2485
39.3553
0.826137
0.800749
5.01634
31.5099
0.968628
17.7722
196.069
63.1514
53.6566
16.1072
3.44956
44.0284
0.835278
14.1935
50.3897
1.02811
148.633
2.43633
2.11962
36.9529
16.7041
6.27058
2.41311
67.3236
11.0722
6.68487
0.679858
2.09638
53.3868
70.5995
1.17144
10.1226
32.4982
7.26268
48.5392
134.428
88.7829
82.9822
39.6711
0.974817
1.22203
27.0268
0.707961
1.01345
0.722355
1.06138
23.471
0.725367
7.38895
0.779051
49.1316
53.8597
5.81746
7.95776
7.87077
15.6992
65.278
33.2253
78.7415
6.32265
0.741624
60.1249
11.3442
29.0076
7.21063
118.001
66.9539
75.6508
0.757389
121.489
92.9574
1.13323
1.27506
4.37469
1.39347
1.42848
73.6209
37.6082
54.216
79.8458
27.7707
59.0327
27.5114
12.2573
0.976008
1.355
38.1861
0.689838
88.3206
22.6861
160.676
6.97683
72.656
81.0202
1.2498
0.913047
75.3553
66.5379
10.0507
11.2104
22.8941
62.348
3.71283
37.7074
0.805848
4.60381
3.51751
0.6673
0.678429
1.4983
0.410629
0.70137
0.803382
1.16208
7.9934
49.8369
5.38091
1.96601
0.748775
74.9738
9.72269
25.6486
4.4688
48.0261
0.649516
38.688
4.71411
6.40204
1.74257
13.9159
43.2362
1.20635
10.01
1.77098
0.65532
9.23904
78.3754
21.623
62.3646
152.783
1.17937
11.0809
28.8477
33.7755
26.2691
24.3527
52.3112
103.089
1.36946
0.938402
0.776405
0.190564
18.875
10.9676
126.028
151.688
132.796
0.322525
31.4371
139.234
76.5005
58.1051
48.712
0.711028
1.05238
1.20152
35.2594
11.0706
35.3348
4.52885
0.569169
4.40339
4.83457
10.1103
24.2423
1.26056
1.29139
36.6301
24.1237
11.6842
0.807024
8.21932
43.463
0.986104
4.13213
2.72814
4.12324
14.4424
0.923568
27.5101
0.67696
10.409
18.4568
1.31051
40.0629
10.1724
0.674551
1.48915
23.2856
0.900915
74.6727
7.06067
1.2921
0.772582
6.83655
0.346798
0.702913
10.3853
1.14263
0.34476
13.0418
9.71677
18.5961
56.8193
27.2828
8.94938
105.396
38.4506
0.452602
0.855436
32.4816
1.7885
14.4206
79.181
0.548593
19.2474
1.27961
60.1591
2.17104
55.1887
2.26222
38.2388
48.6718
0.79247
35.6054
5.23125
0.23101
4.43211
36.7873
30.1109
33.2683
1.17008
37.5223
0.481019
0.92659
8.13388
0.979778
1.40107
17.3689
0.961114
19.6273
2.99632
67.0812
1.72724
0.989842
0.655322
4.50475
49.3372
18.2334
1.08357
28.0956
7.39601
15.8818
54.2332
29.0147
0.671877
0.934784
17.128
6.31973
42.2388
6.793
67.1127
75.7988
61.6964
22.646
71.1797
8.78507
8.69993
6.57521
1.77139
4.56669
1.06915
422.398
39.8285
1.31845
1.28862
54.7551
50.9516
8.48958
0.529827
1.06144
11.8455
7.51089
1.06027
35.393
4.27756
21.8598
2.94261
60.665
1.4048
0.413406
4.20507
4.17266
1.04489
31.0026
1.24483
50.8439
0.983139
47.9897
5.80583
15.4675
4.33337
23.0901
9.26553
17.8574
11.352
4.5183
1.33538
5.27861
32.5322
10.4431
5.45276
1.1787
1.16556
18.6004
33.7471
21.5825
12.985
24.7226
7.33972
3.86123
7.18558
7.29168
21.4825
3.49818
11.1508
26.6483
0.642554
58.4915
0.668421
120.764
1.45873
1.1384
12.1534
0.640424
0.635858
44.5044
3.02052
6.31637
0.629652
0.903656
37.7372
218.78
106.419
2.12047
0.957525
2.22709
8.94292
56.3165
19.7377
3.42181
8.63341
0.640645
56.2567
4.34761
3.26449
33.7026
7.59141
7.88599
34.2005
21.086
1.04258
23.3038
88.6556
31.659
8.8912
24.3512
21.4203
0.655429
57.0551
87.6652
36.3657
81.6835
1.91059
0.472805
35.6496
10.003
19.9217
0.282435
13.1256
55.7997
0.510672
1.16609
0.611567
0.714744
1.47858
7.415
3.19251
22.9718
0.858248
4.0231
21.0956
124.301
31.4009
4.00041
29.4054
4.41598
81.4841
0.586009
53.889
109.194
28.2577
69.4282
2.99069
36.0115
34.052
58.6646
3.45353
6.78347
1.5536
31.8747
0.662426
1.97592
21.5502
5.4555
3.7018
11.5197
3.65439
3.6437
30.466
0.602418
0.591365
7.41313
3.58457
0.822472
2.23063
77.5565
9.3653
48.5691
41.5512
44.1251
0.749903
107.493
0.571166
30.5433
12.1323
14.4258
4.32907
1.03997
34.2669
0.521826
7.92427
0.501787
31.4626
0.71665
4.17005
32.137
62.1605
4.97407
38.0338
47.3911
6.74714
8.87536
0.971596
9.81467
1.57786
14.1555
78.1883
4.45721
0.329801
3.64107
28.5671
37.7386
169.503
96.6139
111.074
89.8641
33.2432
0.36023
1.5276
17.1629
5.38557
90.5921
1.34629
0.423177
1.42939
15.6712
0.529789
3.90318
6.51192
2.09579
5.21585
1.91981
5.2132
0.975231
7.61324
3.91412
31.3542
14.3496
0.775195
57.8363
32.3311
61.9155
18.2379
2.17043
47.7034
0.957418
0.978277
0.732815
2.91868
267.955
11.3984
52.9872
21.7715
75.811
67.4289
16.8784
11.6517
0.273402
0.799041
2.46184
0.36226
7.56139
12.5882
0.878053
13.9243
0.167184
0.866777
6.79974
4.15251
1.35159
0.936959
0.245328
6.74066
12.4731
1.30784
2.54938
5.51004
0.960401
1.00333
0.210106
0.43967
10.2176
4.34358
2.87961
0.530933
1.31625
5.28397
6.8235
0.737269
0.356445
0.557955
0.212861
0.451045
10.5743
0.738883
0.113165
2.36633
0.641611
5.90776
8.62639
2.51097
14.9781
77.293
0.692316
0.8776
34.5497
90.4729
31.6508
1.98732
0.9101
15.5973
2.22181
21.5771
75.1092
145.649
35.6056
100.288
31.4076
0.786787
0.673807
0.382391
1.51674
0.906106
10.4242
0.786654
2.94057
5.01043
0.71926
18.5103
28.2828
2.60065
7.20632
25.9821
187.805
2.51028
24.4156
8.41183
13.249
29.636
5.17659
66.5543
40.8977
29.3833
39.1827
7.82584
31.5973
5.94276
11.5075
13.9063
402.997
1.95962
4.42354
1.36685
46.6151
32.6958
2.55707
64.7382
59.2512
0.762052
0.435418
11.6322
9.37263
0.728021
13.1081
0.176993
0.63989
1.86995
0.179655
6.33
6.45449
0.452468
9.71522
2.48718
2.78613
6.37269
0.992607
1.46902
1.17265
0.321926
12.4748
0.708381
39.4852
62.9054
8.7031
21.2392
4.16615
13.9164
30.7169
1.30856
59.5283
31.4139
30.0287
38.883
35.5042
3.23077
0.950012
36.0116
37.0405
3.5273
76.812
90.1853
35.2955
0.452879
37.4179
29.846
3.97507
38.7839
12.5635
61.6374
0.844635
6.75724
0.389279
66.6068
2.75205
37.3278
29.5145
0.651938
113.972
1.0995
82.6011
1.50279
0.363822
0.324622
69.8869
0.475288
0.511342
0.746622
2.08757
108.372
10.7439
108.054
19.5972
3.59301
10.5515
63.2799
1.43671
9.15468
7.63851
64.9427
38.3086
9.70963
0.629998
14.7376
5.38233
38.9169
10.2608
1.84065
0.257347
3.94591
8.23403
0.749836
46.6577
49.6112
0.116091
1.9582
89.1657
95.062
12.0352
35.0917
68.0349
0.153259
38.6429
33.9644
30.6697
38.4966
13.6698
1.80632
46.522
0.737604
4.22114
6.89607
57.0199
7.66634
9.47453
16.9911
28.0873
62.6183
1.90392
0.436273
1.88112
17.2877
34.5053
38.4974
188.958
65.3888
41.4712
21.7001
12.8714
26.0427
25.0735
67.7871
28.8778
29.1432
37.9235
38.6945
32.8554
112.518
97.9739
6.27001
61.9322
29.6368
19.2743
18.2529
3.04817
68.9311
42.4692
8.12011
53.2441
5.14225
100.726
8.18193
23.3034
83.3974
3.73298
23.5824
6.98563
0.471811
1.10743
5.3777
55.8657
1.72262
0.475289
3.85209
34.0183
38.6288
66.4695
47.3383
42.7451
68.953
41.9092
1.97708
43.8266
39.9305
67.5396
38.8819
36.0375
43.6932
41.5924
35.0573
39.4047
24.3296
22.9739
3.13278
51.9203
18.7096
2.93765
2.42883
11.4522
1.34369
4.39494
15.5056
24.7797
3.07456
1.21005
1.69483
45.9658
24.2471
29.8726
12.7759
4.2943
5.24027
1.70926
4.56399
7.86587
4.96001
99.0549
4.76596
4.13013
0.557363
4.09264
0.455336
22.6619
0.769646
26.8059
0.656081
0.541451
5.51548
3.29225
2.37363
3.05863
2.10363
1.57651
65.4669
1.6094
17.4613
4.16375
8.28265
45.0632
102.115
1.44489
79.7559
28.6198
5.80935
125.942
11.2815
1.688
112.803
25.3127
92.4165
1.1527
11.854
116.154
110.933
70.1269
1.72267
1.66241
1.70139
3.44732
7.29287
94.0926
1.76307
17.8241
5.04032
1.13816
3.56334
9.73599
5.99643
48.3846
32.8591
32.0823
88.7433
81.9942
1.92886
83.5023
0.890888
4.98227
33.7784
9.82979
122.171
7.5492
85.5909
37.5136
5.58442
9.96804
57.3234
83.3724
5.00515
92.7091
43.8559
2.65997
33.7163
7.13482
6.59373
5.82921
54.335
3.82241
54.0257
50.0732
48.6534
5.73643
14.5443
5.10987
94.4449
7.46629
8.49676
11.9592
205.708
1.56987
4.35609
0.522765
32.4047
15.4563
3.16198
5.62844
6.20603
6.09878
1.65296
4.18066
7.04877
4.98654
2.64732
4.47328
3.22436
8.15574
21.9829
10.5276
9.41904
72.978
6.76161
6.35767
0.894358
1.63753
5.31078
10.2018
4.07979
9.84844
0.470067
4.845
3.8293
48.3518
3.34018
4.20452
4.20182
10.5378
0.755312
0.993653
5.88211
2.52666
1.8977
1.79693
21.4557
7.1894
3.40044
52.7471
0.480348
3.42184
2.39074
1.16558
8.01315
5.66805
12.0494
0.952654
2.99704
0.866385
1.74571
1.82974
9.94348
6.70767
0.764393
4.30716
0.518653
2.24088
1.47748
1.09796
4.93886
4.21487
4.62316
14.2431
0.545659
3.19429
1.02605
4.5941
8.89015
4.20835
0.507301
4.52019
1.75418
2.60209
3.39137
5.12454
53.6323
5.01019
6.2057
3.82607
0.715475
0.552289
28.3609
51.1614
34.6521
7.31967
0.96507
11.6511
11.6505
8.47323
25.6884
0.581845
9.68836
1.28348
58.5789
24.8721
3.60332
11.9908
25.3016
10.4327
4.68933
1.74488
0.458148
34.4149
29.4064
7.91628
13.1459
7.76758
4.46213
1.61995
0.407368
61.1821
3.47546
4.67155
35.0508
78.0188
24.6628
8.68892
6.13168
61.8772
10.7447
5.40082
23.198
21.8772
10.7098
8.76101
47.3734
9.15181
17.6806
39.923
8.04171
5.13526
1.46038
0.432218
45.0805
7.97631
14.5803
30.8822
76.4329
0.504094
60.8576
52.2726
4.70191
5.96464
17.2585
2.97313
11.9274
17.0614
12.8221
9.39964
11.9045
18.8454
7.07722
81.1742
8.72364
53.0829
3.32642
45.8709
29.2073
8.08802
22.8511
6.51605
4.72369
21.7423
11.439
15.4004
24.9265
3.43453
29.7747
12.2706
8.49949
32.3751
7.2041
5.10193
0.930534
0.503496
17.4255
52.228
3.29082
30.4536
62.7023
60.3454
90.9128
27.1428
7.4799
9.78638
4.75583
0.462437
55.591
4.54832
48.5544
61.6553
4.78329
10.3021
129.852
2.05409
2.73385
20.1986
15.3073
29.3596
10.2282
32.5492
66.6202
13.513
46.6923
34.6059
3.33673
2.45797
4.13321
14.7517
8.8126
9.69744
2.10498
3.29144
9.93057
5.7766
0.704304
0.469701
114.651
91.7746
5.16132
1.88863
118.867
95.1251
21.4318
2.16039
67.1557
24.0133
7.66414
9.40068
0.372574
60.7059
4.30713
1.61019
6.53627
125.51
73.1463
100.272
6.41145
106.23
85.2317
37.913
3.75296
25.6235
40.9481
11.3737
0.593119
0.459137
0.635575
1.40641
20.1636
33.7256
6.25136
2.77607
34.6824
25.6903
34.6906
48.9351
34.7571
28.3287
1.1505
40.8818
0.624164
1.23848
134.178
60.7346
63.8837
88.9889
64.81
18.1848
4.60236
2.67701
2.66191
8.81119
0.757533
5.35005
0.561701
0.489887
0.756529
0.610935
0.849205
61.091
84.9325
14.268
41.6453
3.41385
9.36961
1.99897
4.57588
54.0282
3.50376
45.1872
4.61366
7.48124
6.15286
70.7133
16.7912
11.3555
0.512427
61.7684
2.68736
1.31182
4.36215
36.0694
77.9685
24.7857
7.50918
35.9865
116.58
4.64787
4.32935
0.682769
0.335371
8.86494
5.80954
33.2245
6.88187
2.09747
0.454071
26.2561
4.1765
5.10126
81.6493
1.82107
125.097
0.500492
0.456511
3.0046
37.1625
162.803
11.05
0.818954
1.8304
47.7604
53.5886
4.00991
3.76357
6.62905
3.28304
13.2304
5.84719
1.03961
10.6841
6.69821
0.614231
5.22191
2.52366
7.05338
9.61558
3.52282
5.22409
1.89513
4.01478
18.7265
4.25007
3.1308
42.3107
4.83647
5.48678
9.76087
35.3592
0.547802
57.8499
14.2007
14.9002
45.6789
2.61589
139.192
25.5648
63.7456
1.36245
96.395
3.76929
18.769
8.18962
0.417992
69.3963
3.45346
12.5592
5.18714
13.6757
13.4195
5.3503
65.7125
21.9605
76.2087
32.2964
3.58339
6.87929
6.90159
0.503279
0.496143
31.6335
96.3651
13.2088
5.86563
0.812245
108.584
14.1332
187.674
117.607
36.2555
48.4355
30.161
0.908143
30.8417
4.56558
3.70101
23.1008
31.3767
1.99011
12.0363
32.9379
11.657
69.7501
5.14651
16.6184
65.7679
38.1553
6.00874
13.3566
7.45196
103.283
7.79941
20.0686
76.7374
92.775
25.3416
1.98278
1.64159
36.5
14.9016
6.74133
29.5491
19.3111
31.5866
4.40166
22.6884
10.0308
124.543
9.37655
3.99492
1.54768
0.543987
33.2995
106.374
21.1938
91.2792
75.5705
200.873
1.45119
24.5409
7.71067
32.176
2.04275
172.324
39.1235
2.81066
0.482759
8.4773
0.670494
2.13039
39.5291
48.5489
34.6082
55.0858
56.4286
57.0753
3.38753
16.4417
101.287
46.1315
28.6072
331.351
4.98622
6.93369
30.5398
100.6
32.8354
23.9997
52.006
2.77734
2.19601
35.8768
4.28181
10.6769
9.26579
0.733726
11.4484
1.28665
60.1397
0.493579
54.6701
3.37385
11.9907
14.4096
33.9477
20.666
67.1398
1.14837
136.379
1.06485
0.494586
4.70421
0.251952
1.03225
72.907
36.895
88.5667
6.19194
94.7356
134.361
5.01882
25.7112
0.472122
3.39881
2.72348
0.261915
39.2852
49.9539
0.60322
0.522548
32.3495
19.3341
17.5873
54.2958
3.91618
23.3157
5.63717
112.601
4.9039
29.1291
0.668586
4.32745
12.3189
69.2327
3.28638
31.9856
73.4748
5.23051
4.98075
51.7145
3.01301
1.65889
87.4736
1.53667
1.66348
161.888
11.1601
48.0684
3.77763
24.4657
62.1153
0.861981
4.48806
18.1151
34.1802
68.9433
2.48576
22.6211
41.2521
36.4287
13.726
9.9002
8.71938
4.11316
0.310034
0.53599
36.9744
39.7986
3.35544
1.04173
106.24
8.18535
27.321
42.5281
6.72447
5.13826
54.3717
89.1787
10.6422
0.406071
0.9162
26.2773
24.9122
27.1125
3.33681
2.70992
57.6055
48.6716
6.04201
45.6559
132.32
82.6103
31.0014
72.8198
0.427842
25.6718
68.228
6.15056
0.37799
0.522171
19.2552
3.32546
4.70219
53.641
1.72732
14.2885
4.10237
3.64881
10.4527
313.506
1.37203
33.5282
1.69763
30.5306
68.5714
31.2474
3.2909
8.05894
0.423699
0.513394
39.9259
13.3253
12.8885
84.1431
14.5202
28.481
207.115
59.8918
36.7446
0.218896
65.9445
0.358735
1.35825
52.9977
28.076
9.74665
1.35627
2.77408
6.27626
39.097
0.352022
1.86943
31.3979
87.4863
2.73357
5.66276
3.20708
56.8612
53.5113
92.9369
2.0458
19.0397
68.9389
116.9
17.8814
39.5477
5.13029
27.9183
21.2196
67.2537
5.49422
19.9993
1.16682
5.87711
0.524878
4.58261
7.86814
5.73931
35.3739
0.189566
3.34176
116.808
30.2643
0.86861
4.10459
26.5163
41.8548
51.1607
25.7031
0.345471
3.62129
0.446802
0.490435
6.00863
6.47921
73.1473
0.697325
23.3324
27.509
4.04061
1.79149
21.4862
8.93504
108.613
5.68719
0.300849
0.502118
0.509502
27.6245
2.11851
9.34665
0.550081
4.49526
1.29831
0.779907
4.16659
7.47439
5.92315
23.8874
18.8634
1.146
25.1785
3.31257
11.886
3.88015
0.322621
2.16677
2.316
2.73705
36.3928
2.0111
23.6166
81.7009
36.9074
57.8147
2.23393
6.36386
3.57099
82.1567
5.92603
3.80726
6.6985
0.328314
0.515959
4.83189
0.847617
51.7669
245.486
15.7118
1.14699
1.10525
1.86519
0.145404
23.963
3.48263
65.1997
7.20054
32.044
80.29
0.229289
3.48503
4.11579
70.4319
0.992607
81.4883
3.7849
16.1715
0.879229
6.83276
1.52418
3.70696
9.79537
21.4253
24.0113
6.65951
1.95532
1.75392
0.469479
1.54404
3.88773
54.8167
34.542
45.777
36.5999
15.7173
26.2604
3.26916
40.9472
1.75564
15.1843
1.7315
40.7771
40.6002
71.7658
11.2356
0.852435
3.98361
0.272927
1.54126
6.77564
4.94553
3.74093
3.73165
98.7998
4.45932
2.85723
27.6131
7.8969
30.2915
29.1889
25.9856
31.9031
1.50424
3.95053
6.67076
7.24226
11.8088
0.698828
7.3452
32.861
0.533325
3.91272
9.23856
1.43446
3.66288
0.788069
0.525427
0.574843
0.155724
5.32577
0.201403
2.56985
2.06394
8.70025
6.0434
0.489613
0.93342
30.0784
37.5063
13.688
12.5433
1.70651
8.57942
3.87869
79.9206
47.7876
25.3082
121.647
31.6299
89.3583
85.8882
131.402
36.6872
0.364854
0.472172
0.524614
0.450344
0.465633
7.65315
31.3025
76.7112
0.417495
0.256284
3.00191
8.38566
11.2714
69.7835
1.22001
0.230031
56.4321
11.5528
40.2612
23.7038
3.2718
4.95562
24.6381
20.5337
104.238
0.327277
13.5294
54.1769
26.9094
41.6539
39.297
0.261414
1.31102
10.4342
1.44431
0.98339
6.14916
0.718706
6.02934
5.54422
4.72746
1.15289
0.4398
4.02057
242.191
66.4105
0.629582
2.40171
0.708015
3.53338
17.4389
1.88266
22.9508
27.4659
1.02042
62.6137
5.24487
31.6164
104.666
95.6652
56.2563
26.8376
1.66009
2.89756
32.5104
8.18531
0.755404
0.264367
77.2533
2.15879
65.1647
1.74182
1.23342
10.5863
131.4
25.4474
1.28592
1.25717
32.5337
2.58583
13.7306
1.84199
4.12116
8.00001
125.511
0.59846
36.8632
6.04656
0.359954
0.493972
0.38594
11.8728
0.375888
63.4789
2.74819
37.2186
101.57
22.8771
7.58824
70.4392
8.1136
5.1479
198.817
3.54708
14.5913
75.2706
5.89132
143.738
7.22336
0.412384
0.517318
40.3557
4.1788
5.39616
0.847124
1.52547
2.38878
21.047
89.0148
28.7761
9.04324
13.4063
109.92
29.0821
27.4467
10.6972
3.20161
13.9391
115.82
32.1777
164.487
11.6565
0.65976
1.07417
1.46423
36.0228
5.08837
55.4674
22.3955
18.17
7.22633
20.3138
33.4533
1.27993
0.495849
5.27059
0.545261
2.06969
11.8017
2.98582
5.17145
7.5731
25.2077
38.7474
65.8147
25.1324
100.528
16.7374
0.810299
1.52943
1.00582
37.1549
0.60892
7.52793
2.84118
3.37049
0.798788
42.0845
65.3485
5.52132
9.43541
14.4595
54.9696
1.15737
1.16328
0.566505
23.8833
101.423
4.90796
3.40108
35.8003
60.4946
29.8525
9.65754
5.31913
33.4258
75.9171
30.2772
6.86129
7.54523
0.269775
30.6776
0.146861
26.2358
102.546
10.0368
1.92101
9.34341
11.6212
4.89809
27.2787
0.516989
29.5708
3.44887
0.094909
0.685833
17.8742
80.5764
15.3004
3.49533
2.7176
1.79521
3.82634
0.920607
0.0926653
0.808633
2.02326
28.1166
77.5413
27.9775
21.4245
2.90567
127.612
63.6098
11.276
1.01008
2.37839
4.24383
149.395
71.4701
47.2365
1.30677
0.381355
90.7952
7.95276
17.6977
10.9872
111.362
0.229824
115.703
81.7098
24.8449
7.88739
48.3527
197.281
3.0306
48.1465
0.201138
1.89131
35.9741
67.2799
4.10119
0.424345
1.20433
2.049
1.23101
39.8281
3.58406
11.0015
173.474
7.64945
1.30352
17.5287
26.5719
12.7439
120.571
0.232916
17.3152
0.575395
14.9389
58.5672
3.40788
18.8061
35.9107
7.46673
96.0933
0.799628
1.61338
40.024
190.983
48.7877
82.8074
22.215
103.526
1.13286
26.7341
58.9357
5.24587
114.419
20.4543
105.689
21.9399
9.07482
186.971
41.9689
31.9638
10.4688
0.508749
0.543428
20.8354
1.28493
4.30977
0.907481
28.5207
31.2375
3.80069
0.188609
1.60064
14.6153
84.4432
3.2452
0.236697
13.0557
38.7633
29.2196
18.163
1.32226
110.512
8.65094
2.62652
62.8658
70.5196
0.354977
47.6002
27.3336
74.2281
35.5089
36.4883
9.78469
1.59615
0.601765
1.05733
2.66391
1.37388
7.6388
9.75614
77.9935
39.9633
20.8132
136.776
28.4691
55.8137
9.33541
20.0298
36.3149
2.16781
11.3671
6.04968
65.8983
133.753
99.2274
10.9551
90.1307
1.11694
40.105
42.625
25.7651
0.618314
1.97585
99.7822
29.6293
6.27397
83.3552
100.641
1.68651
47.8767
26.7871
76.2148
51.1746
81.7548
1.1507
70.1576
0.279354
6.07041
0.501813
57.5559
33.3305
65.4918
1.23975
0.190722
102.15
2.55121
1.10539
18.6043
78.213
37.5951
61.8695
153.48
62.7124
0.737158
0.888181
47.0082
17.4171
222.419
74.8678
105.559
8.10948
13.5915
103.262
83.8872
0.469492
0.500071
7.19837
0.73058
0.815576
14.1381
83.5503
15.7486
5.30629
35.6123
12.0095
9.65518
72.8417
124.605
70.1461
5.61931
33.0298
1.71423
22.8994
5.21227
27.9626
131.436
91.5308
42.5744
84.1859
205.501
106.384
2.81502
0.430435
153.262
81.3781
1.35449
9.46512
0.779226
1.61361
45.7942
126.82
64.1348
28.382
1.60253
88.534
0.325899
5.28327
0.531823
5.84289
0.270646
54.2128
130.649
25.0146
8.07434
116.597
0.229691
1.18791
72.6848
44.3756
55.0956
3.77812
7.97644
90.4348
80.2373
2.49487
4.58292
7.97891
28.0852
4.3043
13.5924
79.7134
31.2222
35.175
29.7255
48.525
23.7125
27.059
0.203194
2.75951
45.8756
1.99005
13.9622
153.21
10.3439
81.5504
78.5194
0.925997
0.30472
0.471723
6.71007
59.3832
71.7349
69.9206
1.37313
9.03094
5.83479
8.94307
11.3113
7.67786
6.06767
5.76488
6.55103
6.08294
0.397654
0.226845
0.879242
118.762
50.7633
3.96326
83.2905
145.211
110.147
107.163
48.3956
1.90443
41.303
11.2372
1.77094
64.7695
157.523
5.94424
2.50669
0.770045
40.0184
27.5777
86.5204
4.89079
2.19736
37.1033
13.1849
1.19358
1.31739
0.314009
0.781434
8.56876
106.308
14.0837
6.07004
97.8008
40.5164
76.5209
74.8987
7.99213
65.297
1.73015
13.8741
36.3814
31.1904
29.8805
0.468613
0.457368
43.951
0.991451
40.204
1.53801
93.465
31.1664
37.0775
1.99459
40.399
2.11332
46.6096
35.0875
27.8249
31.8827
33.2691
45.0739
50.0608
0.927821
27.9464
35.1544
0.748922
13.1204
0.669547
2.61811
5.41944
17.2459
34.3631
10.1421
13.3775
142.345
0.675896
7.44365
0.573397
0.873104
148.995
58.1507
5.75536
0.434321
0.452102
14.7302
0.178844
0.400759
6.2311
0.548934
0.448386
7.18587
0.679055
44.2242
1.48227
1.19935
27.5833
48.9089
8.04867
29.9054
9.30521
7.85301
32.367
81.1468
34.3119
0.667144
31.3681
113.568
71.1567
39.2559
11.7685
1.52263
0.184275
0.64826
51.3998
138.706
26.5335
4.35705
12.4923
8.32424
6.09474
7.0762
37.6299
43.4923
0.966849
59.804
0.113716
8.57459
118.124
44.3648
53.9938
34.7066
10.4718
90.0211
38.8228
34.8098
6.26886
1.23688
2.68811
3.17732
6.9156
15.7998
0.635428
29.4258
28.547
109.79
22.6252
18.7961
1.3394
1.46328
4.7489
90.8116
38.5236
39.5422
3.19247
98.9891
5.67092
3.51357
39.1229
0.694227
1.89354
22.5421
60.5677
77.421
36.3315
29.392
47.1853
25.2963
3.42765
1.19577
0.549404
6.18563
2.67943
419.8
108.049
3.00817
106.482
41.4818
4.53798
0.407326
9.03414
0.583391
4.06846
0.862685
43.3859
32.1269
40.5995
49.6846
32.1441
0.26576
0.999517
2.83136
1.93541
17.0076
44.2422
250.335
15.0773
11.0479
0.120279
4.09587
115.149
60.7182
13.391
20.3846
0.963552
12.1783
5.66739
1.23658
31.3263
52.0813
0.541501
8.88265
0.532735
10.0915
20.5586
4.39736
60.6469
4.24632
104.576
13.856
64.7948
97.7965
1.17937
1.48177
2.79235
18.0585
0.778291
5.1648
4.83707
37.9918
55.3718
74.9162
2.66601
4.19675
54.3414
1.45302
15.1855
13.048
36.6608
63.1855
87.8061
0.3709
8.45505
0.44074
36.0481
11.3943
157.076
38.8457
2.05207
47.7085
130.355
62.0527
57.3231
2.80059
77.7121
54.6675
23.3502
1.50333
0.479025
35.1963
1.72215
2.97855
16.2563
6.69126
46.1625
207.127
115.672
6.97605
84.003
1.19822
14.2993
16.39
5.69578
86.5143
36.2499
0.222005
0.753702
0.873829
1.25756
14.6448
7.77435
97.5338
31.627
0.709227
117.636
4.9878
24.5055
96.2036
52.3759
35.4863
25.1124
6.7877
81.5267
0.889984
1.02511
6.08918
0.275007
4.48669
14.9881
60.9948
0.206742
32.2755
0.480451
2.28178
5.44465
43.6892
7.60766
9.78828
93.1157
49.6019
37.8239
10.4183
1.56095
1.08371
11.8995
80.6335
12.0423
147.955
0.221892
1.39651
51.6956
42.4894
0.859432
34.0105
65.121
1.60226
16.629
53.3688
22.6565
76.2714
70.9834
10.5971
18.498
0.785478
31.0159
86.3136
18.0885
124.658
30.7356
3.75677
12.9453
26.2668
15.3097
20.4043
83.2817
5.06511
26.4274
7.94388
0.606789
0.771896
37.4769
0.42341
1.04912
13.3575
12.1975
17.1191
24.9898
43.9092
107.714
98.6626
60.0315
1.76314
0.776082
4.66758
0.533284
6.6273
23.0066
11.5082
5.20398
4.92492
87.0791
7.22025
4.15092
3.56762
32.3432
75.5875
0.247562
3.78569
3.54229
0.489381
58.2984
32.5318
1.36174
2.66827
51.4024
94.3913
25.6229
1.29681
1.17649
1.6853
0.418013
8.69555
0.583953
0.853456
29.6871
1.30855
0.87519
35.6092
52.8163
0.807798
31.4867
0.86769
66.7032
3.73476
95.5312
2.51769
0.404113
5.55378
58.118
80.0773
97.6572
21.8301
42.003
23.4099
4.08904
43.2395
20.595
16.1341
1.30641
3.56656
0.20449
56.2007
11.9524
24.6339
0.929104
39.8775
33.9198
67.8236
14.2007
331.502
13.1079
2.55449
0.681651
0.620964
6.05041
0.841223
1.4378
10.5135
1.25917
5.56515
0.764827
0.643274
6.45771
0.937397
5.56909
22.8695
46.943
94.2521
2.94819
1.47223
0.751926
2.38133
63.8478
6.59198
14.6676
6.01443
99.2315
134.494
87.2821
5.08117
9.70678
0.993909
1.68827
0.505097
29.0199
10.3018
42.8396
0.627832
106.013
278.125
145.618
0.8812
40.7547
30.8429
42.5073
0.733164
1.09853
5.00432
34.6202
1.08972
28.9272
49.7491
0.500396
0.246386
106.262
85.5313
3.64044
18.6955
35.6252
9.79251
57.0547
11.3978
0.830199
11.3703
91.3674
137.741
6.83966
79.4982
261.964