/*--------------------------------*- C++ -*----------------------------------*\
| =========                 |                                                 |
| \\      /  F ield         | OpenFOAM: The Open Source CFD Toolbox           |
|  \\    /   O peration     | Version:  v1912                                 |
|   \\  /    A nd           | Website:  www.openfoam.com                      |
|    \\/     M anipulation  |                                                 |
\*---------------------------------------------------------------------------*/
FoamFile
{
    version     2.0;
    format      ascii;
    class       volScalarField;
    location    "0.33";
    object      k;
}
// * * * * * * * * * * * * * * * * * * * * * * * * * * * * * * * * * * * * * //

dimensions      [0 2 -2 0 0 0 0];


internalField   nonuniform List<scalar> 
1431
(
2.33433
1.37201
0.819281
0.484528
0.128706
0.248799
0.368146
2.1897
0.532126
0.257061
1.88461
2.01512
1.63598
0.2791
0.100783
0.334571
0.235013
0.4026
0.303235
0.565794
3.18197
0.463552
0.199188
2.51565
0.372759
1.67384
1.44118
0.336828
0.890652
0.543212
0.974646
1.13583
0.993812
0.145713
0.408327
0.852085
2.10515
0.0885598
0.957904
0.993063
2.13864
2.22
1.71009
0.561042
0.228506
0.201177
0.260369
1.27915
0.405334
0.294028
0.780272
0.671212
0.785529
3.19546
0.973577
1.1368
0.0924847
2.67072
0.251812
0.131889
0.156451
0.365806
0.137869
0.0937378
0.64995
0.18434
0.58142
0.546661
0.139066
0.3554
1.49578
0.165597
0.324542
0.113058
0.277064
0.123858
0.684229
0.949144
0.235963
0.349431
0.226144
0.468229
0.730733
0.276129
1.12219
0.954247
0.289009
0.108008
1.00239
0.915617
0.109624
0.0982709
0.141051
0.352456
0.616687
0.515905
2.70065
1.3189
0.575149
0.653607
1.04637
0.46174
0.266192
0.382279
1.07496
0.948762
1.45956
1.63189
0.135269
0.256784
0.317903
1.53995
1.00876
2.19132
1.05939
0.116804
0.220193
0.40103
0.445472
0.102738
0.430017
0.0826752
1.65401
0.304409
0.801622
0.201699
0.753949
0.10752
0.860511
0.390607
0.219664
0.456595
0.547943
0.382393
0.737389
0.343218
1.00801
0.366355
1.29381
0.0832125
0.64079
0.929421
0.234812
0.269135
0.157612
0.985122
0.144154
0.93779
0.285925
0.340545
0.21186
0.165686
1.05024
0.494005
1.42864
0.245287
1.15768
1.29659
0.851554
0.585999
1.41538
1.61425
0.376018
0.376617
1.43678
2.45511
2.22709
0.681127
0.173622
1.22039
1.25854
0.904272
0.953368
1.31715
1.40217
1.11785
0.455738
0.255275
0.732157
0.465005
0.218748
0.978276
1.29501
4.23632
0.281128
1.28753
1.31542
1.39197
0.886841
1.04056
0.826132
0.950086
1.00902
2.00867
0.416321
1.1016
1.41232
0.350903
0.131779
0.911163
1.42036
0.385693
1.40232
0.279904
1.46079
0.822098
1.15429
0.129832
1.62455
1.09224
0.819975
0.360478
1.40427
0.98929
1.42126
0.775739
1.11322
0.368906
1.24821
1.27903
1.39063
1.29652
0.309273
0.385752
1.52055
2.23342
1.62738
1.26319
1.28656
1.06526
1.10086
0.988925
0.868154
0.97822
1.18715
1.2396
1.33753
1.02516
0.854375
1.39311
0.771387
0.754557
1.87531
0.920881
0.910437
1.05349
0.985057
1.4175
1.48186
0.167196
0.100756
1.25814
0.562627
0.424809
0.818063
1.95811
0.541453
2.75823
1.37068
1.06077
0.924026
1.27183
1.29716
0.405755
1.66538
1.43773
1.1598
2.8311
1.23828
0.0821371
0.14054
1.25699
1.30475
1.28782
1.40196
0.934317
1.37397
0.844802
0.843045
1.09957
0.875639
1.76092
0.988353
1.17531
0.789385
1.10134
1.9523
1.35435
1.09572
1.49712
0.103147
1.41215
1.45498
1.09022
0.929003
1.2435
1.59792
1.47732
0.759715
0.905667
0.848715
1.38329
1.21966
1.48152
0.974268
0.521313
1.4146
0.993145
2.10373
1.18861
0.875964
0.194986
0.236586
0.994471
0.682469
1.31475
0.361426
0.885387
0.201626
7.66958
1.18958
1.22845
0.537715
1.1726
0.306526
0.88383
0.589398
1.62314
3.78827
0.418546
1.09132
0.215595
1.27667
0.528068
0.675218
1.51788
2.32186
1.20898
0.301876
1.02936
1.20362
1.56271
0.64136
2.1936
0.385776
0.793993
1.50364
1.3138
0.689886
1.25019
0.442942
0.409899
1.06813
0.783575
0.393228
1.60341
1.02351
0.705266
1.16583
2.04573
0.471148
1.16089
0.98707
1.13046
0.184918
0.846602
0.761332
5.33133
1.25599
0.861763
1.6475
0.14854
1.01553
0.896896
2.2529
3.93017
1.02111
0.882219
0.907115
4.7472
1.58689
0.282758
1.41652
0.411667
7.46009
0.272705
0.561345
0.221822
0.308994
0.767604
0.895737
0.631637
0.663761
0.500229
1.40108
0.985848
1.57394
1.64162
1.0813
0.251666
0.648217
2.33158
1.3567
2.04576
1.59475
1.28322
0.216335
0.390598
0.676936
1.17179
0.834736
0.32166
1.06811
1.74287
0.192348
0.457858
0.553814
0.677266
0.279501
0.973204
1.72626
1.71156
1.15619
0.637636
0.895101
0.203074
0.480541
0.709916
0.783938
2.01098
1.41806
1.41094
1.56581
1.45601
1.61238
1.58963
1.50094
1.65796
1.57887
1.64301
0.304114
1.28337
0.337199
0.341976
0.407904
0.259776
0.194878
0.18316
0.350659
0.407363
0.376534
0.403822
0.359083
0.215668
0.300709
0.410952
0.447049
2.57708
0.14273
1.38816
0.425082
0.661492
2.37855
0.423088
1.42562
0.646881
0.341324
2.23248
0.562148
2.09671
0.482966
0.50098
0.313322
0.534778
1.30044
1.2509
0.419054
0.654621
0.24929
0.438578
0.57383
0.275619
1.32022
0.70117
0.428425
0.529134
0.32174
0.401956
1.10141
1.11867
1.37153
0.646596
0.954199
1.31072
0.529563
0.366893
0.868946
1.37918
1.2758
0.108351
1.87095
1.53725
0.564143
1.15055
1.34306
1.27384
0.282665
1.65801
1.7618
0.101668
1.41041
1.0947
0.37838
0.801908
1.2581
0.578541
1.90349
1.43306
1.20499
1.28098
0.227097
1.71602
0.10884
0.47065
1.53681
0.751824
1.28168
0.994942
0.338738
0.286093
1.44759
1.06962
1.57438
1.92707
1.67401
0.645967
1.20092
0.354715
1.54295
0.233145
1.40195
1.22391
2.54715
1.51213
0.150107
0.974043
1.086
0.443928
1.49793
1.69652
0.505942
1.13913
2.40521
0.683897
0.229029
1.57669
0.797698
1.86144
0.382791
3.93907
1.69384
1.23044
1.04217
1.35846
5.9749
1.55846
1.54659
0.380275
1.68992
2.17783
1.02325
0.78882
1.58059
1.86436
1.45685
0.34454
0.621286
0.13437
1.4495
1.23055
1.09496
0.719595
0.234039
0.474057
0.539794
1.28359
0.885628
1.23255
1.65709
0.111494
1.47767
1.92981
0.840152
0.817447
1.61511
1.63422
0.813978
0.510754
1.44219
1.44553
0.554163
1.53814
0.727079
1.16401
0.470323
0.28849
1.30778
0.55833
0.928842
0.260149
0.692044
1.60896
0.703489
1.50159
0.162244
1.98453
1.0905
0.618999
1.13812
0.439801
1.13578
1.29221
1.29815
0.620006
1.43629
0.497304
1.72183
0.105719
0.553026
1.22001
1.42651
0.947758
0.508584
1.58662
0.978745
0.413597
1.86055
1.02716
0.339925
1.37509
1.45431
1.20302
1.07937
0.675332
1.44221
1.52758
0.399296
0.300991
0.859162
0.929562
1.58978
1.85416
0.116147
0.474754
0.242765
0.29427
0.287445
0.569288
0.722657
1.17121
1.42497
1.71954
1.61545
1.16628
1.85761
1.54217
0.681742
0.796937
0.849612
0.442803
0.848042
0.74866
0.913959
1.62402
1.40366
0.838733
0.939959
0.514157
0.265392
1.33671
1.45667
1.65881
0.755025
0.901022
0.812299
0.742462
1.55349
0.237999
0.254521
0.231113
1.65826
1.25401
2.43111
0.218777
0.199905
1.70919
0.340836
0.243092
0.190529
0.789512
0.281254
0.43149
1.18666
0.209801
1.03619
0.978362
0.105718
0.308859
1.03047
0.398788
0.186968
1.62059
0.808553
1.4949
0.996443
2.42136
1.73442
0.188894
1.21688
0.823509
2.55166
0.835449
1.24358
1.20726
1.69273
0.443929
1.25061
1.78761
1.57915
2.3074
0.446217
0.930645
0.912867
1.17771
2.54832
1.20299
2.22685
0.381338
0.888058
0.832366
0.561716
0.243859
1.25913
0.24616
1.30353
0.33596
0.425491
0.362414
0.158892
0.441414
1.63513
1.34833
0.556327
0.510703
3.24972
0.174093
2.42005
0.272231
0.19071
1.07307
3.42974
3.11624
1.31143
0.306594
0.147276
1.50565
0.424038
0.407603
0.816029
1.23978
1.83939
0.909127
0.196981
1.97565
1.93545
0.738509
0.190242
1.34362
1.488
0.83294
0.506176
1.16659
1.12678
0.450104
0.245201
1.25584
0.274107
0.606718
0.981905
0.653782
2.06138
0.500568
1.18494
1.68926
1.0601
0.1847
1.04028
0.852803
1.02758
1.43029
1.02147
0.488439
0.235221
1.24592
1.39465
7.24267
1.01503
0.244319
1.45461
0.273457
6.10987
0.272494
1.28877
1.29513
1.90106
2.89685
1.37226
0.228898
1.8315
0.544528
0.156552
1.21605
0.963494
1.6066
0.259489
0.582552
2.13051
0.916092
0.185007
1.06794
1.68219
0.418031
0.876739
0.993942
0.88576
3.38766
0.308468
1.76893
1.29397
1.69059
1.29599
0.746203
0.602642
1.08327
0.755472
1.25822
1.26547
4.20159
1.21448
1.29599
1.32745
0.888011
1.53742
1.28882
0.631524
0.742686
0.447112
0.301448
0.815278
0.950015
1.43423
0.645149
0.296985
0.963938
1.64547
0.717023
1.59341
0.291561
1.28408
0.5345
1.58782
6.29115
1.70609
0.102515
0.338493
0.310609
0.378821
0.686952
0.492028
0.529043
1.90017
0.962072
1.17652
1.01568
5.715
2.67121
1.37476
0.740342
0.800161
0.818362
0.804273
0.809461
0.819738
0.773099
0.504795
0.540045
0.518548
0.54355
0.645668
0.890346
0.564461
0.563564
0.585087
0.556097
0.745881
0.718812
0.541258
0.69312
0.678163
0.52803
0.663972
1.60844
0.950049
0.527889
1.06262
0.288321
0.462309
0.227665
1.20217
1.20628
0.855582
0.336099
0.45247
1.80181
3.61265
0.700969
0.344496
1.12546
0.26203
1.53878
0.329521
0.282511
3.33376
0.100013
0.640471
0.353958
0.652903
0.588273
1.38242
1.12381
0.819396
0.393556
1.69507
2.43227
1.26834
1.3388
1.14862
0.506828
0.722434
0.220377
0.865777
1.06204
0.928654
0.544542
1.55747
0.672139
1.47817
0.407061
0.16262
1.82086
1.16128
1.20836
1.50746
0.680654
0.18657
0.313874
0.448141
0.982845
0.598365
0.176477
0.21243
0.77209
0.801491
0.851231
0.164997
0.327032
0.357877
1.21982
0.357751
8.05716
0.936123
1.03388
1.04942
2.56693
1.18481
1.16613
0.470119
0.375877
0.868077
0.126813
0.909949
0.848416
0.836156
4.22238
1.6535
0.617862
1.06864
0.75066
0.936366
0.603031
1.57944
0.80599
0.101763
1.69082
1.06153
1.10098
0.990206
1.99206
1.05278
0.319911
0.795797
0.134487
1.1506
0.463882
0.521625
1.063
0.554874
0.424198
0.49701
0.575081
1.28705
4.70205
0.319559
0.85044
0.538048
0.375935
1.44331
3.07232
0.543536
0.181717
0.99925
1.35638
1.1862
1.18227
0.307481
1.2396
0.407533
0.455408
1.03039
1.8464
0.530621
0.220716
0.695977
0.23972
1.96467
1.18206
1.16288
2.02731
2.02596
1.28649
1.69673
1.20935
0.475898
0.381565
0.65862
0.312593
0.917227
0.389016
0.513361
1.83718
0.236896
1.05221
1.7664
1.3887
0.849549
0.780321
1.59915
0.669718
0.613317
0.728648
1.87281
1.56903
0.649617
0.602476
0.518751
0.530369
0.556414
0.73362
0.736484
0.737971
0.614615
0.745706
0.23798
0.262372
0.27739
0.231667
0.222911
0.264781
1.38705
0.198647
1.70678
1.21322
2.17124
0.546966
0.436403
0.971008
0.273025
0.37021
0.811142
0.64677
1.15859
0.380788
0.205348
0.506579
0.103502
0.533092
1.08941
1.40582
0.34816
0.870219
1.03998
0.575405
7.09637
1.21857
0.457293
0.12116
0.815012
0.944166
1.17904
1.18132
1.0106
1.11034
0.37681
0.151141
1.03868
0.512215
0.421633
0.26882
0.406259
0.400628
0.376338
0.891112
0.866549
1.91294
1.39264
0.59868
0.917549
2.27527
0.191754
1.10549
1.83588
0.500603
1.0539
0.30884
0.172595
0.316465
0.981434
0.305119
0.497906
1.69566
1.80386
1.82545
0.538283
1.11842
0.112163
0.363434
1.97295
1.22412
0.966323
0.894999
0.854754
1.50589
1.01695
0.879984
1.3293
1.09383
0.601655
0.307744
1.37225
0.27875
0.340916
1.82932
1.40663
1.34024
0.8915
0.726797
0.358091
1.78329
1.15525
1.68183
2.02536
1.1837
0.397226
0.608065
0.209453
0.192258
1.09401
1.7555
0.741643
0.670156
0.450798
0.428795
1.56622
0.802106
2.46605
1.9898
0.961551
0.401733
3.90815
0.115195
0.301847
0.577594
0.297799
0.441509
1.97221
0.775247
0.865872
1.1293
1.00874
0.227392
1.56656
1.68705
0.552997
0.544583
0.27177
0.197972
0.656865
0.768509
1.83789
1.06992
0.556374
1.50112
0.620929
0.934048
0.613477
0.270179
0.496299
0.352331
0.486405
0.458848
6.4082
1.11907
0.335423
0.480045
1.11902
0.411095
0.302485
1.89665
1.4994
0.448592
1.92187
0.156664
2.53882
0.382185
0.155875
1.18118
0.326956
0.970887
0.342535
2.20793
2.11512
2.73164
0.317854
1.63028
0.336784
0.523771
0.381374
0.149536
1.44927
0.341126
0.893618
0.475813
2.00825
0.404912
0.467829
0.734479
1.10396
0.797674
0.419721
0.712167
0.504958
1.89051
1.66128
1.14127
0.184487
0.549409
0.490404
1.02175
2.02352
1.55936
0.813963
0.543003
0.976335
0.103981
1.52064
0.857455
1.35538
3.37795
1.02472
0.321048
0.479863
1.39377
1.44573
0.795699
1.24683
0.259545
3.58421
1.6499
1.29215
0.723346
5.74019
0.274093
1.79984
0.606772
1.32079
1.06766
0.357481
2.68011
0.858746
1.00238
0.29185
5.22248
0.250271
1.57956
0.890487
1.34374
1.70142
2.6238
2.52742
1.87982
1.05007
0.316077
0.297539
0.411923
1.04002
0.109739
1.07803
0.295719
0.490703
0.80237
4.57376
0.553426
0.204925
0.229272
1.03823
1.13554
0.304551
0.226705
3.5695
0.375988
0.268157
1.48499
0.589818
0.169003
1.09625
0.105598
0.590345
1.12738
0.904149
4.58281
1.05886
0.284781
0.116292
0.499316
0.742823
1.06589
0.26127
0.63207
0.749658
0.971305
0.96248
1.09636
0.919907
1.07465
0.320575
1.25239
0.880472
0.471673
1.08627
0.805631
0.500831
0.953601
0.930601
0.899663
1.17341
0.319824
0.297596
0.909063
1.00297
0.178614
1.17041
0.935185
1.15441
0.726129
1.32664
0.678051
0.559561
0.90793
0.779712
0.103736
0.875081
1.2247
1.20609
0.86461
1.4562
0.203599
1.11027
0.384623
0.709255
0.217546
0.281796
0.456972
1.50288
0.300669
1.37678
1.1461
1.32914
0.473838
1.05924
0.594437
1.63166
0.423275
0.676551
1.60388
1.22036
0.33105
0.0881051
0.11573
0.538591
0.891193
0.109654
0.0683511
0.43096
0.927041
1.40655
0.614872
0.790387
0.262322
0.103996
0.18116
0.100367
)
;

boundaryField
{
    frontAndBack
    {
        type            empty;
    }
    wallOuter
    {
        type            kqRWallFunction;
        value           nonuniform List<scalar> 
96
(
0.890652
0.543212
0.515905
0.913959
0.939959
0.901022
0.231113
0.218777
0.199905
0.340836
0.190529
0.281254
0.209801
0.978362
0.308859
0.381338
0.888058
0.561716
0.190242
0.245201
0.1847
0.259489
0.582552
0.418031
0.876739
0.740342
0.800161
0.818362
0.804273
0.809461
0.819738
0.773099
0.504795
0.540045
0.518548
0.54355
0.645668
0.890346
0.564461
0.563564
0.585087
0.556097
0.745881
0.718812
0.541258
0.69312
0.678163
0.52803
0.663972
0.640471
0.928654
0.544542
0.598365
0.21243
0.851231
0.617862
0.990206
0.85044
0.538048
0.543536
0.455408
0.220716
0.23972
1.16288
0.669718
0.728648
0.649617
0.602476
0.518751
0.530369
0.556414
0.73362
0.736484
0.737971
0.614615
0.745706
0.23798
0.262372
0.27739
0.231667
0.222911
0.264781
0.546966
0.205348
0.512215
0.538283
0.741643
0.197972
0.486405
0.504958
0.813963
0.543003
0.250271
1.05007
0.80237
0.229272
)
;
    }
    inlet
    {
        type            fixedValue;
        value           nonuniform 0();
    }
    outlet
    {
        type            zeroGradient;
    }
    wallInner
    {
        type            kqRWallFunction;
        value           nonuniform List<scalar> 
126
(
0.251812
0.131889
0.156451
0.365806
0.137869
0.0937378
0.64995
0.18434
0.58142
0.546661
0.139066
0.3554
1.49578
0.165597
0.324542
0.113058
0.277064
0.123858
0.684229
0.949144
0.235963
0.349431
0.226144
0.468229
0.653607
0.116804
0.220193
0.40103
0.445472
0.102738
0.430017
0.0826752
1.65401
0.304409
0.801622
0.201699
0.753949
0.219664
0.456595
0.0832125
0.64079
0.234812
0.269135
0.144154
0.340545
0.165686
0.494005
1.43678
0.218748
1.28753
1.31542
0.416321
0.819975
0.0821371
0.843045
1.09957
0.103147
1.59792
1.47732
0.905667
1.38329
0.194986
0.236586
0.994471
0.88383
0.589398
1.09132
1.02936
1.20362
0.705266
1.16089
0.98707
0.390598
0.677266
1.15055
1.2581
0.286093
0.354715
1.22391
0.443928
1.13913
0.382791
1.45685
0.13437
1.65709
1.92981
0.554163
1.29815
0.508584
1.44221
0.116147
1.03619
0.105718
1.07307
0.102515
0.686952
1.16128
0.854754
0.553426
0.204925
0.281796
0.456972
0.300669
1.1461
1.32914
0.473838
0.594437
0.423275
0.676551
1.60388
1.22036
0.33105
0.0881051
0.538591
0.891193
0.109654
0.0683511
0.43096
0.927041
1.40655
0.614872
0.790387
0.262322
0.103996
0.18116
0.100367
)
;
    }
    procBoundary3to1
    {
        type            processor;
        value           nonuniform List<scalar> 
48
(
2.23854
2.20188
2.20141
2.42002
1.73509
2.23231
2.20188
0.734209
1.35252
0.188168
0.188168
0.297274
0.297274
1.47859
1.57633
0.33967
0.346087
0.300375
0.346087
0.321895
1.00766
0.873248
0.321895
1.48474
0.131066
0.374241
0.618628
0.873248
0.551003
0.519987
0.519987
0.620707
0.620707
1.35252
0.348282
1.53155
0.846448
0.131066
1.95142
1.41735
1.47859
0.870729
0.94493
0.321895
1.56628
0.963118
1.66669
1.15569
)
;
    }
    procBoundary3to2
    {
        type            processor;
        value           nonuniform List<scalar> 
29
(
0.296107
0.296107
0.117802
0.207168
0.513722
0.336516
0.257855
0.407307
0.343145
0.298567
0.450185
0.745651
0.207052
0.640701
0.443106
0.521817
0.26665
0.324933
0.279936
0.430923
0.392663
0.26665
0.2427
0.324933
0.421643
0.266401
0.324933
1.20356
1.20356
)
;
    }
}


// ************************************************************************* //
