/*--------------------------------*- C++ -*----------------------------------*\
| =========                 |                                                 |
| \\      /  F ield         | OpenFOAM: The Open Source CFD Toolbox           |
|  \\    /   O peration     | Version:  v1912                                 |
|   \\  /    A nd           | Website:  www.openfoam.com                      |
|    \\/     M anipulation  |                                                 |
\*---------------------------------------------------------------------------*/
FoamFile
{
    version     2.0;
    format      ascii;
    class       volScalarField;
    location    "0.2";
    object      p;
}
// * * * * * * * * * * * * * * * * * * * * * * * * * * * * * * * * * * * * * //

dimensions      [0 2 -2 0 0 0 0];


internalField   nonuniform List<scalar> 
1466
(
90.6796
91.5491
89.8019
90.9185
90.2545
90.2256
88.2276
90.1201
90.2678
82.1009
89.2868
86.758
92.0336
91.2365
91.2366
91.4468
91.226
90.9144
91.098
91.2984
91.438
89.9835
87.4103
91.1971
91.3652
89.8298
89.6883
90.1324
87.2457
90.5283
89.509
90.4847
87.5031
90.4344
90.577
91.0525
90.5335
91.4484
89.1765
87.8251
85.9931
91.3186
90.9003
89.8039
87.5299
91.0209
91.4554
90.8516
91.3971
91.4521
90.114
82.2822
90.4909
90.2061
89.255
91.0998
91.4285
91.2084
91.3552
91.3553
91.3353
90.472
90.1073
90.5327
91.7006
91.2089
90.6173
91.4027
90.8417
92.1708
89.9706
90.8855
91.4572
90.8157
91.4548
82.2747
90.8585
90.7896
87.8742
91.3729
90.1216
90.649
91.3144
91.4454
91.4606
91.4557
91.4603
91.8611
91.1135
90.6017
90.9151
91.4693
91.5308
90.8619
90.1558
91.4615
91.1559
91.2091
90.8645
90.9746
88.1102
89.9417
89.6115
91.1837
91.4259
90.6435
91.3301
91.3671
90.8845
91.5128
91.4232
91.225
91.0692
91.4563
92.0158
84.2127
90.9703
91.2005
90.6883
91.203
91.4285
90.7099
90.5569
91.8101
91.3036
91.4945
92.0312
90.9475
91.5405
90.7573
91.4971
90.8554
90.4853
89.7066
90.0692
91.4226
91.2176
91.4559
86.2036
90.8267
81.919
91.4716
91.5141
91.5889
86.8032
92.3639
92.4236
90.7702
89.788
91.4593
91.5336
92.056
90.5514
91.3369
90.8756
89.4528
90.7994
90.4389
91.3998
90.6263
89.3457
91.078
91.683
91.4539
90.4964
91.4932
91.4924
90.9987
91.3457
89.7684
91.4562
91.4534
91.9915
90.3856
89.8018
91.5576
90.8582
91.4899
91.266
91.5053
90.8526
91.4233
91.5231
91.2285
91.6756
90.9447
91.3414
85.5265
91.155
91.0838
91.2576
91.8983
91.1804
91.6482
91.4421
90.8965
85.7211
91.5707
91.2129
91.1197
92.2598
91.2946
91.4029
91.3545
91.9984
91.3895
91.3924
90.9675
90.9969
91.8536
91.7899
92.5378
91.3268
91.4586
90.7803
91.2608
90.1372
90.5651
91.3465
90.9582
89.0127
90.6214
91.4514
91.4589
90.9411
91.4588
90.7751
91.6573
91.0507
91.2072
91.4611
91.8289
90.8293
91.4637
91.2584
91.9603
91.4762
90.3816
91.4961
91.6171
90.8575
91.5158
91.4627
91.0658
91.1303
91.1656
89.9793
91.4614
90.7066
91.3313
90.7837
90.7733
91.4599
91.9445
90.9817
90.755
90.7687
91.2306
85.3195
82.2295
91.4615
91.4593
90.4061
90.511
89.904
91.3056
89.3951
91.9087
91.2704
90.9084
90.6264
90.8235
91.4653
90.4606
91.4599
91.3715
92.1068
91.4407
90.887
91.2843
91.7957
90.9345
91.4217
92.0622
91.2093
91.4646
91.3476
91.4474
89.214
90.7709
91.458
87.9419
91.337
81.6863
91.5274
91.3032
86.4113
84.192
91.3437
90.6184
91.3893
92.5073
91.9061
91.3825
91.4448
89.7613
91.6702
91.475
92.0857
86.7862
90.6404
90.1852
91.2801
88.038
91.4921
91.281
91.5469
89.8819
85.146
92.0945
91.4555
91.2492
91.5497
90.1967
91.9352
90.6157
89.9994
91.1141
89.6549
90.1954
92.2799
90.8887
89.9014
90.0421
92.1139
90.326
91.2627
89.9243
91.8527
90.1362
92.2942
91.0497
90.3076
90.1526
90.8468
90.0191
92.1724
91.1214
91.407
89.0809
91.4782
91.4661
91.3832
91.4324
91.4541
91.3062
92.1118
91.2478
87.0471
91.3099
89.459
91.1336
91.4057
89.9445
90.2135
91.0046
90.0827
89.7912
91.0621
92.2903
90.0702
91.1861
91.9041
90.6337
90.1925
92.2489
90.3985
89.3
91.4555
91.384
91.4579
89.5332
91.4696
90.1388
90.5302
91.3145
91.4368
91.2566
91.4937
91.4413
91.4573
90.9305
91.4628
82.9746
92.1261
91.0384
91.5272
89.9522
91.4381
91.3012
92.8863
89.7869
91.7866
91.4726
83.3228
91.1723
91.5534
86.4067
90.8621
92.2992
91.2361
92.1736
91.2124
88.277
85.371
91.5105
91.5232
91.0295
91.4499
91.4826
91.1482
91.4202
89.1491
87.7366
88.6067
88.5671
87.1102
87.8417
88.049
88.4169
91.6392
91.2498
91.5027
87.6662
87.2296
86.493
85.6221
89.5935
90.5039
90.3823
84.4452
91.4375
87.8998
90.8849
90.5762
87.1017
90.2891
90.4711
85.5865
91.0171
85.7661
87.4739
90.8765
91.2494
86.0651
90.5544
90.1388
88.5789
90.7607
91.0125
87.4534
91.4074
91.3505
91.1345
86.4787
89.0789
85.5999
91.222
91.7373
91.0255
86.4275
90.7342
91.1198
90.7679
90.1615
89.4926
90.8453
90.9515
90.5229
89.6309
92.0796
91.1597
89.8782
91.1067
89.9433
92.3304
91.0176
90.1288
89.628
84.8604
90.4799
92.3253
90.7229
90.0805
92.7523
90.8436
89.2339
86.839
88.1975
85.8299
92.2554
90.3918
91.5982
91.4654
90.02
91.8468
84.3006
90.8912
90.8771
90.7521
90.5158
90.9963
90.3884
91.0037
90.9859
90.5783
92.2293
90.2978
91.2506
91.2287
91.3344
83.9472
88.3445
86.9231
87.0522
91.4516
87.0409
89.0171
91.4067
90.008
91.1232
91.5578
90.903
90.9316
90.9993
87.9759
89.5031
86.1704
91.4564
91.4286
87.0136
84.9451
90.068
85.7204
90.7624
91.1096
90.2057
83.1846
84.3966
92.1655
89.8626
91.4104
84.9624
91.5419
91.5578
89.6405
91.1135
91.2561
91.428
90.2228
91.2272
91.4972
91.5535
83.6181
83.8191
91.4849
91.4508
91.9163
90.784
82.8871
91.3823
89.612
90.7924
88.113
90.6119
90.8769
90.3851
89.9561
90.6359
90.837
91.5687
91.6925
91.5038
91.6957
91.4544
87.1504
91.3143
89.9407
83.2131
91.2225
92.1463
91.3324
85.2855
89.5821
92.1332
89.8149
90.661
91.5419
83.1549
91.643
84.3729
92.0201
89.5136
89.9234
89.8934
89.9516
91.3622
91.2393
86.4315
83.2884
91.5375
87.213
91.4475
86.2569
91.9367
89.886
84.0899
91.4708
89.0366
91.7069
89.7242
91.4465
91.1583
91.533
89.7333
90.952
91.4325
91.9466
91.4236
84.563
90.5552
83.2254
89.6653
90.5082
90.9267
91.542
91.2351
84.3356
92.0095
89.537
91.3855
88.5432
91.4183
90.194
89.6374
90.1977
89.7583
89.3768
85.5002
91.3191
92.0463
83.9527
91.5475
88.2781
91.3807
90.3003
91.2625
92.1926
91.2081
89.8561
91.5078
83.702
88.7645
90.6835
91.4774
84.4914
90.7912
91.5052
83.5678
91.5623
91.0441
90.4196
91.4539
89.9969
91.9377
90.4766
91.3104
83.7485
89.7724
91.4608
91.7943
89.8088
91.4575
89.7101
91.4112
89.899
91.0662
91.2546
90.3786
91.7537
90.972
90.8472
90.3525
91.4301
88.8136
90.6369
91.2347
91.4792
91.5594
91.5289
90.5396
89.8359
91.4827
87.8779
91.499
90.6287
91.5404
85.0396
90.673
91.8627
89.5681
90.3634
86.157
91.8026
89.4929
90.8397
91.3673
83.0444
90.6818
89.595
91.6986
91.3183
90.3351
91.5386
85.3333
91.4593
91.6373
91.8176
89.4077
87.6754
91.0702
90.5687
91.4673
91.446
91.4567
89.4639
91.423
91.4509
89.8621
86.8996
90.1051
91.3927
91.4497
91.0874
91.5486
91.2688
92.0724
89.9995
89.3211
90.691
90.3938
90.4887
90.4054
91.534
91.5623
90.9625
85.9932
91.1413
90.4815
90.4161
91.0389
90.3827
91.5865
91.998
90.9305
91.4711
88.4739
90.8114
90.2555
90.2056
91.3289
89.6463
91.0375
91.4595
91.5786
91.5181
91.9425
91.0169
92.0967
91.4443
88.6912
89.0152
92.049
92.1318
91.5632
91.4652
90.1417
91.4613
89.0024
91.576
90.5666
90.12
91.7404
91.7052
91.657
91.5426
87.1491
91.241
91.4149
91.0987
91.6382
91.6463
90.4383
90.1975
90.3628
90.5344
89.9523
91.4402
89.9978
90.1989
87.5061
90.5141
91.3681
89.8276
91.3569
91.3557
90.8067
90.2789
91.2769
91.497
88.1706
89.9931
90.9481
91.5281
91.3759
91.3264
90.9825
91.4617
91.4433
90.1582
90.366
91.4743
90.2135
89.4642
90.8037
90.6284
89.3803
91.5686
90.6635
94.3121
91.3576
91.4645
85.4882
90.9688
91.4575
91.4509
91.1571
90.8256
90.8493
91.5149
88.5843
91.5499
91.587
88.956
91.4511
90.0698
91.4264
91.1736
90.6827
91.191
91.4752
91.4646
90.3424
91.4321
89.5863
91.8364
90.7685
91.2487
91.5789
90.4273
90.9008
91.4082
89.6652
90.1428
90.3036
91.4562
90.6823
91.8904
88.0955
91.0241
90.4946
90.1166
89.2268
91.1831
90.7067
90.497
91.2143
89.9686
90.9032
90.2076
91.5407
91.4567
90.4954
91.9376
90.7349
85.9303
89.8285
89.7527
89.6956
90.1736
90.6695
90.9788
91.4753
91.1298
91.4213
91.2363
91.453
91.35
90.3134
89.7421
91.8291
90.0046
90.9725
91.4153
91.5159
91.7288
82.6575
91.0012
91.8128
92.0472
91.9248
90.597
90.6246
91.257
89.224
91.4079
91.3125
91.378
91.4857
89.8365
90.6147
91.9303
91.4485
90.9015
90.6175
86.4998
91.4461
90.6681
90.9822
91.2814
91.2459
91.1689
91.2119
91.5338
91.4682
91.5559
91.4932
91.3307
91.3836
91.2701
91.3907
91.4536
91.5174
90.7372
91.5835
91.6558
85.8854
90.6548
88.5747
91.4316
91.1793
88.2351
91.4493
91.7655
90.7327
90.6701
89.8312
90.8223
90.0972
90.9742
90.7924
91.8163
91.0401
90.099
91.3819
90.7437
89.7181
92.1005
91.1153
91.5008
89.5698
91.5033
87.1747
90.0484
91.3879
89.9869
82.2614
92.3762
91.0564
91.2531
91.1346
85.4593
90.8565
91.0583
90.0443
90.0372
90.8923
84.738
90.595
86.5294
90.9273
90.9939
90.3219
91.1804
89.6839
91.4656
91.4611
88.6803
91.7631
90.9264
91.196
90.7151
90.9834
91.5062
91.4643
86.6522
90.1597
92.2465
91.4442
90.9128
91.4283
90.8573
87.8122
90.0102
90.6162
88.7683
87.7547
91.2286
90.5153
89.8579
91.4276
90.0491
88.5366
88.8083
91.0964
90.5189
86.5081
91.4561
91.5148
91.7914
88.6913
91.4242
91.2336
91.3016
91.2908
92.132
91.0764
91.9892
90.7984
90.5924
92.2978
90.1639
89.8742
90.1869
91.2881
91.4675
87.4425
90
91.4112
89.6616
85.882
90.9488
90.2361
91.7952
91.0575
92.2831
91.4085
83.8381
89.0874
87.8251
91.4605
86.7451
91.003
92.3762
84.679
91.4552
88.2448
90.1658
89.5872
89.9812
86.6023
91.5284
89.4523
89.8281
90.2984
87.1529
85.0702
86.5087
90.1522
90.4699
89.2711
92.7526
91.4438
84.4244
90.7906
91.0174
90.4805
89.5308
86.5288
91.1995
90.9902
88.1553
91.4507
90.7476
91.2652
91.4443
91.8509
90.0551
88.7728
90.7208
89.6409
91.8413
91.4657
90.6872
89.9275
90.8095
91.1064
91.423
90.7886
88.107
91.4429
90.2386
91.1028
90.0245
91.4106
91.2249
91.5047
89.9951
86.1808
90.0032
91.2993
92.0209
91.4704
90.809
91.2586
91.2642
91.4756
90.8619
86.8642
89.9127
90.7144
91.2938
91.5241
91.2281
90.712
89.7434
91.8938
91.1252
91.1765
91.2294
90.6892
91.3358
91.4387
91.8036
91.782
91.2983
91.9466
91.3435
93.1868
90.5523
90.0622
90.8933
88.5222
86.3701
91.1945
90.4553
90.9828
91.3826
90.1938
90.0577
90.8246
91.0641
86.9232
90.3098
90.7236
89.7061
90.0817
90.9711
91.2833
91.0813
91.2092
90.5733
90.7651
91.2654
91.3642
91.9695
91.3074
91.2821
91.0888
91.3035
90.7553
91.4796
91.6865
90.8571
90.3214
84.8192
91.1325
90.9122
92.0008
88.7369
91.4746
89.6882
90.0882
91.4533
90.3895
91.9157
91.4531
83.4264
89.7975
84.9951
91.3954
91.2176
89.926
90.9052
83.9624
91.3859
91.7076
90.8912
92.1615
90.8768
87.0088
91.3564
91.2087
91.4875
89.7854
90.896
90.8425
85.4064
90.4897
90.9127
91.2049
91.3416
92.0262
90.641
91.2013
91.4278
90.1472
90.8108
90.6966
90.2603
87.3648
90.7998
84.5451
83.6565
90.8831
83.9346
90.1108
91.8167
89.8708
91.4999
91.456
88.0118
91.4355
89.1054
91.1432
91.8452
91.3524
91.9439
91.2109
89.4473
89.1287
91.4434
91.149
90.8167
90.6322
91.8931
90.7078
88.504
91.4901
91.1253
91.3864
90.9854
81.277
91.4426
86.2494
90.53
90.218
91.3934
91.4484
91.5817
90.1192
91.7635
88.9272
88.0925
89.9274
91.7509
91.6333
92.509
90.773
90.2614
87.3722
85.917
90.827
90.1417
87.4017
89.2951
91.1213
91.9585
90.801
90.7193
90.8246
89.5832
91.4747
90.8578
89.6448
89.6373
91.2633
91.2096
91.4367
91.4113
88.7167
91.5979
90.7444
90.7543
91.4666
91.0486
89.7358
92.2062
91.3225
86.3127
91.2863
91.5152
89.5412
91.3067
82.8472
91.3981
90.2907
88.1245
91.4137
89.839
90.6509
85.6894
91.1804
91.6422
88.7221
91.3506
91.5329
90.1977
92.2209
90.9159
91.0628
89.4772
90.8465
90.8964
92.3226
91.4048
91.4775
90.0735
89.8824
91.9832
90.9985
91.241
90.7553
90.6164
92.3134
90.3889
91.4053
86.351
89.9463
91.3698
91.1229
92.1762
91.4504
89.8141
91.4482
91.0581
90.1261
91.4983
85.944
91.9267
91.248
90.9533
91.185
91.9394
91.4181
91.1768
91.6093
90.9242
90.3201
91.7822
91.4478
91.3751
90.8497
91.4508
88.1786
91.664
91.2735
89.6577
91.4861
90.5737
91.3311
91.6325
90.0222
90.0405
91.4555
91.4771
90.5557
91.9347
92.2521
91.46
83.0767
85.39
85.2227
91.1421
91.988
93.2381
91.459
91.5303
91.0429
91.0626
91.5774
91.4948
90.8099
91.4549
91.44
91.662
91.2429
93.3501
84.9482
90.831
90.431
90.3162
91.8799
91.431
91.3214
89.6051
88.7837
91.7359
90.0386
91.7751
91.3678
90.7234
90.4455
91.1922
91.5467
90.8328
91.6187
91.636
91.2206
91.4272
91.3607
85.8061
91.866
90.9448
90.6992
90.1432
91.5397
89.6879
91.4348
91.3795
91.4067
91.429
91.4281
88.5033
87.5558
91.6096
91.084
89.4566
90.1831
89.2727
90.3382
89.991
92.7661
88.186
95.3511
79.3892
)
;

boundaryField
{
    frontAndBack
    {
        type            empty;
    }
    wallOuter
    {
        type            zeroGradient;
    }
    inlet
    {
        type            zeroGradient;
    }
    outlet
    {
        type            fixedValue;
        value           nonuniform 0();
    }
    wallInner
    {
        type            zeroGradient;
    }
    procBoundary2to0
    {
        type            processor;
        value           nonuniform List<scalar> 
42
(
87.0213
87.0213
91.6759
91.6573
92.7331
87.4725
91.7846
91.7846
92.339
92.1327
92.2242
92.2242
92.9486
91.5586
90.8257
87.5841
88.7246
92.2491
92.1175
90.2837
90.0135
92.2713
92.2713
89.3237
90.0135
92.2989
88.8175
92.2208
88.8175
87.7938
88.6064
92.1298
92.0228
91.9044
91.8309
91.6573
88.7246
91.5526
87.9729
91.8008
91.8008
91.7974
)
;
    }
    procBoundary2to1
    {
        type            processor;
        value           uniform 90.3436;
    }
    procBoundary2to3
    {
        type            processor;
        value           nonuniform List<scalar> 
29
(
90.6631
89.7862
86.5596
87.6342
90.8075
90.9321
82.8566
89.8033
86.6483
86.3734
90.4555
90.5533
90.8806
83.0507
85.1535
82.5831
85.826
85.826
89.7862
83.0507
84.5145
85.7465
85.9977
85.7347
85.47
86.1738
86.6483
90.3513
90.5533
)
;
    }
}


// ************************************************************************* //
