/*--------------------------------*- C++ -*----------------------------------*\
| =========                 |                                                 |
| \\      /  F ield         | OpenFOAM: The Open Source CFD Toolbox           |
|  \\    /   O peration     | Version:  v1912                                 |
|   \\  /    A nd           | Website:  www.openfoam.com                      |
|    \\/     M anipulation  |                                                 |
\*---------------------------------------------------------------------------*/
FoamFile
{
    version     2.0;
    format      ascii;
    class       volScalarField;
    location    "0.16";
    object      epsilon;
}
// * * * * * * * * * * * * * * * * * * * * * * * * * * * * * * * * * * * * * //

dimensions      [0 2 -3 0 0 0 0];


internalField   nonuniform List<scalar> 
1431
(
3.69094
7.6091
69.6832
82.8503
2.01514
2.51502
1.61346
4.4284
22.1919
9.03426
5.01453
27.848
9.74606
62.0303
25.4157
16.7581
27.4116
7.98749
3.94912
5.14635
1.88496
8.15077
1.46815
69.3985
56.6643
5.53176
68.988
55.5728
22.3304
39.3704
53.9752
13.2806
3.54983
1.24629
2.20804
58.394
4.9976
10.2004
2.40832
9.8113
151.993
10.6136
0.857646
1.39207
5.23228
1.72526
45.707
4.78142
19.5769
16.6353
30.5827
7.94758
2.68983
1.45824
1.6121
4.64747
3.2852
0.927565
58.1421
2.13609
46.4618
1.75677
71.0543
9.83151
35.5562
6.49273
50.6355
3.12372
13.3592
12.537
1.10103
2.06686
2.65262
2.72924
9.84899
4.2808
2.19526
41.7752
5.78983
98.642
8.12146
24.0186
3.45489
92.2273
128.945
2.11262
2.46137
27.7072
78.1104
4.58084
1.59526
42.5844
2.52012
10.0522
21.6683
2.04752
18.0647
8.84884
2.19898
33.2811
10.0532
5.52423
1.28934
1.94635
28.3285
3.03903
6.6278
161.645
75.1113
2.23917
121.612
3.56913
5.45897
1.96545
24.4887
1.93058
7.0643
21.4782
88.8182
4.69049
8.79564
3.1058
4.78963
58.1938
9.33434
5.44097
102.387
8.82545
2.46319
26.3911
1.59951
125.08
50.433
1.02108
2.44423
62.1672
2.58847
4.3557
1.32604
136.269
18.4939
2.06991
9.83773
20.9463
26.5821
16.2133
8.83826
158.088
2.53427
15.2555
28.2495
39.1475
6.79865
6.05739
1.56511
13.7835
8.9909
0.949277
5.06272
8.84945
9.93922
3.743
1.53328
20.1402
2.27812
177.389
2.1395
9.49335
34.6545
1.78751
35.9744
23.4918
52.3699
17.4768
9.34241
1.48356
5.24563
26.2782
35.0376
6.24859
10.7425
32.4116
5.02146
3.22043
14.1372
17.5821
6.30773
55.7536
5.84578
10.0875
43.1448
43.9726
1.90172
7.37365
41.7882
7.95532
6.31777
7.23753
2.15835
2.02519
3.51958
76.2122
12.7196
169.854
6.96635
93.2363
2.21562
10.0432
4.37627
23.6054
7.97401
5.38847
80.7216
9.71911
1.92803
0.826312
4.74007
81.854
43.8179
9.99519
9.23153
89.3296
21.5229
106.527
11.0557
30.0586
27.7512
1.52859
19.6876
56.4299
2.05351
43.5548
11.0598
4.5421
4.41745
4.8458
10.17
2.67867
8.20427
5.14725
10.37
10.5466
4.7547
68.149
18.3142
16.0758
10.3663
1.5161
1.11556
29.0402
9.27118
10.1739
8.77395
25.3272
61.0082
36.6209
51.1348
4.32913
30.4992
33.9258
38.7788
17.9437
2.23561
3.53836
4.51659
18.8631
28.2699
7.6265
18.2554
1.54863
6.97024
24.2932
9.0544
8.91624
41.3738
8.5574
1.03932
54.2355
7.08511
6.43158
43.5657
5.50547
17.6789
0.916838
31.2236
54.5493
2.0598
4.38007
24.4477
9.25297
17.7809
11.5535
4.60504
34.1663
10.8939
5.53068
1.92199
7.63082
4.36065
7.55723
11.1118
28.1972
5.6978
6.82375
1.15712
5.20976
8.61755
35.0185
32.1666
0.665274
9.98752
13.0795
108.433
1.84264
7.03621
5.19304
4.6162
5.96008
4.43011
31.5485
6.19552
32.0508
14.6146
6.74616
3.91732
18.8877
7.40046
11.7706
84.5465
9.35886
26.8827
7.19548
4.43672
36.8705
8.85136
12.7696
32.6758
14.7534
30.1284
5.30194
2.76593
7.60839
11.0746
18.4165
65.106
5.99948
11.3817
0.909854
0.527462
0.516289
1.48067
1.66725
2.74275
20.8649
8.51142
1.86151
1.78621
7.41512
7.61019
6.59534
55.3093
7.55886
29.7187
0.63534
0.44089
0.936828
45.5363
7.13854
57.7934
38.7419
6.09471
4.12988
38.2028
13.8992
70.4094
133.948
21.2315
11.4929
13.9054
4.33221
1.7386
1.06999
0.447971
2.0456
6.72348
38.2479
6.14325
8.22745
13.07
0.586161
0.937946
50.6156
22.4233
13.9162
21.2024
2.24974
3.62419
10.7387
6.17312
9.1357
4.44146
20.7525
10.2515
27.8537
27.3248
13.0051
5.56968
8.49089
0.494342
27.747
41.4518
53.3348
3.20349
54.3768
23.3943
55.0556
11.6815
1.4209
8.15268
1.22243
6.52841
13.3357
7.52136
38.7888
18.5815
11.8569
33.0448
30.9061
12.0135
17.0271
25.4245
46.7291
24.9814
29.4505
5.71291
13.2077
10.7089
30.4025
37.8523
1.79009
1.66871
4.48304
31.9819
36.6446
52.6314
10.7441
9.33282
57.4012
135.062
30.9711
29.2566
6.62338
17.7466
7.27967
12.4664
7.13615
7.01315
7.33022
7.35806
5.78641
41.6724
58.126
2.00029
1.4546
5.83912
5.61754
0.436524
61.0971
1.6271
7.28791
56.3164
12.5299
6.70862
56.7058
1.39101
7.74653
52.1287
58.2712
51.3726
62.7298
19.1977
14.626
58.9383
4.79636
12.5149
1.91501
1.25419
6.78051
9.00064
101.43
74.2965
56.3478
9.0708
47.9344
57.8197
16.7613
50.7336
46.7413
11.3712
38.5351
1.18891
99.2916
29.0621
20.1876
21.2818
88.2031
8.40375
7.15036
19.8157
4.54834
3.66199
69.1855
6.27952
46.7127
11.3161
21.4713
51.1263
78.7208
19.5483
4.99468
115.254
45.6726
66.1841
0.421867
9.90172
9.41588
12.9617
12.9565
49.0607
34.6848
12.2166
7.0327
35.2888
55.7341
6.91459
12.6993
26.4467
28.5224
17.4483
56.9043
25.0201
51.5332
15.6858
2.968
1.45459
7.75389
29.9834
5.3566
6.2878
10.115
35.7716
0.825836
31.1201
9.03216
4.80471
22.4774
24.9673
18.2153
31.8442
4.43016
28.1956
32.0824
27.649
34.8035
4.25866
1.14081
14.6357
5.09356
58.5083
25.9363
1.51811
8.60602
65.9839
8.0729
68.8195
0.859971
13.2942
51.9197
29.014
19.7892
19.7432
5.64138
19.2434
16.6877
3.95718
27.8416
13.9006
11.9513
27.0416
18.6019
3.57936
0.993455
13.7235
10.5042
9.18282
29.1975
0.56872
53.7477
5.23312
5.40461
16.0927
12.4396
9.90304
25.9788
25.7033
6.63589
3.51807
10.7505
9.02952
102.33
66.5986
7.43768
1.97104
31.9632
84.7428
5.20543
86.7653
5.29647
29.8003
6.02674
6.96131
5.81923
5.47463
10.2189
69.5944
8.91279
8.78306
0.727975
7.73074
5.92532
9.79569
5.80154
1.4368
6.36158
6.30796
6.88496
11.5054
4.92946
26.4335
3.88855
24.7393
6.50001
6.82603
5.08192
130.105
23.9589
25.708
1.8109
8.11154
3.91461
4.77658
7.3295
8.2671
34.5381
1.31136
7.06468
7.23922
11.8058
35.8576
5.40409
21.1524
0.958001
2.23763
2.04371
8.69534
5.08068
13.6823
8.16087
5.78775
37.1857
0.80438
7.65369
3.64333
22.7388
12.3808
12.1268
0.970653
1.94971
10.9016
22.7773
30.7724
0.91179
19.4261
2.76488
67.0487
23.1387
18.7775
23.8127
27.1163
4.91314
72.5534
23.4997
24.5821
2.83944
9.81852
12.3268
0.643395
1.09259
8.11159
5.27045
23.9533
10.6396
4.23025
12.1539
2.27481
37.5618
30.5735
4.5735
13.9275
176.077
47.7939
0.425919
5.62733
9.12353
31.7113
25.1543
8.5082
54.3746
5.65336
1.61907
23.8941
9.62938
5.33393
46.3425
6.50805
26.2739
8.40365
33.3083
31.7434
58.7921
48.3618
2.22604
29.106
28.3529
32.961
4.28813
0.972836
80.3902
5.44855
1.3689
24.2674
2.87503
13.9216
1.49778
40.3891
22.2191
5.28655
21.5105
45.0336
6.23834
1.30329
4.35572
28.6158
31.2477
1.37986
1.30879
13.0551
29.2641
18.652
119.666
2.27192
49.7825
46.5243
44.4643
9.89708
1.11694
7.52963
46.5373
43.0676
29.6304
99.0683
45.8729
0.517399
2.82613
15.5208
37.8647
1.26483
47.4
28.2836
7.97284
5.51974
1.26396
33.1054
2.49807
1.98952
110.916
0.42052
2.48014
1.92017
141.546
1.0791
4.33913
94.2705
47.3656
13.9626
10.3413
0.629355
3.99698
33.2851
5.85888
21.3714
23.8722
6.19561
10.0819
0.640596
6.5505
54.923
13.0428
1.06566
2.31082
8.56077
6.09939
1.07079
0.841634
95.9698
31.3217
37.283
40.628
46.7522
35.203
27.8889
31.9384
35.3223
11.8129
4.26895
17.1724
3.34888
23.6022
8.59359
0.760045
6.48608
0.374864
1.44904
1.0491
2.8065
28.0102
28.3497
30.2223
3.85072
22.6448
4.38251
8.54322
8.65602
34.7602
64.3208
7.04496
5.00984
5.43746
9.09809
6.1981
12.1035
13.3644
4.07375
0.644567
49.9568
0.838889
5.31659
1.06981
11.0452
12.4177
5.67372
1.03622
6.69776
8.86047
4.87901
2.62023
5.18006
4.79412
0.690035
2.93392
12.1408
46.313
2.13902
12.3476
0.369315
7.17814
1.2626
1.56075
63.0888
6.78945
1.49886
8.80849
2.86213
0.531933
10.4239
3.38744
0.906604
45.6017
27.4808
11.8831
20.9785
55.0092
1.89939
7.94011
2.97672
48.6804
0.37813
2.5723
37.0618
11.0364
38.7177
30.5833
8.43008
12.9893
72.6642
62.6328
25.799
2.48825
0.379207
1.46981
3.13905
5.56691
60.4001
26.2377
8.2749
20.5688
36.7095
13.3936
22.4699
14.1765
28.4956
5.57372
1.25539
6.02255
5.08942
44.3887
12.9169
34.7725
6.30108
39.9097
32.871
4.35403
2.62252
6.23853
7.64783
7.04299
5.04183
8.26285
9.05004
11.4538
0.70762
2.06937
6.90905
9.7315
3.02564
1.09228
116.633
2.228
18.846
7.31503
8.02441
2.86839
25.3616
27.1617
75.3406
6.58118
9.69335
10.1757
26.6142
4.97991
1.16559
22.1072
5.75974
21.4237
9.74313
8.02695
8.94742
86.8476
2.87501
76.9864
6.20966
8.3754
8.83767
40.1476
5.49947
8.04901
6.35972
8.16004
8.40962
2.60673
8.81757
19.1733
25.1603
68.5239
3.28745
56.9628
2.6521
49.0379
5.83579
41.9047
2.57361
6.9955
17.8685
10.3377
11.6673
6.51338
32.7241
44.1463
149.537
2.20941
3.58083
13.1952
23.2783
1.04856
1.53906
4.58556
2.03479
31.9425
13.0639
1.27122
33.7418
8.40489
5.78288
8.85538
66.9788
62.2019
49.7258
10.7255
18.427
14.2241
15.671
1.28865
5.18429
10.2574
45.4112
6.33046
6.99398
16.121
6.49538
159.321
18.8967
7.92453
20.3833
132.453
23.3509
10.5676
93.9287
10.7619
27.2113
4.72022
44.2639
1.95242
0.578887
2.07502
22.1164
6.06935
37.1828
4.88619
4.32422
24.3975
6.109
30.6791
4.21122
30.8965
0.982329
1.47423
4.78492
18.6368
61.8341
4.90188
17.4735
32.1696
12.9869
44.2891
5.43188
1.3161
9.66733
11.0892
11.4796
17.2287
2.27381
4.60909
30.8006
44.695
6.55566
80.5545
2.35545
73.5097
14.1767
14.1356
2.7538
27.6198
56.6479
0.65111
7.43237
2.43206
31.5586
65.3514
23.0736
25.3569
27.2603
17.9328
47.3236
4.98791
43.4879
8.15199
3.35118
12.0804
2.69037
85.2886
107.382
4.30277
17.2487
95.6199
1.10316
14.8198
19.0441
0.699228
6.00441
45.4904
5.38895
25.5354
22.7421
69.3826
2.45892
84.963
15.6595
4.92269
23.3514
6.98666
4.38369
24.337
15.2955
3.83106
128.553
6.47876
31.3529
61.3675
1.65309
1.49797
14.4574
1.2807
3.99185
40.2001
3.65395
3.09704
8.08884
33.1194
4.06715
0.40016
1.28752
2.35448
51.9612
7.88768
1.18422
4.82587
65.1646
2.81048
98.4721
7.38088
44.3133
0.524259
1.44128
24.9832
2.8463
24.2637
71.1336
49.9778
51.2681
8.91977
121.51
3.51151
0.386582
1.87045
7.5769
65.1076
117.977
0.457611
1.24447
5.35445
12.1212
2.02755
31.9782
121.166
39.0549
14.382
4.55012
0.892481
2.58709
9.11876
118.609
36.5284
4.44048
2.12564
12.2686
43.7624
62.3822
28.4864
28.4402
0.366087
5.2839
88.6458
30.7761
3.93017
36.7345
2.22453
74.8229
7.7765
5.11758
11.1041
24.6097
2.78089
3.62036
39.4684
27.9258
47.1623
12.66
11.5618
4.277
13.2132
14.2265
59.0066
10.0512
4.18411
24.7742
0.847641
64.2023
6.14454
5.21333
105.671
5.63502
9.74423
35.2818
2.17366
29.5505
4.59317
3.64016
8.83662
19.8345
12.6204
37.2198
118.481
2.12439
112.585
3.72464
8.82056
62.281
2.32124
5.15232
1.41093
16.0779
145.597
54.3334
0.808167
1.39253
7.50438
2.06065
5.91988
54.8576
9.76096
2.35788
23.886
4.65481
14.7166
197.182
4.12399
116.382
30.9504
3.02296
7.64829
12.1772
3.8474
39.3054
1.31049
18.3617
12.3842
18.7059
24.9592
2.9766
42.1158
11.8289
13.0505
0.468745
7.65267
5.20253
5.66836
15.5157
4.47377
34.4866
41.9686
3.91289
12.0322
6.34302
17.0904
14.9598
151.705
12.8714
23.6046
8.678
7.85071
62.4636
53.5177
2.38597
8.72842
4.7961
13.0981
11.3522
25.2966
9.67555
0.911357
7.07418
6.03913
28.8602
36.7132
8.90674
30.8522
7.66364
12.536
4.6382
8.46429
11.8588
20.5464
1.5027
24.87
6.6252
1.73208
14.0794
36.0389
3.76327
12.2325
1.75383
4.83696
4.27035
9.89915
3.89044
103.35
54.8685
13.3236
7.50139
1.16058
22.7463
9.87211
1.97097
5.9246
5.43825
8.21946
85.8905
5.91463
35.8071
1.97832
7.57296
11.3621
63.3445
154.762
3.14851
6.80247
25.2745
5.07491
1.38931
8.71576
7.78617
36.0085
22.467
9.96748
11.8907
5.78885
9.16894
30.5297
5.95991
21.4943
4.20012
4.83023
8.01269
5.70902
49.8936
66.5172
5.81675
5.08717
7.75685
20.1612
37.5535
5.11551
6.01791
34.2964
7.3389
2.99267
22.667
9.10318
7.38521
7.69612
5.80843
66.0976
5.45893
160.987
6.11498
44.737
112.343
12.0922
13.4338
1.95279
23.1392
3.05594
59.4551
12.0348
4.59497
11.5764
48.2579
10.2129
5.65299
7.04331
5.82371
12.6075
8.26476
60.2344
28.4967
47.1581
41.5585
34.3156
41.6326
4.85366
5.42181
8.15208
41.9671
9.06661
11.9746
12.7584
44.1251
8.97975
38.9518
9.17326
23.1478
23.9419
5.11011
37.5485
19.596
1.06265
1.35503
103.038
1.96953
1.85744
2.29664
)
;

boundaryField
{
    frontAndBack
    {
        type            empty;
    }
    wallOuter
    {
        lowReCorrection 0;
        type            epsilonWallFunction;
        value           nonuniform List<scalar> 
90
(
16.7581
25.1543
23.8941
26.2739
31.7434
29.106
28.3529
40.3891
22.2191
28.6158
31.2477
43.0676
29.6304
37.8647
33.1054
94.2705
31.3217
37.283
40.628
46.7522
35.203
27.8889
31.9384
35.3223
34.7602
72.6642
62.6328
34.7725
39.9097
6.23853
7.64783
7.04299
5.04183
8.26285
9.05004
9.7315
7.31503
2.86839
25.3616
9.69335
8.02695
8.94742
86.8476
2.87501
8.16004
8.40962
5.83579
41.9047
2.57361
44.1463
66.9788
6.49538
30.6791
44.2891
30.8006
2.7538
2.43206
31.5586
65.3514
17.9328
43.4879
8.15199
4.30277
95.6199
45.4904
69.3826
84.963
3.83106
128.553
6.47876
51.2681
3.51151
117.977
5.35445
121.166
118.609
28.4402
30.7761
3.93017
74.8229
35.2818
112.585
3.72464
30.9504
3.91289
4.83696
154.762
3.14851
36.0085
20.1612
)
;
    }
    inlet
    {
        type            fixedValue;
        value           uniform 14.855;
    }
    outlet
    {
        type            zeroGradient;
    }
    wallInner
    {
        lowReCorrection 0;
        type            epsilonWallFunction;
        value           nonuniform List<scalar> 
138
(
27.848
3.94912
3.54983
1.24629
2.20804
10.6136
50.6355
3.12372
1.10103
2.06686
4.2808
50.433
6.05739
1.56511
1.48356
5.24563
2.15835
2.02519
3.51958
76.2122
106.527
36.6209
51.1348
30.4992
33.9258
38.7788
28.2699
41.3738
31.2236
35.0185
32.1666
2.76593
5.99948
0.909854
0.527462
0.516289
1.48067
1.66725
2.74275
20.8649
8.51142
1.86151
1.78621
7.41512
7.61019
6.59534
55.3093
7.55886
29.7187
0.63534
0.44089
0.936828
45.5363
7.13854
4.33221
1.7386
1.06999
0.447971
2.0456
6.72348
38.2479
6.14325
8.22745
13.07
0.586161
0.937946
4.44146
53.3348
55.0556
24.9814
4.48304
52.6314
135.062
58.126
56.7058
62.7298
58.9383
101.43
74.2965
56.3478
57.8197
50.7336
99.2916
4.54834
3.66199
78.7208
1.45459
0.825836
31.1201
31.8442
1.51811
5.40461
1.4368
5.08068
0.91179
0.643395
1.09259
58.7921
2.22604
13.9216
2.27192
7.52963
15.5208
1.26396
47.3656
0.640596
6.48608
30.2223
3.85072
0.644567
1.46981
44.3887
0.70762
2.06937
1.09228
40.1476
56.9628
2.6521
3.58083
13.1952
61.8341
2.35545
73.5097
1.10316
1.2807
3.65395
65.1646
2.81048
0.892481
2.58709
2.17366
12.7584
37.5485
19.596
1.06265
103.038
1.96953
2.29664
)
;
    }
    procBoundary0to1
    {
        type            processor;
        value           nonuniform List<scalar> 
29
(
1.15813
1.66073
1.48769
1.48769
7.91551
7.91551
120.346
3.56024
42.1433
2.71085
3.01104
4.4301
1.20803
1.33126
80.9216
34.2312
13.3218
25.9252
2.40365
1.66944
14.4088
6.89257
32.2508
11.5956
11.6673
25.9252
9.11439
71.6545
11.5956
)
;
    }
    procBoundary0to2
    {
        type            processor;
        value           nonuniform List<scalar> 
42
(
8.2311
7.81318
2.19672
1.90334
12.8107
8.2311
2.19672
1.77757
5.06781
0.970875
30.7907
28.1807
30.7907
18.6377
10.7587
7.44798
10.7587
0.649925
1.98284
1.45395
1.45395
0.649925
0.468965
1.3602
1.3602
0.380831
2.28248
0.428187
5.10867
7.74065
7.74065
0.594653
0.784975
0.859993
0.839248
2.19672
7.99219
2.7856
5.10867
1.77757
1.09784
0.871836
)
;
    }
}


// ************************************************************************* //
