/*--------------------------------*- C++ -*----------------------------------*\
| =========                 |                                                 |
| \\      /  F ield         | OpenFOAM: The Open Source CFD Toolbox           |
|  \\    /   O peration     | Version:  v1912                                 |
|   \\  /    A nd           | Website:  www.openfoam.com                      |
|    \\/     M anipulation  |                                                 |
\*---------------------------------------------------------------------------*/
FoamFile
{
    version     2.0;
    format      ascii;
    class       volScalarField;
    location    "0.42";
    object      epsilon;
}
// * * * * * * * * * * * * * * * * * * * * * * * * * * * * * * * * * * * * * //

dimensions      [0 2 -3 0 0 0 0];


internalField   nonuniform List<scalar> 
5794
(
1.65341
1.17562
3.04431
153.318
41.2927
1.2553
23.1341
9.76936
99.0651
10.3559
35.2871
2.20726
12.2826
42.1526
1.90467
0.690752
111.411
57.5298
3.56079
1.71902
78.1778
1.0687
40.7163
7.59969
5.95167
78.1381
75.5996
27.4557
92.2709
0.714479
6.07161
2.95469
21.8042
12.2571
9.07075
24.5183
4.40898
6.53972
58.8369
39.7229
17.5226
2.53378
9.12003
1.39862
5.90856
46.9769
3.07405
13.9503
7.99312
17.8883
0.192497
61.3242
5.59209
4.76031
0.29312
43.0712
3.10621
18.9375
5.66251
156.706
58.8831
0.807877
4.92525
3.23788
25.9357
0.716937
47.0883
25.8762
70.1368
1.55002
80.7634
60.9724
95.6247
3.8345
68.0168
20.0207
15.4533
49.8883
1.31103
1.50607
0.997918
2.3067
8.04386
35.7158
4.45491
83.8802
34.1285
102.233
3.5318
49.9714
111.817
29.4866
71.9797
114.732
44.3693
66.6381
83.4857
60.4359
26.0844
65.2959
54.2258
1.6985
7.13108
32.5569
26.5256
68.093
0.698908
10.4506
44.2585
1.31367
8.83198
5.79954
63.0984
1.06526
37.1804
89.2507
1.78502
84.4515
53.2007
21.6746
84.4943
4.90842
6.82336
24.0227
4.89885
49.2866
60.0973
1.08078
70.6889
11.3214
3.92295
14.4475
15.5993
39.803
85.9959
1.79638
120.289
0.796779
0.661322
14.8058
5.92415
30.0836
6.29336
32.8639
1.17268
101.159
82.0555
47.7291
49.3148
30.9214
11.9686
2.68021
73.5211
2.2333
95.4498
5.03499
46.3338
10.8173
79.6016
2.27342
3.92735
15.1414
19.6057
22.9722
61.7516
76.5801
24.2723
14.4045
11.1404
6.75443
2.08376
30.9716
17.3931
13.6398
15.5451
39.2173
2.38209
3.78509
12.9274
84.794
3.95035
5.53067
5.48166
48.9571
6.01234
66.885
2.21307
16.7348
11.2366
1.58154
44.4839
3.76399
28.3212
6.20018
20.1183
3.51051
7.38638
19.1591
9.25011
6.62337
32.7159
66.772
10.0376
14.5737
3.63854
55.7393
9.2757
21.207
87.6287
48.1254
1.45707
10.1034
29.1688
9.24688
10.76
6.48591
24.8828
17.594
29.4359
76.8942
9.68691
44.3651
159.197
66.6444
143.006
50.8404
3.68251
9.62127
3.35204
2.09033
13.2254
15.2297
8.67337
33.8554
20.3755
55.8968
76.5127
31.0348
13.9148
1.22957
1.36922
59.3517
40.6691
37.0252
3.67615
6.53163
10.3943
56.8604
149.823
101.226
37.7918
0.710007
104.14
0.506361
4.87815
60.0625
6.69097
17.7072
17.6149
3.93003
75.1318
28.3933
9.44083
1.51101
9.12833
22.2062
36.3497
70.2482
4.12968
57.7073
3.1545
8.16548
7.74477
76.2743
16.1916
2.03018
5.36089
3.91017
1.83599
13.732
17.3362
82.2433
18.0241
2.51256
46.1365
100.634
40.3537
60.0784
145.962
88.3666
15.9338
12.9519
9.02629
4.37773
4.74699
81.0784
23.645
3.84559
47.1897
0.889333
2.55723
56.1527
0.783472
51.2144
1.02899
73.5328
1.61242
62.6733
64.3374
3.73388
5.77763
42.7221
52.4568
1.07249
9.86224
35.0868
13.5616
30.7089
46.6706
122.352
10.2692
18.273
91.2152
50.7359
0.397501
26.7963
5.03237
2.40037
14.9742
33.094
76.3815
8.41475
4.03863
22.8497
3.03894
11.8169
15.5752
17.389
10.644
11.1889
9.23681
5.41376
82.8712
52.9325
2.81181
4.94233
76.8294
7.80506
88.2555
14.2785
84.4842
103.689
36.6901
4.65789
6.07925
40.0615
23.3523
79.9181
26.2985
9.58131
16.7026
7.55916
94.2936
21.7503
9.29891
26.9407
67.5245
55.8934
3.93211
20.523
2.42296
1.24454
30.6801
0.759995
22.6859
50.82
41.341
4.71233
32.4048
0.838337
3.64624
2.36413
12.5592
22.569
9.34507
15.5232
103.563
31.7188
9.33445
25.5135
13.0933
77.0561
1.32
12.6363
10.3812
11.3017
11.9472
3.26421
2.72188
31.7997
12.4981
4.66644
38.2313
6.71177
8.03578
40.7651
14.0726
1.42161
0.948469
81.0845
58.2947
22.4559
31.9284
28.6873
74.2293
4.55016
6.67192
76.8688
54.9579
82.4069
25.8127
59.5972
15.4237
2.85151
24.8026
15.8285
20.3529
1.05117
1.39471
1.15715
61.7992
5.78923
35.0606
98.6074
12.7895
1.63813
5.27251
33.2866
21.1585
12.1184
16.8061
8.14289
8.78477
4.06103
4.26259
97.6564
39.8287
0.251062
10.565
67.8557
17.857
1.46058
120.654
1.03025
77.0931
1.68682
76.0422
72.8904
50.8048
166.017
1.32907
1.20096
17.9734
9.52159
72.836
11.1953
41.1675
34.6917
17.2439
1.17874
0.446748
83.4448
50.2668
9.35152
7.49974
93.0246
51.0513
28.4253
1.66694
1.29622
28.9328
1.18682
2.8224
4.21444
15.559
32.6191
9.98998
5.13201
66.8988
0.891512
1.48616
122.682
103.695
60.7159
12.4107
12.0923
1.74666
2.28094
0.608399
35.8565
57.7433
57.6882
8.70639
15.3891
36.2983
1.12299
1.2078
29.8324
38.778
0.734811
64.4465
1.39028
3.71077
1.36267
0.959836
32.0336
79.6532
0.978126
5.50353
39.3686
1.23894
0.729886
41.4557
85.2316
11.5043
1.40605
1.12572
44.9443
1.33147
1.35355
22.7329
1.21502
41.6905
2.43937
21.1276
4.7652
6.63642
154.629
10.4889
61.286
1.07139
120.639
1.68373
54.2852
5.33768
0.340685
5.42872
31.7087
1.13206
1.04631
30.9614
1.62926
2.20773
0.96511
1.50396
5.80119
19.4076
1.39466
1.31928
31.1356
169.823
1.10333
55.2365
2.81276
50.1262
3.29013
0.728424
13.6186
0.786106
0.735055
82.1173
27.4939
126.823
116.763
103.422
8.78106
41.9737
53.0288
3.38323
23.4085
89.7577
29.5524
105.764
54.7469
86.9344
53.1996
0.999739
69.2149
21.9036
90.8751
0.729557
1.31733
0.816495
100.347
33.7002
37.877
0.315328
9.35034
0.566737
6.81434
1.94095
93.964
35.2809
108.819
1.50431
8.09848
102.54
14.1294
0.329008
4.62816
32.8815
48.6346
25.9869
13.2594
3.59324
4.42876
32.263
30.1294
7.26792
106.834
0.809052
40.8054
60.2079
14.5425
0.755823
1.48935
0.530618
31.5081
77.8587
0.934504
1.37886
1.30536
0.459383
0.956512
0.668118
2.90008
48.8413
26.5476
7.65442
30.5264
4.67545
8.37009
28.3215
23.94
122.75
134.283
50.5586
47.9879
0.914009
0.667948
0.726919
1.06299
2.26654
3.54367
4.15399
75.1292
48.9482
63.4892
36.3344
1.45103
0.716944
2.94596
1.0432
48.1047
1.4012
56.2727
149.168
103.752
42.2003
48.1834
32.8612
1.33292
47.5791
19.3311
38.4665
39.3526
119.17
5.35002
24.364
1.19829
0.649471
27.4909
3.5287
0.384413
30.8329
134.574
133.85
2.28106
2.03054
0.825485
14.1586
177.836
42.8511
50.4294
4.31952
41.3248
19.1162
1.99301
0.670559
9.86842
9.49841
13.0198
1.18076
18.0493
30.7755
150.801
27.765
2.97305
1.73904
116.574
20.1113
187.807
54.7728
86.553
40.6629
16.2892
8.77637
71.3853
45.0844
33.6103
44.6385
65.1051
153.904
1.92643
60.4382
1.09598
14.3541
28.4178
96.155
38.4447
50.5919
30.0275
133.22
26.144
4.42771
5.02194
81.1894
11.2169
28.1059
67.1647
97.8116
1.07722
0.654064
13.8255
1.23487
94.6753
37.0081
128.521
9.57188
9.02017
0.625833
0.998847
3.56635
1.59484
33.7319
99.9045
5.03444
119.814
45.6288
8.4281
4.5466
64.7943
86.4915
51.656
149.362
104.828
41.1627
54.529
1.16483
64.2674
21.5172
86.9087
30.8026
1.74551
28.5972
1.1019
1.33593
1.1676
27.3366
1.02181
24.1209
57.7496
12.2639
1.54411
1.09518
91.3336
32.5849
23.1595
95.6631
31.3817
0.237983
81.4536
58.8143
16.5395
5.52494
37.142
1.39263
179.093
0.973801
52.1529
9.45757
14.5564
3.74512
0.3935
0.59954
3.14456
23.1593
46.0624
79.3808
191.997
53.5338
4.76322
1.16711
33.199
144.925
10.5742
6.5478
14.3758
73.6777
1.11932
1.41064
16.9097
47.3128
40.997
1.03769
17.5179
2.52522
6.4295
3.5178
22.6775
73.755
83.8138
9.36749
2.31529
68.1453
4.7805
1.43079
93.4422
2.21541
3.18971
9.23567
0.806612
20.1831
1.36373
25.2748
1.13161
6.50574
6.01322
10.7587
56.7145
37.8921
116.574
52.4322
49.9408
68.4923
37.3337
38.2349
39.3443
0.838145
0.847577
5.01518
31.19
1.09587
13.7857
198.879
61.346
54.9329
16.2531
3.0901
43.7716
0.912651
14.1962
50.158
1.07452
148.75
2.36982
2.34914
37.115
16.4623
6.26961
2.36637
62.2934
11.1631
6.65354
0.718952
2.39814
53.659
71.0119
1.36412
10.1244
32.3495
8.01986
46.5115
136.653
89.9592
84.3781
41.0896
0.95859
1.34593
31.4884
0.732448
0.873306
0.735997
1.0659
23.3215
0.759449
7.39013
0.800223
44.0235
55.3807
6.17984
7.95717
7.89206
15.7665
47.1494
31.852
79.617
6.32369
0.757955
44.2355
11.3192
29.9696
7.21415
119.354
63.0726
74.4794
0.829813
123.535
93.8888
1.31617
1.29662
3.84656
1.40167
1.4613
73.5168
36.9809
53.6538
80.7903
25.6296
59.3002
28.5106
12.071
0.992832
1.43776
44.0344
0.715344
71.8065
22.8256
159.437
6.97771
72.3844
82.2519
1.37674
0.9961
57.9663
57.7952
10.0511
9.74375
22.8552
62.8865
3.93674
35.5161
0.871522
4.43708
3.57527
0.711252
0.721282
1.63727
0.395947
0.726226
0.819972
1.24073
7.9947
49.646
5.38145
2.00129
0.771331
73.8401
9.7229
24.0569
5.23022
49.242
0.671776
38.7674
4.71168
7.19363
1.87783
14.0071
43.581
1.30708
10.0107
1.87216
0.593677
9.23945
79.1618
21.6278
50.0616
155.372
1.13857
11.0821
28.7852
35.0586
25.824
24.1321
52.3861
104.871
1.52375
1.04448
0.795145
0.195311
18.7531
10.9021
122.997
153.656
133.132
0.328577
30.842
140.807
72.4417
58.7497
47.8527
0.733886
1.21507
1.28025
35.8613
11.0714
34.7291
4.52716
0.779814
4.40245
4.83459
10.1048
29.3272
1.41281
1.36307
40.1206
25.798
11.7603
0.826991
8.22018
43.564
0.958374
4.1437
2.46696
4.26556
14.5797
0.888061
27.7441
0.715485
10.4113
18.6345
1.37096
35.0974
10.0307
0.647944
1.8333
20.0183
0.876057
76.1726
7.76125
1.20866
0.802386
7.41066
0.243131
0.728222
10.3862
1.23385
0.255628
15.5987
11.0195
18.9903
57.3968
26.9589
8.87787
106.61
36.5425
0.354981
0.917224
27.8349
2.15935
13.1586
78.6709
0.437414
19.4993
1.16925
54.1004
2.22437
55.55
2.27643
30.6778
49.5079
0.757545
35.5238
5.65105
0.247842
4.5143
41.5847
30.0487
33.1948
1.09465
37.4354
0.47728
0.876509
8.6821
1.0184
1.41355
15.4268
0.98181
19.7183
3.34034
65.4357
1.69211
0.93412
0.681322
4.50458
49.2557
18.147
1.12495
28.0421
7.40338
16.0647
41.247
26.9843
0.710326
1.21421
15.2427
6.77471
47.0749
6.79939
69.6631
76.5521
61.5188
22.2813
72.8399
8.73672
8.66591
7.13215
1.87561
4.02622
1.02298
400.937
39.7358
1.28625
1.42402
55.0593
51.2388
8.48692
0.582384
1.11309
8.8017
8.60778
1.13036
30.9596
4.70095
20.273
3.28633
55.3756
1.59866
0.39618
4.38103
4.24926
1.09758
30.939
1.3415
51.2554
1.12193
37.3543
5.69444
14.1016
4.3264
22.8541
9.26633
17.8611
11.3358
4.50541
1.51541
5.85879
34.6672
10.3367
5.45495
1.30058
1.13035
18.4803
32.9198
21.3702
14.4913
24.4189
7.3558
3.96522
7.11875
7.21867
19.7595
3.95577
11.1529
26.158
0.641714
58.6738
0.708337
107.569
1.44436
1.01478
12.8448
0.634885
0.663154
44.8939
3.38659
6.25693
0.666282
0.953266
38.1401
220.347
101.777
2.17926
1.03857
2.33909
8.02918
56.6041
19.8566
3.61364
8.63427
0.621955
56.415
4.41746
3.33329
33.6776
7.74954
7.82347
34.1234
20.1563
0.979563
24.9746
88.5646
31.5913
9.232
22.5506
20.6014
0.675697
56.9878
67.6907
35.4526
79.6311
2.15889
0.478272
35.5977
10.0039
23.8864
0.308629
13.1279
55.2754
0.499525
1.05654
0.66374
0.692889
1.5236
7.68849
3.41696
24.8732
0.825659
4.48354
19.7762
124.378
26.8637
4.23601
29.1953
4.41501
83.3528
0.57345
53.7446
110.95
27.6245
68.8023
3.13701
35.5627
34.1977
44.4941
3.69115
6.99991
1.46554
26.4964
0.616837
2.06822
19.8684
5.55162
3.93989
11.2571
3.91012
3.90064
32.1172
0.553909
0.631843
7.41403
3.88368
0.721329
2.31595
76.2778
9.36567
48.6121
41.434
38.5329
0.800541
108.564
0.560954
30.3736
12.148
13.006
3.96052
1.12359
35.8857
0.528323
8.37285
0.537109
26.6526
0.575978
3.93453
32.9191
44.9134
5.20176
33.1654
37.965
7.47131
8.87684
0.99773
9.55686
1.8922
12.6208
78.1654
4.79857
0.323255
3.55808
28.6166
38.1689
171.125
96.0871
113.065
85.5325
38.9958
0.345293
1.6759
17.2706
4.64549
90.8647
1.23889
0.400906
1.60554
15.5989
0.535877
4.12564
7.23758
2.22453
4.80991
2.01244
5.73484
1.02169
7.61363
4.29184
31.1809
14.4319
0.77722
45.4716
32.4922
62.4502
18.2256
2.15494
48.4834
0.814916
0.999501
0.72032
2.69729
241.183
11.3992
52.8644
20.7013
77.1567
68.3289
16.7807
12.5166
0.288155
0.816689
2.4482
0.350712
8.12822
13.8135
0.908986
15.698
0.16231
0.869109
7.11212
4.68038
1.39146
0.949463
0.238365
7.18578
13.8595
1.39129
2.78323
5.37912
0.974118
1.02106
0.189977
0.485006
10.8693
4.712
3.11201
0.514407
1.35064
5.8152
7.29931
0.74388
0.373818
0.570568
0.220638
0.439506
11.3901
0.757524
0.116976
2.42225
0.644368
6.37573
9.48653
2.35471
14.4685
62.3242
0.604486
1.16501
34.8115
91.3282
28.8615
1.99047
0.863009
15.6214
2.26678
21.6696
76.6719
126.135
29.931
101.125
30.9506
0.635152
0.524713
0.360981
1.66341
0.937386
9.50427
0.737955
3.11915
5.14308
0.648622
18.672
31.9617
2.72228
7.57546
24.3687
165.346
2.26066
24.4649
9.9589
13.0828
30.8687
5.81863
66.5399
39.7735
29.2254
41.3211
7.98049
30.9737
5.56561
11.5082
13.9064
373.385
2.09404
4.20689
1.47711
46.5251
29.3972
2.44287
64.4862
58.4841
0.784294
0.422957
12.6089
10.0843
0.629462
14.6736
0.170987
0.645656
1.85624
0.174027
6.94859
6.99662
0.44699
10.5995
2.61166
3.12348
6.45774
1.00806
1.53438
1.19697
0.33831
13.265
0.72266
39.8972
62.8108
8.86532
20.8993
4.62795
13.9165
29.5384
1.31643
59.2941
28.467
35.9829
38.734
32.5876
3.42544
0.833191
33.4735
36.5936
4.01238
55.9038
90.9802
36.1532
0.505554
37.9774
30.0233
3.64354
39.2727
12.5659
62.2704
0.808072
7.32577
0.379567
67.3759
2.72707
36.9943
24.8384
0.631633
115.031
1.00138
83.6586
1.72251
0.351068
0.29074
71.2104
0.402279
0.444145
0.900892
2.07134
109.445
10.7441
110.143
19.6644
3.85984
10.6115
46.9595
1.49284
9.1557
7.59683
64.4481
38.2069
10.0901
0.663953
18.9575
5.49375
39.3602
10.2613
1.92155
0.249999
4.18932
8.32707
0.777894
46.5877
55.5269
0.105032
2.12977
90.1082
96.0909
12.0496
39.7698
68.8164
0.149766
38.9682
27.9992
29.4418
38.6366
16.3475
2.03321
46.4957
0.700469
4.48797
7.00896
56.4816
7.64743
8.47327
15.3181
24.2618
70.5686
2.10724
0.438734
1.98284
17.3966
34.1451
38.37
191.228
64.4919
41.4727
24.1662
12.9996
25.8914
24.9086
68.5949
29.3297
24.9013
38.2653
38.2349
32.8676
113.849
97.4638
7.09745
61.7737
29.7839
18.9849
17.8686
2.86783
68.4412
42.8862
9.29974
53.218
4.92184
100.256
10.0327
22.1971
71.3457
3.88951
20.559
6.96876
0.472718
1.15068
5.99339
56.3675
1.98788
0.470655
4.08005
34.1812
38.0607
62.9527
45.0494
42.1376
66.1755
40.8349
2.34231
43.1693
39.7112
65.5196
38.0341
36.0856
42.2818
41.4718
35.4061
39.4032
23.875
22.2654
3.11258
39.4024
17.677
2.86873
2.34953
10.1686
1.2029
4.00186
15.9227
24.7672
3.56235
1.18045
1.7031
45.3839
23.7958
28.3073
11.1281
4.01137
4.55116
1.79594
5.00872
8.1141
4.94046
98.6414
5.39625
4.30896
0.479979
4.07893
0.394207
21.9309
0.725119
21.8177
0.563305
0.454866
5.72268
2.9869
2.50803
2.78973
2.23448
1.72165
65.2549
1.82779
11.8781
3.36462
7.30522
45.1738
102.862
1.60421
79.5935
29.0053
4.68546
126.912
13.3091
1.91296
113.621
25.3198
92.0763
1.29666
10.1357
117.156
111.711
70.8595
1.95036
1.88959
1.8503
3.11034
6.34326
77.696
1.95431
15.727
6.58035
1.25872
3.06616
11.1232
5.3736
49.2444
32.8431
31.7358
72.3732
82.6439
2.07378
83.9857
1.0092
5.98979
34.0062
11.0531
122.62
6.61773
68.9388
38.6083
6.55236
11.6212
57.7861
66.3993
4.62084
92.1836
44.1771
2.8059
35.1713
7.43164
6.77297
6.02817
54.2666
3.83853
54.5001
38.6058
37.6951
5.65768
13.5225
5.22793
95.7101
7.85365
9.7719
12.8844
205.027
1.81772
4.55319
0.523432
32.5195
12.7836
3.36617
5.99738
5.51889
6.41857
1.62829
4.6992
7.00182
4.89582
2.72021
5.07772
3.90561
9.44201
23.0085
10.1197
9.99102
68.8281
7.2188
6.83382
0.996228
1.99837
5.05271
9.63508
4.24142
10.1567
0.391511
5.01846
3.91505
48.3461
3.57418
4.02477
4.42843
10.6891
0.619578
1.24816
5.89273
3.21836
2.0116
1.85688
23.6814
7.45079
3.68628
40.1716
0.422915
3.67169
2.97811
0.895084
8.37278
5.97491
11.9456
0.840993
3.77598
0.740688
1.74617
2.31017
10.2261
6.97773
0.776817
4.72569
0.45491
2.98258
1.40909
0.995602
5.24315
4.52264
4.93231
17.5018
0.47905
3.4933
1.24323
4.90583
8.63706
4.84189
0.519757
4.75829
1.99527
2.10159
3.51146
5.31575
53.5529
5.47006
5.90097
4.3962
0.641046
0.489934
28.4749
51.907
32.5583
9.7357
0.734047
12.7796
10.3793
9.9317
27.3232
0.51094
10.1179
0.98287
43.5643
24.5057
4.92419
9.94331
26.4848
12.6076
4.96638
1.9448
0.465212
34.5619
27.733
10.3324
11.2944
7.96673
4.82821
1.75695
0.40574
61.0718
3.62829
5.0961
35.2153
77.9811
23.4955
11.0043
6.17477
45.1914
10.6155
7.68588
25.3447
22.763
11.0236
11.6665
41.649
10.1563
17.3913
40.6139
10.0245
5.6174
1.56052
0.430496
44.1378
8.28341
15.6198
31.0295
75.6728
0.50583
44.1874
39.7292
5.13184
5.90997
16.0695
3.0251
12.6565
15.6283
16.7175
12.9956
9.34054
18.6497
7.23545
82.2484
7.55373
52.9616
3.70447
46.2796
27.6514
10.2967
23.5954
7.66701
5.38131
21.7559
13.3207
15.4544
24.9717
4.79045
32.214
13.3756
9.1218
32.7459
7.90597
5.64471
0.952521
0.500269
15.5702
51.8834
3.51509
30.6105
62.7303
61.331
92.7712
26.0992
9.16273
11.1581
5.36452
0.451929
41.5237
4.95599
48.9927
62.6855
4.78163
10.1743
132.157
2.71897
3.51211
18.7054
13.2198
30.2901
10.3582
29.2332
69.2638
17.5258
41.6142
34.8879
3.91735
3.16177
4.45141
15.8222
8.95136
10.806
2.36167
3.66729
12.1027
6.36995
0.728258
0.47204
117.787
93.1153
5.49723
2.10053
120.863
97.7589
21.2972
2.30297
68.3444
22.9594
9.1426
10.6334
0.362234
43.6499
4.60276
1.73991
7.55786
127.153
74.1017
100.864
7.03929
109.054
86.4424
37.1346
3.67105
25.273
45.3554
11.3739
0.520459
0.466663
0.646305
1.75497
19.938
34.6589
6.80826
3.54908
34.918
24.673
32.5608
47.9809
34.1189
30.0424
1.51747
40.7796
0.540231
0.997245
135.405
59.7885
62.5504
87.4582
66.1791
20.6832
4.74685
2.81401
2.7547
9.78881
0.959853
5.86023
0.578643
0.487959
0.662849
0.546862
0.76423
55.041
84.7105
15.1914
41.6041
3.84101
9.55561
2.31955
5.12735
50.9059
3.54572
42.5461
4.88104
7.98375
6.15766
70.6181
16.8555
11.3575
0.439176
61.5902
3.05113
1.60775
4.85327
36.2611
80.0264
23.2737
8.8249
38.5177
117.245
5.22918
4.66272
0.584278
0.329072
10.0329
5.88103
32.0129
7.73786
2.285
0.459081
26.3727
4.55324
5.46515
83.8397
2.04231
96.9645
0.455244
0.426915
3.07743
37.4688
162.929
13.2696
0.689006
2.31893
46.7278
53.282
3.39377
4.10025
7.09799
3.87695
13.9644
6.28441
1.04733
10.5457
6.63429
0.532599
5.22088
3.09282
7.83128
9.50503
4.23054
5.54919
1.83131
4.39714
18.4846
4.15203
3.84645
42.2098
4.27627
5.83791
10.1705
36.0749
0.579052
56.9252
18.1171
14.3751
46.0826
2.70694
140.92
25.4224
64.5513
1.14683
100.045
3.89856
16.3997
8.60362
0.409306
70.9859
3.68466
12.4962
5.45814
14.0911
13.3265
5.35029
66.4223
24.9882
72.2123
35.3648
4.16467
7.1711
7.35753
0.524474
0.499475
30.1469
71.4476
13.4466
6.17524
0.852223
110.135
15.414
187.281
118.838
36.9149
48.0781
26.7536
1.02312
30.7776
4.91244
4.40021
22.1533
30.4672
2.09441
12.3154
33.1654
13.8873
69.5301
5.46294
17.4006
66.9426
36.3632
6.10136
15.1344
6.81208
105.399
7.98028
19.9691
71.6888
92.8425
26.5447
2.27515
1.75099
36.5968
14.859
6.41121
29.7129
18.9397
31.5194
4.39776
22.7701
11.5741
126.571
9.79942
3.94247
1.76592
0.552078
33.4817
79.6277
18.8641
93.395
76.6821
201.458
1.38762
22.9701
8.56709
31.4794
2.21701
172.196
39.1396
3.17432
0.505743
8.87264
0.559706
2.39205
38.495
48.1852
33.4086
53.6632
40.6373
57.4908
3.57103
16.4172
102.331
35.5745
31.165
327.376
4.96984
7.54705
33.8951
101.832
33.5278
24.1097
51.7446
2.83666
2.31426
35.7004
3.29896
11.3172
10.9739
0.750029
11.2948
1.37599
59.4736
0.53818
54.9059
3.53562
11.8717
14.2321
33.5621
20.0825
68.7858
1.22069
137.768
0.931813
0.582485
4.34301
0.251069
1.08022
72.6535
37.0132
88.14
6.57345
95.0144
135.492
5.64457
25.9542
0.522908
3.41249
3.10743
0.256853
33.1854
49.9777
0.760416
0.660462
33.0251
22.9102
17.7798
60.8213
4.09452
24.5193
5.63733
113.584
4.98356
27.6107
0.548559
5.3598
12.3235
68.6616
3.50205
30.8669
74.3499
5.74883
5.10052
53.7537
3.0941
1.7899
87.1553
1.60091
1.84603
153.479
11.1795
47.1735
3.95873
25.8083
62.2966
0.880799
4.78124
18.054
33.6523
66.2722
3.01888
19.9571
40.6767
36.8148
13.7261
9.92159
8.7403
4.03457
0.327659
0.538165
31.1586
41.1942
3.55012
1.30352
107.063
8.11936
26.4975
41.2141
7.34866
5.12128
46.7035
88.7266
8.61721
0.409118
0.943355
23.0353
24.9813
23.2869
3.43732
2.80094
58.5356
47.8946
6.43523
44.1984
134.454
82.9376
29.3988
73.5732
0.463425
27.4285
76.6717
6.55261
0.394154
0.5236
16.2949
2.7001
4.88517
53.7048
1.74744
16.128
4.16597
3.99681
10.5345
313.454
1.33115
35.2186
1.9124
30.3608
69.913
29.5879
3.53824
8.45134
0.448416
0.516613
39.7845
13.282
12.5117
84.9584
14.5349
28.5655
209.826
58.4076
37.3093
0.223497
66.8328
0.337704
1.56751
53.821
28.1925
9.94535
1.3381
2.90388
5.77951
38.83
0.350355
2.14858
27.9069
85.4379
3.27864
5.76859
3.36553
46.6051
43.1337
70.8965
2.22229
19.9558
69.825
118.27
20.0366
38.4405
5.11815
30.4316
21.1948
67.5525
6.08804
18.6628
1.47364
6.14049
0.552302
4.54614
8.13025
6.00159
35.6288
0.184009
3.67629
119.006
30.1007
0.899804
4.46166
23.8488
39.6448
51.1685
25.6046
0.375931
3.53905
0.480196
0.493079
6.39777
7.27575
74.2129
0.724045
23.1184
23.5657
4.74898
1.74468
26.9609
8.93369
109.56
6.01342
0.317575
0.505062
0.464771
27.6495
2.17064
8.15746
0.40716
5.32091
1.40304
0.804359
4.70771
7.76977
5.92343
24.002
18.9191
1.24466
28.4529
3.47874
11.5176
3.90889
0.338383
2.40414
2.22859
2.41098
34.3708
2.13583
25.2012
78.9363
36.3886
58.354
2.08836
6.36433
3.80583
71.0857
6.25476
4.46947
6.99796
0.347222
0.51764
4.80969
0.866421
51.0095
248.723
13.758
1.58566
1.17027
2.15234
0.140405
24.1488
2.92378
66.2169
7.65976
29.3274
81.529
0.235318
3.4798
4.1216
69.9931
1.02607
84.5097
4.09868
15.2042
0.893414
6.83341
1.62765
4.02871
9.9146
21.2861
23.8032
7.51618
1.99399
2.33081
0.446021
1.7478
3.75444
52.092
31.3043
50.9598
34.2978
15.7491
28.7618
3.21814
36.4164
2.08442
13.3024
1.81586
34.5412
40.7032
71.101
11.1579
0.862402
4.07553
0.276343
1.62526
7.70298
4.23459
4.09258
4.24514
100.156
3.92213
3.33497
24.1812
7.91593
30.3789
31.0648
27.6355
27.8793
1.84244
4.57762
6.98606
7.24259
11.8089
0.762074
8.00024
33.625
0.469661
4.33091
9.43653
1.33277
3.81327
0.795556
0.503832
0.575735
0.112737
6.26298
0.202209
2.49525
2.01916
8.70057
4.82049
0.464323
0.958102
31.0675
37.3757
13.6883
12.5331
2.07174
8.80356
4.43428
81.4788
48.0459
22.9584
87.2241
38.9608
88.4542
86.9923
133.332
36.3841
0.385365
0.473235
0.442912
0.479477
0.465538
7.65327
30.7895
76.2505
0.432507
0.267656
2.92698
8.34178
11.119
70.7123
1.11172
0.228003
56.8157
11.3855
40.5546
22.0003
4.07575
5.45179
24.8119
20.7346
102.84
0.320303
13.5106
40.3758
33.0501
41.6112
37.8259
0.26026
1.38881
11.0865
1.52974
1.01607
6.99951
0.725617
6.83443
5.43899
5.24131
1.38815
0.373791
4.4025
240.978
67.6569
0.658486
2.35358
0.643345
3.46115
17.7787
2.06868
25.4839
25.4093
0.880402
61.7297
5.28255
30.482
104.816
64.4924
56.4094
26.7991
1.67537
2.87909
28.2175
9.34443
1.03512
0.27938
76.3833
2.20639
64.693
2.38828
1.2083
10.4748
123.715
22.462
1.45291
1.36258
32.5381
2.67764
12.4031
1.87997
4.59892
8.32354
127.286
0.789578
35.6305
6.35697
0.386656
0.494889
0.393735
12.6008
0.389425
63.0891
2.95157
31.0163
99.8668
21.4315
8.07668
55.324
8.11382
5.11401
200.903
3.50819
14.6601
54.141
5.87258
145.728
7.63961
0.4445
0.520041
40.5784
4.17042
5.73017
0.889885
1.67166
2.38476
23.1056
88.7647
29.0393
7.80989
13.3347
112.642
29.3321
27.5891
10.6635
3.33943
13.9399
116.983
33.7247
162.656
13.8336
0.672344
0.997641
1.59808
36.2864
5.74489
55.5294
19.1224
20.0862
8.19825
19.4874
33.2409
1.18709
0.519199
5.59408
0.544046
2.22548
11.8275
3.40273
5.18635
6.85599
24.2837
37.933
64.1828
25.1314
89.847
16.8611
0.780954
1.62691
1.0855
37.297
0.828459
8.25059
3.00772
3.3707
1.02195
36.8396
67.6286
5.47418
9.84503
14.1229
54.8391
1.19081
1.30767
0.491566
23.8828
90.7926
4.99403
3.38022
35.7404
54.3343
33.3564
9.65938
5.31847
34.52
76.5766
31.7025
7.8413
7.68397
0.171833
26.5901
0.105784
26.2341
91.278
9.96516
2.32308
8.70348
13.2342
6.52797
27.8405
0.325142
29.538
3.76604
0.0816292
0.782172
17.7504
81.658
17.3829
3.82283
2.89895
1.96841
3.69772
0.626184
0.0876924
0.837172
2.26262
28.1461
76.3195
28.0336
20.5021
2.94225
114.696
63.8157
11.4117
0.897839
2.51962
4.23661
150.15
69.924
48.3845
1.33135
0.418378
94.3095
9.12191
17.7721
11.1158
98.5634
0.268328
116.703
60.7048
24.9073
7.93433
47.742
169.401
2.60489
50.4014
0.197859
1.86223
30.7774
43.2121
4.43787
0.419735
1.12146
2.23926
1.39705
32.978
3.61161
11.0781
153.425
7.74933
1.58616
15.4599
23.7097
12.7479
121.996
0.237386
17.1739
0.605151
14.8383
58.4191
3.33121
18.8709
36.4943
7.4922
79.322
0.886044
1.58587
40.0261
189.05
48.7811
84.9009
22.2148
92.7002
1.0022
26.7825
59.51
5.24634
113.547
20.283
99.0206
22.0067
9.14163
163.09
41.3514
29.396
10.6887
0.544398
0.562459
18.2689
1.60204
4.30344
1.01829
28.5831
31.2883
3.9291
0.188599
1.59936
14.7062
81.9884
3.17876
0.232381
13.0558
37.9468
29.215
18.1339
1.50274
109.285
7.37541
3.16962
64.225
69.0646
0.390481
47.5114
27.5678
71.9105
35.8528
36.7743
8.62891
1.53231
0.512764
1.12441
2.42202
1.45937
7.6499
9.74414
75.3423
41.7648
21.655
138.977
28.9033
54.7693
10.3762
19.5599
36.1578
2.72827
9.52851
6.36177
66.5072
135.53
102.788
13.2633
85.3442
1.57731
40.2885
42.6158
32.7965
0.625608
2.07687
100.774
29.6882
7.17493
84.3778
104.666
1.66973
48.1631
25.4742
75.5565
40.096
83.3164
1.0326
71.7592
0.293796
6.50607
0.506086
58.0037
34.3245
64.5455
1.18078
0.189908
102.678
2.66461
1.13246
23.3082
74.6669
37.6098
61.2538
154.889
63.3144
0.668831
0.908363
47.0658
20.1992
225.086
74.3603
107.45
8.68747
14.8356
102.72
85.0584
0.478362
0.538207
7.70867
0.755877
0.802168
15.1401
72.9268
16.2594
5.36357
32.3804
12.3943
9.81203
74.7679
126.387
71.2828
5.22227
33.0694
2.11652
21.0223
5.40103
36.0331
131.589
84.0492
44.5032
87.8062
173.647
94.2896
3.09834
0.442868
155.072
82.0304
1.49489
8.65785
0.80109
1.80959
43.5708
128.284
62.9161
34.9279
1.76296
90.2128
0.33731
5.69479
0.53596
6.10526
0.265837
45.7701
129.133
25.934
7.51537
118.641
0.241758
1.22449
72.2959
40.2005
55.2856
3.3005
7.32153
89.2479
77.6348
2.6786
4.37256
7.46984
29.1593
4.29902
15.8753
79.635
31.215
35.58
30.5425
51.7166
24.1776
27.6129
0.205836
2.75999
45.5968
1.90042
13.9621
135.02
10.344
82.6707
75.8058
0.96692
0.321882
0.474131
7.22981
59.9681
72.7237
71.1863
1.55794
8.04201
5.83307
9.44337
11.4664
7.21554
6.00386
5.51612
6.68108
6.45002
0.379866
0.238952
0.836409
120
50.7618
4.35092
92.2894
125.992
111.167
94.5566
49.4602
2.14925
41.7919
10.241
1.5993
63.0266
159.924
5.66741
2.47419
0.78698
39.2316
30.4408
87.4769
5.15095
2.74638
36.6669
13.0286
1.36165
1.33851
0.309711
0.818103
8.56938
107.637
16.7284
6.06783
97.8807
38.783
73.2123
78.1656
7.90345
67.3163
2.12067
11.741
33.3536
29.6459
30.067
0.491048
0.455875
44.0764
0.952367
19.2492
1.52073
93.8824
31.1644
37.0759
2.10752
40.3991
2.23872
46.6076
35.0856
27.8243
31.8824
36.3123
44.9148
49.6022
1.04433
24.4207
35.1817
0.719471
15.074
0.629248
2.70033
5.74305
17.2492
35.2249
12.2238
11.1887
128.344
0.702766
6.90594
0.589323
0.82112
151.421
41.9955
6.24756
0.44827
0.449744
16.6741
0.172755
0.40886
6.88873
0.559585
0.410866
7.68958
0.681168
44.1307
1.7561
1.0912
27.5494
44.6891
8.70863
29.8439
9.40301
8.42612
29.6495
82.167
33.2227
0.705949
28.294
114.105
71.0512
34.7001
12.8659
1.63489
0.192074
0.591242
49.1294
140.982
26.6688
4.35353
12.992
8.20958
6.09752
9.37809
36.8067
43.4847
1.26082
60.0825
0.105359
8.56551
119.459
42.0137
29.5284
34.7063
10.372
89.5474
38.7721
34.2403
6.75923
1.17341
2.42525
2.62057
6.8304
15.8742
0.638728
30.5685
28.3239
109.85
23.0233
17.133
1.29062
2.01999
5.13237
92.1663
37.9278
41.444
3.34555
100.515
5.19893
3.3696
39.0462
0.580736
2.12485
19.7924
59.7842
76.4198
36.5956
29.8071
44.0753
26.3985
3.6777
1.50764
0.563434
6.18546
2.79649
406.448
110.484
3.08523
107.313
39.2758
4.49742
0.398982
8.77614
0.565608
4.32586
0.894744
43.3159
35.4415
40.8348
45.7569
32.2305
0.263556
1.05595
2.57748
2.2939
14.6691
41.1341
226.958
14.926
11.048
0.121748
4.45425
116.765
60.9663
12.7622
12.2318
1.02044
12.1604
5.66744
1.27025
30.4473
43.5501
0.54849
9.36641
0.568564
10.4199
18.7859
4.86648
59.9426
4.55463
87.7828
15.3214
65.5254
97.4979
1.34728
1.52208
2.77187
17.4771
0.742624
5.16324
4.83281
38.2076
54.7633
75.4731
2.78597
3.96617
56.1086
1.55691
15.5005
12.8882
36.8925
63.4762
88.549
0.37289
9.20747
0.438951
36.6187
11.2367
140.427
39.131
2.00175
45.4023
131.943
61.4606
58.4516
2.98595
78.9717
54.4887
21.7768
1.53975
0.487327
35.4227
1.52456
3.00433
15.7069
7.98246
45.7932
172.609
101.975
6.98825
84.7331
1.0658
16.0676
16.0277
7.63215
87.6944
35.1841
0.217386
0.762021
0.907828
1.18598
14.7688
6.86608
99.264
28.1063
0.618258
100.993
5.67274
14.7013
96.9532
51.5599
36.1898
27.5396
6.78788
81.2608
0.923036
0.94469
6.78917
0.273067
4.68276
14.8942
61.3265
0.191022
33.327
0.487734
2.54464
7.31498
43.3912
7.49602
10.1395
93.465
47.5611
36.2317
10.417
1.66134
1.23093
11.7811
61.174
13.6989
128.912
0.216528
1.4133
53.131
43.4066
0.921855
36.7135
47.3083
1.84545
16.4454
53.2027
21.3331
77.5715
71.3181
10.5925
20.5349
0.736124
32.3087
87.0457
18.7025
125.586
32.1511
4.68639
15.0737
26.7132
15.3259
20.3715
84.1196
7.04506
27.4917
7.94434
0.496697
0.792567
36.4519
0.437473
1.19123
13.4331
11.9519
16.9083
25.2997
35.1707
106.745
99.1431
60.856
1.87422
0.788925
5.05212
0.53765
8.12646
22.7464
13.2925
5.86993
5.17478
88.6207
8.17666
4.48985
3.73471
33.248
75.3541
0.223765
4.07093
3.83206
0.451514
58.4104
32.5078
1.34068
2.8887
51.1705
94.1072
25.6091
1.47641
1.30256
1.79438
0.416477
9.70026
0.489758
0.754013
25.8039
1.42233
0.827032
35.6063
44.6349
0.834467
29.8454
0.912949
67.6311
3.04039
97.5206
2.43425
0.441245
5.55326
57.8592
76.9938
98.3917
22.3957
38.7391
25.4978
4.39172
42.7183
22.6757
18.3856
1.39408
3.86838
0.200735
43.2507
12.056
24.8108
1.11169
38.8402
34.4289
68.2667
14.1955
319.161
13.0882
2.72215
0.583159
0.63761
5.70571
0.865532
1.44338
11.1745
1.35084
6.20876
0.758319
0.671462
7.04635
1.27562
5.56977
22.9486
46.7103
87.8431
3.06957
1.70943
0.768468
2.31651
64.5139
4.00994
11.3899
6.01437
100.078
136.435
86.9956
5.08112
9.61022
0.991581
1.91731
0.44228
27.668
10.4693
44.6544
0.541479
106.724
282.036
143.444
1.00213
40.1231
30.9343
42.4093
0.7621
1.02436
5.45432
34.6183
0.960362
28.2871
47.591
0.504503
0.255495
105.565
65.456
4.00409
17.7581
35.4263
9.93177
57.858
11.8797
0.857591
11.4149
92.4606
140.162
6.27685
60.9057
244.064
0.998137