/*--------------------------------*- C++ -*----------------------------------*\
| =========                 |                                                 |
| \\      /  F ield         | OpenFOAM: The Open Source CFD Toolbox           |
|  \\    /   O peration     | Version:  v1912                                 |
|   \\  /    A nd           | Website:  www.openfoam.com                      |
|    \\/     M anipulation  |                                                 |
\*---------------------------------------------------------------------------*/
FoamFile
{
    version     2.0;
    format      ascii;
    class       volVectorField;
    location    "0.42";
    object      U;
}
// * * * * * * * * * * * * * * * * * * * * * * * * * * * * * * * * * * * * * //

dimensions      [0 1 -1 0 0 0 0];


internalField   nonuniform List<vector> 
5794
(
(-0.228954 0.366205 -2.75998e-17)
(0.16116 1.72306 0)
(0.776964 -0.192443 -1.51062e-16)
(0.44889 3.77958 8.8086e-17)
(1.70046 3.01083 2.60447e-17)
(-0.108594 1.44442 -1.04783e-16)
(4.51152 -0.256938 -1.27133e-16)
(-0.575185 0.0010162 0)
(5.76621 0.868425 9.25855e-17)
(-2.15885 -0.214642 1.66179e-16)
(4.74732 -0.107141 -3.34e-19)
(-0.612553 -0.562483 0)
(-3.30054 -0.0185401 4.10523e-16)
(0.0915838 7.43298 1.52729e-16)
(0.51213 -0.514384 4.44318e-16)
(0.572068 -0.133923 -1.40971e-16)
(1.94678 -0.142026 5.60614e-17)
(-0.521402 7.90086 9.83819e-17)
(0.268787 -0.40993 4.1549e-16)
(-0.0502748 0.925612 1.37869e-16)
(-3.07893 1.8144 -3.87779e-17)
(0.0264694 1.0919 -1.34745e-16)
(4.24749 0.595371 1.83541e-16)
(0.21284 -0.306573 -6.3705e-16)
(1.47019 0.0315986 -3.88502e-16)
(2.94524 9.94364 2.07373e-17)
(6.42544 -0.336271 0)
(0.0300083 3.09491 -1.23066e-16)
(0.461579 9.23163 -3.40974e-17)
(0.00329988 -0.0133978 2.8612e-16)
(0.394364 -0.899015 -5.57671e-16)
(-1.02669 0.0303445 -4.97876e-16)
(-2.15467 0.117127 -8.3807e-16)
(0.771656 -1.3724 3.18519e-16)
(1.47976 -0.682256 -1.68845e-16)
(-1.17969 0.6988 1.67906e-16)
(9.6833 0.604378 -2.01131e-16)
(0.356434 -0.364239 0)
(4.25793 -0.312254 1.06954e-16)
(0.594944 2.82625 0)
(0.686502 0.834379 -1.12122e-16)
(0.0597365 -1.11031 1.34355e-16)
(7.22564 0.108017 -8.61379e-19)
(0.193323 -0.182984 0)
(0.15523 -0.960388 -3.61815e-16)
(4.89138 -0.172095 1.24799e-16)
(1.97806 -0.0886811 -2.62882e-16)
(-1.95477 -0.31446 0)
(-2.48695 0.167215 5.46764e-16)
(-0.30361 -0.833095 6.14449e-17)
(0.582136 -0.0455758 -1.53796e-16)
(5.96785 -0.21086 -1.67496e-16)
(-0.432192 0.993249 0)
(-1.75391 0.221925 1.26359e-16)
(-0.0973848 -0.0875474 9.4377e-18)
(5.13481 -0.517068 0)
(2.00193 -0.267594 -2.15986e-16)
(-1.86826 0.19146 1.25431e-16)
(8.24244 0.0622175 0)
(4.43973 9.37474 -6.87524e-19)
(9.07399 0.47467 1.76786e-18)
(0.36696 1.13298 -1.08987e-16)
(0.407374 -1.4025 -1.26295e-16)
(-0.405382 0.0135437 2.10245e-16)
(-1.23246 0.139108 0)
(1.17625 0.359232 -2.19846e-18)
(0.166899 0.560211 -2.37969e-16)
(0.423396 2.44276 0)
(-0.297738 5.28791 -1.2002e-16)
(-0.00361119 0.39436 -8.2668e-21)
(4.70867 -0.490068 1.28914e-16)
(0.312507 2.00694 -2.94831e-16)
(11.7908 2.09889 -3.63502e-18)
(-0.0916379 0.64785 0)
(-0.387557 6.98572 1.02905e-16)
(0.344945 1.5271 3.40552e-19)
(-0.919313 -0.285118 1.09949e-16)
(1.5856 9.73927 -2.1606e-17)
(0.115203 -0.24952 5.21174e-17)
(0.98842 -0.0593722 5.93005e-17)
(-0.144673 0.657641 -1.81729e-17)
(0.22748 1.06389 -1.33277e-16)
(0.167049 -0.752215 -6.66986e-19)
(3.52249 -1.56925 -6.89632e-17)
(-0.688711 -0.989817 -3.25906e-16)
(-0.127779 6.14823 -3.28405e-17)
(0.171968 5.99757 2.64726e-17)
(0.0354869 5.19576 -2.37022e-17)
(0.579438 -0.166803 -1.53301e-16)
(2.92942 1.90537 -3.88045e-17)
(0.913181 5.51413 -7.55376e-17)
(0.0445237 7.00204 -7.13091e-17)
(0.001664 8.12696 1.10487e-16)
(0.122381 7.50205 5.46485e-17)
(-0.0892693 7.65893 2.55747e-17)
(-2.0975 0.026377 4.95091e-18)
(0.00824234 6.09335 -5.26699e-17)
(-0.106471 7.94671 -1.18956e-17)
(0.0174109 6.93224 0)
(8.79609 0.523282 -2.86568e-17)
(1.80804 3.45713 -1.04542e-16)
(-0.710786 -0.0363722 -3.82749e-16)
(8.10928 0.138633 6.94406e-17)
(0.0317463 7.57208 -1.89966e-16)
(-1.27312 0.262537 0)
(0.0797969 5.79764 0)
(0.0339772 1.1125 0)
(-0.40059 0.0767195 -2.54621e-16)
(-1.37992 0.561166 -1.13019e-16)
(0.0462701 -0.26592 -1.46599e-16)
(1.74681 0.548151 -1.4357e-18)
(0.913189 -0.39055 0)
(-1.29108 4.92063 9.46281e-17)
(-0.26349 -0.308829 1.33999e-16)
(-0.108909 7.33017 0)
(-0.0323187 7.6974 0)
(0.0983712 0.171776 -3.38909e-16)
(-0.0510552 8.55319 5.01245e-20)
(9.32302 0.426746 -2.44499e-20)
(10.8212 0.669251 5.31266e-18)
(-0.129387 7.60675 9.44138e-17)
(0.62618 0.0718475 0)
(-1.80201 -0.447373 0)
(0.157994 2.25313 -1.68935e-16)
(0.497609 -1.22424 1.67365e-16)
(4.75806 2.39736 4.77132e-17)
(0.312556 4.53112 0)
(-0.0466978 1.59304 6.39182e-17)
(6.15946 -0.58141 1.11243e-16)
(-0.542364 -0.0414742 1.55966e-16)
(1.16242 -0.493977 2.6085e-16)
(-1.33257 -1.1346 1.74354e-16)
(0.194402 0.482006 2.35722e-17)
(1.03728 9.41423 -6.52917e-17)
(-0.0288561 6.34486 1.23713e-16)
(0.438196 -0.191655 0)
(4.33151 -0.20424 8.69723e-17)
(0.475904 1.12552 -1.61107e-16)
(-0.215262 -0.196275 1.76281e-16)
(1.31745 0.458 0)
(-0.142923 -1.36049 -4.25173e-16)
(-0.0559525 4.40101 0)
(0.79274 -0.895418 0)
(0.0765431 4.87957 2.07472e-16)
(-0.276918 -0.324644 1.90323e-16)
(2.38684 0.0491509 1.83144e-17)
(-0.806027 1.16571 1.91658e-16)
(7.70001 0.274105 2.19985e-16)
(1.08362 2.13922 -1.82014e-18)
(0.377859 2.24155 3.26991e-16)
(7.06218 -0.164384 -1.66028e-16)
(-0.110684 0.401556 2.84339e-16)
(0.0659419 5.88177 0)
(-1.22136 0.0216386 1.65422e-16)
(4.76388 -0.451708 0)
(2.02535 0.0446513 0)
(3.29394 -0.718688 -2.08982e-16)
(0.32761 -0.30366 3.76302e-16)
(5.26568 0.184566 -2.46984e-16)
(0.116759 -0.227045 -1.29978e-16)
(-0.905077 0.024297 3.45175e-16)
(2.15463 -0.264654 -3.02355e-16)
(3.01365 0.00365233 0)
(-2.9107 -0.101422 -1.07332e-16)
(-2.93112 0.0164579 -2.79017e-16)
(-3.02245 -0.104874 1.53464e-16)
(-2.59548 -0.263863 9.96691e-19)
(2.80589 0.106163 -3.08428e-18)
(2.09431 0.356805 0)
(0.31725 -0.198675 8.55554e-19)
(-0.0867782 0.0233828 0)
(-1.84805 0.408806 -1.06351e-16)
(-1.50434 0.513048 0)
(0.478467 -0.424251 9.43499e-17)
(1.33202 -0.146282 3.61039e-16)
(4.57718 0.190978 0)
(0.636149 0.05982 -2.11409e-16)
(1.00955 -0.203011 -2.30986e-16)
(-0.744872 -0.448975 -7.34624e-17)
(6.1464 0.11262 6.31027e-18)
(1.74105 -0.00463184 -4.31052e-18)
(-0.709047 -0.213945 0)
(2.20816 -0.020063 0)
(-1.90471 -0.330244 1.17129e-16)
(0.437394 -0.3924 0)
(0.406497 -0.572032 7.73638e-17)
(-0.752937 0.0786498 -1.35207e-16)
(-1.23535 0.302463 -9.44343e-17)
(-2.53129 0.0704408 1.05911e-16)
(-0.845491 -0.107462 2.98076e-16)
(4.65511 -0.0650885 -3.22089e-16)
(-1.10619 -0.0583812 3.542e-16)
(-2.29575 -0.0866154 5.58702e-16)
(1.06829 -0.582587 5.12586e-16)
(-1.9994 -0.65902 -8.27428e-17)
(0.785716 -0.098085 -4.61233e-16)
(-0.155718 -0.233411 -2.09506e-17)
(-2.24399 -0.165689 -1.28696e-16)
(-0.406556 -0.356211 -2.56874e-16)
(6.26733 -0.0459247 1.15566e-16)
(4.90843 -0.129809 -1.39634e-17)
(5.83553 0.0190685 0)
(-1.13112 -0.473423 0)
(0.181237 -0.244242 1.00989e-17)
(1.92036 0.0296948 -5.92901e-17)
(4.82486 0.0240105 0)
(-1.41396 -0.431616 8.92628e-18)
(0.33312 -0.0905521 2.20566e-19)
(5.64664 1.0534 -6.07173e-18)
(1.91069 8.444 1.17192e-16)
(-0.0847326 -0.184388 1.26636e-16)
(9.60071 -0.0123836 0)
(-1.77495 -0.00646108 -8.38402e-17)
(2.21918 -0.640767 1.30683e-16)
(-0.610355 -1.31617 0)
(1.43685 -0.174761 6.57626e-16)
(2.83065 0.759409 -1.13731e-16)
(0.805837 0.660599 9.54305e-17)
(4.11565 -0.197532 1.25211e-16)
(1.35796 5.56488 -1.63286e-16)
(9.51645 -0.010304 0)
(2.63947 0.722342 1.78465e-16)
(-0.349882 1.87693 0)
(0.0366454 5.73197 2.22553e-17)
(5.1452 0.119324 1.2296e-16)
(11.4323 0.779794 2.16874e-18)
(0.633789 0.17577 -7.08478e-17)
(-1.37025 -0.694947 -9.50622e-17)
(-1.03385 -0.247695 0)
(0.250045 0.488802 -2.896e-16)
(-1.34122 0.644387 0)
(1.33415 -0.0111077 -5.71709e-17)
(0.149195 -1.00489 -9.10293e-17)
(-1.05213 0.720626 1.40868e-16)
(1.20089 -0.228666 1.55377e-16)
(9.60868 0.0299786 6.43671e-18)
(8.20195 0.66933 2.0518e-18)
(7.2839 0.527015 2.71176e-17)
(-2.11776 0.0931961 -1.42796e-16)
(-0.612282 0.436841 -3.71593e-16)
(0.284747 0.763216 0)
(1.21481 0.74736 1.09951e-15)
(1.36499 4.52421 2.01851e-16)
(-0.67294 0.434883 -2.28923e-16)
(-0.802838 0.181953 2.52202e-16)
(1.42527 0.650479 2.22452e-16)
(-0.102552 -1.32971 -1.17955e-16)
(0.847346 1.4838 8.47726e-18)
(-0.117821 5.91575 0)
(-0.0600888 6.74847 0)
(0.0202117 5.22517 0)
(0.741744 0.364139 2.38865e-17)
(3.52639 -0.425398 -8.09432e-17)
(-0.640675 0.298608 -1.40164e-19)
(7.1506 1.18723 -5.45878e-17)
(5.12991 2.50885 -1.10514e-17)
(8.01717 0.21107 -1.43107e-16)
(8.91441 0.508782 1.4936e-16)
(0.0484456 -0.436909 2.6835e-16)
(0.167667 -0.910437 0)
(6.0031 -0.0579684 -1.05305e-16)
(-1.76684 -0.15977 7.35063e-17)
(2.5362 -0.400251 -7.37152e-17)
(0.955675 -0.630175 0)
(-0.542959 -0.147387 0)
(-2.59792 -0.0400763 -4.62223e-19)
(0.259903 3.06819 1.15394e-16)
(3.78174 0.806672 0)
(-0.559107 -0.347765 -6.13771e-16)
(4.40817 0.021196 -1.15979e-16)
(1.83043 0.0253832 0)
(-0.460921 -0.882692 -2.54442e-16)
(0.963201 0.673315 -4.5539e-16)
(4.89731 -0.348543 -1.57321e-16)
(9.3459 0.0823135 3.3786e-17)
(0.524403 0.168617 2.799e-16)
(-1.6962 0.363428 -1.34286e-16)
(0.621933 -0.789745 -7.64622e-17)
(-0.542769 0.0747761 -1.63114e-16)
(-1.7745 1.38884 -2.15294e-16)
(-2.21463 0.106142 2.37124e-16)
(0.889023 3.17358 2.44206e-16)
(0.992458 1.20245 1.09882e-16)
(0.136701 -1.0953 -3.68799e-16)
(0.957252 3.81352 4.84082e-17)
(-0.0970553 5.75883 9.54411e-17)
(0.0176881 6.49936 1.03666e-17)
(-0.0098027 6.71211 0)
(0.619292 5.7533 3.89952e-17)
(-0.134838 7.50195 0)
(-0.690768 0.956138 -1.46387e-17)
(1.70734 -0.265175 -1.03556e-16)
(0.239777 -1.38975 1.89138e-18)
(-0.237893 0.357253 0)
(7.93327 1.69409 0)
(0.941861 7.00264 7.37525e-18)
(1.65895 2.02255 5.14697e-17)
(-0.120509 -1.06125 -5.13956e-20)
(1.22208 5.01705 -1.72242e-16)
(1.21229 -0.854741 -1.38799e-16)
(0.15481 0.89528 9.84997e-17)
(-0.395394 6.62714 0)
(0.0127892 0.319716 -7.94755e-16)
(0.580585 1.86912 0)
(0.019169 0.129198 -1.89381e-16)
(3.58725 0.281637 1.54976e-18)
(-0.530699 -0.0865038 -2.27692e-16)
(-0.141841 3.12194 2.44234e-16)
(5.04806 0.11175 2.28985e-16)
(1.98955 0.052967 0)
(0.211302 -0.370859 -6.11996e-16)
(-0.177109 0.478508 -2.868e-16)
(1.29718 7.34793 -1.30111e-16)
(-0.0634053 -0.482218 -7.51739e-17)
(10.5571 0.121223 0)
(9.96021 0.298756 -1.67929e-17)
(-0.1461 0.0768971 -9.07154e-17)
(-0.0910311 4.00059 -2.23632e-16)
(-2.05012 0.364062 -2.0208e-16)
(0.60803 7.61842 -3.65361e-17)
(0.601441 0.990887 3.79685e-16)
(3.23902 -0.649658 -1.43248e-16)
(0.0265006 8.04805 -6.47554e-17)
(1.67308 2.34125 -8.34069e-19)
(-0.169899 -0.337602 0)
(2.3881 -0.320274 0)
(-0.950872 1.08103 0)
(-0.129761 -0.320438 6.54358e-17)
(-2.74709 -0.350205 -2.73313e-16)
(4.5365 -0.128759 2.82138e-16)
(6.20949 -0.0280093 -6.55135e-18)
(6.43223 -0.124429 2.88984e-16)
(-0.0186215 -0.223062 8.77041e-17)
(-1.85086 0.258575 4.62995e-16)
(-0.956743 0.0808189 0)
(-2.40621 -0.0746946 -1.94432e-16)
(-1.27724 -0.321002 0)
(2.7102 0.269501 0)
(-2.2657 0.0970809 -2.50172e-16)
(-0.595789 0.0238855 0)
(0.12681 -0.105308 3.91549e-16)
(1.3266 -0.0519229 3.94724e-16)
(6.27495 0.394369 0)
(4.29432 0.255649 0)
(0.458067 0.136091 3.66219e-16)
(1.91553 -0.00696772 3.02688e-16)
(-1.10803 -0.527665 3.05227e-16)
(-0.029969 -0.200018 -2.19969e-17)
(-2.927 -0.150528 -1.14935e-16)
(0.865137 -0.297408 7.18751e-17)
(4.55143 0.271407 5.05049e-17)
(0.962297 0.11851 2.51022e-16)
(-2.3779 -0.167289 -2.11397e-17)
(-1.06761 -0.140704 1.41649e-16)
(1.79488 -0.32532 0)
(-0.181379 -0.0378172 0)
(-1.5379 -0.231578 1.43206e-16)
(5.27971 -0.409243 1.59703e-16)
(4.42113 -0.0375844 4.96329e-17)
(-0.612734 -0.153133 0)
(0.173329 -0.0389978 -2.5644e-16)
(0.375005 -0.784698 4.67177e-16)
(4.76009 -0.087238 3.43819e-17)
(3.98342 -0.575257 -2.27167e-17)
(0.136537 -0.154263 -2.6374e-16)
(-1.06017 0.386901 4.17576e-16)
(-3.16385 -0.0182628 -3.52624e-17)
(4.30851 -0.344675 0)
(1.6342 -0.175253 3.39058e-16)
(-2.04445 0.0844608 -7.52757e-17)
(-0.760658 -0.197334 -1.18092e-16)
(1.5333 -0.289607 0)
(-0.960688 0.519864 -9.93506e-17)
(0.553811 -1.52937 2.39709e-16)
(0.472448 0.0760581 8.37623e-17)
(-2.76324 0.157044 1.29714e-16)
(3.8451 -0.0237476 0)
(1.35694 0.127915 9.59136e-17)
(-1.70455 0.586589 0)
(-0.622364 -0.0307745 1.29667e-17)
(-0.500436 -1.37311 1.29666e-16)
(-0.650791 -0.334927 0)
(10.7341 0.0870007 0)
(-1.98886 0.345239 1.12596e-16)
(1.63559 -0.684232 -4.99048e-16)
(1.52419 -0.996457 -2.44646e-16)
(0.162808 8.56019 -2.75585e-17)
(-0.251688 -0.645709 2.50319e-16)
(2.29953 0.190027 -6.65829e-16)
(-2.28391 -0.314397 0)
(2.48727 0.0926571 -5.69304e-16)
(-1.01183 1.25843 -7.18706e-19)
(0.0344943 0.455431 -2.37632e-18)
(-1.05772 0.605236 1.17489e-16)
(-0.829934 0.39741 7.94379e-17)
(-0.688164 -0.0453003 -9.20443e-17)
(0.219981 -0.593559 9.74215e-17)
(0.63253 -0.17785 0)
(-0.789364 -0.0304609 0)
(4.25148 0.427549 -1.94327e-16)
(-0.572361 -0.830843 1.1458e-16)
(1.5009 -0.195487 -3.90164e-16)
(9.08989 -0.104768 3.68633e-17)
(1.12892 0.340926 1.58279e-16)
(0.936307 -0.114318 0)
(6.44541 0.985553 4.36817e-17)
(1.67684 1.4638 4.26578e-20)
(-0.168709 1.08776 1.87027e-16)
(0.180707 1.01058 -3.24567e-17)
(-0.253318 5.67866 -5.79272e-17)
(-0.0658443 7.88384 1.84094e-17)
(0.141206 7.00197 0)
(0.789792 0.471276 1.67395e-16)
(-0.964188 0.316253 2.57605e-16)
(5.10774 -0.028604 1.88834e-17)
(2.0053 0.00141267 7.4208e-17)
(-0.0500893 -0.258719 0)
(-0.207133 3.51448 1.48998e-16)
(-2.4087 0.173615 0)
(-0.160269 6.2188 3.6452e-17)
(0.00666726 6.94481 -5.48847e-17)
(-0.15049 8.05696 2.47232e-17)
(-0.0960338 -0.0269347 -1.47861e-17)
(-0.954029 -0.186064 -3.56623e-17)
(-2.39242 0.116113 0)
(1.29408 -0.317801 0)
(2.61233 -0.23431 -1.4477e-16)
(-0.389002 -0.150397 -1.75967e-16)
(0.244301 1.37125 -1.16159e-17)
(-0.121715 1.00371 4.73548e-17)
(3.81562 0.747834 2.89705e-16)
(9.94997 0.165471 1.19219e-17)
(0.190107 3.8601 -2.22369e-16)
(1.09607 -2.98417 -1.81879e-17)
(-0.531042 -0.930374 2.54488e-16)
(0.153211 0.0766631 0)
(-0.647069 -0.434375 1.42943e-16)
(1.50468 -0.709453 -8.50732e-18)
(-2.73745 0.0679055 -6.75478e-17)
(1.76229 -0.458444 1.61655e-16)
(2.8073 -0.322592 1.4264e-16)
(9.90243 0.101743 -2.32604e-16)
(-0.65647 -0.327804 0)
(1.67059 -0.181254 6.13689e-17)
(0.807046 -0.0735605 -1.99719e-18)
(-0.00854374 7.67707 -5.31895e-17)
(-0.0695639 7.44107 4.20088e-20)
(0.120047 -0.25973 0)
(1.60091 -0.834621 1.83619e-16)
(1.02156 0.318538 -7.80644e-17)
(-0.53175 -0.4097 -2.0362e-16)
(0.00787684 1.26286 -5.60889e-17)
(-2.67385 1.31436 4.01549e-17)
(0.0111319 0.959134 -4.73914e-16)
(-0.0726515 7.06584 -2.26051e-17)
(0.393644 -0.358476 -5.03344e-16)
(0.346201 5.12524 -2.10063e-18)
(-1.54684 -0.461707 -2.04624e-16)
(-0.0480772 7.39553 -2.51934e-17)
(0.973266 6.44317 8.21697e-17)
(0.0954272 0.49326 -1.06773e-16)
(-0.0171379 1.29754 -1.88603e-16)
(-1.10596 1.75868 1.3917e-16)
(1.37717 1.12235 -2.71829e-16)
(8.44597 0.565738 8.61914e-17)
(-0.543293 -0.0430938 -2.68134e-16)
(10.1302 0.471674 -2.28586e-18)
(2.81982 4.32108 6.01792e-17)
(0.475243 0.0807116 -4.26287e-16)
(-0.0187011 -0.190576 -6.8296e-17)
(-0.19073 0.00924166 3.79537e-17)
(7.06876 0.923944 -5.01239e-18)
(1.47882 0.704252 -6.60508e-17)
(-1.06751 -0.680411 2.34184e-17)
(-1.90805 0.0933218 -1.55957e-16)
(-1.00608 -1.03357 1.06726e-15)
(8.38178 1.60101 -3.12271e-18)
(0.00808889 3.75108 1.33552e-16)
(-0.580662 0.315062 1.92731e-16)
(-0.00148959 1.30357 4.54785e-17)
(-1.71327 1.54966 2.09735e-16)
(0.122661 0.458186 0)
(0.329601 -0.339501 -1.84976e-16)
(-0.74595 -0.477629 1.11905e-17)
(-0.0441629 0.0548066 1.69247e-16)
(3.37891 -0.123156 -7.28104e-20)
(9.66419 0.029115 0)
(1.19173 0.341675 1.84992e-18)
(1.19011 0.0503903 -5.08234e-17)
(-0.0705238 0.749497 1.88707e-19)
(0.211867 1.37187 1.64003e-16)
(0.215037 5.39843 -1.16184e-16)
(0.0857144 6.94232 3.46009e-16)
(1.47519 1.63623 7.84892e-18)
(1.65899 1.92994 -3.50587e-19)
(2.65385 0.647632 1.57183e-16)
(-0.14082 0.186948 0)
(-0.611191 -0.428842 0)
(0.45139 -0.40249 -3.13143e-17)
(6.88277 0.845959 -1.39695e-19)
(3.7471 2.58705 2.37181e-17)
(8.75038 0.885998 -6.61439e-18)
(10.3297 0.531077 3.02992e-18)
(1.27229 0.365397 0)
(0.0650054 4.48293 0)
(0.0378458 1.14309 1.90349e-16)
(0.0138262 0.286421 2.2228e-16)
(8.86994 0.475333 -4.19966e-16)
(1.52546 0.702612 0)
(1.22279 0.115655 0)
(-2.05427 0.11376 1.91846e-16)
(-0.494634 -0.221921 1.3773e-18)
(-0.490885 -1.53769 -1.44106e-16)
(0.0715596 -0.253436 1.90694e-16)
(0.444661 -0.751256 -8.35437e-17)
(-0.126662 7.09318 -2.42598e-17)
(-0.056438 7.77638 -1.25154e-17)
(-0.0589767 -0.178051 -2.55813e-16)
(9.79117 0.16824 -6.18018e-17)
(9.23025 0.232875 3.91686e-18)
(-0.270296 0.686626 1.38631e-16)
(0.229615 1.17749 -3.40205e-17)
(2.28286 3.27972 -1.03016e-17)
(-0.226571 8.36869 -1.14664e-16)
(-0.268051 0.0175043 1.01553e-15)
(0.00254137 0.953027 6.01235e-18)
(-0.392663 0.127076 0)
(5.40806 3.71318 6.21119e-17)
(-0.0410118 1.0897 9.89309e-17)
(0.042847 0.990674 8.25357e-21)
(-1.03081 2.6855 1.51063e-16)
(-0.723077 -0.224238 0)
(10.2399 0.253074 0)
(-0.457782 -0.769572 -5.4126e-17)
(-1.22669 0.0955602 0)
(1.77355 -0.537704 6.35861e-17)
(9.98044 0.0657617 -9.71367e-17)
(4.83904 -0.0330871 7.0843e-17)
(-0.525337 -0.00189592 1.18125e-16)
(7.00059 0.0217157 8.95588e-17)
(-0.0253072 1.11213 7.21187e-17)
(-0.533279 -2.59447 1.52045e-16)
(0.0933858 1.03551 1.88065e-16)
(0.204621 6.55056 -9.13875e-17)
(-1.45995 0.967508 -5.97888e-17)
(-0.509716 -0.231806 0)
(9.6125 0.827966 0)
(0.0561222 4.94274 -1.9225e-16)
(-0.494479 -0.319368 -1.76898e-16)
(-0.067861 0.984634 5.96027e-16)
(0.125886 7.26469 -2.14915e-17)
(-0.537707 0.100127 0)
(0.459189 -0.0565731 -4.17169e-16)
(-0.109961 -0.0139997 -1.87249e-16)
(-0.0364236 0.852738 1.4709e-16)
(1.05446 -0.40615 0)
(-0.219829 2.9033 0)
(0.0284365 1.03884 0)
(-0.00395945 1.01882 -1.56768e-16)
(0.113413 3.49663 6.289e-18)
(10.3709 2.79184 -2.52966e-18)
(-0.0301072 0.0612327 0)
(5.36716 1.32754 0)
(-0.335916 0.498117 -8.83809e-17)
(0.389993 6.92869 6.5026e-17)
(-0.116319 0.45305 0)
(0.695003 0.0564184 3.6026e-16)
(0.234763 -0.350149 -4.71623e-19)
(-0.0976599 0.405698 -1.54867e-16)
(1.3408 -0.369598 0)
(8.00281 0.584515 -5.91847e-17)
(-1.5979 0.682708 -1.41655e-16)
(0.580467 2.95061 6.86122e-17)
(0.0705215 4.77881 0)
(0.704429 3.84788 -1.00913e-17)
(9.79446 0.255382 -1.86357e-17)
(3.00894 3.54638 -4.02118e-18)
(1.04179 4.67692 -1.22246e-16)
(-0.324539 -1.16249 -2.34769e-16)
(1.16259 1.66472 -4.28676e-16)
(0.0711235 7.09946 -2.00957e-19)
(-0.122465 7.18868 3.83846e-17)
(2.60543 2.5537 0)
(10.2824 -0.240928 2.31231e-17)
(-2.59358 -0.216988 1.29531e-16)
(8.84205 0.804717 -1.10159e-16)
(-0.457588 -0.0122685 1.61466e-16)
(-0.0398974 7.16268 0)
(-0.0139136 7.11329 -4.38235e-17)
(-0.220766 4.77251 1.76797e-16)
(1.25587 -0.0270148 -6.28605e-18)
(-0.0487667 1.3374 4.78652e-17)
(0.736491 0.931355 5.58707e-18)
(0.0456247 6.68381 -2.58016e-17)
(-0.203836 7.24778 -2.38833e-17)
(1.99502 8.70933 5.29644e-17)
(-0.569691 -0.0779983 1.80247e-17)
(10.0955 0.179148 0)
(0.395442 -0.306612 4.56879e-16)
(-0.904096 0.257905 -8.90896e-17)
(0.723619 0.250538 -2.98777e-16)
(7.48115 0.574393 1.56315e-17)
(-0.148281 7.46548 -3.59288e-17)
(-0.0158029 6.75687 1.77497e-16)
(0.859754 -0.68631 -3.08221e-19)
(-0.462213 0.0813572 -1.13526e-16)
(0.956194 6.34583 0)
(-1.84177 -0.149722 0)
(-0.099421 -0.230862 -1.86813e-17)
(-0.926683 -1.54636 0)
(3.3918 4.84285 -5.94171e-17)
(5.05084 3.19901 0)
(0.710073 6.91419 -1.36154e-16)
(2.1501 0.679032 5.37673e-17)
(1.82922 0.245683 2.64415e-16)
(0.866644 -0.259531 4.48466e-17)
(7.19171 0.686337 -1.41407e-17)
(3.88474 -0.0080562 -2.20698e-16)
(7.52477 0.140035 -2.75843e-16)
(2.49647 0.156108 0)
(0.150482 1.08605 -7.3952e-17)
(5.10652 2.96443 1.52639e-16)
(3.60007 1.67796 -6.9853e-17)
(0.0187954 0.00417525 -3.4523e-16)
(0.219738 1.16364 5.20503e-16)
(-0.0234859 0.917176 3.08974e-17)
(0.561658 -1.58857 -3.4009e-16)
(0.754345 3.4763 9.18168e-19)
(0.945485 1.06416 -2.31171e-16)
(-0.854115 -0.0595717 1.64481e-16)
(-0.368864 0.612675 8.2458e-17)
(0.312866 1.50863 0)
(0.049601 0.413994 -7.20145e-17)
(-0.395583 0.692426 -7.19467e-17)
(0.29326 1.06172 2.7431e-16)
(0.112152 -0.406351 -1.07719e-16)
(0.993877 8.38718 -3.35892e-17)
(10.6118 0.427548 -6.71943e-17)
(-1.34978 -0.193073 8.86459e-17)
(-0.174021 3.74841 -4.25699e-17)
(-1.07144 0.525358 -1.22401e-16)
(8.51503 0.159585 3.37678e-16)
(3.95063 -0.138352 -2.28116e-17)
(0.00452754 7.13672 2.90634e-18)
(4.29629 -0.153953 2.32043e-16)
(-0.011224 4.72742 -1.66049e-16)
(-0.122107 6.59197 6.88044e-17)
(7.05344 0.419923 0)
(-0.241218 -1.62488 -8.65391e-17)
(-0.00585997 0.0256494 2.70009e-17)
(0.0156249 0.281336 0)
(-0.338221 0.0653113 -1.82151e-16)
(-0.399625 -1.08306 5.07013e-17)
(0.995954 0.230711 2.60795e-16)
(1.22121 0.33471 2.28749e-16)
(3.86536 0.197206 -3.92266e-17)
(9.12188 0.715717 -1.21624e-18)
(1.36636 1.57815 -1.35105e-16)
(-0.476001 -0.0681752 3.61e-16)
(0.809727 -0.808484 -2.72291e-16)
(-0.327654 -0.459404 1.06889e-16)
(0.397457 -0.246816 0)
(0.0884245 0.504051 -1.07984e-17)
(-2.12288 1.63699 -2.32335e-16)
(0.0136599 1.31375 1.44876e-20)
(-0.0715535 6.7634 2.15636e-17)
(0.218363 5.46631 -2.61349e-18)
(0.0337013 5.70835 -9.50734e-17)
(0.0659987 6.45382 2.59212e-17)
(1.96415 4.46393 -1.35014e-16)
(7.13768 0.35296 6.6903e-17)
(0.347361 -0.0756094 0)
(10.5448 1.11177 0)
(-0.674055 -0.325885 4.09467e-16)
(-1.97633 0.221451 4.07588e-16)
(-0.103534 7.51193 1.10248e-16)
(-0.00558424 6.84699 -1.19486e-16)
(-1.85856 0.644743 9.97407e-17)
(0.924599 6.79148 -3.76587e-17)
(-0.598296 0.269362 4.40711e-17)
(0.171035 0.569479 2.15305e-17)
(0.382609 -0.168806 2.05987e-19)
(-1.29836 -0.207775 -5.58511e-17)
(-0.203358 -0.504307 -9.62346e-18)
(-0.051414 3.73622 -4.46634e-17)
(3.51603 -0.0742692 -3.79877e-16)
(1.06063 4.71845 5.9101e-18)
(-0.548089 -0.460058 1.38027e-16)
(-0.512701 0.210784 0)
(0.0866446 -0.157792 0)
(0.112066 2.10442 0)
(0.79769 6.06548 2.14886e-16)
(0.834392 8.33574 2.21019e-16)
(-0.122038 7.93603 1.75277e-16)
(0.188571 0.151379 3.53654e-17)
(5.77759 3.24697 -3.66057e-17)
(0.294955 0.0958525 0)
(0.0364389 0.84495 8.43283e-17)
(0.161151 0.206733 3.38585e-17)
(10.4996 0.058226 -7.00468e-18)
(-1.91978 0.123217 -8.16647e-17)
(-1.50356 0.355424 2.90811e-18)
(-0.96532 -0.186042 -1.40199e-16)
(8.8832 0.361736 -1.92379e-17)
(0.200214 3.34224 0)
(3.47334 1.19613 -3.3258e-16)
(2.25479 0.21348 2.22059e-16)
(-0.294584 -0.467228 0)
(-0.298474 -1.4212 5.70337e-17)
(1.31426 2.22732 -2.45313e-16)
(8.58339 0.145803 0)
(1.73196 5.79914 -4.35948e-16)
(-0.0339778 7.04892 -9.87259e-17)
(0.85736 3.81439 0)
(1.10153 0.550822 0)
(11.3571 0.287725 4.05401e-17)
(10.3186 0.354804 3.14906e-17)
(9.30809 1.40294 2.01337e-18)
(5.363 2.2007 8.39443e-22)
(0.431821 2.55921 0)
(1.36778 0.55763 1.91123e-16)
(1.46713 7.05275 -2.82203e-17)
(4.63214 -0.0603285 0)
(-0.274964 -0.418277 -4.00114e-16)
(4.44315 2.5081 2.37845e-17)
(0.107352 -0.062743 -1.39111e-16)
(9.27685 0.9049 -4.93016e-17)
(10.8243 0.0435662 7.30257e-17)
(1.67831 1.77475 -1.75284e-16)
(9.87388 0.416072 -1.45715e-17)
(-0.0209613 7.74659 1.20747e-16)
(0.559931 8.43752 3.86312e-17)
(0.598041 6.78484 -9.64664e-17)
(6.70915 3.61156 0)
(-0.0244362 0.256955 1.42685e-16)
(0.565571 0.375047 -1.70743e-16)
(2.69877 0.0913991 3.08438e-17)
(-0.11211 0.0896856 1.2908e-16)
(0.0594921 6.99521 -2.39451e-22)
(-0.0174601 8.04312 1.47776e-19)
(0.543304 5.91203 7.05066e-17)
(0.555773 0.465608 0)
(-0.47708 0.25579 0)
(2.1064 -0.91691 7.91172e-17)
(0.116805 0.0634611 1.78859e-16)
(-0.0647866 5.72194 -9.03643e-17)
(-0.00329773 6.45481 -2.88252e-18)
(-0.250816 2.28924 0)
(2.14306 0.883317 -3.3286e-17)
(10.0531 0.114413 8.02822e-17)
(-0.109901 0.434904 0)
(-0.259935 0.0353984 -4.38366e-16)
(-0.924943 -0.628307 6.3893e-17)
(0.201767 -0.315755 2.42831e-16)
(-0.168815 7.47685 4.94708e-17)
(-0.0361821 7.21593 1.28773e-16)
(9.50682 0.932934 0)
(0.265243 7.27692 -3.37953e-17)
(-0.0688465 7.69946 -2.47304e-17)
(9.42491 1.13495 -9.06245e-17)
(0.0252098 0.79644 -4.24861e-20)
(7.82457 1.35131 7.29604e-18)
(0.0766916 6.98984 7.61155e-19)
(-0.0917874 6.88929 0)
(0.0209125 5.47202 2.74383e-18)
(0.230708 5.43328 -8.64047e-17)
(0.0892778 6.37479 -3.17315e-17)
(3.5763 4.04704 1.35985e-16)
(0.134048 -0.1735 4.64658e-17)
(-0.083664 7.60601 1.70414e-16)
(0.0424306 7.15136 0)
(-0.285166 5.30391 -1.34292e-16)
(0.369204 2.95576 2.66133e-17)
(-0.324336 -1.36898 -1.18017e-16)
(-1.07613 0.294247 7.04264e-17)
(0.0913689 0.231191 4.08175e-18)
(0.0537675 0.951 1.12126e-16)
(-0.453626 0.219663 0)
(0.685533 5.44783 1.12064e-17)
(-0.0731983 1.19765 -2.07238e-17)
(0.498635 0.016974 -1.17688e-16)
(9.16203 1.02619 -8.11188e-19)
(-0.0962322 2.07643 -3.14837e-17)
(0.00853134 0.717028 -2.19313e-16)
(0.0122593 1.26503 -1.58239e-16)
(0.149977 6.69689 -1.8189e-16)
(-0.0522144 7.03852 0)
(0.56188 0.129336 2.30754e-16)
(0.11682 6.62862 7.92902e-17)
(-0.131138 7.12054 1.92523e-17)
(0.348275 -0.308376 -7.81207e-17)
(3.53327 3.5295 -1.42734e-16)
(-0.871289 -1.36211 4.60937e-16)
(-0.204281 -0.858349 5.51096e-16)
(1.04068 0.955152 -2.20983e-16)
(-0.0684861 6.70553 1.95205e-16)
(0.131833 1.3613 -3.15688e-16)
(-0.650687 -0.48494 -1.63255e-16)
(-0.0387298 0.966908 -1.1073e-16)
(0.929344 8.49861 0)
(9.72233 0.101555 0)
(-0.0295198 0.0734573 -2.79684e-16)
(-0.052667 -0.727609 1.73496e-16)
(-0.12555 -1.5493 -5.56719e-17)
(-0.104081 0.558335 0)
(-0.198792 0.469824 1.08178e-16)
(0.460091 -0.0220256 -3.56197e-20)
(0.706463 0.284196 -5.84352e-16)
(4.1575 0.0966607 2.10516e-16)
(1.03759 4.93764 1.07929e-16)
(-0.132577 7.48878 -2.23516e-16)
(0.38858 -0.987277 3.47743e-16)
(-0.249661 0.00672078 -1.682e-16)
(9.69024 0.897152 -1.26672e-17)
(0.480507 3.22386 1.90019e-16)
(1.88335 1.03939 1.32257e-16)
(0.0705377 -0.744485 0)
(-0.932864 0.794079 5.12606e-17)
(2.09181 1.29952 -6.90109e-16)
(0.0874573 0.999678 -2.1979e-17)
(-0.0182974 1.03777 2.55588e-16)
(0.905185 2.92159 2.10866e-17)
(8.54104 0.545407 -1.08401e-16)
(9.55838 0.115217 -1.64349e-19)
(-0.710888 -0.187973 1.60591e-16)
(11.022 0.04898 0)
(-0.425512 0.47738 -4.50503e-18)
(-0.855527 -0.709088 2.34985e-18)
(0.282291 -0.197683 -1.71985e-17)
(0.0111313 7.10568 3.36472e-17)
(-0.0557585 7.07022 3.31248e-17)
(0.0067559 4.91704 1.67903e-17)
(10.4825 0.0386933 1.32902e-17)
(-0.50166 -0.464119 -5.33676e-19)
(-0.236876 7.81603 -3.98681e-17)
(-0.655406 -0.685379 -6.95146e-20)
(0.930314 -0.83162 0)
(9.54359 1.852 -4.76778e-18)
(-0.718332 0.173517 0)
(0.773988 0.185326 8.26125e-17)
(-1.08953 0.297817 7.23968e-17)
(0.14202 0.890542 4.3587e-18)
(0.548331 0.27183 2.35231e-16)
(-0.406071 -0.379579 3.20514e-16)
(9.20655 0.746958 -1.64996e-17)
(0.108857 -0.52739 2.36207e-16)
(-0.331644 -1.56511 2.43761e-16)
(9.45463 1.07537 9.25524e-17)
(9.69448 0.354452 3.81043e-17)
(6.56407 2.48574 2.9034e-17)
(-0.0932602 7.39782 -3.67039e-17)
(0.0188691 6.52279 2.25721e-17)
(-0.0390409 3.23629 9.64374e-17)
(0.306672 1.76856 0)
(4.18776 0.752401 4.45027e-17)
(5.68532 3.11832 8.11812e-17)
(9.21288 0.00237926 -2.25376e-17)
(0.275505 0.451053 1.11147e-16)
(0.664938 -0.803385 2.14313e-16)
(0.10797 0.0881741 0)
(8.73844 1.69147 0)
(0.0334806 3.63637 0)
(-0.0999037 -0.116573 3.75014e-16)
(-1.2858 -0.233565 7.80687e-17)
(2.35989 4.31087 1.96865e-16)
(0.0590961 6.14532 2.2338e-17)
(0.980145 7.41387 -5.10789e-17)
(0.0792198 0.199901 0)
(-0.308387 -0.643255 8.3154e-17)
(-0.470907 7.2969 -1.01417e-16)
(-0.336433 -0.203074 -7.29474e-16)
(11.223 0.120283 8.89929e-17)
(5.78725 1.22068 0)
(-0.166585 1.18832 1.61969e-16)
(1.20231 5.47589 0)
(-0.506826 0.411314 1.41314e-16)
(-0.531671 -0.655011 -1.9492e-17)
(0.789279 9.10975 6.13365e-17)
(9.83111 1.07371 -1.26487e-17)
(9.75661 0.696516 9.54647e-17)
(-0.955075 -0.0943845 0)
(0.272076 1.90892 -4.96694e-17)
(-0.506855 -0.0316745 0)
(8.41283 0.331825 0)
(1.10457 0.449466 -1.1503e-16)
(-0.496585 -0.723967 1.8923e-17)
(-2.81983 5.07642 -1.14081e-16)
(2.87367 0.817995 -1.17216e-16)
(0.00349408 -0.272016 2.02679e-16)
(10.2452 0.110343 -6.40276e-21)
(5.93546 3.57174 -7.38236e-17)
(-0.0460395 -1.08219 2.37188e-19)
(-0.103091 7.2318 4.36415e-17)
(-0.0220445 6.11127 -4.98427e-17)
(0.495289 2.10469 -1.10851e-16)
(1.16141 5.9774 -2.32989e-16)
(1.19789 2.7633 -1.21021e-17)
(-0.162058 0.894224 -3.17558e-16)
(0.288616 1.43098 -1.70021e-16)
(0.102167 2.37872 5.5114e-17)
(1.03972 -0.396983 1.7598e-16)
(-0.309617 -0.614208 -2.65195e-16)
(0.247319 1.10688 -4.70227e-16)
(-0.276361 0.953381 -3.47113e-16)
(6.87459 4.19329 3.30551e-18)
(0.303879 1.05443 5.07099e-16)
(10.0254 0.0436444 -5.87202e-17)
(0.880942 -0.0194463 0)
(0.0939991 2.37582 -2.6318e-20)
(3.87414 -0.678081 -9.60892e-17)
(-0.310728 -0.489609 0)
(9.94093 0.418296 3.69449e-17)
(-0.550058 0.0522059 2.89372e-16)
(0.31126 0.0176263 -2.65104e-16)
(8.80031 1.20637 0)
(-0.133087 7.03253 4.80956e-20)
(-0.120991 8.02578 0)
(9.98106 0.0863029 0)
(0.788696 0.256271 -4.44715e-17)
(9.09449 0.775859 -6.23949e-17)
(8.79874 3.92389 -1.73467e-16)
(0.834022 7.10446 2.00845e-17)
(7.18586 2.09556 -1.00285e-16)
(0.0754117 4.01061 -6.29756e-17)
(-0.0239781 4.85745 -1.25918e-20)
(-0.0602682 5.06342 -5.69383e-17)
(-0.0457297 0.340291 0)
(-0.0830013 2.32934 1.06631e-16)
(-0.00410024 -0.577725 0)
(-0.0872257 0.198584 0)
(0.0668665 0.25618 0)
(0.279846 -0.68406 -1.85893e-16)
(-0.188033 0.723392 0)
(0.157242 0.715819 1.16894e-16)
(2.87989 2.88214 -2.54931e-16)
(-0.0309814 5.17177 0)
(-0.0241952 5.75047 1.3766e-16)
(-0.201789 6.32756 -2.31293e-17)
(0.0388575 6.8107 7.09217e-17)
(-0.147705 8.08515 -3.12196e-17)
(-0.201836 3.31976 1.83949e-16)
(9.28572 1.01034 -2.56878e-17)
(0.163095 1.05546 1.91749e-17)
(-0.142457 1.01072 -7.08584e-17)
(0.0304198 1.53472 0)
(1.19369 -0.662347 1.45965e-19)
(5.80816 1.76304 0)
(0.482551 -0.0663231 5.74279e-22)
(3.78519 0.129995 -4.27212e-16)
(9.99959 0.0527749 3.22772e-17)
(-0.141451 7.82032 9.75425e-17)
(-2.23055 2.5751 -2.52501e-16)
(0.065297 1.408 0)
(-0.00479006 0.792591 8.69517e-16)
(5.83424 2.52897 -3.53683e-17)
(10.9849 0.534278 0)
(9.74553 0.24908 2.29183e-17)
(0.739743 0.265608 1.5845e-17)