/*--------------------------------*- C++ -*----------------------------------*\
| =========                 |                                                 |
| \\      /  F ield         | OpenFOAM: The Open Source CFD Toolbox           |
|  \\    /   O peration     | Version:  v1912                                 |
|   \\  /    A nd           | Website:  www.openfoam.com                      |
|    \\/     M anipulation  |                                                 |
\*---------------------------------------------------------------------------*/
FoamFile
{
    version     2.0;
    format      ascii;
    class       volScalarField;
    location    "0.44";
    object      epsilon;
}
// * * * * * * * * * * * * * * * * * * * * * * * * * * * * * * * * * * * * * //

dimensions      [0 2 -3 0 0 0 0];


internalField   nonuniform List<scalar> 
5794
(
1.43276
0.91639
2.66341
146.778
45.1381
1.08943
22.604
6.65983
96.3269
8.9517
35.2666
2.40308
13.4792
41.9697
1.65421
0.592305
212.104
56.5348
3.44889
1.52535
75.7477
0.882758
37.6126
3.70681
10.4636
73.1008
137.793
23.4926
90.8562
0.611218
6.30517
2.7835
21.7086
8.21435
9.25486
22.307
4.41306
10.6537
58.316
51.1187
20.9389
1.88719
9.14224
1.42443
5.69052
46.4426
3.16744
11.6467
7.54952
14.0932
0.196847
60.4011
5.03844
5.8842
0.297134
42.8946
2.94934
15.4239
5.73833
148.029
59.5032
0.729718
5.29865
3.2063
25.8539
0.659461
49.1307
26.6816
72.0074
1.38072
80.313
61.4847
133.277
3.89641
66.9509
15.1503
12.4843
48.0198
0.973919
1.96503
1.14804
1.89964
8.17189
36.0736
4.7863
85.8514
36.4143
98.6283
2.25895
47.2803
109.686
32.8978
70.3528
110.64
44.8024
65.726
81.7279
59.3892
29.9043
66.1331
54.0901
1.72492
7.18968
35.6925
18.9488
69.277
0.66387
10.1582
43.943
0.965113
9.92296
4.77351
62.1319
1.06495
37.9397
86.2642
1.46098
83.7449
53.6522
21.7323
85.5167
3.66045
7.30857
19.3147
4.8999
49.3264
72.3724
0.908621
69.7368
11.1709
3.70756
16.3901
12.4193
39.2994
87.1222
1.44075
120.962
0.708258
0.606378
10.6249
4.69124
31.2259
5.47452
34.2183
1.04734
152.161
80.1232
49.4345
46.2841
25.6996
11.9636
2.71859
74.7268
2.67589
155.168
12.5626
46.9492
19.2131
78.0039
2.92733
3.28914
10.954
15.9917
22.2307
61.2061
75.6805
25.463
11.0594
11.6396
5.88752
1.65808
30.9314
16.946
11.9346
10.0523
35.3195
2.03965
5.19162
8.47657
82.197
3.71577
5.04876
5.1176
49.5427
7.1811
112.169
2.26877
16.5987
10.3751
1.67854
44.5455
3.4816
28.236
5.87063
22.5859
3.28026
3.92986
13.8943
8.79592
6.64458
30.761
65.5396
8.21125
15.8601
4.10464
55.0375
10.5781
20.7347
127.836
46.8391
1.09759
10.1238
27.9388
6.07568
7.46307
9.96892
22.845
20.9322
29.2749
74.6261
9.70877
43.1011
154.778
66.9402
145.75
69.8935
3.47684
8.94507
12.2644
1.64028
11.5017
19.5857
4.75414
33.3479
26.3216
90.2633
126.474
31.8436
14.7461
1.2749
1.09938
58.3406
39.8873
48.7925
5.32271
8.21052
9.08519
53.7563
146.384
100.278
41.5187
0.678572
167.198
0.533527
4.90408
94.1518
6.74873
18.2627
17.1135
3.49002
77.0562
27.0131
6.2108
1.46267
7.70688
24.0456
33.0597
69.8262
3.27794
56.6292
5.60406
7.45547
11.527
75.1938
16.2406
1.62661
6.12895
3.57083
1.83127
14.7159
12.2997
80.5669
22.7098
1.91929
52.5361
99.523
45.1524
63.1105
141.267
89.2277
14.3346
14.2024
5.38011
4.60036
4.76289
83.1715
28.1553
2.83427
49.1048
0.891969
2.12843
56.1493
0.876828
50.6066
0.903192
73.1071
1.68117
68.9677
62.9794
8.52526
10.0911
41.5252
50.4091
1.05302
9.85863
35.1603
13.2318
27.7673
46.3909
119.452
7.1163
19.0801
87.3744
52.523
0.381888
26.6335
4.219
2.29834
16.5405
33.0647
74.2759
8.43593
4.57917
22.6706
2.97701
10.5834
13.2366
15.6247
10.3406
11.1202
5.47451
10.3243
80.2134
47.3202
2.34669
4.63833
77.8656
7.04308
86.9198
20.9787
83.4927
139.415
36.8642
4.24377
5.69587
90.798
18.9024
78.9003
25.6089
5.60444
16.3213
10.7868
95.243
22.4483
5.90941
33.6381
66.7575
55.6116
3.66182
16.9073
3.71701
1.11592
28.0897
0.86111
22.3505
50.4941
41.1461
5.54239
27.8473
1.1209
3.15087
2.89175
12.5564
21.6178
8.08901
10.4528
101.915
30.6652
5.60553
28.53
10.603
75.2617
1.15571
9.93196
9.85216
8.44717
7.55981
7.19416
2.23032
29.8571
7.19705
7.89452
66.5002
9.102
6.07374
41.4699
12.3671
1.27774
0.907759
78.7631
58.1116
26.1355
31.3759
28.4778
72.9704
6.68478
5.37931
84.9937
54.7428
80.6093
29.8205
58.6406
15.1965
4.45973
24.2114
11.334
14.9574
1.07317
1.07252
1.13359
60.7444
5.7874
33.4749
97.1117
10.8864
1.3836
5.63319
34.7104
20.4513
8.64504
12.7453
8.14028
11.0067
3.76961
3.77412
94.2748
40.4771
0.265045
15.7511
68.2299
13.8148
1.222
116.095
0.86951
76.3942
1.55727
74.4022
71.3405
53.4253
160.409
1.06871
1.06603
16.6325
8.83164
73.9547
11.0609
62.9797
48.7046
17.031
0.911592
0.434745
132.545
49.4939
12.8586
5.95603
90.3815
97.6477
24.8962
1.69352
1.12237
27.3579
0.947894
2.26961
9.25279
15.2326
32.4635
10.0048
4.29927
87.7532
0.898683
1.23192
115.065
98.1371
61.5215
10.8426
9.81713
1.34369
2.45512
0.630098
36.6226
79.4062
104.259
8.73899
15.8757
35.3889
1.03343
1.2019
30.8659
38.1642
0.68693
63.7064
1.51264
3.20271
1.15838
0.930488
33.8209
77.3167
0.676785
5.50704
65.8377
1.3098
0.689934
51.2449
85.3461
11.4188
1.15427
0.9793
44.427
1.22645
1.03264
21.5933
1.41306
63.989
1.87892
24.3697
4.13094
6.63436
156.971
10.3826
63.2244
0.999734
118.232
1.36018
58.2709
4.49926
0.343652
5.4311
33.7769
1.2235
0.881567
35.098
1.73022
1.8159
0.841879
1.20587
4.82175
18.3549
1.06807
1.23439
31.2931
229.398
0.837805
55.6032
3.44907
53.7553
3.50208
0.600148
13.4193
0.703409
0.68052
83.5979
27.0599
123.081
115.487
111.396
8.78722
57.5466
55.5712
2.53351
27.8038
87.6126
32.8829
104.039
84.8569
85.3678
54.9237
1.039
69.1342
24.5443
88.5703
0.681103
1.00753
0.705603
97.6201
37.4152
37.4106
0.578907
9.34862
0.541007
5.73594
1.62179
95.8996
38.5373
105.108
1.49851
8.00686
103.385
12.2879
0.334955
3.89731
48.8753
79.7774
29.9812
10.5341
3.39198
4.9923
33.0597
29.9258
7.31184
116.944
0.747381
41.0238
59.899
14.1805
0.696387
1.22489
0.631066
33.3519
76.3899
1.02087
1.33596
1.06196
0.424531
1.02414
0.629474
2.65809
48.0423
26.5329
21.1869
27.2879
4.53413
8.53816
28.1261
26.7825
123.682
129.76
55.347
48.1872
1.02393
0.606791
0.647373
0.919079
1.88143
3.62754
4.0635
75.0522
77.6645
69.4963
86.9915
0.888117
0.985621
2.34836
0.836129
46.6813
1.18883
59.8486
144.066
102.461
47.2777
47.2999
33.7125
2.19829
70.8254
18.3451
39.0429
42.603
114.858
4.20538
28.5742
1.16532
0.518862
26.839
4.94025
0.400618
31.1682
135.607
128.968
2.05031
2.01012
0.671482
17.8459
171.547
41.6527
52.3363
3.87746
40.8893
18.7629
1.80238
0.648908
9.86541
9.87242
14.0249
1.35789
18.6319
30.3938
149.684
52.0607
4.73028
1.63674
114.565
20.7407
181.609
57.4316
82.8466
40.0136
16.2817
8.78628
106.622
45.2869
32.4828
43.994
65.8501
155.967
1.61769
88.5447
1.00348
14.8348
28.402
94.566
38.5651
50.8298
30.3907
128.368
26.4788
4.35602
5.29727
190.212
11.1047
31.6384
65.7989
95.8836
1.0147
0.651195
20.0461
1.15679
94.2493
41.3063
125.299
7.6876
9.01692
0.563075
0.878599
4.99965
1.458
36.3346
96.6122
5.03759
115.51
45.9318
8.63589
4.39011
115.331
84.8625
55.7659
143.981
103.227
46.3044
53.5802
0.977863
64.2046
24.2838
84.6361
28.2822
1.64797
22.8774
0.9788
1.08536
1.04664
34.2131
0.908628
23.7962
89.0054
10.9695
1.27385
1.0076
89.4295
36.5787
22.7838
93.3431
35.0657
0.297824
80.0342
59.2012
16.9756
5.04799
41.7153
1.12192
173.325
0.904172
51.7359
9.46845
14.202
3.27972
0.552302
0.52666
3.66869
22.8512
45.0936
79.6679
185.668
55.7703
4.12997
0.942118
34.1042
140.341
9.1956
9.0554
14.2544
72.5764
1.06653
1.17969
15.9464
48.9574
71.5934
1.12323
17.513
3.03794
9.77142
2.78283
25.3701
73.3756
81.856
9.3647
1.86534
68.9141
7.17574
0.914524
134.641
2.47014
2.51456
8.53657
0.766682
19.8351
1.09504
25.368
1.22363
5.02786
6.1025
10.7569
101.009
41.5454
112.443
51.6205
49.7517
68.2977
37.5683
64.6435
39.3854
0.8089
0.756484
5.01765
31.5981
0.870004
20.0713
193.03
64.321
52.6821
15.9782
3.87795
44.047
0.757624
14.1903
50.6807
1.00389
148.234
2.72226
2.10869
37.0024
16.9503
6.27158
2.48201
72.5308
10.9925
6.72178
0.643836
1.92362
53.0556
70.2128
1.01023
10.1205
32.6573
6.61292
50.3179
131.713
87.6784
81.468
40.5705
1.01687
1.11289
24.589
0.681503
1.15385
0.704413
1.07596
23.6381
0.694134
7.3876
0.754941
54.0871
52.4217
5.43898
7.95909
7.84141
15.6216
89.7881
33.9982
77.3529
6.32147
0.724835
82.6347
11.383
28.9207
7.21047
116.185
70.6548
76.0335
0.706407
119.159
91.9542
1.0551
1.30588
5.28311
1.41429
1.3928
73.6938
36.7845
54.6141
79.0075
29.8778
58.2688
26.428
12.4489
0.951989
1.29
35.0569
0.66379
112.068
22.5406
161.958
6.97582
72.9887
79.6961
1.12936
0.867044
97.6331
80.4425
10.0503
11.9893
22.9274
61.9451
3.38081
40.3506
0.745229
4.81567
3.46886
0.626334
0.638733
1.38963
0.416001
0.675415
0.781679
1.0875
7.99192
50.0658
5.38021
2.04162
0.723281
76.1467
9.72245
27.1495
3.81709
46.1879
0.629124
38.6112
4.71653
5.74549
1.61317
13.7966
42.9095
1.11179
10.0091
1.67926
0.712871
9.23856
77.4552
21.6177
77.1023
150.433
1.19276
11.0796
28.9019
31.3089
26.7296
25.1638
51.7619
100.985
1.24431
0.850353
0.755682
0.187748
18.9966
11.0462
131.816
149.927
131.167
0.315713
30.6404
137.281
80.4372
57.465
49.613
0.689568
0.930971
1.11891
34.6343
11.0697
34.9886
4.53072
0.418834
4.40435
4.83445
10.1159
20.3321
1.12835
1.22648
35.7283
21.4499
11.6088
0.785602
8.21834
44.8673
1.00749
5.13678
2.96416
4.01144
14.3194
0.957106
27.2886
0.640942
10.4063
18.2941
1.25152
44.9684
10.3169
0.701762
1.23577
27.6584
0.892823
73.191
6.43958
1.37337
0.7446
6.3285
0.458257
0.678556
10.3842
1.0575
0.446727
10.2729
9.41275
18.3191
56.298
27.6088
9.02078
103.504
40.4066
0.561069
0.79884
38.0836
1.48659
16.085
79.8085
0.672207
19.0264
1.38356
68.9404
2.27167
54.8327
2.48397
45.8115
47.8601
0.830408
35.6838
4.81735
0.210311
4.38614
31.9097
30.1738
33.3408
1.24841
37.6045
0.485086
0.98008
7.62918
0.940357
1.37701
20.0259
0.961295
19.5296
2.67701
70.3814
1.79916
1.05541
0.631383
4.50489
49.1514
18.3197
1.05429
28.1471
7.38864
15.7244
68.12
31.3262
0.635362
0.73206
19.8586
5.94441
40.1685
6.7867
64.5624
75.1345
61.933
23.0267
69.5313
8.83326
8.73381
5.92246
1.71148
5.14402
1.0949
450.777
39.9146
1.32923
1.17844
54.4483
50.6611
8.49213
0.493304
1.01374
15.47
6.65085
0.994052
39.5489
3.94313
23.3237
2.61141
65.0662
1.25164
0.42792
4.05388
4.07935
0.996448
31.065
1.14588
50.3778
0.885806
58.9123
5.59896
16.0711
4.34015
23.3265
9.26459
17.8533
11.3676
4.53091
1.18669
4.80789
29.6118
10.5499
5.45069
1.07127
1.22118
18.7386
34.8785
21.8299
10.6743
24.6834
7.32541
3.7969
7.25747
7.36496
22.0736
3.26747
11.1483
27.1583
0.616609
58.4658
0.631821
142.334
1.44374
1.21862
10.9958
0.649036
0.611303
44.1784
2.67234
6.37928
0.603678
0.876154
37.3964
217.259
111.299
2.256
0.882668
2.19629
9.90356
56.0296
19.614
3.26041
8.63242
0.661236
56.1654
4.26237
3.24356
33.6695
7.44105
7.95621
34.2756
19.865
1.10886
20.8535
88.8611
31.7265
8.14049
26.0763
21.9539
0.633262
57.2491
116.936
37.3589
85.9926
1.69787
0.467571
35.7408
10.002
16.7875
0.256591
13.1231
56.0398
0.540752
1.26613
0.6326
0.723092
1.42646
7.13458
2.99531
20.5946
0.890985
3.55166
22.3511
124.174
35.46
3.79501
29.6545
4.41702
80.0173
0.602493
53.377
107.614
30.1855
69.2705
2.8274
37.4893
33.9026
80.2314
3.24952
6.37748
1.66694
37.4244
0.704092
1.88866
23.671
5.28876
3.50234
11.8921
3.40935
3.38191
27.699
0.666515
0.556049
7.4121
3.29851
0.925102
2.13713
78.8846
9.36487
48.5202
41.6668
46.7013
0.703932
106.412
0.590755
30.7242
12.0691
15.4776
4.65701
0.962124
31.8967
0.515941
7.41601
0.470602
36.401
0.841339
4.44481
30.953
84.4103
4.76699
63.9101
62.9998
6.14518
8.87369
0.941715
10.4765
1.36301
16.3933
78.3709
4.13035
0.335073
3.82609
28.5051
37.3297
167.633
96.0171
109.124
94.2036
30.5129
0.368579
1.41803
17.0572
6.04752
90.381
1.44885
0.439288
1.28401
15.7619
0.51223
3.6783
5.86097
2.02309
5.6838
1.96939
4.47015
0.928707
7.61278
3.56587
31.546
14.2667
0.775413
67.1296
32.1575
61.115
18.2508
2.52353
47.0155
1.10192
0.958255
0.742625
3.44443
306.92
11.3975
52.626
23.4359
74.4932
66.5733
16.9936
10.7698
0.259358
0.777651
2.42829
0.371856
7.01351
11.3988
0.847028
12.4092
0.171786
0.849643
6.43749
3.67902
1.31318
0.927792
0.250282
6.29961
11.2043
1.21469
2.34643
5.57676
0.946445
0.987285
0.228428
0.393719
9.73864
3.98259
2.6863
0.542389
1.28154
4.78845
6.33781
0.733521
0.342771
0.541108
0.206322
0.461551
9.75718
0.718053
0.107585
2.30189
0.641922
5.44494
7.86741
2.72606
15.498
103.059
0.781931
0.710681
34.327
89.746
34.0342
2.10039
0.940086
15.5859
2.42554
21.4228
73.9005
176.485
41.1652
99.6214
31.7375
0.906868
0.800274
0.399389
1.39389
0.896357
11.8076
0.831461
2.7841
4.90287
0.836485
18.3617
25.9039
2.47385
6.66897
27.0353
222.681
3.21049
24.7821
6.97678
13.4169
28.4612
4.65958
66.5552
41.7592
29.5599
37.0015
7.64564
31.8693
6.29017
11.5066
13.9063
444.401
2.07932
4.68036
1.25154
46.2457
35.0922
2.47561
65.0225
59.0083
0.738857
0.446626
10.6742
8.66776
0.834728
11.7346
0.181905
0.636867
1.87072
0.188132
5.75928
5.92802
0.459993
8.97974
2.37261
2.5068
6.20384
0.980071
1.38718
1.14855
0.30706
11.6341
0.689687
39.033
62.9712
8.54529
21.5882
3.75996
13.9164
31.9147
1.25107
59.8213
33.887
25.1829
39.0722
37.0627
3.03007
1.05174
37.1617
37.5381
3.78503
104.036
89.5642
33.536
0.397712
36.5845
29.7381
4.30979
38.1217
12.5746
60.9233
0.873255
6.14072
0.396979
65.8023
2.80319
37.5586
34.5896
0.678313
112.989
1.18089
81.5171
1.33479
0.377723
0.371214
68.8716
0.556139
0.583097
0.66311
2.28994
107.36
10.7436
105.733
19.5408
3.30329
10.4845
81.9676
1.37818
9.15352
7.68913
65.3767
38.4523
9.42458
0.598259
12.0874
5.2408
37.9558
10.2603
2.00903
0.258524
3.70769
8.1001
0.721743
46.0456
43.9129
0.127849
1.82117
88.2318
94.087
12.0201
31.5003
67.2883
0.155311
37.6149
40.1076
32.2473
37.5169
11.9455
1.78358
46.7706
0.758846
3.98339
6.50808
56.6011
7.69024
9.97496
18.116
32.219
55.9994
1.7308
0.434716
1.74188
17.1527
34.9913
37.6231
186.35
65.4984
41.4696
19.548
12.7124
26.2184
25.2676
66.9941
28.1368
33.6654
37.6145
37.9482
32.8761
111.196
98.5275
5.6051
62.0568
29.517
19.5797
18.5475
3.31768
70.0717
42.0811
7.03615
52.9355
5.48241
101.242
6.53429
24.037
101.89
3.56869
27.5901
7.19036
0.471996
1.05269
4.83483
55.4633
1.50282
0.479466
3.65981
33.9166
39.2628
70.2048
49.4219
43.296
72.0804
43.1954
1.73542
44.2946
39.9618
69.9925
39.7912
35.91
45.0245
41.5739
34.7124
39.2755
24.5531
23.4407
3.22332
71.1887
19.4641
3.09616
2.59365
12.525
1.46725
4.6147
15.3382
25.4172
2.60382
1.21409
1.63566
46.7537
25.4378
31.4269
14.3981
4.41284
5.93958
1.61391
4.22887
7.82387
4.99611
99.5144
4.28645
3.94838
0.645702
4.11608
0.52425
23.4023
0.807192
31.8539
0.744836
0.622394
5.31393
3.60203
2.22111
3.34771
1.99399
1.41555
65.7642
1.40029
20.9374
4.98083
9.30847
44.9617
101.264
1.27711
80.0194
28.2251
6.27671
124.717
9.34611
1.5073
111.75
25.2099
92.917
1.0278
13.7174
115.341
109.946
69.4429
1.52872
1.46169
1.53407
4.17337
8.63704
120.736
1.5746
19.6728
4.36437
1.01223
4.31021
8.5061
6.85298
47.5482
32.7366
32.1053
115.113
81.2659
1.757
82.9563
0.799524
5.02679
33.3005
8.83932
121.899
9.15713
112.461
36.2958
5.55639
8.58459
56.8479
110.526
4.93364
93.2692
43.5276
2.53339
32.362
7.64419
6.11683
5.6373
54.0552
3.95859
53.5363
68.5319
66.0927
5.82155
15.547
4.96645
93.1811
7.08544
7.46073
10.4324
206.679
1.36603
4.17996
0.518403
32.2566
18.2997
2.9693
5.35393
6.89019
5.77653
1.62339
3.72594
7.08539
5.01657
2.43365
3.9499
2.57346
6.90765
20.875
11.3998
8.48823
78.5577
6.32102
5.91861
0.900851
1.34742
5.51997
10.9352
3.87064
9.53425
0.56078
4.63575
3.78409
48.1482
3.09424
4.37406
3.73917
10.3658
0.890954
0.863263
5.75666
1.92923
1.66416
1.62931
19.586
6.94222
3.14522
72.665
0.54126
3.21154
1.9086
1.42611
7.65449
5.51591
11.7782
1.04379
2.30523
1.09229
1.72431
1.51434
9.64752
6.65282
0.779637
3.99557
0.574793
1.6317
1.49567
1.16987
4.77996
3.9983
4.42711
11.7819
0.608592
2.91037
0.844238
4.40248
8.43223
3.64395
0.494793
4.30336
1.54834
3.02601
3.33668
4.88017
53.3537
4.7293
6.02314
3.31927
0.8339
0.603151
28.2192
50.4766
35.9801
5.52122
1.24589
10.7008
13.1115
6.85327
24.0467
0.683818
9.03776
1.58429
81.5788
25.2623
2.65039
14.4978
23.8838
8.67805
4.43463
1.57324
0.452183
34.2307
30.5276
6.0185
15.2823
7.45898
4.12579
1.49692
0.410405
60.8456
3.33218
4.27026
34.8523
77.9834
25.4176
6.69247
6.09484
86.4565
10.8816
3.61601
20.6847
21.5538
10.512
6.94591
52.8083
8.40834
17.7609
38.9417
6.74526
4.71771
1.35628
0.435398
44.5558
7.69799
13.5875
30.702
77.0713
0.494355
84.6517
71.3492
4.28181
6.02271
18.2584
3.02233
11.5014
19.0071
10.2157
7.24521
15.112
18.9071
6.92044
78.4081
10.43
52.9113
3.02836
45.4875
30.1798
6.29477
21.2069
5.29284
3.94517
21.5946
10.0375
14.9443
24.5188
2.60874
26.6532
10.8992
7.82984
31.6727
6.7902
4.60911
0.899229
0.508351
18.5721
52.3778
3.09456
30.2672
62.6742
59.4363
89.1407
27.7949
6.05015
8.7417
4.29337
0.468098
76.2037
4.19602
48.138
60.819
4.78519
10.4365
127.65
1.70551
2.106
22.2163
18.0157
28.0476
10.1729
34.8979
64.0694
10.896
52.0285
34.3431
3.07767
1.87033
3.90575
13.7931
8.64395
8.8182
1.90941
2.9154
8.03335
5.24039
0.671806
0.468486
111.509
90.7985
5.50558
1.87328
117.013
92.6136
21.5851
2.10006
66.1165
24.9033
6.29386
8.45431
0.382903
83.6087
4.06896
1.52124
5.3954
123.848
72.1809
99.5781
5.84288
103.501
83.5974
37.9479
3.89276
25.7058
36.7907
11.3736
0.667637
0.498815
0.672424
1.10807
20.4593
32.9202
5.69882
2.16209
34.1468
27.3662
36.8432
50.3243
35.5736
26.572
0.912354
40.9822
0.693967
1.45223
132.931
61.969
65.7304
91.2591
63.0012
15.4081
4.44514
2.56098
2.59285
7.91205
0.672952
4.86927
0.537149
0.492821
0.837538
0.667271
0.91712
66.2044
84.8848
13.4402
41.5949
2.98408
9.33278
1.73448
4.15546
58.147
3.40774
48.3639
4.2965
6.93095
6.14821
71.0622
16.685
11.3533
0.593112
61.9934
2.35786
1.0673
3.98653
35.8454
76.0915
25.9181
6.23182
33.9347
115.837
4.2056
4.02798
0.771566
0.341936
7.8791
5.60575
34.9156
6.14374
1.93338
0.450202
26.1161
3.88645
4.84431
79.6071
1.78779
138.583
0.553591
0.506442
2.92162
37.0466
162.832
9.02558
0.927753
1.43149
49.1701
54.1401
4.56277
3.5005
6.09461
2.75839
12.4818
5.42598
1.02123
10.8291
6.76562
0.699885
5.08735
2.05636
6.32485
9.7333
2.85246
5.02648
1.83954
3.72673
18.9918
4.34913
2.49007
41.9355
5.72249
5.09978
9.35074
34.0697
0.566522
59.2847
11.7223
15.2039
45.2984
2.55606
137.499
25.7293
62.948
1.52493
93.0901
3.62651
21.6893
7.67569
0.426085
67.9767
3.17747
12.6051
4.90367
13.1278
13.2658
5.35023
65.0388
19.5491
79.0728
30.2466
3.01151
6.74357
6.47841
0.478579
0.493856
32.8031
110.739
12.957
5.46565
0.773334
107.208
13.1141
188.303
116.38
35.1898
48.6413
33.25
0.795202
30.9064
4.32423
3.06608
24.6304
32.7053
1.8412
11.5407
32.7691
10.3167
70.0208
4.86058
16.1024
64.8914
38.5508
5.89021
11.2739
8.17441
101.632
7.601
20.1894
81.4546
92.4669
24.1895
1.78371
1.64512
36.5708
15.1478
7.49175
29.4267
20.2544
31.6536
4.40548
22.6494
9.03032
122.313
8.9356
4.04888
1.36406
0.531156
33.096
120.59
23.6202
89.0813
74.4968
198.717
1.46654
25.7836
6.65704
33.1659
1.77934
172.648
39.0589
2.50023
0.464771
8.12458
0.798883
1.87923
40.8885
48.7492
36.2359
56.7792
76.163
56.6996
3.15453
16.4912
100.435
56.7657
25.1747
333.677
5.0023
6.06308
26.7685
99.3437
31.8779
23.8723
52.1867
2.75735
2.34908
36.0847
6.71107
10.0388
8.29353
0.717756
11.5678
1.20188
60.7244
0.508595
54.4181
3.16953
12.0594
14.6058
34.4347
21.5688
65.5728
1.07927
135.037
1.17137
0.489556
4.8729
0.255434
0.988953
73.2081
35.5528
89.7993
5.89323
94.5073
133.264
4.51366
25.4885
0.487859
3.41075
2.42415
0.268187
43.5519
49.9246
0.556554
0.484405
31.7503
16.5803
17.4216
46.9307
3.75799
22.1925
5.63692
111.403
4.80547
30.3299
0.808218
3.66226
12.3294
70.4839
3.0896
33.6026
72.656
4.75741
4.74879
49.7789
2.92207
1.53393
88.5355
1.45692
1.6311
170.798
11.1407
49.4466
3.59466
23.639
62.2035
0.842722
4.31343
18.1763
34.8995
71.9971
2.03723
25.5348
41.8793
34.9651
13.7259
9.87958
8.69976
4.13361
0.292025
0.53123
40.5674
38.5179
3.14196
0.864099
105.109
8.26286
28.7146
43.986
6.16947
5.15498
61.2472
89.8272
12.8409
0.407663
0.889368
30.0132
24.8813
31.4368
3.22223
2.61537
56.674
49.9448
5.39257
46.7711
129.835
81.6281
32.9044
72.1553
0.393838
24.0405
57.8454
5.76193
0.358882
0.520243
23.5046
4.17134
4.46289
53.5663
1.68803
13.3067
3.993
3.28094
10.3875
311.431
1.93884
31.9041
1.57544
30.2852
67.0159
32.4384
3.05785
7.66516
0.39957
0.511059
40.08
13.3863
13.1926
83.467
14.5325
28.4301
203.855
60.6913
36.0636
0.215301
65.0475
0.36607
1.1853
52.3023
27.9295
9.54135
1.34527
2.6514
6.49938
39.2361
0.35776
1.65311
34.2664
90.177
2.24481
5.58484
3.0199
68.7332
70.3209
106.589
1.88569
18.2181
68.1995
115.725
15.1532
39.6209
5.14222
25.4073
21.2741
66.8282
4.85069
21.5501
0.93274
5.66662
0.499295
4.64799
7.7278
5.48408
35.1969
0.195077
2.9804
115.042
30.439
0.83952
3.79491
28.6641
43.7886
51.15
25.8305
0.351955
3.62634
0.416981
0.488068
5.61115
5.80824
71.483
0.669358
23.5833
31.7649
3.46562
1.90135
17.5077
8.94155
107.393
5.36557
0.286746
0.496703
0.583091
27.635
2.13694
10.4624
0.67562
4.26596
1.19964
0.751808
3.66855
7.24949
5.92278
23.7483
18.8467
1.07565
21.575
3.10846
12.2639
3.74544
0.307815
1.93179
2.40748
3.26365
37.0476
1.94515
22.5717
83.4896
37.4672
57.5338
2.56355
6.36329
3.37421
99.8559
5.72218
3.18136
6.39947
0.31052
0.512992
4.85385
0.823851
53.0185
241.963
16.3449
0.811839
1.0433
1.58273
0.149733
23.8011
4.12895
64.1713
6.74567
34.176
79.0333
0.223467
3.39742
4.02133
71.4686
1.06222
78.5369
3.43891
17.1201
0.860226
6.83199
1.42473
3.39765
9.67163
21.5854
24.2556
5.95788
2.00415
1.34008
0.515202
1.38946
4.02394
60.2493
37.4472
40.1578
37.5653
15.7213
22.907
3.30332
45.6642
1.46638
17.46
1.63028
43.7616
40.4352
73.1402
11.3272
0.838937
3.78425
0.268603
1.45684
6.03499
5.86462
3.42004
3.22459
97.1788
4.83418
2.49156
30.6535
7.87946
30.2079
27.9975
23.3666
36.7373
1.23439
3.37653
6.45823
7.24186
11.8086
0.684849
6.75637
31.6475
0.597072
3.50503
9.0725
1.55647
3.53045
0.778934
0.551141
0.580166
0.218479
4.52513
0.201153
2.59745
2.09644
8.69988
7.5877
0.516188
0.909444
29.2203
36.2901
13.6877
12.6077
1.43285
8.42865
3.35114
78.0991
47.526
27.947
170.46
27.35
89.195
84.923
129.262
36.9595
0.347982
0.469571
0.619533
0.424332
0.465492
7.653
31.8774
77.3245
0.395458
0.246263
3.00865
8.44034
11.4308
68.9812
1.29813
0.23078
55.9954
11.7263
39.494
25.6639
2.64343
4.46881
24.4713
20.3606
106.372
0.331942
13.5704
68.7807
21.4588
41.7325
39.5716
0.262391
1.22461
9.81163
1.36177
0.946685
5.43215
0.711644
5.37737
5.67041
4.33304
1.02629
0.517874
3.66759
241.5
65.1627
0.603348
2.79194
0.766261
3.63592
17.1627
1.73598
19.7955
28.9953
1.16643
63.5419
5.23853
33.0417
104.665
131.247
56.0793
26.9102
1.60324
2.92672
36.6577
7.51039
0.62388
0.251837
78.8679
2.32767
65.561
1.23422
1.23402
10.7096
140.036
28.7487
1.14274
1.16003
32.5224
2.59017
15.01
1.75136
3.69296
7.7319
123.736
0.531475
38.1592
5.73618
0.336529
0.492136
0.383434
11.1189
0.358898
62.8288
2.56237
40.5318
103.946
24.0853
6.8295
95.7015
8.11334
5.18158
196.372
3.53911
14.5144
103.461
5.91533
141.757
6.80162
0.383783
0.515234
40.0575
4.18699
5.06167
0.839631
1.38929
2.79599
18.7695
89.3107
28.5487
10.423
13.4927
107.275
28.8539
27.3185
10.7113
3.03208
13.9383
114.358
29.4723
166.372
10.2223
0.648473
1.10064
1.37123
35.7685
4.55263
55.1603
27.0763
16.2846
6.19769
20.729
33.0152
1.33244
0.468739
4.94953
0.545109
1.88041
11.9338
2.57748
5.21047
8.08315
25.8015
38.1662
70.4664
25.1335
116.867
16.6171
0.841292
1.43197
0.932204
36.9108
0.473829
7.02287
2.67449
3.29124
0.660502
47.6024
63.08
5.56843
9.00719
14.4099
54.9827
1.12959
1.04945
0.646119
23.8838
117.638
4.83318
3.50251
35.7534
64.9818
28.2311
9.65523
5.31982
33.6573
75.2155
28.5759
6.0222
7.41598
0.406883
34.7478
0.214624
26.2377
119.894
10.4316
1.63719
10.3259
10.2872
3.90203
26.6052
0.735202
29.6144
3.14156
0.12078
0.599024
18.0187
79.6431
14.0608
3.22263
2.5493
1.62094
3.94264
1.1907
0.104697
0.77663
1.82675
28.0934
77.5356
27.9254
22.1848
2.95271
133.736
63.2972
11.1507
1.0954
2.24042
4.25094
148.334
73.608
45.8605
1.27815
0.349143
87.6557
7.0117
17.6256
10.8496
116.693
0.209794
114.73
91.6263
24.789
7.83982
48.772
236.057
3.66961
45.9681
0.205488
1.90085
39.599
81.1532
3.74573
0.429391
1.27561
1.84139
1.09908
45.3694
3.59279
10.9355
196.607
7.78381
1.07972
20.5108
29.8634
12.7486
119.137
0.231936
17.4808
0.550567
15.0563
58.7662
3.3292
18.7413
34.4366
7.43353
103.156
0.718067
1.64612
40.0238
191.239
48.821
80.6454
22.2152
120.021
1.26563
26.6969
58.6804
5.24548
115.786
20.6253
113.455
21.8748
9.01429
217.762
42.5991
34.1741
9.89956
0.474713
0.525808
24.2228
1.03468
4.31602
0.835846
28.4614
31.189
3.56779
0.189901
1.59305
14.5272
87.4424
3.22775
0.241196
13.0557
39.3966
29.2244
18.1886
1.17618
111.764
10.3667
2.22426
61.4708
72.3496
0.319895
47.6704
27.1108
75.4901
35.1979
36.2297
10.9856
1.67679
0.69641
0.993501
3.21963
1.29149
7.61501
9.76791
81.0964
37.5995
20.0872
134.388
29.1074
56.2259
7.91033
20.1737
36.1415
1.70252
13.7403
5.7429
65.2422
131.756
96.0195
9.60126
93.554
0.786381
39.9516
42.6363
21.5915
0.607356
1.8757
98.9343
29.5728
5.55562
81.9968
97.0294
1.70258
47.6473
28.5089
77.1631
69.1057
80.1791
1.24419
68.7718
0.266086
5.67144
0.494713
57.1183
31.266
66.4903
1.28537
0.201229
101.488
2.42406
1.07766
14.8799
82.6316
37.5824
64.1289
151.926
61.5943
0.802805
0.882582
46.9441
15.2393
219.409
76.3969
102.857
7.56171
11.6431
104.56
82.8562
0.461087
0.46923
6.66367
0.70319
0.840617
12.8049
99.5559
15.0343
5.13462
38.7969
11.6706
9.49771
70.8827
123.016
68.9745
6.33009
32.9924
1.39573
25.2682
5.13037
22.8223
130.996
99.1084
40.5583
81.0671
252.144
125.122
2.57956
0.417108
151.586
80.7714
1.22827
10.1292
0.752078
1.45249
48.422
124.504
64.2584
24.8918
1.48036
86.5524
0.314042
4.9004
0.525132
5.4665
0.275175
61.8635
132.203
24.5311
8.36722
114.354
0.222155
1.15169
73.5835
46.6432
54.585
4.89413
9.47408
92.4036
81.8301
2.28683
4.89987
8.98214
27.0552
4.30952
11.2503
79.8175
31.2537
34.8052
29.2871
46.5954
23.2937
26.6522
0.200273
2.61504
46.2149
1.93316
13.9622
180.32
10.3437
80.5759
79.9307
0.886111
0.290028
0.467375
6.2001
59.0527
70.7417
68.7118
1.21551
10.4336
5.83677
8.48129
11.1692
8.19738
6.13195
6.03862
6.22902
5.69382
0.418655
0.216071
0.920617
117.478
49.9836
3.62374
75.8478
174.503
109.051
123.868
47.0501
1.69197
40.8444
11.7273
1.85645
65.9092
154.925
5.65812
2.32508
0.750432
39.9419
25.8736
85.6875
4.57152
1.73575
37.3883
13.3629
1.04596
1.31634
0.318218
0.763625
8.56801
105.162
12.199
6.07242
97.0081
43.4053
78.1074
72.1877
8.25561
63.7287
1.40625
16.5492
39.3272
32.1571
29.6963
0.450676
0.458614
43.821
1.03114
59.2298
1.51305
92.852
31.1693
37.0804
1.88469
40.4005
1.99244
46.6122
35.0899
27.8257
31.883
30.0663
45.1677
49.1463
0.836318
31.7214
35.1292
0.778792
11.3889
0.703683
2.53135
5.09903
17.2422
32.3123
8.47729
14.3301
152.945
0.639557
8.04673
0.560584
0.913778
146.488
76.0498
5.27784
0.426697
0.454473
13.0881
0.185867
0.39239
5.64287
0.536644
0.482302
6.71536
0.694856
44.333
1.28193
1.30313
27.6157
52.5501
7.45298
29.9679
9.15394
7.3538
34.2784
79.6411
34.7907
0.631936
33.8849
113.174
71.0053
43.7269
10.8026
1.43956
0.172486
0.704096
53.4734
135.756
26.3818
4.36058
12.1027
8.44203
5.80546
5.43062
37.7156
43.4332
0.743585
59.5018
0.136254
8.58363
116.041
46.7774
71.6434
34.7069
10.1959
90.4126
38.872
36.6964
6.11689
1.26762
3.37913
4.00067
7.00222
15.7324
0.674098
27.4681
28.1409
109.813
22.7243
20.3811
1.35107
1.05936
4.37277
89.0228
38.5449
37.7141
3.07049
97.4395
6.59404
3.8648
39.0115
0.822333
1.698
24.3993
61.7124
78.7658
36.0725
29.1849
50.1015
24.6816
3.1899
1.04002
0.53042
6.18556
2.55668
434.805
105.672
2.96074
104.968
43.8573
4.63131
0.412669
9.39309
0.610514
3.79507
0.830919
43.1362
28.5291
40.3972
52.7192
32.0327
0.269469
0.944038
2.91485
1.62057
19.7474
46.7175
286.36
15.2535
11.0477
0.125639
3.75175
113.239
60.4301
14.031
26.6541
0.927942
12.1953
5.66726
1.20165
32.103
65.602
0.535897
8.36379
0.49878
9.22397
22.4855
4.01335
61.1788
3.9752
131.635
13.1269
64.0916
98.7276
1.03288
1.45729
2.89115
18.5538
0.813622
5.16663
4.8416
37.8395
55.9121
73.7422
2.57703
4.46638
53.6673
1.36132
14.8945
13.226
35.1121
62.8663
87.1166
0.37473
7.77549
0.442938
35.4204
11.5587
173.48
38.5897
2.09954
50.3296
127.926
62.5631
56.0309
2.63431
76.5559
54.331
25.3365
1.47344
0.47088
34.972
1.89568
3.02943
16.8151
5.75294
46.3454
259.456
137.049
6.96586
83.3547
1.35248
12.8028
17.4875
4.01299
84.8559
36.7427
0.227046
0.74939
0.842321
1.31708
14.5336
9.05071
95.4644
34.8994
0.80705
143.947
4.43944
31.4144
95.4919
53.2188
34.0877
22.8689
6.78747
82.0249
0.865083
1.09766
5.4314
0.275456
4.20878
15.0589
60.6692
0.227654
30.2794
0.47452
2.04779
4.4434
43.3187
7.45241
9.03987
92.3569
51.1891
37.9135
10.4195
1.47268
0.956392
12.0369
110.616
10.673
178.044
0.227821
1.36936
50.4078
41.6604
0.817342
31.3263
84.7377
1.4142
16.8406
53.0388
24.5125
75.0422
70.6801
10.6087
15.9755
0.853161
30.0977
85.7201
17.5922
123.434
29.3359
3.95233
11.0625
25.7645
15.2858
20.4327
82.3819
3.64101
25.4999
7.94332
0.731551
0.752403
36.6848
0.411448
0.928385
13.2932
12.4984
17.3746
24.7944
48.0027
108.998
98.2976
59.3083
1.65577
0.763293
4.30914
0.528057
5.26366
23.0791
9.87628
4.66727
4.57774
85.4231
6.41052
3.83891
3.40286
31.4849
75.8646
0.268833
3.56407
3.30124
0.516107
58.2105
32.583
1.31894
2.51081
51.6701
95.1655
25.6372
1.14406
1.06204
1.58704
0.420372
7.87605
0.693967
0.921806
33.5939
1.21658
0.909213
35.5996
57.9239
0.779069
32.7274
0.82395
65.7795
4.54405
93.4819
2.57699
0.370837
5.55427
58.4332
81.9701
97.0256
21.6312
45.6069
21.6985
3.80629
43.374
19.1194
13.9017
1.22338
3.30847
0.209538
76.5242
11.8319
24.4502
0.816495
40.3842
33.3647
67.4045
14.1363
347.433
13.1263
2.3935
0.787965
0.603668
6.1859
0.813864
1.4337
9.88193
1.1723
5.01154
0.776567
0.619792
5.96768
0.722251
5.56825
22.7899
47.2024
101.764
2.79752
1.39712
0.732181
2.41033
63.0062
10.6924
18.6862
6.01442
98.2994
132.503
88.206
5.08115
9.81281
0.988318
1.50887
0.589012
29.5205
10.1493
41.1741
0.720075
105.434
273.984
146.439
0.783703
41.2014
30.7332
42.5967
0.708864
1.17953
4.61369
34.623
1.18633
30.0232
52.1568
0.543626
0.236944
106.038
116.771
3.2485
19.4997
35.845
9.6584
56.256
10.4637
0.798957
11.3192
90.0947
135.384
7.56384
95.8433