/*--------------------------------*- C++ -*----------------------------------*\
| =========                 |                                                 |
| \\      /  F ield         | OpenFOAM: The Open Source CFD Toolbox           |
|  \\    /   O peration     | Version:  v1912                                 |
|   \\  /    A nd           | Website:  www.openfoam.com                      |
|    \\/     M anipulation  |                                                 |
\*---------------------------------------------------------------------------*/
FoamFile
{
    version     2.0;
    format      ascii;
    class       volScalarField;
    location    "0.44";
    object      p;
}
// * * * * * * * * * * * * * * * * * * * * * * * * * * * * * * * * * * * * * //

dimensions      [0 2 -2 0 0 0 0];


internalField   nonuniform List<scalar> 
5794
(
86.7817
84.9587
85.99
88.2818
90.6345
85.3173
81.7066
82.3034
85.216
86.6181
119.694
80.3083
79.8673
77.8393
82.5745
84.2279
36.6036
80.8378
82.9114
85.2346
84.1523
85.8845
82.4067
83.5379
84.2424
41.9431
42.9548
81.8196
89.2409
83.3059
84.1175
74.6796
101.031
83.5577
82.4777
79.3979
92.4091
80.7213
81.3869
86.0337
85.5341
84.6047
111.211
87.6155
82.4826
102.286
75.8706
82.6624
85.0268
87.8983
84.8487
79.9302
80.9295
84.9135
85.933
104.61
76.7137
81.7126
111.371
37.0787
98.2384
85.7199
83.4757
74.7665
100.564
85.3063
86.8079
86.1827
81.6855
85.6999
79.0031
87.0869
18.9067
86.3964
81.1765
81.9648
86.1181
48.0079
87.4923
85.1654
85.9055
85.3466
85.3925
81.4625
80.3433
83.0769
72.5415
106.768
83.7374
87.6732
109.271
76.0151
83.5973
90.2794
79.7132
78.7496
105.244
84.1646
75.9295
99.1752
73.3756
74.4743
111.396
79.1476
80.6306
83.83
85.6676
120.917
78.1076
87.38
81.2636
82.0312
65.3388
84.9894
79.0635
88.4927
83.2725
83.9962
97.3562
84.1849
83.9761
85.0526
82.0153
82.0843
82.0242
117.92
75.4108
85.0224
81.9275
119.507
79.3046
86.8288
73.948
51.8691
84.9297
82.3915
111.239
85.7657
84.777
78.4927
85.7026
82.2431
81.2818
81.4063
84.7452
51.9991
82.6382
109.019
91.6329
81.7999
115.812
85.2497
84.4603
79.5657
46.5003
74.9449
84.1679
84.2922
101.856
80.6693
82.5607
83.8769
81.4267
79.0141
78.1523
79.9794
80.6092
83.436
80.405
82.5269
82.9435
79.4045
80.831
81.4985
84.7736
80.3763
82.8789
83.7608
83.0004
81.7402
78.1732
75.5426
82.4352
102.939
88.8235
45.7219
74.5131
101.926
85.9282
74.4793
119.466
74.8919
101.031
84.4747
85.9045
80.3162
83.3814
80.4244
82.6517
109.729
79.9967
79.0316
83.6857
87.2294
75.617
101.899
79.6798
121.226
86.5185
84.7136
87.0651
91.4142
78.744
83.5237
83.5781
83.7257
80.3133
73.7259
120.086
93.8107
91.525
80.9424
108.275
82.6122
105.869
38.4176
85.1029
86.862
87.462
82.8926
81.6227
80.254
84.5334
78.7294
79.4225
49.4004
67.0188
114.024
83.4456
86.4999
84.9595
121.466
87.4244
80.1959
79.5565
81.5821
81.5105
92.6865
106.32
84.5471
75.6999
85.2059
42.9941
85.3935
114.014
86.332
110.424
110.037
121.299
82.3683
111.722
79.2091
83.3914
85.8235
87.2601
77.6779
81.852
117.495
82.528
101.335
75.3349
84.1853
84.6394
78.41
92.8987
82.9202
84.6868
84.7041
85.7556
82.411
80.0463
100.781
85.1907
84.6294
86.0283
83.1291
76.283
79.2363
86.306
84.9615
80.3174
82.0249
84.0766
84.7116
106.967
54.3413
83.7359
84.7301
83.2212
85.6641
85.3007
72.8924
85.8378
86.1944
87.1195
115.97
85.798
80.3456
100.659
75.1741
84.5083
101.405
87.3775
85.2279
92.2985
94.4001
120.879
81.5086
78.0114
90.6804
81.7167
83.927
83.4321
92.0783
84.2515
78.2969
85.2074
80.7193
81.9672
119.949
79.7971
112.454
84.2175
101.459
74.6013
86.4557
87.1846
80.5915
85.2826
102.19
83.4148
84.2074
83.9159
82.0657
83.1207
82.4436
105.089
76.0055
80.7847
80.3585
81.5786
53.2442
101.51
75.1907
83.3935
41.6703
81.7185
81.1421
80.4858
82.7305
121.117
79.9388
112.327
80.0243
82.427
89.4254
79.0221
103.129
76.2196
82.24
85.5205
85.5687
88.7344
84.4049
120.831
78.0833
105.03
76.8484
82.572
85.7542
85.9752
85.5092
92.7249
79.1045
83.1559
82.9522
89.0249
80.0658
82.4135
81.7369
83.2334
85.2118
85.6366
79.3126
81.393
80.2821
84.8623
87.9948
82.3127
81.2091
83.4062
83.8817
48.1256
81.9567
81.9977
115.355
86.1921
85.5836
85.5803
106.12
82.62
73.9786
118.996
79.6004
101.573
75.4381
84.2401
83.3668
78.3368
105.502
75.6114
84.068
120.458
85.4268
79.5449
83.297
83.7362
84.8396
85.2512
86.083
79.4044
92.715
81.4414
67.115
82.0457
83.3569
80.2139
86.2109
79.0729
83.4113
82.0754
92.3284
88.6881
78.8417
83.8178
88.5121
78.9312
84.8331
86.7645
85.9311
86.792
85.212
72.8517
85.8835
84.0397
85.9482
103.735
82.2777
78.9346
90.7195
85.8861
85.3158
81.8507
80.2495
100.141
119.373
47.0572
87.6433
119.209
87.253
85.9207
77.4374
118.991
86.8306
84.8689
103.068
59.8514
81.9007
86.7204
85.2768
82.9379
85.8352
86.6285
87.2436
120.85
119.217
91.1283
84.4742
53.1328
85.8818
85.2628
84.8628
82.7565
93.2572
84.3774
79.2488
83.0924
85.1757
84.7915
114.761
90.5848
59.1254
94.5863
77.7901
81.3551
85.2998
85.9117
108.979
118.985
85.046
77.9425
85.8301
85.8915
85.8783
85.7083
78.1441
86.5077
85.8011
91.2854
48.9407
85.7544
85.4855
90.4952
84.947
119.149
84.8257
86.826
92.2777
85.3596
85.8626
84.0377
85.6869
46.5187
84.6604
87.9863
84.0614
92.4381
109.275
119.208
111.062
85.9487
67.4841
85.1742
76.3337
85.5792
84.3674
92.9463
81.7496
85.4157
84.9954
79.858
85.6802
82.8345
87.0664
84.8951
81.2592
83.784
85.8929
85.41
85.095
22.1164
83.1912
116.703
85.1925
76.6284
86.6132
84.3086
86.4586
84.9684
85.1864
101.068
79.805
81.4785
77.6246
51.5247
89.7079
89.5766
84.9353
84.8206
84.887
86.256
78.3012
119.084
48.6055
81.5201
104.02
84.789
83.9979
75.5968
104.884
85.0145
84.909
85.7403
86.7002
78.0293
97.4241
85.8191
91.981
84.9938
83.7886
85.0829
101.925
78.8608
88.5046
85.8552
118.935
56.0533
87.1178
85.9133
84.606
84.0234
84.2769
79.3534
85.4911
78.2186
88.5632
114.34
119.767
108.691
84.4625
85.6076
118.919
118.32
121.045
85.7192
84.8495
84.1566
87.9761
122.29
84.9299
86.5231
85.0644
85.4765
85.5435
85.5536
86.8867
60.0733
92.0488
87.7534
81.1898
86.3715
111.864
120.312
76.089
110.366
88.8608
79.3492
100.193
84.7498
85.8262
84.8835
86.8642
84.7169
88.5587
79.26
115.122
48.5298
83.0508
34.3954
84.4785
85.9029
86.4778
85.8071
84.7933
85.2369
79.4567
88.3295
83.0748
76.8028
100.861
114.09
87.6657
40.5318
87.3408
79.2405
78.8304
88.3751
84.2237
79.0726
86.6894
84.8127
121.521
85.2281
84.7437
83.7508
109.894
93.7012
84.8573
85.6816
85.7437
86.7084
97.2593
62.4938
80.1228
84.8631
91.315
121.009
85.1793
85.7353
91.4381
84.6275
82.037
85.4019
110.19
85.7333
112.932
76.0537
87.1938
84.5734
120.866
111.492
91.5312
79.0382
84.7091
118.949
90.266
94.0033
44.0974
117.183
87.2039
121.219
61.1568
109.776
84.0241
88.9154
87.4833
108.483
92.9771
120.741
95.5138
79.697
61.2248
95.3103
115.546
84.7841
86.245
31.0713
119.01
76.085
83.7693
106.67
85.7743
85.4405
83.3558
86.7589
84.6275
76.1512
102.955
83.2916
92.327
84.857
86.8995
84.585
85.9336
78.9089
88.0498
93.7641
91.4927
79.7186
103.28
86.0154
69.4187
85.0474
79.5865
89.053
84.7692
77.5781
107.489
87.4933
83.8238
75.6121
105.889
87.2236
84.7911
87.4925
85.8486
84.8296
86.7675
84.2461
85.0743
120.873
46.9371
82.535
85.9204
85.377
86.0798
77.4987
121.067
86.3818
78.3044
84.8625
115.442
104.515
74.9352
82.4578
77.6712
85.1843
64.4793
85.9221
56.9709
90.5057
120.966
85.3804
84.7382
84.8118
85.0268
120.443
121.864
114.054
101.631
81.1461
85.3391
86.9231
101.831
92.8161
79.274
79.1211
102.221
120.863
85.504
85.8218
84.6139
107.816
48.081
85.1365
93.2175
85.376
86.9502
85.6635
75.8726
84.2533
104.198
91.9567
84.6215
83.689
87.0363
84.2802
39.3537
86.5932
85.0085
82.7305
85.6444
118.976
84.6738
93.8286
85.8782
85.7373
99.8274
92.1047
77.3083
78.6848
88.2135
79.0146
88.2848
117.188
117.44
49.399
86.4739
85.8005
85.8304
100.108
84.4322
87.0964
87.4566
99.0596
80.1036
65.5939
118.955
84.0879
80.6473
84.7204
91.6881
116.499
85.2815
56.8194
85.56
85.1803
55.6254
102.934
91.4228
79.7788
80.9759
119.803
110.016
85.4948
84.8951
79.0507
117.943
87.281
92.2897
117.385
85.687
79.3248
89.0787
86.672
94.1697
90.4166
86.0099
85.2823
87.0428
85.047
85.8782
85.5723
85.5003
114.946
85.6835
92.1341
84.8839
86.5175
87.2335
84.522
89.3342
118.995
119.16
54.5035
78.1713
86.2766
92.446
85.0385
50.2955
100.296
72.1113
112.373
84.8294
76.3203
79.6033
84.9183
88.5823
101.783
87.3233
87.5209
88.1373
84.675
85.9
111.802
81.0334
83.0188
106.197
75.2407
84.0106
81.7487
106.901
85.5639
85.6723
90.2083
85.291
84.6081
120.505
104.56
92.365
83.8152
67.7416
85.2675
85.8753
82.4464
44.782
92.6276
87.7512
96.6525
91.2362
85.0668
89.152
85.7647
88.6515
78.6089
85.6282
85.6635
84.9054
84.949
85.0601
85.6358
85.8417
92.1257
81.1005
93.0066
85.8051
84.9194
104.742
92.5679
81.4203
84.851
82.3154
85.3847
119.861
94.766
85.8609
86.0268
84.8138
118.902
85.9312
92.2742
85.1445
84.8567
92.3117
62.7515
91.6126
86.7983
97.5815
85.7124
92.9334
86.5382
81.1355
105.797
63.405
80.0432
98.5558
84.8813
86.9857
84.9262
84.6079
97.4541
102.391
52.0504
78.73
78.0579
85.4467
78.6656
83.9529
75.9028
100.371
109.389
85.7144
85.8549
85.303
83.8924
92.5993
81.2606
90.7354
84.7322
92.0484
92.723
93.7639
81.1451
84.9076
86.7096
89.8427
80.8659
118.994
85.7174
92.2765
75.518
85.723
87.0093
84.1069
85.0676
120.784
85.7516
121.16
85.6303
94.2348
120.906
85.8267
88.9052
105.171
85.0058
84.4367
86.1835
85.7573
86.4146
82.0725
85.8518
85.3665
81.7139
85.8861
85.147
91.5542
85.8682
85.9276
84.1073
82.1281
80.161
93.4731
100.689
98.5058
87.5793
78.3696
85.9505
85.8102
86.2066
84.5126
85.3509
84.1452
85.9492
112.636
85.9485
91.7053
85.5994
118.813
85.6787
78.7646
87.1255
85.0986
93.2947
84.8563
84.7656
85.4512
81.2762
92.0614
92.6285
85.1665
93.1025
85.3669
85.0139
81.757
85.3443
85.9177
86.7883
83.736
119.906
82.6916
56.4045
85.8252
85.7847
85.3973
92.2793
80.3527
96.5261
83.6542
87.3514
91.2781
98.9172
84.3536
79.674
85.565
84.2046
86.3486
84.5341
90.958
92.4907
91.1713
91.1446
115.71
108.914
89.4952
97.4344
96.4002
85.1583
76.6372
87.8077
85.7646
30.0817
92.8679
85.7945
83.6883
118.965
119.19
89.3732
84.7823
86.7879
84.8272
86.6619
85.3766
87.0864
84.2955
85.5612
84.7219
85.6842
84.6601
84.9965
84.4132
85.1172
86.8096
89.3566
85.2401
81.0031
85.8648
85.2687
87.1738
78.9344
98.4662
99.4777
93.5475
90.131
92.276
98.3178
83.5802
85.7148
81.3573
100.046
95.1585
85.2408
86.182
111.606
79.2087
113.633
82.0213
83.0932
98.1093
85.6584
111.898
101.472
77.9863
87.3585
92.2717
107.462
85.8288
81.2768
85.5657
55.6419
85.8229
85.7732
83.9931
85.6181
85.5066
95.229
86.0667
112.031
84.8872
86.9251
97.6433
81.913
75.9242
85.7619
85.8462
77.4082
88.4651
118.778
120.13
85.7887
92.4243
85.2356
81.1875
82.4347
74.9564
100.748
121.63
111.142
93.0149
87.0545
85.0313
81.1442
84.0501
92.3049
83.7801
87.3736
86.7943
85.8347
82.3229
74.8921
78.2454
54.9344
84.8933
84.8029
110.567
93.22
80.5485
85.8605
91.7197
85.5901
84.8019
86.1154
84.7668
85.792
85.2473
81.7716
85.7062
81.3353
85.7273
84.8652
86.0102
88.1299
70.6997
83.6493
114.671
91.6241
83.8052
84.4908
79.5574
106.048
75.4794
83.4968
85.4242
89.3748
120.333
48.8165
85.5748
84.5709
85.8152
77.6659
84.9683
85.1976
86.7609
84.5671
84.5413
85.9885
84.9248
85.5056
80.7949
84.8421
85.5767
92.2247
85.6849
85.1363
85.2727
106.327
92.943
120.136
119.609
77.6316
85.8693
89.128
84.5298
120.946
85.8687
87.6231
77.2075
85.6889
81.5322
84.9337
83.8637
85.5075
84.0211
85.8917
78.4897
83.418
36.2224
84.4381
32.6717
48.217
85.7213
92.0549
85.8922
85.1204
84.5018
86.0639
84.063
85.6478
84.4901
74.7117
100.479
99.8147
82.2751
78.7063
86.2705
75.3677
89.2462
84.973
84.9133
120.144
84.0148
86.6894
85.8513
84.9633
84.7977
109.056
84.7253
85.0856
80.6392
77.3402
88.2213
87.6546
84.97
85.8685
92.3251
85.5579
125.707
119.754
85.6201
36.2132
120.485
81.0823
82.6421
84.7889
97.8388
85.8013
84.8904
85.5679
84.7771
10.0335
92.8431
82.4121
72.7537
107.113
53.649
110.342
86.3318
85.6839
84.5825
85.7904
84.9662
84.6971
84.8272
84.8637
86.0021
84.9456
84.7772
85.454
84.5473
85.8237
84.5058
84.9824
84.4737
84.9831
84.4786
84.6591
86.5116
85.6251
84.6887
84.9151
84.6645
84.581
85.2538
85.2027
84.7995
85.8621
84.2782
84.9075
84.5922
85.6043
84.8583
85.7554
84.7257
85.9035
84.5194
84.7932
85.6344
84.8999
84.5771
83.8423
79.9966
78.4702
52.6371
84.9347
84.7351
98.5795
89.6631
84.6597
85.7939
85.8145
91.5151
85.794
85.269
84.456
48.7458
85.607
87.9064
85.9176
85.8252
85.8617
84.897
84.9885
84.9396
84.9017
84.8882
86.0123
85.0125
84.7833
119.088
85.7574
85.4401
82.8635
88.3566
44.8296
85.146
82.4195
82.9909
101.488
81.9665
85.8141
84.6671
77.5964
115.311
84.3398
85.8875
85.5202
79.7593
91.328
90.4162
10.842
84.5678
86.7916
84.4821
79.873
81.5557
83.6727
134.882
79.0669
84.6168
84.879
85.3838
85.2517
85.8307
85.3128
84.9671
84.7636
85.8187
84.8052
83.9732
84.5953
84.9343
83.8754
85.3732
84.683
86.0375
84.5393
84.5353
85.717
85.6202
86.1223
84.7081
96.956
85.6716
121.445
104.446
85.4409
91.2679
78.5389
85.7384
115.255
83.9536
88.0801
124.834
80.7787
85.5838
84.4539
80.6877
113.545
86.8764
71.4498
89.1529
81.6745
85.8073
81.064
95.0164
83.3746
81.5487
94.8503
90.5261
84.2995
85.4344
84.6552
81.2281
83.7711
78.8404
81.2444
84.7002
88.6215
86.0055
88.7505
84.6431
85.019
85.9678
84.203
84.8152
84.7672
84.0658
84.163
89.6442
92.5033
82.0555
84.2038
84.7567
86.1064
79.9421
85.9283
92.4014
103.179
83.2322
117.955
85.0027
85.5207
81.0494
85.7367
80.8487
92.492
84.3248
84.7947
84.5186
85.5506
85.3668
77.9858
84.997
84.909
85.2174
88.1346
90.9574
89.1353
89.4547
92.9457
84.93
80.6759
82.5404
79.9512
80.6011
82.3059
84.1137
87.7256
85.876
83.5233
84.5055
79.2758
111.799
77.8344
87.4555
82.3123
84.746
85.2319
84.5755
84.0242
85.8864
77.9459
80.6218
109.609
82.8318
89.5612
82.1359
84.9954
114.528
113.929
88.5571
82.5454
82.9308
96.2782
80.6645
104.185
91.3807
137.252
84.7648
83.6192
101.089
110.856
78.4257
79.7093
85.349
125.079
81.2218
104.988
76.8433
127.403
81.7153
83.0871
28.6553
85.9178
86.4946
84.5564
84.2723
85.6106
83.8188
92.4138
84.6261
84.9759
84.0105
83.2004
83.6679
89.0252
88.2936
83.459
88.4929
83.9964
83.9698
83.0638
82.7954
87.7522
86.2379
82.8975
87.2217
82.7708
82.7673
82.5135
83.5504
83.2913
79.0003
45.5049
86.7631
77.8386
76.6222
87.7002
84.2198
82.5516
84.1557
85.5176
84.5415
84.5004
83.8834
87.8634
85.1174
86.8802
86.2143
76.6838
87.5339
76.3632
85.9356
86.1617
86.5129
116.551
85.9494
86.1236
83.9532
86.4989
84.7423
86.3976
84.6064
86.7825
83.9265
84.8412
85.8374
87.4254
76.9749
87.7351
77.0829
83.2661
104.188
83.1624
73.6317
74.3437
80.5865
101.966
78.3543
83.287
103.956
102.401
74.001
79.4727
79.5461
82.2237
77.93
100.609
106.378
83.321
81.35
104.187
77.9817
103.155
82.4364
82.8687
82.2309
74.8112
82.5737
51.5174
83.1362
80.048
83.4562
83.2075
74.5822
79.4621
82.163
102.154
100.709
78.996
51.562
77.52
82.1682
77.7171
83.2941
83.4787
78.5692
80.6692
103.889
83.2438
51.0848
78.677
83.3253
80.7798
77.6438
48.1322
81.8603
141.615
78.3083
86.5269
78.9748
82.9889
81.4788
82.4638
100.624
75.0375
78.5433
47.2255
46.5188
86.4929
86.1285
85.1281
88.0519
85.5995
82.8044
78.6372
82.0891
84.6016
83.8417
84.9793
119.636
86.4358
86.4496
85.9531
87.5412
85.8162
84.0089
85.1314
84.5533
86.6081
76.624
85.0897
84.5739
83.4488
79.7602
82.8611
80.9859
86.4568
85.7051
85.7212
84.3973
84.7638
86.3011
86.3443
84.9339
85.7848
84.8407
81.7501
75.0707
100.8
85.1382
87.3267
77.1834
85.7239
84.0758
84.5442
86.525
84.5905
84.7225
84.6518
86.166
85.7586
85.228
46.3741
84.0651
85.1867
84.5592
83.8813
85.6668
86.1012
83.45
83.8183
84.6024
84.1658
84.6911
84.6486
85.7496
85.9986
83.9348
86.0466
84.1282
84.6413
83.9218
83.8672
85.8183
85.9834
86.0747
80.1994
84.0463
84.9175
84.5655
85.8683
77.4117
84.9267
84.8386
83.4376
84.8407
83.3197
75.2039
81.1757
100.872
87.4896
76.7844
84.9055
84.2104
84.1153
119.886
81.2372
79.3787
82.3502
83.9641
86.63
83.303
83.5977
80.4565
83.8816
80.5353
83.7049
44.9224
111.903
83.9291
84.3382
84.0366
80.0224
83.2948
85.193
84.5883
120.119
80.3248
81.8391
83.8542
81.1863
83.389
85.4283
84.3755
101.852
75.6572
80.6966
120.357
82.2588
81.8571
81.6174
83.6254
42.9466
111.784
84.0781
81.7573
84.3671
83.6405
80.1338
79.6177
81.7802
79.0455
82.6355
81.9018
83.4956
85.5233
84.3116
80.0282
83.6605
81.6225
120.184
82.9411
84.4464
42.5341
46.737
84.3926
111.76
87.0924
78.2488
83.7026
83.4405
80.2324
80.583
79.067
80.1933
81.624
81.3186
76.3028
104.15
81.0098
109.08
81.7311
81.8416
81.2236
85.1505
85.1886
85.1418
83.5009
83.666
86.0129
84.2965
81.766
83.4586
81.7814
80.8256
81.454
83.8309
85.5337
84.1915
75.5193
104.022
81.4688
120.378
85.7257
85.4385
86.7392
82.4051
82.2645
86.0998
86.0711
84.676
44.8753
83.8294
95.9381
88.4333
90.5556
111.708
92.1574
83.8589
84.1148
83.2617
84.1689
83.661
86.2273
74.2058
91.5027
80.5509
79.1827
96.7337
86.6779
84.639
86.1476
86.1942
86.3017
86.4682
84.7088
84.7918
81.5383
84.3597
85.5595
84.2319
80.8611
83.8859
86.8023
83.8345
91.375
91.8816
114.844
83.9718
89.9591
83.6212
82.565
86.2604
84.7988
40.9595
83.5347
84.0596
84.9853
92.1484
93.4684
84.142
85.8606
92.4413
88.2963
78.8908
79.5306
79.5826
85.3609
92.5068
84.1899
84.1033
84.3466
84.69
84.7567
87.5083
86.0725
84.3451
82.7979
85.2826
88.7516
85.1782
85.5166
81.1688
84.6328
121.16
84.1146
83.8781
80.5189
88.1024
86.9471
87.3122
82.4823
81.7768
86.0587
86.6071
86.5323
86.2378
84.4872
84.164
85.5159
84.1747
83.9494
84.0853
84.0185
76.279
106.144
81.9334
82.0007
84.5829
86.23
84.7005
86.2804
85.5214
84.6539
85.349
84.6708
86.4145
93.6113
87.7963
84.9745
92.3473
84.8685
114.295
84.7639
84.67
86.2678
120.519
87.6372
84.5206
82.1706
84.7812
80.8477
86.1803
83.5867
84.8224
84.8101
86.0928
86.5332
85.1016
85.9648
85.4841
84.5382
119.335
83.5805
86.0456
90.8355
84.3996
78.7951
84.2079
84.1627
85.2485
87.2831
89.6609
81.1133
84.0364
84.6754
84.7468
88.0068
85.1399
86.1901
86.3736
84.7512
83.5052
85.8588
85.5025
111.67
112.489
84.9042
86.4708
84.676
86.1533
112.052
84.6096
86.141
84.7559
86.1406
113.138
86.395
84.64
78.8207
80.3741
86.0733
85.7049
80.7171
84.3405
86.116
82.2085
84.527
91.3202
86.6111
91.0079
120.218
86.0275
84.007
83.9318
85.7814
84.158
85.7293
84.5777
89.5251
84.6421
86.2702
85.9412
84.3336
83.9342
92.2209
87.8099
81.0325
79.7652
85.2665
84.5903
86.1763
84.6732
85.4953
84.3016
84.919
69.8266
83.9781
86.3126
85.2247
90.2791
86.3526
79.2315
90.1789
80.8891
82.0876
82.1433
86.6042
91.5665
86.1252
84.7026
85.0774
85.2028
84.306
83.5159
98.5124
81.9962
123.263
83.8535
83.7667
83.407
80.4058
85.3826
80.1173
86.666
82.7619
85.9746
114.973
75.3763
105.556
82.8883
84.4231
84.7219
87.3243
84.0584
86.8062
102.272
84.5023
90.5557
96.2327
102.935
81.9616
90.5921
85.6792
86.567
84.753
84.9747
120.639
75.0994
86.7046
83.8989
87.9817
50.588
83.8061
85.9038
82.9986
85.2227
84.8194
86.2217
78.8726
84.9979
85.1193
85.7842
85.401
84.4504
84.3927
82.4166
84.6744
88.5349
43.456
88.187
84.6438
106.899
89.1836
79.1742
80.8868
35.2595
97.5981
84.7402
80.9254
89.9248
84.0837
120.039
86.1402
86.5341
85.4788
127.724
87.2598
83.5861
82.106
85.4129
86.089
85.8459
82.8884
84.2901
87.2787
84.7138
86.2192
113.15
87.0574
84.8014
85.78
85.2965
89.8254
84.7822
84.2477
84.7871
84.8005
86.8192
131.741
80.8676
85.8148
85.8499
87.0686
88.8138
85.6771
119.002
84.1128
86.5174
84.0323
84.8334
61.9202
119.562
84.4137
84.2313
82.5541
80.8869
94.6342
81.1568
83.5701
87.5254
92.2838
87.4614
85.2116
77.8356
85.6983
86.4314
96.9001
85.5562
86.5383
85.2287
83.3758
84.6761
86.3116
90.1098
85.3909
85.9396
85.4974
83.7641
84.1943
76.6936
90.6271
85.2703
84.1391
82.4866
87.704
85.6502
85.3855
95.6355
83.8718
88.9292
84.5563
84.1429
84.0831
80.7418
89.2599
91.279
92.4564
86.4818
85.4628
84.279
66.3642
88.5637
84.8761
84.1154
87.8243
108.49
85.1074
87.6876
85.7044
96.506
74.9217
83.7527
83.6673
85.5063
85.406
80.5039
107.195
80.5849
85.5392
85.3688
86.9856
85.3713
84.7618
79.6146
89.6106
83.5054
77.2677
105.942
84.2545
81.4992
80.7995
84.4242
85.4513
84.2578
78.917
84.9834
86.1472
91.5389
85.0213
82.2952
86.2641
84.6488
86.1717
81.8481
87.6467
89.1897
84.2091
81.6559
91.7868
83.3421
85.0408
84.615
85.4396
84.4685
127.851
103.908
86.2741
86.0875
97.0514
104.892
105.313
81.9735
81.5393
84.4767
87.8475
84.8126
83.5579
90.5015
119.714
85.8122
83.7003
81.0634
75.4678
102.571
85.059
84.7659
81.5658
88.0161
84.5077
85.8607
84.6834
88.1115
49.008
60.8503
84.9493
86.5719
88.1393
85.8262
81.2342
80.3665
95.4856
81.1707
111.827
86.0686
84.7613
85.8038
84.1175
84.4599
85.8535
86.1981
86.1769
84.489
95.3898
84.8479
84.5924
82.6105
119.003
85.768
84.3865
73.9328
77.2772
119.163
120.085
84.7822
86.5251
85.5132
84.9495
82.4717
85.8456
18.9917
85.1661
114.673
77.0961
84.1444
85.6938
85.8289
117.855
86.1642
83.7887
85.4265
84.5076
83.9854
110.654
76.8287
87.9406
85.8382
86.6554
85.9516
84.9412
84.8924
85.9484
92.1653
119.333
99.5798
83.7925
80.8393
84.6694
86.2142
86.2945
84.216
84.7769
86.7616
84.5711
81.0409
85.215
82.4329
77.9085
113.018
81.1054
84.4154
92.1529
85.1017
43.4263
86.1376
84.6629
84.3601
85.4082
84.456
99.9759
84.8236
85.5982
86.3702
86.8305
84.7209
85.4145
84.7077
84.9177
89.0767
85.3538
88.0907
82.6383
80.0761
89.4122
84.3091
86.4823
86.3669
85.0348
84.7843
92.1848
84.7517
86.2984
84.7936
92.1925
86.0466
84.9751
85.9839
113.016
114.769
86.0297
85.4853
84.6672
84.7125
83.9073
86.5662
92.1403
87.369
81.5837
80.4315
97.1798
80.7752
86.5195
86.3385
84.5025
85.0153
83.9353
74.5895
81.6312
85.9841
106.536
84.8422
86.3072
84.2524
85.7375
85.396
78.8266
85.4381
84.6604
87.5259
84.9358
84.1435
72.0918
94.923
89.2713
85.7819
80.8939
86.385
84.3571
84.7742
86.0696
92.4948
91.7891
83.9604
85.6628
81.586
85.9682
84.831
86.0328
85.7266
86.6723
84.9651
85.7258
85.1648
85.8722
82.8143
84.4383
86.6549
86.6995
92.75
84.6279
85.5416
85.1086
82.3724
81.0492
87.5578
86.2471
84.1106
86.1178
84.707
89.1701
119.527
78.3152
38.4519
88.6658
80.5023
87.9944
89.0348
85.8602
85.4624
84.796
84.9447
85.539
84.981
92.374
86.9261
111.025
85.9003
84.3658
86.6063
86.7346
111.491
81.087
85.8052
84.944
90.1164
110.707
82.2994
82.8413
84.5928
80.8149
120.97
91.5617
87.7743
85.0453
102.505
78.9393
86.9488
86.3233
80.0367
84.6816
86.4966
82.5534
85.8844
85.4242
84.3953
85.1462
85.8726
86.4638
85.8645
84.5235
84.6683
85.2293
81.6009
88.4973
85.483
85.7762
85.9264
86.6661
85.9587
84.9823
80.8313
76.1143
85.7631
109.822
86.7056
79.1843
88.0111
32.0536
88.8305
116.603
84.4003
86.5755
85.5106
82.0836
84.5129
84.491
86.703
85.6859
82.8691
84.6877
84.6318
112.498
76.7673
77.4473
84.8725
86.8114
121.418
77.6264
88.2317
84.131
85.0479
85.8754
91.9966
84.3672
78.7851
83.5739
85.4318
84.7347
85.6366
84.9996
84.9738
80.7889
85.1952
70.6048
88.1771
86.9484
82.8251
52.9547
92.4828
101.577
86.1461
86.4564
119.496
65.4673
106.4
91.9791
83.9633
85.4364
84.7139
81.2911
96.6366
82.0126
85.843
85.3079
85.7119
81.6718
113.718
123.537
86.1786
106.094
92.5852
118.89
88.5629
86.0614
84.7868
85.3687
84.2434
80.9743
104.498
82.1722
85.3392
84.7753
83.9152
119.393
85.6185
107.39
77.6753
82.0168
82.1223
85.4503
81.5055
83.7604
85.5425
84.4887
84.1775
84.5021
86.1061
84.5421
86.0323
78.7025
87.3198
80.8386
93.4701
92.8801
37.8528
118.989
85.7707
83.8755
85.8364
82.407
84.7401
82.2844
85.8149
84.8783
84.1356
86.4108
89.0523
103.715
83.8944
75.0521
104.191
86.6703
84.881
84.8346
92.6786
32.6675
82.8925
74.9008
100.521
75.504
88.1821
94.1132
92.0421
88.677
86.1951
82.8356
80.851
121.276
85.8454
84.3429
85.8647
93.339
41.6901
85.8042
84.5343
85.9328
80.8127
83.6325
79.2744
85.8223
102.751
85.6109
85.8789
84.6568
111.366
86.8751
82.3105
85.3602
85.5866
84.6057
86.8768
85.797
85.8802
85.5232
85.749
102.157
80.5594
101.5
84.0723
79.1639
95.451
87.1275
120.792
84.9694
86.1028
95.6038
107.886
77.065
82.2916
86.7363
84.6043
83.4448
86.4543
118.379
85.9367
94.6544
84.7354
88.3274
92.5082
117.761
118.853
83.0335
91.6624
85.5602
91.0206
84.6829
86.6848
73.9637
91.3507
85.445
85.5032
85.0976
84.2438
84.9009
71.2901
86.7076
118.717
95.2985
84.7391
84.4121
86.1496
80.594
113.066
90.9215
84.7501
111.573
85.5893
108.561
102.892
85.6511
118.232
80.7087
118.896
93.6413
84.7605
86.7247
94.8583
83.2455
100.419
85.6841
93.3035
25.9219
85.6031
117.434
87.8577
97.4599
88.084
98.4134
77.555
118.037
118.796
93.9029
102.917
85.4267
83.5253
85.5853
85.3215
86.6155
84.2022
99.0667
83.3919
100.797
99.1713
85.5614
84.6256
86.7129
119.948
88.5129
86.5252
84.474
91.7997
79.8973
92.5355
93.0049
83.613
102.717
84.7919
83.6241
88.0873
88.8318
85.8653
100.793
119.16
78.4344
106.122
97.9626
86.1339
85.5312
85.8782
85.8478
85.7032
85.9498
118.929
91.9626
88.8773
83.8296
86.5673
107.952
74.0403
82.5557
81.8336
84.3867
87.8663
84.039
84.5378
85.0651
91.5853
88.4431
85.3314
82.2232
80.2828
84.7117
104.681
94.3987
86.6897
85.9013
86.0067
84.0896
100.012
86.2269
81.0367
84.3921
85.2787
88.8508
76.1528
88.5883
47.4053
90.2119
85.8526
94.1195
85.5142
85.0016
84.3964
118.704
80.7276
111.564
85.6985
84.8251
78.9175
85.0762
85.7791
81.2053
94.7359
96.2931
76.493
107.286
82.958
85.8143
85.2631
85.8089
82.3502
86.559
55.2795
52.2114
85.5728
78.2857
86.5155
87.4961
85.1021
85.6043
82.7082
85.717
85.1624
85.8171
90.5892
85.2392
86.1447
89.031
83.6411
121.234
88.003
82.8264
84.8833
83.4137
98.3221
83.9508
87.2809
84.5174
87.3737
108.92
77.9278
82.5664
83.5296
88.5252
43.5542
85.1121
85.1243
101.376
119.829
83.3769
86.6517
85.504
85.8447
78.6779
87.3559
78.9072
87.808
84.0517
88.4974
85.5968
84.9009
84.2703
86.0491
84.4191
75.0535
103.469
83.2139
79.6331
92.203
84.7191
86.7545
84.8773
78.7386
100.485
74.9696
83.944
86.8876
77.9573
82.2665
82.099
83.1766
79.4014
94.6085
80.915
105.927
116.255
134.739
86.4056
91.9002
121.492
86.8413
84.7709
82.1868
116.061
84.819
91.1496
9.0484
92.4073
87.0613
77.9571
85.5205
85.4846
84.6384
84.3747
82.9775
89.0644
84.0218
83.6038
84.6158
91.6854
85.7108
120.877
86.791
105.975
87.71
77.6313
82.4535
85.6716
85.0548
84.8278
83.6629
78.4722
84.7875
84.2512
32.4552
109.378
78.4479
83.8614
82.402
89.9232
79.1629
84.8308
79.1688
85.4423
82.0095
82.3979
85.6669
80.4392
86.3583
88.9607
85.3366
84.3183
85.5135
112.662
85.2405
86.2716
84.5786
85.0246
93.0723
101.529
82.3637
91.8244
84.1588
76.1998
77.8034
83.4461
86.0785
81.8742
84.3307
84.5782
86.4701
83.0006
121.024
85.5759
85.031
120.469
83.6534
89.1639
84.2526
72.4013
93.733
93.5112
85.3719
90.9785
85.3129
91.0618
91.1721
94.386
92.5426
81.5658
80.9028
81.0877
84.9433
81.917
97.4505
85.8158
80.156
85.7818
85.2356
84.9693
93.0623
80.8512
81.7253
87.6085
95.9117
84.374
86.7557
85.4971
84.6896
92.8075
46.3474
81.3813
85.6171
85.0712
87.0164
84.9086
85.7292
84.9682
84.3727
85.73
81.4022
85.1605
117.591
83.6111
85.3527
86.4006
76.2657
85.5727
91.9404
85.3935
85.6763
82.1917
86.7146
77.9446
85.6355
83.2688
109.394
106.957
77.0503
81.662
85.2762
84.875
85.7962
79.2685
88.7168
119.515
93.7385
86.02
109.881
84.6491
82.566
79.4861
80.9886
84.3627
77.4841
85.883
94.2089
87.6251
77.9279
90.214
90.8864
86.4596
82.5905
123.066
74.5602
86.7122
84.0685
85.7268
85.6705
108.091
118.506
83.9141
80.8452
87.228
104.562
85.1126
86.2641
84.1461
84.6911
84.189
88.3809
78.9332
86.6274
85.9939
90.9033
83.2312
74.8793
100.499
85.4114
84.2212
79.1424
84.6989
88.5315
96.7643
83.321
89.132
82.8447
85.4973
84.7383
85.925
92.2699
85.6268
15.5104
92.4641
86.318
87.7028
78.6091
85.9956
84.6834
85.9756
84.5088
85.5868
85.0676
79.4796
81.2051
116.435
76.0605
119.314
84.8361
86.8049
85.7097
84.494
84.504
85.6063
51.0013
111.96
92.1123
85.8655
85.428
88.0337
79.5255
77.184
88.2825
85.1339
92.522
92.1325
86.7539
86.33
43.8713
84.7145
84.6232
85.4712
84.4064
86.389
83.8549
82.7121
83.7747
51.4405
82.4627
87.618
85.7503
85.1878
86.4546
79.5874
80.6896
84.863
90.8155
103.334
90.8987
83.4359
80.9035
77.9037
88.2447
75.2353
83.7567
121.494
112.504
81.3101
77.5544
90.0385
85.6522
81.886
85.0735
81.8229
111.296
95.9163
94.412
86.7238
78.2443
86.8937
82.9068
94.6896
86.336
107.307
82.629
73.7953
85.7874
84.332
121.074
86.0097
80.1698
81.0126
80.5465
82.7724
84.5539
42.7598
102.023
87.5608
84.8052
81.2873
81.3979
84.3104
87.2313
78.5745
84.6199
85.72
85.3143
85.9123
120.532
84.5831
89.1599
85.0775
83.8403
52.8267
85.855
73.9447
104.844
83.5277
80.8192
81.6899
92.4163
88.2836
85.2487
85.8853
80.2021
84.2962
86.1401
87.3571
118.691
84.8379
80.7193
84.7948
85.179
83.3184
78.6298
81.3121
79.4493
87.7051
78.2014
80.7782
92.7148
86.6891
85.0426
110.655
64.1201
80.5712
53.7613
84.7555
86.6844
80.7416
79.3368
85.0268
82.0624
73.2406
83.7509
112.66
82.7306
73.5482
107.679
117.837
110.509
81.0169
83.7867
85.2145
88.3039
86.144
78.5857
79.556
83.7738
82.3081
101.904
101.467
94.5042
84.6424
83.7206
83.2829
92.6517
85.8645
85.6186
90.1674
85.5729
87.0304
118.617
86.0114
86.1128
86.5187
78.108
88.1244
88.4106
84.1994
86.0565
85.6691
84.5148
84.2683
82.9772
79.6322
79.2446
85.6405
84.6642
83.207
82.4331
84.989
84.4354
84.6732
102.717
84.8353
85.9929
86.1175
84.8195
107.082
115.817
84.7446
85.291
109.401
85.3769
94.3396
84.8604
86.8761
85.5987
84.297
85.5422
85.0814
84.1848
83.5248
83.6633
85.2101
120.013
77.5592
85.3915
84.1616
85.1732
87.8686
85.5237
82.7033
86.6924
84.4676
92.0569
114.766
86.5444
86.9087
84.5945
88.2793
82.1432
84.1603
80.618
82.3014
80.9468
85.8551
85.8693
84.8167
48.9594
86.3841
119.059
84.0776
80.2477
81.9948
117.35
85.7093
49.0779
92.8325
85.5643
85.1307
85.822
84.4179
85.4423
85.8531
83.0617
85.9072
81.2903
85.8168
85.2721
85.6946
84.5234
92.853
119.749
81.2104
77.6441
85.3692
84.7384
85.6712
86.6532
101.087
74.9983
84.0095
92.2234
88.1801
92.5779
85.2042
92.2318
112.105
84.752
82.6147
84.7891
88.8081
121.113
85.7555
84.9519
84.4561
87.5065
84.6767
84.6159
80.0736
119.602
94.8145
85.291
85.8913
80.8848
92.6323
85.8316
84.6667
88.197
84.0128
85.5407
80.5888
45.796
84.7634
86.2001
103.597
120.91
87.6629
86.5023
85.1332
119.077
81.4616
92.5662
86.3205
33.5783
55.3472
83.8714
48.7483
84.9519
31.9472
86.3507
103.777
87.3422
88.0607
85.619
85.6091
85.5822
85.5993
85.4566
85.5198
85.3826
85.2873
85.6357
85.1795
56.5188
79.8469
79.6193
80.0247
79.7232
51.9102
80.2163
83.901
76.5796
78.6305
77.618
76.0656
60.2171
45.9183
75.8731
66.2411
63.1945
76.1849
80.18
87.577
87.5659
87.5946
87.5492
83.1829
85.0819
87.4763
84.7672
85.6605
85.6572
83.3445
87.0754
84.2516
87.3854
92.1167
106.682
107.881
79.6549
93.5858
91.1696
76.5257
90.2583
95.5674
106.431
110.561
100.799
98.229
114.452