/*--------------------------------*- C++ -*----------------------------------*\
| =========                 |                                                 |
| \\      /  F ield         | OpenFOAM: The Open Source CFD Toolbox           |
|  \\    /   O peration     | Version:  v1912                                 |
|   \\  /    A nd           | Website:  www.openfoam.com                      |
|    \\/     M anipulation  |                                                 |
\*---------------------------------------------------------------------------*/
FoamFile
{
    version     2.0;
    format      ascii;
    class       surfaceScalarField;
    location    "0.44";
    object      phi;
}
// * * * * * * * * * * * * * * * * * * * * * * * * * * * * * * * * * * * * * //

dimensions      [0 3 -1 0 0 0 0];
oriented        oriented;


internalField   nonuniform List<scalar> 
11117
(
-2.598e-05
4.95237e-05
1.24194e-05
-3.5963e-05
1.5583e-05
0.000150109
-1.27526e-05
-0.00015294
-6.86227e-05
9.50379e-05
-1.39608e-05
-1.24543e-05
-0.000633268
5.75814e-05
0.000211982
0.000363705
0.000255628
0.000119637
-6.47094e-05
-0.000310556
-2.76276e-05
5.03883e-06
-0.000124191
0.000146779
-0.000820998
-0.000132205
0.000728982
0.000224221
-2.54216e-05
1.99905e-05
-3.242e-05
3.78511e-05
0.00121869
0.000232725
-0.000894174
-0.00055724
0.000376789
-0.000227932
1.57633e-06
-0.000150433
-0.000869374
0.000941382
0.000298929
-0.000370936
-2.33676e-05
-0.000177375
5.6166e-05
0.000144577
-0.000650944
-0.000212696
0.00039127
0.00047237
0.000789802
-0.00115106
0.000628761
-0.000267502
5.94372e-06
-2.66352e-05
0.000122458
-0.000101766
-5.97817e-05
2.34312e-05
-4.28725e-05
7.9223e-05
-0.000141283
0.000172504
-2.28384e-05
-8.38252e-06
-0.000763467
0.000804069
0.000763867
-0.000804469
0.00012291
-3.25878e-05
-8.4378e-05
-1.74935e-05
9.392e-06
7.91952e-05
-7.10936e-05
-0.000340185
0.000186305
6.35288e-05
9.03513e-05
-1.43464e-05
1.13912e-05
9.94274e-05
-9.64722e-05
0.0006034
0.000452712
-0.000393054
-0.000663058
5.62648e-05
5.56423e-05
-4.23138e-05
-6.95933e-05
0.00021071
0.000152536
-0.000216357
-0.000146889
0.000899945
-0.000927058
0.000298879
-0.000271765
0.000285863
-0.00036874
0.000755954
-0.000673077
-0.000292308
0.000380704
-0.000313222
0.000224826
0.000187692
-8.88469e-05
0.000963679
-0.00106252
2.07206e-05
-1.12908e-05
1.54034e-05
-2.48332e-05
-0.000104953
0.000161539
6.97736e-05
-0.00012636
-7.13631e-05
-0.000231438
0.000228424
7.43771e-05
-0.000120722
-0.000455729
0.000382833
0.000193618
0.000204443
4.83853e-05
-8.50688e-05
-0.000167759
0.000180508
6.80997e-06
6.74288e-05
-0.000254747
-0.000228237
7.4661e-05
-6.03783e-07
0.00015418
0.000599331
-0.000816863
0.00099702
-0.000779488
7.14101e-05
-0.000215176
2.44375e-05
0.000119329
0.000716236
-0.000206142
-0.000853819
0.000343726
0.000215637
0.000280812
-0.000358359
-0.00013809
0.000162004
5.78289e-05
-0.000116742
-0.000103091
3.54881e-05
-0.000113213
0.000114995
-3.72702e-05
0.000982527
0.000865354
-0.00086902
-0.000978861
4.98295e-06
1.58147e-05
-4.91132e-06
-1.58863e-05
-7.02231e-05
0.000165901
2.72317e-05
-0.000932239
0.000739697
-0.000224612
0.000417153
-0.000345936
0.000253006
-7.45826e-05
0.000167513
0.000178672
-0.000277759
0.00017922
-8.01322e-05
-0.000377053
0.000453689
-0.000264536
0.0001879
-0.000101904
-1.84704e-05
0.000120375
6.92564e-05
1.28726e-05
-8.2129e-05
-0.000335011
-0.00112719
0.00051008
0.000952125
0.000109605
-3.58451e-05
0.000124423
-0.000198183
-0.000228828
0.000265546
0.000116271
-0.000152988
1.58693e-05
-1.58693e-05
0.000417177
0.000177248
-0.000548141
-4.6284e-05
0.000126545
7.8652e-05
-0.000181421
-2.37753e-05
-0.000114329
-8.55472e-05
0.00017672
2.3156e-05
0.000868536
0.000113505
-0.00134007
0.000358029
-0.000420246
0.000764457
0.000555734
0.000841871
-0.000857278
4.30618e-05
-2.76549e-05
0.000139959
-7.74103e-05
-6.3639e-05
1.09053e-06
-0.000126515
-0.000137996
0.000159558
2.25221e-05
-2.66777e-05
-6.72075e-05
0.00012168
-3.94712e-05
-0.00020293
-4.42687e-05
-0.000134324
0.000111607
6.69854e-05
0.000122965
-0.000127354
5.10928e-05
-4.67036e-05
6.20726e-05
-0.00027082
0.000208748
-0.000744574
-0.000436425
0.000572884
0.000608116
2.65133e-06
2.74399e-05
5.87412e-07
-3.06786e-05
0.00046766
-0.000138487
-0.000664184
-0.000211001
0.000187356
0.000146609
-0.000273459
-0.00128517
0.00132287
0.000235761
2.95112e-05
-6.99988e-06
-7.68007e-05
5.42894e-05
-0.000828793
-0.000679248
-0.000103618
8.28787e-07
0.000276015
-0.000173226
9.30899e-05
-3.93703e-05
-5.37196e-05
-0.00090049
-0.000167612
0.000141043
-6.5478e-07
1.10213e-05
-5.3836e-06
-4.80035e-05
-1.92993e-05
6.73028e-05
4.70254e-05
4.24269e-05
-6.73761e-06
-8.27146e-05
7.676e-05
1.04726e-05
1.03812e-05
-9.76137e-05
5.86884e-07
5.52269e-05
-9.38764e-05
3.80627e-05
-0.000334831
0.000449232
0.000259692
-0.000374093
-9.48239e-05
-0.000183254
0.00017586
0.000102217
6.05801e-05
-0.000583687
0.000523106
-7.66627e-06
-0.000556786
0.000564452
3.08367e-05
-0.000467083
0.000436246
8.29209e-05
-9.78766e-07
5.78193e-05
-0.000139761
-0.000116558
0.000128122
0.000336429
-0.000347992
0.000514674
-0.000153597
7.81177e-05
-0.000439194
0.000726026
5.26697e-05
-4.97518e-05
-0.000728944
0.00076316
-6.33309e-05
6.41645e-05
-0.000763993
-0.00067396
3.56479e-05
-2.54257e-05
0.000663738
-0.000742311
6.50185e-05
-3.39852e-05
0.000711278
8.74244e-07
0.000224383
-0.000326006
0.00010075
0.000574549
2.32471e-05
-2.30043e-05
-0.000574792
0.000738338
4.22528e-05
-3.20901e-05
-0.000748501
0.000684422
5.40125e-05
-2.68045e-05
-0.00071163
0.000811491
6.02322e-05
-2.98514e-05
0.0004008
7.95828e-05
-0.000423034
-5.73485e-05
-0.00018503
0.000151824
5.65671e-05
-2.33605e-05
0.000300863
-0.000373496
-0.00114528
0.00121791
0.000913794
0.000492408
-0.000939222
-0.000466981
-1.12207e-05
-0.000123947
9.86569e-05
3.65109e-05
-0.000835167
0.000310416
0.00075218
-0.000227429
2.88106e-05
-4.14097e-05
0.000108115
-9.5516e-05
2.23513e-05
-1.67641e-06
3.15932e-05
-5.22681e-05
-0.000245088
3.03484e-06
0.000102133
0.00013992
-2.50151e-06
-2.92777e-06
4.7745e-06
-0.000527274
0.00029325
0.000270078
-3.60533e-05
-0.000104634
0.000209498
5.60849e-05
-0.000160949
-0.000420356
0.000347356
-0.000186005
0.000259005
-3.08914e-05
4.23394e-05
3.38674e-05
-4.53154e-05
0.000125562
0.000641868
-0.000736305
-3.11248e-05
0.000113283
0.000629378
-0.00070829
-3.43715e-05
-2.05648e-05
-2.89563e-05
3.2746e-05
1.67752e-05
-0.000567592
0.000553348
0.000864734
-0.000850491
3.61199e-05
-2.02088e-05
-0.000873189
-0.00103724
9.14496e-05
0.000959381
-1.35858e-05
0.000895683
-0.000642514
-0.000820761
5.03437e-05
-4.72097e-05
-3.13401e-06
0.000160715
-0.000144889
0.000200641
-0.000216468
-0.000183372
-0.000212553
1.76404e-05
-0.000120389
-4.63221e-05
0.000149071
-0.000353335
0.000405762
0.000617131
-0.000669558
-0.000395637
0.000654238
-0.000458474
0.000199873
1.01888e-05
0.000132786
-0.000122851
-2.01243e-05
0.000552775
-0.000817116
-0.000109873
0.000374214
5.26288e-05
-5.1977e-06
4.43811e-06
-5.18692e-05
-0.0001474
0.000317698
-3.83529e-05
-0.000131946
0.000325755
-0.000179014
-0.000256447
0.000109706
9.40881e-05
-2.0817e-05
-4.64133e-05
-2.68578e-05
-0.000855886
0.000106731
-0.000151335
-0.000268075
0.000232377
-0.000671914
0.000707611
7.14417e-05
-6.21201e-05
-3.59568e-05
-0.000411262
3.64471e-05
9.34704e-06
0.000365468
3.47377e-05
0.000121288
-1.60666e-05
-3.22665e-05
-6.763e-06
1.77765e-05
2.1253e-05
0.000111029
0.00015744
-9.86497e-05
-0.000169819
-7.10022e-05
-0.00011649
8.49048e-05
0.000102588
0.000158811
-0.000475464
0.000518515
-0.000201862
0.000157426
-0.000141121
3.51979e-06
-1.98255e-05
0.000635751
-0.000284907
-0.000331162
-1.96816e-05
-5.18612e-05
4.96911e-06
1.11227e-05
3.57694e-05
1.36929e-06
0.000285574
-0.000148562
-0.000138382
0.000348635
-0.000213502
2.55822e-05
-0.000429903
0.000961065
-0.000550853
1.96912e-05
0.00016595
5.55769e-05
-0.0002207
-8.26743e-07
-0.000143381
0.000354851
-1.32616e-05
-0.000198208
0.000905666
0.000437907
-0.000598728
-0.000744845
-3.95886e-05
2.46027e-05
2.08754e-05
-5.88956e-06
-0.000477095
-0.000102887
-0.000255185
8.66501e-05
-0.000165621
-0.000109603
0.000188574
-0.000425672
-0.000396513
0.000502222
0.000319963
0.000425426
-5.89524e-05
-0.000366474
0.000381405
0.0001655
8.06795e-05
-0.00024618
0.000944021
-0.000229365
-0.000714657
-2.34138e-05
-0.000100843
1.435e-05
8.64925e-05
-3.1138e-05
-0.000238763
0.000269901
0.00042873
-0.000487211
5.84808e-05
-5.38793e-05
0.000536072
-0.000482192
-0.000479592
0.000545925
-6.63327e-05
-0.000481951
0.000478718
3.23254e-06
-0.000442868
-2.03645e-05
0.000463232
0.000368193
-4.0452e-05
-0.000327741
-0.000448187
-7.90873e-05
-2.48214e-05
-7.9813e-05
5.67067e-06
-3.35142e-05
2.78436e-05
0.000210274
0.000198121
-0.000408395
0.000166483
-0.000234996
6.8513e-05
0.000107798
-4.54915e-05
-6.23063e-05
-7.46823e-05
0.000129088
-5.44053e-05
-0.000658454
0.000816021
-0.000157567
-0.000108816
5.55207e-05
5.32955e-05
-0.000232155
0.000273314
-4.11591e-05
-2.60241e-05
-7.81515e-05
0.000104176
0.000917095
-0.00100082
8.37279e-05
-0.000313922
0.000323559
-9.63759e-06
-6.11045e-05
0.000124757
-6.36529e-05
0.00029267
-0.000286414
-6.25584e-06
-0.000279147
0.000322478
-4.33302e-05
2.3855e-05
7.9875e-05
-0.00010373
-0.000154349
0.000176939
-2.25901e-05
-0.000179483
-5.54699e-06
-0.000232267
0.000149936
8.23305e-05
-0.00038634
0.000387187
-8.4733e-07
3.98268e-05
0.000111997
-0.000211074
-0.0006583
-0.000173857
-5.75801e-05
-0.000367949
-8.77802e-05
0.000237887
-7.63481e-05
0.000443803
-0.000118048
-8.10424e-05
-6.63574e-05
7.86383e-05
4.95576e-05
-0.000128196
-0.000302523
0.000109164
0.000193359
-0.000128441
9.58535e-05
-0.00106063
0.00136149
0.000718427
-5.35846e-05
-0.000664842
-0.000933732
-0.000193463
2.4541e-05
0.00015413
-0.000133134
6.99153e-06
0.000126142
-0.000302848
-4.3088e-05
-0.000787872
-0.000144367
0.000143689
-0.00026782
0.000124131
2.98183e-05
-1.09214e-05
1.209e-05
-3.09869e-05
-0.000185156
9.35522e-05
0.000534187
-0.000442583
-0.000861601
0.000855846
0.000667217
-0.000661463
-6.95012e-06
2.80435e-06
3.85203e-06
2.93742e-07
-0.00117021
0.0011278
-5.13252e-05
9.37353e-05
-0.000272452
0.000223485
-4.91248e-06
0.000278008
-0.000236134
-7.30117e-05
-8.81954e-05
0.000109264
-4.01179e-05
1.90497e-05
0.000113576
-0.000215151
-0.000207401
0.000308976
0.000154568
-0.000172115
-0.000310018
0.000327565
-9.20686e-05
5.63221e-05
0.000129835
-0.000203233
5.06021e-05
0.000589591
-0.00043696
0.000781631
-0.000678379
-0.000187868
8.46155e-05
-0.0013817
-3.44853e-05
0.000245976
0.000291646
-0.000364728
7.08943e-05
2.18777e-06
0.000236739
1.3802e-05
-4.63583e-05
-0.000204183
0.000744736
-0.000234331
-4.38967e-05
-0.000466508
-0.000348239
-0.000251351
4.06342e-05
0.000558956
-8.60344e-05
5.73265e-05
0.00123932
-0.00121061
-0.000100601
1.75103e-05
8.30904e-05
8.62622e-05
-0.000115926
-0.000115812
0.000145476
-0.000240292
5.72573e-05
-3.80575e-05
0.000221092
6.99466e-05
-7.36885e-05
-3.26288e-05
3.63707e-05
-7.20016e-05
0.000112226
-0.000211533
0.000171309
-3.65214e-06
3.68418e-05
0.000121077
-0.000154267
7.0448e-05
-7.2399e-05
6.58335e-05
-6.38825e-05
0.00014273
-5.20757e-05
-0.00022362
0.000132965
0.000131551
-0.000131481
6.71612e-05
-6.7232e-05
4.2276e-05
1.79951e-05
-0.00103149
0.000971217
-0.000117576
4.36555e-05
-0.000795277
0.000869197
0.000860763
-0.000863575
6.75235e-05
-6.47113e-05
0.000190708
-0.000290241
-0.000143002
0.000242534
-5.43435e-05
-9.04823e-05
5.20912e-05
9.27346e-05
-0.000116443
1.20323e-05
7.14181e-05
3.29922e-05
0.000154075
-0.000138842
3.88654e-06
-1.91192e-05
6.23866e-05
0.000673638
-0.000376313
-0.000359712
-1.86351e-05
0.000231789
-0.000126504
0.000111605
-6.97081e-05
-6.05324e-05
-7.35009e-05
7.1702e-05
0.000295048
-0.000142288
0.000117879
5.56483e-05
-3.1239e-05
3.33686e-05
2.36602e-05
0.000108922
5.33884e-05
-0.000534782
0.000481394
5.55661e-05
-0.000610947
0.000555381
3.61963e-05
-0.000492877
0.000456681
7.58913e-05
-7.27961e-05
-4.7364e-05
-0.000294158
-2.80051e-05
4.97603e-05
-7.27737e-05
5.10186e-05
-1.29272e-05
2.45597e-05
-0.00093633
0.000924697
-0.000330935
-0.000384576
0.000459373
0.000256138
0.00103229
-0.0004415
-0.000788734
0.000197941
-0.000647934
0.00115
-0.000861792
0.000359724
1.67244e-05
-3.87003e-05
5.17941e-05
4.03869e-05
-0.000134743
0.000111997
-0.000621675
-6.98221e-05
0.000301688
0.000389809
-3.79862e-06
-0.000287613
1.89603e-05
-0.00010663
0.000326797
5.784e-05
-1.40917e-05
0.000101358
-1.19101e-05
-7.53564e-05
-4.80812e-05
2.14502e-05
2.6631e-05
-0.000346402
0.000376143
-2.97411e-05
0.000436199
-0.000295644
-0.000283936
0.000107323
-0.000384317
0.000336701
-5.97072e-05
9.95925e-07
-6.14516e-05
-0.000583255
3.41992e-05
-5.83936e-05
0.000607449
-0.000258635
4.5316e-07
9.89088e-07
0.000257192
-6.28284e-05
-5.6436e-05
0.000123833
-4.56898e-06
6.99869e-05
0.000131018
-0.000171935
-2.90691e-05
-0.000285526
0.000465242
0.000330365
3.07678e-05
-0.00106568
0.00109216
-5.72488e-05
2.67399e-05
8.29422e-05
-3.97355e-05
-0.000160233
-0.000180114
0.000111519
7.34082e-05
-9.78446e-05
-8.90398e-05
0.000113476
4.87487e-05
-5.57292e-05
-4.99458e-05
5.69263e-05
2.44324e-05
0.000296685
2.36247e-05
-0.000344742
-0.000228266
-0.000144161
6.99046e-05
-0.000323423
-6.10177e-05
0.000281277
0.000103164
-0.000138015
7.33896e-05
0.00022663
0.000131448
-8.58516e-05
-1.01084e-05
-0.000489575
0.000278273
0.000426939
-0.000581527
1.22293e-05
0.000572982
-3.68412e-06
-0.000702928
7.14447e-06
0.000717269
-2.14849e-05
3.64423e-06
0.000711974
-0.000691095
-2.4523e-05
-3.75103e-05
0.000568959
-0.000557386
2.59369e-05
-0.000546693
0.00101842
-0.000739798
-1.94788e-05
7.18261e-05
-0.000143453
9.11054e-05
0.000265539
-0.000204342
5.7145e-05
-0.000118341
2.69596e-05
-5.76622e-05
0.000122765
-9.2062e-05
-3.99617e-05
5.02346e-05
1.7545e-05
-2.7818e-05
-0.000952574
0.00011777
0.000934518
-9.9714e-05
-0.000104401
0.000696892
-0.000749372
0.000156881
-0.000208254
0.000131878
0.000343926
-0.00026755
-2.19118e-05
6.03486e-05
-0.000103626
6.51896e-05
-0.000217059
-2.54732e-05
0.000712741
-0.000470209
-3.95226e-05
0.000126153
0.000107589
-0.00019422
2.50895e-05
-5.42303e-05
0.000105901
-0.000588699
0.000569143
2.89565e-05
-2.74843e-05
4.55532e-05
0.000317309
-0.000266598
1.16752e-05
3.22258e-05
4.39938e-05
-6.17716e-05
-1.4448e-05
4.12676e-05
-1.69872e-05
0.000321359
-0.000345639
4.54766e-05
-2.8421e-05
3.16931e-05
0.000456767
-0.000311225
-0.000581968
0.000753673
-0.000392906
0.000302395
-0.000135603
3.1895e-05
7.0777e-05
2.95214e-05
2.20056e-05
7.84277e-05
-0.000129955
0.00046155
-0.000736088
-0.000587063
5.46246e-05
-1.1857e-05
-7.36589e-05
-0.000424954
0.000470614
0.00100905
-0.00105471
0.000842706
-0.000170298
-4.69021e-05
-0.000625506
7.62092e-06
7.37857e-06
7.35185e-06
-0.000445598
0.000272055
0.000554248
-0.000239284
6.54755e-05
-7.12794e-05
0.000300402
-0.000813802
0.000701092
-0.000157394
1.76312e-05
1.38403e-05
0.000125922
-0.000118368
0.000332859
-0.000502339
0.000287849
-0.000707107
0.00062523
0.000635225
0.000187159
0.000124046
3.4718e-05
-4.49664e-05
2.07411e-05
-1.04928e-05
-0.000124462
-0.000314765
0.000233085
-0.000129907
0.000130665
0.00012062
-0.000121378
-0.00010441
-0.000207141
0.000804603
0.000136779
-1.66364e-05
-7.81029e-05
0.000111498
-4.1724e-05
0.000150567
4.89404e-05
-9.55091e-06
-6.06531e-05
0.000146915
-1.94568e-05
1.01344e-05
2.31661e-05
0.00012677
3.02407e-05
-2.14445e-05
0.000217867
-5.50539e-05
-8.20763e-05
1.54142e-05
0.000277255
-3.97432e-05
-0.000239404
-4.93426e-05
-1.17619e-05
-0.000509802
2.78516e-05
1.81662e-05
-0.000233343
-0.00011955
-0.000734269
0.000109545
-0.000108176
-4.54713e-05
-4.91001e-05
-4.85264e-05
-5.76077e-05
0.000234547
-0.000201318
7.28764e-05
0.000366048
0.000586077
-0.000102571
5.32167e-05
-3.92703e-06
-2.00595e-05
1.30651e-05
4.94064e-05
-0.000161791
0.000136823
0.000515057
-0.000541238
2.48613e-05
1.31927e-06
1.69031e-05
-0.000551935
0.000402827
6.56259e-05
-0.000113236
6.76007e-05
5.05487e-06
-0.000144191
2.46399e-06
0.000136672
0.000273931
0.000465767
0.000110387
0.000142619
-5.56064e-05
-0.000222153
0.000127761
-0.000173569
4.58666e-05
-5.84771e-08
-0.00012566
3.48247e-05
0.000111842
-2.10068e-05
0.000210367
-6.33356e-05
-0.000141977
0.000234119
-1.8307e-05
-0.000148423
-6.73895e-05
-8.174e-06
-7.42011e-05
2.45954e-05
5.77797e-05
0.00042662
-0.000119979
0.000139187
-0.000419482
0.000697473
9.87168e-06
-0.000118844
0.000235517
-0.00015995
0.000198997
-0.000153376
-5.09318e-06
-4.92443e-05
5.11779e-05
3.15962e-06
-9.01118e-05
0.000144542
-0.000105821
5.13912e-05
5.04063e-05
9.64523e-05
-1.90975e-05
-0.000622418
0.00102633
-0.000732166
0.000328248
5.55483e-05
-0.000232196
-5.15894e-05
1.95914e-05
0.000141867
1.905e-05
1.56016e-05
0.000222132
-3.32904e-05
-0.000992943
0.000877374
2.67219e-05
2.86953e-05
5.93477e-05
-4.48134e-05
-4.32295e-05
-0.000353114
-1.79963e-05
0.000199639
0.00017147
1.41849e-05
-0.000457053
-6.21162e-05
0.00043031
0.000398299
-0.000183159
3.18974e-06
-1.68736e-06
3.3297e-05
-3.47994e-05
-4.95469e-05
1.90169e-06
0.000132
-8.43547e-05
9.44816e-05
0.000104146
-4.23428e-06
3.30716e-05
5.05621e-05
-3.88331e-05
-4.48006e-05
-4.51769e-05
-4.99831e-06
6.45252e-05
0.000552226
-2.31237e-06
0.000244667
0.00118728
0.000124674
-0.00114712
-0.000164833
0.000196577
7.90923e-05
0.000130406
-0.000673572
0.000175735
0.000600572
-0.000102735
-0.00018069
0.000185749
-0.000142209
0.000137149
2.54256e-05
-0.000125617
7.41176e-05
2.60735e-05
5.76013e-05
-0.00010563
5.49032e-05
-6.87478e-06
-0.00020199
0.000692936
4.26536e-05
-0.0005336
-0.000351962
0.000975465
7.34657e-05
-0.000696969
0.00067376
3.03955e-05
8.77075e-05
-0.000791863
-5.65672e-05
8.61322e-06
7.65642e-05
-2.86101e-05
6.5682e-05
0.000144592
-0.000212827
0.000433952
0.000351758
0.000492095
0.000110282
0.000517655
0.000119328
0.00060129
0.00013243
0.000661475
-7.53662e-06
-1.28608e-05
4.34663e-06
1.60508e-05
-0.000238671
4.59347e-05
1.91666e-05
-0.00039126
0.000446808
9.68257e-05
-7.72344e-05
0.000327267
-0.000311666
4.81156e-05
1.45455e-05
-2.03216e-05
1.98001e-05
-0.000140184
0.000138834
-1.84497e-05
-3.12243e-05
-0.000104707
0.000129973
5.9588e-06
2.09287e-05
0.000644009
-0.000432213
0.000963271
6.18247e-05
-0.00101105
-1.40493e-05
-0.000374004
0.00036529
0.000444914
0.000131404
-0.000259883
-7.42839e-05
0.000202762
-0.000116658
-1.96145e-05
4.7477e-05
-4.84273e-05
0.000120276
0.000248272
-8.73841e-05
-7.06793e-08
6.21883e-05
-0.000950262
0.00092219
-0.000396882
-0.000155159
3.77663e-06
3.55059e-05
0.000100107
-2.96439e-05
-0.000105969
-8.26065e-05
0.000700268
2.13019e-05
-0.000638963
-8.7903e-05
0.00073062
1.99083e-05
-0.000662625
3.69293e-05
-2.36213e-05
-3.22591e-05
1.89511e-05
0.000234825
-5.18183e-05
-3.96205e-05
-0.000143386
3.11475e-05
-0.000136235
0.000173713
-6.86254e-05
-6.30965e-05
2.44335e-06
-0.000109392
0.000133358
-4.42814e-05
2.0315e-05
-0.000277245
-5.20723e-05
0.000195258
0.000134059
-8.69297e-05
0.000105495
-4.31498e-05
2.45841e-05
0.000693407
1.50716e-05
-1.21794e-05
-0.000696299
-1.27746e-05
3.46e-05
-3.59172e-05
0.000497215
-2.40882e-05
3.02377e-05
-0.000503364
0.000220926
-0.000131013
-0.000146422
5.65092e-05
-0.000633273
-1.98159e-05
-7.22776e-05
0.000725367
-0.000540439
-9.10021e-05
1.74486e-05
0.000613992
-6.07752e-05
3.05338e-05
6.20601e-05
-3.18187e-05
-0.000138882
4.73231e-05
0.000128259
-3.66998e-05
-0.000216042
-6.12724e-05
0.000219395
5.79196e-05
-0.000405588
0.000263448
0.000213842
0.000770553
7.92324e-05
-3.82945e-05
5.79425e-05
3.95633e-06
-9.27003e-06
-0.00119625
-0.000130773
0.00115904
0.000167989
0.000613708
0.000247193
-0.000205766
-0.000655135
7.35182e-05
-3.80154e-05
-2.82475e-05
-7.25535e-06
-2.25605e-06
5.87271e-06
-5.99823e-06
2.38157e-06
-2.06354e-05
7.86076e-06
-0.000167101
8.80806e-05
-0.000641705
0.000720725
0.000126987
-0.000108375
3.18195e-05
-5.04319e-05
0.000182038
-0.000185465
6.74621e-05
-6.40351e-05
-0.000144276
0.000292249
-0.000244302
9.63293e-05
0.000177051
-0.000144044
-3.48574e-06
0.00106807
-0.000932578
0.000206709
-0.000342199
-0.000359018
-0.00032888
0.000374676
-7.66128e-05
5.43217e-06
3.32933e-07
7.08477e-05
-0.000143877
-2.05585e-05
2.55534e-05
-0.00032807
0.000228471
-0.000116444
-6.72494e-05
-1.98641e-05
2.63383e-05
-5.78149e-05
2.07916e-05
9.33816e-05
-5.63583e-05
8.3186e-05
0.000180531
-0.00020251
-6.1207e-05
8.67916e-06
-9.23224e-06
0.000223162
-0.000415556
0.000491323
0.00111544
-1.68271e-05
2.91789e-05
2.11275e-05
-3.6661e-05
-0.000159237
0.00017477
-5.12931e-05
0.000160838
6.8298e-05
-0.000109814
7.04723e-05
6.66369e-05
-0.000169249
0.000127702
-0.00100612
0.000376468
-3.61661e-06
-0.0010701
-0.000643122
9.87717e-05
0.000121756
0.000168252
-0.000214496
-0.000134445
0.000395874
-0.000363932
-1.39409e-05
3.29757e-05
-1.33642e-05
7.07063e-05
8.10339e-05
-0.000101334
-3.54356e-05
6.50414e-05
-7.47117e-05
4.51059e-05
-0.000804615
-9.25481e-05
0.000223591
0.000364309
-0.000318704
-0.000250176
0.000204571
-0.000118565
-0.000963334
4.92419e-05
0.00103266
-6.7642e-05
-0.00099907
0.00102691
3.9799e-05
9.44847e-05
-0.000112439
-0.000106508
-0.000394214
-0.000439412
0.000459621
9.65408e-05
7.02225e-05
-0.000107758
-5.90052e-05
3.44866e-05
1.93242e-05
-2.23311e-05
-3.14797e-05
-0.000796717
-0.00028112
-0.000170075
-3.93981e-05
-2.39956e-05
0.000233468
0.000108317
-1.52937e-05
-0.000107119
1.40958e-05
0.000235842
-7.77922e-05
-1.15538e-06
3.32767e-05
1.33553e-05
8.39507e-05
-0.000135386
-3.86764e-05
-9.19847e-06
-1.51734e-05
4.34631e-05
-1.90912e-05
8.87175e-05
3.94204e-05
-1.71938e-05
-0.000110944
6.4216e-05
0.000728344
-4.02601e-05
-0.0007523
7.25067e-05
0.000689598
-4.49025e-05
-0.000717203
3.4631e-05
-2.63232e-05
-1.75063e-05
3.08132e-05
-0.00107537
0.00107562
-3.10597e-05
0.000264209
-0.00148977
2.67699e-05
0.00119879
7.90965e-05
5.8901e-05
-6.29109e-05
-7.50865e-05
0.00014716
9.64036e-06
-2.97588e-05
-0.000127042
0.000247012
-0.000428465
0.00030109
0.000766793
-0.000577244
-0.000736242
7.47305e-07
2.39276e-05
6.84272e-06
-3.15177e-05
-9.9638e-05
0.000102299
-5.13894e-06
2.47746e-06
-2.71718e-05
3.29676e-05
-3.27078e-05
2.69119e-05
-0.000725251
0.000233352
0.000471546
2.03525e-05
9.33394e-05
-1.01446e-05
3.56647e-05
-0.000118859
0.000100576
-2.59844e-05
3.14968e-05
-0.000106088
0.000273807
2.76126e-05
1.27946e-05
-0.000314214
-3.13979e-05
0.000114539
-8.31414e-05
0.000312299
-0.00124434
5.44126e-05
-5.71649e-05
-8.84639e-05
9.12161e-05
-2.99149e-05
0.000203134
3.7148e-05
-0.000143861
0.000186755
5.94284e-05
-0.000102322
0.00103569
-0.00145809
0.000183041
0.000239367
0.000464966
7.71411e-06
1.29416e-05
-0.000485622
-6.58441e-06
-3.89062e-06
6.84175e-05
8.82298e-05
8.44302e-05
-0.000942207
0.000769547
-3.04854e-05
-7.93724e-05
0.000115173
-5.31517e-06
9.85241e-06
0.00016993
-0.000223831
4.40486e-05
-1.34131e-05
-7.24328e-05
9.41926e-05
-8.34677e-06
0.00108687
-0.000692706
-0.000108457
0.000178763
-0.000200213
2.39438e-05
6.36202e-05
-5.2846e-05
0.000836494
-0.00057243
5.14104e-05
-0.000315474
0.000196741
0.000554668
-0.000115657
8.09613e-05
-5.77345e-05
-2.00317e-05
-0.00011127
2.49792e-05
0.000106322
0.000767382
-0.000218634
-0.000553962
5.21371e-06
1.17872e-05
-2.11965e-05
4.55255e-05
-3.61163e-05
-2.88573e-05
-5.44133e-06
2.11531e-05
1.6514e-05
1.42507e-06
0.000100114
-2.28882e-06
-9.92505e-05
5.78788e-05
0.000155633
8.75516e-06
-1.61825e-05
0.000281234
1.19454e-05
-1.03289e-05
9.89592e-05
1.22236e-05
-3.36291e-06
8.44786e-05
0.00031901
-0.000342453
4.26673e-05
-1.92248e-05
0.00116627
-0.00115243
-0.000287299
6.77975e-06
-0.000618857
0.000191313
0.000534867
-3.40976e-05
5.40322e-05
-5.95231e-05
0.000647186
-1.55908e-05
0.000455277
-3.76118e-05
3.60414e-05
3.10816e-05
7.3789e-06
-3.31928e-05
-7.84424e-05
0.000104256
3.22743e-05
2.48669e-05
-4.91323e-05
-8.00882e-06
5.23178e-05
-7.23495e-05
6.20081e-05
-0.000105982
9.17921e-05
-4.78183e-05
0.000715679
0.000100077
-4.5203e-05
0.000175757
0.000165094
-0.000257213
0.000219703
-0.000507097
0.000510742
-0.000424515
0.000320114
-0.00112441
0.00112696
9.56939e-05
-9.82407e-05
0.000316241
0.000544479
-0.000341763
-0.000364872
3.65354e-05
7.30009e-05
-0.000244256
-0.000102013
0.0004946
-0.000767828
-0.00014238
0.000415608
-0.000922537
0.00044005
-0.000142293
0.00062478
-3.13294e-05
0.000108265
-0.000343536
0.0002666
-1.57738e-05
-6.58532e-05
-0.00108868
0.0011703
8.40966e-05
-0.000372973
0.000760759
0.00017872
-0.00081217
-0.000127309
-3.16529e-06
8.16627e-07
5.04642e-05
0.000781187
-0.000713754
6.49962e-05
0.000710349
-0.000776828
0.000185806
0.000532359
-0.000495822
7.37452e-05
6.22117e-06
0.000108956
-6.86076e-06
-0.000133556
2.72874e-06
0.000132253
6.83579e-05
-0.00010414
9.21852e-05
-5.64029e-05
0.000637393
-0.000538577
-4.5712e-05
-5.3104e-05
0.000781118
-0.00066088
-4.06305e-05
-7.96075e-05
0.000106635
0.00152056
-0.00119325
-0.000433942
3.16241e-06
-2.64087e-06
5.16199e-05
-5.21414e-05
-0.000988941
-0.000636851
0.00105228
0.000573512
-2.68089e-06
-1.66416e-05
-5.64336e-05
7.57561e-05
-3.66389e-05
5.93017e-05
9.12169e-05
-0.00011388
3.98047e-05
-6.74618e-05
-4.59447e-05
7.36018e-05
0.0001175
-4.41514e-05
0.00064233
0.000674968
-0.000955638
0.000406232
0.000587511
-0.000803284
0.000329056
-3.2776e-05
9.46116e-05
-7.14894e-06
1.4003e-05
4.17747e-05
-4.86288e-05
0.000626069
-7.57243e-05
0.000146547
-8.1017e-05
2.80228e-05
-1.21535e-05
0.000163816
7.13891e-05
-0.000117699
-0.000117506
0.000115607
0.000910482
-0.000778896
-0.000291635
-0.000391394
0.000352093
0.000846338
-0.000806754
-0.000244952
0.000205368
-6.07511e-05
0.000191914
5.45854e-05
0.000200678
8.63463e-06
0.000114246
9.97769e-05
-4.74553e-05
2.75534e-05
-3.84365e-05
9.45847e-05
0.000528209
-0.000637884
0.000109675
-0.000394724
0.000282145
-0.00124339
0.00135597
-0.000234977
0.000212054
0.000347672
-0.000324749
0.00012157
3.24154e-05
-6.23914e-05
-9.1594e-05
-0.000436673
-2.85003e-05
0.000599713
-0.000134539
0.000216364
-0.000185582
-0.000384117
-6.11394e-06
-9.33827e-07
3.12074e-06
0.000117465
-8.81221e-05
9.22276e-05
-3.84006e-07
-9.98295e-05
5.7549e-07
0.000144828
-4.27577e-05
-0.000224468
0.000122398
0.000166133
-0.000266618
0.000316403
-0.000215917
3.80063e-05
2.84997e-05
8.7569e-05
-9.46937e-05
8.00995e-06
0.000101229
2.50277e-05
-4.57667e-05
6.17806e-05
-4.10416e-05
-1.91144e-05
-8.92853e-05
0.000120394
-1.1994e-05
4.18093e-05
-9.39397e-06
0.00010166
-8.90261e-05
6.64625e-05
4.94624e-05
-1.15824e-05
0.00010928
8.73346e-05
-8.77191e-05
-5.74304e-05
-0.0006702
-0.000347743
0.000791725
0.000226219
0.00082088
-0.00103831
0.000354814
-0.000137383
1.08345e-05
-0.000240666
0.000245549
-1.57169e-05
-4.97348e-05
0.000372248
-0.000431165
0.000108652
0.000133606
-0.000176193
8.90501e-05
-4.64635e-05
-0.00130883
0.00115043
-0.000243873
0.000402267
0.000376937
-0.000322477
-0.00012877
7.43104e-05
1.5618e-05
0.000771178
-0.00076993
-1.68658e-05
-0.000342774
1.97421e-05
0.000141192
-0.000532877
0.000507909
-0.000116224
0.000180985
-0.000736285
0.000743465
-0.000188165
-0.000107295
-0.000736563
0.000843858
0.000106548
-3.57425e-05
0.000118911
-0.000189716
2.51885e-06
-5.32091e-06
-5.75075e-07
3.37714e-06
-4.32078e-05
4.10983e-05
1.16016e-06
9.49357e-07
-2.21839e-05
1.64014e-05
-2.13893e-05
4.31782e-05
-0.000118275
0.00012951
-0.000128329
-1.67294e-05
9.28899e-05
5.2168e-05
-0.000201731
2.58783e-05
0.000133169
4.26828e-05
-2.52308e-05
-2.70426e-07
0.00035427
-0.000328769
0.00109871
-0.00111756
-7.47097e-05
9.35595e-05
-0.000226789
4.93931e-05
0.000189138
-1.31531e-05
-0.000175985
2.75957e-05
-0.000169533
9.69105e-06
0.000132246
5.25757e-05
2.44288e-05
-3.99677e-05
-3.70368e-05
-4.91947e-07
-3.18852e-05
5.31687e-05
1.73752e-05
-2.38595e-06
-8.22386e-05
-7.44997e-05
3.42083e-05
-0.000287778
1.2175e-05
5.18304e-06
-0.000161235
0.000734684
5.77086e-05
-8.04195e-05
0.000581849
2.81087e-05
-4.09979e-05
-0.000572128
4.9885e-06
-1.43878e-05
-0.000620542
-3.29446e-05
-4.94418e-05
-0.000350208
-0.000182979
0.000209765
-0.000973537
-0.000168666
0.000278628
2.26559e-05
4.00674e-05
-2.96516e-05
-0.000108263
-0.00117165
0.00119388
-3.09322e-05
2.52348e-05
-4.23837e-05
-0.000144945
-3.09149e-05
-0.000170542
0.000779805
-0.000216975
-0.000650733
0.000668352
-0.000180113
-0.000570846
5.71428e-05
-4.70052e-06
-0.000269657
0.000217215
-3.28855e-05
0.000835112
4.4112e-05
6.94532e-05
-7.0487e-05
-2.97846e-05
3.08183e-05
4.49561e-06
7.99203e-06
-7.39645e-05
6.14769e-05
4.1462e-05
-3.21896e-05
2.81756e-06
4.64293e-05
4.96862e-05
-0.000334786
-7.49098e-05
-1.285e-05
5.41782e-05
3.35816e-05
0.000370419
2.32302e-05
-1.0343e-05
-0.000383306
-0.000325497
-7.66262e-05
5.93489e-05
-0.00044184
0.00034972
0.000392522
7.22979e-05
6.4968e-05
-6.65597e-05
-3.97614e-05
-6.19256e-05
4.59578e-05
2.58552e-05
1.69402e-06
-2.23607e-05
-5.18851e-06
-0.000275284
2.11687e-05
0.000256451
-2.3354e-06
0.000290991
0.000352031
-0.000567943
-7.50793e-05
0.000210393
-0.000577193
-0.0003034
0.000515198
0.000386872
-0.000735537
-0.000166533
2.42488e-05
-1.28001e-05
-8.59192e-08
-1.13628e-05
0.000113899
0.000157752
-0.000996902
3.23839e-05
-1.2574e-05
-2.59239e-05
0.0001053
4.8189e-06
-9.79442e-05
2.94812e-05
2.62135e-05
-3.83195e-05
0.000896329
-2.30647e-05
-0.00076377
-0.000109494
0.000346922
0.000106767
-8.34241e-05
-0.000206816
-2.0135e-05
0.000134674
-0.000101078
0.00109851
0.000152573
-1.52247e-05
0.000296941
3.72935e-05
-0.000394663
0.000319363
0.00051176
-0.00043646
0.000223091
-0.000163495
0.000337425
-0.00039702
8.51864e-05
-0.000153475
-5.22077e-05
0.000120497
-0.00018923
0.000158033
7.94038e-05
-4.82067e-05
-0.000245186
4.81501e-05
4.26831e-05
0.000154353
-0.0010953
0.00109062
8.91084e-05
-0.000701294
0.000451846
-0.000742496
0.00062442
-0.000432909
-0.000251234
0.000242303
0.000106985
-3.65648e-05
0.000858082
-0.00102516
-0.000261739
0.000428815
-0.000224682
-0.000984844
0.00118525
2.42742e-05
-0.00108878
0.0011172
-0.000136676
-0.000489782
0.000434495
0.000358931
-0.000303644
-0.000293212
0.000295786
1.83083e-05
-2.08818e-05
-0.000124891
-4.54564e-05
3.15048e-05
-0.000703392
0.000767427
-0.000411778
0.000150838
-1.13684e-05
6.52067e-05
3.7974e-05
-4.72333e-05
-5.59474e-05
-0.000234975
0.000214708
-1.62602e-05
1.71804e-05
2.17356e-05
-0.000909372
0.000872687
-0.000273515
0.0003102