/*--------------------------------*- C++ -*----------------------------------*\
| =========                 |                                                 |
| \\      /  F ield         | OpenFOAM: The Open Source CFD Toolbox           |
|  \\    /   O peration     | Version:  v1912                                 |
|   \\  /    A nd           | Website:  www.openfoam.com                      |
|    \\/     M anipulation  |                                                 |
\*---------------------------------------------------------------------------*/
FoamFile
{
    version     2.0;
    format      ascii;
    class       volScalarField;
    location    "0.39";
    object      epsilon;
}
// * * * * * * * * * * * * * * * * * * * * * * * * * * * * * * * * * * * * * //

dimensions      [0 2 -3 0 0 0 0];


internalField   nonuniform List<scalar> 
1466
(
21.3149
35.3006
11.1125
94.6241
6.44936
22.8925
29.4344
54.8637
9.13429
45.8926
62.7151
41.6924
5.57661
4.93099
26.8239
81.3691
32.8772
107.148
115.825
70.5979
116.761
68.2837
86.7032
58.6486
7.08471
10.9559
44.8912
90.1639
6.25176
49.0714
72.67
11.6459
12.0411
84.5964
119.593
76.7799
71.2303
41.9992
80.0523
23.765
22.4115
62.6819
78.6526
20.2695
18.4869
44.2352
87.9374
6.2307
50.2861
5.0672
17.2429
44.3808
29.8105
6.91551
17.1884
6.62575
32.6034
68.5218
11.3894
54.6927
22.1243
30.6748
18.0325
29.6287
79.6761
43.0283
164.154
62.0863
30.1991
12.7007
60.976
156.151
96.1431
6.64854
18.6823
72.8586
29.3798
16.4133
12.5526
70.9426
57.2006
78.012
12.3223
85.1338
97.546
149.591
86.9286
74.3529
64.4899
45.2488
14.199
47.1905
128.124
15.0465
25.0048
13.3153
33.2017
78.9024
8.42491
4.36912
23.8658
11.2229
5.6088
77.7922
91.116
78.8448
38.3033
6.85396
82.0893
24.5893
17.4292
93.3331
20.0227
69.0854
54.2398
23.3401
51.3687
40.1781
24.1132
18.3509
104.639
29.9805
16.0357
19.6342
15.0231
76.0326
40.0423
84.7385
55.27
32.8548
73.5288
55.2027
85.6526
57.6525
15.9398
25.1134
27.5687
28.7902
20.9857
21.1883
6.32151
98.9948
73.9886
79.0345
75.6639
170.047
11.4604
17.4798
51.366
97.8354
16.2382
32.7724
35.0659
13.8387
39.7386
65.7185
79.4583
84.4404
11.6089
46.1357
10.6634
54.8645
130.657
87.9353
108.627
89.9896
65.3463
94.8695
99.1486
38.3943
109.475
8.22025
3.99255
31.4383
30.5251
7.24781
40.3611
60.4548
15.2206
80.386
8.18596
28.5575
134.938
3.69158
75.5301
152.264
100.898
49.921
31.9853
22.0227
120.909
28.7845
137.199
181.529
42.4537
19.756
11.9907
152.97
119.954
192.388
89.1045
41.6635
44.7528
36.8378
45.5808
98.7015
135.953
25.6801
11.328
65.6007
101.424
89.5614
134.582
100.285
121.975
84.1661
152.104
101.799
56.4549
60.6888
90.7028
24.7254
88.9804
23.8151
93.79
84.2263
58.5608
6.51211
15.1947
23.7413
47.8844
79.3268
195.937
151.364
14.4522
75.2867
70.1779
87.3027
20.7927
117.687
48.8629
68.9194
36.9117
204.234
16.7753
49.6197
11.5778
6.59852
72.1559
31.8708
139.042
87.8351
22.9093
60.0282
7.90436
15.882
79.2249
11.3273
117.533
125.76
97.2353
83.9719
57.4581
23.3375
64.5689
4.20067
39.1114
44.6021
107.404
10.7657
158.172
138.89
60.6282
11.9689
15.1652
28.5244
19.2913
58.8796
106.049
56.4957
19.9696
77.1323
78.6429
61.2317
78.1957
2.93041
55.7935
51.9439
5.24746
18.1757
20.8853
21.112
6.95799
6.76482
45.9147
39.6412
217.529
5.81867
57.2875
20.2937
4.39773
33.9794
8.28466
7.69251
87.2488
9.34355
17.5316
17.333
35.5208
126.795
28.6585
116.024
63.9271
34.568
48.5931
40.9711
112.083
29.8705
8.29399
29.1958
39.378
168.767
116.459
17.6717
91.4002
15.4558
3.93083
30.7083
14.7332
32.9879
80.3452
16.5544
13.5252
35.466
93.8913
15.8465
104.188
19.1663
19.1358
22.0993
12.2551
28.7412
28.2622
63.6978
40.7999
9.3734
58.8757
38.3881
35.6207
93.6275
30.6858
12.6893
63.7446
118.433
87.1388
112.714
111.194
20.0784
7.51819
37.9994
93.2355
99.0195
70.8102
48.4142
9.75468
195.467
25.4678
24.4724
71.7962
39.066
32.9283
117.73
95.7337
30.1446
16.8649
68.0353
51.7029
98.6303
18.1826
57.7737
56.5737
40.574
61.5049
62.8369
37.2477
39.973
22.1939
20.0259
13.9748
6.36321
20.47
28.9687
45.4904
27.2472
23.9632
7.11361
3.28083
97.2197
20.3964
10.0725
2.25781
2.23071
65.5157
5.50786
45.6052
104.671
80.154
29.7209
128.965
114.223
24.9474
92.9066
121.517
112.669
72.9724
5.32683
4.5711
51.3509
32.1628
27.83
83.7543
85.2798
30.7418
125.588
40.2963
15.6366
58.9393
90.46
39.6308
14.8537
52.2653
11.0681
100.356
206.348
32.7095
7.63583
4.48012
9.66345
5.04879
47.6591
3.47642
13.3614
51.6276
7.21998
28.6642
24.8966
23.6212
34.8403
21.8628
58.5058
35.6093
19.0341
7.13375
10.2964
31.2223
13.5763
15.2405
40.4383
9.81851
31.3626
12.4001
18.3164
17.0721
76.9879
51.8171
22.0136
22.2831
21.1698
14.2132
24.9228
15.9289
31.4597
51.1782
4.48239
31.0402
21.8322
13.0316
67.2617
139.723
77.2264
35.5503
122.027
96.7513
127.932
105.963
20.9528
19.3557
11.4035
131.908
76.5221
117.594
87.2701
23.478
20.4476
38.479
23.9122
45.7899
33.939
40.3861
59.5298
61.4449
87.2166
67.346
84.2215
17.5808
73.0932
61.0462
36.7812
18.5188
29.0686
26.5858
91.0781
40.0383
164.776
43.5123
54.4453
17.0914
9.23546
17.9478
39.5521
56.5137
12.5308
147.342
25.0713
76.8404
14.8722
12.3926
69.2601
14.5837
116.338
20.4729
188.769
122.749
21.9512
29.5526
12.8037
33.7984
68.8192
23.0303
111.272
19.7459
93.3179
29.1247
38.3087
16.5591
30.1568
21.5819
23.0477
132.77
34.035
99.3635
18.0564
8.69353
31.1906
173.85
34.5948
29.5341
51.8916
59.571
16.4154
107.49
105.952
24.3696
35.2571
13.8412
33.5568
20.3367
143.684
71.8273
89.1815
95.8867
141.046
26.7475
49.8777
28.5294
116.382
12.4459
68.6934
28.991
77.4011
60.2331
87.6496
45.6545
65.1542
62.0323
46.097
108.586
7.98084
25.0875
38.5859
86.1283
25.2071
61.684
47.1006
137.538
80.5136
76.2651
54.2932
40.3994
73.0928
39.3888
13.2286
14.6839
28.8114
213.835
69.7622
28.3729
3.46604
38.4226
83.8496
23.4066
123.044
21.1847
36.4038
124.652
29.6071
51.0054
25.3974
22.6111
111.738
27.7657
5.11259
24.1722
19.1594
35.2036
50.6515
251.889
69.5957
85.6502
68.9229
93.3164
20.9121
23.2894
15.9337
71.4504
10.9812
103.266
85.0978
48.6802
90.0865
139.512
76.4876
57.8816
25.3963
103.549
13.5278
71.8035
108.288
57.1613
26.7593
76.8198
10.2307
32.5053
8.98571
133.084
99.7699
17.1116
201.246
14.8499
5.84857
152.432
88.4052
5.95613
13.1877
120.886
30.1594
118.497
37.0465
54.7757
15.965
20.6887
17.1962
74.2905
10.9977
55.2486
4.93346
35.5712
8.17903
28.2666
17.4349
84.5589
18.0063
11.8606
151.607
18.0004
120.121
25.0785
8.05448
57.1638
11.3487
126.725
16.8262
14.5954
58.3395
19.0722
7.50981
48.9685
90.9828
26.9268
63.1127
115.202
22.1967
9.36007
15.0724
79.1861
67.9937
28.2516
6.36195
7.59928
71.6721
25.1339
143.214
16.2195
68.012
141.434
102.887
49.681
76.73
88.3786
59.2464
62.1966
104.005
158.663
61.8299
226.766
104.295
88.214
16.7918
24.3861
10.2429
80.6448
129.788
75.0356
4.98148
131.751
84.0988
127.544
93.9623
5.67283
124.579
70.7364
53.5106
89.7687
4.16151
11.718
32.7385
31.2596
25.8824
30.5174
44.9646
85.6621
75.185
11.9958
4.98355
123.238
113.386
164.136
90.3434
12.6858
112.421
93.9534
9.16726
30.6349
44.335
158.484
43.7484
82.2423
116.885
70.3739
142.673
26.9726
15.5765
17.6729
31.7611
61.0612
118.779
38.5565
16.1213
26.8103
110.655
29.6125
12.382
93.2407
46.9722
105.553
4.97235
37.9975
56.6907
76.7623
37.1932
37.3447
118.062
105.676
9.24863
32.3947
14.5812
121.185
61.2529
11.4764
10.0189
13.6406
68.216
98.0077
16.0339
39.2902
3.47156
16.5894
12.5398
64.5084
90.8286
131.549
61.1137
82.4547
51.6896
36.0782
14.7179
87.7247
88.1616
15.337
102.989
98.7281
83.5229
14.8614
62.1361
18.5458
37.7111
91.6513
11.519
16.0352
80.9175
72.2665
89.9093
21.8284
126.838
35.4946
27.2412
15.4577
13.7051
12.1909
17.2421
27.4884
108.026
103.093
21.4477
93.0784
74.7693
32.5271
93.6257
35.5302
71.0655
103.115
57.3903
101.05
27.4995
30.7929
25.2325
69.5988
23.2287
64.7336
102.375
142.026
86.6085
9.39591
22.5869
11.0611
50.6173
109.598
286.836
31.139
25.9419
43.1238
10.3356
60.6223
11.4994
147.782
18.1988
103.627
104.461
115.776
98.5656
136.719
130.116
131.143
136.398
174.608
177.125
198.071
179.999
176.086
176.7
178.12
162.405
224.821
141.819
158.616
253.017
270.64
176.555
245.79
175.528
170.468
161.509
95.3934
91.6709
5.89789
10.6472
67.1879
22.0353
12.4282
16.7791
4.64085
26.2384
124.793
80.8162
105.9
21.6841
30.0702
10.8778
46.8485
17.756
61.5631
26.358
121.701
35.9076
42.8205
138.707
79.3971
151.144
23.8935
14.2524
7.90119
9.24809
7.16259
35.837
50.483
59.5307
96.4755
9.90975
12.4278
37.0311
16.6258
13.0102
25.1009
105.547
32.525
18.1409
31.1033
105.119
37.1426
13.9183
54.979
46.5917
68.0302
86.1717
128.272
84.5871
10.8704
55.4795
100.572
43.6115
138.21
36.6836
148.511
34.1036
79.9559
135.53
2.74292
50.9729
25.815
66.9422
4.16942
102.232
74.7895
102.157
30.32
29.0945
31.6866
82.9212
32.47
13.704
16.9233
83.1651
137.592
90.9776
18.7596
149.023
110.991
28.1941
138.862
72.1559
12.1061
3.62304
34.5438
51.9805
135.758
216.746
62.3075
70.9502
5.34824
14.5432
48.1812
68.912
96.4942
11.7474
74.7913
37.9407
17.1369
3.83694
36.7686
7.65996
50.4173
82.8488
6.09932
11.6535
136.72
11.0231
85.0914
20.7155
51.5724
125.794
111.619
150.276
85.8134
103.968
101.124
106.966
76.0825
91.679
61.3525
19.1637
36.2101
129.588
36.1939
9.80915
33.4341
70.1204
34.6982
14.3307
83.899
7.11033
38.5512
38.5828
13.5295
12.8401
36.9508
13.5385
28.2156
15.4487
51.0643
133.189
25.1192
13.8208
11.3793
94.9108
37.9339
14.561
27.7077
126.193
14.2877
25.1262
24.2195
7.30801
28.5454
39.4812
8.34073
107.323
105.686
24.8327
16.1724
3.3599
77.9369
30.6385
13.242
15.7623
13.9415
24.2626
6.64591
14.2942
14.0501
19.6421
11.3575
8.04504
143.715
14.4446
14.8886
14.3936
14.9976
39.6541
43.4121
11.1998
11.7459
13.1716
13.8654
63.7505
110.588
66.2917
28.967
20.6473
100.031
120.023
34.1444
121.23
84.5474
38.1281
38.0869
16.8476
8.888
121.679
60.0417
143.039
50.0466
8.1913
143.548
41.0027
49.7335
67.4724
117.188
92.4234
128.83
10.3969
94.1416
35.9499
101.883
97.1178
150.983
6.48743
20.9598
15.106
65.0581
44.1369
60.063
72.9058
52.8613
18.87
16.009
19.686
39.6219
89.8045
90.6801
122.065
105.65
11.1507
3.85576
30.4148
54.947
48.251
22.3838
17.2144
7.70415
38.7385
92.6014
46.7841
55.3695
101.446
7.81788
10.0239
23.1157
64.2836
35.0326
112.722
20.465
88.5627
138.408
93.9011
87.9112
144.136
34.2766
103.443
99.6416
18.5476
39.8214
26.7153
28.1987
10.822
11.5956
83.0718
63.9279
94.1044
112.098
118.265
149.298
34.8882
32.055
83.5254
74.956
108.29
108.986
9.4371
11.6046
60.9291
73.7841
6.91917
102.339
36.6468
34.1815
51.3492
43.7792
18.6218
17.0918
12.1962
53.551
8.34745
19.4762
37.9348
34.2227
23.6591
240.801
6.53709
22.2107
22.5739
16.0811
9.34338
39.5266
23.54
14.1917
6.04984
51.2322
63.5948
131.959
101.494
94.2765
10.0147
63.3956
6.33861
98.8733
58.9005
3.57808
47.2688
46.3736
86.4644
97.5529
66.5841
72.7968
103.583
8.8108
10.3652
110.62
17.359
4.46964
33.077
4.98783
97.5684
19.3204
116.691
9.0162
140.501
49.2872
5.30101
126.27
40.7788
6.69538
83.1632
84.7411
40.186
79.7591
36.6596
112.691
45.5375
87.3789
13.3167
47.485
32.7319
114.003
42.1604
123.143
157.618
68.8257
169.029
162
161.074
6.91831
30.373
54.4986
10.5731
114.616
13.1406
66.5211
97.1063
26.9296
128.304
57.7542
5.99681
34.6214
31.0886
8.96365
35.1667
22.2018
22.5622
14.0997
212.393
113.982
78.7008
78.3214
12.427
6.49373
121.162
76.4594
72.0814
62.5535
74.3545
77.3567
150.632
55.1662
46.7825
112.167
6.28835
63.9441
127.604
91.197
23.7822
15.6626
9.28299
25.8707
14.8202
25.7726
22.8388
83.2279
8.05128
14.3157
57.9537
28.7827
75.183
103.491
90.5797
6.75761
85.9185
47.9801
6.51499
5.44461
8.19096
11.6052
205.32
12.6414
94.492
18.3996
16.4677
9.23948
3.96151
109.475
6.43498
11.6248
73.1102
11.7823
105.135
90.1876
109.528
61.4333
43.0172
35.3384
23.6
53.3712
15.0274
32.6892
102.117
3.40947
57.6474
74.8711
32.0781
67.4945
53.2616
123.026
22.5694
45.8839
14.6492
48.8029
116.973
46.5379
11.027
10.194
16.6633
12.7349
99.4014
75.9703
42.2662
53.9849
157.786
25.6265
108.501
58.8549
64.6085
58.6309
27.5736
69.2151
99.5363
9.23883
31.0921
103.034
18.6532
146.428
42.7428
77.8667
134.111
75.936
112.227
107.503
90.7051
104.84
9.8439
13.8871
11.2744
4.28494
27.4302
9.75318
74.2965
31.412
81.7658
56.9541
117.046
79.3583
122.547
11.7776
120.768
100.276
25.7764
10.9842
137.268
51.068
27.1265
29.9633
71.4126
34.2379
158.979
31.3987
23.0191
11.2988
10.1945
65.0931
82.2779
65.7865
14.5827
181.543
74.8619
47.4904
148.996
7.65362
9.53366
89.6612
74.4213
15.2142
18.8435
49.0002
15.0269
49.1849
163.443
35.8651
13.1815
45.8133
153.489
62.2217
68.9063
37.6343
67.2028
10.2902
7.56326
6.78549
22.0598
43.0961
22.1026
112.521
6.85663
5.10012
118.127
14.8965
63.6733
30.1171
23.3468
)
;

boundaryField
{
    frontAndBack
    {
        type            empty;
    }
    wallOuter
    {
        lowReCorrection 0;
        type            epsilonWallFunction;
        value           nonuniform List<scalar> 
108
(
107.148
156.151
96.1431
8.28466
9.3734
18.0004
25.0785
8.05448
11.3487
19.0722
7.50981
26.9268
22.1967
9.36007
7.59928
10.2429
127.544
31.2596
25.8824
16.1213
16.5894
131.549
13.7051
32.5271
104.461
115.776
98.5656
136.719
130.116
131.143
136.398
174.608
177.125
198.071
179.999
176.086
176.7
178.12
162.405
224.821
141.819
158.616
253.017
270.64
176.555
245.79
175.528
170.468
161.509
95.3934
10.6472
30.0702
151.144
9.24809
105.119
148.511
34.1036
149.023
74.7913
11.6535
111.619
106.966
76.0825
38.5828
36.9508
15.4487
37.9339
28.5454
39.4812
105.686
3.3599
3.3599
13.242
13.9415
14.2942
14.0501
143.715
14.4446
14.8886
14.3936
14.9976
39.6541
43.4121
11.1998
11.7459
13.1716
13.8654
63.7505
121.23
84.5474
8.1913
67.4724
97.1178
150.983
46.7841
55.3695
138.408
93.9011
63.5948
10.5731
121.162
62.5535
14.3157
47.9801
12.6414
10.194
16.6633
157.786
)
;
    }
    inlet
    {
        type            fixedValue;
        value           nonuniform 0();
    }
    outlet
    {
        type            zeroGradient;
    }
    wallInner
    {
        lowReCorrection 0;
        type            epsilonWallFunction;
        value           nonuniform List<scalar> 
126
(
41.9992
80.0523
23.765
22.4115
62.6819
78.6526
20.2695
18.4869
44.2352
87.9374
6.2307
50.2861
5.0672
17.2429
44.3808
29.8105
6.91551
17.1884
6.62575
32.6034
68.5218
11.3894
54.6927
12.5526
13.3153
33.2017
78.9024
8.42491
4.36912
23.8658
11.2229
5.6088
77.7922
91.116
78.8448
38.3033
6.85396
82.0893
24.5893
69.0854
54.2398
19.6342
15.0231
73.5288
55.2027
25.1134
27.5687
28.7902
6.32151
130.657
30.5251
11.9907
117.533
125.76
97.2353
4.20067
39.1114
158.172
138.89
60.6282
21.112
6.76482
39.6412
217.529
39.378
168.767
116.459
20.0784
71.7962
95.7337
98.6303
97.2197
10.0725
90.46
100.356
206.348
7.63583
9.66345
13.3614
7.13375
13.5763
9.81851
164.776
188.769
173.85
251.889
201.246
226.766
50.6173
286.836
150.276
90.1876
53.3712
181.543
47.4904
148.996
7.65362
9.53366
89.6612
15.2142
18.8435
49.0002
15.0269
49.1849
163.443
35.8651
13.1815
45.8133
153.489
62.2217
68.9063
37.6343
67.2028
10.2902
7.56326
6.78549
22.0598
43.0961
22.1026
112.521
6.85663
5.10012
118.127
14.8965
63.6733
30.1171
)
;
    }
    procBoundary1to0
    {
        type            processor;
        value           nonuniform List<scalar> 
29
(
16.8166
16.8166
20.0898
27.1067
45.1035
39.1929
121.686
61.398
86.3201
27.7974
35.3926
39.1929
20.0898
19.8374
58.883
19.3518
45.1035
55.463
27.1067
13.7
9.84233
5.76808
64.2451
10.618
10.618
64.2451
7.16254
76.0066
7.16254
)
;
    }
    procBoundary1to2
    {
        type            processor;
        value           uniform 9.27298;
    }
    procBoundary1to3
    {
        type            processor;
        value           nonuniform List<scalar> 
48
(
65.0945
85.236
81.6945
81.6945
59.4403
109.01
109.01
8.29179
36.0476
7.48713
7.60398
7.48713
6.02967
15.5127
13.9823
6.02967
5.98724
5.98724
5.3139
5.3139
18.4842
17.404
6.05182
36.7372
36.7372
5.62173
15.679
15.679
10.235
49.2957
15.7159
10.235
8.29179
27.6473
3.6004
49.2957
17.9221
7.60398
53.26
50.4841
20.5607
27.4276
27.6473
3.6004
10.6433
75.5508
53.4204
20.5607
)
;
    }
}


// ************************************************************************* //
