/*--------------------------------*- C++ -*----------------------------------*\
| =========                 |                                                 |
| \\      /  F ield         | OpenFOAM: The Open Source CFD Toolbox           |
|  \\    /   O peration     | Version:  v1912                                 |
|   \\  /    A nd           | Website:  www.openfoam.com                      |
|    \\/     M anipulation  |                                                 |
\*---------------------------------------------------------------------------*/
FoamFile
{
    version     2.0;
    format      ascii;
    class       volScalarField;
    location    "0.35";
    object      p;
}
// * * * * * * * * * * * * * * * * * * * * * * * * * * * * * * * * * * * * * //

dimensions      [0 2 -2 0 0 0 0];


internalField   nonuniform List<scalar> 
1431
(
77.8513
77.3839
76.4838
74.1851
76.9784
70.411
66.593
83.1743
74.5593
75.4292
77.8739
78.7517
72.0165
88.5421
78.9122
78.891
79.1547
76.7196
74.3221
77.5775
76.9799
75.7502
75.043
89.4447
63.6512
77.4727
55.2159
87.6986
74.4027
72.9611
99.1118
105.544
68.8269
62.8962
69.4846
75.5049
77.6974
82.1812
65.8585
82.2519
95.9363
76.554
63.6066
70.5052
68.2438
77.3317
78.5602
103.735
100.101
83.4738
71.1672
75.0524
74.1321
60.7762
68.703
96.8556
74.668
70.3491
62.9127
76.9166
77.7163
76.6829
78.3922
82.8986
84.9204
76.2702
74.8993
70.7918
75.5588
83.3484
64.1384
70.7478
77.2942
68.2848
78.8953
69.001
77.092
69.5553
83.389
57.4852
82.9284
73.1794
76.0491
77.4715
62.4826
76.9448
76.9309
72.0846
90.3834
77.3477
77.1121
72.8171
76.9416
81.9463
75.4293
76.9191
78.5306
85.1393
76.857
99.0763
75.0601
82.1147
77.5618
76.9013
75.1912
75.1013
83.0935
99.4082
100.976
76.9886
57.3205
76.3149
83.717
77.1484
75.811
76.9059
76.8441
78.2247
91.2941
69.2733
80.6791
73.2169
75.0002
94.1717
82.5275
75.2149
92.1416
77.7951
77.4983
82.5827
76.4771
100.242
90.7641
77.4501
76.957
74.5013
77.0921
75.8583
77.358
99.8194
74.6563
76.8551
82.055
100.179
101.387
80.8229
84.6131
99.821
76.9003
98.4812
83.5669
86.0005
77.405
73.8254
76.8915
77.0855
82.9151
77.2789
84.5045
93.4269
76.566
77.308
77.5771
74.0316
76.8818
54.4136
76.9629
81.394
71.4936
77.6113
92.0351
78.3988
97.9423
83.8334
82.5801
77.12
72.8088
84.2703
73.1464
90.1559
82.5681
78.1678
90.3495
77.3204
82.2548
93.0996
82.2412
68.5796
77.5023
82.8655
76.133
78.4639
77.0044
82.7669
77.0767
80.4257
83.1096
102.133
76.1744
76.5508
76.7455
101.759
96.9284
94.6237
83.0101
57.4859
76.919
83.1185
78.2441
87.1342
82.7488
83.6901
94.8847
83.078
73.6754
66.4606
85.4305
76.7143
76.285
82.796
82.843
53.137
82.2108
89.2686
83.4539
76.9615
95.902
77.4128
87.8251
99.4736
76.9509
74.0495
83.2338
81.6149
82.83
83.438
84.3804
77.6677
82.8495
76.6903
84.726
95.2447
74.2356
78.1176
75.5371
73.7264
82.0908
67.6315
61.7133
90.9248
88.8593
74.4569
75.4283
102.16
78.2044
83.8985
72.8986
76.9416
82.772
83.2768
83.6905
72.649
76.8296
74.6953
83.0176
86.9411
78.4629
82.1436
88.9434
74.0526
83.3434
98.9669
87.85
86.8685
83.4578
80.3336
77.3995
77.5792
74.7848
75.5011
74.4471
76.301
76.5836
77.2971
80.3086
70.8262
76.9867
88.8565
89.7555
84.0679
80.6759
82.9409
88.7192
75.2873
90.3355
85.7659
77.1291
88.3896
76.9315
91.7091
82.7221
97.5276
75.097
101.816
77.084
77.0634
82.9827
83.6399
82.981
75.5999
83.7118
82.272
77.1254
76.8451
71.91
76.9921
75.4565
75.5469
82.4317
73.4846
76.8264
73.3127
75.0905
76.4003
73.4898
73.8298
82.8375
74.3734
96.4614
83.4579
77.3908
74.5398
76.2865
75.8575
82.6679
74.3464
72.342
73.6728
71.7038
71.7898
76.8218
82.9108
74.2949
72.7013
87.7413
74.3639
83.3498
76.5752
75.9273
75.9089
76.1472
75.8348
76.6081
76.256
73.779
76.1248
75.8607
74.2653
76.7862
76.421
72.5436
73.5897
75.6882
76.2467
75.8887
76.4931
73.7934
74.3584
76.7675
77.4592
77.3381
76.6991
73.5097
91.7114
76.2518
76.0959
77.4076
81.7687
80.8427
76.894
76.0888
76.2385
75.9275
75.9857
73.6739
74.842
75.0721
74.0471
76.5944
76.053
76.1754
76.6043
94.5695
81.7109
73.9253
76.1523
74.4901
82.9953
73.3659
83.0286
77.0648
77.2293
82.9994
72.1883
77.041
80.1515
75.0003
101.574
75.734
77.4329
80.1644
76.4446
75.4858
73.8972
100.774
114.711
77.4022
74.3875
72.9883
75.2096
76.0167
74.4766
75.054
77.7635
74.8536
77.6495
77.7108
76.0571
67.9355
78.1753
68.224
77.8409
76.5911
75.5797
75.7509
78.0825
74.0536
76.2159
77.8403
60.9928
67.3499
75.9422
76.0151
76.3217
77.8156
73.668
73.7006
77.9174
77.5721
75.5163
75.2053
75.0945
74.182
75.3741
75.185
75.3411
75.1289
75.2554
75.179
75.029
71.4605
79.0428
63.182
72.3231
74.3076
73.8487
75.7272
72.2964
66.6764
73.2465
72.9367
75.899
101.571
98.5148
66.2333
73.4038
76.737
76.7916
78.5988
76.3176
75.8178
75.3664
85.5282
81.4737
101.545
72.3032
71.9724
74.1532
75.7251
77.6405
77.7742
78.5476
73.3079
81.1663
77.5569
74.5788
74.1516
76.8457
82.985
77.2212
69.9706
72.3867
76.6225
78.365
78.142
77.5924
73.5528
74.6413
77.6055
75.097
74.828
77.8188
84.3896
76.4528
82.9098
77.6185
79.217
72.1384
76.7963
74.7537
77.3346
77.8055
77.0893
75.8423
75.0449
74.5472
76.7088
76.5767
77.6946
76.6891
101.508
102.277
77.7019
77.4191
75.1004
75.9906
77.2105
77.0957
74.091
81.8451
78.2587
77.637
77.2606
73.1293
76.1423
74.1971
76.6278
82.9124
74.7688
73.78
77.5434
76.7273
82.3639
75.2385
75.5987
76.8552
77.9214
77.511
81.4157
86.7716
74.6488
77.7528
77.9911
79.7208
68.3252
75.5011
73.8543
88.0243
77.6349
77.9979
74.0022
73.3857
78.4791
73.7355
77.4473
77.1407
73.9176
75.0994
77.8181
85.0594
73.5355
82.9608
76.6771
78.2931
76.3713
77.4446
76.8463
81.6306
71.9323
86.0966
74.0761
71.6719
79.6597
82.2214
83.2245
77.6716
75.7125
76.4423
87.0045
74.3549
77.0064
76.7909
73.9386
77.0589
77.1068
73.6671
77.5165
74.2008
73.8867
77.5269
81.289
73.3061
74.9301
75.7882
79.3271
86.0457
76.1831
74.8617
76.6615
74.2752
74.6934
76.2628
76.7447
74.1291
76.78
107.649
74.4586
75.9284
73.5174
82.8232
73.5443
76.6254
77.0844
82.7941
76.6774
74.6326
74.2294
90.2932
80.1204
76.6883
77.4359
74.7855
82.8187
73.2766
77.0694
77.7387
77.7359
74.1928
74.8586
76.5885
75.9696
76.7559
85.4572
80.5617
74.1745
74.0277
83.0927
82.2501
76.0839
73.3164
78.5987
76.6581
76.8541
76.9949
83.2896
74.4351
77.9166
74.6683
73.7285
77.4158
76.219
82.9502
76.7991
78.7932
101.372
100.667
67.61
73.2808
72.9207
82.3248
78.1244
76.5985
75.1284
75.5362
76.5105
77.6461
74.3906
78.1988
77.5228
74.128
99.8097
78.6443
77.927
77.7531
73.4972
74.1435
76.4413
75.2323
83.0421
91.7978
77.5462
74.2893
87.1365
73.6486
76.9038
113.124
79.7686
73.3033
75.6454
94.6745
73.8977
75.6442
74.5258
75.0105
76.1726
83.3772
77.2473
76.2841
93.8188
77.5052
83.1676
84.644
82.7618
78.1063
72.3461
83.8462
75.6987
74.8211
92.9669
73.045
74.0737
77.1011
92.399
91.7537
78.9888
86.1793
77.0107
77.6376
73.2959
76.9126
78.5479
74.0448
102.82
77.138
85.2436
83.7857
87.8884
88.7385
93.0903
74.5335
74.4899
89.4106
91.0586
89.4539
77.0679
76.6116
82.2527
83.1362
83.5615
92.9215
75.1325
91.2396
95.4571
87.7496
82.6557
75.1206
76.5512
94.0567
84.8221
90.2813
77.2457
84.6873
75.822
75.3976
76.5715
86.6469
76.7308
77.3385
75.5338
74.4665
76.4285
76.3005
88.6251
75.3193
74.8621
91.9496
75.7301
75.3802
76.336
93.6484
77.2683
85.2513
95.9956
124.46
81.6034
82.8976
76.0541
74.9849
80.3769
82.4675
74.2634
78.7405
95.9823
73.7891
76.6001
76.5292
80.2172
76.2986
73.2989
77.2664
83.6173
82.5661
74.112
76.466
62.708
84.3177
84.0848
81.5581
81.6638
81.7809
84.9585
83.1182
87.7782
76.6747
76.4859
83.5838
77.3576
78.4358
73.0308
76.5225
77.8054
75.8337
75.9108
76.721
72.0666
77.6712
75.457
82.6904
77.5912
74.6783
84.4316
99.7882
84.8011
81.4568
71.9576
98.0317
74.2106
77.2296
76.8124
82.9243
77.0649
77.6279
77.1916
75.8753
105.713
76.9679
74.3195
73.2441
82.5859
83.1609
82.8097
77.1674
74.516
75.6071
75.4783
77.4597
81.691
93.3846
76.5674
72.8638
101.257
84.28
77.029
77.8573
75.8766
92.0404
62.6577
70.4445
76.3566
83.0289
76.7446
71.869
76.4662
75.7961
83.3507
77.7585
76.8322
70.233
69.0323
100.213
85.032
76.65
71.1877
83.2162
77.5624
75.2268
75.7504
75.1846
73.9557
75.4781
71.9095
71.6886
75.2441
76.3947
97.2246
99.5042
84.9231
77.755
75.7847
74.4738
76.931
82.7555
76.7206
73.334
74.9892
78.0344
77.2253
83.4472
77.0296
74.3912
75.2039
83.533
76.7478
82.8703
82.9393
85.4227
72.8821
83.2256
75.2217
93.8
76.6658
93.8431
76.8091
78.8964
78.1829
78.5602
79.1176
77.851
77.6551
76.596
76.7318
73.1653
83.1992
77.6293
77.6336
76.8391
55.5279
77.0505
75.2958
78.0641
74.3372
76.8933
78.3219
75.1034
93.7881
74.2738
77.6932
76.2485
74.5428
76.4609
75.0779
74.5012
73.1255
74.3789
76.8356
78.0134
77.7636
79.7022
76.977
77.0193
73.5316
74.7584
76.8303
72.7995
74.9646
74.9374
82.9705
77.9416
77.8518
75.9878
77.5295
85.8223
75.0344
74.4632
75.2564
70.3939
76.843
84.1448
77.9184
79.9743
76.9254
83.3464
74.2138
77.5297
83.4222
73.7307
77.2925
88.9738
61.2666
76.9986
74.8228
73.7107
83.7284
64.1877
71.6201
83.585
71.803
78.7921
80.4735
77.1854
75.095
75.5759
82.8126
85.938
98.2374
76.5289
78.8117
74.7798
76.0407
73.8468
78.186
77.073
74.6478
69.5948
85.8019
73.3024
76.6511
73.6592
79.2038
97.1589
74.3252
75.7082
77.7045
77.5877
77.6968
74.686
77.982
82.466
74.5951
75.5345
76.4794
76.9826
76.3873
74.2947
74.5813
73.3019
69.3889
73.7039
91.3372
79.0118
72.968
81.8138
74.0619
77.6982
61.7333
68.6947
76.8893
85.6915
73.3335
101.799
74.3269
79.3158
78.1659
64.9034
104.133
77.2321
79.3781
83.1448
81.9638
74.1907
76.7153
82.3991
78.002
82.2543
83.1
76.4769
76.9513
80.254
83.5331
83.4439
76.9637
74.8263
74.7204
75.8244
102.827
76.9465
78.556
98.9861
83.0546
78.568
73.745
86.6612
73.3074
103.255
80.514
78.0605
76.2041
83.5775
77.5862
80.0582
77.6539
77.4315
79.25
61.3483
76.4468
83.5997
78.4737
76.3117
74.1252
86.8156
75.6472
79.1295
74.4437
99.4252
75.7925
100.361
77.8977
76.2132
94.0622
96.5204
76.8204
72.4146
83.5577
77.1865
62.8751
77.9934
75.6726
74.5583
62.5905
69.8553
83.5837
75.3386
77.9197
76.5649
76.2212
77.0377
76.5738
78.6832
77.2834
75.8402
76.0905
76.5929
75.4605
75.418
77.4204
82.5366
64.1052
76.8904
77.1557
83.1574
69.5251
76.163
75.5001
78.9203
75.3387
74.5089
75.6969
86.722
93.9231
83.7683
65.8109
77.052
75.9348
75.7186
74.5411
97.6811
99.976
75.9534
76.0487
77.7919
82.835
67.4171
77.8693
75.6795
81.3348
81.1289
100.539
75.794
76.2317
75.7186
94.8282
69.9864
96.5721
77.3221
74.7078
78.6975
84.4019
77.3025
84.0603
75.6868
74.0558
81.5742
85.5058
77.2762
78.8103
73.7896
64.2647
75.0334
77.6345
83.5174
78.8096
75.1958
72.0236
73.7865
78.6074
84.5072
77.7451
72.6194
73.452
82.8219
82.5844
84.421
74.4112
77.2513
73.3926
75.5402
71.8418
76.464
75.9643
76.4518
75.0542
74.1276
81.3549
76.9829
78.9454
99.2463
77.8476
102.043
81.9965
81.702
84.6866
69.1419
76.9686
60.3642
77.1093
73.8029
63.6435
76.9584
74.6013
77.2396
75.9074
77.1592
79.3111
64.0995
71.7831
75.3236
76.8618
71.7327
77.3649
100.895
76.911
72.8703
82.9333
76.4169
77.5557
73.2926
77.3126
78.0465
73.6384
76.4849
72.9755
77.1402
83.0805
76.0327
82.919
80.234
77.7238
69.2437
75.8581
77.7341
77.7639
76.9018
75.9333
83.3995
78.3137
82.6121
80.1397
77.4859
83.2827
85.7079
79.2529
76.639
105.892
111.497
77.4821
77.3206
74.1014
74.6668
75.7006
75.9997
82.3767
78.904
76.8487
74.5917
77.9186
81.3295
76.6352
79.1877
72.2369
76.6302
74.0297
83.336
78.5012
75.5382
75.4265
74.8149
75.5577
82.951
77.2311
74.8051
81.0419
85.3118
77.1415
74.5082
77.075
77.04
77.9111
76.0503
76.95
74.9891
77.216
77.6189
76.4743
75.1507
76.9375
78.8569
70.541
75.9322
75.1368
77.2907
77.6943
77.4166
77.436
74.5825
84.1352
74.1846
56.7717
82.7595
74.2123
76.9383
102.443
76.7087
75.177
68.9628
77.0024
73.2059
74.1319
82.6924
76.0853
74.4898
73.6894
81.3106
74.2994
76.9384
74.331
73.8131
76.7558
82.8716
77.6007
77.9158
76.1155
75.7625
102.235
73.83
79.5341
75.7641
77.569
85.1676
74.538
85.2164
84.2901
77.8235
78.6724
73.1843
77.1022
76.9956
78.622
74.5493
106.585
74.987
78.7907
86.9196
73.8401
98.6796
82.4788
86.2886
77.5892
81.5288
76.605
76.8434
76.9353
77.7537
66.583
74.3489
73.7553
73.8288
79.8522
73.8849
77.9725
79.1683
77.8671
83.5774
83.397
81.9942
75.8885
71.9645
81.3535
82.6552
83.475
82.9377
77.3971
74.7696
75.2892
75.5007
83.853
99.1738
75.844
75.2593
75.0112
75.542
78.522
82.8847
84.5424
65.9979
108.683
64.8247
67.7082
100.269
70.5508
73.3602
79.5831
)
;

boundaryField
{
    frontAndBack
    {
        type            empty;
    }
    wallOuter
    {
        type            zeroGradient;
    }
    inlet
    {
        type            zeroGradient;
    }
    outlet
    {
        type            fixedValue;
        value           nonuniform 0();
    }
    wallInner
    {
        type            zeroGradient;
    }
    procBoundary0to1
    {
        type            processor;
        value           nonuniform List<scalar> 
29
(
66.3795
66.2605
61.6689
61.6689
67.6631
67.6631
101.164
68.0458
71.913
64.7848
67.1093
67.8123
62.9925
66.8428
101.507
101.783
67.256
68.0153
62.432
66.7671
101.638
101.494
69.3756
101.768
101.918
68.0153
102.546
101.051
101.768
)
;
    }
    procBoundary0to2
    {
        type            processor;
        value           nonuniform List<scalar> 
42
(
75.4973
75.5817
76.7977
76.7287
73.7771
75.4973
76.7977
76.7353
74.4275
75.5163
73.3645
73.8091
73.3645
73.992
74.4371
74.8712
74.4371
75.6888
75.0968
68.7616
68.7616
75.6888
75.7188
71.1877
71.1877
75.6529
72.209
75.6225
73.6518
75.4734
75.4734
75.6672
75.8485
76.1317
76.3827
76.7977
75.2129
76.8484
73.6518
76.7353
76.6298
76.5458
)
;
    }
}


// ************************************************************************* //
