/*--------------------------------*- C++ -*----------------------------------*\
| =========                 |                                                 |
| \\      /  F ield         | OpenFOAM: The Open Source CFD Toolbox           |
|  \\    /   O peration     | Version:  v1912                                 |
|   \\  /    A nd           | Website:  www.openfoam.com                      |
|    \\/     M anipulation  |                                                 |
\*---------------------------------------------------------------------------*/
FoamFile
{
    version     2.0;
    format      ascii;
    class       volScalarField;
    location    "0.29";
    object      nut;
}
// * * * * * * * * * * * * * * * * * * * * * * * * * * * * * * * * * * * * * //

dimensions      [0 2 -1 0 0 0 0];


internalField   nonuniform List<scalar> 
5794
(
0.00258661
0.000694406
0.00280325
0.00100957
0.00467186
0.000957234
0.00109435
0.00183763
0.00280954
0.00170622
0.00206978
0.000853
0.00129556
0.00236807
0.00223536
0.000787244
0.00469438
0.00118835
0.00129495
0.00056805
0.00164728
0.00168746
0.00173152
0.00117546
0.00170756
0.00416722
0.00483989
0.0036142
0.00343549
0.000835539
0.00175353
0.00138451
0.00209677
0.00100748
0.00337686
0.00255746
0.000786642
0.000675579
0.00197532
0.00254573
0.00366706
0.00257844
0.000737976
0.00162728
0.00236339
0.00239328
0.00122906
0.00120697
0.0012001
0.000997461
0.000279866
0.00307294
0.00138742
0.00190687
0.000116006
0.00246291
0.00167164
0.00154792
0.000715137
0.00528914
0.00130222
0.000659019
0.00183729
0.00344231
0.00419865
0.000768821
0.00384089
0.000544079
0.00133528
0.000803399
0.00581326
0.00432025
0.00560856
0.00196735
0.00101475
0.00317539
0.000486226
0.00376297
0.00193505
0.000128353
0.000873165
0.000758044
0.00253177
0.00148144
0.000738426
0.000864855
0.000738317
0.000956478
0.00179102
0.00303311
0.00469016
0.0027766
0.00294678
0.00483196
0.00267532
0.00822789
0.00359915
0.00271265
0.00270575
0.0013928
0.00146853
0.000868717
0.000738358
0.00205409
0.00211993
0.00405858
0.00057936
0.00338542
0.00531557
0.00213765
0.000639139
0.00269838
0.00148618
0.00091489
0.00290984
0.00359862
0.00147993
0.00391612
0.00121758
0.00100761
0.00380018
0.000532879
0.000517145
0.00364657
0.00353543
0.00340353
0.00226465
0.000924349
0.00370725
0.00431714
0.00106127
0.00141162
0.00196624
0.00360699
0.00438454
0.00253564
0.00269832
0.000714967
0.000578372
0.000692622
0.00217378
0.0034804
0.0040426
0.00191645
0.000775087
0.00688062
0.000960105
0.00130443
0.00333214
0.00174015
0.000723378
0.00253439
0.00417434
0.000534667
0.00588855
0.000891518
0.00156844
0.000866508
0.0021157
0.000628564
0.00115812
0.00113541
0.000503088
0.00121885
0.0021163
0.00210242
0.00117118
0.000816822
0.000521679
0.00104218
0.000530066
0.00208619
0.000834226
0.00127929
0.000497669
0.00109667
0.000602386
0.00147221
0.00054161
0.0021363
0.000546229
0.000961868
0.000957422
0.00174357
0.000889468
0.00259748
0.000726307
0.001035
0.000966831
0.000551188
0.00167725
0.00105783
0.00181061
0.00136139
0.000775112
0.000565501
0.00151646
0.0012076
0.00108791
0.00100534
0.000849491
0.00229404
0.00118688
0.000883434
0.000945299
0.00205343
0.00113034
0.00503882
0.00273139
0.00266203
0.00257651
0.000860018
0.00297963
0.00310985
0.00107368
0.00354169
0.00208983
0.00190838
0.00382775
0.00468234
0.000858738
0.00236023
0.00701582
0.00344017
0.00215926
0.002757
0.000456706
0.00420567
0.00125147
0.0020759
0.00141962
0.0046462
0.00113631
0.00388845
0.0011825
0.00383809
0.00359369
0.00177544
0.000766576
0.00183122
0.00100186
0.00738457
0.00315461
0.000628818
0.000813095
0.000761188
0.00320211
0.00223256
0.00116191
0.000925175
0.000684108
0.000679393
0.00575766
0.00063855
0.000800595
0.00474116
0.00088971
0.000833468
0.00278497
0.00267624
0.00217643
0.00308782
0.00300674
0.00050208
0.00114887
0.0017715
0.00158514
0.00346765
0.00141363
0.00290242
0.00140369
0.0013421
0.00245032
0.00511682
0.000870725
0.00152398
0.00185312
0.00185275
0.00127996
0.00103711
0.0013468
0.0029495
0.00376492
0.00250651
0.00251525
0.00488602
0.00240536
0.00277676
0.00392747
0.00401148
0.00174219
0.00478166
0.00137493
0.00331664
0.000765793
0.00311074
0.00514072
0.00206293
0.00217295
0.000594645
0.000484514
0.00101321
0.000668959
0.00445832
0.00140091
0.00293101
0.00112782
0.00122761
0.00247314
0.00110795
0.00126026
0.00261756
0.00316921
0.000878745
0.000783089
0.000900478
0.00436951
0.00327153
0.00474801
0.00386114
0.0035368
0.00289006
0.00337027
0.00360104
0.000661803
0.0020814
0.00295708
0.000720215
0.000952936
0.00189583
0.00201007
0.000820103
0.00107051
0.00147707
0.000905634
0.00120377
0.00109397
0.000430219
0.000760991
0.000768118
0.000488984
0.0011324
0.00263211
0.000986643
0.000718961
0.00082342
0.0019186
0.00106227
0.0024924
0.000562862
0.00214351
0.00175544
0.00164389
0.000930123
0.00108137
0.00172385
0.00086585
0.00201481
0.000940347
0.00180534
0.00497105
0.00113362
0.00265339
0.00165123
0.0022569
0.00164751
0.00191598
0.00162872
0.000805912
0.0010952
0.00287419
0.000439264
0.00239739
0.00106338
0.00667874
0.00318367
0.0017472
0.00124731
0.00162298
0.00047722
0.00261464
0.00276573
0.000750355
0.00264337
0.0022738
0.000902985
0.00531916
0.0031426
0.00367254
0.00125385
0.000806397
0.00169824
0.000695726
0.00154399
0.000788969
0.00145852
0.000528806
0.00185827
0.00153913
0.00176915
0.000885404
0.00232931
0.00426392
0.000439286
0.00137076
0.00228147
0.0014706
0.00160703
0.000618718
0.00339337
0.00297818
0.00241601
0.00450697
0.00127031
0.001764
0.000782554
0.000879239
0.00151069
0.00208531
0.00311336
0.00259996
0.00251996
0.00560223
0.0028749
0.00101122
0.00131407
0.000540449
0.000933983
0.000620781
0.00143679
0.00346892
0.000784941
0.00160464
0.00213349
0.00205757
0.00154201
0.000810268
0.000886574
0.00181869
0.0016221
0.000780057
0.000805625
0.00106983
0.000659048
0.00180831
0.00404829
0.0028872
0.000498004
0.000985988
0.00357815
0.00121754
0.0005824
0.00224475
0.00193394
0.00426123
0.000435767
0.00407828
0.00929692
0.00298891
0.00541623
0.00184077
0.00061478
0.000973402
0.000948315
0.00148924
0.0042079
0.00372005
0.00464279
0.00531475
0.00272789
0.000152187
0.00326971
0.004431
0.0028495
0.00245083
0.00293226
0.00535452
0.00384854
0.00243634
0.000614804
0.00091064
0.00167657
0.00199504
0.00209629
0.00486953
0.00357913
0.000863664
0.00158643
0.00200029
0.00142768
0.000646798
0.00201746
0.00289615
0.00240556
0.00164269
0.000795256
0.00101568
0.00270669
0.000416305
0.00206345
0.00426644
0.00495017
0.000730186
0.00192625
0.001725
0.000560356
0.00135319
0.00101055
0.0049245
0.00073388
0.00814594
0.00100379
0.00276705
0.000450979
0.000808828
0.00291116
0.00329128
0.000448753
0.000805851
0.00432804
0.00155722
0.000638325
0.00483419
0.00372109
0.00426636
0.000980688
0.00332102
0.00212741
0.000544681
0.00179896
0.00120977
0.000254296
0.00361162
0.00240189
0.00219481
0.00286533
0.000785829
0.00271497
0.00384667
0.00179844
0.00144234
0.00248809
0.00055326
0.00236525
0.00292653
0.000733142
0.000754726
0.00226699
0.000861765
0.00131111
0.00183031
0.000727806
0.000699489
0.00303682
0.00115816
0.00378236
0.00110051
0.00167028
0.00053062
0.00252594
0.0080306
0.000558726
0.0030082
0.00308418
0.00230264
0.00173793
0.000875954
0.00360774
0.000596438
0.000632399
0.00159358
0.00313951
0.00119853
0.00133197
0.0013517
0.000862316
0.00490269
0.00230205
0.00168736
0.00517646
0.00419967
0.00283687
0.00761119
0.00317935
0.00370345
0.00127515
0.000921017
0.00386105
0.00270953
0.00429268
0.000706936
0.00101815
0.00081811
0.00466749
0.00274648
0.00278472
0.000351437
0.000831211
0.000478176
0.00278025
0.00139276
0.00171244
0.00278298
0.00482539
0.000513738
0.00276784
0.00361264
0.00106174
0.000142784
0.0022392
0.00421461
0.00515719
0.00210628
0.00159412
0.000659149
0.000899008
0.00188726
0.00110209
0.000854145
0.000495333
0.000369631
0.00312844
0.0039089
0.00475191
0.000524977
0.00103217
0.00165646
0.00475236
0.00597829
0.000944383
0.00226707
0.0007794
0.000339337
0.00143375
0.00069254
0.00211261
0.00420517
0.000809617
0.00125778
0.00292432
0.00221325
0.000794113
0.00450673
0.00283259
0.00257897
0.00492327
0.00221575
0.00101359
0.00159992
0.000864847
0.000541982
0.00336027
0.00235432
0.000714083
0.000667854
0.00281651
0.00474847
0.000481971
0.00137165
0.00345915
0.000839946
0.00170268
0.0017505
0.000920338
0.000603037
0.00274066
0.00440409
0.00499845
0.00248473
0.00249477
0.00176193
0.00189232
0.00421826
0.00131068
0.00184172
0.00275997
0.00489644
0.00303346
0.00218961
0.00239058
0.000860399
0.00434929
0.00275139
0.000759152
0.00272125
0.00255415
0.00411316
0.00252044
0.00153648
0.000501277
0.0018924
0.0071023
0.00415719
0.00286335
0.0033779
0.00192417
0.00585157
0.000399165
0.000531312
0.000769884
0.000774037
0.000585581
0.000265909
0.000875244
0.00299085
0.00311851
0.00107705
0.00214877
0.0020475
0.00691336
0.000995095
0.00578204
0.00309326
0.00341174
0.00444784
0.000775402
0.000734401
0.00566932
0.00284052
0.00590065
0.0073893
0.00420088
0.00281474
0.00214389
0.00447188
0.00186103
0.00077076
0.000818958
0.00802059
0.000950101
0.0026966
0.00324323
0.00572172
0.0020433
0.00338469
0.00232552
0.00292704
0.00419726
0.00278151
0.00290553
0.00426598
0.000355519
0.000406764
0.00050596
0.000521698
0.00459062
0.00220615
0.00423087
0.0016814
0.000803073
0.000699562
0.00315726
0.00237574
0.000438042
0.00289088
0.00449609
0.000755493
0.00520175
0.00270432
0.000709212
0.00193528
0.0048111
0.00421991
0.00271732
0.00473642
0.00520839
0.00271958
0.00296793
0.00240349
0.00352424
0.00264627
0.00397143
0.00465595
0.00212235
0.0031699
0.00107824
0.000947411
0.0031085
0.00266097
0.00149007
0.0069128
0.0051263
0.00113413
0.00199865
0.000589709
0.00437017
0.00281436
0.00632146
0.00454845
0.00280273
0.000490372
0.00540835
0.00571139
0.00351569
0.0012368
0.00277561
0.000612815
0.00308746
0.00163326
0.00387464
0.000865814
0.00488611
0.00159627
0.00072875
0.00074896
0.00323325
0.00712764
0.00555589
0.00282528
0.00750291
0.00298913
0.00190842
0.00355532
0.00101931
0.00870102
0.000756757
0.00134144
0.00206941
0.00788837
0.00057207
0.00162475
0.00112679
0.00124024
0.00461085
0.000915579
0.000768785
0.0028731
0.00282447
0.00305932
0.0027869
0.00413928
0.00429395
0.000771704
0.0023291
0.00394459
0.00279856
0.00392445
0.00637061
0.000524933
0.0003995
0.000580614
0.000680448
0.00460545
0.00104584
0.000876831
0.000775128
0.0020078
0.000719676
0.00083946
0.00515117
0.00271565
0.00497436
0.00186158
0.00204512
0.00330596
0.00276671
0.00423243
0.00476515
0.000789647
0.000971023
0.00074954
0.00244326
0.00327275
0.00211148
0.00517665
0.00330466
0.00474071
0.00401847
0.0019757
0.00155473
0.000706415
0.000773191
0.00274824
0.00151573
0.00453878
0.00263109
0.00264043
0.00359416
0.000785201
0.000752836
0.000384966
0.0014102
0.00434047
0.000872835
0.000795652
0.00255451
0.00119663
0.00375988
0.00225351
0.000799429
0.00252675
0.00360668
0.00272683
0.00483115
0.00529163
0.00489513
0.00442973
0.00122701
0.000756305
0.00474402
0.000683501
0.000879599
0.00066022
0.00155964
0.00192028
0.000559649
0.000790433
0.000701098
0.00276967
0.00508489
0.00193769
0.000849317
0.00261634
0.00568668
0.00522976
0.0027853
0.00287313
0.000785308
0.00068036
0.00506894
0.000993902
0.00302277
0.000839368
0.00132398
0.00108945
0.00153859
0.000491216
0.00184345
0.0012756
0.000679312
0.000582355
0.000617691
0.000482825
0.000305221
0.000663906
0.00181974
0.00421102
0.00282105
0.00251411
0.00243782
0.00450286
0.000734592
0.000601829
0.00162588
0.0028939
0.000655591
0.00407937
0.00711524
0.00215081
0.000786068
0.00421582
0.00192166
0.000601588
0.00194949
0.00499329
0.00253751
0.000834308
0.001638
0.000880447
0.00353708
0.00332743
0.00512561
0.000892932
0.000669902
0.000418962
0.000736208
0.000694824
0.00162384
0.000690304
0.000670087
0.000666812
0.00113588
0.000789608
0.00130548
0.000783521
0.00164645
0.000698698
0.00150558
0.000831668
0.005496
0.00174413
0.00121579
0.00068178
0.000965791
0.000756414
0.00379317
0.000996852
0.00202266
0.00477752
0.001092
0.000833739
0.00173593
0.000726167
0.000830331
0.00228694
0.000777032
0.00516313
0.00238092
0.000599429
0.000825534
0.00087625
0.00205229
0.000908539
0.00280602
0.00251708
0.00481811
0.00109369
0.00346737
0.000692005
0.000755667
0.000816467
0.00112916
0.00164712
0.00141748
0.00148663
0.000229889
0.00253048
0.00139973
0.0011233
0.00108641
0.00140225
0.000587513
0.00215691
0.00058982
0.00115998
0.000747128
0.00161017
0.000796485
0.00124225
0.0007904
0.000784007
0.000737053
0.00153745
0.000805811
0.00293957
0.00420305
0.00274977
0.00409199
0.000715103
0.000826905
0.00262866
0.000601021
0.00276784
0.00176269
0.00258831
0.0046805
0.000642223
0.00651968
0.000621575
0.000842328
0.00581948
0.000984553
0.00489195
0.000717083
0.000846337
0.0037717
0.00388297
0.000596029
0.00483502
0.00167423
0.00124616
0.000627119
0.00137907
0.000651512
0.000750464
0.000830271
0.00109945
0.000726493
0.000756895
0.00196777
0.00185532
0.00392768
0.000936264
0.00072367
0.00479385
0.00263586
0.000772486
0.000836583
0.00314785
0.00320821
0.00307607
0.00392395
0.000766774
0.00131452
0.000254887
0.00410159
0.00179322
0.00420895
0.00234603
0.00372986
0.00354035
0.000267975
0.00109462
0.000506995
0.000224178
0.00254652
0.000728178
0.00113009
0.00110391
0.000276303
0.00108288
0.00024652
0.000276056
0.00123266
0.000575657
0.00166149
0.0029461
0.00266426
0.00692468
0.00078729
0.00126746
0.00128699
0.00108355
0.000676403
0.000790147
0.00141477
0.000800459
0.00264191
0.00103079
0.000745848
0.00109013
0.00493704
0.002011
0.000663859
0.00373084
0.00389218
0.00196396
0.00310547
0.000743553
0.00985803
0.00491026
0.00281941
0.000880684
0.0112549
0.000727657
0.00072804
0.00246195
0.000904981
0.00149931
0.000631098
0.0101433
0.00107228
0.000558271
0.00307055
0.00463771
0.00478276
0.000766407
0.000773656
0.00305185
0.00123349
0.0039153
0.000869743
0.00412278
0.0035121
0.00470828
0.00172173
0.00239258
0.00143512
0.000658291
0.00258555
0.00210106
0.00307986
0.00102744
0.000585579
0.00130164
0.00211364
0.00464954
0.000834886
0.00132973
0.000756491
0.000879726
0.000832647
0.00077648
0.0008707
0.000752978
0.00253668
0.00310391
0.00201197
0.000727468
0.000742221
0.000774848
0.00120169
0.00157431
0.00194084
0.00151405
0.00175989
0.000886527
0.000773933
0.00259935
0.000753394
0.000709714
0.00133203
0.000770374
0.00084432
0.000935272
0.000609514
0.00115999
0.000634358
0.00806001
0.000529005
0.000709302
0.00105927
0.00102707
0.000753739
0.00314565
0.00285279
0.000727503
0.00062122
0.00251584
0.0010155
0.00155032
0.00119393
0.00200677
0.000987855
0.00103117
0.00144989
0.00432477
0.00693942
0.00260069
0.000828614
0.000258305
0.00111512
0.00179881
0.00415585
0.00546981
0.000536655
0.000812275
0.0011019
0.00299393
0.000280797
0.00293144
0.00359575
0.00111203
0.00444878
0.00341087
0.00113189
0.00068756
0.00140425
0.0046265
0.00200764
0.00114325
0.000851155
0.000748366
0.00272648
0.000836238
0.0013781
0.000521739
0.000783641
0.0035324
0.000977071
0.000281672
0.00127421
0.000772162
0.000477947
0.00115653
0.00259547
0.00308987
0.000661406
0.000910794
0.0042947
0.00708064
0.00300129
0.00276316
0.00196837
0.000795195
0.00332879
0.00117697
0.00166274
0.00475124
0.00221899
0.00360306
0.00194048
0.00506506
0.00456939
0.00493628
0.00261396
0.00202992
0.00119143
0.00309476
0.000795383
0.00183607
0.00186764
0.00153122
0.00270451
0.00339955
0.00171178
0.00211693
0.00227251
0.000809767
0.00047676
0.000806746
0.00247788
0.000276261
0.00178985
0.00159578
0.000831011
0.00416411
0.0033587
0.00234732
0.00083154
0.00998799
0.00118016
0.00266053
0.00342252
0.00131803
0.00125462
0.00101292
0.00185542
0.000913212
0.00171843
0.000520789
0.00297762
0.000790561
0.000918772
0.00220392
0.00308863
0.0025335
0.00127368
0.00414696
0.00345533
0.000786245
0.0001918
0.00256563
0.00391978
0.00393483
0.004158
0.00130636
0.00075848
0.00301878
0.00443097
0.000953758
0.00147119
0.00133815
0.00120725
0.00115072
0.00398043
0.000719634
0.00158636
0.00667616
0.0015851
0.00426445
0.000997112
0.000613885
0.00156662
0.00141877
0.000453271
0.00141929
0.001851
0.00100312
0.00142584
0.000573366
0.00262947
0.000915548
0.000822594
0.00226724
0.00265726
0.00619812
0.000696984
0.00229887
0.00621372
0.000946058
0.000934313
0.00240817
0.00228648
0.000865392
0.00032317
0.000207792
0.000572571
0.00881852
0.000826129
0.00241972
0.00220893
0.00327687
0.00387465
0.00148724
0.000868604
0.000274678
0.000303702
0.000248119
0.000199171
0.000993415
0.000513188
0.000324678
0.000760308
0.000214081
0.000348671
0.000538819
0.000721115
0.000363677
0.000315137
0.000203971
0.000895813
0.000607984
0.000382302
0.000622801
0.000516234
0.000210103
0.000315197
0.000115924
0.000324635
0.000662361
0.000536858
0.000419573
0.00028972
0.000542805
0.00095952
0.000541472
0.00038846
0.000234552
0.000261643
0.000350347
0.000229385
0.000835617
0.00038419
0.00020735
0.000527406
0.000278642
0.00051786
0.000877851
0.00115396
0.00138699
0.00394432
0.000366814
0.00162529
0.00272473
0.00551467
0.00270976
0.00168763
0.000668257
0.000832598
0.00217093
0.00281297
0.00309778
0.00819799
0.00374371
0.0058381
0.00361795
0.000725988
0.000735146
0.000657223
0.00167265
0.00059332
0.00261062
0.000866097
0.00259881
0.00252494
0.00128036
0.00476368
0.00290194
0.00207109
0.00464952
0.00400307
0.00911051
0.00267104
0.00274878
0.00234482
0.000747371
0.00377454
0.00335568
0.00187807
0.00218977
0.0021571
0.00128935
0.00359312
0.00119818
0.000874498
0.000842103
0.000848851
0.0105914
0.00220526
0.000576108
0.000412853
0.00198405
0.00222834
0.000647593
0.00352848
0.00173638
0.000424338
0.000208557
0.000553213
0.00083295
0.000333337
0.000685981
0.000207755
0.000390488
0.000607821
0.00023689
0.00107229
0.000536208
0.000204729
0.000895603
0.000555323
0.000660489
0.000530074
0.000309737
0.000276698
0.000264686
0.000249055
0.000906974
0.000278932
0.00290043
0.00350112
0.000476411
0.000843404
0.00206574
0.000848693
0.00206809
0.000531273
0.00265946
0.00273296
0.00341672
0.00274708
0.00173364
0.00228383
0.000161558
0.00170371
0.00181287
0.00273781
0.00530155
0.00513672
0.00178214
0.000511138
0.00204731
0.00166874
0.0013348
0.00208332
0.000871355
0.00302597
0.00149612
0.00195009
0.000774185
0.000964801
0.0012485
0.00232164
0.00278124
0.000967023
0.00773122
0.000376478
0.0107582
0.0012634
0.00071292
0.000743395
0.00245471
0.000774801
0.00113465
0.00336604
0.00169856
0.00739881
0.000834642
0.00206997
0.00065767
0.00175645
0.00216453
0.00516141
0.000236662
0.000772343
0.00097546
0.00332831
0.00275477
0.000714063
0.000694563
0.00387871
0.00317899
0.00179933
0.00083269
0.00198646
0.000415606
0.00152829
0.00281192
0.000604838
0.00234582
0.000411694
0.000133427
0.000512763
0.0100159
0.0062895
0.00079579
0.0026637
0.00451907
0.000702392
0.00183306
0.00335248
0.00188594
0.00189487
0.00483092
0.00173264
0.00672605
0.000683831
0.00277404
0.00169066
0.00176758
0.000711028
0.00135777
0.00107926
0.00256097
0.000437778
0.000810801
0.000747081
0.00215043
0.00386622
0.00220587
0.00195289
0.00798356
0.00345631
0.000830759
0.00427492
0.000630988
0.00190739
0.00181261
0.00131911
0.00406867
0.00263132
0.00293107
0.00197869
0.00268054
0.00743401
0.00143072
0.0030294
0.00263865
0.00253777
0.000926991
0.00133832
0.000909014
0.00535435
0.001108
0.00165334
0.00403146
0.0035277
0.00143073
0.00379926
0.00325069
0.00499821
0.00339783
0.00413442
0.00241073
0.000789337
0.000893029
0.00250972
0.00352637
0.000993635
0.000737483
0.00273481
0.00425256
0.0044073
0.00389906
0.00373419
0.00417638
0.004223
0.00460047
0.00140411
0.00414826
0.00419941
0.00450542
0.00420144
0.00419768
0.00396568
0.00416272
0.00421942
0.00407524
0.00123992
0.00123731
0.0007474
0.004272
0.00119042
0.000774041
0.000931368
0.00144356
0.000168729
0.000592966
0.00358549
0.0047539
0.00352801
0.00172269
0.00217086
0.00546495
0.00466864
0.00294821
0.00261806
0.00168432
0.00152336
0.00125641
0.00180144
0.00326448
0.00153452
0.00147384
0.00173915
0.00342577
0.00283632
0.00163819
0.000997932
0.00358401
0.00134014
0.000712547
0.00255939
0.000251032
0.00248319
0.00141032
0.00128798
0.00134692
0.000927484
0.00166122
0.0026245
0.0018243
0.00181663
0.00200193
0.00128236
0.00258429
0.0111773
0.00166475
0.00265542
0.002412
0.00188167
0.00947422
0.000634012
0.00209589
0.00873157
0.00333306
0.00293713
0.00167627
0.00136218
0.00307658
0.0100891
0.00310121
0.00180172
0.00217415
0.00251262
0.00263042
0.00161369
0.00606514
0.00193028
0.00107566
0.00453227
0.00150494
0.00222223
0.000690989
0.00161769
0.00277152
0.00445728
0.00226301
0.00568359
0.00883768
0.00227131
0.0101212
0.00113466
0.0045487
0.00245513
0.00066119
0.00292089
0.00156929
0.00536764
0.00279347
0.00519682
0.000722931
0.00752899
0.00507187
0.00372276
0.00146527
0.00608268
0.00276475
0.00269342
0.00488501
0.00397194
0.00164348
0.00595315
0.00376924
0.00469893
0.00426237
0.00432296
0.00123296
0.00367559
0.000542676
0.00188831
0.00333289
0.000937419
0.00121559
0.0016871
0.0012147
0.00255962
0.000646743
0.00535004
0.000787648
0.00318251
0.00179569
0.00148618
0.00283309
0.00211406
0.00138035
0.000671551
0.00158562
0.00156586
0.00136496
0.00284914
0.00118308
0.00210608
0.00477661
0.00402795
0.000669171
0.00328242
0.0031124
0.00212707
0.0020322
0.000550166
0.00118051
0.000616365
0.00347706
0.000730756
0.00202871
0.00427337
0.0061608
0.00154249
0.00153378
0.00183338
0.00413581
0.00191738
0.00235643
0.00129632
0.00272872
0.00229664
0.00326108
0.000868807
0.003078
0.00154815
0.00427903
0.00274706
0.00175335
0.00363112
0.00129627
0.00354891
0.00318385
0.000753256
0.00240623
0.00178989
0.00173491
0.00335331
0.00317354
0.004247
0.00302659
0.000359893
0.00180636
0.00248106
0.00187324
0.00208888
0.0021765
0.00262037
0.00291579
0.00306676
0.00322825
0.00234028
0.00140632
0.000571851
0.00286352
0.00204172
0.00124714
0.000636815
0.00249595
0.00104081
0.000204479
0.00402567
0.00177787
0.00607732
0.00137857
0.00196947
0.0012916
0.00211888
0.00204213
0.00646628
0.00375917
0.00212232
0.0041791
0.00147355
0.000742245
0.00427168
0.00137918
0.00199875
0.000269224
0.00196733
0.000231977
0.00426112
0.00114253
0.00212691
0.0029758
0.00256761
0.0041595
0.00237838
0.00095776
0.000634915
0.00603466
0.00222211
0.00396298
0.00357088
0.00250818
0.00228534
0.000859415
0.000747276
0.00542726
0.00379301
0.0017331
0.00647275
0.00327553
0.00233904
0.00383273
0.000780284
0.0041662
0.000818304
0.00213163
0.00197817
0.00440376
0.000717018
0.00501447
0.000820629
0.00527565
0.00168087
0.00188642
0.00287243
0.00221629
0.000965403
0.000721788
0.000531542
0.000683171
0.00148485
0.00696273
0.00290598
0.00059979
0.00405223
0.00437028
0.00236772
0.000726627
0.00139085
0.000899674
0.00340186
0.00412413
0.00479553
0.00474977
0.00120499
0.00125421
0.00264197
0.00107163
0.00488738
0.00514916
0.00152146
0.00115585
0.00313654
0.00376819
0.00135236
0.00240653
0.00245926
0.00423631
0.00316873
0.00318869
0.00408572
0.00264371
0.00184159
0.00291451
0.00524265
0.00184451
0.00269581
0.00199488
0.000886472
0.000806809
0.00473029
0.00535266
0.00148059
0.00742776
0.00351071
0.00374921
0.00533059
0.00352169
0.00343772
0.00057108
0.00175348
0.000568501
0.0042449
0.00234388
0.00117004
0.00793745
0.000800184
0.000787978
0.0113969
0.000896977
0.00286643
0.00451322
0.00340033
0.0025556
0.00290028
0.00204536
0.00890391
0.00507952
0.00118547
0.00280716
0.00271539
0.00143348
0.00258399
0.000720024
0.00060257
0.000699194
0.000582033
0.000603512
0.00282448
0.00240792
0.000805514
0.000914163
0.00247531
0.00366394
0.00318366
0.000729646
0.0109111
0.010765
0.0018351
0.00126596
0.0046058
0.00368347
0.0038049
0.000631615
0.000556695
0.00390634
0.00234149
0.0019851
0.00217006
0.0080959
0.00465526
0.00127886
0.00278036
0.011647
0.00344608
0.00287452
0.000753383
0.00139602
0.000468833
0.000837179
0.00239961
0.00268276
0.00250785
0.00236848
0.00439037
0.00587894
0.00218442
0.00293499
0.00203535
0.00480404
0.00495732
0.00502301
0.00440919
0.00276064
0.00213673
0.00359542
0.00206895
0.00103906
0.00159867
0.00623343
0.00480515
0.00586177
0.00274326
0.00312223
0.00215307
0.00255546
0.00225257
0.00147609
0.0024088
0.00192848
0.000790088
0.000876203
0.00220014
0.00194536
0.00194337
0.00519253
0.00610357
0.00125655
0.00308367
0.00319661
0.00322659
0.00135986
0.002127
0.000604467
0.000506042
0.000561075
0.000369475
0.00139215
0.000741836
0.00762349
0.0024595
0.000792446
0.000801821
0.00329014
0.00138116
0.00133232
0.0023548
0.00735448
0.00504215
0.00385328
0.00418361
0.00128486
0.00142684
0.00188338
0.00279016
0.000243611
0.000658985
0.00191441
0.0015404
0.00491958
0.00255083
0.000746229
0.000911386
0.00593568
0.00300888
0.00187321
0.00965855
0.00209248
0.000868052
0.00271364
0.00283425
0.00261142
0.00626761
0.00162404
0.0028311
0.00160684
0.00145491
0.00496739
0.00669325
0.00322336
0.00235858
0.00174938
0.00130594
0.00410465
0.00264434
0.000841869
0.000775766
0.000729575
0.000551723
0.00161233
0.00137137
0.00197451
0.000808499
0.00156198
0.00281775
0.00247601
0.00204488
0.00116041
0.0018605
0.00130669
0.00178221
0.000739653
0.00212478
0.00391047
0.00204912
0.00266488
0.00489559
0.00180441
0.00384855
0.00285184
0.00204139
0.00988914
0.00216357
0.00492498
0.000739321
0.000979615
0.00336604
0.00382182
0.000577727
0.000239489
0.00863716
0.00309014
0.00309144
0.00239118
0.00423399
0.00391796
0.000796242
0.00495924
0.0045172
0.000832488
0.00170549
0.002354
0.00302621
0.00227439
0.000692401
0.00100521
0.00270656
0.000867544
0.00433
0.00183454
0.000601266
0.0102655
0.00263395
0.00168447
0.00913103
0.00204394
0.0036274
0.00270891
0.00075636
0.00107881
0.00220753
0.00121692
0.00469342
0.00478986
0.00219001
0.00394854
0.00236152
0.0015867
0.00345859
0.00254142
0.00426483
0.00176636
0.00197184
0.00266489
0.000938974
0.00212825
0.00334284
0.00360868
0.00174681
0.0031452
0.00663084
0.00127823
0.00219464
0.00309673
0.00585569
0.00443983
0.00333185
0.00236578
0.00455767
0.00103952
0.000758033
0.00172116
0.00525265
0.00742827
0.00396728
0.00157937
0.00141534
0.000587952
0.00765442
0.000859194
0.00267388
0.0101662
0.00510212
0.00604976
0.00222868
0.00377299
0.00421445
0.00461294
0.00193655
0.001665
0.00266927
0.000591068
0.000816716
0.0030751
0.000426805
0.00226834
0.00489792
0.00398084
0.00493125
0.00518338
0.00408728
0.00200621
0.0027816
0.00140855
0.00966357
0.00429307
0.00228293
0.00780642
0.000745647
0.00196996
0.00201735
0.0108618
0.00188981
0.00703063
0.00356734
0.0017299
0.0025295
0.00269282
0.00212561
0.000864047
0.00516972
0.000709003
0.00220593
0.00114141
0.00240194
0.00264398
0.00334758
0.00259307
0.00261053
0.00104328
0.0043663
0.00454632
0.00424519
0.000494396
0.00971585
0.00138374
0.00248588
0.00334069
0.000711833
0.00286158
0.00355811
0.00189897
0.00570113
0.00217658
0.00474126
0.0094731
0.00305021
0.00464884
0.00252972
0.00165267
0.00112361
0.000588328
0.00317263
0.00399635
0.00240527
0.0024511
0.00418534
0.00503346
0.00109608
0.00120129
0.00235579
0.00453911
0.000798183
0.00532268
0.00249698
0.00216809
0.000564828
0.00279739
0.000893952
0.00548718
0.00320701
0.00490405
0.00449817
0.00217622
0.00177466
0.00739551
0.00285411
0.000999868
0.00542235
0.00225023
0.00198022
0.000497374
0.000797544
0.00512093
0.00183089
0.00432879
0.00749148
0.000588072
0.00222646
0.000789423
0.00465685
0.00488006
0.0027344
0.00452457
0.00239177
0.00191294
0.000848198
0.00078813
0.000777465
0.0015841
0.000650341
0.000898676
0.00279166
0.006347
0.00152198
0.00376472
0.00534874
0.000951747
0.00485624
0.00399749
0.00342941
0.000744378
0.00216706
0.00388796
0.000467055
0.000296889
0.000354802
0.00244346
0.00201415
0.00252525
0.00300929
0.00263328
0.0105572
0.00508865
0.00258641
0.00287204
0.00504952
0.00427072
0.00284651
0.00407949
0.000915837
0.00427096
0.0013143
0.00188086
0.000669033
0.000955675
0.00135048
0.00256274
0.00199179
0.0026252
0.00216198
0.00463082
0.00187956
0.00247375
0.00247133
0.00060244
0.00221551
0.00527556
0.00205205
0.00326211
0.00422678
0.00303855
0.00144336
0.00205917
0.000553023
0.00104937
0.00343627
0.00120181
0.00262543
0.00245922
0.0010959
0.00242529
0.00795082
0.00324035
0.00267412
0.00082505
0.0102555
0.000513108
0.00268013
0.00209263
0.00622455
0.00257399
0.00233199
0.00158184
0.00441711
0.00512878
0.000791054
0.000950525
0.00230292
0.00573844
0.00377066
0.00254926
0.00242811
0.00509055
0.00449395
0.000949084
0.0024531
0.00452415
0.00233256
0.00350645
0.00298049
0.00209145
0.000748392
0.00234592
0.00177705
0.00263418
0.000723576
0.0017164
0.00370112
0.0017942
0.00074456
0.00201185
0.00267005
0.00190348
0.00224752
0.000656853
0.00336723
0.00294845
0.00250376
0.000716656
0.00258183
0.00237764
0.00207844
0.00376457
0.00211098
0.000994403
0.00235038
0.000529198
0.000951368
0.00160732
0.00350696
0.00184905
0.000714425
0.00161915
0.00265124
0.000895523
0.00159935
0.00412854
0.000929922
0.00533701
0.0018484
0.000569376
0.000916846
0.0027143
0.00229252
0.000839142
0.00149925
0.000582162
0.00300501
0.00114781
0.000742255
0.00124611
0.00184139
0.000804686
0.00613107
0.00135706
0.00309752
0.00240062
0.00264927
0.00215138
0.00261029
0.00088018
0.000374158
0.000670461
0.00225237
0.00170961
0.00242159
0.00431786
0.00132557
0.00158737
0.00116816
0.00206338
0.000805504
0.00267569
0.00228022
0.00242943
0.00133001
0.0017942
0.000550463
0.000999638
0.00073873
0.000745115
0.00499451
0.00186559
0.00290008
0.00151826
0.000451468
0.00190283
0.000669918
0.00116702
0.0031537
0.0107444
0.00480847
0.00178874
0.0111346
0.000873421
0.00283359
0.00170826
0.00509
0.00163646
0.01049
0.0013324
0.00317315
0.000734562
0.000806613
0.00107788
0.00129442
0.0020403
0.00170653
0.00169522
0.00332365
0.00212409
0.00243663
0.000930712
0.00352217
0.00182116
0.00387832
0.0042649
0.00111932
0.0018633
0.0011613
0.00242988
0.00159341
0.00311936
0.00303206
0.00323164
0.00200375
0.00238592
0.00253349
0.00556015
0.00115312
0.000719381
0.00296935
0.000801849
0.000843574
0.00329349
0.00138371
0.00242649
0.00176299
0.00513537
0.00329564
0.0012277
0.00264518
0.000772967
0.00117877
0.00297067
0.00257755
0.00378386
0.00345776
0.00119156
0.00203303
0.000820505
0.000841118
0.00295446
0.00356471
0.00198914
0.000704989
0.00123834
0.00194737
0.0011492
0.00303741
0.000707569
0.000771399
0.000826881
0.000300026
0.000958587
0.000864964
0.00283129
0.00268309
0.000827636