/*--------------------------------*- C++ -*----------------------------------*\
| =========                 |                                                 |
| \\      /  F ield         | OpenFOAM: The Open Source CFD Toolbox           |
|  \\    /   O peration     | Version:  v1912                                 |
|   \\  /    A nd           | Website:  www.openfoam.com                      |
|    \\/     M anipulation  |                                                 |
\*---------------------------------------------------------------------------*/
FoamFile
{
    version     2.0;
    format      ascii;
    class       volScalarField;
    location    "0.27";
    object      p;
}
// * * * * * * * * * * * * * * * * * * * * * * * * * * * * * * * * * * * * * //

dimensions      [0 2 -2 0 0 0 0];


internalField   nonuniform List<scalar> 
5794
(
95.3593
91.4322
89.8123
91.5875
88.7922
90.9984
77.0965
80.2302
89.9157
85.7866
121.413
88.7814
84.1637
88.5884
92.1701
90.703
41.4957
88.4788
91.7229
91.6777
88.5932
91.9621
84.1406
90.3366
81.3484
43.333
44.577
92.7663
84.2369
93.4448
87.4673
91.0494
99.6778
90.5575
74.6861
83.3306
95.2568
89.2367
84.9353
88.665
87.0511
87.6365
112.75
90.9529
90.8612
98.0742
91.1812
82.6786
85.5709
90.3933
90.8258
78.1065
86.5777
89.0755
92.6278
101.092
91.8451
84.6845
112.934
38.7567
100.389
91.9911
83.2575
90.8059
97.6177
91.3689
92.0337
93.4878
88.752
92.2857
77.6558
92.34
19.3481
91.3936
88.9922
93.5402
92.8877
49.2258
90.5385
91.3321
91.5528
91.718
87.8897
84.7794
89.9048
89.529
88.7984
110.113
89.2037
86.2394
109.602
92.0367
86.374
85.5128
89.8742
77.0387
105.48
88.0896
92.4743
101.277
77.3403
91.3329
113.015
89.8053
93.7117
90.2238
92.1312
120.98
76.1442
90.5227
92.1401
92.1545
69.8429
92.0521
90.1147
84.4387
94.3108
92.1464
99.5642
88.4903
91.8626
89.5472
90.7769
94.1529
90.4788
120.195
90.7779
90.7977
79.2001
121.057
90.0767
83.5716
92.1257
53.7348
86.5518
92.5022
113.013
92.0966
91.22
92.1618
89.0218
93.8518
91.2712
95.1
91.2254
50.3879
90.9766
110.987
88.8357
96.1504
117.406
91.6532
88.0354
90.1236
46.5913
91.7882
85.1533
89.2778
101.395
89.8458
92.5967
78.4177
92.2488
83.1108
76.1522
77.4404
78.9596
77.2871
92.3062
92.5596
93.3081
77.6916
83.6556
74.0557
90.2253
82.8214
93.5672
80.8912
91.4366
82.7413
89.8575
91.3177
83.7558
99.7836
82.0093
45.5559
91.3561
101.944
85.377
91.2144
121.479
90.9522
98.2296
86.203
85.2458
90.1165
80.1957
92.7331
91.9298
111.177
80.9522
77.4145
84.836
83.9547
91.2712
98.3952
90.5693
121.672
78.4272
87.5105
92.2604
94.3244
81.7187
79.1219
90.1928
77.0846
83.4
93.0153
121.418
94.5212
94.3802
81.2838
112.003
87.0243
107.706
38.0271
89.034
87.1246
88.2201
93.9264
83.3821
72.5984
89.2144
76.2625
88.6295
52.3964
65.8742
115.752
82.3516
93.2475
91.6462
122.646
90.8512
90.077
89.3515
92.0613
90.9162
88.3407
107.152
88.7283
92.5506
90.9883
43.8499
90.9727
115.254
80.5846
111.909
111.944
121.95
90.9262
113.569
80.0023
78.491
92.1591
83.0196
89.4613
95.3299
119.695
91.8482
98.9044
91.2721
86.5934
84.1573
76.0414
95.607
93.9397
88.3859
89.4075
92.4481
82.6184
92.9762
101.032
84.6989
87.813
88.6487
87.3579
92.4823
91.3976
78.4006
88.391
83.9466
71.4512
89.639
89.6569
108.393
51.4826
81.5979
88.01
86.2812
92.2111
91.5978
76.8155
91.3863
90.2581
89.4945
117.957
92.4938
88.9146
98.7419
91.1111
89.0405
101.316
90.5799
92.1661
95.0226
96.8804
120.881
92.0266
76.0888
86.547
82.9804
72.7358
92.0232
88.2503
90.8767
83.6647
91.0835
89.2665
85.1844
121.507
78.8022
114.121
90.0442
101.274
91.2181
85.3946
87.1647
92.3981
85.5756
101.901
90.7953
78.7822
88.3043
83.7409
94.2904
85.0852
103.998
92.0178
77.7305
88.9285
84.1519
51.3676
97.6488
90.9786
84.097
43.5727
92.1477
79.4117
78.6515
81.2104
121.426
88.5899
114.023
77.3027
78.7787
88.6397
76.8859
99.3718
91.2947
83.9287
92.4491
91.9753
89.0009
91.0487
120.832
76.0754
101.963
90.3279
87.3138
92.4222
93.1717
92.5646
95.4205
83.4609
77.3734
91.3291
81.9782
74.9729
76.5703
76.4706
76.4459
83.3605
92.235
92.1348
83.5441
74.9966
89.3459
89.7833
92.3538
83.4156
90.4957
79.5674
48.1554
92.1463
92.6179
117.232
92.6943
91.2276
92.0825
108.607
87.9535
91.3474
121.486
78.1776
99.2591
91.5051
86.7944
88.6407
76.3555
106.075
92.4072
88.2425
121.122
92.1638
83.889
77.3689
91.4595
91.8553
91.6351
92.2159
80.6774
95.4602
96.5406
71.8703
91.1736
95.0464
90.3276
84.7771
83.3339
78.7251
91.7806
95.0532
82.9918
90.3225
89.9422
83.5721
89.8994
91.2278
87.8098
89.9485
88.0104
91.6182
77.7404
91.7338
87.6458
92.1932
103.43
78.5826
90.2115
86.5225
91.9162
91.6027
86.2289
91.6313
102.207
121.011
46.1662
87.443
121.437
90.5944
92.1958
72.5853
121.406
88.3006
85.4256
102.534
62.5277
92.9367
92.1027
91.5583
86.4985
92.0098
86.799
87.922
120.939
120.888
94.1051
90.3712
51.0839
91.3971
91.5416
91.8614
91.9201
87.7789
92.9419
92.2114
93.4569
92.5567
91.2331
116.569
84.6021
61.2776
97.1191
82.2767
94.3799
91.5764
91.8734
110.926
121.508
91.4424
76.107
92.5132
93.2687
92.2722
92.2567
91.1491
85.0065
92.2952
94.2665
48.1364
91.3496
92
88.0837
89.6608
121.24
91.2046
93.1397
89.6197
91.6918
91.5867
89.6575
92.2513
45.8351
92.4012
88.8609
88.4734
95.1829
111.347
120.991
112.804
91.7978
72.448
91.6205
89.7786
91.1049
90.9753
95.8064
95.0045
92.2056
90.7996
91.7543
92.3393
92.4892
90.7128
90.8855
92.2994
90.9234
91.7425
91.7803
90.3509
23.164
93.5101
118.785
91.5413
90.7114
91.544
90.8255
90.9455
90.6639
91.9619
103.117
78.2472
73.4746
92.0285
46.7954
92.8905
86.6523
87.1563
88.0265
83.8416
86.1831
91.7505
120.808
49.9957
77.8047
105.973
91.5655
87.8952
92.4109
105.044
91.6305
90.9663
92.0909
83.7101
91.084
99.3124
92.4425
94.7266
91.5512
88.9879
92.2601
103.97
89.9152
84.216
92.2206
121.455
53.2709
86.3624
92.6068
86.2358
84.9859
80.4194
91.3057
90.9794
89.4546
82.3219
116.095
119.971
109.996
90.8725
91.6501
121.189
120.642
121.285
91.9523
91.0888
90.8866
90.5441
124.057
91.9516
94.3916
91.5915
91.1667
91.1206
92.1523
86.9848
67.354
94.85
88.5357
91.022
91.161
113.535
121.214
92.3953
112.03
83.8143
89.4753
101.922
92.0011
92.5807
90.7545
92.4081
92.3043
83.4843
89.0623
116.989
47.6072
91.1768
41.7196
88.6173
92.4985
86.8603
92.0682
87.9774
91.5203
90.413
81.2727
87.2905
92.6297
100.888
115.81
89.6427
40.2125
83.9194
91.9855
89.4959
83.1083
90.9374
90.234
93.0444
91.5349
122.139
91.532
91.1704
90.909
111.628
87.7933
92.5261
92.3808
92.3145
88.7822
96.9414
72.8203
89.8512
88.4527
88.919
121.041
91.3824
91.8937
94.1661
85.4704
82.8389
92.1863
112.01
90.4036
117.324
95.671
87.3909
92.0371
123.083
113.207
87.9602
90.1807
82.5738
121.401
93.0057
96.6414
44.0603
119.319
84.7731
121.845
68.0139
111.704
92.2142
82.6654
89.4729
110.21
95.7132
122.57
97.9682
89.841
70.3378
93.9373
117.385
88.9836
89.1273
41.5622
121.423
92.2272
87.1233
106.761
92.8695
91.4328
84.4826
90.5366
87.8526
92.3612
102.567
90.8078
95.0529
90.8911
91.5912
91.5996
92.2329
90.265
84.3587
96.5772
87.685
89.9096
105.186
91.2282
68.2276
87.3846
89.939
82.8006
86.9987
92.5464
107.411
90.0393
87.9934
92.6241
107.014
90.4082
92.2035
89.1602
92.6219
91.348
93.5974
90.3316
90.7618
121.12
46.3923
89.2496
91.8237
91.7333
86.9935
92.3177
121.189
84.7771
91.6821
91.2667
116.272
102.8
91.8026
85.8831
91.9099
91.5668
69.2785
91.6511
59.6456
93.5761
121.002
92.0442
91.6206
91.0043
91.0999
120.834
122.827
115.804
103.04
90.181
89.0966
92.7839
103.845
95.5673
91.9442
88.4481
102.944
122.101
91.907
91.5194
93.5097
109.781
51.5698
92.1124
95.9163
91.9328
87.9198
87.028
92.4305
87.8415
103.948
94.6748
92.4721
91.717
87.5361
87.9128
39.8729
92.2482
92.1662
86.4317
92.2338
121.514
91.2052
96.5599
92.2658
88.7809
102.013
94.9975
74.7809
89.9228
83.2724
88.6446
83.3589
119.336
119.558
48.6772
90.8377
92.2691
92.5533
102.102
90.4368
90.9469
88.6789
98.0788
90.7075
77.3308
121.468
91.8648
87.9609
91.1941
94.4266
118.525
90.8588
54.2181
92.1844
92.561
59.6108
104.883
94.328
89.6348
88.7037
121.162
111.437
91.5572
92.4975
83.2058
120.217
90.8357
95.0163
119.38
87.0348
89.2955
83.6511
91.3056
96.397
89.4195
91.6391
91.6565
90.1961
91.9623
92.5145
92.102
91.101
116.593
91.7537
94.8672
91.5083
88.5282
83.1613
85.9764
92.7002
121.417
121.191
59.0383
91.4612
85.9353
95.1934
91.0275
55.5895
99.7733
87.0819
113.555
88.0848
92.2239
89.4919
90.7799
81.7363
101.862
88.2823
88.7631
88.8566
90.2238
92.5294
114.601
91.7833
92.4106
107.365
92.2354
88.3262
94.8631
108.649
92.0059
91.071
89.3136
92.0996
78.2965
121.153
106.381
95.1019
91.8798
72.5202
91.6109
91.5822
78.0887
44.1393
95.4318
91.2189
99.0335
87.5528
87.9253
89.1805
92.1486
82.8914
89.2376
91.6972
91.771
92.5455
91.537
91.8153
92.2307
92.5688
94.8598
89.6676
95.7516
92.5165
91.7661
106.689
95.347
78.662
88.3666
84.0214
91.1177
120.841
97.4486
87.2314
92.6777
88.677
121.377
92.5317
95.0512
92.6262
91.5462
95.0573
67.334
94.3202
82.4826
100.553
92.2936
95.7251
89.7987
90.4121
107.679
74.55
89.0573
98.5885
90.9808
91.7773
91.2307
91.011
99.706
102.538
44.6761
69.1667
93.8449
91.1875
90.2323
87.7277
92.1761
100.808
111.363
92.1013
91.9649
91.6717
88.0254
95.3138
95.3425
93.7517
90.5108
94.9335
95.5128
96.4164
92.963
91.4724
94.5279
89.8081
91.7366
121.498
92.2687
94.9955
92.9742
92.254
87.179
92.0914
89.0233
121.116
92.2746
121.48
91.5861
96.8649
120.847
92.3772
88.944
106.973
91.1165
87.3669
90.2462
92.3222
90.9448
90.5354
91.4726
91.7695
89.2354
92.4584
91.3304
94.3124
92.5672
92.4571
90.363
74.7266
83.4371
90.6348
102.743
100.729
83.6949
90.1147
92.4667
92.2777
89.5361
87.4774
86.8812
91.1464
92.4757
113.477
92.2757
86.2469
92.2807
121.204
92.3633
82.2321
90.4158
91.3183
95.9717
89.0064
91.2261
89.1694
92.4657
94.8861
95.3526
92.0618
95.8019
91.1095
91.5876
87.3947
91.6985
91.7934
89.5324
92.0887
121.237
93.1202
52.1538
92.5391
91.386
91.931
95.1109
87.7133
98.8435
92.2037
90.6905
94.2527
100.514
81.7808
91.7283
91.3625
88.9907
90.6705
85.1814
89.1913
95.4643
89.2035
86.7194
117.65
110.761
85.4677
99.7535
98.8004
85.5599
88.7823
80.148
92.3108
31.5951
95.4303
92.2863
92.8912
121.429
121.683
92.4774
91.1346
92.6711
83.3266
90.1623
91.5972
89.2305
90.5547
86.8971
87.6406
87.6616
92.4234
91.5514
88.9909
89.0193
92.1092
92.4807
91.6309
85.4488
92.085
83.8851
83.0996
90.5472
100.724
101.59
96.1844
92.9078
95.0557
100.605
92.8342
88.8546
91.5785
102.174
97.7291
91.6767
92.2714
112.892
92.6255
115.316
80.8418
75.1876
100.137
89.1893
113.481
103.515
90.0148
82.8099
95.133
109.3
92.3484
90.7934
91.2587
53.5946
92.2675
92.4412
86.6106
91.3425
92.2717
92.6593
86.7313
113.55
90.7992
90.8619
98.8251
87.628
93.0771
92.46
92.4203
89.6619
80.7314
121.193
120.985
89.3556
95.1519
91.1439
89.9925
79.8283
90.7862
96.2535
122.65
112.675
95.6938
88.9095
91.8561
92.0012
91.7145
95.0839
79.4619
73.2814
81.1284
92.6094
91.6381
71.9244
92.0807
51.087
91.9269
91.5741
111.112
95.9525
92.5646
92.3693
94.4795
89.4913
91.3398
92.2727
90.6363
92.0078
91.4526
85.902
89.4434
92.1133
92.2844
87.3495
87.2037
80.7521
78.8911
88.6643
116.469
94.5578
91.7267
91.1692
87.4465
107.858
93.0589
87.7619
92.6318
89.8896
122.8
52.908
89.1013
85.3518
92.5585
83.1947
91.4404
92.7479
88.7697
86.1433
88.9462
91.421
85.9892
92.569
90.0351
91.4863
91.4123
94.9572
92.9449
92.1196
92.6149
108.277
95.6672
122.581
121.917
92.297
92.5221
84.4814
91.2734
122.992
89.8652
79.8797
89.9207
91.9969
92.5695
91.1362
85.2431
91.5989
88.2503
92.4841
89.9514
91.1342
45.3484
89.1086
41.9195
49.2566
87.9585
94.787
92.6519
86.4424
87.3955
90.0931
91.8331
88.5259
91.0265
90.9201
98.4435
100.566
87.5794
90.3214
78.5623
92.2433
89.7989
91.4956
92.5981
121.301
90.305
85.7391
92.5274
91.5653
92.4902
109.671
91.2068
89.0094
86.2806
89.218
81.095
89.2043
87.3792
92.6679
95.0428
92.3331
127.853
121.106
92.2421
45.1578
120.528
89.4027
87.0002
92.4754
99.2105
92.5085
91.192
91.7826
84.8644
10.4429
95.6701
89.4465
89.0234
110.901
53.347
111.329
88.7152
92.2766
90.9872
92.2058
91.1946
88.7234
90.8975
91.5298
90.7968
91.1401
91.2288
90.8227
84.991
92.2144
91.1593
91.1967
88.6919
90.9067
91.0108
84.4512
91.3769
92.0135
90.9952
91.5818
91.2131
90.0303
88.6174
92.833
91.2199
92.2415
85.9539
90.3945
91.4887
92.1047
91.0426
92.3036
91.1256
88.7203
91.1568
91.2281
92.3713
91.5981
89.3645
88.2898
88.5623
83.755
55.3678
92.0521
89.932
97.6045
84.9175
90.5251
92.5688
92.3273
91.2506
92.5409
89.1148
91.6851
48.842
87.9181
84.4733
89.9545
92.47
92.4747
91.5642
92.6124
90.4864
85.1998
91.3524
89.71
89.1355
91.1673
121.575
89.9285
92.8874
85.5666
72.689
45.6239
92.4602
74.0709
75.7482
103.52
93.0178
88.7207
88.5903
91.358
117.193
90.2245
89.9065
84.4338
90.3722
94.3486
93.5658
11.3551
92.4787
91.5331
91.0799
86.1709
92.6167
91.0112
136.846
86.8934
91.3626
91.1738
91.0575
88.6834
92.2239
90.8947
91.1856
91.6371
92.2464
91.2235
87.0395
89.8655
91.5656
89.047
92.5028
84.4216
91.1345
90.9793
91.0394
92.1399
92.1963
88.5396
90.9418
99.9723
89.5961
122.322
106.341
91.5702
94.3353
92.7088
92.2892
117.141
90.8476
89.4041
126.302
93.2258
92.9618
92.0155
92.9617
115.249
86.8613
70.7286
85.2685
94.1228
92.3397
89.8731
92.6024
91.2659
90.2739
94.4573
90.5186
91.3503
91.0366
91.1179
90.248
91.8088
86.8177
86.6157
91.2503
84.0171
92.2576
84.762
92.4301
91.5402
92.435
91.3414
91.8914
91.8719
91.3017
92.3237
84.6455
95.363
91.22
83.2617
87.715
91.171
77.8594
92.717
95.109
103.757
91.5946
118.978
89.5993
91.3635
96.5582
89.6668
88.2022
95.3008
92.4464
91.2258
89.2247
89.4375
92.0561
87.5144
89.9298
91.6115
93.243
84.4108
86.7396
92.3224
89.2339
90.7325
91.1964
87.69
85.9086
92.3969
87.22
97.5601
92.5296
84.1101
92.3516
88.3457
86.2482
86.5262
113.286
90.2351
81.4687
89.3647
90.1685
91.7382
91.4834
91.971
89.9554
90.5452
87.0354
114.232
87.9699
92.2379
94.0615
88.9038
116.316
115.621
88.0478
93.3014
88.7018
95.4187
87.2938
104.602
88.3689
139.176
90.7225
85.3253
101.072
112.588
83.4817
88.6581
79.9852
125.868
83.7875
101.405
92.5573
128.543
79.5617
72.5475
28.9697
89.8797
90.4862
85.1926
90.7671
91.9018
85.3969
88.6823
92.2061
91.5743
88.8427
91.8797
89.2457
74.0263
72.8602
91.2029
73.6724
85.5244
92.5619
92.18
93.6364
73.9107
74.0448
93.3954
73.2447
92.9219
94.016
93.065
83.245
82.4672
89.3595
48.589
80.3369
89.6774
89.4587
78.9404
91.9816
90.0759
75.6378
77.0132
88.3703
91.7927
91.7794
81.7174
76.2394
80.8471
77.2284
89.7564
79.7482
89.0363
90.1779
92.191
89.012
116.953
89.8869
90.1578
90.6116
89.0336
91.7523
80.7205
91.7431
77.6605
90.7242
91.8845
86.2381
81.3104
87.5845
81.5524
88.0378
93.9839
106.441
93.8047
93.0384
91.5507
90.6053
105.576
76.6553
93.7897
104.815
102.832
91.7935
77.6496
91.9306
92.6091
76.5598
100.058
107.931
93.6769
89.9338
104.831
76.5013
104.308
93.2836
93.8425
91.8151
91.0924
89.4388
50.3731
93.8468
90.0931
78.9394
93.6637
91.2251
92.1453
90.7548
102.816
99.2008
81.3715
50.4731
75.952
91.3624
76.0651
93.6716
80.0106
81.8538
91.7486
103.584
86.9264
50.0843
82.1295
79.5255
91.5213
75.6994
47.53
90.382
144.019
76.2994
90.4667
82.831
77.139
90.5597
79.8576
96.3517
90.8525
77.0715
47.9396
49.0021
89.0068
78.6492
89.0559
87.5097
86.5832
90.4752
91.9796
88.9428
92.2047
88.9153
91.5675
121.17
78.5098
90.5909
90.5919
80.4681
85.9809
91.6047
90.9198
86.0618
88.6987
88.2976
90.1843
88.5515
90.016
83.5576
72.5088
91.0941
89.3743
86.1682
85.9254
90.9621
90.5602
88.3913
78.4028
90.871
90.5267
91.7879
78.9757
90.7987
95.6992
91.4146
81.7973
87.5407
90.4454
90.9313
90.8094
88.7708
88.6169
89.2044
88.4692
87.26
86.8743
88.5614
47.5577
90.6101
88.1361
88.2133
91.007
87.4888
92.6272
75.8365
90.9755
89.0039
91.0762
88.392
88.4264
89.7398
92.0938
91.0729
90.9126
90.6872
89.126
91.3921
91.1076
91.7985
92.8587
92.8207
94.0104
90.7183
90.8187
90.8022
92.7708
88.5355
89.7902
91.5622
88.62
91.8986
90.6491
90.8324
78.7012
95.3298
81.9241
89.2509
90.3375
90.964
90.7694
121.242
82.5101
76.44
78.0595
91.0554
92.7884
74.2582
89.8578
83.834
91.0189
90.7775
90.8873
47.0944
113.624
89.3548
81.0301
85.7333
92.902
88.1005
91.6477
91.4467
121.329
74.3591
77.5652
76.6497
91.4837
87.8515
91.6303
91.2468
96.4152
91.2609
80.5911
121.156
83.1369
73.2019
78.5907
74.4879
46.52
113.461
89.3929
84.9584
75.5767
75.5864
94.1992
89.329
106.432
80.6525
82.2748
92.8483
86.7898
91.6102
91.0647
91.1783
74.9749
110.73
121.18
83.8667
91.0711
47.0387
50.7289
90.8899
113.34
81.3368
89.8567
75.2501
75.2146
95.4883
95.2638
88.7341
81.4341
91.926
91.3235
92.2616
100.157
83.7057
109.244
72.7217
77.5961
111.816
85.534
86.7868
73.9049
74.6844
73.5677
73.0978
89.1209
85.405
74.1695
104.345
80.8288
92.1196
86.5102
91.9689
90.6268
92.0726
100.604
84.5638
121.132
89.6922
89.9336
91.7029
72.478
76.5911
90.5516
90.8125
91.1945
50.1356
90.7027
96.3434
89.1244
93.6507
113.332
97.5749
92.0531
89.0566
75.9956
79.8198
86.5712
91.4587
92.1363
95.2672
96.5116
88.8341
96.6143
86.5891
89.4601
92.427
87.5523
88.2599
92.2381
90.5179
90.359
92.2299
84.756
92.1309
90.411
91.5244
92.0175
86.9463
91.3372
96.8444
96.8342
116.303
92.2686
94.0238
72.4298
77.3214
91.4961
91.2169
46.9878
90.5041
92.5919
86.5387
91.0453
92.6008
87.6232
86.2369
96.7794
84.7495
90.1663
89.5204
84.0298
90.0875
95.4215
90.8043
90.447
90.8363
89.3366
74.7858
85.7435
86.7421
88.7563
86.8738
77.3154
90.0122
80.4958
74.9227
97.6791
89.9837
123.471
90.8135
90.9686
87.9567
79.3114
74.7223
75.6242
81.8272
92.2445
86.4337
90.5773
90.1796
87.6314
90.4422
85.9788
92.138
90.3317
90.8623
90.8462
91.0058
93.2926
105.544
85.6137
92.1837
88.2913
91.8022
90.3085
92.2683
88.0834
85.9334
87.2484
86.0163
88.3933
96.4638
84.592
88.8074
95.0868
91.9761
114.776
90.39
90.3724
92.8057
121.019
92.3225
72.0964
78.887
90.0448
87.4419
91.5454
88.2538
91.9473
91.2024
87.2663
88.4583
79.1853
86.692
91.9092
91.4319
121.255
90.687
91.1492
95.4081
92.4686
93.6562
90.6473
90.5226
89.1733
84.5806
90.4323
93.2953
90.9189
89.88
82.4196
81.9642
91.2794
92.3398
88.0151
89.9696
74.3566
86.0328
92.2272
113.277
114.013
92.003
88.184
89.8594
87.1847
113.622
88.9521
92.4218
89.0421
91.6328
114.793
87.5114
89.4324
84.3598
89.0263
86.5888
89.7744
89.0576
90.6196
75.4298
101.279
73.0033
93.7208
90.023
95.9795
122.019
90.2721
90.9738
90.7827
89.7206
79.702
91.0364
91.0457
92.4218
87.8052
90.9048
86.1051
73.3204
73.1681
95.0117
86.705
97.2313
89.3303
90.0791
88.5763
92.2296
84.4064
92.0908
90.3566
90.5074
83.5038
74.0706
87.6152
91.8676
94.8572
78.0751
83.7377
85.8138
89.4525
92.4464
91.3628
91.0137
94.5059
91.7733
89.4246
76.4351
76.7854
91.9913
73.7232
96.8066
105.984
124.287
89.0669
75.0091
91.189
89.1353
89.264
92.1849
89.0358
91.4129
90.0463
116.321
93.0072
105.795
86.5362
92.3944
88.5494
83.6981
74.8505
87.4184
101.724
75.5741
93.5635
98.7144
102.253
104.443
94.6012
88.7611
88.6851
92.258
91.5518
120.83
89.0696
89.4283
79.4193
92.662
51.2883
91.5179
72.5936
78.9485
75.8545
90.205
88.4109
76.8627
92.4155
91.5652
90.1907
92.2439
92.279
82.9736
92.5151
80.7631
79.3617
50.5824
87.4033
87.616
107.024
92.0946
80.7228
90.9712
37.1115
99.9233
86.4074
91.0875
85.8741
90.4695
121.244
90.1081
89.488
92.5895
129.559
87.6303
87.5518
101.482
92.1951
90.9364
92.5102
91.6476
90.4438
90.7964
87.3124
90.8111
114.745
82.6029
75.6314
90.5258
91.7645
93.6528
91.3544
90.3146
90.1741
90.8162
91.4683
133.314
88.172
79.8848
90.126
83.6365
91.1099
88.9923
121.535
90.5473
89.2328
94.1451
91.2193
72.0819
122.009
90.2751
90.1729
94.1693
95.9785
96.8973
90.935
90.3017
85.7998
95.0643
83.0345
89.0961
91.0659
92.4161
86.262
96.3308
78.5152
90.8383
77.7934
79.4495
88.8155
87.4446
92.9076
89.308
92.4647
81.615
91.9541
92.5176
87.4323
93.7832
78.6412
89.6737
95.7281
85.7406
92.1735
89.1328
98.0224
86.1769
76.4444
88.2214
80.1262
87.5976
87.906
92.5346
94.351
95.2527
88.2203
92.1195
90.4188
78.8858
88.9835
87.1182
90.7322
81.2463
109.693
78.5457
80.7111
86.148
98.9477
92.1153
90.155
85.5244
91.5247
92.1414
88.8285
107.321
87.5972
89.4379
89.2672
82.9273
77.4455
87.5456
90.2734
84.2113
86.8628
92.4524
105.578
90.7113
96.3556
91.2533
85.7336
92.0805
90.3144
88.6112
92.194
86.7044
96.5724
92.3566
98.3755
87.0448
88.0765
91.2385
90.0138
90.2535
89.9933
92.4335
95.1164
95.7041
91.3832
87.5093
84.5696
91.9478
90.5078
130.119
103.876
90.1843
89.8539
95.7539
105.058
108.469
89.822
91.3977
90.934
84.8438
91.2258
93.0386
93.368
121.469
90.8692
91.761
82.5889
91.4083
97.5408
91.5427
92.4362
91.9741
75.0766
88.1272
86.6932
86.3205
84.5663
48.0043
73.948
92.4304
83.1853
91.6029
83.6448
92.8893
86.5174
98.0246
96.9427
112.637
88.2455
86.1415
87.1626
89.2065
85.7711
92.5311
86.8525
91.8047
87.262
92.8544
91.224
88.0639
91.0261
121.014
92.2044
88.8122
85.1831
92.8401
121.571
121.604
90.9713
91.4229
91.6225
91.11
85.7471
86.6305
20.2274
92.1372
116.435
84.5687
92.1167
92.5709
89.6176
119.107
80.5573
87.2021
92.0147
90.6194
90.7873
111.275
89.4378
79.4724
92.4549
86.5572
92.6549
91.9772
89.0491
91.0123
94.9216
121.312
98.2335
92.7992
91.2943
87.0702
90.585
91.3251
90.6709
91.6299
92.0785
92.2896
93.0117
92.5223
95.8003
86.9977
114.693
91.3168
92.3663
94.9019
89.0807
43.1553
91.8857
88.9011
85.8153
91.9568
90.5136
102.13
91.749
76.4103
86.562
88.6342
89.9571
91.9232
90.9306
91.1802
92.2723
91.785
84.2664
92.1325
92.3439
85.5864
90.7861
91.3576
87.5672
82.0848
90.0463
95.7639
87.1215
88.2385
91.4407
94.9365
92.8077
87.9697
91.3987
114.561
116.537
87.6505
92.5719
88.8751
91.4165
93.6054
88.4994
87.4216
90.0785
91.3211
91.0512
95.5561
90.8125
88.4936
89.3568
87.62
84.9448
92.7639
88.5077
91.601
77.3887
107.339
91.1067
91.2636
90.7329
92.3122
90.5887
88.5024
89.1731
88.4966
85.7892
90.711
93.5628
82.0889
97.3557
92.9112
90.1563
90.8399
89.9611
87.5259
89.2533
91.3895
95.2011
94.7719
91.5701
86.3912
97.0717
92.4031
88.3153
91.2637
92.5444
91.1677
90.8559
91.8812
91.3668
92.4253
91.9067
90.8651
91.4936
91.7803
95.4493
85.1845
91.6332
91.5448
94.1094
88.7588
91.0487
91.1839
91.5008
91.4602
88.7185
91.8712
122.006
88.4306
43.8065
89.6437
89.8769
86.1385
91.8031
89.9256
91.9137
90.9091
92.07
91.7202
91.1256
95.0955
90.58
115.745
92.2373
90.8511
91.4774
91.6642
113.15
90.9484
92.4769
91.1997
91.3276
112.41
86.1161
77.0285
88.5963
86.7379
120.863
94.355
76.9525
91.4856
101.965
78.7699
89.3585
90.8758
87.2513
90.8529
91.1356
90.9706
91.677
91.8221
90.8092
90.775
88.2047
89.1736
89.8357
91.1533
91.6753
91.5249
90.5188
84.0851
91.0795
92.468
92.3483
89.6111
90.102
92.6139
91.2601
88.3042
92.489
111.655
91.1247
92.5816
86.3473
40.6048
91.9497
117.711
91.8771
88.9851
89.4233
101.603
89.9321
90.9954
76.5654
92.5875
91.901
89.5528
91.936
114.049
87.2789
86.4137
91.3573
94.306
123.965
89.9031
80.6516
91.8075
89.0551
90.6813
91.144
90.0804
93.4588
86.0512
91.8303
90.8185
92.0239
88.1329
91.1902
88.2534
88.3119
83.9524
76.5247
72.5618
81.6275
55.9449
95.1949
103.579
88.9125
87.959
121.081
66.3677
107.565
97.3831
85.0709
91.7794
90.7977
90.8098
99.0699
86.3029
91.4762
91.541
92.5584
92.2461
115.501
124.707
77.6464
106.567
95.6741
121.291
92.0007
91.3829
86.7196
89.2147
82.649
90.0103
106.52
101.332
90.8654
91.3337
92.4337
121.932
89.147
105.641
93.1019
85.845
82.4609
72.3103
96.224
91.2803
92.1809
87.294
90.4261
92.1538
91.5825
88.1564
86.6458
90.3941
82.7589
88.028
86.978
95.7489
37.3791
121.378
92.2967
92.2293
92.4292
92.9325
90.4406
98.3888
89.7041
89.7729
90.3273
87.9267
85.3595
105.536
87.4865
91.2831
103.741
93.7606
91.5312
91.9867
95.5728
32.3078
80.9611
90.8037
96.739
91.6163
90.155
96.6462
94.8728
90.4288
91.6109
91.9797
86.7525
122.003
92.4375
89.5957
92.4255
96.1889
41.1359
89.8136
87.6407
88.8346
92.2368
80.6873
81.8356
92.4391
104.808
87.5118
92.3983
91.1842
112.761
89.9581
97.661
89.3256
93.0137
91.2792
92.1041
92.4332
92.3741
91.9078
91.3257
104.248
89.2667
103.6
82.9165
89.5043
87.4437
92.2542
121.095
91.3101
92.8538
98.156
110.213
94.053
86.2929
91.4282
91.1868
90.7814
88.6726
120.701
91.3658
87.9214
91.3033
85.2681
88.3203
120.014
121.297
92.8858
81.0042
92.1236
93.3497
90.9233
91.4558
92.9885
88.3602
91.8707
91.1284
92.2955
92.138
90.8457
78.0492
90.6355
121.08
84.5462
85.1864
87.4516
90.8105
90.0037
114.558
87.9872
90.9171
112.98
91.3284
109.509
103.72
92.2223
120.545
88.0465
121.364
88.2025
91.5369
92.2134
97.1156
90.8569
102.853
80.7706
96.2245
25.6884
92.484
119.639
86.9594
99.7525
78.6417
100.596
87.6366
120.327
121.199
82.9389
104.893
90.4849
85.7733
91.4354
91.9322
89.9626
87.9367
101.239
93.599
102.903
101.297
92.0767
90.9517
91.8411
121.199
74.9352
91.1828
90.8686
94.8283
85.809
95.191
95.6281
93.2054
104.756
85.7352
89.3558
85.8988
77.6088
92.2706
103.357
121.682
87.3143
106.479
99.0238
77.9554
92.5363
92.3847
92.5295
92.3385
92.7464
121.388
94.7694
75.4969
90.3275
83.5925
112.338
90.4277
89.3076
81.9949
73.6885
88.0518
88.805
83.1655
88.996
90.7255
89.7711
91.8774
99.6506
89.9736
89.8002
104.906
96.7141
89.9123
92.6231
92.8055
91.0481
102.122
89.0635
90.4576
91.2357
92.4715
87.5473
92.3679
81.8611
50.0651
87.0087
92.5028
95.5646
92.1635
88.1662
90.6141
121.053
88.9892
113.374
92.2502
90.9783
77.2868
89.059
92.3493
94.2305
86.7338
98.5194
93.8877
109.79
86.9066
91.8808
91.4843
89.8295
95.6944
88.0903
54.0591
52.2283
86.9364
92.108
79.9674
87.8262
91.4144
91.5005
85.8479
92.4246
90.7643
88.5866
82.7072
72.7976
91.0752
73.64
83.7532
121.881
83.1373
90.5559
79.9354
88.4557
100.476
89.5354
88.941
86.1231
89.7083
110.676
93.9195
86.8335
91.0167
78.7347
42.9658
92.6017
91.5039
100.69
120.832
94.6946
87.9117
91.9226
91.7321
91.2745
86.2379
87.5478
90.0081
92.4157
89.8719
92.2323
88.2503
90.6276
91.1066
90.9237
93.3055
105.48
93.3481
90.9672
97.0274
91.0387
92.35
84.7569
94.2938
97.7872
90.952
86.2431
76.68
86.9324
91.3477
91.2583
75.6775
82.8244
97.2724
94.6034
107.774
118.289
136.643
90.4603
88.704
122.308
84.0723
90.8409
90.6603
118.017
89.7345
94.166
9.26276
95.2517
89.1392
87.3216
92.0483
92.0665
90.7888
88.0157
91.4856
92.9222
79.7664
92.8567
85.0088
94.6051
89.5032
121.001
91.0238
107.654
82.668
87.1574
86.9598
91.9585
91.3001
91.7002
82.397
86.7121
88.9629
89.4443
33.3916
110.084
92.8357
89.6107
93.1488
91.684
90.6003
90.2011
91.8326
77.4708
90.3899
91.2957
92.2134
86.3449
90.1891
84.3097
91.0232
88.4421
88.1611
114.226
91.6372
93.2606
90.8902
90.5642
95.717
101.549
98.2835
94.6805
87.621
92.3807
88.3218
91.2789
78.497
91.3976
87.9972
83.1397
89.2272
92.4837
120.998
91.8329
91.1878
122.924
91.5891
88.5452
91.6993
77.0332
96.3616
96.113
91.8217
93.5036
91.7071
93.7368
93.8747
97.1294
95.2791
91.7856
89.3226
91.3743
90.9527
90.0967
99.6423
92.3099
92.1473
92.2659
89.1616
88.8896
95.8703
88.8756
91.3651
89.8014
86.7305
90.9474
90.1836
91.0157
91.867
97.0179
53.9165
86.8972
91.9091
91.2662
90.4935
91.0847
92.2723
88.593
91.0408
91.9718
86.4121
91.4008
119.759
93.2021
92.4148
89.9769
93.5203
87.5615
94.8229
89.218
88.8547
92.6132
84.0615
90.8001
91.5633
91.4559
112.423
105.75
93.4209
85.1949
93.8175
91.6308
92.2974
88.9774
83.2214
121.614
96.4864
81.5487
111.461
87.7455
77.6373
76.3946
90.2524
88.5282
75.64
92.4044
96.8086
83.0128
89.4487
88.4224
93.6136
87.8388
81.7635
125.453
92.3588
86.635
91.3387
92.4594
92.2631
109.687
120.83
91.3125
90.7513
72.6154
103.788
76.0516
78.961
91.5044
89.3857
87.4491
83.7882
90.0346
78.601
89.5536
87.8841
84.0349
90.8875
97.7664
92.3403
92.2974
90.7188
85.0362
79.8803
97.5421
90.3669
72.944
95.329
89.2671
89.3593
92.1462
95.0117
89.5205
16.929
93.9274
89.7925
84.2788
90.4282
89.2329
91.1742
79.0671
91.3748
92.2551
91.5971
85.9887
91.3353
116.655
92.1576
121.135
90.7548
90.947
92.3194
87.8824
83.0919
88.6229
51.3275
113.485
95.0313
92.3894
92.0704
87.1394
79.278
83.1494
88.6436
90.7376
95.2614
94.9164
91.9263
90.6186
43.2683
90.8369
84.5146
91.8017
77.3342
74.4335
90.8368
91.948
88.5916
50.4554
97.6995
86.0421
83.5918
91.6106
94.4162
88.9431
83.5247
91.3955
93.8522
105.018
89.0684
92.0371
89.7021
88.9374
82.3018
89.8675
92.3008
122.416
114.132
91.7969
75.6924
84.3449
91.9649
87.0857
91.3277
92.2115
113.052
85.782
95.5227
91.8798
90.9218
84.7647
91.5941
99.3093
90.2744
110.596
88.4345
90.9223
92.1371
91.11
121.294
92.2331
89.0578
84.4557
93.1157
92.8494
76.1438
42.2943
103.613
85.6969
90.7014
84.0797
72.5792
89.2021
84.0907
90.8595
90.8619
92.2731
91.6768
91.7017
120.951
85.0367
89.2929
90.1947
90.8501
50.9355
89.9158
93.5069
106.647
90.2205
88.4959
95.6273
95.1395
83.3749
91.5047
91.769
86.583
90.8538
91.1818
83.5587
121.05
91.2941
89.394
91.5592
92.0258
79.8154
81.0277
91.1064
91.4124
83.3879
89.5101
91.2911
95.4204
95.438
91.5164
112.118
64.6786
91.4214
52.2798
90.8806
91.0664
79.3101
77.863
90.6606
92.4722
73.54
93.5109
114.244
89.2813
90.2989
111.414
120.09
111.868
93.698
91.3556
90.176
85.8374
81.9623
77.0238
82.4349
79.8403
92.0582
102.926
101.897
96.9317
90.3812
89.7215
84.8701
95.345
92.4384
92.2549
88.8563
91.3827
92.0328
120.952
79.6285
80.2402
82.6702
97.2556
79.2703
89.5607
88.3025
92.7542
92.2039
88.3245
90.8438
79.2088
79.4085
92.5441
89.0117
86.2122
78.9273
88.192
89.6279
89.8433
90.2035
102.121
91.2307
93.0102
92.8914
91.2351
109.09
117.788
91.2886
91.6729
111.422
85.9254
96.9561
91.2471
93.772
91.8888
91.1135
92.7025
92.1523
90.9698
89.913
92.4865
91.4681
122.08
95.8674
92.2087
90.7144
91.6182
86.7362
91.919
78.9552
91.6859
91.0164
94.8572
116.588
88.388
82.9376
80.0645
76.546
94.143
89.4957
86.6424
95.3305
92.043
92.4618
92.898
91.2311
52.4784
90.6546
121.418
91.7288
85.9042
93.0197
119.533
89.6392
50.2265
95.5424
91.8775
92.2311
92.4227
86.0687
91.8678
91.5268
92.5146
92.6749
88.5262
91.4643
91.6889
88.5444
89.3562
95.6003
119.839
90.411
88.5673
92.362
88.8896
92.2691
91.2066
100.513
91.4165
88.9819
94.9806
86.0197
93.4767
83.8779
95.038
113.71
91.4648
93.1995
91.5584
72.6618
121.506
75.4486
92.1095
81.278
85.066
91.0993
91.1607
86.0756
121.721
96.9051
91.6629
91.6138
87.8754
95.2999
92.4929
80.3667
78.4788
90.974
91.3923
90.5839
46.3312
87.5863
88.1473
105.652
121.064
85.8139
87.8659
92.1394
121.355
91.1
97.1389
87.3377
41.7686
54.9085
92.2489
48.323
90.9621
41.2875
72.6172
105.515
89.4429
87.7143
92.1864
92.1473
92.0098
92.0871
90.9859
90.8434
91.0469
90.9197
92.2186
90.7736
62.9225
89.6532
89.4345
88.8293
89.0709
55.8576
89.7947
87.4539
91.8437
91.5796
91.722
92.0189
69.0966
48.1014
92.1258
79.0795
74.2589
92.3607
89.8118
92.8849
91.777
92.3632
93.267
86.1451
90.7326
91.2284
88.6461
92.2485
85.9708
85.4835
86.7616
85.3671
90.9419
88.3659
107.055
108.215
89.7454
91.0541
86.6758
92.5934
85.4629
94.3042
107.006
111.221