/*--------------------------------*- C++ -*----------------------------------*\
| =========                 |                                                 |
| \\      /  F ield         | OpenFOAM: The Open Source CFD Toolbox           |
|  \\    /   O peration     | Version:  v1912                                 |
|   \\  /    A nd           | Website:  www.openfoam.com                      |
|    \\/     M anipulation  |                                                 |
\*---------------------------------------------------------------------------*/
FoamFile
{
    version     2.0;
    format      ascii;
    class       surfaceScalarField;
    location    "0.27";
    object      phi;
}
// * * * * * * * * * * * * * * * * * * * * * * * * * * * * * * * * * * * * * //

dimensions      [0 3 -1 0 0 0 0];
oriented        oriented;


internalField   nonuniform List<scalar> 
11117
(
-0.000105521
1.5608e-05
4.98022e-05
4.01111e-05
1.33844e-05
0.000204823
-5.55804e-06
-0.000212649
-8.89497e-05
0.000112674
1.78797e-05
-4.16043e-05
-7.87562e-05
-7.62518e-05
0.000110929
4.40785e-05
6.58249e-05
0.000345878
-0.000321273
-9.04296e-05
-1.46228e-05
-7.73275e-06
-0.000273857
0.000296212
-3.00023e-06
9.78528e-05
-0.000138013
4.31604e-05
0.00117106
0.000266565
-0.0011404
-0.000297224
0.00125149
0.000250407
-0.000788523
-0.000713375
0.000214554
-0.00020047
3.54942e-06
-1.76341e-05
-0.000864707
0.000946828
0.00029109
-0.000373211
-0.000393785
-0.000163647
0.00028167
0.000275762
-8.88393e-05
-0.000173068
5.16326e-05
0.000210274
0.000446787
-0.000182433
-7.74232e-06
-0.000256611
0.000346131
-0.000229036
0.000109327
-0.000226422
-6.58876e-05
4.02193e-05
-5.31273e-05
7.87956e-05
-9.16204e-05
0.000230911
-4.44902e-05
-9.48006e-05
-0.00016952
0.000200337
3.45527e-05
-6.53695e-05
0.000179387
0.000622553
-0.000455808
-2.82135e-05
1.56198e-05
0.000182259
-0.000169666
-0.000314831
0.000167937
5.03549e-05
9.6539e-05
-3.72299e-05
2.90499e-05
0.000223469
-0.000215289
0.000392899
0.000320735
-0.000246606
-0.000467029
0.000102196
0.00011775
-5.96742e-05
-0.000160271
-0.000681577
-0.000636311
0.00081463
0.000503258
0.000923684
-0.000954795
0.000277961
-0.00024685
0.000254356
-0.000342996
0.000862737
-0.000774097
-0.000595402
0.000474914
-0.000611488
0.000731976
7.2158e-05
1.52147e-05
0.00111323
-0.0012006
-3.12113e-05
2.79997e-05
-3.10217e-05
3.42333e-05
2.34081e-05
0.000594819
-0.000312278
-0.00030595
-1.86756e-05
-0.000195824
0.000141051
7.34483e-05
-0.000106056
-0.000608208
0.000424489
0.000289775
-0.000117913
0.000204818
-0.000101721
1.48162e-05
-7.18821e-05
-0.000199049
-3.08151e-05
0.000301747
0.000175143
-2.85474e-05
2.69299e-05
-0.000173526
0.000595292
-0.000828369
0.00100865
-0.000775569
7.89119e-05
-0.0001655
-2.79474e-05
0.000114535
0.000119878
2.85006e-05
-0.000297844
0.000149466
0.000178255
0.000207539
-0.000259195
-0.000126599
-0.00065819
-7.93757e-05
0.000127415
0.000610151
-0.000145447
3.13629e-05
-2.2131e-05
0.000136216
0.00102742
0.000902439
-0.00090728
-0.00102257
-0.000281885
4.24494e-05
-3.6406e-05
0.000275841
0.000397753
6.30662e-05
-0.000281432
-0.00124169
0.00101502
-0.000346156
0.000572832
-0.000731338
0.000624824
-0.000215307
0.000321822
0.00068492
-0.000677102
0.00030057
-0.000308387
-0.000123881
0.000101776
-1.99384e-05
4.20433e-05
-5.72524e-05
6.15587e-05
-4.30635e-06
9.94878e-06
6.51422e-05
-7.5091e-05
-0.000457891
-0.001288
0.000596025
0.00114987
-0.000174636
0.000224587
-6.21166e-05
1.21651e-05
0.000415268
-0.000378412
0.000125227
-0.000162083
1.20297e-05
-1.20297e-05
0.000597127
0.000251431
-0.000786944
-6.16143e-05
0.000394057
9.4888e-05
-0.000472979
-1.59668e-05
-0.000243791
-0.000182718
0.00036407
6.24392e-05
0.000892354
0.000114869
-0.00137895
0.000371727
-0.000376678
0.000775805
0.000524558
0.000868226
-0.000878973
3.34095e-05
-2.26628e-05
0.000250953
-0.000129078
-0.00011896
-2.91443e-06
-9.68306e-05
-0.000217261
0.000337499
1.65826e-05
2.58014e-05
-6.10596e-05
0.00021375
2.02775e-05
-0.000340084
-1.58528e-05
-0.000227971
0.000187756
5.60679e-05
6.17414e-05
-1.48195e-05
1.38827e-05
-6.08046e-05
4.67124e-05
-6.96997e-05
2.29873e-05
-4.83209e-05
-8.25362e-05
4.0574e-05
9.0283e-05
9.8282e-06
8.58823e-05
-2.73463e-06
-9.29759e-05
0.000597893
-0.000235021
-0.000820763
-6.67726e-05
7.9383e-05
4.9131e-05
-0.000276884
-0.00131983
0.00135421
0.000242503
0.000135232
-0.000299329
0.00017916
-1.50627e-05
-5.50833e-05
-0.000162758
-0.000593243
0.000410419
0.000849219
-0.000666395
1.20251e-05
6.62356e-06
-1.86487e-05
-0.000923733
-0.000163915
0.000132854
-0.000274987
6.40908e-06
-1.33064e-05
-4.59107e-05
-3.37552e-06
4.92863e-05
-1.1247e-05
6.04917e-05
-1.08301e-05
-3.84146e-05
0.000131764
5.57631e-05
-3.80839e-06
-0.000183718
-0.000528153
0.000455189
0.00012566
-5.26958e-05
-0.000114763
-8.17929e-05
0.000199726
-3.17098e-06
-0.000123686
-4.97625e-05
0.000173916
-4.67783e-07
7.6756e-05
-0.000385472
0.000308716
-3.07688e-05
-0.000467278
0.000498047
1.58131e-05
-0.000442483
0.00042667
0.000122292
-3.09151e-07
0.000103656
-0.000225639
2.52718e-05
4.84259e-05
0.000229301
-0.000302998
0.000533961
-0.000160967
8.32906e-05
-0.000456284
0.000427186
4.20564e-05
-6.85103e-05
-0.000400732
0.000799803
-4.67518e-05
5.47606e-05
-0.000807812
-0.000770875
3.23286e-05
-2.69756e-05
0.000765522
-0.000474977
5.05519e-05
-1.14663e-05
0.000435892
6.05798e-07
0.000233908
-0.000340093
0.00010558
0.000591438
3.36009e-05
-3.21058e-05
-0.000592933
0.000758441
5.96681e-05
-3.94697e-05
-0.00077864
0.00044546
4.22959e-06
2.10308e-06
-0.000451792
0.000843377
4.96871e-05
-2.48382e-05
0.000385189
6.97848e-05
-0.000408667
-4.63063e-05
-5.01896e-05
5.0672e-05
8.73439e-07
-1.35586e-06
0.000315072
-0.000386432
-0.00119181
0.00126317
0.000582304
-1.24718e-05
-0.000749717
0.000179885
-0.000100889
0.000427713
-0.00032388
-2.94428e-06
-0.00115671
-0.000201645
0.00101074
0.000347617
5.27632e-05
-7.87763e-05
0.000197862
-0.000171849
6.42895e-05
-4.01455e-05
9.23914e-05
-0.000116535
-0.000231577
2.11111e-05
7.03243e-05
0.000140142
-0.000254933
9.99101e-06
-3.00448e-05
-9.65389e-05
6.81538e-05
0.000104799
-7.64136e-05
0.000332419
-0.000268152
-0.00022853
0.000164264
-0.000408706
0.000335136
-0.000170346
0.000243916
3.22716e-05
-1.56004e-05
4.68324e-05
-6.35036e-05
8.91868e-05
0.000357651
-0.000428745
-1.80926e-05
0.000144207
0.000728201
-0.000823764
-4.86438e-05
-0.000110778
-0.000157542
0.000199553
6.87667e-05
-0.000155063
0.000101436
0.000459782
-0.000406155
2.76144e-05
-1.54101e-05
-0.000891177
-0.00103683
8.5843e-05
0.000957027
-6.04218e-06
0.000967368
-0.000619594
-0.000502836
0.000294791
-0.000249579
-4.52126e-05
-1.03462e-05
-4.67939e-05
6.37357e-05
-6.59564e-06
-0.000563034
-0.000625611
0.000137864
3.43824e-05
-5.64763e-05
-0.00011577
-0.000375698
0.000433157
0.000639341
-0.000696801
-0.000255335
0.000108431
-5.98752e-05
0.000206778
1.09256e-05
0.000237004
-0.000223364
-2.45659e-05
0.000632555
-0.00104484
-0.000106282
0.000518572
8.15718e-05
-1.52397e-07
5.96541e-07
-8.2016e-05
0.000191603
-0.000111272
-0.000147363
6.70316e-05
-0.000167322
0.000401225
-6.15501e-05
-0.000172353
0.000126981
-0.000189586
-3.28584e-05
9.54634e-05
-0.000866281
0.000108781
-0.000166234
-0.000706632
0.000779634
-0.000766691
0.000693689
-1.31131e-05
-7.70484e-05
-0.000138875
-0.000472856
4.76563e-05
7.86872e-06
0.000417331
8.09685e-05
0.000204373
-3.43894e-05
1.53804e-05
-1.14404e-05
-2.13808e-05
1.74409e-05
8.59525e-05
-8.38372e-05
-7.41834e-05
7.20681e-05
0.000313823
-0.000348143
-7.00187e-05
0.000104339
-0.000152078
-0.000350224
0.000416018
8.62843e-05
-0.000130498
6.17667e-05
0.000173955
-0.000105223
0.000450755
-0.00038213
-0.000194977
0.000126352
4.729e-05
-1.84376e-05
-4.44933e-06
-2.44031e-05
-7.98039e-06
0.000271064
-0.000134724
-0.00012836
3.11761e-05
-2.76195e-05
-1.39028e-05
-0.000457564
0.00103026
-0.000593093
2.03978e-05
4.78785e-05
0.000412421
-4.68972e-05
-0.000413403
-0.000270768
0.000266944
0.000190935
-0.00018711
0.000948097
0.000460882
-0.000628114
-0.000780865
-4.24239e-05
3.35035e-05
-0.000159601
0.000168521
-0.000548982
0.000275791
-0.00088352
0.000168893
-0.000184833
-8.75626e-05
0.000103503
-0.000485223
-0.000384682
0.000566945
0.00030296
0.000662345
-0.000193407
-0.000468938
5.11529e-06
-0.000135293
0.000130099
5.19361e-06
0.001144
-0.000299334
-0.000844665
-4.4774e-05
-0.000322791
0.000180506
0.000142285
3.66438e-05
4.46246e-06
-4.11063e-05
-3.40414e-05
0.000110876
-7.68347e-05
-6.73062e-05
-0.000475609
0.000542915
-0.000505693
0.000575567
-6.98738e-05
-0.000525709
0.000505087
2.06216e-05
0.000737453
-8.43604e-05
-0.000653092
3.46264e-05
-5.00619e-05
1.54355e-05
-2.74848e-05
-6.9054e-05
0.000193924
0.000138495
2.20461e-05
-4.39402e-05
2.18941e-05
0.000226705
0.000209139
-0.000435844
-6.89448e-05
0.000124622
-5.56768e-05
-0.000378839
0.000348886
2.9953e-05
0.000296353
-0.000274078
-2.22751e-05
-0.000407373
0.000455871
-4.84971e-05
-0.000377377
0.000251296
0.00012608
0.000772582
-0.00105717
0.000284591
-6.91733e-05
1.64069e-05
5.27664e-05
0.000980026
-0.00104605
6.60227e-05
2.11698e-05
4.79517e-05
-6.91214e-05
-0.00012121
0.000149508
-2.82978e-05
0.000334763
-0.000449931
0.000115168
-0.000509695
0.000526927
-1.72319e-05
-0.000390362
0.000387025
3.33664e-06
-0.000119153
0.000142275
-2.31213e-05
-7.5479e-05
2.52894e-05
-0.000197767
7.23343e-05
0.000125433
-0.000198125
0.000150551
4.75736e-05
2.45639e-06
4.82156e-05
-0.000211477
-0.00065323
-0.000170295
-2.55294e-05
-0.000537376
-7.08318e-05
0.000534471
6.0348e-05
-6.26151e-05
-0.000104707
0.000261112
-6.95094e-05
-0.00092871
0.00013716
0.00079155
-0.000165758
8.2828e-05
8.29303e-05
0.000462185
0.000160367
-0.00110977
0.00142484
0.000154818
9.53314e-05
-0.00025015
-0.00102517
-0.00026283
0.000359571
0.000325349
0.000145972
-0.000313636
0.000167664
-0.000597039
-0.000134299
-0.00101922
-0.000222472
0.000121323
-0.000180854
5.95313e-05
5.15017e-05
3.52045e-05
-3.04278e-05
-5.62783e-05
-0.000105412
5.82788e-05
0.000595999
-0.000548866
-0.000810283
0.000890785
0.000501347
-0.000581849
-0.000107338
2.76909e-05
0.000260497
-0.000180849
-0.00118337
0.00114003
-5.32261e-05
9.65727e-05
0.000409095
-0.000312749
-0.000163652
-4.91605e-05
8.49823e-05
8.21996e-07
-4.9157e-05
4.01646e-05
-6.5848e-05
7.48403e-05
-0.00045455
0.0006194
0.000815027
-0.000979878
7.02825e-05
-0.000111749
-0.000254721
0.000296188
-0.00026427
0.000304988
8.62634e-05
-0.000219397
6.24922e-05
0.000598595
-0.00044169
0.000893946
-0.000796081
-0.000229881
0.000132016
-0.00139755
-3.58888e-05
0.000250068
0.000183987
-0.000215796
0.000146787
-0.000114978
0.000121179
9.4971e-05
-5.49883e-05
-0.000161162
0.000811858
-0.000202197
-9.19056e-05
-0.000517755
-0.000406306
-0.000285782
5.18487e-05
0.000640239
-8.83692e-05
5.68532e-05
0.00125296
-0.00122144
-4.58104e-05
-4.48066e-06
5.02911e-05
3.67146e-05
4.92038e-05
-4.71077e-05
-3.88107e-05
0.000397313
2.5606e-07
-7.70039e-07
-0.000396799
0.000150635
-9.64274e-05
-0.000139543
8.5335e-05
5.41466e-05
-3.8446e-05
0.000166452
-0.000182153
4.38383e-05
-7.55267e-05
6.49054e-05
-3.3217e-05
2.85884e-05
-3.89392e-05
-0.00024534
0.000255691
9.76884e-05
9.2306e-06
-0.000232542
0.000125623
5.88526e-05
-6.92285e-05
-3.13434e-06
1.35102e-05
2.02943e-05
2.49426e-05
-0.000951795
0.000906558
-7.49485e-05
2.33838e-05
-0.000750401
0.000801966
0.000911178
-0.000916056
6.85651e-05
-6.36874e-05
0.000122207
-0.000224477
-0.000175277
0.000277548
2.86127e-06
-0.000259808
1.19593e-05
0.000244987
-0.000251149
-1.9935e-05
0.000174286
9.67975e-05
0.000125098
-0.000119717
6.13855e-05
-6.67669e-05
4.17232e-05
0.000562013
-0.00030317
-0.000300566
-5.9757e-05
0.000185215
4.3435e-05
0.000195181
-0.000211921
-4.30171e-05
1.34708e-05
-6.97758e-05
0.000124459
-9.34708e-05
0.000102924
-0.000186228
0.000176775
0.000431983
-0.000420071
3.59657e-05
6.54305e-05
-0.000547052
0.000481621
6.24976e-05
-0.000537811
0.000475314
8.40856e-06
-0.000323638
0.000315229
0.000150932
-0.000156635
-1.01503e-05
-0.00035002
-1.81569e-05
6.00714e-05
-6.94163e-05
2.75019e-05
-2.98769e-05
3.91481e-05
-0.000979517
0.000970245
-0.000184021
-0.0004475
0.000498319
0.000133202
0.0010748
-0.000459701
-0.000822731
0.000207629
-0.000662378
0.00117957
-0.000877093
0.000359905
5.93326e-05
-9.61536e-05
8.83227e-05
0.00019952
0.000157355
-0.00021901
-0.000681387
-8.24719e-05
0.000334105
0.000429754
-0.000206788
0.000505706
0.000110177
-3.59603e-05
-3.88709e-05
2.56708e-05
2.16408e-05
9.06932e-05
-6.48479e-05
-4.74861e-05
-0.000313195
0.000280366
3.2829e-05
-0.000433362
0.000319976
0.000113386
0.000600871
-0.000399702
-0.000471937
0.000116503
-0.000413849
0.000362372
-6.50256e-05
-0.000335857
0.000212586
-0.000722458
6.6332e-05
-0.000137502
0.000793628
-0.000444121
3.48453e-05
-7.80695e-05
0.000487345
0.00017631
-0.000140151
0.000394094
-0.000430253
-0.000479504
-0.000490043
0.000624922
0.000344625
-0.000416217
0.000603686
0.000408555
3.00218e-05
-0.00108004
0.00110653
-5.65139e-05
6.99632e-05
0.00023377
-0.000153098
-5.7323e-05
0.000411363
6.1228e-05
-0.00034826
-6.37289e-05
0.000352429
5.95606e-05
-7.96409e-05
0.000115045
-4.34742e-06
-3.10565e-05
4.24342e-05
0.00011492
-7.89513e-05
-7.84027e-05
-0.000201576
-0.000103464
0.000139282
-0.000266716
-5.66894e-05
0.000224122
9.92836e-05
9.58788e-05
-8.84484e-05
-0.000665621
-6.92383e-05
1.22918e-05
-8.85008e-05
-0.000213379
0.000137962
0.000253673
-0.000576873
1.88096e-05
0.000573609
-1.5545e-05
-0.000605494
-2.56342e-05
0.000612404
1.8725e-05
2.5926e-05
0.000761355
-0.000735237
-5.20444e-05
-6.72552e-05
0.000635194
-0.000620841
5.29019e-05
-0.000845697
0.000882154
-0.000743089
0.000170227
-0.000155031
7.54404e-05
-9.06363e-05
-0.000312242
0.000187473
-3.11416e-05
0.000155911
-0.000150606
9.26443e-05
6.25507e-05
-4.58854e-06
0.000389472
-0.000332083
-1.47142e-06
-5.59173e-05
-0.0009853
9.43775e-05
0.000972906
-8.19837e-05
-0.000136915
0.000640077
-0.000694336
0.000191174
0.000383623
-0.000152252
-0.000446141
0.000214771
0.000190036
-0.000209276
-5.43857e-05
7.36256e-05
-0.000240959
0.000169935
0.000379993
-0.000308969
2.68371e-05
9.37753e-05
1.39789e-05
-0.000134591
7.15486e-05
-0.000129594
0.000189809
-0.000571504
0.000547987
2.01402e-05
5.13849e-05
-8.27721e-05
0.000216589
-0.000176378
1.51265e-06
-0.000144571
-0.000167486
0.000183049
0.000129008
4.63154e-05
-1.90912e-05
0.000351002
-0.000378226
-5.89534e-05
-3.00419e-06
-1.76833e-05
8.71538e-05
-0.000110537
-5.91528e-05
0.000952889
-0.000531348
0.000562194
-0.00034397
-0.000219421
0.000260438
5.25243e-05
-3.27933e-05
5.6351e-05
-7.60821e-05
0.000340848
-0.00063958
-0.000511551
3.95093e-05
4.57222e-05
-5.29598e-05
-0.000426712
0.000472374
0.00101123
-0.00105689
0.000851218
-0.000170623
-4.93764e-05
-0.000631219
4.56203e-05
-1.95519e-05
3.82211e-05
-0.000578773
0.000201893
0.000851794
-0.000242572
7.40038e-05
-6.30087e-05
0.000190638
-0.000833372
0.000714892
0.000266336
-0.000591833
0.000752525
-0.000427027
-1.51809e-05
-3.93715e-05
9.50664e-05
-4.05139e-05
-0.000188013
0.000182999
0.00010645
5.03325e-05
0.000427914
5.17968e-05
-6.39208e-05
2.03364e-05
-8.2124e-06
8.80381e-05
-0.000220774
0.000161236
-7.21734e-07
5.42093e-06
0.00024752
-0.000252219
-0.000132672
-0.000151454
0.000819661
0.000127167
-4.51483e-05
-8.23536e-05
-0.000165896
-0.000146382
0.000226722
6.55724e-05
1.64294e-05
-0.00014184
0.000178554
-6.15262e-05
2.66703e-05
1.74342e-05
5.49001e-05
3.30223e-05
9.10051e-05
0.000205443
-1.44743e-05
-0.000307413
5.32387e-05
0.000281525
-3.5011e-05
-0.000474684
-2.69336e-05
-9.42764e-05
-0.000580235
5.45267e-05
-3.37798e-05
-0.00013172
4.53497e-05
-0.000343194
5.84462e-05
-6.64266e-05
-1.04492e-05
-2.07869e-05
8.45401e-05
-1.44729e-05
0.000156748
0.0003467
0.000115485
0.00040194
0.00074793
0.000151818
0.000242347
4.72024e-05
-3.06084e-05
1.86105e-05
-2.31048e-05
-6.24052e-05
5.75625e-05
0.000575582
-0.00060976
2.66258e-05
7.55203e-06
0.000165557
-4.16005e-05
-2.61039e-05
5.2451e-05
0.000888464
-0.00067435
-0.000195628
0.000365335
5.65338e-05
-0.000226242
0.000373652
0.000641366
0.000194587
0.000430236
-0.000183895
-0.000493207
-7.93795e-05
0.000114068
-0.000135731
0.000101043
-0.000118574
2.43025e-05
0.000102497
-8.2251e-06
-0.000519189
-9.73897e-05
0.000420952
5.78751e-05
2.48461e-05
-3.25277e-05
-5.01935e-05
-6.43572e-06
-4.95165e-05
-2.4633e-06
5.84155e-05
0.00045424
-0.000121245
0.000228432
-0.000579751
0.000948446
5.93693e-05
-0.000414269
0.000748957
-0.00025278
0.000430768
-0.000421779
-1.36523e-05
7.37414e-05
-6.79105e-05
7.82145e-06
-0.000131179
2.89308e-05
-6.40604e-08
0.000102312
-9.59658e-05
-5.56761e-05
7.22624e-05
-0.000624025
0.00102844
-0.000734696
0.000330277
-5.20873e-06
0.000188915
-8.56325e-06
-0.000116609
-2.98816e-05
7.46081e-05
9.47508e-05
-5.91118e-05
-0.000153552
-0.00115071
0.0010512
0.00011472
-0.000443882
-4.36016e-06
0.000182639
0.000265604
0.000289965
1.57334e-05
-0.000223718
-8.19798e-05
-0.000125394
0.000862847
-1.47628e-05
4.93893e-05
0.00036929
-0.000204649
2.00217e-06
-4.54459e-07
9.74603e-05
-9.9008e-05
0.000159343
-0.000169412
7.52975e-05
-6.52283e-05
-1.47981e-05
-0.000335001
0.000324942
-0.000232605
8.15675e-05
0.0002361
-8.50623e-05
-0.000176364
0.000179471
0.000177399
0.000376543
0.000101615
-0.000999855
0.0012773
9.75226e-05
-0.00123912
-0.000135711
0.000118269
-0.000175032
-9.31203e-05
-0.000715095
0.000187902
0.000639144
-0.000111951
0.000161301
0.000156539
-0.000119614
-0.000198226
0.000109832
-0.000325587
0.000184914
3.08411e-05
9.68328e-05
-0.000205898
0.000107965
1.10023e-06
-0.000171899
0.000677039
3.23776e-05
-0.000537517
-0.000317314
0.000973261
4.18807e-05
-0.000697828
0.000489998
3.72653e-05
2.71367e-05
-0.0005544
-5.83958e-05
7.61459e-06
7.60043e-05
-2.52232e-05
8.10833e-05
0.000145622
-5.92505e-06
1.40671e-05
3.24319e-05
0.000528244
0.000128289
0.00052858
5.33145e-05
0.000400554
0.000156739
0.0006642
7.30514e-06
-6.529e-05
5.98647e-07
5.73862e-05
0.000173455
-0.000193714
0.000134327
0.000277081
-0.00028229
9.69447e-05
-0.000213553
-0.000179574
0.000274325
2.67468e-06
5.14707e-05
-6.97457e-05
-2.10033e-05
-0.000212316
0.00024186
-8.54112e-06
-8.61234e-05
-0.000211171
0.000270855
2.64396e-05
6.0676e-05
0.000894245
-0.000704515
0.0009664
6.55052e-05
-0.00101438
-1.75289e-05
-0.000330944
0.000502408
0.000429407
0.000136225
-0.000265903
-7.30282e-05
0.000202707
0.000464649
-0.000180145
0.000215278
-0.00014591
7.65489e-05
0.000151087
-9.61226e-06
7.15256e-05
-0.00012781
-0.00095311
0.000925424
-0.000399026
1.08634e-05
-9.01021e-05
1.33743e-05
-0.000344043
-3.50326e-06
0.000334172
-8.99487e-05
0.000815759
1.89682e-05
-0.000744779
-5.67128e-05
0.000429753
1.23968e-05
-0.000385437
1.20731e-05
-1.16962e-05
-3.80345e-05
3.76576e-05
0.000188719
-0.000246675
0.000216235
-0.00015828
4.9909e-06
-9.88104e-05
0.000140504
-4.66843e-05
-4.0429e-05
-0.000101411
-0.00018912
0.000230563
-8.48418e-05
4.33986e-05
-0.000263663
-5.87066e-05
0.000196056
0.000126314
-0.000136774
0.000169515
-8.60818e-05
5.33414e-05
0.000732003
2.57893e-05
-2.33411e-05
-0.000734451
5.68943e-06
7.68542e-05
-6.09028e-05
0.000485817
-2.08053e-05
2.55895e-05
-0.000490601
0.000237569
-0.00022542
-0.000120215
0.000108065
-0.000583235
1.99186e-05
-9.28993e-05
0.000656216
-0.000625046
-0.000135117
5.70973e-05
0.000703066
-8.4269e-05
-9.6012e-06
0.000132395
-3.85248e-05
-0.000219379
8.74035e-05
0.000210716
-7.87404e-05
-0.000153968
3.14784e-05
0.000113133
9.35593e-06
-4.0171e-05
8.48654e-05
-0.00011447
0.000808855
6.84363e-05
-3.39144e-05
8.57107e-05
-2.39156e-06
-1.74724e-06
-0.00121166
-0.000148616
0.00118581
0.000174467
0.000260908
0.000415381
-0.00033007
-0.000346219
7.93746e-05
-4.001e-05
-1.435e-05
-2.50146e-05
6.3575e-05
-9.95288e-05
0.000236232
-0.000200278
5.00863e-05
-4.43969e-05
-9.87148e-05
5.63459e-05
-0.000662583
0.000704952
0.000132897
-0.000114814
3.27745e-05
-5.08569e-05
-0.00043276
0.000418468
2.85809e-05
-1.4288e-05
-1.34288e-05
-0.000173025
0.000309318
-0.000122865
0.000169954
-0.0001209
3.47038e-06
0.00097823
-0.000851024
0.000145478
-0.000272683
-0.000531897
-0.000430726
0.000351135
-0.00017902
-0.000137489
0.000113309
0.000203201
-0.000220985
-4.18488e-05
4.34546e-05
-0.000293047
0.000186316
-4.72369e-05
-4.06675e-05
-4.11011e-06
-3.94914e-05
0.000450565
-0.000407669
-0.000230374
0.000187477
1.2237e-05
-0.000454743
0.000450058
-7.55193e-06
6.49436e-05
-2.5759e-05
0.000218455
-0.000426727
0.000499362
0.00112686
-1.88203e-05
3.19806e-05
2.64284e-05
-2.45704e-05
0.000254687
-0.000256545
-4.48558e-05
0.000103302
0.000106634
-0.000113352
2.68576e-05
0.00013193
-0.000244283
0.000183902
-0.00012347
0.000105984
-6.12698e-05
-0.000185224
-0.000126259
0.000439652
4.26635e-05
0.000205179
6.77775e-05
-0.000111656
-3.54945e-06
2.04479e-05
4.68003e-05
5.07898e-05
-7.5544e-05
-0.000115766
-4.31044e-05
6.29045e-05
-2.07394e-05
3.95582e-05
-6.9649e-05
5.08303e-05
-0.000852142
-0.000101391
0.000238437
0.000461659
-0.000476897
-4.32087e-05
5.84471e-05
-8.772e-05
-0.000869529
2.58737e-05
0.000931375
-5.92043e-05
-0.00100265
0.00103049
3.13672e-05
0.000109575
-0.000123541
0.000102005
-0.000285892
-0.000720706
0.000675654
0.000156578
0.000127748
-0.000172137
-0.00011219
0.000104015
5.26507e-06
-7.76357e-05
-3.16446e-05
-0.000824906
-0.000295035
-0.000171114
-3.50704e-05
-2.58015e-05
0.000231986
0.000152092
3.79596e-05
-0.000167447
-2.26047e-05
0.000233339
-6.93052e-05
-8.41687e-06
-3.88474e-05
-1.16892e-05
-9.40533e-05
-0.000168862
0.000131736
0.000100485
-8.78921e-05
-2.89451e-05
1.63519e-05
3.15602e-05
5.84117e-05
-5.67378e-05
-3.32341e-05
4.14278e-05
0.000397539
-1.77013e-05
-0.000421265
0.000113845
0.000761637
-6.67065e-05
-0.000808776
2.59222e-05
5.89548e-05
1.56083e-05
2.76126e-05
-0.00108495
0.00108496
-2.763e-05
0.000295358
-0.0015882
8.94974e-06
0.00128389
0.000218416
9.27253e-05
-9.94728e-05
-0.000211669
0.000251793
2.83544e-05
-5.63911e-05
-0.000223756
0.000413864
-0.000154078
8.60922e-05
0.000404308
-0.000612152
-0.000637853
2.00328e-05
3.73597e-05
-7.83662e-07
-5.66089e-05
-0.000238263
0.000233498
1.37049e-05
-8.94076e-06
5.06401e-05
-3.69976e-05
-0.000175084
0.000161442
-0.000795094
0.000254955
0.000519625
2.05136e-05
0.000190085
-4.5898e-05
8.21312e-05
-0.000226319
0.00025661
-6.43556e-05
5.59031e-05
-0.000248157
0.000190969
-2.48834e-05
7.55226e-05
-0.000241609
-2.08184e-05
-1.97393e-05
4.05577e-05
0.000317841
-0.00123414
-1.3119e-05
2.31462e-05
9.07604e-05
-0.000100788
-5.68324e-05
-0.000453017
-9.33999e-06
-0.000328085
0.00026291
4.97188e-06
6.02027e-05
0.00103917
-0.00146314
0.00018535
0.000238618
0.000536023
1.17266e-05
1.10522e-05
-0.000558802
4.11298e-06
-1.58903e-05
9.74879e-05
9.06067e-05
9.58775e-05
-0.00102559
0.00083911
-7.15264e-05
-0.000173312
0.000251575
-6.73649e-06
1.16276e-05
0.000174045
-0.00023019
4.45171e-05
-4.62086e-05
-0.000142763
0.00020422
-1.52481e-05
0.000184426
7.02639e-06
4.54206e-06
0.000210197
-0.00021546
3.52924e-05
4.1197e-05
-2.46925e-05
0.000845096
-0.00058092
4.30416e-05
-0.000307218
-7.15659e-05
0.00040372
0.000118601
-1.88304e-05
3.75212e-05
-2.29347e-05
-0.000260807
3.07735e-05
0.000252968
0.000456474
0.000217832
-0.000446198
-0.000228108
9.92302e-06
-1.77632e-05
-8.21008e-05
8.9941e-05
-0.000204512
0.000162177
-0.000129464
-0.000177284
-1.70713e-05
0.000259155
1.31712e-05
-0.000255255
-0.000175452
-0.000183577
0.000108796
-6.87525e-05
0.000150926
2.41142e-05
-3.14574e-05
0.000263953
3.74064e-05
-2.3036e-05
0.000175715
9.97356e-05
-0.000181917
0.00012454
-4.23588e-05
0.00118202
-0.00117899
-0.000279916
1.5589e-05
-0.000659016
0.000205482
0.000570037
0.000219846
-0.000203229
-5.9041e-05
0.00011024
-0.000304986
0.000379172
0.000171919
0.000125713
-0.0001624
9.06921e-06
-3.88982e-05
-8.49772e-05
0.000114806
3.23046e-05
5.30208e-05
-5.70923e-05
-2.82331e-05
0.000179788
-0.000202723
6.74497e-05
-0.000120311
9.7946e-05
-4.5085e-05
0.000760626
9.0344e-05
-4.21146e-05
0.000153882
0.000152945
-0.000200872
0.000133617
-0.000644118
0.000670044
-0.00025693
0.000120015
-0.00113506
0.00113658
9.27306e-05
-9.42501e-05
8.70544e-05
0.000587718
-0.000322344
-0.000131994
0.000284018
-0.00016322
0.000523079
-4.35775e-05
0.000558878
-0.00082409
-0.000183971
0.000449183
-0.000686271
0.000345543
-8.08875e-05
0.000421615
6.50608e-06
7.68835e-05
-0.000372723
0.000289334
-3.85808e-05
-4.93627e-05
-0.00103992
0.00112787
0.000130798
-0.000473464
0.000807828
0.000169835
-0.000851351
-0.000126312
5.07847e-05
-6.47452e-05
1.66352e-05
0.000814048
-0.000753823
9.6514e-05
0.000520193
-0.000571913
0.000105035
0.000515695
-0.000486227
9.88213e-05
5.51175e-05
0.000137076
-4.01016e-05
-0.000271979
-6.51261e-06
0.00026142
0.000134407
-0.00016583
0.000135139
-0.000103716
0.000711771
-0.000597262
-8.37029e-05
-3.08061e-05
0.000609575
-0.000531398
-3.50756e-05
-4.31018e-05
0.000121961
0.00161957
-0.00130041
-0.000441115
-5.1386e-06
4.02263e-06
-6.38846e-05
6.50005e-05
-0.000992652
-0.000637262
0.00105463
0.000575283
-2.45003e-07
-6.93004e-06
-2.01526e-05
2.73276e-05
0.000116751
-0.000207777
-8.26447e-05
0.000173671
-2.59429e-05
7.30696e-05
0.000112228
-0.000159355
0.00010989
-4.24658e-05
0.000693201
0.000484438
-0.000773049
0.000377798
0.000669494
-0.000914966
0.000389678
2.2929e-05
9.46013e-05
-5.14648e-06
1.61387e-05
3.8193e-05
-4.91852e-05
0.000557749
-6.44514e-05
0.00014678
-2.19156e-05
2.00773e-05
-8.04759e-06
4.88003e-05
4.18162e-05
-1.16319e-05
-7.89847e-05
0.000268146
0.000651354
-0.00050412
-0.000310186
-0.000275685
0.00040185
0.000516286
-0.000526576
6.00722e-05
-4.97823e-05
0.000332804
-7.17216e-07
-0.000175548
5.98118e-05
-3.6276e-05
2.44159e-05
0.000232237
2.59849e-05
0.000128803
-4.41212e-05
0.000103158
0.00057322
-0.000691786
0.000118566
-0.000412453
0.000293495
-0.00130289
0.00142185
-4.01319e-05
-4.14919e-05
1.10848e-05
7.05389e-05
0.00021817
6.84706e-05
-0.00012009
-0.000166551
-0.000450303
-1.94491e-05
0.000620012
-0.00015026
0.00022403
-0.000197824
-0.000401904
-2.19025e-07
1.14862e-05
3.59352e-05
0.000226287
-0.000170479
0.000162363
2.88951e-05
-0.000250159
-1.69984e-05
9.10184e-06
4.99384e-05
-4.37846e-05
-1.52556e-05
0.000147067
-7.44297e-05
-5.616e-05
-1.6477e-05
-9.5357e-06
5.66944e-05
7.79397e-05
-3.06656e-06
2.77614e-05
2.67759e-05
0.000102441
-5.90463e-05
8.03168e-05
-0.000123712
-3.155e-06
-0.000141293
0.000181762
-3.73134e-05
9.40568e-05
-2.55863e-05
0.000164663
-9.41229e-05
0.000147876
0.000107366
-4.2881e-05
0.000187308
-0.000121761
0.000456457
0.00011587
-0.000579119
-0.00042159
0.000735309
0.0002654
0.000822271
-0.00104069
0.000356358
-0.000137942
-7.92821e-06
0.000408803
-0.000397997
-2.87796e-06
1.00321e-05
0.000603652
-0.000679494
6.58101e-05
0.000188592
-0.000172563
-2.0028e-05
3.99912e-06
-0.00134028
0.0011816
-0.00025795
0.000416626
0.000383409
-0.000328211
-0.000142847
8.76485e-05
-2.88792e-05
0.000566117
-0.000559969
2.27308e-05
-0.000404432
2.21832e-05
0.000145355
-0.000575265
0.00053413
-0.000104221
0.000141458
-0.00079166
0.000859055
-0.000208854
-0.000102807
-0.00075279
0.000855597
2.98805e-06
2.7542e-06
1.27938e-05
-1.8536e-05
1.04892e-05
-1.88269e-05
8.68364e-06
-3.46012e-07
-0.000174275
0.000191325
-7.19577e-06
-9.85427e-06
5.94455e-05
0.000177433
-0.000186238
-3.15372e-06
5.39661e-05
-6.39314e-05
-0.000221809
4.34901e-05
0.000116802
6.15165e-05
-8.32853e-05
-5.71026e-05
9.56927e-05
4.46951e-05
-2.51306e-05
-1.42937e-06
0.000388771
-0.000362211
0.00117448
-0.00119813
-8.03025e-05
0.000103947
-5.3596e-05
-6.27876e-05
3.02711e-05
2.36058e-05
-5.38769e-05
0.000366909
3.05112e-05
-0.000308404
-8.90165e-05
-2.21635e-05
-5.67829e-05
2.6609e-05
5.23374e-05
-8.33772e-05
0.000134555
-0.000458847
-4.49216e-05
1.46355e-05
-1.03814e-05
-5.1024e-05
3.09151e-05
-0.000272938
1.38488e-05
7.36914e-06
-0.000242203
0.000774414
7.8785e-05
-9.1844e-05
0.000649634
2.105e-05
-3.54899e-05
-0.00056758
3.29689e-05
-4.22623e-05
-0.0005371
-5.34734e-05
-1.4921e-05
-0.000314744
-0.000160223
0.00020825
-0.00103827
-0.000172593
0.000294806
-0.0002268
3.77254e-05
-4.35306e-05
-0.000111153
-0.00120745
0.00123023
-0.00010124
-6.46326e-06
-0.000205492
-0.000183932
4.58372e-05
-0.000295267
0.000630378
-0.00018033
-0.000506761
0.000767223
-0.000197586
-0.000659586
-8.73682e-06
4.74798e-05
-0.000257815
0.000219072
0.00013362
0.000508341
-0.000125674
0.000218732
-0.000220722
2.58239e-05
-2.38338e-05
1.54825e-05
2.07238e-05
-0.000167242
0.000131036
7.47408e-05
-6.92568e-05
-3.59118e-05
-0.000305459
0.000165915
0.000312998
-4.08672e-05
1.08977e-05
2.60922e-05
3.87734e-06
0.000271221
-0.000166028
0.00023905
-0.000344243
-0.00037877
-9.60542e-05
7.03923e-05
-0.000388955
0.000237659
0.000341934
-0.00012944
-3.15016e-05
4.51758e-05
0.000108526
-9.13031e-06
1.56491e-05
3.12259e-05
-8.69083e-05
8.53809e-05
-2.96985e-05
9.17427e-06
0.000102498
-1.48697e-05
-9.68028e-05
0.000273145
0.0004037
-0.000625359
-5.14858e-05
0.000225444
-0.000568673
-0.000235891
0.000526913
0.000270488
-0.00064091
-0.000156491
-0.00049976
0.000423135
3.346e-05
4.31659e-05
0.000111968
0.000169348
-0.00107641
-6.83669e-06
2.51081e-05
-1.84904e-05
0.000163425
-4.70037e-06
-0.000144876
-1.70038e-05
-0.000103117
7.51995e-05
0.000898616
-2.35377e-05
-0.000766024
-0.000109054
5.23855e-05
4.93907e-05
-9.18128e-05
-0.000132664
-2.49355e-05
5.19621e-06
-0.000105935
0.00113214
0.000153359
-2.4784e-07
4.08591e-05
5.91243e-05
-0.000449108
0.000379919
0.000598872
-0.000529683
0.000212768
-0.00021051
0.00030206
-0.000304318
-1.25596e-05
0.000466616
1.05603e-05
-0.000464617
2.75176e-05
-3.06571e-05
-1.44522e-06
4.58476e-06
-0.000239834
7.10387e-05
2.16917e-05
0.000147104
-0.00113424
0.00113436
9.57527e-05
-0.000839572
0.000487671
-0.000723455
0.000667133
-0.000352746
-0.000163652
0.000127443
0.000108518
-3.40168e-05
0.000859737
-0.00102752
-0.000262754
0.000430535
-0.000231538
-0.000987108
0.00118865
2.99941e-05
-0.00115634
0.00117411
-0.000128928
-0.00051235
0.000455254
0.000380989
-0.000323892
-0.000443889
0.00040835
0.000136698
-0.000101159
-0.000105875
-8.57545e-05
7.19127e-05
-0.000525998
0.000684275
-0.000579867
0.000174618
-1.73649e-05
-6.19089e-05
-0.00017356
7.46702e-05
0.000160799
-6.98879e-05
8.4047e-05
-1.24264e-06
-1.42959e-06
-0.000224128
-0.000923126
0.000891754
-0.000269395
0.000300768
0.00126997