/*--------------------------------*- C++ -*----------------------------------*\
| =========                 |                                                 |
| \\      /  F ield         | OpenFOAM: The Open Source CFD Toolbox           |
|  \\    /   O peration     | Version:  v1912                                 |
|   \\  /    A nd           | Website:  www.openfoam.com                      |
|    \\/     M anipulation  |                                                 |
\*---------------------------------------------------------------------------*/
FoamFile
{
    version     2.0;
    format      ascii;
    class       volScalarField;
    location    "0.4";
    object      p;
}
// * * * * * * * * * * * * * * * * * * * * * * * * * * * * * * * * * * * * * //

dimensions      [0 2 -2 0 0 0 0];


internalField   nonuniform List<scalar> 
5794
(
81.4461
80.0676
81.1524
79.401
89.3215
80.0403
75.9102
73.084
80.454
84.8658
114.505
74.5854
74.1602
73.9013
79.5363
79.0984
47.3651
74.2772
80.2858
81.0528
78.309
80.5585
75.655
78.4101
76.9271
41.5
49.7357
74.4258
82.4446
80.2129
76.8051
72.5276
95.1533
75.4276
75.9166
69.975
87.2406
74.6859
75.3753
79.9461
79.2618
79.0205
105.723
82.3367
79.8242
96.6136
73.0859
74.6731
83.7063
83.0479
79.5145
74.4929
75.6476
83.4616
82.2803
98.8937
73.8349
73.9897
105.883
36.4593
92.8441
81.9831
75.575
72.3746
94.7215
81.5683
82.3975
81.7882
74.2537
81.9053
73.6418
82.6764
18.0041
80.8791
74.1479
74.435
80.0756
47.417
82.1295
81.1539
80.6684
80.9725
79.1814
75.7826
74.7911
76.3491
70.8896
100.77
78.9368
81.8195
103.812
74.017
75.639
82.922
75.4323
73.2585
99.6367
76.1572
74.1555
93.7691
67.8071
72.5309
105.925
75.3292
78.7892
75.3894
81.8371
115.792
72.3439
81.9683
74.4369
79.4559
59.3977
81.3625
75.1019
80.8665
80.4335
76.2322
91.9775
78.4952
76.0131
83.8986
76.2243
74.3278
79.3099
112.537
72.5641
79.8556
76.4105
114.3
74.1418
80.4024
73.1001
51.0063
77.0974
79.2991
105.817
82.0526
79.6979
71.7431
79.2693
80.8023
78.7144
78.6613
79.597
53.4623
76.874
103.632
91.1052
78.2652
110.313
83.6813
76.2969
73.9107
50.7894
73.1462
78.0231
77.0807
95.9821
74.8483
79.5366
74.9035
72.9891
70.3315
72.5626
74.4941
74.5554
73.9361
73.8311
80.0485
79.9163
73.5011
72.4085
76.857
79.2036
72.2576
80.0008
75.987
76.7808
76.3518
73.2692
73.2241
74.0606
97.1987
81.2443
49.8935
72.6409
95.9964
83.9897
72.3102
114.259
72.5799
95.2098
76.6673
80.017
74.9756
73.6746
73.9011
80.4151
104.231
72.5859
73.5527
75.8193
80.4528
72.8643
96.1985
74.508
116.105
79.3768
79.4861
81.6755
86.2529
70.0006
73.7057
77.0073
76.6707
71.6888
73.6301
114.933
88.4029
86.3467
74.5097
102.482
74.9805
100.44
37.7915
80.2959
86.4443
88.0865
80.0152
73.9592
76.48
79.7383
72.8052
73.3336
53.6235
64.9391
108.555
76.6989
81.0989
80.0374
116.364
82.3678
74.2968
73.6521
74.5765
79.2096
91.627
100.691
76.6246
74.037
81.4313
49.1414
81.5882
108.374
80.0877
104.921
104.644
116.177
79.4109
106.325
71.6854
73.3877
82.1508
79.8017
73.8955
78.3646
112.124
79.4473
95.5452
72.7034
76.5395
77.6655
72.9638
87.6651
80.0547
83.4843
77.69
83.1525
75.7325
73.7929
95.0867
78.8056
79.1831
79.8758
75.1451
74.3386
75.7454
78.6807
77.4288
71.7976
76.8179
77.6441
83.54
101.376
53.5571
77.9818
79.1619
77.0266
82.0492
80.9553
67.1174
80.5988
81.345
81.5391
110.571
83.061
73.226
94.8237
72.7344
77.0011
95.3809
82.2794
81.6482
87.0661
89.1064
115.765
74.4668
72.3069
84.0248
73.5356
78.0692
75.8687
90.5312
79.1924
72.3367
80.1944
75.0794
76.4113
114.78
74.2711
106.98
77.5127
95.5534
72.61
84.4477
86.6389
73.1377
83.6176
96.2194
77.5939
76.6929
78.9833
75.627
80.2603
74.1658
99.3009
73.8231
75.2892
74.253
75.3223
54.8396
95.7557
72.8088
75.1834
48.5376
79.6148
75.7245
73.9966
73.1777
115.988
74.0678
106.875
74.2417
72.7179
90.4954
73.5016
97.4222
73.3803
74.3905
82.6547
81.9346
90.2724
80.3668
115.724
72.4109
99.1316
73.642
75.3327
83.1864
80.0352
82.5022
87.4976
69.5585
75.5973
74.0278
82.0902
74.8207
73.1722
76.3686
74.2442
78.4132
81.7625
73.5084
73.4671
76.5567
80.5911
82.2819
79.1943
73.2507
77.4992
76.5909
50.7474
74.5804
79.308
109.909
82.235
80.2128
81.5836
100.315
75.0661
72.5164
113.666
73.6766
95.8434
72.8249
76.55
75.1111
72.5704
99.8672
73.9539
76.0881
115.344
82.8534
70.4442
76.0263
75.0489
81.1731
80.6893
80.7635
73.8154
87.5055
77.9299
61.4553
79.8661
80.5041
74.7378
79.7679
69.78
75.1544
73.3713
87.0972
81.6353
73.8244
77.294
80.9622
74.7985
79.7259
81.1384
81.0844
87.4809
80.9579
66.5894
80.5641
75.971
82.2935
98.1251
76.7244
74.9813
83.4325
80.5375
81.1678
76.189
74.3871
94.7284
114.151
47.2857
83.2089
113.95
81.7851
82.3227
71.9331
113.649
87.9872
83.3507
97.0472
60.6601
74.1425
81.1598
81.1254
77.1633
80.5101
85.0021
87.5395
115.745
114.019
85.9918
79.0107
53.7421
80.6104
80.8922
77.7374
76.0944
91.247
80.7515
73.1292
80.0896
82.2277
79.7065
109.304
85.3929
60.2612
89.3127
71.8258
77.5712
81.1426
80.5326
103.591
113.661
81.3204
72.4
83.0034
79.8817
82.3423
82.2118
75.0249
78.7354
82.3865
86.1543
49.72
80.3259
81.44
87.822
77.9369
113.899
79.7138
81.4046
86.524
81.2436
80.5152
78.8131
82.1029
47.4896
81.5086
89.768
78.8432
87.2256
103.924
113.973
105.627
80.636
61.3711
80.8038
73.2329
80.3963
79.2938
87.7765
79.4094
81.8428
79.8461
76.3449
83.3541
80.0866
81.5147
79.8107
78.4839
78.8798
80.5352
81.3167
85.9386
21.0432
80.1401
111.299
83.5891
73.6633
81.0035
79.1319
81.8203
79.7981
81.5161
95.6563
73.8341
73.4293
75.1779
50.9171
84.647
85.2861
78.9572
79.2884
78.6771
78.4883
75.4696
113.889
51.9057
76.0018
98.6027
81.0939
75.9114
73.9749
99.25
81.3047
79.8133
82.0479
78.9219
74.8136
91.943
83.0778
86.7231
81.2504
78.72
79.3761
96.5192
74.9351
80.8518
82.2179
113.628
55.2726
85.6014
82.2591
77.977
78.4222
78.3625
75.5128
81.5485
73.4498
80.9161
108.873
114.627
103.151
76.8401
81.8011
113.564
112.953
115.914
81.953
79.7351
80.1797
88.7001
117.22
81.2894
81.1587
80.3059
81.6532
80.132
81.5549
85.4421
58.7642
86.7751
89.1621
75.2113
80.7884
106.403
115.182
74.2263
104.91
81.343
74.9639
95.1173
81.306
82.1761
79.7808
81.411
81.4608
81.0689
74.5701
109.7
48.0042
75.8653
45.7309
79.5005
82.9066
84.7777
80.5074
79.0367
81.0565
75.3644
80.8665
75.2312
74.6986
95.1844
108.622
82.0966
39.5915
79.9212
75.6348
74.6334
80.8263
79.0094
74.829
81.2176
79.7048
116.42
83.0921
79.6294
83.8427
104.456
87.0469
81.9217
83.2683
82.4892
80.1103
90.4419
61.0729
75.4558
83.5772
85.5492
115.885
81.0621
80.4525
86.2098
83.4671
75.5024
81.8004
104.772
86.8726
107.863
74.9081
86.4348
81.1569
115.733
106.05
84.3138
75.1761
78.071
113.611
85.0127
88.7583
42.8805
111.764
81.2291
116.104
59.7484
104.391
80.7113
83.0367
81.9324
103.015
87.7343
115.607
90.2074
75.1726
59.8001
88.3391
110.094
83.5939
81.3447
45.6798
113.733
74.1545
75.7837
101.134
81.8508
80.0159
78.3078
81.3219
76.391
74.2826
97.3276
79.5695
87.0903
79.7355
81.3955
82.7999
82.2968
75.1844
80.3606
88.5796
84.2273
75.4275
97.8426
80.6593
66.5887
77.248
75.123
81.6552
77.0215
75.1509
102.007
82.0433
75.8575
74.0513
100.224
88.8608
81.4581
89.5292
82.2023
79.7367
81.3569
82.3261
79.8775
115.773
46.0112
77.3394
80.5418
81.2636
78.3305
75.0247
115.943
78.6153
75.2384
79.6064
110.16
98.799
73.4346
74.2675
75.0651
80.801
58.5241
80.6297
55.8139
85.4042
115.844
79.5524
81.0578
79.6815
83.6374
115.335
116.785
108.606
95.1294
75.9773
78.5838
81.5071
96.4165
87.5511
73.7279
73.4312
96.29
115.73
81.4484
80.4441
80.6045
102.424
52.8485
81.5314
87.9868
83.5035
87.4082
83.9711
74.1256
76.1336
98.5862
86.7321
81.6057
75.0274
86.8232
79.3271
38.0028
81.0528
80.0606
77.0653
81.7475
113.67
79.566
88.527
82.3566
79.4269
94.46
86.786
71.9134
74.6437
80.6065
74.6875
80.7205
111.809
112.037
50.7783
81.7584
82.3493
82.1785
94.679
84.9192
81.628
89.1941
92.3998
75.5337
63.8512
113.635
82.3554
74.7773
79.666
86.439
111.08
79.9974
56.0112
83.3782
82.1244
54.4794
97.5092
86.2809
74.0543
73.5104
114.623
104.497
81.7716
81.8233
72.94
112.577
81.8603
87.0476
111.996
80.0002
74.8545
81.6375
82.0362
88.8295
90.2314
80.7115
80.8349
89.1356
81.3662
82.7863
81.5887
80.1354
109.495
81.9129
86.9151
81.1584
81.4172
81.4963
77.8109
84.3274
113.716
113.914
57.7096
75.2485
78.4943
87.2355
81.2783
55.2123
94.6407
70.1153
106.682
76.5386
74.4174
74.9994
79.7832
81.1642
96.0935
81.6632
81.872
82.0682
79.4827
82.0685
106.422
77.0587
74.2624
100.536
73.6995
76.1021
80.3575
101.431
81.5384
80.28
91.1017
81.643
78.0342
115.392
99.1201
87.1503
75.3238
61.5945
80.9634
80.5687
76.2733
44.7317
87.3371
82.6201
91.4419
85.4805
83.6299
87.8594
82.0961
81.0211
73.8665
81.8942
81.9204
78.5739
81.238
81.3684
81.7045
82.1919
86.9023
74.5053
87.7999
82.9945
81.2128
99.3333
87.2895
76.8656
79.4377
75.0557
81.6071
114.713
89.5446
80.423
82.4234
80.0067
113.566
82.3107
87.0009
78.8784
81.1925
87.0478
57.0807
86.3784
80.9983
93.1964
82.3861
87.6569
81.1464
77.4364
100.368
61.9656
75.0625
91.8318
79.7786
81.5046
81.1841
79.44
92.0939
96.7665
50.943
70.5506
76.0423
81.6555
75.1387
75.8357
74.0553
94.6519
104.013
81.9362
80.5225
81.1484
78.185
87.3746
77.959
85.6254
79.3332
86.8895
87.5317
88.5237
74.8946
79.9364
81.3396
90.5543
75.6046
113.702
81.9217
87.0353
73.6459
82.1916
86.2414
81.9855
80.3028
115.683
82.2917
116.04
81.8493
88.976
115.791
82.1291
86.1882
99.7096
81.2457
79.1299
79.7926
82.551
81.7079
77.6445
80.4253
81.2531
76.6731
82.992
81.409
86.2896
82.2218
82.9649
76.5892
76.1611
71.384
87.8192
95.2799
93.1457
79.8292
74.8704
82.9117
82.128
79.9298
79.0562
79.0301
75.8643
82.8386
106.818
82.3753
87.6012
83.4159
113.463
83.2233
73.1647
82.0555
81.3453
88.0774
78.314
79.6894
80.6308
79.6381
86.8829
87.4277
81.5324
87.8722
81.5767
81.2993
76.3586
81.218
80.5268
80.2787
80.0827
114.738
79.744
55.7096
82.9252
80.3159
81.3108
87.0995
74.2372
91.1845
80.125
82.3633
86.1588
93.3555
78.2287
76.1096
81.7769
79.5276
79.7916
77.8178
91.2474
87.3596
85.6234
85.4328
110.295
103.49
83.748
92.0998
91.0885
83.6214
71.9323
80.0735
82.5054
28.8429
87.6584
82.3612
80.1776
113.626
113.869
84.3076
79.647
81.3198
77.1658
81.2856
81.6728
84.4385
77.7139
79.3458
78.9569
79.7485
78.4665
81.2503
79.701
80.3108
81.3151
84.29
81.0441
75.0014
80.5435
79.1071
80.3976
74.0646
93.1185
94.0815
88.3009
84.8654
87.075
92.9805
80.3395
79.6165
77.9025
94.6619
89.9049
80.7023
80.8414
106.084
75.7017
108.137
73.4142
77.0654
92.6848
80.7564
106.412
96.0682
73.5746
80.4067
86.9503
102.025
82.6697
74.2255
81.7569
55.1007
82.2867
83.1719
79.491
80.1495
81.4806
89.5554
84.3072
106.53
79.7792
81.3786
91.8528
74.15
74.1979
83.0953
82.1953
72.5145
80.9069
113.427
115.002
80.8933
87.1756
81.4543
74.3911
74.0128
72.4604
94.9855
116.54
105.647
87.8086
89.0538
81.3595
75.0878
76.6556
87.1119
75.1656
81.3259
80.2017
82.1845
75.2249
70.2697
75.2178
54.2414
79.2233
81.0316
105.013
87.9437
74.3491
82.7448
86.461
80.7746
81.0209
82.5676
79.3613
80.4551
81.111
76.0696
80.7974
74.6301
82.3512
78.7824
79.6337
81.3021
67.3687
78.8084
109.197
86.4783
75.4568
80.656
73.8538
100.341
74.0981
75.5634
79.2588
89.2943
115.088
54.006
80.6699
83.3767
82.7656
72.6726
81.2411
78.8016
80.2857
77.8493
79.8627
79.4678
78.4909
79.4222
76.9991
81.1779
81.7698
86.9984
79.6239
81.8626
79.0053
100.927
87.677
114.856
114.294
73.5522
82.2058
83.3663
80.7785
115.681
81.0317
80.4841
72.1174
82.0324
77.8998
80.8297
78.9647
79.974
79.9154
82.9793
73.1738
83.6752
48.39
79.6951
45.2794
51.6457
79.8416
86.8266
82.2444
78.725
79.0255
79.746
75.835
79.1724
79.4032
72.4208
94.6043
94.0821
74.3415
74.9396
78.6478
73.6739
90.608
81.2362
78.4897
115.001
82.8781
79.6058
82.8967
81.2398
78.7118
103.524
79.6799
78.287
75.344
72.6076
80.5386
82.013
83.4757
82.223
87.09
79.5229
120.537
114.577
82.1035
45.0703
115.374
74.2774
76.8662
82.0529
92.195
82.6502
80.8109
79.9857
79.1402
9.19684
87.5542
75.8072
71.0682
101.071
52.8963
104.812
81.0505
79.9539
80.5865
80.0277
79.808
79.8321
79.183
81.0966
80.2344
79.7087
79.7068
80.1308
78.8431
80.1039
80.6105
79.8088
79.6766
79.1176
79.379
79.1503
80.9682
79.999
80.6636
81.1549
79.6618
79.7697
78.7104
79.4801
79.7218
80.1276
78.5177
79.4414
80.7634
80.0145
80.7873
79.9897
79.6102
80.7874
80.5835
79.7119
79.9662
81.1517
78.3217
78.3921
74.3435
73.1519
56.013
81.6198
79.2681
92.951
83.9006
83.8002
82.8042
82.6018
85.7489
82.8861
80.4524
75.8617
47.4251
81.3996
82.0945
81.0709
83.0722
83.031
81.1768
78.7784
79.7437
78.3476
81.0848
81.1462
80.2494
79.4244
113.801
87.4567
79.1777
74.1884
81.8479
43.2467
82.3757
77.6033
74.6162
96.0807
73.9448
79.9593
79.8746
75.0232
109.858
85.3732
81.0553
79.3885
74.3813
85.975
85.0331
9.90751
81.735
81.1177
79.3239
74.562
78.9503
81.89
129.89
73.5909
80.7587
79.7404
79.9526
80.244
80.0151
79.3284
79.7677
80.987
80.0979
79.7246
78.2816
78.7461
81.1941
78.6646
79.7099
79.0661
80.6518
80.5786
79.4628
80.0451
79.9518
80.666
80.6659
91.5067
80.5158
116.34
99.0128
79.4448
85.9077
74.983
82.3834
109.831
82.7291
89.9778
119.581
77.9305
79.4467
81.1983
77.4425
108.082
85.6806
67.7044
83.3638
77.8856
82.6317
74.8523
89.3041
82.3708
75.0017
89.1368
84.4768
80.6405
80.0926
79.5519
74.3813
82.0046
74.5131
76.4381
80.8438
82.8296
82.5113
82.9685
78.4211
81.2525
82.8767
75.3763
81.2117
81.2197
79.858
81.6511
83.9086
87.2023
76.4006
78.3292
78.9445
79.7232
74.2329
82.2874
87.1783
97.554
74.6776
112.544
80.4163
81.7552
77.6659
80.9001
75.5153
87.2069
81.5538
79.715
77.7463
80.7239
81.7178
73.5988
86.4566
81.1267
79.4319
82.3253
85.2913
84.0953
90.7512
87.3526
79.7444
75.7003
77.3154
76.3639
75.9282
73.564
81.3493
81.4457
82.6994
78.4615
83.3532
74.0499
106.291
73.0264
80.608
78.4299
86.0679
79.5886
80.7652
80.6008
81.0491
74.8193
76.1566
103.714
75.617
84.3293
74.0808
80.1942
109.046
108.428
82.7344
81.84
78.9431
90.6545
76.3388
98.5204
85.7894
132.26
78.485
78.087
95.4723
105.417
73.1191
74.139
77.6049
119.163
73.4026
99.3523
74.1672
122.1
73.4793
78.0534
27.582
81.0947
80.0058
77.9135
80.3673
79.9064
78.0234
86.6892
78.7193
81.2102
79.307
74.1682
74.7803
81.8397
81.1507
74.5618
81.3416
75.4642
81.2827
74.1908
73.8326
80.6694
79.238
73.911
80.2376
74.008
73.8211
73.8979
77.8665
77.5798
73.6115
51.5474
79.9789
72.5488
71.5243
80.2511
81.1442
81.9081
76.0142
77.0856
78.9332
80.9694
80.4047
81.4204
76.9457
80.7553
80.015
71.9626
79.8672
71.5971
79.7918
80.2027
81.6937
110.949
79.8883
81.339
80.0417
81.6555
81.1145
80.3264
81.0324
80.1784
80.1
81.1976
80.4246
79.5737
72.7806
79.8808
72.7131
80.3883
98.6209
80.2341
73.7783
73.0041
75.417
96.5839
72.9284
80.3546
98.1752
96.4195
73.2366
74.1484
71.0207
79.1084
72.4293
94.7195
100.717
80.3197
75.9039
98.3079
72.5183
97.3082
79.4334
79.9794
79.0465
72.5869
76.3186
51.5854
80.2486
75.2284
73.4959
80.1883
72.6977
71.7741
76.3083
96.2057
94.8191
69.9789
52.1863
71.948
78.9199
72.193
80.2354
74.3611
68.8587
72.3413
97.9175
76.223
52.3203
68.6813
74.3468
71.9254
71.9182
50.7673
79.0988
136.791
72.5023
81.8589
69.1003
75.4942
78.9285
74.2586
94.8715
72.4283
72.6981
50.895
51.5199
81.7145
80.041
80.3332
82.2198
79.8688
74.2606
73.0651
76.9794
78.6885
79.0301
81.2247
114.455
80.0425
81.7636
79.7301
80.0532
80.432
80.4671
79.4894
77.9504
81.8124
72.2738
79.4138
78.9875
75.7451
70.5892
76.4798
78.5454
80.3959
80.1482
80.3516
79.7917
79.8943
81.6568
80.0899
79.4748
79.3632
81.1349
73.3229
72.4954
95.0743
79.5066
79.5656
73.2008
79.2688
79.7724
79.9345
81.7952
78.9822
79.5311
79.323
81.3341
79.9878
79.2684
51.0022
80.0457
79.0574
78.9385
79.4884
79.7347
80.1372
75.4263
80.1361
79.0435
79.5796
79.2117
79.019
79.4107
80.0626
79.4151
80.0019
80.0288
79.074
80.3412
80.2139
79.8535
80.0237
80.1072
77.7926
80.1154
79.406
79.187
79.8973
73.5267
79.3717
81.083
78.4032
79.1464
78.8591
72.5723
72.8466
95.1882
80.1355
72.4797
79.3586
79.8001
80.0956
114.722
75.6155
73.405
72.4682
79.556
81.3471
76.8612
76.8183
71.7322
79.3793
74.2007
79.2416
50.9195
106.46
78.8594
77.4689
78.2996
77.3468
78.0059
79.5415
80.7957
114.973
75.2402
72.7071
77.2405
74.472
77.908
79.7464
80.5172
96.2323
73.0452
72.636
115.235
76.5042
76.8706
73.0986
74.9789
50.5592
106.329
78.7875
74.6573
76.2726
75.426
77.0984
73.5115
72.9175
72.7911
75.904
74.5753
77.8406
79.8344
80.4406
74.8373
75.3169
73.1675
115.05
77.1928
79.3905
50.8587
52.4392
79.361
106.275
80.2784
73.041
75.5455
77.4705
77.5456
77.2583
73.0569
73.7651
74.6532
75.8019
73.9453
98.5037
73.145
103.087
77.0177
73.4911
73.0481
83.4177
83.5491
78.1525
75.3348
75.7445
79.263
79.1908
74.6288
75.0266
73.0011
74.3187
74.6106
78.1402
79.8168
80.2673
73.6581
98.3434
73.3949
115.258
80.6299
80.563
82.1903
77.7799
74.0477
80.2298
80.1185
79.588
51.9274
78.4398
90.1197
82.8026
85.4645
106.237
87.0528
81.1616
79.245
77.646
77.7146
77.9821
80.0606
72.9922
86.3817
77.4446
72.7739
91.1705
85.1602
79.1048
80.2165
81.4655
81.619
80.905
79.2873
79.3755
74.5895
78.537
79.8507
80.2856
74.736
76.8216
86.0224
81.655
86.2365
86.79
109.415
81.6658
85.0721
78.7359
74.5435
80.5014
79.6895
50.0021
77.5516
81.0924
83.4038
86.6831
87.9737
78.6227
80.7506
87.3123
80.6378
75.0995
74.0958
74.1751
86.8426
87.1898
79.9381
79.9547
79.9486
79.676
77.4316
81.6851
81.1897
79.2715
76.8585
77.0252
88.3003
77.0633
78.3355
78.2756
79.8321
115.909
79.9611
79.4844
75.8498
81.4456
79.879
80.2093
75.8127
74.9622
80.9028
81.9963
81.8451
81.467
79.9268
78.4577
79.7941
80.214
80.1745
80.2123
80.2835
74.3947
100.411
73.9115
74.105
78.9447
80.1785
79.2483
80.5975
79.4066
77.8695
79.0121
77.7935
81.7057
88.4398
81.5848
80.1593
87.0973
81.374
108.732
79.3152
79.2389
80.6529
115.41
82.9645
79.3834
73.9708
86.1251
75.9368
80.3412
78.3844
81.3438
79.6926
81.1163
81.7712
76.8703
80.9085
79.7993
80.7107
114.112
77.6908
79.9204
85.6763
81.4173
73.8465
79.9927
79.9991
80.4226
81.1764
83.6685
74.8783
79.7992
79.1719
76.4795
81.531
83.5106
80.3678
81.6342
79.2589
75.5783
80.7294
81.9612
106.195
106.982
81.4766
81.691
79.1785
81.3281
106.557
79.0523
80.1395
79.3855
80.2086
107.666
81.416
79.1115
73.1266
74.623
81.1536
79.3564
75.4525
79.9692
78.9575
73.7714
77.6852
85.944
81.9618
85.7656
114.907
81.2507
79.6889
74.4721
80.9435
77.965
80.1735
79.4737
84.1581
78.8017
80.0563
80.8029
77.4192
76.8533
87.0242
81.9841
78.443
73.311
86.8667
79.0035
80.1449
78.9958
79.8004
80.3188
85.0009
68.1131
76.6001
81.5331
81.5547
85.0028
80.1095
73.7718
84.5006
75.1126
73.8541
79.1442
81.0196
86.4251
80.1123
79.1608
77.0799
77.4254
80.8738
75.7233
92.8616
73.4061
117.909
78.9571
75.7831
74.7332
76.3242
80.5568
71.6472
81.8844
76.2577
81.1614
109.554
74.1299
99.8383
74.7938
81.2845
79.1559
81.0592
76.3717
86.6137
96.671
76.568
85.4452
90.9523
97.3361
73.1117
85.19
79.4943
81.73
78.891
81.238
115.537
71.4141
81.943
78.2456
83.4188
49.6232
80.2667
80.4031
74.6385
77.7582
79.6655
80.464
73.0144
79.1091
81.3867
79.4134
82.0482
81.1915
75.868
73.9491
76.3296
81.8815
51.7466
82.3725
78.6338
101.348
83.6845
73.2762
77.5025
34.1886
92.2697
83.3389
78.1044
84.2082
84.7662
114.888
81.2541
81.804
82.3982
122.56
86.9783
78.121
73.1094
81.8306
79.6632
82.1899
75.1254
79.9491
82.2369
78.686
79.8797
107.647
80.8483
77.1212
81.0749
81.6199
84.4029
79.4827
79.9134
83.5583
79.6578
81.2842
126.62
76.7112
78.3809
79.5577
79.9476
83.1813
79.5282
113.683
79.9163
81.704
80.2414
79.7167
61.0191
114.25
79.9015
79.8639
73.7774
78.8814
89.2659
78.9361
76.9832
81.7929
87.0812
80.9343
80.394
73.8514
82.3792
84.8967
91.2183
78.0197
81.9203
77.1839
77.688
79.9623
81.495
84.8683
80.5524
82.3288
77.9115
80.3558
81.2652
72.8846
85.5665
77.3915
77.2312
73.4535
81.6848
81.9949
79.2819
90.3147
75.0919
81.958
79.2791
78.1839
78.2012
76.484
83.8423
86.1822
87.2729
81.6784
79.7523
80.2731
65.3862
83.0296
78.8985
79.7416
80.9424
102.91
76.6848
81.3156
80.3101
91.2098
73.2267
76.2805
78.8351
79.9927
81.3625
76.0831
101.662
76.0198
80.6999
80.5137
81.1869
77.7431
83.407
75.4584
82.2161
75.5994
74.9768
100.412
79.1056
79.5082
79.0296
78.8319
79.7458
80.2642
72.8145
82.5706
81.2023
86.3388
81.7637
73.2151
81.3002
78.9412
79.8848
70.9673
82.2312
83.8147
81.1085
79.7118
86.4087
82.5576
78.9993
79.1373
79.7851
80.4426
122.769
98.2912
79.8767
81.2195
91.3513
99.3043
99.0387
76.0846
74.424
79.3185
82.0256
79.721
80.318
85.2942
114.51
79.358
80.2403
72.7917
73.2584
96.9158
81.2944
78.6358
78.6822
80.912
78.85
80.2621
78.2767
82.6877
49.0729
61.6994
81.7697
80.5636
83.1341
79.1921
75.1388
75.9476
90.2175
77.7768
106.365
80.7311
77.9892
79.3085
79.4753
77.7821
82.1953
81.0123
80.0455
79.1207
89.6899
79.7164
78.8712
76.5499
113.662
82.0253
79.7183
70.5254
74.8035
113.822
114.763
79.4142
80.9549
80.0025
80.8375
77.9652
80.5255
18.9126
81.5402
109.183
72.5971
79.8734
82.5769
87.3419
112.164
79.382
78.5803
79.7709
80.4607
79.9906
105.151
71.8294
80.4205
83.0741
85.4348
82.3245
81.2667
79.2343
79.628
86.9581
114.101
93.9281
80.118
77.4859
78.3862
79.7195
80.828
79.0923
79.6439
81.1232
82.2036
77.4399
82.0696
73.5469
73.3331
107.554
74.0719
81.8724
86.938
80.3373
44.7885
80.0536
79.0874
78.9203
79.7499
80.4209
94.599
81.1192
78.2295
79.1529
88.5421
79.24
81.7678
79.7395
79.6903
84.0236
83.4196
82.2927
73.7767
76.9588
83.6632
79.1773
80.9346
81.5268
77.0943
79.3356
87.0337
78.3964
79.8836
81.0697
86.9711
82.4326
79.1196
79.5567
107.514
109.277
80.7821
82.3442
79.0733
81.018
80.1907
81.7522
89.3619
86.2407
78.7148
76.5847
91.4886
76.9683
81.7208
79.9298
79.137
78.5949
81.0314
71.3592
74.2647
78.6493
100.952
81.1013
80.8424
79.1381
81.9764
79.2807
73.0515
80.558
79.0764
81.2524
83.552
80.1475
68.8619
89.6223
84.3503
87.4137
76.4532
79.8958
79.1258
79.179
79.8733
87.2673
86.4523
79.947
80.0497
78.4077
82.7428
79.1106
79.661
82.5513
82.1408
81.2027
80.3347
81.0396
82.9615
79.8622
79.2959
81.0614
81.1181
87.4988
79.2365
79.9823
81.011
73.7737
76.96
82.0821
80.1496
79.8121
79.8686
79.0588
83.5662
114.227
73.9245
48.9029
90.3858
74.0222
80.8757
83.4476
81.0114
79.8971
80.7046
81.5434
80.0509
80.8614
87.1341
87.7642
105.972
82.3416
79.2158
81.0137
82.2761
106.027
74.2879
83.0889
79.7839
84.3103
105.242
75.8258
77.8058
79.2781
76.1031
115.854
86.3625
80.6767
81.2755
96.8824
73.1904
89.111
81.6811
75.9433
79.5331
80.8925
77.7293
80.4953
81.3303
78.3766
81.3585
80.2172
81.5816
79.6876
79.7446
81.0368
79.497
72.1792
82.7148
81.6791
83.0036
82.6868
81.9878
81.1367
78.6082
76.7554
72.2708
82.5403
104.411
82.1945
75.6944
81.9063
42.3977
83.3556
111.21
80.9139
81.824
82.6638
73.0871
79.8471
79.318
79.5203
82.6277
74.1578
79.1541
81.1567
106.988
72.8521
73.0736
79.8337
81.448
116.227
72.5752
80.9204
80.6372
79.3145
79.4833
86.5323
79.8572
75.4235
78.4119
79.8518
80.6526
80.1298
79.539
80.892
74.1481
83.7975
68.6324
81.0872
81.0114
74.3243
56.5485
87.2375
96.1596
79.4268
81.6181
114.288
64.0179
100.836
86.8091
78.8074
79.848
80.6407
74.3907
91.3407
77.2808
80.5608
80.9996
82.7242
74.4376
108.289
117.748
79.9163
100.501
87.3643
113.549
83.592
79.6163
78.6291
79.7888
77.4354
77.3293
99.1087
73.4265
81.5365
79.5407
80.6926
114.096
79.2488
101.654
74.8013
74.3947
73.8301
79.7806
78.711
80.1775
79.8077
79.0353
80.2028
81.1529
80.0976
78.8758
80.6286
73.5386
80.6965
76.6259
90.3523
87.579
37.3981
113.712
82.454
80.5405
82.1754
74.0189
79.3281
73.315
80.9753
83.7449
79.7384
80.9602
83.3703
98.2497
75.5117
73.3984
98.5125
81.261
79.8497
81.3682
87.369
32.0491
74.8164
72.4
94.7275
73.3702
89.8105
88.8895
86.8608
89.6216
81.6921
82.7701
75.7623
116.156
83.0221
81.4029
82.9577
88.0454
41.4736
79.7738
78.8927
79.862
73.642
74.2734
70.9521
83.0859
97.3593
79.2931
82.8839
79.5643
105.84
80.2333
73.3536
79.3511
79.3632
79.419
81.1834
83.153
82.8172
81.4829
80.3879
96.7693
73.6018
96.1092
78.2557
73.8275
92.3911
82.5887
115.683
81.0617
82.4945
90.3427
102.085
74.8257
74.4613
81.1759
79.4157
74.5538
81.4007
113.028
79.4282
92.4702
79.3888
82.5128
91.7628
112.402
113.527
74.1412
83.9675
83.2901
85.8437
79.5257
81.1048
73.5407
91.1587
83.8277
81.7063
81.7905
80.8909
79.8114
67.2894
82.1452
113.374
89.0882
78.0976
79.2001
79.6924
76.3739
107.552
85.3363
79.5981
106.023
81.7861
103
97.1475
83.5752
112.879
76.2612
113.582
92.2197
79.6072
81.1484
89.4986
75.3984
94.8626
79.9492
87.9855
25.2503
82.3459
112.069
82.0147
92.1193
81.0035
93.0348
73.0025
112.683
113.459
86.7934
97.4981
84.8366
78.9816
80.0773
81.2368
80.1491
79.2409
93.6951
80.2666
95.4016
93.7723
83.7092
79.464
81.1619
114.787
81.4005
80.935
79.3501
86.4507
75.0923
87.2945
87.7808
80.4478
97.3166
77.4651
78.6558
82.1307
81.9432
82.3629
95.5041
113.867
73.385
100.182
92.2209
79.9574
82.3307
82.5903
82.192
83.1444
82.3159
113.628
86.7733
81.7974
84.6269
80.5236
101.89
72.1844
75.9431
73.3952
77.9244
81.5582
79.2765
77.8613
80.2791
85.3821
82.6616
77.5043
73.3164
74.2139
79.2187
98.717
89.0561
88.9316
82.2503
82.3789
77.3657
94.6129
80.8372
74.4515
75.2432
82.0592
83.0564
74.2132
82.0186
52.1507
84.5119
82.9758
88.829
79.8122
79.7054
80.3762
113.355
76.5655
106.152
82.1468
79.4698
73.5712
80.2961
81.9587
75.484
91.1067
90.9209
74.6522
101.522
74.9938
80.4217
81.1152
80.9329
74.0362
79.5699
54.2704
51.5019
79.734
72.4937
79.2742
80.5231
80.9773
80.1002
78.4053
81.8041
79.8215
81.0683
84.486
78.8241
80.5067
82.1421
74.7476
116.114
82.217
76.9441
79.1818
76.5292
92.9288
79.4032
80.8326
77.83
89.5183
103.08
75.1364
74.9878
75.593
80.6855
43.7167
78.8772
81.3586
96.2101
114.664
80.4817
87.1873
81.4556
80.4896
75.4633
79.6438
73.4487
89.8338
80.884
82.7075
79.8554
79.623
80.2898
80.5552
79.3222
73.9916
98.0677
74.1139
74.6678
86.9185
79.5601
81.2516
76.744
75.0214
94.6656
72.4968
76.4673
79.7368
73.3736
79.0393
76.3814
75.9665
69.7366
89.3784
75.6143
100.502
110.863
129.077
87.7973
91.627
116.39
80.7144
79.6295
79.0822
110.627
79.4831
85.8041
8.42871
87.1087
80.2613
73.2519
81.8777
79.8523
80.5773
79.1013
75.4881
84.2439
78.3085
80.2533
78.043
86.5333
79.4019
115.768
82.2947
100.475
79.9226
73.4046
77.5025
80.2554
80.9611
81.1502
76.9602
73.8415
80.1064
85.3288
31.0908
103.499
75.0247
76.8543
79.4184
84.4709
74.437
79.4803
76.0522
77.7705
79.3184
79.3074
81.8315
75.8342
88.2146
81.8214
80.1732
79.3072
79.5611
107.139
80.6002
80.9235
79.4431
79.8276
87.8344
95.86
73.8138
86.6571
76.04
74.2786
73.1103
76.2295
79.9051
75.3896
79.2596
78.079
80.0735
81.8896
115.905
80.1044
80.9101
115.207
80.0926
90.0303
80.7112
66.7451
88.4783
88.2505
81.7066
85.7096
81.6251
85.8264
85.9346
89.1394
87.2959
78.2852
74.5493
75.0571
79.8417
78.1505
92.067
82.5424
73.9659
82.4075
80.3987
80.2012
87.7825
76.8743
72.5137
82.1614
91.8467
79.3291
82.1493
81.6848
81.1741
87.6061
53.5538
76.4908
80.1637
80.9636
81.8101
79.6243
79.9735
79.8785
80.4366
80.359
75.9001
81.0481
112.181
80.3026
82.0768
81.4871
74.602
79.6346
86.7777
81.0152
79.4698
80.2392
78.9459
74.6921
81.8436
81.5131
104.033
101.216
74.7064
73.7376
79.5008
80.9877
82.4727
74.7307
81.2349
114.281
88.5317
79.9481
104.368
83.4814
72.6197
73.3314
74.3368
79.5425
71.8392
82.8827
88.9547
79.9026
74.1944
90.5786
85.64
86.9695
76.6544
117.883
73.0783
85.841
80.4463
82.8613
83.0251
102.574
113.156
79.9707
75.4212
80.4723
98.6
76.8047
80.2107
80.5555
79.1533
78.6524
80.7862
74.8819
80.4175
81.0786
85.2514
75.645
72.4389
94.6663
82.0842
80.9786
74.154
76.4421
81.7998
91.2199
74.1968
81.8279
73.7855
80.6051
79.2049
82.3084
87.0676
80.7772
14.7367
87.1213
81.4689
79.9538
75.1353
81.0825
79.5857
79.8548
80.8264
79.9359
81.3556
74.62
78.2716
110.424
74.42
114.109
79.7089
81.235
83.4416
79.2231
78.2656
79.3543
49.1804
106.431
86.7928
82.8007
79.4132
81.9017
73.9419
71.6548
89.7304
79.9028
87.3134
86.9321
81.2285
86.9611
43.2107
80.6497
79.2814
79.8793
75.8686
80.5147
78.5695
74.4308
78.8545
50.9334
73.3258
81.7877
78.3476
80.5035
81.0931
74.1216
75.3734
81.1473
85.7058
97.8163
85.1367
74.5703
74.075
73.3133
80.5249
72.7059
80.4456
116.393
107.018
77.3795
71.9657
83.0939
80.2136
76.5701
80.9863
74.1331
105.853
90.7665
88.7281
81.123
74.959
79.1533
74.7478
89.4225
81.5838
101.467
75.2674
72.2621
80.0174
80.42
115.953
82.537
74.6563
75.6746
77.5921
73.9824
77.109
43.5619
96.4711
81.7425
79.4427
73.6882
76.9146
79.0614
79.5128
75.0803
79.4697
82.3026
81.1788
80.493
115.426
77.927
83.168
83.3481
80.0484
53.5023
79.9052
73.9501
99.1528
74.8113
76.0707
80.5574
87.1933
81.8739
81.0902
80.4811
75.167
79.2069
80.7264
79.817
113.336
79.5182
76.2344
81.0216
79.548
73.2781
69.5647
74.5998
73.7907
79.9625
74.5866
76.838
87.4891
81.346
80.244
105.123
63.2367
74.3433
53.3983
79.6023
81.098
74.6937
73.4434
79.8533
78.6982
68.5878
80.2337
107.146
75.7364
71.926
101.751
112.474
104.985
75.8535
80.0314
86.5893
82.5012
80.0544
73.2047
71.0665
75.4903
75.458
95.9784
95.5425
89.3071
80.2573
78.4036
77.0221
87.4132
82.5961
82.137
90.9531
81.7793
81.6058
113.27
79.9227
80.0387
80.4018
75.8496
81.241
82.6901
79.1926
82.4498
79.9171
79.2319
80.3242
72.8259
72.9435
72.9619
79.3351
77.9341
77.6155
78.6457
78.0833
77.3423
85.7153
96.7449
79.7048
80.0309
80.2923
79.6698
101.705
110.414
79.5345
83.7791
104.035
77.8989
89.0824
79.7852
81.5075
79.8727
80.3964
79.3428
81.7248
80.0513
80.5431
80.3628
81.3952
114.802
75.4352
81.8416
83.8605
81.4744
82.0434
83.1967
77.138
81.084
79.284
86.8681
109.328
81.2065
80.1875
75.8516
81.7719
73.8444
77.7501
75.0843
73.6695
78.831
82.1919
79.8666
79.7284
53.6427
81.6613
113.791
79.9018
75.5086
73.7855
111.984
80.8848
47.5375
87.6172
81.9042
81.7902
82.121
83.3751
81.3621
80.4481
78.879
82.2694
76.7664
80.3462
81.1429
79.6192
79.7138
87.6448
114.618
74.3903
72.9489
79.3522
79.161
81.8118
81.0474
95.226
72.8754
76.9058
87.0124
81.7758
87.2231
77.4747
87.0408
106.62
81.0371
79.6543
81.1166
81.916
115.983
79.2451
81.5583
77.7456
80.2457
77.8039
79.5906
74.9757
114.376
89.6915
81.1554
80.4591
75.8926
87.3908
83.0278
76.1207
81.6164
79.9482
81.7496
74.5677
50.5941
78.763
79.8967
98.2099
115.79
81.8251
86.9695
81.532
113.812
75.1768
87.4262
81.0828
45.5937
53.8061
80.0275
51.8092
81.1983
45.7113
80.0274
98.283
81.788
82.1423
81.7033
81.6608
81.5818
81.6237
80.1332
80.1633
80.1008
80.0459
81.7581
79.9685
55.2943
75.3274
74.9768
74.6296
74.7353
50.9214
75.7077
75.9643
74.3143
75.6347
75.017
73.9648
58.8453
45.2196
73.8738
64.6411
61.724
74.2201
75.6989
82.6505
82.3789
82.5429
82.6899
75.2276
79.8948
82.1987
76.8457
81.8221
77.8031
75.3957
79.3259
76.3208
82.0387
84.8902
101.119
102.369
75.2852
86.468
83.8744
74.6037
82.887
88.6007
100.835
105.128
94.2496
91.4709
109.125
113.192
117.209