/*--------------------------------*- C++ -*----------------------------------*\
| =========                 |                                                 |
| \\      /  F ield         | OpenFOAM: The Open Source CFD Toolbox           |
|  \\    /   O peration     | Version:  v1912                                 |
|   \\  /    A nd           | Website:  www.openfoam.com                      |
|    \\/     M anipulation  |                                                 |
\*---------------------------------------------------------------------------*/
FoamFile
{
    version     2.0;
    format      ascii;
    class       volScalarField;
    location    "0.78";
    object      k;
}
// * * * * * * * * * * * * * * * * * * * * * * * * * * * * * * * * * * * * * //

dimensions      [0 2 -2 0 0 0 0];


internalField   nonuniform List<scalar> 
1431
(
0.0370888
0.488724
1.51696
0.955788
0.0325088
0.607039
0.195818
0.196716
2.53442
1.26578
0.328271
0.0775482
0.0744855
0.931439
1.554
0.434982
1.64129
0.141163
0.258487
0.295927
0.0454231
1.21079
0.922568
1.01694
0.881935
0.269914
0.873886
0.854321
0.499324
0.101829
0.890085
0.314684
0.832557
0.12826
0.129385
0.990793
0.273782
0.313291
0.391963
0.306211
1.94755
0.248601
0.128741
0.135164
1.18444
0.0565823
0.947563
0.211099
0.421529
0.39759
0.108696
1.00819
1.81468
0.196996
0.158883
0.203555
0.800993
1.17686
0.763696
0.0481997
1.15953
0.209796
1.09846
0.292279
0.593237
0.159085
1.40269
0.511073
0.548256
0.322728
0.102064
0.105571
0.174273
0.52839
0.245978
0.62029
0.0462092
1.39967
0.224014
1.29423
0.269452
0.118004
0.111394
1.21638
1.28098
0.0418525
0.0449069
0.265489
1.114
0.255478
0.153377
0.532077
0.0519126
0.312432
0.149148
0.0503412
0.223975
0.264924
0.0451798
0.611182
0.651924
0.222983
0.234772
0.0365483
0.450453
0.101712
0.240104
2.28721
1.2106
0.0399496
1.50258
0.197656
0.215165
0.21264
0.42305
0.0375531
0.120506
0.961888
1.22804
0.936442
0.292745
1.5437
0.981021
0.903731
0.293561
0.161739
1.3675
0.0998374
0.0522679
0.487014
0.188961
1.98559
0.73684
0.264302
0.0586971
0.78436
0.209071
0.180737
0.0834591
2.06096
1.60574
0.0706534
0.289781
0.44067
0.506706
0.37361
0.266926
2.3232
0.241105
0.359566
0.506482
0.6384
0.240268
0.0531764
0.157933
0.0889459
0.283094
0.215039
0.207199
0.257576
0.140296
0.304156
0.117187
0.2398
0.0408758
1.8782
0.0481324
0.304435
0.104734
0.277594
0.628699
0.408173
0.852158
0.385715
0.28267
0.0361226
0.093133
0.498028
0.109714
0.217731
0.316473
1.18257
0.207258
0.238952
0.348362
0.385506
0.231276
0.770802
0.261726
0.299215
0.149656
1.79877
0.0488022
0.254166
2.7209
0.276588
0.234264
0.262285
0.158331
0.108841
0.0803205
0.728573
0.318687
2.0286
0.246279
1.01868
0.0489094
0.3051
0.278602
0.473904
0.264235
0.215716
1.16549
0.299667
0.473507
0.582874
0.200429
0.0932623
0.452596
0.304265
0.291797
1.16537
0.430574
1.82151
0.318493
0.531303
0.530209
0.242921
0.414716
0.933441
0.0407383
0.647356
0.302387
0.201
0.19675
0.204768
0.28702
0.0599702
0.27445
0.180699
0.311177
0.284461
2.46756
1.54229
0.0902743
0.100458
0.309237
0.149505
0.159292
0.539456
0.266366
2.59028
1.22744
0.50156
1.11008
0.66352
0.0842993
0.187359
0.621632
0.645112
0.676751
0.129564
0.0423843
1.7097
0.198708
0.40315
0.574661
0.250626
0.424177
1.97803
0.239946
0.486351
0.264841
0.263825
0.692904
0.271996
0.242932
0.109923
0.138122
1.2967
2.3065
0.176347
0.336705
0.248316
0.602621
0.763731
0.0420309
0.191088
0.478805
0.29246
0.391554
0.333415
0.193157
0.106014
0.289266
0.214824
0.0485847
0.253638
0.236783
0.237453
0.322651
0.545056
0.0619756
0.22856
0.185997
0.297046
0.281594
0.653028
0.631927
0.0868731
0.304533
0.337395
1.06383
0.0704083
0.124987
0.337794
1.34314
0.178277
0.197828
0.551375
0.267418
0.399671
1.40425
0.211202
1.30866
0.654474
0.257362
0.676785
1.22854
0.293926
0.561042
0.0727393
0.152506
0.128021
0.277851
2.25983
0.121703
0.247996
0.130485
0.0768676
0.0761533
0.2636
0.757553
0.437738
0.955072
0.0327153
0.323249
0.0424699
0.0422447
0.0918135
0.0512841
0.0357924
0.0567696
0.0908728
0.065028
0.0793252
0.0414606
0.041888
0.0801692
0.0882195
0.0780989
0.0794402
0.0930576
0.0160179
0.0611828
0.0384458
0.0895375
0.0986731
0.670789
0.780661
0.426875
0.151576
0.496868
0.332284
0.0933481
0.954545
0.55673
0.327896
0.362148
0.0759036
0.0371313
0.0367418
0.0754777
0.048095
0.101414
0.0925644
0.0993833
0.0526716
0.0865282
0.0226975
0.0467553
1.37639
0.454818
0.362255
0.581837
0.135927
0.143988
0.315575
0.834271
0.279555
0.0705178
0.505531
0.307965
0.137559
0.519188
0.32829
0.159414
0.250664
0.0824168
0.641559
0.617737
0.245558
0.105801
1.19801
0.470153
0.696971
0.578265
2.11137
0.138645
0.101676
0.1968
0.316363
0.986105
0.210772
0.231126
0.649842
0.303189
0.945134
1.74933
0.740223
1.80619
0.18548
0.209271
0.51655
0.177154
0.761529
0.384004
0.535113
0.173086
0.257362
0.198197
1.23746
0.400517
0.320129
0.0837765
0.555254
0.835149
0.145166
0.0744587
0.854847
0.644396
0.835428
0.783982
1.01533
0.386732
0.994406
0.806599
0.696176
0.915261
0.171038
1.29449
0.304038
0.296416
0.47
0.157843
0.138501
0.0726177
1.61438
0.25313
0.143583
1.48371
0.132387
0.222591
0.733495
0.285847
0.125497
1.31778
1.2589
1.8171
0.110411
0.305515
0.131171
0.754684
0.207176
0.31048
0.276478
0.525023
0.910377
0.544612
0.0505864
0.0511726
0.203336
0.128621
1.44399
0.135468
0.128339
1.08932
0.169616
0.325232
0.167356
0.619945
1.40777
0.979378
0.885273
0.649387
0.0854249
0.118595
0.950501
0.3522
1.06054
0.923294
0.109367
0.228192
0.548514
0.315566
0.40668
1.60884
1.25298
0.319221
0.139119
0.0793841
0.128038
0.0938209
0.0942
0.170543
0.459002
0.387917
0.447547
0.105997
0.315073
0.31196
0.235086
0.189611
0.0952617
0.663148
0.412163
1.49016
0.321791
0.527687
0.984232
0.939613
1.3975
0.527991
0.569749
0.0447999
1.07673
0.567666
0.217289
0.803117
0.118526
0.174747
0.0429256
0.615335
0.503074
0.163806
0.459255
1.89541
0.619115
0.611584
0.193526
0.620441
0.299883
2.31421
1.69274
1.06276
0.196637
0.366179
0.201563
1.05171
0.613908
0.0501006
1.02151
1.11459
1.04743
1.38314
0.192391
0.293785
0.0970408
0.426135
0.449274
0.123068
0.223301
0.399992
0.841159
0.172613
0.330469
0.425515
0.316446
0.112746
0.398829
0.725658
1.15082
0.359634
0.296454
0.276573
0.330522
0.0527636
0.184256
0.204458
0.0374515
0.473335
0.422704
0.112431
0.590647
0.996284
0.866054
0.308386
0.106211
1.25306
1.34907
0.988318
0.583874
0.177487
1.08925
1.187
0.20518
1.32783
1.18622
1.48505
0.75644
0.0991979
0.210055
0.14769
0.0760015
0.0974785
0.307456
0.0920516
0.0524765
0.499834
0.229884
1.26139
0.144802
0.0378587
0.238353
0.230076
0.617777
0.104046
0.198004
0.544488
0.153328
0.599331
1.51118
0.24711
0.718342
0.0865242
1.43354
0.586319
2.11228
1.00883
0.152218
0.108891
0.288343
0.262672
0.619397
2.16882
0.563523
0.256779
0.332163
0.220664
0.664441
0.991771
0.0713304
0.175101
0.193551
0.282724
0.0290896
0.359073
1.10212
0.704564
0.882845
0.0601746
0.264316
0.161257
1.14197
0.317504
0.311805
0.569041
0.404993
0.0736389
0.495088
1.28044
0.0500998
0.221421
0.103511
0.0915898
0.224604
0.205092
1.34079
0.708028
0.27576
1.16694
1.17599
0.964545
0.0761385
0.422715
0.0929505
0.0197113
0.0475074
0.272538
0.202486
0.986172
0.0919975
0.188003
0.0798736
0.0542273
0.669185
0.589431
0.908254
0.362723
2.09607
0.0980604
0.0594605
0.103823
1.13276
1.40084
0.421448
0.535854
2.91088
0.20839
0.076606
0.413643
0.299206
0.21811
1.6291
0.0784051
0.427608
1.22703
1.98864
0.478072
0.0696629
0.474451
0.0415537
0.471997
0.476388
1.61986
0.189891
0.180189
0.0861814
0.829197
0.178796
1.23519
2.2269
0.316751
0.0618181
0.592551
0.40473
0.211299
0.439349
0.743001
0.0487782
1.8309
0.190717
0.487535
0.517113
0.224605
0.182338
0.350117
0.521452
0.42116
1.53992
0.722787
0.793184
0.794788
0.83778
0.30625
1.07221
0.1927
0.894252
0.614181
0.501535
0.0971511
1.53031
0.0497663
0.0920536
0.251541
0.571725
0.0612933
1.03765
0.312568
0.0589621
0.0964171
0.0572104
0.534099
1.50011
0.282289
2.435
0.0581751
0.0925158
0.164889
1.75625
0.240864
0.192088
0.895431
0.612834
0.362676
0.309648
0.0460917
0.0891757
1.67291
0.229769
0.357397
1.53562
0.21765
0.0842531
0.0315062
0.237335
0.956631
0.137068
1.12736
0.0454708
0.280644
0.234435
1.59015
0.0673811
1.19258
0.537709
0.527514
0.518685
0.528206
0.503188
0.508773
0.509183
0.552276
0.388034
0.19948
0.384899
0.146483
1.70408
0.0799265
0.0626647
0.0675203
0.0634603
0.0722581
0.0881918
0.0762784
0.576816
0.199332
0.618747
0.0657797
0.224919
0.194295
0.257554
0.263342
0.50585
1.52133
0.232369
0.107547
0.343124
0.363122
0.237078
0.495063
0.426175
0.240386
0.112597
0.879061
0.168504
0.834043
1.6043
0.320635
0.344682
0.225099
0.238338
0.0875922
0.172644
0.154047
0.044236
0.215685
0.204234
0.0565906
0.0873141
0.314735
0.900362
0.0952103
0.6038
0.0873688
0.248673
0.163828
0.149552
0.107076
0.248245
0.0496681
0.0657933
0.182203
0.108706
0.293121
0.0398614
0.162563
1.32036
1.36041
0.292523
0.446933
1.5628
0.552958
0.269675
0.271423
1.3914
0.0715091
0.0935212
0.101989
0.0612357
0.10352
0.109591
0.679545
0.503348
0.800789
0.751101
0.489633
0.198748
0.0806479
0.234497
0.150872
0.222997
2.2066
0.142831
0.756571
0.869674
0.603078
0.356786
0.214731
0.0632449
0.136669
0.219585
0.159342
0.233135
0.211537
0.711869
0.0664188
0.530257
1.45394
0.526608
2.07438
0.190035
0.259799
0.349821
0.311133
0.330783
0.369057
0.289021
0.262206
0.352032
0.0530744
0.0457685
0.250564
0.226992
0.0420433
0.0835288
1.54067
0.0446179
0.128514
0.0221657
1.25144
0.0262356
0.463439
0.44011
2.00717
0.103548
0.179267
0.133859
0.442073
0.153312
1.47597
1.75177
0.159265
0.12349
0.398057
0.0311645
0.119788
0.752883
0.0213896
0.823329
0.991115
0.768028
0.372931
0.579908
1.43779
0.951573
0.239889
0.0445744
0.0597095
0.114572
0.588351
0.403677
0.288727
1.1893
1.01139
0.618838
0.0618494
1.43463
0.0183905
0.603528
0.022941
0.252565
0.244114
0.481864
0.32807
0.119126
2.50322
0.659789
1.66253
0.0378003
0.799764
0.918996
0.455883
0.205937
0.214111
0.198351
0.715187
1.77853
0.350429
0.212559
1.37088
1.1409
0.228217
0.263962
0.777757
1.45337
0.988054
1.30439
0.149119
1.50713
0.825735
1.13742
0.168205
0.997271
0.725441
0.13195
0.261272
0.146892
0.410858
2.10228
1.19168
1.16697
0.356395
1.55872
0.158505
1.52007
1.30173
0.316449
0.118305
0.162521
0.654042
0.0332211
0.0377058
0.0814352
0.160325
0.160423
1.44517
1.58881
0.189673
1.48921
0.146996
0.461071
1.82313
0.9778
0.14425
0.137925
0.130512
0.398203
0.0607812
0.204013
0.190692
1.88999
0.349473
0.575498
0.212747
0.106708
0.407792
0.309277
0.327419
1.68418
0.158328
0.202134
0.496984
0.877538
0.244078
0.0964294
0.042797
0.773013
0.353094
0.355096
0.0245567
0.0932087
0.105019
0.151513
0.24426
0.0244638
0.53797
0.797329
0.448438
2.05327
0.396834
0.385007
0.0995011
0.206366
0.507712
0.0158749
0.145785
0.334495
0.0561096
1.20766
1.32278
0.0244258
0.411443
0.842691
0.0629139
0.375038
0.928612
0.0513708
0.0849204
0.636672
0.115668
1.93607
0.137673
0.679272
0.10564
0.892612
0.5785
0.123889
0.464298
0.250088
0.112255
0.11658
0.36659
0.0253634
0.979223
0.0166116
0.118136
0.469763
0.2084
0.164097
0.355939
0.180937
0.0370023
2.61288
0.153715
0.24544
0.293292
0.568628
0.109271
0.053537
0.0749971
0.166055
2.95169
1.39698
0.151768
0.207075
0.719139
0.0532532
1.03256
0.259452
1.3623
0.0359785
0.0817925
1.80066
0.116483
0.146648
2.13123
0.784947
0.511032
0.287304
1.29495
0.0217518
0.0998025
0.0771426
1.41605
1.02307
0.978497
0.0435848
0.0795378
0.0207454
0.336463
0.359424
2.52533
0.87905
0.602901
0.36632
0.204821
0.140496
0.115
0.588109
0.856491
1.2885
0.192051
0.0503078
0.60195
0.634027
1.56312
2.02914
0.432572
0.0711156
0.116057
1.1927
0.54452
0.0251758
2.12202
1.92528
0.750951
0.857111
0.121577
0.300557
1.44138
0.88268
1.11141
0.116702
2.25205
0.676424
0.345994
0.0579444
1.32102
0.351683
0.359978
0.891244
1.58753
0.281195
0.130914
0.130682
1.64328
0.25566
0.178595
1.09594
0.149186
1.45623
0.430975
0.0394909
1.7245
0.196009
0.296355
0.265071
0.412135
0.344102
0.610406
1.35671
0.0334219
0.914738
0.0235456
1.22772
0.783531
0.0588137
0.173509
0.053214
0.133026
1.51612
0.844941
0.198696
0.2391
1.02648
0.054414
0.0929889
0.848732
0.269978
0.0411241
0.25298
0.201853
0.146148
1.84667
1.08677
1.133
0.462275
1.58972
0.137643
0.0605818
0.180725
1.52412
1.49419
0.395597
0.34082
0.735218
1.18858
0.121748
2.22675
0.658274
0.110675
0.122541
0.264929
0.357743
0.22612
0.391853
0.259194
0.566581
0.678253
0.389332
0.334151
0.229934
0.391952
0.294836
1.46316
1.47069
2.56686
1.27361
0.167945
1.53959
0.7617
1.4834
0.0623722
0.0646182
0.350867
0.139498
1.67915
0.0681988
0.0678788
1.9315
0.228933
1.45729
1.72953
1.1924
0.945518
1.08843
0.328338
0.300251
1.24965
0.333704
0.41956
0.040738
0.524088
0.410836
0.0440784
0.73756
1.97967
0.0771718
0.128081
0.0481369
0.0229192
0.135395
1.24862
0.130833
1.3437
0.776583
0.355812
0.936265
0.174404
0.197672
0.335824
0.0553953
0.163246
0.212916
0.0921551
1.18125
0.231428
0.522198
0.0380445
0.239427
0.38159
0.0973515
0.998214
0.0206186
0.127694
0.124659
0.21256
0.066083
0.0755607
0.110244
0.522143
0.159718
0.45261
0.161548
0.165877
0.128769
0.535935
0.280545
0.492812
0.201014
0.152479
0.242906
0.162365
1.38794
0.403413
0.264644
0.204582
0.0526402
0.394978
0.625538
0.228913
0.266002
0.115634
0.463462
0.096381
1.11409
0.0515692
0.243428
1.38235
0.38056
1.00678
0.169503
2.19458
0.234747
0.71037
1.27912
0.336538
0.347573
0.0410273
0.408982
0.279865
0.880992
0.39052
1.60113
0.0542044
0.76514
0.0615336
0.0260727
0.397441
0.156539
0.342474
0.275937
0.912709
0.474833
0.923885
0.6353
0.586871
0.648346
0.206328
0.182647
0.851884
2.36144
1.28771
0.312631
0.297588
2.57299
1.34321
2.82144
1.33666
1.10067
0.460467
0.206311
0.756063
0.388128
0.129351
0.664673
1.53712
0.138193
0.584483
0.907477
)
;

boundaryField
{
    frontAndBack
    {
        type            empty;
    }
    wallOuter
    {
        type            kqRWallFunction;
        value           nonuniform List<scalar> 
90
(
0.434982
0.421448
0.413643
0.427608
0.478072
0.471997
0.476388
0.592551
0.40473
0.487535
0.517113
0.614181
0.501535
0.571725
0.534099
0.895431
0.537709
0.527514
0.518685
0.528206
0.503188
0.508773
0.509183
0.552276
0.50585
0.800789
0.751101
0.530257
0.526608
0.349821
0.311133
0.330783
0.369057
0.289021
0.262206
0.226992
0.0221657
0.0262356
0.463439
0.179267
0.0311645
0.119788
0.752883
0.0213896
0.0445744
0.0597095
0.0183905
0.603528
0.022941
0.659789
0.777757
0.410858
0.461071
0.575498
0.496984
0.0245567
0.0244638
0.53797
0.797329
0.385007
0.507712
0.0158749
0.0244258
0.842691
0.636672
0.679272
0.892612
0.0253634
0.979223
0.0166116
0.511032
0.0217518
0.978497
0.0207454
0.87905
0.856491
0.432572
0.54452
0.0251758
0.750951
0.430975
0.914738
0.0235456
0.462275
0.389332
0.0229192
0.998214
0.0206186
0.522143
0.394978
)
;
    }
    inlet
    {
        type            fixedValue;
        value           uniform 0.375;
    }
    outlet
    {
        type            zeroGradient;
    }
    wallInner
    {
        type            kqRWallFunction;
        value           nonuniform List<scalar> 
138
(
0.0775482
0.258487
0.832557
0.12826
0.129385
0.248601
1.40269
0.511073
0.102064
0.105571
0.62029
0.73684
0.0531764
0.157933
0.0361226
0.093133
0.158331
0.108841
0.0803205
0.728573
1.82151
0.66352
0.0842993
0.621632
0.645112
0.676751
0.574661
0.692904
0.602621
0.653028
0.631927
0.0761533
0.0327153
0.0424699
0.0422447
0.0918135
0.0512841
0.0357924
0.0567696
0.0908728
0.065028
0.0793252
0.0414606
0.041888
0.0801692
0.0882195
0.0780989
0.0794402
0.0930576
0.0160179
0.0611828
0.0384458
0.0895375
0.0986731
0.0759036
0.0371313
0.0367418
0.0754777
0.048095
0.101414
0.0925644
0.0993833
0.0526716
0.0865282
0.0226975
0.0467553
0.0705178
0.245558
0.696971
0.209271
1.23746
0.0837765
0.0744587
0.304038
0.733495
0.110411
0.754684
0.0505864
0.0511726
0.203336
0.135468
1.08932
1.40777
1.06054
0.923294
1.25298
0.0447999
0.0429256
0.615335
0.611584
0.0501006
0.0374515
0.0378587
0.0290896
0.0500998
0.0197113
0.0475074
0.0696629
0.0415537
0.316751
0.722787
0.1927
0.251541
0.0572104
0.612834
0.0315062
0.0675203
0.618747
0.0657797
0.112597
0.234497
0.711869
0.0530744
0.0457685
0.0835288
0.579908
0.618838
0.0618494
0.799764
0.918996
0.0607812
0.042797
0.773013
0.0629139
0.180937
0.153715
0.719139
0.0532532
0.140496
0.115
0.0394909
0.297588
0.756063
0.388128
0.129351
1.53712
0.138193
0.907477
)
;
    }
    procBoundary0to1
    {
        type            processor;
        value           nonuniform List<scalar> 
29
(
0.177914
0.236834
0.246641
0.246641
1.6177
1.6177
2.00629
0.430641
1.28847
0.419072
0.462177
1.11322
0.154735
0.150387
1.2985
0.606216
2.28478
2.14406
0.353931
0.250446
0.326501
0.223057
1.45722
0.293376
0.292163
2.14406
0.258216
0.822182
0.293376
)
;
    }
    procBoundary0to2
    {
        type            processor;
        value           nonuniform List<scalar> 
42
(
1.18368
1.14773
0.0429484
0.0461213
0.222122
1.18368
0.0429484
0.0441323
0.114065
0.0708628
0.438432
0.634945
0.438432
0.729213
0.846589
1.00077
0.846589
0.0715438
0.0788431
0.209142
0.209142
0.0715438
0.0626968
0.198157
0.198157
0.0669638
0.412016
0.0586594
0.737043
1.10648
1.10648
0.0543939
0.0557755
0.0621836
0.0656189
0.0429484
1.02947
0.0299073
0.737043
0.0441323
0.0513444
0.0597812
)
;
    }
}


// ************************************************************************* //
