/*--------------------------------*- C++ -*----------------------------------*\
| =========                 |                                                 |
| \\      /  F ield         | OpenFOAM: The Open Source CFD Toolbox           |
|  \\    /   O peration     | Version:  v1912                                 |
|   \\  /    A nd           | Website:  www.openfoam.com                      |
|    \\/     M anipulation  |                                                 |
\*---------------------------------------------------------------------------*/
FoamFile
{
    version     2.0;
    format      ascii;
    class       volScalarField;
    location    "0.46";
    object      p;
}
// * * * * * * * * * * * * * * * * * * * * * * * * * * * * * * * * * * * * * //

dimensions      [0 2 -2 0 0 0 0];


internalField   nonuniform List<scalar> 
1431
(
89.4639
88.2469
87.4238
86.9873
88.7011
84.5324
85.2172
94.8234
88.5165
89.0643
90.0847
90.2591
83.5267
100.754
88.8789
88.3296
89.1694
89.0971
89.1426
90.0302
88.6117
88.9047
89.0107
101.694
76.0623
89.9531
68.2618
99.8668
86.9415
88.6044
111.489
118.334
81.9981
84.2063
84.3861
87.0655
89.7021
93.8232
83.4361
93.9414
108.366
87.3375
84.8749
82.8547
81.3288
89.2222
89.7249
116.619
112.506
95.3372
87.8191
88.877
88.3312
83.5187
84.4556
109.552
87.0559
86.1244
75.6874
88.5538
88.4008
89.7291
89.6859
94.7391
96.8728
87.8042
86.2076
84.1533
89.0224
95.1644
84.7677
83.3983
90.7403
84.1353
88.0486
82.1944
88.8404
81.9168
95.148
69.9085
94.7678
86.9238
89.2351
88.1956
75.9481
88.6784
88.7375
84.6052
102.659
89.8646
89.4592
85.6998
88.6696
93.5261
87.2822
88.6193
86.3528
97.0486
88.7868
111.449
88.9711
93.6823
89.5135
88.7154
86.609
86.5832
94.8711
111.724
113.542
88.7264
70.52
88.2131
95.3625
89.7381
86.2415
88.7568
89.3691
88.579
103.582
82.404
92.0715
87.3258
88.4973
106.523
94.4347
86.2369
104.433
87.2966
89.2421
94.5136
89.1177
112.856
102.495
89.5498
88.6163
87.5246
90.308
87.1008
89.4207
112.377
89.7156
88.5498
93.8774
112.668
113.975
92.7175
96.4533
112.238
90.0755
110.999
95.424
97.9929
88.4875
85.5204
89.2654
85.3564
94.7693
89.5949
96.1862
105.796
88.6474
90.0557
89.4661
85.1421
88.7952
67.4339
88.6804
92.8875
88.3358
89.5922
104.342
86.6943
110.293
95.6586
94.3942
89.3741
85.4447
96.3014
88.602
102.319
94.5966
88.625
102.626
89.7433
94.1375
105.444
93.8251
82.016
89.8779
94.7346
88.2634
88.7945
88.7528
94.5688
88.6869
91.6738
94.8787
115.013
89.9692
90.1546
91.1527
114.318
109.422
107.066
94.7982
70.7832
88.6519
95.1004
90.0809
99.0603
94.5623
95.4386
107.236
95.0334
84.3456
85.7819
97.2026
88.3704
87.0636
94.7372
94.7681
65.5437
94.0542
99.5795
95.399
89.0867
108.3
89.6701
99.954
111.849
88.6881
86.6475
95.0382
93.1223
94.4581
95.1478
96.2116
89.4078
94.7202
87.3381
96.681
107.692
88.8371
88.5537
84.436
84.2483
94.0119
84.775
83.5503
103.201
101
88.782
88.9593
115.34
89.4241
95.7229
87.8966
87.7241
94.4766
95.0505
95.5386
84.4114
88.8013
89.612
94.699
99.019
89.6789
93.6707
101.49
89.1583
94.8905
111.403
99.9199
98.8775
95.2855
91.7391
89.4906
89.2604
87.4033
88.9889
88.1427
86.6978
87.3607
89.5075
91.7219
83.9276
88.6783
100.951
101.989
95.9886
92.5903
94.7012
100.799
88.4735
102.547
97.6073
88.926
100.626
87.9495
103.977
94.7621
109.965
85.8534
114.544
89.6108
88.0821
94.8723
95.4376
94.7257
87.996
95.6814
94.1747
87.8524
88.6388
84.5346
88.0171
89.3409
86.0284
94.0278
88.6113
87.8719
88.4179
89.8285
86.7879
88.785
88.6831
94.6621
88.8256
108.811
95.3989
88.1241
85.9954
86.7371
88.372
94.4938
88.692
88.5763
88.1811
88.136
83.2763
90.3013
94.7657
88.7435
85.448
100.441
87.3531
95.3168
88.6436
88.7457
88.8101
87.0342
87.7201
88.771
88.1419
87.166
86.7878
87.8974
87.2663
89.2464
86.9109
88.2387
86.9342
87.6953
88.6118
88.8327
88.198
87.5942
86.4308
87.535
88.1724
88.2839
87.2889
88.6143
103.994
88.5125
86.9038
88.133
93.8445
92.9563
89.5805
88.1293
87.5889
88.8829
88.2262
86.6309
87.5029
86.3977
87.2621
88.7121
88.6601
88.5668
88.0064
106.955
93.7915
88.7329
88.1559
87.9169
94.9849
88.9764
94.8383
87.169
87.9962
94.9627
87.6305
87.8149
91.4906
85.9891
114.313
88.2782
88.128
92.0008
87.2356
87.7856
86.077
113.34
127.86
88.1602
89.2109
86.5194
87.835
86.307
88.7842
89.1943
88.7243
88.8053
88.3389
88.7134
88.2113
80.8951
88.6726
81.139
88.6664
87.3582
88.1344
86.1915
88.6034
88.7913
88.2157
88.7597
83.0257
85.5244
89.8228
88.169
88.1467
88.3829
88.5496
88.4746
88.6667
88.3487
88.2605
88.2343
89.1167
88.4473
89.1114
88.9247
88.9954
89.0476
89.072
88.9885
85.8889
83.7272
89.5596
83.5647
85.8238
85.8383
85.9886
88.4771
84.7736
84.4538
86.1529
85.4604
87.1107
114.263
111.858
84.7898
86.4791
88.0433
87.6756
88.8466
88.9711
88.9518
86.7292
98.5934
92.9347
114.204
86.1623
85.5959
89.1485
89.0917
88.3156
88.4075
89.3825
86.9986
92.2174
89.16
86.5995
86.7167
88.2193
94.9997
88.3163
85.2198
82.7998
88.3287
88.7243
88.6785
88.4277
86.7873
89.1993
89.2181
88.7579
88.6247
88.5501
96.0284
87.2361
94.7969
89.2449
89.8143
83.2128
89.0901
86.103
88.3967
88.6662
88.3163
88.5204
86.6452
88.9168
87.5069
89.133
88.519
88.1968
114.171
115.009
88.6044
88.38
89.0877
89.0486
88.5492
88.3095
88.4344
93.7914
88.7201
88.1923
88.0373
87.5714
88.486
89.22
88.2465
94.6471
89.1316
87.2396
88.4695
89.314
93.9666
89.0292
86.2333
87.6475
88.7493
88.2016
92.9417
98.6921
88.3336
88.735
88.7818
90.1221
81.4632
88.1787
88.554
100.078
88.4019
88.6757
86.2176
88.9826
89.5997
89.1262
87.9357
89.5156
88.6566
88.4684
88.6965
97.1255
86.7214
94.7126
87.4676
88.6732
86.8999
88.4678
87.6624
92.9965
87.2897
98.1197
87.5239
86.4332
91.8248
93.6658
94.8765
88.6177
88.5183
88.1704
98.9745
85.6765
87.8076
87.6499
86.9842
88.3576
88.4441
89.0598
90.1768
87.1135
89.2209
88.3728
92.9217
88.6208
88.017
88.2773
90.4817
97.9433
88.499
88.9785
88.4372
89.0841
86.9717
86.6226
89.2339
84.573
88.3071
120.5
86.2724
88.4623
88.7881
94.5944
89.1221
88.9464
89.5666
94.5852
87.3522
89.04
86.8601
102.472
91.4414
89.1686
88.5073
89.4177
94.628
88.8046
88.4715
88.6671
88.6461
88.8999
88.7319
88.9521
88.2986
87.7218
97.3897
91.5858
89.0889
88.9383
94.9308
94.2959
88.1902
88.8826
88.7655
88.6289
89.3652
89.4255
95.1972
86.9568
90.1655
89.2557
88.9922
88.094
88.4669
94.8171
89.3217
88.8128
113.991
113.215
85.343
85.571
83.1444
93.9854
88.4467
89.2354
85.0443
87.4339
88.4843
88.6816
88.6958
88.7514
88.1789
88.2352
112.293
88.7814
88.6857
89.4921
88.683
85.9898
88.6067
87.5609
94.9279
104.088
88.5774
86.3182
99.1031
84.2714
88.5974
126.252
90.897
88.9095
88.0512
106.985
88.4904
88.6102
87.0115
89.1857
88.3602
95.3626
88.0757
88.6832
106.242
89.383
95.1669
96.5365
94.4613
88.3323
83.3774
95.8165
89.1305
88.4659
105.246
88.513
88.7261
89.7052
104.653
104.002
89.2723
98.057
89.4403
88.8412
88.7462
89.3958
88.789
88.8493
115.587
89.4985
97.3614
95.7975
99.9433
100.919
105.425
85.3812
89.3353
101.561
103.304
101.687
89.4244
89.2553
94.3154
94.9818
95.4337
105.218
89.6483
103.25
108.87
100.606
94.3827
89.5164
87.2872
107.437
96.8941
102.525
88.7803
96.5198
88.5691
87.4251
87.2886
98.8015
88.7039
88.0421
88.164
84.6102
87.7435
88.923
100.837
90.1444
88.3282
103.668
88.6688
87.3476
88.7648
105.965
89.4659
97.0499
108.421
137.422
93.6629
94.8867
88.5135
86.8704
91.3137
94.0915
88.4466
88.8459
108.514
84.8296
88.5933
86.9937
92.3962
87.9538
87.445
89.0204
95.5096
94.2364
88.9127
88.5401
75.1719
96.1865
95.9676
93.4377
93.5038
93.6155
96.8356
94.9913
99.963
87.499
87.1843
95.5306
90.0042
88.8148
83.7994
88.5651
89.53
88.8045
87.3718
88.6131
84.1119
88.6938
88.2205
94.3494
87.3337
88.4028
96.1708
112.418
96.6627
93.3343
85.1856
110.634
86.7732
88.2922
87.793
94.6948
87.8993
88.5548
88.2738
88.6115
119.237
89.4966
88.1156
87.9037
94.6066
94.949
94.5596
89.4603
87.0355
86.7659
86.187
89.1883
93.2027
105.889
88.5863
84.5243
113.79
97.0119
89.4916
88.5284
88.8575
104.593
84.3988
83.7952
88.6325
94.8511
88.7762
82.7097
88.7987
88.2385
95.1546
89.3868
89.3809
83.3471
81.9215
113.025
96.908
86.7292
85.3041
95.0921
89.6822
86.4816
88.7467
87.0163
88.4825
84.5236
88.0328
87.5777
89.0307
89.1105
109.551
111.857
96.7951
89.5433
88.658
88.6721
89.4383
94.4788
88.8036
87.2298
88.9741
88.5545
87.9689
95.2615
85.334
83.6379
88.4124
95.2856
89.3803
94.6535
94.6556
97.1617
83.3629
95.0784
89.4115
106.087
88.544
106.319
89.9569
89.9576
90.0277
89.9933
89.9226
90.0005
89.9454
87.3597
88.5084
85.5057
95.0337
89.881
89.3018
89.3464
68.3566
88.754
86.9558
89.5923
89.3001
88.7301
88.0651
88.2394
106.667
87.4139
89.8167
87.7396
88.3568
88.4879
90.0558
88.5625
86.4401
86.8137
87.7592
89.6251
89.7593
92.3913
88.7117
87.7633
88.682
88.8867
87.8867
83.3572
89.3365
88.7749
94.7744
89.662
89.7063
87.6527
88.2967
97.7669
88.2926
88.3576
88.6016
83.5863
88.5804
95.4739
89.4514
91.9266
88.7138
95.1645
88.5348
88.4281
95.4116
87.4682
88.7074
100.987
74.6961
88.7189
88.1621
87.7015
95.5784
85.0879
83.5994
95.2918
86.2764
88.8633
92.6002
89.4511
88.3439
89.1417
94.5769
97.8949
110.493
87.3914
90.1277
89.3145
87.7071
89.2251
88.6137
92.9204
85.9087
82.8643
97.8735
87.2197
87.4054
87.112
89.0477
109.498
88.3945
88.9519
88.6533
88.3793
88.1194
89.4926
88.899
94.4899
88.5572
87.0047
88.6811
88.7173
88.5649
86.1917
88.5349
86.0439
81.8486
89.045
103.638
88.8717
86.7424
93.7327
89.3429
88.2881
84.0894
83.9761
89.4516
97.6684
88.4048
114.597
88.6431
89.4161
90.386
77.5938
116.91
89.4589
89.2122
94.9998
94.0178
89.4107
89.2833
94.0106
88.4977
94.3968
94.894
88.5867
88.3941
92.5006
95.5406
95.4689
88.7538
88.7324
88.3209
88.2928
115.533
88.7354
89.6972
111.27
94.9209
88.8267
88.4909
98.6998
88.3571
116.022
92.3988
89.562
86.6172
95.5894
89.3129
91.6464
88.4468
89.1216
87.9293
74.0198
89.1604
95.4403
88.7193
88.5157
85.4453
98.852
86.5332
89.0937
88.6453
111.917
87.3526
112.97
88.5996
86.7686
107.122
109.319
87.1582
87.0716
95.5255
88.89
76.0861
89.5165
88.3535
88.8959
83.936
85.2314
95.5716
88.4139
89.5214
88.6386
86.829
89.8253
87.3995
89.6551
87.6951
88.7212
87.8429
89.1231
88.5231
89.2679
89.462
94.1746
77.2691
88.6039
87.9419
95.0145
82.4444
88.5663
87.6976
88.8447
86.3618
87.1065
88.819
98.8404
106.321
95.6343
78.3307
88.7577
88.824
86.9292
89.3798
110.026
112.532
88.6221
88.0861
89.3723
94.8737
84.2511
88.7428
88.814
93.2179
93.1571
113.367
88.4346
86.8474
89.0801
107.263
82.4645
109.196
89.1291
88.879
90.5814
94.9431
88.6459
96.0165
88.6696
86.4125
93.4115
97.3739
88.9834
89.3033
88.9058
76.9062
88.941
88.8109
95.3385
88.8115
88.0093
86.6643
88.0287
88.9314
96.4438
89.9043
82.6709
88.9856
94.8723
94.6177
96.5751
89.4178
89.9602
87.5939
88.0045
84.9768
87.1626
86.2919
87.2393
87.0602
89.3288
93.2862
88.2101
89.1356
111.973
90.295
114.654
93.8288
93.7721
96.5299
82.4596
88.7032
73.3028
88.8148
88.6291
77.0358
88.6226
86.0457
89.3857
87.3435
87.8702
91.6272
85.3115
81.8731
88.8569
88.7364
83.8746
88.0709
113.729
88.7749
84.8277
94.6183
88.2953
88.3538
88.8608
88.0811
89.9304
88.9607
88.4642
82.8005
87.9944
95.1145
91.1675
94.746
92.3753
88.3453
82.5246
86.4349
88.9502
88.4386
88.8958
88.5995
95.241
90.0796
94.3518
91.2878
89.7873
95.1547
97.7399
89.6654
87.5804
118.796
124.215
88.5463
88.0599
88.5534
88.6451
89.0811
87.1609
94.4452
91.717
92.3201
87.0895
89.5784
93.417
88.8767
89.0547
82.7643
88.6615
88.6991
95.1001
88.6448
88.3709
89.2633
88.3303
88.9808
94.8192
88.3116
89.3359
93.1602
97.22
88.8748
88.8283
88.0806
88.672
88.497
88.4453
89.563
87.8803
88.9937
89.2645
86.9111
89.3264
87.4872
90.0246
82.869
88.2176
88.9107
89.4584
88.6099
88.588
89.2252
86.2103
95.9068
87.4275
69.0332
94.5082
86.3121
88.717
115.268
87.5985
88.4411
82.3449
88.7214
87.0424
88.7922
94.3622
87.7483
87.3293
87.3805
93.1485
88.7539
87.8338
86.764
86.2631
89.228
94.7589
89.76
88.6568
87.5479
86.4169
114.912
85.8388
90.6702
89.0993
89.8148
97.0053
86.315
97.2419
96.1836
89.6547
89.3855
88.642
88.0067
89.6084
88.7238
84.0047
119.44
89.3953
90.0323
99.6533
86.0232
110.951
94.1855
98.2114
88.3696
93.608
87.4544
88.7538
86.1256
89.6286
78.8916
88.5996
88.7485
83.0952
92.0498
83.3076
89.5553
89.8788
89.6133
95.6108
95.2535
94.3277
89.0472
84.8173
93.1922
94.5172
95.3164
94.6363
88.2456
88.836
88.4882
89.2483
95.6639
112.043
88.5394
89.3317
88.5634
89.2
88.7858
94.721
96.358
79.3658
121.438
85.1723
85.8701
114.648
82.3646
84.7643
97.5717
)
;

boundaryField
{
    frontAndBack
    {
        type            empty;
    }
    wallOuter
    {
        type            zeroGradient;
    }
    inlet
    {
        type            zeroGradient;
    }
    outlet
    {
        type            fixedValue;
        value           nonuniform 0();
    }
    wallInner
    {
        type            zeroGradient;
    }
    procBoundary0to1
    {
        type            processor;
        value           nonuniform List<scalar> 
29
(
86.1108
85.9932
82.849
82.849
80.6916
80.6916
113.711
83.4447
84.2062
83.2021
83.6693
80.9153
83.063
85.9562
114.031
114.384
80.2283
80.9027
82.8103
86.1191
114.269
114.156
82.0811
114.467
114.618
80.9027
115.168
113.622
114.467
)
;
    }
    procBoundary0to2
    {
        type            processor;
        value           nonuniform List<scalar> 
42
(
88.7924
88.748
88.7711
88.7099
88.1592
88.7924
88.7711
88.8114
87.9174
87.949
88.4846
88.6358
88.4846
88.6294
88.6634
88.6721
88.6634
88.2459
87.8035
86.2037
86.2037
88.2459
88.5754
86.4613
86.4613
88.5986
87.5655
88.5779
88.2561
88.7694
88.7694
88.5038
88.4449
88.4418
88.5129
88.7711
88.6749
88.7216
88.2561
88.8114
88.7737
88.6474
)
;
    }
}


// ************************************************************************* //
