/*--------------------------------*- C++ -*----------------------------------*\
| =========                 |                                                 |
| \\      /  F ield         | OpenFOAM: The Open Source CFD Toolbox           |
|  \\    /   O peration     | Version:  v1912                                 |
|   \\  /    A nd           | Website:  www.openfoam.com                      |
|    \\/     M anipulation  |                                                 |
\*---------------------------------------------------------------------------*/
FoamFile
{
    version     2.0;
    format      ascii;
    class       surfaceScalarField;
    location    "0.96";
    object      phi;
}
// * * * * * * * * * * * * * * * * * * * * * * * * * * * * * * * * * * * * * //

dimensions      [0 3 -1 0 0 0 0];
oriented        oriented;


internalField   nonuniform List<scalar> 
2776
(
-0.00051315
-6.62805e-05
0.000432835
0.000146596
-0.000870045
0.000941075
0.000301143
-0.000372174
-0.000488661
-0.000225006
0.000301633
0.000412035
0.000124748
-3.65805e-05
0.000998385
-0.00108655
-0.000159481
1.6644e-05
0.000203927
-6.109e-05
-0.000118609
-0.000447626
0.000377486
0.000188749
-0.000156058
-2.11692e-05
0.000491614
-0.000121693
-0.000657566
0.000287645
0.00100436
0.000883679
-0.000887413
-0.00100062
-0.000933745
0.000739701
-0.000224203
0.000418247
-0.000332448
-0.00113125
0.000511084
0.000952612
0.000417604
0.000175972
-0.000547902
-4.56736e-05
0.000883342
0.00011467
-0.00136327
0.000365259
-0.000138011
-0.000101281
7.98118e-05
0.000115942
-3.85681e-05
-0.000195983
0.000465984
-0.000136802
-0.00066163
-0.000275471
0.000245609
0.000262676
-0.000232814
3.17885e-05
-0.000481829
0.00045004
0.000524639
-0.000155886
7.90157e-05
-0.000447769
0.000715347
-4.65199e-05
5.43807e-05
-0.000723208
-0.000692109
3.87005e-05
-2.74131e-05
0.000680822
-3.71566e-07
0.00022476
-0.000326145
0.000101757
0.000586803
2.24119e-05
-2.25384e-05
-0.000586676
0.000680151
4.49902e-05
-3.01209e-05
-0.00069502
0.000307423
-0.000380704
-0.00116892
0.00124221
1.7058e-05
1.19841e-06
2.53539e-05
-4.36104e-05
-0.000245024
3.59651e-06
0.000123566
0.000637422
-0.000721127
-3.98618e-05
0.000159855
-0.000113596
0.000176145
-0.000222404
-0.000351717
0.000404093
0.000620373
-0.000672749
0.000557123
-0.000815058
-0.000111933
0.000369868
4.50673e-05
-5.09143e-06
4.57479e-06
-4.45507e-05
0.000176836
-2.87035e-05
-0.000180765
3.26328e-05
-0.000326395
0.000287872
-0.000678697
0.00071722
3.68436e-05
9.23357e-06
0.000364875
0.000301711
-0.000149658
7.80195e-06
-0.000468957
-5.84229e-05
-0.000329574
0.000216142
0.000952362
-0.000229581
-0.000722781
-5.98063e-05
0.000318259
-0.000258453
-3.14734e-05
0.000350707
-0.000319234
-0.000483235
0.000548657
-6.54226e-05
-0.000488688
0.000483606
5.08223e-06
-0.000302974
-9.87063e-06
0.000312844
-0.000131679
-7.06395e-05
0.000202318
0.000555936
-9.58496e-05
0.000924075
8.56949e-05
0.000213294
-0.000184519
-2.87753e-05
-0.000270823
0.000314845
-4.4022e-05
-6.03763e-05
0.000126156
-6.57795e-05
-0.000230196
0.000149592
8.06042e-05
-0.00021106
-0.000658985
-0.000360814
-8.68121e-05
0.000114899
-9.8255e-05
0.000286319
-0.000109484
-0.00108437
0.00139179
0.000460997
-2.69303e-05
-0.000434066
-0.000939377
-0.000191871
-4.12488e-05
-2.51443e-05
6.63931e-05
-0.000790457
-0.000143288
2.63979e-05
-1.58969e-05
1.73572e-05
-2.78582e-05
-0.000188174
0.00015598
7.20739e-07
-0.000147912
0.000129143
-4.10373e-05
-0.000204627
5.05844e-05
0.000592783
-0.00043874
0.000788837
-0.000682554
-0.000183556
7.72721e-05
0.000219485
-0.000266328
5.16951e-05
-4.85196e-06
0.000252854
4.73719e-06
-4.4873e-05
-0.000212718
-0.000201416
-5.29092e-05
-0.000445489
0.000863556
-0.000866014
6.87589e-05
-6.6301e-05
0.000187032
-0.000286601
-0.000149265
0.000248834
0.000160977
-0.000143822
-4.87795e-06
-1.22761e-05
5.33076e-05
-0.000544509
0.000491202
5.10057e-05
-0.000536418
0.000485412
0.00105386
-0.000450267
-0.00080572
0.000202132
1.15184e-05
-3.00892e-05
4.49687e-05
-0.000621875
-7.00341e-05
0.000300814
0.000391095
4.74538e-06
-0.000199309
6.38938e-06
-7.11106e-05
-0.000132936
5.61345e-05
-0.000195279
9.88386e-05
9.644e-05
0.000105465
-0.00038573
0.000338915
-5.86495e-05
-0.000588991
3.27788e-05
-5.5678e-05
0.00061189
-0.000283491
0.000463459
0.000331116
4.06551e-05
0.000268233
-6.45394e-06
-0.000302435
-0.000337222
-6.31125e-05
0.000294013
0.000106321
-0.000552778
1.67567e-05
0.000547753
-1.17315e-05
-3.58005e-05
0.000586069
-0.000574054
2.37864e-05
-0.000612358
0.0010469
-0.000760938
3.98742e-05
-1.62766e-05
0.000322512
-0.00034611
0.000757678
-0.000394306
2.84229e-05
2.37608e-05
7.78047e-05
-0.000129988
3.18711e-06
9.12105e-06
4.74987e-06
-0.000239878
6.50891e-05
-7.02358e-05
0.000224953
-0.000775934
0.000675728
1.5361e-06
0.000229501
-0.00031575
8.47134e-05
-6.42954e-05
-0.000241581
0.000184183
-0.000202342
0.000803455
0.00013762
-1.53019e-05
-8.00137e-05
0.000204881
-9.54269e-07
0.00014729
2.26518e-05
0.00012694
-9.45488e-08
0.000213389
-4.02517e-05
-0.000230572
-0.000517905
2.9217e-05
-7.87568e-05
-0.000578809
-4.59684e-05
-6.96198e-05
0.000368158
0.000584454
-5.21538e-05
-8.8759e-06
-1.91332e-05
1.21122e-05
0.000513609
-0.000539996
2.46591e-05
1.72794e-06
2.68776e-05
-0.000325853
0.000232695
0.00027348
0.000466221
-7.8847e-06
-8.22024e-05
2.91581e-05
6.09291e-05
0.00042779
-0.000119011
0.000136143
-0.000420547
0.000702008
3.86275e-05
-0.000153258
-4.14279e-05
3.97602e-05
-0.000145952
-4.78761e-05
-0.00105581
0.000944095
7.51299e-05
3.02032e-05
4.44517e-05
-4.89642e-05
-2.56907e-05
-6.66097e-05
8.44128e-05
-7.39769e-05
5.61738e-05
6.13527e-06
-0.000309109
-4.97702e-05
-8.19085e-05
0.000377419
-0.000149731
-0.000674905
0.00017471
0.000601163
-0.000100969
-0.000211793
0.000713371
4.51367e-05
-0.000546715
-0.000313494
0.000884067
6.20058e-05
-0.000632579
-6.10654e-05
6.49185e-06
8.28151e-05
-2.82415e-05
0.000110945
0.000529165
0.000128137
0.000603019
-7.72504e-06
-4.48885e-06
4.38188e-06
7.83201e-06
-0.000254983
-0.000245318
0.000174894
-5.75334e-05
-7.30103e-05
-8.90798e-05
-8.02762e-05
0.000714614
1.88831e-05
-0.000653221
0.000657003
2.07771e-05
-1.62153e-05
-0.000661565
0.000511791
-2.60381e-05
3.16892e-05
-0.000517442
0.000222783
-0.000132475
-0.000144502
5.41941e-05
-0.000554597
-9.09376e-05
1.49799e-05
0.000630555
5.03366e-05
4.21285e-06
-9.48212e-06
8.47426e-05
-4.41272e-05
-3.36918e-05
-6.9237e-06
0.00013385
-0.000112624
3.03328e-05
-5.15595e-05
0.00017874
-0.000143185
-7.13147e-06
2.00531e-06
-6.7029e-06
0.000227756
-0.000420656
0.000494044
-0.000806992
-9.09481e-05
0.000223035
6.58755e-05
-8.04474e-05
-4.97235e-05
-0.00017568
-4.35828e-05
-2.06071e-05
0.00023987
0.000235836
-7.64986e-05
9.20045e-05
0.000674632
-5.44704e-05
-0.000712166
0.000740127
-0.00060204
-0.000750445
3.19707e-06
1.67801e-05
6.3199e-06
-2.62971e-05
-0.000733604
0.00023355
0.000477692
2.2363e-05
-5.94871e-06
-3.1736e-06
5.94589e-05
-0.000619497
0.000189311
0.00053565
-0.000270758
0.000234957
0.000497762
-0.000744098
-0.000156175
0.000402511
-3.80129e-05
0.000115935
-0.000347882
0.00026996
8.47814e-05
-0.000379904
0.000725936
-0.000672752
7.49534e-05
0.000549175
-0.000510843
7.26128e-05
0.000639391
-0.000540044
-6.50645e-05
-3.42834e-05
0.000101545
0.00154207
-0.00121
-0.00043362
0.000593691
-0.000820143
0.000350018
-6.71069e-06
1.31479e-05
3.69657e-05
-4.3403e-05
0.000114158
-3.11415e-05
4.31396e-05
-3.69918e-05
9.35553e-05
0.000529596
-0.000638763
0.000109167
-0.00040275
0.000288365
-0.00127071
0.0013851
-0.000439218
-3.07086e-05
0.000601762
-0.000131836
0.000221199
-0.000185715
-0.000387201
-7.19959e-06
-1.80786e-06
1.31553e-07
4.642e-05
2.38334e-05
9.07231e-05
-0.0013298
0.00116766
-0.000247627
0.000409763
0.000379368
-0.000324162
-0.000130151
7.4945e-05
0.00013503
-0.000554738
0.000533905
-0.000114198
-0.000136028
-7.19593e-06
9.42356e-05
4.89881e-05
-2.62753e-05
4.46305e-07
0.000354185
-0.000328356
0.00059912
3.18163e-05
-4.48676e-05
-0.000544523
2.46593e-05
-3.29146e-05
-0.000362131
-0.000189408
0.000214317
-0.000975191
-0.000170455
0.000279632
-5.63256e-05
4.5614e-05
-0.000184567
0.00068562
-0.000180143
-0.000585753
3.59141e-05
-2.71143e-05
8.55737e-06
-0.000397049
0.000276225
0.000345777
0.000303102
0.000361261
-0.000584979
-7.93843e-05
0.000113578
0.00016312
-0.0010103
3.60656e-05
-1.55749e-05
-2.76903e-05
-9.35997e-05
-0.000193002
-0.000403027
0.000324937
0.000519954
-0.000441863
-0.000251887
4.5681e-05
4.69891e-05
0.000159217
-0.000717978
0.000466482
-0.000384791
-0.000174885
0.000162627
0.000110004
-3.72192e-05
-0.000492436
0.000436775
0.000357941
-0.00030228
-0.000267295
0.000275377
1.47341e-05
-2.28167e-05
-0.000129422
-4.0852e-05
2.64521e-05
-0.00024348
-0.000434233
7.06824e-05
0.000724811
0.000490902
0.000775136
-0.000417639
-0.000848399
-5.58275e-06
3.12951e-06
1.2624e-05
-1.01707e-05
1.35327e-05
0.000706774
-4.95974e-06
4.45848e-05
0.000569921
-8.98674e-05
-2.92416e-05
1.76601e-06
-0.00055564
0.000583116
-2.33604e-05
2.31302e-05
-0.000260086
0.000260316
0.000426352
-0.000167338
0.000334678
-2.41246e-07
-0.000691694
-1.73507e-07
4.66903e-05
-0.000568114
0.000757691
-0.000236267
0.000615785
0.000117389
-0.000134054
-0.000526094
2.82612e-05
-0.000246368
-0.000448298
0.000332535
-0.000172505
0.00067129
0.000227151
-0.00015504
0.000523239
0.000180976
-4.71753e-05
2.95358e-06
-3.79807e-05
-3.98291e-05
-3.05221e-05
5.65112e-05
-3.95789e-05
-1.27019e-05
-0.000462913
0.00033248
-0.000117952
-0.000160989
7.08159e-05
0.000208125
2.93382e-05
0.000106735
4.0685e-06
-0.000140142
-5.68536e-06
-8.69116e-06
-9.17529e-05
4.37439e-05
8.33616e-07
3.94411e-05
-6.62817e-05
2.19627e-05
-4.11839e-05
0.000297554
-0.000517093
0.000260723
8.30287e-05
-0.000429771
-0.000238236
-6.4063e-05
0.000428007
-0.000384722
2.07771e-05
0.000154634
9.69372e-05
-0.000136275
-0.000115296
-1.36566e-05
-0.000242099
4.72358e-05
-8.6875e-05
6.00467e-05
-2.04075e-05
5.07127e-07
0.000199694
0.00011045
-8.96916e-05
-0.000220452
8.04135e-05
-4.77679e-05
-0.000418376
0.000455778
-0.000295837
-0.000339111
2.4667e-05
6.8093e-06
-1.58089e-05
-1.56674e-05
7.47213e-05
-0.000613804
-2.26855e-06
2.31228e-06
-4.05593e-05
4.05155e-05
-0.000257581
0.000908687
-0.000280024
0.000239622
-2.63285e-05
6.67306e-05
-0.000311545
0.000736614
0.000595163
0.000195881
-0.00017526
0.000826319
-0.000424833
0.000888423
-1.84811e-05
3.27609e-05
0.000449895
-0.000464174
-2.6421e-06
4.77776e-05
-5.07182e-05
6.82424e-05
1.96973e-05
-7.61541e-05
0.000594611
-0.000783817
-0.000964933
0.00119014
0.000558608
-0.000407333
0.0004091
-0.000266774
0.000384163
6.88773e-05
-4.57471e-05
-2.60304e-05
0.000400155
-2.09928e-05
0.000451507
-3.47238e-05
-6.47542e-05
0.000436396
-0.000439771
-0.000499344
0.000502719
-2.187e-05
-0.000423985
0.000502766
-7.87807e-05
-5.91843e-05
6.97772e-05
-0.000583394
-0.000144573
-0.00129463
0.000655389
0.00019851
-0.000469268
-0.000394444
-1.28898e-05
7.67668e-05
-7.88951e-06
1.17073e-05
4.50313e-07
-9.02807e-06
-1.59293e-05
2.08882e-05
-3.82909e-05
6.6944e-05
3.25937e-05
-0.000699514
0.00024938
-0.000162
0.000612134
-0.000571057
0.000457366
0.000167051
-0.000203835
-7.58404e-05
8.52832e-08
4.6021e-05
1.36138e-05
-5.97201e-05
-0.000329252
0.00025475
0.000184329
-0.000109827
0.000317444
-0.000185147
0.000428633
-0.00056093
-0.000546878
0.000495804
0.000215997
6.0267e-05
-0.000171821
-0.000104443
5.1179e-05
-8.82958e-05
8.92207e-05
-5.21038e-05
0.000337581
-0.000418583
2.18178e-05
-2.20691e-05
0.000316067
-5.38868e-05
4.37206e-05
-1.49781e-05
0.000927675
-0.000838998
-0.000506315
0.000537752
0.00037654
-0.000739582
0.000317123
0.000115713
-0.000827162
4.49517e-05
-0.000802066
0.000419996
-1.36544e-05
-0.000175753
0.000377687
-0.000353028
7.38303e-05
-8.28199e-05
-5.67899e-05
-5.05162e-05
1.24221e-05
3.37033e-06
-9.70794e-05
-8.02379e-05
0.000129747
4.757e-05
-2.76417e-05
5.71403e-05
4.7427e-05
-7.69256e-05
5.80924e-05
-1.07906e-05
-4.73019e-05
-0.000559652
0.00140186
-0.00109979
0.000525826
-0.000567409
-0.000649459
-3.29735e-05
-3.9448e-05
5.26135e-05
-5.93999e-05
-0.000131087
0.000133331
5.71565e-05
2.99324e-07
-5.40746e-05
0.000246702
-0.000192927
-0.000884279
0.000913158
0.000372129
-0.000401007
-0.000211159
0.0001427
-0.00083677
0.000905229
-0.00108548
0.000529853
0.000744941
-0.000134695
0.000446141
-0.000350996
0.000708792
0.00012869
0.000284794
-0.000151975
-0.000261509
7.25819e-05
-0.000450667
4.96477e-05
0.000328437
0.000632184
-3.76188e-05
7.19707e-06
-5.36377e-05
5.26362e-05
4.54768e-05
-4.44753e-05
0.000690423
-8.2264e-06
0.000313619
-0.000995816
-0.000138955
0.000185672
-4.64176e-05
2.62647e-05
7.96614e-07
8.88808e-05
-4.57959e-05
-7.33737e-06
2.61709e-06
-0.000930341
-6.9263e-05
0.000121981
0.000877622
-0.000977128
0.000478669
0.00100105
-0.000502591
9.38677e-05
-0.000454225
0.000571777
0.00057287
-2.48162e-06
2.98348e-07
-6.56987e-05
0.000146086
0.000384501
-0.000464888
6.22262e-05
-0.000536879
0.000506441
-0.000474287
-0.000194947
0.000143618
-0.000173678
0.000759058
-0.000852826
0.000343148
-0.000207402
0.000289012
0.000354786
0.00121175
-0.000557864
0.000262461
-0.000916345
0.00043878
-7.36332e-05
-0.000251568
8.85096e-05
-2.95666e-05
3.09942e-06
0.000112443
3.44199e-05
-0.000149963
0.000114136
-6.35897e-06
-0.000100514
-7.26364e-06
3.52972e-05
-8.52719e-05
-1.30544e-05
6.30292e-05
-0.000411619
-2.65433e-06
-0.000434126
0.000301455
0.000119048
0.000289255
-0.000450691
0.000511498
-0.000350062
0.000479549
0.00110122
-3.86934e-05
-7.93274e-06
6.60252e-05
-0.00056655
-1.73197e-05
0.000793355
-0.00068101
0.000387868
-0.000500213
-0.000151635
-0.000796353
-2.72022e-05
0.000232558
0.000501134
-0.000522787
-0.000697689
0.00154788
0.000361554
-3.86047e-05
-0.00115163
0.0013138
-0.000123561
-2.84813e-05
0.000112516
0.00010052
-0.0001604
0.000149342
0.000205985
0.000404416
-0.000308689
-7.96375e-05
-0.000478227
0.0013399
-0.00054646
-0.00149113
0.000360723
-0.000451647
6.78391e-05
1.61958e-05
0.000341053
-7.44202e-05
5.90858e-05
-4.73341e-05
0.000600382
-7.84558e-05
-0.000287133
0.000350274
1.53148e-05
7.48555e-06
-0.00010272
-5.22983e-05
0.000275043
3.01092e-05
0.000681063
-0.00063254
-0.000516414
0.000467891
0.000679984
-0.000866637
0.000641514
-0.000454861
-0.000172381
9.27432e-05
0.000210511
0.000607633
-0.000467869
0.000320494
0.00106053
0.000307557
-1.38382e-05
0.000496655
-0.000277689
-0.000218966
0.000582432
-0.00083979
-0.000252687
9.89035e-05
-4.11632e-05
-0.000457294
-0.00011728
6.93849e-05
0.000505189
0.000214902
0.000376223
-0.000415153
0.000708207
-0.000211552
-0.000212543
-1.31728e-05
0.000227251
0.000485602
-0.000691746
0.000208407
-0.00011364
5.67537e-05
-0.000151521
-6.00534e-05
0.000183946
2.48084e-05
-0.000148701
0.000260368
-0.000112015
5.32803e-05
0.000312529
-0.000105441
-0.000218828
1.17615e-05
0.000243402
-3.63356e-05
1.83989e-05
0.000386259
-0.000138879
2.15579e-05
0.000205228
0.000159474
7.85262e-06
0.000260408
3.10854e-06
0.000190416
-1.2374e-05
1.1549e-05
1.69079e-05
-1.60829e-05
-0.000114947
3.27717e-07
0.00013544
-2.08206e-05
1.71767e-06
-0.000163515
0.000148287
1.35101e-05
2.60745e-06
-0.000100598
-1.69563e-05
1.37107e-05
-1.01688e-05
-1.46447e-05
1.11027e-05
1.01103e-05
-1.61313e-05
9.03218e-05
-8.43009e-05
2.54941e-05
-0.000110681
-0.000260314
0.000968522
8.81001e-06
9.44898e-06
-4.54824e-06
8.95091e-05
-7.93988e-05
-4.89137e-06
-1.0642e-06
3.14496e-05
8.1324e-05
3.00533e-06
-0.00053
0.000101588
-0.000510599
0.000939011
-3.98758e-05
0.000127514
-0.00114367
-0.000209645
0.00113329
0.000220024
-5.29732e-05
1.76098e-05
6.60087e-05
-3.06453e-05
0.000575056
-0.000286071
-0.000818985
3.31991e-05
0.000145196
-0.000286921
0.000116773
0.000215183
-4.50351e-05
0.00011949
-9.09428e-05
-0.000124568
9.60212e-05
1.21233e-05
4.05924e-05
-9.97689e-07
-5.1718e-05
-5.68769e-05
0.000733521
-0.000495575
0.000471897
-4.80693e-06
7.13238e-05
-0.000232647
-0.000306825
0.00027944
0.000260031
0.000201473
7.86631e-05
0.000202961
-4.13632e-05
3.10626e-05
-0.000118514
2.77253e-05
1.06626e-05
-8.01619e-05
2.92519e-05
-0.000102314
0.000153224
-2.89424e-05
-2.98477e-06
-5.90156e-05
5.75176e-05
-9.1267e-05
-2.82114e-05
2.92602e-05
-8.12108e-05
-0.000703841
-1.38624e-06
-2.2165e-06
-2.46087e-05
-2.33542e-05
7.5312e-06
7.64889e-06
-0.000101122
7.61886e-05
1.15663e-05
2.68149e-05
1.48497e-05
-6.28338e-05
1.65352e-05
1.50328e-05
-4.73274e-05
3.75105e-05
-1.91489e-05
-6.82253e-05
4.98637e-05
-5.1995e-05
3.2821e-05
3.04271e-06
2.84748e-05
-0.000200856
0.00109327
5.1306e-05
-0.00114458
0.000146903
-0.000166772
0.000247624
8.45384e-05
4.97068e-06
-3.16757e-05
-0.000125423
3.94971e-05
-8.86241e-05
4.91269e-05
0.000130166
1.4922e-05
-5.05318e-06
-1.23588e-05
-2.03812e-05
4.53477e-05
-5.77216e-05
5.81838e-05
0.000101576
-0.000144838
7.27466e-05
-0.00010173
0.000141225
9.52893e-05
-8.9611e-05
0.000184794
2.76495e-05
-0.000185566
0.000175512
-0.000186172
0.0011103
0.000172889
-0.000235921
0.000204256
0.000155825
0.000132546
-0.000103577
0.000137313
-0.000228321
9.33958e-05
-2.38814e-06
-0.000117904
0.000255731
0.000136372
-0.000274199
0.000126039
-0.000182757
-4.11521e-05
9.40975e-06
3.17423e-05
0.00141893
-5.44346e-05
-3.30364e-05
7.07208e-06
3.75133e-05
4.52379e-05
1.09785e-07
-8.01277e-05
-5.90201e-06
0.000129605
-4.35751e-05
4.87563e-05
0.000311562
-9.20853e-05
4.08579e-06
0.0001505
-9.55144e-05
9.03772e-05
-1.07348e-05
1.32004e-05
3.81729e-06
0.000122697
-0.000154068
0.000146089
-0.000224509
0.000174064
0.000110191
-6.9353e-05
0.000142953
-3.0087e-05
-0.000145604
0.000157729
-3.63589e-07
9.35833e-06
7.92783e-06
-3.77221e-06
8.97226e-06
1.83264e-05
-2.35265e-05
-1.36982e-06
-0.000125835
1.49959e-05
-7.08612e-05
0.000187656
-0.000105007
0.000161119
7.90377e-05
-0.000123094
9.81677e-05
2.38403e-05
5.68503e-05
6.22628e-05
4.73262e-05
2.16155e-05
7.33359e-05
-5.45966e-05
-0.000311115
2.91457e-05
0.000336566
0.000300412
-6.45711e-05
-0.000259388
2.35473e-05
0.000119452
0.000170128
-0.000104773
-0.000184807
0.000127885
0.00106218
-0.000400926
-0.000892644
-6.95064e-05
0.000343396
2.65222e-05
-0.000170153
0.000225034
0.00111509
0.000252004
-0.000129157
7.90351e-05
7.39619e-05
2.62768e-05
7.00025e-05
-4.57138e-05
1.6124e-05
0.000337147
-9.43048e-05
-0.000121748
4.58997e-05
0.000479181
-9.09689e-06
-0.00012889
-6.32704e-06
-9.33948e-07
0.00016499
-0.000251367
-7.05237e-05
-0.000184445
-1.53115e-05
0.000200084
2.83736e-05
0.000473931
-0.000387478
-0.000114827
-1.01791e-05
0.000247254
0.000696539
-0.000253589
-2.35405e-05
0.000232435
4.46945e-05
-0.000132878
0.000409072
-0.000418242
-0.000186105
0.000471469
-0.00014409
0.000118919
-4.66262e-05
-0.0001773
-0.000171511
-0.000388244
-0.000130149
0.000439937
-0.00082957
0.000941385
0.000225592
0.000128307
0.000136448
-3.83532e-05
0.000285177
-0.000285075
2.82717e-05
0.000227089
-7.35152e-05
-0.000169466
1.58929e-05
0.000273142
-0.000117615
-2.30707e-05
1.1315e-05
-0.0010698
0.00103119
0.00024879
-3.42134e-06
0.000228562
9.84021e-05
7.16153e-06
-3.23771e-05
3.31434e-05
0.000706439
0.000709603
0.000201019
2.7076e-05
-0.000937698
-5.66002e-05
0.000111431
0.000335496
6.33974e-05
2.39478e-05
2.55064e-05
-4.04819e-05
-1.96646e-05
0.000495175
-0.000467224
-8.28571e-06
-0.000844242
0.000703637
5.65028e-05
-9.44755e-05
8.39519e-05
-1.17633e-05
-7.35584e-05
2.91445e-05
1.31298e-05
4.5021e-05
-7.462e-05
5.80739e-05
9.07499e-05
0.000380234
-2.81635e-05
-6.96134e-06
7.46219e-05
0.00106924
2.40349e-05
8.96248e-06
6.59591e-05
-1.02506e-05
-0.000171587
-0.000250517
0.000264895
-2.46288e-05
-0.000886713
0.00057025
-0.000680399
3.92427e-06
-0.000798814
-0.000494756
-0.000630837
0.000901682
-9.94919e-05
5.74211e-05
0.000149534
-0.00021431
1.34808e-05
-0.000161681
9.37402e-05
-0.000900816
0.000467986
2.13868e-07
-0.000957574
0.000666693
-0.000595833
2.95055e-05
-4.46244e-05
0.000696745
-0.000681626
0.000231355
0.00028997
4.3909e-05
-0.000360319
2.64395e-05
-4.83785e-05
0.000125426
-2.57593e-06
6.38337e-06
-9.64646e-06
-5.60909e-07
-0.000221855
5.99003e-05
8.653e-06
0.000116094
0.000400225
-0.00058736
-1.08912e-07
0.000409489
5.15948e-05
-8.71076e-05
-0.000559923
-0.000674321
0.00123229
6.2277e-05
-5.8965e-05
0.000524571
7.03827e-05
0.000564611
-0.000526552
-0.000108442
-8.88115e-05
0.000135452
-0.000976981
-4.34604e-05
2.98478e-05
0.000538184
-0.000510355
0.000126202
-0.000152202
0.000157391
-0.000131391
0.00147769
-0.000928212
0.000351626
-0.000901109
0.000438378
3.95755e-05
-0.000426487
-3.54913e-05
0.000737925
-0.000535099
-0.00034311
0.000140284
0.000219641
-0.000167127
-0.000160432
0.000607762
-0.000353585
-0.000359243
-5.20716e-05
-0.000159447
0.000217522
8.47692e-05
-0.000142845
-0.00120103
4.03826e-05
0.000104843
0.000810738
8.91295e-05
0.000206329
-0.0011062
0.000216073
1.22824e-05
6.68374e-05
8.94976e-06
4.89647e-05
0.000430527
-0.000896097
0.000565531
-0.000137446
-0.000258729
0.000138375
0.000257799
-0.000338638
0.000648001
-0.000654168
0.000678256
-0.000442557
0.000500988
5.28441e-05
0.00114777
-0.00114931
-0.000111244
-0.000208084
0.000938811
-0.000930592
-0.000320254
0.000543062
-0.000441186
0.000962025
-0.000995126
0.000912076
-0.000897649
-0.000360915
-8.50556e-05
1.61997e-05
-0.000187131
0.000102635
0.000152336
-4.69369e-06
0.000186591
4.51917e-05
-9.37552e-05
-3.44571e-05
-0.00010559
0.000118029
0.000148681
-0.000166816
-0.000356868
0.000181848
-9.49813e-05
-0.00076615
-0.000184669
0.000672279
-0.00078486
-0.000496798
-0.000610705
0.000815993
0.000776385
-7.31501e-05
-0.000165482
6.55032e-05
-0.00088131
5.54925e-05
-9.75888e-05
9.23159e-05
-0.000871086
1.05866e-05
1.4046e-05
0.000839349
-0.000863982
-1.27887e-05
3.65762e-05
0.000744818
-0.000781394
-0.000224056
5.33681e-05
-0.000162174
0.000591436
-0.000201073
-0.000128355
-7.07221e-05
-0.000569554
-0.000234376
0.000411652
-0.000403414
-3.58614e-05
0.000809554
-0.000764286
-0.000698539
-0.000841142
0.000972896
0.000566785
4.6873e-05
-3.11583e-05
0.000923097
0.000146087
0.000219629
0.000973413
-0.00102565
0.000700157
-9.47609e-05
-0.00105496
0.00109945
5.02623e-05
-0.00114065
-1.15436e-05
6.93175e-05
-6.4414e-05
-0.000532363
-0.00020511
0.000551368
4.53085e-05
-0.000466626
-0.000157139
0.000493616
-0.00034064
6.22879e-07
-0.00103295
-0.000487394
0.000470959
0.000145125
-4.15434e-05
-4.14986e-05
9.9166e-05
-0.00050558
-0.000193599
-0.000176366
-0.000722989
-4.27787e-05
0.000765768
1.44565e-06
-3.18442e-06
-3.35266e-06
0.000275289
-0.00126674
-5.34459e-05
0.0010449
-0.000449355
8.65328e-06
-1.08259e-05
-6.55882e-06
0.000522229
-0.000504844
-5.07181e-05
4.66324e-05
-0.000942833
-7.34145e-05
3.09071e-05
-7.92407e-05
-4.63144e-05
-1.78958e-05
2.6991e-05
0.000616478
-0.000331145
0.000120016
0.00026594
0.000341777
0.000170589
1.47811e-05
5.70064e-05
0.00015893
-0.000417294
-7.0889e-05
0.000121208
-0.000212796
9.56568e-05
-0.000105268
0.000141767
3.43163e-05
3.7584e-05
-5.76746e-07
-9.59554e-06
4.15862e-05
-3.99234e-05
-0.000270061
0.000402436
-0.000147617
1.52418e-05
0.000856998
-0.000822891
0.000580679
3.54123e-05
0.000206799
-2.81355e-05
0.000222629
-3.39716e-05
3.20059e-05
-1.39635e-05
9.13022e-06
-6.85165e-05
1.27601e-05
1.37496e-05
-2.98212e-05
1.60716e-05
-6.30984e-05
5.66105e-06
-5.28115e-05
3.20787e-05
2.07327e-05
-6.49313e-05
5.82472e-05
6.68403e-06
-4.0887e-05
-0.000255165
-5.22071e-05
4.68195e-05
5.38763e-06
1.05775e-05
-0.00110107
0.00117472
-0.000486549
-0.00150716
-9.43402e-06
2.31836e-05
-7.1642e-05
0.000217506
0.000127236
-5.47716e-05
-7.61804e-05
2.33689e-05
-7.9432e-06
0.000671528
-0.000652536
-0.000224103
2.26447e-05
6.04016e-06
3.79478e-06
-0.000286727
-0.000182156
-0.000177118
0.000250107
0.000150496
4.45744e-05
-7.62954e-05
4.65347e-06
-0.000182844
0.000160343
-1.31161e-06
-0.000428971
5.22709e-05
0.000438927
-0.00020867
0.000210042
0.000701331
-8.60701e-05
-4.39566e-05
8.49657e-05
0.000659148
0.00109525
-0.000851922
0.000691521
7.02579e-05
0.000408968
-0.000315822
5.25638e-06
-1.11343e-05
-9.07724e-05
0.000117603
0.000113054
-0.000170415
-6.02421e-05
-0.000104427
-8.56245e-05
-0.000450435
2.18284e-05
-0.000605569
-0.000140128
9.48233e-05
0.000650873
0.000925978
-1.33816e-08
-6.04153e-05
4.49675e-05
2.03103e-05
4.71655e-05
7.2059e-05
-6.03386e-06
0.000204616
-0.000431905
-0.000328458
-9.97067e-05
8.80454e-06
0.000218138
-0.000187729
0.000205302
-4.16308e-05
-0.00010348
7.65947e-05
2.7435e-06
-0.000364282
-0.000626587
0.000572116
0.000867597
6.18816e-07
-0.000146252
-1.49507e-05
-0.000674961
0.000410352
-2.79452e-05
-0.000294603
0.00026687
-0.000196304
0.000327133
-0.000186563
0.000214458
-0.000112498
8.46036e-05
2.83129e-05
1.28923e-05
2.66996e-05
-0.000144321
0.000120926
2.33951e-05
5.10474e-05
-5.83652e-05
7.31785e-06
9.97727e-06
-8.57913e-05
6.03087e-05
-7.58657e-05
0.000602159
0.000211631
-3.59247e-05
6.82402e-05
8.73589e-05
-7.42751e-05
-0.000293762
0.000303233
-3.08705e-06
-0.0011013
-3.95367e-05
0.000115184
0.00120903
-0.00115263
3.71529e-05
-2.948e-05
4.7949e-05
0.000105082
-7.53434e-05
0.000122588
0.000425478
3.17227e-06
-1.08071e-05
0.000435642
-0.000283697
-0.000391706
4.21292e-06
-0.000781444
-0.000454369
-0.000255483
-0.000139717
5.72065e-05
-0.000324262
4.88113e-05
-1.98035e-05
-8.87585e-06
-2.0132e-05
-1.6883e-06
0.000114705
3.27647e-05
2.50879e-05
-0.000174342
-0.000328619
0.000107579
0.000498873
-4.0036e-05
1.02149e-05
-0.00010104
-0.00101165
-3.33591e-05
5.39161e-05
2.76044e-05
-7.07894e-05
-6.00579e-06
-0.000156077
-6.14474e-05
0.000210563
-8.76644e-05
0.000276544
-0.000331375
9.33978e-06
-0.000101287
-1.24344e-05
2.97679e-05
-9.0748e-05
-0.000130158
0.000553241
-1.9473e-05
3.45674e-05
-0.000194573
-0.000230777
-0.000770981
0.000982039
-0.000713781
0.000361218
-0.000488579
7.02234e-05
0.000794214
-0.000108318
0.000159321
9.26153e-05
-1.55279e-05
-6.60171e-05
4.2097e-05
0.000166058
-3.89796e-05
6.25182e-06
6.67388e-05
-9.61309e-06
-0.000131746
0.000703593
-0.000185028
-0.000678996
0.000230242
0.000119596
0.000115137
2.27845e-05
2.82629e-05
-0.000111406
0.00117324
2.2906e-05
-0.000125817
-0.000622374
-1.34878e-05
-0.000932055
0.000571129
-1.75547e-05
0.000159796
-1.68959e-05
0.000188135
-6.26314e-05
-0.000145778
0.000195071
3.2415e-05
1.72329e-05
3.02547e-05
0.000532103
7.22741e-05
-0.000204187
0.000328301
6.84746e-05
-7.46714e-05
-5.01288e-05
-0.000271947
7.41366e-06
2.67762e-05
-5.38546e-06
-9.12425e-06
4.37617e-05
0.000392514
-0.000483498
-3.91749e-05
-0.000692485
-0.000518495
0.000439999
-4.53407e-05
7.95916e-05
0.00010584
-4.695e-05
-6.03623e-06
5.3536e-05
-0.000229847
0.00014303
-0.000132949
0.000418824
-1.94801e-06
0.000129948
-8.61371e-05
7.86529e-05
-0.000128791
6.7834e-06
-6.45545e-06
0.000769246
-0.000451552
-0.000174994
0.000431393
-0.000362468
-1.55387e-05
-0.000146899
9.1101e-05
0.000450025
-0.00118075
-0.000280928
-0.000160598
0.000272008
-0.000329353
-0.000125778
-0.000554939
0.000469657
-0.00015555
-5.49191e-05
4.11688e-05
-0.000477353
-0.000524066
-0.00123084
-3.70481e-05
3.32457e-06
-0.000163993
-1.12482e-05
3.01508e-05
-2.26502e-05
3.74755e-06
0.000170766
-0.000147452
-2.36091e-05
0.000233553
-0.000257712
-0.000160488
0.00047221
-0.00037742
0.000152185
-7.91394e-05
-0.000467352
0.00100849
-0.00096381
2.96977e-05
0.000380593
-0.000245884
-7.23019e-05
7.16028e-05
3.5119e-05
-1.93532e-05
5.98876e-06
1.15566e-05
-0.00010695
-0.0014591
-0.000820931
-0.000380546
0.000311974
6.42422e-05
-2.77227e-05
1.71519e-05
-0.000121961
-2.62509e-05
-7.33724e-06
-3.14276e-07
-0.000210316
-5.50063e-05
2.00973e-05
-8.73047e-05
-0.000557467
0.000571
-0.000503086
0.000566539
4.46097e-06
-0.000495962
0.000436298
5.96641e-05
-0.000440144
-6.29423e-05
-3.84599e-06
-0.000677278
0.000677037
-0.000552113
0.000567048
-1.49344e-05
-0.000507528
-0.000629182
-4.80965e-05
0.000649624
0.000622635
2.69894e-05
-0.0005585
-0.000428513
0.000488722
-0.000442958
-4.57639e-05
-0.00033184
-9.6673e-05
-0.000238841
-9.29988e-05
0.000177658
-0.000131977
-6.11826e-05
0.000609137
1.3498e-05
0.00062604
-1.69035e-05
0.000644923
1.70838e-06
0.000522487
-0.00037107
7.29868e-05
-9.27711e-07
-6.48076e-05
-0.000134282
6.76989e-05
-0.000238878
0.000146234
4.83458e-05
-0.000183527
0.000111304
-0.000235368
-0.000675613
0.00019047
-2.32637e-05
7.33701e-05
0.000456335
-0.000565335
0.000139834
-0.000180068
0.000137961
0.000139669
9.97895e-05
2.11367e-05
-0.000836792
-3.76298e-05
-7.89623e-05
0.000119048
-7.6037e-05
9.5856e-05
-0.000781747
-0.000192924
-0.00149075
0.000535845
0.000278835
-0.000220103
-2.95146e-05
0.000638918
-0.000133505
0.000184092
-5.42271e-05
8.88696e-05
0.00105353
-0.00125646
7.89375e-05
4.54534e-07
-7.93921e-05
0.00125685
3.36046e-05
6.01826e-05
0.000207751
-0.000131756
7.75261e-06
2.90811e-05
0.000220965
0.000766889
-0.000776416
-0.000175501
-0.000216088
2.63557e-05
-0.000373203
0.000205605
0.000697194
0.000791
-0.000795676
0.000106478
-8.03137e-06
8.76723e-05
-3.154e-05
0.000275102
-0.00016351
0.000173202
-0.00052717
-0.000780103
-0.000212814
-7.01376e-05
0.000170303
-7.57072e-05
0.0001236
-0.000218195
0.000233181
0.000221176
-0.000214735
8.70964e-05
-6.99233e-05
-8.39552e-05
-0.000223481
0.000583661
0.000125622
2.46851e-05
-1.48468e-05
-1.4102e-05
3.5514e-05
0.000163131
0.000280522
-0.000398462
-6.62807e-06
-0.000128948
0.000683577
0.00057953
-0.000200824
-9.99173e-05
-0.000524134
-0.000599056
0.000589959
-0.000169843
9.24504e-06
-0.000722016
0.000527759
-0.000156739
-0.000332401
0.000192664
5.04219e-06
0.000110947
0.00034807
-0.000504116
-6.81565e-05
0.00020554
2.03498e-05
-0.000117567
0.000133964
-0.000571163
5.24043e-06
-4.22276e-05
-3.06247e-05
0.000396629
0.000119111
0.00041699
0.00043705
-0.000133564
0.000130079
0.000463573
-0.000484933
-0.000100853
1.87884e-05
-4.24301e-06
-1.19283e-05
-0.000275714
-6.39466e-05
5.27875e-07
-0.00046759
-0.00134558
0.001112
0.000226207
-0.000132359
0.000675398
0.000200094
6.85273e-05
5.37075e-05
5.33319e-05
-0.00019097
0.000268293
-3.56035e-05
1.25076e-05
4.03289e-05
5.57373e-05
-7.72104e-05
-7.22821e-05
5.65679e-05
-6.15582e-05
0.000123019
0.000761593
0.000500285
-0.000401678
-3.36015e-05
0.000234123
-0.000170945
-0.000335126
-0.000162985
0.000250298
-0.000244411
2.12007e-05
-8.79522e-05
6.5883e-05
0.000241803
-0.000300488
-7.19799e-06
-5.28145e-05
-4.569e-05
1.74208e-05
2.20202e-05
-0.000174101