/*--------------------------------*- C++ -*----------------------------------*\
| =========                 |                                                 |
| \\      /  F ield         | OpenFOAM: The Open Source CFD Toolbox           |
|  \\    /   O peration     | Version:  v1912                                 |
|   \\  /    A nd           | Website:  www.openfoam.com                      |
|    \\/     M anipulation  |                                                 |
\*---------------------------------------------------------------------------*/
FoamFile
{
    version     2.0;
    format      ascii;
    class       surfaceScalarField;
    location    "0.56";
    object      phi;
}
// * * * * * * * * * * * * * * * * * * * * * * * * * * * * * * * * * * * * * //

dimensions      [0 3 -1 0 0 0 0];
oriented        oriented;


internalField   nonuniform List<scalar> 
2708
(
-7.91684e-06
3.15916e-05
3.33876e-06
-2.70136e-05
-3.84042e-05
6.99997e-05
-4.83302e-05
1.67347e-05
0.00123637
0.000237043
-0.000922934
-0.000550477
-0.000328839
0.000184738
6.72885e-05
7.68124e-05
-1.76969e-05
1.07986e-05
7.91682e-05
-7.22699e-05
0.000286157
0.000189166
-0.000152773
-0.00032255
0.000152211
6.15487e-05
0.000607943
-0.000821542
0.00100203
-0.000788435
0.000161273
0.000507872
-0.000586609
-8.25355e-05
0.000199289
0.000368559
-0.000434149
-0.000133699
0.000112244
7.40905e-05
-2.62272e-05
-0.000160107
-9.39053e-05
0.00010249
-8.58495e-06
0.000148405
-0.000103405
0.000140673
-0.000185673
0.000834512
-0.000852384
4.82331e-05
-3.0361e-05
0.000153759
-0.000153818
7.462e-05
-7.45607e-05
1.93405e-05
-0.000332935
0.000313594
-0.000238861
0.000218252
0.000174368
-1.89406e-06
4.99161e-05
-9.69657e-05
4.89436e-05
3.72137e-05
-3.25011e-05
-4.71267e-06
7.39844e-05
4.91858e-05
-1.0926e-05
2.75019e-05
4.24463e-05
-9.48822e-06
-6.04601e-05
-4.78023e-05
-0.000237083
-9.85189e-05
4.69053e-05
0.0001284
-7.67864e-05
0.000801119
6.58758e-05
-3.24829e-05
0.00037635
7.87099e-05
-0.000406492
-4.85678e-05
4.66699e-05
-3.07843e-06
3.03929e-05
-0.000415826
0.000348257
-0.000155287
0.000222856
4.07239e-05
-2.28301e-05
-0.000870278
-0.00103809
8.3866e-05
0.000958652
-4.42445e-06
-0.000129132
-3.68909e-05
9.45912e-05
7.14314e-05
-0.00041897
0.00093293
-0.000533216
1.92559e-05
0.000917033
0.000443772
-0.00060646
-0.000754344
0.00020958
0.000196498
-0.000406078
0.000191935
-0.000253698
6.17631e-05
0.000231163
-0.00026828
3.71168e-05
-0.000898996
0.000883321
0.000697143
-0.000681467
1.34462e-05
-6.90912e-08
-2.92532e-05
1.58761e-05
-0.00118558
0.00114247
-5.11509e-05
9.42668e-05
7.08196e-05
-6.29089e-05
-6.49923e-05
-0.00139973
-3.43284e-05
0.000248472
-0.000322615
-0.000236355
3.64076e-05
0.000522562
-0.000138854
-2.39017e-05
0.000162756
-8.02681e-05
0.000115433
-0.000247281
0.000212116
-7.9055e-05
0.000115903
-0.000220463
0.000183615
0.000139907
-4.95326e-05
-0.000222345
0.000131971
-6.1523e-05
-3.43141e-05
4.61514e-05
4.96857e-05
5.72991e-05
0.000717743
-0.000401288
-0.000373754
-1.45874e-05
2.42027e-05
-0.000941571
0.000931956
-0.000649248
0.00115182
-0.000868662
0.000366093
3.00669e-05
-0.00108168
0.00110806
-5.64442e-05
0.000131864
-9.61224e-05
-0.000143272
0.000107531
-0.000514206
0.000328985
0.00038451
-0.000705519
0.000454385
0.000412406
-0.000125214
0.000123328
-0.000115809
0.000117695
-6.08101e-05
6.58755e-05
-7.65068e-05
7.14415e-05
-0.000957212
0.000122482
0.000938884
-0.000104154
-7.30755e-05
-0.000103088
0.000478295
-0.000302132
-3.06122e-05
-0.000117185
0.000499636
-0.000351839
-0.000567626
0.00052815
2.71706e-05
-7.71688e-06
8.04828e-06
0.000350253
-0.000292768
-1.85851e-07
0.000219419
0.000137486
-0.000249678
-0.000107226
0.000480409
-0.000777269
-0.000602137
-0.000426717
0.000472081
0.00101237
-0.00105773
0.000844238
-0.000171475
-4.59284e-05
-0.000626835
-0.000109286
0.000117363
1.95564e-06
-1.00329e-05
0.000224089
-3.56231e-05
-7.63125e-05
0.000139863
-9.44942e-05
3.09434e-05
-0.000624779
0.00103027
-0.000734452
0.000328959
0.000111667
0.000152108
0.000174971
7.32311e-05
-0.000140262
-0.00010794
-0.000203792
7.00413e-05
-6.92635e-05
0.000203014
6.43625e-05
0.000145217
-3.33654e-05
-6.60061e-05
9.10819e-05
8.28961e-06
2.08858e-05
0.000634809
-0.000418651
0.000968105
6.0428e-05
-0.00101595
-1.25822e-05
0.000136209
-0.000263507
-6.88045e-05
0.000196102
-0.000953892
0.000926325
-0.00039915
3.04831e-05
0.000145217
-3.26613e-05
-0.000143039
0.000196934
-6.57238e-05
-3.55172e-05
-9.56925e-05
4.14802e-05
-0.000148697
0.000189957
-8.27398e-05
-0.000280992
-5.97901e-05
0.000200413
0.00014037
-7.61616e-05
8.13337e-05
-2.75813e-05
2.24092e-05
-6.07486e-05
1.7551e-05
6.62557e-05
-2.3058e-05
-0.000151752
-8.01952e-05
0.000173904
5.80432e-05
0.000756665
8.49744e-05
-4.05201e-05
-1.96827e-05
6.18987e-05
-0.000110995
6.87786e-05
1.79085e-05
5.56471e-05
-6.30246e-05
-1.0531e-05
-0.000244858
0.00020142
-0.000108315
-5.36725e-05
-6.54949e-06
-5.26626e-07
0.00113005
-1.61377e-05
2.85532e-05
2.00597e-05
-3.6226e-05
-0.00018307
0.000199237
6.26114e-05
-8.03023e-05
4.48615e-05
4.0147e-05
-0.000205617
-3.83213e-05
-7.22219e-05
-0.00100318
0.0010315
4.39007e-05
3.90421e-05
2.11445e-05
-3.14565e-05
-2.87301e-05
-0.000791584
-0.000276633
3.92284e-05
-9.6896e-05
-1.86448e-05
3.26192e-05
-0.00108713
0.00108737
-3.28644e-05
-0.000103238
7.86995e-05
4.59384e-05
-2.13994e-05
9.05481e-05
-1.97583e-05
2.69164e-05
-9.77063e-05
0.000244797
2.6432e-05
2.97128e-06
-0.000274201
3.1137e-06
5.19386e-05
5.0498e-05
-0.00010555
0.0010405
-0.00146475
0.000182882
0.000241367
0.000431939
6.50879e-06
1.36266e-05
-0.000452074
8.58484e-05
8.20192e-05
-0.000903726
-2.89974e-05
-5.55836e-05
8.34165e-05
1.16442e-06
-7.19925e-06
0.000168693
-0.000213386
5.18925e-05
-8.47376e-05
2.93975e-05
-5.39455e-05
0.00084278
-0.000575987
5.53518e-05
-0.000322145
-0.000105658
0.00017069
0.000154386
-1.17389e-05
5.00293e-07
0.000256036
1.02865e-05
-8.43896e-06
8.87006e-05
-6.09588e-05
6.96544e-06
5.20992e-05
4.12106e-05
-2.39325e-05
-4.8443e-05
3.11649e-05
0.000698071
0.000105247
-4.66539e-05
0.000171709
0.000164696
-0.00113936
0.00114222
9.85259e-05
-0.00010138
-0.000264472
-0.000471658
-0.000268879
-0.000318403
0.000742926
0.000183795
-0.000798936
-0.000127786
-0.00099331
-0.000637448
0.00105514
0.000575618
-7.41734e-06
6.26812e-05
7.45553e-05
-0.000129819
0.000121536
-4.47292e-05
0.000621264
-0.000136345
0.000113095
9.32908e-05
1.07164e-05
-3.12688e-05
4.13314e-05
-2.07791e-05
0.000822562
-0.00104108
0.000356538
-0.000138015
-1.75525e-05
-2.42679e-05
5.94386e-05
-1.76181e-05
-0.000314776
1.85778e-05
-0.000102444
-0.000755294
0.000857738
-0.000138075
-6.53891e-05
0.000100226
-1.51701e-05
1.19284e-05
-5.04308e-05
-6.01001e-05
5.58512e-05
-0.000240609
0.000183329
9.16824e-05
-0.000100041
5.19932e-05
-2.95308e-05
-9.30016e-05
7.05392e-05
1.24776e-05
1.50281e-06
-6.11053e-05
4.7125e-05
-0.00030046
-6.86227e-05
5.43074e-05
-0.000563499
2.46806e-05
0.00051293
2.58883e-05
1.19327e-05
-3.446e-05
7.35722e-06
0.000899413
-2.30363e-05
-0.000766376
-0.000110001
-0.000101456
0.00109704
0.000156228
-0.00109034
9.03584e-05
0.000860127
-0.00102794
-0.000262884
0.000430696
-0.000222814
-0.000989139
0.00119038
2.15707e-05
0.000140811
-9.33192e-06
-8.24312e-05
7.5598e-05
0.000190162
-0.000914778
0.000874688
-0.000277996
0.000318087
0.00127059
7.64473e-05
-0.000315689
-0.00103135
-5.122e-05
0.000901754
-6.29564e-06
-0.00010372
0.000126604
-2.10752e-05
-1.80843e-06
-1.57434e-05
0.000212677
0.000138492
-1.00585e-06
-0.000165473
6.92753e-05
-0.000930349
-0.000378054
0.000354511
-0.000127069
-0.000163471
0.000152464
0.000905924
0.000125008
-0.000188152
-0.000198732
0.00089973
-0.000884461
0.000183462
9.14484e-05
-0.000123314
8.1782e-05
-0.000180442
0.000147196
2.58706e-06
6.38433e-05
1.22691e-05
-5.57173e-05
0.00016362
-0.000119641
2.4466e-05
-6.4442e-05
-6.92115e-05
-2.41479e-05
8.61602e-05
6.63255e-05
-3.27115e-05
2.33077e-05
-0.000101341
0.000104073
-0.000109398
7.89015e-05
-3.48923e-05
-0.000932887
0.000191814
0.000862609
8.78019e-06
0.000286873
-0.000276312
0.000364457
-0.00056787
-0.000532785
0.000736198
1.46022e-05
0.000237681
-0.000877061
-3.34116e-05
0.000918852
1.39727e-05
-3.48369e-05
-3.06096e-05
6.54465e-05
8.03777e-05
-0.000140478
0.00108345
-0.00126005
-0.000153626
0.000330228
0.000162707
-9.51401e-05
-0.000104458
-0.000813924
-0.000364081
0.000851627
0.000326378
-8.41598e-05
0.00104637
-0.000949653
-1.25622e-05
-2.45673e-05
0.000142201
-2.93807e-05
-8.82535e-05
0.00013968
-0.000972657
0.000936242
-0.000103265
9.5453e-05
-0.000136539
-6.45719e-05
-0.000333633
0.000247608
0.000946152
-0.000918751
0.000904771
-0.000184752
0.000630582
-0.000598625
1.94663e-06
0.000564302
-0.000510397
-1.16515e-08
2.69989e-05
-0.000332922
-0.000909319
0.000311892
8.72589e-05
-0.000150367
0.000153006
-8.98973e-05
-0.000362691
0.000370556
-9.84813e-05
9.0617e-05
-7.12214e-05
0.00101778
-0.000893076
-0.000158113
0.000355439
-3.94456e-05
6.20147e-07
-0.000316614
-0.000161038
0.000169133
0.00113412
9.61952e-06
2.16649e-05
0.00100921
0.000134298
0.000914747
-0.000983523
-6.55214e-05
-0.000174788
-7.48906e-05
-9.91898e-05
7.50736e-06
-0.000209984
0.000280321
-7.03371e-05
-0.000206267
-0.000916491
0.00020798
-0.000294346
-6.48436e-05
3.65755e-05
-0.000199002
-0.000247967
-2.72568e-05
1.74206e-05
4.08162e-05
0.00102323
-8.67854e-05
-0.000977258
9.67964e-05
0.000217116
-0.000213837
-0.000100076
-7.52501e-05
0.00105626
-0.000651009
-0.000265103
0.000677673
-9.91566e-06
-0.000890572
0.000135871
0.000793835
-0.00018678
0.000977402
0.000148976
-0.000159337
-0.000967042
0.000175473
-0.000101909
-0.000176652
0.000109306
-0.000121126
-0.000105366
0.000216235
0.000893702
-0.000204013
0.000195984
0.000145281
-0.000254006
-6.0426e-05
0.000109931
2.73082e-05
-7.68133e-05
0.000369027
-9.18724e-05
0.000583883
-0.000861038
0.000353119
-0.000100725
0.000514616
0.00122805
-0.000567075
-0.000355859
0.000810605
-0.000884032
-1.84451e-05
-0.00102096
-0.000832302
0.000593203
0.000821172
-0.000891568
-6.57766e-05
-0.00100706
5.7753e-05
0.000997544
0.000837983
-7.55652e-05
1.00502e-05
5.89655e-05
-0.000175672
0.000193414
0.000183679
0.00101306
0.000200092
-0.000537209
0.000969621
-0.00125395
-0.000420837
-0.000921706
0.000805335
-0.000615452
0.000872288
-7.89119e-05
-0.000992517
8.22894e-05
-4.66026e-05
-1.47978e-05
5.34836e-05
-0.000937638
0.000664267
-5.95518e-05
-6.54524e-05
7.56513e-05
1.28335e-06
-1.14823e-05
-0.00110893
-3.59409e-05
0.00106962
-0.000196999
0.000180238
-0.000470727
-6.87903e-05
0.00011058
0.000428937
-0.000536495
0.000654213
-0.000167141
5.84754e-06
-4.17969e-06
-0.000149922
4.0786e-05
-5.80053e-05
0.00075704
0.000259853
0.000301326
-0.000992462
0.000164823
-0.000973826
-9.74895e-05
0.00117218
-0.000100867
0.000109606
-7.24607e-05
0.000176597
-0.000124921
0.000781137
0.000501141
-0.00114798
0.000210809
-0.000270335
-0.000963703
0.000987352
-2.36492e-05
0.000139211
-0.000190947
5.17356e-05
-4.02928e-05
5.4252e-05
-7.94115e-05
-0.00104866
-2.46549e-05
0.00107332
-0.00100501
0.00101647
-1.14619e-05
-0.000933636
-5.72339e-05
-0.000743143
0.000144514
3.513e-05
0.000248107
-0.000873475
-0.00102142
5.50837e-05
-0.000995009
0.00109353
0.000908574
-0.00022264
-0.000932758
-0.000132204
0.000939346
0.000125616
-0.000408102
-5.41915e-05
0.000588974
-0.00012668
0.000997294
3.62887e-05
0.000447561
-0.000980079
6.46961e-05
-5.84426e-05
9.67035e-05
-0.00101903
-3.44107e-05
-0.000899225
0.00103533
-0.000664331
-8.52473e-05
6.01169e-05
7.10687e-05
1.50082e-05
-0.000125956
1.70421e-05
4.38065e-05
-5.90942e-05
5.92725e-05
-4.39847e-05
-0.00060054
-0.000102487
-5.47583e-05
-0.000796323
-2.17665e-05
2.09233e-05
7.64945e-05
1.69183e-05
-2.27712e-05
-5.45731e-05
-9.76019e-05
0.000112581
-0.000971701
-0.000418977
-0.000834853
0.000527129
0.000726701
-0.00100498
-0.00105125
-9.2579e-05
5.5204e-05
0.00108862
0.000551663
3.21955e-05
0.00115792
-1.38243e-05
-0.00117629
-0.000690594
-0.000542307
0.000147155
-1.02294e-05
6.4704e-05
-0.00020163
0.000972925
-0.0010333
-0.000395843
0.000218269
0.00121087
2.83926e-05
-5.72086e-05
-4.24053e-05
0.00020881
-0.00105936
0.000990229
-1.31151e-06
3.57521e-05
-7.47334e-05
-0.000245988
0.000213154
-0.00134672
-2.46945e-05
0.000173048
-0.0001132
-7.55911e-05
0.000305187
0.00102433
-6.58369e-05
-0.00126368
0.000129407
2.51362e-05
2.3709e-05
-5.01567e-05
0.000378556
-0.000261053
-1.7654e-05
5.65451e-05
-5.67542e-05
3.46324e-06
0.000864396
-2.75149e-05
-3.6681e-05
7.37815e-05
-9.5856e-06
-1.50903e-05
2.64964e-05
-0.000156408
0.000128472
-3.75846e-05
3.41048e-05
2.86161e-05
-2.98515e-05
-0.000503441
-6.72483e-05
2.79972e-07
-4.54092e-06
-2.67843e-06
6.93939e-06
0.00030928
-0.000982879
-1.50737e-05
0.000124554
3.02162e-05
2.92449e-05
3.16027e-05
-8.17862e-06
0.000106083
1.3423e-05
-0.000442466
0.000453724
1.24636e-05
-2.24957e-05
-1.17345e-05
-2.93552e-05
0.000133344
6.64793e-05
-0.000170468
-3.4011e-05
0.000126382
0.000405019
0.000923543
-0.000402237
-0.000105412
2.24139e-05
-5.34408e-05
0.000136439
0.00107962
3.13513e-05
-3.17456e-05
-2.83942e-05
2.87885e-05
0.000136472
-0.000156705
0.000146374
-0.000126141
-9.46181e-05
0.000112555
2.98642e-06
6.11121e-05
7.2485e-05
-0.000283964
-3.02777e-05
-0.00029184
0.000253328
-0.000144965
-4.17378e-05
8.53617e-05
4.19493e-05
8.21006e-05
-5.5535e-05
-0.000185552
-0.000152494
-8.10687e-05
9.61667e-05
0.000137396
0.00117805
-0.000891837
-4.01451e-05
-6.09868e-05
0.000134005
8.98126e-05
-0.000250332
-0.000561271
0.000721791
6.49541e-05
-0.00014473
7.97763e-05
0.000105232
-0.000916338
-7.29267e-05
1.61307e-05
4.06047e-05
-5.67354e-05
-3.95134e-05
1.92662e-05
2.02472e-05
0.000118492
-0.000127314
8.82231e-06
0.000176077
-0.000107591
-6.84862e-05
-0.000129263
1.35673e-05
0.000115696
0.000104443
-4.51874e-05
-5.92557e-05
0.000204262
-0.000167112
-3.71494e-05
-1.47999e-05
1.11151e-05
3.68475e-06
0.000162406
1.36705e-05
-0.000127843
-1.42e-06
4.9065e-06
6.00476e-05
-7.69905e-05
0.000118778
-4.17877e-05
-1.03952e-05
2.78155e-05
-1.74203e-05
8.36764e-05
-6.06376e-05
4.58377e-05
0.000224322
-7.65492e-06
4.23294e-06
3.42199e-06
-9.70201e-05
5.75067e-05
6.17217e-05
-4.55909e-05
-0.000221474
3.05266e-05
7.9886e-05
-8.0014e-05
1.28009e-07
5.15268e-05
-6.22071e-05
-6.36838e-06
1.70487e-05
-3.36353e-07
7.31678e-05
-4.7869e-05
-1.02334e-05
1.96981e-05
-3.90827e-05
-9.71804e-06
0.000126093
-0.000128614
0.000237363
3.84062e-05
-6.53782e-05
2.51461e-05
0.000150163
3.92771e-05
-5.0081e-05
-2.09417e-05
1.72601e-05
-0.000329791
-0.000637122
-0.000338901
0.000387829
0.00106218
-5.43952e-05
-2.25953e-05
7.03248e-05
2.02103e-05
-9.05351e-05
-4.58689e-05
2.14719e-05
-2.34e-05
1.92484e-05
2.84792e-06
-8.35897e-05
3.57578e-06
1.60216e-05
-4.83343e-05
1.16113e-05
0.000113102
-7.24976e-05
-0.000333086
-0.000606595
0.000364575
0.000575106
0.00103929
-0.000267076
0.000139078
-4.27694e-05
6.79674e-05
-9.79506e-05
7.27526e-05
5.06544e-05
5.31558e-05
0.000915142
-0.000924551
9.26686e-05
-8.32598e-05
-2.09721e-05
5.58969e-05
1.63823e-05
-5.13071e-05
-1.4997e-05
4.60177e-06
-3.98252e-05
-3.93719e-05
5.08029e-05
7.11648e-05
-0.000204981
8.93412e-06
-6.26591e-05
3.47484e-06
5.02502e-05
0.00109556
-0.000282876
-2.45402e-05
5.26744e-06
1.95527e-05
0.000419791
-0.00107113
0.000956523
4.78607e-05
-1.07264e-05
3.3722e-05
5.21879e-06
0.000156786
-0.000370068
0.000727898
-3.80699e-05
-7.96901e-05
0.000100097
0.000688913
0.000688052
-0.000493644
8.17721e-05
-7.50676e-05
0.000645182
-0.000347394
-0.000297788
-1.31466e-05
2.3175e-05
5.86091e-05
-6.86375e-05
-0.000711549
-0.000135838
0.000439285
-1.95247e-05
6.69517e-05
4.22485e-05
-8.96755e-05
2.68187e-05
1.75933e-05
-9.67064e-06
-4.54366e-05
3.15254e-05
-0.000153949
0.00016786
6.76557e-05
7.85802e-05
-6.54715e-05
-8.07644e-05
5.70866e-05
-5.98325e-05
-0.000154206
0.000156952
-0.000157382
7.37197e-07
0.000111208
-6.27704e-05
5.68808e-05
-7.25698e-06
-8.39094e-05
6.98558e-07
0.000140297
-3.78405e-05
4.08258e-05
-1.58163e-05
1.2831e-05
7.95414e-05
-9.89655e-06
-5.1961e-05
7.6668e-05
-1.48105e-05
-0.00012943
-0.000225098
3.23955e-05
0.00013287
-2.11517e-05
8.76895e-05
1.87727e-05
-3.35429e-05
-7.29192e-05
6.78609e-05
2.6227e-05
-1.06996e-05
-5.03608e-05
5.66992e-05
4.36131e-06
-0.000135448
0.000178537
-1.15628e-05
-9.91416e-05
-2.26768e-05
8.39779e-05
-0.000125769
-9.59215e-05
6.74844e-05
0.000114651
0.000318505
-0.000305082
7.28703e-05
-8.43225e-05
0.00011741
-6.72162e-05
-1.80767e-05
-0.000154502
0.000172578
-4.20546e-06
4.11843e-05
-6.33876e-06
-3.06401e-05
-1.47141e-05
2.74232e-05
-1.69146e-05
-0.000202487
-4.06878e-05
0.000163247
5.61449e-05
-0.000219392
-3.25721e-05
4.02792e-05
1.10656e-05
-5.38105e-05
-1.23045e-05
7.5758e-06
5.88368e-05
1.2431e-06
-1.50708e-05
1.98435e-05
-1.94868e-05
4.28347e-05
6.53702e-05
-2.96247e-05
-3.44105e-06
-5.15817e-06
-0.00014535
2.61613e-05
-2.92951e-05
4.59685e-05
-6.29639e-05
7.32003e-05
-2.66061e-06
5.19128e-05
-2.69538e-05
3.38777e-05
2.85676e-05
5.56688e-05
9.51363e-06
0.000263228
-0.000268761
0.000239026
-0.000233492
0.000143909
-2.40938e-05
-0.000119815
3.56816e-06
4.81741e-05
-0.000109401
-8.44977e-05
9.53794e-05
6.58932e-05
-3.47646e-05
-4.89328e-05
5.68907e-05
5.79353e-05
-3.24891e-05
-0.000433635
-0.000109159
0.000209708
-3.38443e-06
-0.000160806
5.479e-05
6.79887e-05
-0.000136446
0.00052517
-0.000269892
5.93065e-05
-4.99656e-05
8.08471e-05
-9.0188e-05
-4.305e-05
1.80641e-05
0.000866737
-0.000221554
0.00013127
5.60042e-05
-0.000190659
4.98617e-05
8.50787e-05
-0.000809704
0.000728278
0.000712892
-0.000834544
0.000606145
-0.000516812
0.000281223
-1.85958e-06
-0.000168409
0.000170269
-0.000162682
6.57149e-05
-5.12039e-05
4.47955e-05
-0.000150757
0.00101749
-0.00110571
-0.0011433
0.000105592
-0.000132663
-0.000161771
-9.28332e-05
0.000139606
6.35592e-05
-4.60726e-05
-6.01777e-05
4.26911e-05
2.88824e-05
-3.96086e-05
0.00010474
-9.40141e-05
0.000145925
1.73224e-05
-8.57716e-06
0.000160404
-1.64943e-05
9.65797e-05
1.58357e-05
-7.01669e-05
-0.000784603
0.000979541
0.000533341
-8.00549e-06
-1.2802e-05
6.91273e-05
9.38965e-06
-0.000456318
0.00010508
0.000351238
0.000164496
-5.09566e-05
4.61318e-05
-0.000159671
9.50333e-05
-8.93775e-05
-0.000930206
-3.45313e-05
3.89669e-05
0.00016006
-0.000132544
9.57151e-05
0.000546645
0.000164675
-0.000711319
-3.23875e-05
4.79142e-05
2.52991e-05
-3.49847e-05
-4.33928e-05
6.8481e-05
-7.34024e-05
-1.35433e-05
0.00021101
-0.000220684
2.69958e-05
3.54176e-05
0.000111024
5.11873e-05
-5.30996e-05
-0.000150475
0.000156684
-2.27039e-05
0.000316659
1.84618e-06
2.96904e-05
0.000286969
-5.41533e-08
0.000180227
-6.75682e-05
4.22817e-05
-3.31941e-05
-0.000141374
0.000534434
9.03267e-05
-1.40037e-05
3.52386e-05
2.69195e-05
5.65891e-05
-0.000221128
-0.000172135
5.67786e-06
0.000199984
-0.000194352
-8.90906e-05
9.18272e-05
-1.34631e-05
1.00853e-05
-1.73941e-05
-5.49322e-06
-0.000116332
-2.42746e-05
6.98215e-05
2.71259e-05
-6.37585e-05
-3.3189e-05
0.000138186
-0.000132008
-0.000192449
2.02599e-05
0.000126384
3.71577e-05
-0.00112737
-8.72053e-06
-0.000929992
-0.000324971
-0.000142748
5.25046e-05
-4.81615e-05
6.04658e-05
-2.11673e-05
-3.14676e-05
1.09832e-06
3.98127e-06
2.6388e-05
0.000126849
3.85018e-05
-9.52247e-06
3.5636e-05
-0.000269325
0.000344688
0.000461892
-0.000537255
-4.15006e-05
-5.42392e-05
5.2347e-05
-6.67311e-05
-0.000377533
2.75553e-05
-0.000131712
0.000133585
-4.79456e-05
8.87482e-05
-0.000961865
-2.19875e-05
0.000993472
4.26887e-06
0.000116497
-2.19269e-05
-7.87339e-05
3.75717e-05
6.63815e-06
-4.18573e-05
3.52192e-05
0.000987839
-0.00103899
-3.27591e-05
0.000126822
1.19601e-05
2.05178e-05
-7.37908e-05
1.91876e-05
-3.1708e-05
-4.81491e-05
6.06696e-05
4.70303e-05
-9.363e-06
-0.000336994
4.32983e-05
-4.7326e-05
2.38712e-05
0.000100033
-0.000116458
0.000159306
-0.000135715
-4.40374e-06
0.000629944
-0.000334371
-3.73224e-05
-7.87834e-05
9.99879e-05
1.61178e-05
-9.66382e-05
8.87402e-05
1.55919e-06
-0.000859175
6.77131e-05
0.000169987
8.51002e-05
-0.000181919
-4.00784e-06
-0.000110895
-0.000171633
-1.18468e-05
0.00018348
0.000116585
-7.56569e-05
-6.19003e-05
0.000278825
-0.000378163
3.68977e-05
-5.20247e-05
0.000142905
-8.80428e-05
-4.75439e-06
0.000150794
3.24972e-05
-0.000154712
1.58682e-05
9.6724e-05
0.000282735
-0.00100668
7.29762e-05
2.66342e-05
-0.000741071
2.05729e-05
7.50271e-07
6.52181e-05
3.37062e-05
0.000109302
-0.000130323
-1.26843e-05
0.000122376
4.20449e-05
5.08259e-05
-9.74908e-05
0.00110189
2.9965e-05
7.31094e-05
-0.00105176
-4.18813e-05
-9.07704e-05
0.000191533
-9.4152e-05
0.000351259
0.000242529
0.000250402
0.00124854
0.00110072
0.00018139
0.000218967
0.00110003
5.8422e-05
1.94763e-05
-3.33109e-05
-4.73953e-05
-5.90234e-05
-0.000167864
-0.000920164
0.000125685
0.00020178
1.08965e-05
-5.12052e-05
-5.28754e-05
-6.1801e-05
1.71857e-05
2.36869e-05
0.000128227
3.53316e-05
9.19184e-05
5.17782e-05
3.26169e-05
-0.000206392
0.000168593
-5.06989e-05
-0.000139821
-0.000214976
0.000218163
-5.5212e-05
0.000865392
-0.000187721
-0.000661212
-1.64592e-05
-0.000772035
0.000708446
0.000346324
-1.17858e-05
-2.39362e-06
-1.64607e-05
-5.878e-05
7.46135e-05
4.59404e-06
1.98689e-05
-0.000265135
0.000358492
0.000161433
-0.000984894
0.000114123
0.000683433
-0.000692476
2.37144e-05
0.000456738
-0.000450762
4.70506e-06
2.16923e-05
4.05226e-05
6.43738e-06
7.76121e-05
-0.000167417
-5.43459e-05
0.00014415
8.99346e-05
-6.5899e-05
-3.21341e-05
-6.93956e-05
4.56399e-06
6.03479e-05
0.000143867
-6.77434e-05
-5.73909e-05
7.75183e-05
0.000822641
-0.000168625
0.00015271
9.35272e-05
7.11741e-06
-2.56451e-05
-7.88162e-05
-3.65328e-05
0.000103786
-0.00100791
0.00104147
-0.000281521
-4.8971e-05
-0.000241661
-4.69018e-05
-4.67081e-05
6.14758e-05
2.38886e-07
-3.50758e-05
-0.000967011
-0.000199017
-3.76181e-06
6.82293e-05
2.48637e-05
0.000786884
6.66228e-05
0.00105532
-0.00102407
8.21854e-06
-1.31063e-05
-4.20141e-05
9.45262e-05
3.9437e-05
0.000421483
-1.37716e-05
2.38103e-05
-0.000431522
-0.000308571
1.59578e-05
2.36378e-06
-3.01073e-05
-0.000133238
8.84474e-06
-3.65715e-05
4.2053e-05
0.000614685
-5.0694e-05
1.44557e-05
1.12733e-05
-4.97628e-05
-4.93067e-05
-7.55708e-05
5.80177e-05
-4.29316e-05
1.41588e-05
0.000216502
-0.000175835
0.00100971
-0.00126637
0.000286624
1.37157e-05
-3.48615e-05
0.000722382
5.65183e-05
0.000945856
0.000277464
-9.96054e-05
-0.00112371
-9.91804e-05
-4.1927e-06
4.29226e-05
2.63086e-05
-1.12659e-05
9.47633e-06
1.89795e-05
-1.71899e-05
-3.16921e-05
6.74251e-05
-8.17201e-05
4.59871e-05
-8.37427e-05
6.99591e-05
0.00133454
9.82025e-05
5.705e-05
3.50267e-05
0.00132649
0.000126948
-4.6462e-05
-7.63116e-06
0.000126453
-3.60997e-06
9.08748e-08
-0.00103188
8.04895e-05
-1.50768e-05
-8.18414e-06
5.10587e-05
4.81142e-08
-0.000979861
-0.0011657
0.000744603
-0.00011739
-4.79603e-05
-9.42292e-05
1.0928e-05
2.36713e-05
5.963e-05
8.49306e-05
-2.44628e-05
3.1101e-05
0.00019099
1.34161e-05
0.000109324
-1.0647e-05
4.44691e-05
9.35316e-05
-4.02995e-05
0.000141172
0.000115759
-8.90706e-05
-4.24575e-05
1.41576e-05
3.71446e-05
4.4618e-05
5.91288e-05
-3.58082e-05
-2.56821e-05
4.38066e-05
-5.46437e-05
-5.9318e-05
1.53025e-05
-0.000187034
4.32725e-05
1.23139e-05
-8.08096e-06
-5.85309e-05
4.16089e-05
0.000858969
0.000141069
-0.000177385
-0.000811587
9.29105e-05
-1.36279e-05
3.12326e-05
0.000452554
0.000406102
0.000167033
-0.000110844
0.00108515
-0.00045751
-2.36159e-05
-1.7235e-05
-1.82301e-05
0.000130056
-6.13714e-05
-4.89312e-05
0.000117201
-4.33201e-05
8.47445e-05
-3.85612e-05
2.21301e-05
-0.00072724
0.000677781
4.94597e-05
1.52677e-05
-1.32463e-05
-7.06589e-05
-9.78775e-06
0.000381374
-1.6147e-05
0.000890476
0.000151956
-0.000789305
6.20651e-05
5.123e-05
0.0010736
-8.82437e-05
-0.000950271
0.00101653
-0.000358421
0.00060455
4.37085e-05
-0.000289838
-0.000171042
-2.15405e-05
4.00877e-05
5.80416e-05
0.000619739
-3.52124e-05
0.000171992
7.10241e-05
-0.000207803
0.000173725
-4.18972e-05
3.69455e-05
-0.000168773
-0.000172383
4.11043e-05
0.000131279
4.19386e-05
9.24054e-06
0.000117359
-5.0678e-07
1.77117e-05
-1.74728e-05
-0.00021639
4.40066e-05
-0.000261119
0.000361789
-0.000419566
-0.000300644
-0.000889915
0.000112335
2.8606e-05
1.96359e-06
-0.000250139
-6.56918e-05
1.91238e-05
-2.18099e-05
5.24249e-05
4.08225e-05
0.000365781
-7.26815e-05
0.000386571
0.000530462
-6.9437e-06
-4.59308e-05
1.77987e-05
-0.000470566
0.000449769
2.07967e-05
8.27205e-05
-0.000872026
6.23824e-05
-0.000121079
0.000203561
-1.96167e-05
-0.00035805
0.000855706
-0.000307773
0.000348293
-0.000380776
-0.000102277
-3.27545e-06
-6.26976e-05
2.06823e-05
0.000878365
-0.000194809
0.00035573
-0.000960254
0.00065644
0.000632773
-0.001066
-5.00883e-05
0.000544192
0.000213572
-0.000166667
-0.00063505
0.000600842
0.000531331
-0.000631033
0.000351594
0.000593936
-0.000266466
-0.00029442
0.000155137
0.000278889
-0.000131024
-7.83056e-06
-0.000639645
0.000769685
-0.000494644
2.40777e-05
-0.000190662
1.65156e-05
0.00037826
0.000584765
-3.02287e-05
1.17792e-05
-2.89457e-05
-5.97103e-05
9.57544e-05
0.000108106
7.11884e-05
-9.23401e-05
0.000433967
1.58018e-05
-1.85334e-06
-1.25909e-05
3.17826e-06
0.000112511
-0.000102458
-6.96411e-05
-5.57428e-05
-0.00013252
3.1557e-05
-3.56217e-05
4.10382e-05
-1.34828e-05
-0.000411137
-0.000335726
3.77744e-05
3.13728e-05
-5.10274e-05
-0.000545515
0.00011934
-0.0001409
-5.12842e-05
-4.0316e-05
-2.88202e-05
8.63114e-05
-3.89096e-05
5.68714e-05
4.21551e-05
-0.000916634
0.000115803
-7.93952e-05
0.000105159
-0.000169484
0.00101352
-0.000961158
-1.20944e-06
-1.26565e-05
0.000120117
0.000128348
0.000249961
0.000396498
-0.00108745
2.88795e-05
2.0679e-05
5.85388e-05
3.43785e-05
2.18871e-05
-1.54431e-05
0.000928253
0.00014246
0.000102812
8.36261e-05
-1.52177e-05
2.75316e-05
5.73524e-05
2.08477e-05
-0.00101223
0.000673527
6.83626e-05
-0.000107928
0.00011296
8.64157e-05
0.000152554
-4.97485e-05
1.2135e-05
0.00111704
6.97853e-05
-0.00108143
-0.000604241
0.000770511
1.99511e-05
-1.0559e-05
8.02184e-05
-0.000108132
0.000164123
0.000502132
-0.00072664
0.000224507
0.000434519
6.76127e-05
0.000445469
-1.09495e-05
-0.000309564
0.00046635
-0.000679632
-0.000603185
-0.000504701
-9.84835e-05
1.65736e-05
-0.000133207
-0.000131352
0.00010963
-0.00093836
-0.000121169
-0.000139158
2.3374e-05
-5.7302e-05
2.09739e-05
8.45355e-06
-6.78406e-05
-2.84298e-05
4.12699e-05
4.46666e-05
-7.94608e-05
-7.9893e-06
4.15813e-05
-3.03911e-06
6.92836e-06
-0.000194475
-4.30022e-05
0.00044356
0.000819109
-0.000119871
-9.77038e-05
8.27068e-05
1.72741e-05
0.000153175
-0.00014977
-0.000236745
-0.00100009
0.000152473
-3.37927e-05
0.000220999
-0.000476971
-2.77297e-05
0.000267164
-0.000147446
-0.000613362
0.000136142
0.000105167
-3.74637e-05
-1.97093e-05
-6.57442e-05
5.06951e-05
-6.19957e-05
6.93182e-05
9.78528e-05
-0.00115178
0.0010401
-0.000102669
8.75914e-05
-0.000101421
1.10342e-05
2.79539e-06
2.86377e-05
2.32325e-05
-2.35116e-06
-0.000124963
7.55778e-05
-3.42133e-05
7.97307e-05
-0.00118942
1.67521e-06
0.000683019
-0.000382621
0.000102857
-0.000133868
1.08745e-05
5.15926e-05
3.19882e-06
-3.79789e-05
-2.08132e-05
9.0436e-06
-0.000119721
0.000121839
-0.000142808
2.71708e-06
-0.000227862
1.23362e-06
-0.000615001
-0.000393297
5.67834e-06
4.3025e-05
-2.90278e-05
-8.1155e-05
5.9822e-05
6.74906e-05
3.43523e-05
-0.000130273
0.000979864
0.000199217
3.95432e-05
9.66449e-05
8.51336e-05
-1.3676e-06
-0.00013092
6.33231e-06
-0.000802756
0.0011229
8.31564e-05
-9.0395e-05
8.91399e-05
-3.03854e-07
-8.42063e-05
-1.42103e-06
-5.41686e-06
0.00104014
3.328e-05
4.27023e-06
-5.95854e-06
3.56841e-05
0.000149069
-8.65195e-05
-9.00159e-05
9.25566e-05
-0.000850075
4.14871e-05
0.000685402
8.38224e-05
-1.94223e-05
-3.79718e-05
0.00108781
7.08453e-05
4.31226e-05
8.70688e-05
-0.000374318
5.74764e-05
-9.23948e-06
-0.00010821
0.000101894
-7.98697e-05
6.55833e-05
0.00011836
-7.74541e-05
0.000105115
8.54749e-05
-2.53385e-05
0.000121818
-6.0148e-06
-0.000145522
0.00013619
-0.000964413
0.00102928
-0.000249875
0.000185011
-1.81595e-06
9.36904e-05
7.74725e-05
-4.02588e-05
6.05607e-05
-0.000246679
0.000612837
-0.000538159
-0.000207116
-4.34477e-05
-5.61089e-05
-3.69649e-06
-4.96166e-05
2.67628e-05
-4.9957e-05
-0.00115712
-0.000131394
1.90041e-05
-0.000201986
-1.37847e-06
2.54114e-05
-0.00107131
0.000970143
1.59785e-05
-1.62548e-05
0.000993748
-4.87259e-05
0.000557762
-0.000481655
-7.61077e-05
0.000399817
-8.18501e-06
0.000107663
2.00393e-05
-6.90831e-05
7.07361e-05
-0.00089351
0.000902657
0.000181866
-6.65946e-05
8.96072e-05
-0.000149981
6.03735e-05
-4.31711e-05
1.69439e-05
4.64362e-05
-0.000212408
6.24272e-05
6.01781e-06
2.93938e-06
0.000320003
-0.00106624
2.92773e-06
6.01746e-06
-8.65381e-06
2.78682e-06
0.000138681
-0.000130111
-7.81668e-06
-2.44496e-06
1.02616e-05
-3.95704e-05
0.000209788
-7.84319e-05
-1.1975e-06
-0.000339795
6.86041e-06
-8.01533e-05
-0.000628693
0.000461437
4.26728e-05
-7.96374e-05
3.37907e-06
-4.51336e-07
-4.05304e-05
4.68487e-05
0.000102369
0.000567598
3.85454e-05
0.000104902
-6.75985e-06
0.000125313
-9.93052e-05
5.0315e-06
-6.55468e-05
-6.80941e-05
7.18399e-05
-5.58835e-06
-2.22832e-06
4.88015e-06
-1.50107e-06
8.4639e-05
0.000100099
7.92095e-05
-6.8411e-05
7.20079e-06
-6.76237e-05
-2.45324e-05
-7.23561e-05
1.92531e-05
0.000468706
-0.000493498
-5.82215e-05
7.45458e-05
-0.000256978
-4.81106e-06
-7.77277e-07
-0.000107271
-6.01702e-06
0.00105187
-1.6582e-05
-0.00101372
-0.000172461
0.000199633
0.000656261
-0.00010405
0.00049354
-0.000213897
-2.67123e-05
5.57961e-06
1.77762e-06
0.000269223
-1.87293e-05
2.29995e-05
-0.000228224
0.000312863
-2.74196e-05
0.000106629
0.00140708
-0.00113703
2.58249e-06
-0.000924964
-7.46329e-05
-8.85602e-06
-2.72051e-05
0.000177901
-1.79745e-05
0.000545864
-0.000717339
-0.000108239
9.52653e-05
1.38399e-06
5.44512e-05
0.000182919
0.000178776
-8.26821e-05
-0.000887148
-0.000108832
-0.000113086
-0.00037232
0.00038922
-0.000206967
0.000589143
0.000924858
-0.000265462
-9.42857e-06
-4.8839e-05
1.80074e-05
-0.000173655
0.000108817
0.000682646
5.97656e-06
6.7552e-05
0.000131895
-1.00774e-05
8.32529e-05
0.000173115
4.80785e-06
-6.36964e-05
-0.000156523
-0.000322009
-6.1708e-05
0.000334746
9.54883e-06
-1.29264e-06
7.99593e-05
0.000122144
4.6002e-05
9.03335e-05
8.92472e-05
0.000139811
3.36891e-05
0.000896357
-0.00090925
-3.65752e-05