/*--------------------------------*- C++ -*----------------------------------*\
| =========                 |                                                 |
| \\      /  F ield         | OpenFOAM: The Open Source CFD Toolbox           |
|  \\    /   O peration     | Version:  v1912                                 |
|   \\  /    A nd           | Website:  www.openfoam.com                      |
|    \\/     M anipulation  |                                                 |
\*---------------------------------------------------------------------------*/
FoamFile
{
    version     2.0;
    format      ascii;
    class       volScalarField;
    location    "0.17";
    object      k;
}
// * * * * * * * * * * * * * * * * * * * * * * * * * * * * * * * * * * * * * //

dimensions      [0 2 -2 0 0 0 0];


internalField   nonuniform List<scalar> 
1466
(
0.459521
0.99809
0.0472339
0.153853
0.0531475
0.0608376
0.164926
0.0481323
0.28849
0.0500423
0.588859
0.224524
0.224255
0.0586733
0.0664496
0.785894
0.0674225
0.362286
0.483174
0.239664
0.559739
0.403174
0.437741
0.193765
0.264219
0.0834113
0.354752
0.509062
0.0558283
2.41538
0.294414
0.330095
0.0520562
0.297141
2.01447
0.0808745
0.248664
0.0508489
0.263049
0.0528731
0.0895543
0.208072
0.138841
0.112988
0.0550895
0.222089
1.13708
0.0321525
0.0399044
0.0448663
0.0550524
1.15553
0.0441161
0.0392238
0.0444276
0.292272
0.31822
0.696961
0.119817
0.0409312
0.114725
0.184355
0.0666568
0.617524
1.25999
0.0706591
0.98315
0.204121
1.32373
0.055121
0.191497
0.336277
0.115261
0.295443
0.130998
1.59721
0.207442
0.0659624
0.301066
2.27263
0.0722899
0.527851
0.0680437
0.441603
0.271988
0.725762
0.302149
1.80111
0.133944
0.484685
0.0810121
0.339918
0.1103
0.701933
0.0528413
0.0446993
0.819024
0.923644
0.293335
0.0473143
0.0515369
0.0580827
0.0331871
0.0436681
0.125645
0.0534926
0.0391336
0.0335849
0.404228
0.383182
0.0937404
1.86394
0.420559
0.178248
0.0652015
0.112682
0.307041
0.340926
0.145266
0.094238
0.420582
0.453188
0.158577
0.172679
0.0742983
0.0645392
1.78632
0.574044
0.163203
1.09299
0.0576194
0.248024
0.420154
0.1829
0.152561
0.0906902
0.0781946
0.0712695
0.111115
0.0657391
0.046493
0.568313
0.174693
0.473061
0.266641
0.690424
0.376382
0.846922
1.63943
1.13347
0.0898771
0.892546
1.61521
0.0597137
1.43109
0.417343
0.363904
0.334216
0.504286
1.34066
0.399948
2.32332
0.727018
0.292186
0.37786
0.159458
0.153677
0.588303
0.355983
1.44279
0.426825
0.431825
0.0576905
1.45387
0.151558
0.302467
2.19139
2.51713
0.0855752
0.205118
0.332095
0.437246
0.469407
0.132809
1.7639
0.670262
0.287712
0.303003
1.2706
0.380784
0.481361
0.146105
0.0986802
0.658077
1.20712
0.0839098
0.0488251
2.26119
0.300631
0.764645
0.0867003
1.31761
2.36434
0.898096
0.144221
0.272982
0.606039
1.82936
0.583314
0.220497
0.470394
0.23884
1.12219
0.423385
0.572776
0.236478
0.603787
0.30176
0.362306
0.152637
0.551596
0.14056
0.264337
0.0897214
0.31319
0.435399
0.0952152
0.100436
0.0821155
0.166861
0.152202
1.77836
0.732105
0.938096
0.153392
0.234658
0.162287
0.529552
0.886802
0.443852
0.601288
2.18944
2.14178
0.899834
0.696883
2.14838
0.264338
0.302817
2.34666
1.99681
0.553147
1.2986
1.67342
0.319171
0.420745
0.611139
0.326469
0.637987
0.278705
0.585908
0.386859
0.410893
0.180099
0.20692
1.71128
0.0421571
0.322762
1.47629
0.560073
0.797095
0.824637
0.311628
0.214362
0.641488
0.100042
0.105096
0.0905436
1.29226
0.385208
1.97031
0.387522
0.493577
1.42311
1.92158
0.436555
0.112233
2.02493
1.91584
0.193542
1.37907
1.19758
0.539329
0.277684
0.222654
1.33712
0.192541
0.405375
0.0805092
2.11244
0.218504
0.0530253
0.0569667
0.0249279
0.346148
0.246643
0.356179
0.866551
0.126456
1.7134
1.83646
1.77447
0.900077
0.165737
1.57957
2.12436
2.15263
0.904499
1.8958
0.17537
0.0847789
0.156059
0.352897
0.649947
0.269798
0.345515
1.11272
0.089114
1.89528
0.323692
0.195696
0.476086
1.2391
0.0546915
1.24462
1.67233
0.455375
2.12633
0.939792
0.918138
0.642686
0.315861
1.95239
0.0914085
3.04163
1.38534
0.0271483
1.82205
2.0272
1.28659
2.04074
1.11513
0.492878
2.89045
1.43055
0.629419
1.23367
0.122529
0.384364
0.514225
1.89786
0.95734
1.1827
1.22048
1.06
0.193426
0.99545
1.74267
1.65859
0.590009
1.25759
1.55876
1.0178
2.29412
1.29521
0.0591497
0.430432
0.219
2.25087
0.602462
1.52216
1.17044
1.07179
1.15709
1.04812
0.863212
0.985496
0.0874158
0.0768272
0.0959571
0.1265
0.652687
0.444098
1.04479
0.524911
0.967708
1.02228
0.172695
2.19108
0.953681
0.750586
0.253545
0.170609
2.05875
0.0881082
1.60197
0.627633
2.21523
0.382303
0.566305
0.810356
0.149055
2.57022
2.57758
0.741804
1.39516
0.0882701
0.0848264
0.972023
0.116887
0.305668
0.791634
0.673385
0.286983
2.56531
0.27215
0.0875143
0.549258
2.30333
0.219646
0.115629
0.0553659
0.917574
0.709716
2.92613
0.714626
0.632003
0.233551
0.5758
0.05225
0.0560941
0.302834
0.552513
0.0630387
0.281469
0.531513
0.406425
0.686249
0.51326
0.465225
0.119157
0.353034
0.530147
0.928535
0.36172
0.61009
0.636292
0.0712953
0.0766664
0.753146
0.375296
0.0743738
0.810007
0.075138
0.10118
0.174171
0.559686
0.852367
1.01394
1.19861
0.958094
1.20216
0.0781433
0.119066
0.0924518
0.281747
0.632375
0.341271
0.877526
0.724558
0.701626
1.26896
0.165023
0.218338
0.80017
0.640717
1.52661
0.709633
0.339071
0.941905
1.21594
0.645014
0.490828
0.0678517
0.742468
0.777014
0.463326
0.390591
0.749893
2.04453
1.14426
0.890251
0.944084
0.0820227
0.189008
0.205977
1.13732
2.60462
0.256488
0.664917
0.406347
0.953608
0.660448
1.00629
1.41481
0.335536
1.13359
0.882053
0.345072
0.70374
0.0579992
0.767459
1.09251
1.16081
1.6203
0.743796
0.960076
1.06775
1.27213
0.854817
0.923268
0.619068
2.51893
0.932174
0.544488
0.556739
1.00539
1.28788
2.95143
0.738375
0.226459
1.36048
0.180716
0.241152
0.998307
0.736511
1.24683
0.62231
1.14793
1.29389
0.187147
0.311032
0.778151
0.352362
0.648411
1.99276
0.307476
0.357781
1.06203
1.29791
1.04933
1.04898
0.699766
0.371902
2.01813
0.598911
0.965996
0.638254
1.21013
3.16369
0.482702
0.343505
1.23163
0.997297
2.23617
0.70543
2.29668
0.507638
0.504949
0.474991
0.225226
0.680993
0.413649
0.475645
1.08795
1.11665
0.694768
0.72859
0.565049
0.393669
0.997449
0.27064
1.25009
0.471052
0.562619
0.585581
0.209756
0.438068
2.0212
0.726424
1.45423
2.15868
0.884209
0.730545
1.30204
0.871682
0.577565
0.870193
0.0599171
0.0888098
1.13937
0.743409
0.0944451
1.26374
1.31521
0.2032
1.88998
2.35372
1.53038
1.35424
1.36921
1.36829
0.0975887
0.887258
0.965328
1.07954
0.657676
0.133509
0.499918
0.543142
0.356206
0.713348
1.54847
1.50078
0.809411
0.585753
0.8239
2.85527
1.5709
1.85011
0.275043
1.33065
2.73387
2.4534
0.0941483
0.949821
0.855945
0.463873
1.23529
2.15997
1.45653
0.679262
0.446737
1.7208
0.0796091
0.748403
1.21161
0.803848
0.164224
0.424236
0.311031
1.08457
1.916
0.655768
0.957046
0.652242
0.906339
0.0784494
1.44983
0.377835
0.74074
0.135016
0.843051
0.378228
0.11198
0.0732327
0.0572145
0.0618022
0.0858237
0.281433
1.29254
0.339882
0.0669377
0.085966
0.533518
0.2908
1.58801
0.561182
0.193053
0.748586
0.189851
0.794395
1.2418
1.12361
1.8954
0.390108
0.195399
1.68644
0.345595
0.593745
1.00535
0.842901
0.495654
0.190619
0.297082
1.29256
1.20196
1.25808
0.929143
0.197467
1.32018
0.813321
0.747932
0.66565
2.96269
1.42281
0.299472
1.19404
1.38664
0.532366
1.93885
1.41107
0.686667
0.779118
0.267354
0.145825
0.510451
0.296227
1.02703
0.934466
0.0327678
0.384954
0.12962
0.41869
0.0751257
0.520698
0.313616
0.169186
1.77798
0.0797008
1.27398
0.304919
0.0874244
0.781668
0.0658425
0.111104
0.232274
0.638183
0.070654
0.92986
1.96128
0.307403
0.232165
0.0817918
0.415223
0.0872735
0.67801
0.763966
0.225986
0.757808
0.764647
0.256051
0.738199
0.0995079
1.88692
0.965013
2.36262
0.412478
2.55553
0.26633
0.507342
1.08933
0.73581
0.0958819
0.375203
0.491344
0.402316
1.93016
0.224978
1.03159
2.38492
0.507963
1.01448
0.542441
0.558896
0.658122
0.072165
0.0782387
0.276296
1.32875
1.40424
1.08461
0.661525
0.351748
0.853724
1.06273
0.954685
2.00532
1.00425
0.0566599
0.395889
0.895371
0.932591
0.398279
0.0650545
1.07331
0.0729834
0.0472687
0.606775
0.460086
0.183899
0.183956
1.35926
0.542219
0.155179
0.113671
0.0546561
1.73766
0.454022
0.117093
2.11081
1.40237
1.2994
0.472487
2.32414
0.0660198
0.320773
0.406762
0.749343
0.95579
0.503918
2.33223
1.94823
0.84088
0.666119
0.25375
0.365752
0.139878
0.196934
0.772795
0.91904
0.913261
1.86867
1.12988
0.358185
0.353309
2.00578
0.644528
0.349361
1.25242
0.638687
0.280435
1.71719
0.157166
0.313663
0.977076
1.16578
1.81344
0.198338
0.284492
2.09645
0.92131
0.350292
0.392565
0.986658
0.092914
0.443834
0.18499
0.122645
1.31444
0.333636
1.01432
0.0944003
0.552011
0.578646
0.701749
1.04802
1.17301
0.134782
0.142064
0.127257
0.143079
0.143948
0.155379
0.136746
0.309002
0.330195
0.322526
0.323579
0.294339
0.280222
0.338378
0.333586
0.307334
0.337093
0.337388
0.278092
0.234514
0.162121
0.186105
0.26734
0.257602
0.247071
0.120426
1.89291
0.229314
0.0410977
0.430522
0.740933
0.106138
0.891019
0.0520764
0.0585039
2.2179
0.464686
0.593224
0.0881402
0.62725
0.826273
0.112089
1.0052
0.47128
0.677853
0.192612
0.635128
1.71755
1.2673
0.241314
0.234919
0.353675
0.130124
0.347943
0.188774
0.345047
0.579889
0.173919
0.455396
0.370664
0.0793557
0.100752
0.256939
0.0544484
0.631513
0.153376
0.424213
0.192597
0.0763183
1.42657
0.368144
1.26988
1.01496
0.167717
0.399402
2.47991
0.909823
0.0834785
0.540884
0.0959673
0.0626491
0.847286
2.20062
1.37962
0.201043
0.209151
0.64925
0.219479
1.37031
0.115757
0.054031
1.04688
0.452334
0.0751739
0.313702
0.312392
0.321536
0.33838
0.705045
0.115744
0.348575
0.0581007
0.216982
0.54297
0.219593
1.39058
0.56048
0.639492
0.221857
1.56767
0.535741
1.05219
0.233121
0.108052
0.0533418
0.0719905
2.24973
0.826555
0.959403
2.51176
0.850452
0.0575731
0.104811
1.04837
0.703267
0.592499
0.639248
0.133436
0.205104
0.0958006
0.0528398
0.0738175
0.265232
0.247434
0.205113
0.247221
0.049837
0.117929
0.408891
0.221911
0.707815
1.63033
2.46169
0.353784
0.350402
0.567472
2.39608
0.344749
0.371646
0.111886
0.455456
0.206359
0.0726482
0.328714
0.589834
0.153704
0.43468
0.73333
0.346843
1.46974
0.108534
0.59879
0.300266
0.143557
0.67798
0.370147
0.15967
0.6541
0.0569614
0.153204
0.0637653
0.0806213
1.7162
0.572628
0.268848
0.201165
0.275621
0.705054
0.91234
1.21406
0.392214
0.528674
0.192388
0.666166
0.3458
0.61504
0.665542
0.0905216
0.411568
0.130034
0.508663
0.22204
0.0156121
0.739804
1.00545
0.0729421
0.732415
0.123888
0.303583
0.385635
0.107035
0.139319
0.702858
0.342335
0.265526
0.199967
0.0765905
0.0892253
0.0666631
0.0839067
0.735965
0.767685
0.161149
0.172794
0.16898
0.152567
0.854198
0.636038
0.436449
1.28376
0.514481
0.478198
2.03253
0.44716
0.373367
0.115357
0.980649
0.283408
0.0707383
0.0689426
0.514305
2.46046
1.5925
1.01659
0.196084
0.663647
1.42544
1.53248
0.102884
1.9938
1.7955
0.548358
0.370629
0.47667
0.135933
2.97769
0.11143
0.338773
0.376239
0.0558819
0.395053
1.80198
0.240812
1.65908
1.80116
0.0795468
0.476912
0.3091
0.941947
1.14705
0.261518
0.349188
0.735035
0.731363
0.0573333
0.0494901
0.0621534
0.340752
1.3213
0.217679
0.545143
1.18559
1.78148
0.653929
0.801156
0.864404
0.39453
0.437822
0.0599161
0.163327
0.487466
1.8522
0.589507
0.637867
0.932192
0.350632
0.113581
0.412214
0.72557
2.06084
0.318405
1.29092
0.0673178
0.298874
0.972989
0.374763
0.493001
0.332899
0.345785
2.0108
0.590219
0.341562
0.470504
0.70678
0.931516
0.163445
0.272059
0.372502
0.571667
0.470391
1.04419
0.450878
0.545022
0.303978
0.41756
0.306941
0.118228
0.337559
0.0533678
1.65536
0.683955
0.487514
0.0847219
2.52265
0.414398
0.11649
2.10921
2.08678
0.638127
0.945663
0.288162
0.705936
0.781292
1.25318
0.0907595
1.73614
0.462987
0.184764
0.305895
0.148861
0.841574
0.284889
0.450418
1.4535
0.054397
2.18936
0.386586
0.678034
0.396105
0.0552587
0.0840203
0.102112
0.268112
0.674135
2.28777
0.751203
0.279598
0.951072
0.380452
0.426387
0.141866
0.0520052
0.0587745
0.41279
0.302607
0.71439
1.57582
0.390716
0.359168
0.0613684
0.0576372
1.29722
0.588191
0.347296
0.246688
0.357485
0.220842
0.303641
1.18185
0.356203
0.155721
0.350139
0.827291
0.729306
0.24977
0.450322
0.132112
0.574971
1.01292
0.291864
0.192392
1.01291
0.140456
0.275717
0.757151
0.735948
0.171855
1.46977
1.08641
2.09423
1.72212
0.276541
0.89981
0.165991
0.340828
0.521494
1.42718
0.0832823
1.00822
0.0662521
0.431617
0.986278
0.846425
1.16683
0.300585
2.1526
0.487346
0.930498
0.343558
0.245657
0.438264
0.879828
0.433614
0.190832
0.634691
0.0553663
0.555892
0.789006
0.304751
0.179818
0.980445
0.453265
0.0599575
0.809637
0.348059
0.268787
0.0836382
0.326766
0.486488
1.54082
0.531761
0.0478679
0.405063
0.257094
1.7882
1.91403
0.896782
0.0290719
1.89448
0.0741133
0.302974
0.0736584
0.065484
0.107955
0.990491
0.055378
1.76299
0.36948
0.950572
0.0618951
0.0798124
1.275
0.39095
0.232147
0.583619
0.305424
0.282159
0.267717
3.24745
1.78559
1.20147
0.671603
0.595662
0.154342
0.516379
0.81979
0.320737
0.0704955
2.53622
0.841226
0.153204
1.81609
1.61327
0.844145
0.319253
1.90277
0.117
2.40064
1.26369
0.606344
0.0811965
0.0183615
0.0583168
0.447849
0.420806
1.72632
0.150242
1.29348
0.15898
0.53651
0.323333
0.217969
0.866299
0.926298
0.228235
0.916256
0.482072
0.0603252
0.536174
0.57798
0.0964089
0.434112
0.136335
0.297743
0.480254
0.265979
0.557609
0.567009
1.91817
0.544989
0.360874
0.783164
0.179998
0.0494596
0.056487
0.360508
0.262733
1.5667
0.450143
0.170407
0.467682
0.255582
0.529062
0.128142
0.616805
0.36438
0.364497
0.0535219
0.595318
0.482245
0.244128
0.216854
1.80856
1.14584
3.88449
1.215
0.253992
0.153377
0.303517
2.55652
0.484097
0.253674
0.179791
1.32188
0.235537
0.482519
0.201673
0.327085
0.392308
0.192272
0.204867
0.249989
0.817972
0.06253
0.109041
0.407809
0.088451
0.0696961
0.281586
0.469212
2.58385
1.42962
0.0969365
0.142397
1.86123
0.302281
0.296093
0.314736
0.0920131
0.2685
0.049485
0.0691368
0.0496368
0.0493551
0.655586
0.0466119
1.38431
0.226841
0.42106
)
;

boundaryField
{
    frontAndBack
    {
        type            empty;
    }
    wallOuter
    {
        type            kqRWallFunction;
        value           nonuniform List<scalar> 
108
(
0.362286
0.336277
0.115261
0.0249279
0.0271483
0.2908
0.561182
0.193053
0.189851
0.390108
0.195399
0.593745
0.495654
0.190619
0.197467
0.0327678
0.169186
0.638183
0.070654
0.224978
0.0472687
0.183956
0.196934
0.644528
0.134782
0.142064
0.127257
0.143079
0.143948
0.155379
0.136746
0.309002
0.330195
0.322526
0.323579
0.294339
0.280222
0.338378
0.333586
0.307334
0.337093
0.337388
0.278092
0.234514
0.162121
0.186105
0.26734
0.257602
0.247071
0.120426
0.0410977
0.62725
0.234919
0.188774
0.368144
0.209151
0.64925
0.221857
0.133436
0.049837
0.353784
0.371646
0.111886
0.67798
0.6541
0.0637653
0.705054
0.61504
0.665542
0.130034
0.0156121
0.0156121
0.0729421
0.123888
0.107035
0.139319
0.199967
0.0765905
0.0892253
0.0666631
0.0839067
0.735965
0.767685
0.161149
0.172794
0.16898
0.152567
0.854198
0.373367
0.115357
0.196084
0.102884
0.11143
0.338773
0.801156
0.864404
0.350632
0.113581
0.841574
0.171855
0.343558
0.879828
0.0478679
0.0741133
0.055378
0.0183615
0.0583168
0.15898
)
;
    }
    inlet
    {
        type            fixedValue;
        value           nonuniform 0();
    }
    outlet
    {
        type            zeroGradient;
    }
    wallInner
    {
        type            kqRWallFunction;
        value           nonuniform List<scalar> 
126
(
0.0508489
0.263049
0.0528731
0.0895543
0.208072
0.138841
0.112988
0.0550895
0.222089
1.13708
0.0321525
0.0399044
0.0448663
0.0550524
1.15553
0.0441161
0.0392238
0.0444276
0.292272
0.31822
0.696961
0.119817
0.0409312
0.301066
0.0446993
0.819024
0.923644
0.293335
0.0473143
0.0515369
0.0580827
0.0331871
0.0436681
0.125645
0.0534926
0.0391336
0.0335849
0.404228
0.383182
0.178248
0.0652015
0.172679
0.0742983
0.0576194
0.248024
0.0906902
0.0781946
0.0712695
0.046493
0.727018
0.151558
0.0488251
0.278705
0.585908
0.386859
0.0421571
0.322762
0.824637
0.311628
0.214362
0.539329
0.222654
0.192541
0.405375
0.156059
0.352897
0.649947
0.384364
0.590009
2.29412
2.25087
2.19108
0.750586
2.30333
0.709716
2.92613
0.632003
0.5758
0.552513
0.928535
0.636292
0.753146
1.41481
2.51893
1.99276
0.133509
0.164224
0.145825
0.443834
0.122645
0.350402
0.267717
0.154342
1.32188
0.482519
0.201673
0.327085
0.392308
0.192272
0.249989
0.817972
0.06253
0.109041
0.407809
0.088451
0.0696961
0.281586
0.469212
2.58385
1.42962
0.0969365
0.142397
1.86123
0.302281
0.296093
0.314736
0.0920131
0.2685
0.049485
0.0691368
0.0496368
0.0493551
0.655586
0.0466119
1.38431
0.226841
)
;
    }
    procBoundary1to0
    {
        type            processor;
        value           nonuniform List<scalar> 
29
(
0.123896
0.123896
0.106762
0.191899
0.521836
0.229924
1.99936
0.188587
1.31617
0.207386
0.206355
0.229924
0.106762
0.10707
1.29649
0.555508
0.521836
0.951763
0.191899
0.127132
0.329266
0.22736
1.09854
0.301086
0.301086
1.09854
0.247689
0.927283
0.247689
)
;
    }
    procBoundary1to2
    {
        type            processor;
        value           uniform 0.101144;
    }
    procBoundary1to3
    {
        type            processor;
        value           nonuniform List<scalar> 
48
(
0.202131
0.195891
0.215351
0.215351
0.206405
0.174889
0.174889
0.348091
0.263055
0.0918326
0.0833201
0.0918326
0.0825995
0.0667214
0.0774973
0.0825995
0.0547283
0.0547283
0.0519437
0.0519437
0.116509
0.191004
0.0606263
0.0881385
0.0881385
0.0935126
0.310782
0.310782
0.363151
0.278777
0.183882
0.363151
0.348091
0.281021
0.0647761
0.278777
0.263074
0.0833201
0.230102
0.147694
0.0684154
0.260607
0.281021
0.0647761
0.0892555
0.108994
0.157413
0.0684154
)
;
    }
}


// ************************************************************************* //
