/*--------------------------------*- C++ -*----------------------------------*\
| =========                 |                                                 |
| \\      /  F ield         | OpenFOAM: The Open Source CFD Toolbox           |
|  \\    /   O peration     | Version:  v1912                                 |
|   \\  /    A nd           | Website:  www.openfoam.com                      |
|    \\/     M anipulation  |                                                 |
\*---------------------------------------------------------------------------*/
FoamFile
{
    version     2.0;
    format      ascii;
    class       volScalarField;
    location    "0.17";
    object      nut;
}
// * * * * * * * * * * * * * * * * * * * * * * * * * * * * * * * * * * * * * //

dimensions      [0 2 -1 0 0 0 0];


internalField   nonuniform List<scalar> 
1466
(
0.00134844
0.00198009
0.000533231
0.000835097
0.000678261
0.000744189
0.00111208
0.000503478
0.000749163
0.000481681
0.00164185
0.000864078
0.000734619
0.000862767
0.000833129
0.00192063
0.000565126
0.000623495
0.00179759
0.000979033
0.00156747
0.00139972
0.00164399
0.000895276
0.00077857
0.000511148
0.0014091
0.00150565
0.000486137
0.00599424
0.00104403
0.00158905
0.000569146
0.00120311
0.00299551
0.000677938
0.0010827
0.000482361
0.00133015
0.00044235
0.000592903
0.000903326
0.00073569
0.00057759
0.00041067
0.000902907
0.0018927
0.000283548
0.000321039
0.000358582
0.000396071
0.00196469
0.000426306
0.00038477
0.000330789
0.00102636
0.00101717
0.00180268
0.000705233
0.000396736
0.000828647
0.00110874
0.000827144
0.00178663
0.00306607
0.00064316
0.00224979
0.000975143
0.00304857
0.00045325
0.00115484
0.000576166
0.00034519
0.000965543
0.000856774
0.00272127
0.00114687
0.000726605
0.000942001
0.00519583
0.000539757
0.00151208
0.000829043
0.00125936
0.00124129
0.00193881
0.00127576
0.00372109
0.00070595
0.00105332
0.000611787
0.00139225
0.000900206
0.0023421
0.00062046
0.00041746
0.00202646
0.00172442
0.000832885
0.000383139
0.000441347
0.000386105
0.000279481
0.000323575
0.000714184
0.000421251
0.00033419
0.000301571
0.00130183
0.0013004
0.0007061
0.00315306
0.00141746
0.000798072
0.000382139
0.00078103
0.001301
0.00113493
0.00100041
0.00087626
0.00102295
0.00196938
0.000857262
0.000701051
0.000481395
0.000651306
0.00413617
0.00161645
0.000857774
0.00374815
0.000475924
0.000958204
0.00151285
0.000852709
0.000929212
0.000542663
0.000475312
0.000546338
0.000783965
0.000621599
0.000420482
0.00162734
0.000948419
0.00156261
0.00126242
0.00195763
0.00173688
0.00319222
0.00465841
0.00183053
0.00071572
0.00219934
0.00375062
0.000748713
0.00462902
0.00148681
0.00124677
0.00144019
0.00221147
0.00212732
0.001846
0.00535909
0.00108834
0.00117034
0.00172449
0.000868372
0.000897811
0.00179489
0.00132701
0.00320286
0.00148551
0.0019074
0.000627609
0.00337743
0.000599701
0.000911315
0.00554951
0.00618489
0.000625044
0.00102537
0.000941747
0.0014574
0.00146553
0.000724163
0.00352376
0.00187197
0.00127155
0.00109416
0.00285712
0.00107269
0.00159886
0.000937579
0.000783731
0.00180484
0.00193665
0.000675096
0.000286115
0.00300672
0.00143524
0.00208478
0.000818558
0.00412477
0.00562305
0.00290716
0.00111182
0.00141145
0.00163398
0.00447724
0.0025328
0.000947882
0.00175481
0.0011724
0.00212495
0.00145304
0.00159997
0.00105265
0.00178401
0.00131332
0.00132382
0.000874905
0.00173902
0.000841754
0.00111957
0.000759054
0.00123444
0.00166472
0.000800319
0.000683577
0.000598671
0.00091246
0.000869359
0.00344
0.00194106
0.00275956
0.00059499
0.00141856
0.000928489
0.0016652
0.00347452
0.0015322
0.00146011
0.00497315
0.00531028
0.00234893
0.00283483
0.00495998
0.00136145
0.000980532
0.00548931
0.00495322
0.00171165
0.00316513
0.0041313
0.00104694
0.00190852
0.00256335
0.00113781
0.00166933
0.000658195
0.00125332
0.000776762
0.00144812
0.000837793
0.000999223
0.00281754
0.000288861
0.000770243
0.00460294
0.00147789
0.00216319
0.0012063
0.000697973
0.000595645
0.00270052
0.00074918
0.000864325
0.000700338
0.00281593
0.00138721
0.00524134
0.00163558
0.00175648
0.00284267
0.00424841
0.00172285
0.000805796
0.00563417
0.00554085
0.000679059
0.00344188
0.00298431
0.00142909
0.000832495
0.000642368
0.0027845
0.000570581
0.000765563
0.000873924
0.00562326
0.00108865
0.00084873
0.000829192
0.000181477
0.0010154
0.00118496
0.00160428
0.00265281
0.000806179
0.00382688
0.00280283
0.00427402
0.00205384
0.000886293
0.00496827
0.00581521
0.00557186
0.00243869
0.00484073
0.000952573
0.000739814
0.000487715
0.000735397
0.0010962
0.0012024
0.00148527
0.00283173
0.000828008
0.00467191
0.00153994
0.000919381
0.00135047
0.00313006
0.000788548
0.00285934
0.00301243
0.000935997
0.003349
0.00351261
0.00259111
0.00237538
0.00101794
0.00472445
0.000592236
0.00534713
0.00316934
0.000168117
0.00397438
0.00435372
0.00279974
0.0032532
0.00199624
0.00117234
0.00315082
0.00288598
0.00220344
0.00267851
0.00080361
0.000626936
0.0015318
0.00410086
0.00261192
0.00267656
0.00281449
0.00271262
0.000838291
0.0023536
0.00422598
0.00404095
0.000937372
0.00292049
0.00360241
0.00259063
0.00192022
0.00312776
0.00079281
0.00143558
0.00111343
0.00189037
0.00221718
0.00281307
0.00243959
0.00236135
0.0023905
0.002261
0.00209311
0.00224577
0.000711345
0.000784366
0.000799173
0.000863197
0.00199696
0.00157459
0.00263504
0.0017158
0.00297899
0.00326519
0.000947658
0.00191593
0.00312387
0.00106475
0.00108384
0.000837015
0.00315667
0.000946837
0.0029624
0.00175515
0.00312193
0.000911171
0.00154342
0.00203974
0.00064997
0.00349115
0.00322217
0.00195202
0.0023705
0.000964387
0.000991745
0.00170436
0.000624272
0.00156106
0.00203926
0.00186684
0.00148858
0.00301712
0.00148927
0.000879343
0.00168813
0.00198665
0.00131959
0.000964286
0.000728798
0.00326171
0.00120129
0.00206049
0.00200093
0.000936952
0.00110003
0.0010886
0.000839026
0.000810545
0.00126661
0.00104348
0.000766059
0.0011043
0.00168965
0.00183118
0.00144065
0.00162319
0.00199384
0.000843708
0.00129374
0.0020944
0.00142192
0.000942258
0.00192306
0.00115119
0.000793327
0.000890574
0.00124958
0.00134644
0.000832228
0.00227475
0.000868491
0.000870718
0.00108043
0.00221881
0.00214859
0.00261232
0.00287305
0.00228672
0.00289144
0.000835212
0.000926427
0.000755863
0.00114062
0.00242709
0.00114817
0.00287585
0.00263193
0.00266062
0.00305276
0.000972491
0.00112806
0.0027597
0.00256115
0.00380024
0.00255667
0.00124534
0.00259993
0.00291123
0.00252209
0.00145792
0.000697613
0.00200029
0.00282751
0.00156458
0.00136272
0.00195097
0.00546985
0.00251528
0.00207396
0.00210538
0.000888879
0.00111062
0.00089816
0.00267378
0.00458762
0.00107887
0.00233828
0.00142761
0.00336331
0.00262325
0.00288987
0.00165616
0.00126342
0.00257071
0.00236602
0.000940221
0.00168713
0.000590607
0.00193017
0.00266555
0.00316849
0.00395255
0.0027339
0.00237545
0.00260234
0.00263313
0.0022329
0.00292111
0.00161417
0.00200315
0.00245651
0.00170145
0.00167896
0.00253537
0.00265274
0.00498472
0.00214151
0.00114757
0.00338583
0.000934909
0.000830071
0.0027795
0.00206035
0.00283206
0.00187951
0.00249602
0.00299041
0.000924595
0.00138527
0.00252866
0.00144169
0.00181417
0.00187375
0.00122851
0.00133988
0.00254034
0.00183229
0.00254953
0.00303438
0.00227315
0.00138602
0.00452341
0.00152567
0.00286194
0.00184902
0.00312469
0.00528066
0.0015348
0.00144213
0.00294561
0.00367634
0.00594708
0.0028161
0.00315461
0.00122736
0.00155852
0.00154744
0.000930621
0.00269649
0.00141976
0.00151122
0.00286901
0.00245216
0.00274438
0.00136831
0.00165813
0.00143976
0.00271464
0.00121486
0.00285759
0.00178319
0.00164888
0.00178569
0.00100237
0.00160866
0.0026587
0.0027516
0.00275015
0.00514345
0.00227003
0.00169426
0.00312066
0.00219957
0.00193413
0.00286087
0.000840937
0.000869897
0.00232086
0.00288038
0.000866326
0.0030063
0.00244544
0.0010398
0.0047501
0.00603608
0.00363146
0.0033346
0.00213258
0.00322302
0.000850432
0.00322843
0.00207653
0.00221572
0.00178602
0.00045314
0.00192349
0.00206075
0.0012995
0.00261075
0.0038037
0.0036772
0.00178782
0.00167723
0.00221978
0.00342621
0.00256808
0.00545813
0.0013171
0.00274912
0.00398122
0.00276071
0.000757247
0.00206033
0.00213355
0.00185722
0.00262512
0.00256194
0.0034013
0.00179894
0.00120857
0.00479032
0.000879958
0.00244887
0.0023491
0.00252865
0.000508224
0.00188763
0.00105401
0.00308678
0.00354939
0.00142112
0.00249355
0.00248849
0.00312436
0.000778103
0.00474008
0.00169842
0.0024269
0.000698577
0.00327544
0.00140002
0.00079199
0.000639613
0.000867487
0.000767172
0.000534429
0.0011683
0.00323869
0.00148639
0.000834132
0.000516473
0.0015723
0.000598997
0.0032535
0.000803374
0.000447576
0.00266339
0.000422323
0.00242
0.00313846
0.00288524
0.00300096
0.000727531
0.00046039
0.00295695
0.0014577
0.000793907
0.00295082
0.00184668
0.000809712
0.000431218
0.00141676
0.00248732
0.00249433
0.00426417
0.00299431
0.000468753
0.00253236
0.00289698
0.00190632
0.00163281
0.00327846
0.00259799
0.00136268
0.00178123
0.00258406
0.00198308
0.00496225
0.0024475
0.0017637
0.00184914
0.00108111
0.000467114
0.00159455
0.00141418
0.00246814
0.00257175
0.000184583
0.00154579
0.000730767
0.00171631
0.000955629
0.00182778
0.00156701
0.000446917
0.0025908
0.000952019
0.00316998
0.00119912
0.000512903
0.00191233
0.000669615
0.000810614
0.001355
0.000809037
0.000242653
0.00289715
0.00453573
0.00142806
0.00104652
0.000527419
0.00135082
0.000845259
0.00228809
0.00197678
0.0010926
0.00203269
0.00164275
0.00121022
0.00220796
0.000842338
0.00549875
0.0028598
0.00569661
0.00136645
0.00368082
0.00143728
0.00155197
0.00381875
0.00297566
0.000731692
0.00176058
0.00162418
0.00140857
0.00536692
0.00048982
0.00239189
0.00278195
0.00174476
0.0033137
0.00158551
0.00126124
0.00226978
0.000907708
0.000665146
0.00114266
0.00255563
0.00328941
0.00242397
0.00245038
0.00133934
0.00314302
0.00280918
0.00248948
0.00283736
0.00215424
0.000827805
0.00161103
0.00288193
0.00246616
0.00143117
0.000815023
0.0017243
0.000748093
0.000183545
0.00160058
0.00155607
0.000972214
0.00047576
0.00301808
0.00157409
0.000843147
0.000972352
0.000747581
0.00292063
0.00144226
0.000800669
0.0028023
0.00218675
0.00256971
0.00164975
0.00582177
0.000814852
0.00162884
0.00142948
0.00203302
0.00246749
0.00145879
0.00537699
0.00307457
0.00301568
0.00180751
0.000929845
0.00085107
0.000707957
0.000436406
0.00309647
0.00317721
0.00297558
0.00294512
0.00300049
0.00131949
0.00156556
0.00241243
0.000813682
0.00134757
0.00245821
0.00160524
0.00123858
0.00367095
0.000694914
0.00133546
0.00266654
0.00400595
0.00388373
0.000877902
0.00073349
0.00279142
0.00266395
0.00130442
0.0010764
0.00251391
0.000599085
0.000754709
0.000621374
0.000432932
0.00394873
0.00132374
0.00261696
0.000472767
0.0016308
0.00245022
0.00255185
0.00253971
0.00281772
0.000412882
0.000401185
0.00040037
0.000338202
0.000358325
0.000392569
0.000317279
0.000629973
0.000612651
0.000596924
0.000640462
0.000591033
0.000554214
0.000618387
0.000608165
0.000561443
0.000534305
0.000570664
0.000505352
0.000433963
0.000437341
0.000382435
0.000524302
0.000517228
0.000523486
0.000378499
0.00330554
0.00073157
0.000227214
0.0017538
0.00284387
0.00076462
0.00259258
0.000794273
0.000830541
0.00319127
0.00126303
0.00167603
0.000925759
0.000797159
0.00224425
0.000891703
0.00260744
0.0015945
0.00238375
0.000519628
0.00183637
0.00316997
0.00271917
0.00105864
0.000524263
0.00157659
0.000762398
0.000997153
0.000446206
0.00104513
0.00150541
0.0005921
0.00161057
0.00145501
0.000906056
0.00085253
0.0014308
0.000691895
0.00272508
0.000682838
0.0015067
0.00118183
0.000908987
0.00464513
0.000677958
0.00269097
0.00263741
0.0012275
0.000934648
0.00587034
0.00218725
0.000571103
0.0019858
0.00062813
0.000582468
0.002052
0.00368388
0.00259725
0.000780965
0.000463397
0.000811624
0.000973684
0.00255532
0.000733077
0.000643457
0.00245904
0.00175738
0.000891705
0.00132016
0.00117144
0.00130206
0.00124781
0.00189271
0.000807185
0.00153605
0.00057814
0.0011024
0.00157046
0.00105857
0.00252796
0.00164866
0.00147149
0.000494937
0.00264875
0.00164645
0.00214737
0.000957397
0.000692681
0.000852414
0.000854436
0.0041952
0.00202009
0.0023377
0.00606421
0.00231233
0.000609943
0.000891279
0.00244927
0.00233301
0.00217444
0.00172943
0.000421938
0.00125727
0.00095801
0.000782712
0.000849761
0.00074779
0.000734863
0.000834052
0.000979674
0.000195517
0.00038552
0.00110734
0.00110645
0.0027091
0.00233559
0.0032495
0.000566833
0.000636079
0.00168346
0.00333044
0.00134648
0.000712517
0.000385747
0.00171181
0.000924875
0.000742402
0.00162608
0.00163109
0.000862813
0.00185082
0.00261653
0.00128399
0.00479946
0.000734265
0.00213362
0.000896823
0.000877247
0.000866729
0.00148023
0.000751295
0.000787025
0.000801539
0.000903546
0.000290013
0.000710859
0.00272459
0.00227106
0.00102446
0.00114542
0.00129015
0.000969734
0.00264569
0.00414434
0.00174087
0.00227414
0.000784191
0.00201772
0.0010368
0.000798054
0.000790425
0.000528459
0.00126441
0.000378885
0.00213281
0.00102455
0.000106792
0.00255577
0.00247409
0.000307091
0.00262523
0.000411977
0.00120725
0.00120992
0.0003714
0.000437143
0.00260921
0.000946049
0.00072594
0.000471247
0.000271274
0.000308671
0.000260509
0.000282753
0.00102922
0.00104567
0.00044464
0.000505831
0.000500909
0.000464687
0.000932483
0.0023405
0.00125154
0.00438728
0.00204041
0.00168416
0.00298684
0.00148761
0.00067514
0.000373367
0.00254965
0.00151364
0.000867281
0.0008758
0.00166053
0.00568611
0.00261298
0.00252575
0.000465684
0.00175549
0.0024593
0.00422953
0.000274955
0.003034
0.00295372
0.00171522
0.00136221
0.0017481
0.000982358
0.00399707
0.000316178
0.000543329
0.00118321
0.000684234
0.00174155
0.00403805
0.000696854
0.0034304
0.00376023
0.000709719
0.00153036
0.00143521
0.00271299
0.00354713
0.00102054
0.00143305
0.0019257
0.00181538
0.000789621
0.00075666
0.000826449
0.0013378
0.00312072
0.000675824
0.00181151
0.00359094
0.0037666
0.00176494
0.00107003
0.00107174
0.00148607
0.0019617
0.000698602
0.000777253
0.0010408
0.00511198
0.00157371
0.00140637
0.00240033
0.000576016
0.000330396
0.00149404
0.00248214
0.00491672
0.00140423
0.00320587
0.000813487
0.00153565
0.00280505
0.00144969
0.00174392
0.00110796
0.00155073
0.00449056
0.00218572
0.00115713
0.0013943
0.00250836
0.00182552
0.000845116
0.00109599
0.0012146
0.00128573
0.00150529
0.00329209
0.00166138
0.00177655
0.00121679
0.0014632
0.00141237
0.00087534
0.00164921
0.000567902
0.00307735
0.00160519
0.0018496
0.000569017
0.00606037
0.00186755
0.000798262
0.00498978
0.00503072
0.00237468
0.00247948
0.000982854
0.00254554
0.00294048
0.00304169
0.000524208
0.00525554
0.00191202
0.000857961
0.00102575
0.000872075
0.000915308
0.00127514
0.00151621
0.00261235
0.000705605
0.00340298
0.00122854
0.00249957
0.00107266
0.000854544
0.000814574
0.000673305
0.00125195
0.0023987
0.00554213
0.00152489
0.000689911
0.00307541
0.000913141
0.0012987
0.000524249
0.000840671
0.000861149
0.00138515
0.00120151
0.00290818
0.00204393
0.00178594
0.00158955
0.000598748
0.000634679
0.00221162
0.00162743
0.00108359
0.00110702
0.00154138
0.000990617
0.00105979
0.00246192
0.00124021
0.000750907
0.00150843
0.00307288
0.00243184
0.00104642
0.00143137
0.00101896
0.00162825
0.00297042
0.000843795
0.000868332
0.00139775
0.000773678
0.000826335
0.00199735
0.00145302
0.000424033
0.00262265
0.00281592
0.00472124
0.00278728
0.00131291
0.00210158
0.000883199
0.00112961
0.00160354
0.00421732
0.000566189
0.0020151
0.000709909
0.00161584
0.00311649
0.00222057
0.00220147
0.000931138
0.00244113
0.00101753
0.00256937
0.00052735
0.00066188
0.00116495
0.000997141
0.00155037
0.00097238
0.00187036
0.000693779
0.00178303
0.00199017
0.00100319
0.000900403
0.00218375
0.00163905
0.000718625
0.00275316
0.00124661
0.00132407
0.000683989
0.00158168
0.00190024
0.00270739
0.00156042
0.000187896
0.00130387
0.00135205
0.00364324
0.00297595
0.00212029
0.000256244
0.00359961
0.000214005
0.000978802
0.000917874
0.00083722
0.000703002
0.00255097
0.000210388
0.00288182
0.00151962
0.0028835
0.00082694
0.000939641
0.00322152
0.00125447
0.00124633
0.00136588
0.00148172
0.001121
0.000785607
0.00425802
0.00420252
0.00335133
0.00217499
0.00208513
0.000441545
0.00217636
0.00258549
0.001011
0.000815384
0.0059949
0.00153333
0.000830291
0.0039605
0.00406348
0.00168577
0.00116394
0.00325253
0.000750623
0.00562268
0.00321242
0.00190035
0.000573682
9.08976e-05
0.000194278
0.00180898
0.00141872
0.00335646
0.000971873
0.00306354
0.000397644
0.00154322
0.00127161
0.00126576
0.00201491
0.00205609
0.00123042
0.00216331
0.00146337
0.000849231
0.00152223
0.00161547
0.00095818
0.00174647
0.000568185
0.00104396
0.0018148
0.00102108
0.00155626
0.00157178
0.00345091
0.00143913
0.000930324
0.00278148
0.001029
0.000756092
0.000814194
0.00173658
0.0011523
0.00450587
0.00152455
0.000848108
0.00183004
0.00104862
0.00167584
0.000856233
0.00145632
0.0012353
0.00167101
0.00052968
0.00161798
0.00139968
0.00112949
0.00103356
0.00382389
0.00246748
0.00482594
0.00367983
0.00102648
0.000944865
0.000746159
0.00591217
0.00126461
0.00092988
0.0010128
0.00175755
0.000817966
0.00087015
0.000523109
0.000929954
0.000853761
0.000707738
0.000795192
0.000798934
0.00149771
0.000350024
0.000469242
0.000941405
0.000404678
0.000391282
0.000735299
0.0011835
0.00282168
0.00182585
0.00042763
0.000511108
0.00224078
0.000736707
0.000861518
0.00100603
0.000539055
0.000803955
0.000395835
0.000460172
0.000294561
0.000298526
0.00157228
0.00029783
0.00161398
0.000820007
0.00135529
)
;

boundaryField
{
    frontAndBack
    {
        type            empty;
    }
    wallOuter
    {
        type            nutkWallFunction;
        Cmu             0.09;
        kappa           0.41;
        E               9.8;
        value           nonuniform List<scalar> 
108
(
7.20447e-05
6.85275e-05
3.97317e-05
2.00523e-05
1.83872e-05
6.84059e-05
9.45774e-05
5.42247e-05
5.12226e-05
8.24472e-05
5.58412e-05
9.50191e-05
9.26559e-05
5.22964e-05
5.7235e-05
2.06786e-05
5.01163e-05
9.84955e-05
2.74643e-05
5.77683e-05
2.01022e-05
5.3119e-05
5.26003e-05
9.91483e-05
4.66707e-05
4.4926e-05
4.56209e-05
3.79257e-05
3.97732e-05
4.41223e-05
3.52546e-05
7.00916e-05
7.2986e-05
7.12531e-05
7.14472e-05
6.56864e-05
6.15563e-05
6.93195e-05
7.23751e-05
6.71373e-05
6.03863e-05
6.41762e-05
6.04643e-05
5.1793e-05
5.21657e-05
4.54069e-05
5.8204e-05
5.78451e-05
5.87489e-05
4.34533e-05
2.61855e-05
9.68008e-05
5.85622e-05
5.39819e-05
7.86057e-05
5.14514e-05
9.887e-05
5.51109e-05
5.02664e-05
2.17489e-05
6.51561e-05
8.28398e-05
4.54352e-05
0.000104501
9.58163e-05
3.33798e-05
0.000116106
9.63872e-05
9.59855e-05
4.49853e-05
9.6718e-06
9.6718e-06
3.50558e-05
4.66945e-05
4.22488e-05
4.95348e-05
5.23976e-05
3.02071e-05
3.50472e-05
2.90788e-05
3.14732e-05
0.00012269
0.000124383
5.21524e-05
5.80881e-05
5.72522e-05
5.2814e-05
0.000111295
7.88872e-05
4.36981e-05
5.64938e-05
3.16732e-05
3.63818e-05
6.45409e-05
0.000127182
0.000127304
6.81031e-05
3.82332e-05
0.000109315
5.0919e-05
6.018e-05
0.000118842
2.06006e-05
2.33527e-05
2.33958e-05
6.59239e-06
2.10481e-05
4.73155e-05
)
;
    }
    inlet
    {
        type            calculated;
        value           nonuniform 0();
    }
    outlet
    {
        type            calculated;
        value           nonuniform 0();
    }
    wallInner
    {
        type            nutkWallFunction;
        Cmu             0.09;
        kappa           0.41;
        E               9.8;
        value           nonuniform List<scalar> 
126
(
5.43603e-05
0.000110434
5.38351e-05
7.00204e-05
9.93635e-05
7.58143e-05
6.90663e-05
4.81057e-05
0.000101382
0.000203124
3.40851e-05
3.84305e-05
4.25989e-05
4.7086e-05
0.000210167
5.09482e-05
4.71895e-05
3.92831e-05
0.00012278
0.000110298
0.000182098
7.25962e-05
4.61808e-05
0.000102079
5.06788e-05
0.000209599
0.000181705
0.00010045
4.65419e-05
5.27512e-05
4.59706e-05
3.35023e-05
3.88841e-05
7.82911e-05
5.27838e-05
3.99106e-05
3.64489e-05
0.000124639
0.00013633
8.33635e-05
4.81577e-05
8.65832e-05
5.71583e-05
4.59348e-05
0.000110537
6.40506e-05
5.95674e-05
5.77128e-05
5.00788e-05
0.00012319
6.40888e-05
3.46636e-05
7.53661e-05
0.000137214
8.87254e-05
3.29767e-05
8.05444e-05
0.000137007
7.95048e-05
6.70104e-05
0.000146024
6.90215e-05
6.75398e-05
8.67214e-05
5.79743e-05
8.3429e-05
0.000122686
7.74682e-05
0.000111681
0.000214995
0.000211548
0.000213859
0.000123851
0.00022193
0.000143226
0.000229959
0.000110176
0.000134095
0.000104084
0.00014106
0.000114316
0.000124056
0.000169863
0.000219335
0.000199583
5.52878e-05
6.05405e-05
5.64507e-05
0.000105008
5.36487e-05
8.56468e-05
7.69832e-05
5.89082e-05
0.000165883
9.14999e-05
7.132e-05
0.000113508
0.00010057
7.65477e-05
8.36255e-05
0.000149126
4.32323e-05
5.42331e-05
0.000104576
5.1201e-05
4.49301e-05
8.25684e-05
0.000139772
0.00029349
0.000200117
5.10745e-05
5.69053e-05
0.000244527
8.91386e-05
0.000104714
0.000122021
6.43582e-05
8.95523e-05
4.70118e-05
5.89729e-05
3.49852e-05
3.54387e-05
0.000138257
3.60695e-05
0.000177808
8.55256e-05
)
;
    }
    procBoundary1to0
    {
        type            processor;
        value           nonuniform List<scalar> 
29
(
0.00101363
0.00101363
0.000751468
0.0012164
0.00154962
0.00104148
0.00286482
0.000698101
0.00236254
0.00113566
0.00100511
0.00104148
0.000751468
0.000753974
0.00221593
0.0011941
0.00154962
0.00220255
0.0012164
0.000941339
0.000865228
0.000738768
0.00234288
0.000713331
0.000713331
0.00234288
0.000715719
0.000923959
0.000715719
)
;
    }
    procBoundary1to2
    {
        type            processor;
        value           uniform 0.000705191;
    }
    procBoundary1to3
    {
        type            processor;
        value           nonuniform List<scalar> 
48
(
0.000981693
0.00104481
0.00105904
0.00105904
0.00102207
0.00101684
0.00101684
0.00162483
0.00113743
0.000886377
0.000897828
0.000886377
0.000878857
0.000771868
0.000779296
0.000878857
0.000815806
0.000815806
0.000827822
0.000827822
0.000822162
0.00107318
0.000833675
0.000892269
0.000892269
0.000875975
0.00124959
0.00124959
0.00152854
0.00117965
0.00105014
0.00152854
0.00162483
0.00121322
0.000864426
0.00117965
0.00137817
0.000897828
0.00104709
0.00080431
0.000764457
0.00123165
0.00121322
0.000864426
0.000743245
0.000360991
0.000874589
0.000764457
)
;
    }
}


// ************************************************************************* //
