/*--------------------------------*- C++ -*----------------------------------*\
| =========                 |                                                 |
| \\      /  F ield         | OpenFOAM: The Open Source CFD Toolbox           |
|  \\    /   O peration     | Version:  v1912                                 |
|   \\  /    A nd           | Website:  www.openfoam.com                      |
|    \\/     M anipulation  |                                                 |
\*---------------------------------------------------------------------------*/
FoamFile
{
    version     2.0;
    format      ascii;
    class       volScalarField;
    location    "0.41";
    object      k;
}
// * * * * * * * * * * * * * * * * * * * * * * * * * * * * * * * * * * * * * //

dimensions      [0 2 -2 0 0 0 0];


internalField   nonuniform List<scalar> 
1431
(
3.08006
1.98501
0.462409
0.451912
0.158457
1.56968
0.180481
2.06417
1.82286
0.178049
1.67069
1.91062
1.56838
0.203017
0.232415
0.2659
0.187343
0.4428
0.179233
0.615469
2.61405
0.321683
1.9045
2.39901
1.90147
1.1588
1.2593
0.219688
0.934673
0.532316
0.819018
1.14386
0.753304
0.122081
1.46145
1.33133
2.87267
0.317028
0.389932
0.988152
2.49819
2.90912
1.36958
0.284458
1.35638
0.228742
0.527584
1.08709
0.198659
0.739494
1.58257
0.391235
1.67342
2.34281
2.2721
1.38616
0.108439
2.26659
0.190503
0.309719
0.135072
0.203957
0.534166
0.367778
0.237231
0.11404
0.192341
0.44134
0.182016
0.221771
1.15655
0.130641
0.360334
0.0920934
0.198817
0.160064
0.29621
0.563763
0.331213
0.36062
0.185366
0.295614
2.46822
0.531997
1.20711
0.659463
0.200349
0.634244
1.64807
2.14876
0.639611
0.159155
0.264172
0.462737
2.31566
0.542428
2.29829
2.26239
0.284469
0.561163
1.74398
0.238035
0.217969
0.337954
0.621948
1.07228
1.44313
1.55
1.62515
0.198161
0.243198
1.71541
0.725658
2.37309
2.28583
0.147269
0.168692
0.405279
0.447907
0.452386
0.270093
0.391664
1.29223
0.204435
0.714414
0.589008
0.371066
0.28784
0.697399
1.01899
0.171154
0.519633
1.31938
0.203904
0.835973
0.774276
0.744592
0.203902
1.41635
0.21523
0.319214
0.709719
0.187405
0.24003
1.97671
0.731023
0.555165
1.77987
0.522765
0.215646
0.598838
0.202963
1.057
0.516759
1.40203
0.471053
1.31014
1.56073
2.33497
0.581612
1.82756
1.65024
0.22698
0.309271
1.09697
2.68119
2.34818
2.43137
0.53663
2.30865
2.02664
1.88061
0.890856
1.43378
1.90423
1.29336
0.917114
1.55546
1.62386
1.44089
0.11498
0.414683
1.61901
3.55968
1.51288
1.35284
1.2467
1.83841
0.899594
1.3727
0.762206
0.97322
1.02441
1.8011
0.418981
1.44461
1.90543
1.20786
0.175148
1.53313
1.62778
0.250191
1.29147
0.317726
1.71567
0.813651
1.17768
0.17205
1.65176
1.49673
0.668668
0.20195
1.39116
1.09855
1.513
0.759261
1.11957
1.14206
1.62121
1.18368
1.35931
1.59558
0.466199
0.2686
1.48613
2.10957
1.55559
2.33326
1.28185
0.902147
1.35799
0.798902
1.03045
0.984512
1.19043
2.22138
1.32745
1.12782
0.739703
1.63177
1.30137
1.38017
1.83983
0.970319
0.939119
0.620301
1.06324
1.31028
1.43893
0.498496
0.273888
1.53245
0.475398
0.339447
0.787682
2.44808
0.423415
2.49149
2.04788
1.0748
0.998082
1.40232
1.6298
0.650447
1.62538
1.42709
1.80846
2.30446
1.03981
0.102646
1.64614
1.25227
2.03577
1.64432
1.71781
0.852306
1.65022
0.95345
0.853759
1.15439
1.86965
2.39713
0.727013
1.56322
2.06152
2.47841
2.52808
2.14135
1.22509
1.7451
0.147927
1.87955
2.00653
1.93814
0.782142
1.25003
1.47592
1.52948
0.817164
0.937037
1.76242
0.686472
2.03148
1.5448
1.1403
0.409271
1.64554
1.01665
2.87848
2.25586
1.32102
0.834567
0.163529
0.89895
1.75132
1.66338
1.26531
2.19842
0.167665
5.56061
1.48985
1.55602
0.373077
1.8943
1.38619
0.430887
0.452612
1.96876
2.48226
0.3303
1.17389
0.186989
1.89163
0.349716
0.974887
1.48525
2.12625
2.30892
1.41595
1.02849
0.606484
1.46001
1.15661
2.37773
1.7855
0.878409
1.8019
1.65332
1.20075
1.83609
1.17139
0.210089
1.91721
1.29029
0.208957
1.67915
1.21737
0.63657
1.39025
2.54023
0.331882
1.22629
1.04224
1.99534
0.178204
1.05277
1.87777
4.31935
1.26229
0.688788
1.52484
0.162096
1.8156
1.47149
2.32231
3.08614
1.40024
1.33617
0.53185
3.62387
1.74074
1.46177
1.66761
0.238797
5.62213
1.6735
1.4477
1.84399
1.24864
1.44982
1.67342
1.56597
1.6122
0.404715
1.99575
1.91721
1.89661
1.92172
1.9378
1.51856
1.19113
2.24771
1.78877
2.36633
1.10573
1.85854
1.6335
0.851793
1.78322
1.84566
1.29154
1.34628
1.83494
1.17251
1.80125
0.284204
1.21178
1.00735
1.46062
1.82304
1.66638
1.47456
1.58782
1.2311
1.81372
0.176853
0.457264
0.283276
0.75138
1.99366
1.75655
1.90298
2.06446
2.03934
2.10394
1.98139
1.84519
2.04501
1.84856
1.99146
0.19507
1.4567
0.187362
0.176345
0.221833
0.165008
0.188463
0.173284
0.358107
0.245214
0.247487
0.756071
0.196314
0.351253
0.182313
0.199665
0.296026
2.19253
0.464366
0.572862
0.264401
0.695661
2.06115
0.208246
0.512237
0.651985
0.29249
1.96686
0.707041
1.88654
0.241614
0.359552
0.292295
0.374531
1.42803
1.4335
0.58332
0.70893
0.193812
0.483521
0.38228
0.240979
1.45907
1.0451
0.336336
0.346714
0.306585
0.27087
0.811011
0.668889
1.49493
0.797386
0.830891
0.588659
0.301211
0.327999
0.828934
1.48444
0.85605
0.906064
0.660105
0.714598
1.04612
0.373265
1.45066
1.47853
0.209632
1.10364
0.918112
0.313414
0.518868
0.409984
0.26579
0.771571
0.434452
0.619508
0.59399
0.650608
0.595587
1.48487
0.814255
1.09993
1.07881
0.390409
0.870446
0.539652
1.38796
0.978491
0.207093
0.735663
1.63201
1.52902
1.28182
1.38499
2.03525
0.616647
1.56578
0.960128
0.976147
0.206567
1.87155
0.50831
2.53086
1.39808
1.62383
1.43166
1.56456
0.762513
1.88031
2.21733
1.34468
0.388476
2.17929
1.67952
0.633765
1.42284
0.555345
0.770551
0.820689
3.0734
2.23199
1.36098
1.44757
1.79706
4.45015
1.6685
1.68181
0.279709
0.878555
2.25835
1.88547
1.19692
1.78113
1.36058
0.935147
1.16534
0.539217
1.64443
1.5041
1.71724
1.88355
1.08457
1.16914
1.13548
1.14107
1.26952
0.901208
1.51261
1.10949
0.581797
1.11721
2.53369
1.60465
1.54364
1.55892
1.91136
0.364558
1.38114
1.93838
1.52139
0.799704
1.27711
1.71054
1.43502
1.03955
1.38707
1.12887
1.10893
1.01291
0.179022
0.542096
1.62636
1.66641
1.5013
1.86583
2.07576
1.28506
0.743009
0.584375
1.39166
2.26482
1.54333
0.829354
1.60366
1.71328
1.0651
1.98841
0.214443
1.06664
1.53805
1.64097
1.71479
0.231596
1.7256
1.89271
1.08893
1.87324
1.92563
1.95663
1.60137
1.98966
1.57686
1.55169
1.68798
2.23343
1.57435
1.08384
1.30612
1.03376
1.38345
0.756015
2.59399
1.38224
1.07144
0.200608
1.36595
1.8849
1.00896
0.520239
1.86904
1.93595
1.95021
1.3572
1.89728
0.909701
0.674039
0.745252
0.590445
1.71325
0.256217
1.80802
2.50087
1.03154
1.93792
0.657854
0.567866
1.0412
0.351127
1.4055
1.77834
1.79737
1.65779
1.32305
1.03669
0.599238
0.431126
1.1941
1.89244
0.199619
1.09056
1.63437
1.25452
2.40982
0.959193
0.595144
2.24949
1.44236
0.83172
0.416141
1.28965
1.33444
1.16312
1.87955
0.792078
2.00747
1.06541
1.17334
1.39616
1.49718
1.56442
1.93347
1.72719
0.915053
1.45925
0.563851
2.54117
1.01914
1.62038
1.59498
2.01045
2.6656
0.839355
1.50165
1.87175
0.838665
2.32228
1.39759
1.28082
1.50963
2.02096
0.736935
2.59721
0.738524
1.76012
1.9204
1.25783
2.32182
1.48364
1.04636
0.622607
0.623595
1.90586
1.82344
1.1552
1.44645
1.28321
0.309681
0.317484
1.8228
0.227641
1.11463
1.59075
2.12939
0.221704
2.93831
1.77545
2.11016
0.270104
1.71284
1.21108
2.96908
2.06349
1.4043
0.182597
0.378739
1.48352
0.269881
0.193252
1.73915
1.54025
1.08412
1.05306
1.66691
2.22024
2.11922
1.54639
0.220757
1.65029
1.88168
1.27464
1.22128
0.771326
1.90327
0.73331
1.19283
1.42048
1.37844
1.49734
0.936079
1.43492
1.08736
0.497199
1.19419
1.94266
1.0881
0.291919
0.712577
0.950175
0.617607
1.72445
1.02378
0.334199
0.602889
1.56093
1.50217
5.34446
1.0653
1.62266
1.67217
1.3925
4.23055
0.444043
1.57761
1.40678
2.43351
2.40418
1.04336
0.186609
2.47133
1.95432
0.175389
1.46445
1.94412
1.90606
1.26425
0.641654
2.30063
0.699283
0.207817
0.574207
2.16968
1.49463
1.06286
0.970589
1.41224
2.43926
0.318512
2.39635
1.87664
1.53954
1.83394
0.431366
0.572173
1.15034
1.74543
2.11968
0.765806
3.07408
1.57688
1.71345
1.33114
0.696422
1.33355
1.60029
0.297957
0.522867
1.4461
0.901288
0.580112
0.704806
1.65743
1.29472
1.2064
1.55338
1.54957
1.70472
1.42981
0.785926
1.60872
1.61602
1.85065
4.48026
1.95311
1.00273
0.250089
0.34722
0.203437
1.85076
1.617
2.00752
1.82104
0.738632
2.02389
1.09224
3.84002
2.26492
1.62498
0.65417
0.824693
0.844229
0.839301
0.839688
0.708962
0.797499
0.568093
0.604449
0.584177
0.584928
0.590639
0.761437
0.591715
0.540889
0.552876
0.582262
0.770794
0.744879
0.568125
0.721017
0.710544
0.555104
0.701557
1.27619
1.47149
0.751586
0.570728
1.35468
0.308843
0.289318
1.38326
1.21562
0.679547
0.227364
0.988589
1.49749
2.72164
0.317772
0.239087
1.56002
0.97033
1.51247
0.323915
0.243006
2.69407
0.10551
0.681258
1.41996
1.36364
0.745588
0.948351
1.3232
0.893722
0.273435
1.3496
2.13254
1.85402
1.7509
1.40404
0.567314
0.346707
0.247224
0.598656
1.92329
0.973389
0.534515
0.573445
1.56524
0.787866
0.25479
0.479087
0.98288
0.737602
1.34032
1.83888
1.59581
1.54569
0.305707
0.328638
1.22353
0.645598
0.174674
0.0973064
1.69392
0.963897
1.07523
0.185307
0.253035
0.374188
0.982108
0.200414
6.00558
1.76954
1.11889
0.469759
2.24276
1.82105
2.3887
0.202012
1.00891
0.756791
0.145664
0.736481
1.82207
1.01136
3.06555
1.7059
0.662032
1.7984
0.561853
1.02775
0.323296
1.54011
0.884199
0.436729
1.62965
1.28889
1.39765
0.843929
2.80524
0.85898
0.730369
0.3735
1.13033
1.0978
0.313653
1.5066
1.46559
1.41894
0.471608
1.39873
1.35553
1.337
3.56065
0.168584
0.89321
0.529278
0.374096
1.87779
2.41752
0.535888
1.75927
0.7787
1.70054
1.4382
1.5775
0.279682
1.2381
1.3556
1.49656
1.28863
2.50932
1.29704
0.089638
0.94281
0.0903512
2.06507
1.56993
1.21532
2.78594
1.94205
1.52254
1.96003
0.66051
1.55835
0.482487
0.272631
0.166543
0.954393
0.262291
1.4513
2.55833
1.57041
0.908779
2.37823
1.67667
0.640256
0.474311
1.64274
1.29475
1.65949
1.30468
2.58756
1.80506
1.32454
0.652757
1.39838
1.35582
1.33539
1.26641
1.22141
1.17524
1.34222
1.1361
0.14318
0.104576
0.120101
0.132739
0.117454
0.127533
1.77734
0.615879
2.24135
1.32417
2.15756
0.540041
0.357133
1.23229
0.72377
0.196836
1.79004
0.540209
1.15877
2.00058
0.114773
0.956375
0.117714
2.47306
1.57623
1.37672
1.49042
0.909243
1.381
1.2902
4.99659
1.21061
0.44711
0.868552
2.54507
0.54538
1.60474
1.24902
0.691217
1.80334
0.221611
0.199547
0.637542
0.532813
0.26329
0.360986
0.242047
0.27464
0.37907
0.749002
2.58672
2.68412
0.775361
0.323908
1.61216
1.88022
0.574383
1.20969
1.80332
1.84887
1.43614
0.232609
0.524757
0.597896
1.1821
0.171581
1.52586
1.72697
1.6641
2.34376
0.539438
1.22012
0.176238
0.662351
2.37918
1.48301
1.9093
1.22947
0.706427
1.5275
2.55875
0.859372
1.56979
1.15463
0.683535
0.312348
0.745015
0.229137
0.344646
1.75379
1.84256
0.684689
1.0876
1.64542
0.242978
2.20016
0.639429
1.65488
2.03944
0.994238
1.48873
0.744922
1.60399
2.01667
1.25294
2.40894
1.0959
0.349303
0.430351
0.227206
1.66213
2.4094
2.81164
2.14625
1.82085
0.472103
2.90425
0.13396
0.68939
0.334785
0.208784
0.460946
2.2796
0.616524
0.875936
1.24492
1.7265
0.174971
1.85973
1.14211
0.339838
0.519798
0.261334
0.149699
2.50123
0.472608
2.07185
1.2785
1.60264
1.71967
1.52418
0.828605
0.517894
0.182644
0.542059
1.52038
1.4808
1.32144
4.83846
1.15316
1.38964
1.24619
1.43047
1.21266
0.181249
1.64477
0.827752
1.84053
1.3997
1.92653
2.91628
1.20121
0.215073
1.52847
0.230891
0.619868
1.38747
1.47893
2.27715
1.65145
1.72739
1.30598
1.36481
1.48235
0.269524
0.581524
0.568054
0.224607
0.631639
1.28963
2.07453
1.31094
1.35409
0.618589
0.476404
0.845598
1.26589
0.781264
1.44229
2.03802
2.28593
1.34926
0.172339
1.47362
1.57996
1.93926
2.04535
1.54722
0.854473
0.529312
1.00932
0.448224
1.15071
0.867324
1.33499
2.58922
1.96195
0.323561
0.342375
1.86609
1.34865
0.840418
1.377
0.19625
2.54163
0.897608
0.609749
0.709605
4.28325
1.47407
1.99817
0.566127
0.415787
1.31028
1.74501
1.98153
0.890888
0.866803
0.715553
3.65119
0.0952738
1.751
2.24615
0.73627
1.6891
2.42747
1.9009
2.56809
1.12137
1.0154
0.319508
2.19007
1.1125
0.116776
1.43798
0.179917
2.41594
1.08181
2.92214
0.642766
0.145866
0.0881635
1.32774
1.32217
0.247831
0.73758
2.44107
0.201933
0.617199
0.46754
2.50229
0.715264
1.14469
0.136578
0.616648
1.21
1.87523
3.27567
1.04819
1.47839
0.129416
0.504559
0.826218
1.07678
0.186295
1.67427
0.641555
0.838787
0.837837
1.10824
2.05337
1.08824
0.158943
1.25603
0.76567
0.472777
1.07197
1.73449
0.308013
0.625935
0.725292
0.834366
1.17031
0.162372
0.150232
1.94999
1.58921
1.18435
1.0315
0.616292
0.71707
0.711618
1.30638
0.547238
0.49925
0.360036
0.281857
0.118616
0.637086
1.94425
1.21846
0.680685
1.83181
1.04022
1.52807
1.32519
0.639671
0.181435
0.298975
1.00146
1.42681
0.187325
0.5037
0.364958
0.816854
0.2983
0.661147
1.12831
1.56711
0.398731
0.815995
1.07892
0.80607
0.612316
0.126258
0.850023
0.376295
0.930099
1.30185
0.211879
0.491686
1.03749
2.00687
0.232022
0.49581
0.214302
0.713416
0.610805
0.127247
)
;

boundaryField
{
    frontAndBack
    {
        type            empty;
    }
    wallOuter
    {
        type            kqRWallFunction;
        value           nonuniform List<scalar> 
96
(
0.934673
0.532316
0.542428
1.03154
1.0412
1.03669
1.09056
0.959193
0.595144
1.44236
0.416141
1.33444
0.792078
1.06541
1.39616
1.48364
1.04636
0.623595
0.220757
1.19283
0.291919
1.26425
0.641654
1.49463
1.06286
0.65417
0.824693
0.844229
0.839301
0.839688
0.708962
0.797499
0.568093
0.604449
0.584177
0.584928
0.590639
0.761437
0.591715
0.540889
0.552876
0.582262
0.770794
0.744879
0.568125
0.721017
0.710544
0.555104
0.701557
0.681258
0.973389
0.534515
0.645598
0.0973064
1.07523
0.662032
0.843929
0.89321
0.529278
0.535888
1.49656
0.089638
0.0903512
1.21532
1.29475
1.30468
1.32454
0.652757
1.39838
1.35582
1.33539
1.26641
1.22141
1.17524
1.34222
1.1361
0.14318
0.104576
0.120101
0.132739
0.117454
0.127533
0.540041
0.114773
0.532813
0.539438
1.0959
0.149699
1.4808
1.44229
0.854473
0.529312
0.0952738
1.12137
1.08181
0.0881635
)
;
    }
    inlet
    {
        type            fixedValue;
        value           nonuniform 0();
    }
    outlet
    {
        type            zeroGradient;
    }
    wallInner
    {
        type            kqRWallFunction;
        value           nonuniform List<scalar> 
126
(
0.190503
0.309719
0.135072
0.203957
0.534166
0.367778
0.237231
0.11404
0.192341
0.44134
0.182016
0.221771
1.15655
0.130641
0.360334
0.0920934
0.198817
0.160064
0.29621
0.563763
0.331213
0.36062
0.185366
0.295614
0.561163
0.147269
0.168692
0.405279
0.447907
0.452386
0.270093
0.391664
1.29223
0.204435
0.714414
0.589008
0.371066
0.171154
0.519633
0.21523
0.319214
0.187405
0.24003
0.555165
0.215646
0.202963
0.516759
1.09697
0.11498
1.35284
1.2467
0.418981
0.668668
0.102646
0.853759
1.15439
0.147927
1.47592
1.52948
0.937037
0.686472
0.834567
0.163529
0.89895
0.430887
0.452612
1.17389
1.02849
0.606484
0.63657
1.22629
1.04224
0.851793
1.00735
0.373265
0.434452
0.735663
0.960128
0.50831
0.762513
0.388476
0.820689
0.935147
1.64443
1.10949
2.53369
0.799704
0.829354
0.231596
2.23343
1.38224
2.00747
1.17334
1.21108
1.00273
1.85076
0.737602
0.706427
0.642766
0.145866
0.298975
1.00146
0.187325
0.364958
0.816854
0.2983
1.12831
0.398731
0.815995
1.07892
0.80607
0.612316
0.126258
0.376295
0.930099
1.30185
0.211879
0.491686
1.03749
2.00687
0.232022
0.49581
0.214302
0.713416
0.610805
0.127247
)
;
    }
    procBoundary3to1
    {
        type            processor;
        value           nonuniform List<scalar> 
48
(
3.01436
2.36347
2.65558
3.19525
1.67934
2.36065
2.36347
0.529567
1.94909
0.297369
0.297369
0.279337
0.279337
0.659391
0.565292
0.264813
0.291588
0.265799
0.291588
0.255395
0.758299
0.752503
0.255395
1.65058
0.316713
0.239779
0.643787
0.752503
0.599704
0.484983
0.484983
0.535963
0.535963
1.94909
0.228579
1.49673
0.680909
0.316713
2.67052
1.41888
0.659391
1.10168
1.42782
0.255395
0.500938
1.00838
1.62574
0.747923
)
;
    }
    procBoundary3to2
    {
        type            processor;
        value           nonuniform List<scalar> 
29
(
0.6932
0.6932
0.110841
0.139009
0.181991
0.326366
0.315668
0.509723
0.213416
0.200835
0.524911
0.252091
0.621189
0.534402
0.345558
0.468032
0.17461
0.187614
0.537747
0.591399
0.470272
0.17461
0.151179
0.187614
0.258225
0.180865
0.187614
0.383491
0.383491
)
;
    }
}


// ************************************************************************* //
