/*--------------------------------*- C++ -*----------------------------------*\
| =========                 |                                                 |
| \\      /  F ield         | OpenFOAM: The Open Source CFD Toolbox           |
|  \\    /   O peration     | Version:  v1912                                 |
|   \\  /    A nd           | Website:  www.openfoam.com                      |
|    \\/     M anipulation  |                                                 |
\*---------------------------------------------------------------------------*/
FoamFile
{
    version     2.0;
    format      ascii;
    class       volScalarField;
    location    "0.41";
    object      p;
}
// * * * * * * * * * * * * * * * * * * * * * * * * * * * * * * * * * * * * * //

dimensions      [0 2 -2 0 0 0 0];


internalField   nonuniform List<scalar> 
1431
(
81.6806
90.3923
75.3196
85.5732
75.8973
74.2699
79.9407
46.1824
75.5567
80.579
41.6199
48.9562
75.9682
72.9165
75.9998
80.0853
73.676
76.4205
74.5156
75.6256
36.5922
72.8612
75.7675
18.1325
75.6551
76.0631
47.5432
75.95
77.7201
71.5285
74.7102
76.1326
74.7399
72.6209
75.7224
78.3261
77.7039
76.1114
79.5697
75.7754
78.2816
78.1532
75.9573
79.5325
72.3886
75.1612
72.6724
51.1733
79.7085
73.1209
80.6131
78.7487
78.6857
53.2389
92.1399
78.5846
75.3591
50.2809
73.5578
78.8549
76.0365
79.9465
74.882
75.4207
80.1311
80.372
78.3064
78.2776
74.1585
73.7295
49.3718
72.8098
84.6161
72.3766
73.0257
76.0699
76.1697
75.3504
80.4917
77.5933
73.4505
75.5493
81.0376
73.2746
37.8628
87.055
88.6498
74.6396
53.096
65.3124
75.8612
75.1889
76.2373
79.1528
92.8995
74.6283
48.4233
81.7078
79.7645
74.5582
78.7622
79.8912
73.2585
78.3572
75.2413
75.1252
76.2699
53.5723
74.8788
73.2616
78.7514
75.9235
75.7625
77.8324
91.7705
76.3064
72.9053
85.1561
87.2692
74.821
74.3343
75.5941
54.6153
73.296
47.688
79.4908
75.5016
75.4014
74.9942
91.0928
74.0073
76.0812
90.6889
74.3957
76.8567
76.237
74.9378
79.6054
50.4155
76.2467
79.4117
73.1176
73.3804
78.3393
76.6453
74.5203
77.3068
78.2399
79.8352
75.8407
75.3913
74.7774
75.4682
87.8982
75.6145
75.9265
47.2595
84.8839
73.0132
88.4377
60.6098
75.7443
85.6769
88.1224
53.6099
79.629
77.8661
92.7126
74.5348
87.1076
60.1367
78.0649
75.7345
49.596
89.1772
47.3524
90.1238
73.2672
79.3479
76.7711
80.4152
78.6017
85.9128
21.1994
73.7083
75.4644
50.8186
86.8806
76.2194
51.4846
74.5198
75.4874
75.5782
55.3004
86.3209
80.229
79.9037
76.5539
74.2692
78.8159
89.0919
86.1247
59.1132
89.6488
76.4801
74.833
75.6112
75.3055
48.0621
77.7272
44.1589
85.4314
75.9973
75.5985
39.7116
76.3675
75.2809
76.0103
83.6568
61.524
76.2785
86.9014
75.2188
87.0959
75.7945
43.0262
60.11
84.7364
75.9626
60.2249
43.3799
74.8094
74.8418
75.8436
76.1407
67.1316
75.8107
76.0334
74.6199
88.9467
89.7502
83.3735
46.1165
75.8328
75.9698
73.8939
75.8535
56.0224
76.9288
75.1391
74.7481
52.2101
87.9501
84.54
74.6885
77.2303
87.4308
38.1723
73.1219
75.2819
75.2907
50.611
84.826
89.5834
76.3341
64.3818
75.9953
56.0301
54.733
75.4709
75.0818
75.5214
91.0621
89.119
57.3444
75.9724
54.5748
70.7914
74.9354
75.6819
77.6544
76.4496
74.2642
79.9682
91.7553
79.5829
77.5273
77.7505
44.7318
88.8555
74.6429
75.9265
82.6494
78.1598
62.4484
75.9557
50.8777
76.2708
75.7818
74.7107
78.1765
76.3257
91.1613
76.6897
74.3671
86.8902
87.5677
75.5011
78.0942
89.2285
74.8092
79.252
80.1353
55.6827
75.3802
79.8859
77.0416
92.0807
72.8161
29.0283
85.7982
80.9231
75.0601
78.5552
76.3808
75.6378
74.427
75.8629
55.073
84.9232
75.2402
73.4094
75.9088
72.998
89.3154
76.35
76.9083
71.2034
75.6236
54.2132
75.8343
76.0148
68.3073
77.6241
74.7345
74.6862
90.0248
53.3502
74.1972
77.7795
74.4408
73.1816
78.5119
81.5745
74.2409
83.2354
46.7669
43.4008
51.2433
78.0056
72.8821
75.4813
74.5395
91.0308
73.4407
43.3851
75.7783
9.32013
77.136
71.7227
52.9757
75.6061
55.5576
84.4714
78.0674
47.5544
83.0754
87.2811
76.7053
43.428
75.6186
75.2149
84.9408
75.4638
10.0465
75.3538
79.3623
74.3087
75.8635
83.3627
90.2362
78.1361
77.7323
86.3505
68.4727
78.4744
76.1823
76.404
76.0055
75.06
78.1045
77.6056
75.6586
76.7894
77.7547
76.685
74.1242
86.1007
91.2632
76.7776
79.0895
77.2227
76.9156
75.4714
74.7118
74.0306
79.9356
85.6778
75.0696
77.068
77.1011
75.7566
81.4071
80.5376
77.1726
75.3473
75.0721
74.8385
75.6061
27.7265
76.6431
77.2811
76.9976
77.8617
76.5466
76.072
76.2721
76.1099
76.0016
75.8854
74.7094
50.8331
73.5984
72.5767
72.9586
72.5628
73.5397
73.4688
73.7198
73.2945
73.3229
72.8033
79.5122
77.4531
79.8052
79.4804
73.0738
51.5376
76.6932
76.2961
73.1146
73.4184
52.0886
79.3621
77.083
74.1521
77.9525
52.163
73.8373
50.4455
79.333
79.0098
76.1358
72.9944
50.4458
50.9044
76.3928
74.3842
73.1237
78.4587
73.0593
73.9147
50.4587
77.493
74.2361
73.1639
74.6988
73.3405
74.7639
75.7977
50.2147
77.1846
74.8294
76.1015
73.6503
74.3802
75.1807
49.6939
77.0549
75.1458
75.1207
76.2059
76.2829
75.0916
49.9458
51.747
74.0606
77.3306
77.3195
74.588
76.3123
74.5904
74.8321
75.5593
74.9641
83.9811
75.325
76.1934
74.2287
51.0968
72.482
77.3861
74.3873
85.8334
76.0974
86.6534
48.9539
75.7715
75.2148
86.6061
89.0393
78.2174
76.535
75.1013
75.7987
76.2181
85.6905
75.0022
76.2261
75.8805
76.5986
75.5777
76.8488
78.2365
75.0184
86.5248
85.2903
68.3433
76.3593
75.7044
80.0793
75.3148
76.8798
76.9064
73.4215
74.6982
87.1946
75.1355
72.1735
49.7156
75.9227
50.7651
74.893
78.1507
34.3624
78.5664
84.3944
87.6094
75.2785
76.9737
77.5404
61.19
75.8112
78.4993
79.2531
74.8096
85.5601
72.8901
75.6635
77.6079
77.3763
65.5019
72.8469
77.5548
77.5813
76.121
75.7749
79.2031
79.2084
74.2217
75.433
73.6123
79.4969
82.7153
77.2161
75.9162
73.8109
79.3688
84.3927
49.052
61.3198
76.4398
76.7406
77.9258
71.3296
75.1157
19.0021
73.9557
87.3888
72.8042
86.0924
78.0981
77.8284
75.6059
73.7083
75.733
44.5516
88.8907
76.2796
77.398
90.8135
87.2049
79.1792
77.034
77.7193
71.9989
75.8254
74.4375
69.6718
87.2505
77.3572
78.4915
80.194
75.6803
77.7222
75.1649
47.768
90.7109
75.7233
88.111
75.9518
74.6686
89.2086
76.5591
74.491
77.5548
73.1749
76.5696
40.5531
84.073
75.3722
76.3751
73.0725
74.3446
73.5429
76.1096
75.325
68.9547
76.7723
56.0941
64.323
75.8555
75.9824
78.0672
75.3497
75.5944
76.0086
76.1627
78.6902
74.5954
77.3744
91.9924
37.439
75.8746
75.7256
73.7878
32.1086
72.9308
73.1502
90.0118
90.0741
82.2172
82.8064
41.4887
75.2152
76.9402
75.4167
75.2845
74.906
94.3183
75.6319
76.1091
76.7513
94.179
92.9447
76.422
85.9845
73.104
92.1392
68.4307
91.288
77.724
77.2206
93.6721
77.3697
25.3167
73.5849
88.938
85.532
75.8593
73.9028
84.0857
72.8708
77.2699
75.63
79.5415
75.3367
75.8547
88.895
76.1266
77.5723
74.8888
51.5532
77.4539
76.8109
92.975
75.3729
75.7926
54.3644
51.5703
73.7581
86.2886
77.3436
89.6291
75.9906
76.556
77.572
82.5064
43.678
87.6833
76.1731
74.1475
89.9682
73.7954
76.6361
75.8848
73.0483
78.2522
73.8549
79.466
76.724
87.863
92.6908
79.473
8.51462
73.8835
77.3049
74.0344
74.4367
84.8549
31.274
75.906
78.3036
79.7807
75.8529
76.5133
79.5388
79.7193
76.7179
88.1298
75.6528
74.926
73.814
78.0343
76.9941
81.8918
90.6494
78.8936
75.9009
76.685
79.5369
75.4747
77.7048
74.6268
93.9348
52.7404
74.7317
80.4934
75.3746
82.1146
75.4719
75.4285
75.393
75.7516
74.7992
91.3551
87.4365
73.7301
86.4764
76.5659
75.5575
72.9599
75.6166
76.7738
76.1503
14.8925
75.7899
75.3037
78.7751
74.4175
49.372
90.2199
87.3017
43.2933
76.4102
50.9536
75.7076
75.269
76.9088
75.7224
74.0691
73.4733
78.0462
75.7427
92.9465
75.6514
76.7153
72.8809
75.8325
77.5487
76.1272
78.6719
43.4137
75.7767
84.4245
53.3652
73.9845
77.1968
77.111
79.9621
77.1936
76.2603
75.2461
75.1813
77.3576
63.4259
75.8971
53.3699
79.2826
69.7155
77.1755
72.5647
76.8941
86.3425
77.8797
77.0273
91.6501
76.346
75.2833
74.4348
85.409
81.8889
75.9066
84.0916
75.5867
76.1977
75.541
78.5689
53.0339
76.35
75.5377
47.7124
75.8652
73.7113
73.3828
78.6556
80.0311
79.5758
75.8202
76.17
50.0332
87.4273
76.7849
43.7417
53.9307
51.4363
43.6046
55.6277
76.1067
75.7882
75.6194
75.626
51.1622
76.4747
74.9973
76.3355
75.7015
74.6609
59.2685
45.3867
74.5569
65.2112
62.2244
74.8706
76.4419
75.9883
75.2186
75.5202
75.3398
75.139
75.4054
75.4358
67.3401
72.7015
76.1264
76.3255
72.9772
72.4453
45.7638
76.8513
70.2432
72.8692
76.5744
79.3647
53.1965
73.8705
74.3196
68.2768
74.5462
75.6686
73.2343
89.1415
49.8452
75.2423
75.6924
75.9536
82.3911
86.935
78.0914
49.6078
74.6112
73.2247
75.6132
76.9196
78.4535
77.5258
56.094
75.8268
79.5894
75.6754
85.218
77.8236
78.0943
72.3873
75.7855
79.9263
76.296
73.5215
77.7161
77.1548
79.4886
45.8731
76.334
78.7203
75.9697
76.9402
73.1003
88.8716
75.7148
75.4283
89.0026
78.2278
74.1994
42.1118
74.1856
73.2683
75.7627
76.1856
79.4503
24.2597
76.5785
76.748
78.4933
47.2041
76.3621
75.488
79.477
77.9119
88.1098
75.2763
75.4521
77.1864
74.6622
55.5961
34.5352
75.8583
76.2659
84.8342
74.2695
73.3846
77.0252
73.2031
75.1801
77.19
74.865
77.1704
36.4745
77.6982
87.6894
73.5479
73.8422
75.5761
73.8796
73.8822
76.635
85.6775
80.6844
74.8986
78.3746
81.2846
25.6992
16.6513
80.1009
76.6849
70.1656
88.6178
76.2351
52.1571
72.7622
74.6748
74.9033
64.2164
50.855
88.4094
72.8352
75.8254
77.8136
74.6976
50.3128
76.49
80.4615
88.521
47.0918
87.6038
75.6
86.3213
7.09473
77.6655
48.2149
56.7282
75.8657
76.0762
76.4826
89.0999
76.3969
87.1854
88.5072
86.5956
78.1324
76.9071
75.0861
76.8031
76.12
60.5585
74.3841
76.0211
75.4979
54.0777
76.3482
53.6681
78.2488
75.8154
54.3466
75.5381
64.1309
61.3124
58.5713
52.3396
52.17
51.2461
55.9983
51.6431
84.79
86.6682
86.2904
85.085
85.3912
85.7343
77.1334
72.0529
76.0336
76.8923
76.1224
72.9449
85.3462
77.7502
73.0119
79.7042
77.8447
77.7922
75.4484
93.5522
89.5052
76.0817
74.8289
90.02
78.0892
77.1803
75.8748
67.4552
87.9884
81.1509
42.6667
75.9292
74.8259
74.2229
90.701
75.897
82.6255
32.5229
75.4604
75.7588
85.0484
75.4676
87.0228
74.0021
73.2829
78.1037
84.6803
73.3348
74.8007
74.9719
88.7501
76.9275
76.4316
73.5358
78.8789
15.6458
74.0019
41.9504
7.45215
92.2236
50.0193
73.6818
78.6125
74.8097
48.4659
87.6687
76.3957
78.2294
65.1823
76.1202
73.4185
76.2765
75.0275
78.068
76.3967
79.3382
77.6071
55.207
46.5213
16.3715
83.2495
75.9573
87.6862
75.5712
87.1718
74.2405
75.4072
73.2832
77.246
50.9581
76.7947
77.7201
46.5786
78.1861
73.0353
75.9193
78.6627
77.3451
69.7058
57.9236
76.0658
73.2568
73.0093
75.0559
45.7363
76.2496
47.7329
80.057
74.8269
73.9813
45.2894
77.0997
79.3408
75.8276
75.791
84.3699
53.4948
75.4308
74.5739
73.3924
73.5362
75.2127
76.2616
84.7944
74.5653
76.8528
53.9254
72.9803
76.1344
76.0533
73.1771
85.0494
73.9382
90.0352
84.5728
73.9605
75.8366
46.7922
76.6527
76.451
79.2022
75.7728
84.2936
73.8521
75.4917
75.7701
70.75
78.9801
26.8299
75.0063
92.601
79.183
58.738
77.8789
79.9913
81.1026
76.0437
78.3491
78.1636
74.3288
79.4873
76.88
72.0955
86.6303
73.0724
85.8761
76.5117
54.6856
76.6889
55.9883
74.8923
77.3754
77.0967
77.6789
73.6104
76.5072
75.5664
73.1198
85.3392
79.4665
44.6098
78.089
78.3792
74.7892
76.9557
73.1118
78.2392
74.8176
67.1805
75.7783
77.5121
50.7853
72.5392
78.5947
76.3243
77.7592
74.8966
76.307
75.9018
68.0193
74.8633
74.5715
72.8907
75.0967
76.138
52.5436
78.132
75.5661
73.0862
76.2965
53.8845
73.5506
78.2137
75.5454
54.2532
76.2986
75.7235
73.6846
36.0866
75.1509
75.8461
75.5782
77.6904
43.3383
93.1967
53.9655
86.9042
87.3343
91.3403
52.1876
87.1564
43.4166
69.0113
76.1224
76.9851
73.361
51.2245
76.8192
15.7185
91.9345
74.6461
93.5267
75.6411
75.0932
60.4004
88.1596
91.8251
44.0788
55.2142
76.5977
74.2007
88.0573
51.5221
88.3238
73.8403
77.6518
54.4336
80.0176
90.7685
76.4311
87.5883
71.6566
75.2213
74.8102
84.328
87.8502
57.4968
53.1881
87.4115
75.4003
75.2029
77.1533
74.341
75.5348
72.8996
75.3598
84.309
75.4795
75.2794
75.9343
61.9814
75.708
86.2954
76.4165
65.076
84.6885
87.9708
75.4665
73.2116
86.4353
73.8175
75.8546
75.7888
86.7064
86.0023
59.3663
52.368
72.2353
79.1788
85.771
75.107
73.8917
77.1043
76.2516
77.802
77.7793
78.3178
75.4901
84.6703
57.5644
76.5825
68.1013
76.457
71.8645
50.1026
77.7845
84.5469
72.8646
74.4048
77.3566
45.4483
76.395
76.4759
76.4588
78.549
79.1827
79.4226
81.6116
82.2928
86.7199
26.3353
55.5615
73.5544
79.0935
71.9772
72.3059
73.893
81.0977
78.9848
75.6094
74.0099
81.333
86.9972
77.2286
75.8688
73.943
74.9797
78.3379
75.9497
)
;

boundaryField
{
    frontAndBack
    {
        type            empty;
    }
    wallOuter
    {
        type            zeroGradient;
    }
    inlet
    {
        type            zeroGradient;
    }
    outlet
    {
        type            fixedValue;
        value           uniform 0;
    }
    wallInner
    {
        type            zeroGradient;
    }
    procBoundary3to1
    {
        type            processor;
        value           nonuniform List<scalar> 
48
(
78.5411
78.6948
78.6338
78.3942
76.5801
76.3477
78.6948
77.6654
78.2905
76.9014
76.9014
77.9485
77.9485
76.0359
77.0541
77.4427
75.2205
76.7023
75.2205
74.2439
74.9797
75.2039
74.2439
77.2802
76.0667
75.1412
76.1993
75.2039
76.7692
75.6316
75.6316
77.0359
77.0359
78.2905
74.6044
76.7019
78.0942
76.0667
78.7515
76.8068
76.0359
78.392
78.5757
74.2439
77.6951
77.404
76.2179
75.3116
)
;
    }
    procBoundary3to2
    {
        type            processor;
        value           nonuniform List<scalar> 
29
(
77.581
77.581
80.361
80.6583
78.7434
79.0391
84.1302
78.6982
80.3978
80.4309
78.9512
78.6015
78.6637
83.8387
84.2807
84.1334
80.1872
79.963
77.7685
83.9278
84.083
80.1872
84.5604
79.963
84.4304
80.3383
79.963
78.2015
78.2015
)
;
    }
}


// ************************************************************************* //
