/*--------------------------------*- C++ -*----------------------------------*\
| =========                 |                                                 |
| \\      /  F ield         | OpenFOAM: The Open Source CFD Toolbox           |
|  \\    /   O peration     | Version:  v1912                                 |
|   \\  /    A nd           | Website:  www.openfoam.com                      |
|    \\/     M anipulation  |                                                 |
\*---------------------------------------------------------------------------*/
FoamFile
{
    version     2.0;
    format      ascii;
    class       volVectorField;
    location    "0.41";
    object      U;
}
// * * * * * * * * * * * * * * * * * * * * * * * * * * * * * * * * * * * * * //

dimensions      [0 1 -1 0 0 0 0];


internalField   nonuniform List<vector> 
1431
(
(0.30699 3.66217 8.71079e-17)
(2.23377 3.09026 2.538e-17)
(-0.754575 0.0960119 0)
(-2.21799 -0.152434 1.643e-16)
(-0.666567 -0.541461 0)
(0.046605 6.98008 1.56712e-16)
(0.483558 -0.47446 4.4208e-16)
(2.2401 -0.0832728 5.80889e-17)
(-0.564583 7.78998 9.7295e-17)
(0.300936 -0.409345 4.12442e-16)
(2.947 9.86407 2.07496e-17)
(6.55202 -0.219979 0)
(-0.164931 3.29886 -1.17746e-16)
(-0.962225 0.0552336 -4.99147e-16)
(0.331689 -0.346485 0)
(0.189928 -0.976627 -3.5985e-16)
(2.08458 -0.102349 -2.57485e-16)
(-2.12567 -0.309437 0)
(2.08925 -0.27544 -2.11651e-16)
(-2.02336 0.173504 1.19996e-16)
(4.44644 9.29118 -6.87406e-19)
(-0.362362 0.0565699 2.10125e-16)
(-0.307515 5.07779 -1.19519e-16)
(11.8015 2.11589 -3.63102e-18)
(-0.431049 6.7972 1.01993e-16)
(0.159168 1.72492 2.26203e-19)
(1.5799 9.66208 -2.16328e-17)
(-0.681191 -0.992827 -3.20233e-16)
(-0.142319 6.00716 -3.26023e-17)
(0.169905 6.00747 2.62776e-17)
(0.0596481 6.85774 -7.14567e-17)
(-0.0810814 7.4502 2.57213e-17)
(0.02801 6.81796 0)
(-0.522344 -0.0695765 -3.93052e-16)
(-0.147489 7.4475 -1.90906e-16)
(-1.37383 0.251381 0)
(0.0303282 5.98564 0)
(1.51229 0.47041 -1.06651e-18)
(0.749352 -0.486369 0)
(-0.0947519 7.10812 0)
(-0.154272 8.69033 9.94357e-20)
(-0.209178 7.77617 9.10419e-17)
(-0.0220121 2.44487 -1.60077e-16)
(0.351698 -1.26405 1.64975e-16)
(0.400108 4.18084 0)
(1.10091 -0.510184 2.58026e-16)
(0.484693 0.469824 2.33389e-17)
(1.02658 9.3417 -6.52554e-17)
(0.369113 -0.118064 0)
(1.17542 0.619497 0)
(-0.28361 4.77302 0)
(0.674951 -1.04454 0)
(-0.174702 5.18573 2.031e-16)
(2.53899 0.0930039 1.84846e-17)
(1.46428 2.14154 -1.80203e-18)
(0.276045 2.44763 3.12177e-16)
(-1.23633 0.055058 1.62117e-16)
(4.94755 -0.34455 0)
(2.0198 0.0657046 0)
(0.116261 -0.257023 3.74812e-16)
(0.0912313 -0.238775 -1.27645e-16)
(-1.05593 0.0681481 3.36174e-16)
(2.98792 0.097975 0)
(1.85169 0.355302 0)
(0.123541 -0.217936 8.58083e-19)
(0.626669 0.065216 -2.10067e-16)
(0.670442 -0.261579 -2.30188e-16)
(-1.08387 -0.476683 -6.94809e-17)
(1.69925 0.00372562 -4.2592e-18)
(-0.696939 -0.214863 0)
(0.61615 -0.440949 7.77256e-17)
(-0.605406 0.0935635 -1.36303e-16)
(-2.42702 0.114344 1.06092e-16)
(-0.770683 -0.175681 3.00746e-16)
(-1.06678 -0.0591025 3.53434e-16)
(0.721564 -0.103124 -4.56422e-16)
(-0.592235 -0.219252 -1.96039e-17)
(-2.53212 -0.159463 -1.22979e-16)
(-0.384307 -0.388211 -2.55391e-16)
(-1.30109 -0.471422 0)
(2.02276 0.0245982 -5.82614e-17)
(-1.45559 -0.417762 8.77819e-18)
(5.79056 0.973628 -6.01497e-18)
(0.9582 0.606051 9.72468e-17)
(11.3453 0.787942 2.18111e-18)
(-1.45429 -0.60762 -9.45211e-17)
(-0.407604 -0.191116 0)
(1.15552 -0.254488 1.52753e-16)
(9.39019 0.0416387 6.69247e-18)
(8.10653 0.59465 2.0939e-18)
(-0.737554 0.415509 -2.25861e-16)
(-0.837624 0.209465 2.45984e-16)
(1.24133 0.515766 2.24734e-16)
(-0.0938626 -1.40173 -1.16576e-16)
(1.15676 1.43191 8.49746e-18)
(0.0193401 5.21153 0)
(3.73828 -0.325315 -8.24988e-17)
(5.48857 2.35221 -1.10496e-17)
(-0.0586436 -0.880891 0)
(-2.49682 -0.0266158 -4.59712e-19)
(0.156096 3.28381 1.11758e-16)
(-0.816613 -0.296591 -5.97002e-16)
(1.90478 0.0599345 0)
(-0.738762 -0.909974 -2.437e-16)
(-2.47712 0.113677 2.24018e-16)
(0.0387861 6.2608 1.0508e-17)
(-0.0217185 6.62043 0)
(0.922578 6.89021 7.40983e-18)
(-0.179694 2.94731 2.43172e-16)
(2.04971 0.0950204 0)
(0.0863973 -0.382993 -6.01659e-16)
(-0.28257 4.19343 -2.16244e-16)
(0.567239 1.00294 3.69586e-16)
(-0.0930245 8.09937 -6.32671e-17)
(2.11315 2.35672 -8.21567e-19)
(-0.193394 -0.303313 6.4209e-17)
(-0.850725 0.112354 0)
(-2.4088 -0.0211054 -1.93367e-16)
(-1.48344 -0.293748 0)
(2.51051 0.32199 0)
(-0.0432466 -0.202356 -2.18484e-17)
(0.807987 -0.260554 7.08416e-17)
(1.12888 0.116184 2.50573e-16)
(-1.04012 -0.139609 1.41004e-16)
(0.198535 0.10716 0)
(-1.60339 -0.248163 1.41914e-16)
(-0.889584 -0.0741157 0)
(0.348734 -0.742453 4.63325e-16)
(-0.0620036 0.0346608 -2.50594e-16)
(-0.688797 0.261149 4.63109e-16)
(1.70754 -0.184006 3.33504e-16)
(-2.19423 0.0861017 -7.23503e-17)
(-0.721629 0.335902 -1.06688e-16)
(1.42667 0.12153 9.41535e-17)
(-1.8733 0.593249 0)
(1.5985 -0.874688 -2.36954e-16)
(-1.23095 0.592906 1.12598e-16)
(-1.02145 0.0591923 0)
(9.0784 -0.0370247 3.77645e-17)
(1.0156 0.268865 1.5714e-16)
(0.835257 -0.19398 0)
(0.152173 6.93057 0)
(2.10425 0.00817794 7.28931e-17)
(-0.199329 -0.263961 0)
(-0.169752 3.33363 1.48397e-16)
(0.0152353 6.84808 -5.50407e-17)
(2.78199 -0.202167 -1.38498e-16)
(0.0290583 4.10818 -2.15595e-16)
(-0.499025 -0.975771 2.52804e-16)
(-0.678264 -0.440241 1.40146e-16)
(2.91013 -0.221772 1.37168e-16)
(1.61478 -0.178117 6.05787e-17)
(-0.0592812 7.22346 4.59188e-20)
(-0.777235 -0.433292 -2.00083e-16)
(-0.0773859 7.27564 -2.52412e-17)
(1.19224 1.02689 -2.73772e-16)
(10.048 0.506515 -2.30591e-18)
(3.31838 4.1916 5.85902e-17)
(7.0942 0.832373 -5.02092e-18)
(-0.663109 -0.610256 2.49126e-17)
(8.33167 1.40992 -3.21812e-18)
(-0.194267 3.95083 1.28075e-16)
(0.734323 -0.277482 -1.77975e-16)
(-0.212491 -0.419468 1.22199e-17)
(1.3124 0.0544349 -5.05729e-17)
(0.0835629 5.27538 -1.14184e-16)
(-0.025329 6.89468 3.40361e-16)
(1.81581 1.60405 7.80219e-18)
(2.50581 0.74529 1.57437e-16)
(4.20156 2.50085 2.36046e-17)
(8.65685 0.789149 -6.8251e-18)
(-0.0934309 4.73098 0)
(-0.102737 6.89015 -2.44445e-17)
(9.23382 0.285869 3.95236e-18)
(2.84218 3.29922 -1.00473e-17)
(10.124 0.290046 0)
(-0.862184 -0.0276753 0)
(0.217863 6.03407 -9.43794e-17)
(-0.206377 5.26967 -1.86202e-16)
(-0.107839 7.19529 -2.15245e-17)
(0.482448 -0.02467 -4.12456e-16)
(0.928997 -0.570358 0)
(0.234798 3.93236 6.13535e-18)
(10.432 2.80694 -2.52077e-18)
(0.370705 6.26784 6.81819e-17)
(0.0449353 4.74534 0)
(0.696754 3.76578 -1.0132e-17)
(3.54739 3.4778 -3.9542e-18)
(-0.0938297 6.97438 3.87914e-17)
(10.066 -0.201029 2.37954e-17)
(0.00850603 6.93418 -4.41869e-17)
(-0.185885 7.04433 -2.40508e-17)
(-0.13974 7.27615 -3.61255e-17)
(0.945929 6.24325 0)
(-1.97511 -0.117318 0)
(3.78266 4.54089 -5.81031e-17)
(5.43174 2.97625 0)
(0.647484 6.27078 -1.42958e-16)
(1.77932 0.25436 2.62237e-16)
(2.27538 0.0837722 0)
(1.20518 3.73724 5.9347e-19)
(0.535427 -0.343725 -1.03254e-16)
(0.970729 8.30501 -3.3526e-17)
(-0.715185 -0.13427 9.99126e-17)
(-0.343733 3.92461 -4.13457e-17)
(0.026087 6.93158 2.93446e-18)
(-0.132819 6.48646 6.86987e-17)
(1.17496 0.32999 2.2689e-16)
(9.1635 0.763459 -1.2211e-18)
(1.18949 1.47338 -1.36844e-16)
(-0.0312648 -0.0273938 3.66592e-16)
(0.789377 -0.200859 0)
(-0.0698554 6.67788 2.15051e-17)
(0.0878956 6.22314 2.62146e-17)
(10.5188 1.1381 0)
(-1.90989 0.191571 4.08038e-16)
(-0.0995778 7.34207 1.10477e-16)
(0.911327 6.09477 -3.96906e-17)
(-0.119387 4.16868 -4.37961e-17)
(0.814483 8.26713 2.20295e-16)
(-0.156046 7.81565 1.74939e-16)
(0.421692 3.7637 0)
(1.87469 0.172791 2.37876e-16)
(0.167777 -0.414207 0)
(-0.0958924 6.95493 -9.85235e-17)
(9.36861 1.44214 2.01358e-18)
(1.4422 6.94516 -2.82373e-17)
(4.85398 2.38883 2.37681e-17)
(-0.0419958 7.57106 1.21181e-16)
(0.546549 8.39356 3.84878e-17)
(3.06684 0.226915 3.23393e-17)
(0.0735078 6.85849 -2.76872e-22)
(0.0169414 6.2078 -2.91905e-18)
(-0.151986 7.2671 4.98422e-17)
(-0.0690331 7.50277 -2.48343e-17)
(7.8491 1.20715 7.47078e-18)
(-0.0894939 6.79722 0)
(0.108978 6.14983 -3.21308e-17)
(0.0621133 7.01068 0)
(0.73583 3.26984 2.56218e-17)
(-0.914824 0.0811211 7.36759e-17)
(0.822766 5.55647 1.11797e-17)
(9.21543 1.0702 -8.14691e-19)
(-0.0231963 6.81356 0)
(-0.108741 6.90917 1.93676e-17)
(-0.135797 -0.826554 5.49123e-16)
(-0.0435714 6.48597 1.97412e-16)
(0.908096 8.40833 0)
(-0.19088 7.42033 -2.21597e-16)
(1.70811 1.03898 1.31506e-16)
(0.0565385 -0.714734 0)
(9.3962 0.127551 -1.67793e-19)
(-0.461229 -0.619668 2.49064e-18)
(0.565791 -0.100341 -1.66861e-17)
(0.0332206 6.90888 3.39555e-17)
(-0.34994 8.0558 -3.83752e-17)
(-0.291711 -0.596298 -8.3651e-20)
(9.60964 1.88499 -4.76603e-18)
(6.77287 2.24772 2.92568e-17)
(-0.0918799 7.22821 -3.67594e-17)
(-0.0808635 3.20616 9.60097e-17)
(9.19997 0.0608704 -2.29629e-17)
(0.0558319 4.07599 0)
(-0.807192 -0.25258 8.50243e-17)
(-0.0315077 6.0988 2.21366e-17)
(0.966054 7.31378 -5.09751e-17)
(-0.579998 7.43909 -9.91307e-17)
(1.20235 5.38337 0)
(0.775268 9.04525 6.12886e-17)
(-0.980052 -0.0914882 0)
(0.254925 1.77084 -4.91151e-17)
(-0.0993295 7.1076 4.36732e-17)
(1.67165 2.85367 -1.18732e-17)
(0.35504 2.58714 5.4671e-17)
(8.68966 1.06762 0)
(-0.108168 6.8428 5.16411e-20)
(8.95789 0.698852 -6.49806e-17)
(0.830243 7.00609 1.99716e-17)
(-0.00817917 4.58341 -6.28084e-21)
(-0.0689935 5.0578 -5.62906e-17)
(-0.187519 5.41047 0)
(-0.133242 6.00717 1.32073e-16)
(0.0449191 6.73926 7.10417e-17)
(-0.398388 3.65375 1.77566e-16)
(0.273137 1.44142 0)
(6.04121 1.63333 0)
(-0.251004 8.0422 9.43878e-17)
(6.13229 2.33059 -3.54132e-17)
(10.87 0.546724 0)
(2.10351 3.67745 -2.63534e-17)
(1.0702 0.344119 -1.87657e-16)
(-0.675771 7.91904 9.94729e-17)
(4.94361 3.01265 -2.95369e-17)
(-0.167864 4.04554 -4.39706e-17)
(0.50369 8.12971 -1.20674e-16)
(-0.0282971 7.63401 -2.86797e-17)
(1.33175 4.63518 0)
(0.161949 4.7294 0)
(-1.0592 1.64601 1.55666e-16)
(0.00533128 4.55483 6.81324e-18)
(-0.107398 4.89392 -1.3133e-16)
(-1.83096 0.281362 -1.55164e-16)
(1.09287 2.54772 -3.43608e-18)
(-0.326424 3.09447 6.05677e-17)
(0.254831 5.68825 -3.73055e-17)
(-0.153331 -0.563398 -6.10601e-17)
(2.58753 4.00839 1.77566e-17)
(-0.210119 6.99663 -2.07172e-16)
(-0.168869 7.20799 -1.87003e-16)
(3.50167 2.58073 -1.64863e-17)
(4.08278 4.89519 2.02732e-16)
(-2.06276 0.093319 0)
(-0.711321 0.229237 -8.23636e-17)
(0.437376 1.52309 0)
(-0.610385 8.10666 -1.7821e-16)
(5.06527 3.45744 0)
(0.444531 6.52407 -8.07748e-20)
(0.849096 1.8405 1.57863e-17)
(0.675813 0.520631 -1.84011e-17)
(6.51233 5.34194 1.13355e-18)
(2.19865 4.63442 1.64839e-17)
(4.4314 3.95494 0)
(-2.03619 -0.202368 0)
(-0.072986 3.28446 0)
(0.364292 6.58174 2.67456e-16)
(-0.714583 0.220072 -2.01771e-16)
(-2.15581 0.00186518 0)
(-0.669101 8.25677 1.99144e-16)
(2.87528 0.691286 3.14579e-17)
(0.557462 -0.203405 7.86032e-17)
(0.138359 4.54861 1.64098e-16)
(1.40397 -0.116144 1.35877e-16)
(-0.674964 8.23545 -1.98369e-16)
(-0.154179 -0.0973068 -3.46961e-16)
(-0.972727 -0.320309 -1.71817e-17)
(-0.253805 3.05198 -2.7342e-17)
(-0.550527 8.19726 0)
(7.31933 1.40059 5.27107e-18)
(0.331968 6.62069 -1.28199e-16)
(0.505119 2.47275 0)
(-2.44924 0.155488 0)
(-0.162105 2.94285 2.18662e-17)
(3.37799 5.77644 7.77829e-17)
(-0.219866 8.33757 0)
(-0.524028 7.62865 1.03203e-16)
(0.0511178 6.60925 0)
(1.71143 3.41644 1.64856e-17)
(9.21587 0.409125 5.82454e-17)
(3.35366 5.40885 -1.41001e-16)
(-0.28789 3.78304 0)
(0.610527 4.78404 1.52685e-16)
(-1.10947 -0.818578 -2.68476e-16)
(0.0172731 3.46247 1.41786e-16)
(2.19704 5.38197 -5.94814e-19)
(-1.0488 -1.32568 2.03679e-16)
(-0.3309 3.35598 -1.23372e-16)
(7.63093 1.74516 2.12846e-18)
(-0.0566058 0.311005 -8.19366e-17)
(9.48502 0.0371533 -2.66758e-20)
(-0.199586 8.37205 4.92475e-19)
(-0.0106743 0.116176 -4.18536e-16)
(-0.0365708 4.80523 -2.37841e-17)
(0.050748 4.58652 -5.35628e-17)
(0.535607 2.10483 3.6211e-18)
(1.27948 0.463802 -3.11417e-17)
(6.48974 4.48547 1.84789e-17)
(-0.584757 7.94965 9.75579e-17)
(11.467 3.84672 -3.70143e-19)
(-0.250237 7.91757 2.42864e-17)
(0.335125 7.089 9.21154e-18)
(1.21622 8.32834 -8.34917e-17)
(-0.375704 -1.07512 -1.65131e-16)
(9.17258 0.173725 9.35767e-17)
(0.572789 5.13731 0)
(-0.263428 8.41282 5.29593e-17)
(7.49731 1.55926 -1.1342e-18)
(2.70692 4.88907 -1.76326e-17)
(0.167945 2.53309 -5.92938e-17)
(1.00811 1.82893 0)
(7.57956 2.12846 -2.24045e-18)
(-0.223143 4.57857 2.49775e-16)
(0.333138 6.524 6.34735e-17)
(-0.0886069 2.70501 0)
(-1.45067 -1.06696 1.13249e-16)
(9.90208 5.12668 -1.09454e-17)
(-0.417369 7.76665 2.87848e-17)
(-0.0993749 6.38849 -3.39593e-16)
(-0.447461 7.03186 1.59246e-18)
(0.593527 5.81976 0)
(0.348421 5.40895 -2.03207e-17)
(-0.589507 0.715696 1.41398e-16)
(-0.217162 6.49205 -1.0241e-16)
(-0.213883 6.43 1.09665e-16)
(-0.0138045 -0.516671 2.05502e-16)
(7.38986 2.00382 -3.91993e-18)
(-0.00965724 3.96233 -3.88836e-19)
(-0.455533 5.86154 1.47485e-19)
(-0.456277 6.05809 -7.03708e-17)
(-0.610319 8.11007 -1.98412e-16)
(-0.185796 7.60376 -3.04112e-17)
(2.46637 5.59176 -7.16147e-17)
(-0.30017 8.44505 1.56103e-17)
(5.95728 3.03223 1.00739e-16)
(-0.399996 8.10581 -1.59369e-17)
(0.282004 1.92711 -5.92917e-17)
(-0.476944 6.11984 -9.54478e-20)
(-0.0767913 6.79873 5.69545e-17)
(-0.0837183 1.88516 7.71489e-17)
(-0.271769 0.925181 3.84654e-17)
(-0.445334 6.14948 9.44002e-18)
(3.10612 5.1475 0)
(0.301737 6.734 0)
(-0.414904 6.19909 4.63748e-18)
(0.0279259 2.73372 1.12098e-16)
(-0.351492 6.99744 -1.06086e-17)
(-2.10629 -0.389828 1.41425e-16)
(1.27106 6.00039 -3.93132e-19)
(-0.297812 1.73177 0)
(0.117023 7.13697 -1.15143e-16)
(-0.3857 6.24583 0)
(-0.093831 5.94062 -5.36973e-17)
(-0.0995904 3.15472 -3.03699e-16)
(-0.368793 3.85648 -6.55199e-17)
(1.70628 5.74488 2.94253e-17)
(-0.345965 6.26621 1.02028e-17)
(-0.306527 -1.43151 3.14675e-16)
(-0.974185 0.715284 2.02704e-19)
(1.28148 -0.377469 9.80029e-17)
(0.932892 1.0401 -1.91703e-16)
(11.3631 1.80225 2.17542e-18)
(0.287736 4.2192 1.07486e-16)
(0.264537 4.36474 1.62988e-16)
(0.167317 4.81263 -5.00686e-20)
(0.270828 4.43505 0)
(0.0877574 5.07299 -9.08695e-17)
(0.0432046 5.0116 -6.81283e-17)
(0.182401 4.51957 -7.39903e-17)
(-0.0863621 5.38735 -1.32385e-16)
(0.0179116 4.75 2.19707e-16)
(-0.128457 5.37814 5.70224e-17)
(-0.213968 -1.52966 0)
(9.06005 0.0828707 5.70359e-19)
(-0.0594086 -1.16105 -8.02995e-17)
(-0.0550174 -0.595415 2.41392e-16)
(-1.12938 -0.200076 -3.2426e-16)
(-0.246539 0.241099 -1.05129e-18)
(0.0272092 1.0437 0)
(0.474379 0.988007 -7.56347e-17)
(1.39654 0.152879 4.7019e-17)
(0.504245 0.199437 6.02174e-17)
(0.59113 0.0973214 5.68942e-17)
(0.510435 -0.301068 -1.93917e-16)
(-0.173059 0.103303 -1.72227e-16)
(-0.089403 -1.47214 0)
(-0.523283 0.564612 -8.6244e-17)
(0.142675 -0.38898 2.80929e-16)
(0.509284 0.15883 8.55435e-17)
(7.72421 0.469631 -2.48582e-18)
(0.426964 -1.41469 0)
(0.76854 -0.897014 2.31995e-16)
(0.422962 0.230778 -1.13539e-16)
(-1.11907 -0.202885 1.55249e-16)
(7.74712 0.221071 -3.4148e-17)
(-0.0996943 -0.524147 -2.52113e-16)
(0.864633 -0.948319 -1.36377e-16)
(-1.21184 -0.696688 1.7179e-16)
(-0.37005 -1.5643 2.6786e-16)
(7.69266 0.0195062 1.23222e-19)
(-0.274272 -0.93562 -1.89158e-16)
(7.76735 -0.0949208 -3.00437e-17)
(0.310925 -1.44433 -5.59345e-16)
(0.399914 -1.37856 0)
(-0.479858 -1.47791 -2.5642e-18)
(0.559569 -0.0692976 0)
(9.05141 -0.0087149 4.20161e-17)
(9.4124 0.0630146 1.2533e-16)
(-0.125747 -1.35795 9.84458e-17)
(-0.456748 0.85125 -9.14499e-17)
(-0.666842 0.675678 5.21933e-16)
(0.0461448 -1.34388 0)
(0.246394 -0.162898 0)
(-0.619285 0.670557 0)
(8.82219 -0.00977954 2.95852e-17)
(-0.79164 0.0985745 1.81903e-16)
(-1.5538 0.291276 1.29451e-17)
(0.612765 -0.247422 2.29113e-16)
(-0.286195 -0.64398 0)
(-1.39601 0.184621 0)
(0.954832 0.0357164 1.7831e-17)
(-0.479769 0.851021 1.25679e-16)
(8.30465 -0.00541198 -8.45366e-17)
(-0.19395 -0.45289 1.89254e-16)
(0.83683 0.423899 1.32951e-16)
(0.0329011 0.93409 2.48291e-16)
(0.932692 -0.42958 -2.86447e-16)
(-0.506293 0.0292186 -1.54424e-16)
(0.614267 0.718452 1.16555e-16)
(8.09059 0.119912 1.99874e-17)
(0.154574 0.279424 -2.39987e-16)
(-0.51429 0.957978 -4.1172e-16)
(0.33793 1.73852 1.20645e-16)
(0.421129 1.04678 -3.2115e-16)
(-0.318931 1.27015 7.09679e-16)
(0.0661347 0.877331 -1.55449e-16)
(8.17748 0.275669 -4.00421e-17)
(9.27065 0.167633 -1.03086e-16)
(0.673278 -1.03921 -2.42287e-16)
(-0.349258 1.08803 1.72147e-16)
(0.36915 0.970483 1.55357e-16)
(-0.549357 0.280874 0)
(0.464564 0.902422 1.8702e-16)
(0.513411 -0.772528 2.68466e-16)
(-0.188856 0.912758 0)
(1.50763 0.982263 0)
(0.31986 1.14185 1.65414e-16)
(-1.01649 0.0302933 -1.75009e-16)
(0.498823 1.76566 -6.20749e-17)
(0.103727 1.09629 1.09974e-16)
(-0.0513861 -1.04182 1.59105e-16)
(8.98632 0.289746 -3.29282e-17)
(0.553041 1.46387 0)
(0.03394 1.77893 -2.6401e-16)
(-0.262491 1.12296 -1.59766e-16)
(0.155551 -0.440698 -7.96844e-17)
(0.112162 1.50087 -7.95857e-17)
(-0.658962 -0.644463 -9.82532e-17)
(8.34016 0.541942 6.6993e-17)
(-0.0750849 6.90627 -2.61856e-19)
(-0.667104 -1.48507 0)
(0.0500147 1.82443 2.05735e-17)
(1.67573 3.88687 1.03009e-16)
(-0.100083 3.29686 -1.58645e-16)
(-0.0301422 2.24531 0)
(-0.175649 -0.0606198 0)
(-0.367807 5.95025 0)
(1.42702 1.35758 2.88486e-16)
(0.0335691 2.72914 1.95303e-18)
(0.37644 3.62271 2.56862e-17)
(-0.193209 1.70734 4.77227e-17)
(-0.217369 -0.872381 1.94847e-16)
(-0.427947 5.31026 1.01046e-16)
(-0.123481 0.78696 -2.57013e-16)
(-0.337415 7.81591 -3.72703e-17)
(-0.234283 2.68606 3.02577e-16)
(-0.313267 2.83685 2.92772e-16)
(0.135067 2.70768 4.43702e-17)
(0.362112 4.575 -5.81475e-18)
(0.764315 5.01834 -4.34688e-17)
(-0.439825 5.57569 0)
(-0.299943 6.19092 0)
(0.274469 6.33582 1.60522e-16)
(-0.0429188 0.761179 2.99639e-16)
(-0.322006 8.45713 0)
(-0.297081 6.74451 -2.04123e-16)
(2.98683 0.0957463 -2.13965e-16)
(-0.109739 1.102 -5.26301e-16)
(-0.724243 -0.716204 1.63824e-17)
(0.203449 1.69387 -1.20074e-16)
(0.450786 4.25611 3.79156e-18)
(2.89319 6.97985 0)
(-0.218744 6.05482 2.47685e-17)
(8.77097 0.884223 -6.02523e-18)
(4.82859 4.32237 6.06885e-17)
(-0.231028 3.04886 0)
(5.51175 7.61468 0)
(-0.155428 2.33698 6.09343e-17)
(-0.170602 3.39154 0)
(-0.01227 -0.425081 -1.24754e-17)
(0.254413 2.42255 -8.11978e-17)
(-0.491234 8.06915 9.63452e-17)
(-0.304975 5.51595 -2.21494e-17)
(3.9972 5.89475 -3.24823e-17)
(-0.0503114 4.67824 -4.24486e-17)
(-0.541859 1.94228 -7.9277e-17)
(-0.0720422 1.59044 7.18392e-17)
(0.791516 5.66209 3.67985e-17)
(-0.437458 -0.478645 1.34236e-16)
(-0.303922 3.96379 0)
(0.148159 3.98235 9.12857e-18)
(0.366265 3.89338 8.88535e-19)
(-0.346178 5.46199 0)
(2.10871 6.07081 1.66615e-18)
(0.62579 3.09401 1.48859e-16)
(1.35776 6.08337 -1.01968e-16)
(1.86782 5.89178 1.40139e-16)
(-0.0660547 7.32084 2.00911e-20)
(-0.0286001 6.93795 -9.02775e-17)
(-0.315274 3.35861 -3.79572e-16)
(-0.194459 1.4876 0)
(-0.0948567 0.214342 1.14957e-16)
(0.233321 3.17062 -2.39252e-17)
(-0.648506 6.30999 2.23695e-17)
(-0.274223 4.48054 3.66061e-19)
(-0.0285531 5.00468 -9.8687e-17)
(-0.176789 6.80493 -2.16468e-19)
(-0.405781 5.56945 0)
(-0.125459 -0.815017 -1.7339e-16)
(0.0571683 6.53501 2.84137e-16)
(4.32605 3.30685 0)
(9.17254 0.517203 2.35275e-18)
(1.10453 6.32816 2.85539e-17)
(-0.178015 2.34239 5.68834e-18)
(-0.394068 7.00447 3.01376e-17)
(0.0931839 2.78893 0)
(1.69888 5.84939 9.72131e-17)
(0.566672 5.75088 -1.71611e-16)
(2.6908 11.5286 4.78955e-18)
(2.56065 5.77802 5.29827e-17)
(-0.381006 1.00441 -4.94184e-17)
(0.841967 -0.175715 -2.18208e-16)
(-0.572549 -0.575172 6.60494e-17)
(-0.29658 2.35646 -7.39918e-17)
(-0.204301 6.15279 1.68965e-16)
(0.0421278 3.97429 -1.23038e-17)
(-0.37173 5.93245 -4.51801e-17)
(-0.613302 8.20929 9.91087e-17)
(10.7314 0.154945 -1.06248e-17)
(-0.856855 -0.526827 -3.96216e-17)
(0.800494 2.05774 -1.00468e-16)
(-0.0479705 7.09752 -1.73984e-17)
(2.79245 2.50735 -1.18147e-17)
(1.71607 4.38407 -2.09127e-16)
(0.0150636 1.69694 -7.11433e-17)
(-0.229693 6.78651 9.8568e-17)
(-0.311214 2.97658 6.75911e-17)
(0.831412 5.12754 -6.50785e-17)
(-0.440441 6.09769 -1.14853e-16)
(-0.349962 -0.315223 0)
(2.47918 5.92731 -5.12711e-17)
(0.291423 3.17827 0)
(-0.349519 3.33016 7.80134e-17)
(-0.0392315 3.77922 0)
(-0.513407 -0.19554 4.18685e-16)
(-0.112115 4.59501 -1.26888e-16)
(-0.284989 5.56466 2.6922e-17)
(1.31337 6.01501 7.6888e-17)
(5.64581 0.0877311 -7.4524e-17)
(-0.0376241 1.46245 1.28707e-16)
(-0.330515 5.10304 -1.21736e-16)
(0.937755 3.81181 6.39962e-17)
(-0.612719 8.24567 -9.85585e-17)
(5.4842 3.70169 -1.9301e-16)
(-0.883461 0.333122 5.81314e-17)
(-0.351751 6.94104 0)
(-0.398176 6.27922 -2.12195e-17)
(-0.3615 2.66471 5.4621e-17)
(1.14485 5.72093 -1.84165e-17)
(0.474612 6.24288 9.43561e-17)
(1.79208 0.372024 1.61885e-16)
(1.81929 5.15568 1.57337e-17)
(0.415383 2.36029 1.04266e-16)
(-0.241056 7.00681 -3.80313e-18)
(-0.151736 3.67178 1.07734e-16)
(1.87072 5.94548 -9.01837e-17)
(1.28393 -0.608645 4.89725e-17)
(0.532777 5.79622 -5.87972e-17)
(-0.457041 6.71553 -1.11775e-16)
(1.28371 5.5607 -4.46945e-17)
(1.22973 1.66346 0)
(9.15199 0.325908 -1.53804e-16)
(7.92388 1.69774 1.05249e-17)
(-0.477022 6.25523 7.49996e-17)
(-0.028438 2.49387 3.85692e-16)
(-0.22583 3.90243 2.25536e-17)
(0.0823607 1.74723 0)
(0.817762 0.103844 -1.61934e-16)
(-0.998258 1.13801 5.0027e-17)
(1.04418 1.44677 -2.23467e-16)
(-0.129997 4.5247 -4.30125e-19)
(-1.9774 -0.814375 -1.10876e-17)
(-0.29607 6.31341 3.60706e-17)
(2.51482 1.70899 -7.35496e-18)
(9.21727 0.488117 0)
(-0.195224 5.43536 0)
(0.603569 2.25263 -5.07559e-17)
(0.365596 -0.521109 1.96761e-16)
(9.85193 0.551024 0)
(0.168019 0.00622341 2.23195e-19)
(0.582716 4.82007 -2.4069e-16)
(0.715564 2.81574 0)
(1.20097 3.24031 0)
(-0.524477 3.00626 -8.80812e-17)
(1.43003 5.54023 1.71625e-17)
(8.58269 0.42909 0)
(-2.57892 -0.397794 1.15488e-16)
(-0.0406024 -0.56528 -1.22038e-16)
(0.111042 3.26088 0)
(-0.298356 5.06062 0)
(0.318533 -1.35549 1.40326e-16)
(1.03263 0.410986 -7.30264e-18)
(0.095069 2.1687 1.06738e-16)
(-0.0591021 3.04025 -1.96233e-16)
(-0.173973 7.85181 3.59295e-17)
(0.434283 0.360655 0)
(-0.490433 0.207824 0)
(-0.0317412 5.44804 -9.34997e-17)
(4.64449 0.453985 -2.2444e-18)
(0.892287 1.69211 -2.03145e-16)
(-0.771363 0.102821 1.82055e-17)
(4.16734 5.31789 -3.35291e-18)
(3.15418 0.465876 0)
(0.965877 6.23273 0)
(-0.380618 5.38135 -4.67065e-18)
(-0.0800099 0.294368 0)
(-0.249076 5.90472 0)
(10.7443 0.625258 -1.26877e-18)
(-0.0887278 3.45544 -2.20631e-16)
(3.89751 0.462426 0)
(0.818775 4.85199 -2.93166e-18)
(-0.418298 7.88152 1.83256e-17)
(-0.502921 6.04591 5.25101e-17)
(-0.268578 2.67188 -1.38526e-16)
(0.4712 6.85982 -2.76577e-18)
(-0.197565 7.51937 2.14648e-17)
(-0.350963 0.431568 2.35903e-19)
(-0.197396 7.48953 -2.09032e-16)
(0.123437 2.52996 -1.46074e-19)
(-0.376948 2.58476 1.66959e-16)
(-0.176412 1.68349 -2.43326e-16)
(-0.449286 7.20114 1.05293e-16)
(-0.494088 7.55682 0)
(0.0226448 6.97478 1.43988e-18)
(9.50118 0.0892664 -9.1327e-18)
(-0.341992 4.57143 0)
(-1.55824 0.418995 3.81048e-16)
(2.15032 1.00624 1.51425e-17)
(0.0806242 3.65683 0)
(-0.0270249 2.4627 2.74603e-16)
(1.20468 7.1579 0)
(1.92205 8.01345 2.62231e-17)
(0.470417 0.982657 0)
(4.64946 1.70064 1.58963e-17)
(0.907084 2.05052 -2.44796e-16)
(-0.390349 1.19816 -1.01271e-16)
(0.325801 1.23137 -1.875e-17)
(-0.228439 2.5275 1.6704e-16)
(-0.17236 7.80561 -3.3616e-17)
(5.34516 0.44419 7.91992e-18)
(8.09161 0.366829 0)
(-0.82053 -0.785467 -1.85299e-17)
(-0.0224305 5.32937 0)
(-0.474041 6.67836 0)
(0.211612 2.0757 -1.16291e-16)
(0.836038 3.22257 0)
(0.383174 3.59946 0)
(0.596199 4.65355 -2.84202e-17)
(1.07909 0.0997134 0)
(-0.494262 -1.35233 1.44702e-16)
(-0.21896 5.8045 4.27834e-17)
(-0.425075 -0.483806 2.16124e-16)
(-0.420296 1.76678 1.05194e-16)
(0.585379 3.54408 1.32643e-17)
(0.552449 1.1956 -5.67998e-17)
(0.0444094 -1.0277 -3.55607e-16)
(12.8368 2.71105 0)
(-0.116404 5.66106 0)
(-0.463428 8.32036 -1.00925e-16)
(0.14669 1.06599 -8.46901e-19)
(-0.158506 6.89042 8.81885e-18)
(-0.630389 1.51223 1.83449e-17)
(9.97947 2.40029 3.22543e-18)
(0.890272 1.35364 4.5004e-17)
(-0.309234 2.24969 -6.11233e-17)
(-0.84283 0.43654 3.46406e-16)
(-0.346476 -0.783817 -2.4655e-16)
(0.0114877 6.64519 0)
(0.261166 -1.35475 3.73537e-16)
(0.284039 -0.816453 -2.19854e-16)
(-0.438847 6.99142 -1.92106e-17)
(0.364327 2.94134 -1.33469e-17)
(0.0235617 1.96779 -3.15342e-16)
(0.0115518 6.24591 -4.42153e-18)
(-0.0415874 5.69995 1.31173e-16)
(-0.356171 7.79492 5.50138e-17)
(-0.507979 8.14934 0)
(-0.166345 5.0375 5.76821e-17)
(-0.965757 -0.0370604 6.72331e-17)
(0.0269902 2.51541 0)
(-0.605287 7.28977 -8.9923e-17)
(0.268843 1.88483 -4.61978e-16)
(0.926435 6.19007 0)
(-1.79312 0.381919 -1.10666e-16)
(-0.296183 4.68122 0)
(0.805505 -0.890629 3.78618e-18)
(1.69611 0.444768 -3.26463e-18)
(8.51714 1.43878 2.08615e-18)
(0.744255 4.65607 0)
(-0.0996194 5.80097 1.12581e-16)
(-0.09818 6.94972 -7.422e-17)
(0.167027 5.71662 0)
(0.150652 -0.287146 -1.17638e-16)
(-0.414809 1.4049 -1.10622e-16)
(-0.109069 6.78963 -7.05985e-17)
(-0.529059 6.74266 6.7328e-17)
(-0.189671 6.55673 1.58075e-16)
(-0.903835 0.0140925 -3.72515e-17)
(-1.11904 -0.858397 0)
(0.136485 6.42031 0)
(-1.20352 -0.6345 2.86212e-17)
(-0.380967 3.86681 1.05707e-16)
(-0.0775839 7.15616 -2.55646e-17)
(0.471136 0.0770236 1.17471e-16)
(0.0581435 -0.0464073 -2.12467e-16)
(0.395219 3.7495 0)
(0.264846 3.88307 7.31548e-17)
(9.92482 7.47793 -1.27072e-18)
(-0.217333 6.39436 2.22774e-17)
(-0.346182 7.70278 -9.38658e-18)
(-0.0429398 2.41962 -6.38938e-17)
(0.572107 5.46572 1.3754e-16)
(4.95237 2.20838 2.56296e-18)
(-0.79769 -0.0564416 -1.54067e-16)
(0.791333 4.09668 0)
(10.2567 0.884632 2.45833e-18)
(-0.391836 7.42659 3.65811e-17)
(7.6296 0.749624 1.23533e-18)
(0.379024 3.04667 -9.1856e-17)
(0.00349925 -1.44555 -1.2864e-16)
(-0.0381366 5.69185 -1.76089e-16)
(-0.449575 6.98245 1.96124e-19)
(1.34226 0.574887 3.02189e-16)
(0.68732 5.82335 -1.02329e-16)
(-0.148951 4.74843 -2.15907e-16)
(-0.336377 5.33376 1.49324e-19)
(2.42036 0.463251 1.23504e-17)
(0.00504418 5.42269 -4.11557e-17)
(-0.434537 8.09955 1.86306e-17)
(0.183936 6.93728 -1.68568e-18)
(0.0303978 -1.06476 0)
(0.656842 -0.255721 0)
(-0.083854 5.56552 -4.7774e-17)
(6.04719 0.428137 1.75965e-18)
(7.64833 0.253888 -1.48211e-17)
(-0.0871438 6.89884 1.04326e-16)
(1.11332 5.25366 -2.2011e-17)
(2.96712 0.145038 7.44925e-17)
(1.97246 -0.0365452 8.76316e-18)
(0.0864607 5.2888 3.63823e-17)
(-0.406578 5.28575 -7.3441e-17)
(-0.438069 2.92131 2.92062e-16)
(-0.370442 4.40234 -6.96761e-17)
(0.746425 0.824778 0)
(0.204816 1.14295 -9.05517e-17)
(-0.257221 4.78903 -7.5852e-17)
(-0.237017 6.13118 0)
(8.29308 1.00122 -9.12253e-18)
(-1.24857 0.550492 6.39811e-17)
(5.43225 0.558253 0)
(0.139509 2.70342 0)
(6.57208 3.04975 -2.58188e-17)
(-0.210673 7.90671 1.11003e-17)
(0.234963 6.98176 -4.74009e-18)
(-0.291661 2.44815 0)
(0.147024 3.30013 5.53299e-17)
(0.412065 -0.276474 7.40588e-16)
(-1.96506 -0.342519 -4.00851e-16)
(-0.419157 0.557936 -4.74949e-17)
(1.10114 1.03868 6.9247e-17)
(-0.316 -0.206443 2.00512e-16)
(-1.81204 0.278652 0)
(-0.0126689 3.36665 -5.41462e-17)
(1.07529 5.82721 -1.3999e-18)
(0.912257 2.80613 7.11549e-17)
(0.15567 4.7991 -2.12815e-17)
(-0.129518 3.81391 0)
(-0.525753 7.71297 5.68932e-17)
(-0.0636483 3.70205 6.16457e-17)
(-1.35615 -0.787889 0)
(9.35131 0.24349 1.41875e-16)
(-0.444381 7.62823 0)
(-0.228186 5.13873 0)
(3.93702 5.11356 -2.60614e-18)
(-0.610984 7.38383 1.10681e-16)
(0.0270271 3.39242 1.22822e-16)
(1.49454 0.13511 -2.20314e-16)
(0.140359 -0.848036 1.97217e-16)
(0.517963 0.153122 2.39818e-16)
(-0.354198 6.10625 0)
(-0.476067 7.92971 5.49178e-22)
(-0.247907 5.2303 -1.31322e-16)
(7.27651 -0.217125 -7.58203e-17)
(-1.20086 -0.733887 5.1308e-17)
(-0.433856 7.39897 1.96099e-16)
(0.897039 0.218942 -1.38169e-16)
(2.75283 2.67262 1.43468e-17)
(6.28604 -0.198776 4.59776e-17)
(3.85966 0.0639178 -7.11197e-17)
(0.11199 8.12728 8.06859e-17)
(0.0714719 5.76426 2.94587e-19)
(0.0760971 5.68238 6.7707e-17)
(0.0213964 5.48077 6.21396e-19)
(0.055603 5.57774 0)
(0.12189 8.76981 -7.16253e-17)
(0.0551031 5.74469 -1.2956e-16)
(-0.0077949 4.79203 -6.88292e-19)
(-0.0544646 5.11532 -1.78952e-17)
(-0.0524194 4.84761 0)
(0.0524344 4.90954 3.91501e-17)
(0.11784 7.69505 0)
(0.265522 9.47535 0)
(0.0776651 5.12197 -5.17971e-17)
(0.212336 6.89542 -3.6816e-18)
(0.165363 7.31761 -3.51947e-18)
(0.0842108 5.24576 1.648e-17)
(0.0236221 5.61528 6.7783e-17)
(-0.0021353 5.51857 0)
(0.0633701 5.29181 -2.28388e-17)
(-0.00271144 5.45122 0)
(0.00854899 5.46569 0)
(0.0306978 5.28654 1.6949e-17)
(0.0197776 5.49351 0)
(0.0112097 3.35261 7.33461e-17)
(5.25235 4.61988 -5.10116e-17)
(-0.303041 0.0951066 2.09796e-16)
(0.842658 1.52192 0)
(0.706263 4.67155 -9.55778e-17)
(-0.626208 -0.0581074 9.68153e-17)
(-0.0372813 -0.165961 5.4257e-16)
(7.18884 0.98117 -2.03774e-17)
(-0.231306 7.90168 -1.3688e-17)
(0.444545 7.31256 0)
(-0.401615 0.182158 5.11556e-16)
(2.31736 -0.511285 2.2069e-16)
(-0.92752 1.43433 0)
(5.44741 0.0583203 3.56633e-17)
(0.330826 -0.582768 -2.44129e-16)
(0.0889102 0.545439 -1.50415e-16)
(6.12228 3.70723 8.79196e-17)
(0.946141 2.21105 -5.10484e-17)
(-0.0382569 3.96057 6.6281e-17)
(0.802723 0.131924 -5.05202e-17)
(-0.574809 -0.163292 -1.06415e-16)
(7.52782 1.10256 -3.06146e-19)
(-1.16086 -0.119162 -2.48275e-16)
(0.0164069 5.53414 0)
(-0.0151174 7.29964 2.08096e-16)
(0.572567 5.81786 5.50496e-19)
(-0.0229267 1.49192 5.90036e-17)
(0.629016 1.21262 0)
(9.83187 0.041371 3.17808e-17)
(-0.204024 2.75364 -1.04892e-16)
(1.12079 0.160826 3.84921e-18)
(-0.0490922 3.17294 9.66745e-17)
(-0.374103 8.39106 0)
(-0.147066 3.14064 6.18798e-18)
(-0.335503 3.61751 -4.51704e-17)
(7.84654 2.25087 2.4073e-17)
(-0.932366 -1.47159 2.06318e-16)
(0.535242 -0.970649 -2.36576e-16)
(0.449541 -1.053 1.62416e-16)
(-1.77523 -0.366204 -5.38059e-17)
(-0.250582 4.7966 2.29557e-17)
(-0.103033 6.335 1.99307e-20)
(0.138061 5.8006 -1.52519e-17)
(0.686313 1.65845 0)
(-0.206606 5.53718 8.83061e-20)
(-0.353228 1.04765 4.61213e-17)
(1.08132 0.144975 1.14116e-16)
(0.636819 -1.43225 0)
(-0.608614 1.04521 -2.71987e-16)
(0.0373617 1.78562 0)
(10.1073 0.680201 2.27508e-18)
(-0.394361 4.9211 0)
(-0.212915 5.9712 -3.9523e-17)
(-0.181531 2.4249 1.11141e-16)
(-0.939582 -1.63066 2.10297e-16)
(1.09112 -0.0119828 0)
(-1.07665 -0.27178 -2.97155e-17)
(0.00453813 5.33004 2.91466e-19)
(-0.247757 -1.19467 0)
(-0.730704 -0.127409 0)