/*--------------------------------*- C++ -*----------------------------------*\
| =========                 |                                                 |
| \\      /  F ield         | OpenFOAM: The Open Source CFD Toolbox           |
|  \\    /   O peration     | Version:  v1912                                 |
|   \\  /    A nd           | Website:  www.openfoam.com                      |
|    \\/     M anipulation  |                                                 |
\*---------------------------------------------------------------------------*/
FoamFile
{
    version     2.0;
    format      ascii;
    class       volScalarField;
    location    "0.9";
    object      epsilon;
}
// * * * * * * * * * * * * * * * * * * * * * * * * * * * * * * * * * * * * * //

dimensions      [0 2 -3 0 0 0 0];


internalField   nonuniform List<scalar> 
1431
(
114.076
42.4593
2.16029
0.240374
5.06586
39.1
0.408973
369.837
53.2399
0.387197
109.702
274.4
40.1748
11.8154
25.708
0.374066
23.9544
10.4003
20.6534
15.7938
229.947
14.5695
57.1449
315.95
57.5206
23.7264
72.1348
13.3882
69.5138
33.2134
24.6633
36.3527
22.3167
7.4287
44.8804
7.57434
88.9205
0.515191
0.263832
29.317
81.3902
84.5799
33.5378
0.27566
61.854
4.88356
27.2712
59.5033
0.408701
0.386303
32.2262
0.328802
37.1178
305.955
29.6655
23.3213
5.82958
301.862
42.4733
17.2755
16.6335
0.313559
0.498303
0.471058
0.295492
0.425216
8.97012
0.908578
2.79858
20.4034
315.761
9.93605
0.220721
6.62245
14.7382
6.8838
4.62702
1.24922
0.407011
6.59569
29.1926
4.12721
161.318
34.5756
164.717
0.2679
0.24755
26.5961
195.779
219.915
37.759
6.70313
1.00805
0.359195
26.9331
36.3591
312.887
124.288
0.276371
14.685
31.1171
0.271836
29.7855
7.16547
3.12175
39.2785
49.6963
117.773
50.2177
33.9767
11.6019
47.5645
3.49616
82.676
40.2331
5.62909
13.1709
0.274328
0.378536
0.494703
26.92
39.1199
388.504
17.4472
258.994
0.567246
2.69966
14.9712
3.14393
2.73503
27.7007
15.2904
2.75714
21.4433
27.228
0.519132
2.65359
0.342403
168.167
1.12803
0.691252
20.4302
39.976
4.43103
66.5673
22.4144
0.740856
33.8744
0.373439
8.04785
0.500962
3.47407
31.8257
0.437369
41.9711
1.24985
160.004
69.7238
201.36
0.213754
195.237
47.7805
0.283842
0.217351
255.451
98.0542
89.6232
37.8153
0.39603
87.0492
197.295
39.2634
25.4035
172.144
55.5781
159.227
0.800446
46.5823
36.6379
44.8731
0.530699
0.596699
28.4485
480.694
43.2126
96.4574
138.587
72.4465
26.593
194.016
21.107
29.6805
29.8358
152.505
0.331556
83.8885
121.029
37.8077
2.24469
76.2408
33.8886
0.260111
77.999
0.335838
42.1732
22.995
42.4776
2.5759
199.728
39.1581
190.029
0.333977
46.575
40.7438
184.297
25.7182
32.9285
38.3516
28.2618
68.0758
41.8773
27.8254
72.7628
0.228978
45.194
256.799
102.043
104.727
42.0489
41.8992
314.483
23.5974
37.5831
28.0539
37.592
196.2
42.8716
39.2786
20.47
24.2984
1.23323
41.1646
222.648
30.6221
28.4302
37.7604
35.0106
81.3245
44.431
0.650901
9.89792
162.145
0.208218
0.229602
21.8945
70.7805
0.212331
308.718
171.008
32.1107
41.6913
166.471
28.4856
0.330737
50.459
90.3096
55.174
231.095
56.0038
5.82386
54.7529
38.6926
32.8264
16.8032
187.262
25.4815
177.544
40.0915
55.0342
61.0011
44.2753
78.3167
22.3992
25.8146
13.6742
147.783
74.5785
146.825
181.644
43.1946
2.1896
57.7027
104.764
38.1687
29.3036
43.8405
171.716
111.356
22.9967
63.074
37.7998
12.8958
24.869
31.5082
50.2739
0.220816
55.082
31.6204
85.1419
69.8855
94.7724
3.39778
0.291365
96.8666
51.2331
113.742
39.0556
21.0498
1.54463
739.084
52.2817
99.9506
8.27378
33.9654
38.9644
1.51871
11.624
60.1643
294.609
0.236125
89.3575
2.41742
58.287
17.6385
0.376409
31.4174
59.0886
186.116
39.3085
101.064
6.05879
31.9331
76.505
77.3407
49.9982
28.1917
35.4606
172.847
75.658
36.9476
41.5277
3.39949
34.4337
55.4058
5.89488
24.9036
179.288
139.651
153.033
77.58
17.0953
78.7177
74.6503
17.3499
1.87023
144.157
57.9893
586.195
45.357
20.1038
100.827
6.69665
210.116
37.4784
71.9104
358.88
62.1187
17.358
15.0693
436.38
54.8265
39.7519
26.3147
8.35113
757.327
44.8253
41.4877
50.9201
35.2628
37.4244
4.30457
43.8243
44.0638
0.229118
188.165
35.9292
56.1401
58.4391
62.2946
41.0305
59.4328
66.9794
142.898
67.2733
13.7014
53.7799
40.2135
28.2472
7.40845
52.7894
70.5241
39.5113
51.9568
34.5605
48.228
6.13215
45.3807
37.9046
39.3075
51.3253
54.4428
40.5021
26.5844
49.7104
50.8629
9.5386
7.51472
27.1963
2.39823
251.686
60.5035
65.876
71.2503
72.2833
72.6276
67.609
63.3082
69.5032
63.1084
67.6254
8.35936
166.068
4.24169
2.42391
3.50369
1.97713
1.29167
1.34943
32.083
15.5542
16.1789
0.426168
0.388316
8.47993
0.396694
0.38274
19.1042
265.316
10.382
3.83081
16.6751
0.464065
254.658
0.356144
3.61814
0.543722
7.44854
248.35
0.509319
241.06
0.309137
0.300551
4.65706
26.4595
169.196
157.183
0.59295
1.59493
1.42015
0.370716
23.6346
1.73419
174.228
3.78483
4.68977
24.4808
4.18809
3.39859
2.46727
4.00255
189.611
1.4261
2.06202
4.81981
27.0183
3.82613
1.76737
196.457
3.73229
34.4038
22.3267
11.3993
23.7647
34.0574
191.212
162.527
4.13414
8.42729
7.34513
13.5191
5.30204
31.3501
2.32177
1.66823
37.5253
0.22837
18.924
7.61423
39.3688
170.883
48.9123
12.4054
35.1336
0.235062
13.8864
0.224375
185.6
28.9284
10.0156
23.1204
40.0773
25.4121
24.3368
83.1803
66.0314
3.65364
24.4599
163.908
15.0331
17.3722
50.9397
43.2845
86.5016
19.8086
57.1958
22.5021
32.9388
143.657
53.6427
71.8884
40.5046
35.9253
62.9936
49.2002
0.469596
83.7908
0.218877
24.875
146.954
313.853
73.3502
172.031
116.238
33.0239
532.361
34.8352
25.3312
0.219364
28.3302
63.2286
47.4987
90.7896
60.0921
14.952
58.5642
35.0163
0.232536
165.856
49.8965
59.3279
47.9182
65.1463
59.897
44.8761
50.765
36.5723
27.2782
24.052
81.2792
21.2539
36.5935
254.298
31.2319
33.2738
48.4977
59.0652
23.6208
41.6597
90.5195
183.614
165.306
23.2361
51.7122
23.2308
44.2895
39.9151
98.0786
60.1377
4.19167
2.07277
0.229406
29.6922
44.0018
48.9786
70.1617
59.5651
219.475
0.239109
19.6179
44.2035
53.7518
44.2062
47.3164
46.8957
31.5477
42.8678
62.84
7.59597
58.2224
23.0106
33.4047
31.0529
0.337453
57.2888
47.2987
41.5626
315.492
10.1195
74.1834
31.2626
64.8574
133.253
2.0203
51.2789
195.596
28.4163
37.4581
37.0049
234.065
49.6323
25.84
78.7977
140.014
48.4681
3.36397
37.5963
53.9012
47.6218
9.53712
191.974
196.337
60.1777
29.7887
37.5873
28.0768
43.99
17.5559
6.0201
34.2785
4.57562
50.1378
51.4646
287.205
65.3852
22.9862
28.227
296.738
19.2329
51.4131
21.6421
29.1817
22.8657
46.5532
291.788
0.469584
5.3158
38.0142
61.3246
7.29998
76.4304
99.0518
43.5023
81.9354
50.7138
16.6643
75.8356
298.776
51.3043
7.63007
103.677
193.331
41.6054
48.5358
31.3121
155.184
313.075
118.255
244.643
37.7219
46.1048
63.5912
27.6518
33.9271
46.0188
2.17484
89.1206
31.125
73.5735
8.79845
72.5967
89.7374
24.1982
159.198
42.8294
14.467
53.8724
72.6839
34.4621
111.174
157.464
0.821719
104.274
24.0593
6.47579
129.515
40.2781
76.5938
355.669
301.267
0.216086
39.5046
54.9693
13.5095
57.9083
49.2613
39.5238
28.1568
8.28126
66.3395
0.326623
17.5152
26.3843
18.158
0.31429
392.956
62.0615
58.3732
4.82717
42.7334
56.2215
381.146
135.614
42.8145
0.385785
5.42962
52.1463
0.341986
0.380314
52.2903
19.9644
30.512
38.5659
59.8958
69.0633
62.0039
33.3308
1.21544
32.7113
57.7261
27.714
42.6764
3.93931
42.8278
0.508354
108.262
171.267
42.6606
38.2455
26.2803
37.9787
68.7966
11.4715
41.0535
59.9541
36.5383
3.17362
0.235468
35.9267
0.232989
40.7306
30.1161
21.0546
11.5381
52.6485
50.5637
691.656
35.3753
42.8364
33.9998
44.1097
512.122
0.559578
32.1459
170.682
72.4605
282.821
35.2874
7.58466
81.8754
64.8551
1.84206
83.5207
41.4168
60.7724
146.614
40.7547
64.6309
19.9609
6.77641
1.60204
72.6979
401.4
327.363
27.9122
42.4251
288.338
47.1589
81.7669
49.4613
20.9621
42.8149
2.53292
1.99345
41.2252
46.4671
199.639
5.14343
329.415
31.31
169.99
45.9494
20.0527
23.7115
24.8545
6.95907
0.655487
6.02579
56.3748
3.4757
1.86397
25.3198
43.8656
56.1387
33.0215
46.9602
51.5636
44.7794
0.541313
168.387
49.7794
61.121
561.4
60.0761
111.513
33.2758
14.0218
0.428188
120.882
47.4624
89.0566
246.523
0.277769
79.232
192.078
487.806
300.448
388.484
63.3559
56.4481
61.2778
68.851
65.2442
69.254
53.6855
44.518
40.7714
43.3203
43.3104
53.5481
75.6284
39.3792
41.6355
45.5109
36.5614
53.3725
53.0191
35.4465
52.3606
50.8294
35.4106
48.3185
40.0188
142.959
0.405543
9.75826
40.3065
13.4183
11.7081
230.515
45.8414
20.111
12.5985
35.3314
14.1952
316.632
23.4568
1.75446
161.945
53.9851
48.5233
21.8674
0.272364
311.368
4.44927
45.5817
42.5881
40.312
8.44045
11.1526
150.63
33.3634
27.1549
39.644
60.1128
33.6252
35.7525
170.05
0.628681
0.254316
7.31606
0.232347
42.8615
68.1781
32.9476
13.7203
37.2726
9.22728
25.3686
13.2839
13.7407
42.5407
162.968
52.0172
41.0628
93.5564
5.36102
28.3005
0.537823
45.397
9.37348
0.223625
40.1697
33.3842
372.511
1.7274
25.351
7.19776
33.2377
0.369868
813.781
53.0391
37.8243
1.87185
334.713
54.6574
169.401
0.347273
2.16035
0.222531
5.98091
1.85997
47.9841
36.3355
361.103
210.19
45.1793
53.9532
0.230613
43.764
17.933
49.1533
30.6445
20.6632
51.6896
63.5672
45.2904
86.3927
84.4794
0.248594
0.469364
21.1115
65.9612
61.7883
6.94284
45.7513
43.6852
39.2834
14.2384
43.288
40.0599
177.966
401.235
0.441205
71.0693
34.6468
0.22642
56.8785
325.346
33.0047
45.4797
22.7126
187.48
159.201
2.81236
12.3022
39.4523
43.2042
441.934
177.179
75.5044
41.1031
0.193118
124.36
0.221712
60.7712
32.7205
400.182
87.4103
301.333
180.525
59.6091
7.01368
49.3817
0.251196
2.6038
0.274454
0.264268
0.242138
45.1644
82.0474
41.4347
30.6296
75.0649
190.881
0.727042
4.23975
52.9222
425.569
50.5506
403.588
86.3508
54.6004
457.074
44.2016
483.557
482.539
498.399
371.33
374.631
349.914
497.788
314.323
0.521972
0.385109
0.543582
0.524638
0.603225
0.585924
42.0254
38.7666
74.2809
50.8727
62.203
33.952
0.237318
39.0061
0.405669
0.409497
42.3348
0.617981
33.2059
26.9666
0.291922
20.5114
4.24751
91.5
53.6175
43.6914
45.7905
37.5997
11.8157
42.0354
646.91
34.4929
7.82778
29.9554
67.4001
2.98197
27.8045
166.597
3.28229
54.8394
0.287061
11.2933
0.232775
36.9655
24.716
11.0956
0.270576
25.1434
5.75537
2.4319
85.0245
82.2433
7.53715
16.2271
29.5409
165.067
0.422446
170.89
248.801
11.2235
200.478
33.0985
18.8101
45.3199
165.121
0.252896
47.3594
58.547
110.084
72.7093
36.1672
42.6577
6.35742
0.54771
70.3958
28.3734
45.1026
149.862
210.445
207.304
125.445
25.324
37.6193
56.8395
0.413305
4.44867
2.90743
26.3587
6.34024
230.196
47.3935
4.36446
155.792
41.0526
13.0548
69.3976
6.82237
51.7152
148.957
51.3652
46.9221
0.708225
62.863
62.2439
196.985
77.3098
376.954
0.260511
6.12374
23.9556
296.444
183.469
99.4919
64.987
55.1513
0.225372
319.887
4.56048
43.1134
22.557
22.8532
8.42978
68.5051
0.234076
53.2938
43.662
201.718
9.11441
55.0767
29.2426
16.9793
0.232667
4.20763
0.474383
137.251
24.4038
65.0197
160.106
49.8841
44.6255
41.3004
26.4358
0.218874
22.4436
12.2834
45.4449
466.721
41.3981
653.546
42.2696
10.3829
41.3042
174.976
40.2742
0.354965
19.9856
28.526
115.227
27.9825
83.2727
119.717
63.4341
11.9376
37.807
10.0111
0.234163
41.7618
215.693
65.3082
223.503
47.199
22.2801
41.0891
45.6255
27.2584
14.3657
12.3424
11.2074
0.235839
40.7296
438.043
41.4913
42.7148
0.585543
5.13695
27.3347
40.4411
22.5388
476.93
62.0122
77.792
150.899
7.5149
43.7553
49.3176
43.268
146.074
51.251
71.1253
37.6184
58.7846
18.5807
74.542
25.5592
39.1142
321.95
39.3054
5.59286
27.082
55.0521
84.2943
26.1909
48.7567
12.9934
284.364
18.6726
3.43538
0.602868
548.602
40.0072
61.9634
0.647852
3.92062
259.129
17.5168
287.121
0.944417
0.298568
2.71684
408.449
0.285525
391.591
213.602
5.91731
54.3931
176.216
288.455
83.1379
349.454
5.51595
6.76935
38.9733
50.7375
4.34466
172.103
0.24241
71.6385
477.853
355.132
28.1277
26.426
0.191199
185.262
0.763824
37.4941
25.0102
278.202
0.428521
1.27359
7.91004
113.58
64.0907
41.6426
4.43826
0.23477
1.39192
225.049
352.623
0.462128
41.8319
5.2382
0.69958
26.75
33.2919
11.0061
49.2878
0.232267
26.9927
25.8228
35.3788
222.028
34.5063
0.346566
44.63
27.4791
0.229625
0.325187
51.5298
13.91
0.250078
21.2637
24.4394
33.0713
0.306114
0.420427
222.609
193.691
77.1248
20.6952
0.234761
2.803
1.25116
42.11
0.762408
0.90105
5.71557
7.0828
5.13663
0.237843
193.399
46.6534
20.6362
49.4184
69.4446
175.189
41.9253
0.235095
8.09393
92.7805
64.8592
198.362
4.00027
11.5388
8.68012
32.2759
3.85855
22.1775
19.447
19.36
1.60387
160.556
230.909
57.5278
103.058
10.3143
90.3873
30.6725
51.0567
116.227
11.0742
16.5983
45.4505
142.33
7.12814
0.397451
61.2737
62.0884
35.1274
7.0135
)
;

boundaryField
{
    frontAndBack
    {
        type            empty;
    }
    wallOuter
    {
        lowReCorrection 0;
        type            epsilonWallFunction;
        value           nonuniform List<scalar> 
96
(
69.5138
33.2134
36.3591
287.205
296.738
291.788
76.4304
50.7138
16.6643
298.776
7.63007
193.331
31.3121
313.075
244.643
355.669
301.267
39.5046
1.21544
108.262
3.17362
146.614
40.7547
401.4
327.363
63.3559
56.4481
61.2778
68.851
65.2442
69.254
53.6855
44.518
40.7714
43.3203
43.3104
53.5481
75.6284
39.3792
41.6355
45.5109
36.5614
53.3725
53.0191
35.4465
52.3606
50.8294
35.4106
48.3185
45.5817
68.1781
32.9476
45.397
0.223625
372.511
45.1793
86.3927
71.0693
34.6468
33.0047
441.934
0.193118
0.221712
400.182
425.569
403.588
457.074
44.2016
483.557
482.539
498.399
371.33
374.631
349.914
497.788
314.323
0.521972
0.385109
0.543582
0.524638
0.603225
0.585924
33.952
0.291922
36.9655
36.1672
376.954
0.474383
466.721
476.93
71.1253
37.6184
0.285525
349.454
477.853
0.191199
)
;
    }
    inlet
    {
        type            fixedValue;
        value           nonuniform 0();
    }
    outlet
    {
        type            zeroGradient;
    }
    wallInner
    {
        lowReCorrection 0;
        type            epsilonWallFunction;
        value           nonuniform List<scalar> 
126
(
42.4733
17.2755
16.6335
0.313559
0.498303
0.471058
0.295492
0.425216
8.97012
0.908578
2.79858
20.4034
315.761
9.93605
0.220721
6.62245
14.7382
6.8838
4.62702
1.24922
0.407011
6.59569
29.1926
4.12721
14.685
5.62909
13.1709
0.274328
0.378536
0.494703
26.92
39.1199
388.504
17.4472
258.994
0.567246
2.69966
27.7007
15.2904
1.12803
0.691252
39.976
4.43103
0.740856
8.04785
3.47407
0.437369
255.451
0.530699
96.4574
138.587
0.331556
190.029
5.82386
55.0342
61.0011
2.1896
171.716
111.356
63.074
12.8958
3.39778
0.291365
96.8666
1.51871
11.624
89.3575
101.064
6.05879
139.651
78.7177
74.6503
28.2472
37.9046
34.0574
37.5253
23.1204
163.908
43.2845
143.657
35.9253
146.954
58.5642
165.856
81.2792
254.298
165.306
47.3164
0.337453
195.596
140.014
155.184
118.255
56.2215
111.513
120.882
42.5407
210.445
28.1277
26.426
92.7805
64.8592
4.00027
8.68012
32.2759
3.85855
19.447
1.60387
160.556
230.909
57.5278
103.058
10.3143
30.6725
51.0567
116.227
11.0742
16.5983
45.4505
142.33
7.12814
0.397451
61.2737
62.0884
35.1274
7.0135
)
;
    }
    procBoundary3to1
    {
        type            processor;
        value           nonuniform List<scalar> 
48
(
91.3554
88.328
83.2667
91.2348
56.8595
96.8694
88.328
11.0374
67.4025
5.93162
5.93162
6.43211
6.43211
3.38895
2.46183
5.61243
3.77088
4.00545
3.77088
2.7008
1.98153
1.73139
2.7008
48.5936
4.35528
2.203
1.78087
1.73139
2.73306
14.0231
14.0231
6.20411
6.20411
67.4025
1.81183
55.7475
19.7134
4.35528
87.8995
47.3662
3.38895
34.2318
48.4687
2.7008
2.49802
68.5335
53.2174
2.26924
)
;
    }
    procBoundary3to2
    {
        type            processor;
        value           nonuniform List<scalar> 
29
(
0.547529
0.547529
0.483255
0.487017
14.0996
1.62319
0.225682
0.716906
0.442636
0.446228
1.10881
9.5327
0.581852
0.231138
0.226402
0.20982
0.404458
0.412118
0.550998
0.227768
0.223331
0.404458
0.536746
0.412118
0.263697
0.384757
0.412118
4.47404
4.47404
)
;
    }
}


// ************************************************************************* //
