/*--------------------------------*- C++ -*----------------------------------*\
| =========                 |                                                 |
| \\      /  F ield         | OpenFOAM: The Open Source CFD Toolbox           |
|  \\    /   O peration     | Version:  v1912                                 |
|   \\  /    A nd           | Website:  www.openfoam.com                      |
|    \\/     M anipulation  |                                                 |
\*---------------------------------------------------------------------------*/
FoamFile
{
    version     2.0;
    format      ascii;
    class       volScalarField;
    location    "0.76";
    object      nut;
}
// * * * * * * * * * * * * * * * * * * * * * * * * * * * * * * * * * * * * * //

dimensions      [0 2 -1 0 0 0 0];


internalField   nonuniform List<scalar> 
5794
(
0.000450915
0.000701084
0.00518194
0.00449919
0.0121
0.000561938
0.000851254
0.000863965
0.00224514
0.000895125
0.00204392
0.00146828
0.00132147
0.00828104
0.00206803
0.00113509
0.00952692
0.00694795
0.00125525
0.000476234
0.00141789
0.000537857
0.00143028
0.00105243
0.000937981
0.00405877
0.0127007
0.0148805
0.00404883
0.000828999
0.00148797
0.00224934
0.00241656
0.00175855
0.00174165
0.00226604
0.000785991
0.00161509
0.00190892
0.00668661
0.00622571
0.00269474
0.000742961
0.000893255
0.00181659
0.00233755
0.00199018
0.00116666
0.0007864
0.000428206
0.000774046
0.00302898
0.000751826
0.00220944
9.96626e-05
0.00233842
0.00204074
0.00160228
0.000729976
0.00540328
0.00132319
0.000525514
0.00129785
0.00532911
0.00572188
0.00074132
0.00451054
0.000669594
0.00555444
0.000656012
0.00628647
0.0042017
0.0150905
0.000999577
0.00584511
0.0114613
0.000468744
0.00360011
0.000808524
0.000212668
0.000440627
0.000495966
0.00823255
0.00175816
0.00157726
0.000894107
0.000705575
0.00101593
0.00218198
0.00266255
0.00499999
0.00204552
0.00342168
0.00548792
0.00258113
0.00814701
0.00394437
0.00317348
0.00193488
0.00142072
0.0014081
0.00124887
0.000754118
0.0125886
0.00182862
0.0119554
0.000469257
0.00409188
0.00517193
0.000729725
0.00101538
0.000614897
0.00131019
0.00155468
0.00233118
0.00412319
0.00225125
0.00574771
0.00123311
0.00101125
0.00788246
0.000258341
0.000713488
0.013273
0.00123314
0.00362224
0.00383269
0.000714477
0.00357879
0.00390926
0.00192613
0.00163835
0.00352438
0.00340605
0.0103599
0.00230229
0.00291905
0.000580643
0.00343166
0.00132943
0.000864775
0.0131282
0.00119664
0.0142607
0.00490012
0.0126205
0.00182201
0.00144964
0.00919595
0.00786593
0.000725951
0.00200977
0.0114507
0.000887843
0.0135295
0.00173763
0.00168972
0.00100053
0.00215052
0.00142796
0.000469279
0.000765176
0.000451319
0.000768293
0.0019859
0.00193532
0.00067264
0.000634351
0.000421775
0.000261367
0.000426957
0.00196483
0.000560124
0.000559904
0.000498683
0.00113323
0.000346079
0.000778053
0.00058034
0.00189391
0.000772055
0.00123378
0.000666979
0.00154442
0.000731239
0.00367289
0.00116588
0.00111556
0.000449244
0.000854671
0.0016657
0.00148445
0.00171599
0.000898031
0.000849061
0.000937153
0.000566341
0.000314162
0.000599348
0.00100959
0.000798925
0.00210741
0.00106437
0.000841581
0.00168858
0.00202266
0.00065506
0.00572381
0.0123844
0.00192405
0.00074699
0.000857677
0.00249306
0.00166324
0.00149212
0.00177818
0.00205689
0.00408193
0.00352946
0.00573428
0.000856337
0.00219606
0.00836264
0.00366591
0.00232958
0.00654482
0.000671249
0.00195479
0.00138283
0.00250614
0.000925124
0.000817344
0.00137316
0.00368859
0.00298533
0.0103262
0.0129485
0.00202554
0.000902871
0.000523975
0.000598417
0.00754195
0.00220859
0.00149648
0.00143588
0.00214292
0.00169621
0.00814513
0.00113467
0.000950737
0.00066594
0.000686893
0.0119492
0.0005978
0.000809537
0.0201138
0.000906028
0.000881421
0.00383812
0.00110853
0.002482
0.00237835
0.0015128
0.000742865
0.00120433
0.00125918
0.010997
0.00367567
0.000806043
0.00291973
0.002643
0.00111836
0.00235751
0.0052461
0.000868208
0.00202031
0.00221292
0.000900831
0.00172239
0.00119094
0.000422199
0.00322023
0.00396829
0.00170581
0.00464675
0.00527406
0.00237517
0.00299705
0.00533768
0.0081616
0.00181852
0.00124806
0.0019899
0.0021973
0.000770912
0.0032005
0.00215902
0.00116154
0.00249127
0.000984221
0.000387752
0.000981031
0.000361544
0.00293904
0.000809674
0.00309676
0.0014883
0.00422442
0.0025215
0.00223626
0.00110065
0.00278412
0.00221015
0.00162977
0.000782843
0.0009031
0.00502762
0.0154842
0.00464221
0.00424774
0.00562392
0.00159262
0.00480186
0.0113738
0.00137297
0.00190468
0.00102377
0.00120957
0.00109911
0.00187795
0.00179806
0.000822153
0.00084809
0.00150183
0.0013819
0.000545953
0.000531989
0.000363821
0.000377657
0.000912934
0.000569767
0.000673008
0.00231595
0.00103733
0.000473123
0.000614641
0.00171597
0.00129015
0.00226892
0.00156289
0.00200756
0.00247819
0.00148689
0.00124456
0.000728783
0.00254591
0.000441282
0.00190573
0.000821645
0.000574179
0.00568991
0.00257668
0.00292154
0.00128273
0.00099714
0.00345635
0.00178293
0.00156703
0.00130771
0.0010886
0.00245056
0.000494304
0.00381065
0.00235942
0.00642288
0.00305133
0.00169021
0.00155035
0.00175421
0.00106362
0.00562281
0.00230937
0.000749972
0.00181874
0.00145267
0.00154485
0.00663474
0.00222671
0.00224763
0.000732958
0.000694564
0.00165875
0.00051008
0.000956639
0.000524221
0.000514823
0.000498934
0.00104249
0.00120585
0.00143385
0.00101335
0.00113911
0.0135455
0.000452228
0.000351548
0.00257246
0.000894781
0.000590229
0.000460687
0.00405524
0.00334676
0.00194077
0.00446528
0.00118636
0.0017606
0.00146576
0.00066612
0.00541182
0.001969
0.00347261
0.00182669
0.00291612
0.00522883
0.00247519
0.00070278
0.000704294
0.000537292
0.00134915
0.000565346
0.000701941
0.00293073
0.000784089
0.0129707
0.00198718
0.0015512
0.00143826
0.000931858
0.00119142
0.00113246
0.00104827
0.0009785
0.000805359
0.000918885
0.000967326
0.000950654
0.00467196
0.00246733
0.00249758
0.000854879
0.00251487
0.000582157
0.000554474
0.00184505
0.000818656
0.00491901
0.000564378
0.00449616
0.00852278
0.00334338
0.00724744
0.000910351
0.000643306
0.000595175
0.00210458
0.00152597
0.00395196
0.0100723
0.0172796
0.0053359
0.000818792
0.000173459
0.0132715
0.00448274
0.00264654
0.00175078
0.00310364
0.0187648
0.0156093
0.000953364
0.000619568
0.000828449
0.00103744
0.000679491
0.00176741
0.00533262
0.00344674
0.000861237
0.00108808
0.00275487
0.000739822
0.000598239
0.00431865
0.00408134
0.00993774
0.000819714
0.00128021
0.000958019
0.00245162
0.00134245
0.00234363
0.0174751
0.017907
0.000728545
0.00162107
0.0146353
0.000651776
0.000819194
0.00109759
0.00490344
0.000763358
0.00814681
0.00127203
0.00723735
0.000626837
0.00153278
0.00221277
0.00379462
0.000621864
0.00080483
0.0135668
0.000560758
0.000662296
0.014624
0.00636784
0.00453254
0.000694555
0.000989329
0.00214159
0.000491349
0.000641381
0.000960556
0.000292578
0.0094646
0.00246657
0.00337724
0.00141464
0.000785267
0.00295229
0.00394766
0.00205674
0.000671612
0.00221063
0.00046698
0.00607579
0.00111267
0.00114446
0.00075478
0.0143238
0.00126536
0.000393344
0.0137007
0.00126891
0.000414429
0.000813468
0.000749636
0.00103266
0.00096529
0.000578368
0.000452904
0.00942115
0.0179672
0.000540171
0.00330461
0.00231024
0.00657947
0.000945893
0.000664552
0.00512875
0.000231955
0.000853618
0.00164136
0.00284326
0.00147902
0.00132802
0.0015086
0.000858986
0.01706
0.00369238
0.00147543
0.0034139
0.00487922
0.00241074
0.00774846
0.00741265
0.00340317
0.00136386
0.00110091
0.0044298
0.0022567
0.00482984
0.000796723
0.000810944
0.000689849
0.00536619
0.0024511
0.0032204
0.000818244
0.000831121
0.000749353
0.00221581
0.000834536
0.00177398
0.00258316
0.00562219
0.000800384
0.00283783
0.00356661
0.000521999
0.000114594
0.00493634
0.0187012
0.0207187
0.0125784
0.000697071
0.000870197
0.000763054
0.00215245
0.00103925
0.00086525
0.0015895
0.000291573
0.00331119
0.00410684
0.00547004
0.000421163
0.000708474
0.00286711
0.0105379
0.00610633
0.00100891
0.000659531
0.000732388
0.000251361
0.000554039
0.000678009
0.000786015
0.00405155
0.000808932
0.00210443
0.0155441
0.000971337
0.000837128
0.00395204
0.0023759
0.00280005
0.00539485
0.00234903
0.00101096
0.00220166
0.000602394
0.000333316
0.00102334
0.00250415
0.000590252
0.000698276
0.00300978
0.0147193
0.00232907
0.0020085
0.00557023
0.000933048
0.000549911
0.000973754
0.00098077
0.000574234
0.0029717
0.00563628
0.00549019
0.002396
0.00275435
0.00200987
0.00112775
0.0121466
0.00146017
0.00150689
0.00276495
0.00590253
0.00118734
0.0128964
0.000724908
0.000544802
0.00506762
0.00236098
0.00169685
0.0102069
0.00275785
0.00402518
0.00244639
0.0019132
0.000590501
0.00632485
0.00824003
0.00389721
0.00316759
0.00183938
0.00193351
0.00617456
0.000280259
0.000809272
0.000769521
0.0003842
0.000648239
0.000275944
0.000938544
0.00884999
0.00328595
0.00255082
0.00110858
0.00251946
0.00689662
0.00109711
0.00780923
0.00347666
0.00317415
0.00445517
0.000775139
0.000733318
0.0163015
0.00308823
0.00598529
0.00756441
0.00429339
0.00305799
0.00244135
0.0188438
0.00113589
0.000799423
0.000818413
0.00801473
0.00095441
0.00280491
0.00296195
0.0064626
0.00222997
0.00199273
0.00260688
0.00617133
0.00451739
0.00204179
0.00339946
0.00459048
0.000255272
0.000258579
0.000267243
0.000494827
0.00487965
0.00238298
0.0045878
0.000664728
0.000802829
0.000694396
0.000844877
0.00204269
0.000596829
0.00251089
0.00521552
0.000755638
0.00598774
0.00269869
0.000708475
0.00100655
0.0193174
0.00492629
0.00295334
0.00590566
0.00590214
0.00265173
0.00343884
0.00107069
0.00404466
0.0021706
0.00456083
0.00696934
0.00244285
0.00349453
0.000752371
0.000692318
0.000797295
0.0143444
0.000539188
0.0063392
0.0154734
0.000695581
0.000661554
0.000612552
0.005097
0.00253812
0.00657681
0.00526012
0.0024626
0.00441777
0.00570241
0.00698463
0.00409156
0.00104499
0.0026721
0.000571513
0.00261516
0.000787657
0.00380148
0.00086293
0.00549703
0.00554171
0.00104404
0.000651332
0.00226288
0.00630072
0.00558456
0.00304925
0.00883695
0.0033419
0.000868612
0.000999926
0.00106671
0.0102357
0.00134825
0.00252312
0.00302759
0.00803694
0.000459695
0.000551538
0.00100561
0.00135089
0.0142075
0.00120015
0.000768481
0.00228928
0.00221537
0.00131248
0.00233564
0.00476599
0.00474318
0.000771295
0.00234627
0.00748978
0.00179677
0.0043335
0.0170351
0.000242601
0.000148402
0.000347971
0.000469804
0.0046154
0.0052617
0.000875012
0.00129522
0.000845676
0.000712767
0.000839172
0.0210713
0.00263655
0.00583165
0.00170026
0.00231246
0.00353643
0.00296508
0.0132496
0.00434636
0.00147535
0.0006526
0.00075353
0.00976104
0.000830173
0.00302398
0.00763372
0.00370405
0.00457799
0.00396647
0.00162964
0.0109638
0.00376592
0.000772983
0.00304954
0.000631217
0.00438008
0.00220967
0.0023274
0.00335402
0.000808745
0.000752592
0.000623597
0.00442969
0.00383966
0.000894185
0.000755969
0.00244169
0.00109887
0.0039218
0.000684997
0.00079922
0.00271029
0.00187691
0.00292616
0.0059861
0.00390539
0.00624047
0.00979294
0.000722473
0.000623613
0.00417812
0.00104152
0.00105156
0.000556993
0.000608477
0.00208673
0.000439988
0.000790032
0.000949522
0.00717292
0.00355929
0.00407586
0.000845823
0.00305972
0.00560583
0.0174467
0.00204967
0.00329569
0.000784663
0.000762675
0.0164353
0.00104813
0.00308082
0.000839512
0.00136254
0.001008
0.00151828
0.000212359
0.0019645
0.00125652
0.000545648
0.00042524
0.000365547
0.000203581
0.000235301
0.000659655
0.0154281
0.0128293
0.00320961
0.00181888
0.00279009
0.010504
0.000750309
0.000473688
0.000550588
0.00562338
0.00102276
0.0188061
0.00611271
0.00227252
0.000785587
0.00734503
0.00158229
0.000592876
0.000798545
0.0210146
0.00571297
0.000834158
0.00104905
0.000877953
0.00354762
0.00165507
0.0125544
0.000780023
0.000526319
0.000552334
0.000640327
0.000569995
0.00222804
0.00152883
0.000831767
0.000462942
0.000806231
0.000789268
0.00916928
0.000782488
0.00161105
0.0010137
0.00162459
0.000831592
0.000904136
0.0011527
0.00108636
0.000645936
0.000942104
0.000756519
0.00120515
0.000802581
0.00179746
0.00477752
0.000909728
0.000833685
0.00290442
0.00137157
0.000830217
0.0020422
0.000776622
0.0197489
0.00210323
0.000870621
0.000825736
0.000874913
0.0150875
0.000965544
0.00257872
0.00258537
0.00537122
0.000736549
0.000879301
0.000860254
0.000649603
0.000828033
0.00121174
0.00181936
0.00168861
0.00149059
0.000173089
0.00221571
0.00144242
0.00105264
0.00108092
0.00157964
0.000480116
0.00081315
0.000599971
0.001061
0.000746686
0.0141917
0.000796108
0.00620593
0.000789926
0.000783183
0.000736268
0.000849432
0.000764661
0.000681854
0.00769444
0.014846
0.00429936
0.000572858
0.000826679
0.002861
0.00101656
0.00145775
0.00123865
0.00242434
0.00507974
0.00111559
0.00681432
0.000490295
0.000841427
0.00605347
0.000809661
0.0150797
0.000723085
0.000535869
0.00331947
0.00772865
0.000654685
0.00322376
0.000620314
0.000561804
0.000714988
0.000585811
0.000882325
0.000741818
0.000830369
0.000847905
0.000773134
0.00100306
0.000885289
0.000988237
0.00424673
0.000970311
0.000723083
0.00548849
0.00245903
0.000796519
0.000690204
0.00736464
0.0028632
0.00658945
0.0089191
0.00092551
0.00114641
0.00031867
0.0158125
0.00202835
0.00432171
0.00206467
0.0185166
0.00243827
0.000198935
0.00109379
0.000413706
0.000570414
0.00218923
0.000375711
0.00112985
0.00110346
0.000260391
0.00108178
0.000174893
0.000222625
0.00056358
0.00066471
0.000672749
0.00628545
0.00364158
0.00599621
0.00040477
0.00132015
0.00135501
0.000499478
0.000722324
0.000789536
0.00823528
0.000808432
0.00338687
0.00103101
0.000746431
0.00098824
0.0205091
0.0127865
0.000560286
0.00473547
0.00732835
0.0046447
0.00725299
0.000744617
0.00690494
0.00508104
0.00309179
0.000935873
0.00966661
0.000726267
0.000726359
0.00132954
0.00145578
0.001151
0.00085855
0.013548
0.00107083
0.000874776
0.00326262
0.00472655
0.00482954
0.000764955
0.000608329
0.00107459
0.000852163
0.00119293
0.000769666
0.015247
0.00123508
0.00583765
0.002659
0.00570826
0.00154465
0.00146012
0.00265004
0.00253185
0.00102775
0.00102785
0.000581471
0.00116916
0.000840788
0.019772
0.000892553
0.00081548
0.000754772
0.0009039
0.00083225
0.000776235
0.000868136
0.000748383
0.00301219
0.00102607
0.0129417
0.000730747
0.00074476
0.000649764
0.000700348
0.00171715
0.0104942
0.00170677
0.00095072
0.000637714
0.000768218
0.00280816
0.000782004
0.000704931
0.000861686
0.000766622
0.000843657
0.0010046
0.000606399
0.00722874
0.000550901
0.0126986
0.000832709
0.0013934
0.000692223
0.000419882
0.000689803
0.00332129
0.00112826
0.000738545
0.000706923
0.000724201
0.00103168
0.00160219
0.00116498
0.00185796
0.000815649
0.00166831
0.00131013
0.00445195
0.00600844
0.00356148
0.000828427
0.00017564
0.00749801
0.00132857
0.00604481
0.00667601
0.000475977
0.000856163
0.00110128
0.0033198
0.000243836
0.0147158
0.00594798
0.00111169
0.0110171
0.00565556
0.00125014
0.000500666
0.00728519
0.0195332
0.00971492
0.00129272
0.00149303
0.00167066
0.00287507
0.000835881
0.000544898
0.000546578
0.000783533
0.00271557
0.00177359
0.000379343
0.00694537
0.0012271
0.000491614
0.000575123
0.00405751
0.0144991
0.00115389
0.00263681
0.00563369
0.0088608
0.0153405
0.00240532
0.00220341
0.000794789
0.00531367
0.00190942
0.00743398
0.00553847
0.00231445
0.00397506
0.00585572
0.0104602
0.00459216
0.0158609
0.00332388
0.00158821
0.00125412
0.0173603
0.00189087
0.00422377
0.00478575
0.00348271
0.00300657
0.00757341
0.00755962
0.00712752
0.015206
0.0016487
0.000382684
0.00080645
0.0076185
0.000787521
0.00432769
0.00174253
0.000830838
0.00428311
0.00352351
0.00713555
0.000607754
0.00988572
0.00181986
0.0028017
0.00307339
0.00115961
0.00117318
0.000891228
0.0129879
0.00109471
0.000931601
0.00100616
0.0163511
0.000917421
0.001522
0.00731873
0.00799579
0.00239463
0.0018435
0.012188
0.00150237
0.000785967
0.000139749
0.00692943
0.00402814
0.00829481
0.00659907
0.000822449
0.000815406
0.00556715
0.00584278
0.000951527
0.00152
0.00132595
0.00152184
0.00109811
0.00571834
0.00181842
0.00270942
0.00574323
0.00148336
0.00660017
0.00112425
0.00112873
0.00117038
0.00152603
0.00234254
0.000884298
0.00104831
0.00156402
0.00125109
0.000351798
0.00186046
0.000651251
0.000822375
0.00817494
0.0027914
0.00545505
0.00127354
0.00529888
0.00516476
0.00646366
0.000936435
0.00234955
0.00177189
0.00109754
0.000247176
0.000187302
0.000215079
0.0175182
0.000826282
0.00263764
0.00199813
0.00390901
0.00384148
0.00161088
0.000284633
0.000290589
0.000295954
0.000446338
0.000344223
0.000367234
0.000218527
0.00035135
0.000331321
0.000568398
0.000333071
0.000450981
0.000311542
0.00023422
0.000253442
0.000422857
0.000452174
0.000266319
0.000273116
0.000240595
0.000420456
0.000206446
0.00024561
0.00016902
0.00075391
0.000314675
0.000400429
0.000171672
0.000337747
0.00030968
0.000438041
0.000450217
0.000334276
0.000165762
0.000218619
0.000414497
0.000235661
0.000272313
0.000382494
0.000468547
0.000253347
0.00026975
0.000426443
0.000430865
0.00212133
0.00172656
0.011633
0.000933126
0.00728268
0.0029581
0.00552843
0.0132504
0.00152018
0.000794416
0.000843533
0.0018021
0.00250178
0.0055761
0.0182773
0.0168346
0.00569779
0.00231316
0.00120137
0.00103177
0.00117655
0.00153992
0.00023126
0.00489384
0.00176756
0.00470512
0.00206756
0.00659795
0.00482902
0.00294185
0.00545659
0.0122591
0.00687176
0.0184653
0.00247863
0.00249201
0.0035337
0.000759133
0.0157938
0.00097913
0.00149601
0.00840478
0.00235871
0.00382985
0.0041879
0.00164013
0.00145485
0.0008419
0.000848842
0.0167233
0.00212527
0.000437259
0.000253407
0.00803867
0.0149652
0.000228677
0.003642
0.00711857
0.000415557
0.000280938
0.000214375
0.000276482
0.00047713
0.000299358
0.000503974
0.00034216
0.000317288
0.000386817
0.000519661
0.000441164
0.000252488
0.00043939
0.000243313
0.000270165
0.000442738
0.00024412
0.00022716
0.000219017
0.000212576
0.000302256
0.000257159
0.00351312
0.00269045
0.000430757
0.000882482
0.00865382
0.000848691
0.0106031
0.000722198
0.00293155
0.0136471
0.00363777
0.00288416
0.0150116
0.0065626
0.000220645
0.0150041
0.00207003
0.00124328
0.0206678
0.00506217
0.0138014
0.000546951
0.0142265
0.00171351
0.00102677
0.0138249
0.000899168
0.00362457
0.00187105
0.0010041
0.000995353
0.00601618
0.000747298
0.00946025
0.0167203
0.00177841
0.00762246
0.000620003
0.0107828
0.00194167
0.00169848
0.00072544
0.00568401
0.00122827
0.00172713
0.00478001
0.00097874
0.00747332
0.000834636
0.00291709
0.000641499
0.00748352
0.00765798
0.0211713
0.000162905
0.000771842
0.00102281
0.0075285
0.00289396
0.000320514
0.000630605
0.00607464
0.00425077
0.0137505
0.000832667
0.00146523
0.00199973
0.000958356
0.00352456
0.000855926
0.00769255
0.000591604
0.000171573
0.000222412
0.00990112
0.00667173
0.000789843
0.00447448
0.00506774
0.00251719
0.0140418
0.017702
0.0118066
0.0143397
0.0143678
0.000949476
0.00803227
0.000716708
0.00211386
0.00197884
0.00712063
0.000722933
0.000862817
0.00114687
0.0152969
0.000618712
0.00148714
0.00173654
0.0026035
0.00299359
0.00989927
0.0146105
0.00947268
0.00372016
0.000830406
0.014928
0.000527437
0.00210169
0.00201352
0.00121373
0.0106738
0.0158125
0.00326131
0.0148817
0.002864
0.00815029
0.00144581
0.00115477
0.00209406
0.00277936
0.00100804
0.00168873
0.00193124
0.0126567
0.00103365
0.00173735
0.00389748
0.00368887
0.00144417
0.00549837
0.00170331
0.0141304
0.00534511
0.00685624
0.00420726
0.00158821
0.0011737
0.00233418
0.00361497
0.00160199
0.00165272
0.00278323
0.0150871
0.0147818
0.0102645
0.0107233
0.0146088
0.0107404
0.014606
0.000688492
0.0146352
0.0148487
0.0112076
0.0119413
0.0151995
0.0113232
0.0144776
0.0153527
0.0147696
0.0016554
0.00162056
0.00168694
0.0138455
0.00123687
0.00158716
0.00132298
0.00112446
0.000200474
0.000227449
0.00654823
0.0132515
0.00667657
0.00225986
0.00259491
0.00840721
0.0129126
0.00729873
0.0029356
0.00105825
0.00115056
0.0012082
0.00297072
0.00917006
0.00248671
0.00148527
0.00190359
0.00552266
0.00399547
0.00359312
0.00150226
0.0065223
0.00191383
0.000612985
0.00330578
0.000292193
0.0062717
0.00119305
0.00150205
0.00110567
0.00149369
0.00274655
0.00278604
0.00253835
0.00440763
0.00465551
0.00113667
0.0029578
0.0115055
0.00281642
0.00272432
0.00305016
0.00419408
0.00968617
0.00153233
0.00214954
0.00966214
0.00485668
0.00303288
0.00270174
0.00110189
0.00316566
0.0108054
0.00334142
0.00209361
0.00248151
0.00215731
0.00563012
0.00114922
0.0162158
0.00268981
0.00107219
0.00156832
0.00225074
0.00513317
0.00110764
0.00121332
0.00306057
0.00571615
0.00217785
0.015568
0.00974211
0.0018902
0.0105447
0.00192143
0.00191273
0.00284188
0.00128359
0.00292123
0.00115717
0.0149577
0.00320784
0.0021167
0.00153263
0.00793756
0.0142614
0.00151828
0.00148072
0.00611808
0.0060336
0.00307169
0.00226236
0.00139926
0.00122443
0.00669803
0.00620719
0.00526711
0.0136425
0.0136998
0.0015904
0.00482177
0.000539788
0.00170356
0.00467205
0.00177267
0.00113244
0.00171504
0.00134385
0.0027261
0.00144697
0.0048779
0.000529656
0.00602799
0.00408825
0.0012746
0.0047128
0.0024466
0.0074038
0.00110931
0.00231301
0.00135646
0.00853855
0.00725417
0.00195852
0.00255294
0.00192888
0.00150603
0.00124368
0.00395906
0.0033858
0.00581631
0.00646579
0.000381471
0.000777082
0.000760185
0.00565452
0.00101613
0.00136029
0.00633512
0.00700468
0.00501713
0.00148809
0.00143788
0.0066081
0.00421821
0.00609558
0.00125524
0.00725594
0.00635235
0.00601604
0.000346775
0.00613325
0.00898336
0.0137115
0.00415727
0.00891032
0.00649975
0.00316815
0.00542925
0.00851357
0.000880866
0.00271882
0.00772791
0.00490943
0.00604092
0.00668231
0.00629269
0.00931972
0.00060618
0.00338974
0.00406813
0.00762415
0.00230147
0.00234788
0.0093005
0.00853879
0.00734305
0.00165422
0.00340499
0.00518542
0.000839276
0.00907105
0.00136265
0.0085008
0.00148673
0.00257607
0.00135954
0.00039429
0.00597354
0.00143499
0.00661385
0.0014005
0.00122966
0.00769805
0.00501224
0.00343784
0.00560608
0.00294289
0.00184955
0.00116649
0.00378748
0.000660805
0.0018579
0.00186561
0.00227579
0.000510029
0.00363807
0.000454503
0.0134503
0.00128066
0.00218221
0.00156403
0.00178879
0.00150499
0.00236818
0.00142642
0.00157579
0.00523277
0.00156545
0.00197422
0.001514
0.00630722
0.00209512
0.00145303
0.00176602
0.00539843
0.00481878
0.00166122
0.00545074
0.00290373
0.00129396
0.00291097
0.000854208
0.0128795
0.000866964
0.00213807
0.00168801
0.0104803
0.000892005
0.00192856
0.00210709
0.00896814
0.00142067
0.00156396
0.00900657
0.00233492
0.00129876
0.00165628
0.00141012
0.000855178
0.00120412
0.00583474
0.00253497
0.00175643
0.012586
0.0140796
0.000957675
0.000738773
0.00139945
0.00180309
0.0065458
0.00118526
0.00313455
0.00352764
0.001881
0.00125899
0.00708731
0.00200894
0.00506948
0.00535442
0.00137074
0.00107491
0.001618
0.00422124
0.00110257
0.0017881
0.00173281
0.011896
0.00621619
0.00594343
0.0111808
0.00197719
0.00131958
0.00579813
0.00925918
0.00161617
0.008474
0.00221778
0.00122162
0.00176308
0.00521256
0.00650518
0.00130083
0.00622411
0.00253228
0.00248816
0.00369249
0.00201619
0.00488357
0.000405231
0.00215479
0.00204129
0.0137354
0.000974992
0.00108335
0.00817468
0.000799592
0.00082505
0.01176
0.000424595
0.00213768
0.00105323
0.00151683
0.00173557
0.00845087
0.0039748
0.00691506
0.00561684
0.00284892
0.003169
0.00115224
0.00778847
0.00542484
0.000284595
0.000292627
0.000566281
0.000801638
0.000790499
0.0107273
0.00226647
0.00103152
0.00154507
0.00351966
0.00466212
0.00176777
0.000277372
0.0112544
0.00990018
0.00198151
0.000616933
0.00297567
0.00276909
0.00675169
0.000465901
0.00236931
0.011861
0.000976961
0.00147378
0.00186279
0.00914598
0.00545982
0.00121844
0.00209613
0.0108533
0.00394001
0.00229778
0.00162646
0.00172705
0.000598243
0.000837183
0.00462418
0.00513567
0.00540766
0.00622215
0.0126085
0.00536489
0.00212969
0.00173785
0.00169117
0.0141651
0.0121201
0.0137623
0.0126165
0.0103013
0.00628574
0.00372864
0.00386149
0.00261512
0.00147266
0.00929096
0.0116619
0.0112698
0.00238644
0.0129434
0.00646015
0.00645165
0.00573577
0.000630634
0.0060401
0.00223533
0.000993478
0.00160218
0.00272008
0.00277639
0.002296
0.00585154
0.0077085
0.00125083
0.0139727
0.00681954
0.00883106
0.00517327
0.00207979
0.00121166
0.000986788
0.00111866
0.000685521
0.000848076
0.0007436
0.00939572
0.00215143
0.000792298
0.00144855
0.00339824
0.00525769
0.00514622
0.002436
0.00615649
0.0032781
0.00262237
0.00776881
0.00403363
0.00134829
0.0020543
0.00176465
0.000282139
0.00232107
0.000602283
0.00158446
0.014463
0.00105137
0.00146541
0.00171013
0.00580425
0.00115766
0.00467628
0.00898425
0.00191681
0.00171884
0.00482445
0.00494015
0.00416486
0.00695315
0.00165742
0.0112178
0.00348789
0.00717618
0.0140949
0.00875157
0.0024416
0.00381587
0.00125003
0.00764854
0.00956814
0.0034064
0.00160321
0.000807903
0.000739576
0.00110223
0.00254887
0.00735235
0.00106193
0.000854897
0.00791054
0.00693936
0.00635256
0.00353145
0.00130235
0.00769901
0.00800148
0.00183714
0.00167936
0.00353697
0.00527122
0.0151101
0.00552758
0.0122905
0.00158724
0.00704733
0.00209355
0.00660263
0.0111953
0.00229148
0.00329018
0.0021448
0.00512373
0.00505067
0.00176576
0.00025407
0.000211791
0.00835994
0.00626205
0.00873264
0.00491638
0.010507
0.00830735
0.000795653
0.00466479
0.00826381
0.00351154
0.00424084
0.00745539
0.00813473
0.00212218
0.000943431
0.00144322
0.0116322
0.00157545
0.0112468
0.00231108
0.000707334
0.0108126
0.00162191
0.00171467
0.00943122
0.0146831
0.0130522
0.0147295
0.000388674
0.00107899
0.00503749
0.00828121
0.0137874
0.013793
0.00261363
0.00890482
0.00247497
0.00130006
0.00357142
0.0026327
0.0101388
0.00578094
0.014596
0.00358881
0.00142437
0.00789617
0.00396935
0.00468501
0.001873
0.00355585
0.00817362
0.00128198
0.00226787
0.00633
0.00748323
0.0119284
0.00209938
0.00252292
0.0125016
0.00103997
0.000757678
0.00181561
0.00911984
0.00933296
0.00553775
0.00358664
0.00112363
0.00113356
0.00650743
0.00161817
0.00762081
0.008568
0.00379428
0.00624791
0.00247747
0.00400141
0.00941739
0.0132585
0.0065644
0.00169854
0.00252412
0.00189936
0.00119608
0.00432552
0.00111541
0.00248933
0.0145297
0.0132386
0.0146679
0.0090784
0.0123458
0.0019691
0.00550273
0.00150414
0.010562
0.0196333
0.0134022
0.00899784
0.000740581
0.00194337
0.00902818
0.011123
0.00699023
0.00593395
0.00241647
0.00551377
0.00208732
0.00282878
0.00139469
0.000318576
0.0135456
0.00128117
0.00799638
0.00086143
0.00777125
0.00556413
0.00237426
0.00648022
0.00836955
0.00115694
0.00764236
0.0132611
0.00278252
0.000498706
0.0111605
0.00627866
0.0056196
0.00233312
0.000707745
0.00081923
0.0036757
0.0156625
0.0115353
0.00334702
0.00686911
0.0111167
0.000909192
0.00460919
0.00532666
0.00447974
0.000727737
0.00276852
0.0115971
0.00414896
0.00591243
0.00562749
0.0156946
0.00561681
0.00100137
0.00123823
0.000970713
0.00315816
0.000797642
0.00646424
0.00328432
0.0107038
0.00122509
0.00142185
0.000922898
0.0124944
0.00624915
0.0141898
0.00413344
0.00100029
0.00370081
0.00582598
0.00468066
0.000817065
0.0114683
0.00262285
0.00140416
0.00164694
0.000789603
0.0136134
0.000929635
0.0158456
0.00886029
0.000906068
0.00908693
0.000794891
0.0148861
0.00983844
0.00137817
0.00206375
0.00264207
0.0155577
0.000848175
0.000779717
0.000769601
0.00380093
0.000766935
0.00126803
0.00938157
0.00528489
0.00766633
0.00435299
0.00657913
0.00102292
0.0144483
0.00836398
0.00225239
0.000739391
0.00430291
0.0080232
0.000251286
0.000186775
0.00025794
0.0149108
0.00213707
0.0157528
0.00485681
0.00492602
0.00982785
0.0132916
0.00199744
0.00316397
0.00666405
0.00496947
0.00242463
0.00457744
0.00103303
0.00997976
0.00144528
0.00217175
0.000861432
0.00140909
0.00269756
0.00235903
0.00509972
0.0030795
0.00224984
0.0154091
0.00658242
0.00716466
0.00803508
0.00165881
0.00113351
0.00347232
0.00187824
0.0128262
0.00577728
0.0128536
0.0085951
0.00185883
0.000953756
0.00132213
0.00353211
0.00128555
0.00836232
0.00202049
0.00115057
0.00260372
0.00959999
0.00358892
0.0145859
0.000755948
0.010074
0.00307518
0.00305054
0.00168339
0.00594176
0.00607224
0.00265241
0.00146242
0.00510247
0.00615298
0.00162408
0.0022076
0.0148551
0.0109686
0.00624818
0.00684613
0.00598359
0.018712
0.0140853
0.00169824
0.00237564
0.00356779
0.00188905
0.0038554
0.01325
0.0135219
0.000744396
0.00885244
0.00189209
0.00250524
0.00191471
0.00386148
0.00412379
0.00396093
0.000503083
0.00769831
0.00770654
0.00195247
0.00231387
0.00326967
0.00599479
0.00352595
0.00266341
0.000594348
0.00254576
0.0123951
0.00796302
0.00395037
0.00223481
0.0063238
0.000966886
0.00113286
0.00108614
0.00106253
0.00120478
0.00181074
0.00125702
0.00182221
0.0160604
0.000647714
0.00149134
0.00116018
0.000932066
0.00650271
0.0017047
0.000778175
0.00106403
0.00461311
0.00243507
0.0014855
0.00116568
0.00105786
0.00153385
0.000903193
0.00127343
0.00866957
0.00562317
0.000804268
0.00596906
0.0014285
0.00349815
0.0113207
0.00570966
0.00804348
0.00091232
0.00115611
0.000156149
0.000325391
0.00208972
0.0149432
0.00214926
0.0160384
0.00510276
0.00181942
0.0072108
0.00175278
0.000805121
0.0030924
0.00487574
0.00651474
0.00812385
0.00196177
0.000880532
0.00123184
0.000732934
0.00123536
0.0128388
0.00185079
0.00303613
0.00724265
0.000497373
0.00646971
0.0028633
0.00108514
0.00242389
0.0104576
0.013113
0.0139047
0.0111364
0.00101512
0.000883346
0.00523184
0.0126066
0.0070476
0.0084726
0.00387609
0.007487
0.0011694
0.000806269
0.000800457
0.00854965
0.00695993
0.00187331
0.00190399
0.000831601
0.00183355
0.00727168
0.00169599
0.00285632
0.00755663
0.0136775
0.0135631
0.00113643
0.014565
0.00122018
0.0138479
0.00528067
0.00577787
0.00203921
0.00443587
0.00144214
0.00716496
0.0137248
0.0121881
0.00124227
0.00108395
0.000899754
0.00104272
0.0007051
0.0011899
0.00221286
0.00367015
0.00771363
0.00640728
0.00241539
0.000818581
0.013921
0.000765949
0.00112562
0.00606322
0.0149863
0.0064126
0.00267787
0.00852685
0.00607992
0.000820272
0.000841072
0.00463558
0.00263648
0.0120801
0.000899355
0.00832596
0.00689636
0.00128517
0.00650781
0.000964065
0.00129448
0.000704314
0.000587673
0.000299299
0.000885329
0.000922505
0.00103885
0.000827457
0.000211384
0.000170074
0.000250586
0.0159784
0.0157101
0.00084807
0.00902651
0.00338321
0.00727632
0.00828954
0.0063236
0.00482513
0.0136295
0.0105371
0.00423466
0.00432088
0.00404327
0.00963529
0.00255359
0.000962759
0.000932327
0.00152242
0.00123715
0.000992206
0.000821845