/*--------------------------------*- C++ -*----------------------------------*\
| =========                 |                                                 |
| \\      /  F ield         | OpenFOAM: The Open Source CFD Toolbox           |
|  \\    /   O peration     | Version:  v1912                                 |
|   \\  /    A nd           | Website:  www.openfoam.com                      |
|    \\/     M anipulation  |                                                 |
\*---------------------------------------------------------------------------*/
FoamFile
{
    version     2.0;
    format      ascii;
    class       volScalarField;
    location    "0.18";
    object      epsilon;
}
// * * * * * * * * * * * * * * * * * * * * * * * * * * * * * * * * * * * * * //

dimensions      [0 2 -3 0 0 0 0];


internalField   nonuniform List<scalar> 
1431
(
2.20899
3.90418
5.30569
8.74135
0.944997
0.912588
3.58048
152.78
0.974818
3.71081
155.696
96.0209
2.59396
7.09046
1.9273
3.69817
8.08116
0.298684
11.8579
1.59513
332.017
11.5212
1.4755
65.9344
1.28447
3.18417
101.67
1.49513
3.44618
6.61675
3.22095
2.29151
3.10102
3.04822
1.55153
2.29299
7.18013
0.41183
3.83598
2.1013
4.6195
5.73419
3.03624
8.11697
2.27955
1.20661
6.533
87.6673
4.02591
1.5253
3.40677
7.80044
3.29911
143.523
1.99708
3.5685
1.16162
128.763
6.41983
0.700506
1.77105
5.60952
1.37322
0.612015
5.79292
4.72131
0.641511
1.75928
0.487701
14.8597
79.5967
4.32717
2.57154
2.7663
8.37827
1.55106
1.08663
0.832662
2.91903
0.29217
7.74801
1.03655
2.71628
4.86457
18.9009
8.88172
2.4577
1.48774
7.40919
5.33042
3.03307
1.49605
0.41125
3.95589
1.4651
5.58189
145.565
5.65388
8.81496
0.536248
2.65439
6.12545
7.8125
0.312387
0.545027
9.80262
4.61212
109.412
1.71179
6.40066
0.426012
2.03935
15.5812
3.60382
2.30077
1.1401
6.45608
4.44801
3.59451
0.984148
21.188
2.55778
104.922
11.219
53.9679
2.93463
2.08588
1.38593
4.30194
1.67369
11.0744
0.425547
1.42636
12.1873
3.41953
1.49415
0.783468
7.04505
24.6141
0.410467
1.89218
3.45916
8.38684
0.322509
2.18396
3.22418
1.91273
2.99407
3.0364
1.64779
1.46314
0.709203
2.21797
3.84456
3.44796
0.455322
15.1961
7.69463
4.1114
1.64698
19.4487
2.15146
2.67192
1.72196
74.3908
2.29473
2.95894
1.52096
1.05472
3.73285
11.414
2.32735
2.19753
21.9814
4.94528
14.2824
1.35647
1.15336
3.34904
2.11301
4.38416
6.85729
4.9037
166.354
1.13819
9.44924
50.3241
6.10613
4.52674
12.0177
4.36882
4.12959
2.96046
222.881
4.35989
7.81556
8.45746
2.43539
0.346601
1.94859
6.49889
2.40079
108.544
2.1164
2.38799
5.09769
4.89086
0.547735
30.1452
1.31307
43.2159
3.23797
4.37731
10.2203
21.0982
1.64198
2.97471
2.71613
2.30839
109.128
2.65337
4.74313
7.15561
2.02155
3.7233
49.7827
101.932
4.27613
2.65425
67.2
85.8205
3.13367
10.0597
2.68361
2.36749
9.28173
4.07242
10.0554
4.07289
5.7207
1.76291
2.41312
37.6587
7.72511
4.83676
25.2809
9.06959
96.2963
2.8487
0.727293
1.21525
17.822
1.74065
2.30265
4.70357
2.61975
1.84698
72.3063
11.4688
3.17623
6.16087
21.9133
3.17569
1.39828
4.62635
134.816
0.839565
372.06
87.2145
1.08765
2.07316
3.59978
3.16459
5.35964
21.4538
2.26215
21.3604
50.7168
10.1631
5.5036
2.03182
3.19988
3.33002
3.64905
1.71616
4.53737
3.40001
7.9012
19.4235
6.10793
0.379433
0.784176
7.02859
1.77002
39.1397
2.75505
74.8955
10.8196
3.04455
11.3924
3.08072
0.453218
2.88872
2.81228
27.4734
1.96685
6.94319
3.89334
5.27952
3.38851
8.62744
2.55566
5.35879
155.659
0.811457
9.20587
2.36179
1.84078
0.724188
705.476
7.3697
8.65447
0.72553
1.4744
1.54475
8.22317
0.622933
0.956355
153.961
2.18365
16.6011
0.877798
0.893572
17.5617
1.5974
2.92447
1.25948
7.90099
1.37194
73.8348
0.507368
2.87309
8.99484
3.43962
0.910858
6.86876
4.97793
17.7571
6.43733
2.23037
2.03936
1.4522
1.72959
4.00875
1.49174
2.00898
31.37
32.5206
16.2985
4.17182
14.518
7.46943
13.7534
2.71638
0.52911
23.0018
1.07725
285.088
3.09792
6.6187
127.886
1.20702
7.54885
3.0011
2.89274
135.904
6.59042
2.47539
12.8478
189.588
1.68402
1.07203
3.61252
1.61143
551.451
0.795993
2.79747
1.04666
1.75978
2.17855
2.05127
2.83482
2.6896
2.08319
14.1393
2.07521
1.26973
1.19202
1.16911
0.833648
3.7751
2.4167
10.9292
2.0851
5.74332
1.28349
0.861525
2.07252
1.5743
1.33663
5.71904
1.8643
1.40439
3.38971
0.970038
1.3744
2.21267
1.57495
1.01891
1.51162
4.02611
2.7643
2.77445
2.59189
1.65777
1.50208
1.76566
27.8404
15.0098
41.9905
6.37396
9.0345
6.7604
12.0385
5.47087
3.57568
4.55331
2.34036
2.68818
1.86577
1.83078
26.1861
1.61211
1.41076
1.21629
1.03733
0.587151
0.515643
4.56719
8.73138
6.87542
1.84622
7.21675
0.809646
8.67887
5.69557
13.9191
81.7235
0.835585
0.902171
10.274
1.61674
77.6823
7.24202
0.670389
1.50034
0.643451
75.8318
1.64589
75.5494
6.50128
7.0641
0.297241
24.1888
26.3905
21.6795
1.78617
0.911622
0.756253
5.35792
27.331
0.621287
28.5504
2.81221
0.57998
25.7496
0.288886
0.784965
4.39219
0.462389
35.5747
3.86774
7.76601
0.586373
28.321
0.512231
12.4791
41.0355
4.93136
2.39876
6.27396
2.0776
0.706143
13.135
40.5427
23.7369
1.62593
3.6922
5.59213
1.47192
1.07432
39.9359
1.49914
14.603
22.6868
4.70281
7.61892
0.941581
38.9687
27.8467
5.90022
5.06982
1.85319
2.15074
1.9398
2.7937
40.6071
2.0878
1.48225
1.97501
6.9026
5.0237
3.02987
63.5624
1.12382
17.1357
2.5973
6.9455
1.71606
1.63403
1.66665
5.08223
2.64355
4.81702
2.30753
2.52961
3.90049
8.63075
1.42901
1.33624
2.48102
8.01674
2.03041
1.82449
1.64966
34.3397
2.64568
5.29306
7.33976
454.233
1.74341
31.9615
10.3017
1.68205
666.244
1.46864
2.86709
1.86446
4.42348
1.50639
2.00897
17.4098
2.1821
3.34315
1.00285
2.14142
2.98649
3.72181
3.26548
11.4972
1.94239
10.6379
3.4516
2.72282
2.96087
2.93803
6.22723
4.60921
1.78844
1.43684
3.88511
5.05713
4.06609
2.27606
3.30897
1.28695
26.1332
2.72001
6.61766
25.2136
13.1723
2.77965
1.25338
4.4943
4.2354
1.3501
136.258
4.80449
5.34906
1.25651
2.94707
1.71129
2.47544
2.6595
1.55231
1.07324
20.6733
1.58371
9.31564
2.33428
2.79756
6.96566
0.965699
2.01339
2.00803
2.90331
1.0574
1.12139
6.5441
2.90989
2.62728
3.66764
6.61278
1.89894
2.07338
3.16778
116.55
2.392
2.23118
5.89526
1.26733
11.4081
2.94572
1.43771
4.10458
2.19013
2.92092
1.67227
60.6195
5.10048
5.37812
3.08908
3.69022
3.78844
1.2691
1.40797
1.14489
4.64296
17.9067
9.99127
16.2244
1.0502
2.82175
1.95831
4.59313
33.4776
4.25879
15.8608
3.4425
1.55562
1.85694
1.65907
28.5737
1.52602
6.91366
13.5367
30.1635
18.2865
1.66848
4.5269
4.73757
1.79838
2.9466
27.5801
1.56398
0.775858
3.19372
1.75324
1.82007
3.16007
84.7827
6.76657
2.36605
3.10485
3.22612
4.29708
4.18461
4.57294
3.40213
14.4446
3.65245
2.65824
1.8464
3.12114
3.4043
31.997
3.61149
3.89108
4.83671
0.769701
1.53382
2.63877
24.5997
2.75876
13.5765
2.91382
3.84226
3.18935
5.2671
1.68478
2.80309
5.4384
17.0886
2.3923
0.459377
1.66667
41.6653
3.39976
83.9913
231.307
1.07041
2.53235
13.5577
3.42522
98.1688
7.37035
2.05518
4.57628
26.8111
2.50509
3.83957
1.21825
3.87461
2.86561
6.17639
1.58067
14.4027
0.529465
1.44689
8.44888
1.56644
5.16798
1.46163
8.1478
118.259
1.33703
1.46234
1.33573
0.864573
2.39305
111.48
72.7048
8.85877
6.66515
0.680621
4.72988
5.00718
4.49684
1.11931
4.80794
3.99529
10.0479
1.31194
1.70024
1.36536
2.68997
3.35226
1.84326
0.799112
0.890112
2.22603
0.46151
2.29529
1.71716
3.25147
29.0766
1.34089
2.77568
2.2335
2.17665
59.2237
4.3001
4.13747
0.885121
4.74835
3.50543
5.2376
11.728
5.65766
2.49144
2.13781
17.615
0.66771
8.4818
4.30146
726.649
5.85175
0.771042
1.45633
1.35613
333.728
2.01946
5.65459
18.1509
1.82332
91.717
5.06812
1.57889
4.56058
1.50576
0.393502
102.194
1.91009
1.30502
3.42021
3.80157
1.72445
3.42135
1.31858
6.93123
2.91231
5.04818
26.9642
2.29981
3.79724
142.247
5.83625
7.2712
1.75207
3.10017
2.41323
0.489238
0.594808
7.1094
2.05465
10.7063
0.424573
175.101
2.16471
17.233
3.28216
4.25477
2.55531
4.22813
0.574113
1.7545
1.55578
5.11079
2.30652
1.00094
4.0158
2.14168
2.9294
2.53213
2.21572
0.817734
2.37663
2.72701
16.6738
0.882123
1.43519
629.713
0.801166
4.0847
7.80248
0.773196
3.45615
2.65163
0.756739
2.5992
75.3208
7.96689
1.82011
77.2642
425.039
118.711
130.177
79.0543
3.52224
3.65721
3.82368
3.76559
95.498
3.49099
5.10209
4.15564
4.66755
5.27166
50.7693
107.325
5.07507
19.146
28.7953
4.93869
3.62979
3.77924
5.01681
3.90897
3.91535
5.22901
3.82986
2.82466
20.7346
1.68347
12.8974
1.39144
10.5997
6.23527
55.0535
3.03184
11.1764
7.30917
1.27326
2.08018
152.97
29.8209
0.658318
20.4064
3.40955
2.34491
5.01754
2.29299
108.314
1.00311
3.75357
1.58235
2.0354
3.03521
5.12613
14.4689
5.64006
10.6138
2.82918
1.71453
1.47694
2.48083
32.8759
1.51678
7.6898
1.46646
10.1613
2.1859
3.35745
5.84625
9.78824
3.16545
0.707978
7.73111
0.846838
0.727931
1.38494
16.2069
1.67986
3.09699
3.85097
0.330929
16.8271
2.41713
4.02132
1.29491
3.34276
3.06397
8.16376
28.057
0.413188
12.3
0.279457
6.9768
8.41082
704.948
1.0316
7.67132
4.39318
158.727
0.970155
6.32145
6.1376
2.51656
2.3906
1.0909
9.64617
1.99583
9.3337
462.32
28.0689
3.86314
0.976342
9.27044
13.7575
20.1545
3.04178
12.6674
1.43064
3.70184
60.2556
10.5219
122.963
4.30489
4.90556
1.78477
17.1946
3.11361
16.919
0.87163
1.95844
6.12503
2.57195
2.48493
2.79015
2.15862
21.989
507.173
3.71836
3.60389
8.30393
1.59655
0.973289
144.792
5.56612
0.908259
3.07035
21.3373
17.2934
5.26127
6.2906
2.4994
2.37807
5.67181
11.9504
2.30074
2.18911
3.56049
15.758
4.02036
0.887883
5.4722
40.7574
5.82201
113.701
28.5462
0.812117
17.1343
1.08295
1.48543
0.826737
3.03258
2.31498
2.19871
2.59677
3.5408
0.777305
9.63673
1.82656
22.8705
1.26377
1.21285
1.86846
11.4249
0.836329
11.5582
9.32364
1.65129
11.0517
3.98069
7.73315
8.67764
9.75904
11.8313
13.5417
14.3249
10.7918
14.5378
4.206
4.92665
5.83177
4.49211
5.68266
5.64067
2.34987
9.03825
2.26829
10.314
1.07326
5.58442
2.15773
14.0305
1.75179
4.64184
2.45381
6.25636
2.79743
1.72327
3.16956
0.888428
1.04594
1.79759
14.3121
2.56614
0.924343
53.9894
4.81209
2.03883
518.723
2.73425
0.830709
1.57464
1.8973
0.46634
2.24138
19.6382
0.596862
0.774907
2.49114
1.35203
5.53598
5.86519
9.67153
0.80134
2.3696
18.2862
0.358307
6.67252
2.14623
4.10861
0.383471
13.3233
4.5588
229.857
1.2861
19.0694
44.2168
1.49303
12.0674
5.8577
0.952435
4.78393
27.9658
2.81385
1.552
7.05946
55.1222
1.44825
5.83692
8.35099
1.11274
3.41635
1.55678
2.00173
2.09614
25.4667
44.5374
28.8113
3.28565
4.12271
6.30169
5.67085
4.52844
1.04234
1.5457
8.85891
0.275448
64.0038
2.08207
6.4379
24.8402
3.16541
7.3875
1.09302
2.71671
5.4425
177.334
84.0364
1.15167
1.29017
1.54152
1.66251
19.8826
2.39286
19.5744
6.5739
0.919113
21.9492
101.457
3.42602
2.67829
0.94254
0.850334
2.52289
162.702
0.905913
3.85903
28.5432
12.556
0.537457
1.21164
4.8079
10.8638
11.5485
7.44291
4.58617
1.52727
3.3772
18.1094
2.9358
1.20659
3.13563
2.24744
16.5042
0.938884
12.8644
1.34083
2.20776
2.95129
2.41915
10.2549
12.3207
0.862948
0.819185
6.31615
2.65568
354.26
5.3997
1.88305
2.34767
33.4162
2.62875
5.58199
1.97362
3.85101
3.12937
1.40583
2.42719
2.91535
3.95452
7.51923
6.28977
7.15322
5.48448
1.73517
89.4068
1.37041
171.414
0.843554
2.04362
1.87564
2.35825
5.62287
0.889356
15.3879
6.52578
5.1243
2.44634
218.289
2.59484
2.81328
1.55716
0.633636
7.80246
2.58648
3.76088
6.96911
0.832495
9.17257
15.2165
4.47941
2.75307
0.969833
2.13074
127.94
6.12843
3.75568
11.2429
13.0807
1.48478
15.0433
5.77046
3.18324
149.938
1.77047
0.281389
21.0848
1.13264
95.1877
6.44454
11.3461
1.67383
146.786
3.34093
1.35983
1.30343
291.181
0.983871
0.893392
1.30252
0.669682
21.9433
1.7921
121.91
5.53372
7.29554
2.08463
232.94
4.38995
162.728
4.78108
0.451098
6.2738
122.549
124.976
5.60891
35.1778
1.98175
1.53442
1.67751
6.2597
0.923574
30.1981
2.63605
1.70996
31.4943
217.708
1.52038
13.0862
3.75541
12.0161
4.6097
5.40449
1.09083
143.21
3.90857
2.09096
2.29186
1.96428
10.4336
6.25486
0.992533
3.76395
6.55588
5.64836
192.559
6.80642
0.97668
0.988731
1.30804
4.75432
2.19844
5.61651
0.767415
6.10679
2.50409
3.10392
2.24095
5.52584
2.19899
3.63828
2.78837
32.4105
2.82352
4.67978
0.794301
11.2056
9.9173
3.59669
3.73996
2.60523
3.28264
4.38847
5.63614
7.48181
3.65026
2.08807
10.1379
2.55454
1.15639
2.4885
1.47126
1.50434
0.569709
0.780371
1.03775
6.48523
10.8633
3.05344
13.4531
1.85061
6.15084
11.6317
2.41013
4.49475
4.51511
9.82897
2.12373
87.65
0.718451
3.20564
12.4368
0.904278
1.47031
1.2862
2.28407
2.17874
4.70929
20.2204
90.7837
22.6587
5.50987
2.60473
5.18822
7.18408
6.00809
3.03954
1.30118
1.87189
6.52264
2.95717
0.740705
1.60803
7.86419
3.24461
1.31931
1.31082
)
;

boundaryField
{
    frontAndBack
    {
        type            empty;
    }
    wallOuter
    {
        lowReCorrection 0;
        type            epsilonWallFunction;
        value           nonuniform List<scalar> 
96
(
3.44618
6.61675
5.58189
28.5737
30.1635
27.5801
3.16007
3.10485
3.22612
4.18461
3.40213
3.65245
3.12114
31.997
3.89108
4.57628
26.8111
3.83957
3.35226
3.25147
3.50543
3.42021
3.80157
5.04818
26.9642
79.0543
3.52224
3.65721
3.82368
3.76559
95.498
3.49099
5.10209
4.15564
4.66755
5.27166
50.7693
107.325
5.07507
19.146
28.7953
4.93869
3.62979
3.77924
5.01681
3.90897
3.91535
5.22901
3.82986
3.75357
3.35745
5.84625
4.02132
3.34276
28.057
3.86314
122.963
3.60389
8.30393
5.56612
5.67181
3.56049
4.02036
40.7574
11.4249
11.5582
11.0517
3.98069
7.73315
8.67764
9.75904
11.8313
13.5417
14.3249
10.7918
14.5378
4.206
4.92665
5.83177
4.49211
5.68266
5.64067
5.58442
3.16956
5.86519
5.83692
19.5744
3.13563
6.31615
6.96911
3.75568
11.2429
4.38995
35.1778
31.4943
3.75541
)
;
    }
    inlet
    {
        type            fixedValue;
        value           nonuniform 0();
    }
    outlet
    {
        type            zeroGradient;
    }
    wallInner
    {
        lowReCorrection 0;
        type            epsilonWallFunction;
        value           nonuniform List<scalar> 
126
(
6.41983
0.700506
1.77105
5.60952
1.37322
0.612015
5.79292
4.72131
0.641511
1.75928
0.487701
14.8597
79.5967
4.32717
2.57154
2.7663
8.37827
1.55106
1.08663
0.832662
2.91903
0.29217
7.74801
1.03655
0.536248
1.1401
6.45608
4.44801
3.59451
0.984148
21.188
2.55778
104.922
11.219
53.9679
2.93463
2.08588
11.0744
0.425547
0.410467
1.89218
8.38684
0.322509
1.91273
1.64779
0.709203
3.84456
74.3908
4.38416
9.44924
50.3241
4.35989
43.2159
1.08765
10.1631
5.5036
0.379433
74.8955
10.8196
11.3924
0.453218
2.55566
5.35879
155.659
8.22317
0.622933
16.6011
73.8348
0.507368
32.5206
7.46943
13.7534
2.07252
1.57495
13.135
22.6868
1.97501
6.9455
5.08223
8.63075
8.01674
7.33976
1.00285
3.72181
1.78844
5.05713
13.1723
0.965699
6.61278
4.10458
3.69022
3.4043
3.61149
2.39305
4.0847
2.65163
1.38494
44.5374
1.52038
13.0862
9.82897
2.12373
0.718451
12.4368
0.904278
1.47031
2.28407
4.70929
20.2204
90.7837
22.6587
5.50987
2.60473
7.18408
6.00809
3.03954
1.30118
1.87189
6.52264
2.95717
0.740705
1.60803
7.86419
3.24461
1.31931
1.31082
)
;
    }
    procBoundary3to1
    {
        type            processor;
        value           nonuniform List<scalar> 
48
(
8.83513
4.68984
5.77226
7.05358
4.29687
2.25146
4.68984
20.6039
14.109
0.717527
0.717527
0.694856
0.694856
0.973262
0.624059
0.458004
0.270153
0.308993
0.270153
0.365269
2.93915
9.36461
0.365269
0.879554
0.583337
1.67006
19.4517
9.36461
19.3696
5.98586
5.98586
19.6785
19.6785
14.109
0.536957
6.74594
17.5894
0.583337
11.2152
3.57486
0.973262
17.6454
17.412
0.365269
0.707871
3.40175
3.42216
1.57755
)
;
    }
    procBoundary3to2
    {
        type            processor;
        value           nonuniform List<scalar> 
29
(
1.48562
1.48562
4.65193
4.2534
0.990771
2.33214
2.20437
1.42024
3.47738
3.43196
1.7088
1.13538
1.578
7.32896
2.47718
8.04884
5.64487
5.36447
1.42225
2.72848
2.65782
5.64487
4.16204
5.36447
2.37256
5.05164
5.36447
0.912881
0.912881
)
;
    }
}


// ************************************************************************* //
