/*--------------------------------*- C++ -*----------------------------------*\
| =========                 |                                                 |
| \\      /  F ield         | OpenFOAM: The Open Source CFD Toolbox           |
|  \\    /   O peration     | Version:  v1912                                 |
|   \\  /    A nd           | Website:  www.openfoam.com                      |
|    \\/     M anipulation  |                                                 |
\*---------------------------------------------------------------------------*/
FoamFile
{
    version     2.0;
    format      ascii;
    class       volScalarField;
    location    "0.09";
    object      p;
}
// * * * * * * * * * * * * * * * * * * * * * * * * * * * * * * * * * * * * * //

dimensions      [0 2 -2 0 0 0 0];


internalField   nonuniform List<scalar> 
5794
(
91.0144
94.1152
54.5806
95.547
86.588
93.0526
92.6302
95.1454
86.7832
88.8049
111.586
93.0054
96.3548
90.2231
91.8762
94.0232
34.4375
93.7673
91.9215
94.7461
80.0821
92.2878
88.3337
94.1415
94.1245
40.4651
36.0623
94.9325
96.1316
88.6424
95.0255
83.3066
101.04
93.2108
94.133
88.9648
84.1717
93.3535
96.5146
84.974
94.3354
94.0542
101.34
86.2926
91.9405
101.665
87.1499
95.1056
87.8709
93.73
94.8004
90.4127
77.9091
90.5046
95.6498
101.951
86.8661
95.1248
101.292
36.7615
93.3712
95.2858
95.0516
84.071
101.205
95.2083
68.8882
80.8172
94.0146
95.3047
90.2527
73.6584
16.981
91.375
93.6727
95.068
94.5535
45.749
87.0856
94.7355
91.8437
95.0127
94.6482
96.6008
93.5223
95.1065
83.7262
101.337
94.9002
85.5724
103.891
89.7922
96.0231
97.8223
94.4061
90.3674
102.543
95.7619
89.5407
93.8445
69.0141
82.9243
101.026
91.6099
91.7525
95.1408
95.1915
109.962
89.0596
87.6335
94.7989
92.7148
62.009
95.0498
93.8582
97.1396
92.9268
94.9345
92.7556
80.5537
95.0286
90.3873
94.774
95.1642
92.4052
109.015
87.6135
93.4227
90.9916
111.377
93.5907
96.6586
84.4914
50.0778
95.2577
91.6012
99.2902
95.3618
94.5532
94.5836
94.7974
91.4007
92.5852
92.3384
94.581
43.572
94.6413
94.0523
86.7998
93.2091
105.524
92.3534
95.206
92.6924
38.4294
84.0934
96.5812
95.0131
101.189
93.5123
91.693
94.9063
94.5274
90.5094
90.4509
90.2311
92.076
95.115
94.7159
92.6374
89.3775
89.769
88.1955
94.0911
92.8963
89.5103
91.9777
94.5663
94.0771
89.6066
93.7235
88.658
95.1078
101.585
96.7895
37.7574
82.4277
100.439
88.1835
83.9876
111.888
85.3955
101.211
95.0584
96.5982
93.5294
94.9825
94.4643
92.0677
99.8548
91.4025
90.2423
95.09
96.8462
86.489
101.539
93.5741
109.584
75.9917
89.1426
89.7263
82.789
90.8394
94.9466
93.3514
93.5619
87.9625
86.3013
110.96
96.9576
83.1346
96.1602
102.082
94.912
94.1503
33.3805
77.9349
89.0908
88.6896
91.4533
86.0861
92.9938
91.6188
87.0645
92.5958
47.1348
62.9154
103.468
95.8994
89.9504
94.5745
108.655
85.5363
92.7921
91.98
94.8468
92.2681
86.4697
102.501
95.7296
89.2509
95.1845
35.291
94.982
107.86
78.2773
100.608
95.0926
109.7
92.3449
100.54
91.3932
95.013
95.0337
97.2215
93.4268
93.6148
106.357
92.1738
101.367
85.1965
95.0661
94.6608
90.556
84.7876
91.8188
89.8763
94.2604
94.1427
95.4792
94.5481
102.051
93.9938
93.7937
83.6768
95.72
89.3087
94.3617
97.1445
95.1759
87.1812
92.8937
91.6359
90.6265
102.075
48.1711
93.8945
92.8209
84.5192
95.0258
94.8023
68.3023
92.0223
76.5675
90.451
104.963
94.3694
92.9415
101.302
84.8739
95.0582
98.912
87.8001
95.0288
84.5533
89.0115
109.958
94.6348
89.983
96.3666
95.2804
94.1432
94.8395
86.0774
94.0857
96.3602
92.317
93.3342
96.4789
111.338
89.9978
101.85
95.0028
100.843
82.4389
88.4928
89.0954
94.5989
88.0458
99.9034
94.0792
94.2836
88.4145
88.5558
92.5312
95.1341
101.706
89.1533
90.0316
93.0758
96.4451
44.1065
101.408
87.4088
95.0827
36.3342
91.9275
90.6419
92.1578
95.0878
109.721
92.5291
102.339
92.2902
95.1064
87.9067
90.4029
101.791
86.7343
95.0976
93.789
95.0922
88.1491
94.6798
109.896
90.207
101.938
84.6614
95.1692
94.3221
95.2236
94.1156
85.4213
89.6305
94.6426
93.9181
96.0294
92.4969
95.147
92.7614
95.2169
95.6459
95.3166
94.6101
86.6872
93.599
92.389
84.9304
91.2602
88.524
93.8168
94.0849
41.2615
94.92
92.9281
104.299
81.4015
92.5669
95.2812
101.959
95.1197
87.6605
111.058
90.0137
101.395
86.2485
95.07
95.2078
90.0468
102.372
89.2781
95.6217
110.388
93.3108
89.3185
94.5841
93.9116
95.0692
94.6657
91.6836
85.4376
85.3265
93.2665
64.3045
92.0247
93.937
93.5696
96.6844
89.993
94.7339
94.1926
84.4547
96.7192
93.6698
93.6352
97.163
94.0035
94.4143
81.9347
75.4037
89.0555
94.7071
69.8934
92.2411
95.8528
95.029
102.6
88.9358
94.3483
98.1468
92.3356
94.421
78.5939
94.7614
94.2065
111.477
40.2638
85.3178
111.916
88.7201
95.0228
70.0093
110.265
88.7976
88.1337
99.4846
59.2211
94.9599
88.5618
94.3827
78.598
92.6101
88.8629
88.7816
109.993
111.376
82.1139
93.0091
45.4444
91.8483
94.6529
94.743
94.455
85.7478
80.3442
94.6492
88.8664
94.147
94.3008
103.857
82.3099
57.993
88.3068
96.1378
93.4167
94.4128
91.7926
94.1546
111.503
95.1497
90.4251
94.5238
95.1775
94.998
94.9861
92.5093
96.9091
94.983
82.2556
41.9687
91.9982
95.2966
85.6705
95.219
111.748
93.2293
90.3793
92.8563
94.7631
92.3255
79.989
95.0039
39.4909
94.467
88.3407
74.5231
84.8404
94.3053
111.563
97.4503
91.9791
64.7281
94.7111
89.2272
92.2978
94.0694
84.658
91.9409
95.0212
93.4863
91.5226
93.8462
91.7518
90.8577
93.4839
92.7179
79.958
92.3939
94.904
90.203
21.0818
88.4107
105.688
92.2487
89.793
90.8755
93.8442
65.1644
93.6561
95.0861
94.474
88.3045
96.1453
94.0366
44.7098
79.3324
84.273
84.7556
93.566
94.1083
96.8753
91.8966
107.026
43.8513
89.3494
95.1249
95.0855
95.5576
89.3522
102.2
95.1267
93.6189
95.4095
96.9906
92.9357
98.4494
94.6418
84.0865
94.8714
67.9021
94.0111
94.704
93.9111
97.1005
95.02
111.306
49.0319
89.1712
95.6428
94.8531
83.1426
78.1687
89.9704
81.3075
93.7717
96.808
103.57
109.321
99.4493
95.1709
94.8653
109.241
109.115
109.789
95.0868
93.0983
94.6074
88.865
108.286
95.0636
90.9773
94.4654
94.4982
92.3091
95.4858
88.9359
63.1902
84.3511
88.4204
94.5612
91.9295
101.734
110.508
89.6944
97.4786
96.926
94.1274
89.0259
94.7568
95.632
93.9848
90.6663
94.5638
96.8418
93.9459
104.617
42.412
94.9263
36.2448
94.5515
94.7786
88.9182
92.6631
78.9345
94.4899
94.4003
97.4295
95.8642
89.4084
102.135
103.728
86.3088
35.7746
97.2813
93.2081
94.0122
97.0097
92.884
89.0322
89.4372
93.9304
109.432
92.5629
94.2567
90.1316
96.2842
96.8141
94.2396
93.8587
94.9616
93.5106
99.3181
68.3858
94.5773
89.8356
90.6713
109.745
94.2678
92.9612
83.8054
88.0558
96.0576
95.0295
95.8654
90.4063
101.584
92.5348
88.8999
94.6708
107.169
98.3338
98.2348
94.3931
95.7988
110.698
82.4414
87.3918
39.9686
107.439
96.2681
109.021
63.3743
95.2566
94.5053
80.374
87.5854
96.4358
85.355
107.693
90.3708
94.4656
65.704
98.984
107.101
90.2125
62.4981
36.1758
111.79
89.7294
95.9074
103.18
96.007
93.689
75.0311
91.0374
95.8526
89.823
102.099
79.7665
84.4534
93.0379
90.9747
92.6498
95.0155
93.7009
97.1326
85.5875
98.1827
94.4443
95.4945
92.0128
65.553
96.4954
94.4014
97.3797
96.6229
90.5714
104.093
87.2371
95.4
89.135
102.209
89.2565
94.6429
88.5162
95.5988
93.5665
90.1877
89.835
93.5646
110.031
41.765
79.3957
92.1267
94.8673
96.8105
90.7788
109.614
97.0017
92.4664
94.5484
105.986
101.8
89.5169
95.0904
91.4198
94.6029
61.4806
91.8643
55.9132
80.8545
109.86
94.4573
94.9203
92.7042
91.7444
110.168
109.022
104.164
100.139
94.8177
94.5983
90.6792
94.8521
96.0767
94.7087
91.7527
99.9031
108.258
95.048
92.3224
80.0901
94.0271
46.308
95.0437
85.8848
92.7976
88.8521
89.2176
89.5886
95.7728
102.385
84.3708
94.3553
95.0768
88.8955
94.5526
36.3692
90.6027
95.6786
76.7691
95.3301
111.843
94.6435
85.7791
94.9723
95.3715
92.638
84.5549
72.32
93.8926
96.984
94.0658
96.7907
105.848
108.413
42.0949
70.2155
94.9675
95.6211
94.4875
90.0849
90.0686
88.5048
99.615
94.6691
72.2819
111.193
93.3003
93.8175
94.6223
83.8837
105.189
93.1772
49.6002
93.2974
94.3495
55.6902
95.0947
82.8428
92.7015
93.5683
111.093
100.46
95.2508
94.3969
74.7285
107.528
88.0999
84.4073
108.149
92.494
94.2927
97.2086
73.1128
97.339
87.3096
91.7147
94.7809
89.1466
95.0775
94.771
95.3373
92.5842
106.783
94.9954
84.4013
95.1172
81.654
92.2828
94.9996
77.8581
111.666
111.805
55.2896
92.0222
96.8181
84.9162
95.1593
51.396
98.3855
81.1203
108.894
95.8543
89.8488
94.3845
93.9687
97.1746
101.789
89.1751
87.9715
84.5435
94.7289
95.3044
103.818
93.4179
95.075
102.287
88.9721
95.4963
91.5726
96.6799
95.1707
92.2589
87.7351
95.0576
75.9486
110.332
94.3887
84.6883
95.0948
64.6448
94.6829
92.2335
75.7493
38.5763
84.837
83.6417
87.5246
92.9959
89.5711
87.3025
95.3718
96.8375
93.8334
95.3193
95.3337
94.0464
94.8198
95.1054
95.3538
95.5864
84.371
93.9765
85.5944
94.2949
95.0971
94.6263
84.7224
93.6785
92.2983
84.3692
95.2136
110.502
87.0294
91.9351
95.4153
68.5745
110.901
95.4062
84.4459
94.051
94.8531
84.3856
59.682
84.0191
80.2683
88.0499
94.9768
85.1608
80.1301
93.7393
95.3204
69.7292
94.5064
99.4902
93.1855
90.8177
95.1377
92.4668
92.2252
98.7281
42.9271
95.8152
94.2495
94.8291
93.3288
95.8256
89.5182
101.792
94.1175
95.1156
92.5325
94.651
79.6958
85.3041
92.8738
81.4846
95.0173
83.6619
84.9426
87.0826
94.5658
94.1129
90.7106
87.8389
94.4203
111.692
95.2553
84.3164
87.53
95.0095
88.9221
93.8526
65.8171
110.076
94.9942
109.446
95.1972
85.894
109.857
95.4026
86.676
96.373
95.0934
94.3828
86.8878
94.9572
78.1781
79.0034
91.4209
95.0993
78.8073
94.8018
95.1746
83.6979
95.5296
94.8376
92.9167
94.0323
88.4318
96.5205
94.4159
92.347
97.092
93.5113
94.8611
95.4486
85.2811
94.2336
94.4258
95.0901
94.8442
111.982
94.9762
83.9042
93.5169
109.796
93.7234
80.3836
86.3646
95.1015
85.0254
94.1481
94.4984
65.2049
91.699
83.5659
84.3068
95.0528
84.9588
95.0312
95.0908
78.8889
94.8259
91.8218
91.1612
93.7926
111.006
90.5661
47.8778
94.4984
91.404
95.3931
84.3154
93.6354
91.3603
93.6519
75.5704
82.3595
97.3484
79.4884
90.4242
95.2327
94.5839
90.2557
94.8822
87.3445
83.7382
89.9504
94.0678
104.614
94.9844
84.5048
91.2961
90.2932
87.992
93.7149
96.854
94.9652
31.3299
84.3176
94.9876
93.2513
110.505
111.098
79.479
92.7545
89.9472
94.3971
93.859
95.2066
87.5821
93.6266
94.3776
94.0014
85.8308
94.0772
94.8272
65.1577
68.579
90.3313
79.1633
94.6508
77.33
92.3962
81.6128
96.9362
93.5575
91.4916
93.753
85.2516
82.3655
84.0646
91.404
93.3771
94.8591
93.7062
93.4282
88.0683
94.77
91.4145
105.129
91.2183
103.322
95.2251
93.182
93.5024
64.6815
101.886
94.1218
93.5281
97.0136
84.6101
95.3563
94.9486
93.9295
95.0895
49.5906
95.0029
94.3451
79.0629
92.0733
95.7438
97.6768
89.065
100.555
93.5823
91.0919
99.9493
95.4223
88.1116
94.0428
95.4519
93.7148
96.7923
110.012
110.527
61.6546
84.4808
95.0909
93.8697
95.069
86.2378
101.412
109.922
101.423
84.6715
88.6284
95.0735
94.5773
94.9046
83.9663
95.0264
94.1515
96.7749
95.6402
94.447
69.4297
90.9623
47.5963
93.8412
94.8201
101.118
85.2052
94.5756
94.9324
83.9072
73.1262
94.5583
94.94
94.5415
92.6594
93.9548
77.4032
60.0539
94.6765
94.98
94.358
94.5242
95.8737
76.8604
71.409
104.623
82.9769
95.0031
94.4694
93.4314
102.047
89.2401
95.1794
94.1475
87.9959
112.723
48.0909
67.3158
87.9115
94.6449
81.658
94.7071
94.0905
93.9092
95.1488
70.0319
93.6144
94.8299
94.3554
93.8259
94.7835
94.6894
84.3563
94.7475
94.725
94.0331
94.3142
84.923
111.018
109.736
90.3731
95.5865
84.3383
94.5594
108.712
73.4167
96.8844
93.6379
95.2852
93.811
94.903
72.5148
91.089
87.2483
94.7627
93.644
90.0132
39.5979
62.7285
36.4985
42.6941
94.3428
84.314
95.649
94.5755
94.4356
89.0505
95.0387
94.9922
94.075
82.0117
101.089
101.116
95.3855
94.2293
96.9356
88.5756
88.1257
94.7765
94.1188
110.727
91.1933
95.5356
94.6614
94.8582
94.1119
104.246
94.5737
94.4385
76.7259
93.7512
96.824
86.4683
89.3403
95.6085
84.3506
94.5849
108.819
111.1
95.0055
40.3143
109.698
93.6869
79.1034
94.0244
99.3476
94.8247
95.0453
92.184
74.8721
8.92937
85.1568
95.0146
83.8534
101.367
49.3434
104.779
75.3933
93.1187
94.7218
93.6739
94.3353
74.5561
93.1583
94.7973
93.6702
94.57
94.2302
92.6039
74.5782
93.2827
94.8908
94.409
74.3858
93.3865
94.1134
75.3156
91.8961
92.7859
94.9576
94.8868
94.588
67.7665
94.5861
94.2062
94.2859
93.4661
73.8221
92.9636
94.8757
92.7126
94.4604
93.3195
94.1786
75.1103
94.7648
94.4238
93.8193
94.8661
93.7468
71.9439
93.1342
96.4412
50.9506
94.6111
94.6916
98.6935
90.3292
90.1763
94.4524
94.957
88.2138
94.2219
73.0976
95.1918
45.4432
86.4196
85.3252
74.7172
94.6133
94.7022
94.863
94.109
93.8602
94.5281
94.6008
54.3052
62.9062
94.4411
111.936
89.4636
94.288
95.1499
94.7964
43.0058
93.8558
93.2248
95.261
94.3754
94.9374
94.3511
68.2236
90.4168
106.874
89.2239
71.3986
96.6912
93.6327
84.1433
83.5931
10.1727
94.2206
91.4343
93.9843
93.0298
91.0889
93.4218
107.874
93.2256
94.7836
94.2599
92.8085
74.8224
93.4963
93.5743
94.4849
94.866
93.634
94.3537
73.0079
93.3412
94.8663
70.2064
93.9807
75.2004
92.2556
94.9172
94.1539
93.1022
92.912
75.628
94.6327
98.5323
87.3599
109.927
95.4123
94.5926
84.2224
90.8575
94.9748
104.37
90.291
88.3984
104.688
91.7959
94.602
94.5871
92.0563
103.749
88.9175
68.0905
87.7182
93.8478
94.9463
94.2318
96.3591
92.6524
94.3173
92.121
96.4844
94.7257
92.5767
94.1742
93.6083
93.562
91.4746
85.6246
94.5174
84.9331
94.9138
81.1929
94.0867
94.8026
94.921
95.1621
94.6666
94.8021
94.2359
94.3155
89.1807
84.8919
94.4379
81.7916
94.9176
95.2283
75.4738
95.6184
84.9066
97.9308
94.9762
102.722
68.3532
95.2542
92.797
71.7823
93.9344
84.7429
94.3372
94.4982
94.0854
73.2318
95.0702
90.6756
89.349
94.8978
94.4475
81.7004
93.3495
78.9979
87.9907
96.1157
94.4725
93.8447
84.5647
91.1486
93.6905
95.4398
94.5516
95.8603
94.9532
72.6529
88.975
92.943
100.702
93.5946
96.8967
88.7606
89.2867
93.7147
94.8218
94.5626
73.0907
90.591
93.5295
102.025
94.9814
82.0512
95.2362
68.8705
106.012
105.021
84.7535
91.0733
88.032
97.9093
93.4057
99.8466
93.4546
105.657
93.5842
90.8243
98.9664
96.9162
96.5341
93.3469
95.5293
123.249
95.0815
101.973
87.9659
103.916
95.2205
93.6124
25.7278
64.7631
87.5741
94.8279
94.8504
93.4124
74.595
95.7005
93.9684
94.8141
70.3872
95.1997
95.2232
95.6359
95.7834
95.1887
95.739
95.243
94.8514
95.1665
95.1693
95.8118
95.9337
95.2031
95.8851
95.0894
95.1809
95.0613
96.6701
96.6594
93.588
42.0506
96.7466
93.6385
93.6595
96.8252
94.5419
91.617
96.0608
95.5524
94.7694
94.8056
94.4966
95.5305
95.7722
95.1341
95.5191
93.6144
96.911
93.6499
96.6024
95.0027
65.243
102.094
96.8121
62.1755
94.3741
61.2041
94.8795
95.4892
94.883
95.3956
94.3962
94.4706
85.2334
96.9452
93.6732
96.8498
93.7562
92.5234
99.7038
90.0396
85.951
80.6198
94.6693
99.4673
90.2905
91.7597
99.3751
99.1925
81.6912
90.449
94.4466
91.2229
89.9367
100.912
99.8775
91.0326
94.844
99.2834
90.225
100.635
90.4114
90.492
91.6505
81.5862
94.9576
44.8455
91.3241
94.6842
94.9482
89.0529
80.4286
94.4804
94.8699
99.7987
101.097
90.7595
44.3189
90.0028
91.7014
90.2936
88.7974
94.8157
90.2798
94.24
99.0846
95.0322
43.269
90.1478
94.7864
94.1595
88.5959
39.8978
92.2948
107.983
87.1521
55.8331
89.4126
94.393
92.4013
95.0656
101.421
85.688
85.7121
40.7148
42.555
70.1856
95.7097
68.647
83.2766
89.8864
93.3583
94.6341
94.6087
93.9932
66.5792
94.8315
111.201
96.0102
56.0372
96.4438
96.9907
86.5205
94.5843
95.0245
95.3342
68.1587
93.6246
95.0201
94.8697
92.6692
88.1465
93.3921
92.404
94.8439
88.786
86.4956
94.7781
94.6916
75.796
96.2762
95.5452
95.284
94.8313
95.0775
87.0498
101.507
95.1565
97.0662
93.574
94.176
94.8494
94.8311
74.6384
94.7577
94.6179
94.5785
89.1372
90.0808
94.8107
40.0811
94.5072
94.7787
94.6472
94.8368
91.3906
95.2155
95.9859
94.3606
95.0119
94.7947
94.583
94.628
93.9798
94.8934
94.5923
96.6732
94.6278
94.9198
94.519
94.4327
94.8349
95.0745
95.456
92.1552
94.5044
95.427
95.2801
94.9237
93.502
95.1577
94.8338
69.6838
93.8706
94.6014
87.5798
95.0813
101.597
97.0869
93.5679
95.3006
94.8385
94.6118
111.009
85.125
92.1404
95.1009
94.7843
95.7621
92.8392
92.5389
87.4205
94.7775
94.679
94.7883
39.4954
100.079
93.6496
93.1549
85.171
92.3692
72.2248
93.7329
94.8313
110.83
92.6864
95.1483
92.5089
94.7568
73.8638
93.5968
94.8264
101.771
88.2471
95.085
110.433
87.7586
93.2057
95.1942
96.4817
39.081
100.386
92.1115
85.3112
96.0286
96.22
92.4918
91.9703
95.3888
95.6929
95.2299
94.9604
73.8403
93.5286
94.8384
93.9902
96.3693
95.2223
110.616
90.2607
94.2101
40.1747
45.0242
92.6583
100.513
96.712
93.6325
96.1907
91.8471
92.2545
92.6542
91.4092
95.4368
94.845
94.102
88.6694
101.959
95.0331
112.402
93.2151
95.1918
94.9564
88.5123
89.2362
96.0682
96.3726
96.2885
96.0219
91.7564
84.0404
96.4413
95.4569
95.5193
94.773
74.5501
93.3574
94.8191
89.3223
101.925
95.0187
110.4
87.9256
86.3744
76.9364
93.2657
95.2049
97.5168
96.9791
94.2784
44.2914
92.9577
101.754
96.3842
80.8539
99.6471
96.1926
95.4729
93.2066
92.0208
92.5628
83.8798
95.274
85.5885
95.5189
92.4786
91.7773
97.8771
88.8747
95.1475
95.8704
85.2095
80.7486
96.2734
95.4334
95.5022
94.8368
75.1756
93.224
94.8495
94.2075
94.7451
88.9748
94.6936
96.4459
95.7741
106.459
94.3549
86.5749
93.4743
95.2007
96.9129
94.3381
40.5877
93.2505
94.5683
89.0592
94.3499
96.4037
82.1925
84.8842
95.1047
97.1333
93.6503
93.5792
96.5888
89.4012
85.0478
94.7752
94.463
94.8204
94.6258
96.0269
96.3711
80.5952
92.2372
83.3512
95.608
88.266
95.4319
95.9182
92.5555
94.6102
110.296
94.723
94.8057
76.4609
95.6218
95.8466
95.8122
95.2923
94.9149
81.3769
58.729
57.7181
84.3505
94.7036
75.1021
93.1601
94.8091
94.4273
94.5022
94.4673
89.0069
102.109
94.864
94.7185
94.8564
95.1668
95.4274
96.1699
95.0491
94.81
94.7996
94.6487
79.8772
85.5039
95.9852
70.8372
84.4895
94.8362
101.802
95.5114
95.2401
95.6923
110.183
82.1923
93.7133
95.1693
89.4035
79.1921
96.6624
73.7931
94.69
94.3275
88.3419
73.8179
95.4531
86.7713
93.657
94.8097
111.761
93.1959
96.3881
96.1901
94.3902
92.0944
94.6747
94.5719
70.235
96.0573
96.2939
94.6748
94.7946
95.227
95.329
95.6954
91.9427
96.0604
78.2356
95.363
96.3387
83.0251
95.0073
99.1508
101.007
94.6937
71.443
95.3457
82.6909
101.647
95.0637
95.6547
94.6038
96.4601
103.351
77.3733
95.2041
96.5129
93.2314
78.4787
94.7529
94.0345
94.7218
95.8277
95.293
96.0708
93.9143
61.6842
96.8067
107.232
76.5186
94.842
95.2419
68.364
92.5807
92.5879
94.0838
96.375
94.8345
95.0756
81.807
96.1986
96.1856
84.381
84.8381
92.3255
92.2396
89.4379
94.9463
95.4015
75.5391
92.9592
94.8409
90.3454
81.195
96.2272
75.9582
95.1093
96.5079
96.3074
94.5365
89.1712
94.1688
94.8355
90.4497
91.3557
82.5862
96.176
95.1966
95.7734
95.7328
94.6365
96.3416
99.5346
95.3402
103.532
64.8608
96.1949
94.981
92.747
72.6864
94.5181
74.5821
94.5592
69.1472
105.945
89.5695
102.031
95.0038
94.4541
94.6002
95.6856
96.1368
88.9765
100.1
95.9735
81.1124
89.0595
101.708
95.337
96.7778
93.4454
64.5871
94.0301
94.8533
109.995
87.1145
76.6666
89.7833
77.907
48.148
94.4124
93.7999
95.0771
95.8469
94.6722
95.7869
89.29
94.0897
94.7863
95.6929
94.6996
94.5286
95.2737
94.9513
95.3482
95.4717
45.37
85.7224
94.7771
103.386
96.4383
78.5248
93.7252
35.9667
91.039
88.979
93.4593
84.8173
89.6472
110.816
77.3545
61.2132
94.3499
106.951
88.8369
76.0895
95.4419
95.0248
94.7006
95.5646
94.7389
94.6299
84.1019
94.8627
94.9703
103.376
95.4807
95.9208
82.3119
95.1593
96.5692
94.4318
94.5424
90.9801
92.7744
90.7317
105.533
93.6406
95.6124
96.0809
95.6433
96.3478
94.7352
111.49
94.4039
60.8134
93.0747
94.3919
69.3907
110.533
94.6311
94.4767
95.1847
91.9341
91.0222
93.3922
93.5365
96.3213
84.4669
95.6605
70.8178
89.4156
94.8005
88.881
94.8357
95.6386
57.6148
95.5936
91.4858
75.107
73.4532
96.0668
69.9425
95.3594
95.5071
94.4226
94.4828
92.996
81.1798
95.5627
93.9525
95.2925
96.1455
95.0429
94.7401
90.3702
95.2456
95.5744
92.7335
93.0885
83.5195
93.7037
82.7773
82.873
85.3145
67.9656
92.8311
94.7035
76.5028
96.3261
94.8834
94.6234
95.8815
100.257
95.4466
95.3083
88.427
89.7611
87.1674
94.9841
74.13
92.178
95.627
88.0547
102.006
86.8095
69.8547
66.4889
82.7929
95.6824
89.4994
94.433
97.7185
96.0422
90.1351
103.508
93.7917
92.0138
93.0702
75.4806
92.8605
94.7745
91.6712
93.3974
76.9882
96.5539
94.5977
95.3901
76.6509
94.9081
95.2756
95.1776
86.1865
95.9862
94.4872
91.8642
96.9815
90.4616
94.8826
75.1073
92.4819
94.8029
109.952
101.712
94.7746
75.7635
96.5113
100.175
100.96
94.9563
94.5193
92.7618
81.153
94.5
92.7615
86.5301
111.552
95.373
94.2791
95.07
89.139
101.789
94.789
94.0973
90.801
95.7941
94.657
87.6683
94.8309
82.3633
42.2819
71.1266
94.5151
96.3713
80.3885
95.6822
94.6731
93.0923
88.5688
92.8636
104.145
83.4468
94.5945
94.5727
94.8568
95.0236
95.612
81.6701
95.564
75.417
98.0752
94.439
94.7615
94.6925
108.427
95.2079
73.7597
83.631
90.8477
109.907
105.685
94.7136
90.8329
90.8259
94.6424
72.3748
90.016
19.0781
95.0466
103.937
83.2844
94.8947
94.5879
89.3276
113.165
95.7524
74.9736
92.4045
94.5435
94.3462
101.711
93.6872
96.8063
94.6421
88.9301
95.4756
95.0679
95.0839
96.0325
84.265
111.766
100.215
93.532
93.9318
94.8256
94.3777
91.4368
93.671
94.5019
89.7045
93.7188
92.5107
94.4913
95.2976
92.8881
103.171
94.0496
94.054
84.2766
69.4751
36.799
95.8852
95.0571
75.1695
92.3628
94.6759
92.8179
95.0876
95.7766
95.1422
88.7237
95.0945
95.1121
94.7414
94.5427
81.1531
92.583
81.0266
95.3561
91.3451
82.105
93.3121
90.9039
71.747
95.4046
94.49
94.7619
94.6727
94.5838
95.1064
84.3339
95.5066
94.9288
95.5008
105.486
104.115
91.376
94.5184
94.6746
94.7395
93.1021
72.6146
85.1208
88.5975
93.3896
92.3246
96.8875
93.9959
66.2498
83.9443
94.1189
94.2654
94.7664
86.4386
94.5262
95.7261
101.051
95.1241
91.5713
93.6207
95.3177
93.7125
91.343
69.5273
94.9551
95.9519
91.3855
93.7385
80.3743
89.06
77.9679
89.917
94.2559
85.1679
94.3558
95.1659
96.0448
84.4724
84.5174
94.0345
90.6155
92.9281
94.9163
94.9942
95.6764
94.689
59.7337
95.1404
91.7763
93.5498
94.8289
92.6196
92.8532
89.878
88.9656
84.67
74.4375
91.6649
95.2519
95.1763
93.6198
81.661
94.9971
94.7519
95.6614
95.0286
96.3591
111.532
87.3382
36.778
88.2847
92.8441
95.7587
96.3526
74.6185
91.8518
94.2428
94.6847
90.9499
94.2801
84.3847
89.3471
100.843
95.009
93.2053
90.0708
63.1767
98.6862
93.7326
94.4751
94.4031
96.2942
97.6061
83.6222
92.759
91.7264
74.028
109.714
85.6684
95.8296
94.7639
101.176
76.3959
88.7292
68.8557
92.84
93.5354
91.6713
79.4907
92.1121
95.0069
93.3966
95.1537
93.9681
63.5121
96.3925
94.841
94.9197
94.8854
94.7917
82.119
95.1812
93.9411
94.9488
67.9237
71.7973
94.2155
94.2201
86.7884
94.7755
95.198
62.5859
90.9962
96.1037
35.6979
96.0118
103.63
94.7163
66.2885
88.3643
95.4428
94.588
92.9697
95.7849
94.3952
95.0594
95.0812
94.7629
102.659
91.9776
85.2894
93.839
90.743
113.168
93.6694
96.7524
94.6379
94.9806
95.9628
91.7785
94.5633
91.3317
74.0808
91.6477
94.4806
92.5543
75.8255
94.1909
93.8214
89.7372
81.747
95.819
94.2476
95.0491
51.7192
84.4564
94.5173
95.3773
71.4998
111.384
63.467
97.8086
96.9087
73.5084
91.6971
94.7163
94.3506
89.6825
73.2999
92.1696
94.6201
94.1511
94.9641
104.164
120.38
96.2173
102.399
94.0243
110.448
78.9786
95.0689
94.8535
80.4254
95.3756
93.7399
94.7089
95.3257
95.163
94.503
94.4969
112.092
94.6805
102.106
87.0806
95.0496
95.2203
94.2438
92.6152
94.3665
93.1225
75.4065
94.7688
94.6027
94.8821
94.6837
85.2581
93.6262
96.7964
93.3203
84.8128
85.3155
32.5604
112.019
94.9664
94.5081
95.5015
95.0009
94.9655
95.4207
60.1686
90.6041
94.4742
83.6587
89.197
96.5034
95.2009
89.604
101.733
90.0558
94.0837
94.7803
85.1755
28.0835
95.0521
84.7118
101.321
88.8019
88.6364
85.4903
83.8774
88.5577
78.8387
90.3751
75.7095
109.924
94.7703
88.9351
94.8459
85.7352
35.8784
94.6572
94.4601
89.469
94.3967
94.8916
90.718
94.6471
94.5874
95.393
94.8721
94.6881
104.152
95.5511
95.3708
94.7564
94.5549
93.9212
89.9976
94.4917
94.9002
95.0176
92.4073
94.4469
93.0012
94.2656
96.6447
93.5802
85.5105
79.5251
110.031
94.6647
95.5136
88.3557
102.188
88.1968
94.827
90.4566
93.3293
95.0289
92.4488
108.622
95.0417
86.1967
95.0741
83.1872
87.1125
107.197
110.74
95.1424
78.5038
93.1467
95.2931
92.7415
90.1368
87.3437
87.4538
92.6098
94.8233
94.634
94.5641
93.7816
75.71
64.0556
109.9
82.1819
94.7205
94.5375
89.1756
89.1126
103.084
89.9399
92.4537
103.158
94.8897
103.045
99.2991
93.4296
108.202
93.8279
111.087
86.7151
94.2613
88.9538
90.5606
94.704
99.1297
88.22
85.8688
22.2335
94.7262
106.685
96.2926
91.0951
95.8857
92.9914
90.7627
107.732
110.333
80.4973
95.1301
90.1124
75.7284
91.334
95.5717
88.2368
94.6471
92.4233
89.0702
94.0798
93.6406
93.0376
92.4582
89.4546
110.92
95.7479
91.4866
93.6591
84.6529
92.7852
85.615
84.6539
93.8978
94.8834
95.1829
94.6259
86.5037
95.6769
94.9947
92.1907
112.045
93.2747
109.785
102.887
96.0274
94.6364
94.9097
95.6033
93.5886
95.5611
111.354
83.6709
95.6842
89.2886
96.2296
101.482
84.6747
95.0166
95.286
93.8831
84.0637
94.6245
93.9515
78.3396
96.4023
96.2251
95.1223
95.449
92.7514
95.0283
109.195
89.9367
89.0681
95.659
95.5713
94.9068
93.8878
93.6015
93.3106
95.274
94.591
86.8143
89.6141
95.8094
44.2443
84.0232
94.6507
84.8875
92.8523
75.5293
94.6463
108.997
93.857
99.2664
94.9975
94.7406
90.398
67.4267
95.2162
94.5337
84.6342
91.8907
88.9713
102.184
94.9612
91.7787
93.8316
77.8772
95.441
95.31
50.8886
48.3265
91.8415
94.627
95.6749
95.6661
95.0539
90.6078
72.928
95.5559
92.9958
81.5197
80.3926
96.0839
92.2934
95.0171
95.1238
109.934
86.1435
94.9255
86.6788
95.0083
93.3001
95.076
90.811
95.2126
88.7005
102.248
87.3449
94.9396
94.8209
76.1751
37.3241
94.2604
94.7683
88.6509
107.728
93.6696
88.9359
95.0213
92.6253
92.5807
96.8986
93.3251
88.6847
94.4837
96.2605
93.1056
75.3277
94.7344
92.2702
93.9163
89.205
94.9
95.2201
94.1059
97.2702
92.4738
89.5577
95.2936
92.4638
101.301
83.8308
95.0614
95.7924
92.0272
91.8389
94.7665
94.0122
88.9305
87.0896
94.5155
94.0408
105.502
128.247
89.8841
87.0263
109.768
95.9345
93.4147
92.1321
104.785
94.6079
83.9686
7.85326
84.7428
95.6104
90.8955
95.0742
92.5287
94.4547
75.4824
94.6386
82.0614
91.4641
92.9694
94.4851
82.9979
95.3421
110.019
67.5904
98.0861
96.8093
93.8138
74.538
92.5274
93.968
95.0799
95.2891
91.42
74.5909
88.6596
30.4822
102.22
85.4627
95.2492
90.4681
93.3785
94.3807
94.5652
94.3872
96.9996
92.1021
91.9236
95.2652
93.2927
89.5955
96.0223
92.3468
93.4616
83.2851
102.38
94.5796
91.4598
93.7608
93.5429
84.8059
102.239
95.4406
83.3621
95.9073
89.6697
89.543
94.5968
96.4438
94.1387
94.148
93.6625
83.9664
90.8775
109.53
91.3781
93.9284
111.761
93.9469
88.1034
94.7178
69.517
87.1882
87.1846
95.1477
84.9853
95.1532
83.7075
83.7012
86.8847
84.9225
93.5543
94.0129
94.297
93.709
89.3827
92.7992
94.9533
94.5939
94.9002
68.6554
76.6005
85.3543
93.7746
93.9732
83.2917
84.6168
94.1746
70.5832
95.0704
94.805
96.5518
49.2771
74.9699
91.8699
93.7367
93.6818
94.6757
93.3101
74.8739
94.7628
92.4008
76.7251
93.6782
107.991
91.6643
94.6554
73.0701
90.5059
93.567
83.2375
68.5855
95.3275
90.9719
96.9226
92.8575
94.9821
90.578
101.089
102.13
88.1876
94.8266
94.923
94.8967
94.9152
94.1836
96.904
111.946
86.0264
96.2669
99.2568
89.7696
95.0875
92.0227
94.2069
94.5424
89.9615
94.8768
87.6889
96.948
93.6471
87.7833
83.1685
89.0128
92.8459
111.085
88.0763
88.9885
94.6169
93.8416
93.4439
99.0251
109.034
94.1165
94.3419
95.9174
99.6133
95.8008
95.1237
94.677
94.8189
75.0215
97.1098
93.9254
95.677
56.3654
86.5096
95.0459
83.1621
101.228
94.6809
94.5048
94.3068
95.28
95.7226
98.2171
95.2335
95.6244
95.2853
65.4621
94.5691
95.0364
84.0957
64.7399
16.2024
92.2591
53.6067
97.2159
93.4377
62.4123
94.2632
96.297
94.7148
93.8415
94.7989
92.5165
93.484
117.628
90.2927
111.582
93.2179
90.9841
93.7704
93.6041
93.5921
83.5922
49.0227
102.3
84.6595
94.9126
94.4258
96.1592
89.7041
96.3195
88.2195
93.4442
84.323
84.1778
89.9234
89.988
38.3901
94.8824
73.9737
92.0276
95.1872
93.9106
92.9206
94.8819
73.4118
45.5933
95.3565
84.0699
95.5037
94.4614
91.2905
93.4889
96.5881
95.0912
81.441
98.2815
88.5879
95.1429
93.2722
93.782
96.8221
82.6907
94.375
109.878
102.457
93.7723
90.2986
96.3591
92.304
75.9765
93.7892
94.7184
98.0126
83.5278
99.6629
88.4213
92.7934
96.8913
94.8473
97.8394
53.3597
101.822
95.0701
86.785
93.4273
94.78
109.299
94.8533
93.4116
96.5361
92.641
95.0827
73.5179
36.36
98.4866
84.6255
94.4716
85.5645
92.342
91.2967
97.0649
93.2559
93.3272
94.9798
94.9
91.5028
110.225
94.9957
96.3067
89.5983
94.2488
44.9417
94.0109
87.6905
101.151
95.1713
93.9744
91.7194
84.4159
95.9277
94.3477
91.4034
76.4355
93.9023
91.9528
97.3145
109.101
94.5683
94.0079
94.8087
93.8032
94.9352
90.8911
94.8208
94.7087
97.1995
93.6565
92.8934
85.5388
91.0637
94.2546
101.14
61.7348
94.608
47.7586
93.1196
90.9321
87.8626
85.0551
93.4049
93.6167
70.8399
92.5256
102.547
95.0883
85.6444
101.651
106.964
100.271
94.5258
94.073
89.7872
83.9146
96.026
90.306
90.1884
94.7954
94.2992
100.215
100.448
85.559
77.85
93.7957
86.8058
84.5395
94.8586
94.9973
87.7511
94.7196
90.2288
109.46
96.0212
95.8275
95.757
95.2823
95.8291
96.3242
85.3849
95.4558
93.2956
74.9659
94.7727
95.0514
91.81
94.5593
95.1797
94.785
88.7707
78.1947
94.2418
94.0548
89.7247
99.6088
94.496
95.2731
95.6324
94.5345
93.6332
105.118
94.5184
92.3425
94.853
95.3704
87.9698
93.6474
90.6494
93.5052
94.8057
94.3753
94.6083
94.7843
89.3633
94.2092
94.7706
112.033
93.8247
95.0178
90.2804
95.1529
83.1272
92.9254
90.5804
89.0036
93.3665
83.9572
104.193
83.2474
95.7146
95.2068
95.0211
95.1915
93.7236
93.5403
95.3122
92.0842
95.5265
94.9741
94.4297
47.4456
66.2765
112.105
94.2204
93.0427
94.9224
106.189
73.3792
48.0831
84.6313
95.2292
94.6311
95.4583
88.1353
95.0855
91.9505
79.7521
95.5468
77.6433
90.795
95.1527
94.9793
94.5697
85.4752
109.557
94.1609
89.3087
94.2238
94.587
95.3109
90.8664
101.188
83.3249
95.0488
84.2249
95.7739
95.346
95.3823
84.3592
102.206
95.0955
91.5338
94.877
95.3977
109.88
95.91
94.6879
95.4197
95.3426
94.6578
94.721
93.1362
112.008
84.7725
94.9318
91.1115
77.6299
85.5692
94.6109
95.319
95.2857
94.2723
94.7323
93.2284
38.0501
94.5304
94.5889
94.6019
110
82.7856
89.0446
95.0385
111.797
93.8196
95.7095
82.4868
36.5524
51.8377
93.7858
40.6305
95.1018
35.91
95.9095
97.5536
88.714
96.213
95.3247
95.2933
95.1243
95.2224
92.7291
92.4822
92.925
92.9838
95.3341
93.073
58.6214
94.416
94.4156
94.5099
94.4483
51.9936
94.4419
95.9192
90.7463
92.2399
91.5375
90.1233
64.4125
44.6837
89.7793
73.8256
69.2958
89.755
94.4258
84.3806
86.3394
85.4383
83.2872
95.967
93.238
87.0338
95.9227
95.3389
96.5901
96.142
96.8043
96.3613
87.5384
98.1921
102.972
103.284
94.3375
98.5394
97.9283
89.7987
97.6723
98.9492
102.762
103.871
100.014
99.4695
104.745
105.757
107.276
106.648
97.4294
94.2216
97.2496
97.1755
95.8773