/*--------------------------------*- C++ -*----------------------------------*\
| =========                 |                                                 |
| \\      /  F ield         | OpenFOAM: The Open Source CFD Toolbox           |
|  \\    /   O peration     | Version:  v1912                                 |
|   \\  /    A nd           | Website:  www.openfoam.com                      |
|    \\/     M anipulation  |                                                 |
\*---------------------------------------------------------------------------*/
FoamFile
{
    version     2.0;
    format      ascii;
    class       surfaceScalarField;
    location    "0.28";
    object      phi;
}
// * * * * * * * * * * * * * * * * * * * * * * * * * * * * * * * * * * * * * //

dimensions      [0 3 -1 0 0 0 0];
oriented        oriented;


internalField   nonuniform List<scalar> 
2776
(
1.56524e-05
0.00020418
-5.6769e-06
-0.000214155
-1.77884e-05
-7.87225e-06
-0.000280042
0.000305702
-6.84499e-05
3.40188e-05
-4.93256e-05
8.37566e-05
-2.89397e-05
1.57728e-05
0.00018218
-0.000169013
4.26261e-05
6.58667e-05
-2.60395e-05
-8.24533e-05
-0.000612901
-0.00058633
0.000755173
0.000444058
-3.04546e-05
2.88001e-05
-3.19257e-05
3.35802e-05
0.000218719
1.15323e-05
-0.000164159
3.07867e-05
-2.14958e-05
0.000154868
-0.000121989
0.000104913
-2.41431e-05
4.1219e-05
1.62102e-05
6.63016e-05
-8.25118e-05
0.000398799
-0.000362601
0.000125602
-0.0001618
1.26089e-05
-1.26089e-05
0.000248089
-0.00012593
-0.000117935
-4.22424e-06
-2.30249e-05
-0.000228109
0.000188533
6.26007e-05
1.00398e-05
8.607e-05
-2.83334e-06
-9.32764e-05
-4.95409e-05
-3.32745e-06
5.28683e-05
0.000134041
5.78849e-05
-4.47573e-06
-0.00018745
0.000128356
-1.11109e-05
7.30239e-05
-0.000190269
5.19789e-05
-7.79248e-05
0.000194651
-0.000168705
2.48856e-05
-6.97825e-06
4.9805e-05
-6.77124e-05
-8.70811e-05
-0.000134636
0.000160191
6.15264e-05
0.00028625
-0.000242211
-4.40384e-05
8.75833e-06
0.000248768
-0.000234629
-2.28973e-05
8.13531e-05
0.00020184
-3.5104e-05
1.34999e-05
-1.17512e-05
-2.02961e-05
1.85474e-05
4.13959e-05
-1.70039e-05
-5.57312e-06
-1.88189e-05
-4.1953e-05
3.2901e-05
-0.000153302
0.000162354
1.97258e-05
2.08357e-05
0.000316005
-0.000286447
-2.95579e-05
-6.13649e-05
6.94545e-05
-3.11046e-05
-0.00041093
0.000538073
0.000749375
-0.000876519
0.000131578
-8.47526e-05
-0.000104022
4.20765e-05
-5.65867e-05
-0.000258787
0.000273297
-0.000260903
-1.66959e-05
0.000181486
9.61128e-05
0.000148162
-0.000152876
-1.8311e-05
-2.07432e-05
5.98818e-05
-7.09581e-05
3.18195e-05
2.17552e-05
9.50942e-05
-6.70325e-05
-4.98169e-05
-0.000480094
-0.000461178
0.000589527
0.000351746
6.74272e-05
-0.000127542
-5.95996e-05
0.000395435
6.29637e-05
-7.49141e-05
0.000108963
-5.29226e-06
-2.87566e-05
-7.26966e-05
1.22375e-05
-0.0001037
-0.000169807
0.000101821
7.92616e-05
-1.12763e-05
0.000376784
-0.000320716
-4.0243e-07
-5.5665e-05
0.000214759
-0.000229246
-7.63621e-05
9.085e-05
2.70983e-05
9.90175e-05
1.80943e-05
-0.00014421
7.38956e-05
-0.000132794
0.000192939
-5.50775e-05
-3.45649e-06
-1.63801e-05
4.31652e-05
3.98773e-05
-5.81569e-05
4.82496e-05
-5.82126e-05
2.03279e-05
-1.03648e-05
2.5521e-05
3.48238e-05
7.89283e-05
-0.000265879
-6.84576e-05
0.000101621
-0.000131585
9.84207e-05
-0.000124347
2.81071e-05
0.000106864
-1.06242e-05
6.82489e-05
2.89842e-05
-3.82251e-05
-5.9008e-05
-1.32595e-05
7.03895e-05
-6.47838e-05
7.65373e-06
-9.15858e-05
-4.61571e-05
6.92853e-05
1.66714e-06
-1.39287e-07
9.77253e-05
-9.92531e-05
0.000358082
9.87294e-05
-0.000311066
0.000178268
3.40688e-05
9.64607e-05
-0.000205444
0.000107707
1.2762e-06
0.00015883
-0.000188861
0.000131653
1.14356e-05
5.24411e-05
-7.0855e-05
-2.3215e-05
-0.000208029
0.000237918
-6.67479e-06
-0.000161242
0.000179728
-0.000105566
1.51934e-05
-1.3204e-05
-4.01878e-05
3.81984e-05
-0.00018966
0.000228713
-8.30175e-05
4.39639e-05
5.82372e-06
7.77708e-05
-6.18393e-05
-0.000219097
8.73115e-05
0.00021028
-7.8495e-05
4.5735e-05
-3.99112e-05
-1.66085e-05
-0.000157799
-0.000114364
-0.000221068
-4.08721e-05
4.28432e-05
0.000133771
-0.000244292
0.000184417
4.34463e-05
4.89318e-05
-7.26523e-05
-0.000110033
-3.24227e-05
5.08697e-05
-2.39191e-05
4.44636e-05
-7.61701e-05
5.56255e-05
0.000155769
0.00012831
-0.000171623
-0.000112455
0.000157381
3.30784e-05
-0.000170624
-1.9835e-05
-7.83151e-06
-3.62575e-05
-1.09885e-05
0.000101735
-8.89245e-05
-2.95754e-05
1.6765e-05
3.41235e-05
5.54306e-05
-5.24913e-05
-3.70628e-05
2.6765e-05
5.90998e-05
1.58701e-05
0.000198746
9.89079e-05
-0.000104986
-0.000192668
0.000249796
2.74108e-05
-5.4425e-05
-0.000222782
-0.000243665
0.000240186
1.61496e-05
-1.26705e-05
0.000190622
-4.66028e-05
8.24959e-05
-0.000226515
-2.26988e-05
-1.06041e-05
3.33029e-05
-1.84423e-06
1.03135e-05
8.24278e-05
-9.08971e-05
-4.73404e-05
-0.000140619
0.000202068
-1.41091e-05
3.39061e-05
4.45099e-05
-3.01665e-05
-9.63697e-06
3.01034e-05
-2.1459e-05
-0.000252588
2.93045e-05
0.000244742
9.83381e-06
-1.75159e-05
-7.84847e-05
8.61668e-05
-1.90117e-05
0.000259146
1.1286e-05
-0.00025142
3.79962e-05
-2.36713e-05
0.000176297
1.29917e-05
0.000211311
-0.000194484
-5.87805e-05
9.63567e-06
-3.74514e-05
-8.72539e-05
0.00011507
0.000163541
-0.000185
7.36146e-05
-0.000127298
0.000103782
-5.00991e-05
0.000324871
-0.000182809
4.83468e-05
-6.10491e-05
2.41379e-05
5.43378e-05
0.000143761
-4.07184e-05
-0.000279883
-9.60695e-06
0.000270478
0.000132679
-0.000165942
0.000135735
-0.000102473
-4.82088e-06
3.86363e-06
-6.10638e-05
6.20211e-05
-3.3311e-06
-2.81987e-06
-2.23369e-05
2.84879e-05
-2.20856e-05
7.03124e-05
0.000109133
-0.000157359
2.32978e-05
9.88948e-05
2.12075e-05
-8.59854e-06
7.91658e-05
7.98519e-05
-2.19883e-05
-0.000137029
0.000213774
6.86847e-05
-0.000119194
-0.000163264
0.000224755
-0.000169381
0.0001584
3.00031e-05
-0.000253451
-2.0217e-05
2.2775e-05
4.79491e-05
-6.36161e-05
-7.10797e-06
-1.3588e-05
2.85138e-05
3.75154e-05
-3.68307e-06
-0.000142641
0.000182711
-3.63865e-05
9.34093e-05
-2.47246e-05
0.000163551
-0.000101825
0.00013702
0.00010597
-4.07973e-05
0.000184624
6.84443e-06
4.99076e-06
2.10828e-05
-3.2918e-05
9.85143e-06
-1.70183e-05
7.18276e-06
-1.58859e-08
-0.000158838
0.000179898
-5.88129e-06
-1.51789e-05
6.08136e-06
4.41496e-05
-5.20752e-05
0.000318888
2.18605e-05
-0.000263403
-7.73458e-05
-1.91338e-05
-5.3812e-05
2.40815e-05
4.88643e-05
1.26265e-05
9.12677e-06
-0.000242821
1.25583e-05
2.49016e-05
-0.000176657
0.000139197
-0.000300146
0.000163494
0.000295481
-4.62265e-05
7.47724e-06
2.95621e-05
9.18716e-06
-0.000122858
-1.97084e-05
3.25333e-05
0.000103301
-1.0185e-05
1.5847e-05
3.2833e-05
-8.78811e-05
8.51363e-05
-3.00881e-05
-0.000483911
0.000410066
3.13708e-05
4.24745e-05
0.000163539
-6.22819e-06
-0.000144684
5.6846e-05
4.80669e-05
-2.658e-05
1.59759e-05
1.37918e-05
-1.82274e-05
9.53311e-06
-5.09751e-06
-4.54664e-05
-0.000170951
6.23519e-05
0.000154066
-0.000104601
-2.52651e-06
-0.000109512
8.72902e-05
2.22222e-05
-6.70557e-05
-3.84066e-05
0.000105462
0.000198015
-2.79081e-05
-0.000189271
1.91633e-05
-0.0002723
6.88314e-05
-9.66769e-05
1.21441e-05
5.45291e-06
1.44203e-05
-4.48582e-05
2.44294e-05
3.02803e-05
-6.30413e-06
0.000240155
6.33511e-06
1.83226e-05
-0.000217738
0.000156851
4.25644e-05
8.38838e-05
0.000134433
-0.00018032
3.89587e-06
4.56856e-06
1.48896e-05
-2.3354e-05
0.000199808
-0.000113378
0.000103274
-0.000151917
-0.000100965
0.000149608
-2.63382e-05
3.69484e-05
1.30984e-05
-2.37086e-05
0.000199486
2.85321e-05
-4.58996e-05
0.000237706
1.95044e-05
0.000223366
-1.18651e-05
-2.56618e-05
-0.000185839
0.000338912
3.14116e-06
-6.85748e-05
-0.000191961
-6.9716e-05
6.71932e-05
1.9322e-05
-0.000131866
0.000139258
-0.000114344
0.00010741
-0.000132324
6.5976e-05
-8.42013e-05
1.82254e-05
-0.000172466
0.000108879
-3.63334e-06
6.72203e-05
-3.3976e-05
6.88139e-06
6.84905e-05
2.55721e-05
-4.6528e-05
5.50794e-05
-2.22777e-05
4.36166e-05
3.40918e-05
2.21657e-05
-3.11573e-05
-8.02669e-06
-0.000266949
4.34589e-05
-4.88098e-05
-1.86284e-05
1.51245e-05
0.000347044
-0.00023231
-0.000132523
-6.88391e-06
-0.000133075
-5.20016e-05
-7.08291e-05
5.67193e-05
-1.83129e-05
-4.57509e-05
-5.17356e-06
-0.000177185
-8.1098e-06
-0.000209622
9.88211e-05
-0.000109546
8.43391e-05
-4.48493e-05
5.36865e-05
-2.7971e-05
3.25446e-05
0.000169886
8.52253e-05
0.000177055
-2.0124e-05
0.000118949
0.000119845
-0.000130085
6.45772e-05
-1.20941e-05
6.47391e-05
4.63549e-05
-9.89999e-05
0.000139091
-3.29119e-06
1.23618e-05
4.70327e-06
0.000133628
1.33659e-06
-0.000134965
-0.000155216
0.000126301
2.89152e-05
4.53323e-05
0.000126753
-9.02078e-05
8.37807e-05
0.000105248
-7.75663e-05
8.77148e-05
1.74509e-06
1.52774e-05
0.000393043
-0.000115389
9.03193e-05
-0.000132498
0.000157568
-0.000126386
0.000143676
-0.000177657
-9.64614e-05
0.000108177
-3.36416e-05
8.6262e-05
6.933e-05
1.14841e-05
-4.01225e-05
4.48375e-05
-1.61991e-05
6.67132e-05
-5.02497e-05
9.53891e-07
-0.000140563
-3.28566e-05
4.91012e-05
-7.17937e-05
-6.03643e-05
7.98478e-05
-2.294e-05
7.70128e-05
-6.68885e-05
-0.000266226
0.000103868
-0.000149524
-4.91024e-05
-7.82286e-05
9.58971e-05
-3.58406e-05
1.81721e-05
-0.000119332
0.000131422
-0.000206868
9.70716e-05
7.61553e-05
5.649e-05
-2.38506e-05
-2.11553e-05
7.74966e-05
-5.63037e-05
-2.22366e-05
1.04371e-06
-2.22132e-05
4.2085e-05
2.12842e-05
-3.88811e-05
-2.47439e-05
4.23407e-05
-7.50386e-05
2.84414e-05
4.65972e-05
0.000161007
-8.19221e-05
-0.000198279
-0.0002089
1.56423e-05
0.000152386
-0.000259017
-4.70769e-05
0.000337325
-3.12312e-05
-0.000245514
8.19005e-06
0.000252977
-0.000114041
0.00017606
6.30706e-05
2.13831e-05
1.45638e-05
2.0589e-05
-0.000261899
-2.56392e-05
2.56736e-05
8.72157e-05
-4.98186e-05
6.94161e-05
-0.00016572
8.68665e-05
6.64134e-05
-0.000136416
-1.68643e-05
9.1189e-06
-7.16063e-05
-1.31368e-05
7.56242e-05
-4.04278e-05
1.36002e-06
-2.44687e-05
6.35365e-05
-4.4691e-05
6.79758e-05
9.54816e-06
8.26844e-05
-0.000116874
9.49761e-05
-6.07861e-05
0.000167865
-0.000185872
5.42134e-05
-3.62064e-05
-4.46218e-05
5.87558e-05
2.12272e-05
-3.53612e-05
1.46183e-05
9.22862e-05
-0.000121312
7.81265e-05
-2.0971e-05
5.46274e-05
-7.82782e-05
0.000209083
-1.25995e-05
-6.21835e-05
0.000164103
-5.87249e-05
-9.71571e-05
8.75159e-05
-4.13879e-05
-1.60609e-05
5.31931e-05
-1.98902e-05
9.33277e-05
3.08929e-06
-0.000104569
-3.86912e-05
-9.16361e-05
0.000100755
1.34371e-05
-2.31941e-05
9.757e-06
4.44897e-05
-9.57818e-05
-7.18395e-05
-1.97966e-05
6.03239e-05
0.000179329
0.000323453
5.51852e-05
-0.000311519
-6.71191e-05
-4.96037e-05
-1.85921e-05
9.97445e-05
-0.000122046
0.000198185
-8.47452e-05
4.21276e-05
-7.18985e-05
0.000353224
-0.000116172
9.79633e-05
0.000160764
0.00014224
-0.000163746
9.57508e-06
-0.000160603
-0.00011942
0.000270448
5.15497e-05
-1.87441e-05
-9.07026e-05
6.00724e-05
-0.000340449
0.000345216
3.73601e-05
2.60509e-05
0.000189585
0.000517752
0.000237421
0.00016946
9.59843e-05
-0.000202844
5.87593e-05
0.000244616
7.08977e-05
8.29525e-05
-1.86273e-05
3.25124e-05
-5.40076e-05
-0.000244052
-0.000126807
0.000230783
0.000140076
2.23495e-05
-0.000200184
-3.17881e-05
-9.70933e-06
1.21774e-05
6.55078e-05
-9.02334e-05
4.34776e-05
5.27241e-05
-7.2024e-05
6.04039e-06
-6.91361e-05
4.78758e-05
1.9131e-06
-3.00137e-05
9.55228e-05
4.97322e-06
-2.73497e-05
1.21788e-06
-4.1014e-06
1.00663e-05
-5.72817e-05
6.10318e-05
-7.22677e-05
6.85176e-05
-6.48935e-05
3.22606e-06
6.17178e-05
-5.03785e-08
3.43562e-05
-6.48901e-06
3.96273e-05
-6.74945e-05
7.87652e-05
-0.000217222
0.000221789
-0.000258648
0.00025408
3.67524e-06
0.000202707
7.09335e-05
-5.95445e-06
0.000263942
0.000122286
-0.000327468
-4.68838e-05
-4.55678e-05
4.5394e-05
4.70576e-05
-4.06963e-05
-7.58837e-05
1.87034e-05
5.02228e-05
-1.52397e-05
-4.12572e-05
-6.68514e-05
7.97925e-05
2.83161e-05
3.13789e-05
3.88485e-05
-8.23215e-05
0.000140231
4.5725e-05
-0.000139693
-4.62631e-05
5.13971e-05
-3.61643e-05
8.00511e-05
-6.76587e-06
3.62944e-05
-3.08077e-05
3.51125e-05
-4.05992e-05
7.85812e-05
8.76968e-06
-6.02123e-06
1.62302e-05
-1.89786e-05
-4.36965e-05
3.11689e-05
-0.00014864
8.54312e-06
0.000134924
-6.24762e-05
-5.97068e-05
8.15224e-05
4.06606e-05
1.08805e-05
4.82452e-05
-4.37771e-05
-1.53485e-05
3.509e-05
4.36189e-05
-1.94287e-05
2.06466e-05
-0.000685142
-1.18762e-05
-1.15543e-05
-7.27032e-05
8.56175e-05
-3.02593e-05
1.66875e-05
4.7478e-05
-5.3005e-05
3.09911e-05
-0.000331217
5.71455e-05
0.000342903
1.79641e-05
2.83553e-05
-3.91242e-05
-7.85839e-06
-9.99975e-05
0.00011059
6.03048e-05
-1.36863e-05
-1.66933e-05
0.000314714
0.000112149
-0.000425118
1.0377e-05
9.95098e-06
-8.5323e-05
5.00682e-05
0.00015409
-0.000166446
4.48891e-05
2.02482e-05
-9.46578e-06
-3.87534e-05
0.000188071
-0.000170191
-1.78795e-05
-1.29438e-05
-1.41782e-06
1.43617e-05
-0.000113997
0.000109437
4.55968e-06
1.65648e-05
-5.25346e-06
-1.13113e-05
5.34475e-05
-1.82143e-05
-3.52331e-05
-3.60918e-05
-1.5887e-05
5.19787e-05
6.1139e-05
4.64423e-05
-0.000107581
-7.3319e-05
4.37629e-05
2.95561e-05
0.000167567
-0.000183508
1.59402e-05
2.69132e-05
-1.03484e-05
-0.000174035
0.000116663
5.73722e-05
-3.10667e-05
1.81229e-05
0.000193944
-5.87292e-06
-4.91167e-06
2.1322e-06
2.77947e-06
-2.49183e-07
-8.7609e-05
0.000108305
-2.06955e-05
3.72199e-05
-0.000177624
0.000104305
0.000168709
-1.14124e-06
-9.0369e-05
6.26708e-05
2.76982e-05
-8.93193e-06
-1.74101e-05
2.63421e-05
-0.000111268
-2.72902e-06
-2.85744e-05
5.38029e-06
0.00019483
-0.000178924
-1.59061e-05
-6.39697e-05
1.77577e-05
4.6212e-05
2.89272e-06
3.52938e-05
-1.89211e-06
-0.000243544
-0.000189558
0.000215881
6.06228e-05
-2.89922e-05
8.16792e-05
-2.05814e-05
8.22159e-05
-4.45331e-05
-5.76023e-05
-1.81051e-05
4.20015e-05
3.37059e-05
3.62435e-05
-1.16945e-05
6.64041e-05
-5.13714e-05
8.44543e-06
-0.000903612
4.66218e-05
2.66817e-05
0.000167527
0.000229278
-0.000175016
7.3375e-05
-0.000173346
2.62221e-05
-0.000131789
-4.22458e-05
-1.71545e-05
0.000326323
-0.000309168
-5.78205e-05
-1.41854e-05
-9.17856e-06
0.000104739
1.72059e-05
8.64558e-06
3.61693e-06
1.41408e-05
-0.000186116
7.19192e-06
1.04361e-05
9.567e-05
2.09927e-05
1.26962e-05
1.90683e-05
0.00020212
0.000186601
-7.67452e-06
1.05672e-05
1.05335e-05
-0.000329453
4.16941e-05
-2.83299e-05
-1.89295e-05
1.88016e-05
2.84577e-05
-9.97292e-06
-3.76965e-05
-0.000326018
4.06812e-05
6.80067e-05
4.38153e-05
-3.30568e-05
-5.73153e-05
3.68227e-05
-1.99688e-07
1.18252e-05
-7.3809e-05
-2.00958e-06
1.14569e-05
5.33202e-05
-6.27675e-05
4.32475e-05
-4.40495e-05
-1.20761e-06
-0.00014919
0.000133686
-0.000148486
0.00016399
-1.10787e-05
-0.00024042
-1.03999e-05
-9.79863e-06
-3.97468e-05
5.49155e-05
-5.37005e-06
-9.05167e-06
-8.46287e-05
7.87809e-05
-2.29211e-05
-0.000203658
0.000215501
2.60702e-05
-3.30065e-05
-3.74026e-05
5.09768e-05
-1.05048e-05
5.59316e-06
-4.46464e-05
-4.29626e-05
3.47612e-05
-3.05801e-05
-1.33596e-05
-6.4098e-05
-0.000165913
-1.04094e-05
3.32643e-05
6.05923e-05
0.000420782
-9.34969e-06
-0.000452128
-7.31784e-05
-6.35325e-05
7.94292e-05
-0.000151194
-6.41815e-06
0.000112146
0.000507317
-8.20266e-05
-0.000415716
0.000125101
6.75966e-05
-9.15298e-05
-0.000101168
-6.50925e-05
7.63299e-05
0.00010447
-0.000115708
-4.69387e-05
5.06552e-05
-7.94885e-05
0.00031725
-0.00030186
-3.84822e-05
0.000368017
5.96482e-05
-4.86702e-05
3.29671e-05
-4.39451e-05
-2.49091e-08
-1.90381e-06
-8.96373e-06
1.08925e-05
-7.74556e-06
-0.000129846
-1.36032e-05
4.71022e-05
-0.000231212
-3.40631e-05
0.000218173
5.70326e-06
-9.22394e-06
4.67682e-05
-2.7289e-05
3.29673e-05
-0.000115805
2.24026e-05
0.000140505
-4.46411e-05
5.6098e-05
-0.000114488
3.86083e-05
-5.87568e-05
2.38528e-05
5.5695e-05
-5.75186e-06
-7.3796e-05
-9.13271e-05
6.9218e-07
-3.59558e-05
5.0463e-05
-0.000105834
1.69403e-06
-7.27692e-05
-1.36774e-05
9.59973e-05
-5.57396e-06
-3.61337e-05
-4.38884e-05
-1.94478e-05
5.77622e-05
7.66331e-05
6.08271e-05
-6.63997e-05
-3.45466e-05
-5.74131e-05
6.36613e-05
-1.39938e-05
-0.00012804
9.51519e-05
0.00021049
-0.000177602
-5.24285e-06
3.66217e-05
0.000199507
-6.49442e-05
-0.000262603
0.000182662
-1.98459e-06
-0.000121029
-6.94188e-05
0.000137263
-3.77711e-05
5.88633e-05
-0.000158355
0.000229516
0.000415919
-0.000322695
-0.000322741
-8.77302e-06
0.000230424
-0.000221651
8.772e-06
3.53242e-05
0.000210871
5.96204e-06
-0.000121681
-3.68909e-05
-1.27102e-05
7.0058e-05
-2.04569e-05
0.000119008
0.000247772
6.68433e-05
-6.79274e-05
0.000183746
3.7868e-05
0.000433249
-0.000274985
-0.000196132
-0.000270451
0.000200206
0.000108113
-0.000166286
-3.35294e-05
3.45498e-05
0.000165265
-0.000122837
3.0228e-05
-0.000138603
0.000140073
-8.87754e-05
-0.000217583
0.000154778
-0.00012133
3.33956e-05
1.2547e-05
-1.1135e-05
-3.83029e-05
4.65054e-05
-9.22101e-05
-6.65989e-05
0.000112304
0.000182799
-1.66245e-05
-0.000168159
1.91308e-05
-1.92735e-05
-3.76283e-05
7.1232e-06
-0.000211412
-6.61617e-05
-0.000142338
0.000161359
0.000135757
2.02696e-05
-1.67555e-05
-3.51407e-06
1.01265e-05
-7.76767e-05
-5.52868e-05
-6.73984e-05
0.00018227
1.10505e-05
-1.92838e-05
-4.91799e-05
-5.94363e-05
8.69912e-05
1.89504e-05
-7.64904e-05
-9.08704e-06
-4.34266e-05
0.000245524
-0.000245756
1.74785e-06
0.000244008
0.000109375
-3.08537e-05
0.000120986
-6.62577e-05
-7.24098e-05
6.76183e-05
5.13435e-05
3.55603e-05
2.53902e-05
-6.09506e-05
0.000276439
-5.19474e-05
9.81004e-05
-4.35889e-05
0.000562598
5.47935e-05
-5.47578e-05
-2.78906e-05
7.66976e-06
8.31304e-05
-2.34866e-05
6.87122e-05
-0.000558779
0.000634822
-0.000556137
2.93636e-05
-1.07246e-05
-0.000128711
0.0005183
-0.000514482
-0.000172731
9.84741e-05
3.66271e-05
4.35524e-05
2.95086e-06
0.000103278
-0.000140863
-1.26362e-05
-3.49936e-05
3.23311e-05
-3.50545e-05
-6.96716e-05
7.2395e-05
0.000400454
-0.000223134
3.10627e-05
-4.39765e-05
2.88504e-05
5.17533e-05
7.0144e-05
-3.71347e-05
9.20952e-05
3.2108e-05
5.80759e-05
-5.78527e-05
0.000328336
-0.000407825
4.70075e-05
-0.000114471
0.000428058
-6.49381e-06
-0.000197091
0.000186961
-0.00024167
-4.08575e-06
-1.12466e-05
0.000105232
8.79036e-05
-8.86649e-05
3.65713e-05
-8.36036e-05
-4.44974e-05
1.91679e-05
3.45089e-05
3.14816e-05
-3.38825e-05
0.000146503
-9.2166e-05
-0.00022025
-0.000398264
-5.62658e-05
1.29219e-05
0.000113402
-0.00021856
-0.000267365
0.000121244
0.000364681
0.000160842
7.27987e-05
0.000361651
-1.20048e-06
5.93846e-05
1.64733e-05
0.000154763
0.000333955
-5.21311e-05
-1.26237e-05
2.83056e-05
-5.89387e-05
0.000150452
0.000252082
7.34136e-05
-2.63117e-05
2.57483e-05
-7.08703e-05
1.06282e-06
-3.20083e-05
-4.67062e-05
-1.16672e-05
3.46454e-05
-3.93357e-05
-4.398e-05
-0.000251476
0.000250818
-3.42732e-06
3.15165e-05
-3.67593e-05
2.80867e-05
3.42981e-06
-1.86195e-05
-3.76318e-05
-6.51626e-06
-1.71988e-05
-6.45093e-06
-3.40739e-05
-1.52037e-05
2.94821e-05
2.02305e-05
3.33817e-05
-2.84199e-05
7.44674e-05
-1.79958e-05
-0.000178271
0.000167348
-0.000109233
-0.000189815
-4.42825e-05
-0.000227911
0.000214967
-0.000236677
0.000270363
-9.24664e-05
0.000238479
2.07614e-05
3.63147e-05
-4.89288e-05
-1.73995e-05
7.13984e-06
-5.63471e-06
-1.71916e-05
-0.000145333
-8.13997e-05
-0.000186462
-0.000195586
0.000202062
3.93542e-05
-7.29026e-05
4.30296e-05
-2.75488e-05
3.43535e-05
2.10568e-05
-2.78616e-05
-0.000103576
8.02731e-05
7.32479e-05
-6.56174e-05
-7.89727e-06
-7.11112e-05
-4.59519e-06
-3.42676e-05
0.000134875
-0.000150857
2.73402e-05
-0.000202165
9.91859e-07
-6.11422e-05
5.70802e-05
3.07016e-06
-7.75213e-06
-0.00014211
-0.000201731
9.84192e-05
-0.0001081
0.000127337
4.408e-05
-6.08016e-05
-1.28692e-05
1.78595e-05
-0.000136655
-0.000256602
-0.000262225
-3.11023e-05
4.26516e-05
-2.9881e-05
1.83317e-05
2.61923e-05
4.26696e-05
-3.37495e-05
9.25812e-08
-9.87418e-05
8.80544e-05
-4.60189e-05
-6.95843e-05
-9.18457e-05
-3.10822e-05
4.16445e-05
-0.000118202
5.0973e-05
5.96811e-05
-3.01792e-05
-0.000101296
0.000199355
-0.000187108
-5.70633e-06
3.02612e-05
-1.16506e-05
1.52967e-05
0.000157325
-0.000160972
9.20435e-05
0.000173809
-9.83255e-05
0.000185948
-0.000253959
-0.00029002
2.69207e-05
-5.76172e-05
-7.06789e-06
7.24862e-05
-4.6255e-05
-0.000279606
0.000253868
0.000146982
-9.57087e-05
-2.48041e-05
0.000120513
3.02978e-05
1.63773e-05
-8.31337e-05
0.000148108
-0.000291157
0.000197499
3.75652e-05
2.82448e-05
-5.63401e-06
-6.0176e-05
2.27612e-05
-4.19457e-05
0.000115081
-0.000248812
0.000167718
6.74913e-05
-6.75647e-05
-0.000127462
0.000273149
-0.0004833
-0.00011715
-7.31679e-05
0.000113955
1.76177e-05
3.80748e-05
-3.34754e-05
-2.22171e-05
2.22738e-05
-2.36043e-05
-3.84163e-05
-1.83177e-05
0.000142255
-0.000176781
5.28438e-05
-4.86377e-06
-3.35428e-05
0.000142688
-5.53975e-05
-0.000485593
-1.13003e-05
-4.75139e-05
7.75802e-05
-1.65913e-05
-0.000212163
-1.73525e-06
7.76733e-06
-5.79162e-07
3.66366e-05
-0.000217405
-2.84303e-05
0.000147843
-0.000111183
-7.01895e-05
5.43104e-05
6.65358e-05
-4.75983e-05
-4.31937e-05
-5.51627e-05
2.72452e-05
-2.88301e-05
2.66557e-05
2.34586e-05
1.43409e-05
-8.56685e-06
-0.000368221
0.00024593
-0.000121761
-3.04074e-05
-0.000200546
5.38663e-05
-4.81459e-05
-4.62122e-05
-4.21506e-05
-9.61096e-05
7.715e-06
4.15879e-05
4.68067e-05
3.43046e-05
8.50992e-05
-0.000112427
5.54148e-05
-5.61219e-06
0.000148058
-9.74134e-05
1.54936e-06
1.38385e-05
-3.34303e-07
-4.73454e-06
8.09404e-06
-7.53146e-06
2.97352e-05
-2.52588e-06
-6.93156e-05
-5.52472e-05
4.68725e-05
-0.000225987
-0.000208014
0.000175352
6.34062e-06
-6.89249e-05
7.34647e-05
-7.68197e-05
3.81739e-05
-2.38305e-05
-8.33617e-05
7.04082e-05
-0.000112718
-7.61853e-05
0.000188903
-1.53796e-05
-4.2098e-05
4.22378e-05
5.21607e-05
3.71057e-05
-5.11915e-05
1.81849e-05
0.000312433
-6.97407e-05
4.68148e-05
4.18021e-05
-6.56109e-05
-7.89605e-05
7.99379e-05
0.000126872
1.86798e-05
-0.000176405
5.31369e-05
-0.0003384
-1.37615e-05
-2.18778e-05
-1.37088e-05
2.42863e-05
0.000104162
-3.8186e-05
-0.000216083
2.40491e-05
-8.05743e-06
-1.62249e-05
-0.000101768
8.22636e-05
-7.62425e-06
-8.03445e-05
7.83968e-05
1.08728e-05
0.000157017
-0.000142782
-1.58325e-05
6.56487e-05
-0.000196852
-0.000191538
3.62241e-05
-1.73499e-05
-0.000198956
-0.000107437
-1.61357e-05
-1.99202e-05
1.41782e-05
-0.000201463
0.000218206
0.000237337
-9.31862e-05
-0.000104312
8.11522e-05
0.000116346
-8.2764e-05
6.69967e-05
1.85561e-05
-3.32605e-05
5.65064e-05
0.000125929
4.41875e-05
-2.24126e-05
-0.000147959
0.000189367
3.18959e-05
-4.79933e-05
0.000266329
-0.000308901
-1.11362e-05
-7.37834e-05
-0.00018498
-0.000209045
-8.42712e-05
4.35922e-05
-1.96552e-05
-1.01894e-05
-4.97738e-06
1.88635e-05
7.21839e-05
-8.31639e-05
-6.5557e-05
-0.000137522
-2.94555e-06
-3.26593e-05
4.56927e-05
-6.01313e-05
0.00033498
-0.00034589
7.10413e-05
9.81548e-06
7.43748e-05
-4.36128e-05
-4.05774e-05
0.000139239
-2.43992e-05
2.54939e-06
-8.48156e-05
1.29062e-05
4.34925e-05
-3.70934e-05
-4.81236e-05
4.17245e-05
-8.75715e-08
-6.82297e-05
4.469e-06
6.38482e-05
-5.36499e-06
-4.33853e-05
-6.28159e-06
-2.75036e-05
8.25868e-05
-1.65173e-05
7.30062e-05
3.10184e-05
-6.6919e-05
-4.42681e-05
-1.07632e-05
-8.77429e-05
8.95431e-05
-1.64686e-07
-7.93868e-05
2.7318e-06
5.7879e-05
-8.82679e-06
4.96607e-05
-5.05806e-05
7.62019e-05
-1.60674e-05
-2.48611e-05
-0.000124653
2.3301e-05
6.15565e-05
3.77966e-05
-4.64769e-05
8.68029e-06
0.000166267
0.00019423
5.26338e-07
-8.54942e-05
-1.76323e-05
-0.000104479
1.17723e-05
4.28658e-05
-2.24357e-05
-0.000209742
0.000135414
8.87333e-05
-7.53987e-05
0.000112783
-6.05805e-05
-6.60246e-05
5.59852e-05
4.33037e-05
7.05653e-06
-4.09215e-05
-1.91394e-05
0.000236511
1.43107e-05
4.00996e-05
-2.54678e-05
5.48901e-05
0.000130435
7.41382e-06
-0.000243332
-8.4862e-06
-3.89902e-06
-0.000197162
0.00013066
-3.48769e-05
6.52173e-05
3.57736e-05
2.68972e-05
-0.000365273
7.52076e-06
0.00037303
-3.7266e-05
4.82285e-05
-4.52179e-05
0.000152069
7.96423e-05
1.43719e-05
-4.58634e-05
5.94236e-05
-2.16201e-05
-4.33766e-05
-0.000125359
0.000133329
0.000140132
-0.000148102
2.87273e-05
-7.83906e-05
1.47833e-05
-2.25104e-05
-9.26831e-05
6.6866e-05
-1.46766e-05
-0.000128592
-0.000132206
-0.000288314
-2.36472e-05
0.000207361
-0.000183731
-4.5575e-05
-4.60441e-05
4.82246e-05
-2.18044e-06
-4.61317e-05
0.000117057
2.02146e-05
-6.38682e-05
-7.34037e-05
5.20882e-05
-4.92007e-05
3.06905e-06
3.02783e-06
-3.27701e-06
0.00026434
-2.76271e-05
-5.73398e-06
5.78222e-05
-2.74182e-05
-2.17826e-05
-8.57969e-05
5.60804e-05
2.97165e-05
-0.00026628
0.000149478
0.000116802
-6.98359e-05
1.3551e-05
8.29667e-05
-1.04347e-05
2.89908e-05
4.12945e-05
-4.44603e-05
-4.18755e-05
4.50414e-05
0.000228987
-0.000153157
-9.78009e-05
3.31009e-05
-1.72175e-05
-2.29512e-05
-0.000113191
0.000130504
-1.7313e-05
3.99815e-05
4.83416e-05
-2.89017e-05
7.71619e-06
2.89528e-05
1.64744e-05
-0.00024673
-1.0572e-05
1.4767e-05
0.000500996
3.85106e-05
-8.9318e-05
1.11452e-05
8.98731e-05
-3.32799e-05
-5.50883e-05
-1.86516e-06
9.68285e-05
-8.43449e-05
-1.24836e-05
-6.58824e-05
-3.82995e-05
6.59959e-05
2.32194e-05
2.14023e-05
-3.25807e-05
-7.00983e-05
8.47785e-05
-9.23001e-05
9.88524e-05
8.47692e-05
-9.98575e-05
-1.6362e-05
-5.6264e-05
-4.24862e-06
5.131e-05
9.20262e-06
0.000229201
-0.000202382
0.000190878
-0.000217697
-0.000360236
0.00041681
4.96682e-05
-6.07792e-05
7.4644e-05
3.35617e-06
6.85826e-05
4.54643e-06
-6.33135e-05
-4.7498e-05
-7.90652e-05
1.94864e-05
-4.27958e-05
7.25899e-05
-0.000111192
-7.58687e-05
0.000697264
0.000320321
0.000155246
8.03761e-06
-5.28041e-06
2.53255e-05
-7.98886e-05
7.98735e-05
-2.22021e-05
8.72747e-05
0.000166892
-3.12794e-05
-0.000135613
0.000134142
-0.000118395
2.77454e-05
5.08282e-05
-4.70063e-05
-6.35287e-05
1.86825e-05
5.11397e-05
-2.15771e-05
5.16298e-05
6.99924e-05
0.000172489
0.000164575
6.60695e-05
-6.51562e-06
-5.20493e-05
1.33816e-05
5.2571e-05
-0.00019577
-2.42287e-05
-9.76621e-05
-2.17244e-05
-6.9698e-05
4.59271e-06
-1.6482e-05
7.69598e-06
9.118e-05
5.30539e-06
3.24912e-05
-0.000213856
-0.000124145
-0.000112883
-1.08453e-05
8.63261e-05
7.15325e-05
-4.28505e-05
-3.7798e-05
1.47927e-05
-0.000332872
-0.000652766
1.91784e-05
1.65951e-05
5.85124e-05
-0.000248842
-0.000188561
0.000223547
-0.000186044
-5.9213e-06
1.58954e-05
-0.000193196
7.51695e-06
-5.07255e-05
0.000140005
-0.000173054
6.35277e-05
-8.02916e-05
-6.78755e-05
1.95071e-05
-0.000165315
-0.000237697
0.000331114
-1.79188e-05
-5.11961e-06
-9.9722e-05
8.80714e-05
-0.000112209
1.2487e-05
-2.45704e-06
9.34749e-06
0.000252665
-0.000259556
7.19101e-05
-2.56255e-05
6.28288e-05
-6.17042e-05
-3.71761e-05
3.60515e-05
5.25363e-05
7.79368e-05
-9.71522e-05
-3.33209e-05
3.13411e-05
-6.32621e-05
-4.83235e-05
-5.66454e-05
-3.0533e-05
-7.80178e-05
-2.2206e-05
9.74948e-05
-3.40814e-05
-1.03669e-05
-0.0002623
-2.0931e-05
0.000245433
-1.27797e-05
5.31863e-05
-9.78327e-05
-3.04612e-05
1.99564e-05
5.21025e-05
-4.98609e-05
6.05872e-05
-0.000497469
0.000253281
-8.26173e-05
0.000148224
-7.45146e-05
9.35393e-06
1.42308e-05
-6.96976e-06
-2.65448e-05
0.000117483
0.00017007
-0.000413512
0.000336538
1.68424e-05
-1.76817e-05
4.16574e-05
0.000203785
-4.06619e-05
7.5068e-07
-3.35438e-06
-4.01304e-05
-2.56585e-05
7.4442e-06
-2.70296e-05
-1.73123e-05
-7.45111e-05
6.29361e-06
-4.40518e-05
-3.67564e-05
0.000131379
0.000153784
1.96678e-05
0.000109638
0.000101249
2.8502e-05
-4.76686e-05
-3.33745e-05
-0.000180942
-1.68259e-05
4.57132e-06
-3.28905e-05
-0.000245084
0.000183983
-6.32265e-05
3.31459e-05
-8.08807e-05
-3.02829e-05
-1.22998e-05
8.03065e-05
0.000198643
0.000132304
-8.70697e-05
3.89418e-05
2.10486e-05
-8.01435e-05
5.19113e-05
-0.000117337
0.000110793
2.69308e-05
0.000144231
-0.000476676
8.12266e-05
0.000198261
-6.13146e-05
0.000145115
-1.82469e-05
4.62748e-05
0.000111751
-2.05807e-05
4.13597e-05
6.05397e-05
0.000185835
-2.68889e-06
2.10332e-05
4.4268e-05
4.13892e-05
1.97801e-05
0.000192028
5.61533e-05
-0.000267961
-4.02389e-05
8.29116e-05
2.20271e-05
-6.7138e-05
-2.18726e-05
4.96566e-05
-5.87582e-05
-2.59642e-05
-6.37269e-05
7.3696e-06
2.69584e-05
-2.21001e-05
9.4826e-06
3.70455e-05
8.46025e-06
0.000117491
2.39497e-05
-0.000137727
0.000146678
-0.000252134
-3.8689e-06
-1.08266e-05
-3.49057e-06
6.33206e-05
-0.000306073
0.000212749
-0.00015176
-3.91574e-05
-1.03834e-05
-6.50938e-05
0.000161126
-0.000165664
0.000235763
3.53046e-05
4.60895e-05
-0.00012905
-3.09704e-05
-4.08302e-05
0.000172331
1.41989e-05
-0.000146295
7.38247e-05
7.24701e-05
4.5883e-05
-8.19623e-06
2.23229e-06
5.96395e-06
-5.20263e-05
-0.000363321
0.000355748
-4.52643e-05
-1.7006e-05
-5.97752e-05
-0.000137254
7.42405e-05
-2.17316e-05
0.000397822
0.000170964
-0.0002443
0.000163412
-7.54984e-05
3.30751e-05
-2.71276e-05
-2.92463e-05
3.00304e-05
-1.04551e-05
2.50337e-05
-6.26671e-05
-7.91195e-05
-0.000141459
3.75075e-05
0.000133248
-5.28425e-05
4.13792e-05
-4.47997e-05
-1.29307e-05
-3.18738e-05
3.16678e-05
-3.07428e-05
3.01618e-05
5.80996e-07
-3.1107e-05
3.64227e-07
3.23791e-05
-3.2457e-05
7.78865e-08
1.27214e-06
-0.000164547
0.000178244
-1.3698e-05
-0.000140502
-2.40443e-05
0.000170372
0.000147757
2.26154e-05
3.00225e-05
0.000139928
7.82926e-06
0.00014733
-7.40292e-06
2.855e-05
1.47243e-06
2.57167e-05
2.07393e-05
-1.3027e-05
-0.000259324
1.42693e-05
6.47007e-06
6.07303e-06
-1.09859e-05
0.000289169
0.000117252
0.000173699
-0.000240819
4.16515e-05
4.05624e-06
-4.57077e-05
0.000156089
0.000220127
-0.000169618
0.000136091
-3.59486e-05
2.12714e-05
-2.54532e-05
-2.08944e-05
3.42126e-05
7.35483e-05
1.21084e-06
-0.000212188
-1.60782e-05
-4.07309e-05
2.41618e-05
-2.41863e-05
0.000152584
-0.000155765
3.18138e-06
-0.000101842
-0.000106677
9.0153e-06
5.06294e-05
-6.40185e-05
4.84109e-05
3.15526e-05
-3.45696e-05
0.000153648
-1.06392e-06
0.000120694
7.79961e-06
-6.38059e-05
-3.14611e-05
0.000161099
-5.00983e-06
-0.000113001
-1.94862e-05
7.72401e-05
-9.26312e-05
-0.000269936
1.8245e-05
8.7258e-05
4.0617e-05
-1.75742e-05
6.94516e-06
-2.12538e-06
-5.42201e-05
0.000255118
-0.000183692
0.000183673
-0.000156981
7.80477e-05
3.03035e-05
-6.49353e-05
1.5087e-05
-0.000267688
0.000281906
0.000269049
0.000156114
-0.000160107
4.34193e-06
0.000163903
-2.80398e-06
-0.00023553
-2.34409e-05
0.000131753
-0.000115981
-5.97276e-05
-6.43977e-05
0.000103073
-0.000161446
1.33834e-06
-0.000120711
-7.43673e-05
4.06265e-05
0.000302026
0.000106879
-0.000186849
-0.000253046
-0.000136867
-2.7287e-05
-0.000147721
3.03732e-06
-0.000148231
0.000145542
-4.5198e-05
0.000176951
7.88018e-05
-6.80013e-05