/*--------------------------------*- C++ -*----------------------------------*\
| =========                 |                                                 |
| \\      /  F ield         | OpenFOAM: The Open Source CFD Toolbox           |
|  \\    /   O peration     | Version:  v1912                                 |
|   \\  /    A nd           | Website:  www.openfoam.com                      |
|    \\/     M anipulation  |                                                 |
\*---------------------------------------------------------------------------*/
FoamFile
{
    version     2.0;
    format      ascii;
    class       volVectorField;
    location    "0.28";
    object      U;
}
// * * * * * * * * * * * * * * * * * * * * * * * * * * * * * * * * * * * * * //

dimensions      [0 1 -1 0 0 0 0];


internalField   nonuniform List<vector> 
1466
(
(0.0432001 2.20384 0)
(0.0591977 3.18542 -9.24567e-17)
(0.672361 -0.12364 -1.53594e-16)
(0.0758423 2.06555 1.27849e-16)
(0.311122 -0.00833815 -6.65674e-16)
(-5.4215 -0.26172 -2.32409e-16)
(-0.258968 -0.149203 3.10133e-16)
(-1.06501 -0.743381 4.01242e-16)
(-1.26867 -0.222554 1.43042e-16)
(-0.643089 0.219634 7.41931e-16)
(0.258856 -0.405145 -1.68288e-16)
(2.36827 2.54103 1.06073e-16)
(-0.0951015 -0.0672963 1.04628e-17)
(0.687567 1.81524 -1.03105e-16)
(1.83319 0.21008 -2.28527e-18)
(0.0581267 1.00207 -5.55423e-21)
(0.649199 -0.00543957 6.95147e-17)
(-0.00787826 1.87515 -1.28521e-16)
(1.12169 -0.476509 -1.5132e-16)
(0.0929136 1.81153 0)
(0.258694 -0.439801 1.51145e-16)
(1.38855 0.495184 -3.15116e-16)
(2.62646 0.0789815 0)
(0.0954007 2.92528 5.76822e-17)
(0.840269 1.75879 -1.56004e-16)
(0.199167 -0.108238 2.03308e-16)
(0.268472 0.111014 2.21841e-16)
(1.67424 0.56055 2.48893e-16)
(0.0363747 -0.0907742 0)
(-1.84747 -0.302306 3.8176e-16)
(0.128612 -0.618624 0)
(-5.99181 -0.324024 3.90797e-16)
(0.840902 0.508604 -2.96455e-16)
(-1.92271 -0.233917 -9.22076e-17)
(0.178319 1.73219 0)
(1.4063 0.198674 2.51488e-17)
(-0.660364 0.207298 -1.1222e-19)
(1.08798 -0.121299 0)
(-5.29004 -1.40417 -2.94316e-16)
(1.74828 0.284025 2.75856e-16)
(2.77717 2.24122 -1.20791e-16)
(0.729831 0.311902 -1.86314e-16)
(-1.20953 -0.276631 -3.98167e-16)
(-0.991743 -0.515788 2.2622e-18)
(2.99065 1.07564 0)
(-1.59594 -0.372191 2.56141e-19)
(1.02484 -0.243339 -1.68775e-16)
(0.0092043 1.56554 9.31621e-17)
(0.623877 0.257872 -2.66884e-16)
(0.386093 -0.37374 -8.46719e-17)
(-0.144311 -0.436744 0)
(-0.884843 0.0276819 -2.94223e-16)
(0.253534 -0.281392 4.4907e-16)
(-3.89877 0.0391816 2.80034e-16)
(1.88295 0.234131 3.64929e-16)
(0.594169 1.25117 -1.15539e-16)
(1.38756 -0.201742 0)
(0.435052 -0.447786 3.12018e-16)
(0.776259 0.100618 1.43191e-17)
(0.411412 0.881188 0)
(0.0352013 1.10747 -2.3121e-18)
(-2.27877 -0.203639 9.35735e-17)
(0.428307 -0.290043 1.42803e-16)
(-6.87157 -0.442594 -2.12544e-16)
(-0.0389713 2.71013 1.50333e-16)
(0.192294 1.74736 -3.11762e-17)
(0.846552 1.64896 -3.2997e-17)
(0.109452 -0.473529 -1.96862e-16)
(-0.00588512 2.1054 -1.14746e-17)
(1.0619 0.517596 0)
(0.245094 -0.152701 0)
(0.0607425 2.18737 -5.26748e-17)
(0.898361 -0.0384678 -5.19974e-16)
(0.174495 2.04188 -1.79896e-16)
(0.493161 0.0645029 3.95502e-17)
(1.34743 0.280304 -1.72459e-16)
(0.137815 1.97619 4.44305e-17)
(-0.00434396 1.99525 1.60439e-16)
(-0.293166 0.08338 0)
(0.294389 1.03381 0)
(0.500978 -0.27538 -3.48561e-17)
(0.243813 1.82791 1.81886e-16)
(1.74606 -0.236654 0)
(0.561475 0.198885 1.66846e-18)
(0.834195 -0.040938 1.91213e-16)
(0.55081 -0.240882 -9.56385e-17)
(0.800613 -0.0505278 -2.53608e-16)
(-0.226061 1.66415 1.29322e-16)
(0.319863 1.87822 -3.39734e-17)
(0.251478 2.22946 5.56789e-18)
(0.160621 2.1032 9.24314e-17)
(0.22065 -0.103939 0)
(0.0223635 0.804504 -6.49175e-17)
(0.0561828 2.11647 1.69076e-16)
(-0.329465 -0.3054 0)
(0.251301 -0.235222 -2.10741e-16)
(0.142022 2.22196 5.42782e-16)
(0.929149 0.158605 0)
(0.186213 2.28265 1.30351e-16)
(0.184025 1.98405 -1.46386e-16)
(-0.162843 0.0386721 0)
(1.79318 0.886035 -7.59024e-17)
(0.797896 0.114352 3.92575e-16)
(-0.0340433 1.38973 -1.47042e-16)
(1.44723 -0.414042 0)
(-1.87276 -0.446638 -2.18831e-16)
(-0.0468055 -0.435045 1.78371e-16)
(1.64557 -0.372131 -6.36093e-18)
(0.156243 2.7137 4.3296e-17)
(1.21369 1.32502 5.46387e-18)
(0.696065 0.0600486 1.9675e-17)
(0.173804 -0.136666 5.32237e-16)
(-1.25056 0.32786 -3.04495e-16)
(1.01665 -0.121086 -3.30687e-20)
(-0.0895012 -0.178398 -2.08652e-17)
(0.0928931 -1.16785 0)
(0.313245 1.83007 -7.20014e-17)
(0.450429 1.91559 4.97643e-16)
(0.236292 2.28908 2.75633e-17)
(0.489748 -0.128305 -4.65932e-16)
(-0.123346 -0.301349 1.93161e-16)
(0.0683973 2.14787 0)
(0.173557 0.733473 -7.48231e-17)
(-0.260027 1.43707 -6.80268e-17)
(0.31211 1.67322 2.70715e-16)
(-0.104276 -0.266672 -1.29129e-16)
(0.040847 0.111544 2.91232e-17)
(0.0443584 1.42805 0)
(-0.0224445 0.428671 6.57717e-17)
(1.5426 2.0324 -2.41353e-16)
(0.501892 0.0682253 1.23652e-16)
(0.0660737 1.94437 -1.53711e-20)
(0.371788 1.2926 2.12845e-17)
(1.14888 2.06659 -4.96923e-17)
(-0.00536708 -0.290022 -1.10783e-17)
(0.174469 1.13909 1.48002e-16)
(0.864594 0.384614 0)
(0.750244 -0.0736569 0)
(3.46629 0.635881 2.55353e-17)
(0.08682 1.30308 8.60458e-17)
(-0.561013 0.358858 -9.99054e-17)
(0.0348058 -0.137398 -1.73615e-16)
(-0.0658634 0.11894 7.93209e-17)
(0.0210335 1.47497 -4.09969e-16)
(3.24674 0.815268 1.02621e-16)
(0.504237 0.693967 0)
(-0.47638 0.442708 0)
(0.165208 1.60759 0)
(0.886403 2.38812 5.72826e-17)
(0.867926 -0.0362822 2.49351e-16)
(-0.063162 0.0786224 -1.58088e-16)
(0.200195 0.32185 4.33492e-18)
(0.253714 2.11865 1.06805e-16)
(0.126184 2.60385 -1.70714e-17)
(0.217797 2.13931 -1.45532e-16)
(0.148603 -0.029154 -9.3463e-17)
(0.0270018 2.17011 -3.05245e-16)
(-0.764575 1.61856 1.70724e-16)
(0.0589651 -0.382466 -7.81713e-17)
(0.234637 1.67776 0)
(2.10825 0.879518 8.60652e-17)
(0.211279 1.8166 -2.16425e-17)
(0.105598 2.75966 2.19367e-16)
(0.0798804 -0.279058 1.92739e-16)
(1.45368 0.818733 -4.16142e-18)
(0.0737612 1.20965 -2.00909e-19)
(0.792785 0.736151 0)
(0.339926 0.509091 9.32473e-17)
(0.129165 1.56828 4.19337e-18)
(0.307555 0.301697 3.62686e-16)
(0.487743 -0.162498 2.62096e-16)
(0.595283 -0.203917 2.49685e-16)
(0.157094 0.230721 0)
(0.442326 2.48827 7.11948e-17)
(0.174097 -0.0581725 -8.49486e-16)
(0.00731872 2.64713 1.42613e-16)
(1.16182 0.704075 1.43753e-16)
(0.184166 0.649738 -2.28283e-17)
(1.76311 0.441964 -1.17928e-16)
(0.094857 0.741198 2.24184e-17)
(-0.0133086 2.09422 -1.69257e-16)
(1.21341 -0.494483 1.91055e-16)
(0.434918 0.0338851 -3.14581e-16)
(0.23973 1.81702 -4.54265e-16)
(-0.123592 2.15846 -3.00773e-16)
(0.63497 1.77372 4.94127e-16)
(1.34294 -0.459165 0)
(0.0345078 -0.838526 0)
(1.41354 -0.0748338 -4.73734e-17)
(0.00237831 1.42371 0)
(-0.170063 1.41357 0)
(0.0855444 1.23045 1.15474e-16)
(0.220985 1.84311 1.879e-17)
(-0.0151983 2.63355 -6.09175e-17)
(1.16905 -0.403594 2.0385e-19)
(0.0329018 2.12459 0)
(3.67048 0.500671 -3.23456e-17)
(1.40778 0.968315 -1.13639e-17)
(1.35092 1.11101 -1.0916e-17)
(1.11208 1.4376 -5.16606e-18)
(-0.730356 0.738904 -9.32087e-17)
(0.291527 -0.210055 3.23611e-16)
(1.54135 -0.428146 -5.26746e-17)
(0.162597 1.66018 2.2422e-16)
(0.368215 0.536384 0)
(0.594877 0.368317 3.45522e-16)
(1.27415 -0.518705 1.43262e-16)
(-1.90882 -0.371731 1.12378e-16)
(1.3829 0.484685 4.3841e-17)
(0.953434 0.366945 9.65776e-18)
(1.19312 0.681392 4.64498e-17)
(-0.871165 1.00688 -7.99363e-20)
(0.230767 -0.239002 -1.11821e-16)
(0.773947 -0.131884 -5.29077e-20)
(0.213774 2.30048 -6.40392e-17)
(1.39485 -0.305504 2.3701e-17)
(0.205188 0.374534 -8.322e-17)
(-0.516547 0.100163 0)
(0.250008 2.00438 0)
(0.135807 2.1871 -4.19209e-20)
(0.211035 2.41205 1.29108e-16)
(0.133826 2.2476 0)
(0.128156 1.5709 5.31253e-17)
(0.909989 -0.211511 3.68116e-17)
(0.239321 2.50337 -3.88379e-17)
(0.797135 -0.212936 0)
(0.837654 1.34399 7.14398e-17)
(0.317866 1.11463 1.12196e-16)
(-0.639785 -0.0703905 2.67639e-18)
(-0.181863 0.342102 -3.84529e-16)
(0.711183 -0.0993303 2.72535e-16)
(-0.358017 1.03527 0)
(0.337301 1.77926 -1.07421e-16)
(0.628332 0.0643076 6.63575e-20)
(1.8176 -0.0337934 0)
(0.72423 0.897089 0)
(0.579823 0.0399012 0)
(-1.64197 -0.475075 -4.99006e-16)
(0.532574 0.0191799 -1.16477e-16)
(0.925881 1.53528 0)
(-0.7864 0.014119 1.49709e-16)
(0.481083 -0.0175644 3.32284e-16)
(0.374605 -0.0694573 -3.99385e-17)
(1.05139 0.481459 -7.21594e-16)
(0.916903 0.619964 0)
(-0.808813 -0.110946 -1.66257e-16)
(0.154325 -0.031772 -5.71137e-19)
(-0.191524 -0.165124 3.47868e-16)
(-0.801831 0.0399239 0)
(-0.651639 -0.158409 -5.73569e-18)
(0.274106 2.02815 -5.95549e-16)
(1.51723 2.38354 -7.14612e-17)
(0.511369 0.247792 -1.33965e-16)
(-0.407725 0.873021 4.48909e-16)
(0.40935 1.48342 0)
(1.22604 2.42289 1.25403e-16)
(1.01243 1.0476 -1.08364e-17)
(1.31108 0.924585 -5.46429e-17)
(-1.19067 -1.09044 1.19954e-16)
(0.0377664 0.361307 -1.20194e-16)
(0.716971 -0.132474 -5.71205e-20)
(0.839858 -0.134154 2.64849e-16)
(1.22791 2.27951 9.37714e-19)
(0.292209 1.66214 -2.17105e-17)
(-3.56647 -0.160894 -1.39431e-16)
(1.86474 0.0850706 -2.24248e-16)
(-1.79123 -0.54437 9.56805e-17)
(-0.628025 0.542923 1.60368e-19)
(0.371894 -0.199365 -6.82956e-17)
(0.091775 2.19158 -4.79997e-17)
(0.735455 2.53909 -7.20109e-17)
(0.00548432 2.0662 5.15854e-17)
(0.678235 -0.0727321 3.04135e-17)
(0.521587 0.820482 2.83088e-18)
(0.919615 -0.116694 -3.95658e-16)
(0.749 0.143697 6.14998e-17)
(-0.370857 0.657923 1.35428e-16)
(0.461355 1.08813 0)
(0.0958993 1.50833 -5.31425e-18)
(0.729864 0.495472 1.96748e-16)
(1.10951 1.053 2.33795e-17)
(-0.869638 -0.0377354 0)
(-0.431799 -0.175666 -4.81409e-19)
(-0.0950112 0.0202211 5.04248e-18)
(0.342444 -0.591158 -8.82928e-17)
(0.672867 -0.0223824 -9.76713e-17)
(0.305502 -0.410654 0)
(0.466291 -0.0513288 0)
(0.614978 2.52036 2.27387e-16)
(0.152706 1.27208 1.19271e-16)
(0.732813 -0.194934 -2.13575e-16)
(-1.7006 -1.05869 -4.47784e-17)
(0.35957 -0.374651 -4.32609e-17)
(0.8059 0.282584 0)
(0.400934 0.14222 -1.87179e-16)
(0.341679 -0.317267 0)
(0.235905 -0.493328 8.53703e-17)
(-1.36791 -0.503123 1.22739e-18)
(0.2507 -0.325805 0)
(0.274321 0.551631 -2.06884e-16)
(0.317702 -0.327522 -6.29583e-17)
(-0.984261 1.07799 3.67425e-16)
(0.121465 0.145519 -4.07295e-17)
(0.289443 -0.372733 8.00248e-17)
(1.69405 0.374002 2.17864e-16)
(0.816216 0.409645 -3.72637e-16)
(-0.448034 -0.105852 -1.69018e-16)
(0.558415 0.0844299 -1.33032e-16)
(-0.251025 0.0146989 5.15311e-18)
(-4.66276 -2.43771 1.7972e-16)
(-0.2001 0.627444 3.1264e-16)
(-0.338839 -0.164909 4.02653e-17)
(0.358355 -0.249688 -1.33402e-16)
(1.12957 3.04934 -1.63011e-16)
(0.485691 0.145595 6.71053e-17)
(0.279844 -0.115869 -2.51585e-17)
(-0.821825 0.616611 -3.47015e-20)
(0.0871651 -0.126811 1.96085e-16)
(3.9046 0.709785 0)
(0.015913 0.155814 -3.86695e-17)
(0.784707 -0.274468 -3.00501e-17)
(0.27555 1.56333 -1.49215e-16)
(0.393926 -0.0149092 5.93998e-16)
(1.68543 0.0160656 -1.4884e-16)
(-0.00202985 -0.0025494 1.82422e-16)
(-0.943202 0.0216543 -1.16548e-16)
(0.0892612 -0.0448222 2.11971e-17)
(-0.320436 -0.0876658 0)
(0.272816 -0.0724507 0)
(0.559228 -0.157613 -1.4355e-16)
(-0.527216 -0.108831 0)
(1.55642 -0.135632 3.18417e-16)
(0.164412 -0.0408598 1.98315e-17)
(1.15635 -0.0902705 0)
(-0.218173 -0.0106099 -1.22273e-17)
(1.79763 -0.0315572 0)
(-0.0274125 -0.0441217 -4.94392e-17)
(0.0449148 -0.0200234 -1.28421e-16)
(-1.12008 0.151942 -1.3726e-17)
(0.337523 -0.0843325 1.53261e-16)
(-1.04646 -0.240442 0)
(1.18813 -0.312412 -2.53459e-16)
(-0.680024 0.128443 0)
(-0.147491 -0.0643936 0)
(-0.845355 -0.0618946 -1.26747e-16)
(0.188287 -0.0149581 0)
(-1.54455 -0.0285087 -7.31272e-17)
(0.193065 -0.138633 8.45014e-17)
(0.0281938 -0.340973 1.07683e-16)
(0.43899 2.40711 -2.50687e-16)
(0.443624 0.312276 5.21602e-17)
(0.666709 -0.122723 5.21208e-16)
(0.556914 0.515808 -4.93151e-17)
(0.662619 0.123114 -4.08289e-16)
(0.609758 0.098203 2.36352e-16)
(0.231389 -0.154962 -4.64405e-18)
(-0.822492 0.816678 -3.44864e-16)
(-0.0807545 1.36815 3.20233e-16)
(-4.94595 -2.59981 -7.07224e-19)
(0.379942 -0.366582 -1.97117e-16)
(0.658153 2.02967 0)
(0.437307 1.44459 1.54145e-16)
(0.145257 1.63353 1.64799e-16)
(1.12552 0.0054806 -2.42615e-16)
(-0.0549588 2.87338 2.55319e-17)
(-0.55925 -0.135547 0)
(-0.0132189 -0.0559386 -2.19928e-17)
(0.24947 -0.041827 -1.43378e-17)
(0.656487 -0.292153 1.20098e-16)
(-1.50063 -0.230163 0)
(0.234969 -0.0192714 1.90512e-17)
(0.0475741 0.00307429 -9.13951e-17)
(-1.4508 0.087882 -2.25452e-16)
(1.78193 -0.092129 0)
(0.818991 -0.0557194 -3.89296e-16)
(-0.380166 0.00226438 0)
(-0.885176 0.0941579 8.06094e-17)
(-1.9989 0.992 -7.47783e-18)
(0.807537 -0.104233 3.57047e-16)
(-0.0728487 0.0401506 -2.18859e-16)
(0.706239 -0.0434057 2.59073e-17)
(0.604704 3.11121 -1.80572e-17)
(0.22324 -0.220576 -7.81853e-18)
(-0.173272 -0.187953 -8.40728e-17)
(0.362491 3.01226 -1.59022e-17)
(0.38479 -0.430912 3.84017e-16)
(0.572081 -0.0796293 9.71944e-17)
(0.385174 -0.265347 0)
(0.562244 -0.0203929 0)
(-0.18834 -0.471873 0)
(-0.120451 -0.403582 3.50369e-16)
(1.77256 1.46606 0)
(0.12043 2.48618 9.46969e-18)
(-0.128484 0.432473 7.67259e-17)
(-0.175331 0.0780693 -4.17339e-17)
(1.36809 0.794002 -6.59845e-17)
(0.0819729 2.09237 1.38528e-18)
(0.205355 -0.103262 -1.35476e-16)
(1.36813 -0.35307 -7.99112e-17)
(-0.0481551 -0.0434775 5.20983e-17)
(-0.631056 0.323919 3.46205e-17)
(0.224089 -0.0938763 -4.02009e-18)
(0.0530653 2.42933 -1.26737e-16)
(0.641083 -0.0989748 -2.53738e-17)
(2.83079 1.05202 0)
(0.266579 -0.756287 2.53054e-16)
(0.0187968 0.976568 -1.23561e-16)
(-3.28024 -1.6811 -2.02386e-16)
(0.869868 -0.634646 -8.38498e-17)
(-1.19485 -0.831931 -9.09278e-17)
(0.386118 -0.390424 2.08763e-17)
(-0.0325948 2.82884 -2.58111e-16)
(0.268258 -0.190726 5.52603e-17)
(0.084122 3.18629 2.6951e-17)
(-0.374235 0.530423 -4.40789e-17)
(-0.0119011 -0.0873014 1.57877e-16)
(0.1257 1.04647 -3.03508e-17)
(1.23817 1.34802 1.56389e-19)
(-0.0431574 -0.378292 0)
(-0.000879093 -0.274767 0)
(0.840464 0.809832 6.21745e-16)
(-0.135738 -0.443227 8.50228e-17)
(0.787521 0.732294 -1.48133e-16)
(-0.183557 0.305691 5.89761e-16)
(0.320676 0.671823 -3.43703e-16)
(0.200608 0.785097 7.11094e-16)
(-0.016777 0.583586 -1.66699e-16)
(0.328957 0.434627 -4.42369e-16)
(-0.168076 0.100647 -3.25505e-16)
(-0.0863878 0.181428 -3.42194e-16)
(-0.580127 0.447216 -1.99869e-17)
(0.43892 -0.322162 -4.21071e-17)
(0.0859 0.527535 3.85386e-17)
(-0.416528 1.90884 -1.22544e-18)
(0.311983 -0.151478 -1.21035e-16)
(-0.617089 1.78589 -1.50428e-16)
(-0.249816 1.084 2.6102e-16)
(-0.726447 -0.686527 2.29427e-16)
(0.742681 0.764945 4.01491e-16)
(1.53291 2.16526 -1.43952e-16)
(0.161057 2.08128 -4.15845e-17)
(-0.131201 -0.450895 0)
(-0.162006 1.922 3.20613e-16)
(0.412976 -0.0241624 4.34503e-17)
(1.28031 1.45543 -2.00134e-16)
(-0.122083 1.45266 -2.37158e-16)
(1.4901 2.45306 0)
(1.06197 2.06657 2.37326e-16)
(-1.32851 0.774111 0)
(1.10116 0.941994 5.96541e-17)
(-2.04983 0.0625376 2.01262e-16)
(-0.266214 1.05019 0)
(0.179288 -0.230258 -5.01553e-17)
(0.612906 0.838762 -3.27463e-16)
(-0.139781 1.60231 -8.31477e-17)
(0.375961 0.34309 -3.15921e-16)
(0.722973 1.89169 -9.12331e-19)
(0.109121 1.65192 0)
(0.086791 -0.0737632 0)
(0.772522 0.426131 -1.07094e-16)
(-0.0264822 1.82151 1.62956e-16)
(0.193177 0.503087 3.39442e-18)
(0.404655 0.560507 3.10581e-16)
(0.742452 0.44784 3.52771e-16)
(-0.122819 2.0995 -5.82482e-17)
(0.0965951 2.15155 0)
(-0.295483 1.8458 1.73859e-16)
(0.492578 -0.583232 -1.08091e-17)
(-0.549018 0.370808 0)
(0.343092 -0.521893 1.08535e-16)
(-0.223716 1.97687 3.0286e-17)
(0.57978 0.321198 -3.18738e-17)
(0.600954 0.126886 -2.61001e-16)
(0.298428 0.0221008 6.65589e-17)
(-4.62666 -0.151027 -5.44665e-16)
(0.00793807 -0.566136 -6.86832e-16)
(0.0273994 -0.19354 0)
(0.055212 -0.290701 -4.67737e-17)
(0.766114 -0.483197 -1.141e-16)
(-6.35991 -1.25814 1.31404e-16)
(-0.580411 0.167331 -5.22196e-17)
(0.540466 -0.861064 -4.8924e-17)
(-5.80136 -0.78562 2.39517e-16)
(0.288203 -0.838585 -1.51939e-16)
(0.087974 -0.37421 0)
(-0.83789 -0.422468 1.25393e-16)
(0.533434 -0.836545 -5.01067e-16)
(0.243165 -0.601466 6.18769e-17)
(-4.69141 -0.914935 -1.19511e-16)
(3.92102 0.537972 -3.12657e-17)
(-0.254767 -0.402611 -1.65702e-16)
(-0.738211 -0.739672 -8.21324e-17)
(0.342338 -0.68294 8.90193e-17)
(0.220082 -0.496389 -4.27805e-17)
(-0.554063 2.7885 0)
(0.334266 -0.548931 1.52883e-16)
(-5.88483 -1.62175 -1.29131e-18)
(-0.0905604 1.92364 1.37833e-16)
(0.0528704 2.22768 -1.08741e-17)
(0.0764359 2.21931 9.82369e-18)
(-1.04433 -0.822862 1.69036e-16)
(0.721719 -0.308123 1.12708e-17)
(-0.31335 2.79798 3.79508e-17)
(0.161669 2.96583 -3.92161e-17)
(0.229913 -0.318898 4.5556e-17)
(-0.00108918 2.28465 -9.33159e-17)
(3.62634 0.563327 2.30754e-16)
(0.708317 0.358544 -1.82329e-17)
(1.9102 1.99455 -2.75554e-16)
(0.971475 0.815587 -8.84081e-18)
(1.76767 2.47891 -3.22837e-16)
(-0.37241 -0.484672 0)
(1.89092 2.41286 2.03713e-16)
(0.527297 0.0275492 7.22639e-17)
(0.118807 -0.458841 -6.06911e-18)
(1.72715 1.93355 -6.24796e-17)
(-0.761001 -0.821259 2.53165e-18)
(0.218699 -0.240827 -9.24773e-17)
(0.58978 0.432578 -5.18271e-16)
(0.543611 0.111305 -1.90343e-16)
(0.430653 0.188161 9.12828e-16)
(-0.278626 0.321298 5.16843e-17)
(-0.103454 2.2601 1.15405e-18)
(0.328262 -0.0883604 3.13136e-16)
(0.353205 0.623175 0)
(-0.222361 -0.465591 2.62415e-16)
(-0.145255 2.20462 0)
(-0.00208872 2.29564 7.54286e-17)
(-0.179149 -0.272923 8.64439e-17)
(0.152613 -0.285106 -4.98143e-17)
(-0.0935891 -0.626398 3.29218e-16)
(0.0554984 1.69014 -4.21994e-17)
(1.07196 0.843982 -5.41701e-17)
(1.49545 1.4316 1.0357e-16)
(0.312139 -0.299219 0)
(-0.021523 2.16927 0)
(1.98297 1.30103 1.38705e-16)
(-0.150028 2.06042 -3.11132e-17)
(0.482204 -0.298901 -4.29446e-17)
(-0.173511 -0.389455 -4.30963e-16)
(-0.0931624 2.12057 3.81114e-17)
(-0.159127 1.49339 4.41012e-17)
(1.11039 2.30863 1.93689e-16)
(-0.13275 1.84041 -1.26151e-16)
(1.41518 1.35358 8.447e-17)
(0.266813 -0.609098 -4.69151e-17)
(-0.294987 -0.056723 0)
(-0.162469 -0.335208 0)
(-0.2169 1.02196 0)
(-0.845678 -0.588388 9.25935e-17)
(0.713648 0.0335876 2.68272e-16)
(1.67112 -0.346317 -7.30239e-18)
(-0.163071 1.77684 7.41632e-17)
(-0.0280465 0.502881 8.28724e-17)
(0.00793883 1.26832 -1.25835e-16)
(0.550404 1.94481 0)
(-0.89611 0.463864 -1.36419e-16)
(0.355537 -0.205323 -5.74071e-17)
(0.270086 0.990661 -1.30526e-16)
(1.56651 2.54791 -4.98462e-17)
(0.21659 -0.20708 5.05645e-16)
(0.254845 -0.380757 1.27624e-17)
(-0.0199044 0.85189 8.56588e-17)
(-0.221828 -0.828281 0)
(3.15781 0.772772 -3.85581e-16)
(0.279586 0.531031 -9.17126e-17)
(0.850242 -0.34867 0)
(0.501329 0.785111 4.27663e-17)
(1.81877 1.8625 -8.60495e-18)
(-0.0245093 -0.308475 2.39251e-17)
(1.91355 -0.167792 0)
(0.560516 1.30806 0)
(2.1331 2.27095 6.84543e-17)
(2.69223 1.18544 1.47769e-16)
(0.0636827 0.452206 -7.31118e-17)
(2.16077 2.32669 8.41668e-17)
(0.651499 0.354826 1.30998e-16)
(0.227747 -0.19377 0)
(2.01075 2.21392 -9.34839e-17)
(2.25731 2.40997 6.79097e-17)
(0.39051 -0.255812 -1.0681e-16)
(1.26364 0.330784 7.69621e-17)
(0.169289 1.53433 0)
(0.0203897 2.12896 2.10305e-16)
(1.16586 -0.264478 0)
(-3.35055 -0.797994 -1.97657e-18)
(-0.952442 -0.38587 -1.78853e-16)
(-0.328964 0.135608 8.76288e-17)
(-0.331881 0.237561 0)
(1.3281 0.427487 9.65584e-17)
(-0.0251892 0.218989 -2.16832e-17)
(1.10438 0.27603 1.5669e-16)
(3.74496 0.919266 3.16124e-16)
(0.524908 0.147855 0)
(-0.774748 -0.618377 0)
(0.193567 0.0995257 -8.59371e-17)
(0.622736 1.89407 -6.80522e-17)
(-0.0421094 0.029709 -1.23292e-17)
(-0.11376 0.343864 0)
(0.0184392 1.77547 -1.48081e-16)
(-1.13273 0.517247 1.47241e-16)
(-0.737185 -0.400625 -1.75512e-16)
(0.639631 0.286005 -3.41265e-16)
(0.162219 0.316614 3.85569e-16)
(0.221574 -0.14175 2.23203e-16)
(0.827547 2.37051 2.10587e-16)
(0.36006 1.63839 0)
(0.319472 -0.268109 -1.61429e-16)
(-0.511535 0.484967 6.81503e-21)
(-0.0256017 -0.710915 4.50399e-16)
(0.0251587 0.371075 -1.1799e-17)
(-0.651563 -0.586328 7.5533e-17)
(1.06647 0.0178935 2.50962e-16)
(-0.870787 -0.827467 -3.45154e-16)
(0.0946427 0.0380335 0)
(0.225174 -0.14175 -2.06816e-16)
(-0.412298 -0.266633 -9.47718e-18)
(0.344272 1.73172 -4.49525e-16)
(0.405143 2.21848 -4.13621e-19)
(-0.683908 -0.0694868 -1.83281e-16)
(0.443002 0.541609 -1.77985e-16)
(0.906912 -0.440713 -1.35253e-16)
(0.561041 -1.47049 -3.2674e-19)
(0.298637 0.150287 0)
(-0.29412 0.370315 0)
(1.78053 1.99405 -1.16815e-16)
(0.678968 0.0812485 -1.04637e-16)
(0.839689 0.674812 -4.89998e-17)
(0.89071 -0.543827 -8.50747e-17)
(-0.343948 1.50709 -1.12097e-16)
(1.4881 2.14832 0)
(-0.0155918 -0.85047 -1.80927e-17)
(0.153513 0.147708 -2.29229e-17)
(0.843393 0.107863 2.14773e-17)
(0.391559 2.00916 6.45011e-17)
(0.0978944 0.291755 2.49271e-17)
(0.208524 2.05966 0)
(-0.143195 1.42751 7.57905e-18)
(-0.799285 -0.411104 -8.10716e-17)
(0.162566 0.357997 8.21546e-17)
(0.894006 -0.573861 0)
(0.0920107 2.25105 2.41675e-19)
(1.57734 -0.236139 -5.6367e-17)
(1.08275 1.63722 -1.92869e-16)
(0.282687 -0.139935 3.84559e-17)
(1.58178 1.2433 0)
(0.0935397 0.218002 -3.76039e-16)
(0.775658 2.53815 -2.46524e-16)
(-0.565428 -1.26326 1.5873e-16)
(0.892171 -0.508824 0)
(0.53208 0.406996 -4.09459e-17)
(-0.586357 0.873386 0)
(0.194851 0.213633 0)
(0.145256 1.89507 0)
(0.250076 -0.3951 -7.49665e-17)
(1.15023 1.42174 2.06615e-16)
(-0.762111 -0.174865 9.85634e-17)
(-0.0513592 2.53312 6.91205e-16)
(0.870275 -0.340077 -4.74263e-17)
(-0.190098 0.0966055 -2.97172e-18)
(0.0782056 0.906434 7.55546e-21)
(-0.160093 1.05938 -6.35855e-18)
(2.36728 1.27062 -1.46334e-16)
(0.611327 -0.381715 1.31958e-16)
(-0.217604 -0.0929322 1.20168e-16)
(-0.234636 1.68166 -9.0623e-17)
(1.98631 2.09426 1.23943e-16)
(0.533774 -0.107953 -4.14469e-16)
(-0.222606 1.052 0)
(0.289052 0.0011218 -8.79838e-18)
(0.826454 -0.104814 3.68297e-17)
(-0.114422 0.316376 9.53148e-17)
(0.673868 0.0317378 9.91002e-17)
(-0.0410379 0.261353 1.60332e-16)
(0.0610234 0.0832381 -2.13804e-16)
(1.49017 0.0894521 -7.79905e-19)
(1.06425 -0.378645 -4.05121e-19)
(-0.166558 1.27032 0)
(-0.224834 0.51173 0)
(-0.194792 -0.479487 4.22462e-17)
(-0.832828 -0.0424108 3.47028e-21)
(0.114162 0.592353 1.80119e-16)
(0.537414 0.0504905 0)
(0.27315 0.289179 1.35657e-16)
(0.648675 0.172984 0)
(0.172271 -0.0941244 0)
(-0.97392 -0.332999 6.70782e-17)
(0.372858 -0.234368 -1.56034e-16)
(-0.320912 0.036222 -4.60068e-17)
(-0.127588 1.86651 -3.2641e-17)
(0.253775 2.08099 7.14151e-17)
(0.785274 0.144638 -1.21956e-17)
(0.740569 0.922069 2.76466e-16)
(0.0111092 -0.425383 1.2394e-16)
(-0.680217 1.77648 -1.64555e-16)
(0.848104 0.680376 3.44246e-17)
(0.727331 0.724594 8.86374e-17)
(0.603306 -0.118518 -1.80478e-16)
(0.342504 -0.101239 1.0031e-16)
(-0.020912 0.175101 -2.31842e-16)
(2.08068 2.46292 1.82316e-16)
(0.348572 0.307487 -1.69745e-16)
(0.366647 0.407863 9.48308e-17)
(0.0159623 2.03319 2.59556e-19)
(-0.0648616 -0.0899228 1.39078e-16)
(0.153729 2.36613 -2.33394e-17)
(0.0144633 0.523098 0)
(-0.665394 1.44014 0)
(2.17247 2.41424 -1.80548e-16)
(-0.82081 -0.252809 8.46724e-17)
(0.156 0.514851 -1.74359e-16)
(-0.399132 0.115795 1.05503e-17)
(3.38617 0.316742 1.7015e-17)
(-0.6786 -0.285088 0)
(0.560393 0.444751 1.73105e-16)
(-0.0147194 1.9262 0)
(0.500583 0.69744 0)
(-0.10033 -0.276385 -1.55462e-16)
(0.779714 0.394277 0)
(0.244254 0.302841 -4.33065e-16)
(0.0969186 2.01397 3.97306e-16)
(0.44033 1.02866 8.71731e-17)
(-0.304273 -0.169739 -8.57138e-17)
(-0.0417002 0.469165 -8.54488e-17)
(-0.58828 -0.0310075 -1.89301e-16)
(0.678329 -0.171659 -2.45994e-16)
(0.10347 1.70019 1.54379e-16)
(0.885438 1.23876 -1.19562e-17)
(0.343989 2.47457 -2.27216e-16)
(2.85774 0.585507 -8.17129e-17)
(1.62586 1.16441 5.23936e-17)
(0.219378 1.98624 0)
(-0.185933 -0.404925 -2.45387e-16)
(0.511899 0.034426 9.54386e-18)
(0.481759 0.0334088 -3.58584e-17)
(-0.563915 0.555241 1.40996e-19)
(0.56134 0.0387781 -9.77404e-18)
(0.471385 0.0299774 0)
(-0.0325222 -0.0417391 -2.76984e-16)
(-2.54847 0.281753 0)
(1.06699 0.00645597 3.51429e-16)
(0.623755 0.0434775 -7.82277e-17)
(0.431053 0.00854581 0)
(0.0704966 0.689353 7.07889e-16)
(0.0404838 2.3307 1.21686e-16)
(0.468469 -0.344584 -3.02156e-16)
(0.310248 0.148775 -4.08064e-16)
(0.558902 0.338906 2.50981e-17)
(0.209151 2.28983 0)
(1.23595 1.09772 2.1095e-16)
(-0.201108 0.15867 8.35274e-17)
(1.37536 0.0560507 1.31485e-16)
(-0.486477 0.288291 1.33598e-16)
(-0.105414 -0.259468 5.06517e-17)
(-0.0236779 0.901297 3.96036e-17)
(0.163037 2.25202 -2.47038e-20)
(-3.49854 -1.80651 -5.45094e-19)
(0.370425 0.735733 0)
(0.194518 0.650008 4.51874e-17)
(0.0435295 0.545891 0)
(1.03315 0.0556002 -2.89335e-19)
(0.664063 0.410256 -3.83242e-20)
(0.244848 -0.189564 5.3984e-17)
(-0.301503 0.313832 -1.30292e-16)
(0.76957 0.594268 0)
(0.578671 0.0325261 -6.64812e-17)
(0.136253 0.67687 -3.48016e-16)
(1.18789 0.0535371 -2.72703e-16)
(0.00413607 0.272484 0)
(-0.450194 0.0402364 -1.51648e-20)
(0.532219 2.52017 -1.32988e-16)
(-4.07479 -0.667045 2.9696e-16)
(0.358562 0.304721 5.23688e-16)
(0.544401 0.051813 -4.34356e-16)
(0.170907 -0.0405862 -2.2455e-17)
(0.520241 -0.148731 1.88224e-16)
(0.238242 0.385151 -3.02967e-17)
(0.954873 0.923001 -1.57049e-16)
(0.227893 0.303483 3.85163e-21)
(0.658222 -0.60822 1.03967e-16)
(-5.70981 -1.97609 4.08515e-16)
(0.162091 2.2242 1.64036e-19)
(-0.215044 -0.0412063 0)
(-0.000129658 0.138541 8.67644e-17)
(0.0341125 -0.0310618 3.39804e-20)
(0.543457 0.136437 -1.06748e-16)
(-0.713977 0.154296 -8.30814e-17)
(0.386438 -0.189554 4.19837e-17)
(0.236525 1.42225 -2.55077e-16)
(0.0359077 1.45506 1.02448e-16)
(0.154046 0.8843 -7.96351e-17)
(0.688597 0.505631 1.44076e-16)
(-0.454437 0.152669 2.03589e-16)
(0.178248 1.47797 2.63927e-16)
(-0.494326 1.15204 -1.85579e-16)
(1.12123 -0.622107 -3.71284e-16)
(-0.580343 -0.522141 -1.12495e-19)
(0.341905 -0.170192 -1.28387e-19)
(0.853565 1.22795 2.62873e-16)
(0.105627 1.03016 -2.37559e-16)
(0.0780353 2.80303 0)
(0.0322357 1.87919 2.42843e-16)
(-0.706162 -0.082399 -9.06301e-17)
(-0.436432 -0.068164 3.85389e-17)
(0.306949 0.76321 2.42673e-17)
(-0.350251 0.0188465 4.19735e-17)
(1.25454 2.50544 9.84059e-17)
(1.42677 -0.260935 -9.82833e-17)
(-0.644517 0.33683 8.23971e-17)
(0.994391 2.388 2.14635e-16)
(-5.02828 -2.41412 -2.58527e-16)
(-0.219683 0.0706891 -2.11573e-17)
(-0.333178 -0.278715 -3.35877e-16)
(1.15038 2.5718 0)
(0.102792 1.59558 -5.98752e-17)
(-0.249366 -0.541247 1.71276e-19)
(-0.00726025 2.07172 -5.46806e-17)
(-0.429039 0.0193958 -4.06606e-17)
(0.0722817 1.90386 -2.17305e-16)
(-0.242093 -0.478973 6.48967e-17)
(-5.63196 -2.51396 -1.17344e-16)
(-0.158323 0.551187 -2.70149e-18)
(1.06514 2.12804 -6.00086e-17)
(0.0390341 0.170859 8.94911e-17)
(1.16508 -0.0895165 0)
(1.3393 -0.0803547 0)
(0.0728054 2.71366 -3.20425e-18)
(0.646039 -0.151045 -4.05342e-16)
(0.629513 -0.156355 2.26866e-16)
(0.7331 -0.470298 0)
(0.295121 0.524565 0)
(-0.0847342 -0.281625 -1.95975e-17)
(-0.358902 0.4361 -8.32927e-17)
(0.576807 -0.11542 1.31528e-16)
(-0.767981 -0.26831 1.40513e-16)
(-0.0341762 0.251737 9.94659e-17)
(0.842975 1.97319 -7.16829e-16)
(0.0368531 -0.265455 0)
(0.519453 1.07904 -9.28112e-17)
(0.217685 0.667605 -6.699e-17)
(-0.19105 -0.162254 0)
(0.602808 -0.179305 -1.64292e-16)
(3.54894 1.21828 -1.74982e-16)
(1.50936 1.70233 5.38811e-16)
(0.684248 0.0179341 -1.08767e-16)
(0.219388 0.166742 -2.37918e-16)
(0.692233 0.993749 0)
(0.95123 1.28829 0)
(1.99268 2.31729 1.22351e-16)
(0.130832 0.150001 -7.84704e-17)
(0.17558 2.10629 1.48707e-16)
(0.134812 -0.374195 0)
(-0.0119333 1.34503 7.9948e-17)
(0.47972 2.26358 2.72488e-19)
(0.472503 0.0656482 0)
(0.0568059 -0.433129 0)
(0.226307 -0.352658 5.06814e-17)
(-0.0808412 -0.0879769 0)
(-0.0658956 0.227498 2.81591e-17)
(0.90257 0.0550112 1.46188e-16)
(-0.809354 -0.36867 1.53076e-16)
(0.695398 0.0067857 3.4993e-16)
(-1.60035 1.23152 -9.70375e-17)
(0.0658052 2.59221 -1.50782e-16)
(0.967772 0.303659 1.71301e-16)
(-0.478941 -0.27884 0)
(0.00144159 2.07789 -6.12551e-17)
(-0.518931 -0.197568 1.76834e-16)
(0.213036 2.06134 0)
(-0.393886 0.25535 -1.42049e-16)
(-0.573441 -0.468856 0)
(0.567135 -0.0369027 -2.3669e-16)
(0.941109 2.43771 0)
(-1.00354 -0.389734 -1.80993e-16)
(-0.351365 0.0891745 4.71537e-18)
(0.661 -0.225008 1.28632e-16)
(0.294736 1.77125 5.87895e-16)
(-0.365354 0.876144 0)
(-4.77779 -1.89185 2.76535e-18)
(1.2831 1.69655 1.5455e-16)
(0.253801 1.32163 -1.51947e-16)
(-0.397162 -0.117295 3.86668e-17)
(0.168387 0.392925 -1.4128e-16)
(0.0847173 -0.513973 1.66027e-16)
(0.0241292 2.14399 3.40214e-17)
(-0.333177 0.0627471 5.15505e-18)
(0.146467 2.345 -4.17933e-16)
(0.959785 1.73636 -1.30598e-16)
(1.59675 2.22668 2.12394e-16)
(0.659958 -0.348883 3.04342e-16)
(0.442547 -0.131167 -1.01275e-16)
(0.664048 -0.273055 -8.53397e-17)
(-0.375893 0.283054 -7.06205e-17)
(0.557138 0.276006 3.58207e-16)
(-0.607359 -0.327914 1.71642e-16)
(0.266532 -0.669342 1.07539e-16)
(0.242985 -0.136832 0)
(0.247841 -0.100287 0)
(0.415958 0.705632 -1.64326e-16)
(1.62472 0.334166 2.23844e-16)
(0.162335 2.4698 -2.41311e-17)
(-0.189063 -0.704979 -2.79819e-16)
(-0.0350845 -0.451214 7.54724e-18)
(0.346515 -0.460751 -8.14767e-17)
(0.430337 2.30183 4.28006e-16)
(0.410012 -0.105974 1.03275e-16)
(0.644727 -0.356576 4.23015e-17)
(1.84145 -0.208936 0)
(1.25664 1.55555 1.23176e-16)
(0.573766 0.260511 0)
(0.584872 1.02811 0)
(0.239536 -0.0761785 -3.95321e-18)
(1.47984 0.940726 0)
(1.37167 0.0361786 0)
(-0.0971691 -0.42764 0)
(0.0392088 0.0704141 0)
(2.01586 1.93964 -4.38911e-16)
(0.293553 2.00212 -1.74075e-16)
(-0.138071 1.75386 -1.22114e-16)
(0.490386 0.568727 -3.783e-18)
(-0.50158 0.561379 -4.67666e-16)
(0.438803 1.19607 -3.37573e-16)
(1.96618 2.38757 2.38895e-16)
(-1.01171 1.37348 -5.15812e-16)
(0.499714 2.09669 2.65384e-16)
(0.0874205 1.62659 5.98592e-17)
(0.391448 -0.504101 0)
(0.138535 -0.349183 0)
(-0.193906 -0.418541 2.35806e-16)
(0.104917 0.0333965 8.97416e-16)
(0.334437 1.46521 2.69489e-16)
(-0.483144 0.665212 0)
(0.592237 0.151427 0)
(2.1003 2.28031 1.46878e-16)
(-0.464126 0.0692127 2.20451e-17)
(-1.22292 -1.06985 -1.3302e-16)
(0.614012 -0.450699 -1.2249e-16)
(1.76981 2.08327 -2.58276e-16)
(-0.267428 -0.127351 -2.92095e-18)
(0.00144664 0.347207 3.39801e-17)
(0.0103534 0.36715 -1.17181e-17)
(0.0760521 0.47095 0)
(0.0395828 0.406008 -4.90248e-17)
(-0.000504186 2.18066 0)
(0.0255208 2.13143 0)
(0.0060619 2.1553 0)
(0.0256331 2.02844 0)
(-0.00811904 0.343637 0)
(0.0264109 1.92219 0)