/*--------------------------------*- C++ -*----------------------------------*\
| =========                 |                                                 |
| \\      /  F ield         | OpenFOAM: The Open Source CFD Toolbox           |
|  \\    /   O peration     | Version:  v1912                                 |
|   \\  /    A nd           | Website:  www.openfoam.com                      |
|    \\/     M anipulation  |                                                 |
\*---------------------------------------------------------------------------*/
FoamFile
{
    version     2.0;
    format      ascii;
    class       volVectorField;
    location    "0.71";
    object      U;
}
// * * * * * * * * * * * * * * * * * * * * * * * * * * * * * * * * * * * * * //

dimensions      [0 1 -1 0 0 0 0];


internalField   nonuniform List<vector> 
1431
(
(0.0571001 2.60667 1.15032e-16)
(1.83688 1.83854 2.74634e-17)
(-0.250499 -0.177469 0)
(1.00062 -0.180954 2.1711e-16)
(-2.48177 -0.0741415 0)
(0.786179 6.2645 1.87926e-16)
(0.72287 0.164361 5.09617e-16)
(1.14183 0.061652 4.71083e-17)
(0.137667 6.47168 1.30455e-16)
(0.577067 0.11395 4.87157e-16)
(2.82349 10.7008 2.09823e-17)
(5.82956 -0.531217 0)
(-0.197642 1.89472 -1.48412e-16)
(-1.83147 0.0440411 -5.20953e-16)
(2.7321 -0.379399 0)
(0.81915 0.15467 -4.48998e-16)
(4.19083 -0.143389 -2.41152e-16)
(-1.69025 -0.560936 0)
(4.43998 -0.307306 -1.9168e-16)
(-2.2624 -0.0748687 1.44526e-16)
(4.26218 10.0435 -7.16465e-19)
(-0.913966 0.00165428 2.14543e-16)
(0.297792 4.58642 -1.53547e-16)
(11.5623 2.02145 -3.49732e-18)
(0.194176 5.79977 1.35148e-16)
(-0.0281982 0.855979 4.89614e-20)
(1.55053 10.5253 -2.16727e-17)
(2.12655 -1.40156 -3.50415e-16)
(-0.140248 4.80905 -4.44554e-17)
(0.226278 5.86815 3.23486e-17)
(0.0957647 6.45521 -8.92549e-17)
(-0.0254499 5.9593 3.64608e-17)
(-0.0127166 6.45541 0)
(-1.09954 0.171078 -4.30684e-16)
(0.72579 5.30068 -2.53171e-16)
(1.01741 0.305775 0)
(-0.65416 6.0163 0)
(0.105959 -0.0827401 -3.50644e-20)
(0.355739 0.000195159 0)
(0.0443672 5.86517 0)
(-0.574211 8.16663 -9.33786e-20)
(-0.746173 7.98048 1.09712e-16)
(-0.133264 1.29322 -1.95793e-16)
(0.721715 0.0596412 2.34973e-16)
(1.01757 5.53314 0)
(-0.891962 -1.00888 3.12609e-16)
(0.418705 1.3146 2.26623e-17)
(1.10227 10.1817 -6.57341e-17)
(0.80658 0.190333 0)
(0.233296 -0.2327 0)
(0.839033 2.47547 0)
(0.697675 0.0596172 0)
(0.664811 2.83595 2.67082e-16)
(1.826 -0.142183 1.53709e-17)
(1.29942 1.11602 -1.99141e-18)
(0.287397 0.96323 4.47875e-16)
(-1.0544 0.461474 1.98119e-16)
(3.87043 -0.709183 0)
(4.56561 0.132664 0)
(1.40646 -0.124116 4.12539e-16)
(1.84141 -0.605104 -1.33296e-16)
(0.331847 -0.00374871 4.33194e-16)
(-0.362125 -0.0136117 0)
(0.00981398 -0.077456 0)
(0.200637 -0.0029346 1.05495e-18)
(0.195909 0.0495226 -2.65183e-16)
(1.78518 0.0334004 -2.4205e-16)
(0.556485 -0.119704 -9.46174e-17)
(0.531229 -0.380255 -6.02808e-18)
(-1.29681 -0.314526 0)
(-0.417389 -0.787407 6.57432e-17)
(-1.30619 0.159875 -1.52127e-16)
(0.548346 -0.132789 1.40246e-16)
(-1.0818 0.0509796 3.5069e-16)
(-1.93808 -0.106888 3.85297e-16)
(-1.53963 -0.580359 -4.87929e-16)
(0.577777 -0.378923 -2.36258e-17)
(0.0667212 -0.0475177 -2.02476e-16)
(0.561697 0.0442434 -3.16057e-16)
(-0.705888 -0.541146 0)
(4.1321 0.00872881 -5.79921e-17)
(-0.359816 -0.156864 1.26327e-17)
(4.6448 1.11342 -6.07945e-18)
(1.39086 1.7798 9.33506e-17)
(11.5425 0.702603 2.09241e-18)
(1.1235 -0.103766 -1.14342e-16)
(-0.322725 -0.0691614 0)
(2.01091 0.452996 1.65668e-16)
(10.0275 0.190653 5.55222e-18)
(7.71416 0.980025 1.9381e-18)
(-0.649483 0.681567 -2.75407e-16)
(-1.54166 1.17928 2.63905e-16)
(0.175071 -0.0964516 3.35565e-16)
(0.87274 0.136643 -1.54379e-16)
(1.03234 0.751251 9.28578e-18)
(-0.0255402 5.1031 0)
(2.53029 -0.631266 -7.18282e-17)
(4.49445 2.40989 -9.80684e-18)
(0.625432 0.0465843 0)
(-1.1302 -0.0716694 -6.49213e-19)
(0.285608 1.67263 1.54811e-16)
(0.435199 0.00722677 -7.60341e-16)
(3.84001 -0.0060919 0)
(0.334199 -0.932836 -2.91831e-16)
(0.00412989 -0.0500167 4.31433e-16)
(0.0928676 5.72709 1.32726e-17)
(-0.0254691 5.59217 0)
(1.31046 7.5175 6.8342e-18)
(0.370211 3.0698 2.9385e-16)
(4.37318 0.0740413 0)
(0.849809 -0.395517 -6.40849e-16)
(-0.245948 2.67901 -2.75993e-16)
(-0.55717 -0.345815 4.48152e-16)
(-0.466397 6.95112 -8.4635e-17)
(1.6763 1.38415 -8.80003e-19)
(-2.20578 -0.342044 6.47416e-17)
(-1.71242 0.167997 0)
(0.821144 -0.146516 -2.46872e-16)
(1.33981 -0.0752723 0)
(-0.134766 -0.0671024 0)
(-0.402112 -0.395693 -2.44381e-17)
(2.87508 0.0758293 6.95458e-17)
(0.134621 0.126139 2.45254e-16)
(-1.86076 -0.200438 1.5564e-16)
(-1.33199 -0.579025 0)
(0.652732 0.036799 1.88009e-16)
(-0.0863107 -0.204524 0)
(1.71059 -0.249071 4.54432e-16)
(0.0632124 -0.55947 -3.19327e-16)
(0.0895164 0.191372 5.15644e-16)
(3.71377 -0.262753 3.30499e-16)
(-2.06961 -0.0960019 -8.96787e-17)
(0.323777 0.27287 -1.17385e-16)
(3.4784 0.161459 8.53725e-17)
(-2.18291 0.54581 0)
(-0.321332 -0.334854 -3.72135e-16)
(0.184737 -0.100132 1.89813e-16)
(0.740531 0.0811055 0)
(9.35763 -0.273205 3.10535e-17)
(0.13573 -0.0215425 2.20069e-16)
(0.2373 0.0134655 0)
(0.138234 6.51387 0)
(4.3837 -0.0441438 7.17154e-17)
(0.0983464 -0.49105 0)
(0.416825 3.28938 1.85747e-16)
(-0.039288 6.49991 -6.91278e-17)
(-0.681682 -0.171028 -2.05557e-16)
(0.409216 2.17165 -3.04535e-16)
(0.818185 0.12187 3.32085e-16)
(0.43544 -0.468984 1.73985e-16)
(-0.439417 -0.184524 2.6104e-16)
(-0.460354 -0.318175 8.36067e-17)
(0.0361328 5.85493 -9.82283e-21)
(1.38307 -0.0609897 -2.14453e-16)
(-0.124559 6.05741 -3.51236e-17)
(0.267037 -0.0890744 -4.31031e-16)
(10.4045 0.315721 -2.09759e-18)
(2.80199 3.36339 6.00633e-17)
(6.2456 1.15173 -4.88711e-18)
(0.283524 -0.0244593 2.94574e-17)
(8.56355 2.33737 -2.6956e-18)
(-0.289385 2.45505 1.61413e-16)
(0.287671 -0.316117 -2.14168e-16)
(-0.0223953 -0.114263 1.34551e-17)
(0.553401 -0.0779407 -5.00801e-17)
(-0.20204 3.8417 -1.51452e-16)
(-0.390575 5.40206 4.62297e-16)
(1.40264 0.938879 8.33081e-18)
(0.145916 -0.131265 2.72722e-16)
(3.2277 2.10176 2.22289e-17)
(8.75605 1.357 -5.7768e-18)
(0.383939 2.73668 0)
(0.0953374 6.02987 -3.28252e-17)
(9.37149 0.0105867 3.45427e-18)
(2.26511 2.24975 -1.06214e-17)
(10.6219 0.144386 0)
(0.159846 0.16825 0)
(0.889488 6.32435 -1.0808e-16)
(0.740054 2.84759 -2.62343e-16)
(0.836755 4.87648 -2.66991e-17)
(0.318901 0.0836149 -4.98892e-16)
(0.554115 0.0391497 0)
(0.924621 1.98823 7.61767e-18)
(10.0125 2.76641 -2.43442e-18)
(1.07631 6.33032 7.62911e-17)
(-0.00438743 4.08508 0)
(0.967474 3.50875 -1.04161e-17)
(2.8405 2.71895 -3.95699e-18)
(0.193971 6.21595 5.10532e-17)
(10.8218 -0.209417 2.03939e-17)
(-0.0470212 6.42914 -5.57942e-17)
(0.111961 6.0729 -3.22768e-17)
(0.0570101 6.11382 -5.01813e-17)
(1.04732 6.55476 0)
(1.15561 -0.114265 0)
(3.33081 4.16172 -5.61779e-17)
(4.59483 3.08675 0)
(1.13343 5.39076 -1.60303e-16)
(0.898912 -0.194658 3.87483e-16)
(1.68024 0.260422 0)
(1.35256 1.89705 -2.18047e-19)
(0.103974 -0.364187 -1.22259e-16)
(1.48087 8.60972 -3.66574e-17)
(-0.248822 0.0233649 1.105e-16)
(-0.136245 2.43193 -4.946e-17)
(0.0158649 6.41498 3.68976e-18)
(0.0397109 5.48137 9.28772e-17)
(0.962073 0.120923 2.96407e-16)
(8.9804 0.429135 -1.09573e-18)
(0.714644 1.31563 -1.75254e-16)
(-1.37929 0.213112 2.80077e-16)
(0.477222 -0.190615 0)
(-0.0256988 5.65169 2.94913e-17)
(0.283181 5.70208 3.30006e-17)
(10.5243 0.929983 0)
(-0.915075 0.0612893 5.83309e-16)
(0.0313639 6.08083 1.53441e-16)
(1.24038 5.60827 -4.13279e-17)
(0.999173 2.31686 -5.64494e-17)
(1.23674 8.40881 2.45857e-16)
(-0.205107 6.49883 2.42051e-16)
(0.911273 1.63691 0)
(3.4051 0.926686 2.17667e-16)
(-0.0089964 -0.277688 0)
(-0.226993 5.86001 -1.36492e-16)
(8.96915 1.11715 1.85906e-18)
(2.49616 7.08577 -2.97662e-17)
(3.82568 2.22809 2.15835e-17)
(-0.0754828 6.1197 1.72099e-16)
(0.835961 8.84689 4.20983e-17)
(1.92908 0.0813999 2.80724e-17)
(0.0730658 6.46947 7.30696e-21)
(-0.0267721 5.61212 -3.70129e-18)
(0.0621053 6.13084 6.9223e-17)
(-0.0395853 6.02116 -3.50258e-17)
(7.40045 1.77789 6.49487e-18)
(-0.0134523 5.73961 0)
(0.451591 5.53544 -4.07387e-17)
(0.0229894 6.52253 0)
(1.06593 1.2336 3.19599e-17)
(0.459641 0.251914 8.27289e-17)
(1.37966 3.48422 1.21591e-17)
(8.91011 0.729665 -7.33019e-19)
(0.251855 6.17598 0)
(0.225486 6.04105 2.52133e-17)
(-0.728678 -1.01626 5.99244e-16)
(0.307707 5.79078 2.55517e-16)
(1.24552 9.00072 0)
(-0.299261 6.32144 -3.00131e-16)
(0.238112 -0.113913 2.0599e-16)
(0.96993 0.368025 0)
(10.1884 0.339119 -2.36133e-19)
(0.266876 -0.10745 2.87224e-18)
(0.640102 -0.2621 -1.9765e-17)
(-0.00107599 6.39654 4.28687e-17)
(-0.648072 7.79022 -4.71327e-17)
(0.252983 -0.201158 1.28663e-20)
(9.14076 1.60439 -4.42253e-18)
(6.07661 2.80728 2.6264e-17)
(0.0799888 6.04633 -5.0049e-17)
(0.0561055 2.64489 1.29061e-16)
(9.44359 -0.181721 -1.96294e-17)
(0.987646 2.23745 0)
(0.0791889 0.0890228 9.96493e-17)
(-0.255295 5.27154 2.94498e-17)
(1.52834 7.16917 -5.86872e-17)
(-0.0238212 5.7369 -1.30719e-16)
(0.995312 5.52755 0)
(0.976307 9.78315 6.16536e-17)
(-0.988663 0.277331 0)
(0.894681 2.27709 -5.74149e-17)
(-0.000918658 5.93964 6.14935e-17)
(1.4739 1.49086 -1.34202e-17)
(0.99458 0.774897 6.72745e-17)
(9.24338 1.9292 0)
(0.0706104 6.11252 1.05432e-20)
(9.71121 1.38677 -5.28551e-17)
(1.21906 6.41858 2.43231e-17)
(0.0084276 3.68451 1.9091e-20)
(-0.0298718 4.37556 -7.58439e-17)
(0.350658 3.28112 0)
(-0.653492 5.4556 1.58138e-16)
(-0.00630946 6.40814 8.98015e-17)
(0.846883 1.66385 2.5225e-16)
(0.757223 0.63394 0)
(5.00462 1.82916 0)
(-0.642788 7.87997 1.17968e-16)
(5.2355 2.62752 -3.18259e-17)
(11.2783 0.4605 0)
(1.85801 2.21803 -2.77211e-17)
(0.623543 0.039907 -2.46961e-16)
(-0.130839 6.51919 1.32261e-16)
(4.0398 2.89195 -2.5243e-17)
(0.135318 2.5431 -5.60512e-17)
(0.776504 8.39332 -1.38353e-16)
(-0.0657178 6.15692 -4.04167e-17)
(2.29695 5.16076 0)
(0.00663881 4.04259 0)
(-0.385736 1.18085 2.10899e-16)
(0.0554318 3.69365 8.88303e-18)
(0.522667 2.71736 -1.81331e-16)
(-0.0581108 0.0325765 -2.49339e-16)
(1.17986 1.16172 -3.98044e-18)
(-0.00600431 1.83072 7.27315e-17)
(0.246165 4.83552 -4.94864e-17)
(0.23888 -0.306779 -6.81555e-17)
(2.21482 2.74892 1.83574e-17)
(0.0610008 5.95384 -2.871e-16)
(-0.737796 7.45945 -2.25785e-16)
(2.6584 1.9436 -1.6495e-17)
(3.77906 5.14482 1.90679e-16)
(0.82918 0.133828 0)
(0.426162 0.0846482 -1.0341e-16)
(0.116088 0.692546 0)
(0.109902 6.53897 -2.3939e-16)
(4.36366 3.54927 0)
(1.10325 5.12028 -9.21915e-19)
(0.997933 0.862602 1.75842e-17)
(0.582001 -0.398238 -2.38409e-17)
(6.41362 5.85556 1.1195e-18)
(2.08651 3.18709 1.77204e-17)
(3.82577 3.81318 0)
(-0.469883 -0.17453 0)
(0.146228 2.0502 0)
(1.10239 5.54069 3.00339e-16)
(-0.373328 -0.182658 -2.60744e-16)
(-0.762254 -0.0294035 0)
(-0.200495 7.01236 2.65899e-16)
(2.4163 0.340854 2.74794e-17)
(0.483911 -0.363839 9.29381e-17)
(0.418043 3.99563 2.06023e-16)
(0.53882 -0.775003 1.74534e-16)
(-0.0934601 6.86717 -2.66325e-16)
(-0.525101 -0.158321 -3.43845e-16)
(0.364929 0.144261 -2.01331e-17)
(-0.041292 1.75975 -3.28947e-17)
(-0.358089 7.26925 0)
(6.62568 1.89528 4.71234e-18)
(1.12982 5.79554 -1.44619e-16)
(0.4149 1.38841 0)
(-0.0451429 -0.103484 0)
(-0.0681737 1.68957 2.59103e-17)
(3.29229 6.45896 7.15961e-17)
(-0.559271 7.32699 0)
(0.194565 6.36251 1.35438e-16)
(-0.0819438 5.9688 0)
(1.56175 1.82536 1.86595e-17)
(9.98223 0.894437 4.98348e-17)
(3.18229 5.49913 -1.32862e-16)
(0.0407651 2.43757 0)
(0.729995 6.21038 1.57312e-16)
(0.305386 -1.12518 -3.59185e-16)
(0.21778 2.07415 1.86037e-16)
(2.18448 4.19687 -5.99661e-19)
(0.906366 -1.73361 2.61169e-16)
(1.05012 1.9127 -1.77843e-16)
(7.79829 2.60208 1.62974e-18)
(-1.07396 0.704874 -6.79546e-17)
(10.2434 -0.0171476 -3.13457e-20)
(-0.631449 8.12876 -1.99781e-19)
(-0.313606 0.0536914 -4.28132e-16)
(-0.0352916 4.19089 -3.18146e-17)
(0.176555 3.89606 -6.81634e-17)
(0.966878 0.860399 4.16107e-18)
(0.696066 -0.315831 -4.18333e-17)
(6.96337 6.61872 1.38767e-17)
(0.0613961 6.60816 1.31316e-16)
(11.2513 3.99952 -4.67697e-19)
(-0.282587 6.65119 3.25571e-17)
(0.488704 6.73263 1.14832e-17)
(1.19399 9.08683 -8.17972e-17)
(-1.11962 -0.395152 -1.85258e-16)
(9.53979 0.43137 8.0258e-17)
(1.2504 3.00826 0)
(-0.536387 7.44965 6.93777e-17)
(6.85265 1.18544 -1.02765e-18)
(2.49192 3.83751 -1.77767e-17)
(0.642857 0.102533 -8.33207e-17)
(-0.318696 0.524692 0)
(6.97226 1.88927 -2.05296e-18)
(-0.390512 3.09456 3.13311e-16)
(1.11791 6.08548 7.33986e-17)
(0.687367 1.23967 0)
(1.02576 -1.23718 1.4326e-16)
(9.94513 5.55323 -1.1405e-17)
(0.290532 6.34612 3.51386e-17)
(0.923532 3.8215 -4.42547e-16)
(0.22421 6.09342 2.01679e-18)
(0.994447 5.75649 0)
(1.15331 3.15338 -2.36428e-17)
(0.604387 0.399017 1.58076e-16)
(0.74502 3.88486 -1.27702e-16)
(0.67483 3.86447 1.38317e-16)
(0.220355 -0.408661 2.32343e-16)
(6.96995 2.75844 -3.35784e-18)
(0.287985 2.29915 -8.52941e-20)
(-0.189504 4.32482 2.97071e-19)
(-0.214279 4.59029 -8.78989e-17)
(-0.0565552 6.74919 -2.67413e-16)
(0.554117 6.19556 -3.71588e-17)
(2.40752 4.93205 -7.09355e-17)
(-0.475359 7.45489 2.0306e-17)
(5.26664 3.45734 9.02719e-17)
(-0.585179 7.6509 -1.99749e-17)
(0.463491 0.513523 -8.94178e-17)
(-0.0645006 4.39999 -3.34475e-20)
(0.608401 6.30832 6.79192e-17)
(-0.138538 -0.0927746 1.09618e-16)
(0.543738 0.437671 4.21238e-17)
(-0.00738932 4.35861 1.17281e-17)
(2.87505 4.61893 0)
(1.06048 5.24834 0)
(0.0458736 4.31704 5.72181e-18)
(-0.341299 1.40045 1.21587e-16)
(0.287031 6.12644 -1.30479e-17)
(-0.311731 -0.44896 2.24769e-16)
(1.60182 4.54674 -6.04071e-20)
(0.107321 -0.0281389 0)
(0.968579 5.96671 -1.36663e-16)
(0.101401 4.2653 0)
(-0.256401 5.38592 -6.80738e-17)
(-0.251454 1.77857 -3.71123e-16)
(0.894494 1.93134 -1.03757e-16)
(1.87328 4.42689 3.01533e-17)
(0.176974 4.19716 1.2091e-17)
(0.119213 -1.03438 3.66523e-16)
(-1.11387 0.363855 1.54064e-19)
(2.59975 -0.327747 9.573e-17)
(-0.275635 -0.43645 -2.56156e-16)
(11.1622 1.64048 2.0934e-18)
(-0.506049 3.16256 1.1229e-16)
(-0.523662 3.43962 1.78568e-16)
(-0.574019 3.97994 -2.65019e-20)
(-0.521064 3.69291 0)
(-0.624328 4.25773 -1.01645e-16)
(-0.606652 3.98145 -8.13781e-17)
(-0.556753 3.428 -8.16273e-17)
(-0.556586 4.3787 -1.50557e-16)
(-0.559774 3.52851 2.57153e-16)
(-0.527909 4.28309 6.64005e-17)
(0.716544 -1.96431 0)
(9.70654 0.154286 6.25602e-19)
(0.598635 -1.89791 -9.56177e-17)
(0.39305 -1.31817 2.87081e-16)
(0.0443782 -0.669071 -4.45779e-16)
(0.318814 -0.584829 6.18957e-19)
(0.22401 0.23018 0)
(0.540255 0.139328 -1.02675e-16)
(2.5331 0.951528 4.43302e-17)
(0.551976 0.398052 6.43695e-17)
(0.704011 0.585575 5.9417e-17)
(0.162635 -0.356375 -2.77116e-16)
(1.0061 0.191494 -1.80081e-16)
(-0.295369 -0.557995 0)
(1.06721 0.184047 -9.548e-17)
(0.940432 0.191181 3.0563e-16)
(0.535158 0.0748704 9.13184e-17)
(7.16998 0.0403685 -2.17638e-18)
(0.126907 -0.150741 0)
(0.445607 -0.890567 3.02765e-16)
(0.386277 0.2508 -1.23394e-16)
(0.308828 -0.328473 2.47801e-16)
(7.24426 -0.183293 -2.91003e-17)
(0.94696 0.155672 -2.87164e-16)
(0.36437 -0.714189 -1.7694e-16)
(0.3401 -0.448467 2.84478e-16)
(-0.179677 -1.46826 3.27341e-16)
(7.21367 -0.357669 1.20495e-19)
(0.246678 -0.449802 -2.63686e-16)
(7.40329 -0.447381 -2.49672e-17)
(0.853294 0.110417 -7.63024e-16)
(0.793994 0.0819528 0)
(-0.26649 -1.85574 -1.0657e-18)
(0.799302 -0.185168 0)
(9.41453 -0.190672 3.36095e-17)
(10.1781 0.0945244 9.98348e-17)
(0.0605535 -0.535374 1.47955e-16)
(0.247741 -0.146328 -1.42164e-16)
(0.032702 -0.215669 7.34298e-16)
(0.843909 0.113728 0)
(0.22341 -0.24293 0)
(-0.0769228 0.173508 0)
(9.13791 -0.142949 2.28631e-17)
(0.887234 0.250239 2.52745e-16)
(-0.581175 0.0137025 1.85852e-17)
(0.954797 -0.339007 2.34151e-16)
(-0.315584 -1.46092 0)
(-0.330897 -0.340293 0)
(0.106357 -0.954603 2.33292e-17)
(0.151643 0.00669575 2.10675e-16)
(8.4014 -0.128969 -6.72174e-17)
(0.827827 0.15789 2.38854e-16)
(-0.0515672 -0.691599 1.85392e-16)
(0.165931 0.103732 3.61026e-16)
(1.5557 -0.420967 -2.83213e-16)
(-0.595233 -0.644586 -1.81324e-16)
(-0.24624 -0.559553 1.6121e-16)
(8.18784 0.131562 1.49018e-17)
(0.728977 0.198213 -3.11254e-16)
(-0.689778 1.57688 -4.48661e-16)
(-0.367112 0.333043 1.39759e-16)
(0.0884817 0.400521 -3.97836e-16)
(-0.430408 1.42045 8.57658e-16)
(-0.255553 -0.185821 -1.95698e-16)
(8.44141 0.509453 -3.14748e-17)
(10.0994 0.404413 -8.12066e-17)
(0.00748747 -1.72671 -2.93422e-16)
(0.811006 0.319565 2.46986e-16)
(0.592273 0.259178 2.2837e-16)
(-0.400286 1.46451 0)
(0.150361 0.145535 2.56955e-16)
(0.814397 -0.863975 2.8872e-16)
(-0.261064 0.529508 0)
(-0.103809 -0.565144 0)
(-0.501115 -0.58713 2.01339e-16)
(0.345636 -0.339883 -2.3242e-16)
(-0.474072 0.200832 -7.00335e-17)
(0.134703 0.296226 1.44675e-16)
(-0.498595 -1.32439 1.71341e-16)
(9.73101 0.6364 -2.52643e-17)
(0.802494 2.732 0)
(0.62422 0.479497 -4.22397e-16)
(0.184109 1.89411 -1.77932e-16)
(0.214168 -0.470644 -9.17167e-17)
(0.0592834 0.649731 -9.69987e-17)
(0.501943 -0.300981 -1.16589e-16)
(8.79923 1.05893 5.21729e-17)
(0.0581458 5.75928 -3.64928e-19)
(1.30191 -1.77219 0)
(0.0319458 -0.325589 2.86622e-17)
(1.63323 2.2431 1.22061e-16)
(0.486847 1.31185 -2.46578e-16)
(0.00990161 1.11715 0)
(-0.3131 -0.551706 0)
(-0.481857 4.82063 0)
(-0.101511 -0.233035 3.66383e-16)
(0.339844 0.822734 2.78472e-18)
(0.367807 5.64688 2.51401e-17)
(0.104091 0.762874 6.14055e-17)
(1.84284 -0.959592 2.01583e-16)
(-0.105415 3.65746 1.23118e-16)
(-0.157238 0.249422 -3.28356e-16)
(-0.369293 6.23988 -5.06266e-17)
(0.623956 0.904511 4.66069e-16)
(-0.0928969 2.83187 3.54216e-16)
(0.0433171 0.359868 6.65011e-17)
(1.12145 2.53473 -6.81386e-18)
(0.773062 7.29673 -4.34247e-17)
(-0.148076 3.95834 0)
(-0.555985 5.34015 0)
(1.1138 4.06637 1.90231e-16)
(-0.203711 0.0225974 3.8447e-16)
(-0.391746 7.38406 0)
(0.410732 4.35257 -2.72169e-16)
(-0.0685589 -0.236847 -4.40472e-16)
(-0.465974 0.569238 -6.3006e-16)
(0.539261 -0.190455 1.93156e-17)
(-0.295727 0.493935 -1.35958e-16)
(0.467813 6.48145 3.02492e-18)
(2.59321 7.4928 0)
(-0.56661 5.26573 2.89637e-17)
(9.59923 1.66518 -4.8558e-18)
(4.43449 4.72643 5.55052e-17)
(0.0683704 1.98576 0)
(5.36408 8.23578 0)
(0.0927526 1.58938 7.78746e-17)
(0.943016 1.91912 0)
(-0.0244147 -0.193262 -1.3602e-17)
(-0.394129 1.04134 -8.46711e-17)
(-0.474902 7.38859 1.2401e-16)
(0.133223 3.59584 -2.65686e-17)
(4.0016 7.31164 -3.00431e-17)
(-0.534053 3.35577 -4.96537e-17)
(0.804613 0.663568 -1.205e-16)
(0.106485 1.0214 9.5986e-17)
(1.01127 6.04391 3.79676e-17)
(0.367091 -0.512143 1.57884e-16)
(0.0147206 4.10307 0)
(-0.519111 2.58989 1.04862e-17)
(-0.434216 2.91761 -5.35828e-19)
(0.0644276 3.61919 0)
(2.16663 7.67592 2.22645e-18)
(1.27854 4.73083 1.47585e-16)
(1.61286 5.15786 -1.00574e-16)
(1.97078 5.11509 1.38839e-16)
(-0.02355 6.05253 -1.07426e-20)
(0.132641 6.37352 -1.1553e-16)
(0.698341 1.39219 -6.0152e-16)
(0.147229 1.10423 0)
(0.647477 1.18032 1.11634e-16)
(-0.469597 1.73245 -2.49891e-17)
(-0.537022 4.66728 3.15775e-17)
(0.735963 2.22414 -3.77635e-19)
(1.01101 2.78202 -1.18922e-16)
(-0.335518 5.95278 -2.10417e-20)
(-0.329744 4.1475 0)
(-0.630904 -1.07649 -1.82372e-16)
(0.994405 4.10312 3.54438e-16)
(3.48944 2.90345 0)
(9.13657 0.204436 2.09548e-18)
(1.15774 8.66319 2.72098e-17)
(0.0417961 1.22711 7.03381e-18)
(0.222351 4.84826 3.55578e-17)
(0.397974 1.02518 0)
(1.74865 6.59275 9.47002e-17)
(1.31301 5.95745 -1.84873e-16)
(2.59075 12.584 4.69628e-18)
(2.50858 5.77771 5.01991e-17)
(1.22614 0.22599 -5.47504e-17)
(0.557376 -1.00492 -2.58452e-16)
(0.441673 -0.417039 7.81987e-17)
(0.127433 1.54361 -9.09458e-17)
(0.585201 3.67216 2.32729e-16)
(-0.500803 2.51868 -1.34461e-17)
(0.134366 5.53646 -5.74202e-17)
(-0.280855 7.10493 1.32099e-16)
(11.3851 0.0850225 -9.71852e-18)
(0.311218 0.0565394 -4.73155e-17)
(-0.452332 0.718888 -1.02519e-16)
(0.911366 4.81063 -2.0024e-17)
(2.12417 1.6738 -1.22013e-17)
(1.73885 2.682 -2.30448e-16)
(0.104662 0.859867 -9.62271e-17)
(0.57597 4.25173 1.33227e-16)
(0.0705791 1.91337 8.24082e-17)
(0.911396 6.71642 -6.61351e-17)
(-0.384159 4.84665 -1.4586e-16)
(0.253573 0.973921 0)
(2.45427 6.70414 -4.96488e-17)
(0.613375 0.814268 0)
(-0.00225468 2.05885 9.6812e-17)
(0.447284 1.75279 0)
(0.22875 0.0235576 5.27757e-16)
(-0.508873 3.19457 -1.48981e-16)
(0.18849 3.56322 3.22127e-17)
(1.50899 5.78489 7.57944e-17)
(4.63374 -0.00411129 -5.87812e-17)
(0.783137 0.599714 1.45921e-16)
(0.0400491 4.31286 -1.59429e-16)
(1.23363 1.79479 7.53851e-17)
(-0.162303 6.86449 -1.32458e-16)
(4.97951 4.17971 -1.76098e-16)
(0.706448 0.313208 6.57279e-17)
(0.296621 4.69873 0)
(-0.298954 4.567 -2.99311e-17)
(0.0742819 1.66803 6.64349e-17)
(1.27013 6.34982 -1.85045e-17)
(1.11031 5.51272 1.10182e-16)
(-0.119377 -0.616841 1.54039e-16)
(1.91705 3.58463 1.6483e-17)
(-0.438748 0.928453 1.08976e-16)
(-0.680942 6.88372 -4.66895e-18)
(0.0968279 4.2221 1.28369e-16)
(1.94163 5.86407 -8.87248e-17)
(0.240146 -1.20446 6.19605e-17)
(1.17201 5.75008 -6.48908e-17)
(0.210037 5.7906 -1.47425e-16)
(1.33409 7.20126 -4.41496e-17)
(-0.172764 0.253414 0)
(9.54965 0.691062 -1.27771e-16)
(7.81002 2.56337 8.85606e-18)
(-0.281796 4.9096 9.48676e-17)
(-0.0727323 1.32397 4.873e-16)
(0.0778995 2.49598 2.82418e-17)
(-0.266717 0.680106 0)
(2.37332 0.139523 -1.5593e-16)
(-1.20818 0.976429 5.90953e-17)
(-0.321275 -0.0858752 -2.55806e-16)
(0.573574 2.31161 3.4911e-19)
(0.0251809 -0.702979 -1.64874e-17)
(0.265377 4.12596 4.35933e-17)
(1.8453 1.13089 -7.55921e-18)
(9.60869 0.479452 0)
(-0.50544 4.24582 0)
(-0.466105 0.831983 -5.32527e-17)
(0.0473988 -0.720624 2.35079e-16)
(10.2013 0.546472 0)
(0.0110746 -0.0698914 4.78938e-19)
(1.28146 6.05909 -2.5739e-16)
(1.08688 1.08798 0)
(1.28526 1.48911 0)
(1.15894 1.58157 -1.36959e-16)
(1.70624 3.83158 1.79587e-17)
(9.01663 0.417561 0)
(0.350835 -0.204255 2.12621e-16)
(1.42929 -0.636039 -1.33401e-16)
(-0.441942 1.80826 0)
(0.171682 4.50449 0)
(-0.194564 -1.61208 1.65011e-16)
(0.452574 0.254791 -8.34546e-18)
(0.0348693 1.31416 1.39401e-16)
(-0.228761 2.8757 -2.44514e-16)
(-0.184768 6.23792 4.88544e-17)
(0.128263 0.204396 0)
(-0.322405 0.116178 0)
(-0.673484 4.69457 -1.09108e-16)
(3.26839 0.474183 -2.65162e-18)
(1.40019 3.38265 -1.87355e-16)
(-0.470243 0.0782877 1.96796e-17)
(4.08944 6.23704 -3.03335e-18)
(1.91439 0.4009 0)
(1.36673 5.09167 0)
(0.00470979 3.61628 -5.82555e-18)
(-0.125708 0.159705 0)
(-0.154282 4.27071 0)
(11.0613 0.627735 -1.31859e-18)
(0.156118 4.40381 -2.52938e-16)
(2.55578 0.438534 0)
(1.34875 2.81819 -3.33789e-18)
(0.300697 6.05255 2.21725e-17)
(0.0797399 5.50626 6.74541e-17)
(1.06045 1.64304 -1.97715e-16)
(0.683432 6.22974 -3.48118e-18)
(-0.31095 6.54043 2.81648e-17)
(-0.66309 -0.185492 4.60704e-20)
(-0.468513 5.99677 -2.779e-16)
(-0.362686 1.19362 -5.07081e-19)
(-0.187123 2.27248 2.11709e-16)
(1.01077 0.515348 -2.90491e-16)
(-0.0110734 5.89772 1.4212e-16)
(-0.564091 6.03169 0)
(0.0404092 6.45556 1.81651e-18)
(10.3253 0.241108 -7.16053e-18)
(0.00788686 2.98147 0)
(-0.0968678 0.0773715 6.3686e-16)
(1.45487 0.663114 1.65062e-17)
(-0.101855 2.76967 0)
(-0.226172 1.26901 3.24181e-16)
(1.96514 7.84622 0)
(1.73903 8.68873 2.60061e-17)
(0.292192 -0.177094 0)
(3.55142 1.56798 1.50786e-17)
(-0.233859 1.06083 -2.4348e-16)
(0.838484 0.494825 -1.14291e-16)
(0.792331 0.60038 -2.16147e-17)
(-0.437704 2.37729 2.02258e-16)
(-0.122774 6.21814 -4.53604e-17)
(4.01849 0.510894 9.29074e-18)
(8.57534 0.354402 0)
(0.55895 -0.0940014 -2.22857e-17)
(0.0448414 4.91244 0)
(0.175821 5.84857 0)
(0.955475 0.731875 -1.3611e-16)
(1.52469 5.14001 0)
(-0.471992 2.38295 0)
(0.869284 5.82695 -2.97982e-17)
(1.79912 -0.0541421 0)
(0.121354 -1.44746 1.74011e-16)
(0.234174 5.63332 5.2251e-17)
(0.78193 0.0917424 2.57441e-16)
(0.142249 0.871343 1.37061e-16)
(0.969254 1.36624 1.68655e-17)
(0.730677 0.575963 -6.22509e-17)
(0.831411 0.0995834 -4.44796e-16)
(12.5832 2.72718 0)
(0.341244 5.75189 0)
(-0.318332 7.25729 -1.32633e-16)
(0.299107 0.635356 -3.50651e-19)
(0.466616 6.25233 1.0391e-17)
(1.04343 0.948617 2.21986e-17)
(9.50624 2.18118 2.99326e-18)
(2.15242 1.22485 4.85535e-17)
(-0.622415 2.10815 -7.2845e-17)
(0.975193 0.153767 4.26442e-16)
(-0.391312 0.364812 -3.12269e-16)
(-0.0719319 5.59534 0)
(0.898074 0.139166 4.90472e-16)
(0.881403 0.178804 -2.5891e-16)
(0.14705 4.93061 -2.31236e-17)
(0.855677 0.728654 -1.75322e-17)
(-0.232426 0.905938 -3.65503e-16)
(-0.000212924 5.67096 -5.56196e-18)
(0.46492 6.07435 1.5017e-16)
(-0.160954 6.2856 7.35975e-17)
(-0.203668 6.81043 0)
(0.929547 2.7341 7.93448e-17)
(-0.59573 0.0232901 7.36705e-17)
(0.130861 1.53973 0)
(-0.140463 5.82685 -1.19237e-16)
(0.0286289 1.63332 -5.7675e-16)
(1.40381 4.57922 0)
(0.0977962 0.0207648 -1.92233e-16)
(0.0596598 3.02733 0)
(-0.0286313 -0.416634 -3.34462e-19)
(0.854901 0.307369 -3.86523e-18)
(9.41995 2.54779 1.61414e-18)
(1.47977 5.8417 0)
(0.943624 3.28432 1.50183e-16)
(0.0901467 5.98112 -1.00235e-16)
(1.07535 3.32028 0)
(0.767472 -0.489 -1.20706e-16)
(-0.590029 1.23464 -1.32961e-16)
(0.0233035 5.7294 -9.64832e-17)
(-0.203317 5.37595 8.58236e-17)
(0.0842336 5.53648 2.17151e-16)
(-0.559502 0.0464306 -4.01671e-17)
(0.858234 -0.0766272 0)
(0.0885081 5.6634 0)
(0.76705 -0.270133 3.54433e-17)
(-0.0969723 2.40315 1.25324e-16)
(0.0405585 5.85428 -3.52394e-17)
(0.544289 -0.0210756 1.25834e-16)
(0.182894 0.739327 -2.44912e-16)
(-0.465834 2.65902 0)
(-0.498769 2.56618 7.8663e-17)
(9.89521 8.00405 -1.28471e-18)
(0.126701 5.43659 2.93153e-17)
(0.354565 6.30946 -1.12795e-17)
(0.0914026 1.58341 -8.37998e-17)
(1.29804 6.12085 1.48838e-16)
(4.52238 2.15239 2.32829e-18)
(-0.182781 0.0706837 -1.68722e-16)
(1.20616 2.04104 0)
(10.3734 0.665322 2.26599e-18)
(-0.61176 7.01667 4.51644e-17)
(7.02177 0.310359 1.10444e-18)
(-0.489342 1.66537 -9.49214e-17)
(-0.259565 -1.4639 -1.51156e-16)
(-0.681292 5.18132 -2.00753e-16)
(0.0936102 5.85722 6.99218e-19)
(0.843539 0.00804311 4.18106e-16)
(1.14613 4.9119 -1.21388e-16)
(0.264266 2.87677 -2.88557e-16)
(-0.412349 3.96148 2.82904e-19)
(1.34887 0.359986 1.44068e-17)
(0.0604176 4.8488 -5.34123e-17)
(-0.517251 7.51226 2.37368e-17)
(0.208519 6.51832 -2.15007e-18)
(-1.43067 -0.820531 0)
(0.660345 0.108964 0)
(-0.610902 4.73025 -5.6211e-17)
(4.8326 0.53974 2.03579e-18)
(8.18088 0.235586 -1.40126e-17)
(0.078133 5.85408 1.42153e-16)
(1.52449 3.30755 -2.42174e-17)
(2.35501 -0.206932 6.27829e-17)
(3.93808 0.386066 9.30768e-18)
(-0.649084 4.79952 4.08465e-17)
(-0.0532555 3.58196 -9.14535e-17)
(0.860065 1.17094 4.41423e-16)
(-0.0319465 2.86858 -8.62152e-17)
(0.21939 -0.0470213 0)
(0.249463 -0.0708077 -1.36652e-16)
(0.0734001 3.93965 -1.0157e-16)
(0.448554 3.75993 0)
(8.11609 1.60595 -7.88389e-18)
(0.0869776 -0.0153577 1.17051e-16)
(4.78423 0.146673 0)
(0.189478 1.50865 0)
(6.21226 3.89892 -2.33953e-17)
(-0.251738 6.73833 1.46594e-17)
(0.310963 6.57037 -6.00166e-18)
(0.0548326 1.36715 0)
(0.548077 1.25544 7.52868e-17)
(1.73008 -0.185834 7.19184e-16)
(0.415737 -0.142701 -6.81947e-16)
(0.27972 0.296134 -5.34707e-17)
(1.93071 2.39383 6.67891e-17)
(0.394204 -0.740569 2.42484e-16)
(0.189336 -0.143692 0)
(0.766636 1.67899 -7.01749e-17)
(1.50731 3.99194 -1.46071e-18)
(1.45324 4.51809 6.95689e-17)
(1.0754 2.69464 -2.50069e-17)
(-0.361761 2.32728 0)
(0.122754 5.83463 6.96738e-17)
(-0.429143 2.22644 6.76867e-17)
(0.858493 0.129231 0)
(10.1038 0.574747 1.14317e-16)
(0.219069 5.5676 0)
(-0.476417 3.80083 0)
(3.68976 5.47356 -2.53798e-18)
(-0.231942 6.12462 1.44139e-16)
(0.248899 4.8466 1.35586e-16)
(2.98365 0.0254125 -2.0429e-16)
(0.789599 -1.03229 2.22365e-16)
(0.6056 0.158518 2.7619e-16)
(-0.179024 4.5392 0)
(0.239452 6.14926 -6.31901e-21)
(0.0148856 4.1503 -1.76788e-16)
(6.76883 -0.549685 -6.33289e-17)
(1.16102 -0.0364393 6.03584e-17)
(-0.0925142 5.92008 2.66821e-16)
(-0.56931 0.457062 -1.11573e-16)
(2.43073 2.76083 1.31763e-17)
(5.46055 -0.573039 3.86791e-17)
(2.56166 0.0326182 -6.09497e-17)
(0.139756 9.07047 8.33142e-17)
(0.0768909 4.43147 3.68782e-19)
(0.0726595 4.36992 9.62565e-17)
(0.0104366 4.2375 8.74433e-19)
(0.0450768 4.29188 0)
(0.118226 9.84749 -7.37252e-17)
(0.0748467 4.42683 -1.8353e-16)
(0.0124469 4.7766 -8.37054e-19)
(0.0130133 4.86674 -2.25783e-17)
(-0.00366553 4.74972 0)
(0.0495424 4.91129 4.75095e-17)
(0.162737 8.48083 0)
(0.221297 10.6165 0)
(0.0595235 5.12012 -6.28358e-17)
(0.304001 7.29514 -4.22179e-18)
(0.23556 7.91674 -3.92988e-18)
(0.0545354 5.24098 2.00064e-17)
(0.0593872 4.35596 9.59518e-17)
(0.0442898 4.32669 0)
(0.0261973 5.2613 -2.77147e-17)
(0.0433465 4.33263 0)
(0.0487849 4.39484 0)
(-0.0119644 5.22024 2.06374e-17)
(0.0557188 4.47543 0)
(-0.425501 1.90677 7.2572e-17)
(5.254 5.65806 -4.85517e-17)
(0.276714 -0.309796 2.92321e-16)
(-0.508102 0.0598959 0)
(1.28547 5.691 -1.01484e-16)
(-1.3218 -0.134047 9.99823e-17)
(-0.320923 0.552958 5.34915e-16)
(6.80198 1.3961 -1.59795e-17)
(-0.257803 6.53652 -1.86555e-17)
(0.682459 7.03283 0)
(-0.998324 0.159681 5.04551e-16)
(1.58003 0.175385 2.78694e-16)
(1.03404 0.654109 0)
(4.7222 -0.352047 3.00019e-17)
(0.413229 -0.630764 -2.57173e-16)
(0.064345 -0.210629 -1.92068e-16)
(6.0525 4.764 8.15018e-17)
(1.65575 4.17149 -4.6852e-17)
(-0.47857 2.48384 6.9009e-17)
(1.11081 0.950075 -5.0007e-17)
(-0.297102 -0.0243116 -1.14137e-16)
(6.88781 0.678273 -2.75198e-19)
(-2.22693 0.789929 -2.6174e-16)
(0.0566799 4.57141 0)
(0.898266 5.46589 2.71945e-16)
(1.2574 3.62724 5.10848e-20)
(1.13777 -0.0438216 6.99771e-17)
(0.36425 0.302053 0)
(10.4677 -0.115758 2.67257e-17)
(0.019747 2.16521 -1.39792e-16)
(1.87736 0.0564332 3.76804e-18)
(-0.338475 1.76536 1.10732e-16)
(-0.335889 7.28231 0)
(0.0919719 2.02132 7.892e-18)
(0.0186339 2.31104 -5.59167e-17)
(8.6665 3.80451 2.03475e-17)
(0.382554 -0.511726 3.09068e-16)
(0.602841 0.0386311 -3.2203e-16)
(-1.16379 -0.984005 1.82705e-16)
(0.725054 -0.351757 -7.1051e-17)
(0.121279 3.0608 2.84161e-17)
(-0.106337 5.13671 -4.19725e-21)
(0.160471 5.6006 -1.90089e-17)
(-0.599326 0.145999 0)
(0.840707 3.05429 2.72942e-19)
(0.153832 0.286728 6.27488e-17)
(1.88276 0.273943 1.13073e-16)
(0.69564 -0.497664 0)
(0.152986 0.359514 -3.92903e-16)
(0.0997353 0.72925 0)
(10.3432 0.468205 2.0585e-18)
(-0.216341 3.36243 0)
(0.761237 3.4145 -5.31586e-17)
(-0.0585844 1.8603 1.47685e-16)
(-0.317294 -1.68855 2.56162e-16)
(1.82466 -0.193398 0)
(0.615705 0.187283 -3.51301e-17)
(0.053567 4.59753 3.90383e-19)
(0.436337 -0.727017 0)
(-0.622893 -0.0150331 0)
(0.605418 3.16463 -1.71985e-16)
(-0.161134 5.46404 -1.06017e-17)
(7.69433 0.0341652 0)