/*--------------------------------*- C++ -*----------------------------------*\
| =========                 |                                                 |
| \\      /  F ield         | OpenFOAM: The Open Source CFD Toolbox           |
|  \\    /   O peration     | Version:  v1912                                 |
|   \\  /    A nd           | Website:  www.openfoam.com                      |
|    \\/     M anipulation  |                                                 |
\*---------------------------------------------------------------------------*/
FoamFile
{
    version     2.0;
    format      ascii;
    class       volScalarField;
    location    "0.88";
    object      nut;
}
// * * * * * * * * * * * * * * * * * * * * * * * * * * * * * * * * * * * * * //

dimensions      [0 2 -1 0 0 0 0];


internalField   nonuniform List<scalar> 
1431
(
0.00495819
0.0161508
0.000702196
0.000721029
0.00128418
0.00769622
0.00171808
0.0101128
0.00685852
0.0012739
0.00366846
0.013589
0.0130113
0.00212275
0.001651
0.0016897
0.00183371
0.00105523
0.00175976
0.00145815
0.00484048
0.00496567
0.00548138
0.0155764
0.00574384
0.00923611
0.00326095
0.00154557
0.000906192
0.000742864
0.00211447
0.0026231
0.00200237
0.00120992
0.0118744
0.00404828
0.0124904
0.000909833
0.000819533
0.00234914
0.00632597
0.00872663
0.01119
0.00137591
0.00353704
0.00150935
0.00310551
0.00307934
0.00189743
0.00093587
0.0138884
0.00155221
0.0139989
0.0126655
0.012844
0.00767835
0.000799682
0.0141392
0.00168125
0.00119976
0.00146794
0.000375384
0.000374033
0.000424138
0.000228423
0.00026183
0.000961709
0.000464131
0.000652132
0.00115596
0.00371421
0.00111923
0.000283885
0.000828888
0.00139521
0.000784632
0.00070071
0.000524058
0.000437415
0.000961485
0.00160316
0.000714805
0.0135183
0.00367548
0.00687516
0.00120305
0.00046054
0.0028678
0.0107448
0.0136935
0.00148583
0.00126134
0.0020444
0.0016764
0.0109331
0.000702685
0.012514
0.0227478
0.00122826
0.0012643
0.0105049
0.000878254
0.00244581
0.00110089
0.000862366
0.00255289
0.00310484
0.00301224
0.00428345
0.00211052
0.00118718
0.0139937
0.00343449
0.00516824
0.0150958
0.00104696
0.0013129
0.000351942
0.000329624
0.000330954
0.00120809
0.00165749
0.00251417
0.00116725
0.00259249
0.000360243
0.0006894
0.00241972
0.000869714
0.00301546
0.00121988
0.00101014
0.00323482
0.00139166
0.00168695
0.00108452
0.00177528
0.00134119
0.0144944
0.000436216
0.000440159
0.00204195
0.00140291
0.000610982
0.00544017
0.00189402
0.000421557
0.0125229
0.00137032
0.000928624
0.000939517
0.000830314
0.00249649
0.000373603
0.00349661
0.00260442
0.0105863
0.020174
0.0142051
0.000940723
0.0202983
0.0140154
0.000711012
0.000664667
0.00275817
0.0046646
0.00430691
0.0128893
0.00108174
0.0206357
0.0191211
0.0140451
0.00226275
0.0143937
0.0183552
0.0099323
0.00176355
0.00543704
0.014234
0.0129289
0.000299756
0.00171557
0.0123837
0.0181478
0.00579146
0.00133792
0.00149695
0.0204153
0.00255694
0.00769645
0.00239149
0.00260968
0.00272734
0.00329606
0.000316163
0.0208036
0.0233138
0.0116157
0.000677033
0.00187953
0.0143882
0.000771483
0.00362724
0.000676391
0.0139619
0.00252296
0.00251179
0.000549034
0.0154783
0.00285522
0.0020862
0.000532332
0.00310244
0.00256268
0.0127471
0.00143834
0.00290878
0.0119574
0.0129899
0.00346273
0.0033061
0.0119695
0.00240501
0.000709196
0.00363529
0.0169099
0.00392696
0.0217731
0.00288519
0.00272662
0.006364
0.00211286
0.00257288
0.00262874
0.00276197
0.0208206
0.00310625
0.00281717
0.00229336
0.0110524
0.00213402
0.0160686
0.0161736
0.00268876
0.00262371
0.00361984
0.00283191
0.00344702
0.00349046
0.00147575
0.00223917
0.0151232
0.000966601
0.00157118
0.00247967
0.00846416
0.0010492
0.0175109
0.0230801
0.00279029
0.00167089
0.0141058
0.0127513
0.00102743
0.00386527
0.00402635
0.0108574
0.0039479
0.00303004
0.00055463
0.00453416
0.00307961
0.0139581
0.00794452
0.018873
0.00208513
0.0177526
0.00288949
0.00105547
0.00154426
0.0147447
0.0130065
0.0018916
0.0121311
0.00806695
0.020833
0.00826957
0.0233205
0.00596912
0.0165351
0.00046194
0.00937862
0.0227074
0.014157
0.0024541
0.00263511
0.00178825
0.0015003
0.00203444
0.00110069
0.0137413
0.00092394
0.0117312
0.0131234
0.00282034
0.00117081
0.0185156
0.00261635
0.00984135
0.0191792
0.0195257
0.000561483
0.000289614
0.00127652
0.00816657
0.0229107
0.0118897
0.0105203
0.00101064
0.0127542
0.0181885
0.0220923
0.000897283
0.0120672
0.00946414
0.00050766
0.000892642
0.00760812
0.0122306
0.00142495
0.00121637
0.00117582
0.00769703
0.00551222
0.00132738
0.0128253
0.00817332
0.0211917
0.00872192
0.00129839
0.000739963
0.0124573
0.0150495
0.00582382
0.00726435
0.00246435
0.0146809
0.0169957
0.0178423
0.0139805
0.00634275
0.000943178
0.0122589
0.0180052
0.00120419
0.010613
0.00855411
0.00188525
0.012924
0.00738313
0.00526139
0.00133948
0.00114682
0.00921025
0.00112454
0.00541925
0.00644936
0.0174847
0.00268311
0.00207039
0.00350869
0.00168958
0.0121353
0.0154921
0.00617544
0.0185256
0.0191385
0.00524251
0.00949551
0.0184797
0.014496
0.00755597
0.0059486
0.00125829
0.016219
0.00777615
0.0146606
0.00684641
0.00945184
0.0153372
0.00381803
0.0144932
0.0144387
0.00130044
0.0225028
0.0131712
0.0136244
0.0133893
0.00608836
0.00901736
0.0175465
0.00635314
0.0233046
0.00856287
0.0069917
0.013157
0.00718292
0.000854669
0.005548
0.0133868
0.0191557
0.010848
0.0136363
0.0124187
0.00679441
0.000902464
0.0158593
0.000932924
0.00921979
0.0138857
0.0038097
0.0130502
0.0125764
0.016871
0.0141542
0.00167396
0.00146461
0.00302314
0.00287495
0.0146812
0.0139842
0.0139478
0.0140174
0.0139808
0.0141156
0.0141169
0.0141795
0.0139861
0.0142898
0.0142033
0.0014812
0.0149903
0.00116959
0.000941007
0.000978519
0.000937894
0.00104749
0.00100541
0.00400517
0.00446741
0.00393371
0.000920211
0.00197526
0.00134914
0.00197754
0.00194013
0.00533614
0.016916
0.00138426
0.0012387
0.00493899
0.000691891
0.016333
0.00181642
0.00155248
0.000778826
0.0012787
0.0157726
0.000883417
0.0151285
0.00160482
0.00156803
0.00110315
0.00568476
0.0146681
0.0147125
0.0010548
0.00167758
0.00111819
0.00172935
0.00574326
0.00110737
0.0147963
0.00387176
0.00120217
0.00534474
0.00121201
0.00114349
0.000921171
0.00400153
0.0145803
0.00271952
0.000936832
0.00559085
0.00412512
0.00137012
0.0012957
0.0140151
0.00422994
0.00213154
0.00748771
0.00686585
0.00174745
0.000938298
0.0137369
0.0152115
0.00131818
0.00626594
0.00547002
0.00164524
0.00569572
0.00414766
0.0011669
0.00178573
0.000837982
0.00172213
0.00768887
0.00695704
0.00437196
0.0149225
0.00363691
0.00733176
0.00293329
0.00138003
0.00862644
0.00145644
0.0129815
0.0023184
0.00150394
0.000783899
0.0159093
0.0105944
0.010839
0.00516609
0.0137192
0.00465029
0.00564456
0.00170789
0.00944461
0.00162804
0.0141525
0.00130992
0.00549316
0.00961505
0.00359344
0.00534968
0.014365
0.00155184
0.0138861
0.0132195
0.0147561
0.00104454
0.00645564
0.0139301
0.00107151
0.00333339
0.00132663
0.00767549
0.00160371
0.00559161
0.0133348
0.0135172
0.0210572
0.0121988
0.00819317
0.00791996
0.0102036
0.00067492
0.011495
0.00880831
0.0147966
0.0111483
0.014458
0.0084891
0.00115692
0.00954508
0.00166234
0.00170679
0.0141143
0.0138101
0.0146398
0.00869664
0.00399547
0.0147688
0.0160323
0.00331539
0.00256234
0.0112314
0.00133597
0.00258198
0.0132777
0.00174033
0.0133139
0.0145736
0.0037348
0.0139255
0.00430536
0.0145441
0.0218679
0.0148835
0.00165972
0.0112938
0.012974
0.00892695
0.0114209
0.00695831
0.00169616
0.0160134
0.00221492
0.00099987
0.00157936
0.0100214
0.0143369
0.0142421
0.00478945
0.00787219
0.00506979
0.00101589
0.0105357
0.0131665
0.0172668
0.0168158
0.00107411
0.0138936
0.0124887
0.00640482
0.0134641
0.00183917
0.0132464
0.0089153
0.0134377
0.0119133
0.00024393
0.0145941
0.0148976
0.0128408
0.0112274
0.00639804
0.00424689
0.0135724
0.00580049
0.0223329
0.00245073
0.0132894
0.00176894
0.012036
0.0101709
0.00961747
0.00422882
0.0176427
0.0112914
0.01101
0.00153765
0.0142375
0.00132628
0.00798888
0.00634855
0.00704542
0.00788961
0.016055
0.02184
0.013073
0.0113848
0.0140691
0.00811431
0.00378059
0.00206514
0.00608684
0.0132375
0.0009066
0.0144361
0.0147253
0.00172862
0.014408
0.0110507
0.00302801
0.00175382
0.00587456
0.0044215
0.0104328
0.0129314
0.0104039
0.016937
0.00172317
0.000511233
0.000917371
0.0134827
0.00472891
0.00155095
0.00101842
0.00452294
0.00276428
0.00532494
0.000888185
0.000573584
0.0137493
0.00156014
0.00401677
0.000410939
0.0155313
0.00132718
0.0138744
0.0144649
0.000741976
0.00183885
0.00181782
0.0014279
0.00144035
0.0155774
0.00974632
0.00575656
0.00662404
0.00263732
0.00348204
0.00123037
0.00517469
0.0118115
0.00309635
0.00472287
0.00473889
0.00575223
0.00253952
0.0145251
0.0145981
0.00249918
0.00939148
0.00323324
0.0114835
0.00313832
0.00400527
0.00121566
0.0188242
0.0111394
0.00440198
0.0058365
0.00294608
0.00535007
0.00169499
0.00170394
0.00122437
0.000807812
0.00667086
0.00727452
0.00429407
0.0135844
0.00678911
0.00485009
0.00126548
0.00469591
0.00147581
0.00966087
0.0115117
0.00887551
0.00156426
0.0159801
0.00464317
0.00717777
0.000925962
0.00690008
0.00107543
0.0178005
0.00568584
0.00335653
0.00179531
0.00125851
0.00312163
0.00174534
0.00186136
0.0126503
0.00844534
0.00962214
0.00256457
0.00416662
0.00563411
0.00636559
0.014371
0.000247989
0.00741711
0.0109955
0.00232679
0.0150749
0.00160886
0.014748
0.00104468
0.00113956
0.014575
0.00580366
0.014823
0.00239212
0.0151542
0.00524703
0.00139807
0.00264688
0.0120854
0.00261667
0.000301197
0.00135718
0.0023914
0.00149476
0.0139983
0.00246257
0.00572288
0.00154753
0.0136606
0.013875
0.0107059
0.00268804
0.00804242
0.00760296
0.00555023
0.0160355
0.00103356
0.013876
0.0119304
0.0107862
0.017501
0.0130156
0.00159321
0.0133551
0.00524801
0.000934552
0.00403904
0.0146263
0.0141925
0.00123563
0.000819768
0.00866847
0.00203541
0.0016951
0.0027816
0.0136279
0.00181102
0.00163387
0.00242558
0.0164761
0.0132531
0.00270126
0.0137661
0.0143178
0.0104981
0.01443
0.00414761
0.00275296
0.00255075
0.0144693
0.0200777
0.0026679
0.0170886
0.0072125
0.0217715
0.00295733
0.0020509
0.0116184
0.00934778
0.000948197
0.000495635
0.00474915
0.00504903
0.000851791
0.000962621
0.00980141
0.0162168
0.00577872
0.014509
0.0141259
0.0103033
0.0140805
0.00138026
0.0160657
0.0110762
0.0145488
0.00957463
0.010915
0.00121927
0.00362291
0.00141726
0.00167586
0.00208816
0.00954324
0.0035853
0.0143925
0.00121781
0.00418129
0.00446907
0.0108089
0.0152363
0.00757373
0.000795625
0.000900884
0.000862732
0.000747285
0.000795691
0.000912635
0.000890099
0.000619508
0.000745227
0.000664578
0.000670775
0.00068743
0.000997604
0.000754476
0.000653101
0.000649594
0.00079053
0.000840595
0.000794391
0.000783162
0.000757689
0.000762994
0.000752951
0.000787967
0.0136657
0.0173802
0.000749555
0.00754589
0.00663389
0.0044771
0.00247666
0.00925626
0.00244529
0.00208879
0.00357276
0.00170627
0.00735623
0.0164255
0.00450664
0.00130955
0.0194877
0.00438529
0.0143046
0.00354091
0.00053396
0.0180788
0.00110732
0.000797185
0.0113025
0.0156382
0.00170544
0.00543186
0.0115394
0.0016622
0.00437628
0.0133021
0.00669685
0.0120573
0.0138072
0.0130145
0.000929396
0.00117342
0.00168501
0.00131809
0.0148585
0.0010032
0.000748
0.00846193
0.0145496
0.00718113
0.00435542
0.00142207
0.00620808
0.000918919
0.0111894
0.0142291
0.0145832
0.00207876
0.00114046
0.00505013
0.00158806
0.000729797
0.00199886
0.000171452
0.0141726
0.00254156
0.00145225
0.000942692
0.00317318
0.0010781
0.0126984
0.00180415
0.0142514
0.0123564
0.00283876
0.00224922
0.0113544
0.0119226
0.0212516
0.00180401
0.00241374
0.00118626
0.00193168
0.000945019
0.0146924
0.00258708
0.00588739
0.0137252
0.000764207
0.0120905
0.00127227
0.00233838
0.00477636
0.00362863
0.00247438
0.00262981
0.00382801
0.00338949
0.0132213
0.00108959
0.0106628
0.0013492
0.00108999
0.00411406
0.00266296
0.00199574
0.000875985
0.0132442
0.0167806
0.0149422
0.000935084
0.0141493
0.015216
0.00860938
0.00620446
0.00138563
0.000809709
0.000708467
0.000692248
0.0121356
0.01492
0.000747735
0.00679548
0.0020894
0.0201807
0.0131425
0.0025848
0.00320082
0.00285824
0.0131737
0.00189699
0.00708941
0.0109228
0.015041
0.000156994
0.00409352
0.000154372
0.00961295
0.0141512
0.00214177
0.012671
0.0124568
0.016392
0.00938939
0.00435923
0.0118843
0.000774839
0.00313566
0.00035559
0.00126885
0.000759421
0.0139056
0.0124068
0.00842694
0.012096
0.0122778
0.0197367
0.000579322
0.000870024
0.0145411
0.00202971
0.0106918
0.0022915
0.0135506
0.0142679
0.00199188
0.000770181
0.0018718
0.00175515
0.00170916
0.00227354
0.00200886
0.00191232
0.0018502
0.00192818
0.000213394
0.000161844
0.000156928
0.000189394
0.000138736
0.00016454
0.0141844
0.00279114
0.0133561
0.00271509
0.00967526
0.000737877
0.0014072
0.0126785
0.00101301
0.00201131
0.0143918
0.00202828
0.00306451
0.00712785
0.000192399
0.00217216
0.00164735
0.0111738
0.0135176
0.00327082
0.0106953
0.00283881
0.00490418
0.015577
0.0145974
0.00320512
0.00133376
0.00328571
0.0163499
0.00428566
0.0129719
0.00766518
0.00279032
0.00948813
0.000718811
0.00225678
0.00141614
0.000665139
0.00457375
0.00139857
0.000909502
0.00369058
0.00129562
0.000836048
0.0176665
0.0114324
0.00286722
0.00407634
0.012386
0.00313683
0.00103077
0.00640475
0.0109884
0.00677601
0.00833659
0.00319592
0.00147003
0.00441903
0.00777197
0.000374791
0.0127812
0.00368563
0.0035788
0.0119449
0.000692978
0.00271389
0.00215632
0.00183222
0.0106655
0.00685036
0.014932
0.0077351
0.00192518
0.00983927
0.0199423
0.00241207
0.0153897
0.00166482
0.000652399
0.00112186
0.00108846
0.00269943
0.00110835
0.0147658
0.0143479
0.00394889
0.00603261
0.0144249
0.00405732
0.012632
0.00314234
0.00391261
0.00536343
0.00295672
0.0116507
0.000788119
0.0038045
0.00613706
0.00560953
0.0125344
0.00142615
0.000874988
0.00144718
0.00284634
0.0100462
0.0140721
0.00536627
0.0113051
0.0079195
0.00181029
0.0168639
0.00134368
0.00420775
0.00513129
0.00238403
0.00135242
0.0111155
0.00170153
0.00123772
0.00303908
0.0115201
0.00259105
0.0141136
0.00850974
0.00518518
0.0017178
0.000987936
0.000216378
0.01279
0.0032482
0.0126123
0.00883804
0.0128358
0.013944
0.0146516
0.00191043
0.00114318
0.00180078
0.00140196
0.0101045
0.00195365
0.0141158
0.0182221
0.00241996
0.00447603
0.0145265
0.0124701
0.0133696
0.00121925
0.00954085
0.00469279
0.00220052
0.00711906
0.00444847
0.00492659
0.00581805
0.00183133
0.015552
0.00361228
0.00157537
0.0113433
0.00660549
0.00973208
0.00499231
0.00752207
0.0104871
0.0114263
0.0136869
0.00408891
0.0014574
0.00395194
0.00390558
0.00164759
0.0144231
0.00884394
0.0132556
0.0139704
0.000663226
0.00113993
0.00238583
0.0134512
0.00180297
0.00193913
0.0111618
0.0138118
0.0121857
0.00216818
0.0142916
0.0114921
0.0149206
0.0054818
0.00349347
0.000742613
0.000664175
0.00155115
0.00262818
0.00230019
0.00254793
0.00341521
0.0158947
0.0143421
0.00106668
0.0051661
0.012797
0.0033757
0.00241202
0.00292921
0.00159123
0.0138135
0.00679745
0.00102629
0.000626925
0.0177956
0.00928781
0.0123381
0.000818667
0.00156749
0.00409779
0.00583425
0.0104914
0.00112683
0.00128093
0.0020371
0.0170359
0.000158935
0.00814075
0.0140793
0.0052676
0.00387498
0.00613934
0.0114169
0.0131177
0.00194753
0.00317291
0.000885186
0.00832634
0.00169601
0.00156614
0.0117005
0.000407722
0.0103871
0.00110714
0.0121013
0.00090557
0.000876305
0.000152478
0.00735192
0.00170982
0.00289258
0.00153386
0.0130826
0.00194477
0.00155146
0.00473385
0.0119779
0.00232673
0.0024727
0.00198708
0.00178515
0.00180971
0.0109507
0.0171464
0.00142647
0.0098388
0.00192718
0.00093725
0.00168882
0.00247748
0.00259108
0.00944365
0.00161292
0.00191355
0.00208938
0.00251091
0.0129769
0.00245735
0.000345475
0.00263493
0.00238871
0.001756
0.0014462
0.00955674
0.00417876
0.00119951
0.00204845
0.00230892
0.00312432
0.000348548
0.000270778
0.0119759
0.0100323
0.00229361
0.00435901
0.00125537
0.000934065
0.000952382
0.00305788
0.000713548
0.000732718
0.00110982
0.00109827
0.000937675
0.00160816
0.017838
0.00238999
0.00210436
0.014299
0.00332353
0.0115891
0.0128563
0.00173224
0.00268296
0.00125219
0.00118567
0.0049387
0.000779948
0.00355308
0.000734257
0.00105972
0.000556494
0.0016624
0.000962893
0.00557702
0.000306555
0.00239579
0.00281063
0.00175272
0.00186976
0.000719311
0.001272
0.000922922
0.0011696
0.00158887
0.000650682
0.000809186
0.00166715
0.00176369
0.000681263
0.000266442
0.00138493
0.00171297
0.00119231
0.000675029
)
;

boundaryField
{
    frontAndBack
    {
        type            empty;
    }
    wallOuter
    {
        type            nutkWallFunction;
        Cmu             0.09;
        kappa           0.41;
        E               9.8;
        value           nonuniform List<scalar> 
96
(
0.000108043
8.91042e-05
8.44658e-05
0.000197402
0.000200055
0.000196826
0.000119621
0.000104889
6.86092e-05
0.00017901
4.90207e-05
0.000153853
8.81428e-05
0.000206773
0.000166134
0.000193369
0.000194788
9.66901e-05
2.9131e-05
0.000133157
3.55586e-05
0.000143801
9.80718e-05
0.000205629
0.000187355
9.52494e-05
0.000107395
0.000103072
8.9832e-05
9.54089e-05
0.000108598
0.000106164
7.47595e-05
8.94717e-05
8.00726e-05
8.07892e-05
8.27044e-05
0.000118174
9.05142e-05
7.86606e-05
7.82565e-05
9.46537e-05
0.000100521
9.52207e-05
9.37931e-05
9.09852e-05
9.15937e-05
9.03009e-05
9.4466e-05
9.55147e-05
0.000118975
8.97008e-05
8.77205e-05
1.91886e-05
0.000167944
9.1711e-05
0.000128444
9.70396e-05
8.51162e-05
8.9674e-05
0.000214667
1.70073e-05
1.63252e-05
0.000240437
0.000228699
0.000255716
0.000224747
9.23883e-05
0.000212121
0.000199914
0.000195088
0.000253897
0.000226603
0.000216572
0.000209941
0.000218249
2.45039e-05
1.72725e-05
1.65988e-05
2.1199e-05
1.40618e-05
1.76992e-05
8.85399e-05
2.22126e-05
8.00771e-05
8.33302e-05
0.000165097
2.54321e-05
0.000220607
0.000219123
8.92994e-05
7.99524e-05
1.68804e-05
0.000220319
0.000130318
1.62072e-05
)
;
    }
    inlet
    {
        type            calculated;
        value           nonuniform 0();
    }
    outlet
    {
        type            calculated;
        value           nonuniform List<scalar> 9(0.0174847 0.016219 0.00169616 0.0159801 0.0107059 0.00620446 0.00214177 0.00313683 0.0109884);
    }
    wallInner
    {
        type            nutkWallFunction;
        Cmu             0.09;
        kappa           0.41;
        E               9.8;
        value           nonuniform List<scalar> 
126
(
0.000192403
0.00013952
0.000168812
4.55494e-05
4.53932e-05
5.1398e-05
2.6158e-05
3.13014e-05
0.000113335
5.64172e-05
7.89454e-05
0.000136223
0.000398055
0.000132078
3.41286e-05
9.93116e-05
0.000162424
9.39962e-05
8.31157e-05
6.40413e-05
5.36774e-05
0.000114874
0.000184237
8.63781e-05
0.000148389
0.000123692
0.000153412
4.29564e-05
4.03095e-05
3.97298e-05
0.00014186
0.000189225
0.000278755
0.000137501
0.000286368
4.24735e-05
8.133e-05
0.000142946
0.000120075
5.34592e-05
5.35254e-05
0.000162725
7.39784e-05
5.14852e-05
0.000109481
9.96172e-05
4.5913e-05
0.000303404
3.61677e-05
0.000155874
0.000172851
3.85929e-05
0.000234907
6.72291e-05
0.000124691
0.000178092
5.61274e-05
0.000203824
0.000173396
0.000129709
0.000111445
6.49637e-05
3.46563e-05
0.000149023
6.19914e-05
0.000106956
0.000142432
0.000151352
9.01115e-05
0.000213673
0.000156042
0.0001348
0.000101859
0.000110886
0.000112728
0.000101434
9.36246e-05
0.000195245
0.000153832
0.000178717
0.000124572
0.000184197
0.00013689
0.000195047
0.0001566
0.00019884
0.000190314
0.000127689
2.82707e-05
0.000201823
0.000177008
0.000209141
0.00016519
0.000127034
0.000142515
0.000235095
0.000110167
0.000217869
0.000108152
0.000104658
0.000146257
0.000138861
9.51055e-05
9.10476e-05
0.000126978
6.80135e-05
0.00011351
3.61977e-05
0.000267029
0.000308742
0.00020054
0.000212258
8.65219e-05
0.000109996
0.000137506
0.000182406
7.85152e-05
9.70664e-05
0.000191206
0.000201292
8.1193e-05
3.1472e-05
0.000160683
0.000195223
0.000139255
8.14188e-05
)
;
    }
    procBoundary3to1
    {
        type            processor;
        value           nonuniform List<scalar> 
48
(
0.0120946
0.00498121
0.00657426
0.0105155
0.00372334
0.00373757
0.00498121
0.00818132
0.0137515
0.00127372
0.00127372
0.00129043
0.00129043
0.00129344
0.00174486
0.0012326
0.00117438
0.00111916
0.00117438
0.00126192
0.000993908
0.00109704
0.00126192
0.00231597
0.00121509
0.00107538
0.00229358
0.00109704
0.00376028
0.00115213
0.00115213
0.00632016
0.00632016
0.0137515
0.00122511
0.00305668
0.010252
0.00121509
0.0132981
0.00326797
0.00129344
0.0121469
0.0132193
0.00126192
0.00187907
0.00107319
0.00373752
0.00111387
)
;
    }
    procBoundary3to2
    {
        type            processor;
        value           nonuniform List<scalar> 
29
(
0.00114489
0.00114489
0.000303343
0.000322547
0.000843606
0.000453101
0.000245484
0.00109648
0.00188322
0.00134232
0.00078087
0.00109013
0.000746207
0.00152654
0.00164304
0.00100238
0.00188611
0.00208112
0.00128208
0.00183371
0.00183857
0.00188611
0.000224919
0.00208112
0.00104733
0.00112515
0.00208112
0.00152538
0.00152538
)
;
    }
}


// ************************************************************************* //
