/*--------------------------------*- C++ -*----------------------------------*\
| =========                 |                                                 |
| \\      /  F ield         | OpenFOAM: The Open Source CFD Toolbox           |
|  \\    /   O peration     | Version:  v1912                                 |
|   \\  /    A nd           | Website:  www.openfoam.com                      |
|    \\/     M anipulation  |                                                 |
\*---------------------------------------------------------------------------*/
FoamFile
{
    version     2.0;
    format      ascii;
    class       volScalarField;
    location    "0.42";
    object      epsilon;
}
// * * * * * * * * * * * * * * * * * * * * * * * * * * * * * * * * * * * * * //

dimensions      [0 2 -3 0 0 0 0];


internalField   nonuniform List<scalar> 
1431
(
1.65341
3.04431
99.0651
78.1778
1.0687
40.7163
9.07075
4.40898
39.7229
17.5226
1.39862
17.8883
5.59209
58.8831
47.0883
25.8762
60.9724
3.8345
15.4533
1.31103
0.997918
8.04386
49.9714
65.2959
54.2258
1.31367
63.0984
53.2007
21.6746
5.92415
47.7291
11.9686
30.9716
17.3931
13.6398
48.1254
1.45707
10.1034
24.8828
9.68691
143.006
3.68251
13.2254
15.2297
33.8554
1.22957
40.6691
4.87815
17.7072
16.1916
3.91017
18.0241
46.1365
15.9338
12.9519
4.74699
23.645
47.1897
56.1527
0.783472
51.2144
1.02899
52.4568
9.86224
35.0868
5.03237
82.8712
52.9325
3.64624
12.5592
10.3812
11.3017
3.26421
31.7997
14.0726
28.6873
1.15715
61.7992
5.78923
98.6074
8.14289
4.26259
10.565
67.8557
120.654
1.03025
1.32907
17.9734
72.836
1.17874
1.66694
28.9328
1.18682
9.98998
5.13201
0.891512
12.4107
8.70639
1.2078
29.8324
3.71077
5.50353
1.12572
1.35355
22.7329
4.7652
6.63642
154.629
61.286
1.07139
120.639
5.33768
5.42872
0.96511
19.4076
1.39466
3.29013
13.6186
82.1173
27.4939
8.78106
53.0288
23.4085
53.1996
9.35034
6.81434
93.964
13.2594
1.37886
26.5476
4.67545
122.75
47.9879
1.06299
1.0432
48.1047
1.33292
5.35002
1.19829
134.574
14.1586
0.670559
9.86842
18.0493
20.1113
16.2892
8.77637
153.904
1.09598
14.3541
28.4178
38.4447
5.02194
13.8255
1.23487
9.57188
9.02017
0.998847
5.03444
8.4281
4.5466
1.16483
1.1676
12.2639
1.54411
179.093
0.973801
9.45757
4.76322
1.16711
33.199
16.9097
47.3128
17.5179
9.36749
2.21541
9.23567
25.2748
6.50574
6.01322
10.7587
39.3443
5.01518
1.09587
14.1962
16.4623
6.26961
53.659
1.36412
10.1244
8.01986
89.9592
0.95859
7.39013
44.0235
7.95717
6.32369
7.21415
1.31617
1.29662
3.84656
73.5168
12.071
159.437
6.97771
82.2519
0.9961
10.0511
9.74375
22.8552
7.9947
5.38145
73.8401
9.7229
24.0569
49.242
4.71168
7.19363
14.0071
10.0107
9.23945
79.1618
21.6278
155.372
11.0821
28.7852
25.824
1.04448
18.7531
47.8527
1.21507
35.8613
11.0714
4.52716
4.40245
4.83459
10.1048
1.36307
8.22018
4.26556
10.4113
10.0307
20.0183
76.1726
7.76125
7.41066
10.3862
11.0195
18.9903
26.9589
8.87787
27.8349
13.1586
19.4993
49.5079
35.5238
5.65105
4.5143
30.0487
33.1948
37.4354
8.6821
1.41355
15.4268
4.50458
18.147
28.0421
7.40338
16.0647
15.2427
6.79939
22.2813
8.73672
8.66591
39.7358
8.48692
1.11309
8.60778
4.70095
20.273
55.3756
4.38103
4.24926
1.09758
30.939
51.2554
1.12193
4.3264
22.8541
9.26633
17.8611
11.3358
4.50541
5.85879
10.3367
5.45495
1.13035
7.3558
3.96522
7.21867
11.1529
26.158
12.8448
6.25693
0.953266
3.61364
8.63427
34.1234
31.5913
2.15889
10.0039
13.1279
55.2754
0.692889
7.68849
3.41696
19.7762
4.23601
4.41501
3.13701
3.69115
2.06822
19.8684
3.93989
11.2571
3.90064
7.41403
3.88368
76.2778
9.36567
12.148
8.37285
5.20176
7.47131
8.87684
12.6208
4.79857
1.6759
4.12564
7.23758
2.01244
7.61363
4.29184
18.2256
48.4834
2.69729
11.3992
12.5166
0.288155
2.4482
8.12822
13.8135
15.698
7.11212
4.68038
7.18578
13.8595
2.78323
5.37912
10.8693
4.712
5.8152
7.29931
0.373818
0.220638
11.3901
6.37573
9.48653
21.6696
30.9506
3.11915
5.14308
2.72228
13.0828
5.81863
66.5399
7.98049
11.5082
13.9064
4.20689
12.6089
10.0843
0.629462
14.6736
6.94859
6.99662
10.5995
3.12348
6.45774
0.33831
13.265
62.8108
20.8993
13.9165
3.42544
7.32577
1.72251
10.7441
10.6115
9.1557
10.0901
5.49375
10.2613
4.18932
8.32707
12.0496
4.48797
7.64743
2.10724
17.3966
41.4727
12.9996
7.09745
61.7737
18.9849
42.8862
3.88951
20.559
5.99339
1.98788
4.08005
5.00872
8.1141
4.94046
5.39625
4.30896
4.07893
5.72268
44.1771
2.8059
54.5001
5.65768
5.22793
7.85365
4.55319
3.36617
5.99738
6.41857
4.89582
23.0085
10.1197
68.8281
7.2188
6.83382
5.05271
10.1567
10.6891
5.89273
23.6814
7.45079
8.37278
5.97491
10.2261
6.97773
4.72569
5.24315
4.52264
4.93231
4.90583
4.75829
51.907
12.7796
27.3232
26.4848
4.96638
4.82821
1.75695
77.9811
25.3447
5.6174
75.6728
5.13184
5.90997
46.2796
32.214
5.64471
62.7303
61.331
92.7712
11.1581
5.36452
4.95599
48.9927
4.78163
10.1743
18.7054
30.2901
10.3582
4.45141
15.8222
8.95136
10.806
6.36995
68.3444
10.6334
4.60276
100.864
7.03929
11.3739
6.80826
34.918
135.405
4.74685
2.81401
2.7547
9.78881
5.86023
9.55561
5.12735
50.9059
42.5461
7.98375
6.15766
16.8555
11.3575
4.85327
80.0264
117.245
5.22918
4.66272
10.0329
5.88103
7.73786
2.285
4.55324
5.46515
3.07743
4.10025
7.09799
6.28441
10.5457
6.63429
5.22088
7.83128
5.54919
4.39714
4.15203
5.83791
10.1705
46.0826
2.70694
64.5513
3.89856
16.3997
8.60362
12.4962
5.45814
5.35029
7.1711
7.35753
6.17524
1.02312
30.7776
4.91244
5.46294
6.10136
6.81208
7.98028
31.5194
4.39776
9.79942
3.94247
18.8641
76.6821
39.1396
3.17432
8.87264
4.96984
51.7446
2.83666
11.3172
11.2948
54.9059
11.8717
68.7858
1.08022
6.57345
5.64457
3.41249
17.7798
4.09452
5.63733
4.98356
3.50205
5.74883
5.10052
3.0941
11.1795
3.95873
18.054
19.9571
40.6767
13.7261
9.92159
8.7403
4.03457
0.327659
7.34866
5.12128
8.61721
3.43732
2.80094
6.55261
4.88517
4.16597
10.5345
1.33115
8.45134
12.5117
84.9584
53.821
9.94535
2.14858
5.76859
69.825
5.11815
67.5525
18.6628
4.54614
8.13025
6.00159
4.46166
3.53905
6.39777
7.27575
8.93369
6.01342
0.317575
7.76977
5.92343
11.5176
3.90889
2.22859
6.36433
3.80583
6.25476
6.99796
4.80969
24.1488
3.4798
4.1216
15.2042
6.83341
9.9146
7.51618
3.75444
3.21814
36.4164
13.3024
4.07553
7.70298
4.09258
7.91593
30.3789
27.8793
6.98606
7.24259
11.8089
8.00024
9.43653
3.81327
0.503832
2.49525
2.01916
8.70057
4.82049
13.6883
12.5331
8.80356
36.3841
0.385365
7.65327
2.92698
8.34178
11.119
11.3855
40.5546
22.0003
5.45179
20.7346
41.6112
1.38881
11.0865
6.99951
6.83443
5.43899
5.24131
3.46115
17.7787
2.06868
61.7297
5.28255
2.87909
1.36258
8.32354
6.35697
0.393735
12.6008
8.11382
5.11401
3.50819
7.63961
4.17042
5.73017
0.889885
29.0393
27.5891
10.6635
13.9399
162.656
5.74489
0.519199
5.59408
11.8275
5.18635
25.1314
3.00772
36.8396
5.47418
1.19081
23.8828
9.65938
5.31847
76.5766
7.8413
26.2341
9.96516
8.70348
29.538
3.76604
2.89895
3.69772
28.1461
28.0336
63.8157
4.23661
1.33135
9.12191
11.1158
1.86223
3.61161
15.4599
12.7479
1.58587
40.0261
22.2148
5.24634
20.283
41.3514
10.6887
18.2689
4.30344
28.5831
31.2883
1.59936
3.17876
13.0558
29.215
18.1339
109.285
64.225
47.5114
35.8528
36.7743
9.74414
36.1578
6.36177
40.2885
42.6158
29.6882
7.17493
71.7592
0.293796
6.50607
2.66461
37.6098
0.668831
47.0658
8.68747
7.70867
15.1401
5.36357
33.0694
21.0223
3.09834
155.072
0.33731
5.69479
6.10526
129.133
1.22449
4.29902
79.635
35.58
13.9621
10.344
0.321882
7.22981
72.7237
5.83307
9.44337
7.21554
6.00386
6.45002
0.379866
4.35092
41.7919
5.15095
36.6669
1.33851
8.56938
6.06783
33.3536
0.491048
93.8824
31.1644
37.0759
40.3991
46.6076
35.0856
27.8243
31.8824
35.1817
2.70033
5.74305
17.2492
11.1887
6.90594
6.24756
0.44827
16.6741
0.40886
6.88873
0.410866
7.68958
27.5494
8.70863
29.8439
9.40301
8.42612
4.35353
8.20958
8.56551
34.7063
89.5474
6.8304
5.13237
3.34555
3.6777
6.18546
2.79649
3.08523
4.49742
4.32586
40.8348
1.05595
14.6691
41.1341
11.048
12.1604
5.66744
1.27025
9.36641
4.86648
4.55463
1.52208
5.16324
4.83281
0.37289
9.20747
11.2367
39.131
2.00175
2.98595
1.53975
6.98825
16.0676
16.0277
5.67274
6.78788
0.94469
6.78917
4.68276
2.54464
10.417
1.66134
1.4133
53.131
43.4066
10.5925
20.3715
84.1196
27.4917
7.94434
1.19123
60.856
0.788925
5.05212
5.86993
8.17666
4.48985
3.73471
4.07093
3.83206
58.4104
51.1705
25.6091
1.30256
1.79438
9.70026
2.43425
5.55326
76.9938
4.39172
3.86838
12.056
14.1955
13.0882
11.1745
6.20876
7.04635
5.56977
2.31651
6.01437
5.08112
42.4093
5.45432
34.6183
17.7581
35.4263
6.27685
4.31998
1.1095
2.09269
1.57048
1.42551
5.6303
1.76025
1.97584
2.67191
0.432695
10.1566
6.90682
2.26579
1.62712
0.975512
119.125
1.10682
5.08869
3.03821
13.9024
1.8514
30.6771
9.23738
105.774
9.09558
2.50839
5.01705
9.72749
4.60319
28.5
9.55078
5.92431
4.69953
2.90362
2.8032
2.56118
81.6572
1.88769
32.0206
10.7639
3.80319
3.27505
31.6823
16.0503
3.8904
6.3541
2.85957
2.69454
8.49424
3.14207
18.8465
8.96269
60.703
23.4885
53.9314
0.861787
65.3189
3.12922
40.0812
1.67878
6.99086
7.42115
2.88089
11.6768
6.82868
16.881
43.6522
150.004
1.05465
43.3823
97.9336
23.1724
37.541
18.9913
4.56254
55.3297
78.0239
13.068
1.4292
7.50531
8.68948
5.77332
8.66293
53.4992
77.2183
44.4452
18.8169
5.28126
11.5853
5.27284
47.7328
5.92481
33.7149
44.1245
6.08844
4.19279
3.85595
19.7852
150.718
9.60648
6.82258
3.61821
97.2052
5.40315
14.4278
72.0943
10.77
5.55231
5.33871
40.7221
1.14061
0.340751
10.1016
6.32925
6.20272
63.7037
11.5298
4.27805
24.3887
5.87932
30.695
13.163
30.6002
15.229
12.0874
3.01464
18.2189
5.42449
4.99626
5.86317
71.6876
12.9989
43.9183
5.20816
1.37659
15.8746
11.127
11.4872
12.3911
3.15596
4.59387
32.9717
37.6109
6.54469
5.69857
0.881025
70.5442
14.1977
14.1457
1.8072
8.54776
5.12674
3.2825
7.14738
1.59412
31.5175
53.3282
22.8229
19.2558
2.35238
17.9326
5.44793
4.98182
43.4879
3.42628
5.17142
12.0837
1.41221
63.694
86.7832
2.57912
16.7711
94.5945
2.79758
14.4515
6.3666
0.377872
7.44272
44.981
8.2927
46.9102
5.52589
57.0132
7.15502
75.9586
2.80536
7.68605
17.9474
6.88431
7.13363
3.77125
15.3541
2.19148
126.743
3.12848
5.30916
3.86657
20.1371
14.0425
14.4957
7.36226
1.64742
14.2026
6.9194
1.08046
4.35914
28.0649
7.25443
0.287028
8.05819
3.88139
28.0284
18.5135
1.13976
4.81048
62.7019
0.790589
65.0755
7.38144
55.6368
0.302958
10.4378
18.3749
4.92392
4.75401
68.0473
48.2211
44.6911
8.93732
116.119
2.1111
2.17343
5.94985
14.6408
58.8862
107.766
0.282289
9.46792
3.08318
12.1228
23.3845
49.0859
119.603
39.3085
14.3837
4.73305
5.85007
7.46541
4.13538
103.859
48.0539
4.43214
1.31674
3.66522
44.0067
75.9571
6.57272
28.3749
1.12262
4.91165
65.1502
30.6422
2.2859
82.1489
13.1147
74.3402
4.11418
14.4221
11.0423
11.9237
25.3529
53.4386
4.45967
50.2609
46.7035
12.7
5.75498
11.3186
13.2121
14.2306
45.9101
13.2249
1.15443
3.93828
2.42013
85.3548
5.13516
4.36635
74.5617
4.79154
12.7374
35.1654
1.57562
66.6409
4.62879
2.80499
8.46769
19.9115
12.624
37.1777
118.47
1.04752
111.069
2.15566
11.0201
59.7072
0.952812
6.81805
1.32136
5.28499
95.1566
42.8487
35.622
18.823
4.42042
0.905223
6.56648
35.7417
8.82866
1.47425
15.0911
4.64366
5.06512
128.962
11.2959
70.2625
30.9386
11.5676
4.53555
5.6368
5.46864
66.8895
29.2127
18.4175
12.3955
9.99413
51.0367
5.04066
83.2443
3.34559
8.40177
3.02631
7.65325
2.24996
5.65561
15.3249
1.23012
34.7095
41.0191
12.6229
3.85113
5.70185
13.9846
4.32157
96.3494
9.83528
14.9944
11.8107
5.10779
89.4488
46.5693
30.8259
9.88979
1.58474
13.1001
4.4394
46.7699
6.77061
0.596939
11.5428
6.04183
53.4192
6.33376
11.3462
8.58569
5.93898
12.5831
3.75877
14.8043
11.8816
20.2882
1.51638
3.24998
3.19456
1.13174
4.83482
6.14623
2.729
4.91845
1.30259
2.88672
6.19316
14.4806
6.06053
77.7919
52.2071
13.3633
4.22141
1.24973
6.6425
3.48363
1.26394
7.09138
5.40369
5.8455
84.95
5.90108
28.5119
1.23608
6.98829
2.65149
5.44567
152.624
2.01378
5.03607
6.43921
5.05938
9.92301
8.7045
4.7647
35.8558
6.45345
2.63144
4.01916
6.55832
3.73519
30.2344
1.45405
3.05139
5.57858
6.72958
7.18687
6.5253
61.2829
5.51275
1.43922
5.02668
10.1735
20.16
37.3245
1.57483
14.1352
6.94317
3.04276
2.52939
13.9634
7.66381
6.56937
16.5059
7.18296
49.855
6.93335
153.235
6.08365
44.3318
86.5273
12.1012
2.53639
1.3973
17.7274
1.30319
56.9892
3.47703
11.347
5.98805
46.0142
5.96596
1.85837
12.8812
1.57968
12.6075
8.27243
56.6933
3.83436
50.3735
41.5782
34.1737
41.6232
4.84381
6.42861
3.88658
9.49161
13.8387
11.918
11.6289
11.4752
16.7667
20.0016
16.0975
18.0392
23.8751
5.06717
45.1333
17.7589
12.4962
62.5365
146.423
13.7968
29.2847
72.1699
)
;

boundaryField
{
    frontAndBack
    {
        type            empty;
    }
    wallOuter
    {
        lowReCorrection 0;
        type            epsilonWallFunction;
        value           nonuniform List<scalar> 
90
(
25.8762
25.1314
23.8828
26.2341
29.538
28.1461
28.0336
40.0261
22.2148
28.5831
31.2883
42.6158
29.6882
37.6098
33.0694
79.635
31.1644
37.0759
40.3991
46.6076
35.0856
27.8243
31.8824
35.1817
34.7063
58.4104
51.1705
34.6183
35.4263
2.09269
1.57048
1.42551
5.6303
1.76025
1.97584
2.26579
3.03821
1.8514
30.6771
2.50839
2.8032
2.56118
81.6572
1.88769
2.85957
2.69454
3.12922
40.0812
1.67878
43.6522
53.4992
19.7852
30.695
43.9183
32.9717
1.8072
1.59412
31.5175
53.3282
17.9326
43.4879
3.42628
2.57912
94.5945
44.981
57.0132
75.9586
2.19148
126.743
3.12848
44.6911
2.1111
107.766
3.08318
119.603
103.859
28.3749
30.6422
2.2859
74.3402
35.1654
111.069
2.15566
30.9386
12.6229
2.88672
152.624
2.01378
35.8558
20.16
)
;
    }
    inlet
    {
        type            fixedValue;
        value           uniform 14.855;
    }
    outlet
    {
        type            zeroGradient;
    }
    wallInner
    {
        lowReCorrection 0;
        type            epsilonWallFunction;
        value           nonuniform List<scalar> 
138
(
17.8883
15.4533
30.9716
17.3931
13.6398
3.68251
82.8712
52.9325
10.3812
11.3017
28.6873
47.9879
13.8255
1.23487
2.21541
9.23567
1.31617
1.29662
3.84656
73.5168
155.372
35.5238
5.65105
30.0487
33.1948
37.4354
28.0421
39.7358
30.939
34.1234
31.5913
2.01244
2.69729
12.5166
0.288155
2.4482
8.12822
13.8135
15.698
7.11212
4.68038
7.18578
13.8595
2.78323
5.37912
10.8693
4.712
5.8152
7.29931
0.373818
0.220638
11.3901
6.37573
9.48653
4.20689
12.6089
10.0843
0.629462
14.6736
6.94859
6.99662
10.5995
3.12348
6.45774
0.33831
13.265
10.0901
12.9996
42.8862
5.22793
68.8281
5.05271
23.6814
12.7796
46.2796
11.1581
48.9927
15.8222
8.95136
10.806
10.6334
100.864
135.405
50.9059
42.5461
117.245
8.60362
1.02312
30.7776
31.5194
11.3172
8.61721
2.22859
4.82049
1.38881
0.393735
12.6008
3.76604
3.69772
12.7479
64.225
6.36177
2.66461
5.36357
35.58
0.379866
16.6741
29.8439
9.40301
4.32586
9.70026
42.4093
0.432695
10.1566
0.975512
31.6823
53.9314
0.861787
43.3823
97.9336
5.42449
0.881025
70.5442
2.79758
7.36226
6.9194
62.7019
0.790589
5.85007
7.46541
1.57562
11.6289
45.1333
17.7589
12.4962
146.423
13.7968
72.1699
)
;
    }
    procBoundary0to1
    {
        type            processor;
        value           nonuniform List<scalar> 
29
(
9.34507
7.43164
24.5183
24.5183
44.2585
44.2585
120.289
39.2173
84.794
26.737
27.7652
54.9579
24.8026
15.8285
64.5455
24.5057
57.7861
69.3047
29.1593
7.46984
10.6155
5.99099
60.9663
10.1788
10.2699
69.3047
8.05152
63.7877
10.1788
)
;
    }
    procBoundary0to2
    {
        type            processor;
        value           nonuniform List<scalar> 
42
(
9.55686
5.60464
1.52974
1.41064
1.63727
9.55686
1.52974
1.18598
1.59866
1.99527
2.31595
3.86206
2.31595
4.45425
4.62795
9.50427
4.62795
1.9448
1.81772
10.3793
10.3793
1.9448
1.56052
15.6283
15.6283
0.952521
13.2198
0.578643
11.741
4.78124
4.78124
0.394154
0.347222
0.386656
0.479477
1.52974
3.82283
1.80959
11.741
1.18598
0.795316
0.608528
)
;
    }
}


// ************************************************************************* //
