/*--------------------------------*- C++ -*----------------------------------*\
| =========                 |                                                 |
| \\      /  F ield         | OpenFOAM: The Open Source CFD Toolbox           |
|  \\    /   O peration     | Version:  v1912                                 |
|   \\  /    A nd           | Website:  www.openfoam.com                      |
|    \\/     M anipulation  |                                                 |
\*---------------------------------------------------------------------------*/
FoamFile
{
    version     2.0;
    format      ascii;
    class       volVectorField;
    location    "0.42";
    object      U;
}
// * * * * * * * * * * * * * * * * * * * * * * * * * * * * * * * * * * * * * //

dimensions      [0 1 -1 0 0 0 0];


internalField   nonuniform List<vector> 
1431
(
(-0.228954 0.366205 -2.75998e-17)
(0.776964 -0.192443 -1.51062e-16)
(5.76621 0.868425 9.25855e-17)
(-3.07893 1.8144 -3.87779e-17)
(0.0264694 1.0919 -1.34745e-16)
(4.24749 0.595371 1.83541e-16)
(1.47976 -0.682256 -1.68845e-16)
(9.6833 0.604378 -2.01131e-16)
(0.594944 2.82625 0)
(0.686502 0.834379 -1.12122e-16)
(0.193323 -0.182984 0)
(-0.30361 -0.833095 6.14449e-17)
(-0.432192 0.993249 0)
(9.07399 0.47467 1.76786e-18)
(0.166899 0.560211 -2.37969e-16)
(0.423396 2.44276 0)
(0.312507 2.00694 -2.94831e-16)
(-0.0916379 0.64785 0)
(-0.919313 -0.285118 1.09949e-16)
(0.115203 -0.24952 5.21174e-17)
(-0.144673 0.657641 -1.81729e-17)
(0.167049 -0.752215 -6.66986e-19)
(2.92942 1.90537 -3.88045e-17)
(8.79609 0.523282 -2.86568e-17)
(1.80804 3.45713 -1.04542e-16)
(0.0462701 -0.26592 -1.46599e-16)
(-1.29108 4.92063 9.46281e-17)
(9.32302 0.426746 -2.44499e-20)
(10.8212 0.669251 5.31266e-18)
(-0.142923 -1.36049 -4.25173e-16)
(7.70001 0.274105 2.19985e-16)
(7.06218 -0.164384 -1.66028e-16)
(-1.84805 0.408806 -1.06351e-16)
(-1.50434 0.513048 0)
(0.478467 -0.424251 9.43499e-17)
(1.91069 8.444 1.17192e-16)
(-0.0847326 -0.184388 1.26636e-16)
(9.60071 -0.0123836 0)
(2.83065 0.759409 -1.13731e-16)
(9.51645 -0.010304 0)
(5.1452 0.119324 1.2296e-16)
(0.633789 0.17577 -7.08478e-17)
(-1.34122 0.644387 0)
(1.33415 -0.0111077 -5.71709e-17)
(-1.05213 0.720626 1.40868e-16)
(-0.612282 0.436841 -3.71593e-16)
(1.36499 4.52421 2.01851e-16)
(7.1506 1.18723 -5.45878e-17)
(8.91441 0.508782 1.4936e-16)
(9.3459 0.0823135 3.3786e-17)
(0.621933 -0.789745 -7.64622e-17)
(0.992458 1.20245 1.09882e-16)
(0.957252 3.81352 4.84082e-17)
(-0.690768 0.956138 -1.46387e-17)
(1.70734 -0.265175 -1.03556e-16)
(7.93327 1.69409 0)
(1.65895 2.02255 5.14697e-17)
(1.22208 5.01705 -1.72242e-16)
(-0.395394 6.62714 0)
(0.0127892 0.319716 -7.94755e-16)
(0.580585 1.86912 0)
(0.019169 0.129198 -1.89381e-16)
(1.29718 7.34793 -1.30111e-16)
(10.5571 0.121223 0)
(9.96021 0.298756 -1.67929e-17)
(-0.950872 1.08103 0)
(6.27495 0.394369 0)
(4.29432 0.255649 0)
(-0.500436 -1.37311 1.29666e-16)
(10.7341 0.0870007 0)
(-0.829934 0.39741 7.94379e-17)
(-0.688164 -0.0453003 -9.20443e-17)
(0.63253 -0.17785 0)
(4.25148 0.427549 -1.94327e-16)
(1.67684 1.4638 4.26578e-20)
(-0.964188 0.316253 2.57605e-16)
(-0.121715 1.00371 4.73548e-17)
(3.81562 0.747834 2.89705e-16)
(9.94997 0.165471 1.19219e-17)
(1.09607 -2.98417 -1.81879e-17)
(9.90243 0.101743 -2.32604e-16)
(0.807046 -0.0735605 -1.99719e-18)
(1.60091 -0.834621 1.83619e-16)
(1.02156 0.318538 -7.80644e-17)
(-2.67385 1.31436 4.01549e-17)
(0.0111319 0.959134 -4.73914e-16)
(0.0954272 0.49326 -1.06773e-16)
(-1.10596 1.75868 1.3917e-16)
(8.44597 0.565738 8.61914e-17)
(-0.0187011 -0.190576 -6.8296e-17)
(-0.580662 0.315062 1.92731e-16)
(-1.71327 1.54966 2.09735e-16)
(0.122661 0.458186 0)
(9.66419 0.029115 0)
(1.19173 0.341675 1.84992e-18)
(-0.0705238 0.749497 1.88707e-19)
(1.65899 1.92994 -3.50587e-19)
(10.3297 0.531077 3.02992e-18)
(0.0138262 0.286421 2.2228e-16)
(8.86994 0.475333 -4.19966e-16)
(-0.490885 -1.53769 -1.44106e-16)
(9.79117 0.16824 -6.18018e-17)
(-0.392663 0.127076 0)
(0.042847 0.990674 8.25357e-21)
(-1.03081 2.6855 1.51063e-16)
(1.77355 -0.537704 6.35861e-17)
(9.98044 0.0657617 -9.71367e-17)
(4.83904 -0.0330871 7.0843e-17)
(7.00059 0.0217157 8.95588e-17)
(-0.0253072 1.11213 7.21187e-17)
(-0.533279 -2.59447 1.52045e-16)
(-1.45995 0.967508 -5.97888e-17)
(9.6125 0.827966 0)
(-0.109961 -0.0139997 -1.87249e-16)
(-0.219829 2.9033 0)
(0.0284365 1.03884 0)
(-0.116319 0.45305 0)
(0.234763 -0.350149 -4.71623e-19)
(8.00281 0.584515 -5.91847e-17)
(-1.5979 0.682708 -1.41655e-16)
(9.79446 0.255382 -1.86357e-17)
(1.04179 4.67692 -1.22246e-16)
(1.16259 1.66472 -4.28676e-16)
(8.84205 0.804717 -1.10159e-16)
(10.0955 0.179148 0)
(-0.904096 0.257905 -8.90896e-17)
(7.48115 0.574393 1.56315e-17)
(2.1501 0.679032 5.37673e-17)
(-0.368864 0.612675 8.2458e-17)
(10.6118 0.427548 -6.71943e-17)
(-1.07144 0.525358 -1.22401e-16)
(4.29629 -0.153953 2.32043e-16)
(7.05344 0.419923 0)
(-0.338221 0.0653113 -1.82151e-16)
(0.0884245 0.504051 -1.07984e-17)
(-2.12288 1.63699 -2.32335e-16)
(0.347361 -0.0756094 0)
(-1.85856 0.644743 9.97407e-17)
(-0.598296 0.269362 4.40711e-17)
(3.51603 -0.0742692 -3.79877e-16)
(0.112066 2.10442 0)
(0.161151 0.206733 3.38585e-17)
(10.4996 0.058226 -7.00468e-18)
(8.8832 0.361736 -1.92379e-17)
(8.58339 0.145803 0)
(11.3571 0.287725 4.05401e-17)
(10.3186 0.354804 3.14906e-17)
(4.63214 -0.0603285 0)
(0.107352 -0.062743 -1.39111e-16)
(9.27685 0.9049 -4.93016e-17)
(10.8243 0.0435662 7.30257e-17)
(9.87388 0.416072 -1.45715e-17)
(0.565571 0.375047 -1.70743e-16)
(2.1064 -0.91691 7.91172e-17)
(0.116805 0.0634611 1.78859e-16)
(2.14306 0.883317 -3.3286e-17)
(10.0531 0.114413 8.02822e-17)
(-0.259935 0.0353984 -4.38366e-16)
(9.50682 0.932934 0)
(9.42491 1.13495 -9.06245e-17)
(0.0252098 0.79644 -4.24861e-20)
(0.134048 -0.1735 4.64658e-17)
(-0.453626 0.219663 0)
(-0.0962322 2.07643 -3.14837e-17)
(0.00853134 0.717028 -2.19313e-16)
(-0.650687 -0.48494 -1.63255e-16)
(-0.0387298 0.966908 -1.1073e-16)
(9.72233 0.101555 0)
(0.38858 -0.987277 3.47743e-16)
(-0.249661 0.00672078 -1.682e-16)
(9.69024 0.897152 -1.26672e-17)
(0.905185 2.92159 2.10866e-17)
(8.54104 0.545407 -1.08401e-16)
(11.022 0.04898 0)
(10.4825 0.0386933 1.32902e-17)
(-0.718332 0.173517 0)
(-1.08953 0.297817 7.23968e-17)
(9.20655 0.746958 -1.64996e-17)
(-0.331644 -1.56511 2.43761e-16)
(9.45463 1.07537 9.25524e-17)
(9.69448 0.354452 3.81043e-17)
(0.275505 0.451053 1.11147e-16)
(8.73844 1.69147 0)
(-0.0999037 -0.116573 3.75014e-16)
(11.223 0.120283 8.89929e-17)
(9.83111 1.07371 -1.26487e-17)
(9.75661 0.696516 9.54647e-17)
(-2.81983 5.07642 -1.14081e-16)
(0.00349408 -0.272016 2.02679e-16)
(10.2452 0.110343 -6.40276e-21)
(-0.0460395 -1.08219 2.37188e-19)
(0.495289 2.10469 -1.10851e-16)
(-0.162058 0.894224 -3.17558e-16)
(10.0254 0.0436444 -5.87202e-17)
(0.0939991 2.37582 -2.6318e-20)
(9.94093 0.418296 3.69449e-17)
(9.98106 0.0863029 0)
(7.18586 2.09556 -1.00285e-16)
(-0.0872257 0.198584 0)
(0.0668665 0.25618 0)
(0.279846 -0.68406 -1.85893e-16)
(2.87989 2.88214 -2.54931e-16)
(9.28572 1.01034 -2.56878e-17)
(3.78519 0.129995 -4.27212e-16)
(9.99959 0.0527749 3.22772e-17)
(-2.23055 2.5751 -2.52501e-16)
(-0.00479006 0.792591 8.69517e-16)
(9.74553 0.24908 2.29183e-17)
(0.739743 0.265608 1.5845e-17)
(9.06788 0.313191 0)
(10.0931 0.0679701 7.28114e-18)
(9.89363 0.331206 5.77301e-17)
(8.05649 0.654237 1.2834e-17)
(9.83012 0.217156 2.19793e-17)
(2.12571 2.33682 0)
(1.12833 2.93032 2.76879e-16)
(9.39346 1.02834 0)
(-0.11178 -1.33495 0)
(-0.527297 -0.511931 0)
(10.0946 0.248881 -5.74354e-17)
(9.84951 0.182259 0)
(0.351202 1.33463 1.21624e-16)
(11.09 0.0292842 -1.17122e-16)
(4.29559 1.21204 -6.98083e-17)
(10.7104 0.362029 0)
(9.29548 1.06861 0)
(9.39861 0.918109 -6.8192e-17)
(-0.201492 -0.0209498 0)
(10.5155 0.620371 0)
(7.75464 0.216511 -6.74097e-17)
(0.075408 0.789805 0)
(-2.82843 2.5647 2.71952e-16)
(10.5951 0.0867799 6.26408e-20)
(9.80734 0.487483 -1.73654e-16)
(9.72365 0.421751 7.97678e-17)
(9.76614 0.375365 4.49368e-17)
(10.4564 0.246142 -2.42105e-17)
(-0.390515 0.362517 1.92824e-16)
(9.81355 0.115491 0)
(1.13395 0.831221 1.61339e-16)
(9.43029 0.245248 -2.93672e-17)
(9.36652 1.10056 7.69504e-17)
(0.56532 2.02154 -2.28752e-16)
(0.83068 4.23811 -2.68441e-16)
(1.24996 1.17057 -2.55747e-19)
(0.444143 1.34961 5.48267e-20)
(10.5191 0.283354 -1.62551e-16)
(1.09163 -0.577917 0)
(-2.07677 0.415156 0)
(9.99728 0.870065 0)
(10.0483 0.942052 -8.68373e-17)
(0.618238 2.37479 0)
(0.618835 0.363334 1.23881e-16)
(6.26421 3.16379 1.96276e-17)
(1.22228 5.31901 -1.49505e-16)
(8.09853 0.0763376 -4.11322e-17)
(1.53529 -0.136381 1.53364e-17)
(0.88006 0.778471 4.3483e-19)
(8.24043 0.0151968 7.39921e-20)
(8.19095 0.0349416 7.9773e-17)
(8.06295 0.0989311 7.91311e-17)
(-0.188321 1.59603 2.4014e-17)
(-0.0412257 0.468976 4.30199e-16)
(0.288907 2.16705 -4.54131e-17)
(9.7195 0.310907 -7.02071e-17)
(10.6307 0.527072 6.23029e-18)
(8.12546 0.00984611 -7.34821e-17)
(9.81031 0.88051 0)
(8.30455 2.67226 2.60311e-17)
(0.354247 1.73379 -1.53119e-17)
(9.70567 1.01684 0)
(9.10123 0.706947 2.84874e-16)
(10.1929 0.819075 2.52355e-17)
(10.2412 0.71918 0)
(8.00021 0.11974 -4.92183e-17)
(9.90482 0.637079 1.17361e-18)
(-0.468929 0.163803 -1.10577e-16)
(-0.911297 -1.2066 -6.91061e-19)
(-1.6666 -0.519008 -2.92094e-17)
(0.637361 1.39677 1.73022e-16)
(0.4842 3.44934 0)
(1.04314 0.774548 -3.33281e-17)
(-0.45645 -0.559644 0)
(-0.415161 0.124956 2.91919e-16)
(8.18569 -0.00279514 -4.02769e-17)
(-3.4893 3.6818 4.68085e-17)
(0.0466115 0.862413 1.03391e-16)
(9.11405 1.15761 4.77799e-17)
(10.2169 0.805165 1.89703e-19)
(9.58194 0.21047 6.1255e-17)
(11.1362 0.439421 1.3917e-16)
(9.42147 -0.00117317 -5.51921e-17)
(9.36757 1.01708 0)
(-0.563781 -1.97687 0)
(10.0045 1.01466 -4.05342e-17)
(9.34025 1.33994 4.3401e-18)
(-0.274196 0.849218 0)
(8.94464 2.01366 1.57094e-18)
(1.15114 0.713208 -1.65608e-16)
(9.47104 1.12633 2.61959e-17)
(9.57916 0.430233 2.6124e-17)
(9.21577 0.797732 6.84067e-17)
(2.73828 -0.338574 0)
(7.90937 0.135601 0)
(-0.11746 -0.00167931 -2.63429e-16)
(1.2698 0.587974 1.41296e-16)
(9.89221 0.132587 7.41475e-17)
(8.14599 0.0532686 -8.06827e-17)
(8.20117 0.0228455 -7.75846e-17)
(-0.441028 0.817294 1.46238e-16)
(9.60196 0.289363 -1.21863e-17)
(10.7836 0.214724 4.92173e-17)
(0.339289 -0.0979926 -1.59164e-17)
(0.168541 0.101624 -1.79409e-17)
(-1.4564 0.895371 -6.88466e-19)
(1.1712 0.319979 -1.57876e-16)
(0.446737 1.81065 -4.67819e-17)
(1.59178 0.381271 -6.52453e-17)
(9.74262 0.320349 -4.20574e-17)
(-0.206462 -1.10189 -1.37791e-16)
(1.38646 0.670011 -2.27012e-16)
(-0.322658 -0.895355 2.18122e-16)
(0.0137312 2.74639 7.29336e-20)
(1.64053 0.823284 -1.1868e-19)
(-0.00459627 0.491837 -1.53628e-16)
(-0.31295 -1.26877 -7.24637e-17)
(9.80308 0.0766963 1.59103e-16)
(-0.443337 -1.47483 -6.391e-17)
(7.79493 0.463169 0)
(9.72479 0.200118 -6.14056e-17)
(-0.155183 -0.574864 -9.01485e-17)
(2.08192 -1.42023 0)
(0.386183 0.67204 0)
(-0.32377 -1.46575 1.53101e-16)
(10.2606 0.115773 0)
(0.457272 1.55312 -1.25567e-16)
(0.722281 -0.70193 -5.28667e-17)
(-0.312011 -0.595372 0)
(1.14765 -0.596716 -1.43524e-17)
(-0.883456 0.408434 1.34717e-16)
(0.290776 0.0638812 0)
(9.78139 0.0972758 -7.17764e-17)
(-0.426917 -1.48695 7.06397e-17)
(10.0737 0.24162 2.87863e-17)
(6.49524 3.48191 -2.41339e-16)
(-0.00995086 0.0207729 1.68975e-16)
(10.5106 0.254212 1.3084e-17)
(0.557602 -0.482724 1.48744e-16)
(0.374604 0.0711749 -7.62235e-17)
(-0.284819 0.224473 -6.77012e-17)
(1.97817 0.0038015 -9.44448e-17)
(-2.31463 -0.00457957 -2.9588e-16)
(-1.991 -0.374994 0)
(1.11837 0.273928 -1.29816e-16)
(-0.442321 -0.179983 0)
(1.97721 0.152713 0)
(-2.61027 -0.034061 0)
(-0.107263 0.0860346 -3.51403e-16)
(0.354365 0.256053 0)
(-1.34983 0.0189074 3.87075e-16)
(1.08007 -0.245009 -1.56392e-17)
(-1.01576 -0.213504 1.13912e-16)
(1.44687 0.217498 1.93038e-18)
(0.510916 -0.0307896 -7.92242e-17)
(0.16328 0.111804 2.49509e-16)
(1.22417 -0.291397 -1.36453e-16)
(1.71893 0.00179197 0)
(-1.57429 -0.00488154 0)
(-0.355103 -0.231303 -2.28509e-17)
(0.201675 -0.123109 0)
(0.987909 0.0903951 5.16488e-16)
(0.595543 0.77778 1.08811e-16)
(-0.347847 -1.06265 -1.26464e-16)
(9.94636 1.06313 4.71681e-17)
(-0.603392 -1.9619 0)
(-0.851526 -1.64037 1.68782e-16)
(-0.112969 -0.699735 8.69783e-17)
(9.7871 0.339946 2.82351e-17)
(10.0049 0.0386142 7.3261e-17)
(-0.00913077 0.177114 5.92954e-16)
(-1.84899 0.329605 2.0045e-17)
(1.68902 -0.123536 3.0504e-17)
(-0.00420332 0.0896465 -2.30107e-16)
(-2.41153 -0.231225 0)
(-1.41424 -0.188153 1.06312e-16)
(1.66509 0.12605 0)
(-1.60746 0.0437392 0)
(-0.165694 -0.0342974 1.74503e-16)
(0.736426 0.2892 1.27834e-16)
(0.495758 0.0220075 1.46126e-16)
(-0.242108 -0.611509 0)
(2.35483 5.00568 1.64653e-16)
(9.68008 1.03283 -2.56961e-17)
(9.98818 0.00527271 0)
(-0.38066 -1.25055 -2.37667e-19)
(-2.00717 0.683134 -1.2383e-16)
(-0.385025 -0.128736 -1.46245e-16)
(9.93857 0.208781 0)
(-0.353145 -0.505514 0)
(10.4169 0.076797 0)
(-1.03678 0.14199 -4.97166e-17)
(-0.31131 -0.677844 1.57104e-16)
(9.99462 0.224195 2.48695e-17)
(1.3734 -0.369886 2.57164e-17)
(-0.468564 -0.568345 1.03924e-17)
(9.89999 0.85851 0)
(1.5518 0.0999583 8.90882e-17)
(8.59539 0.0173026 1.54609e-16)
(-0.379545 0.960144 -2.35056e-17)
(0.087283 -0.361529 -1.26876e-16)
(9.66574 0.0759441 5.84545e-17)
(-0.13222 -0.797602 0)
(-2.1964 -0.326878 -2.53762e-20)
(2.04871 7.42121 -3.62397e-16)
(8.75098 0.212302 -2.03954e-17)
(1.72978 4.4815 6.07163e-17)
(0.0593493 -0.728016 -1.43683e-16)
(0.593244 2.15728 2.11488e-16)
(0.0882752 -0.706339 -1.94193e-17)
(-0.447121 0.403248 -4.41983e-19)
(1.63927 0.649717 3.62497e-17)
(-0.514757 -1.78422 1.18387e-16)
(-0.220573 -1.08369 5.01342e-17)
(0.355909 -0.0881121 -2.70236e-16)
(-0.427079 -1.77991 0)
(0.209343 -0.664178 1.44877e-16)
(0.621887 0.00840983 4.80782e-17)
(0.569861 0.536382 9.94792e-18)
(-0.295487 0.633046 -1.06678e-16)
(0.806294 0.0183889 -3.5146e-16)
(0.985459 0.662283 0)
(0.051104 -0.23652 -2.05686e-16)
(-0.244075 -0.385088 0)
(0.317108 0.0114719 2.33561e-16)
(0.955127 0.579768 -7.75979e-18)
(0.60458 -0.287765 0)
(-0.551829 -1.62126 -1.76826e-16)
(0.512391 0.183852 2.56619e-18)
(0.515959 -0.275357 6.48896e-16)
(0.223406 0.840518 1.57012e-16)
(1.56888 -0.431411 -5.31939e-19)
(-0.0951857 2.97642 -3.69203e-17)
(0.388106 -0.0682442 0)
(0.48577 -0.226128 4.88729e-17)
(0.0366649 -0.425368 0)
(-0.245298 -0.518033 7.94058e-18)
(-0.0881517 0.00599608 -4.67409e-18)
(0.256793 -0.554249 -1.16797e-16)
(0.241661 -1.31402 0)
(0.378888 0.467393 1.52403e-16)
(0.226678 0.131079 -9.92273e-17)
(-0.385713 -1.38348 3.5342e-16)
(0.011994 0.0629135 -1.42961e-16)
(-0.211845 -1.28193 -1.34747e-16)
(-0.474824 -1.68451 6.41918e-17)
(-0.264004 -1.55781 -1.88609e-16)
(-0.393306 -1.5539 -2.53345e-16)
(-0.472021 -1.49224 -5.82821e-18)
(-0.323749 -1.56046 0)
(0.896546 0.300935 0)
(2.72549 2.32349 2.5429e-16)
(-0.386391 -0.517462 0)
(1.24136 0.749608 0)
(2.89007 2.05683 -1.49655e-16)
(0.904926 -0.0420868 1.76395e-16)
(1.07873 -0.354367 -3.64388e-16)
(-0.221252 0.925058 -1.35713e-16)
(1.76039 3.07266 9.73718e-17)
(1.90041 1.38721 -1.71755e-16)
(0.382603 -0.48297 -5.09658e-16)
(1.69634 5.10802 1.49184e-16)
(-0.206375 0.902803 0)
(7.95031 0.0865439 -1.4336e-17)
(1.03148 6.95295 -5.34664e-17)
(1.7349 2.08412 2.05714e-16)
(0.668028 -0.698659 -1.57131e-16)
(2.3374 7.07401 -2.52308e-16)
(2.06149 7.69022 2.29583e-16)
(0.898366 3.98404 1.55602e-16)
(-0.177349 -1.49261 0)
(-0.360073 -1.64649 -3.73798e-17)
(-0.116119 0.633172 0)
(0.660646 8.3034 -4.39048e-17)
(9.84845 0.366886 -1.6533e-17)
(8.64841 0.131078 -2.9819e-17)
(2.01653 1.01707 -1.24195e-16)
(2.4863 2.8984 -9.43899e-17)
(-0.342203 -0.752934 1.19538e-16)
(-0.481517 -1.51483 -8.80133e-17)
(0.25074 -0.958543 0)
(0.156638 -0.546484 -1.10431e-17)
(-0.215572 -0.877563 0)
(0.212796 -0.836179 1.9834e-17)
(2.03434 6.52909 5.3116e-17)
(-0.177642 -1.22513 0)
(-0.0345737 0.277568 0)
(-0.279057 4.58528 0)
(0.572663 -0.61079 3.80932e-17)
(9.91383 0.171364 -1.22368e-17)
(0.75595 -0.557765 0)
(2.11781 3.45691 -9.04276e-19)
(-1.08287 5.49488 1.23038e-17)
(0.697753 0.601511 6.08279e-20)
(0.733816 0.107903 0)
(0.802737 0.121052 2.14639e-16)
(0.476961 -1.20873 0)
(0.759229 -0.967248 4.78002e-20)
(-0.277884 -0.885892 -6.53541e-17)
(-0.300184 -1.26144 -3.65147e-17)
(0.043616 3.19948 -6.6633e-17)
(0.184535 3.22441 0)
(0.424015 -0.872241 3.08096e-17)
(9.563 1.18417 0)
(-0.533591 -0.313838 3.72888e-17)
(10.4903 0.124494 -8.54013e-17)
(-0.360826 -1.09996 0)
(1.40599 5.82964 -3.50933e-16)
(-0.555375 5.12214 6.84901e-18)
(-0.31758 -1.46296 3.63163e-17)
(1.69839 -0.119676 0)
(0.380267 -1.37448 -3.18086e-21)
(0.513597 -0.521298 -1.22951e-16)
(0.455847 -1.03666 5.43932e-17)
(-0.468253 0.869055 -1.35074e-16)
(-1.01237 0.274943 9.16499e-19)
(-0.530918 -1.58673 0)
(-0.276978 -0.414044 1.56815e-16)
(-0.429875 -1.45234 0)
(0.64993 -0.760235 3.74668e-17)
(0.663833 -0.173286 -1.03209e-16)
(8.62041 0.169212 4.10514e-17)
(7.87574 0.158481 -1.19067e-16)
(0.702545 -0.333469 5.51999e-17)
(0.633339 -0.946645 -1.44137e-17)
(-0.480199 -1.43209 1.7551e-17)
(-0.441747 -1.56745 -3.32812e-17)
(0.649437 0.821578 3.83031e-17)
(0.827107 -0.159266 0)
(-0.158539 -0.447674 3.09844e-16)
(2.93757 3.94796 0)
(0.727614 0.210684 -1.31757e-16)
(0.60194 2.40118 1.63246e-16)
(-0.126919 -0.727535 1.50777e-16)
(1.50627 1.22052 0)
(-1.36955 0.375516 3.54409e-17)
(-0.242598 -0.330862 5.42942e-17)
(0.703519 0.217393 2.61161e-17)
(9.73193 0.0985081 0)
(-0.404327 -1.22187 0)
(0.470944 -0.924155 6.66033e-20)
(0.800548 -0.476322 -4.38377e-17)
(-0.05353 0.0542877 2.10781e-16)
(8.11185 -0.0390881 3.89687e-17)
(-0.502179 -1.54829 6.43612e-17)
(0.147204 0.471761 2.98343e-17)
(-0.547467 -0.566241 -5.12075e-17)
(0.456284 0.909872 -7.62377e-17)
(-0.0307536 -0.729638 -1.5713e-16)
(8.02663 -0.0369952 -4.98095e-19)
(9.2099 1.17691 4.2438e-17)
(0.0323042 -0.116828 -3.28886e-16)
(0.663308 -0.116349 0)
(0.225335 1.32173 0)
(0.796643 3.61077 6.25311e-16)
(-2.20774 0.435878 -1.07907e-16)
(-1.33651 0.211947 -3.94085e-16)
(-0.379725 -1.01692 0)
(9.63895 0.929541 1.20128e-16)
(0.953719 0.779728 0)
(0.770427 0.111169 1.38797e-16)
(-1.63831 -0.427648 -4.59398e-16)
(-0.272061 -0.108083 1.71723e-16)
(1.86715 2.28753 0)
(-0.288664 -0.226172 9.49088e-18)
(1.46702 6.59246 0)
(-0.340509 0.0975457 2.49644e-16)
(-0.539701 -1.57713 9.30804e-17)
(-0.621207 -2.05874 8.47312e-17)
(0.740792 0.0197441 -1.36516e-16)
(8.69818 2.341 -2.67075e-17)
(-0.00648413 -0.122634 -4.37327e-18)
(9.73146 0.0785339 2.018e-16)
(-0.545297 -0.569343 0)
(0.644968 -0.147789 -1.83177e-19)
(2.03738 0.444842 -1.81651e-17)
(0.865553 -0.161259 0)
(-0.263151 -0.490874 2.99192e-16)
(9.7927 0.993133 0)
(0.750905 -0.438855 3.8582e-18)
(10.7295 0.435173 -2.99827e-18)
(1.60107 1.56264 0)
(1.58522 4.71137 -7.34471e-17)
(10.0002 0.084378 -9.96464e-17)
(9.72319 1.22857 0)
(9.57778 1.50891 -4.74384e-18)
(0.757357 -0.120244 0)
(0.00981915 0.262158 -8.32519e-17)
(0.34296 -0.676361 -1.6125e-17)
(9.68955 0.839157 6.47844e-18)
(1.51611 -0.656116 -1.64354e-16)
(-0.299485 -0.606048 -1.93359e-16)
(0.109838 -0.365645 -3.92492e-16)
(0.942214 -1.22526 -3.1824e-17)
(0.827051 0.200827 -5.64942e-18)
(0.765065 0.523929 6.13685e-19)
(-0.377592 -0.635872 -8.22439e-17)
(0.287354 -0.137725 0)
(0.994987 -1.20631 9.63724e-20)
(-0.190417 0.259819 5.33365e-17)
(5.69367 1.25256 -4.1039e-17)
(6.95745 2.36257 5.73113e-18)
(-0.344825 -0.638398 -1.31774e-16)
(-0.872611 0.0434684 0)
(0.519886 0.734365 -1.54692e-16)
(6.34545 1.75161 0)
(9.74259 0.729669 -1.20511e-17)
(0.122759 5.48869 0)
(0.304979 2.71294 4.16957e-17)
(0.633166 0.932863 -1.00492e-16)
(-0.438388 -1.11058 -1.13215e-20)
(1.36637 -1.7201 7.39019e-17)
(2.09662 0.616938 0)
(-0.394639 0.695846 2.82424e-16)
(2.07943 -1.6888 -4.42417e-17)
(0.191552 -1.10942 -4.42747e-20)
(6.55923 1.63997 -5.80005e-17)
(1.34461 -1.94177 6.12968e-17)
(0.0405974 0.0667933 8.61905e-17)
(-0.510707 -1.24951 -1.15476e-17)
(9.73704 0.0538564 0)
(-0.169277 0.348858 4.80356e-17)
(-0.510874 0.866067 -9.19529e-17)
(-0.501618 0.131914 -1.17962e-16)
(9.74502 0.0468484 -4.21928e-17)
(1.51652 0.859705 5.5002e-17)
(-0.500357 -1.38634 3.19868e-17)
(1.28149 -1.60614 -5.86435e-17)
(9.05309 1.19367 3.39819e-17)
(8.87407 1.64434 1.8842e-17)
(-0.669607 0.745702 2.34712e-16)
(0.850068 0.134772 -1.92795e-17)
(0.0951273 1.27626 0)
(9.76087 0.0593898 1.66879e-16)
(-0.354288 -0.572654 3.12395e-16)
(0.163039 -1.38015 -1.71861e-17)
(0.638197 0.657693 0)
(0.783681 0.0908278 3.21718e-17)
(0.907344 3.09951 -6.40996e-17)
(0.867946 0.750115 5.93746e-17)
(-0.81241 0.869951 2.65704e-16)
(-1.90178 -0.596091 0)
(1.34298 0.49568 2.23007e-17)
(9.31282 1.77597 3.98174e-17)
(8.62726 1.01411 0)
(0.783591 2.64236 8.84285e-17)
(-0.519861 -1.34818 -5.76807e-17)
(9.73469 0.0746048 7.49854e-17)
(9.90215 0.182351 -2.04455e-17)
(0.169726 -0.646387 -2.45167e-16)
(-0.42443 -0.847287 -3.50549e-16)
(0.59708 0.00233407 1.92263e-17)
(0.157252 -0.228384 9.04978e-17)
(-0.643119 0.488439 -3.27551e-16)
(-0.589039 0.399075 -2.41661e-20)
(9.74321 0.146699 0)
(0.373454 -0.271291 1.57113e-16)
(10.0134 0.0906513 3.4997e-17)
(-0.159937 -0.458308 -5.53193e-17)
(-0.461161 -1.0084 1.28919e-16)
(0.406342 0.265984 -4.75149e-17)
(0.0446336 -0.12821 -8.36513e-17)
(9.75803 0.094495 -2.34816e-17)
(-0.570973 0.619242 -1.70089e-16)
(0.413036 0.0180323 -2.2755e-17)
(8.57495 0.267076 0)
(8.7263 0.715138 7.45008e-17)
(1.6253 3.19893 4.59392e-17)
(2.12277 1.7077 1.28194e-16)
(0.93927 -0.997737 0)
(8.85774 1.98365 -2.85113e-17)
(0.268163 0.367699 -1.4982e-16)
(-0.18118 0.07216 1.52067e-18)
(0.438219 2.04724 -2.36739e-17)
(-2.40449 -0.0327245 1.49057e-17)
(-0.391806 -1.71016 -1.60211e-16)
(0.445737 0.120476 -7.50569e-20)
(-0.520263 -1.8797 2.88896e-16)
(0.614997 0.483998 -3.93795e-17)
(0.116053 -0.326928 0)
(-0.7865 -0.387867 1.29377e-16)
(7.18753 0.103716 2.0531e-17)
(0.51519 0.153094 0)
(0.741342 0.303672 -1.80689e-17)
(-0.325537 0.213198 -6.26065e-17)
(-0.460999 -1.13946 9.56219e-17)
(1.61753 -1.9266 -2.72987e-17)
(0.43015 -0.0717917 -6.78437e-17)
(-1.00726 -0.606692 2.61901e-16)
(9.75469 0.121864 0)
(8.94862 1.22492 -5.50358e-17)
(0.772311 0.407274 0)
(1.63754 -1.62311 1.08491e-16)
(9.34959 1.01252 -6.03564e-17)
(1.62626 -1.791 5.45891e-17)
(-0.0195803 0.544619 2.85958e-16)
(4.73095 2.84547 8.98143e-17)
(8.79184 1.31108 -2.95591e-19)
(-0.274529 -0.230888 -1.75684e-16)
(10.0079 0.104789 -1.00028e-17)
(5.51809 0.326986 2.24063e-16)
(-0.4495 -1.73163 2.00666e-16)
(-0.0477086 0.438027 3.77205e-18)
(1.31642 -1.33838 -7.53676e-17)
(-0.0698069 -0.616362 -3.71722e-17)
(0.559586 0.93689 -9.06767e-17)
(8.09105 0.304267 5.7416e-21)
(0.284373 -0.523612 2.79316e-16)
(0.242769 2.43638 -1.06359e-16)
(8.81268 1.21937 -8.27678e-19)
(-0.523275 0.339835 7.41169e-17)
(8.48014 0.336444 0)
(9.43542 0.143455 2.05291e-17)
(9.72037 0.101782 1.14761e-17)
(-1.14902 4.9431 1.31353e-16)
(-0.277429 -0.46325 -3.817e-16)
(7.65567 0.300038 -2.12551e-17)
(0.17929 -0.599835 0)
(0.459665 1.30339 1.05873e-16)
(2.03239 0.161101 -2.42381e-16)
(0.654193 -0.204413 0)
(-0.557358 -0.912425 0)
(-0.262003 0.132828 1.42155e-16)
(2.52996 0.170455 2.25873e-16)
(2.93481 0.199185 0)
(-0.29568 3.91798 -1.70935e-16)
(9.44568 0.906103 -6.52665e-18)
(-0.463971 0.181973 1.5721e-16)
(0.0304851 -1.50776 1.01408e-16)
(-0.221984 -0.196783 0)
(-0.582023 0.312877 -3.11045e-16)
(0.587899 0.308011 1.4669e-16)
(0.417686 1.64862 1.18893e-16)
(5.90151 -0.263173 0)
(-0.58965 0.248463 0)
(5.24083 0.103714 0)
(8.91666 0.357548 7.10202e-18)
(9.06314 1.54588 9.97225e-18)
(10.3813 0.712694 -1.23587e-17)
(9.29744 0.883906 6.73028e-17)
(2.79848 -0.801072 1.57762e-16)
(0.539041 2.33218 4.83376e-17)
(8.9439 1.31147 -1.22149e-16)
(3.37074 0.204263 0)
(4.13296 0.172871 4.47349e-17)
(-0.561822 0.292213 0)
(-0.747921 0.337736 -1.0407e-16)
(9.94305 0.0476686 5.36335e-18)
(10.8909 0.050457 0)
(9.31544 0.10179 4.95245e-18)
(6.88884 0.529328 -1.50285e-16)
(2.48517 -0.208025 -2.82551e-16)
(6.83617 0.961761 1.13092e-16)
(4.48038 4.45364 0)
(3.0064 5.31069 1.5965e-18)
(9.45513 0.00311201 9.38619e-17)
(1.99266 3.11875 -1.42633e-16)
(0.866596 0.211059 -5.70132e-18)
(2.18773 6.44359 -3.39479e-17)
(5.41426 0.162593 6.24586e-19)
(3.78348 0.195046 7.26558e-19)
(-0.525576 -1.66668 -3.59173e-19)
(0.818936 5.9633 0)
(0.267988 0.169808 1.52923e-16)
(1.2418 -1.5226 1.21961e-16)
(0.00351534 -0.125283 -1.64123e-16)
(4.97489 0.0969151 0)
(0.10408 -0.105077 8.32424e-17)
(0.87175 1.70526 2.87509e-17)
(0.0928956 -0.491419 -1.48494e-16)
(2.62099 -1.28457 -1.27472e-17)
(2.21135 0.0892173 -8.95562e-17)
(-0.756806 0.272168 5.25026e-17)
(4.43812 0.144139 -4.62957e-17)
(0.0876716 2.71073 0)
(-1.22759 -0.128292 1.35254e-16)
(3.46065 2.49724 -4.26243e-16)
(0.17845 0.311932 -8.70515e-17)
(1.51706 -1.19943 -1.04893e-16)
(-1.54222 0.676486 -1.09005e-19)
(6.16096 0.449754 -1.22172e-18)
(-0.518962 0.20664 1.59768e-16)
(9.51884 0.810888 0)
(1.59532 0.0425698 0)
(3.27822 1.65663 -9.15503e-17)
(9.99407 -0.00865226 2.55324e-18)
(9.83289 0.234969 0)
(0.312786 0.00211088 -8.02627e-17)
(0.85268 -1.6259 0)
(0.156595 4.08784 -1.07941e-16)
(9.75209 0.114218 2.30258e-17)
(-0.276598 -0.863051 1.89563e-16)
(0.40381 0.457229 0)
(8.67861 1.16369 2.6207e-17)
(1.10582 -1.78552 -8.91717e-17)
(0.309761 -0.08699 7.62325e-17)
(1.8921 0.711273 -1.58731e-16)
(1.62356 7.65045 9.26455e-17)
(0.265572 0.836496 -3.20621e-17)
(1.81931 4.11593 3.21774e-16)
(-0.178847 0.919624 0)
(9.62213 0.16156 -7.70736e-17)
(9.72403 0.0789968 -2.49787e-18)
(1.25043 3.37468 -7.1703e-17)
(0.0324685 -0.261833 8.65961e-17)
(2.43974 -1.63905 -1.05394e-16)
(6.1111 0.0466897 3.00514e-17)
(5.62427 0.216171 -4.15617e-17)
(4.59238 -0.294957 -1.87583e-16)
(5.20071 0.169615 0)
(5.5641 0.0550286 -1.37919e-16)
(7.1964 -0.0464952 0)
(6.06315 -0.0791838 3.43979e-17)
(4.71464 0.116394 5.31079e-18)
(0.11763 -0.282764 -7.67271e-16)
(1.27333 0.209047 -3.21691e-16)
(11.0849 0.445477 4.72572e-17)
(1.2514 -0.012746 -2.82254e-17)
(0.425449 0.671024 2.10882e-17)
(0.208473 -1.1 5.15589e-16)
(0.247558 -0.247375 -1.37436e-19)
(-1.25993 -0.536386 0)
(0.183135 0.230525 -1.85125e-16)
(1.84903 -0.561342 -2.9711e-17)
(0.221374 -0.0853799 0)
(-1.72485 0.36757 2.36796e-16)
(8.96845 0.540279 2.74213e-16)
(-0.115924 -0.970428 -2.05976e-16)
(8.24705 -0.010723 3.77508e-17)
(-0.690134 0.0515058 -6.00204e-17)
(-0.351771 -1.23685 -1.08138e-16)
(9.59192 0.70917 0)
(8.53302 0.87801 -3.78964e-17)
(10.3251 0.447087 0)
(5.88057 0.116173 0)
(0.975104 3.84695 1.42745e-18)
(8.57957 1.05111 1.09852e-19)
(1.27611 -0.983938 3.1056e-17)
(1.14504 0.276365 -3.57717e-16)
(0.99138 0.260728 2.9494e-16)
(9.61598 0.0318702 9.9245e-18)
(0.0157608 -0.553776 1.22822e-16)
(0.984899 0.172958 2.43634e-16)
(0.870866 0.564797 1.38835e-16)
(-0.890242 0.248225 -2.76297e-16)
(3.17979 4.80443 3.33936e-17)
(-0.197101 0.0612045 2.2596e-16)
(1.159 1.13814 -4.55083e-17)
(1.29528 3.88008 0)
(9.86495 0.225107 0)
(9.39913 0.0101777 5.41788e-17)
(9.71105 0.0575108 -7.90073e-17)
(-0.493668 0.196351 -2.04528e-16)
(1.2557 -1.06451 -3.03309e-17)
(-1.03057 0.662179 2.86994e-17)
(2.01531 0.160059 0)
(-0.221806 0.782875 0)
(9.83103 0.251897 5.89179e-17)
(8.35854 1.73985 0)
(0.33749 -0.151865 -7.51897e-17)
(-1.09682 -0.281321 -2.16956e-16)
(8.48484 0.400163 1.50626e-17)
(1.73782 7.21663 0)
(-0.524551 0.318896 2.64673e-16)
(0.808659 -0.127319 0)
(-0.130098 0.422704 1.6817e-16)
(8.46722 2.19352 -9.29148e-17)
(-0.498978 1.04786 0)
(1.9854 0.158488 -9.66284e-17)
(-0.934172 -1.55951 -5.8692e-17)
(9.71791 0.0610196 -7.09192e-17)
(-0.0637598 0.0265923 1.75052e-16)
(-0.0294769 0.357812 0)
(-1.19156 0.863653 6.57563e-17)
(-0.737788 0.83725 -6.57228e-17)
(10.4973 0.0934307 0)
(-0.232305 0.505051 0)
(-0.375454 0.139055 2.229e-16)
(-0.287219 0.77071 -1.11668e-16)
(0.471122 0.903053 0)
(6.7825 0.0748106 1.71174e-16)
(9.19697 0.135804 0)
(-0.851092 5.61889 -1.23879e-17)
(3.45597 1.48665 -9.37022e-17)
(9.65751 0.131282 5.80217e-17)
(-0.144231 -0.121512 -1.93826e-16)
(4.31448 1.83056 -2.57669e-16)
(-0.00462806 0.396796 -1.12019e-16)
(1.70571 -0.851029 0)
(-0.510956 -1.95735 -1.83347e-16)
(2.46395 0.0533042 2.49539e-17)
(-0.190077 -1.19075 0)
(-0.0725947 -0.893356 -1.70415e-17)
(-0.477759 -1.53958 1.60124e-16)
(-0.463724 -1.38572 6.20729e-17)
(1.56949 0.069686 0)
(1.8592 -0.000369375 6.49138e-19)
(11.1536 0.180153 -4.43535e-17)
(-0.275793 0.0810642 3.66794e-17)
(-0.278553 0.755534 4.81316e-16)
(-1.35839 -0.115131 7.92755e-17)
(-0.52082 0.470748 3.2521e-16)
(9.71553 0.0810474 5.52586e-17)
(0.136472 3.83614 0)
(1.40074 -0.104696 1.86356e-18)
(-0.445116 -1.61215 -1.63839e-16)
(0.118618 -0.455883 -2.88025e-16)
(-0.295815 -0.530137 -9.25698e-17)
(9.37364 0.0271622 9.49004e-20)
(1.11526 2.05782 0)
(1.4787 0.382448 4.47825e-18)
(-0.479695 -1.65206 -8.15539e-17)
(9.9174 0.228974 2.60811e-17)
(-0.627919 0.299676 2.22378e-16)
(9.70611 0.0367912 1.56984e-21)
(9.73001 0.132548 0)
(7.7122 0.185444 4.51572e-17)
(0.517896 0.729518 0)
(5.79092 -0.0452978 -1.84266e-16)
(0.225555 1.07419 -1.72337e-16)
(1.99212 0.078826 0)
(0.527026 1.2658 -7.47106e-17)
(8.44179 1.38208 -1.84413e-17)
(-0.0116857 -0.0421713 1.13635e-16)
(-0.0298044 0.0947954 -1.05223e-17)
(0.0799141 -0.149917 0)
(0.0606451 -0.00810652 1.03083e-17)
(0.0460486 0.154157 2.23586e-17)
(0.0498687 -0.260511 3.9271e-17)
(0.0177309 -0.318054 -8.15309e-17)
(-0.182954 -0.30656 1.91836e-16)
(0.215886 -0.0350394 0)
(-2.00343 -0.148079 2.45725e-16)
(9.68224 0.0719197 1.01537e-17)
(-0.0029512 -0.330631 3.72947e-20)
(-0.232419 0.640337 0)
(0.0431282 0.0668208 7.39628e-17)
(0.405466 -2.66668 1.20756e-18)
(-0.0687059 1.09164 -1.89671e-16)
(0.672304 0.541907 -3.85236e-18)
(-0.0459117 0.0818038 -2.07115e-16)
(-0.139957 0.138427 -9.18509e-17)
(0.00180048 1.0572 -1.05046e-16)
(0.15082 3.05956 4.79205e-17)
(0.0401929 -0.337006 3.1541e-16)
(1.82323 4.54326 0)
(0.489261 -0.621762 -1.54985e-16)
(-0.0194275 -0.32388 -1.16782e-17)
(-0.310076 1.02821 3.20191e-17)
(-0.13297 -0.559963 -1.01337e-16)
(-0.879343 1.01905 -3.37527e-17)
(0.9655 2.98177 1.30463e-16)
(0.342779 1.10161 7.20904e-17)
(-0.923361 -0.356506 1.1016e-16)
(0.788536 0.255748 1.94638e-18)
(0.533492 -0.106427 -2.33835e-17)
(-0.0652097 -0.055835 1.89241e-16)
(-0.0323116 -0.288119 -2.2757e-17)
(-1.83615 0.492733 -5.67635e-17)
(-0.00311385 1.18297 0)