/*--------------------------------*- C++ -*----------------------------------*\
| =========                 |                                                 |
| \\      /  F ield         | OpenFOAM: The Open Source CFD Toolbox           |
|  \\    /   O peration     | Version:  v1912                                 |
|   \\  /    A nd           | Website:  www.openfoam.com                      |
|    \\/     M anipulation  |                                                 |
\*---------------------------------------------------------------------------*/
FoamFile
{
    version     2.0;
    format      ascii;
    class       volScalarField;
    location    "0.6";
    object      nut;
}
// * * * * * * * * * * * * * * * * * * * * * * * * * * * * * * * * * * * * * //

dimensions      [0 2 -1 0 0 0 0];


internalField   nonuniform List<scalar> 
1431
(
0.00461924
0.0121468
0.00100576
0.0015601
0.00157627
0.00865437
0.0012227
0.00943074
0.00805595
0.000629047
0.00418388
0.0121477
0.0115101
0.00186926
0.00197111
0.0010001
0.00195938
0.00114522
0.00189158
0.00142171
0.00552483
0.0040076
0.00626346
0.0154422
0.00662681
0.00604229
0.00371898
0.00192697
0.000835151
0.000755959
0.00207298
0.0024679
0.00191222
0.00105709
0.0108553
0.00093311
0.0129908
0.000668999
0.000590121
0.00221155
0.00607324
0.00821735
0.0097894
0.000737045
0.00346724
0.00192004
0.0028598
0.00352727
0.00159048
0.00126287
0.00827107
0.000817775
0.0090317
0.0133183
0.0115709
0.00430689
0.000997921
0.0138358
0.00177567
0.00126767
0.00181381
0.000477415
0.0005159
0.000510701
0.000280874
0.000346153
0.00113519
0.000470407
0.000918799
0.0012627
0.0040158
0.00105369
0.000773179
0.000738261
0.00142953
0.00108786
0.000901432
0.000422575
0.000483635
0.00101847
0.00172031
0.000921761
0.0120987
0.00346103
0.00622019
0.00407338
0.00337609
0.0036347
0.00977891
0.0124443
0.00182366
0.00153274
0.000811418
0.00102411
0.0107553
0.000706315
0.0122031
0.0182297
0.00066935
0.000897252
0.00590923
0.000559382
0.00249149
0.00127827
0.000597195
0.00237573
0.00286686
0.0033966
0.00485782
0.00215703
0.00131391
0.0129086
0.00139724
0.00508028
0.0127508
0.00137977
0.00127536
0.000900996
0.000771498
0.000425286
0.00135657
0.00190039
0.00231229
0.00123707
0.00275755
0.000389743
0.000927987
0.00307569
0.0013891
0.0063568
0.00133278
0.00079787
0.00734367
0.00144044
0.00173482
0.00119641
0.00123905
0.000825393
0.0123622
0.000405876
0.000423785
0.00199041
0.00149007
0.000923041
0.00614697
0.00177327
0.000578043
0.00736216
0.000888465
0.0013327
0.000805663
0.00119857
0.0023451
0.000807756
0.00326975
0.00121962
0.00937759
0.0136067
0.0127715
0.00614606
0.0156026
0.0133423
0.00207
0.00501744
0.00289879
0.00441535
0.00423295
0.0118352
0.00106709
0.016503
0.0160457
0.00817171
0.00216762
0.0127479
0.0134068
0.00874539
0.00656679
0.00591283
0.00925737
0.0108423
0.000353992
0.000879193
0.00540157
0.019
0.00629355
0.00125532
0.00157269
0.014804
0.00255888
0.00687328
0.00247176
0.00253193
0.00258023
0.00373686
0.000801411
0.0142755
0.0178226
0.00961566
0.00104906
0.00171359
0.00857437
0.00307712
0.00423437
0.0040489
0.0108393
0.00259073
0.00235309
0.000666731
0.0143518
0.00252335
0.00208186
0.00121943
0.00286731
0.00237466
0.0117687
0.00144034
0.0027253
0.0097631
0.00543153
0.00407961
0.00307788
0.00565742
0.00253926
0.00428834
0.00340121
0.0165504
0.00450364
0.0174784
0.00269441
0.00309879
0.00589502
0.00206578
0.00256889
0.00249359
0.00259014
0.0174236
0.00288208
0.00268304
0.00234893
0.00643587
0.00668595
0.00971839
0.0153954
0.0027049
0.00259676
0.00388938
0.00280331
0.00399944
0.00323935
0.00117164
0.00278766
0.0123746
0.00600518
0.00215837
0.00256051
0.00852303
0.00579194
0.0176024
0.0182313
0.00261811
0.00153594
0.0122389
0.00527648
0.00601855
0.00362803
0.00483541
0.0118134
0.00453934
0.00347474
0.000669985
0.0051572
0.00286997
0.0110221
0.0051574
0.0143386
0.0020126
0.0135661
0.00354677
0.000969107
0.00143222
0.00947533
0.0142051
0.00175634
0.00554236
0.00921016
0.017476
0.00819556
0.0185888
0.00539487
0.0110837
0.000596151
0.0107636
0.0173137
0.00685665
0.00273951
0.00247041
0.00188916
0.00141417
0.00154548
0.00100904
0.00860848
0.000370958
0.00981723
0.00708056
0.00343232
0.00545334
0.0122764
0.00250391
0.00962116
0.015304
0.0138067
0.000348263
0.000458456
0.00139715
0.00950634
0.0168448
0.00982271
0.0103923
0.001463
0.0143534
0.0112696
0.0157009
0.000859894
0.00430516
0.00903756
0.000689744
0.000592253
0.00876392
0.0149149
0.00259401
0.00111889
0.00197445
0.00900977
0.00475856
0.00644643
0.00780909
0.00881202
0.0177093
0.00866658
0.00135982
0.000380153
0.00856783
0.0112425
0.00575598
0.00848135
0.00262155
0.0101843
0.0135243
0.0126955
0.00691041
0.00583776
0.00187004
0.00520947
0.0116591
0.00191614
0.00283394
0.00593438
0.0019113
0.0109182
0.00717051
0.00430605
0.00124967
0.00105431
0.00857623
0.00160432
0.00380119
0.00756019
0.0186394
0.00252538
0.0021057
0.00404629
0.00246919
0.011071
0.00867134
0.00616014
0.0194005
0.0123885
0.00259601
0.00907705
0.0197759
0.0144685
0.00795083
0.00153032
0.00183619
0.0178624
0.00913983
0.0104974
0.00796363
0.00847629
0.00897657
0.00701994
0.0104345
0.0102789
0.00492814
0.0176279
0.00665725
0.0134855
0.0136899
0.0070483
0.0100275
0.0120402
0.00640824
0.0177098
0.00876329
0.00283299
0.0126048
0.00827504
0.000464672
0.00821535
0.012376
0.0129655
0.00975978
0.0121005
0.0115882
0.00792672
0.00145222
0.0108608
0.000390439
0.00964181
0.0118004
0.00354454
0.0121143
0.00581627
0.0111888
0.0115181
0.00247927
0.001916
0.00310566
0.00178952
0.0142253
0.0159103
0.0160609
0.0158645
0.0160776
0.0157913
0.0156467
0.0158793
0.0153032
0.0155669
0.015384
0.00215103
0.0118576
0.00201238
0.00188141
0.00153045
0.00143184
0.00108612
0.00126677
0.00361858
0.00342745
0.00304503
0.00136378
0.00158956
0.00227122
0.00165727
0.00145712
0.00443252
0.0163684
0.00218813
0.00245981
0.0038822
0.0015536
0.0155001
0.00127932
0.00312145
0.00162231
0.00194708
0.0147547
0.00149545
0.0139245
0.000868496
0.000828661
0.00157175
0.00519098
0.0122597
0.0119286
0.00142698
0.00138949
0.0010367
0.000909588
0.00526918
0.00102904
0.0121386
0.000975597
0.000896606
0.00508263
0.00143982
0.000906177
0.00186973
0.0012572
0.0117562
0.000979298
0.00174377
0.00143298
0.00420034
0.00148125
0.00155405
0.0109906
0.00112302
0.00257584
0.00683669
0.00213327
0.00168046
0.000760055
0.0104348
0.0119011
0.0022023
0.00127968
0.00156156
0.00215765
0.00144377
0.00414531
0.00160942
0.00189202
0.000640637
0.00356508
0.00652767
0.00156523
0.0046363
0.0114096
0.00358126
0.00228938
0.00344389
0.00419227
0.00251404
0.00593286
0.00932342
0.00216795
0.00201944
0.000520394
0.00990949
0.00599728
0.00541911
0.00571331
0.0146261
0.00271364
0.00202892
0.00173913
0.00230301
0.0021179
0.0124285
0.00115844
0.00550991
0.00403353
0.00403528
0.00269525
0.00719816
0.0015691
0.0130511
0.0144396
0.0104428
0.000886166
0.00659445
0.0110827
0.000971027
0.00391398
0.00616993
0.00714345
0.00163593
0.00649005
0.0146004
0.00933743
0.0150601
0.00387618
0.00928638
0.00171001
0.0028821
0.00468089
0.0106887
0.009278
0.0106179
0.00854023
0.0154025
0.00209812
0.000460695
0.00845875
0.00489563
0.00176588
0.0150345
0.0161772
0.0109341
0.00708872
0.00383709
0.0108378
0.0113477
0.00311002
0.00258541
0.0053581
0.000513008
0.00320942
0.0132504
0.00163373
0.00800666
0.00800303
0.0034612
0.0141533
0.00430722
0.0106445
0.0162861
0.0134747
0.0016254
0.00467931
0.0118009
0.00487195
0.00934321
0.00689771
0.00181302
0.0116916
0.00204671
0.00191903
0.00551038
0.00228867
0.0100166
0.0147086
0.00540226
0.00875023
0.00463066
0.00627445
0.0101344
0.0108631
0.0140108
0.0100087
0.000480863
0.010719
0.00416623
0.0057707
0.0141942
0.00234141
0.010296
0.00417146
0.00728862
0.00713856
0.000298101
0.015159
0.0103882
0.0101689
0.00969463
0.00760745
0.00465915
0.00761666
0.00654049
0.016377
0.00585866
0.0116404
0.0016633
0.00414505
0.00873147
0.00872776
0.00433021
0.0108247
0.0106171
0.0115365
0.00160659
0.0108136
0.00225078
0.00767078
0.00736033
0.00609167
0.00682448
0.0139538
0.0170625
0.0137222
0.00816796
0.00672421
0.00755806
0.00356045
0.00255227
0.00341637
0.00829146
0.00173699
0.0112104
0.012926
0.00172043
0.0153652
0.0105394
0.00319677
0.00174531
0.00505221
0.0044105
0.00739089
0.0088977
0.00275555
0.0105762
0.00171636
0.000964917
0.00129268
0.01317
0.00530718
0.00232108
0.00115209
0.00551748
0.00282175
0.00538518
0.00107881
0.000896774
0.0152062
0.00156892
0.00387206
0.000797389
0.0111969
0.00136992
0.0104941
0.0113714
0.000995428
0.00174097
0.00181162
0.00150726
0.00146376
0.00856003
0.0107371
0.00645838
0.00143212
0.00313248
0.00320973
0.000952651
0.00509434
0.0109652
0.00342492
0.00424711
0.00524913
0.00573594
0.00258614
0.0120422
0.00960495
0.000628448
0.00882993
0.00398574
0.0106032
0.00355466
0.00461515
0.00132932
0.0159064
0.0126892
0.00579668
0.00638853
0.00310052
0.00547791
0.00169258
0.00169896
0.0062389
0.000769028
0.00767743
0.00632301
0.00403145
0.0152785
0.00632152
0.00438708
0.00169253
0.0052996
0.000859745
0.00210096
0.00594227
0.00961799
0.000879632
0.0162131
0.00525448
0.00757756
0.00116678
0.00804297
0.000367878
0.0183094
0.00558342
0.00349199
0.00149952
0.00188918
0.00288664
0.00106783
0.00126349
0.0119431
0.00446764
0.00899644
0.0024697
0.00460756
0.00587783
0.00684534
0.00838767
0.000781995
0.00242925
0.0121249
0.00210713
0.0106407
0.000866807
0.00921475
0.00134876
0.00123984
0.00986705
0.0057011
0.00989903
0.00224888
0.00948476
0.00519733
0.00188865
0.00246409
0.0130117
0.00249371
0.000746363
0.00570761
0.00275434
0.00556576
0.0100751
0.00230869
0.0049053
0.00175309
0.0157692
0.0152155
0.0118725
0.00257002
0.00938504
0.00187657
0.00561425
0.0180677
0.00438192
0.00732983
0.0108146
0.0115304
0.0173443
0.0134207
0.00238144
0.0146124
0.00596009
0.00135899
0.00510225
0.00841101
0.0145931
0.0013046
0.000776576
0.00900425
0.00199352
0.00228334
0.00103485
0.0150039
0.00180237
0.00163091
0.00227787
0.00968764
0.0140451
0.00271778
0.0152499
0.01187
0.0036473
0.0101132
0.00129361
0.00137944
0.00232308
0.0102751
0.0167933
0.00100965
0.0181011
0.00326623
0.0162946
0.00276918
0.00204487
0.00438024
0.00379578
0.00121634
0.000626346
0.00746401
0.00476064
0.00130954
0.00116033
0.00321626
0.0104345
0.00524871
0.00745571
0.0136549
0.0112586
0.0137771
0.000869347
0.0130803
0.0114754
0.0151329
0.0110896
0.0121551
0.00130004
0.00339045
0.00176524
0.00156097
0.00200445
0.0106515
0.00378513
0.0128532
0.00412802
0.00447496
0.00316183
0.0127605
0.0147734
0.00691389
0.000855125
0.000828929
0.000793468
0.000686077
0.000731162
0.000987924
0.00081853
0.00060332
0.00071393
0.000641487
0.000655131
0.000727297
0.00108219
0.000739866
0.000675238
0.000676945
0.000780142
0.000773011
0.000730965
0.000778058
0.000698057
0.000705315
0.000752632
0.000730805
0.0132211
0.0126054
0.001416
0.00488528
0.00631847
0.00371155
0.0018785
0.00699331
0.00231296
0.00215133
0.00276017
0.00167799
0.00127439
0.0165754
0.00447822
0.00146973
0.0142794
0.00412071
0.014434
0.00301018
0.00372342
0.01843
0.00128336
0.000742556
0.0105545
0.00986206
0.000928837
0.00227956
0.00993818
0.00150341
0.00388195
0.0125512
0.00695063
0.0039075
0.00723675
0.00817615
0.00157205
0.0006731
0.00220669
0.00413403
0.00906431
0.000927059
0.000758953
0.00619858
0.00959311
0.00144418
0.0036941
0.00207908
0.00116268
0.000506566
0.0100016
0.0131618
0.00999627
0.0021267
0.00155359
0.00464302
0.00597301
0.000684943
0.00277221
0.000759574
0.00932668
0.00270975
0.0014521
0.00120259
0.00321704
0.00137322
0.0136368
0.00138468
0.0158134
0.0120811
0.00271176
0.00102791
0.0109249
0.0123063
0.0177736
0.00117687
0.000838395
0.00617427
0.00265249
0.00121688
0.0106191
0.0026608
0.00705412
0.0129743
0.000713508
0.0122096
0.00376554
0.00272228
0.00443407
0.0033411
0.00282694
0.00335179
0.00355164
0.00429268
0.0154418
0.00118051
0.0107828
0.00554146
0.00115781
0.00394487
0.00306044
0.00221081
0.000792361
0.0108157
0.00978296
0.010184
0.000924165
0.0107731
0.0101106
0.00802028
0.00685347
0.0010523
0.000744355
0.000723568
0.0053
0.0127364
0.0150527
0.000757099
0.00793592
0.00202675
0.01466
0.0110228
0.00467948
0.00244177
0.00266878
0.0108307
0.00188639
0.00633
0.0115747
0.0103828
0.000710399
0.00317423
0.000632994
0.0107879
0.00718472
0.00216081
0.0133973
0.0110771
0.0112387
0.0107234
0.00174309
0.0115194
0.00563332
0.000977214
0.00246716
0.00606422
0.00375035
0.0107744
0.0133344
0.00966798
0.0134753
0.0133673
0.0143193
0.00104188
0.00127601
0.0146265
0.00203579
0.0113979
0.00229366
0.0149362
0.0140281
0.00199643
0.00072521
0.00187158
0.00175748
0.00171353
0.00227778
0.0020155
0.00192081
0.00185348
0.00193698
0.000406862
0.000518895
0.00043938
0.000413056
0.000351481
0.00045656
0.0102456
0.00280503
0.0146504
0.00234367
0.010631
0.000745408
0.00315428
0.0151399
0.00118793
0.00185647
0.0092984
0.000919999
0.0028798
0.00740282
0.000809242
0.00203336
0.00192943
0.0101209
0.016134
0.00302607
0.0110692
0.00342735
0.00300579
0.0103761
0.0165389
0.00301604
0.00111026
0.00399744
0.0140092
0.00139721
0.00574184
0.00701443
0.00127738
0.0108107
0.00124249
0.00289109
0.00571149
0.00067154
0.00388302
0.00215369
0.00120978
0.00375042
0.00140696
0.00130503
0.014997
0.0119324
0.000949474
0.00374407
0.00740791
0.00341067
0.000996645
0.00578148
0.0107034
0.00850774
0.00743839
0.0030398
0.0017056
0.00418214
0.00522008
0.00279911
0.0111646
0.00350033
0.00378713
0.0130219
0.000699282
0.00237709
0.0027406
0.000973418
0.0114671
0.00365064
0.00971146
0.00511931
0.00204835
0.00937252
0.0167857
0.00243613
0.00879506
0.00155242
0.00109563
0.00108292
0.00238145
0.00274715
0.00130943
0.0132071
0.0116979
0.0013484
0.00427275
0.00971463
0.00300079
0.0138112
0.00149045
0.00372258
0.00635449
0.00338638
0.0112469
0.00143632
0.0040103
0.00696819
0.00509056
0.0136307
0.0014347
0.000507551
0.00157324
0.00304836
0.00821524
0.0126023
0.0052359
0.0124725
0.00928987
0.00285287
0.017308
0.0016587
0.00394168
0.00499733
0.00254251
0.00134083
0.0121353
0.00446742
0.00126804
0.00289417
0.0104715
0.00189942
0.0137316
0.00779526
0.00457095
0.00409109
0.00111383
0.000831941
0.0114647
0.00339361
0.0136823
0.00776173
0.0115185
0.0118346
0.0102729
0.00183632
0.00339672
0.00195386
0.00131422
0.0108739
0.00194467
0.0106478
0.0198774
0.00226385
0.00577336
0.0105071
0.00772301
0.0103019
0.000798315
0.00214669
0.00501213
0.00215503
0.00107341
0.0047669
0.0047003
0.00536966
0.00156836
0.00861027
0.00265482
0.00530545
0.0104447
0.00918836
0.0104536
0.00659643
0.00885467
0.00312633
0.0103279
0.0107501
0.00354352
0.00193837
0.00216095
0.00282065
0.00494747
0.0104548
0.00712593
0.0106281
0.0107872
0.00143709
0.00204564
0.00261745
0.0103604
0.00143588
0.00193429
0.0123733
0.015558
0.0103957
0.0017037
0.0106339
0.0115149
0.00911364
0.00652521
0.00341749
0.000681506
0.00068058
0.00171473
0.00331702
0.00222623
0.0025786
0.00319694
0.0159733
0.00745989
0.00146398
0.00485634
0.0127982
0.00390181
0.00256469
0.00253984
0.0022304
0.0151406
0.00417806
0.00190356
0.00151509
0.0194054
0.00983806
0.01334
0.00166792
0.00318173
0.00379045
0.00658601
0.0100271
0.00143132
0.00411168
0.00417953
0.0190192
0.000581488
0.00732472
0.0127263
0.00126621
0.00373866
0.00677579
0.0115483
0.0141859
0.00194985
0.00497085
0.00106319
0.00816356
0.00156744
0.00186313
0.00743955
0.00312567
0.00951096
0.00111035
0.0145818
0.000845571
0.000971929
0.000673924
0.00656512
0.0050979
0.00282012
0.00168112
0.0153554
0.00197373
0.00453871
0.00155699
0.0107782
0.00241439
0.00228709
0.00241451
0.00356726
0.0038387
0.0101996
0.0187682
0.00395713
0.010396
0.00238056
0.00170927
0.00145682
0.00233488
0.00200584
0.0106156
0.00395667
0.00182397
0.00204425
0.00236884
0.0118837
0.00232399
0.00188732
0.00247365
0.00265332
0.00341342
0.00527982
0.0107564
0.00362825
0.00392908
0.00199299
0.00232695
0.00294815
0.00212881
0.00093947
0.0110826
0.00915449
0.00225323
0.00267121
0.00385531
0.00179831
0.00146066
0.00284511
0.00138492
0.00132113
0.00188302
0.00179499
0.00112755
0.00427012
0.0152333
0.00226363
0.00219026
0.0124625
0.00325601
0.0101261
0.0106458
0.00413942
0.00197266
0.00132072
0.00107079
0.00389658
0.000498837
0.00209779
0.000479827
0.000393561
0.000389475
0.00154128
0.00034161
0.000663298
0.000469787
0.00221181
0.00305136
0.00173606
0.00191352
0.000717944
0.00134453
0.00094549
0.00100138
0.00166738
0.000720484
0.000721699
0.00164138
0.00159805
0.000852913
0.000352183
0.0014629
0.00190838
0.00113371
0.000844951
)
;

boundaryField
{
    frontAndBack
    {
        type            empty;
    }
    wallOuter
    {
        type            nutkWallFunction;
        Cmu             0.09;
        kappa           0.41;
        E               9.8;
        value           nonuniform List<scalar> 
96
(
9.98716e-05
9.12008e-05
8.5485e-05
0.000196862
0.000199506
0.000196426
0.000136413
0.000128465
0.000108268
0.000181154
9.69636e-05
0.000159875
0.000119299
0.00020652
0.000169938
0.000194255
0.000194582
9.28038e-05
9.54831e-05
0.000145922
9.11508e-05
0.000152874
9.36577e-05
0.000205804
0.00018736
0.000102311
9.94576e-05
9.5326e-05
8.27987e-05
8.8085e-05
0.000117277
9.83179e-05
7.33536e-05
8.64042e-05
7.78913e-05
7.94902e-05
8.76867e-05
0.000127763
8.94152e-05
8.1712e-05
8.18805e-05
9.40852e-05
9.31178e-05
8.82768e-05
9.3843e-05
8.44636e-05
8.5308e-05
9.0891e-05
8.82849e-05
8.96692e-05
0.000110265
9.15661e-05
8.29724e-05
9.3092e-05
0.000168228
8.63102e-05
0.000138591
8.94791e-05
8.74212e-05
9.13661e-05
0.000214591
8.73191e-05
7.81334e-05
0.000243034
0.000230033
0.000256665
0.000225948
8.7682e-05
0.000212968
0.00020094
0.000196274
0.000255024
0.000227882
0.000217991
0.000211009
0.000219671
5.05501e-05
6.43091e-05
5.44477e-05
5.13505e-05
4.34645e-05
5.66168e-05
9.00207e-05
9.88798e-05
8.13966e-05
8.46468e-05
0.000166383
0.000101431
0.000220663
0.000219555
8.22125e-05
8.23764e-05
7.19344e-05
0.000221056
0.000130928
8.30101e-05
)
;
    }
    inlet
    {
        type            calculated;
        value           nonuniform 0();
    }
    outlet
    {
        type            calculated;
        value           nonuniform List<scalar> 9(0.0186394 0.0178624 0.00181302 0.0162131 0.0118725 0.00685347 0.00216081 0.00341067 0.0107034);
    }
    wallInner
    {
        type            nutkWallFunction;
        Cmu             0.09;
        kappa           0.41;
        E               9.8;
        value           nonuniform List<scalar> 
126
(
0.000202266
0.000150607
0.000206963
5.65241e-05
6.23902e-05
6.27418e-05
3.37842e-05
4.05425e-05
0.000136161
5.65116e-05
0.00010711
0.000146175
0.000428384
0.000122039
9.326e-05
8.71013e-05
0.000162931
0.000127841
0.000109026
5.17895e-05
5.83795e-05
0.000122866
0.000196831
0.000109396
0.000108423
0.00015973
0.000146044
0.000107992
9.28867e-05
5.18323e-05
0.000156719
0.00021641
0.000258472
0.000142881
0.000303938
4.72826e-05
0.000111995
0.000155312
9.32253e-05
5.02719e-05
5.27272e-05
0.000172198
0.000111845
6.98591e-05
0.000155237
0.000138311
9.6713e-05
0.000318186
4.16395e-05
0.00014668
0.000180814
9.65759e-05
0.000235078
8.05306e-05
0.000115807
0.000166077
7.08293e-05
0.000214178
0.000163921
0.000120222
4.56663e-05
4.2267e-05
5.41981e-05
0.00016213
8.49642e-05
7.28718e-05
0.000132337
0.000157992
4.67443e-05
0.000217055
0.000146105
0.000125207
5.65582e-05
4.85583e-05
8.11724e-05
6.8358e-05
6.30979e-05
0.000198285
0.00012889
0.000180255
9.64942e-05
0.000187406
5.68767e-05
0.000201678
6.25401e-05
0.00018859
0.000186066
5.83649e-05
3.53872e-05
0.000191829
0.000184818
0.000200127
0.000174176
4.59271e-05
0.000151765
0.000227845
6.03361e-05
0.000231378
9.92183e-05
0.000115426
0.000153471
0.000128433
6.07757e-05
5.8956e-05
4.83801e-05
4.72617e-05
4.17677e-05
5.64225e-05
0.000247071
0.000333434
0.000197986
0.000216487
8.55706e-05
0.000111814
0.000119091
0.000191625
8.68892e-05
8.65932e-05
0.000187867
0.000185295
0.000103624
4.25598e-05
0.000168908
0.000217398
0.000135624
0.000100614
)
;
    }
    procBoundary3to1
    {
        type            processor;
        value           nonuniform List<scalar> 
48
(
0.0122783
0.00480688
0.00602844
0.0099794
0.00347285
0.00363372
0.00480688
0.00869874
0.0160766
0.00187001
0.00187001
0.00199194
0.00199194
0.00284701
0.0036425
0.00183441
0.00151268
0.00166973
0.00151268
0.00143623
0.00251021
0.00206519
0.00143623
0.00211145
0.00151665
0.00136671
0.00220174
0.00206519
0.00292675
0.00143889
0.00143889
0.00533062
0.00533062
0.0160766
0.00143865
0.00296426
0.0122532
0.00151665
0.0144676
0.00304597
0.00284701
0.0148983
0.0160966
0.00143623
0.0037488
0.000994451
0.00344374
0.00284783
)
;
    }
    procBoundary3to2
    {
        type            processor;
        value           nonuniform List<scalar> 
29
(
0.00130204
0.00130204
0.00050423
0.000471138
0.000948003
0.000439109
0.000681081
0.00170432
0.00214679
0.00151506
0.00127733
0.00163977
0.000991996
0.00331524
0.00188736
0.0029711
0.00165934
0.00201948
0.00145714
0.0027068
0.0025066
0.00165934
0.000367735
0.00201948
0.00118472
0.000842208
0.00201948
0.00303992
0.00303992
)
;
    }
}


// ************************************************************************* //
