/*--------------------------------*- C++ -*----------------------------------*\
| =========                 |                                                 |
| \\      /  F ield         | OpenFOAM: The Open Source CFD Toolbox           |
|  \\    /   O peration     | Version:  v1912                                 |
|   \\  /    A nd           | Website:  www.openfoam.com                      |
|    \\/     M anipulation  |                                                 |
\*---------------------------------------------------------------------------*/
FoamFile
{
    version     2.0;
    format      ascii;
    class       volVectorField;
    location    "0.6";
    object      U;
}
// * * * * * * * * * * * * * * * * * * * * * * * * * * * * * * * * * * * * * //

dimensions      [0 1 -1 0 0 0 0];


internalField   nonuniform List<vector> 
1431
(
(0.229046 2.80779 1.19197e-16)
(1.21044 2.14061 2.79096e-17)
(0.644206 -0.18724 0)
(1.00136 -0.109943 2.15641e-16)
(-2.68365 0.0378021 0)
(0.738405 6.75133 1.84446e-16)
(0.985122 0.120209 5.06796e-16)
(0.394559 0.0382762 4.56943e-17)
(0.455595 6.62827 1.32294e-16)
(0.931955 0.0742446 4.73786e-16)
(2.75652 11.0493 2.0822e-17)
(5.25682 -0.626522 0)
(0.251635 1.6494 -1.73168e-16)
(-2.07926 0.102286 -5.07361e-16)
(3.68269 -0.345158 0)
(1.02267 0.155678 -4.47661e-16)
(4.44285 -0.166625 -2.34823e-16)
(-0.0443711 -0.558027 0)
(4.64998 -0.464643 -1.87026e-16)
(-1.55232 -0.57994 1.71318e-16)
(4.20701 10.4192 -7.1763e-19)
(-1.1688 0.124298 2.12595e-16)
(0.626479 5.44475 -1.48158e-16)
(11.5473 2.04426 -3.65565e-18)
(0.566972 6.45858 1.33128e-16)
(0.440049 0.649922 5.52132e-20)
(1.49907 10.9008 -2.1425e-17)
(3.14187 -1.4699 -3.24986e-16)
(-0.0812003 4.68975 -4.77277e-17)
(0.201532 6.58188 3.0432e-17)
(0.123796 7.35636 -8.29742e-17)
(0.0213906 6.03325 3.79949e-17)
(-0.0562823 7.38354 0)
(-1.05322 0.160517 -4.35702e-16)
(0.768146 5.47047 -2.60566e-16)
(1.50587 0.333343 0)
(-0.487861 5.58646 0)
(0.720424 -0.00568589 -3.13259e-19)
(0.431431 0.0687317 0)
(0.116807 6.14928 0)
(-0.300189 7.84927 -6.60865e-20)
(-0.511318 7.59102 1.18481e-16)
(0.229983 1.06915 -2.35289e-16)
(0.899441 0.222781 2.33798e-16)
(1.00839 6.42201 0)
(-1.34135 -1.03187 3.013e-16)
(0.232294 1.23856 2.41136e-17)
(1.05192 10.5964 -6.4406e-17)
(0.977832 0.157137 0)
(1.1751 0.0326071 0)
(0.904472 2.53866 0)
(0.849884 0.254806 0)
(0.738857 2.93332 2.94016e-16)
(1.33391 -0.23426 1.55359e-17)
(0.581027 1.39266 -1.951e-18)
(0.314342 0.592859 4.99738e-16)
(-1.09827 0.393326 2.01775e-16)
(3.22347 -0.77638 0)
(4.79374 0.154491 0)
(2.7526 0.0597276 3.78358e-16)
(2.7824 -0.65707 -1.26998e-16)
(0.645176 0.0131151 4.23468e-16)
(0.596819 0.0188374 0)
(0.620014 -0.0310931 0)
(0.331341 0.0422034 1.04327e-18)
(0.626353 0.0432627 -2.55138e-16)
(2.83796 -0.0106487 -2.25918e-16)
(0.740495 -0.0197898 -9.6798e-17)
(0.328634 -0.437509 -6.30157e-18)
(-1.54901 -0.323258 0)
(-1.20042 -0.752614 6.0268e-17)
(-1.27913 0.216379 -1.52135e-16)
(0.691183 -0.193459 1.3883e-16)
(-1.06759 0.00614594 3.53339e-16)
(-2.20678 -0.0948461 3.7568e-16)
(-1.96259 -0.586649 -4.84537e-16)
(1.55516 -0.443501 -2.24734e-17)
(0.699156 0.0146664 -1.95694e-16)
(0.954765 0.0495598 -3.08427e-16)
(0.480664 -0.578694 0)
(4.37016 0.0281746 -5.65478e-17)
(-0.0294811 -0.175869 1.28903e-17)
(4.34503 1.19749 -6.42561e-18)
(1.21497 1.71629 9.69302e-17)
(11.7043 0.697626 2.13697e-18)
(0.721642 -0.00476008 -1.1598e-16)
(-1.45561 -0.0191148 0)
(2.68612 0.608218 1.56452e-16)
(10.3958 0.205855 5.39361e-18)
(7.75328 1.0946 1.98794e-18)
(-0.478014 0.782907 -2.71078e-16)
(-1.40929 1.09273 2.70502e-16)
(0.794581 0.0903742 3.27313e-16)
(1.07388 0.266002 -1.54932e-16)
(0.283822 0.962918 9.11653e-18)
(-0.0696893 6.06046 0)
(1.75891 -0.663914 -7.36464e-17)
(4.08993 2.61377 -1.04852e-17)
(0.852286 0.152383 0)
(-0.477399 0.0373953 -7.09461e-19)
(0.28223 1.50744 1.71625e-16)
(0.755151 0.0630102 -7.37871e-16)
(4.00635 0.0264691 0)
(1.87762 -0.843569 -2.63024e-16)
(0.833189 0.0721698 3.84144e-16)
(0.148217 5.97118 1.28956e-17)
(0.0532889 5.36049 0)
(1.1894 7.77082 6.74866e-18)
(0.783386 3.97977 2.76762e-16)
(4.5702 0.102652 0)
(2.38665 -0.25648 -5.44809e-16)
(0.245966 2.37632 -3.11948e-16)
(0.37407 -0.267431 5.6814e-16)
(-0.209376 6.81656 -8.89767e-17)
(1.00493 1.63666 -8.81933e-19)
(-2.50461 -0.30174 6.48389e-17)
(-1.81202 0.234888 0)
(0.964099 -0.131843 -2.4465e-16)
(1.20541 -0.0594556 0)
(0.61409 0.0318845 0)
(-0.524211 -0.454165 -2.38502e-17)
(3.78265 0.15573 6.63041e-17)
(-0.558072 0.118319 2.47423e-16)
(-2.1808 -0.181102 1.51086e-16)
(-2.02927 -0.580557 0)
(1.07235 0.055037 1.82511e-16)
(0.832254 -0.245534 0)
(2.24468 -0.187009 4.31496e-16)
(1.32323 -0.791944 -2.83086e-16)
(-0.903598 0.290967 4.23385e-16)
(3.85646 -0.317339 3.24203e-16)
(-0.32313 -0.283411 -1.12753e-16)
(-0.631506 0.381788 -1.03902e-16)
(3.44817 0.0923291 8.59287e-17)
(-1.44742 0.0673275 0)
(0.997133 -0.16664 -3.5955e-16)
(1.07833 0.161428 1.64073e-16)
(0.938756 0.0465074 0)
(9.4647 -0.394264 3.054e-17)
(0.533376 0.0720122 2.19906e-16)
(0.253982 -0.0168428 0)
(0.0775026 7.40778 0)
(4.63014 -0.0195553 6.98973e-17)
(1.54263 -0.54412 0)
(0.652261 4.11018 1.79962e-16)
(-0.102304 7.47111 -6.3334e-17)
(0.371722 -0.145283 -2.19957e-16)
(0.449632 2.17822 -3.33832e-16)
(1.10941 0.173255 3.28672e-16)
(1.15775 -0.588528 1.66809e-16)
(0.696124 -0.0849561 2.58716e-16)
(-0.829222 -0.333876 8.46246e-17)
(0.0865015 6.06012 -4.84713e-20)
(1.18685 -0.0258415 -2.18106e-16)
(0.00429644 5.86845 -3.71702e-17)
(1.07799 0.18732 -4.09282e-16)
(10.6167 0.246574 -2.12967e-18)
(2.33341 3.67509 6.43465e-17)
(6.09521 1.25505 -5.12536e-18)
(-0.659587 0.0549449 2.55881e-17)
(8.78607 2.71453 -2.77677e-18)
(0.121019 2.18447 1.84104e-16)
(-1.32274 -0.305573 -1.71022e-16)
(-1.08062 -0.0167715 1.07781e-17)
(0.0133827 -0.223398 -5.13247e-17)
(-0.0348453 3.99035 -1.57459e-16)
(-0.203879 5.37639 4.84218e-16)
(0.715929 1.13042 8.34102e-18)
(1.05672 0.0498609 2.50553e-16)
(2.7036 2.29203 2.32464e-17)
(8.98061 1.54813 -5.87809e-18)
(0.527029 2.92876 0)
(0.216702 6.53452 -3.25881e-17)
(9.45434 -0.112923 3.46514e-18)
(1.67744 2.523 -1.09976e-17)
(10.8978 0.0743176 0)
(-0.817781 0.245494 0)
(0.835001 7.17106 -1.03899e-16)
(0.805532 2.95125 -2.84642e-16)
(0.865763 5.09377 -2.83045e-17)
(0.679476 0.0323172 -4.82692e-16)
(0.624651 0.13628 0)
(0.811284 2.32438 7.78049e-18)
(9.87061 2.81021 -2.5558e-18)
(0.991536 7.09406 7.42188e-17)
(0.0651211 3.82417 0)
(0.965903 3.8541 -1.01101e-17)
(2.30249 2.97547 -4.15805e-18)
(0.409975 6.47006 5.09351e-17)
(11.2159 -0.258648 1.98858e-17)
(-0.0878772 7.02392 -5.24037e-17)
(0.307578 6.11698 -3.29041e-17)
(0.171644 6.08501 -5.25522e-17)
(0.973183 6.89421 0)
(1.12621 -0.0920356 0)
(2.91384 4.51877 -6.13078e-17)
(4.19935 3.3581 0)
(1.02709 5.88857 -1.6342e-16)
(0.802828 -0.255081 4.1101e-16)
(2.08343 0.49709 0)
(0.889998 2.29487 3.30282e-19)
(-1.28295 -0.25476 -9.40126e-17)
(1.37617 9.04942 -3.56778e-17)
(-1.33519 0.0684299 8.94388e-17)
(0.513479 2.23332 -5.68146e-17)
(0.00926041 6.92429 3.50324e-18)
(0.145946 5.10179 9.94062e-17)
(0.949293 0.196624 3.1135e-16)
(8.94688 0.310537 -1.12796e-18)
(0.97485 1.6321 -1.75185e-16)
(-1.96595 0.218911 2.48566e-16)
(-1.29702 -0.286429 0)
(0.0254577 5.38173 3.16422e-17)
(0.476638 5.93417 3.22219e-17)
(10.592 0.888527 0)
(-0.316245 0.439725 6.17983e-16)
(0.112752 6.00948 1.60548e-16)
(1.11207 6.1366 -4.31744e-17)
(1.02546 2.5284 -5.83308e-17)
(1.1484 8.93274 2.37301e-16)
(-0.0668878 6.28685 2.58726e-16)
(0.733312 2.06041 0)
(3.56462 0.957842 2.13318e-16)
(-1.13634 -0.110005 0)
(-0.027711 5.6348 -1.46227e-16)
(8.84692 1.02718 1.94526e-18)
(2.31866 7.36875 -2.93315e-17)
(3.35728 2.41848 2.27943e-17)
(0.0226634 6.06775 1.80677e-16)
(0.770093 9.39964 4.05088e-17)
(1.27342 0.139852 2.96623e-17)
(0.0732625 7.3643 1.40904e-20)
(-0.0435008 5.79297 -3.60142e-18)
(0.186328 6.2705 7.12117e-17)
(0.0246525 6.04552 -3.67086e-17)
(7.37337 1.9983 6.75854e-18)
(0.0409518 5.44596 0)
(0.796983 5.62686 -3.93104e-17)
(-0.0382239 7.25309 0)
(0.615054 1.66398 3.19083e-17)
(-0.422507 0.344388 7.6498e-17)
(1.16983 3.82691 1.28787e-17)
(8.82769 0.620501 -7.55334e-19)
(0.497893 6.4408 0)
(0.469004 6.12618 2.5351e-17)
(-0.867696 -1.23284 5.83067e-16)
(0.595078 5.87889 2.55913e-16)
(1.14904 9.35878 0)
(-0.114119 6.02152 -3.25295e-16)
(1.09046 0.110206 1.9105e-16)
(1.27414 0.460189 0)
(10.5864 0.353075 -2.64847e-19)
(-0.68277 -0.000135378 2.49892e-18)
(-1.05129 -0.533045 -1.72133e-17)
(-0.0199891 6.92692 4.05779e-17)
(-0.310707 7.27779 -5.04571e-17)
(-0.70271 -0.0493897 8.28319e-21)
(8.98684 1.54485 -4.62746e-18)
(5.84496 3.08954 2.79517e-17)
(0.188472 5.93861 -5.21515e-17)
(0.186832 2.28909 1.40322e-16)
(9.56105 -0.303146 -1.95012e-17)
(0.928931 2.50799 0)
(-0.931785 0.143382 8.19723e-17)
(-0.00917971 4.99821 3.18262e-17)
(1.41297 7.56739 -5.70036e-17)
(0.378824 5.1677 -1.40871e-16)
(0.982038 5.92011 0)
(0.919209 10.2428 6.0195e-17)
(-0.976993 0.275658 0)
(1.33759 3.06697 -5.54176e-17)
(0.0635313 5.71859 6.57278e-17)
(0.819059 1.82545 -1.31894e-17)
(0.409251 1.05839 6.72897e-17)
(9.59239 2.24706 0)
(0.177433 6.74803 -2.23621e-20)
(10.0821 1.58625 -5.21541e-17)
(1.11287 6.91272 2.35992e-17)
(0.0226803 3.38302 4.20651e-20)
(0.0234387 3.9564 -8.29265e-17)
(0.582606 3.48243 0)
(-0.361688 4.88642 1.70065e-16)
(-0.0718527 7.42214 8.16288e-17)
(0.99861 1.5446 2.70993e-16)
(-0.0784483 0.883752 0)
(4.67521 1.97805 0)
(-0.323924 7.40625 1.24972e-16)
(4.90439 2.86222 -3.40297e-17)
(11.49 0.435072 0)
(1.29685 2.54888 -2.92061e-17)
(0.615116 0.0164477 -2.5849e-16)
(0.305935 5.95305 1.41389e-16)
(3.58746 3.14331 -2.68773e-17)
(0.571187 2.94342 -6.65033e-17)
(0.710551 8.99117 -1.31473e-16)
(0.0309658 6.08372 -4.29124e-17)
(2.20959 5.30013 0)
(0.144599 3.84369 0)
(0.0742167 1.22111 2.18689e-16)
(0.0977332 3.42672 9.02389e-18)
(0.606106 2.82349 -1.98443e-16)
(1.01112 0.0248372 -2.32739e-16)
(0.489029 1.51001 -3.86075e-18)
(0.842152 1.82849 8.53986e-17)
(0.151359 5.10588 -4.81763e-17)
(-0.730188 -0.102801 -5.85473e-17)
(1.70086 3.0637 1.94149e-17)
(0.223041 5.84728 -3.01813e-16)
(-0.482543 6.98861 -2.41124e-16)
(2.08275 2.14457 -1.72258e-17)
(3.44503 5.59303 2.10232e-16)
(1.30992 0.136474 0)
(0.728377 0.0346605 -1.01633e-16)
(0.193257 1.05927 0)
(0.401863 6.31717 -2.48226e-16)
(3.96035 3.86491 0)
(1.02121 5.55555 -1.00861e-18)
(0.223523 1.14253 1.70867e-17)
(0.780124 -0.65217 -2.41881e-17)
(6.31984 6.19278 1.1513e-18)
(1.64522 3.52075 1.875e-17)
(3.39765 4.14504 0)
(-0.0474906 -0.0656993 0)
(0.492679 2.47644 0)
(1.02193 6.01193 3.05153e-16)
(0.243329 -0.0184613 -2.76197e-16)
(-0.31147 -0.0820714 0)
(0.236947 6.75482 2.76338e-16)
(1.97343 0.180897 2.82077e-17)
(-1.08486 -0.446006 8.10735e-17)
(0.71476 4.05713 2.02832e-16)
(0.422114 -1.00442 1.80151e-16)
(0.338137 6.59277 -2.77402e-16)
(-0.701215 -0.0712853 -3.4908e-16)
(-0.547034 0.215242 -1.81558e-17)
(0.670977 1.63609 -3.90237e-17)
(0.00127897 6.9697 0)
(6.47763 2.09314 4.97448e-18)
(1.0536 6.30256 -1.45249e-16)
(0.474844 1.88204 0)
(0.827461 0.0566506 0)
(0.530298 1.49037 3.07191e-17)
(3.02385 7.01763 7.76291e-17)
(-0.261397 7.1657 0)
(0.407593 6.56903 1.36719e-16)
(-0.150809 6.37424 0)
(0.983086 2.19634 1.84505e-17)
(10.3836 1.00262 4.92833e-17)
(2.88268 5.95866 -1.45112e-16)
(0.753654 2.78245 0)
(0.647155 7.04106 1.55367e-16)
(1.12684 -1.5202 -3.34276e-16)
(0.388024 2.29989 2.11717e-16)
(1.84908 4.56626 -6.43418e-19)
(1.80214 -2.03085 2.44716e-16)
(1.24076 2.06965 -1.80869e-16)
(7.2417 2.60789 1.59508e-18)
(-1.40037 0.667881 -6.05874e-17)
(10.5813 -0.0710469 -2.24672e-20)
(-0.331881 7.73081 -3.41036e-19)
(-0.492166 0.18799 -4.30517e-16)
(0.0114135 3.80803 -3.46049e-17)
(0.288771 3.81944 -6.75606e-17)
(0.215583 1.17052 4.07097e-18)
(0.700077 -0.494989 -4.3248e-17)
(6.64156 7.17055 1.43177e-17)
(0.456873 6.79816 1.3277e-16)
(11.2075 4.17261 -5.13023e-19)
(-0.1696 6.30947 3.57239e-17)
(0.412026 7.4941 1.08848e-17)
(1.12205 9.38752 -8.11624e-17)
(-1.25614 -0.15796 -1.87236e-16)
(9.8519 0.48579 7.88893e-17)
(1.05484 3.32848 0)
(-0.219244 7.27289 7.21718e-17)
(6.54055 1.06239 -1.07297e-18)
(2.08431 4.18111 -1.90805e-17)
(0.327525 0.300082 -8.24903e-17)
(0.0692712 0.228434 0)
(6.65944 1.82466 -2.13929e-18)
(0.012547 2.75393 3.51764e-16)
(1.03971 6.67435 7.17122e-17)
(0.751655 1.38658 0)
(2.18287 -1.50579 1.3058e-16)
(9.91667 5.8456 -1.19855e-17)
(0.399777 6.45306 3.52998e-17)
(0.939201 4.07504 -4.67603e-16)
(0.323117 6.6087 1.97561e-18)
(0.889062 6.3805 0)
(1.0275 3.45431 -2.48012e-17)
(-0.253469 0.53318 1.50324e-16)
(0.806332 4.09209 -1.4126e-16)
(0.758263 4.05178 1.5125e-16)
(-0.784478 -0.172734 1.9727e-16)
(6.87626 3.08175 -3.54069e-18)
(0.417306 2.49157 1.98636e-19)
(0.321989 3.8392 6.43738e-19)
(0.269077 4.0382 -9.78801e-17)
(0.356797 6.9818 -2.6917e-16)
(0.565047 6.39221 -3.75259e-17)
(2.11049 5.34449 -7.64445e-17)
(-0.155078 7.28802 2.09595e-17)
(4.94857 3.79209 9.74602e-17)
(-0.239324 7.15684 -2.14141e-17)
(0.549754 0.221038 -9.62945e-17)
(0.438291 4.02354 3.67733e-20)
(0.580281 6.89434 6.68887e-17)
(-0.121299 -0.287908 1.07501e-16)
(-0.346502 0.623325 3.82553e-17)
(0.472522 4.06137 1.25187e-17)
(2.51797 5.00611 0)
(0.992759 5.65495 0)
(0.489523 4.11593 6.10488e-18)
(-0.047557 1.30415 1.46087e-16)
(0.364739 6.66261 -1.27766e-17)
(0.398412 -0.447414 2.30881e-16)
(1.39747 4.94859 -8.31469e-20)
(0.169885 -0.0729229 0)
(0.925528 6.33453 -1.37515e-16)
(0.496019 4.15998 0)
(-0.145027 5.03737 -7.51244e-17)
(0.0988729 1.57568 -4.33663e-16)
(1.03985 1.93303 -1.09138e-16)
(1.60808 4.81704 3.23033e-17)
(0.515934 4.17289 1.30718e-17)
(0.247566 -0.747718 3.84059e-16)
(-0.835811 -0.532613 -3.08805e-19)
(2.82101 -0.513266 9.3763e-17)
(0.513216 -0.51528 -3.09116e-16)
(11.1652 1.63996 2.19266e-18)
(-0.285863 2.76015 1.23716e-16)
(-0.379452 3.01353 1.945e-16)
(-0.383955 3.53038 -9.32542e-20)
(-0.439712 3.2802 0)
(-0.392863 3.78755 -1.10093e-16)
(-0.329057 3.53596 -8.83826e-17)
(-0.30254 3.02338 -8.97222e-17)
(-0.242769 3.88857 -1.62996e-16)
(-0.260588 3.13533 2.79146e-16)
(-0.192621 3.79886 7.22898e-17)
(0.938983 -1.94765 0)
(9.88261 0.10586 5.76117e-19)
(0.988525 -2.1817 -9.46546e-17)
(0.796243 -1.71785 2.77828e-16)
(0.662872 -0.78223 -4.41134e-16)
(0.733729 -0.801434 4.77811e-19)
(0.501386 0.171214 0)
(0.74381 0.0369194 -1.07209e-16)
(2.45983 0.942458 4.56971e-17)
(0.429076 0.521595 6.71041e-17)
(0.504704 0.665766 6.24999e-17)
(1.19097 -0.0481026 -2.53838e-16)
(1.08872 0.156478 -1.83055e-16)
(-0.174597 0.159012 0)
(1.15939 0.168894 -9.68108e-17)
(1.03641 0.147276 3.10984e-16)
(0.456092 0.184699 9.46108e-17)
(6.93528 -0.11782 -2.22367e-18)
(0.33074 0.489334 0)
(0.98196 -0.823575 2.79429e-16)
(0.278476 0.391983 -1.2804e-16)
(1.13484 -0.0146227 2.25376e-16)
(7.02393 -0.338757 -2.92116e-17)
(1.03802 0.114848 -2.90644e-16)
(0.737916 -0.713964 -1.6988e-16)
(1.18344 -0.0659144 2.67969e-16)
(0.0551141 -1.02357 3.54475e-16)
(6.97989 -0.50431 1.37153e-19)
(1.23832 -0.0884593 -2.55486e-16)
(7.17896 -0.578069 -2.48389e-17)
(1.01679 0.225918 -7.79225e-16)
(0.983415 0.274074 0)
(0.00677382 -1.81904 1.8289e-18)
(0.774961 -0.10211 0)
(9.5284 -0.294583 3.26234e-17)
(10.5065 0.0453596 9.67453e-17)
(1.2788 -0.17559 1.35768e-16)
(1.14457 0.135162 -1.24391e-16)
(0.46843 -0.385383 7.28563e-16)
(1.05275 0.307742 0)
(0.150502 -0.175241 0)
(0.340435 0.170082 0)
(9.18451 -0.233622 2.18028e-17)
(1.27408 0.319625 2.43465e-16)
(-0.0594512 -0.0295381 2.09067e-17)
(0.98387 -0.324005 2.3777e-16)
(-0.149853 -1.71508 0)
(0.19989 -0.362365 0)
(0.867843 -1.07299 2.22971e-17)
(1.11751 0.312082 1.8333e-16)
(8.24512 -0.214914 -6.61198e-17)
(1.1123 0.299292 2.30868e-16)
(0.78171 -0.844412 1.77015e-16)
(1.04674 0.404579 3.52549e-16)
(1.69261 -0.524281 -2.82692e-16)
(-0.35664 -1.33355 -1.74633e-16)
(0.72356 -0.573025 1.64948e-16)
(7.94316 0.0861906 1.44698e-17)
(0.938461 0.215573 -3.03979e-16)
(-0.386811 1.84768 -4.35672e-16)
(0.0463679 0.485086 1.64185e-16)
(0.739015 0.387001 -4.61683e-16)
(-0.414345 1.71858 8.49739e-16)
(-0.0537437 -0.124439 -2.26742e-16)
(8.25717 0.515821 -3.08822e-17)
(10.4267 0.405823 -7.89979e-17)
(-0.0906124 -1.89481 -3.00077e-16)
(1.1133 0.253286 2.40283e-16)
(0.708639 0.123892 2.29968e-16)
(-0.181111 1.5118 0)
(0.959683 0.35712 2.64027e-16)
(0.897831 -1.13663 2.88012e-16)
(-0.246758 -0.309589 0)
(0.56351 -0.697931 0)
(0.0291728 -0.0649305 2.53485e-16)
(-0.321347 -0.506143 -2.19996e-16)
(0.0777203 0.383593 -8.60194e-17)
(0.997299 0.491558 1.51731e-16)
(-0.631197 -1.67668 1.65732e-16)
(9.90621 0.666607 -2.40414e-17)
(0.688598 2.89335 0)
(0.788203 0.237072 -4.44143e-16)
(0.558316 2.41865 -1.72253e-16)
(-0.893615 -0.263668 -7.70385e-17)
(0.835434 0.620795 -1.10704e-16)
(-0.289148 -0.093726 -1.10264e-16)
(8.6585 1.14093 5.0567e-17)
(0.124908 6.15354 -3.66391e-19)
(1.89032 -1.75612 0)
(-0.0258008 -0.39625 2.81926e-17)
(1.1453 2.59799 1.20427e-16)
(0.526582 1.03213 -2.79414e-16)
(0.653902 0.982071 0)
(-0.392123 -0.873878 0)
(-0.050487 4.22551 0)
(0.401972 -0.462193 4.44882e-16)
(0.367293 0.955069 2.761e-18)
(0.257352 6.43107 2.3625e-17)
(1.03955 0.835527 6.98431e-17)
(2.48847 -0.86662 1.89384e-16)
(0.489127 3.39536 1.34632e-16)
(-0.105463 0.0443826 -3.65962e-16)
(-0.142972 6.40997 -5.14301e-17)
(0.760617 0.618358 5.11127e-16)
(0.301348 3.74739 3.29305e-16)
(0.0851589 0.575228 6.51186e-17)
(0.953655 2.84999 -7.07363e-18)
(0.694845 7.96679 -4.16283e-17)
(0.404617 3.57373 0)
(-0.15825 4.7229 0)
(1.04729 4.39796 1.99704e-16)
(-0.110172 -0.0180556 4.26414e-16)
(-0.0767328 7.2576 0)
(0.608976 4.4266 -2.8922e-16)
(1.00744 -0.0159662 -3.98139e-16)
(-0.482872 0.366047 -6.34962e-16)
(-0.260354 -0.0400714 1.84752e-17)
(-0.0133155 0.562581 -1.58527e-16)
(0.384203 7.22828 2.78347e-18)
(2.55621 7.8867 0)
(-0.209255 4.67389 3.15085e-17)
(9.70476 1.84351 -4.75261e-18)
(4.09935 5.16692 6.17775e-17)
(0.844696 2.55063 0)
(5.33166 8.66275 0)
(0.950691 2.23966 8.65332e-17)
(1.01021 2.14189 0)
(-1.10853 -0.0592606 -1.08434e-17)
(-0.0619525 1.06182 -1.01321e-16)
(-0.121939 6.92468 1.28117e-16)
(0.534032 3.70152 -2.94968e-17)
(3.78038 7.96743 -3.16682e-17)
(-0.211311 2.99303 -5.41984e-17)
(1.09626 0.535576 -1.26155e-16)
(0.233114 0.228827 1.08159e-16)
(0.891353 6.70269 3.87088e-17)
(-0.460782 -0.251607 1.44552e-16)
(-0.0538659 5.15879 0)
(-0.213976 2.3257 1.17092e-17)
(-0.338366 2.5007 -4.14905e-19)
(0.53467 3.66058 0)
(1.98872 8.34709 1.98289e-18)
(1.25225 5.38295 1.42973e-16)
(1.42859 5.60834 -1.07698e-16)
(1.73467 5.55131 1.49031e-16)
(0.0406357 5.8956 -1.54636e-20)
(0.27063 6.81359 -1.11776e-16)
(0.816309 1.18545 -6.69403e-16)
(0.781868 1.38565 0)
(0.964251 1.43267 1.08494e-16)
(-0.141709 1.6191 -2.94848e-17)
(-0.426152 4.98301 3.20399e-17)
(0.803365 2.19042 -4.70799e-19)
(0.988605 3.01058 -1.233e-16)
(-0.141791 5.60931 -1.68732e-19)
(0.144235 3.6429 0)
(-0.837983 -1.34903 -1.77257e-16)
(0.973878 4.40624 3.72041e-16)
(2.9934 3.16194 0)
(9.15759 0.0817769 2.13816e-18)
(1.05795 9.20835 2.68358e-17)
(0.854242 1.17098 8.402e-18)
(0.494735 4.73056 3.77179e-17)
(0.420867 0.657826 0)
(1.58973 7.2065 9.87016e-17)
(1.23734 6.68723 -1.82357e-16)
(2.53003 12.9021 4.60778e-18)
(2.25786 6.26042 5.42744e-17)
(0.739523 0.233191 -5.6483e-17)
(0.71707 -1.38096 -2.54493e-16)
(-0.350792 -0.161271 7.2904e-17)
(1.37761 2.00674 -1.08853e-16)
(0.702043 3.84986 2.5082e-16)
(-0.179927 2.28333 -1.53673e-17)
(0.136705 6.47869 -5.47671e-17)
(0.118877 6.86508 1.36847e-16)
(11.64 0.0495877 -9.67638e-18)
(-0.620205 0.124289 -4.16132e-17)
(-0.00442201 0.561293 -1.2696e-16)
(0.92556 5.06937 -2.10944e-17)
(1.49842 1.89641 -1.25244e-17)
(1.30655 3.04511 -2.38194e-16)
(0.00826033 -0.115802 -1.10794e-16)
(0.704651 4.39159 1.41039e-16)
(1.03386 2.33025 1.0501e-16)
(0.839059 7.50631 -6.55114e-17)
(0.0756927 4.24204 -1.60608e-16)
(0.477223 1.04032 0)
(2.25162 7.28216 -5.2301e-17)
(0.462494 1.23685 0)
(0.84436 2.18617 1.23626e-16)
(0.468467 1.59192 0)
(0.472333 0.0638922 5.1599e-16)
(-0.162117 2.85484 -1.65326e-16)
(0.533642 3.70628 3.67571e-17)
(1.35337 6.31373 8.02239e-17)
(3.77644 -0.0950838 -5.89592e-17)
(-0.0344639 0.818656 1.41732e-16)
(0.414735 5.40555 -1.48247e-16)
(0.831295 2.23088 7.74627e-17)
(0.212874 7.1115 -1.32755e-16)
(4.66078 4.59245 -1.92276e-16)
(-0.0654618 0.414554 6.62366e-17)
(0.540778 4.66024 0)
(-0.208836 5.0626 -2.99002e-17)
(1.06663 2.01132 8.74323e-17)
(1.13853 6.99991 -1.90218e-17)
(1.02492 6.03825 1.09647e-16)
(-0.994562 -0.923571 1.63996e-16)
(1.55894 3.93419 1.7508e-17)
(-0.055812 0.952614 1.31667e-16)
(-0.355612 6.27475 -4.96376e-18)
(0.0651434 5.29524 1.19865e-16)
(1.74628 6.37359 -9.42769e-17)
(-0.00772449 -1.45089 6.26136e-17)
(1.08287 6.40964 -6.44362e-17)
(0.447634 6.35654 -1.44885e-16)
(1.2393 7.92809 -4.42435e-17)
(0.17049 -0.109642 0)
(9.87337 0.779825 -1.26815e-16)
(7.88357 2.9243 9.25922e-18)
(0.19343 4.30761 1.04345e-16)
(0.425321 1.12883 6.1104e-16)
(0.651525 2.91191 3.29088e-17)
(-0.056704 0.645842 0)
(2.45586 -0.0424904 -1.56385e-16)
(-0.836209 0.468297 6.85209e-17)
(0.297365 -0.249481 -3.39786e-16)
(0.633032 2.29649 4.03381e-19)
(0.925487 -0.974821 -1.53506e-17)
(0.552744 4.16957 4.74055e-17)
(1.21809 1.29627 -7.7272e-18)
(9.62 0.483888 0)
(-0.138807 3.75225 0)
(-0.0373171 0.794438 -6.46993e-17)
(-0.0234563 -0.836034 2.33084e-16)
(10.2215 0.559233 0)
(-0.0806268 0.0574991 3.97912e-20)
(1.22867 6.98318 -2.46406e-16)
(0.469321 1.46618 0)
(0.715716 1.90164 0)
(1.51919 1.6374 -1.39148e-16)
(1.42482 4.19437 1.91418e-17)
(9.0302 0.413826 0)
(0.910388 -0.0143639 2.00183e-16)
(2.4543 -0.606521 -1.20643e-16)
(-0.120816 1.69136 0)
(0.59304 5.54332 0)
(-0.35474 -1.53132 1.69433e-16)
(-0.145235 0.333105 -8.66691e-18)
(-0.0571018 1.19303 1.40919e-16)
(-0.162374 2.56894 -2.7287e-16)
(0.0353726 6.50423 4.90352e-17)
(-0.559156 0.284499 0)
(-1.21648 0.183876 0)
(-0.411096 4.19159 -1.17881e-16)
(2.985 0.516124 -2.82157e-18)
(1.2901 3.65411 -1.87972e-16)
(-1.45387 0.129767 1.65955e-17)
(3.80683 6.83899 -3.16821e-18)
(1.52804 0.45025 0)
(1.22219 5.54141 0)
(0.540205 3.56821 -6.41938e-18)
(-0.919029 0.23543 0)
(-0.05787 4.97123 0)
(11.1022 0.649129 -1.36259e-18)
(0.123907 5.45145 -2.37311e-16)
(2.22115 0.482251 0)
(1.08143 3.1626 -3.48797e-18)
(0.44287 5.92408 2.26507e-17)
(0.0802093 6.33252 6.47792e-17)
(1.25972 1.79927 -1.97074e-16)
(0.577338 6.73852 -3.3729e-18)
(-0.157972 6.1573 3.11145e-17)
(0.281057 -0.162902 6.92464e-20)
(-0.224928 6.01287 -2.91647e-16)
(-0.0666998 1.16317 -3.86486e-19)
(0.11256 3.10409 1.96562e-16)
(0.348041 0.609425 -2.99532e-16)
(0.352242 6.70214 1.36946e-16)
(-0.327343 6.14672 0)
(0.0547431 6.96399 1.73317e-18)
(10.7277 0.239294 -6.95786e-18)
(0.635925 3.11664 0)
(1.26739 0.281185 5.33029e-16)
(0.858396 0.777568 1.70549e-17)
(-0.16654 2.80042 0)
(0.055133 1.10399 3.8494e-16)
(1.81103 8.05508 0)
(1.6892 9.01254 2.58464e-17)
(1.17894 0.103018 0)
(3.09164 1.69568 1.58501e-17)
(-0.0538757 0.650224 -2.86782e-16)
(0.0800645 0.626803 -1.16976e-16)
(0.689345 0.400882 -2.28432e-17)
(-0.282326 2.01436 2.276e-16)
(0.111691 6.57058 -4.5312e-17)
(3.78906 0.553338 9.83969e-18)
(8.59833 0.343495 0)
(-0.252068 0.0129779 -2.14415e-17)
(0.0812706 5.73852 0)
(0.28926 6.4781 0)
(0.233047 0.978713 -1.36657e-16)
(1.46464 5.88782 0)
(-0.226108 2.0495 0)
(0.775475 6.67427 -2.88731e-17)
(1.79522 0.0342272 0)
(0.79289 -1.37473 1.74924e-16)
(0.252569 6.61106 5.01076e-17)
(0.957012 0.0867628 2.56223e-16)
(1.31456 0.925046 1.52063e-16)
(0.677612 1.82268 1.67692e-17)
(-0.0865679 0.789062 -5.92296e-17)
(0.983292 0.151894 -4.47236e-16)
(12.5976 2.815 0)
(0.344814 6.71515 0)
(-0.00132778 7.12835 -1.34683e-16)
(0.537632 0.710276 -4.2055e-19)
(0.476981 6.82244 1.01838e-17)
(1.29858 0.995335 2.1546e-17)
(9.34869 2.16602 3.12571e-18)
(2.07287 1.12972 5.02564e-17)
(-0.350325 1.81311 -8.20255e-17)
(1.10549 0.11648 4.2867e-16)
(-0.400022 1.01354 -2.85317e-16)
(0.0712801 5.39702 0)
(1.03122 0.218228 4.96465e-16)
(1.02438 0.140676 -2.61307e-16)
(0.461861 4.7245 -2.43063e-17)
(0.473678 1.08983 -1.72896e-17)
(-0.0093768 0.781676 -4.32549e-16)
(-0.000154936 5.87161 -5.38877e-18)
(0.427428 7.08996 1.4301e-16)
(0.0922088 6.72048 7.32872e-17)
(0.107439 7.00628 0)
(0.964284 2.90313 8.25384e-17)
(-1.67656 0.0425537 6.04147e-17)
(0.298413 1.47526 0)
(0.310059 5.18569 -1.29686e-16)
(0.137263 1.94018 -5.78822e-16)
(1.24685 4.98141 0)
(0.990655 0.132639 -1.69948e-16)
(0.595035 3.24565 0)
(1.20451 -0.140663 -2.17782e-19)
(0.338544 0.377429 -4.25246e-18)
(9.61244 2.91337 1.55281e-18)
(1.40595 6.72044 0)
(0.962962 3.50107 1.57627e-16)
(0.204751 6.41089 -9.97496e-17)
(1.01403 3.60477 0)
(0.765253 -0.787887 -1.21335e-16)
(-0.429002 0.698154 -1.51361e-16)
(0.106555 5.41123 -1.0302e-16)
(0.274029 4.72892 9.39407e-17)
(0.258054 5.20996 2.31471e-16)
(-1.60265 0.0780507 -3.33684e-17)
(0.213497 0.016777 0)
(0.00789553 6.03256 0)
(0.183995 -0.084352 3.58128e-17)
(0.632619 2.29962 1.4895e-16)
(0.102486 6.08292 -3.58615e-17)
(0.489847 0.0989873 1.30764e-16)
(0.377674 1.18474 -2.33681e-16)
(-0.279526 2.2691 0)
(-0.222405 2.26819 8.90204e-17)
(9.91405 8.4393 -1.31219e-18)
(0.344781 5.19231 3.04522e-17)
(0.421468 6.46277 -1.12296e-17)
(0.56274 1.87851 -9.46595e-17)
(1.22027 6.96069 1.42687e-16)
(4.17649 2.16194 2.42247e-18)
(-1.25573 0.120297 -1.37091e-16)
(0.898555 2.46022 0)
(10.4819 0.609573 2.33353e-18)
(-0.244531 6.3846 4.83612e-17)
(6.76085 0.153278 1.14423e-18)
(-0.159689 1.51603 -1.116e-16)
(-0.310973 -1.29833 -1.57029e-16)
(-0.433328 4.65392 -2.15478e-16)
(0.497818 6.61905 1.00403e-18)
(0.864517 -0.108522 4.39863e-16)
(1.01789 5.22206 -1.20872e-16)
(0.531382 3.13553 -3.26631e-16)
(0.0261903 3.48444 8.40728e-21)
(0.904041 0.419666 1.55537e-17)
(0.0891434 5.576 -5.09863e-17)
(-0.164996 7.04036 2.48509e-17)
(0.144006 7.37649 -2.00993e-18)
(-1.71361 -0.644269 0)
(0.78841 0.186422 0)
(-0.310144 4.21323 -6.06406e-17)
(4.66143 0.584216 2.1436e-18)
(8.2251 0.218163 -1.41036e-17)
(0.171968 6.25065 1.40737e-16)
(1.24205 3.65402 -2.56313e-17)
(1.87255 -0.36558 6.37425e-17)
(4.09728 0.373139 9.47566e-18)
(-0.464287 4.32271 4.3774e-17)
(0.526985 3.43357 -1.02017e-16)
(1.07243 1.02843 4.73218e-16)
(0.655945 2.89538 -1.01385e-16)
(1.00014 0.256112 0)
(1.1309 0.225371 -1.25352e-16)
(0.287972 3.54843 -1.0852e-16)
(0.637288 3.91637 0)
(8.21949 1.83071 -8.15146e-18)
(1.08079 0.215758 9.77706e-17)
(4.38076 -0.0268047 0)
(0.155989 1.24301 0)
(6.05023 4.31619 -2.49145e-17)
(-0.15657 6.35152 1.61326e-17)
(0.239721 7.38015 -5.64804e-18)
(1.02087 1.42135 0)
(0.521684 1.59963 7.46701e-17)
(2.81105 -0.218763 6.34841e-16)
(0.816708 -0.0203274 -6.58305e-16)
(-0.664361 0.443678 -4.49558e-17)
(1.88126 2.64782 6.80558e-17)
(1.64388 -0.804264 2.25333e-16)
(1.01597 0.0996586 0)
(0.754455 1.94851 -7.08526e-17)
(1.29424 4.36185 -1.55946e-18)
(1.39562 5.194 6.83626e-17)
(0.976864 2.96955 -2.60132e-17)
(0.000129589 2.09619 0)
(0.428021 5.42331 7.23234e-17)
(-0.0908639 2.02907 7.97171e-17)
(1.22368 0.214283 0)
(10.5245 0.636175 1.1192e-16)
(0.447332 5.33852 0)
(-0.0853757 3.36515 0)
(3.59828 5.84422 -2.5866e-18)
(0.232328 5.45018 1.5604e-16)
(0.202369 5.86978 1.26497e-16)
(2.99126 0.0677181 -2.05925e-16)
(1.70677 -0.722805 2.19029e-16)
(0.865942 0.141992 2.75457e-16)
(-0.0299202 5.38569 0)
(0.427133 5.93921 3.38236e-21)
(0.306909 5.23127 -1.64873e-16)
(6.38721 -0.663658 -6.30398e-17)
(0.695406 0.0393233 6.18425e-17)
(0.187894 6.73609 2.585e-16)
(-1.28368 0.425488 -9.8695e-17)
(2.208 2.9825 1.33376e-17)
(5.00152 -0.669706 3.9021e-17)
(1.61634 0.0774136 -6.36474e-17)
(0.130624 9.51254 8.05469e-17)
(0.0937055 4.74103 2.81945e-19)
(0.0905995 4.63224 9.75589e-17)
(0.0459448 4.395 9.01086e-19)
(0.0720923 4.50921 0)
(0.112996 10.2556 -7.1566e-17)
(0.0881356 4.79168 -1.84905e-16)
(0.0225404 5.80596 -7.60224e-19)
(0.0456911 5.78025 -2.11327e-17)
(0.0152245 5.72733 0)
(0.0501351 5.95999 4.27119e-17)
(0.153826 8.96392 0)
(0.217592 10.9926 0)
(0.0538082 6.19154 -5.66083e-17)
(0.288212 7.85882 -4.03125e-18)
(0.225148 8.44254 -3.7666e-18)
(0.0421715 6.32562 1.80694e-17)
(0.0661281 4.75639 9.61315e-17)
(0.0467489 4.74933 0)
(0.00308048 6.32206 -2.50511e-17)
(0.0452372 4.78152 0)
(0.0506797 4.86133 0)
(-0.048203 6.23898 1.8689e-17)
(0.0604154 4.96479 0)
(-0.102642 1.76304 8.80638e-17)
(5.02711 6.24636 -5.27382e-17)
(1.19043 -0.000520654 2.68432e-16)
(0.176112 -0.0346529 0)
(1.2119 6.53783 -9.95092e-17)
(-1.67801 -0.0817498 9.81415e-17)
(-0.46148 0.477075 5.68105e-16)
(6.07319 1.34416 -1.59725e-17)
(-0.140326 6.26692 -2.03319e-17)
(0.60055 7.75719 0)
(-1.20538 0.276338 4.97599e-16)
(2.04736 0.474649 2.65084e-16)
(1.51461 0.649905 0)
(4.32166 -0.511795 3.03679e-17)
(0.38435 -0.761965 -2.59823e-16)
(-0.0447667 -1.11497 -1.83132e-16)
(5.9414 5.27347 8.643e-17)
(1.58206 4.72136 -4.55639e-17)
(-0.145215 2.25382 8.05876e-17)
(0.895124 0.895318 -5.27931e-17)
(-1.39711 0.0199624 -9.20829e-17)
(6.59822 0.529203 -2.86265e-19)
(-2.242 0.812592 -2.69495e-16)
(0.0664389 5.09346 0)
(0.892377 5.73723 2.77762e-16)
(1.1111 3.96406 5.32005e-21)
(0.78218 -0.126856 7.16386e-17)
(0.414371 0.0549059 0)
(10.7679 -0.198449 2.64419e-17)
(0.211568 1.90712 -1.49754e-16)
(1.85189 0.133221 3.86047e-18)
(-0.018194 1.60867 1.30797e-16)
(-0.0221746 7.18808 0)
(0.645701 2.58236 9.15559e-18)
(0.829117 2.53765 -7.0021e-17)
(8.69323 4.47753 2.04503e-17)
(1.25831 -0.120327 3.06568e-16)
(0.751875 0.197653 -3.17796e-16)
(-1.54992 -0.88872 1.79667e-16)
(0.432333 -0.189386 -7.08588e-17)
(0.56199 3.31274 3.29503e-17)
(-0.054642 4.92661 -7.02403e-21)
(0.136865 6.35484 -1.77682e-17)
(0.0887276 0.204872 0)
(0.89097 3.20717 3.11643e-19)
(1.15502 0.550708 6.35371e-17)
(1.75012 0.336164 1.17404e-16)
(1.15298 0.15088 0)
(1.31075 0.626499 -3.97065e-16)
(-0.00189037 -0.107578 0)
(10.5005 0.404407 2.09342e-18)
(0.331081 2.99961 0)
(0.82573 3.5908 -5.85275e-17)
(0.166653 2.55274 1.369e-16)
(0.501666 -1.53246 2.46783e-16)
(1.86226 -0.138324 0)
(-0.18377 0.269585 -3.45479e-17)
(0.0724161 5.22677 3.78529e-19)
(0.693518 -0.477636 0)
(-1.80853 -0.00286693 0)
(0.694705 3.31961 -1.90306e-16)
(-0.204598 5.66993 -1.02431e-17)
(7.75819 0.0130976 0)
(0.816886 0.390322 -1.35185e-16)
(3.18128 -0.327625 -1.91486e-16)
(0.359609 -1.28662 0)
(-0.151158 1.35039 2.87691e-16)
(1.06331 0.101854 -1.60684e-16)