/*--------------------------------*- C++ -*----------------------------------*\
| =========                 |                                                 |
| \\      /  F ield         | OpenFOAM: The Open Source CFD Toolbox           |
|  \\    /   O peration     | Version:  v1912                                 |
|   \\  /    A nd           | Website:  www.openfoam.com                      |
|    \\/     M anipulation  |                                                 |
\*---------------------------------------------------------------------------*/
FoamFile
{
    version     2.0;
    format      ascii;
    class       volScalarField;
    location    "0.6";
    object      p;
}
// * * * * * * * * * * * * * * * * * * * * * * * * * * * * * * * * * * * * * //

dimensions      [0 2 -2 0 0 0 0];


internalField   nonuniform List<scalar> 
5794
(
96.6961
97.753
94.5972
99.9192
94.9519
97.8384
93.3875
97.6451
93.1145
95.0863
128.079
92.1066
93.0107
94.0688
97.0933
97.8438
34.6332
98.6773
97.0262
97.5835
96.173
97.426
92.3516
99.4749
93.7199
45.259
40.6445
100.362
95.6949
96.4568
96.3167
87.028
108.88
99.1705
92.8806
91.8077
101.697
93.5632
92.9066
94.5694
96.3195
99.8381
119.836
96.3202
97.0159
110.193
88.1344
99.3802
96.4067
95.1306
98.3249
87.3576
93.2322
96.7301
97.6559
112.309
90.3562
98.3622
120.021
40.7756
107.725
97.5484
96.3976
86.5192
108.486
97.337
94.4916
94.5213
99.5856
97.7445
86.4495
94.7766
21.2489
96.1538
98.555
100.483
98.0302
50.9925
96.3432
98.1253
97.1225
97.3835
96.8545
94.3132
94.1048
99.2262
87.6183
113.949
99.4107
93.4525
117.174
89.9876
97.6201
96.5348
99.0511
86.1726
113.078
98.4985
90.2279
108.636
84.4861
88.3881
119.957
95.5242
96.6597
98.1024
97.671
129.161
85.6477
96.2984
100.064
96.9485
78.118
96.7306
98.0218
95.4624
97.1747
98.0266
106.855
95.788
98.0997
96.3145
97.1331
100.442
97.006
126.264
91.1496
97.8393
89.2388
127.897
97.0564
95.5221
89.3832
55.0907
97.8709
97.1022
119.875
97.5563
98.6558
99.7534
95.3697
95.6159
96.9646
96.2835
98.6918
49.9417
97.9412
117.892
95.4814
96.9676
124.627
96.6889
98.2686
95.0471
44.5836
87.6712
94.807
94.9868
109.672
95.399
97.0253
94.8837
99.6697
92.016
85.6094
87.355
93.346
97.2604
99.9102
96.9737
96.9287
86.9495
92.8067
94.0686
98.6654
91.9622
97.1759
93.6861
99.441
89.498
99.1359
88.855
98.903
110.742
94.7613
43.3173
87.9986
109.651
95.9174
88.5029
127.816
87.0187
108.926
97.9646
96.1187
96.2654
96.2793
99.6027
97.0347
118.227
92.2858
86.4762
98.8877
95.7671
87.7242
109.817
97.365
129.398
91.03
92.5845
96.3395
100.718
91.8587
94.9405
99.4032
92.6448
91.9258
89.9958
128.429
101.524
100.84
90.8933
115.713
98.2546
114.918
40.6717
94.5128
94.5072
94.4616
97.1514
93.286
94.5079
98.4419
86.3341
94.4818
50.461
72.5943
122.453
93.7337
96.8917
97.6624
129.49
96.0762
95.9507
94.8273
100.155
96.9937
95.9925
114.055
98.8169
90.4062
97.3066
40.8377
97.2709
123.437
90.5412
118.925
118.844
129.449
97.0236
120.257
92.2288
96.0211
97.1194
94.3837
97.3475
96.8971
125.733
97.0641
109.246
87.2447
96.6419
96.3172
85.6808
102.241
97.1919
96.6598
94.8596
96.8143
92.2869
99.6744
108.679
96.0133
99.8436
94.371
98.5598
88.5082
99.1914
92.3968
97.6623
92.1603
93.0247
98.9791
96.5214
116.449
54.1154
95.8869
99.2811
94.6193
97.0286
97.3569
84.6961
97.1624
94.7885
95.8598
124.234
96.8538
97.0348
108.558
86.7403
96.0242
109.042
95.6383
96.844
101.67
103.853
129.124
100.088
85.5275
96.4244
98.2318
93.9972
97.7048
95.5932
97.993
90.1875
95.8567
93.4709
94.6958
128.305
87.3902
121.114
95.8615
109.238
87.5061
95.4574
94.6513
99.7636
96.3522
109.891
99.5158
93.8771
91.7543
92.1722
97.2813
98.372
112.728
90.7598
88.1251
94.0231
92.11
51.2988
109.41
87.5217
98.9523
39.8928
96.9415
88.5463
92.8754
97.2148
129.311
91.6189
120.9
92.705
97.44
94.8523
86.4367
110.932
88.9444
99.159
96.9056
97.0344
94.6025
98.2672
129.079
85.5728
112.496
90.193
98.9949
96.8797
96.1909
96.9845
102.09
91.8194
93.4174
99.415
95.5207
92.9619
97.3829
94.2966
97.8992
94.9412
97.7352
99.7607
93.297
94.6326
98.3396
95.4683
97.0492
92.2259
99.4109
93.1839
47.4113
100.226
96.8974
123.714
93.9029
97.8326
97.7009
113.615
98.1399
89.5811
127.308
87.1272
109.497
87.4793
97.7763
102.789
85.8489
113.271
90.2311
98.5252
128.776
96.842
92.1246
93.7084
99.473
96.6845
97.4486
97.1485
87.0019
102.068
96.9466
79.1121
96.9952
97.08
96.769
95.7076
91.8992
94.0192
99.5394
101.691
95.5907
98.9059
94.7314
94.983
98.3361
98.5131
94.4813
94.8222
94.3726
97.4869
86.8142
97.3477
98.45
97.2237
111.647
89.6137
98.6272
97.0287
97.4914
97.4391
93.8565
100.035
109.56
127.767
48.1123
93.0817
127.594
96.2809
97.2156
83.0336
127.282
94.3336
96.1085
110.779
64.4376
100.251
96.6621
97.4075
94.426
97.4496
95.2264
94.4653
129.094
127.613
100.407
95.4707
52.0868
97.1828
97.3683
98.4686
97.2924
96.2201
93.5561
99.8426
96.9368
97.0002
98.3925
123.135
94.0864
63.5001
103.981
89.5087
96.9467
97.4428
97.5704
117.848
127.324
97.057
85.3876
96.8976
96.2028
97.2291
97.1523
95.344
96.1922
97.211
100.558
49.24
97.797
97.7498
94.6606
97.9542
127.532
97.8656
96.4741
100.195
97.6205
97.5259
94.8045
97.1754
46.8983
97.0115
94.4618
94.0716
101.79
118.028
127.606
119.774
97.277
81.1428
97.4698
92.766
95.821
98.0515
102.25
96.2328
96.9707
97.7637
95.371
96.7827
97.0888
95.953
98.0485
96.9161
94.3253
97.5942
97.6712
94.0329
24.9155
97.0879
124.984
96.6997
93.6686
96.3194
97.7779
94.5302
97.6864
96.8658
110.429
87.3996
87.2514
98.6284
48.5992
98.8995
93.7972
93.6868
99.572
95.564
97.3067
94.2698
126.951
48.8776
88.8203
113.206
96.7106
98.4819
90.107
112.682
96.9355
97.9909
97.5558
95.1564
96.2168
105.024
96.9904
101.414
97.659
93.928
97.4397
111.219
98.1058
95.2433
97.1703
127.267
56.8807
94.9122
97.6459
98.7929
90.3054
88.9599
93.0531
93.9336
98.8914
94.3667
122.749
127.965
117.152
97.5877
97.3737
127.291
126.62
129.253
97.5151
97.9334
98.2412
94.4197
130.177
96.7238
96.8994
97.6244
97.0062
97.832
97.8524
95.0443
67.2846
101.562
94.5118
99.7747
95.7707
120.411
128.617
89.8904
119.099
94.9664
98.9673
108.396
97.5469
97.5828
97.9762
96.2927
97.2323
94.5833
99.035
123.445
50.1873
97.3091
34.3591
99.1621
97.0284
95.3983
97.4331
95.7703
97.406
99.155
94.4931
98.7388
88.6811
108.839
122.549
96.1602
43.0006
94.7762
97.3301
98.4414
94.663
95.1308
91.904
96.8634
97.8127
129.648
96.7863
98.3505
94.2709
118.651
97.5347
96.9512
96.7731
97.1783
95.1554
103.841
72.1023
98.8476
96.2782
99.1749
129.23
97.3353
97.4231
100.809
96.7313
93.0173
97.0026
118.979
94.1559
121.265
95.8783
94.676
97.4654
128.632
120.192
97.9006
98.6238
92.838
127.25
99.6897
103.393
46.7622
125.55
94.172
129.333
68.398
118.503
96.3256
92.6909
96.5422
117.593
102.385
128.621
104.985
98.6935
69.7611
101.8
123.987
96.4233
94.287
32.9381
127.373
89.995
98.0748
114.577
98.5431
97.7375
92.5189
94.8576
98.496
89.8547
110.816
93.3431
101.702
98.0254
96.0292
96.7753
97.2238
97.6929
95.4454
103.066
97.7915
98.9945
112.551
96.0208
74.8365
98.4303
99.1644
95.2369
98.3711
91.1966
115.504
96.3681
98.5281
90.7016
113.588
94.2757
97.4088
94.2969
97.5914
97.8065
96.6203
93.574
97.7939
129.125
49.126
93.9099
97.6067
97.6043
97.9979
91.9404
129.271
96.0813
95.4209
98.6196
123.37
112.234
89.6192
97.6592
93.0862
97.4273
77.48
97.2382
60.7834
99.7456
129.198
97.6131
97.9297
97.9552
96.657
128.736
129.92
122.46
108.413
99.1691
95.1658
96.3146
111.14
100.373
99.938
91.6124
109.9
128.845
97.6858
97.7225
93.5788
116.786
48.6761
96.8172
102.589
96.7218
94.4118
95.7733
89.9973
98.489
112.066
101.316
96.8271
98.7512
94.5138
99.4448
42.3151
97.0293
97.9117
93.8899
97.7195
127.326
98.6915
103.324
97.2896
95.5167
109.139
101.778
82.6866
98.2154
94.6506
98.8857
94.3559
125.432
125.856
49.4661
94.7546
97.2346
97.5886
109.499
94.0301
96.1701
94.3987
105.758
98.8631
76.8136
127.275
96.7699
98.5015
98.6972
101.102
124.817
97.83
58.2699
96.7525
97.1152
60.2868
112.189
100.685
94.2335
98.27
128.18
118.503
97.4376
97.0954
91.8292
126.206
96.2866
101.676
125.79
94.4041
98.9872
95.1967
94.7938
101.711
95.0108
97.1339
97.43
94.1814
96.7788
97.1005
97.7127
97.8456
123.385
97.3939
101.484
96.8436
94.2987
94.4219
98.8117
98.4717
127.355
127.557
57.5722
94.4865
97.0013
101.798
97.1565
52.344
108.428
86.8619
122.105
98.7734
89.7016
99.306
97.8122
94.71
109.638
96.6711
96.9892
95.6544
97.3327
97.7446
121.489
96.8392
99.2417
113.88
90.3432
98.5644
96.1222
116.077
97.7209
97.7726
94.9759
96.8516
89.1033
128.805
113.673
101.712
98.5233
81.3266
97.4547
97.2899
87.2258
46.4655
102.171
94.801
105.674
99.1769
96.1492
94.3637
97.5761
94.4246
99.0138
97.5043
97.5034
97.5018
97.861
96.87
97.7393
97.5872
101.484
98.8594
102.349
96.8568
96.7762
113.846
102.068
95.7101
98.4757
94.2265
97.3954
128.172
104.074
94.2714
97.703
93.7905
127.215
97.6535
101.764
97.537
97.9418
101.755
74.7311
100.986
91.1977
106.57
97.1937
102.443
96.6293
96.9196
114.928
73.6953
98.5642
105.184
98.0033
96.2127
96.9807
97.7848
106.9
110.531
47.4704
84.5212
99.0548
97.2093
97.3725
98.7727
88.6661
108.227
118.161
97.6245
97.4542
97.5375
95.3105
101.97
96.6214
99.9551
98.84
101.332
102.043
103.152
99.6794
97.73
96.7067
94.8569
99.4081
127.352
97.7392
101.652
92.4087
97.1166
94.6393
96.7436
94.4255
129.041
97.1726
129.337
97.4355
103.563
129.147
97.6885
94.1331
114.402
97.0773
99.7106
94.5611
97.1591
94.5934
93.1481
97.7033
97.7041
93.3291
97.0335
97.2046
101.012
97.6011
97.0373
99.0205
93.5332
92.3038
101.436
110.051
107.869
95.023
97.312
97.0733
97.577
94.6079
99.8238
96.678
98.4252
97.1325
122.715
97.3522
95.0302
96.7456
127.098
96.7744
86.6067
95.6104
97.0833
102.575
95.3945
98.6368
94.3633
96.7226
101.351
101.903
96.8916
102.428
97.2398
96.9455
93.7403
97.5831
97.6304
94.7626
98.3585
128.284
96.9745
56.2091
96.912
97.7631
97.8772
101.597
98.2805
105.978
98.0325
96.451
100.527
108.475
89.4738
93.7938
97.4401
99.2988
94.4744
98.2627
95.2461
101.774
98.5226
99.1691
124.004
117.889
97.1752
106.817
105.793
96.0976
97.9425
93.6008
97.1997
33.2655
102.033
97.2342
98.1593
127.27
127.523
98.51
97.8828
96.5274
95.0999
94.9827
97.3432
93.4935
94.4046
96.0194
99.6814
94.3794
97.4325
97.6868
94.2432
93.993
96.2233
98.5438
97.516
93.6548
97.4314
90.6706
95.5268
97.4026
107.799
108.881
102.861
99.6071
101.595
107.638
96.9399
94.9198
96.7366
109.378
104.465
97.4914
97.0638
120.027
94.9629
122.065
97.9029
93.8523
107.526
94.5398
120.519
110.767
97.3886
94.9828
101.918
116.556
97.1308
98.1516
97.3718
55.9602
97.2077
96.8673
93.5131
97.804
98.1626
103.183
95.4897
120.808
98.048
95.5619
105.504
99.5786
85.5954
96.8113
97.6052
98.7487
94.4244
127.074
128.479
94.5751
101.823
97.1932
98.492
97.5357
86.5265
108.701
129.695
119.62
102.27
94.2766
96.8668
99.8968
98.1289
101.601
98.2593
93.6038
94.9164
97.5892
98.5177
80.3155
94.6961
54.2286
97.2433
97.2714
118.686
102.673
99.7464
97.1117
101.168
94.5935
98.0693
97.4821
98.8169
97.4744
97.2921
93.7977
94.6142
100.094
97.1842
99.525
95.7875
94.2812
80.7326
94.0632
123.061
100.904
97.6648
98.1328
97.8258
113.663
91.302
98.4406
97.2082
94.6983
128.682
50.454
94.7013
96.3802
97.0352
86.5594
98.0267
97.4028
94.7855
99.106
94.4163
94.5088
97.8277
96.9529
97.4708
98.0092
97.172
101.583
96.5425
97.3948
97.4117
115.353
102.37
128.46
127.938
92.5202
97.6576
97.229
98.075
129.221
94.7021
94.1993
97.4463
97.5225
96.803
97.5621
93.0832
97.6369
91.9813
96.9871
96.2503
94.5521
38.0058
94.0033
34.4461
47.7522
94.5882
101.423
97.6253
97.0614
99.6705
94.4307
98.1912
95.6115
98.1268
86.5567
108.379
107.687
99.1542
98.8618
92.3278
86.2348
94.6509
97.8923
97.4517
128.493
96.7094
96.6152
96.9706
97.7333
97.5218
117.376
98.7072
95.3006
93.164
98.4901
94.0048
96.4704
96.0734
97.6066
101.686
96.7448
134.025
128.12
97.058
40.1516
128.719
98.3295
94.5445
96.8508
107.458
97.1652
97.6735
97.7243
93.9702
12.0588
102.406
98.9366
88.2396
114.244
55.9615
118.73
94.5805
97.6605
97.4211
97.4722
98.4386
94.2223
94.9968
97.3362
94.9584
98.5218
98.301
95.8875
94.2353
97.7396
97.5045
98.4646
94.1857
94.8086
97.9691
94.1578
96.1919
97.7603
97.599
97.7574
98.7334
93.7078
95.5676
97.6168
98.398
97.6157
94.2098
95.6808
97.4398
97.6395
97.4068
97.6271
98.3169
94.5019
97.3665
98.5438
97.4538
97.5472
95.3422
94.1407
91.0992
92.4768
55.4017
97.4099
98.8921
106.513
97.6762
93.8877
96.9562
97.1694
99.2666
96.8862
94.5324
98.433
51.2282
92.3493
95.7468
94.7523
96.9419
96.966
97.8609
97.5761
97.7101
97.1524
98.0987
94.5543
94.1021
98.7487
127.449
94.3116
97.1817
98.4973
93.8464
47.8737
96.9102
93.9345
97.9496
110.785
100.071
94.7338
93.4422
94.0733
123.706
93.4791
94.6593
95.774
96.7708
101.18
100.443
12.9305
96.7329
96.3659
97.8986
97.6242
95.0611
96.6648
143.205
97.6631
97.3234
98.3991
95.3706
94.3803
97.5531
94.7975
98.4903
97.456
97.4927
98.4684
94.1743
95.4468
97.6323
94.1067
97.4905
94.2188
96.0315
97.5567
98.1201
97.7744
97.6569
94.5552
97.4299
104.428
93.6904
129.55
113.646
96.9627
101.178
93.6509
97.1927
123.571
94.0569
94.3586
133.227
95.6664
96.8324
97.4334
95.8705
122.005
94.7919
77.2817
97.0908
97.1132
97.1462
99.3408
102.997
96.6893
99.8148
102.7
98.7411
97.9498
95.6059
98.2782
97.8458
96.7306
95.4941
90.0447
98.1421
96.6494
97.4501
96.7671
97.4137
97.6636
97.101
98.4312
97.6652
97.6961
99.0461
96.6392
97.7465
102.118
97.7423
91.8483
98.4448
94.9019
85.204
97.6443
101.756
111.394
98.7808
126.255
93.4935
97.4487
96.9952
94.6608
98.6819
102.031
96.5852
98.617
95.0321
94.6658
96.9106
94.8151
93.3888
97.7682
97.7085
96.147
99.0346
98.262
94.7386
100.885
98.5086
98.1914
90.1342
94.7619
97.7291
99.9244
96.468
93.913
97.1418
93.9874
96.3996
97.5166
120.574
97.5207
95.0658
92.3239
93.1638
97.2352
97.1956
96.7096
94.672
94.2209
97.3531
116.882
98.8881
98.9139
100.32
93.7024
122.974
122.38
96.3188
95.6478
91.9833
104.143
97.0653
112.061
99.4475
145.729
94.5546
91.3414
108.987
119.608
92.5328
91.1884
97.2104
135.777
97.6787
112.752
91.0912
136.003
98.1457
93.816
31.2864
94.6025
94.4373
97.7897
97.3113
97.4544
94.1547
100.372
97.314
97.4387
94.2376
98.8274
98.5939
94.2346
94.6656
98.8052
94.5379
98.0108
96.4371
98.6389
99.2146
94.9184
95.5056
98.9346
95.0417
99.6714
99.634
99.6967
94.9606
94.4083
93.7016
44.5711
94.5101
96.4023
97.5967
93.9209
97.3146
96.465
96.9241
97.5391
99.1131
97.664
96.8652
93.5332
97.189
93.316
93.2706
97.4573
93.3153
97.497
95.2212
95.7542
94.0976
124.889
95.4923
94.5887
98.3576
94.3019
97.8305
93.33
97.7799
92.9381
98.2157
97.6007
94.1387
93.2305
97.546
93.5152
97.9715
97.098
112.024
97.0514
89.5272
87.585
93.2987
109.59
85.7693
97.0413
111.736
110.021
88.2461
86.8007
99.6094
97.0824
85.4398
108.453
114.288
96.9931
92.655
111.928
85.439
110.95
97.0389
97.079
97.0782
86.8421
93.1761
51.8892
97.1165
93.1014
94.2745
97.0229
86.9433
99.598
93.6943
109.844
108.573
91.6355
51.2931
85.0235
97.0624
85.1858
96.9457
93.2242
91.4547
99.5264
111.56
93.5622
50.4092
91.5311
93.2606
99.4961
85.1952
46.6401
97.0222
149.828
85.8891
94.4228
91.598
92.6869
96.9865
96.4472
108.589
86.4667
86.1473
46.1258
45.8446
93.8416
93.3525
93.6686
95.885
94.2417
99.3174
99.806
89.2643
97.3164
94.1048
97.4755
128.016
93.0991
94.4752
94.989
93.4356
94.3081
97.3225
97.9651
99.7603
94.1663
97.3388
97.8735
99.0421
99.2192
91.7962
92.4363
96.9692
94.4906
94.236
94.2042
98.4833
98.6321
93.48
93.4083
98.571
94.5523
97.8134
97.708
86.5493
108.768
98.0685
93.2303
97.2437
94.3984
98.3815
98.5107
93.7562
99.0807
98.9575
99.1631
92.4247
94.3567
97.4245
45.147
98.349
97.1816
99.2545
98.3893
94.2817
95.7374
96.3419
97.9778
98.9483
98.4455
99.2129
99.1742
94.4264
96.0278
98.1395
95.2469
98.3235
98.9745
97.5402
97.8341
96.1789
95.9087
95.692
96.837
98.248
98.4534
98.9572
96.0258
97.1403
98.1905
97.3058
94.0126
97.2381
98.3218
86.6802
97.9534
108.85
93.7861
97.2439
98.3242
98.4352
98.267
128.259
88.948
92.4213
97.0292
98.3865
95.2546
92.7109
99.2563
92.017
98.3044
99.8797
98.3557
43.2687
120.554
99.3515
94.6044
93.0474
96.8845
93.9606
97.2182
97.2036
128.473
92.956
97.5689
93.5734
100.089
93.9627
97.2636
97.1692
109.801
87.7941
98.0553
128.671
89.9769
93.4914
97.8775
95.4062
40.985
120.426
99.1699
92.5807
96.852
96.1217
96.8911
95.2539
99.1575
89.8237
92.2537
100.435
94.0448
97.3158
97.2032
95.9133
95.873
99.3587
128.526
90.6481
98.2121
41.217
46.7888
95.5425
120.488
94.9023
96.9584
96.3381
93.9201
96.8564
96.9424
93.3564
90.5039
100.268
97.3289
90.4641
111.95
97.2569
119.334
93.4637
97.8738
99.05
95.777
95.8855
95.622
95.904
95.0509
95.1805
99.121
93.0753
95.4913
98.9231
90.7637
100.161
94.0933
97.4243
97.2349
90.0118
111.803
97.3061
128.691
93.6495
93.2573
94.664
93.5466
97.9518
95.6352
95.4482
98.35
44.3812
95.1285
105.241
95.2715
99.7789
120.429
99.2474
96.3359
99.3821
94.4949
94.7656
93.2413
95.1991
89.7577
98.3552
96.9371
94.5199
104.552
94.9842
98.8996
95.4526
92.7529
93.2795
95.2883
98.9939
98.874
100.326
94.2286
97.5601
97.3916
96.7448
98.0581
94.6243
96.4884
98.2857
98.8456
123.227
96.6194
98.1253
93.6443
98.0821
95.5451
98.4297
39.9124
94.7584
96.2723
95.9469
100.089
101.32
93.5625
94.1211
99.6461
95.7469
97.5763
93.2816
93.3584
93.4839
102.2
98.3738
98.5633
98.4405
98.9393
96.0842
94.5093
94.0301
99.4063
93.3854
97.391
94.5658
97.8268
95.8968
96.9889
98.731
129.471
98.3186
98.3668
88.8988
93.4645
95.4972
95.1375
91.9267
100.504
94.1636
94.328
94.3708
93.4728
98.5828
94.1592
97.5528
97.3595
98.1092
98.1904
98.0352
92.3248
113.781
97.3804
99.7721
98.968
95.4478
98.8871
95.5708
94.9246
99.3367
95.5987
98.9442
93.6346
102.911
94.1216
94.2374
101.761
97.5553
122.524
98.7267
98.9286
95.9963
128.804
95.5296
93.7371
98.2341
93.535
89.6511
95.465
93.9824
97.5061
98.4165
93.5034
93.9781
97.6436
94.0182
97.2993
97.1884
127.732
94.7042
95.0784
97.6242
96.5589
93.3104
98.3963
98.4611
94.3839
93.9666
98.6667
99.9591
98.3391
98.8938
97.9003
93.7311
96.7124
95.4982
93.8835
98.6092
95.8561
94.1572
97.0021
120.44
121.347
97.4557
94.0689
98.8143
93.8674
120.743
98.8362
95.4235
99.0302
95.3211
121.637
94.1384
98.8081
91.9675
91.7561
94.1183
94.5001
98.7175
98.4822
95.7602
99.8314
94.7412
100.522
94.2323
97.928
128.599
94.3795
98.3332
97.4748
94.6243
95.0893
95.5737
98.1817
96.2917
98.8711
95.2504
94.1891
95.3239
95.018
101.559
95.5836
96.991
95.6363
93.8474
98.8807
95.4306
94.2293
97.6314
97.499
94.031
82.0219
95.7636
94.0344
96.9489
97.106
93.5209
86.6169
98.3147
99.1093
99.2981
94.1164
95.3856
100.837
95.237
98.6308
97.0324
96.9157
97.1691
95.4343
106.486
99.5997
131.716
93.9753
96.3152
98.1753
96.443
94.5799
99.6651
94.1586
97.373
94.6305
123.329
91.0342
113.214
97.9005
96.6476
99.1634
93.556
96.2251
94.4839
110.267
96.7211
99.7893
105.55
111.004
99.4295
97.5579
94.3694
94.2998
97.3799
97.5574
128.903
87.4904
94.204
91.1031
95.8569
54.2241
97.2781
93.6399
98.2515
96.425
98.7855
94.3631
86.4174
97.556
97.6555
94.6764
97.4509
96.8866
98.0271
99.3498
97.665
93.709
43.7786
95.8538
98.9937
115.118
96.01
86.0553
97.0984
39.1204
106.946
96.1794
96.1859
98.0358
93.9944
128.399
94.9861
94.2682
97.0839
136.111
94.5567
94.0699
99.3832
96.9162
94.8087
97.5943
99.0004
98.5615
96.2092
98.6163
95.0208
121.711
93.3681
96.5762
93.7148
97.1553
96.7042
98.7071
98.6679
96.6041
98.0049
95.7194
140.202
97.1183
96.7745
94.9021
95.6973
95.6821
94.9065
127.334
98.7065
94.3193
99.0179
98.4841
72.5523
127.878
98.6533
98.8055
99.7493
96.7449
103.997
95.7672
94.5123
94.5849
101.63
93.9211
94.3704
91.8043
97.4055
94.9695
104.853
96.7834
94.4584
97.3069
90.6257
94.3228
94.1328
96.8426
94.5266
97.6541
97.1586
96.5596
96.3923
96.5162
99.8844
97.2578
94.689
99.3144
94.3632
96.9966
96.8435
105.084
98.2925
93.8556
99.5968
95.482
94.2486
97.3422
99.4635
100.553
101.721
94.1789
97.6482
97.4639
78.5949
95.4014
98.1889
99.258
94.5308
116.933
97.6759
93.3852
94.2197
105.86
90.8501
97.3736
92.7695
97.7056
98.2049
91.3222
115.289
90.4603
94.6026
94.5171
94.658
96.8223
96.2393
99.1297
95.8181
98.1242
90.7641
113.942
97.7318
96.6877
94.946
94.1564
97.6266
97.4789
93.6331
96.8412
94.1502
98.6079
97.3737
99.3398
94.1469
98.7434
94.9993
95.5656
96.107
96.0003
96.3262
96.1426
98.8747
94.3372
97.7064
94.1137
97.6409
97.5549
136.075
112.125
95.1191
95.0746
105.08
112.903
112.262
99.269
99.8481
97.7095
95.7686
98.6088
97.1073
99.7004
128.096
94.5476
96.977
97.6837
88.4782
110.451
97.6539
97.4645
94.6249
94.8008
99.2934
94.1959
98.4793
92.4924
49.9856
72.2101
97.2511
93.8553
97.2072
93.8424
100.048
96.9037
104.841
96.8763
120.052
95.0496
98.9686
95.5932
99.3759
98.4579
97.6263
94.1624
95.1735
94.0695
103.339
98.5304
99.1049
97.4733
127.399
97.6463
94.349
86.0583
94.3335
127.479
128.448
98.7636
96.1418
97.6162
97.4763
92.6148
94.2022
20.9392
96.7912
123.13
87.1435
99.4713
97.1212
94.2017
127.624
93.0309
93.7436
97.6472
97.5071
98.5186
118.797
98.1025
94.1432
96.9653
94.7819
97.6552
96.7056
98.1741
94.8002
101.498
127.73
107.631
98.5323
97.5131
98.7442
95.0151
96.0162
97.6878
97.9422
96.9044
96.7982
96.3318
97.2349
99.63
96.9126
121.591
97.6434
96.722
101.497
94.554
43.9967
95.1818
98.6807
94.0158
97.6343
97.5341
109.301
96.6938
96.3465
94.2892
94.2868
98.8852
97.0224
98.6092
98.5332
98.2296
96.7414
95.9498
98.6891
95.1037
97.3904
97.6564
95.8982
94.1687
97.5038
98.864
99.2811
99.2382
95.5026
96.7561
101.548
97.7081
97.9915
94.6504
121.448
123.229
94.0182
97.1876
99.0376
98.044
98.7787
94.1397
95.4688
93.9849
96.1022
96.1469
105.215
97.8985
94.2384
94.5146
99.8028
96.5414
96.2793
87.9248
99.7072
96.4446
114.842
96.9012
95.9428
97.6994
97.7378
94.6732
92.1565
94.6543
98.65
95.1424
96.6663
99.2401
83.4054
104.245
98.4811
94.2509
98.7728
94.5664
99.7059
98.3696
94.9838
101.829
101.58
98.8483
94.3094
97.1426
97.1827
98.2981
94.8343
97.2231
94.3238
97.1054
97.5744
97.2606
97.0714
97.0412
97.7018
95.8855
96.3266
102.126
93.4988
97.7018
97.8653
99.8496
97.043
98.0677
95.4854
99.3307
94.9713
98.4833
96.3548
127.884
90.198
36.3684
94.4574
96.3872
95.7339
95.9991
94.6351
97.6248
97.4669
97.4907
97.6101
97.4122
101.747
94.1051
119.074
97.1977
97.671
96.0729
94.3871
120.307
97.3251
96.8838
98.4689
97.8265
119.697
93.6956
95.1719
99.1969
92.374
129.198
100.791
95.0914
97.8777
110.665
85.0168
94.1736
94.4694
96.4004
98.0095
95.6959
93.6731
97.6594
97.6713
94.6157
97.2843
94.5243
94.2215
95.2251
98.5366
97.8795
97.7486
96.12
96.2727
97.406
96.8314
97.1583
94.1642
94.6557
97.5178
98.4824
88.9629
97.2823
118.558
94.2688
94.371
94.5364
34.4544
96.0638
124.875
97.4757
94.1922
93.1077
99.1358
98.7791
97.7174
96.2623
97.0242
98.2266
98.919
97.5961
121.083
95.6479
88.4698
97.7977
96.5651
129.676
98.3443
94.7436
97.1873
97.8522
94.7456
99.974
98.7531
95.0082
93.5169
97.6169
97.5008
97.6198
94.3602
97.3725
98.9804
96.1883
83.4362
94.7383
93.6838
98.317
55.9328
101.859
110.896
96.527
94.1548
127.879
70.961
114.743
98.9943
93.5536
97.622
97.5368
99.5155
105.968
92.7128
97.2362
97.3885
96.9365
100.389
122.14
133.902
93.2946
114.386
100.035
127.187
97.7555
94.7091
98.4126
96.4102
93.9394
97.0478
113.592
99.7414
97.3754
98.6897
96.1222
127.751
95.1468
114.953
93.3788
98.0322
98.326
93.8241
96.7492
97.6161
97.5845
94.1612
97.3471
97.2001
95.6446
99.2529
94.2103
97.5772
95.629
96.9284
96.2448
102.505
39.9578
127.361
97.2009
96.2441
97.5879
99.9567
98.8376
98.8799
94.5773
96.4066
99.1652
94.4204
96.3295
113.024
98.0804
89.0038
111.935
96.7616
97.7531
97.576
102.342
34.8956
95.8622
86.4098
108.47
92.3151
94.3881
103.29
101.361
94.5562
94.0718
95.0827
92.9923
129.42
97.0626
92.9656
97.0912
102.932
43.5709
96.3876
99.6279
94.2587
99.5664
94.7535
91.7574
97.0158
111.937
95.7154
97.106
98.7871
119.778
98.2281
99.5916
97.0564
97.255
97.9188
96.6557
96.9558
97.1155
97.67
97.72
111.388
97.0878
110.788
94.8383
94.433
97.6938
94.8816
129.043
98.1509
97.7441
104.934
115.365
94.1211
97.8781
95.5768
97.7893
97.5702
94.0352
126.647
94.684
97.2087
98.6758
96.1807
96.1196
126
127.166
99.0835
95.4307
96.766
97.8278
97.9075
95.668
90.5203
95.6424
96.6683
97.24
97.4433
96.7682
98.0243
80.8262
94.2277
127.008
97.8083
97.5873
99.6013
94.4483
92.3067
121.861
99.0182
97.928
120.057
97.2938
116.905
110.607
96.7416
126.491
97.7603
127.222
96.6595
97.876
96.8959
104.366
97.5589
108.06
92.9576
103.006
28.0987
97.3607
125.669
94.6885
106.807
95.1712
107.842
95.2399
126.284
127.097
96.9593
112.168
93.8861
93.0071
97.7162
98.0492
93.9407
99.5507
108.408
96.6426
110.144
108.621
96.706
97.824
96.2147
128.33
94.4349
95.6492
97.8832
101.654
97.0383
101.922
102.255
96.5032
111.945
96.5213
99.4031
93.4205
93.8872
97.1819
110.125
127.524
97.3168
116.218
107.623
93.2798
97.2833
97.2995
97.6104
96.7914
97.6506
127.269
101.271
94.1663
93.7321
93.7613
115.051
90.126
99.1086
98.1757
94.2364
93.8422
99.514
96.0377
94.474
100.22
95.415
98.8658
99.6533
96.0841
98.8917
114.757
103.898
94.09
97.6326
97.6868
97.5319
109.416
94.5849
96.972
97.6527
97.3352
96.5263
89.5795
94.3577
47.4909
98.1244
96.9411
102.787
97.6782
94.2367
97.4557
126.978
97.6556
120.181
97.1502
98.6425
86.2829
93.5043
97.6683
99.4873
97.1412
105.803
93.2171
114.823
98.13
97.5672
97.3011
94.588
100.297
95.7102
56.0584
55.143
94.3337
99.8118
96.2434
96.6807
97.6343
97.6567
92.4668
97.9406
97.6765
94.1562
93.9609
94.9615
95.7002
93.7571
98.4088
129.388
95.4568
97.4589
92.2559
94.4112
107.805
99.3581
94.2512
98.6577
94.1625
116.318
94.8207
98.3992
98.034
93.0927
45.0845
97.6612
97.8647
110.935
127.825
97.0191
94.3633
97.6841
97.6952
95.5851
97.1436
97.5137
94.2357
96.2013
95.7656
97.645
94.2636
97.3737
95.7448
97.9682
92.4512
112.64
99.137
94.9499
99.2121
97.8636
96.5441
98.0741
95.7912
108.405
86.5356
94.7655
95.6623
96.2085
97.0583
95.6742
92.3083
91.629
103.939
99.4434
114.957
124.512
145.246
94.2236
95.6707
129.613
93.6312
98.0259
97.0375
124.409
98.8937
100.987
10.6078
102.003
97.4731
95.0989
96.9864
97.6606
97.4691
94.0376
98.591
97.1735
91.2265
97.5966
96.9675
100.978
94.6117
129.12
94.2295
115.262
93.701
98.0552
93.2339
97.5891
97.3404
96.7406
92.9756
95.5454
94.5147
92.446
35.5208
116.693
94.2087
99.7585
97.0335
98.6452
93.7199
98.8184
99.1876
91.5299
97.0132
97.0558
97.7157
97.2921
94.264
95.1126
95.8709
99.61
93.9189
121.185
97.5156
97.0683
97.9974
97.7502
102.374
109.4
100.107
101.118
98.4652
89.4165
93.8934
98.2006
93.3657
97.4945
99.6769
96.0173
94.2741
95.006
129.23
97.6083
97.3754
128.821
97.9491
94.886
97.528
84.1983
103.146
102.928
97.1603
100.381
97.205
100.428
100.554
103.812
101.959
96.4268
98.9694
96.5526
97.9527
92.8071
106.953
97.1998
99.7442
97.3458
94.3384
94.4678
102.593
97.2463
99.4507
94.538
98.0268
98.0897
94.1755
97.3655
97.6888
100.147
47.6886
92.9999
97.6043
97.3431
95.121
98.514
97.5778
94.3058
97.3034
97.5423
93.5996
97.2752
125.98
97.5754
97.4088
95.4528
93.6026
94.4335
101.228
93.2279
94.6472
94.9425
95.44
95.9463
97.3461
94.3793
117.563
114.553
93.4237
97.4135
97.5142
97.7989
97.2817
98.979
94.7697
127.906
103.07
93.4354
119.028
96.4143
96.8449
92.4243
99.0376
99.243
84.9944
97.0938
103.596
94.318
97.5443
95.2313
100.292
94.3362
90.1952
131.335
91.2007
94.6467
97.7541
96.8695
96.8198
117.327
126.781
98.6716
99.3042
94.8271
112.249
97.3665
93.3594
97.6328
98.9481
94.1407
95.0321
98.1754
93.7558
94.6193
98.9841
94.6848
86.514
108.421
97.4524
96.45
94.5756
98.2616
94.0041
104.465
98.645
94.3414
99.3164
94.5743
98.9571
97.2288
101.57
94.5809
18.4268
100.149
94.5114
95.4002
97.303
94.4451
98.3391
93.3242
98.0232
97.5001
97.4442
96.8367
96.2077
126.943
93.4019
127.715
98.0485
95.3306
96.7811
99.6804
95.9054
94.2089
54.2759
120.433
101.813
97.1006
97.0981
95.1315
87.1636
90.6115
94.6314
97.7959
101.829
101.469
96.1672
94.1331
45.9572
97.5748
93.8502
97.6502
98.0292
93.4993
95.081
99.0457
94.0173
52.5545
99.1542
95.4609
97.1904
97.587
96.9827
92.292
93.9692
96.8722
100.061
112.777
98.6912
99.1853
97.383
98.5487
94.0396
90.5667
96.2803
129.596
120.983
97.0269
85.0276
95.9442
97.5965
93.5397
97.3315
99.9535
120.151
98.1086
103.728
96.6984
95.8568
95.9677
98.8233
101.833
94.5313
114.686
98.3505
89.5038
97.4657
97.2245
129.246
97.5275
92.6297
94.3197
96.9072
99.3241
89.8753
43.6943
111.557
95.2837
98.7787
92.7834
93.9217
98.768
95.3951
96.807
97.9188
97.1698
97.5957
97.6644
128.809
97.4341
96.5952
93.5513
98.3188
51.5274
94.7906
90.3271
112.79
98.4097
98.3718
96.5845
101.755
94.2365
97.3937
97.6063
92.6577
97.8756
95.8949
94.02
126.968
98.6631
98.2508
97.2723
97.3003
94.4911
91.6209
100.168
99.9171
94.4868
97.7422
96.5494
102.087
96.7983
97.7046
119.105
69.1886
99.7532
54.1306
98.0003
95.2037
88.3772
86.9809
97.7618
96.7704
79.145
98.3307
121.118
98.801
89.255
114.935
126.078
119.202
99.6192
98.4235
93.9718
96.0824
93.4208
85.9782
91.8079
94.3242
99.51
109.6
109.215
103.535
92.4495
99.382
92.6787
101.995
97.298
97.0774
95.0467
97.22
96.3034
126.9
93.3295
93.313
93.3987
100.04
94.0355
95.2281
92.0295
97.7143
97.5508
94.2002
97.2831
96.8503
92.3202
99.6894
95.1742
98.9224
90.4745
92.9794
94.739
94.518
93.8333
110.348
98.6057
95.8632
95.8552
98.6496
116.004
124.093
98.6867
96.6773
118.159
97.524
103.758
97.8524
96.4363
97.3432
97.1618
97.8995
97.4544
98.3063
93.0698
96.4681
98.0016
128.378
97.5664
96.919
94.1009
97.1106
95.6412
96.7846
89.8949
96.4033
97.7399
101.375
123.126
94.7009
94.3049
98.0526
93.434
100.123
94.9867
98.2136
99.9218
96.9296
97.6093
96.1552
98.5231
50.3432
94.634
127.446
99.1457
97.2004
99.7879
125.575
94.6786
53.2268
102.133
97.4294
97.4683
97.7061
96.6795
97.6959
97.7248
93.4996
97.6227
92.7099
97.7325
97.7352
94.726
98.9662
102.204
127.991
99.0392
94.4578
97.4863
99.0536
97.7579
95.3697
108.937
87.2054
93.8516
101.558
96.2194
100.349
97.5108
101.565
120.663
96.7073
97.1316
97.9742
94.1843
129.307
92.6997
97.5077
92.7913
93.6929
98.4962
98.7361
97.5274
127.983
103.408
97.6273
97.6975
92.7917
102.019
96.9147
97.909
93.4214
98.6814
97.2218
96.1105
43.9719
99.4283
95.8055
112.732
129.15
95.4766
94.3137
96.7797
127.451
96.8325
99.8881
94.1834
34.8024
58.4278
98.7311
46.8664
97.0576
33.7877
94.6376
113.144
96.4998
94.782
97.7196
97.7028
97.6752
97.6856
97.8305
97.7813
97.8601
97.8688
97.7346
97.865
62.807
98.8621
98.5884
98.321
98.4062
56.3362
99.1855
98.1206
92.0021
95.0347
93.6259
90.7134
68.5051
49.0772
90.0475
78.042
73.3371
90.2783
99.2477
95.9382
96.3606
96.2559
95.4914
97.2856
97.8562
96.3245
98.85
97.7437
97.0808
96.8336
97.5925
96.7063
96.2779
98.4582
114.515
115.735
98.9791
99.9762
97.4926
90.8168
96.5766
102.043
114.219
118.388
107.553
104.836
122.207
126.094
129.994