/*--------------------------------*- C++ -*----------------------------------*\
| =========                 |                                                 |
| \\      /  F ield         | OpenFOAM: The Open Source CFD Toolbox           |
|  \\    /   O peration     | Version:  v1912                                 |
|   \\  /    A nd           | Website:  www.openfoam.com                      |
|    \\/     M anipulation  |                                                 |
\*---------------------------------------------------------------------------*/
FoamFile
{
    version     2.0;
    format      ascii;
    class       volVectorField;
    location    "0.84";
    object      U;
}
// * * * * * * * * * * * * * * * * * * * * * * * * * * * * * * * * * * * * * //

dimensions      [0 1 -1 0 0 0 0];


internalField   nonuniform List<vector> 
1466
(
(2.28111 -0.269745 -1.87836e-16)
(4.74741 -0.109966 -3.3084e-19)
(-2.66803 -0.188773 4.8485e-16)
(0.070224 9.37228 -3.68202e-17)
(-0.118073 -0.88773 -6.30684e-16)
(-2.13801 0.114729 -8.8711e-16)
(-0.772349 0.216266 2.14173e-16)
(3.2074 -0.366139 1.29201e-16)
(7.39489 0.111245 -8.85241e-19)
(4.85108 -0.169831 1.32232e-16)
(5.95819 -0.221649 -1.783e-16)
(5.08615 -0.511642 0)
(8.39615 0.0640676 0)
(0.0968989 -1.38581 -1.45196e-16)
(-1.22042 0.140066 0)
(4.6066 -0.488608 1.37984e-16)
(2.34938 -1.50747 -8.57267e-17)
(0.0312672 5.27543 -2.47326e-17)
(0.91782 5.61052 -7.89219e-17)
(-0.0741424 7.56604 1.29876e-16)
(0.109423 7.59247 5.75055e-17)
(-2.14153 0.0453479 5.25383e-18)
(0.0154604 6.21661 -5.50424e-17)
(-0.117221 7.31686 -1.40639e-17)
(8.28453 0.142175 7.25008e-17)
(-0.308569 0.0655066 -2.75081e-16)
(-1.39624 0.575204 -1.20448e-16)
(-0.0991579 7.72249 0)
(-1.68459 -0.111987 0)
(4.78389 2.37895 5.01005e-17)
(6.11867 -0.613395 1.18226e-16)
(-0.468099 -0.0440275 1.66083e-16)
(-0.604127 -0.985943 2.14559e-16)
(-0.397463 6.51485 1.34736e-16)
(4.32134 -0.202593 9.18839e-17)
(-0.909825 0.961391 2.25112e-16)
(-0.332462 5.87641 0)
(2.21371 -0.654676 -2.49619e-16)
(5.23598 0.180562 -2.61768e-16)
(-1.13265 -0.132474 -3.73968e-16)
(-1.41666 -0.0398045 -1.431e-16)
(-2.96351 0.0208652 -2.9746e-16)
(-3.09486 -0.0935482 1.6231e-16)
(-1.15144 -0.185563 1.303e-18)
(-0.166272 -0.297105 -4.3366e-18)
(3.10394 -0.026978 0)
(6.1848 0.109614 6.72339e-18)
(1.73228 -0.0568277 0)
(-1.8855 -0.328935 1.2365e-16)
(0.730257 -0.247388 0)
(-1.23264 0.299983 -9.98213e-17)
(4.64905 -0.0693878 -3.3945e-16)
(-2.28196 -0.0870544 5.91205e-16)
(0.468997 -0.503888 6.04611e-16)
(-1.12719 -0.534003 -9.59802e-17)
(6.41813 -0.0463461 1.20909e-16)
(2.86288 -0.157834 -1.87525e-17)
(5.85697 0.0111735 0)
(-0.127159 -0.138738 1.13447e-17)
(4.78888 0.0239391 0)
(0.343175 -0.0260532 2.12233e-19)
(-0.987631 -0.0459828 -1.14837e-16)
(-0.707508 -0.522353 1.82107e-16)
(4.13436 -0.198946 1.31767e-16)
(1.40021 5.63724 -1.71893e-16)
(2.01546 0.52216 2.13828e-16)
(-0.353101 1.99154 0)
(-0.049433 5.34605 2.64113e-17)
(7.31252 0.518284 2.84755e-17)
(-2.11483 0.0642585 -1.55172e-16)
(1.19935 0.834414 1.16419e-15)
(-0.117966 6.00304 0)
(-0.0366448 5.9661 0)
(8.19611 0.21367 -1.4913e-16)
(0.0699374 -0.339644 2.90373e-16)
(5.99661 -0.0562549 -1.11106e-16)
(-0.956637 -0.119241 9.89762e-17)
(-0.40233 -0.682801 -1.04704e-16)
(-1.3867 -0.153223 0)
(3.80296 0.790833 0)
(4.36921 0.0154444 -1.22976e-16)
(4.8404 -0.354123 -1.67771e-16)
(-1.66281 1.13941 -2.4366e-16)
(0.926935 3.32337 2.54189e-16)
(-0.123699 5.34529 1.11261e-16)
(0.594937 5.83444 4.11227e-17)
(-0.466143 7.78002 0)
(3.59513 0.269581 1.62797e-18)
(5.01244 0.104679 2.43033e-16)
(-0.176325 0.48434 -3.02749e-16)
(-0.0789855 0.0585537 -9.81263e-17)
(-2.06444 0.37739 -2.15607e-16)
(0.189164 7.18763 -4.06515e-17)
(1.31945 -0.641373 -2.04229e-16)
(1.68879 -0.475617 0)
(-1.98918 -0.326979 -3.22553e-16)
(4.52416 -0.130453 2.97437e-16)
(6.23634 -0.0298177 -6.97916e-18)
(6.58694 -0.125276 3.0228e-16)
(-0.610532 -0.387832 9.33491e-17)
(-1.83889 0.255817 4.89821e-16)
(-0.607321 0.0196014 0)
(1.61311 -0.0141081 3.55567e-16)
(-1.07477 -0.528493 3.22084e-16)
(-3.01805 -0.146637 -1.21403e-16)
(3.57974 0.162181 5.99521e-17)
(-2.3641 -0.166349 -2.23368e-17)
(1.25034 -0.302382 0)
(5.28765 -0.419427 1.69933e-16)
(2.39602 -0.0951791 6.76614e-17)
(0.200368 0.00299558 -2.73736e-16)
(4.74463 -0.0850499 3.62942e-17)
(1.97463 -0.573226 -3.36582e-17)
(-3.21742 -0.00756233 -3.74413e-17)
(4.27818 -0.340107 0)
(0.517781 0.0610664 8.89738e-17)
(-2.78422 0.164712 1.38165e-16)
(3.81319 -0.021901 0)
(-1.0887 0.111843 1.54235e-16)
(-1.1221 -0.0315462 -6.22226e-16)
(-0.230285 9.09012 -2.87087e-17)
(-0.135672 -0.539734 3.21131e-16)
(0.31919 -0.787092 -1.09763e-15)
(-0.845068 -0.245634 0)
(0.364796 -0.130868 -8.18341e-16)
(-1.18039 1.05327 -6.6644e-19)
(6.45763 0.967406 4.59064e-17)
(-0.249292 5.82711 -6.02429e-17)
(-0.0874396 7.1622 2.2216e-17)
(0.864997 0.477395 1.74025e-16)
(5.07036 -0.0300719 2.00152e-17)
(-2.41803 0.181316 0)
(-0.153175 6.3464 3.80191e-17)
(-0.150618 7.37065 2.94491e-17)
(-0.0124667 -0.0337807 -1.5881e-17)
(-1.23446 0.0406173 0)
(-1.25876 -0.021698 0)
(0.674542 -0.525191 -9.9106e-18)
(-1.3874 0.0284048 -9.73655e-17)
(-1.32114 -0.103843 2.02077e-16)
(-0.0670126 -0.345748 0)
(-0.0415834 7.72893 -5.64001e-17)
(-0.110749 6.613 -2.63311e-17)
(0.361655 5.27966 -2.19066e-18)
(-1.58386 -0.486903 -2.16802e-16)
(0.954261 6.52997 8.6674e-17)
(-0.469474 -0.0499543 -2.85135e-16)
(0.547469 0.0687292 -4.42869e-16)
(1.549 0.712297 -6.86994e-17)
(-1.01415 -1.05112 1.12651e-15)
(0.0229191 0.0348602 1.8314e-16)
(3.4114 -0.128089 -5.47351e-20)
(6.90299 0.830519 -1.38876e-19)
(0.753692 0.093747 0)
(1.59396 0.703326 0)
(-2.0832 0.135815 2.04074e-16)
(-0.19207 7.6066 -1.36821e-17)
(-0.479738 8.55812 -1.27783e-16)
(-0.19813 0.00672046 1.07209e-15)
(5.48547 3.74086 6.53815e-17)
(-0.454016 -0.00826836 1.25563e-16)
(5.37825 1.30385 0)
(0.575883 3.05089 7.21252e-17)
(-0.161384 6.87691 4.9612e-19)
(2.59352 2.63786 0)
(-2.67685 -0.223847 1.36377e-16)
(-0.0947033 6.67618 0)
(-0.20775 4.92696 1.84395e-16)
(-0.134189 6.63243 -2.77991e-17)
(2.02622 8.84789 5.53511e-17)
(-0.0961396 6.79898 1.87721e-16)
(-0.409436 0.077395 -1.20234e-16)
(1.13031 -0.0861067 4.55967e-17)
(7.21955 0.674127 -1.48677e-17)
(3.88044 -0.00668786 -2.32557e-16)
(7.69685 0.140133 -2.87507e-16)
(5.13445 2.95064 1.59912e-16)
(3.63581 1.66513 -7.31628e-17)
(0.0620438 0.0285466 -3.71123e-16)
(0.931399 1.15929 -2.42774e-16)
(8.65589 0.16434 3.53444e-16)
(3.97323 -0.136677 -2.40191e-17)
(-0.0690633 4.8343 -1.7485e-16)
(1.0312 0.303579 2.75586e-16)
(3.86169 0.186211 -4.1207e-17)
(0.197713 5.55234 -2.77804e-18)
(-0.123012 5.26642 -1.09754e-16)
(2.01513 4.61337 -1.40462e-16)
(7.15851 0.345602 7.03649e-17)
(-1.44092 -0.0516446 3.79267e-16)
(-0.0443475 6.91857 -1.26254e-16)
(0.382574 -0.077199 1.63502e-19)
(0.61321 4.16696 6.52221e-18)
(0.77937 6.1825 2.25626e-16)
(5.8664 3.27265 -3.86486e-17)
(0.325831 0.10524 0)
(-1.5195 0.22213 3.21641e-18)
(3.46856 1.19416 -3.50004e-16)
(1.30213 2.31821 -2.572e-16)
(1.70548 5.88383 -4.57471e-16)
(0.392279 3.20973 0)
(1.17379 0.558683 0)
(5.38437 2.17899 -5.29248e-21)
(0.368917 2.32622 0)
(1.36393 0.61639 2.04023e-16)
(1.66468 1.86128 -1.83373e-16)
(0.588807 6.90113 -1.01293e-16)
(6.77442 3.61725 0)
(-0.0441634 0.079068 1.36827e-16)
(-0.0574462 7.45664 2.22601e-19)
(0.549689 6.02059 7.3691e-17)
(-0.0787396 5.40132 -1.0445e-16)
(-0.239268 2.4021 0)
(-0.143098 7.22708 1.37652e-16)
(0.253998 7.37403 -3.56187e-17)
(-0.145233 6.63309 2.71572e-19)
(0.00485011 5.5606 2.88568e-18)
(-0.116088 5.09665 -9.63712e-17)
(3.60523 4.15525 1.41745e-16)
(-0.119666 7.01518 2.03342e-16)
(-0.275263 5.45879 -1.39561e-16)
(0.560094 0.00754749 -1.2426e-16)
(-0.120779 6.43958 -2.06151e-16)
(0.576668 0.154718 2.47086e-16)
(-0.136148 6.50652 8.86588e-17)
(3.53254 3.62952 -1.49441e-16)
(-0.860238 -1.37736 4.84797e-16)
(0.820189 0.74154 -2.61243e-16)
(0.0244912 0.0727164 -2.99778e-16)
(0.52742 -0.0277326 -3.46645e-20)
(0.689741 0.372083 -6.19844e-16)
(4.14629 0.0894391 2.21797e-16)
(1.01546 5.05154 1.12767e-16)
(0.534592 3.29052 2.01549e-16)
(-0.931911 0.780899 5.41359e-17)
(2.08632 1.36833 -7.3461e-16)
(-0.10057 6.61166 3.86442e-17)
(0.0190763 5.07294 1.75264e-17)
(0.620614 0.270571 2.44485e-16)
(-0.0425022 6.58698 2.399e-17)
(0.20775 1.84439 0)
(4.2 0.73361 4.66994e-17)
(5.72224 3.10926 8.51121e-17)
(2.32652 4.38098 2.07005e-16)
(0.147006 0.200242 0)
(5.79761 1.19718 0)
(-0.427778 -0.0295287 0)
(8.59271 0.334714 0)
(2.91567 0.811502 -1.2263e-16)
(5.98244 3.5733 -7.72778e-17)
(-0.044099 6.19834 -5.24157e-17)
(1.19779 6.07745 -2.4453e-16)
(6.96069 4.21665 3.3571e-18)
(3.7565 -0.835464 -1.05454e-16)
(-0.488817 0.0444039 3.06454e-16)
(0.378539 0.00541965 -2.76137e-16)
(-0.248341 7.7485 0)
(8.96841 3.96676 -1.81242e-16)
(-0.0274084 3.90219 -7.16747e-17)
(-0.0907306 2.433 1.11364e-16)
(-0.00413565 -0.568395 0)
(-0.196942 6.45521 -2.41086e-17)
(-0.139206 7.33519 -3.75051e-17)
(0.55745 -0.0659491 1.54618e-21)
(4.30576 3.81354 1.03177e-17)
(0.926769 0.0439873 -2.98873e-16)
(4.07819 -0.0757456 2.369e-16)
(1.56777 0.7758 -1.21529e-16)
(0.499673 6.73159 -1.84157e-17)
(9.29853 3.58848 -8.72756e-17)
(1.79294 4.177 -1.21044e-16)
(-0.0593522 3.86569 0)
(-0.285801 -0.638596 6.97304e-18)
(0.0145972 0.10012 -1.75762e-16)
(-0.0977708 -0.0201414 -4.0064e-16)
(0.740038 0.224413 4.76127e-16)
(0.255342 0.0836324 -2.57582e-16)
(2.70233 5.27223 -1.25293e-16)
(-0.165475 6.26123 -1.24924e-16)
(2.00904 0.85396 1.86938e-16)
(0.404527 -0.0557725 2.22981e-16)
(1.90958 -1.09176 2.46002e-17)
(2.45517 3.70032 0)
(5.25904 0.521969 -4.17649e-17)
(0.0912073 -1.65304 4.72675e-16)
(0.627691 -0.457715 -1.71478e-16)
(2.63173 1.27355 0)
(2.70354 1.25129 -3.38035e-16)
(-0.191894 -0.242983 0)
(7.87269 4.06856 -2.89081e-16)
(7.65154 1.18094 1.48318e-16)
(1.59929 -0.182377 -9.49141e-19)
(8.58031 0.12535 -3.70859e-16)
(-0.557831 -0.108256 0)
(3.86648 5.79629 1.08758e-16)
(1.03135 2.46951 -3.8502e-16)
(-0.0475287 3.57574 1.30406e-16)
(0.609469 -0.701742 4.23378e-17)
(2.55063 1.22792 8.3095e-17)
(0.367198 -0.047943 -2.72773e-16)
(0.386846 -1.12382 0)
(-0.805472 -0.0401079 1.9014e-16)
(-0.43403 -0.208071 0)
(8.76995 0.396134 -2.23331e-16)
(-0.43619 8.44115 0)
(0.316892 0.665088 9.80911e-17)
(0.483713 -0.597503 1.52281e-16)
(0.167458 -1.36959 -2.44275e-17)
(3.25632 8.44646 -2.77e-17)
(-0.211741 7.31787 6.87396e-17)
(7.04159 1.88956 1.61821e-16)
(-0.388392 4.44491 0)
(-0.108173 6.66906 -2.09729e-19)
(3.08316 0.346585 -1.49077e-16)
(3.84196 1.86484 -1.98217e-16)
(4.8637 2.87453 -2.98356e-16)
(-0.16072 0.00268672 0)
(5.32204 3.5431 2.24343e-16)
(-0.135951 -1.0879 0)
(-0.643081 0.178076 3.15183e-16)
(0.0145664 -1.33055 0)
(-0.0700341 3.77412 -1.36612e-16)
(0.0720501 1.9117 -6.90213e-17)
(0.259023 -0.0287759 3.49281e-16)
(-0.32431 8.75404 -1.98029e-17)
(7.85729 5.25374 -9.03738e-17)
(0.8323 -0.319412 -8.66921e-17)
(4.86692 3.7435 -2.24349e-16)
(-0.0252054 -0.0531658 -2.89854e-16)
(3.08709 0.121776 1.80272e-16)
(0.0550998 5.79005 9.8988e-17)
(7.91896 4.65793 5.48105e-16)
(-1.58773 -0.930923 -3.7403e-16)
(3.57734 7.18645 2.35017e-17)
(2.36706 2.68873 -1.62716e-16)
(7.18439 1.75919 6.70659e-17)
(2.44418 1.42399 -4.24046e-16)
(0.658312 0.163236 4.26637e-16)
(0.612879 -0.209539 -2.39107e-16)
(-0.164071 -0.66433 -2.18229e-16)
(0.561625 -0.302256 6.46852e-20)
(6.53262 3.16851 7.21335e-17)
(1.24566 -1.41804 4.15125e-17)
(3.24008 3.28601 -3.53899e-17)
(1.61952 8.78191 -6.00584e-17)
(-0.625954 -0.125582 -9.74551e-17)
(5.51483 0.421972 -1.96241e-17)
(3.91874 6.11948 -8.2398e-17)
(6.85898 0.220375 2.61734e-17)
(2.82138 2.25156 1.76723e-16)
(6.30314 4.57221 -2.15582e-18)
(8.62033 2.75432 -5.09758e-17)
(-0.0129053 10.41 -6.23071e-17)
(0.832517 0.902449 1.29939e-17)
(-0.849528 -0.950144 0)
(0.952102 1.58659 2.30603e-16)
(-0.438133 3.5382 -2.24959e-16)
(3.55319 0.447501 6.56006e-18)
(9.56298 2.50394 0)
(3.55319 7.42815 2.47893e-17)
(-0.379695 -0.337662 0)
(1.3412 2.8752 1.08419e-16)
(1.93343 4.91902 1.11539e-16)
(0.0981788 2.60405 0)
(-0.365786 -0.706518 -2.98839e-16)
(-0.0116071 2.04245 4.46106e-19)
(7.11269 2.95659 5.75369e-17)
(7.29983 2.52035 4.99002e-17)
(-1.02789 -2.0442 1.66488e-16)
(2.82193 6.88349 4.02824e-18)
(3.06927 8.94065 0)
(0.7483 2.3817 1.15335e-16)
(1.38322 2.95125 -3.4327e-17)
(3.05346 8.43017 -3.26002e-18)
(-0.16216 -1.52192 5.83878e-16)
(-0.232555 4.49494 4.06395e-17)
(3.10544 -0.525597 -2.61796e-17)
(1.23765 5.3848 7.61074e-17)
(1.13649 -0.889498 6.22692e-16)
(4.04525 4.61545 -8.81668e-17)
(0.130219 1.77101 1.04672e-16)
(0.176233 1.56313 -3.39907e-16)
(0.0824739 2.26085 -1.9979e-16)
(0.0265382 2.65208 2.79021e-16)
(0.0422522 2.13262 0)
(0.106246 1.8922 1.60755e-16)
(0.664203 -1.93397 -2.02516e-17)
(0.265612 -2.18115 -2.0138e-16)
(0.0424374 -1.59173 1.7296e-16)
(0.1292 -1.28714 -4.53336e-17)
(0.0905417 0.0359143 2.13419e-17)
(0.140556 1.21327 4.93706e-17)
(0.0602317 1.56332 -6.45149e-17)
(0.0969444 1.08065 -5.84056e-17)
(0.172725 0.014601 9.94058e-20)
(0.168554 -0.702968 1.51491e-16)
(0.0539931 -0.645301 -5.90701e-17)
(1.2359 7.11449 -3.06757e-17)
(0.164627 -0.0676317 8.30135e-17)
(0.186724 -0.690363 0)
(0.213481 0.1203 -2.11561e-16)
(0.636606 0.216622 2.35317e-16)
(1.61086 8.98421 0)
(-0.805691 -0.768754 2.77378e-16)
(1.19991 9.7578 -2.02931e-17)
(-0.0312171 -0.137667 6.21873e-19)
(1.64211 7.78269 -3.2087e-16)
(-0.230048 0.509174 -1.2189e-16)
(2.32568 -0.340449 0)
(1.57042 -0.0972818 1.0563e-16)
(-0.0152347 0.395996 -1.4725e-16)
(1.3938 6.89832 -1.43754e-16)
(1.09938 3.5652 2.58878e-16)
(0.781233 -0.148384 5.9982e-16)
(2.9158 1.4844 -1.15137e-16)
(-0.508864 -1.42235 0)
(-1.01839 -0.969943 0)
(1.01633 0.960445 1.33795e-16)
(0.213377 0.173698 0)
(0.994309 -0.183554 0)
(0.243514 0.157715 -1.79588e-16)
(-0.519407 0.0877632 3.96136e-16)
(0.626257 -0.0888797 0)
(1.03751 4.58857 1.05618e-16)
(0.0149957 0.077033 1.54136e-16)
(0.14065 -0.355366 -1.58539e-19)
(-0.275569 0.558628 4.36692e-16)
(2.07956 0.454078 2.71776e-17)
(-0.298001 0.162337 -8.3337e-16)
(-0.236314 -0.000836975 4.34726e-16)
(0.645472 -0.104776 0)
(0.190779 -0.481667 2.32644e-21)
(-0.415292 -1.0621 5.63432e-16)
(-1.6602 10.3156 1.86385e-17)
(2.18256 -0.0371849 -5.02811e-16)
(0.0525578 -0.517852 -4.4289e-16)
(-0.558802 -0.659427 7.68485e-17)
(-0.195431 -0.706796 -8.04683e-17)
(0.0367068 -1.03747 3.33362e-16)
(0.0261808 -0.138909 -3.69715e-16)
(-0.19295 0.0575061 4.80199e-17)
(0.216542 -0.331404 -1.01864e-16)
(0.908366 -0.281112 2.72932e-16)
(-1.19514 -0.540608 0)
(1.35954 -0.0322258 -3.03586e-16)
(1.01516 -0.590615 1.66587e-16)
(8.60059 0.0966468 7.88016e-17)
(2.20685 -0.09849 0)
(1.10492 -0.728199 -1.01591e-16)
(1.71913 -0.421509 1.60789e-16)
(2.57808 -0.144379 1.03265e-20)
(1.48813 -0.797629 -1.29425e-16)
(0.0533475 -0.00382637 -5.20392e-17)
(8.7617 0.137647 3.59574e-17)
(0.0842729 0.487832 -2.162e-18)
(0.00875495 -0.219236 6.3007e-18)
(0.393431 1.0087 0)
(-0.864381 1.78512 0)
(0.0362443 -0.202172 0)
(1.48691 -0.0890018 2.67885e-16)
(-0.26699 -1.51041 -4.69268e-16)
(0.0405216 0.0808897 -2.67685e-17)
(-0.322265 1.35833 -1.98456e-16)
(-0.526373 2.22881 5.60268e-16)
(1.07791 -0.996551 2.18433e-16)
(0.924772 -0.924705 -1.62522e-16)
(0.0979972 1.47151 -1.18296e-16)
(0.0867134 0.120046 -4.00258e-17)
(0.297488 0.252122 -7.4728e-17)
(0.173683 1.31179 6.34422e-17)
(0.150592 0.209387 1.62098e-16)
(0.276237 1.34202 -1.32036e-18)
(-0.50683 -1.37289 -6.11135e-16)
(0.476265 0.816514 8.45057e-19)
(1.08866 -0.0917432 1.54823e-16)
(0.493752 -0.887782 6.02002e-19)
(0.449888 -0.375624 -2.38604e-16)
(0.507147 2.88021 0)
(0.554572 2.33727 0)
(1.4576 1.19212 -9.08838e-18)
(2.53832 7.52406 -8.93834e-17)
(-0.229824 4.83854 1.86111e-16)
(-0.169455 8.36441 -1.25499e-16)
(0.51459 2.76285 7.94259e-17)
(0.946046 1.56342 -3.13775e-17)
(6.87614 4.76877 -1.78575e-16)
(0.512666 -0.995582 -1.79496e-16)
(0.4597 -0.10687 2.20963e-16)
(0.555968 2.42901 -1.08503e-16)
(1.56581 5.14745 1.04107e-16)
(0.864912 1.0476 1.35583e-16)
(-0.105735 7.78388 3.5444e-17)
(1.03129 -1.86091 -1.83645e-16)
(0.0479656 1.56759 1.13808e-16)
(0.61842 2.27689 0)
(0.021724 1.83329 2.63083e-17)
(-0.185352 3.70124 0)
(-0.00639837 2.26901 6.24189e-18)
(4.56378 2.76393 0)
(0.017467 2.42436 6.13714e-17)
(-0.0295815 3.02841 0)
(-0.11664 4.03663 0)
(-0.3446 2.77048 -1.35555e-18)
(-0.0623324 -1.30939 2.57743e-16)
(0.0161126 1.39642 -2.45844e-16)
(0.0778831 3.56557 0)
(2.32268 8.09917 0)
(2.01302 -0.0692774 2.23173e-16)
(0.875201 -0.897366 1.26313e-16)
(-0.0935291 2.75596 0)
(1.77037 -0.0577814 2.80165e-16)
(0.895788 2.09097 -1.45694e-17)
(0.202515 2.4078 5.31661e-17)
(-0.685768 9.37557 -6.48377e-17)
(-0.221576 3.72296 -8.50041e-17)
(0.0325263 2.61808 -9.52183e-17)
(0.109543 0.499282 -2.48194e-17)
(8.81683 0.143206 -3.3414e-16)
(8.20055 0.254121 8.38779e-18)
(2.03451 -1.06013 5.65251e-16)
(-0.0838404 3.14637 -4.86627e-18)
(0.452952 0.287747 2.80837e-16)
(0.112481 4.3527 6.12273e-18)
(5.79948 4.85459 0)
(0.721377 2.55198 0)
(0.202224 0.864653 3.83886e-17)
(0.306311 0.464358 0)
(0.231856 -0.968338 -4.2153e-16)
(0.120618 0.943231 -5.14001e-17)
(0.410451 3.19444 -1.03125e-16)
(0.330356 -0.412518 2.03255e-16)
(-1.18438 10.3469 -2.15643e-17)
(0.21619 0.793692 -2.54883e-16)
(0.0128359 1.71047 0)
(-0.0627911 2.44787 0)
(0.189188 0.503417 -4.74188e-17)
(5.27135 6.19519 0)
(2.34506 6.67736 0)
(0.0640523 0.490784 0)
(-0.0760214 7.75509 -1.34351e-16)
(6.80343 5.50012 7.17225e-17)
(-0.631243 -1.12406 -2.49533e-16)
(0.182644 1.61357 -2.30836e-16)
(0.0705127 1.50757 1.80624e-16)
(0.0694284 0.983265 6.38474e-17)
(4.51531 7.18646 -3.22088e-17)
(0.0563297 1.01529 1.88482e-18)
(6.6079 6.2296 -3.75655e-17)
(-0.213539 6.45047 -4.41455e-17)
(1.34822 -0.0149841 1.24372e-16)
(2.29683 -1.21318 1.97483e-16)
(0.611322 -0.817053 9.7614e-17)
(0.372471 0.316373 -4.28102e-17)
(-0.0424901 2.35384 -9.38663e-18)
(-0.798905 9.84729 2.63382e-17)
(-0.161785 3.25035 1.43722e-16)
(-0.120557 2.87552 -3.93428e-22)
(0.065663 1.65567 2.75743e-17)
(2.05643 -0.289611 1.28294e-16)
(7.5018 5.8463 -1.60494e-16)
(0.29042 3.58615 1.2682e-17)
(-0.419946 -0.530702 1.95994e-16)
(0.797249 -0.0553118 2.85837e-16)
(4.38482 4.76856 2.70236e-17)
(8.26593 0.336599 -2.90127e-16)
(0.104431 0.648037 6.94647e-17)
(0.016215 1.63072 6.84889e-18)
(0.0196968 4.72634 -1.17412e-17)
(2.60889 4.95518 5.90778e-17)
(-0.265959 5.39021 8.41158e-17)
(-0.300717 8.77444 1.81365e-17)
(-0.0127597 5.06176 0)
(0.819585 0.413006 0)
(3.89861 2.00326 4.77723e-16)
(1.06717 1.60323 -6.19925e-18)
(-0.506297 9.0747 4.72412e-17)
(8.77421 3.57803 -3.92915e-17)
(-0.202165 4.30046 2.20132e-17)
(-0.0761971 2.57818 -1.2015e-17)
(5.14748 -0.614999 2.46582e-16)
(1.32261 1.7563 -5.2309e-17)
(-0.30949 5.62151 -3.90026e-17)
(-0.163292 3.4543 8.82082e-17)
(0.204293 3.32046 -1.46416e-16)
(0.0782962 1.93618 1.9448e-16)
(0.980922 2.14048 6.00044e-17)
(-0.279908 9.29462 3.53568e-20)
(9.00948 1.84067 1.08249e-17)
(0.0160659 2.00949 -1.57232e-16)
(0.11883 0.776534 -1.10162e-16)
(-0.466754 8.0129 -7.45138e-17)
(5.53295 6.95241 0)
(-1.2938 -1.38264 0)
(-0.140977 3.30966 -9.26222e-17)
(0.219512 6.77987 2.35459e-19)
(-0.132305 6.72576 2.97164e-17)
(1.56972 5.48519 7.32392e-17)
(-0.490617 10.5838 4.93861e-18)
(1.69057 1.41531 2.23221e-18)
(-0.313206 8.62427 1.55147e-17)
(4.29017 2.36224 0)
(8.57767 4.70913 -5.41465e-18)
(8.35364 4.35403 -7.67647e-17)
(3.72687 8.17334 3.07326e-18)
(0.907545 3.78005 -6.9344e-17)
(-1.08573 -1.08135 -1.7554e-16)
(1.80751 -0.0373108 -2.03046e-16)
(0.877929 0.348563 -1.24445e-16)
(-0.792926 -0.94258 -1.01581e-16)
(-0.0442529 3.62221 0)
(0.528442 1.4016 7.06911e-18)
(0.181112 6.66349 0)
(6.37387 6.35291 0)
(5.83381 5.28031 4.01889e-17)
(-0.0352161 6.42492 0)
(5.80244 3.95608 1.06394e-16)
(4.16118 2.1315 -1.29462e-16)
(5.56638 5.86802 4.78723e-17)
(7.36639 1.35516 0)
(-0.406981 9.4377 -6.52752e-18)
(4.35335 7.70885 1.116e-17)
(0.435089 -1.01754 3.33401e-16)
(1.10305 -0.0673523 -1.46607e-16)
(7.34486 5.44196 2.20499e-16)
(7.23638 0.115643 -5.52124e-18)
(-0.121909 3.20682 9.75364e-17)
(-0.429399 7.02482 9.78764e-17)
(-1.20196 -1.41674 1.02004e-16)
(-0.771577 -1.26745 -1.73585e-16)
(-0.278976 4.74622 0)
(1.355 0.653439 -4.71299e-17)
(7.6343 3.5071 1.04687e-16)
(7.40069 1.68909 -1.08267e-16)
(7.67315 4.73501 6.21631e-17)
(-0.170371 4.18323 -4.75047e-17)
(9.06745 2.87553 5.58509e-17)
(-0.531641 9.35499 -8.62372e-19)
(-0.269502 8.87641 -2.106e-17)
(2.85289 1.12189 3.83993e-16)
(-0.125913 9.10709 3.58011e-17)
(-0.213926 6.74189 4.46157e-17)
(0.529949 8.87232 2.87253e-17)
(0.147363 10.7102 5.18443e-18)
(0.652084 0.137377 2.13545e-16)
(-0.194454 5.26755 -8.00911e-17)
(8.23484 5.19345 -9.38014e-17)
(-0.779664 -1.63968 1.01162e-16)
(0.00861455 4.61662 0)
(-0.0417206 10.812 2.31974e-18)
(5.01524 6.88712 -2.36529e-17)
(-0.14415 4.16129 -4.5156e-17)
(8.6494 0.383638 4.06294e-16)
(4.03244 0.317366 2.47007e-19)
(0.223932 -0.975836 2.54528e-16)
(0.0941797 0.375713 2.17644e-16)
(-0.135712 4.78305 1.56399e-16)
(0.697272 -0.577316 1.67252e-16)
(-0.187639 6.4989 1.14867e-16)
(-0.0265384 -0.0633741 3.6464e-16)
(9.43673 1.16809 6.69044e-17)
(0.246642 4.03183 -7.53161e-17)
(4.61805 0.0135665 4.877e-18)
(0.0604962 -0.476893 4.5811e-16)
(8.67757 4.16392 0)
(0.720546 0.526215 0)
(0.470318 0.265076 1.63078e-16)
(-0.500728 3.75458 1.02472e-18)
(1.95456 0.698701 0)
(2.84445 -0.288319 0)
(0.996527 -0.679623 0)
(0.226827 -0.833906 -4.60155e-17)
(0.557232 0.131478 5.58338e-17)
(2.39349 -1.34626 0)
(0.826101 0.321753 8.36918e-16)
(-0.689844 -0.918318 -8.86699e-16)
(-0.0711368 -1.57618 1.33616e-16)
(-0.257057 0.0447563 -2.74404e-16)
(-0.448837 -0.137249 2.54768e-17)
(2.67057 -0.128556 1.06637e-16)
(8.09424 3.04651 2.60704e-16)
(-0.162158 8.77865 3.62885e-18)
(-0.423119 -1.84496 -1.87778e-17)
(-0.41705 -0.010281 8.83128e-16)
(0.00904537 -0.5602 0)
(-0.218391 0.102911 -3.83246e-16)
(0.385626 -0.0289453 2.69363e-16)
(0.51661 0.191655 0)
(-0.670332 0.050516 2.10503e-16)
(2.00089 0.902445 9.53499e-18)
(-0.55988 0.0462167 0)
(-0.0309189 0.286366 1.1279e-16)
(8.16919 2.46197 -3.82857e-17)
(8.60743 3.64784 -1.75104e-16)
(2.02949 9.37593 -1.14174e-16)
(-0.00722817 0.125739 3.68595e-16)
(-0.727656 0.048173 -7.29344e-16)
(1.78811 9.9266 -6.65576e-17)
(1.49998 -1.44178 -9.50014e-17)
(0.762738 0.193717 -5.56037e-18)
(0.333404 3.10689 7.94722e-17)
(-0.259186 6.59254 1.19966e-16)
(0.270408 0.152807 0)
(-0.614929 0.0478428 1.95041e-16)
(-0.0209598 -0.0498667 0)
(0.000835012 3.13567 0)
(-0.00694375 2.72653 1.09895e-16)
(1.24036 0.31386 -1.7318e-16)
(0.111322 -0.666937 9.9346e-17)
(-0.781626 0.0406424 3.52613e-16)
(0.0379353 2.58666 -9.5315e-17)
(0.261964 1.30179 0)
(0.213354 4.42512 1.00825e-18)
(1.49889 -0.422497 3.26915e-16)
(-0.165432 10.5526 1.90859e-17)
(-0.204109 6.96598 4.54847e-17)
(-0.264554 8.56728 1.14329e-16)
(4.30306 1.31541 -4.8677e-17)
(0.0135852 3.68507 -1.83254e-19)
(-0.378045 -1.33828 -1.49895e-16)
(1.67238 0.613855 -1.16402e-16)
(6.6838 -0.0607394 5.96888e-17)
(3.44512 -0.404511 -1.63896e-16)
(-0.540693 0.0998799 0)
(-0.0315952 3.63826 0)
(-0.315581 6.81143 0)
(-0.286547 6.40789 2.29458e-16)
(-0.134961 8.98471 -2.09733e-17)
(0.313742 0.713102 0)
(0.395459 0.112435 0)
(-0.749591 -0.0726092 5.80521e-17)
(0.891041 -1.62038 7.98396e-17)
(-0.00746506 4.16281 1.7081e-16)
(-0.177961 -1.32893 3.42635e-16)
(-0.434664 -1.26982 0)
(1.03672 -0.45889 -4.72968e-17)
(3.11413 1.98968 6.75053e-16)
(-0.114859 6.92596 -2.70853e-21)
(-0.302482 8.8672 0)
(-0.739643 0.370501 -2.46265e-16)
(-0.0820443 6.15089 4.11821e-17)
(-0.327295 5.32759 7.26975e-17)
(1.74209 -0.0155699 1.11396e-16)
(-0.170995 4.61969 0)
(-1.75384 -0.0527622 1.43692e-16)
(0.206233 0.063671 6.85103e-16)
(0.117984 0.159344 3.51992e-16)
(1.51941 0.174441 0)
(0.0506871 -0.732547 2.87626e-17)
(0.132223 1.39572 -1.21533e-16)
(6.08235 1.07723 -9.82147e-18)
(-0.137771 8.83866 -1.17601e-17)
(4.8453 -0.828348 -3.00831e-16)
(-0.323589 0.0361141 1.80447e-19)
(0.479976 0.863109 1.37252e-16)
(-0.158638 5.76625 2.24201e-16)
(2.46502 0.431586 -1.11247e-16)
(1.28619 6.11876 1.12331e-16)
(-0.121224 9.20325 0)
(8.46874 0.915578 -1.19445e-16)
(0.178886 2.68566 -8.5928e-17)
(-0.108051 5.38571 5.51886e-17)
(0.155176 -0.401292 1.97079e-16)
(1.02932 0.250129 -7.10092e-20)
(3.41105 1.31898 -4.18179e-17)
(0.473731 3.58311 -5.06962e-17)
(5.58709 2.69011 0)
(-0.126903 7.56322 -1.85138e-17)
(2.77745 3.09024 0)
(1.20619 -0.959371 0)
(-0.0568333 5.36789 1.7605e-16)
(1.89554 -0.0299121 -7.61705e-17)
(0.247405 0.110726 1.90789e-20)
(0.27778 -0.992484 2.54326e-16)
(0.0267392 -0.444885 1.9433e-16)
(-0.979725 0.36417 4.46927e-19)
(-0.098614 5.27238 -2.86642e-16)
(4.10322 1.90736 2.87914e-17)
(-0.380912 0.0764166 3.9339e-16)
(0.26515 1.06133 9.28034e-20)
(1.34912 6.45167 1.59692e-16)
(0.203528 0.548622 0)
(0.201242 -0.475716 4.03504e-17)
(-0.0686911 7.63826 2.42446e-17)
(1.88727 -0.129928 -2.02698e-17)
(-0.278128 -0.765983 -6.99202e-17)
(-0.125164 -1.58005 -2.21651e-16)
(0.288991 0.0796485 3.44729e-16)
(-0.281373 4.64157 0)
(-0.015906 3.42713 5.33309e-17)
(2.29905 8.15909 -1.37711e-16)
(0.251133 1.13619 1.1824e-16)
(0.563754 -0.0150991 -4.20223e-16)
(-0.117884 5.46467 0)
(0.158588 -0.461485 -4.86516e-16)
(2.8621 -0.106361 -1.00564e-17)
(8.29893 1.48302 -5.99563e-17)
(-0.418361 8.03828 7.59627e-17)
(5.91223 -0.0960696 8.2006e-18)
(-1.26716 -0.437901 -2.22081e-16)
(0.44023 0.470878 -5.16908e-17)
(0.321684 -0.762691 -2.83492e-16)
(-0.329998 -0.879863 -1.61993e-16)
(-0.365742 6.81314 7.74963e-17)
(-0.649079 -1.8334 -2.48486e-16)
(5.88347 2.63602 1.92959e-16)
(1.08312 -0.0206404 -3.29446e-16)
(-0.0682793 -0.631755 1.86979e-16)
(8.44856 0.510941 8.01678e-17)
(-1.6134 0.23461 3.25978e-19)
(-0.0584591 9.19688 7.39432e-17)
(-0.0639183 7.10557 4.26856e-17)
(-0.171751 8.30725 -5.60718e-17)
(-0.199946 5.68297 3.71428e-18)
(-0.127368 7.17627 8.88465e-17)
(1.27051 0.42082 -1.09712e-19)
(-1.63469 -1.18278 1.92672e-16)
(1.03517 -0.231872 -7.77142e-17)
(-0.1112 7.61598 0)
(-0.103619 -0.0122137 -1.90303e-16)
(-0.464586 8.92493 -4.63396e-17)
(4.63922 0.627434 -6.75899e-17)
(0.0123831 4.11378 2.40709e-19)
(-0.610082 0.523551 -2.66051e-16)
(2.69391 1.10988 -9.75725e-17)
(0.428614 -0.767578 1.87694e-16)
(0.325373 -0.140838 1.9001e-16)
(-0.0749254 3.5838 0)
(8.74682 1.43266 0)
(8.18887 1.0627 4.39183e-17)
(-0.0988634 5.67795 0)
(3.39186 0.834709 0)
(2.03816 0.714453 -2.0411e-16)
(0.175829 0.382007 0)
(1.56486 -0.318776 9.35748e-17)
(3.12617 -0.0257072 1.56534e-16)
(0.0427159 0.69446 6.86869e-19)
(-0.912653 0.656386 -1.01886e-16)
(-0.489651 0.057888 -3.97686e-16)
(0.204054 -0.316375 -1.95365e-19)
(0.180457 -0.122349 0)
(0.116435 0.529812 -7.16944e-17)
(-0.0699332 5.47177 8.16201e-17)
(0.191663 3.91472 2.47891e-17)
(2.28319 -0.38674 -5.60704e-19)
(0.684778 -1.06639 0)
(2.09732 8.68469 2.75551e-18)
(1.73374 0.141708 -1.51798e-16)
(-0.428198 7.16834 1.41251e-16)
(4.41372 -0.0578087 0)
(-0.762577 -1.16936 -6.21116e-16)
(3.05236 -0.956498 1.63493e-16)
(5.6024 0.313522 4.02684e-17)
(0.120014 9.53594 -4.75391e-17)
(0.113951 1.61757 0)
(0.222591 0.323875 1.45392e-16)
(1.22805 0.105729 6.22604e-16)
(2.71069 0.381191 -9.18139e-19)
(4.04005 0.103819 4.40756e-16)
(3.26742 0.0607728 5.78538e-17)
(-0.464563 10.4872 -9.39709e-17)
(0.548932 2.83957 -3.11559e-16)
(-0.364094 5.98509 -2.84571e-16)
(8.66685 0.243233 6.454e-19)
(0.502452 0.277843 -5.61887e-16)
(-0.197612 -0.0389869 -1.26349e-17)
(1.13705 -0.185558 1.80449e-16)
(0.0705168 9.50616 5.12893e-17)
(-0.536075 7.17007 -1.83193e-16)
(3.02366 -0.0626912 2.3256e-16)
(-0.00805737 2.22885 5.09124e-17)
(0.11853 0.912842 -8.12945e-17)
(-0.558326 0.0512144 5.24791e-16)
(-1.08167 -1.05049 -9.15959e-17)
(-0.100845 0.0436755 -6.65279e-17)
(0.522269 1.92496 -1.17466e-16)
(0.458957 0.448062 2.42988e-19)
(0.103729 4.23309 0)
(0.0794194 6.28646 0)
(0.0488717 6.21754 0)
(0.0632526 6.24196 -3.63592e-17)
(-0.161643 6.15734 2.1693e-17)
(0.000826843 6.06932 0)
(-0.168696 6.56578 0)
(-0.0765921 6.03185 0)
(0.100914 7.48646 -7.63911e-17)
(0.0640112 6.15983 0)
(0.167508 5.91604 0)
(0.15798 7.1745 7.70672e-17)
(0.0221144 7.53393 0)
(-0.0405379 7.4883 -3.50442e-17)
(0.193935 6.81401 1.88245e-17)
(-0.0360834 6.19744 0)
(0.303376 5.40449 -9.99664e-17)
(0.223663 5.98737 -3.64903e-17)
(0.223772 6.41575 2.22356e-17)
(0.450117 4.62091 1.11751e-16)
(0.546734 3.63227 3.42496e-17)
(0.646049 1.8535 1.85937e-17)
(0.59975 2.70615 -2.02679e-17)
(-0.0606413 7.43723 3.65272e-17)
(-0.0602106 7.42469 0)
(-0.0483466 7.41411 0)
(0.00905189 6.15815 3.63482e-17)
(4.73734 -0.0652574 4.2709e-17)
(8.35975 0.0273857 -2.36624e-18)
(-0.756793 -0.0169435 -3.0491e-16)
(-0.593851 -1.5612 -8.51339e-17)
(0.975996 0.836867 -1.77554e-16)
(-1.40962 0.581574 -1.98758e-16)
(0.922575 -0.348263 2.87488e-16)
(0.627445 -0.953189 2.35545e-16)
(-1.65582 0.00416127 0)
(-0.223231 6.7513 -1.42148e-16)
(0.213231 6.01067 -6.63463e-17)
(-0.266816 6.16177 -4.24348e-17)
(-1.33641 0.284203 -4.1406e-16)
(1.28447 0.192962 0)
(8.78919 2.19322 -1.01948e-17)
(0.450244 -0.608635 -1.47759e-16)
(0.660877 0.0749715 1.61607e-16)
(-1.28173 -1.1625 7.76652e-17)
(1.483 -0.0650254 8.27809e-16)
(0.0781844 8.48274 9.79915e-17)
(3.158 -0.0956907 0)
(2.34204 9.78038 3.07596e-16)
(-0.0473876 5.39519 0)
(-1.85218 -0.224595 0)
(-0.0517986 7.42386 0)
(-0.699098 -0.317342 8.41483e-17)
(0.21611 -0.595914 1.89569e-16)
(8.96756 0.918675 -2.57168e-16)
(-0.863138 0.0354389 -2.05479e-16)
(8.79614 0.579197 -7.90038e-17)
(0.132348 1.79078 0)
(1.79867 0.0901587 0)
(-1.68906 -0.918797 -1.06914e-16)
(-0.388521 7.92681 1.60579e-16)
(-0.961014 0.74456 0)
(0.2564 -0.140375 -3.51683e-16)
(0.170008 0.127516 0)
(-1.06998 -1.19838 0)
(0.0430503 0.148741 3.67478e-17)
(4.4929 0.282099 5.67407e-19)
(-0.318394 7.67433 -3.80612e-17)
(-0.828643 0.0299027 -3.96799e-16)
(-0.728316 -0.374763 2.77107e-16)
(2.74103 0.146805 -1.48832e-16)
(-0.0276004 5.35 0)
(6.96862 0.175349 3.22576e-17)
(8.44033 1.91314 0)
(2.14048 0.924451 -3.50429e-16)
(1.61659 0.344147 -2.69618e-16)
(3.2605 1.04564 -3.15068e-16)
(0.864512 0.3113 -1.842e-16)
(2.69378 1.01885 -1.63309e-16)
(0.884471 -1.38246 -5.35141e-16)
(-0.212342 -0.135293 -1.39052e-17)
(1.81418 -0.180158 5.50596e-17)
(3.13971 -0.0973722 -1.22315e-17)
(4.3483 0.289617 1.54639e-17)