# vtk DataFile Version 2.0
track0
ASCII
DATASET POLYDATA
POINTS 16731 double
1.66533e-17 0.5 -5.37764e-17
0.391304 0.5 0
0.393043 0.493016 0
0.395216 0.486154 0
0.397794 0.479435 -5.55112e-17
0.4 0.47458 -5.55112e-17
0.407597 0.459664 -5.55112e-17
0.417321 0.446039 -5.55112e-17
0.428944 0.433993 -2.08167e-17
0.442187 0.423755 -1.249e-16
0.48367 0.4 -5.55112e-17
0.486936 0.399558 -1.11022e-16
0.490212 0.399202 -5.55112e-17
0.493497 0.398931 0
0.496788 0.398746 0
0.5 0.39865 0
0.52 0.398563 -2.77556e-17
0.528314 0.4 -2.77556e-17
0.542651 0.40365 -1.38778e-17
0.556366 0.4092 0
0.569215 0.416532 0
0.580998 0.425479 8.32667e-17
0.6 0.444318 1.11022e-16
0.606771 0.455454 1.38778e-17
0.612353 0.467232 2.77556e-17
0.616779 0.479491 5.55112e-17
0.62009 0.492097 -2.77556e-17
0.621469 0.5 0
0.623943 0.52 -5.55112e-17
0.624133 0.540152 -5.55112e-17
0.621952 0.560186 -1.11022e-16
0.617389 0.579815 -1.11022e-16
0.610015 0.6 -5.55112e-17
0.608012 0.603844 -1.11022e-16
0.605896 0.607627 -1.45717e-16
0.603668 0.611346 -9.71445e-17
0.601327 0.614994 -1.38778e-16
0.6 0.616926 -5.55112e-17
0.588164 0.633541 -5.55112e-17
0.573924 0.648148 -2.77556e-17
0.55756 0.660328 -8.32667e-17
0.539502 0.669818 -6.93889e-17
0.5 0.684135 0
0.48 0.685614 0
0.459963 0.684782 1.38778e-17
0.440114 0.681917 2.77556e-17
0.420667 0.677017 5.55112e-17
0.4 0.66941 1.11022e-16
0.38 0.65886 1.11022e-16
0.361588 0.645734 1.80411e-16
0.345104 0.630256 1.8735e-16
0.331004 0.612578 1.11022e-16
0.323775 0.6 1.11022e-16
0.31902 0.589409 6.93889e-17
0.315089 0.578486 1.66533e-16
0.31194 0.567312 1.11022e-16
0.309521 0.555958 1.38778e-16
0.301291 0.5 1.63064e-16
0.304202 0.48 1.66533e-16
0.308876 0.460337 8.32667e-17
0.315297 0.441174 1.11022e-16
0.323444 0.422678 1.11022e-16
0.336054 0.4 5.55112e-17
0.348843 0.382556 0
0.363354 0.366516 2.77556e-17
0.379412 0.352026 5.55112e-17
0.396814 0.33918 2.77556e-17
0.4 0.337301 0
0.41319 0.329841 0
0.426916 0.323419 8.32667e-17
0.441076 0.318019 4.16334e-17
0.45556 0.313565 0
0.5 0.303059 8.32667e-17
0.518762 0.302447 5.55112e-17
0.537507 0.303452 8.32667e-17
0.556091 0.306096 5.55112e-17
0.574364 0.310394 5.55112e-17
0.6 0.318931 5.55112e-17
0.62 0.329221 5.55112e-17
0.638431 0.342111 2.08167e-17
0.655063 0.357253 2.77556e-17
0.669592 0.374422 2.77556e-17
0.685805 0.4 1.11022e-16
0.688644 0.406768 1.11022e-16
0.691267 0.413622 1.11022e-16
0.693681 0.420552 1.66533e-16
0.695891 0.42755 1.38778e-16
0.7 0.441961 1.11022e-16
0.70263 0.453569 1.04083e-16
0.704785 0.465274 8.32667e-17
0.706489 0.477053 5.55112e-17
0.707763 0.488887 1.11022e-16
0.70857 0.5 1.11022e-16
0.709462 0.52 1.11022e-16
0.709378 0.54002 1.11022e-16
0.708222 0.560006 1.249e-16
0.705986 0.579901 1.66533e-16
0.702599 0.6 2.22045e-16
0.702079 0.602289 1.67401e-16
0.701546 0.604576 1.249e-16
0.700997 0.606858 1.04083e-16
0.700431 0.609136 1.249e-16
0.7 0.610821 1.11022e-16
0.695327 0.628657 1.38778e-16
0.689565 0.646171 1.11022e-16
0.682633 0.663256 1.11022e-16
0.674459 0.679782 1.66533e-16
0.662344 0.7 2.22045e-16
0.649875 0.716279 2.76472e-16
0.635548 0.73095 2.498e-16
0.619515 0.743734 3.33067e-16
0.602173 0.754676 3.33067e-16
0.6 0.75573 3.33067e-16
0.581107 0.764584 3.33067e-16
0.561342 0.771267 3.33067e-16
0.541046 0.776106 3.05311e-16
0.520457 0.779485 3.88578e-16
0.5 0.78142 3.33067e-16
0.48 0.781796 3.88578e-16
0.460018 0.780866 4.85723e-16
0.440104 0.778973 5.27356e-16
0.420307 0.776106 4.996e-16
0.4 0.772087 4.44089e-16
0.38 0.766655 4.44089e-16
0.360373 0.76 4.16334e-16
0.341186 0.752167 4.12864e-16
0.322536 0.743129 4.16334e-16
0.3 0.729699 4.44089e-16
0.29236 0.723759 3.88578e-16
0.284949 0.717536 4.44089e-16
0.277777 0.711038 4.44089e-16
0.270902 0.704227 4.44089e-16
0.267023 0.7 4.44089e-16
0.253618 0.684528 4.09395e-16
0.24196 0.667701 3.60822e-16
0.232099 0.649761 2.77556e-16
0.22391 0.630999 2.63678e-16
0.213388 0.6 2.77556e-16
0.21071 0.586006 2.77556e-16
0.208816 0.571884 3.33067e-16
0.207517 0.557696 3.60822e-16
0.206807 0.543465 3.88578e-16
0.20641 0.5 4.44089e-16
0.208708 0.48 4.44089e-16
0.212067 0.46015 4.44089e-16
0.216386 0.440488 4.71845e-16
0.221683 0.421065 4.996e-16
0.228607 0.4 4.996e-16
0.236825 0.38 4.44089e-16
0.246281 0.360555 4.71845e-16
0.256921 0.341732 4.57967e-16
0.268772 0.323647 4.44089e-16
0.286942 0.3 4.996e-16
0.289553 0.297305 4.996e-16
0.292195 0.294639 4.996e-16
0.294867 0.292004 4.996e-16
0.297569 0.2894 5.55112e-16
0.3 0.287114 6.10623e-16
0.318947 0.269692 6.10623e-16
0.339558 0.254273 5.48173e-16
0.361586 0.240957 5.82867e-16
0.384694 0.229616 5.55112e-16
0.4 0.223708 6.38378e-16
0.414767 0.218966 6.8695e-16
0.429773 0.215042 6.66134e-16
0.444936 0.211781 6.93889e-16
0.460221 0.209147 6.66134e-16
0.5 0.20394 7.28584e-16
0.52 0.203442 7.21645e-16
0.539998 0.203997 6.66134e-16
0.559941 0.205589 7.21645e-16
0.579772 0.208233 7.21645e-16
0.6 0.212039 7.21645e-16
0.62 0.217309 7.21645e-16
0.639541 0.224086 7.07767e-16
0.658511 0.232327 6.66134e-16
0.676782 0.24202 6.80012e-16
0.7 0.257779 5.68989e-16
0.708721 0.266224 5.55112e-16
0.716917 0.275177 6.10623e-16
0.724591 0.284583 5.55112e-16
0.731658 0.294452 4.996e-16
0.735086 0.3 5.27356e-16
0.746504 0.32 5.89806e-16
0.755859 0.341044 5.68989e-16
0.763505 0.362767 6.10623e-16
0.769692 0.38495 6.38378e-16
0.772782 0.4 5.55112e-16
0.776004 0.42 6.10623e-16
0.778395 0.440116 6.10623e-16
0.780194 0.460294 6.10623e-16
0.781475 0.480511 6.10623e-16
0.782248 0.5 6.10623e-16
0.782333 0.52 5.55112e-16
0.781812 0.539993 5.27356e-16
0.780922 0.559974 4.996e-16
0.779658 0.579934 5.55112e-16
0.778001 0.6 6.10623e-16
0.775672 0.62 6.10623e-16
0.772624 0.639903 5.82867e-16
0.769023 0.659714 6.10623e-16
0.764882 0.679419 6.38378e-16
0.759749 0.7 6.66134e-16
0.753657 0.72 6.66134e-16
0.746343 0.739586 7.21645e-16
0.737693 0.75862 7.49401e-16
0.727545 0.776899 6.93889e-16
0.71171 0.8 6.66134e-16
0.709368 0.802489 6.10623e-16
0.706975 0.804929 6.66134e-16
0.704531 0.807318 6.34909e-16
0.702046 0.809664 6.10623e-16
0.7 0.811536 5.55112e-16
0.680178 0.829229 6.38378e-16
0.657748 0.843472 6.38378e-16
0.63338 0.854063 6.245e-16
0.608065 0.862133 6.66134e-16
0.6 0.864022 6.66134e-16
0.58 0.868185 6.66134e-16
0.559737 0.87078 6.38378e-16
0.539372 0.872389 6.66134e-16
0.518969 0.873412 6.66134e-16
0.5 0.873766 6.66134e-16
0.48 0.873412 6.10623e-16
0.460033 0.872209 6.38378e-16
0.440105 0.870482 6.38378e-16
0.420215 0.868358 6.66134e-16
0.4 0.865627 7.77156e-16
0.38 0.862093 7.21645e-16
0.360113 0.857968 7.49401e-16
0.340347 0.8533 7.21645e-16
0.320728 0.848049 7.77156e-16
0.3 0.841306 7.77156e-16
0.28 0.833247 8.32667e-16
0.260288 0.824508 8.32667e-16
0.241083 0.814703 8.46545e-16
0.222728 0.803388 8.32667e-16
0.218192 0.8 8.32667e-16
0.214554 0.797138 7.91034e-16
0.210977 0.7942 7.63278e-16
0.207463 0.791187 7.77156e-16
0.204017 0.788096 8.32667e-16
0.2 0.784302 8.32667e-16
0.183239 0.767441 8.32667e-16
0.1685 0.748788 7.84095e-16
0.15589 0.728633 7.21645e-16
0.145164 0.707416 7.14706e-16
0.142123 0.7 7.21645e-16
0.134536 0.68 6.38378e-16
0.128956 0.65935 6.66134e-16
0.124744 0.638378 6.38378e-16
0.121411 0.617249 6.66134e-16
0.119427 0.6 6.66134e-16
0.117953 0.58 6.10623e-16
0.117616 0.559949 5.27356e-16
0.117802 0.539895 6.38378e-16
0.118509 0.519853 6.10623e-16
0.119715 0.5 5.82867e-16
0.121719 0.48 5.79398e-16
0.124548 0.4601 5.68989e-16
0.127866 0.440275 5.68989e-16
0.131649 0.420534 5.82867e-16
0.13627 0.4 5.55112e-16
0.141818 0.38 5.82867e-16
0.148007 0.360189 5.68989e-16
0.1548 0.340577 5.55112e-16
0.162373 0.321253 6.10623e-16
0.172099 0.3 6.38378e-16
0.177679 0.289852 7.21645e-16
0.183433 0.279801 6.10623e-16
0.189388 0.269868 6.66134e-16
0.195649 0.260125 5.55112e-16
0.2 0.253818 5.75928e-16
0.207787 0.243054 5.55112e-16
0.216085 0.232679 4.44089e-16
0.224884 0.222726 4.44089e-16
0.23417 0.213225 4.996e-16
0.248585 0.2 4.996e-16
0.258868 0.192044 5.27356e-16
0.269483 0.184536 4.71845e-16
0.280402 0.177479 4.44089e-16
0.291588 0.170854 3.88578e-16
0.3 0.166227 3.88578e-16
0.32 0.155838 3.747e-16
0.340827 0.147226 3.46945e-16
0.362254 0.140238 3.33067e-16
0.383989 0.13428 3.60822e-16
0.4 0.130681 3.33067e-16
0.42 0.12691 2.63678e-16
0.440181 0.124273 2.77556e-16
0.460439 0.122314 3.33067e-16
0.48074 0.120876 2.77556e-16
0.5 0.120021 2.498e-16
0.52 0.11992 2.77556e-16
0.539988 0.120618 2.77556e-16
0.559954 0.121785 2.77556e-16
0.579887 0.123425 3.33067e-16
0.6 0.125649 3.33067e-16
0.62 0.129025 2.91434e-16
0.63985 0.133192 3.05311e-16
0.659535 0.138083 3.33067e-16
0.679032 0.143673 3.05311e-16
0.7 0.151686 3.26128e-16
0.718386 0.161349 3.46945e-16
0.736079 0.172231 3.19189e-16
0.752774 0.184587 2.63678e-16
0.767575 0.199159 3.33067e-16
0.768221 0.2 3.33067e-16
0.774577 0.208392 3.33067e-16
0.780461 0.217121 2.77556e-16
0.785909 0.226129 2.498e-16
0.790808 0.235446 2.22045e-16
0.8 0.255622 1.8735e-16
0.803001 0.264497 2.498e-16
0.805723 0.273462 2.498e-16
0.808195 0.2825 2.22045e-16
0.810441 0.291596 2.91434e-16
0.812321 0.3 2.22045e-16
0.816427 0.32 2.22045e-16
0.819715 0.340151 2.498e-16
0.822231 0.360413 2.22045e-16
0.824096 0.380744 2.35922e-16
0.825377 0.4 2.498e-16
0.826436 0.42 2.77556e-16
0.827258 0.440011 1.94289e-16
0.82773 0.460034 1.249e-16
0.827804 0.480061 1.80411e-16
0.827598 0.5 1.94289e-16
0.827259 0.52 2.22045e-16
0.826824 0.539998 1.94289e-16
0.826142 0.559989 2.22045e-16
0.825124 0.579966 2.22045e-16
0.823827 0.6 2.77556e-16
0.822418 0.62 2.77556e-16
0.820941 0.639995 2.77556e-16
0.819153 0.659965 3.33067e-16
0.816993 0.679897 3.33067e-16
0.814394 0.7 3.33067e-16
0.811515 0.719941 3.33067e-16
0.808326 0.739834 3.88578e-16
0.804572 0.759629 2.91434e-16
0.800127 0.77928 2.77556e-16
0.8 0.779745 3.33067e-16
0.798889 0.783796 3.33067e-16
0.797734 0.787835 3.33067e-16
0.796531 0.791859 3.33067e-16
0.795279 0.795868 3.33067e-16
0.79393 0.8 2.77556e-16
0.787092 0.82 3.33067e-16
0.778639 0.839372 3.05311e-16
0.768235 0.857771 3.05311e-16
0.755423 0.874581 2.77556e-16
0.730053 0.9 3.05311e-16
0.724042 0.903562 3.33067e-16
0.717857 0.906812 3.33067e-16
[...]
POINT_DATA 16731
 FIELD attributes 1
U 3 16731 float
2.61777e-19 	-4.66694e-18 	-2.4259e-36
0.00242738 	-0.00974802 	0 0.00307451 	-0.00971296 	2.5303e-25 0.00364742 	-0.00950375 	8.31307e-23 0.00420497 	-0.00925495 	1.68435e-22 0.00460515 	-0.00904189 	2.33206e-22 0.00598838 	-0.00839044 	3.00353e-22 0.00728915 	-0.00755497 	3.36137e-22 0.00847968 	-0.0065552 	3.40026e-22 0.00933058 	-0.00534314 	4.08857e-22 0.0111978 	-0.00151495 	5.87431e-22 0.0112434 	-0.0012231 	5.86674e-22 0.0112816 	-0.000929771 	5.83531e-22 0.0113124 	-0.000635156 	5.78005e-22 0.0113357 	-0.000339458 	5.70096e-22 0.0113217 	-4.90689e-05 	5.29793e-22 0.0111458 	0.00192595 	4.10907e-22 0.0109297 	0.00278288 	3.74937e-22 0.0105035 	0.00424979 	2.80856e-22 0.00994236 	0.00567365 	1.80103e-22 0.00925752 	0.00702913 	7.45437e-23 0.00841172 	0.00833957 	0 0.00649863 	0.0106881 	0 0.00553562 	0.0116797 	0 0.0045272 	0.0125413 	0 0.00348635 	0.0132741 	0 0.00241272 	0.0138275 	1.72722e-22 0.00174252 	0.0140847 	3.04282e-22 0.000137773 	0.0146428 	5.58844e-23 -0.00160658 	0.0147627 	0 -0.00338015 	0.0145411 	0 -0.00512206 	0.0140199 	0 -0.00677408 	0.0130009 	-1.33379e-23 -0.00712713 	0.0127448 	-5.55069e-24 -0.0074692 	0.0124636 	0 -0.00778884 	0.0121385 	0 -0.00810427 	0.0118012 	0 -0.00827237 	0.0116123 	0 -0.00993226 	0.0101878 	0 -0.0115041 	0.00856309 	0 -0.0129166 	0.00678843 	0 -0.0138979 	0.00503688 	0 -0.0152495 	0.00112753 	0 -0.0155757 	-0.00064616 	-1.37453e-22 -0.0154488 	-0.00222992 	-6.07722e-22 -0.0151748 	-0.00382421 	-1.02358e-21 -0.0147148 	-0.00541597 	-1.37974e-21 -0.0136097 	-0.007179 	-1.69953e-21 -0.0126496 	-0.00901823 	-9.51503e-22 -0.0114593 	-0.0107594 	-1.79277e-22 -0.00973415 	-0.0122045 	0 -0.00771898 	-0.0134308 	0 -0.00632402 	-0.0140853 	0 -0.00530441 	-0.0147414 	0 -0.00429943 	-0.0152526 	0 -0.00332352 	-0.0155993 	0 -0.00233864 	-0.0159018 	0 0.00249324 	-0.0171334 	0 0.00400171 	-0.0168324 	6.23072e-23 0.00549535 	-0.0164005 	1.21418e-22 0.00699064 	-0.0158703 	1.71672e-22 0.00846988 	-0.0152329 	2.19516e-22 0.0101006 	-0.0137766 	5.82959e-22 0.0116071 	-0.012831 	9.71388e-22 0.0130316 	-0.0117587 	1.34295e-21 0.0138629 	-0.0102333 	1.54058e-21 0.0145366 	-0.00857377 	1.69888e-21 0.0146326 	-0.00827588 	1.7218e-21 0.0154779 	-0.00724159 	1.95818e-21 0.0162036 	-0.00617908 	2.10852e-21 0.0165328 	-0.00508443 	1.89018e-21 0.0168313 	-0.00397901 	1.6771e-21 0.017544 	-0.000572115 	1.00897e-21 0.0174039 	0.000932961 	8.07055e-22 0.0171222 	0.00243614 	6.04759e-22 0.0167774 	0.00394622 	3.87312e-22 0.0163708 	0.00545134 	1.56116e-22 0.0152621 	0.00785219 	0 0.0144315 	0.0100934 	0 0.0134516 	0.0122463 	0 0.0121351 	0.0143397 	2.32796e-22 0.0103777 	0.0163726 	8.31969e-22 0.0079024 	0.0188375 	1.62191e-21 0.00740369 	0.0193467 	1.54765e-21 0.00690074 	0.0198149 	1.53696e-21 0.0063944 	0.0202443 	1.58402e-21 0.00588931 	0.0206553 	1.62404e-21 0.00486124 	0.0214578 	1.69179e-21 0.00407026 	0.022103 	1.7185e-21 0.00328265 	0.0226917 	1.73004e-21 0.00249943 	0.0232262 	1.72721e-21 0.00172143 	0.0237086 	1.71077e-21 0.00106281 	0.0238182 	1.54668e-21 -0.000101454 	0.0242628 	1.45202e-21 -0.00140243 	0.0242343 	1.13856e-21 -0.00270427 	0.0240657 	7.8652e-22 -0.00400318 	0.0237563 	3.96588e-22 -0.00526352 	0.0231798 	-1.21696e-22 -0.00539177 	0.0231301 	-2.53562e-22 -0.00553263 	0.0229904 	-2.40406e-22 -0.00567374 	0.0228488 	-2.26393e-22 -0.00581512 	0.0227054 	-2.11511e-22 -0.00592001 	0.0225978 	-1.99838e-22 -0.00710785 	0.0216021 	-2.68479e-22 -0.00832669 	0.0205229 	-3.25518e-22 -0.00957418 	0.0193568 	-3.69599e-22 -0.0108227 	0.0180615 	-4.06367e-22 -0.0123294 	0.0160975 	-4.67073e-22 -0.0140074 	0.0143442 	-2.51694e-22 -0.0156438 	0.0124735 	-3.44478e-23 -0.0166469 	0.0105028 	0 -0.0174744 	0.00847351 	0 -0.0175626 	0.00823069 	0 -0.0191149 	0.00646345 	0 -0.0202711 	0.0048332 	0 -0.0208452 	0.0034214 	0 -0.021403 	0.00202399 	0 -0.0211848 	0.000398388 	0 -0.0218517 	-0.00101715 	-6.98515e-23 -0.0216933 	-0.00206264 	-8.10767e-22 -0.0215243 	-0.00311621 	-1.51157e-21 -0.0212029 	-0.00419717 	-2.25782e-21 -0.0200442 	-0.00544391 	-3.48689e-21 -0.0199739 	-0.00677195 	-6.05881e-21 -0.0198372 	-0.00809921 	-8.56371e-21 -0.0188699 	-0.00914354 	-9.21669e-21 -0.0171293 	-0.0102083 	-7.64459e-21 -0.0149249 	-0.0116032 	-5.68045e-21 -0.0145372 	-0.0122079 	-6.08872e-21 -0.0141425 	-0.0128143 	-6.47286e-21 -0.0134283 	-0.013304 	-5.93066e-21 -0.0126373 	-0.0137672 	-5.157e-21 -0.0121647 	-0.0140412 	-4.67969e-21 -0.01076 	-0.0155306 	-3.17306e-21 -0.00937061 	-0.017048 	-1.55548e-21 -0.00791177 	-0.0181262 	-1.31228e-21 -0.00644303 	-0.0189816 	-1.7167e-21 -0.0038057 	-0.0198906 	-2.72589e-21 -0.00276224 	-0.0205924 	-2.4163e-21 -0.00190252 	-0.0207831 	-2.25859e-21 -0.00104576 	-0.02097 	-2.07253e-21 -0.000193404 	-0.0211528 	-1.85886e-21 0.00246608 	-0.0214586 	-1.32714e-21 0.00361839 	-0.0213852 	-1.02574e-21 0.00461485 	-0.0210111 	-7.18246e-22 0.00562993 	-0.0206433 	-3.98281e-22 0.00666018 	-0.0202602 	-7.25796e-23 0.00774473 	-0.0188496 	1.92822e-23 0.00903917 	-0.0185882 	9.78489e-24 0.0103355 	-0.0182845 	8.25606e-24 0.0114026 	-0.0173997 	2.09375e-22 0.0121254 	-0.0157809 	6.24504e-22 0.0131939 	-0.0136152 	1.20213e-21 0.0133762 	-0.0134957 	1.23965e-21 0.0135592 	-0.0133763 	1.27751e-21 0.0136945 	-0.0131961 	1.31195e-21 0.0137892 	-0.0129639 	1.3435e-21 0.0138741 	-0.0127578 	1.37189e-21 0.0152526 	-0.0114104 	2.03673e-21 0.0167311 	-0.010114 	2.76007e-21 0.0176516 	-0.00866329 	2.77478e-21 0.0179225 	-0.00691768 	2.11757e-21 0.0180749 	-0.0058035 	1.6929e-21 0.0188899 	-0.00494017 	1.70192e-21 0.0192185 	-0.00413317 	1.52426e-21 0.0194222 	-0.00334743 	1.30312e-21 0.0196381 	-0.00257046 	1.09309e-21 0.0200678 	-0.000499158 	5.2188e-22 0.0199769 	0.000554133 	3.83764e-22 0.0197506 	0.00157642 	2.80736e-22 0.0195394 	0.00260565 	1.72789e-22 0.0193441 	0.00363912 	6.01269e-23 0.0186873 	0.00492432 	0 0.0183859 	0.00637679 	2.44797e-23 0.0176312 	0.00765888 	1.40585e-22 0.0169249 	0.00897951 	2.38189e-22 0.0155893 	0.0105811 	6.91978e-22 0.0133987 	0.0129737 	1.53883e-21 0.0128684 	0.0140574 	2.01179e-21 0.0123492 	0.0151359 	2.4674e-21 0.0115853 	0.0161789 	2.73203e-21 0.0106193 	0.0171858 	2.82877e-21 0.010114 	0.0177168 	2.86963e-21 0.00897691 	0.0201922 	3.59937e-21 0.00796405 	0.0226262 	4.3012e-21 0.00682762 	0.0244817 	4.34672e-21 0.00526736 	0.0256513 	3.95906e-21 0.0042424 	0.0263339 	3.65744e-21 0.00332539 	0.0279855 	3.77609e-21 0.00258005 	0.0289395 	3.57977e-21 0.00188499 	0.0297295 	3.31399e-21 0.00120818 	0.0304959 	3.04334e-21 0.000129417 	0.0304684 	2.65875e-21 -0.000812024 	0.0311606 	2.70215e-21 -0.00138218 	0.0310295 	2.18754e-21 -0.00195511 	0.0308817 	1.67952e-21 -0.00253493 	0.0307058 	1.17246e-21 -0.00345315 	0.0296466 	2.11489e-22 -0.00451165 	0.0294651 	-1.03261e-21 -0.00520081 	0.0286113 	-1.63362e-21 -0.00578641 	0.0275305 	-2.04316e-21 -0.00646876 	0.0259391 	-1.67435e-21 -0.0072757 	0.0238879 	-7.49189e-22 -0.00845087 	0.0226301 	-4.49513e-22 -0.00968163 	0.0213024 	-1.56041e-22 -0.0107897 	0.0194358 	2.17505e-22 -0.0117429 	0.0171311 	6.79045e-22 -0.013045 	0.0138644 	1.30015e-21 -0.0132953 	0.0135546 	1.42197e-21 -0.0135489 	0.0132461 	1.5403e-21 -0.0137033 	0.012934 	1.48983e-21 -0.0137852 	0.0126193 	1.31515e-21 -0.0138535 	0.012365 	1.17138e-21 -0.0158156 	0.0100431 	7.06989e-22 -0.0181242 	0.00787683 	1.81511e-22 -0.0187197 	0.00596758 	0 -0.0184082 	0.00431174 	0 -0.018324 	0.0038143 	0 -0.0201146 	0.00257646 	0 -0.0211114 	0.0016676 	0 -0.0212953 	0.00106778 	0 -0.0210101 	0.000392146 	0 -0.0200052 	-0.0003547 	0 -0.0213314 	-0.00128497 	0 -0.0217148 	-0.00188134 	-1.75382e-22 -0.0216333 	-0.00231059 	-4.37566e-22 -0.0207596 	-0.00280485 	-1.13788e-21 -0.0191052 	-0.00337572 	-2.28206e-21 -0.0198425 	-0.00411526 	-3.60738e-21 -0.0205977 	-0.00486515 	-4.94014e-21 -0.0200697 	-0.00537179 	-5.45805e-21 -0.0182107 	-0.00592323 	-5.4289e-21 -0.0162892 	-0.00656385 	-5.45681e-21 -0.0164374 	-0.00728696 	-5.65009e-21 -0.015797 	-0.00806563 	-5.44274e-21 -0.0144584 	-0.00891249 	-4.8962e-21 -0.013144 	-0.0098198 	-4.41351e-21 -0.0128085 	-0.0100738 	-4.30635e-21 -0.0125906 	-0.0103421 	-4.41268e-21 -0.0123765 	-0.0106146 	-4.52803e-21 -0.0121285 	-0.010877 	-4.54352e-21 -0.0117395 	-0.011089 	-4.15018e-21 -0.0112808 	-0.0113475 	-3.69284e-21 -0.0100283 	-0.0126915 	-2.48702e-21 -0.00882271 	-0.0141025 	-1.44956e-21 -0.00754742 	-0.0149287 	-1.72343e-21 -0.0061943 	-0.0151086 	-3.35938e-21 -0.00576085 	-0.0151862 	-3.93442e-21 -0.00458872 	-0.01698 	-5.07853e-21 -0.00363973 	-0.0181239 	-5.9597e-21 -0.00291145 	-0.0184568 	-6.50803e-21 -0.00214402 	-0.0186347 	-6.79976e-21 -0.00133948 	-0.0181724 	-6.23689e-21 -0.000329006 	-0.0195921 	-6.43495e-21 0.000182521 	-0.0196124 	-5.68067e-21 0.000693732 	-0.0196889 	-4.93218e-21 0.00120428 	-0.019821 	-4.18997e-21 0.00186951 	-0.0186523 	-2.87994e-21 0.00279942 	-0.0196922 	-1.91204e-21 0.00328295 	-0.0196201 	-1.21783e-21 0.00373292 	-0.0194775 	-5.39636e-22 0.00419494 	-0.0186401 	-2.21227e-22 0.00469618 	-0.0169296 	-3.22963e-22 0.00541856 	-0.0173436 	-4.03249e-22 0.00615928 	-0.0177851 	-4.80685e-22 0.00675645 	-0.0172386 	-4.37475e-22 0.00716769 	-0.0156637 	-2.7218e-22 0.0076942 	-0.0139926 	-8.27936e-23 0.00800377 	-0.0139798 	-8.175e-24 0.00830429 	-0.0138515 	6.09228e-23 0.00855396 	-0.0133111 	1.10213e-22 0.00881909 	-0.0127848 	1.60147e-22 0.00900506 	-0.0124469 	1.93597e-22 0.00953177 	-0.0119187 	3.13156e-22 0.0100971 	-0.0114214 	4.37599e-22 0.0106641 	-0.0109109 	5.63881e-22 0.010987 	-0.0100794 	6.72606e-22 0.0115198 	-0.00891262 	8.39295e-22 0.0120021 	-0.00848954 	8.97669e-22 0.0125082 	-0.00808446 	9.62134e-22 0.0129602 	-0.00767586 	1.02132e-21 0.0130435 	-0.00717391 	1.02924e-21 0.0131196 	-0.00681507 	1.03868e-21 0.014313 	-0.00591866 	9.88723e-22 0.0156391 	-0.00510075 	9.58278e-22 0.0160292 	-0.00439311 	8.55577e-22 0.0157269 	-0.00353566 	7.29006e-22 0.0155376 	-0.00292968 	6.45889e-22 0.0167763 	-0.00219211 	2.40013e-22 0.0172092 	-0.00166439 	8.96738e-23 0.0173324 	-0.00122712 	4.35111e-23 0.0174212 	-0.000774062 	8.10392e-24 0.0166595 	-8.34672e-05 	1.00358e-22 0.0176247 	0.000615354 	0 0.0175024 	0.00102263 	0 0.0174282 	0.00143405 	0 0.0172027 	0.00190204 	0 0.0158858 	0.00268149 	0 0.0163489 	0.0034319 	0 0.0164962 	0.00409901 	0 0.0162479 	0.0046587 	0 0.0147037 	0.00561923 	2.06541e-22 0.0129558 	0.00680879 	4.70174e-22 0.0127707 	0.00785445 	3.90818e-22 0.0122263 	0.00904909 	4.9768e-22 0.0107121 	0.010546 	1.04847e-21 0.00930858 	0.0121222 	1.64316e-21 0.00924389 	0.0122051 	1.67513e-21 0.00888736 	0.0131848 	2.11031e-21 0.00857337 	0.0141757 	2.55482e-21 0.00796089 	0.0151386 	2.77944e-21 0.0073354 	0.016101 	2.97022e-21 0.00613153 	0.0181342 	3.39415e-21 0.0057746 	0.0190158 	3.68549e-21 0.00544049 	0.0198927 	3.97215e-21 0.00512703 	0.0207647 	4.25441e-21 0.00482465 	0.0215724 	4.49062e-21 0.00453081 	0.0220653 	4.53111e-21 0.00397871 	0.024388 	4.79118e-21 0.00322549 	0.0259716 	4.82691e-21 0.00252235 	0.0275081 	4.84638e-21 0.00191316 	0.0287478 	4.72334e-21 0.00153762 	0.0290462 	4.17222e-21 0.00127817 	0.0311192 	4.26191e-21 0.000762083 	0.0323238 	4.11446e-21 0.000122171 	0.033062 	3.84194e-21 -0.000342847 	0.0332382 	3.28273e-21 -0.000552801 	0.0325907 	2.29646e-21 -0.000737078 	0.033865 	2.29726e-21 -0.00116743 	0.034223 	1.95992e-21 -0.0017346 	0.0340554 	1.4345e-21 -0.00216911 	0.033496 	8.78066e-22 -0.00224933 	0.0319407 	2.37847e-22 -0.00237947 	0.0322002 	1.78027e-22 -0.00280015 	0.031277 	-2.21621e-23 -0.00327046 	0.0301805 	-2.41293e-22 -0.00375624 	0.0290563 	-4.61675e-22 -0.00388972 	0.0269429 	-5.78626e-22 -0.00412702 	0.0257402 	-3.22174e-22 -0.00452334 	0.0238536 	3.27201e-22 -0.00496345 	0.0219417 	9.8218e-22 -0.00545708 	0.0200006 	1.64334e-21 -0.00547047 	0.0199534 	1.65931e-21 -0.00560287 	0.019578 	1.76476e-21 -0.00573936 	0.0192025 	1.86914e-21 -0.00588013 	0.0188268 	1.97238e-21 -0.0060203 	0.0184379 	2.07691e-21 -0.00612842 	0.017927 	2.2043e-21 -0.00690767 	0.0158305 	2.89436e-21 -0.00768856 	0.0135956 	3.30256e-21 -0.00870515 	0.0114223 	3.80499e-21 -0.00931305 	0.00933086 	3.28783e-21 -0.0101251 	0.00600029 	1.50187e-21 -0.010518 	0.00552657 	1.31315e-21 -0.0109318 	0.00507812 	1.13327e-21 -0.0113646 	0.00465491 	9.62259e-22 -0.011065 	0.00455664 	9.66873e-22 -0.0106886 	0.00453561 	1.00171e-21 -0.0122506 	0.00326069 	6.68016e-22 -0.0133008 	0.00222871 	3.56622e-22 -0.0142209 	0.00134145 	6.35664e-23 -0.0128274 	0.00129877 	0 -0.0112559 	0.00142984 	0 -0.0133422 	0.000736585 	0 -0.0156219 	7.36502e-05 	0 -0.0159556 	-0.000491855 	0 -0.0138838 	-0.00042163 	0 -0.0118519 	-0.00034858 	0 -0.0138986 	-0.000672357 	0 -0.0156636 	-0.00101051 	-4.61321e-23 -0.0154985 	-0.00142053 	-3.52297e-22 -0.0140685 	-0.0016178 	-6.65608e-22 -0.0122636 	-0.00175537 	-9.88786e-22 -0.013929 	-0.00182185 	-7.41938e-22 -0.0142171 	-0.00205047 	-8.55209e-22 -0.0137277 	-0.00238951 	-1.19696e-21 -0.0132907 	-0.00274922 	-1.56095e-21 -0.0120186 	-0.00314165 	-2.1757e-21 -0.0127049 	-0.00310868 	-1.95237e-21 -0.012345 	-0.0033073 	-1.88316e-21 -0.0119677 	-0.00352855 	-1.83046e-21 -0.011615 	-0.00376521 	-1.78976e-21 -0.0113693 	-0.00395586 	-1.7688e-21 -0.0111637 	-0.00418208 	-1.80589e-21 -0.0109784 	-0.00442063 	-1.85518e-21 -0.0108143 	-0.00467178 	-1.91706e-21 -0.0104439 	-0.00494333 	-1.86941e-21 -0.00958252 	-0.0052778 	-1.57542e-21 -0.00908162 	-0.00595741 	-9.01455e-22 -0.00865553 	-0.00673187 	-3.07682e-22 -0.00790626 	-0.00741362 	0 -0.00667085 	-0.00792628 	0 -0.00490695 	-0.0089933 	-7.16626e-23 -0.00487554 	-0.00905636 	-3.10619e-23 -0.00484219 	-0.00910894 	-9.85018e-24 -0.00480188 	-0.0091266 	-5.19384e-23 -0.00476178 	-0.00914453 	-9.39714e-23 -0.00471803 	-0.00916449 	-1.40036e-22 -0.0038769 	-0.00977291 	-4.89646e-22 -0.00313664 	-0.0105098 	-9.4414e-22 -0.00249281 	-0.011356 	-1.48897e-21 -0.00226967 	-0.0109051 	-2.10681e-21 -0.00232553 	-0.00975135 	-2.55084e-21 -0.0015515 	-0.0114424 	-4.84568e-21 -0.00083919 	-0.0133799 	-7.17127e-21 -0.00030635 	-0.0137982 	-7.71193e-21 -0.000399288 	-0.0119572 	-5.80375e-21 -0.000481438 	-0.0102593 	-4.06734e-21 5.98499e-06 	-0.0121767 	-5.51886e-21 0.000486098 	-0.0142634 	-7.03826e-21 0.000939207 	-0.0144286 	-6.40646e-21 0.000991904 	-0.012637 	-4.18525e-21 0.00104924 	-0.0108926 	-1.97182e-21 0.00126294 	-0.0125459 	-1.38643e-21 0.00151436 	-0.013774 	-8.24891e-22 0.00189985 	-0.0134455 	-3.44937e-22 0.00220875 	-0.0125163 	-2.14732e-22 0.00248103 	-0.0112168 	-3.17145e-22 0.00248754 	-0.0123326 	-7.31706e-22 0.00274257 	-0.0119356 	-7.21975e-22 0.00304785 	-0.0114442 	-6.61627e-22 0.00338361 	-0.0110194 	-5.90927e-22 0.00377825 	-0.0106115 	-4.65106e-22 0.00377312 	-0.0106446 	-4.65896e-22 0.00378145 	-0.0106359 	-4.63058e-22 0.00379601 	-0.0106082 	-4.58573e-22 0.00381068 	-0.0105808 	-4.54096e-22 0.00382535 	-0.0105538 	-4.49668e-22 0.00412781 	-0.0100976 	-3.30918e-22 0.00447729 	-0.00970595 	-2.09293e-22 0.0048776 	-0.00938558 	-8.47506e-23 0.00527513 	-0.00875443 	2.39983e-23 0.0057434 	-0.00743074 	1.27207e-22 0.006051 	-0.00718727 	1.27074e-22 0.0064012 	-0.00698281 	1.30596e-22 0.00664043 	-0.00649303 	1.5809e-22 0.00690107 	-0.00598631 	1.94636e-22 0.00707447 	-0.00574194 	2.1731e-22 0.0075548 	-0.00534987 	2.62804e-22 0.00808964 	-0.00499813 	3.12728e-22 0.00834055 	-0.00459098 	3.18067e-22 0.00852171 	-0.00418585 	3.10742e-22 0.00899206 	-0.00339662 	3.0298e-22 0.00918289 	-0.00325974 	3.0662e-22 0.00938329 	-0.00312956 	3.11136e-22 0.00959277 	-0.00300582 	3.16485e-22 0.00964359 	-0.00293269 	3.26837e-22 0.0093707 	-0.00295296 	3.4504e-22 0.0101967 	-0.00233806 	2.47086e-22 0.0106387 	-0.00186091 	1.88579e-22 0.0111568 	-0.00142382 	1.36678e-22 0.0108799 	-0.00125071 	1.33405e-22 0.00981002 	-0.00133213 	1.73826e-22 0.0111239 	-0.000892489 	1.1652e-22 0.0122782 	-0.000471033 	6.16933e-23 0.0125336 	-6.23153e-05 	8.86108e-24 0.0114121 	9.14866e-06 	0 0.0100559 	1.25316e-05 	0 0.0115028 	0.000242994 	0 0.0126719 	0.000508875 	0 0.0125393 	0.000916219 	0 0.0114825 	0.00117292 	0 0.0101435 	0.00138526 	0 0.0114413 	0.00144768 	0 0.0116017 	0.00175409 	0 0.0110885 	0.00223622 	0 0.0106471 	0.0027524 	0 0.00964733 	0.00331902 	0 0.0100291 	0.00333905 	0 0.00986276 	0.00355023 	0 0.00949803 	0.00384907 	0 0.00915448 	0.00416638 	0 0.00894476 	0.00438659 	0 0.00859516 	0.00498964 	0 0.00833042 	0.0056463 	0 0.00815141 	0.00635313 	0 0.00734731 	0.00727012 	2.84826e-22 0.00587691 	0.00891712 	9.0877e-22 0.00549104 	0.00990951 	9.8534e-22 0.00518063 	0.0109343 	1.09024e-21 0.00493409 	0.0119813 	1.21815e-21 0.00437311 	0.0129993 	1.7178e-21 0.00402982 	0.0136919 	2.0806e-21 0.00350689 	0.0161265 	3.03785e-21 0.00309002 	0.0184949 	3.94598e-21 0.0025568 	0.0203265 	4.49447e-21 0.00201426 	0.0215098 	4.58593e-21 0.00158494 	0.0225525 	4.66481e-21 0.00134744 	0.0250357 	4.97396e-21 0.00113911 	0.0275166 	5.28209e-21 0.000809581 	0.0288966 	5.16638e-21 0.000463617 	0.0291932 	4.59721e-21 0.000134039 	0.0294834 	4.03327e-21 -6.91267e-05 	0.0315389 	4.12854e-21 -0.000264457 	0.033592 	4.22458e-21 -0.000486079 	0.0342928 	3.78658e-21 -0.000695382 	0.0336419 	2.79912e-21 -0.000902572 	0.0329884 	1.81444e-21 -0.0010834 	0.0342588 	1.81998e-21 -0.0012628 	0.0355275 	1.82748e-21 -0.00151072 	0.0353955 	1.45573e-21 -0.00157825 	0.0338511 	8.15612e-22 -0.00164811 	0.0323032 	1.74801e-22 -0.00176725 	0.0325693 	1.13827e-22 -0.0018882 	0.0328343 	5.30567e-23 -0.00224097 	0.0318528 	-1.28785e-22 -0.00221133 	0.0295651 	-2.08054e-22 -0.00218779 	0.0272697 	-2.88603e-22 -0.00225743 	0.0264736 	-2.44928e-22 -0.00237557 	0.0254704 	-8.25288e-23 -0.00266785 	0.0236561 	5.49198e-22 -0.00277356 	0.021239 	1.22539e-21 -0.0027934 	0.0184724 	1.9334e-21 -0.0029538 	0.0167598 	3.05416e-21 -0.00310274 	0.0146669 	3.21954e-21 -0.00329728 	0.0124415 	3.0414e-21 -0.0035884 	0.0102112 	2.8209e-21 -0.00407502 	0.00764158 	2.20506e-21 -0.00417076 	0.00741019 	2.14703e-21 -0.00423493 	0.00720864 	2.09999e-21 -0.00420239 	0.00708493 	2.08064e-21 -0.00417053 	0.00696185 	2.06161e-21 -0.00414779 	0.00687251 	2.04796e-21 -0.0044283 	0.00505331 	1.39117e-21 -0.00511546 	0.00327868 	7.1606e-22 -0.00640129 	0.0016878 	5.51247e-23 -0.00579814 	0.00144177 	2.85082e-23 -0.0037908 	0.00160859 	3.55263e-22 -0.00490716 	0.00069738 	1.16768e-22 -0.00565479 	0.000260511 	0 -0.00547175 	0.000252079 	0 -0.00528872 	0.000243647 	0 -0.00330306 	0.000419587 	0 -0.00492064 	-0.000155796 	0 -0.00511327 	-0.000161896 	0 -0.00530591 	-0.000167995 	0 -0.00549854 	-0.000174094 	0 -0.00361928 	-0.000106448 	0 -0.00560973 	-0.000420905 	0 -0.00604221 	-0.000453355 	0 -0.00647469 	-0.000485805 	0 -0.00649188 	-0.000532932 	-5.42646e-23 -0.00456687 	-0.000653685 	-3.68216e-22 -0.00623226 	-0.000720164 	-1.21367e-22 -0.00726656 	-0.000775857 	0 -0.00777352 	-0.000829986 	0 -0.00683866 	-0.00106582 	-3.92952e-22 -0.00541272 	-0.00141488 	-9.7985e-22 -0.00657967 	-0.0013588 	-6.00076e-22 -0.0076031 	-0.00126078 	-1.87089e-22 -0.00747753 	-0.00144785 	-1.3048e-22 -0.00637267 	-0.00195353 	-4.04335e-22 -0.00553094 	-0.00251795 	-6.85954e-22 -0.00613101 	-0.00252239 	-5.7957e-22 -0.00617246 	-0.00262054 	-4.62775e-22 -0.00555997 	-0.00289782 	-3.49118e-22 -0.00504166 	-0.00325173 	-2.58011e-22 -0.00472566 	-0.00359639 	-2.07945e-22 -0.00464086 	-0.00376428 	-1.34706e-22 -0.00456536 	-0.00394052 	-6.11933e-23 -0.00446583 	-0.0041094 	0 -0.00421288 	-0.00421084 	0 -0.00390231 	-0.00435518 	0 -0.0032435 	-0.00481694 	0 -0.00274005 	-0.00545856 	0 -0.00246073 	-0.00569847 	0 -0.0024065 	-0.00481238 	0 -0.00236178 	-0.00443977 	0 -0.00143517 	-0.00542634 	0 -0.000797247 	-0.00651416 	0 -0.00073757 	-0.00602654 	0 -0.000786013 	-0.0050674 	-3.7365e-22 -0.000891901 	-0.0037399 	-9.78314e-22 -0.000117875 	-0.00543093 	-3.27316e-21 -7.44703e-05 	-0.00547651 	-3.37048e-21 -7.34752e-05 	-0.00540333 	-3.32545e-21 -8.20631e-05 	-0.00515569 	-3.09449e-21 -0.000165872 	-0.00353469 	-1.40134e-21 0.00030075 	-0.00536175 