/*--------------------------------*- C++ -*----------------------------------*\
| =========                 |                                                 |
| \\      /  F ield         | OpenFOAM: The Open Source CFD Toolbox           |
|  \\    /   O peration     | Version:  v1912                                 |
|   \\  /    A nd           | Website:  www.openfoam.com                      |
|    \\/     M anipulation  |                                                 |
\*---------------------------------------------------------------------------*/
FoamFile
{
    version     2.0;
    format      ascii;
    class       volScalarField;
    location    "0.18";
    object      nut;
}
// * * * * * * * * * * * * * * * * * * * * * * * * * * * * * * * * * * * * * //

dimensions      [0 2 -1 0 0 0 0];


internalField   nonuniform List<scalar> 
1431
(
0.00104701
0.00184864
0.00103036
0.00200192
0.000726188
0.000965898
0.000925195
0.0040966
0.000742053
0.000728507
0.00430783
0.00353476
0.00159168
0.00149486
0.000716466
0.000957382
0.00130823
0.000486376
0.00162026
0.000691609
0.00555241
0.00318501
0.0007764
0.00332631
0.000724867
0.00157768
0.0038807
0.000784403
0.000346257
0.000431902
0.001008
0.000850934
0.000937799
0.000881764
0.00141806
0.000872842
0.00127538
0.000644351
0.00139671
0.000809232
0.00122288
0.00127722
0.00153469
0.0020132
0.000570505
0.000907059
0.000986307
0.00375846
0.00112373
0.00108031
0.00155733
0.00207625
0.00186248
0.00542377
0.00137804
0.00172081
0.000504905
0.00444983
0.000896946
0.000404565
0.000700085
0.000989777
0.000519059
0.000456432
0.000637364
0.0005605
0.000398519
0.00056776
0.000373545
0.00106185
0.00237517
0.00085452
0.000674148
0.000610855
0.00118637
0.000491314
0.000607435
0.000427716
0.000834485
0.000336006
0.00103578
0.000448836
0.00119225
0.000839023
0.00170104
0.00228257
0.000694237
0.000864736
0.00180316
0.00157727
0.000741638
0.000765782
0.000732243
0.00114767
0.00100912
0.00038137
0.00463923
0.00198744
0.00211484
0.000414556
0.00154914
0.0011867
0.00143664
0.000534768
0.000485507
0.00136552
0.000972428
0.00305002
0.000794633
0.00109894
0.000458698
0.00148886
0.00214233
0.00114828
0.00145994
0.000623581
0.00105078
0.000927015
0.000693378
0.000413274
0.001133
0.000668961
0.00163081
0.00103391
0.00157243
0.000662745
0.000943132
0.000995476
0.00105092
0.000822757
0.000904365
0.00034339
0.00112168
0.001167
0.000896284
0.000999355
0.000717128
0.00181824
0.00250805
0.000300397
0.000657558
0.00100326
0.000837863
0.000252358
0.000904845
0.000871267
0.000564569
0.00172067
0.000899506
0.000557712
0.0008047
0.00050698
0.000845419
0.000773928
0.00108121
0.000939197
0.0020686
0.00218462
0.00142004
0.00136017
0.00289056
0.00151618
0.00104354
0.00104368
0.0018356
0.001048
0.00110934
0.0010603
0.00106951
0.00171954
0.00232099
0.00156872
0.000871607
0.00246988
0.00197207
0.00200735
0.00105837
0.000817237
0.00180714
0.00165948
0.000591123
0.00209395
0.00126964
0.00545919
0.000890936
0.0006328
0.00111576
0.0020842
0.00126587
0.00174048
0.00125605
0.00115504
0.00100351
0.00378438
0.000724451
0.00218316
0.00235977
0.00178705
0.000534681
0.000584655
0.00217585
0.00109372
0.00430601
0.000703906
0.00167716
0.00135774
0.00105131
0.000507307
0.0027252
0.0009182
0.00129527
0.000907518
0.00100232
0.00137931
0.00233366
0.000775562
0.00100022
0.00185946
0.00090916
0.00451644
0.000930484
0.00139581
0.000908103
0.00108716
0.0011092
0.00335969
0.00385586
0.00181139
0.000876323
0.00339202
0.00250485
0.00101337
0.00146156
0.000968957
0.000875276
0.00217533
0.00103529
0.00158769
0.00118708
0.00207384
0.00138797
0.00121443
0.00297578
0.00153879
0.00128232
0.00338434
0.00167017
0.00385903
0.000946462
0.000999252
0.00102606
0.00248122
0.00137759
0.00175792
0.00131838
0.000941658
0.00139726
0.00392416
0.0024965
0.00101071
0.00103356
0.00242956
0.00100186
0.00102649
0.00121602
0.0051748
0.000988921
0.00494096
0.00378089
0.000310649
0.00088685
0.00102987
0.0017297
0.00204303
0.00292796
0.000839525
0.00285057
0.00339657
0.000611981
0.000706246
0.00161484
0.000940646
0.00086079
0.00144838
0.00126125
0.0017054
0.00102092
0.00224374
0.00159582
0.00218695
0.00025421
0.000853182
0.0022269
0.00146143
0.00274891
0.00082622
0.00142507
0.000705464
0.00119035
0.000632648
0.00180318
0.000284021
0.0016554
0.00183127
0.00266451
0.00141906
0.00218552
0.00109101
0.00116915
0.00165224
0.00237612
0.000546942
0.00076781
0.00146336
0.000805526
0.00240568
0.00175637
0.00131672
0.000954713
0.0094671
0.00200816
0.00232022
0.000466767
0.00110753
0.00138473
0.00120866
0.000333087
0.000763425
0.00654143
0.00160312
0.000702018
0.000989185
0.000762915
0.00390775
0.00135601
0.00182123
0.000814246
0.00204632
0.00126264
0.00114182
0.000301939
0.00175116
0.00252153
0.0011039
0.000776044
0.00140293
0.00207071
0.0026334
0.00217495
0.0016662
0.00129095
0.00085403
0.00119504
0.00153056
0.000846923
0.000675023
0.00246195
0.00117687
0.00224197
0.00112385
0.00328016
0.00062654
0.0006618
0.00159759
0.000897488
0.00193785
0.000718271
0.00648987
0.000822915
0.00123637
0.00388918
0.00110327
0.00181574
0.00120556
0.00103911
0.00573767
0.00189001
0.000695332
0.00173025
0.00667568
0.00131015
0.00103558
0.000693649
0.000758755
0.00898551
0.000820452
0.00181575
0.000791445
0.00150481
0.00116241
0.00144598
0.00184556
0.00179943
0.00144336
0.0026647
0.00138878
0.0012508
0.00119824
0.000712452
0.000980217
0.00169807
0.00098773
0.00260897
0.000884877
0.00187057
0.00126966
0.000890355
0.000351411
0.00119879
0.00130959
0.00188359
0.00156938
0.00135383
0.00172032
0.000795226
0.000774117
0.00145206
0.000317903
0.00111413
0.0014114
0.000994197
0.00166254
0.00122316
0.00141327
0.00148042
0.00113238
0.00095287
0.00310067
0.00167699
0.00285131
0.00123001
0.00139075
0.00123061
0.00155986
0.00113253
0.00100766
0.00109104
0.00094849
0.00101078
0.000957025
0.00103248
0.00254157
0.000990062
0.000982077
0.000843739
0.00094172
0.000969109
0.000948365
0.000958239
0.00197825
0.00152892
0.00112292
0.00173999
0.000855865
0.00195195
0.00147573
0.00294879
0.00403417
0.000764894
0.000693235
0.00236447
0.000830888
0.00378407
0.00185049
0.000709103
0.000844985
0.000856094
0.00358982
0.000999441
0.00343589
0.00165737
0.00182852
0.000807196
0.00393837
0.00254491
0.00246234
0.00114724
0.00088783
0.0009118
0.00140195
0.00424916
0.000956185
0.00258517
0.0010223
0.000787645
0.00402569
0.000813889
0.000763045
0.00103969
0.0008184
0.00271586
0.00122381
0.00128863
0.000988111
0.00366091
0.000796587
0.0015475
0.00278829
0.00148136
0.000819838
0.00172692
0.00135751
0.000922778
0.00082205
0.00273129
0.00252443
0.00111622
0.00126086
0.00170093
0.000843233
0.0010869
0.00442189
0.000827209
0.00129266
0.000845617
0.0013961
0.00179869
0.00114417
0.00454521
0.00256797
0.000800842
0.00161142
0.000827587
0.00147406
0.0014796
0.00147919
0.00273051
0.000805119
0.000897181
0.000341552
0.00224545
0.00186068
0.00178051
0.00524664
0.00100962
0.00155711
0.000969572
0.000588678
0.00147597
0.000874997
0.00144061
0.000753675
0.0010711
0.00162999
0.000811159
0.0010004
0.00123258
0.000604927
0.00133316
0.000878552
0.00165065
0.000764806
0.000945162
0.00154383
0.00122693
0.00335186
0.00148712
0.00171608
0.000585667
0.00636501
0.000877964
0.00282131
0.00254224
0.00132139
0.00795285
0.000893127
0.000743928
0.00106512
0.00164161
0.000821907
0.00162289
0.00270286
0.00103893
0.00124902
0.000309715
0.00163606
0.0014548
0.000483289
0.00112931
0.00154322
0.0015916
0.00228106
0.000601457
0.00174253
0.00169141
0.00105623
0.00139992
0.00164418
0.000393762
0.000841192
0.0013398
0.000468158
0.00173705
0.00115604
0.000993803
0.00121991
0.00405548
0.00182288
0.0021699
0.00256564
0.000714345
0.00177346
0.00128964
0.0018159
0.00207014
0.00107634
0.00192854
0.00206278
0.00182591
0.00104369
0.00147079
0.00122504
0.0017249
0.00116433
0.000754626
0.000802653
0.00146272
0.00134953
0.00161405
0.00173819
0.00155697
0.0020231
0.000281982
0.00161698
0.00152538
0.00150433
0.00107872
0.000950683
0.00232603
0.00104832
0.00179744
0.00180921
0.000684073
0.00109947
0.00164783
0.00193778
0.00353383
0.00152167
0.00075729
0.00202647
0.000739448
0.00265097
0.00163749
0.00137737
0.000486634
0.00162965
0.00183511
0.0014562
0.00190502
0.0015862
0.00158698
0.000933746
0.000459
0.00199932
0.00115226
0.00123208
0.000756953
0.00180732
0.00184172
0.00216427
0.00280371
0.00111272
0.00165493
0.00154808
0.00174323
0.00329615
0.00129102
0.00181962
0.00185062
0.000763683
0.00156346
0.00112514
0.000815021
0.00100037
0.00156932
0.00211658
0.000831601
0.00388617
0.000673323
0.00194566
0.00201646
0.000786622
0.00132275
0.000799991
0.000602973
0.000576924
0.00137885
0.000754384
0.00113834
0.000363733
0.00524039
0.0011525
0.00102694
0.00036285
0.000345921
0.00103583
0.000386414
0.000737701
0.000329507
0.00274871
0.000363092
0.00179274
0.00154587
0.000358115
0.000516752
0.000862074
0.000447366
0.000372029
0.00143335
0.000959128
0.000784108
0.000539434
0.00243306
0.000872798
0.00186334
0.00110065
0.0017061
0.000818621
0.00203187
0.000709017
0.00110656
0.00137524
0.00244302
0.0017387
0.000545347
0.000815054
0.00335181
0.00174899
0.00292602
0.00467128
0.000979121
0.00137705
0.00173468
0.00173281
0.00578236
0.00136978
0.000977946
0.000408601
0.000776622
0.00149242
0.000377713
0.000796259
0.00182826
0.000627137
0.00125777
0.0011641
0.00263548
0.0007417
0.000754185
0.00203125
0.00144428
0.00178189
0.000967189
0.00195245
0.00401146
0.000758076
0.000859941
0.00102081
0.00083288
0.000381239
0.00460183
0.00451088
0.00170189
0.00194212
0.000866907
0.000969704
0.00131351
0.00119614
0.00121612
0.0017584
0.00176316
0.00141999
0.00073728
0.000919717
0.000855858
0.0013447
0.000354277
0.000872286
0.000962185
0.00091426
0.0015348
0.000573579
0.00170745
0.00114742
0.00036491
0.00300912
0.000903385
0.00160468
0.000877052
0.00129335
0.0049861
0.00106869
0.000990636
0.00102896
0.00114249
0.000324938
0.00194121
0.0017548
0.00188794
0.00173081
0.000840172
0.00348144
0.00091603
0.00137728
0.00115317
0.00866797
0.00134308
0.000853231
0.000806343
0.000826547
0.00875726
0.00067963
0.001737
0.00221491
0.000816656
0.00442812
0.00132601
0.00111275
0.00105659
0.000710973
0.000768016
0.00508388
0.00154525
0.00117825
0.000363011
0.000377803
0.000845934
0.00101593
0.00107546
0.0018464
0.000944633
0.000433796
0.000727042
0.000873046
0.00135729
0.00576742
0.000945891
0.00125873
0.00149468
0.00126071
0.00173778
0.00094437
0.000907316
0.00145248
0.00163369
0.00227448
0.000665921
0.00644401
0.00103417
0.00294053
0.000864549
0.00108911
0.00174149
0.00125008
0.000435933
0.000619944
0.000886213
0.000980188
0.000815917
0.000668988
0.000988953
0.00128325
0.000884657
0.00108521
0.00147816
0.000968577
0.00135155
0.000853241
0.00256406
0.00105613
0.00109848
0.00850728
0.000928295
0.00040539
0.00149699
0.000673003
0.000937438
0.000590656
0.000927738
0.000734878
0.00326105
0.00223387
0.000728303
0.00260955
0.00824154
0.00428124
0.0030969
0.000831148
0.000363269
0.000343663
0.000291535
0.000314243
0.000992058
0.000362881
0.000306317
0.000354245
0.000321954
0.000337981
0.000650003
0.00110066
0.000387075
0.000484706
0.000534547
0.000411737
0.000347171
0.0003329
0.000414119
0.000322335
0.000328308
0.000403613
0.000342616
0.00141635
0.00306642
0.000955311
0.00190194
0.00106005
0.00296778
0.00119077
0.00261316
0.000789407
0.00147127
0.00194718
0.000633426
0.000873637
0.00556803
0.00420271
0.00077749
0.00308565
0.000680966
0.00121015
0.000997227
0.000697336
0.00498236
0.00064097
0.000351423
0.00144075
0.00124974
0.000545242
0.00187803
0.00213465
0.0011627
0.00209535
0.00163325
0.000902281
0.00117157
0.00176047
0.00305084
0.000989433
0.00212106
0.00105996
0.00222722
0.00167027
0.000386131
0.000422248
0.00188878
0.00172656
0.00108824
0.00158982
0.000689762
0.00100645
0.000286352
0.00212755
0.00141248
0.00185366
0.000707514
0.000746804
0.002948
0.0015471
0.00033028
0.00116292
0.000410699
0.00183419
0.0014503
0.000628381
0.000792058
0.0022155
0.000685794
0.00138443
0.00207428
0.00956567
0.00115938
0.0016006
0.00179909
0.00462808
0.00109617
0.00189343
0.00157073
0.000833244
0.00149843
0.0011603
0.00156253
0.00162266
0.00146465
0.00646565
0.0025394
0.000341411
0.0011155
0.00205035
0.00183327
0.00392628
0.000889292
0.0018265
0.000895999
0.00100791
0.00401158
0.00150812
0.0012098
0.00106434
0.00193207
0.00121856
0.00316413
0.000799649
0.00179618
0.000658953
0.00160159
0.00168796
0.00160883
0.000707993
0.00187879
0.00140032
0.00192474
0.00619434
0.000786932
0.000309205
0.000432353
0.00102466
0.00109106
0.00501854
0.000416754
0.000806202
0.000993276
0.00307976
0.00226693
0.00202918
0.0012698
0.000878486
0.00177073
0.000458112
0.0017078
0.000859875
0.0014838
0.00040795
0.00155895
0.000410456
0.000810823
0.00147677
0.00100854
0.00116907
0.00368257
0.00311765
0.000831428
0.0024557
0.00118902
0.00101559
0.000831552
0.000682095
0.00151019
0.00110206
0.00180325
0.000971539
0.000903928
0.00151961
0.000822289
0.00317354
0.000623024
0.000644957
0.00123127
0.000628682
0.00100737
0.000726283
0.00140727
0.0013586
0.00059605
0.000350582
0.000487055
0.00047467
0.000475675
0.000745947
0.000686527
0.000680241
0.000533633
0.000713165
0.000433384
0.000386697
0.000353768
0.000392383
0.000296688
0.000357047
0.00170338
0.00100567
0.000898674
0.00136675
0.000784569
0.000408598
0.00152434
0.00170654
0.0012074
0.0012737
0.00167602
0.00162171
0.00101469
0.000768185
0.000411578
0.000909179
0.000945763
0.000909386
0.00169535
0.000852791
0.00108793
0.00348736
0.00175328
0.00136013
0.00931807
0.00103695
0.000920706
0.000861268
0.00120313
0.00093584
0.00101735
0.0017979
0.000756555
0.000877212
0.00113301
0.00112995
0.00193372
0.000364735
0.00193415
0.000767465
0.00139225
0.00293471
0.00075125
0.00133153
0.00127825
0.00102589
0.000682863
0.00296666
0.00184102
0.00356128
0.00114103
0.00165006
0.00241013
0.000929469
0.00179119
0.00120022
0.000625855
0.000900544
0.00238575
0.000689569
0.00141937
0.00133974
0.00242583
0.000793861
0.000381804
0.00166608
0.00119828
0.0010854
0.000794868
0.00113147
0.00165142
0.00232076
0.00117393
0.00213548
0.00151997
0.00120215
0.00196994
0.000780392
0.0013309
0.00105629
0.000751549
0.00170214
0.000603495
0.00311908
0.00159169
0.00193415
0.00209037
0.00186959
0.00201534
0.000852159
0.00148117
0.00129052
0.00610308
0.00374665
0.00122437
0.000868316
0.000660805
0.000841977
0.00154447
0.000868127
0.000547465
0.00169256
0.000805726
0.00287144
0.00312356
0.00131761
0.00111024
0.000825182
0.000780168
0.00156387
0.0059776
0.000777531
0.000759348
0.00427595
0.00201957
0.000667287
0.000780713
0.00155549
0.000862949
0.00188516
0.001812
0.00135793
0.00132849
0.00129653
0.00391375
0.0014443
0.00106552
0.000396661
0.00107754
0.00264712
0.000942421
0.00190162
0.00133011
0.00158845
0.001826
0.00079461
0.00200846
0.00162401
0.000618869
0.00101009
0.000480719
0.00182989
0.00824015
0.00111655
0.000733761
0.00162155
0.00301225
0.00182417
0.00157059
0.000793877
0.000936612
0.000655425
0.00090456
0.000779642
0.00110009
0.00107221
0.00127583
0.00173168
0.00188408
0.00179233
0.00151123
0.00386814
0.000793232
0.00474555
0.000795765
0.00156348
0.00157692
0.00172583
0.00121967
0.000688405
0.00235297
0.00189834
0.00167406
0.00167518
0.00418099
0.00184488
0.00189223
0.000724261
0.000636067
0.00150479
0.00182009
0.00127958
0.00048967
0.00089041
0.00138977
0.00218406
0.00142697
0.00185039
0.00112105
0.00165251
0.0060673
0.00121592
0.000285404
0.000431228
0.00124764
0.000918999
0.00152299
0.00138287
0.00107158
0.00529429
0.00147039
0.000776887
0.0034591
0.00118749
0.00370151
0.00138147
0.0018156
0.00100848
0.00609616
0.001365
0.00070156
0.000748876
0.00762262
0.00108508
0.000999822
0.000809746
0.000696452
0.00129439
0.000752135
0.00477775
0.00171415
0.00220015
0.00068047
0.0079264
0.000402918
0.00357943
0.00151108
0.000896813
0.00133811
0.00570202
0.00478354
0.00113759
0.000916787
0.00071293
0.000878294
0.000790824
0.000912637
0.000891878
0.00284782
0.000689147
0.000860708
0.00045912
0.00761957
0.00040793
0.000697653
0.000410696
0.00172193
0.00194605
0.00102829
0.00061138
0.00617065
0.0011178
0.000651535
0.00116602
0.000983368
0.000747454
0.00127624
0.00110155
0.00139644
0.00217077
0.00155677
0.0070461
0.00217848
0.00109408
0.00104643
0.000925237
0.00125468
0.000830478
0.00142146
0.000910257
0.00161563
0.000806743
0.00097112
0.000827365
0.00160068
0.000818112
0.000633935
0.000817946
0.0024792
0.00145479
0.00193263
0.000907794
0.0028839
0.00232657
0.00099912
0.0011412
0.0010237
0.000671697
0.000508821
0.00156399
0.00179944
0.000508582
0.00128334
0.0022971
0.000845141
0.000805266
0.000840054
0.000691015
0.00067821
0.000574352
0.000551172
0.00052505
0.00172218
0.00226922
0.000796338
0.00164016
0.0014971
0.000645576
0.00204834
0.0017908
0.00148602
0.00149948
0.000588485
0.000370749
0.00289546
0.000431369
0.00105582
0.000950681
0.00031754
0.000434521
0.00064004
0.000480214
0.000595862
0.000459446
0.0012098
0.00204912
0.00133659
0.000697685
0.000448948
0.000470743
0.000580934
0.000575594
0.00047367
0.000315311
0.000395595
0.000916957
0.000489835
0.000398312
0.000415831
0.000696748
0.000641007
0.000390863
0.000383129
)
;

boundaryField
{
    frontAndBack
    {
        type            empty;
    }
    wallOuter
    {
        type            nutkWallFunction;
        Cmu             0.09;
        kappa           0.41;
        E               9.8;
        value           nonuniform List<scalar> 
96
(
4.02176e-05
5.25475e-05
4.55729e-05
9.65449e-05
9.85335e-05
9.47297e-05
4.31539e-05
4.30463e-05
4.093e-05
4.5864e-05
3.88703e-05
4.30497e-05
4.24525e-05
0.00010211
4.41284e-05
4.85219e-05
9.19652e-05
4.4934e-05
4.19328e-05
4.32959e-05
3.82883e-05
4.30579e-05
4.49641e-05
5.15269e-05
8.61937e-05
0.000101843
4.30953e-05
4.0557e-05
3.38755e-05
3.67759e-05
0.000119899
4.31444e-05
3.59655e-05
4.1999e-05
3.79353e-05
4.00069e-05
8.08731e-05
0.000131713
4.61703e-05
6.06212e-05
6.69768e-05
4.92444e-05
4.1247e-05
3.94879e-05
4.95641e-05
3.81646e-05
3.88951e-05
4.82989e-05
4.06743e-05
4.17531e-05
4.47676e-05
5.09879e-05
3.9042e-05
4.87525e-05
7.47074e-05
4.04742e-05
0.000143358
3.58534e-05
5.31431e-05
5.01423e-05
5.43962e-05
4.83555e-05
4.85211e-05
0.000119054
7.42985e-05
8.53945e-05
7.05004e-05
4.15863e-05
5.7787e-05
5.63186e-05
5.64198e-05
8.76784e-05
8.09747e-05
8.03284e-05
6.32191e-05
8.41877e-05
5.11043e-05
4.54642e-05
4.1335e-05
4.61812e-05
3.43333e-05
4.17175e-05
4.90599e-05
4.89146e-05
4.35286e-05
4.56889e-05
6.50356e-05
4.71377e-05
5.70545e-05
5.81021e-05
3.30399e-05
5.34756e-05
4.75259e-05
0.000108469
5.45956e-05
4.86262e-05
)
;
    }
    inlet
    {
        type            calculated;
        value           nonuniform 0();
    }
    outlet
    {
        type            calculated;
        value           nonuniform List<scalar> 9(0.00648987 0.00898551 0.00192854 0.00401146 0.00866797 0.00619434 0.00100854 0.00356128 0.00241013);
    }
    wallInner
    {
        type            nutkWallFunction;
        Cmu             0.09;
        kappa           0.41;
        E               9.8;
        value           nonuniform List<scalar> 
126
(
0.000107047
5.00883e-05
8.46915e-05
0.000115627
6.27934e-05
5.55334e-05
7.54279e-05
6.81218e-05
4.868e-05
6.94014e-05
4.39487e-05
0.000123277
0.000263053
0.000101339
7.70473e-05
7.44944e-05
0.000136248
5.85618e-05
5.81807e-05
5.29963e-05
9.89904e-05
4.02876e-05
0.000122285
5.40437e-05
5.01893e-05
7.4913e-05
0.000122572
0.000105267
8.16011e-05
4.99286e-05
0.000131685
8.10554e-05
0.000186986
0.000119725
0.000178671
7.90467e-05
8.66653e-05
0.000107406
3.73902e-05
3.59604e-05
7.50087e-05
0.000100034
2.98797e-05
6.86019e-05
6.76195e-05
5.9602e-05
9.02736e-05
0.000208596
7.1384e-05
7.49362e-05
0.000127552
8.66131e-05
0.000149381
3.76355e-05
7.29981e-05
8.37675e-05
2.98525e-05
0.000159711
8.34948e-05
7.54909e-05
3.44841e-05
6.53627e-05
9.09978e-05
0.000172105
0.000115422
3.98358e-05
8.38771e-05
0.000136755
3.69859e-05
0.00013712
7.42338e-05
7.90426e-05
4.2801e-05
3.83446e-05
8.49309e-05
8.73875e-05
4.14239e-05
7.18931e-05
7.98267e-05
7.34591e-05
7.92375e-05
7.13773e-05
3.5353e-05
5.84459e-05
4.51626e-05
5.69646e-05
8.59821e-05
3.40073e-05
8.04003e-05
5.90391e-05
5.55486e-05
6.24041e-05
5.41782e-05
4.52067e-05
4.90568e-05
7.09077e-05
3.41451e-05
0.000136007
4.28694e-05
8.372e-05
7.17014e-05
4.54848e-05
5.17281e-05
9.84727e-05
3.74932e-05
4.88562e-05
5.74371e-05
5.45829e-05
0.000140981
0.000232273
0.000150992
8.47423e-05
5.48997e-05
6.90972e-05
6.93198e-05
5.73044e-05
3.79613e-05
4.72008e-05
0.000105359
5.88369e-05
4.11598e-05
5.10375e-05
8.42836e-05
7.77112e-05
4.81424e-05
4.65533e-05
)
;
    }
    procBoundary3to1
    {
        type            processor;
        value           nonuniform List<scalar> 
48
(
0.00140356
0.00130588
0.00139576
0.0013593
0.000963516
0.00100357
0.00130588
0.00198594
0.0016637
0.00092276
0.00092276
0.00094854
0.00094854
0.000727695
0.000793013
0.000890798
0.000831526
0.000853846
0.000831526
0.00081753
0.000855906
0.00115179
0.00081753
0.000893886
0.00092516
0.000686076
0.00126015
0.00115179
0.00138682
0.000908983
0.000908983
0.00165577
0.00165577
0.0016637
0.000727282
0.00105285
0.00191879
0.00092516
0.00151983
0.000914255
0.000727695
0.00188014
0.00183813
0.00081753
0.000787472
0.000418636
0.000905383
0.000739978
)
;
    }
    procBoundary3to2
    {
        type            processor;
        value           nonuniform List<scalar> 
29
(
0.00105822
0.00105822
0.000643116
0.000640822
0.000330078
0.000501878
0.000523599
0.00106532
0.00102004
0.000834873
0.000692019
0.000529388
0.000699322
0.001505
0.00183691
0.00166363
0.00177025
0.00135432
0.00110523
0.00141162
0.00158071
0.00177025
0.000451198
0.00135432
0.00155321
0.00148398
0.00135432
0.00067286
0.00067286
)
;
    }
}


// ************************************************************************* //
