/*--------------------------------*- C++ -*----------------------------------*\
| =========                 |                                                 |
| \\      /  F ield         | OpenFOAM: The Open Source CFD Toolbox           |
|  \\    /   O peration     | Version:  v1912                                 |
|   \\  /    A nd           | Website:  www.openfoam.com                      |
|    \\/     M anipulation  |                                                 |
\*---------------------------------------------------------------------------*/
FoamFile
{
    version     2.0;
    format      ascii;
    class       volScalarField;
    location    "0.45";
    object      k;
}
// * * * * * * * * * * * * * * * * * * * * * * * * * * * * * * * * * * * * * //

dimensions      [0 2 -2 0 0 0 0];


internalField   nonuniform List<scalar> 
1466
(
0.6443
0.888677
0.503555
2.12608
0.339642
0.763861
0.929955
1.17216
0.274656
1.08336
1.40242
1.04236
0.217391
0.290195
1.28127
2.32611
0.900223
1.04323
2.45396
1.67187
2.54666
2.41002
1.88102
1.48213
0.246327
0.688808
1.57115
1.96921
0.275259
1.38287
1.61375
0.69377
0.628794
3.40924
1.98318
1.42196
3.16928
1.01375
1.33703
0.345828
0.610877
1.14746
1.25375
0.630705
0.311912
0.757677
1.31019
0.196283
0.925745
0.282641
0.454122
0.898076
0.735254
0.248134
0.557014
0.272392
0.657637
1.23073
0.452782
1.09206
1.16604
1.27579
0.417668
1.0777
2.13152
1.14996
3.76569
1.7013
0.842232
0.442488
2.23717
1.35121
1.04135
0.260871
0.846655
1.46891
1.22719
0.405115
0.25639
1.66293
1.3413
2.03495
0.519791
1.69533
2.4125
2.84663
3.19997
1.56644
1.30575
1.12599
0.873236
1.53031
2.41069
0.675799
0.862726
0.530082
0.823253
1.21218
0.276944
0.224503
0.615728
0.336022
0.180263
1.22183
1.45112
1.42474
0.783118
0.216604
1.27725
0.64187
1.03666
1.75842
0.890185
1.13252
0.968718
1.29619
1.29381
0.866961
0.855939
0.554527
2.86247
1.37208
0.383504
0.702446
0.311317
1.27994
1.07708
1.87439
1.51286
1.22425
1.17126
1.08464
1.7526
1.40744
0.959513
0.606319
0.325149
0.775319
0.689491
0.433004
0.410486
2.17332
2.09062
1.92657
2.52551
3.52818
0.692337
0.994608
1.54345
1.75136
0.965171
1.1152
0.967821
0.653909
1.41688
2.3728
1.81464
2.79638
0.746782
1.01038
0.666655
1.40757
1.39387
2.21377
3.01364
1.75615
1.90512
2.17781
2.415
1.12696
2.53015
0.491187
0.25454
0.882971
0.587501
0.264771
1.20417
1.62508
0.949873
2.28375
0.28348
1.12416
2.74379
0.16662
1.569
2.94915
2.49225
1.20006
0.864565
0.530533
2.69626
1.23816
2.46308
3.88987
0.92134
1.165
0.36114
2.30487
2.97208
3.89587
1.75323
1.38224
1.22475
1.53965
1.95267
2.92674
2.9818
0.79439
0.735075
1.61429
2.19762
2.27904
2.52353
2.34557
2.71825
2.19778
3.01464
2.59176
1.42106
1.75619
2.06656
1.32946
2.29232
1.32227
2.35976
2.25662
2.14185
0.236556
0.953837
1.29923
1.68525
1.63167
4.1989
3.92235
0.68927
2.57194
2.0267
2.07644
0.990981
2.65531
1.16442
1.61454
1.09069
3.97589
0.823756
1.2925
0.68485
0.258727
1.72037
0.970925
2.90555
2.31561
0.725429
1.34397
0.504686
0.979714
1.70122
0.360688
1.30659
1.57236
1.12638
1.66758
1.37015
1.26931
1.53711
0.181968
0.632419
1.48321
2.41904
0.381751
1.64749
1.46231
0.82793
0.732886
0.910897
1.46679
1.13754
1.60486
2.49729
1.5959
1.14933
2.11299
2.03101
1.44281
2.66512
0.315247
1.66294
1.62121
0.238143
0.587818
0.637865
0.593565
0.253038
0.123925
1.25717
0.649654
1.94646
0.49385
1.63732
1.16898
0.243265
1.57822
0.205974
0.275903
2.74176
0.438537
1.21577
0.705892
1.04263
3.63686
0.840437
2.56768
1.80943
1.29036
1.48983
1.25037
3.37502
0.954162
0.586322
1.35894
0.626932
1.66212
1.32805
1.06199
2.8844
0.508054
0.338516
0.96359
0.934242
1.38803
1.78511
0.542044
0.649411
1.04357
2.31602
0.379604
2.46955
0.977629
1.01439
1.08357
0.366291
0.864061
0.831502
1.58045
1.19657
0.209989
1.38261
1.08968
0.927158
2.20771
0.740255
0.351987
1.54412
3.056
3.09842
2.94786
1.97348
0.368891
0.294014
1.08382
3.08242
2.60449
1.91494
2.18093
0.609029
4.38563
0.769441
0.740552
0.929922
1.14587
0.99892
3.12861
1.23922
0.934726
0.691801
3.13228
1.49348
1.25474
1.03616
1.47046
3.11039
2.17392
3.17173
3.10563
1.93097
2.07004
0.746628
0.756267
0.690862
0.538119
0.656381
1.22891
2.35497
1.25312
1.83819
0.961529
0.333495
1.26105
1.47634
0.635588
0.248632
0.240278
1.40272
0.418863
1.18269
3.52387
1.53363
0.971256
3.55377
3.40271
1.16116
1.75001
1.98694
3.56326
1.58049
0.408397
0.354546
1.25501
1.44027
1.31647
2.92249
3.06885
1.36877
1.9676
1.53652
0.454172
2.21228
1.22108
1.35598
0.556894
2.00163
1.09731
1.29736
1.96563
1.32959
0.429353
0.349608
0.341185
0.251156
1.93078
0.270569
0.275866
1.97161
0.24752
1.33805
1.52752
0.605172
1.42736
1.30534
1.89834
1.47791
1.05068
0.190606
0.326552
0.967641
0.266737
0.65024
0.902541
0.215081
1.43471
0.705959
0.551798
0.635217
1.57276
1.75348
1.26669
1.05368
0.463619
0.415419
1.08082
0.42083
0.874892
1.93789
0.203059
1.47851
1.2277
0.413362
2.41835
4.06128
2.22136
1.07683
2.24232
2.36188
3.82766
3.19495
0.674818
1.14496
0.406733
3.49184
2.05232
3.50995
1.90306
0.780224
1.09394
1.45718
1.53923
2.55695
1.82609
1.27379
2.8261
2.97357
3.6929
1.34613
2.67616
0.411651
2.82113
1.49084
1.60018
1.11798
1.9859
1.28744
2.8486
1.78593
1.71004
2.52686
2.5005
0.548604
0.306442
0.525191
0.993321
2.7702
0.48331
4.10855
0.789911
2.5644
0.548033
0.434834
1.79515
0.612526
3.61417
0.465934
1.87425
3.4464
1.40858
1.82994
0.443773
0.933869
1.62344
0.756662
2.23177
0.634448
2.88532
0.572605
1.91274
0.78009
0.892116
1.04811
0.66426
3.50006
1.58701
2.75655
1.13783
0.407426
1.79084
1.78424
2.2254
2.04722
2.73683
1.09107
0.515868
3.47617
3.47387
1.2722
1.0368
0.433956
1.91341
1.22297
4.08029
1.68401
3.59968
2.96849
4.05711
1.12131
1.48829
0.887767
2.87623
0.352922
3.14028
1.90927
1.74983
1.82132
3.55454
2.51168
2.56164
3.22084
1.5473
2.86763
0.30494
1.60389
2.31517
3.18316
0.754108
2.44225
2.501
3.04607
2.16203
1.9074
1.31672
1.10145
2.00786
1.22178
0.431384
0.425977
0.888329
4.59527
2.67134
1.35275
0.197936
1.63437
3.68793
0.866321
2.25264
0.655142
0.935766
2.19388
0.927587
1.4709
0.781891
0.684173
2.85371
0.846278
0.500714
1.24506
0.538483
0.873871
2.57586
2.21327
2.70017
3.09803
3.15855
2.69109
0.65904
0.708158
0.45572
3.20231
0.391629
2.625
2.2771
1.56863
2.13777
3.66993
1.66829
1.39048
1.37762
3.91727
0.43128
2.689
3.56616
1.35606
0.811239
3.34585
0.340656
1.17927
0.653675
3.99182
3.88507
0.971192
1.91073
0.944888
0.244614
4.15674
1.76697
0.458548
0.441798
3.64616
1.10519
1.97667
1.36985
1.546
0.785499
0.741766
0.952427
1.99758
0.331992
1.88077
0.255055
1.64866
0.453412
0.848802
0.563981
2.07012
0.775564
0.609456
3.92429
0.346902
3.19381
0.437534
0.19815
1.48996
0.239835
3.8034
0.547299
0.490698
1.25811
0.372329
0.194299
1.18989
2.63847
0.452976
2.42214
3.86539
0.413307
0.213291
0.943335
3.62518
3.14102
1.19862
0.74633
0.200101
3.46241
1.06306
3.23589
0.610778
1.56173
3.74562
2.31263
0.972495
3.06303
3.09257
1.5783
1.29954
2.95101
3.94328
1.44838
2.04186
3.80437
2.09727
0.557766
1.71007
0.225421
2.49006
1.94356
2.6105
0.338949
3.42108
2.54985
1.224
2.49844
0.382681
3.29862
3.18338
1.78515
3.69356
0.252926
0.607628
1.16424
0.504689
0.372044
1.44383
1.18627
2.07035
1.81268
0.678675
0.313366
2.16148
2.72419
3.04583
2.17948
0.430347
2.13208
2.35018
0.50514
1.55395
1.44731
4.11539
1.22602
1.92767
2.14006
2.1797
2.84724
1.25202
0.793741
0.368019
1.64339
2.346
2.6672
1.26872
0.31287
1.1302
1.74178
0.9603
1.35732
2.08148
0.793473
3.49676
0.342579
1.66656
2.88476
3.18484
1.12064
2.14512
3.63784
2.55982
0.701263
1.23714
0.482502
3.22646
1.46054
0.639384
0.433878
1.25739
2.25049
3.64151
0.698437
0.831597
0.27429
0.264964
0.410844
2.41553
2.21384
1.25888
1.74191
1.86119
1.4404
1.71434
0.671812
2.20082
2.00665
0.926121
2.71445
1.7895
3.09354
0.646105
1.65916
0.344612
1.72167
2.27085
0.399704
0.517726
1.80298
1.70198
2.198
1.0846
3.74107
0.746959
0.98454
0.747024
0.27479
0.911586
1.16542
1.46558
3.69627
3.44034
0.877423
2.94415
1.25427
0.519817
3.49399
1.05342
1.7692
2.7584
1.32973
2.09711
1.14344
2.35637
1.18604
1.49988
0.841108
1.59549
2.10313
3.71789
3.50637
0.315655
1.07472
0.712591
0.693219
2.09107
2.42477
1.25868
1.68292
2.61243
0.507981
2.24224
0.752786
4.22267
0.589206
3.47146
1.14062
1.1641
1.10722
1.14256
1.15143
1.18524
1.11304
1.51505
1.54591
1.65304
1.54037
1.48278
1.44716
1.47398
1.4447
1.75745
1.14781
1.29223
1.83478
1.83624
1.56914
1.70915
1.41085
1.39672
1.38219
1.0748
1.76395
0.2236
0.248172
2.4685
0.604428
0.53606
0.669441
0.27463
1.22636
3.59635
1.79227
3.85909
0.927442
0.487565
0.389535
1.7563
0.61112
2.4141
1.31788
2.10172
1.33901
1.08708
4.02166
2.48986
1.34332
1.07281
0.403604
0.284768
0.222561
0.265963
1.05215
1.56334
2.32357
3.35321
0.519891
0.532199
1.34724
0.725972
0.740245
0.649344
3.55409
1.34382
0.448126
1.25773
1.08955
0.951316
0.471501
2.12623
1.36658
1.68643
2.70628
2.09686
2.60337
0.656443
1.90482
2.86995
1.30622
3.97629
0.789825
1.27086
0.534762
1.95353
2.9271
0.216538
1.50122
1.12943
2.49454
0.301853
2.61885
2.53372
2.57883
1.24017
0.784668
1.56333
2.3544
0.987233
0.841382
0.715322
2.11134
2.75238
3.65259
0.520531
1.30444
3.81382
1.06431
3.30513
1.70209
0.577308
0.219072
1.56492
1.33575
3.07211
4.68767
1.61902
2.55803
0.270921
0.5759
2.87695
1.75956
3.20382
0.399218
0.906294
1.3935
0.495334
0.208255
1.5133
0.252152
0.839516
2.56033
0.256537
0.223038
1.85599
0.345644
2.56108
1.1676
1.0684
3.42353
1.00832
1.48783
3.04296
1.88265
3.0715
1.14167
1.01739
2.0239
1.55361
0.348507
1.72653
2.87109
1.63373
0.530249
0.795615
2.25287
1.32589
0.812009
2.35189
0.256527
1.64016
0.595175
0.83132
0.330744
0.550933
0.648016
0.862547
0.32358
1.25205
3.77016
1.25216
0.399568
0.658059
2.37268
0.626049
0.549014
1.23391
3.21588
0.91887
0.633654
0.518385
0.274389
0.471398
0.573451
0.500883
3.20304
1.08591
1.40933
0.398039
0.0953944
2.1036
1.96746
0.288049
0.512353
0.291754
0.840947
0.265386
0.292296
0.293933
1.14996
0.379088
0.256314
1.28207
0.271417
0.285068
0.279931
0.27485
0.662386
0.702578
0.256382
0.275294
0.294023
0.296528
0.804145
3.52392
2.20484
1.23062
1.18075
2.35158
3.65329
1.34849
1.2007
1.04645
2.56022
1.60883
0.411844
0.523856
2.73274
1.51867
3.78946
2.85491
0.209598
3.24299
1.05976
1.43944
0.685336
1.96483
1.70463
2.89919
0.385536
2.30129
1.62538
1.93773
1.00982
1.26388
0.255502
0.784649
0.948492
1.45908
1.42821
1.34535
1.54354
1.69055
0.802207
0.626829
1.69057
1.27877
2.15769
3.16849
3.52892
3.89926
0.622261
0.225967
1.32627
1.57943
1.39025
0.999124
0.578434
1.18688
1.10757
3.70955
0.738362
0.807059
3.47249
0.492028
0.459791
0.784188
1.48587
1.222
3.7317
0.542279
1.80835
1.21807
1.02307
2.28015
4.17258
0.977059
3.10276
2.6088
0.371796
1.69506
2.13501
1.16183
0.827127
0.343797
2.84649
1.50295
2.86877
2.99622
3.5676
4.25387
0.81799
1.27493
2.04523
1.70131
1.64639
3.62259
1.25563
0.428483
1.47311
1.92662
0.433528
3.21124
1.69182
1.78355
1.35832
1.18657
0.529887
0.715894
0.794968
1.4403
0.521747
0.890464
1.05551
0.987124
1.27577
4.81272
0.263824
0.539699
0.950944
0.426194
0.573807
1.36297
1.07304
0.394171
0.248847
1.50605
0.799138
2.04516
3.73412
3.78089
0.514322
1.42234
0.25339
2.88599
1.15572
0.228859
1.8781
1.28075
2.8956
2.91566
1.67578
1.68003
1.31817
1.11282
0.334255
2.8971
0.568168
0.24507
1.54399
0.347384
3.17652
0.681365
1.67268
0.536841
3.0818
1.77761
0.204156
3.6791
0.77239
0.257385
3.32118
2.7396
1.21413
1.61228
0.921976
3.42854
1.10643
2.80509
0.620568
1.12571
1.38169
2.45486
1.82401
3.72864
4.18457
1.23315
1.93259
1.74488
2.68414
0.247612
1.02215
1.38729
0.239891
3.64607
0.49878
1.55921
3.39501
1.10004
2.88925
1.67823
0.249656
1.20506
1.22409
0.428802
0.845957
0.79865
0.772966
1.57167
4.78005
3.87852
2.01648
1.27651
0.353476
1.05996
1.0207
1.10399
2.0846
0.83012
1.83837
2.13086
3.24104
1.96826
1.49336
3.19498
0.253031
1.77273
2.92506
2.36049
0.793599
1.12808
0.381396
1.15275
0.408764
1.3909
1.24617
3.50702
0.303935
0.255382
1.36437
1.188
1.57463
3.52055
2.59707
0.217991
1.74514
0.506296
0.255657
0.337152
0.546206
0.609926
4.45175
0.239719
3.5772
0.688968
1.68507
0.523718
0.318247
2.86823
0.302291
0.689288
1.39038
0.695747
2.7564
1.10553
2.06637
1.44423
1.18873
0.745607
0.856426
0.820441
0.947042
1.01989
2.87376
0.262983
1.4963
1.55323
1.16208
1.47812
1.34535
3.66282
0.834695
1.24413
0.616467
1.29775
3.09199
1.04263
0.406735
0.162485
0.272165
0.60762
2.3138
1.55832
1.6745
1.551
1.36878
0.766757
3.23663
2.00362
1.80122
1.52375
1.01119
2.08643
3.38856
0.606906
1.05196
2.21891
0.701749
3.08253
1.05596
1.58077
2.79497
1.70595
2.39633
2.28158
1.7796
2.35463
0.353753
1.06426
0.610224
0.257649
1.23935
0.593328
1.86366
1.18993
1.72127
1.46144
2.89571
1.93901
2.7826
0.63615
3.6435
3.29907
1.50897
0.450054
3.10266
1.07548
0.928606
0.84879
1.52376
1.10786
2.67223
1.28556
0.898139
0.630953
0.290204
1.62197
1.83908
1.36544
0.905112
1.8065
1.27862
0.688832
1.59201
0.274016
0.770796
1.19343
1.2617
0.311131
0.525413
0.870778
0.295486
0.849644
1.81335
0.693958
0.317143
0.916911
1.9951
1.00289
0.988691
0.631894
1.14409
0.287964
0.265854
0.26994
0.596262
0.693931
0.319749
1.74748
0.218789
0.1923
1.49686
0.442139
0.958467
0.621584
0.776461
)
;

boundaryField
{
    frontAndBack
    {
        type            empty;
    }
    wallOuter
    {
        type            kqRWallFunction;
        value           nonuniform List<scalar> 
108
(
1.04323
1.35121
1.04135
0.205974
0.209989
0.346902
0.437534
0.19815
0.239835
0.372329
0.194299
0.452976
0.413307
0.213291
0.200101
0.225421
1.224
0.504689
0.372044
0.31287
0.264964
1.25888
0.27479
0.519817
1.14062
1.1641
1.10722
1.14256
1.15143
1.18524
1.11304
1.51505
1.54591
1.65304
1.54037
1.48278
1.44716
1.47398
1.4447
1.75745
1.14781
1.29223
1.83478
1.83624
1.56914
1.70915
1.41085
1.39672
1.38219
1.0748
0.248172
0.487565
1.34332
0.222561
1.08955
1.27086
0.534762
1.30444
0.906294
0.223038
1.00832
1.14167
1.01739
0.595175
0.550933
0.32358
0.626049
0.471398
0.573451
1.08591
0.0953944
0.0953944
0.288049
0.291754
0.292296
0.293933
1.28207
0.271417
0.285068
0.279931
0.27485
0.662386
0.702578
0.256382
0.275294
0.294023
0.296528
0.804145
1.2007
1.04645
0.209598
0.685336
1.00982
1.26388
0.738362
0.807059
1.21807
1.02307
0.799138
0.239891
1.0207
0.83012
0.255382
0.506296
0.239719
0.162485
0.272165
1.36878
)
;
    }
    inlet
    {
        type            fixedValue;
        value           nonuniform 0();
    }
    outlet
    {
        type            zeroGradient;
    }
    wallInner
    {
        type            kqRWallFunction;
        value           nonuniform List<scalar> 
126
(
1.01375
1.33703
0.345828
0.610877
1.14746
1.25375
0.630705
0.311912
0.757677
1.31019
0.196283
0.925745
0.282641
0.454122
0.898076
0.735254
0.248134
0.557014
0.272392
0.657637
1.23073
0.452782
1.09206
0.25639
0.530082
0.823253
1.21218
0.276944
0.224503
0.615728
0.336022
0.180263
1.22183
1.45112
1.42474
0.783118
0.216604
1.27725
0.64187
1.13252
0.968718
0.702446
0.311317
1.17126
1.08464
0.606319
0.325149
0.775319
0.410486
1.39387
0.587501
0.36114
1.30659
1.57236
1.12638
0.181968
0.632419
1.64749
1.46231
0.82793
0.593565
0.123925
0.649654
1.94646
0.626932
1.66212
1.32805
0.368891
0.929922
1.23922
1.25474
1.26105
0.635588
1.22108
1.29736
1.96563
0.429353
0.341185
0.275866
0.190606
0.266737
0.215081
1.71004
1.87425
1.78424
2.21327
1.91073
2.04186
0.693219
2.42477
1.48783
1.10553
0.820441
1.8065
0.688832
1.59201
0.274016
0.770796
1.19343
0.311131
0.525413
0.870778
0.295486
0.849644
1.81335
0.693958
0.317143
0.916911
1.9951
1.00289
0.988691
0.631894
1.14409
0.287964
0.265854
0.26994
0.596262
0.693931
0.319749
1.74748
0.218789
0.1923
1.49686
0.442139
0.958467
0.621584
)
;
    }
    procBoundary1to0
    {
        type            processor;
        value           nonuniform List<scalar> 
29
(
0.624155
0.624155
0.576121
0.917996
1.70256
1.038
1.96738
0.812624
1.43293
0.861502
0.851285
1.038
0.576121
0.502931
1.21748
0.50858
1.70256
1.76734
0.917996
0.679194
0.312546
0.22451
1.45904
0.288715
0.288715
1.45904
0.241896
0.872474
0.241896
)
;
    }
    procBoundary1to2
    {
        type            processor;
        value           uniform 0.595907;
    }
    procBoundary1to3
    {
        type            processor;
        value           nonuniform List<scalar> 
48
(
3.04119
2.57022
3.04046
3.04046
1.71492
2.24585
2.24585
0.419788
2.31847
0.537343
0.472619
0.537343
0.423827
0.347288
0.430952
0.423827
0.271697
0.271697
0.26129
0.26129
0.335513
0.375224
0.26286
1.0881
1.0881
0.207244
0.426587
0.426587
0.426877
1.16281
0.390511
0.426877
0.419788
1.80748
0.204457
1.16281
0.672152
0.472619
2.81016
1.35385
0.317165
1.26301
1.80748
0.204457
0.505106
0.988159
1.60705
0.317165
)
;
    }
}


// ************************************************************************* //
