# vtk DataFile Version 2.0
track0
ASCII
DATASET POLYDATA
POINTS 12 double
2.01419e-18 0.210526 1e-06
1.61136e-18 0.210526 1e-06
1.20852e-18 0.210526 1e-06
8.05678e-19 0.210526 1e-06
4.02839e-19 0.210526 1e-06
0 0.210526 1e-06
4.34675e-19 0.631579 1e-06
3.4774e-19 0.631579 1e-06
2.60805e-19 0.631579 1e-06
1.7387e-19 0.631579 1e-06
8.6935e-20 0.631579 1e-06
0 0.631579 1e-06
LINES 2 14
6 0 1 2 3 4 5
6 6 7 8 9 10 11
POINT_DATA 12
 FIELD attributes 1
U 3 12 float
-8.74365e-12 	1.01119e-10 	6.40384e-33 -6.99492e-12 	8.08949e-11 	5.12308e-33 -5.24619e-12 	6.06712e-11 	3.84231e-33 -3.49746e-12 	4.04474e-11 	2.56154e-33 -1.74873e-12 	2.02237e-11 	1.28077e-33 0 	0 	0
-1.15593e-11 	1.14448e-10 	0 -9.24745e-12 	9.15584e-11 	0 -6.93559e-12 	6.86688e-11 	0 -4.62373e-12 	4.57792e-11 	0 -2.31186e-12 	2.28896e-11 	0 0 	0 	0
