/*--------------------------------*- C++ -*----------------------------------*\
| =========                 |                                                 |
| \\      /  F ield         | OpenFOAM: The Open Source CFD Toolbox           |
|  \\    /   O peration     | Version:  v1912                                 |
|   \\  /    A nd           | Website:  www.openfoam.com                      |
|    \\/     M anipulation  |                                                 |
\*---------------------------------------------------------------------------*/
FoamFile
{
    version     2.0;
    format      ascii;
    class       volScalarField;
    location    "0.6";
    object      epsilon;
}
// * * * * * * * * * * * * * * * * * * * * * * * * * * * * * * * * * * * * * //

dimensions      [0 2 -3 0 0 0 0];


internalField   nonuniform List<scalar> 
1431
(
87.1879
29.0133
5.12585
4.28935
10.0217
39.9151
0.593135
391.856
52.2773
0.569399
134.516
332.132
37.0069
11.8105
38.6093
0.453043
30.1822
6.96437
27.8656
17.6981
273.031
15.9647
54.2598
391.787
54.4652
13.0201
92.4485
22.8975
54.5551
35.3014
20.6707
28.424
19.0885
5.47087
36.1942
0.530617
97.7619
0.767188
0.518884
22.2734
76.1179
78.4542
27.9797
0.418882
67.0465
13.2438
37.5313
78.6944
0.781441
0.636742
19.5006
0.432136
21.9177
362.375
29.097
9.76626
10.2883
377.193
49.2701
20.9893
30.4832
0.613792
1.34638
0.88955
0.576999
0.999314
15.3537
0.931147
7.2519
25.8255
397.5
7.68363
4.93778
4.35623
14.9544
17.6492
9.65302
0.769954
0.58086
8.75743
35.9063
9.03894
167.374
46.3515
173.15
4.75212
13.312
34.666
202.235
229.282
46.1512
14.2474
0.759721
0.371485
36.215
37.4221
367.257
111.05
0.439176
5.71128
16.173
0.488047
35.8675
14.2662
0.636812
38.3035
40.054
145.134
49.1916
40.0252
16.8317
46.1888
2.59936
76.1438
36.31
12.4437
11.2209
5.09568
5.52551
1.10695
37.2383
58.3952
301.56
19.8987
309.485
0.639773
6.19462
22.2918
7.21093
19.3222
36.0499
6.89013
13.3643
28.2587
27.0075
1.47734
0.503712
0.812065
188.915
1.08523
0.713673
19.1433
47.5191
16.0851
67.2977
19.5302
2.01097
17.899
0.421404
22.3511
1.42005
9.8527
24.3816
4.90853
33.5675
0.614167
170.235
41.2249
207.75
7.841
189.337
48.8531
7.67674
9.70571
296.292
79.6392
80.3245
45.0237
0.715764
76.2394
206.264
17.9934
19.8442
197.153
37.2154
166.991
12.4644
46.8582
22.1073
32.3865
0.875514
0.495435
10.2808
645.483
44.0529
79.7228
159.225
49.2647
24.3214
197.293
21.9371
25.7895
24.479
187.685
6.19902
52.6754
96.6579
30.5706
5.13089
55.372
16.1677
7.8887
107.595
16.0963
33.5285
23.304
34.6039
3.60338
237.815
25.27
190.491
8.79693
37.3973
38.8701
206.467
11.3967
26.5115
31.2716
10.1404
96.5638
33.279
11.4194
82.2774
8.77549
36.2865
321.713
135.26
93.5764
33.485
56.2668
389.314
19.8262
40.8255
22.781
29.6118
202.159
34.3623
36.9622
21.0219
11.635
8.46772
21.0042
271.467
29.5591
25.8387
48.4703
32.9581
108.791
35.384
0.625261
16.0059
162.343
7.79209
5.35699
22.5669
67.8201
7.71294
397.722
158.95
26.2853
30.6215
186.862
9.578
11.4869
40.922
129.978
54.559
283.155
75.1207
10.0985
57.0391
31.0037
23.6548
8.69762
181.048
20.0708
172.903
58.3579
43.7415
48.9595
22.1921
91.778
19.5779
11.8552
18.0132
145.999
71.0362
132.538
191.223
24.0142
4.45097
60.0716
83.047
12.9124
37.4082
35.1946
200.545
93.2968
12.136
49.724
20.5067
0.996571
18.7077
15.8315
63.2404
7.55188
30.9952
26.6096
82.0802
59.4099
65.7211
0.725971
1.09553
126.1
51.587
82.9888
30.4267
23.0523
5.4384
963.006
26.4298
67.6289
3.62097
8.4295
35.9151
4.00003
3.7661
60.8359
394.61
5.98329
70.6956
10.0584
59.1734
22.1126
8.16059
18.7533
58.926
188.692
37.6852
114.99
0.97817
21.8733
58.7708
72.058
49.1907
32.4421
20.5531
171.899
51.9097
14.1704
40.7425
15.2603
11.1746
30.6105
17.6666
5.07326
187.646
144.679
157.287
72.8157
18.5685
64.052
59.1311
14.2136
6.03084
117.936
56.548
783.706
37.4833
20.6118
127.702
11.9804
218.269
17.5609
67.395
482.732
34.1814
8.39942
21.0065
597.257
60.1791
40.0167
4.81815
21.9673
1008.41
44.9517
25.5081
49.6534
32.5512
18.8834
9.18131
26.181
25.8243
7.32846
180.853
14.0743
54.984
59.4891
59.8136
40.8516
36.8755
62.9262
118.102
64.9906
3.99127
47.7077
40.8278
4.63228
14.9036
44.2196
42.8945
33.6103
40.9298
33.6847
47.3372
10.3732
27.4046
3.15374
38.6641
37.8076
44.6783
39.1899
12.3976
28.6137
35.0319
14.6422
12.134
36.8269
3.57852
301.478
84.3891
91.5695
94.5092
99.5505
94.6369
87.077
85.1371
85.6236
80.5776
82.2502
17.3962
174.731
15.0296
12.0363
9.02566
6.36658
2.20091
3.42007
38.3958
15.2706
17.1749
0.774085
0.959243
6.31408
1.23165
0.715083
20.4721
341.598
6.62135
10.7506
16.5688
0.589069
323.337
0.668158
11.917
0.6999
7.88843
313.297
0.834016
301.128
0.417381
0.395585
9.00819
33.5717
188.524
162.871
1.43265
0.511841
2.7062
0.365515
32.2203
1.8479
192.582
0.420385
1.6942
32.826
7.39995
2.6997
7.01653
0.538915
212.074
0.368992
5.64385
0.594301
38.3874
7.5784
4.33877
218.075
0.493227
40.2165
15.0381
2.17285
16.1863
11.7856
204.815
164.308
14.4894
0.749835
1.09672
20.0142
0.767287
41.7083
6.80924
3.9456
10.9401
4.41825
13.696
0.832813
51.3361
174.028
65.5634
2.62823
38.233
7.06786
2.71698
6.57772
188.821
21.8386
18.1362
6.71219
20.1162
14.247
11.0814
97.0406
74.5409
3.75107
7.24007
170.605
2.33873
25.6119
43.2981
24.5972
77.8838
7.64341
56.5738
10.3708
13.721
146.484
49.5253
82.9289
25.1304
15.6563
59.3088
32.4952
0.991064
87.816
6.55244
16.5488
153.843
378.586
86.0523
166.592
84.2943
6.92182
649.954
4.52178
5.37376
9.25593
28.604
62.478
28.7224
74.2758
74.7055
2.53165
4.16789
32.7675
6.30319
183.173
65.1378
87.0005
31.2439
57.3817
69.8552
30.6929
33.0387
29.0617
26.0696
11.5919
4.93377
27.6064
45.4001
215.902
19.6334
16.7328
38.8901
62.2642
32.8341
26.2201
67.6509
214.128
153.016
8.44603
40.1747
10.7042
38.8396
40.1573
119.662
42.755
3.78794
10.6558
6.4714
4.6076
25.2516
60.8453
68.1049
59.7333
229.301
7.95476
26.6598
31.3904
46.1669
21.1894
4.47193
30.1786
7.50621
42.1029
68.539
13.9202
47.3224
10.5524
16.2476
18.2785
0.607388
68.8564
27.1086
33.0854
356.952
10.9507
69.0359
14.2917
61.3743
102.931
5.94962
37.8849
167.042
7.35265
34.5913
33.4284
270.16
25.0624
28.7112
82.5439
159.037
36.5728
13.2871
36.5589
51.6349
45.3981
11.3136
201.186
191.96
63.6015
21.0506
13.0489
20.0547
50.5579
21.0355
4.37445
20.7226
17.344
32.1936
56.3919
282.001
77.6929
28.5213
34.3169
291.293
22.9666
53.7264
12.1625
16.5138
4.922
24.3925
287.12
0.591114
10.7125
44.1307
57.4435
16.1652
108.997
131.058
40.654
73.9924
89.1995
62.4122
94.25
301.198
66.2924
53.9147
80.2191
210.55
29.4309
34.6433
73.8616
135.254
308.703
138.179
254.44
16.9721
44.8212
62.4311
3.59424
45.2839
37.0535
3.02041
79.4397
30.0686
73.7861
5.65733
66.1135
80.1353
23.9589
159.619
24.9315
0.880737
69.7105
89.7369
30.4347
140.326
191.556
0.555337
105.138
40.5355
6.67868
160.96
39.5043
69.3281
351.103
297.309
6.38097
34.7654
53.4767
9.00172
66.1194
70.7265
38.8514
33.2544
10.0809
63.4818
0.606231
2.40526
11.7687
28.8126
0.486052
500.928
58.6799
56.0946
4.92876
42.6369
2.63539
502.285
146.444
41.8312
1.2051
5.53792
42.2456
0.41037
0.536479
42.78
9.51207
23.997
39.5451
58.2083
63.0862
58.2973
18.6523
41.0387
9.01092
59.5736
18.5778
26.8284
0.580882
22.3613
1.16949
137.686
153.702
43.5182
23.0673
20.4989
20.9615
80.8884
14.9002
33.2886
62.6341
30.6109
47.8553
5.42676
41.6033
5.75232
29.4471
23.063
24.341
9.43681
77.2782
69.1686
860.252
30.0367
43.2611
5.98752
45.7228
710.282
18.1579
13.9748
187.313
76.4542
367.717
47.5731
14.2766
97.8947
60.4865
4.76223
123.737
17.7438
66.6535
170.681
35.3301
63.0913
18.85
12.2426
0.477687
88.8729
392.264
324.061
21.6428
20.5626
346.918
53.9853
102.127
38.6346
6.85616
28.1504
0.652692
0.521782
31.6729
26.6363
207.62
0.568397
425.936
12.8368
148.203
38.3021
19.6855
7.63845
9.31199
12.6845
0.711217
20.4575
67.7294
7.8233
0.511785
6.73333
24.1639
62.492
14.6567
50.262
49.4766
50.4291
0.400654
167.919
44.8818
70.5845
722.033
63.8615
134.007
38.9803
11.2589
0.870319
109.562
46.7223
80.6871
301.283
4.59747
71.3781
164.607
665.19
390.218
462.305
78.3282
44.5778
48.2276
53.7669
51.1472
87.3284
42.4071
41.8624
36.5596
39.7134
41.069
63.3819
95.8935
37.7771
46.2216
51.6527
35.7122
42.2345
42.0924
35.2935
41.77
40.939
35.8769
39.2951
44.6989
117.177
0.619937
7.506
40.0496
15.7334
13.3584
260.626
37.5461
21.257
12.1406
24.3643
1.25767
399.138
33.1303
5.46889
137.238
64.8441
57.8268
27.1899
14.5265
410.755
9.56176
37.5614
35.9105
21.9141
4.78375
2.76063
155.796
23.0338
30.9432
40.4681
56.9534
7.08489
15.7031
135.551
0.967392
0.466795
13.9715
4.84549
20.958
53.8508
34.7516
11.1952
22.5701
0.826503
28.6794
8.21677
1.10052
6.95438
175.743
49.2311
24.0015
89.2578
10.0261
34.6549
5.90634
38.2926
13.8888
24.6353
22.4892
38.8609
370.554
3.25967
32.2699
9.93971
48.8555
0.902485
1060.6
45.6977
32.375
0.63194
359.293
51.545
168.779
0.508651
0.40326
6.14593
9.80795
4.40859
28.1431
41.1319
457.807
242.905
37.5258
48.9225
4.56147
48.1201
24.6854
39.8346
37.8064
29.1164
41.8941
89.4696
69.9348
109.064
84.9293
5.05461
1.05498
28.7585
80.9392
57.9404
3.34365
31.8565
20.6083
23.6606
10.8953
28.0084
23.2709
190.274
474.746
0.702359
55.4713
37.1837
10.2073
56.2708
418.833
34.6285
44.9682
19.1314
168.869
163.236
4.62828
12.9657
31.294
30.7214
430.818
181.746
79.4279
24.9603
22.048
110.683
17.5384
64.5128
13.7064
409.492
97.924
355.886
155.057
62.8337
2.95031
41.3074
10.7521
0.823851
10.2469
5.96533
8.31701
29.6724
92.3443
41.8521
47.976
84.3731
172.682
0.540048
9.10476
60.8084
426.279
47.1031
401.82
106.231
57.0493
456.744
37.6423
479.374
480.633
498.303
370.842
375.898
352.413
496.567
316.793
4.29325
14.3885
13.6285
6.44327
11.5842
14.4301
29.9639
57.988
88.2286
41.8912
65.546
35.4126
6.64743
63.9841
0.766895
1.0442
21.9762
0.393535
26.4268
45.5119
27.9019
14.1489
9.80719
103.452
82.3903
35.0303
41.869
54.2574
5.966
24.3614
882.136
27.3332
3.31106
37.4063
70.3403
0.547421
11.5101
175.87
0.510802
55.9695
7.10349
16.7511
5.67819
38.5185
27.4874
7.01869
6.00302
33.2964
8.58369
5.70005
86.9791
87.1315
0.629273
21.7678
18.16
193.717
0.845959
179.958
284.83
23.6267
203.111
38.265
13.3826
55.9487
157.408
11.1489
35.6036
49.4446
128.897
80.742
37.6206
30.9591
10.8344
0.352315
74.4322
12.5213
23.3408
124.404
252.008
228.021
124.665
23.0306
17.3373
45.5511
3.88633
3.12527
9.59697
32.482
11.8113
281.773
38.3615
0.811468
146.352
23.4436
11.9454
78.4344
1.44328
43.3146
209.97
69.4795
39.6961
0.553285
62.1701
60.7583
206.901
87.9965
381.679
0.498383
9.71982
33.1783
324.371
189.013
84.977
71.4826
55.9708
4.94589
405.195
9.5485
53.6692
31.6834
29.9753
9.58753
74.425
5.3665
46.5617
38.6977
209.266
7.57076
55.2884
20.7564
22.0318
6.00677
3.81331
33.2301
145.042
33.081
72.1195
164.287
38.205
39.4546
24.8228
20.9668
4.00682
29.9607
12.8243
43.225
456.382
27.2108
903.606
33.924
31.5808
26.7346
139.549
28.8132
1.15234
3.88466
15.3043
104.842
2.73107
86.5119
100.9
69.8816
14.277
16.9122
8.77068
5.70476
34.9294
263.922
67.339
303.379
46.9373
5.18339
33.958
30.4126
31.5924
9.58154
4.32658
9.72916
5.61093
26.247
365.895
29.162
28.239
0.595344
11.3571
32.0232
28.2242
12.9576
469.367
67.3627
100.521
155.557
6.22494
27.4863
42.8145
20.679
201.974
45.1063
55.3509
40.7402
54.9701
26.206
64.3296
24.7631
31.1781
408.571
14.4995
8.95848
34.6308
51.9824
109.905
30.1399
36.8542
20.0681
351.601
7.3596
9.18843
0.536176
755.756
38.8149
66.9237
0.815693
11.7338
268.329
37.2965
307.515
3.53576
4.368
26.0919
557.613
15.8153
434.751
221.529
0.607443
46.6593
221.775
345.347
97.5075
349.411
27.9448
6.21626
56.4412
39.0839
9.18603
138.999
12.1179
85.4209
479.528
489.394
21.394
35.9702
19.5889
189.291
4.69525
43.0641
17.4633
358.631
1.11683
21.6293
1.52064
123.46
93.015
32.8319
9.55229
5.11636
4.10795
234.283
468.289
4.13317
39.8157
10.205
0.984096
17.0792
25.4512
9.63504
48.9546
4.62574
21.1589
21.3557
27.4237
232.223
26.4653
9.06671
35.9835
34.8529
5.49747
4.74097
51.2204
17.5593
4.75788
19.8509
21.8646
26.1564
9.51722
10.0036
232.549
199.035
89.5089
5.52017
4.68335
7.74061
0.513679
33.7821
0.645832
0.718367
11.0375
12.1238
10.583
5.08345
203.05
37.9667
22.1809
43.5344
88.1242
178.212
30.427
5.15402
6.69143
106.536
50.8126
205.573
1.17607
3.49246
3.02074
1.92332
1.4424
4.07962
0.931315
1.1714
5.25066
124.616
295.105
56.0454
108.611
9.82753
113.275
32.4346
32.6948
134.617
15.1137
11.7371
43.0063
110.046
14.1264
0.942112
70.8475
85.7275
31.8343
13.4008
)
;

boundaryField
{
    frontAndBack
    {
        type            empty;
    }
    wallOuter
    {
        lowReCorrection 0;
        type            epsilonWallFunction;
        value           nonuniform List<scalar> 
96
(
54.5551
35.3014
37.4221
282.001
291.293
287.12
108.997
89.1995
62.4122
301.198
53.9147
210.55
73.8616
308.703
254.44
351.103
297.309
34.7654
41.0387
137.686
47.8553
170.681
35.3301
392.264
324.061
78.3282
44.5778
48.2276
53.7669
51.1472
87.3284
42.4071
41.8624
36.5596
39.7134
41.069
63.3819
95.8935
37.7771
46.2216
51.6527
35.7122
42.2345
42.0924
35.2935
41.77
40.939
35.8769
39.2951
37.5614
53.8508
34.7516
38.2926
24.6353
370.554
37.5258
109.064
55.4713
37.1837
34.6285
430.818
22.048
17.5384
409.492
426.279
401.82
456.744
37.6423
479.374
480.633
498.303
370.842
375.898
352.413
496.567
316.793
4.29325
14.3885
13.6285
6.44327
11.5842
14.4301
35.4126
27.9019
38.5185
37.6206
381.679
33.2301
456.382
469.367
55.3509
40.7402
15.8153
349.411
479.528
19.5889
)
;
    }
    inlet
    {
        type            fixedValue;
        value           nonuniform 0();
    }
    outlet
    {
        type            zeroGradient;
    }
    wallInner
    {
        lowReCorrection 0;
        type            epsilonWallFunction;
        value           nonuniform List<scalar> 
126
(
49.2701
20.9893
30.4832
0.613792
1.34638
0.88955
0.576999
0.999314
15.3537
0.931147
7.2519
25.8255
397.5
7.68363
4.93778
4.35623
14.9544
17.6492
9.65302
0.769954
0.58086
8.75743
35.9063
9.03894
5.71128
12.4437
11.2209
5.09568
5.52551
1.10695
37.2383
58.3952
301.56
19.8987
309.485
0.639773
6.19462
36.0499
6.89013
1.08523
0.713673
47.5191
16.0851
2.01097
22.3511
9.8527
4.90853
296.292
0.875514
79.7228
159.225
6.19902
190.491
10.0985
43.7415
48.9595
4.45097
200.545
93.2968
49.724
0.996571
0.725971
1.09553
126.1
4.00003
3.7661
70.6956
114.99
0.97817
144.679
64.052
59.1311
4.63228
3.15374
11.7856
10.9401
6.71219
170.605
24.5972
146.484
15.6563
153.843
4.16789
183.173
4.93377
215.902
153.016
4.47193
0.607388
167.042
159.037
135.254
138.179
2.63539
134.007
109.562
6.95438
252.008
21.394
35.9702
106.536
50.8126
1.17607
3.02074
1.92332
1.4424
0.931315
5.25066
124.616
295.105
56.0454
108.611
9.82753
32.4346
32.6948
134.617
15.1137
11.7371
43.0063
110.046
14.1264
0.942112
70.8475
85.7275
31.8343
13.4008
)
;
    }
    procBoundary3to1
    {
        type            processor;
        value           nonuniform List<scalar> 
48
(
97.3298
83.0131
75.7888
87.2811
47.1894
83.5487
83.0131
17.8004
95.1634
5.5969
5.5969
6.77741
6.77741
11.7173
11.7847
6.91579
7.26443
8.52257
7.26443
5.99976
7.02468
5.13223
5.99976
33.5999
5.56039
3.87364
3.61625
5.13223
3.60435
16.8167
16.8167
7.55648
7.55648
95.1634
3.92039
49.1299
36.3463
5.56039
106.042
39.8281
11.7173
59.8159
78.8236
5.99976
11.8626
54.5027
43.4781
9.17829
)
;
    }
    procBoundary3to2
    {
        type            processor;
        value           nonuniform List<scalar> 
29
(
1.66454
1.66454
2.13494
1.44888
21.158
1.42253
5.34492
1.22813
1.31049
1.08383
0.838889
14.1949
2.3398
3.87668
4.79332
3.62699
1.56662
1.31946
1.87887
4.08325
4.48565
1.56662
2.8257
1.31946
5.15733
1.70345
1.31946
11.6827
11.6827
)
;
    }
}


// ************************************************************************* //
