/*--------------------------------*- C++ -*----------------------------------*\
| =========                 |                                                 |
| \\      /  F ield         | OpenFOAM: The Open Source CFD Toolbox           |
|  \\    /   O peration     | Version:  v1912                                 |
|   \\  /    A nd           | Website:  www.openfoam.com                      |
|    \\/     M anipulation  |                                                 |
\*---------------------------------------------------------------------------*/
FoamFile
{
    version     2.0;
    format      ascii;
    class       volScalarField;
    location    "0.6";
    object      p;
}
// * * * * * * * * * * * * * * * * * * * * * * * * * * * * * * * * * * * * * //

dimensions      [0 2 -2 0 0 0 0];


internalField   nonuniform List<scalar> 
1431
(
99.9192
94.9519
97.6451
95.0863
92.1066
94.0688
97.0933
34.6332
98.6773
97.0262
45.259
40.6445
100.362
87.028
93.5632
97.0159
88.1344
99.3802
90.3562
98.3622
40.7756
86.5192
99.5856
21.2489
98.555
100.483
50.9925
94.1048
99.2262
87.6183
89.9876
99.0511
90.2279
88.3881
95.5242
96.6597
98.1024
100.064
96.9485
98.0218
98.0266
98.0997
100.442
97.006
91.1496
97.0564
89.3832
55.0907
97.1022
99.7534
95.6159
96.9646
96.2835
49.9417
95.4814
96.9676
95.0471
44.5836
87.6712
94.9868
95.399
97.0253
99.6697
99.9102
96.9737
97.1759
93.6861
99.441
99.1359
88.855
43.3173
87.9986
95.9174
88.5029
87.0187
96.2654
96.2793
99.6027
97.0347
98.8877
87.7242
97.365
91.03
89.9958
40.6717
94.5072
94.4616
94.4818
50.461
72.5943
95.9507
94.8273
100.155
96.9937
95.9925
90.4062
40.8377
90.5412
97.0236
97.3475
96.8971
97.0641
87.2447
96.6419
99.6744
88.5082
99.1914
54.1154
97.0348
86.7403
96.0242
100.088
98.2318
97.7048
95.5932
93.4709
87.5061
95.4574
94.6513
99.7636
90.7598
94.0231
51.2988
87.5217
39.8928
96.9415
97.2148
91.6189
97.44
94.8523
88.9444
99.159
94.6025
90.193
98.9949
99.415
99.7607
97.0492
47.4113
100.226
96.8974
89.5811
87.4793
97.7763
102.789
90.2311
99.473
96.9466
96.9952
96.769
99.5394
98.9059
98.3361
94.3726
98.6272
100.035
48.1123
93.0817
83.0336
94.3336
64.4376
100.251
95.2264
94.4653
52.0868
98.4686
97.2924
96.2201
99.8426
94.0864
63.5001
96.9467
95.344
49.24
94.6606
46.8983
94.4618
92.766
96.2328
95.371
97.0888
96.9161
94.0329
24.9155
93.6686
98.6284
48.5992
93.7972
94.2698
48.8776
90.107
96.2168
98.1058
56.8807
94.9122
90.3054
88.9599
93.0531
98.8914
97.5877
94.4197
95.0443
67.2846
94.5118
99.7747
89.8904
98.9673
99.035
50.1873
97.3091
34.3591
95.3983
99.155
88.6811
43.0006
97.3301
98.4414
91.904
94.2709
72.1023
98.8476
94.1559
95.8783
94.676
98.6238
46.7622
68.398
92.6909
98.6935
69.7611
32.9381
89.995
89.8547
97.6929
98.9945
74.8365
99.1644
91.1966
90.7016
94.2757
94.2969
93.574
49.126
91.9404
95.4209
89.6192
93.0862
60.7834
99.1691
99.938
91.6124
48.6761
94.4118
95.7733
89.9973
98.7512
94.5138
42.3151
82.6866
98.2154
98.8857
49.4661
94.0301
94.3987
98.8631
76.8136
98.5015
58.2699
60.2868
94.2335
98.27
98.9872
95.0108
94.1814
57.5722
94.4865
52.344
86.8619
89.7016
99.306
96.8392
99.2417
90.3432
96.1222
94.9759
89.1033
98.5233
87.2258
46.4655
94.3637
99.0138
98.8594
91.1977
96.9196
73.6953
98.5642
47.4704
99.0548
97.3725
88.6661
96.6214
99.6794
94.8569
99.4081
92.4087
94.6393
94.1331
97.312
98.4252
95.0302
86.6067
96.7226
96.9745
56.2091
98.2805
89.4738
93.7938
95.2461
97.9425
33.2655
93.4935
90.6706
97.4026
96.7366
94.9629
97.9029
97.3886
98.1516
55.9602
95.4897
85.5954
98.7487
98.492
86.5265
94.2766
99.8968
98.5177
80.3155
94.6961
54.2286
99.7464
100.094
80.7326
97.6648
97.8258
91.302
94.6983
50.454
86.5594
97.4708
92.5202
97.4463
96.803
91.9813
96.2503
94.5521
38.0058
34.4461
47.7522
98.1912
86.5567
98.8618
86.2348
94.6509
98.4901
40.1516
98.3295
12.0588
98.9366
88.2396
55.9615
91.0992
55.4017
93.8877
98.433
51.2282
92.3493
94.3116
98.4973
47.8737
100.071
94.0733
93.4791
96.7708
12.9305
97.6242
95.0611
97.6631
93.6509
94.0569
94.3586
95.6664
95.8705
94.7919
77.2817
97.1132
99.3408
99.8148
97.8458
95.4941
90.0447
98.4312
85.204
98.7808
96.9952
98.6819
94.8151
93.3888
94.7386
98.1914
90.1342
94.7619
97.7291
99.9244
97.5166
97.5207
92.3239
93.1638
94.2209
97.3531
98.8881
100.32
95.6478
91.9833
97.0653
91.1884
97.6787
91.0912
98.1457
31.2864
98.8274
98.5939
98.8052
98.0108
98.6389
99.2146
98.9346
99.6714
99.634
99.6967
93.7016
44.5711
96.4023
97.5967
97.4573
97.497
97.546
97.9715
89.5272
87.585
88.2461
99.6094
97.0824
92.655
97.0389
97.0782
86.8421
51.8892
93.1014
94.2745
86.9433
99.598
51.2931
97.0624
93.2242
99.5264
93.5622
50.4092
99.4961
46.6401
97.0222
96.9865
96.4472
86.4667
46.1258
45.8446
99.3174
99.806
97.3388
96.9692
86.5493
97.2437
45.147
96.837
97.1403
86.6802
97.9534
97.2439
97.0292
99.8797
43.2687
96.8845
97.5689
100.089
87.7941
98.0553
97.8775
40.985
96.8911
95.2539
99.1575
100.435
95.9133
99.3587
41.217
46.7888
96.9584
96.8564
96.9424
93.3564
100.268
90.4641
97.2569
97.8738
99.05
95.777
98.9231
100.161
90.0118
44.3812
89.7577
96.9371
94.5199
94.9842
100.326
94.6243
39.9124
97.5763
93.2816
93.4839
94.5658
96.9889
100.504
92.3248
99.7721
98.2341
93.535
93.3104
99.9591
91.7561
98.7175
99.8314
97.4748
96.991
95.6363
93.8474
94.031
82.0219
99.1093
99.2981
94.1164
99.5997
98.1753
96.443
99.6651
91.0342
94.4839
99.4295
87.4904
54.2241
99.3498
43.7786
86.0553
97.0984
39.1204
96.1859
93.9944
94.5567
99.3832
99.0004
97.1183
72.5523
99.7493
96.7449
95.7672
91.8043
94.9695
96.5162
99.3144
98.2925
97.3422
78.5949
90.8501
91.3222
90.4603
99.1297
90.7641
96.6877
94.946
93.6331
99.3398
95.5656
96.1426
94.3372
99.269
99.8481
88.4782
94.6249
92.4924
49.9856
72.2101
100.048
96.9037
96.8763
86.0583
94.3335
20.9392
87.1435
94.2017
98.1025
94.7819
97.5131
96.3318
99.63
96.9126
97.6434
43.9967
94.2868
98.6891
95.1037
95.4688
93.9849
96.1022
96.1469
97.8985
87.9248
99.7072
92.1565
83.4054
94.2509
98.7728
97.1426
97.0412
99.8496
97.043
90.198
36.3684
94.4574
96.3872
94.1051
97.3251
85.0168
94.1736
96.4004
96.12
98.4824
88.9629
94.371
34.4544
93.1077
99.1358
98.2266
95.6479
88.4698
98.3443
95.0082
98.9804
83.4362
98.317
55.9328
70.961
99.5155
100.389
97.0478
99.7414
93.3788
98.0322
98.326
96.7492
97.5772
96.9284
96.2448
39.9578
99.9567
98.8799
89.0038
34.8956
86.4098
92.3151
94.3881
94.5562
95.0827
92.9656
43.5709
99.5664
94.7535
99.5916
97.0878
94.433
97.6938
94.1211
97.8781
97.5702
97.2087
96.1196
99.0835
95.4307
90.5203
95.6424
80.8262
97.8083
92.3067
97.7603
96.6595
97.5589
28.0987
95.2399
96.9593
93.8861
97.0383
97.3168
93.7321
90.126
99.1086
98.1757
98.8658
99.6533
96.0841
94.09
96.972
97.6527
89.5795
47.4909
97.6556
99.4873
97.1412
93.2171
100.297
56.0584
55.143
99.8118
93.9609
98.4088
94.1625
94.8207
98.3992
98.034
93.0927
45.0845
94.3633
95.5851
97.5137
94.2357
92.4512
99.137
95.7912
86.5356
94.7655
96.2085
97.0583
99.4434
94.2236
95.6707
97.0375
10.6078
95.0989
98.591
98.0552
95.5454
92.446
35.5208
94.2087
99.7585
97.0335
93.7199
99.1876
97.0132
97.0558
97.2921
94.264
100.107
89.4165
93.8934
98.2006
97.4945
95.006
94.886
96.4268
98.9694
96.5526
92.8071
99.7442
97.2463
99.4507
98.0268
47.6886
93.6026
94.9425
95.9463
94.3793
93.4237
97.4135
98.979
99.0376
97.5443
95.2313
94.3362
91.2007
94.6467
99.3042
98.1754
86.514
94.5756
98.645
99.3164
18.4268
97.303
96.8367
96.2077
93.4019
54.2759
94.6314
94.1331
45.9572
99.0457
52.5545
99.1542
92.292
99.1853
97.383
98.5487
90.5667
97.0269
99.9535
98.1086
95.8568
98.8233
89.5038
92.6297
96.9072
99.3241
89.8753
43.6943
96.807
93.5513
51.5274
90.3271
98.4097
98.3718
96.5845
98.2508
100.168
99.9171
97.7422
96.5494
69.1886
99.7532
54.1306
96.7704
79.145
98.801
89.255
99.6192
93.9718
94.3242
99.51
95.0467
100.04
96.8503
99.6894
93.8333
93.0698
97.5664
94.1009
100.123
98.2136
99.9218
96.9296
50.3432
97.2004
99.7879
53.2268
99.0392
94.4578
87.2054
93.8516
97.1316
98.4962
97.5274
96.1105
43.9719
94.3137
96.8325
34.8024
58.4278
46.8664
33.7877
62.807
98.8621
98.5884
98.321
98.4062
56.3362
99.1855
92.0021
95.0347
93.6259
90.7134
68.5051
49.0772
90.0475
78.042
73.3371
90.2783
99.2477
98.9791
90.8168
98.6376
98.3857
90.9007
98.2033
99.7581
78.5813
99.6539
98.5095
95.89
86.6864
89.0198
36.4581
98.876
86.0272
86.6772
95.3852
96.3864
51.4596
88.3915
97.61
78.8744
94.1868
99.8792
88.8955
94.4497
52.5274
94.0758
98.1185
95.1242
93.7731
94.1568
96.956
48.0115
98.3022
87.0667
100.121
98.2934
96.7309
98.1193
56.6317
99.367
96.997
94.7847
95.072
97.0467
99.3043
88.7533
98.6781
95.6475
99.8943
87.8171
93.1265
99.6335
96.3065
47.789
99.7898
95.9024
95.4144
96.4458
86.7002
94.1734
97.3949
90.6191
94.5584
96.3344
89.7756
41.0122
98.4029
87.0277
98.6875
98.828
97.0678
30.465
97.6638
96.7759
96.8921
37.3955
98.5152
85.232
97.0404
96.8041
94.267
90.4632
97.8874
96.6829
89.8939
58.7799
38.1203
97.9318
97.9602
95.3604
91.5399
87.3048
98.7883
90.4551
92.843
99.1249
93.2581
98.4777
39.2828
98.989
94.2156
99.5652
88.8926
99.7153
89.8602
97.3352
95.7739
93.6902
94.4877
98.7676
95.0389
94.0125
28.7062
19.7274
97.1418
98.7273
85.6751
94.4062
99.0518
48.0495
89.113
96.612
90.2314
72.3936
46.7089
94.127
88.8268
98.71
95.1156
85.8182
48.84
98.9761
93.6816
94.5568
52.2405
94.6848
98.4209
94.0634
8.3631
98.969
37.7219
58.0009
98.7379
98.4481
96.532
94.3772
100.308
94.7223
94.2045
94.8384
95.7148
99.2298
96.0415
98.6538
99.1096
65.773
99.6153
95.9114
99.8751
52.5773
97.7016
51.532
98.6525
100.083
53.8155
96.5479
70.8607
66.1215
61.5253
49.8907
50.0003
49.2912
57.1012
50.4283
95.9291
94.9684
95.081
95.7094
95.5138
95.4066
98.875
89.3262
99.1717
92.0984
98.6398
89.0725
95.2221
98.3018
99.703
97.0959
96.6305
96.9303
98.6293
96.5931
94.588
95.6193
92.5446
96.5081
98.1847
99.159
96.0929
81.4181
94.2431
93.3509
48.4982
99.0607
97.1841
95.2751
95.9826
100.015
94.909
35.5823
99.8223
98.6175
95.6536
90.8182
94.4829
89.7953
87.0563
92.8812
95.9321
87.0128
98.6223
97.6858
95.2271
98.8851
99.7566
88.02
96.6981
17.9217
99.7667
44.2935
8.87076
95.3305
46.7025
88.1043
93.75
94.0923
40.4749
94.594
96.0057
100.164
74.6274
99.1903
89.3041
97.5696
90.7766
96.9487
98.9351
96.904
96.899
60.7704
36.6938
18.9085
91.9909
92.925
94.1505
99.4368
94.2323
97.293
95.4578
87.32
98.0413
46.487
99.1987
96.9237
40.1225
95.9621
87.1163
99.6162
96.8755
99.463
84.2657
65.7218
95.9133
99.7076
92.4053
99.6193
46.5399
98.9792
46.223
97.006
98.1786
88.474
34.599
87.4701
98.49
99.0853
98.669
95.6696
53.0563
91.7822
93.6537
87.1603
87.2003
99.0608
99.2262
95.2639
89.4958
95.1845
52.3188
87.9504
99.9102
100.405
86.9411
95.2054
97.5962
94.6773
93.6456
89.6339
99.4756
45.5033
96.3769
100.223
95.6004
93.2945
95.7729
87.9608
98.8611
96.4886
81.0425
94.2093
31.3743
98.3488
95.7131
93.2128
61.9568
93.1058
96.9921
95.9684
100.223
97.1754
97.5231
98.8867
98.6462
100.131
89.1504
93.9893
88.4106
94.8217
94.8132
53.8905
99.0247
56.803
97.8981
98.7755
94.9151
96.0179
88.459
93.89
98.7021
87.7072
94.998
93.7265
34.4242
94.2183
94.6786
99.5435
93.8809
90.0351
93.7281
97.4172
75.9575
99.052
98.473
48.3363
88.9047
95.5182
96.7607
96.9297
93.5835
98.2794
98.3769
82.4664
89.7945
92.9505
88.1586
89.5504
99.0641
49.4767
96.927
97.5679
86.5338
98.8275
56.8422
90.3803
97.7521
91.3787
53.4995
100.494
95.2067
99.6454
40.9544
95.2264
99.3745
99.4538
92.6879
41.4768
96.1525
49.7084
94.203
94.1639
95.0879
55.5311
94.8133
34.0901
77.9704
99.9017
98.9988
91.2037
46.0203
98.6268
17.9543
95.3414
98.5185
96.9622
99.2992
92.1348
65.4427
94.5058
97.0382
42.4182
57.5898
98.915
89.3303
94.5928
49.4609
94.1114
88.9328
94.4733
54.3829
97.1124
94.7731
100.438
95.4289
88.3727
98.3541
91.2519
95.5745
94.1122
58.8272
55.1206
94.1025
94.8167
90.8387
99.3981
97.7165
98.5466
87.1665
97.6522
95.6379
92.2389
91.0636
98.9626
67.2463
98.7898
95.1011
98.8007
77.6041
95.428
94.1454
98.1644
87.2037
94.7069
89.941
91.8784
98.9636
94.9046
95.3166
62.4103
49.1186
90.7153
96.838
94.8989
96.1149
99.7139
99.1896
99.4772
99.4175
93.2735
93.0854
93.1954
95.3924
58.6614
98.7917
82.6805
99.4797
89.4806
46.0105
94.9565
95.4264
88.5293
93.3572
95.9453
34.697
100.327
100.425
98.3444
99.0866
96.8318
96.6582
96.1733
95.3429
94.1941
25.4935
55.4451
88.0698
109.538
88.2545
90.379
89.1166
98.3053
108.146
94.8787
98.5307
101.841
103.532
95.2641
99.568
89.7227
96.6576
95.0001
93.1049
)
;

boundaryField
{
    frontAndBack
    {
        type            empty;
    }
    wallOuter
    {
        type            zeroGradient;
    }
    inlet
    {
        type            zeroGradient;
    }
    outlet
    {
        type            fixedValue;
        value           uniform 0;
    }
    wallInner
    {
        type            zeroGradient;
    }
    procBoundary3to1
    {
        type            processor;
        value           nonuniform List<scalar> 
48
(
98.2686
98.0581
98.1289
97.8717
98.2546
96.7448
98.0581
98.2593
98.0271
93.2987
93.2987
93.1761
93.1761
94.4911
93.2606
94.6848
97.708
95.8622
97.708
97.9924
96.8449
97.5976
97.9924
97.3289
94.9499
97.3061
97.9518
97.5976
98.0821
97.3804
97.3804
98.2515
98.2515
98.0271
97.6837
98.13
98.149
94.9499
98.2616
98.3505
94.4911
98.0526
97.909
97.9924
92.5899
98.7429
98.0282
95.8735
)
;
    }
    procBoundary3to2
    {
        type            processor;
        value           nonuniform List<scalar> 
29
(
99.1705
99.1705
96.9287
97.2813
93.8771
99.5158
96.3522
99.4032
97.1514
97.1919
99.4109
93.1839
99.0205
96.1085
95.992
96.0976
96.9679
97.0697
99.2192
95.9469
95.8855
96.9679
96.071
97.0697
96.0906
96.8937
97.0697
92.4947
92.4947
)
;
    }
}


// ************************************************************************* //
