/*--------------------------------*- C++ -*----------------------------------*\
| =========                 |                                                 |
| \\      /  F ield         | OpenFOAM: The Open Source CFD Toolbox           |
|  \\    /   O peration     | Version:  v1912                                 |
|   \\  /    A nd           | Website:  www.openfoam.com                      |
|    \\/     M anipulation  |                                                 |
\*---------------------------------------------------------------------------*/
FoamFile
{
    version     2.0;
    format      ascii;
    class       volScalarField;
    location    "0.81";
    object      epsilon;
}
// * * * * * * * * * * * * * * * * * * * * * * * * * * * * * * * * * * * * * //

dimensions      [0 2 -3 0 0 0 0];


internalField   nonuniform List<scalar> 
5794
(
0.302112
0.439064
4.18799
112.725
32.9864
0.645734
5.49883
1.79689
92.7052
0.560103
36.9266
5.71267
7.81237
37.3868
0.767228
0.470187
353.001
51.7535
0.714768
0.255239
58.4897
0.224297
25.0955
2.22169
9.99094
115.487
266.444
49.8873
97.2629
1.03361
4.9285
13.459
21.7794
0.981427
1.80704
2.45664
4.42932
20.9834
42.432
88.8466
22.2403
6.30506
9.36431
11.0216
0.638766
48.1847
25.5836
12.6577
0.394927
1.21536
11.2255
60.9737
0.586575
0.404698
0.0801724
44.2197
23.136
17.7265
5.80314
245.693
59.0504
0.515375
4.42487
16.5591
26.1841
0.428397
48.7477
25.8791
53.3889
0.702315
83.4069
57.5903
301.178
1.81764
55.2852
31.7759
9.76671
75.3139
9.8601
2.55652
0.4269
0.221673
13.9182
24.736
11.401
69.7121
29.5201
99.2444
2.05199
29.8386
109.41
23.6668
67.5045
112.681
37.1817
68.4748
81.6003
55.4848
21.2967
65.5656
49.8545
8.08817
7.34028
45.0856
3.6222
87.4849
0.348587
8.6292
45.1015
9.04135
0.546544
0.284981
52.9222
0.604602
29.8358
87.5288
1.07408
81.5318
53.2993
22.1596
82.3766
0.951682
4.94737
43.0977
0.453439
51.0774
55.0387
0.821275
72.4499
10.9461
5.60576
7.31292
26.4423
61.9673
91.9556
0.788714
124.163
0.523287
3.3328
0.417862
1.01675
35.2093
0.40268
41.9933
3.77413
301.923
55.2928
49.3088
20.698
27.5908
12.2741
0.36003
89.2249
6.592
294.873
43.1491
30.547
10.8397
82.5762
13.6502
0.4725
2.21923
0.741587
2.58974
63.09
78.7182
2.95318
2.1999
0.475372
0.320514
0.918075
31.6109
2.50032
2.31316
1.55159
17.1355
0.854869
5.38471
1.27977
79.1186
3.58523
23.4737
3.74825
49.5888
4.17791
302.017
10.9764
16.5215
0.539469
7.09466
46.9833
16.9928
28.349
4.40169
10.8219
8.37001
2.30846
0.783302
0.823234
6.80712
9.84013
65.0212
8.66492
5.96297
30.9572
57.2522
4.04993
18.3821
135.107
45.7117
9.30998
10.2829
2.65494
1.95195
1.31965
3.56938
8.66191
31.9538
29.5044
80.5069
9.8394
34.1317
158.403
57.3701
146.681
157.128
8.44218
0.640033
0.806293
0.932499
1.54416
1.73025
0.855177
33.9029
21.7044
177.631
192.449
33.4842
9.01626
0.599911
0.182323
55.1622
36.2602
30.3734
6.95017
1.74095
0.524375
18.4512
146.376
86.3932
32.4137
0.419059
305.588
0.179979
4.95262
105.805
6.92225
18.1757
14.1123
0.469797
79.0245
2.61874
1.92239
0.261278
23.224
16.4844
36.6985
71.959
0.445876
59.3198
30.5178
6.97054
13.8259
77.8714
16.3607
0.982215
0.382605
1.08361
0.196176
8.41356
3.05344
81.2403
22.3608
3.25545
65.3602
99.5164
34.8515
48.6112
148.769
84.5137
1.92412
1.60623
0.991239
0.353555
4.83525
120.112
26.0903
2.03791
50.7509
0.305716
0.23039
53.5425
0.584345
40.7756
4.59648
75.5441
0.177042
44.0741
66.4318
34.4564
6.99712
43.486
48.703
0.598921
9.82325
35.077
11.7072
56.7839
47.7451
132.748
10.2982
2.57131
84.1853
30.1142
0.628627
18.7871
2.00747
6.67893
8.85982
34.4045
72.0401
8.63432
4.90311
22.6664
14.8551
0.633761
1.06915
0.582608
0.548473
11.0617
2.37584
8.80647
76.8124
25.67
1.08006
3.31558
77.8221
30.3882
90.4656
31.9324
60.9874
376.637
36.9964
20.1717
4.28064
241.429
0.637162
80.9894
6.60869
1.24759
14.4549
12.0216
98.0839
5.77522
2.05354
2.41129
69.1034
57.4952
30.4995
18.3467
0.488407
0.345634
1.97056
1.62677
20.5559
52.012
42.563
24.511
29.3832
0.242123
3.98131
0.454239
12.502
2.33084
1.76187
0.850898
97.1328
2.79747
1.85146
3.4643
2.52689
63.864
0.527385
2.55671
1.68958
1.68706
1.25894
2.21724
0.633297
19.5091
1.8209
6.10349
158.602
1.65306
0.543551
43.583
6.51569
0.525814
0.259089
78.9782
51.9975
18.7715
32.9188
29.0573
76.3371
41.6611
5.47652
59.5653
56.228
80.3983
21.2572
54.1587
13.8245
0.502563
2.90142
2.5058
1.22966
0.576269
0.260165
0.254296
59.9579
5.76113
39.634
76.5043
0.588565
1.03109
6.28366
18.1317
2.26129
1.90839
0.727209
8.11502
4.72643
4.42415
1.18699
95.966
32.4273
1.98734
0.881214
52.347
1.1562
0.299731
81.6363
0.204057
71.4985
0.246244
74.5151
74.6835
41.3363
168.383
0.320939
0.384429
11.8567
1.7564
73.2622
10.9703
150.433
60.7065
17.6794
7.1094
0.430584
173.23
50.9007
0.673315
0.363888
95.7254
177.176
57.7771
2.62884
0.367763
33.4644
0.295315
0.393976
0.622091
13.6369
33.1734
10.1837
1.53153
249.898
0.282575
0.266087
99.9994
91.606
27.5055
6.04133
0.41629
0.844027
0.475963
1.36566
38.5634
71.959
176.345
8.6738
9.44979
46.1197
0.331839
0.38978
30.6992
39.4972
0.379362
66.1492
0.172948
4.42449
0.217906
0.491039
25.2656
76.8269
0.209672
5.55505
162.488
0.534536
0.297809
45.4611
79.6908
11.636
0.183804
5.66311
47.7491
0.292925
0.359943
19.6314
0.60882
149.268
0.412285
1.2817
0.859333
6.6085
159.611
10.3505
64.2777
0.214662
92.3411
0.266338
43.2058
2.97977
0.598863
5.51434
40.9847
0.492985
0.420698
46.0912
0.335227
1.06063
4.84512
0.304584
0.487946
17.2299
0.470372
0.281868
25.7443
466.138
1.09273
58.0371
0.333701
40.0153
1.50354
0.319695
17.4124
0.325169
0.329935
82.7821
27.5507
130.861
97.56
137.407
8.96385
61.0412
59.2333
3.85734
24.9195
83.5529
24.4575
102.706
179.608
88.5419
54.0183
0.525292
62.0851
18.644
88.5025
0.365329
0.395521
0.563959
95.3406
27.6103
40.641
0.167699
9.33291
0.355298
0.940465
0.236507
94.9885
28.4232
106.648
0.250624
8.57693
159.215
0.947721
0.0882734
10.7153
74.7854
104.57
37.0188
1.30228
2.84182
3.38366
34.8268
29.7943
7.51459
66.4593
0.490516
42.791
61.4691
12.4813
0.460523
0.190007
1.88692
28.1694
72.0481
0.472373
0.378735
0.258056
0.303052
0.548657
0.285551
0.372474
80.635
26.396
1.20829
51.3976
3.43809
8.75742
27.8907
20.3634
126.782
133.521
40.3857
48.2576
0.361264
0.255428
0.331665
6.2547
0.415472
3.25268
3.20204
77.7049
190.271
33.8844
180.355
4.29039
0.19216
0.460863
0.320085
60.0531
0.369869
45.2032
151.158
102.829
36.4755
47.5501
35.3463
2.98213
174.468
37.2874
28.5684
31.7096
118.451
2.97058
37.4427
1.06895
0.165218
23.5618
0.480491
0.984203
26.9859
138.645
125.652
0.448607
0.228855
0.2023
37.4617
176.365
69.9524
41.9038
0.351314
43.8467
17.1142
0.169837
0.589152
9.82372
0.517559
8.71131
0.562701
18.6549
24.7803
160.628
70.5993
0.424105
0.423422
109.954
21.0959
190.804
44.571
81.1146
41.525
16.2113
8.74644
246.718
47.1712
31.9376
42.0233
104.488
158.967
0.467767
87.6639
4.10291
14.5882
28.2205
91.1134
38.4402
43.0759
42.3651
130.492
28.0685
0.35238
1.86938
300.707
11.5668
22.6392
62.5769
95.895
0.462619
0.537115
0.560542
4.24836
88.4266
32.4016
129.028
1.09468
8.98602
0.191228
4.79054
0.474898
0.231081
27.0593
97.4209
5.10831
117.639
38.5106
8.44325
1.6828
172.718
80.7673
41.2313
150.497
101.368
35.4076
54.2737
7.57886
57.3587
18.2484
84.4323
18.3323
0.407621
1.12489
0.513622
0.186651
2.16532
39.7003
0.418497
22.0216
213.048
8.07745
0.440522
0.381928
84.7128
27.6621
21.0617
89.2727
26.077
3.29291
80.4607
60.1293
39.5672
4.02402
31.7071
0.283712
123.911
0.243055
83.9782
9.64983
12.6756
5.30461
0.360716
0.162023
0.344114
21.0739
41.1882
82.5317
190.758
44.2388
1.04812
7.20506
33.417
148.145
0.522579
8.35967
14.4742
70.4569
0.277887
0.588424
15.5747
48.4942
149.733
0.498094
17.4286
0.315357
0.56724
0.346044
19.3158
67.2944
81.7827
9.32591
0.410888
68.6751
0.469611
3.20411
297.842
0.539672
0.15211
2.9514
0.279038
21.0718
4.28191
25.4701
0.471461
1.23659
5.99292
10.742
150.721
30.5644
115.082
42.8528
50.2513
70.6082
39.3017
156.821
29.6358
0.473954
0.387435
5.12655
26.1566
6.03804
1.02475
204.477
49.5579
92.4634
17.2533
0.425511
55.7351
4.03614
14.1333
53.0595
0.443685
247.05
0.286673
0.43626
58.2125
16.5743
6.38812
7.0028
46.7719
10.5029
6.90803
0.471874
0.423243
48.7961
71.9844
8.98595
10.0841
34.4631
1.18614
37.1913
137.157
73.6409
87.6874
23.833
0.271622
0.220726
10.3191
0.448894
0.276416
0.277016
0.572333
25.2044
0.474919
7.36059
0.495557
94.3878
54.9897
11.4493
8.12622
8.13356
15.9613
171.703
25.1697
76.4401
6.29572
0.44513
163.739
12.0299
37.6708
7.3714
116.394
51.4552
60.7693
0.525865
124.904
90.9576
3.72014
2.09863
1.30213
0.545783
0.705187
72.4
51.3969
79.7938
78.7788
21.1752
53.8017
28.0727
12.2083
0.272787
0.616524
7.95049
0.387898
125.998
21.0713
163.059
6.94993
72.7661
60.2184
0.331658
0.256169
127.251
173.089
10.0436
6.7183
22.9877
66.6468
0.351293
35.0938
0.60779
3.59424
2.85912
0.468954
0.472569
1.24299
0.755107
0.349709
0.263766
0.684366
7.96311
56.7916
5.3532
0.209678
0.484977
75.4074
9.71887
24.2577
0.985001
30.0285
0.408836
39.4116
4.77497
0.760183
0.941137
10.4533
44.3124
0.800799
9.995
2.58446
0.655738
9.23062
60.686
21.4922
88.9575
143.084
0.242414
11.0578
28.9909
47.7313
26.2689
28.4081
45.395
101.242
0.221873
5.92682
0.479287
0.181852
18.7142
11.6911
173.099
159.519
112.627
0.139784
25.3295
138.793
59.0048
56.3148
49.7696
0.408258
0.247528
0.343258
36.8442
11.0238
43.4449
4.56427
6.98477
4.40951
4.81878
10.0724
18.3328
0.291142
0.545489
16.6027
40.838
12.2912
0.40287
8.2012
44.7406
0.301219
0.393335
0.38025
1.10512
12.8198
0.326843
25.3419
0.457125
10.3585
16.6597
0.772104
46.9493
10.0918
0.264524
3.859
73.4784
0.201214
65.5398
1.21982
0.463586
0.280591
1.62293
0.170378
0.399553
10.3659
0.784955
0.182134
1.03292
1.9736
2.23318
60.6166
27.043
8.84317
103.198
29.6999
0.186857
0.61886
84.6635
4.88416
19.2286
82.6036
0.258636
19.6885
0.649469
56.9147
0.268048
56.2301
0.254271
87.2597
45.0136
0.275907
36.1623
1.35965
5.11028
1.29147
0.757167
30.7314
33.8856
0.513036
38.0361
0.158119
0.364329
3.04857
0.374606
0.438062
42.8834
1.89989
19.1965
0.540447
99.0327
0.202624
0.450702
0.239716
4.50061
49.8844
18.1086
1.49653
28.7862
7.56644
16.3545
99.7456
38.5946
0.439031
3.18182
49.7302
12.7142
13.4716
6.95206
64.484
80.6409
64.4817
22.7957
70.0141
8.70041
8.63049
0.378454
1.64161
2.82736
0.232352
757.408
40.2814
0.242714
1.61038
55.606
51.7161
8.69017
0.14971
5.51145
15.8861
0.977198
0.586569
46.3276
1.91894
25.4139
7.96497
85.6848
0.482573
0.674263
0.946269
4.18927
5.42839
31.7519
0.328342
45.227
0.214399
88.2496
9.20468
8.74606
4.3528
22.8644
9.24991
17.7805
11.506
4.48872
0.864283
1.06188
43.0818
10.3224
5.57179
0.204241
0.282898
19.9458
37.147
23.0016
5.34601
4.68184
7.5315
1.66051
7.38248
7.20966
12.7364
15.0697
11.107
26.6893
0.190284
58.7872
0.451369
294.674
0.240516
0.197589
0.394578
0.460704
0.237507
47.5622
0.340746
6.36964
0.277984
4.13618
37.997
224.669
83.3213
0.226764
0.708074
2.79392
4.13677
57.38
18.3258
2.10243
8.6155
0.198689
56.8122
4.18137
20.1283
34.2098
5.52761
8.2133
34.79
0.877988
0.445371
40.6083
82.8568
32.2755
15.0356
4.94454
8.58474
0.201
57.7967
162.573
37.2322
97.7621
0.383811
0.601987
38.8253
9.98589
7.22511
0.221647
13.0785
37.5678
0.783191
0.677293
5.60592
0.444036
0.233215
2.75803
2.40997
41.465
0.328672
9.50922
28.4853
123.341
74.2262
1.07983
31.2261
4.4301
78.6091
0.921913
48.58
108.661
23.8958
60.2803
3.86301
27.3167
34.8765
158.773
1.81561
0.362144
0.27758
71.0098
1.00528
2.63229
38.3906
12.8917
1.21602
20.5515
11.2562
4.52615
47.2891
0.752826
0.426629
7.39276
4.52926
0.305393
3.23708
78.136
9.3586
50.0697
43.5514
40.0003
0.402546
111.637
0.699449
32.7709
9.69153
6.06741
3.31162
0.70163
42.4684
0.389817
0.383056
0.190461
51.3384
0.175247
5.28093
22.4184
174.386
0.772535
129.195
142.234
1.11953
8.84199
0.273585
16.4916
4.89034
57.875
76.5285
1.48095
0.563624
19.0321
28.9663
36.4305
170.789
79.3428
115.819
69.7943
10.2982
0.997599
1.35073
16.357
0.422292
84.6156
0.198357
0.470993
0.40803
16.8725
3.93236
1.5168
0.447948
2.24149
3.25683
1.24097
0.351368
0.382164
7.60461
5.26199
33.9233
13.8272
0.418963
146.446
30.8608
56.4418
18.403
0.469084
46.0498
0.338259
0.611122
0.250324
0.48839
574.2
11.3824
46.5561
18.3146
74.2437
104.497
18.1462
0.449585
0.383563
0.739506
1.44822
1.62822
0.81165
0.772112
0.919588
0.794184
3.48466
1.00483
1.19656
1.20552
0.495744
0.643233
2.06795
1.47375
0.610079
0.505761
0.69672
1.07541
0.362565
0.656642
0.27818
6.95695
1.94476
1.26137
0.399421
1.44467
0.449248
1.2212
1.28087
0.558684
0.163622
0.417534
0.687645
0.856018
0.382862
0.732299
3.39066
0.416997
0.470858
1.39652
1.80367
6.48135
10.0741
188.469
0.269963
6.24379
37.0247
96.2522
35.806
0.277485
0.220091
16.3511
0.285326
16.5171
72.8354
352.985
55.8416
106.686
23.6429
0.165646
0.163262
0.526975
1.13072
0.275111
17.2539
0.994475
3.42569
0.897845
4.95667
19.4352
12.4249
3.30932
20.8871
8.39222
430.603
0.508425
2.31498
2.57532
13.1152
64.1538
0.89356
55.3533
37.2366
31.1647
20.9908
7.26725
19.6005
7.00199
11.494
13.9056
758.18
0.41217
1.01964
0.351743
43.3093
44.1852
0.447759
70.3135
49.086
0.792029
1.22033
0.919762
0.436866
0.930232
0.64905
2.68467
0.470927
0.384312
2.23298
1.6168
1.35354
0.370957
1.77219
0.378761
0.94863
1.1244
0.663785
0.882148
0.453761
0.171425
0.522471
0.600103
42.4245
63.2077
6.38373
21.1464
6.14689
13.9162
33.6972
0.21029
62.3234
36.9469
2.11738
42.5058
47.5374
3.86727
0.341985
48.204
39.2505
0.346884
167.382
96.1172
43.2707
0.203561
62.0727
31.9959
0.374519
63.6026
13.2302
64.6302
0.510002
2.50091
0.741654
60.8523
0.350718
39.2385
55.8096
0.975022
120.645
0.608116
84.0981
0.643826
0.855213
0.189119
67.6486
0.245274
0.286983
3.05752
0.387425
114.446
10.739
88.739
20.4149
8.8492
7.21157
125.972
0.472619
9.11503
8.06783
64.9747
41.8236
1.251
0.421971
16.3672
5.91722
58.8735
10.2517
0.373952
3.08149
1.51577
7.32745
0.309817
38.6967
17.9394
0.162262
0.384519
92.2098
100.629
12.2771
4.06858
72.5269
1.9236
58.1754
64.5824
38.3803
57.5897
46.4801
0.432964
45.7051
0.20137
1.03906
0.358372
46.6523
7.82102
6.36809
8.80287
44.1599
24.7102
0.379413
0.57892
0.477035
12.9061
37.355
57.114
191.065
54.5911
41.3627
51.1666
10.6881
27.667
26.6583
69.8529
27.889
47.3053
40.6948
56.7963
35.6795
118.444
108.228
1.13064
61.7567
31.9378
19.7676
13.1813
8.29435
89.8103
42.4757
8.89004
54.5877
32.2872
111.384
6.78296
2.59856
239.514
6.21447
60.6005
14.1345
0.568697
0.280167
0.732288
59.6767
0.436262
0.700293
1.12018
65.5454
69.4084
47.1249
39.6849
74.5816
55.4585
74.9442
0.601261
76.2767
72.4968
62.1753
48.7515
68.7241
44.9501
74.5581
69.8312
73.5455
15.4747
13.1089
7.38212
155.981
6.53
4.08903
2.35451
4.30227
0.380542
0.556716
19.764
34.4572
7.43128
0.370765
0.485824
34.8181
33.209
13.8517
4.83928
3.90427
3.85274
2.09957
2.52908
7.96019
1.61882
109.552
2.10219
7.56328
2.50313
2.17201
0.273079
12.2085
0.321966
7.18829
1.99648
0.34471
13.9338
2.30258
1.70601
2.16402
1.59481
0.943663
70.5792
0.834868
30.7662
16.7727
3.87685
48.5779
105.483
0.84741
85.8426
29.7441
17.1044
129.589
0.613427
0.728636
115.241
25.9218
99.2794
0.85849
5.66182
124.33
113.593
74.5768
0.754098
0.838287
0.70545
20.6442
4.42842
258.986
0.898404
7.55748
2.41949
0.871343
18.0783
0.551711
3.73567
51.1417
33.5737
8.71982
247.988
83.6652
0.649841
86.0751
0.981066
2.41118
8.18634
0.807424
130.835
5.31667
241.239
4.59996
2.1061
0.828459
58.2718
233.671
0.515162
102.125
44.4152
8.51911
3.45398
2.11604
0.460526
5.64429
55.092
28.9657
54.6574
159.615
146.78
1.94527
7.15732
7.54024
96.5413
5.33374
1.07563
1.16706
223.154
0.311451
0.912784
0.580099
32.1657
5.70327
9.32499
2.7426
6.64715
5.7611
0.441458
6.98535
30.4569
1.18278
1.95129
7.1865
7.37435
1.04118
2.46675
1.65418
0.461503
117.693
3.80827
2.82722
5.40478
5.00945
1.37764
7.04416
13.9506
4.57172
0.205485
4.63789
26.5971
49.1635
7.33543
5.09481
2.68561
9.17785
3.68475
4.94696
1.55276
6.94479
4.95726
4.89285
1.40896
11.2802
8.76695
164.478
2.79014
9.41553
6.61893
4.33094
7.06243
6.14914
24.2468
1.30155
7.41055
6.61652
5.12312
6.31789
8.65517
8.24406
14.2244
3.27807
2.83461
7.07581
0.514817
0.901673
7.85409
5.67301
5.01421
1.76407
2.23012
7.78447
19.2196
6.81941
6.76034
7.57779
0.543392
0.916533
0.289407
5.25839
27.4791
5.05944
54.4404
12.7608
4.70645
7.29313
4.78239
2.33921
27.7906
50.6316
4.88544
1.78702
6.32616
9.68947
2.0732
1.25548
4.32938
8.43531
6.32045
6.27585
180.073
25.8701
1.38694
8.46125
12.0742
0.674319
0.900743
0.309478
0.552934
33.5749
4.01142
2.2441
3.39732
8.82432
0.862953
0.329688
0.55097
62.0437
30.7766
4.72217
33.7209
80.3155
3.38581
4.84819
13.2896
187.517
11.0719
1.10717
4.09242
23.9235
21.0669
2.75956
27.7934
36.6915
8.33304
32.2424
17.6252
0.80667
0.277046
0.528231
22.0865
17.1892
58.3206
29.6904
78.2495
0.883881
182.503
151.785
1.46799
6.03774
6.29646
4.32701
17.1629
3.8743
7.35765
7.95604
11.4246
10.7845
10.2315
48.1015
37.7892
54.289
3.14098
45.2944
2.73702
4.41816
67.6085
0.358996
0.351334
34.1386
14.3338
8.79573
30.8245
0.919897
6.47651
11.565
32.8623
22.2987
13.4804
0.675771
0.332983
0.585885
44.0792
53.5088
2.71198
28.7849
61.6766
56.943
79.3828
2.30214
4.04794
2.37434
3.03671
1.13575
160.447
1.35695
47.6046
59.586
4.82727
10.5236
128.845
1.15909
1.10778
8.54543
11.411
15.1994
7.5804
43.7978
61.3041
13.8409
28.5441
37.1964
0.328894
7.40473
4.25034
0.78549
0.664528
5.01211
16.4729
15.0325
20.677
0.620029
0.277234
0.510365
98.2996
90.1758
0.39735
0.652736
117.446
90.6362
23.1545
0.441901
62.6033
2.04676
5.32392
2.70056
1.42927
177.498
1.27183
0.418688
0.359954
131.571
77.8791
90.1623
1.2618
102.211
84.9731
29.4745
8.69526
17.9395
15.4415
11.3714
3.54375
3.40417
4.3661
4.75755
37.2374
31.5179
1.20519
0.885006
21.848
46.9811
33.5667
78.5795
51.1607
29.315
4.7522
42.9228
2.80043
3.11872
123.572
51.919
67.9867
87.5805
58.1052
32.6188
14.5763
11.5766
6.69174
1.00922
4.5945
0.559613
0.305455
0.52801
1.51791
1.72293
1.10385
86.7579
87.5297
14.7489
70.7103
7.84162
7.80046
8.30085
4.40393
88.216
22.1445
72.1259
16.5221
1.27498
6.29625
73.3372
12.8227
11.3143
0.272361
67.6119
8.09585
8.32319
4.97583
34.1498
70.1192
2.31353
7.59823
19.5607
107.251
3.58262
1.04203
0.326598
1.30021
0.915468
1.0187
63.0445
0.787196
0.501857
0.54933
26.345
2.03871
3.46095
77.2735
0.379499
160.648
3.4681
3.36364
3.44074
36.9153
174.524
22.1333
2.7835
7.50382
78.944
49.824
0.359832
4.05335
0.880892
7.52095
17.6679
2.6848
0.548258
10.8526
6.73077
0.275174
1.26894
7.57281
0.811794
9.92109
7.68435
4.86965
5.17427
3.68255
19.7495
28.3873
7.55432
31.1608
14.4061
2.66662
4.61171
58.7146
4.12876
69.9146
65.494
9.07738
41.2916
12.7839
141.599
27.7577
52.8149
2.3842
88.3566
5.49098
17
1.09879
0.585708
65.9198
8.57733
10.5272
6.23188
20.689
12.2623
5.34064
68.28
22.314
49.4589
18.9447
7.79806
6.02442
0.534392
0.273198
0.475983
30.8581
143.896
23.8727
1.20854
0.339609
107.513
13.3683
202.947
122.953
60.5303
74.2815
41.7344
0.454969
31.5341
3.91834
7.62443
44.0798
57.3702
0.458087
14.7341
35.2841
57.7437
76.3257
0.799232
20.9038
63.5567
53.2359
5.63382
0.62301
43.6396
102.645
8.0544
21.7215
79.8294
94.9359
25.5086
0.401246
5.58913
30.2037
27.2217
0.459265
31.6979
30.744
32.3214
4.44587
24.3698
38.6375
127.4
6.24304
2.17207
0.25614
0.435239
31.155
144.714
65.5002
92.7634
67.2869
334.165
0.569191
2.79606
9.82082
54.0082
5.08558
185.831
40.0037
1.46959
0.700931
2.71427
0.343443
0.428044
69.9982
76.0214
64.6748
39.1504
163.747
60.1807
8.76389
17.6986
101.272
105.444
43.6923
561.977
4.94047
0.358124
46.2922
102.74
21.9974
23.2067
40.6976
6.20872
0.421419
39.1404
0.507059
0.646931
40.4842
0.451221
10.755
0.830238
60.7693
3.92211
46.5819
9.26819
10.5846
15.2005
21.7631
40.634
61.12
0.518434
139.083
4.47064
3.8368
0.356011
0.179877
3.93703
79.5898
55.5892
98.6718
2.27796
88.849
137.558
0.984993
26.8601
3.502
3.54162
3.29413
1.75338
91.5693
51.5181
4.26605
3.77652
67.9686
14.9075
18.1092
76.8444
1.19982
21.1236
5.62625
112.578
4.6223
33.7383
0.449294
0.348251
12.9942
88.4855
10.9116
60.6373
76.0755
2.67156
2.65385
47.0191
3.72654
0.904917
97.8799
0.520536
0.380704
152.115
11.4091
76.0684
1.12744
58.1023
63.4534
0.302391
9.98403
18.0201
63.2115
49.684
1.2283
22.4571
45.6107
56.1375
13.724
10.1388
8.93969
2.5308
0.295583
0.472728
66.6365
36.2712
9.49735
3.10864
101.569
8.70227
49.6577
24.8746
1.40955
5.09174
52.5666
82.9042
0.344588
0.166296
0.456017
43.7627
26.7986
48.6991
4.51976
3.41724
57.8142
73.1877
0.353802
35.8799
135.635
77.9508
24.7341
72.8098
0.365535
26.9379
107.611
0.477003
0.285809
0.48247
17.5356
0.511462
6.48961
57.9706
0.391615
47.0824
14.7892
8.34039
7.29967
241.988
7.31685
30.5511
0.390079
35.0338
70.7747
33.8047
9.256
0.467751
0.263027
0.438843
42.8533
14.2571
15.8247
80.7367
15.5102
30.6974
209.715
48.18
65.5536
0.220204
67.0711
2.81631
1.11913
51.9688
27.9728
4.49747
0.628404
2.31876
27.3136
39.9321
0.816901
0.949613
43.607
80.2879
6.94346
16.7217
10.4703
76.5781
174.116
170.46
0.405339
17.6736
66.8162
125.923
31.3788
54.5783
5.09242
27.0381
22.9154
63.6797
13.4513
33.5476
2.83333
12.4155
0.249439
28.2124
5.70088
0.392103
37.9033
2.07688
7.92866
113.232
32.3446
0.509403
1.4481
43.4965
36.9968
52.8106
27.9409
5.41261
2.07588
0.259958
0.355472
0.361582
0.777314
101.975
0.490616
24.8396
57.4555
6.65252
0.361482
1.66852
9.12435
106.095
0.366148
0.281311
0.420673
2.95293
29.8464
2.09683
3.76443
0.159455
0.361414
0.820497
0.58337
7.86074
3.39177
5.91373
23.985
20.2443
1.98716
40.6599
9.56032
17.1493
2.03824
0.39098
0.204791
0.435423
0.464099
48.6427
0.406279
58.1212
65.9214
38.8188
58.8792
0.40481
6.35099
1.42917
208.288
4.53692
7.88569
0.423939
0.285011
0.436029
4.81626
0.639053
70.9217
233.773
0.774181
7.11619
0.39267
5.09723
2.5313
24.5591
0.357272
65.4605
27.2824
45.322
80.5225
0.320479
2.36683
6.45187
91.4911
5.77161
76.0444
9.18236
26.9594
0.67079
6.81675
0.777916
8.75389
5.87726
22.8948
25.5678
0.80792
0.405056
6.60585
0.649766
2.15434
26.6091
42.3865
38.93
61.3787
50.3332
16.8733
42.1426
6.00447
71.6278
2.47103
19.5919
0.514838
42.1364
67.4056
87.616
11.9689
0.667917
2.25938
0.373929
0.774383
1.04795
7.06075
1.94273
8.20087
98.8213
0.358193
4.76078
57.1242
8.10166
30.6698
19.4851
43.1299
68.3254
2.10058
7.64063
4.02787
7.23456
11.8063
2.84416
1.76095
36.083
0.29702
8.38289
4.93922
0.372195
14.6501
0.620695
0.427037
0.284627
0.156619
0.430233
0.244964
2.97579
3.41401
8.69421
0.353316
0.165333
0.534145
66.1821
55.2534
13.6831
10.4868
3.79686
5.2541
8.00115
81.6656
48.5231
40.4855
306.888
5.06748
69.1412
92.9721
134.057
27.4327
0.307793
0.373053
0.294972
0.330668
0.340479
7.65053
26.2273
83.0288
0.383797
0.265493
2.52534
20.8041
11.3996
63.7359
0.167217
1.51765
59.9557
11.5827
23.104
17.5807
0.851904
0.330901
22.7977
21.1098
102.5
0.981046
14.5039
119.304
1.12196
33.8836
54.3472
0.267922
0.64455
6.78054
0.491721
0.373581
1.3001
0.532786
0.805672
1.78651
2.1554
5.37555
0.300419
6.45638
183.755
65.8913
0.427774
0.302603
0.278862
23.8215
13.1071
1.61511
38.5258
36.4958
0.406995
64.3964
19.9583
35.3786
108.48
230.803
60.7127
29.0979
0.422701
13.543
45.5412
37.3728
4.39353
0.21678
87.9759
0.364014
77.098
7.1133
0.383871
11.0996
126.318
46.9121
0.295505
1.09483
33.9839
3.85998
5.27111
0.448118
7.86652
2.87078
127.698
4.12404
35.2637
0.385352
0.304552
0.389886
0.267941
0.509484
0.237468
51.9445
0.39605
47.8709
97.5512
4.08409
14.1009
172.761
8.10928
5.11467
180.004
14.3064
14.3474
175.935
6.11003
146.457
0.411918
0.254417
0.404867
64.2991
4.16918
0.350633
0.330557
0.295919
0.381119
38.5369
92.406
29.6294
4.44994
14.3266
106.604
30.5414
27.9929
9.02892
10.018
13.9273
110.933
47.6949
166.34
41.2754
0.456629
3.80659
0.470667
36.8583
0.953225
57.5566
50.639
19.0333
11.5881
2.64963
39.364
0.799664
0.342484
0.444098
0.519445
0.440769
10.6852
7.40706
25.5903
4.39957
10.9422
56.2412
39.3183
25.1516
275.125
17.4268
0.322341
0.491344
0.733987
72.1639
6.23846
32.9462
5.09861
0.369366
3.17349
100.05
64.34
5.47447
7.3826
28.9553
55.2268
0.910484
0.187993
0.313729
23.8925
283.723
4.75428
21.6243
36.3966
46.2304
14.4198
9.6127
5.32952
21.4378
71.4001
21.3276
0.362391
5.72953
0.156743
43.9761
0.111238
26.2702
279.52
13.2197
5.62625
44.8992
0.522745
3.20692
10.7298
0.226718
29.9341
1.12623
0.0855026
10.7441
19.0734
87.5513
49.0955
8.38678
3.28001
0.291772
0.447733
0.323649
0.0989754
0.449116
1.05633
28.4483
56.7903
28.2998
11.4041
6.84201
50.5293
59.4592
9.71628
1.31439
1.04131
4.23885
154.628
96.3196
44.2695
3.4305
0.188306
83.9501
0.913525
18.4604
8.27535
31.7537
7.33644
122.1
11.2219
26.1369
8.33888
78.7223
242.91
0.346451
44.4032
0.196855
3.22369
45.1726
6.48843
0.953503
0.169268
0.36952
0.459748
0.432169
100.202
20.9954
11.7432
148.25
15.1192
3.67139
59.1059
41.06
13.0502
124.226
0.169633
18.5016
0.389184
15.9784
63.4548
0.791915
19.7296
56.7389
7.80975
19.2355
0.197995
0.739451
40.2063
144.272
52.7535
83.4656
22.2184
298.391
0.424552
28.2114
58.5012
5.36381
112.958
20.2566
105.67
23.0238
9.66732
193.747
41.7884
35.0244
0.344504
0.2947
0.278969
49.6923
2.18246
4.34049
1.15378
28.8352
31.5317
0.887785
0.197096
4.32873
14.0656
72.4771
3.27853
0.304071
13.0552
44.5527
29.1157
18.2863
0.663375
110.853
16.78
4.44734
48.8676
60.6675
0.32268
47.2725
28.1602
59.8954
33.9179
34.1188
4.65614
0.408145
0.385658
0.577956
0.326425
0.647451
7.90758
9.88358
62.0382
23.0315
19.6741
135.62
30.1109
46.3421
12.239
3.43964
35.6473
1.41936
14.6502
6.86929
69.7264
136.057
91.6829
43.3351
63.9409
6.7538
39.0187
42.7603
3.85753
0.160269
0.771339
97.2405
29.935
0.855034
70.4758
91.7732
0.388776
50.8276
21.5908
75.4589
147.09
80.8785
0.174891
64.8883
0.299261
0.371922
0.432911
58.573
52.4933
67.9437
0.476327
5.531
105.839
8.25972
0.61228
23.4921
39.4709
37.8169
66.2642
158.238
56.475
0.413698
0.263202
37.8991
45.5474
206.235
113.381
166.183
2.6649
0.503701
104.348
91.3765
0.324505
0.215224
0.346844
0.331206
0.625693
0.845605
85.839
17.405
1.32631
15.2996
29.171
7.21153
72.382
114.16
71.5803
4.05563
33.3056
3.43629
39.761
13.6131
2.71857
136.861
132.15
41.3399
78.967
295.751
288.368
2.18285
0.873769
147.467
80.0686
0.963206
0.540748
0.361213
0.630714
36.3558
120.863
52.5575
7.16293
0.431926
89.5111
0.393913
0.42567
0.470121
3.06939
0.417319
50.3637
131.511
55.6245
3.09643
119.77
0.155885
5.2172
90.2916
37.102
56.5057
29.4451
6.37141
92.0192
62.4645
0.59649
3.48583
2.22339
4.40623
4.30597
25.0765
81.7913
33.0705
36.0639
22.0972
11.6748
18.8677
24.5433
0.274138
0.554952
48.4695
5.30938
13.9624
377.309
10.3413
88.741
58.2999
0.284693
0.245188
0.394375
0.358546
58.0491
64.4911
72.0871
1.30363
15.5008
5.88443
2.80402
9.60764
32.1529
6.01151
5.1438
5.98054
0.349467
0.482667
0.128585
0.412073
121.29
41.3623
1.57496
38.2575
369.211
116.949
140.652
43.1337
0.738528
40.1254
3.80348
5.42785
51.1877
163.379
0.562121
0.67863
0.342149
54.9454
14.6261
92.7455
1.55254
1.06335
40.9696
14.0578
0.27436
0.28508
0.309526
0.599035
8.55631
107.478
42.3978
6.11299
94.4141
33.7371
55.5084
71.2752
5.90828
62.917
1.37884
17.0943
50.5006
35.2262
28.0506
0.342359
0.331231
45.0861
1.40406
2.66685
0.401852
76.4102
31.2011
37.1561
0.730846
40.5106
0.829473
46.6145
35.1091
27.8199
31.868
41.2577
58.4308
26.4889
0.692852
42.2559
35.4065
0.329426
4.43802
0.542697
3.16838
3.97842
17.1785
52.4109
0.860771
1.79874
75.7946
0.75373
37.1965
0.402724
0.333344
153.72
162.433
0.341182
0.336964
0.324008
1.02357
4.83903
0.538311
0.509179
0.519623
0.626262
0.54194
0.242427
46.1889
1.53177
0.376269
28.3515
38.7097
1.60113
30.5506
0.996704
1.876
40.9728
79.6648
26.2374
0.462227
38.7796
121.71
73.6203
76.5956
12.1923
2.69372
0.132931
0.484035
39.2885
140.614
26.8154
4.36638
10.3176
8.28751
0.357182
1.59596
3.52622
62.2123
3.7704
61.4348
0.196129
8.53454
116.384
34.1965
4.07748
34.694
0.576559
91.9336
40.704
31.1905
0.446422
0.498703
0.407103
0.427432
6.85958
16.6397
2.77127
49.9667
26.666
118.268
24.1234
7.23762
0.406829
6.71303
0.551524
90.3994
30.6947
39.857
2.49049
99.4705
4.3095
23.0468
39.8795
0.363621
0.428775
9.00571
87.5797
73.5227
39.1691
57.6184
32.9032
57.8036
2.69393
6.2334
0.445801
6.17767
4.50619
717.295
105.574
3.40852
103.5
32.8047
1.77934
1.04468
6.10952
0.537005
2.05377
0.96873
41.2031
44.2352
40.1271
40.1677
32.6241
0.217544
3.4323
0.674321
1.58491
19.4871
55.1966
514.306
16.0992
11.0455
0.245654
5.2892
115.937
60.1715
8.55492
1.49619
0.441031
12.3306
5.66138
4.86861
28.3754
161.284
0.436493
0.442491
0.215275
12.5315
3.96589
2.01904
70.4183
1.23796
276.833
44.6632
67.0857
98.0773
0.309541
0.320745
6.95537
11.1252
0.336176
5.21317
4.93274
40.4786
83.2328
62.5895
2.28751
2.9503
81.2848
0.525271
11.8187
13.8105
49.6118
65.113
92.5254
0.369288
0.483913
0.320889
67.8239
11.4764
107.879
37.4608
1.32609
37.7395
124.974
62.2299
59.6756
5.97051
76.5551
48.4737
18.2536
0.571171
0.48534
33.3285
0.86139
6.78233
10.3746
1.14282
76.1938
339.741
312.779
7.15515
88.5985
5.28591
1.6391
1.71914
0.983166
85.6582
27.8479
0.225857
0.433738
0.283286
0.421552
12.9451
14.6453
97.7934
39.7788
2.1631
285.996
1.12249
45.7917
102.399
83.4142
57.5806
21.9699
6.7829
84.3013
0.250906
0.388306
0.339989
0.452621
2.81532
20.7571
62.0962
4.14428
52.3904
0.587606
0.572097
2.25477
7.04922
4.9211
2.43152
92.99
39.6671
51.8663
10.3727
0.333433
0.404314
12.6818
177.183
7.41446
327.802
0.18717
3.07045
51.5886
42.2414
0.4014
38.1284
153.517
1.80926
17.7515
47.0747
18.219
74.9101
72.6105
10.8675
32.2881
2.18948
21.7879
91.6559
15.1154
127.723
13.5777
4.16628
0.835724
27.227
15.4089
20.5031
77.998
1.74266
18.1635
7.93435
0.406616
0.466237
3.93109
0.239065
7.53873
14.223
7.98827
10.9322
18.453
51.7646
108.134
100.199
58.2726
0.816826
0.475649
0.575148
0.492326
2.16547
6.76151
1.34653
1.06768
11.8377
88.9461
0.402252
0.995458
1.05905
21.7065
82.738
2.61364
4.70333
4.23072
2.96137
60.0185
34.4556
4.22527
0.452623
53.0904
92.5249
25.5627
0.301026
5.14482
0.422082
0.528164
6.60476
0.301634
2.08483
42.5185
0.624086
0.774163
37.3322
50.3704
0.532631
32.0181
0.429003
67.182
0.430208
97.8473
2.34969
0.231216
5.55864
60.8534
88.9184
104.442
39.0937
19.7843
57.6363
1.52597
51.1394
55.5003
0.499444
0.868571
5.1624
2.41094
154.739
14.3806
25.1151
2.95767
49.5223
69.0131
69.2831
11.5807
584.004
13.2581
1.12152
0.338746
0.327298
0.364796
0.33621
0.513578
6.09385
0.736347
0.422765
0.41992
0.22769
1.29907
4.36002
5.54172
22.5407
60.4683
99.0929
4.28926
6.05592