/*--------------------------------*- C++ -*----------------------------------*\
| =========                 |                                                 |
| \\      /  F ield         | OpenFOAM: The Open Source CFD Toolbox           |
|  \\    /   O peration     | Version:  v1912                                 |
|   \\  /    A nd           | Website:  www.openfoam.com                      |
|    \\/     M anipulation  |                                                 |
\*---------------------------------------------------------------------------*/
FoamFile
{
    version     2.0;
    format      ascii;
    class       volVectorField;
    location    "0.81";
    object      U;
}
// * * * * * * * * * * * * * * * * * * * * * * * * * * * * * * * * * * * * * //

dimensions      [0 1 -1 0 0 0 0];


internalField   nonuniform List<vector> 
5794
(
(0.0953179 -0.341649 -3.31157e-17)
(-0.234354 0.077205 0)
(-0.165666 -1.29422 -1.31374e-16)
(0.253177 3.06671 1.05436e-16)
(1.94705 1.79529 2.50272e-17)
(0.0737539 -1.88233 -1.09511e-16)
(1.90721 -0.257762 -1.98431e-16)
(0.151341 -0.127738 0)
(5.83554 0.845952 9.7775e-17)
(0.247776 -0.0632899 2.43659e-16)
(4.74297 -0.110739 -3.33707e-19)
(-1.90477 -0.29534 0)
(-2.52768 -0.218118 4.91935e-16)
(0.559709 6.55345 1.8187e-16)
(0.276018 0.0668082 5.30548e-16)
(-0.860074 -0.0493935 -1.50155e-16)
(1.52285 0.0119534 4.68584e-17)
(-0.128463 6.91579 1.21118e-16)
(0.131759 0.0507655 5.00635e-16)
(-0.0200458 0.567301 1.69793e-16)
(-2.96269 1.78153 -4.56523e-17)
(-0.0234238 -0.918175 -1.57039e-16)
(3.14575 -0.0890226 2.42457e-16)
(0.783071 -0.0875034 -6.34645e-16)
(2.03911 0.137494 -3.94128e-16)
(2.92374 10.5447 2.12573e-17)
(6.09288 -0.51178 0)
(-0.143817 2.12583 -1.40509e-16)
(0.060812 9.39221 -3.66211e-17)
(0.0991415 -0.0707615 3.17682e-16)
(-0.107835 -0.900906 -6.28415e-16)
(-1.75305 0.0266138 -5.079e-16)
(-2.1417 0.11557 -8.85216e-16)
(-0.413621 -0.322362 4.48725e-16)
(-0.898797 0.159495 -2.10002e-16)
(-0.699208 0.156706 2.15701e-16)
(9.7756 0.593958 -2.1429e-16)
(2.13763 -0.45415 0)
(3.11133 -0.381726 1.30356e-16)
(0.0478841 3.32974 0)
(0.094337 2.55733 -1.01467e-16)
(-0.752834 1.47541 1.42618e-16)
(7.40693 0.111515 -8.86902e-19)
(0.317899 2.76239 0)
(0.328816 0.0612777 -4.63423e-16)
(4.87699 -0.168941 1.31656e-16)
(3.67098 -0.170314 -2.4687e-16)
(-1.96906 -0.349239 0)
(0.178249 0.0216973 8.81842e-16)
(0.649679 -0.176669 6.84392e-17)
(-0.140402 -0.0193614 -1.71815e-16)
(6.00822 -0.216757 -1.76881e-16)
(-0.310377 -0.0683337 0)
(0.476601 0.23849 1.726e-16)
(-0.0638747 -0.0566066 1.05743e-17)
(5.11901 -0.509468 0)
(3.76646 -0.353298 -1.98549e-16)
(-2.0136 0.104312 1.41815e-16)
(8.40588 0.0641076 0)
(4.39086 9.90605 -7.1694e-19)
(9.14887 0.474674 1.87843e-18)
(0.36059 1.01809 -1.23695e-16)
(0.100518 -1.40775 -1.44136e-16)
(-0.875939 -0.0467178 2.08313e-16)
(-1.22411 0.141817 0)
(1.06372 0.166318 -2.56052e-18)
(0.236584 0.789505 -2.34222e-16)
(-0.163275 3.66059 0)
(0.086875 4.89218 -1.43324e-16)
(0.0697578 0.542991 -2.46044e-21)
(4.64125 -0.482356 1.36993e-16)
(0.363961 2.31726 -2.9308e-16)
(11.4717 2.04716 -3.42322e-18)
(1.77508 0.130699 0)
(-0.0361077 6.24072 1.2518e-16)
(0.0401895 1.09253 3.4849e-20)
(0.363939 -0.174222 1.3662e-16)
(1.60221 10.3448 -2.20446e-17)
(0.472495 2.85832 3.60344e-17)
(-0.440013 0.141505 7.28375e-17)
(0.117995 -1.00413 -1.85229e-17)
(-0.0499543 0.0312119 -1.91097e-16)
(0.118727 1.53271 -2.22799e-19)
(2.21291 -1.50085 -8.6908e-17)
(1.17832 -1.28075 -3.77412e-16)
(-0.124555 5.30332 -4.05622e-17)
(0.218914 5.7542 3.14742e-17)
(0.0334542 5.2694 -2.47176e-17)
(0.794421 0.0695249 -1.6745e-16)
(2.22173 1.12818 -4.52725e-17)
(0.915262 5.61036 -7.88267e-17)
(0.0472329 6.59528 -8.52887e-17)
(-0.079668 7.58547 1.29277e-16)
(0.114144 7.61944 5.71502e-17)
(-0.0482066 6.60977 3.25958e-17)
(-2.14944 0.0478253 5.22885e-18)
(0.0139796 6.21676 -5.49675e-17)
(-0.123577 7.33107 -1.39983e-17)
(-0.0169266 6.54122 0)
(8.87286 0.524533 -3.0407e-17)
(1.71077 3.213 -1.22066e-16)
(-1.13833 0.178374 -4.13825e-16)
(8.29661 0.142478 7.23167e-17)
(0.484018 5.72736 -2.38907e-16)
(0.326954 0.106054 0)
(-0.386072 5.7618 0)
(0.151777 0.965816 0)
(-0.296815 0.0659052 -2.75446e-16)
(-1.3943 0.57528 -1.20046e-16)
(0.661125 2.88798 -9.78987e-17)
(0.347555 -0.114024 9.2554e-20)
(0.127535 -0.0815495 0)
(-1.48946 4.68332 1.13526e-16)
(-0.0830826 -0.0301499 1.58165e-16)
(-0.0186892 6.43489 0)
(-0.0994893 7.75855 0)
(0.134972 0.012951 -3.83514e-16)
(-0.358086 8.37854 -9.82632e-20)
(9.39579 0.425912 -2.38807e-20)
(10.8482 0.597315 5.97244e-18)
(-0.505824 7.8122 1.05671e-16)
(0.889914 0.0201404 0)
(-1.65481 -0.0973606 0)
(-0.0509631 1.5382 -1.86463e-16)
(0.353834 -0.00741705 2.42716e-16)
(4.7897 2.38168 4.99935e-17)
(0.770719 5.1593 0)
(-0.169357 -1.691 7.02848e-17)
(6.18843 -0.600921 1.17105e-16)
(-0.461304 -0.045586 1.66052e-16)
(-0.116973 -0.829951 3.36519e-16)
(-0.457644 -0.978059 2.1636e-16)
(0.241765 1.10889 2.3106e-17)
(1.11364 9.99233 -6.6914e-17)
(-0.441967 6.5801 1.33891e-16)
(0.361062 0.054365 0)
(4.34085 -0.20185 9.1584e-17)
(0.449173 1.00496 -1.81642e-16)
(-1.09671 -0.0532855 1.54354e-16)
(0.117247 -0.313908 0)
(1.85599 -0.360072 -4.57638e-16)
(0.46576 2.62636 0)
(0.339988 -0.0719124 0)
(0.362983 3.03416 2.47952e-16)
(-1.07414 0.0181356 1.57279e-16)
(2.19336 -0.0974933 1.54913e-17)
(-0.897778 0.923718 2.26797e-16)
(7.76638 0.282787 2.31703e-16)
(1.51396 1.11368 -1.84191e-18)
(0.122601 1.27645 3.93672e-16)
(7.25333 -0.17636 -1.72485e-16)
(0.622662 0.206334 3.14817e-16)
(-0.386067 5.94925 0)
(-1.29132 0.338824 1.86175e-16)
(4.26336 -0.691332 0)
(4.16375 0.117117 0)
(2.10093 -0.648464 -2.51672e-16)
(0.665391 -0.307171 4.14929e-16)
(5.25894 0.181693 -2.60862e-16)
(1.19033 -0.566275 -1.36121e-16)
(0.0276903 -0.0119169 4.33575e-16)
(-1.07506 -0.16242 -3.75194e-16)
(-0.196923 -0.0802112 0)
(-1.24367 -0.0471801 -1.45676e-16)
(-2.96041 0.0214796 -2.96489e-16)
(-3.09797 -0.0899944 1.61614e-16)
(-0.882285 -0.193909 1.33753e-18)
(-0.0413298 -0.280325 -4.33452e-18)
(0.226971 -0.055723 0)
(0.0140385 -0.0135893 1.05042e-18)
(0.115629 0.0816984 0)
(-1.84369 0.411616 -1.13412e-16)
(-0.931418 0.136898 0)
(-0.996775 0.252476 1.02764e-16)
(-0.685892 -0.0691283 4.34463e-16)
(2.92424 -0.0493218 0)
(-0.0911102 0.0585325 -2.61055e-16)
(1.87384 -0.0153535 -2.34062e-16)
(0.272301 -0.181457 -9.31056e-17)
(6.2207 0.114051 6.69044e-18)
(0.784664 -0.161671 -5.60598e-18)
(-1.12485 -0.314376 0)
(1.73826 -0.0506457 0)
(-1.89217 -0.328865 1.23379e-16)
(0.849047 -0.25856 0)
(0.106303 -0.830059 6.9172e-17)
(-1.31413 0.137486 -1.46751e-16)
(-1.23355 0.30015 -9.96362e-17)
(0.127621 -0.00200781 1.45258e-16)
(-1.03147 0.101268 3.38376e-16)
(4.64489 -0.0696891 -3.39139e-16)
(-1.8294 -0.108875 3.75552e-16)
(-2.28611 -0.0866492 5.89961e-16)
(0.464508 -0.496827 6.03459e-16)
(-0.959845 -0.504059 -9.72415e-17)
(-0.584586 -0.446463 -5.1789e-16)
(0.805724 -0.32648 -2.26069e-17)
(-0.235527 -0.0956076 -1.89334e-16)
(0.091467 -0.00474205 -3.20398e-16)
(6.42905 -0.046301 1.20596e-16)
(2.50455 -0.193633 -1.93472e-17)
(5.9028 0.0138441 0)
(-1.10856 -0.459212 0)
(-0.102415 -0.187049 1.12855e-17)
(3.66299 -0.00662719 -5.82486e-17)
(4.81315 0.0245874 0)
(-0.272318 -0.253534 1.18886e-17)
(0.346583 -0.0185556 2.11468e-19)
(4.8357 1.04764 -5.76228e-18)
(1.94657 8.66844 1.22557e-16)
(0.687144 1.14564 1.09896e-16)
(9.7543 -0.0104224 0)
(-0.827843 -0.118747 -1.1677e-16)
(-0.68384 -0.599897 1.80993e-16)
(0.298886 -0.458785 0)
(0.931049 0.224612 7.71047e-16)
(0.914524 0.110503 -1.77974e-16)
(1.09357 1.4455 9.52087e-17)
(4.13128 -0.200387 1.31697e-16)
(1.39505 5.64662 -1.71224e-16)
(9.67196 -0.00601189 0)
(2.00067 0.492517 2.13662e-16)
(-0.356051 1.9932 0)
(-0.076605 5.37451 2.62796e-17)
(5.19154 0.122714 1.3001e-16)
(11.2721 0.715576 2.1016e-18)
(-0.78239 -0.268701 -7.24663e-17)
(0.497664 -0.206091 -1.23262e-16)
(0.312171 -0.147726 0)
(0.313979 0.0188339 -3.34226e-16)
(-0.872242 0.283909 0)
(-1.00749 0.422048 -6.85497e-17)
(-0.768363 0.0348338 -1.08095e-16)
(-1.05691 0.732162 1.50123e-16)
(1.76074 0.292708 1.66199e-16)
(9.74405 0.155762 5.65735e-18)
(7.6849 0.898611 1.88886e-18)
(7.32676 0.520111 2.8401e-17)
(-2.12588 0.0303883 -1.54566e-16)
(0.726653 -0.844101 -3.89539e-16)
(-0.450053 -0.0819318 0)
(1.19664 0.843934 1.16324e-15)
(1.44736 4.60162 2.14572e-16)
(-0.762435 0.70312 -2.59744e-16)
(-1.42786 0.932452 2.61955e-16)
(0.35118 -0.0989763 2.97698e-16)
(0.38254 0.0358975 -1.6031e-16)
(1.33225 0.747325 8.67235e-18)
(-0.118734 5.99641 0)
(-0.0392862 5.94695 0)
(-0.0085062 4.96547 0)
(0.756462 0.152124 2.77748e-17)
(3.02903 -0.631813 -7.10033e-17)
(-0.367857 0.0835194 -1.50146e-20)
(7.30143 1.18764 -5.69339e-17)
(4.59865 2.27343 -9.14031e-18)
(8.20872 0.214239 -1.48714e-16)
(9.01502 0.520246 1.56909e-16)
(0.0743645 -0.329283 2.9065e-16)
(0.27178 0.0102316 0)
(6.01688 -0.0550728 -1.10753e-16)
(-0.763406 -0.197523 1.00551e-16)
(-0.347385 -0.737522 -1.04561e-16)
(0.980156 -0.0345878 0)
(-1.47867 -0.138055 0)
(-1.70314 -0.225329 -5.90016e-19)
(0.111533 1.8805 1.41407e-16)
(3.81319 0.792113 0)
(0.10947 -0.0042163 -7.7259e-16)
(4.39013 0.0172298 -1.22513e-16)
(3.42517 -0.0414781 0)
(-0.28115 -0.855171 -2.89002e-16)
(0.722311 1.51135 -4.85741e-16)
(4.87953 -0.343443 -1.66267e-16)
(9.51509 0.0893855 3.58733e-17)
(0.152314 0.00844221 3.42366e-16)
(0.493754 0.198041 -1.84435e-16)
(1.92013 -0.0752958 -8.24228e-17)
(0.491576 0.171816 -1.96721e-16)
(-1.59504 1.06405 -2.45493e-16)
(-0.352757 -0.120385 3.80792e-16)
(0.929444 3.33773 2.53491e-16)
(0.107462 3.28369 9.8165e-17)
(-0.538093 1.0252 -4.35597e-16)
(0.300241 4.66764 4.74341e-17)
(-0.12668 5.36073 1.10704e-16)
(0.0270948 5.98022 1.25043e-17)
(-0.012212 5.95181 0)
(0.610292 5.86334 4.08144e-17)
(-0.512005 7.83602 0)
(-0.511005 0.274456 -1.80854e-17)
(-0.664237 0.471302 -1.42087e-16)
(-0.481903 -0.209835 2.48211e-18)
(0.682869 0.151062 0)
(8.08148 1.70336 0)
(1.22458 7.42837 7.11678e-18)
(0.146571 3.28825 5.98358e-17)
(-0.50053 0.658744 -1.92349e-19)
(0.272542 4.45014 -2.04135e-16)
(0.822358 -0.0592075 -1.72086e-16)
(0.00745292 -0.152113 1.34756e-16)
(-0.482023 6.29109 0)
(0.0305314 -0.925798 -7.4274e-16)
(0.706478 1.97818 0)
(0.770828 0.954754 -1.5917e-16)
(3.60672 0.27034 1.62338e-18)
(0.533925 0.106855 -2.74587e-16)
(0.208489 3.21662 2.77476e-16)
(5.03541 0.106307 2.42033e-16)
(3.9369 0.0443938 0)
(0.155814 -0.410316 -6.68544e-16)
(-0.17553 0.486188 -3.02227e-16)
(1.35117 7.52577 -1.36432e-16)
(-0.0530897 -0.0527221 -8.89124e-17)
(10.5935 0.119293 0)
(10.0233 0.298625 -1.79125e-17)
(-0.0690379 0.0584402 -9.8302e-17)
(-0.221914 2.87843 -2.61345e-16)
(-2.06278 0.378276 -2.14906e-16)
(0.181025 7.19548 -4.04672e-17)
(-0.0440372 -0.139059 4.78205e-16)
(1.08914 -0.548275 -2.09408e-16)
(-0.255125 7.46721 -7.69855e-17)
(1.88317 1.35549 -8.10591e-19)
(-0.869453 -0.108077 0)
(1.63884 -0.513206 0)
(2.01438 0.0312531 0)
(-1.42581 -0.337268 6.72291e-17)
(-1.84026 -0.310966 -3.27073e-16)
(4.51757 -0.131057 2.97203e-16)
(6.27819 -0.0264193 -6.94169e-18)
(6.59792 -0.125245 3.01536e-16)
(-0.629833 -0.414334 9.3041e-17)
(-1.84099 0.256398 4.88855e-16)
(-1.67376 0.145321 0)
(0.187834 -0.0623518 -2.60897e-16)
(0.452722 -0.0500143 0)
(0.0462304 -0.0866608 0)
(0.132294 0.028821 -3.52626e-16)
(-0.608135 0.0194074 0)
(0.585448 -0.196757 4.37674e-16)
(1.9989 0.00744277 4.00032e-16)
(6.36993 0.38991 0)
(3.12336 -0.140057 0)
(-0.0738487 -0.0468689 4.45168e-16)
(1.61749 -0.00428971 3.53891e-16)
(-1.08198 -0.528979 3.21326e-16)
(-0.205898 -0.333813 -2.41914e-17)
(-3.02902 -0.141519 -1.20801e-16)
(2.47219 -0.00654594 6.99181e-17)
(3.50269 0.14418 6.02745e-17)
(0.612696 0.0946635 2.40911e-16)
(-2.36995 -0.165957 -2.2289e-17)
(-1.70568 -0.213753 1.52242e-16)
(1.25646 -0.293907 0)
(-0.851383 -0.569114 0)
(0.125495 -0.0132837 1.91425e-16)
(5.34565 -0.417375 1.68654e-16)
(2.02193 -0.122729 7.02812e-17)
(0.238796 -0.188615 0)
(0.20601 0.00828228 -2.73475e-16)
(1.26864 -0.504686 4.73551e-16)
(4.76297 -0.0843331 3.61812e-17)
(1.79559 -0.580752 -3.48115e-17)
(0.488749 -0.522577 -3.00897e-16)
(0.412868 0.152485 5.24616e-16)
(-3.21558 -0.00553368 -3.73063e-17)
(4.30479 -0.340166 0)
(3.17526 -0.267907 3.35389e-16)
(-2.10429 0.055135 -8.52227e-17)
(0.421849 0.156761 -1.39455e-16)
(1.04729 -0.0127526 0)
(0.571818 0.212388 -1.18597e-16)
(-0.323866 0.475562 2.87958e-16)
(0.524619 0.0604705 8.89295e-17)
(-2.78161 0.165411 1.3772e-16)
(3.84387 -0.0192788 0)
(2.85601 0.139009 8.92273e-17)
(-1.91563 0.545867 0)
(0.189405 0.0560343 1.57903e-17)
(0.523209 -0.621564 1.49739e-16)
(0.41418 0.107066 0)
(10.7779 0.0865458 0)
(-0.982281 0.0630474 1.56267e-16)
(-1.15281 -0.0753475 -6.14887e-16)
(-0.376831 -0.296113 -3.58489e-16)
(-0.23819 9.10861 -2.85445e-17)
(-0.00127859 -0.561876 3.17807e-16)
(0.282205 -0.715496 -1.09245e-15)
(-0.524829 -0.235642 0)
(0.44993 -0.10918 -8.05858e-16)
(-1.1783 1.04144 -7.04371e-19)
(0.121774 0.734822 -2.51144e-18)
(-0.225698 -0.283864 1.68694e-16)
(-0.671876 0.194378 9.15425e-17)
(-0.562049 0.255812 -9.86738e-17)
(-0.789688 0.0242295 1.0974e-16)
(-0.0357609 0.774503 0)
(0.316041 0.0218546 0)
(2.68868 -0.0356366 -2.63986e-16)
(0.719973 -0.290255 1.40055e-16)
(1.80914 0.0311613 -4.06633e-16)
(9.09527 -0.232477 3.17664e-17)
(0.411221 -0.0712178 2.01725e-16)
(0.195501 -0.104681 0)
(6.47064 0.969457 4.57809e-17)
(-0.141939 1.22505 2.98373e-20)
(0.303137 -1.71384 1.84405e-16)
(0.0405545 0.895202 -3.8024e-17)
(-0.250746 5.82534 -6.01958e-17)
(-0.101558 7.16074 2.21846e-17)
(0.139345 6.58235 0)
(0.871785 0.478153 1.73532e-16)
(-0.963404 0.314828 2.74707e-16)
(5.0942 -0.0293376 1.9943e-17)
(3.93415 -0.059713 7.19267e-17)
(-0.0878743 -0.297304 0)
(0.21657 3.44661 1.74803e-16)
(-2.41485 0.181669 0)
(-0.154643 6.34569 3.79731e-17)
(-0.0298381 6.55727 -6.61649e-17)
(-0.157815 7.38018 2.93263e-17)
(-0.00213766 -0.0345623 -1.59016e-17)
(0.41771 0.206341 -4.20045e-17)
(-1.14252 0.0198188 0)
(-1.26794 -0.0445696 0)
(-0.457262 -0.120757 -2.02553e-16)
(-0.118733 0.00144981 -2.06933e-16)
(0.00338941 0.489386 -1.48331e-17)
(0.0713464 -0.90395 5.3974e-17)
(3.69982 0.695832 3.12766e-16)
(10.0037 0.161738 1.2742e-17)
(0.177329 2.35591 -2.78591e-16)
(0.949592 -3.04601 -2.09299e-17)
(0.286956 0.038201 3.41126e-16)
(-0.0180148 0.00267178 0)
(0.0578441 -0.350712 1.73122e-16)
(0.596897 -0.50111 -9.95804e-18)
(-1.24863 0.00528118 -9.9551e-17)
(-1.31111 -0.149804 2.01726e-16)
(-0.301027 -0.190778 2.56469e-16)
(9.9526 0.097529 -2.48646e-16)
(0.089162 -0.409081 0)
(0.273837 -0.348806 8.0048e-17)
(1.95368 0.0593536 -2.05745e-18)
(-0.0397647 7.76277 -5.59661e-17)
(-0.00725505 6.47152 1.33455e-20)
(-1.03399 -0.173483 0)
(-0.143273 0.350442 2.46767e-16)
(1.25179 0.360549 -8.13566e-17)
(0.605017 -0.0868438 -2.29157e-16)
(0.006414 0.454891 -7.60351e-17)
(-2.77537 1.35378 4.61384e-17)
(-0.0336642 -0.955763 -5.28888e-16)
(-0.116651 6.63454 -2.61894e-17)
(0.965477 -0.02608 -5.10359e-16)
(0.360483 5.28801 -2.18651e-18)
(-1.60608 -0.4768 -2.14641e-16)
(-0.0815352 6.51644 -3.18023e-17)
(0.970086 6.55672 8.60692e-17)
(0.136464 -0.956847 -1.11341e-16)
(-0.123927 0.244463 -2.60043e-16)
(-0.329894 0.397772 1.87674e-16)
(0.244645 -0.185418 -3.89374e-16)
(8.5239 0.568554 9.13885e-17)
(-0.462652 -0.0504901 -2.85078e-16)
(10.0931 0.351691 -2.11798e-18)
(2.78489 3.23795 5.63297e-17)
(0.553122 0.067245 -4.41756e-16)
(0.972359 2.43554 -4.77514e-17)
(0.828785 0.00352056 3.73475e-17)
(6.3313 1.07336 -4.68761e-18)
(1.55635 0.713868 -6.85105e-17)
(0.562917 -0.271065 3.07969e-17)
(0.375836 0.0108487 -2.17651e-16)
(-1.01518 -1.0529 1.12458e-15)
(8.37383 2.11401 -2.61852e-18)
(-0.206709 2.65138 1.5347e-16)
(1.52076 0.159892 1.80661e-16)
(-0.0938953 0.127833 6.16819e-17)
(-0.966886 0.503387 2.77449e-16)
(0.0137271 -0.917151 0)
(0.956385 -0.127792 -1.95728e-16)
(0.535691 -0.236942 1.35947e-17)
(0.0331573 0.0345303 1.83497e-16)
(3.41071 -0.129747 -5.39591e-20)
(9.81684 0.0303396 0)
(1.48907 0.0356898 2.15225e-18)
(0.970991 -0.00429016 -4.94022e-17)
(0.0619566 -1.07129 2.84253e-20)
(-0.000781721 0.173155 2.32662e-16)
(-0.0307284 4.50669 -1.38017e-16)
(-0.206375 6.08763 4.1682e-16)
(1.69876 0.920994 7.72637e-18)
(-0.156696 1.06629 -1.44666e-21)
(0.184516 -0.222482 2.59521e-16)
(0.172041 0.0243145 0)
(0.276853 0.0858736 0)
(-0.986287 -0.104075 -3.22902e-17)
(6.9165 0.832554 -1.39204e-19)
(3.38374 1.99474 2.06761e-17)
(8.58543 1.22711 -5.653e-18)
(10.3815 0.525106 3.23338e-18)
(0.695309 0.037686 0)
(0.132495 2.89464 0)
(-0.225548 0.210711 2.58174e-16)
(0.350051 -0.926729 2.20631e-16)
(8.95595 0.487909 -4.41631e-16)
(1.59995 0.703926 0)
(1.0234 -0.00831655 0)
(-2.08748 0.138678 2.03238e-16)
(0.568898 0.0350223 1.69856e-18)
(0.486416 -0.444395 -1.5342e-16)
(0.915478 -0.0841586 1.88069e-16)
(0.026892 -0.104532 -1.01461e-16)
(-0.0145515 6.4336 -2.99911e-17)
(-0.198799 7.64003 -1.35819e-17)
(0.886338 -0.138513 -2.47199e-16)
(9.91739 0.163177 -6.58807e-17)
(9.12822 0.0725572 3.5116e-18)
(0.456039 -1.28968 1.39349e-16)
(-0.0845196 0.61444 -4.00507e-17)
(2.35488 2.16841 -9.81831e-18)
(-0.520401 8.5918 -1.27469e-16)
(-0.191958 0.0054524 1.07102e-15)
(-0.627385 -0.471291 6.79508e-18)
(0.838935 0.374939 0)
(5.49774 3.75134 6.50453e-17)
(-0.0638228 0.622854 1.22991e-16)
(0.0668094 -0.994656 5.01748e-20)
(-0.757352 2.04931 1.82172e-16)
(-0.59438 -0.0518025 0)
(10.2766 0.174533 0)
(0.0758499 0.0679237 -7.17924e-17)
(0.450316 0.0694792 0)
(-0.493874 0.413931 8.53304e-17)
(10.0321 0.0637951 -1.03872e-16)
(4.86781 -0.0294306 7.47379e-17)
(-0.447073 -0.00938061 1.25521e-16)
(7.04172 0.0285943 9.42781e-17)
(0.00224154 -0.920286 8.40376e-17)
(-0.770667 -2.56408 1.8244e-16)
(0.0339486 0.565732 2.32759e-16)
(0.662167 6.36872 -1.05597e-16)
(1.35409 -0.0369993 -7.25512e-17)
(-0.833754 -0.0763006 0)
(9.72272 0.814301 0)
(0.423994 3.03697 -2.36372e-16)
(-0.364347 -0.0248626 -2.08621e-16)
(-0.509934 -1.51381 5.9927e-16)
(0.598331 5.25753 -2.54956e-17)
(0.300727 0.112006 0)
(-0.00769913 0.0578267 -5.03783e-16)
(1.4179 1.64291 -1.41219e-16)
(-0.759082 -0.9518 1.44827e-16)
(0.272485 -0.149479 0)
(-0.276215 2.22182 0)
(0.126166 -1.09879 0)
(-0.0505467 0.704177 -1.90141e-16)
(0.719388 1.94281 6.73531e-18)
(10.0606 2.81026 -2.35949e-18)
(0.00591513 0.00841684 0)
(5.38918 1.30601 0)
(0.625588 0.254866 -9.88748e-17)
(0.86569 6.51242 7.46965e-17)
(1.41926 0.130466 0)
(-0.794578 -0.0358619 3.99552e-16)
(0.307484 -0.119924 5.74275e-21)
(-0.172241 -0.523524 -1.66439e-16)
(0.970592 -0.0533884 0)
(8.08047 0.588955 -6.27264e-17)
(-1.59529 0.682411 -1.51129e-16)
(0.583011 3.0476 7.17504e-17)
(0.0373627 4.27659 0)
(0.911102 3.66031 -1.0511e-17)
(9.94238 0.255933 -1.9852e-17)
(2.90907 2.60091 -3.7049e-18)
(0.241506 5.21845 -1.29045e-16)
(-0.546179 0.955634 -2.70382e-16)
(0.112692 3.57129 -4.32708e-16)
(-0.171609 6.90333 5.2547e-19)
(0.0361224 6.56681 4.70624e-17)
(2.58709 2.64317 0)
(10.4706 -0.204271 2.09643e-17)
(-2.69444 -0.219122 1.35477e-16)
(8.92574 0.814203 -1.16372e-16)
(-0.164917 0.0400692 1.8788e-16)
(-0.105827 6.69793 0)
(-0.045268 6.65057 -5.28846e-17)
(-0.210387 4.93457 1.84076e-16)
(0.998521 -0.0447468 -7.31483e-18)
(-0.514697 -0.968377 5.21352e-17)
(0.682903 0.795602 6.3533e-18)
(-0.140456 6.66156 -2.75931e-17)
(-0.0208261 6.49739 -2.95785e-17)
(2.02855 8.85761 5.52271e-17)
(0.153618 -0.00311197 2.16883e-17)
(10.1307 0.167367 0)
(0.3028 -0.219212 5.14522e-16)
(0.260808 0.171642 -1.12594e-16)
(0.78689 -0.145719 -3.38186e-16)
(7.55671 0.580023 1.65458e-17)
(-0.0257972 6.59962 -4.54232e-17)
(-0.0956334 6.83095 1.86252e-16)
(0.933797 -0.0533071 -7.98813e-20)
(-0.404799 0.0766371 -1.20105e-16)
(1.04692 6.53756 0)
(0.29811 -0.0242875 0)
(-0.0579713 -0.141909 -2.12131e-17)
(-0.58027 2.22226 0)
(3.31291 4.01757 -5.30401e-17)
(4.64965 2.92343 0)
(1.05692 5.5632 -1.54698e-16)
(-0.167488 0.668076 7.04575e-17)
(1.04773 0.0162667 3.6333e-16)
(1.25532 -0.0586438 4.43113e-17)
(7.23343 0.676079 -1.48276e-17)
(3.872 -0.00654373 -2.3246e-16)
(7.70974 0.140563 -2.86671e-16)
(2.08957 0.170978 0)
(0.199228 0.968746 -8.30974e-17)
(5.13832 2.95404 1.5959e-16)
(3.64273 1.66729 -7.2994e-17)
(0.069265 0.0319545 -3.70812e-16)
(0.259607 1.04432 5.87077e-16)
(-0.654419 -0.612317 3.3288e-17)
(-0.277898 0.474718 -4.09995e-16)
(1.31712 1.90093 -1.40747e-19)
(0.928624 1.16952 -2.42497e-16)
(-0.42279 0.0344185 1.95695e-16)
(0.303298 -0.75701 9.63621e-17)
(-0.22799 0.198523 0)
(0.0678147 0.395054 -7.93536e-17)
(0.334018 -1.01322 -7.52225e-17)
(-0.0492237 0.556936 3.22321e-16)
(0.906036 -0.153307 -1.15596e-16)
(1.36841 8.61109 -3.63311e-17)
(10.6533 0.423904 -7.20388e-17)
(0.203276 -0.0699692 1.18422e-16)
(-0.215246 2.63764 -4.68697e-17)
(0.595079 -0.0565331 -1.4216e-16)
(8.66513 0.16522 3.52609e-16)
(3.96996 -0.1376 -2.40114e-17)
(-0.0131564 6.64848 3.49293e-18)
(4.31004 -0.150486 2.4465e-16)
(-0.0666908 4.84721 -1.73727e-16)
(-0.0211688 5.83435 8.55759e-17)
(7.25826 0.292262 0)
(0.014384 0.227854 -1.26904e-16)
(0.0208996 0.0414524 3.03825e-17)
(-1.34601 -0.803814 0)
(1.49337 1.0027 -1.59526e-16)
(0.0613282 0.107376 6.88912e-17)
(1.08273 0.332204 2.72254e-16)
(0.964113 0.10179 2.83013e-16)
(3.87458 0.187118 -4.10884e-17)
(8.83219 0.516834 -1.09223e-18)
(1.00814 1.34188 -1.64844e-16)
(-1.11808 0.114746 2.94841e-16)
(-0.468897 1.17673 -2.77824e-16)
(0.621789 -0.171891 1.24824e-16)
(0.923525 -0.104982 0)
(-0.0925597 -0.942625 -1.11773e-17)
(-1.98134 1.00102 -2.84748e-16)
(-0.0345354 0.0672219 -1.63235e-20)
(-0.0400718 6.00546 2.69939e-17)
(0.20694 5.5769 -2.74807e-18)
(-0.129433 5.27903 -1.0919e-16)
(0.146082 5.94514 3.11069e-17)
(2.01671 4.62377 -1.40105e-16)
(7.17339 0.347358 7.01727e-17)
(0.0198188 0.789487 0)
(10.3229 0.976055 0)
(-1.49505 -0.0101547 3.73643e-16)
(-1.33368 0.0524033 5.21963e-16)
(-0.0209011 6.59518 1.39126e-16)
(-0.041776 6.9503 -1.25296e-16)
(1.02246 -0.0950685 1.26417e-16)
(1.18934 5.70405 -4.04178e-17)
(1.00446 -0.238732 4.83676e-17)
(-0.713532 -0.222824 2.37542e-17)
(0.384123 -0.0665825 1.59554e-19)
(0.40367 0.247038 -6.7523e-17)
(-0.740705 -0.13737 -9.69269e-18)
(0.572542 2.23104 -5.10592e-17)
(3.53291 -0.0723084 -4.00402e-16)
(0.605904 4.1571 6.50116e-18)
(0.157341 0.0664098 1.72926e-16)
(0.482094 0.216477 0)
(0.807341 -0.225403 0)
(0.161423 2.79517 0)
(0.790735 6.19463 2.24634e-16)
(1.15094 8.43869 2.42984e-16)
(-0.154413 7.0008 2.19864e-16)
(0.773647 0.0633596 3.81931e-17)
(5.87918 3.28074 -3.84379e-17)
(0.331945 0.107521 0)
(-0.161667 -0.175329 1.02668e-16)
(-0.235691 -0.784545 3.33403e-17)
(10.5394 0.0564929 -7.49881e-18)
(0.126655 0.00947706 -1.14823e-16)
(-1.51662 0.195473 3.21644e-18)
(-0.638033 -0.0339486 -1.6469e-16)
(8.98305 0.374604 -2.02118e-17)
(0.80932 1.72669 0)
(3.48116 1.20033 -3.49024e-16)
(3.27163 0.815943 2.14047e-16)
(0.744398 -0.193784 0)
(0.0427206 0.178752 7.88013e-17)
(1.29814 2.32574 -2.56949e-16)
(8.67675 0.159681 0)
(1.72941 5.90694 -4.54897e-16)
(-0.129838 6.25324 -1.24155e-16)
(0.390009 3.18707 0)
(1.1808 0.55985 0)
(11.3929 0.282336 4.35618e-17)
(10.367 0.350494 3.36493e-17)
(8.91816 1.21711 1.81978e-18)
(5.39243 2.1819 -5.93221e-21)
(0.399606 2.37955 0)
(1.36295 0.622889 2.04087e-16)
(2.20958 7.1514 -2.97187e-17)
(4.65166 -0.0573634 0)
(0.15663 0.0374296 -4.86559e-16)
(3.96267 2.10773 2.00246e-17)
(0.13389 0.885085 -1.26951e-16)
(9.36846 0.915482 -5.18763e-17)
(10.8762 0.0434855 7.81067e-17)
(1.66012 1.86881 -1.83116e-16)
(9.93869 0.415955 -1.55281e-17)
(-0.0424371 6.72526 1.53858e-16)
(0.773866 8.71112 4.19832e-17)
(0.597275 6.91454 -1.00782e-16)
(6.78126 3.62283 0)
(0.73164 0.101784 1.51378e-16)
(-0.150365 -1.01752 -1.81401e-16)
(2.31404 0.0939229 2.71328e-17)
(-0.0385121 0.0779265 1.36709e-16)
(0.0420402 6.59055 3.33149e-21)
(-0.0625302 7.47416 2.26029e-19)
(0.547904 6.02048 7.35989e-17)
(0.0944459 0.238592 0)
(0.0543537 -0.167268 0)
(-0.133551 0.0156965 1.11199e-16)
(0.403062 0.255676 1.70971e-16)
(-0.0836778 5.42346 -1.03835e-16)
(-0.0353333 5.92566 -3.48014e-18)
(-0.238885 2.41555 0)
(-0.234965 0.467694 -4.60016e-17)
(10.0969 0.10982 8.58543e-17)
(-0.847698 -0.575151 0)
(1.81536 1.41989 -3.43386e-16)
(0.273119 0.219454 7.63484e-17)
(0.949749 -0.0476331 2.44517e-16)
(-0.0352137 6.63095 6.25247e-17)
(-0.145617 7.26195 1.36532e-16)
(9.61768 0.919702 0)
(0.259824 7.39786 -3.53897e-17)
(-0.045111 6.65635 -3.14239e-17)
(9.5053 1.13756 -9.57954e-17)
(1.88761 0.0943075 -3.32911e-20)
(7.36309 1.63575 6.25376e-18)
(-0.155195 6.65519 2.61649e-19)
(-0.0419629 6.1084 0)
(0.00903561 5.5835 2.8663e-18)
(-0.12764 5.1102 -9.57787e-17)
(0.247657 5.82762 -3.82883e-17)
(3.5999 4.16058 1.41516e-16)
(0.299242 1.75898 3.73217e-17)
(-0.13167 7.03062 2.02432e-16)
(0.0240018 6.69986 0)
(-0.277387 5.46247 -1.39363e-16)
(1.02008 1.34096 2.83536e-17)
(0.0389601 0.157758 -1.57815e-16)
(0.631623 0.124407 8.77187e-17)
(0.093512 0.170185 4.64231e-18)
(-0.608343 -0.333056 1.30542e-16)
(0.506749 -0.0781204 0)
(1.17114 3.45902 1.12457e-17)
(-0.154213 -1.76237 -2.05919e-17)
(0.567585 0.0073457 -1.24172e-16)
(8.81129 0.826889 -7.29559e-19)
(-0.128534 0.876319 -4.48392e-17)
(0.299133 -1.17097 -2.30879e-16)
(-0.110691 0.526921 -2.16657e-16)
(-0.13187 6.46252 -2.04977e-16)
(0.0795062 6.4735 0)
(0.580598 0.158478 2.47047e-16)
(-0.145837 6.5334 8.81526e-17)
(0.0610714 6.43316 2.34207e-17)
(-0.596089 -0.0346508 -7.38027e-17)
(3.52422 3.63468 -1.49262e-16)
(-0.869076 -1.37796 4.83763e-16)
(-0.585406 -0.974293 5.92561e-16)
(0.821712 0.750672 -2.59586e-16)
(0.116276 6.11167 2.37367e-16)
(0.00288434 0.433468 -4.22062e-16)
(-0.942816 -0.357026 -1.88158e-16)
(0.0273318 -1.00831 -1.21553e-16)
(1.18367 8.91764 0)
(9.87367 0.102413 0)
(0.0332184 0.0740688 -2.99706e-16)
(0.158201 -0.900109 1.75035e-16)
(0.0805972 0.17625 -8.04269e-17)
(-0.774033 -0.498742 0)
(0.662164 0.219584 1.18128e-16)
(0.534464 -0.0283718 -3.45422e-20)
(0.687892 0.382144 -6.19097e-16)
(4.16065 0.0904603 2.21078e-16)
(1.02927 5.05828 1.12483e-16)
(-0.207898 6.70268 -2.75989e-16)
(1.87082 -0.210481 3.78128e-16)
(1.0678 0.952352 -1.53929e-16)
(9.77388 0.903119 -1.34092e-17)
(0.519456 3.28028 2.00753e-16)
(0.253822 -0.245401 1.93332e-16)
(0.621648 0.0315713 0)
(-0.933266 0.782241 5.40381e-17)
(2.08255 1.37433 -7.35006e-16)
(-0.0132231 0.800138 -2.52162e-17)
(0.316241 -1.49839 2.58433e-16)
(0.0732306 2.31827 2.67128e-17)
(8.62173 0.555874 -1.14095e-16)
(9.84165 0.284898 -2.02577e-19)
(-0.391312 0.0034254 1.90899e-16)
(11.0688 0.0489481 0)
(0.588903 0.279291 -5.09032e-18)
(0.597797 -0.313874 2.97155e-18)
(0.838671 -0.0504401 -1.9042e-17)
(-0.0138415 6.62828 4.05664e-17)
(-0.108367 6.63343 3.84359e-17)
(0.0174692 5.08145 1.74928e-17)
(10.5233 0.0374264 1.42226e-17)
(0.0814294 0.0501264 -1.84103e-20)
(-0.473569 7.71816 -4.51172e-17)
(0.653766 -0.307378 -5.03763e-21)
(-0.158179 0.937636 0)
(9.13755 1.69866 -4.32219e-18)
(0.750548 -0.602929 0)
(-0.259601 -0.0352747 1.01313e-16)
(0.813077 0.112567 9.65109e-17)
(0.166254 0.958458 4.82911e-18)
(0.626592 0.27032 2.43829e-16)
(-1.11941 0.0705154 2.75946e-16)
(9.37309 0.61665 -1.7641e-17)
(-0.252394 -0.102244 2.68589e-16)
(1.65554 -0.448056 2.92137e-16)
(9.53115 1.07215 9.80657e-17)
(9.7513 0.301743 4.08356e-17)
(6.09573 2.63157 2.49751e-17)
(0.0108149 6.52315 -4.57847e-17)
(-0.039875 6.61662 2.38089e-17)
(0.0256297 2.78702 1.20337e-16)
(0.216737 1.85933 0)
(4.21093 0.734906 4.6575e-17)
(5.72748 3.11334 8.4928e-17)
(9.17866 -0.130339 -2.00123e-17)
(0.504569 0.751808 1.11546e-16)
(0.0794065 -0.14068 2.63933e-16)
(0.0870174 0.0914192 0)
(8.89113 1.69568 0)
(0.647574 2.11783 0)
(1.34194 2.16245 2.76139e-16)
(0.416961 -0.0586115 1.04825e-16)
(2.35546 4.39714 2.05798e-16)
(-0.105114 5.53614 2.72958e-17)
(1.39918 7.3365 -5.72153e-17)
(0.152796 0.200039 0)
(0.137107 0.194572 9.78926e-17)
(-0.235572 6.05156 -1.22902e-16)
(-1.1546 -0.0130449 -6.16869e-16)
(11.2578 0.115135 9.53138e-17)
(5.80932 1.19934 0)
(0.127369 -1.79755 1.64946e-16)
(1.07903 5.51914 0)
(0.564502 0.282337 1.66193e-16)
(0.256455 0.0682909 -2.50689e-17)
(0.946019 9.60722 6.28742e-17)
(9.91261 1.07981 -1.33728e-17)
(9.87433 0.680831 1.0149e-16)
(-1.13128 0.105755 0)
(0.723207 2.28354 -5.53591e-17)
(-0.41941 -0.0308417 0)
(8.6054 0.335506 0)
(1.0246 0.284925 -1.32283e-16)
(0.143385 0.0679289 2.47659e-17)
(-2.76614 4.45108 -1.31235e-16)
(2.92474 0.812791 -1.22319e-16)
(0.796609 2.68955 1.37233e-16)
(10.2823 0.105186 -2.22871e-20)
(5.98694 3.57839 -7.71055e-17)
(1.00695 -1.38146 -3.47636e-19)
(-0.0397324 6.37805 5.56011e-17)
(-0.0413147 6.22532 -5.20338e-17)
(0.616685 2.29455 -1.14274e-16)
(1.19322 6.0819 -2.4383e-16)
(1.59784 1.48717 -1.21943e-17)
(0.1215 -1.05728 -3.41415e-16)
(-0.0504019 0.281466 -2.31535e-16)
(0.879361 0.842468 6.25416e-17)
(0.767197 -0.0708344 2.1093e-16)
(0.561749 -0.153127 -3.11172e-16)
(0.04412 0.797471 -5.44892e-16)
(0.315446 -1.52204 -3.55921e-16)
(6.96722 4.22379 3.36684e-18)
(0.32388 0.979261 5.68045e-16)
(10.0766 0.0421241 -6.27834e-17)
(0.725201 -0.0678592 0)
(-0.272071 2.41504 3.66749e-20)
(3.83095 -0.804534 -1.03569e-16)
(-0.426407 2.57835 0)
(10.0865 0.413685 3.94274e-17)
(-0.48354 0.043525 3.06182e-16)
(0.383888 0.00381651 -2.75539e-16)
(8.9759 1.72195 0)
(-0.0392614 6.45723 3.15899e-20)
(-0.255827 7.77954 0)
(10.0334 0.0839356 0)
(0.740521 0.0377043 -5.23244e-17)
(9.40109 1.22248 -5.29215e-17)
(8.98367 3.97496 -1.80566e-16)
(1.14959 6.71197 2.34541e-17)
(7.35819 2.11084 -1.05122e-16)
(-0.0356775 3.92222 -7.12367e-17)
(-0.00446985 4.25429 1.00435e-20)
(-0.0339879 4.55021 -7.04332e-17)
(-0.841932 -0.969687 0)
(-0.0928638 2.42201 1.10965e-16)
(-0.00913652 -0.563054 0)
(0.205677 0.386057 0)
(0.0485856 0.252562 0)
(-0.048451 0.270007 -2.09143e-16)
(0.355503 -0.243238 0)
(0.0419513 0.416302 1.37573e-16)
(2.85476 2.61385 -2.76852e-16)
(0.0942835 3.48785 0)
(-0.432593 5.28836 1.53084e-16)
(-0.198078 6.45253 -2.40827e-17)
(0.00844857 6.4255 8.60261e-17)
(-0.146425 7.33692 -3.73648e-17)
(0.411776 1.86055 2.17679e-16)
(9.37331 1.01829 -2.70654e-17)
(-0.0028463 0.834271 2.14545e-17)
(0.35629 -1.68365 -7.0674e-17)
(0.961058 0.63365 0)
(0.819245 -0.062963 2.58023e-20)
(5.12939 1.71839 0)
(0.564499 -0.0662584 1.7183e-21)
(3.82542 0.131311 -4.5131e-16)
(10.0521 0.0513112 3.45163e-17)
(-0.42822 7.80923 1.11806e-16)
(-2.42778 2.47213 -2.9339e-16)
(0.00146386 0.291076 0)