/*--------------------------------*- C++ -*----------------------------------*\
| =========                 |                                                 |
| \\      /  F ield         | OpenFOAM: The Open Source CFD Toolbox           |
|  \\    /   O peration     | Version:  v1912                                 |
|   \\  /    A nd           | Website:  www.openfoam.com                      |
|    \\/     M anipulation  |                                                 |
\*---------------------------------------------------------------------------*/
FoamFile
{
    version     2.0;
    format      ascii;
    class       volScalarField;
    location    "0.99";
    object      nut;
}
// * * * * * * * * * * * * * * * * * * * * * * * * * * * * * * * * * * * * * //

dimensions      [0 2 -1 0 0 0 0];


internalField   nonuniform List<scalar> 
5794
(
0.000688132
0.000556211
0.00406104
0.00488106
0.0168944
0.00116241
0.00119894
0.000910068
0.00226686
0.000573649
0.00203369
0.00135123
0.00141471
0.00791451
0.00126829
0.00202169
0.0102564
0.00700566
0.00080905
0.000651744
0.00151053
0.000607808
0.00157796
0.00081244
0.00115103
0.00382046
0.0136743
0.0126945
0.00385902
0.00069028
0.00154245
0.00208037
0.00240936
0.00106753
0.00138885
0.0020656
0.000786264
0.00172771
0.00189502
0.00753124
0.00642534
0.00304681
0.000743849
0.00131319
0.00132527
0.00231018
0.00187692
0.00103615
0.000485745
0.000517564
0.000540776
0.00296934
0.000667371
0.00156228
0.000103248
0.00230088
0.00178813
0.00145022
0.000733857
0.00503517
0.00132916
0.000392729
0.00131817
0.00480338
0.0057139
0.000798674
0.00564735
0.000697206
0.00555059
0.000319985
0.00616655
0.00502763
0.0159293
0.001061
0.00583708
0.0087567
0.000201638
0.00339186
0.00118427
0.000269945
0.000575374
0.000356618
0.00698165
0.00176825
0.00164977
0.000896689
0.000747847
0.00102056
0.00155814
0.00292679
0.00502577
0.00210646
0.00341892
0.00540682
0.002604
0.00803959
0.0039675
0.00318224
0.00198316
0.00142832
0.00143457
0.00119533
0.000757676
0.0118888
0.00321423
0.0126038
0.000428995
0.00416696
0.00511532
0.00103004
0.000666596
0.000586997
0.00138615
0.00167029
0.00232806
0.00406086
0.000979004
0.00630057
0.00123776
0.00100884
0.00869339
0.000181574
0.000827993
0.0109402
0.00123317
0.00361807
0.00350595
0.00140182
0.003398
0.00391041
0.00166605
0.00188254
0.00303735
0.00320213
0.0111096
0.00146621
0.00296163
0.000430629
0.00333296
0.000784704
0.00127651
0.0127127
0.00138098
0.0130884
0.00439354
0.0130808
0.00195015
0.00148605
0.0141645
0.00687844
0.000726797
0.00104349
0.0121673
0.00084149
0.0144374
0.00171709
0.00171691
0.00126161
0.00213075
0.0015658
0.000340816
0.000705036
0.000341038
0.000920504
0.00193838
0.00186429
0.000858981
0.000639172
0.000386796
0.000229794
0.000286552
0.0019411
0.000613587
0.000472399
0.000307167
0.00127773
0.000211829
0.00103358
0.000480339
0.00190374
0.000653001
0.0011649
0.000604558
0.00153135
0.000715201
0.0037733
0.0011118
0.00111273
0.000231227
0.000823323
0.00165362
0.00139077
0.0017057
0.000833603
0.000966615
0.000875315
0.00081931
0.000332953
0.000381046
0.00100976
0.00101312
0.00209879
0.000906578
0.000827577
0.00164687
0.0019989
0.000663
0.00582507
0.0136538
0.00197935
0.000820019
0.000858049
0.00283244
0.00151138
0.00105519
0.00154117
0.00201361
0.00361213
0.00355057
0.00545166
0.00085691
0.00222592
0.00835321
0.00369596
0.0023689
0.0069521
0.000673442
0.00109819
0.000353185
0.00140807
0.000834177
0.00063611
0.000676782
0.00364069
0.00305479
0.0108138
0.0138085
0.00206339
0.000997695
0.000769905
0.000292324
0.00767632
0.00235489
0.00156311
0.00130501
0.00129208
0.00143837
0.0121308
0.00114068
0.000943863
0.000705574
0.000890794
0.0127047
0.0004669
0.000811875
0.0229588
0.000909114
0.000894658
0.00382409
0.00102678
0.00254508
0.00268029
0.0014502
0.000796147
0.00114503
0.00118806
0.00968145
0.00368711
0.000646359
0.00289283
0.00248182
0.00117379
0.0032032
0.00504362
0.000869032
0.000899347
0.00154441
0.0012033
0.000585433
0.00134246
0.000582285
0.00324835
0.00462479
0.00189473
0.00530108
0.00525426
0.0025488
0.00307582
0.0053188
0.00880638
0.00147249
0.000929096
0.00120242
0.00150456
0.000771897
0.00311512
0.00245822
0.00127004
0.00280022
0.00121791
0.000293363
0.00099529
0.000479722
0.00332254
0.00102669
0.00311066
0.00058575
0.00432558
0.00249645
0.0021434
0.0013243
0.002794
0.0022922
0.00170566
0.000783012
0.000904373
0.00513411
0.0137295
0.00458798
0.00403078
0.00174044
0.00115941
0.00513851
0.0161264
0.00314208
0.00197986
0.00112978
0.00114394
0.00123084
0.00186647
0.00180178
0.000822053
0.000888535
0.00149585
0.00130541
0.000287091
0.000255663
0.00030636
0.000191335
0.000912403
0.000475255
0.000894899
0.00233364
0.00113678
0.000268769
0.000552086
0.0017002
0.00123013
0.00217161
0.00171811
0.00198779
0.00253402
0.00147607
0.00116815
0.000669411
0.00264769
0.000347537
0.00187569
0.00111082
0.000871057
0.00581147
0.00256149
0.00297087
0.00191954
0.00110662
0.0043145
0.0017284
0.00154642
0.00125707
0.000986524
0.00148893
0.000542612
0.00494203
0.00353902
0.00660771
0.00300042
0.00166416
0.00139384
0.00167631
0.000408337
0.00350722
0.00152183
0.000750251
0.00173446
0.00116019
0.000934354
0.00636456
0.00284038
0.00128442
0.000932772
0.000696163
0.00167309
0.000449643
0.00105994
0.000552437
0.000422277
0.000298793
0.0010753
0.00122265
0.00162343
0.000749078
0.00117786
0.0145538
0.000356454
0.000366496
0.00260821
0.00169812
0.00114052
0.000918896
0.00409146
0.00336569
0.00203539
0.00442068
0.00117212
0.00174129
0.00143768
0.000712886
0.00550732
0.00193624
0.00349576
0.00186745
0.00292277
0.00535724
0.00151358
0.000815009
0.000625932
0.000368511
0.00159767
0.000367558
0.000815432
0.00296205
0.000784436
0.0116217
0.00206394
0.00108193
0.000582914
0.00105573
0.00126906
0.00120544
0.000858771
0.000746738
0.000805559
0.000929926
0.000844369
0.00114871
0.00460018
0.00247556
0.00308255
0.000446248
0.00285914
0.000299402
0.00068075
0.00201217
0.000720586
0.00493597
0.000521094
0.00453846
0.00793674
0.00347002
0.00719125
0.00101626
0.00103736
0.000798603
0.00160083
0.0015356
0.00394377
0.0106609
0.0199712
0.00529874
0.00119199
0.000164832
0.0143202
0.00445437
0.00089235
0.00123253
0.00311168
0.020127
0.0137896
0.00131581
0.000843535
0.00102491
0.000988502
0.000746366
0.000622847
0.00545024
0.0034487
0.000861485
0.00114562
0.00280007
0.000786731
0.000549407
0.00459078
0.0042598
0.0138459
0.00159061
0.000870202
0.000723289
0.00178814
0.00176038
0.00238088
0.021064
0.019135
0.000728655
0.00183519
0.0132013
0.00107077
0.00105108
0.00112047
0.00486031
0.00104415
0.00805137
0.000653089
0.0043351
0.000594165
0.00174596
0.00224537
0.00376049
0.000603974
0.000805509
0.0145244
0.00120851
0.00111835
0.018793
0.00675936
0.00448824
0.00124325
0.00128539
0.002105
0.000963298
0.000833531
0.00113809
0.000280763
0.00998499
0.00238024
0.00268485
0.000880172
0.000785562
0.00300099
0.00391798
0.00211422
0.000668493
0.00233191
0.000367797
0.00552702
0.00137715
0.00298846
0.00075532
0.0132853
0.00133852
0.00101917
0.0127857
0.000529971
0.000242248
0.00105596
0.00203407
0.00133665
0.00116558
0.000803665
0.000951373
0.0114788
0.0186363
0.000370483
0.00332942
0.00114152
0.00590671
0.00102146
0.0012762
0.0061756
0.000428904
0.00120025
0.00165346
0.00279033
0.00146768
0.00132583
0.00151191
0.000858889
0.020618
0.0042737
0.00179163
0.00392742
0.00487259
0.00256825
0.00787119
0.00772695
0.00324434
0.00138737
0.00145244
0.00446224
0.00242388
0.00488153
0.00113915
0.0019285
0.000505506
0.0053386
0.00260596
0.00311987
0.000347338
0.000831192
0.00123949
0.00143744
0.000753564
0.00178909
0.00271132
0.00555732
0.000861569
0.00279181
0.00341205
0.000244399
0.00012134
0.00556233
0.0204173
0.0233639
0.0114009
0.00117145
0.000685532
0.000808448
0.0021902
0.00104118
0.000866779
0.0018386
0.000236663
0.00329922
0.00410075
0.00559979
0.000320092
0.00160779
0.00372945
0.0144389
0.00617591
0.00120815
0.000965991
0.000495545
0.000181257
0.00123794
0.00104942
0.000834188
0.00379005
0.000809489
0.000650355
0.0134572
0.00135526
0.000846255
0.00399952
0.00255458
0.00284427
0.00533896
0.00249389
0.00101136
0.00247894
0.000578668
0.000894678
0.00105566
0.00244737
0.000582511
0.00053432
0.00303175
0.0157165
0.00273524
0.0020722
0.00379675
0.00103704
0.000536744
0.000931288
0.00111372
0.000703835
0.00307402
0.00559753
0.0054764
0.00255369
0.00277639
0.00204954
0.001187
0.0129302
0.00144697
0.00143851
0.00288783
0.00583243
0.00154499
0.0117058
0.00113323
0.000905631
0.00512617
0.0015796
0.00335875
0.0117309
0.00279933
0.00379095
0.00202401
0.000658543
0.000734446
0.00652546
0.00813915
0.0036264
0.00328095
0.00147658
0.00190559
0.00634368
0.000379589
0.000996221
0.000769687
0.000229214
0.000706883
0.000269731
0.000955092
0.0113602
0.00327156
0.00244335
0.000777056
0.00276341
0.00697537
0.00112087
0.00774591
0.00360774
0.00294529
0.00441937
0.000775373
0.00073354
0.0172727
0.00309825
0.00597084
0.00771856
0.00408258
0.00310642
0.00313216
0.0221029
0.00129361
0.000808465
0.000818989
0.00814037
0.00095616
0.00286325
0.00282782
0.0063811
0.00223212
0.00150504
0.00176721
0.00637212
0.00446958
0.00210324
0.00340107
0.00461258
0.000237353
0.000334717
0.000166345
0.000465693
0.00487084
0.00260033
0.00462985
0.00101125
0.00080301
0.00207058
0.000955004
0.00171526
0.00055241
0.0026127
0.00515615
0.000756155
0.00590545
0.00274149
0.000709526
0.00106646
0.0208663
0.00493517
0.00307951
0.00584983
0.00590922
0.00282245
0.00345828
0.00158854
0.00407756
0.00231802
0.0046085
0.0113986
0.00243462
0.00343797
0.000692142
0.000875968
0.00141563
0.0151353
0.00111959
0.00652502
0.0164738
0.00116672
0.0010337
0.0011211
0.00510413
0.00271089
0.00674729
0.00524829
0.00263116
0.00470259
0.00577405
0.00691036
0.00360414
0.000831934
0.00285151
0.000526688
0.0028279
0.000771612
0.00359626
0.000862988
0.00563939
0.00101187
0.00292922
0.00178565
0.00125758
0.00648352
0.00565595
0.00308122
0.00874154
0.00346285
0.00123985
0.00104666
0.00108004
0.00949865
0.00100619
0.0023113
0.0030346
0.00817724
0.000962743
0.000878058
0.00130489
0.00137951
0.0150794
0.00128674
0.000768918
0.000990789
0.000968273
0.00139914
0.00251357
0.00479174
0.00479266
0.000771464
0.00226001
0.00852201
0.00109331
0.00267303
0.0179296
0.000364865
0.000153546
0.000416005
0.000698643
0.00456493
0.0043416
0.000875386
0.00143774
0.00131846
0.000711649
0.000839379
0.0230521
0.00277104
0.00576214
0.00164765
0.00243733
0.00355378
0.00296025
0.0141938
0.00528455
0.00176219
0.000611434
0.00075418
0.011636
0.00108481
0.00120382
0.00759536
0.00383616
0.00423788
0.00391804
0.00171337
0.0110065
0.00327812
0.000773167
0.00307912
0.00122281
0.00409194
0.000839473
0.00186585
0.00314992
0.000816267
0.000753058
0.00058483
0.00459198
0.00385675
0.000898184
0.000699056
0.00212185
0.00114728
0.00392136
0.000891164
0.000799375
0.00270261
0.00146953
0.00305507
0.00592581
0.00447415
0.00589646
0.0150039
0.000815242
0.000506051
0.00882614
0.00143028
0.00127007
0.000963548
0.00125814
0.00208553
0.000339538
0.000790303
0.00133063
0.00847556
0.00299668
0.00490681
0.000845637
0.00301187
0.00558014
0.0186815
0.00206995
0.00327293
0.000784983
0.00104528
0.017581
0.00105409
0.00306649
0.000841488
0.00135025
0.00104701
0.00152828
0.000414185
0.00194229
0.00125903
0.000537985
0.00038098
0.000289598
0.000294195
0.000182035
0.00066134
0.0140406
0.0131905
0.00323271
0.00186202
0.00279688
0.0107312
0.000756017
0.000980673
0.000963054
0.00991658
0.00136478
0.0210088
0.00628126
0.00229919
0.00078585
0.00830494
0.00173166
0.000651756
0.000752341
0.0234078
0.00602172
0.000834265
0.00172813
0.000878802
0.00342293
0.00144567
0.0168538
0.000586129
0.000504137
0.000453583
0.000525826
0.000444267
0.000874988
0.00226805
0.00119579
0.000764428
0.00067816
0.000789504
0.00957796
0.000782844
0.000734394
0.0014165
0.00165481
0.000831646
0.000899461
0.000458974
0.00110953
0.000742518
0.000939324
0.00075696
0.00128974
0.00063976
0.0019748
0.00473979
0.000686041
0.00083373
0.00074622
0.0026408
0.000830302
0.00214593
0.000777072
0.0228716
0.00212921
0.00114969
0.000825606
0.000874983
0.0132131
0.000981744
0.00253368
0.00261619
0.00531456
0.00192797
0.000987227
0.00119843
0.00175046
0.00083197
0.00121818
0.00180858
0.0016748
0.00148771
0.00013604
0.00198912
0.00143201
0.00109272
0.00108626
0.00162261
0.000379642
0.000789862
0.000891853
0.00120264
0.000746942
0.0128868
0.000796601
0.00366899
0.000790243
0.000783498
0.000736536
0.000712394
0.000560145
0.00105262
0.0130467
0.0122535
0.0042528
0.000450852
0.000826851
0.00297625
0.00126954
0.00122301
0.00172545
0.00190375
0.00518165
0.00139108
0.00696993
0.000398257
0.00084205
0.00621952
0.000433838
0.0185004
0.000726119
0.000673155
0.0029546
0.00807283
0.00102995
0.00349002
0.00101161
0.00111245
0.00116678
0.000969564
0.000516561
0.00092406
0.00083031
0.000648254
0.000749726
0.000584216
0.000716347
0.000975973
0.00407408
0.00098024
0.000723773
0.00545199
0.002606
0.00109689
0.000494924
0.00797469
0.00300906
0.00660967
0.00986631
0.00130736
0.00114835
0.000298053
0.019729
0.000760466
0.00430375
0.000736874
0.0190247
0.00256917
0.000218204
0.00109291
0.000308638
0.000661632
0.00176139
0.000479816
0.00112841
0.00110228
0.000258159
0.00108112
0.000166911
0.000234321
0.000947686
0.00112892
0.00108498
0.00655597
0.0031403
0.00605525
0.000280054
0.00129866
0.000841756
0.00104556
0.00119205
0.000789871
0.00835443
0.000811353
0.00330215
0.00102929
0.000746392
0.000986298
0.0227914
0.0116732
0.0005124
0.00281601
0.00735865
0.00540852
0.0121214
0.00074468
0.00553431
0.00484003
0.00312424
0.00095122
0.00826866
0.000726581
0.000726527
0.000792404
0.000935707
0.00122854
0.00126077
0.0131539
0.00107042
0.00101205
0.00293982
0.00470169
0.00479848
0.000764868
0.00145569
0.00134409
0.00113389
0.00128298
0.000695264
0.0177591
0.00141696
0.00616298
0.00307821
0.00667829
0.000886499
0.00220659
0.00204869
0.00265031
0.00105657
0.00102625
0.00079069
0.00123392
0.000744278
0.0218561
0.000755442
0.000809777
0.000754673
0.000911259
0.000832545
0.000776451
0.000868779
0.000747609
0.00330314
0.00138482
0.0110755
0.00073266
0.000745176
0.000499785
0.000871008
0.00172169
0.00955509
0.00173165
0.000693965
0.000937594
0.000768065
0.002027
0.000788826
0.000704668
0.000813768
0.000681283
0.000844113
0.00102412
0.000989603
0.00777783
0.00050842
0.0127496
0.000920652
0.00048726
0.000707741
0.000824769
0.00109131
0.00320346
0.00135668
0.000742262
0.00204522
0.000919714
0.00103361
0.00159726
0.00121079
0.000696205
0.000597225
0.001213
0.00149359
0.00443381
0.00614874
0.00253611
0.000828568
0.000196204
0.00787995
0.00117374
0.00535025
0.00665854
0.00049146
0.000864417
0.00110024
0.00172516
0.000247877
0.0120748
0.00650392
0.0011104
0.00833686
0.00341765
0.0016181
0.000443161
0.00829579
0.0212632
0.00885763
0.00131061
0.000662328
0.00179706
0.00281806
0.000836141
0.000531908
0.000664922
0.000783626
0.00323628
0.00310274
0.000343713
0.00567505
0.00104311
0.000699043
0.000405759
0.00288723
0.011843
0.00153389
0.00312735
0.00598652
0.00862145
0.0146086
0.00211449
0.00222561
0.000795161
0.00581092
0.00356568
0.00741636
0.00559145
0.00252265
0.00400499
0.00136924
0.0152858
0.00454815
0.0169032
0.00234092
0.00098969
0.00119087
0.017308
0.00211356
0.00100403
0.00507974
0.00402345
0.00213621
0.0063163
0.00626939
0.00248947
0.0130305
0.00266852
0.000263316
0.000806679
0.00370173
0.00106898
0.000845307
0.00177933
0.000830964
0.0042557
0.00350372
0.00627592
0.000421379
0.00914554
0.00356687
0.00277927
0.00376307
0.00117212
0.000993905
0.000690145
0.0112794
0.00143796
0.00108109
0.000777081
0.0173277
0.00074081
0.00148101
0.00926478
0.00825274
0.00187877
0.00191306
0.0129281
0.00145323
0.00078616
0.000142489
0.00665965
0.00403768
0.00824283
0.00738506
0.00113061
0.00216896
0.00514125
0.00583766
0.000957574
0.00151193
0.00132644
0.00151164
0.00114003
0.0108261
0.00197587
0.00097489
0.00585828
0.00156294
0.00675802
0.000956526
0.00231045
0.000827512
0.00152641
0.00215176
0.0011189
0.000805134
0.00109537
0.00136465
0.000290207
0.00156921
0.000584735
0.000822546
0.00388294
0.00276396
0.0054977
0.00154578
0.00519795
0.00529158
0.0065881
0.000935381
0.00193594
0.00181226
0.00144135
0.000222858
0.000179071
0.000228137
0.0179738
0.000826187
0.00266591
0.00208717
0.00391727
0.00365859
0.00161304
0.000182236
0.000290016
0.000292173
0.000221621
0.000410639
0.000500487
0.000370872
0.000332126
0.000453743
0.000533075
0.000484264
0.000361188
0.000269093
0.000200647
0.000196105
0.000457832
0.000544463
0.00041345
0.000401687
0.000238403
0.000397535
0.000183785
0.000209917
0.000190848
0.000810026
0.000224169
0.000302402
0.000167669
0.00047957
0.000267263
0.000358991
0.000345226
0.000239589
0.000337733
0.00025797
0.000285387
0.000361815
0.000267608
0.000365567
0.000591252
0.00023275
0.000180979
0.00031841
0.000298995
0.00185472
0.00191078
0.0122307
0.000987945
0.00588815
0.00286966
0.00525506
0.0144985
0.00106928
0.00137268
0.000845373
0.000957028
0.00291982
0.0061768
0.0190426
0.0186274
0.00543732
0.00287863
0.000491608
0.00053544
0.00247215
0.00077696
0.00036447
0.00565777
0.00238478
0.00348622
0.00172501
0.00551678
0.00478131
0.00525994
0.00144238
0.0091523
0.00349284
0.0190134
0.00174331
0.00224993
0.00176232
0.00076347
0.0143587
0.00127766
0.00163615
0.00771961
0.00236392
0.00515533
0.00476464
0.00171085
0.00149508
0.000842044
0.000848847
0.0166934
0.00211946
0.000471563
0.000373313
0.00798625
0.0139941
0.000205974
0.00359563
0.00698437
0.00040083
0.00037862
0.000393347
0.000359809
0.000250116
0.000438527
0.000508477
0.000229552
0.000286315
0.000525554
0.000367762
0.000331108
0.000221951
0.000305825
0.000231791
0.000248821
0.000382163
0.000199048
0.00033412
0.000188529
0.000315527
0.000182792
0.000270805
0.00338083
0.00278434
0.000444423
0.000894062
0.00423382
0.000848692
0.00940439
0.000844813
0.00296689
0.0142972
0.00575809
0.00284267
0.0139249
0.00240324
0.000197397
0.0138728
0.00211319
0.0013209
0.0224121
0.00484334
0.012246
0.000717006
0.0135576
0.00169444
0.00127029
0.0133851
0.000904015
0.0033335
0.00373957
0.00159167
0.00228893
0.00621168
0.00122121
0.00926973
0.01693
0.00306434
0.0071556
0.00057514
0.00982932
0.000951811
0.00194238
0.00115984
0.00636887
0.00170712
0.00240278
0.00298801
0.0018064
0.00702282
0.000834642
0.00302032
0.000631233
0.00601879
0.00512181
0.0231963
0.000155063
0.000772004
0.0010275
0.00864416
0.002844
0.000240701
0.000612235
0.00572857
0.00463734
0.0130809
0.000832686
0.00211646
0.0020505
0.00112318
0.00393049
0.00116739
0.00738762
0.000792815
0.000260997
0.000180447
0.00914452
0.00630774
0.000789405
0.00752714
0.00485376
0.00327458
0.0132645
0.0185997
0.0108378
0.013443
0.0121558
0.00196985
0.00832262
0.00133501
0.00199738
0.00141287
0.00694845
0.000725935
0.000832947
0.00108036
0.0151504
0.000851411
0.000584081
0.00164595
0.0033359
0.00368211
0.00942919
0.0136275
0.00942267
0.00378055
0.000830924
0.0128021
0.000561834
0.00211211
0.00202881
0.00115878
0.0112129
0.0161439
0.00316194
0.0138325
0.00280158
0.00767532
0.0014332
0.00150938
0.00215336
0.00271015
0.001028
0.00178745
0.00183847
0.0130544
0.00103655
0.00144935
0.00382232
0.00300063
0.00143075
0.00152918
0.00189237
0.0149799
0.0054578
0.00718898
0.00507363
0.00110029
0.000662511
0.0013504
0.00347747
0.000806752
0.00189702
0.00215521
0.0142463
0.0142488
0.0110876
0.0104492
0.0142802
0.0114614
0.0142632
0.00145195
0.0143505
0.0142992
0.0117895
0.0114012
0.0143871
0.0109502
0.0141274
0.0143898
0.0143064
0.00177275
0.0018145
0.00168381
0.0149046
0.00165842
0.00143471
0.000986879
0.00120467
0.000188774
0.000217908
0.00556478
0.0116496
0.00627029
0.00313423
0.00362913
0.00943697
0.0112003
0.0084339
0.00447293
0.000862796
0.00119744
0.000839855
0.00229163
0.0063853
0.00152326
0.00147058
0.00157403
0.00570258
0.00338683
0.00192535
0.0027531
0.00756503
0.00302998
0.000791101
0.00349572
0.000370434
0.00449995
0.00139622
0.000921839
0.00124314
0.000918334
0.00179648
0.00273295
0.00212992
0.00392284
0.0043369
0.00139979
0.0028577
0.0112651
0.00225004
0.00268832
0.00305655
0.00379325
0.00931637
0.000877233
0.00171048
0.00954872
0.00486004
0.00299827
0.00244307
0.00143506
0.00315069
0.0106385
0.00331312
0.00175933
0.0018231
0.00162442
0.00524952
0.00141982
0.0172775
0.00184398
0.00144296
0.00163904
0.00217997
0.00482355
0.000714276
0.00144483
0.00304879
0.00571422
0.00284075
0.0166508
0.00966511
0.00161999
0.0104065
0.00210169
0.00195592
0.00318592
0.000821297
0.00290626
0.00140589
0.0160519
0.00358734
0.00221216
0.000915492
0.00788478
0.0153578
0.00147385
0.00146857
0.00607923
0.00527356
0.00312702
0.00205096
0.00145216
0.0011204
0.00668293
0.00561306
0.00532825
0.0146902
0.014668
0.0013575
0.00602343
0.00055961
0.00161378
0.00277304
0.00110968
0.0010273
0.00170051
0.000812846
0.00220305
0.00207973
0.00490916
0.000658465
0.00594486
0.0029659
0.00129078
0.00272423
0.00370032
0.00274956
0.00127084
0.0011413
0.00094645
0.00399345
0.00639445
0.00122022
0.00222434
0.00150415
0.00153026
0.00132292
0.00222746
0.00178901
0.00442348
0.0046065
0.000335256
0.000790857
0.00038892
0.00341158
0.00230373
0.00113723
0.00564761
0.00698173
0.00162744
0.00170867
0.000950671
0.00454223
0.00402467
0.00436322
0.00119622
0.0063824
0.00486191
0.00484206
0.000386295
0.0042278
0.00576368
0.0147826
0.00351953
0.00622356
0.00611828
0.00324725
0.00338886
0.00569068
0.000738853
0.00368492
0.00625513
0.00375265
0.00515702
0.00604197
0.00412283
0.00649433
0.0006556
0.00268378
0.00369965
0.00625442
0.00383306
0.00380886
0.00630459
0.00550947
0.00497941
0.00294989
0.00357959
0.00198251
0.000567986
0.00596174
0.00103568
0.00451664
0.00185719
0.00221656
0.000692192
0.000524638
0.00529485
0.00115845
0.00657973
0.00136065
0.000963124
0.00356356
0.00418114
0.00369631
0.00566567
0.00299967
0.00310454
0.00128263
0.00342579
0.000320847
0.00141044
0.00122365
0.00210405
0.000613722
0.00264326
0.000575769
0.0145254
0.00131092
0.00129579
0.00197118
0.00176701
0.00209029
0.00207801
0.00059899
0.00156918
0.00529954
0.00257137
0.00115026
0.00125915
0.00395553
0.00172324
0.000550655
0.00146618
0.00533851
0.00412059
0.00130495
0.00555189
0.00294666
0.00193883
0.00104887
0.000608874
0.0138989
0.000878268
0.00115511
0.00147598
0.00880887
0.000720602
0.00309202
0.00217948
0.00721616
0.00165838
0.00155565
0.00580463
0.00163617
0.000608977
0.0010602
0.00169463
0.000662701
0.000859303
0.00594181
0.00260557
0.00311475
0.0135677
0.0151022
0.00101701
0.0007426
0.00182402
0.00154098
0.00532711
0.000888281
0.00481704
0.00413512
0.00170487
0.0014954
0.00413411
0.00223592
0.00407039
0.00525688
0.00106656
0.00108084
0.0022158
0.00119984
0.000732467
0.00144044
0.00155938
0.0102366
0.00467237
0.00318449
0.00949729
0.00095592
0.00115522
0.00387161
0.00700799
0.0017125
0.00534347
0.0011843
0.000573177
0.00118846
0.00437166
0.00641253
0.000979664
0.00636941
0.00263258
0.00258444
0.00405703
0.00225348
0.00152361
0.000260718
0.00163063
0.0033001
0.0147666
0.00102129
0.00109067
0.00774611
0.000800163
0.000834606
0.0106445
0.00028834
0.00113977
0.000932903
0.0019208
0.00165688
0.0057806
0.00360988
0.00584192
0.00594621
0.00297201
0.00307464
0.00135633
0.00569274
0.00411896
0.000267076
0.000291418
0.000304096
0.000496291
0.000446219
0.00738848
0.00105426
0.000698859
0.0012786
0.00368109
0.00493955
0.00145248
0.000216771
0.0102573
0.00874286
0.00197669
0.00125851
0.0031299
0.00206715
0.00309154
0.000279611
0.00348256
0.0127246
0.00103164
0.00234878
0.00153312
0.00856182
0.00521084
0.00127062
0.00109326
0.00950825
0.00388417
0.00229425
0.00165898
0.0017701
0.000748552
0.000837181
0.00398597
0.00333316
0.00412789
0.00447205
0.0109824
0.00513462
0.00098866
0.000734345
0.0016574
0.012809
0.0159583
0.0136619
0.0119002
0.00946992
0.00430083
0.0036989
0.00388712
0.00303543
0.00152254
0.0101275
0.0120981
0.0120206
0.00222514
0.00996748
0.00486904
0.00609369
0.00437943
0.000627359
0.00402974
0.000941914
0.00061549
0.00135264
0.0036286
0.00365485
0.00375008
0.00527978
0.00760481
0.00113272
0.0137903
0.00624016
0.00611293
0.00268456
0.00188687
0.00129071
0.00118798
0.00119368
0.000899605
0.000793816
0.000743819
0.00927622
0.0024603
0.000792411
0.00161178
0.0033397
0.00242493
0.00276868
0.00210446
0.0063016
0.00348735
0.00187294
0.00312744
0.00507805
0.00139843
0.00173104
0.00169656
0.000282411
0.00373742
0.000567844
0.0010147
0.013703
0.000771306
0.000546847
0.00156579
0.00577851
0.00116324
0.00349292
0.00807824
0.00234014
0.00172153
0.00371267
0.00346219
0.00397005
0.00710734
0.00164119
0.00808431
0.00385078
0.00457433
0.0139304
0.0093015
0.00126766
0.00321494
0.000831254
0.00417607
0.00729926
0.00167457
0.00172899
0.000816815
0.000743157
0.000992877
0.00109635
0.00445419
0.00073525
0.00086545
0.0061206
0.00484205
0.00516082
0.00295907
0.00132862
0.00742702
0.005557
0.00183634
0.00174358
0.00164098
0.00306962
0.0138678
0.00381652
0.0125034
0.00126451
0.00346451
0.00221406
0.00615484
0.0103323
0.00227363
0.00366451
0.0028252
0.00547889
0.00520678
0.00207824
0.000422946
0.000357402
0.00770979
0.00605047
0.00636361
0.00286147
0.00789649
0.00516639
0.000795995
0.00452845
0.00823221
0.00363308
0.00497847
0.00630087
0.00550897
0.000930667
0.000740863
0.00144576
0.0133667
0.00156328
0.00892254
0.000994969
0.000925487
0.00997738
0.0013454
0.00169977
0.00875334
0.0137234
0.0133779
0.0140456
0.000452085
0.00107749
0.00385148
0.00532235
0.0123161
0.0129277
0.00309531
0.0062419
0.00240979
0.000987893
0.0035156
0.00205008
0.0082067
0.00648316
0.013625
0.00375544
0.000931697
0.00877715
0.00407737
0.00529708
0.00186538
0.00343789
0.0081005
0.001211
0.00252552
0.0055589
0.00821188
0.00984999
0.0013422
0.00245894
0.0106255
0.00103848
0.000757939
0.00179168
0.00749864
0.00863918
0.00334696
0.00170658
0.000815111
0.00202938
0.00668878
0.00161777
0.00895463
0.00766797
0.00426025
0.00581344
0.00381134
0.00215202
0.00574632
0.0124284
0.00493936
0.00168331
0.00248876
0.000686568
0.000933198
0.00259042
0.00151478
0.00266662
0.0140474
0.0135022
0.0139617
0.0102678
0.0131906
0.00194086
0.00586939
0.00150098
0.00988847
0.0206353
0.0111481
0.00847605
0.000739787
0.00147666
0.00698138
0.0102027
0.00902912
0.00602787
0.00275337
0.00387957
0.00159472
0.00279542
0.000696392
0.000292491
0.0111915
0.00155288
0.00582306
0.000639791
0.00892314
0.00350983
0.00257468
0.00601321
0.00608604
0.00117747
0.00864844
0.0116971
0.0029326
0.000526645
0.0103663
0.00530954
0.00333402
0.00145401
0.00218104
0.000926946
0.003624
0.0142248
0.012179
0.00234813
0.00694286
0.0103986
0.00127512
0.00455928
0.00324392
0.00265297
0.000488077
0.00373074
0.0108263
0.0041287
0.00363593
0.00322976
0.0144795
0.00697866
0.000999463
0.00105424
0.00104855
0.00274246
0.000797985
0.00609292
0.00337137
0.00947334
0.00166931
0.001553
0.000927806
0.0129138
0.00622487
0.013359
0.00382297
0.000857655
0.0016806
0.00507627
0.0043943
0.000630201
0.0121204
0.00356365
0.00231833
0.00171672
0.000788905
0.0134614
0.00117336
0.0141158
0.00867597
0.00113639
0.00656875
0.000797097
0.0141433
0.0110025
0.00121841
0.00230572
0.00295043
0.0141208
0.000848189
0.000778889
0.000768837
0.00175469
0.000644858
0.00148199
0.00848918
0.00480744
0.0059772
0.00283008
0.00626804
0.00103162
0.0132196
0.00957961
0.00133124
0.00073856
0.00394885
0.00870444
0.000194666
0.000175505
0.000251982
0.014235
0.00209928
0.0154372
0.00479188
0.00425313
0.00874055
0.0131678
0.00157469
0.00329178
0.00661057
0.00497817
0.00258228
0.00460894
0.00200336
0.00986218
0.00121612
0.000813427
0.000676466
0.0015028
0.00265352
0.00173674
0.00304507
0.00291416
0.00218641
0.0130802
0.00523257
0.00615631
0.005421
0.00172277
0.00168285
0.00288001
0.00260347
0.0121419
0.00534889
0.0133965
0.00599895
0.000899936
0.000770397
0.00157204
0.00348814
0.00128953
0.00670358
0.00207841
0.00115349
0.00254339
0.00951119
0.00370433
0.0138785
0.00188737
0.00915494
0.00329359
0.00309574
0.00171221
0.00593568
0.00377478
0.00372309
0.00113064
0.00422403
0.00608441
0.00139329
0.000949992
0.0139417
0.0118125
0.00607909
0.00533492
0.00593823
0.0220394
0.0150663
0.00166388
0.00219455
0.00341797
0.00193259
0.00365638
0.0102684
0.0129
0.000743806
0.00791749
0.00187482
0.00285611
0.00204748
0.00414589
0.002631
0.00479984
0.000416772
0.00708138
0.00518207
0.000686481
0.00225918
0.00410032
0.00602975
0.00357052
0.00264869
0.000384578
0.00195679
0.011188
0.00702874
0.00393801
0.00221227
0.00501914
0.00105494
0.000756701
0.0015038
0.00104515
0.00102808
0.00173515
0.00156605
0.00184658
0.0155139
0.000545216
0.00142583
0.00315561
0.000935136
0.00615684
0.000705067
0.000720473
0.0014945
0.0033019
0.00238774
0.00103513
0.00129106
0.000435185
0.00152584
0.000702935
0.00162176
0.00530322
0.00369012
0.000804588
0.00594291
0.00142301
0.00280882
0.00896359
0.00591278
0.0065332
0.00104336
0.00253487
0.000195426
0.000405276
0.00185861
0.0137505
0.00194734
0.0141488
0.00485438
0.00186455
0.00801692
0.00196391
0.000805415
0.00215114
0.00511227
0.00455717
0.00590918
0.000773161
0.000728635
0.00158669
0.000731754
0.00158993
0.0128313
0.00180399
0.00100791
0.00486949
0.000551639
0.0047966
0.00326541
0.0010854
0.00114031
0.00937281
0.0101836
0.0129777
0.010014
0.00250597
0.00105554
0.00324815
0.0130356
0.00582849
0.00707097
0.00490901
0.00712809
0.00147761
0.000806535
0.000645772
0.00578289
0.00444769
0.00188046
0.00192654
0.000741291
0.00167874
0.00625969
0.00318373
0.00220543
0.00758076
0.0180254
0.0164354
0.000978209
0.0135408
0.00122232
0.0114076
0.00341542
0.00638742
0.00191695
0.0053345
0.00210978
0.00631803
0.0135113
0.0126718
0.00124964
0.00130722
0.00108328
0.00276058
0.000293737
0.00144584
0.0018813
0.00267534
0.00612486
0.00595151
0.00137331
0.000596548
0.0129009
0.000765416
0.00112993
0.00858364
0.0125298
0.00690961
0.00197877
0.00529152
0.00416699
0.000820456
0.000841102
0.00298438
0.00165731
0.0109037
0.00149903
0.00581389
0.00440826
0.0015237
0.00679548
0.00111425
0.000858015
0.000916401
0.000312962
0.000241904
0.00236544
0.00108335
0.00122995
0.000827591
0.000213409
0.000175143
0.000238121
0.0145376
0.0142869
0.000848106
0.00661739
0.00256308
0.00478776
0.00583244
0.00583316
0.00478978
0.0125175
0.0111863
0.00832576
0.00429766
0.00399638
0.00894922
0.0030841
0.000743592
0.00140936
0.00155157
0.000695311
0.00143344