/*--------------------------------*- C++ -*----------------------------------*\
| =========                 |                                                 |
| \\      /  F ield         | OpenFOAM: The Open Source CFD Toolbox           |
|  \\    /   O peration     | Version:  v1912                                 |
|   \\  /    A nd           | Website:  www.openfoam.com                      |
|    \\/     M anipulation  |                                                 |
\*---------------------------------------------------------------------------*/
FoamFile
{
    version     2.0;
    format      ascii;
    class       volScalarField;
    location    "0.31";
    object      k;
}
// * * * * * * * * * * * * * * * * * * * * * * * * * * * * * * * * * * * * * //

dimensions      [0 2 -2 0 0 0 0];


internalField   nonuniform List<scalar> 
1431
(
1.28993
1.07605
0.963058
0.485819
0.119347
0.351521
0.422433
2.79662
0.213798
0.289653
2.27465
2.49532
1.38993
0.274397
0.10003
0.420659
0.262157
0.412755
0.359809
0.543072
3.78109
0.480998
0.128617
2.61622
0.161896
1.54255
1.74053
0.275015
0.835393
0.547243
1.11548
1.11637
1.11112
0.14521
0.317349
0.589715
1.71856
0.0894982
0.975592
1.1215
2.1033
1.87123
1.52478
0.728484
0.294212
0.183336
0.318098
1.55467
0.46438
0.234289
0.789225
0.904487
0.559397
3.6031
0.720665
0.885955
0.0995264
3.13661
0.256075
0.179111
0.123042
0.366788
0.0865737
0.0819091
0.638455
0.193484
0.671241
0.230881
0.111756
0.355916
1.71892
0.155135
0.318344
0.114298
0.275197
0.11706
0.806489
0.738352
0.268588
0.375171
0.242458
0.519254
0.588556
0.312691
1.11719
0.98677
0.303058
0.118104
1.01164
0.858429
0.1091
0.1042
0.131229
0.522866
0.448992
0.522029
3.19098
1.11527
0.650766
0.80065
0.802705
0.477357
0.283006
0.408342
0.920062
0.920167
1.3376
1.84228
0.114283
0.260659
0.388087
1.3444
1.21921
2.08938
0.787108
0.115353
0.212071
0.396975
0.437691
0.0803777
0.453301
0.089192
1.66701
0.3032
1.08193
0.238917
0.886161
0.108133
0.962454
0.344209
0.250043
0.463955
0.453979
0.383464
0.69249
0.132362
0.781668
0.378921
1.41791
0.0816291
0.607911
0.987111
0.243013
0.311487
0.15601
1.08461
0.103304
0.698067
0.363996
0.300642
0.133553
0.134632
1.11955
0.482921
1.31443
0.183872
1.17313
1.16061
0.746603
0.531351
1.50879
1.4142
0.395348
0.371786
1.48711
1.84143
1.97682
0.485522
0.148352
0.958849
1.27727
0.644257
1.12939
1.39617
1.1309
1.13595
0.39651
0.345385
0.526946
0.332286
0.233776
1.12391
0.963984
4.55678
0.360753
1.22762
1.2811
1.16946
0.954763
1.06462
0.948032
0.957963
0.975189
2.4162
0.409173
1.04756
1.27446
0.334038
0.105264
0.264082
1.1383
0.39978
1.7587
0.287654
1.19564
0.942118
1.04588
0.14044
1.69177
0.492104
0.914881
0.385378
1.27776
0.961461
1.4271
0.916647
1.03108
0.38791
1.19947
1.64442
1.29867
0.964112
0.32801
0.390893
1.4034
2.31257
1.93315
1.01843
1.23901
1.29135
1.55454
1.1245
0.842181
1.01164
1.15568
1.19245
1.20872
0.996139
0.967763
1.07806
0.648742
0.793324
1.94263
0.960206
0.943365
1.11771
0.976524
1.72512
1.38318
0.168004
0.107997
1.3527
0.521009
0.451876
0.943076
2.20933
0.511233
2.87472
1.30922
0.986481
0.982741
1.368
1.05514
0.370453
1.54149
1.88598
0.522667
3.49872
1.51729
0.0877949
0.147199
1.13853
1.01418
1.0682
1.52506
1.11549
1.50215
1.00561
0.846103
1.04834
0.574148
1.57701
1.06691
1.33181
0.602763
0.921656
2.11511
1.21637
1.10199
1.21934
0.0893659
0.661923
1.25555
0.794303
1.06487
1.21179
1.60598
1.39676
0.903326
0.900059
0.600268
1.35399
0.959407
1.13813
1.03065
0.502436
1.19834
0.963825
1.76928
0.918991
0.893017
0.206778
0.236422
1.09447
0.273411
1.23075
0.310142
0.662389
0.205271
8.64118
1.06491
1.15655
0.671255
0.868328
0.296959
1.05441
0.711453
0.740842
4.09267
0.436969
1.05091
0.18127
0.540721
0.572842
0.583248
1.21509
1.53149
1.11998
0.308893
0.97027
1.10768
1.29084
0.680569
2.17339
0.186056
0.825928
1.19027
1.41412
0.712692
0.897599
0.518773
0.487337
0.801343
0.780363
0.393754
1.28321
1.18381
0.791993
1.22913
2.07046
0.475667
1.1115
0.967727
0.903628
0.157013
0.918841
0.290167
5.83372
1.21513
0.878153
1.99244
0.125434
1.01853
0.870972
2.32594
4.16591
0.960218
0.57056
1.03976
5.06378
1.44221
0.32878
0.825257
0.409529
8.27908
0.197944
0.40035
0.18035
0.315506
0.835164
0.73512
0.406251
0.427862
0.490962
1.39476
0.732765
1.0588
1.14488
0.403423
0.287049
0.673212
2.30445
1.30197
2.24616
1.40213
0.695837
0.321123
0.152591
0.533928
0.608256
0.827662
0.291334
0.540993
1.74157
0.197952
0.584943
0.631399
0.305432
0.322117
0.490871
1.66868
1.5107
1.37356
0.686361
0.463249
0.137343
0.463011
0.837415
0.949986
2.05377
1.39975
1.37352
1.45184
1.38754
1.45963
1.4311
1.42695
1.53453
1.42677
1.5542
0.220141
1.43101
0.285431
0.357434
0.543554
0.345693
0.209127
0.184911
0.345898
0.407455
0.38081
0.235339
0.389645
0.292671
0.322755
0.46258
0.450335
2.82301
0.182874
1.41925
0.414543
0.430702
2.64745
0.463911
1.49018
0.369268
0.394597
2.51405
0.247588
2.40073
0.665344
0.739543
0.350571
0.595175
1.4437
1.36221
0.139926
0.493575
0.325729
0.721921
0.652394
0.352027
1.48441
0.889443
0.565345
0.627096
0.345852
0.548449
1.1227
0.947655
1.59042
0.943208
1.00718
1.30279
0.672549
0.391197
0.981124
1.63566
1.59574
0.102809
2.15065
1.55814
0.204445
1.41831
1.59439
1.40535
0.206518
1.83024
1.67977
0.112417
1.42981
1.18823
0.384038
0.889188
1.52918
0.56788
2.21179
1.37918
1.31568
1.44177
0.298058
1.71696
0.110809
0.470419
1.42751
0.711627
1.52531
1.143
0.273663
0.194455
1.19285
0.889726
1.33622
2.0364
1.66207
0.808033
0.686564
0.41984
1.387
0.169603
0.917403
1.48145
1.65464
1.51338
0.108028
0.505116
0.94892
0.513823
0.984822
1.79696
0.470671
1.41782
2.08031
0.397292
0.152099
1.5925
0.748788
2.1533
0.457882
4.71232
1.72195
1.42301
1.05717
0.983909
6.86299
1.17357
1.05859
0.380934
1.82335
2.10356
0.613971
0.878721
1.43584
2.00143
1.18681
0.382256
0.602129
0.144045
1.42456
1.25417
0.66492
0.785125
0.304003
0.527112
0.587603
1.17644
0.964256
1.2497
1.33189
0.122994
1.52197
0.859353
0.75599
0.949095
1.52043
1.4116
0.895311
0.38221
1.22821
1.51742
0.609523
1.26571
0.358551
0.932115
0.511577
0.310985
1.50656
0.585036
0.85268
0.253403
0.664779
1.23357
0.457831
1.44059
0.185554
0.979644
1.10386
0.54779
1.28104
0.321696
0.858622
1.11696
1.05217
0.390097
1.04663
0.60113
1.50146
0.116462
0.582322
0.807255
1.05818
0.727732
0.507002
1.42384
0.589715
0.449168
2.47349
0.827849
0.148728
1.09898
0.53135
1.20325
0.939525
0.350805
0.424696
1.1468
0.452815
0.288957
1.15697
0.876878
1.74415
1.90444
0.124906
0.507291
0.18547
0.300762
0.152838
0.663942
0.856456
1.19912
1.4671
1.27033
1.39654
0.842685
2.11871
1.47406
0.618063
0.999084
0.628479
0.522369
0.46094
0.531929
0.899746
1.5747
1.56114
0.847467
0.924067
0.545083
0.335937
1.09841
1.14917
1.54419
0.770645
0.889069
0.543836
0.811417
1.55474
0.126322
0.169891
0.207804
1.89348
1.20307
1.19096
0.201963
0.195071
1.4799
0.286043
0.296725
0.191781
0.862396
0.238869
0.465533
0.73141
0.198799
0.178269
0.961762
0.123079
0.259673
0.917282
0.242349
0.175322
1.04146
0.878263
1.42406
1.19527
2.13505
1.81927
0.119825
1.09152
0.262343
1.96929
0.945664
1.32897
0.846853
1.82623
0.344218
1.32031
1.73551
1.77999
2.8136
0.333283
0.703268
1.01093
1.00849
2.73585
1.12058
0.77843
0.322157
0.878339
0.774731
0.546217
0.171171
1.0647
0.298264
1.33759
0.364102
0.435401
0.389297
0.212572
0.476543
1.4202
1.01722
0.419845
0.605455
3.46062
0.250542
1.52678
0.340232
0.274164
0.614719
3.6225
2.9612
1.19992
0.316666
0.151763
1.38712
0.579492
0.490453
0.377127
0.89484
1.96656
0.879883
0.289136
0.561136
0.68424
0.875541
0.199997
1.01453
0.767721
0.513072
0.57828
0.954902
0.785441
0.163496
0.215388
1.43907
0.308224
0.508337
1.14117
0.741296
2.15105
0.456205
1.0725
1.04244
0.98266
0.191645
1.03522
0.869826
1.03385
1.13756
1.12267
0.504343
0.11514
1.28354
1.39371
8.08058
0.959088
0.223873
1.09003
0.322972
6.65075
0.275511
1.04923
1.30234
2.08471
3.11935
1.44874
0.153095
1.53464
0.207982
0.137416
1.57535
0.679175
1.53398
0.223934
0.558751
2.18057
0.950238
0.150514
1.3362
1.52279
0.358929
0.869393
1.11903
0.845758
3.71525
0.313014
1.54651
0.818704
1.84374
0.930285
0.629896
0.444204
1.03292
0.468886
1.25013
1.08199
4.51094
0.935204
1.34974
1.28595
0.906132
1.2178
0.819328
0.723002
0.411852
0.372293
0.310652
0.904918
0.736387
0.91065
0.718932
0.312914
0.966106
1.43719
0.309802
1.4808
0.341344
1.37633
0.273094
1.50593
7.24736
0.986472
0.129907
0.330575
0.391118
0.409891
0.098369
0.244653
0.1556
2.27329
0.985039
0.326737
1.43461
6.4796
3.11994
2.06714
0.846968
0.726666
0.751795
0.744068
0.747141
0.948963
0.696825
0.509374
0.53149
0.515809
0.566255
0.715502
1.0323
0.592333
0.591304
0.625814
0.581366
0.667353
0.639047
0.560462
0.613671
0.598063
0.5403
0.586281
1.55558
1.07814
0.349564
1.29983
0.305854
0.485236
0.297167
1.51916
1.16907
0.885326
0.31403
0.118549
1.46864
3.98906
0.816111
0.371734
1.24663
0.303976
1.44395
0.344765
0.294435
3.54799
0.105973
0.57017
0.308126
0.742963
0.460813
1.06465
1.15956
0.917354
0.39026
1.58615
1.76302
0.928008
0.968539
1.37024
0.185397
0.849347
0.171649
0.945059
0.739013
0.876046
0.546989
1.8633
0.5041
1.39483
0.389831
0.215099
1.78134
0.928437
1.21895
1.22761
0.459284
0.0910933
0.337413
0.477183
0.870702
0.549188
0.126284
0.228185
0.527863
0.80112
0.845067
0.156898
0.379952
0.376338
1.32198
0.376692
9.02485
0.415591
0.960037
0.993621
3.14788
0.567093
1.0324
0.568126
0.380836
0.798325
0.11128
1.06069
0.497769
0.814383
5.0468
1.66825
0.556539
0.479071
0.802769
0.941258
0.672384
1.51994
0.840525
0.111114
1.61187
1.22331
1.17852
1.14604
1.69969
1.03307
0.164978
0.793078
0.143179
1.11218
0.595998
0.351881
0.958663
0.493271
0.498884
0.346208
0.646347
1.27928
5.29243
0.342422
0.793388
0.546633
0.364692
0.771839
3.61072
0.546776
0.228159
1.12844
1.46224
1.26311
1.08194
0.337739
1.1997
0.308836
0.399269
1.04155
2.00572
0.595806
0.238232
0.753285
0.260097
1.19073
0.972024
1.15661
1.65156
2.60458
1.47601
0.891499
1.46015
0.286984
0.36116
0.680113
0.330237
0.829752
0.398428
0.350232
1.64033
0.25695
1.15165
1.89987
1.52801
0.62372
0.850281
1.40878
0.655169
0.282169
0.718388
1.61897
1.43231
0.632573
0.572079
0.481147
0.496452
0.527361
0.724045
0.727186
0.728376
0.592781
0.735023
0.247308
0.284222
0.2991
0.24328
0.236543
0.284342
1.04317
0.266165
1.6564
1.14549
1.62227
0.55221
0.44584
1.07112
0.178396
0.414394
0.545095
0.96065
1.07446
0.317797
0.218855
0.205674
0.114065
0.402219
1.14696
1.32996
0.270194
1.04016
0.85346
0.667839
7.90018
1.12239
0.606116
0.131618
0.586279
0.803522
1.33066
1.1722
0.816424
0.478607
0.399329
0.119891
1.04158
0.516864
0.406038
0.351225
0.428577
0.495845
0.39201
1.00716
0.635238
1.65395
1.28803
0.606809
0.760717
2.61476
0.14301
1.10616
1.88032
0.395621
1.08512
0.300502
0.204791
0.318305
1.10297
0.321714
0.329248
1.59242
1.81698
1.98728
0.545769
1.07448
0.10649
0.554774
2.11672
0.972485
0.625513
1.01486
0.856247
1.51136
0.804656
0.989672
1.11736
1.04589
0.587107
0.424173
1.35466
0.307532
0.358959
2.13959
1.06342
1.29156
0.977247
0.491791
0.346454
1.82275
0.817791
1.57509
2.61716
1.45788
0.292197
0.460416
0.275162
0.160341
1.10461
1.78058
0.730559
0.726529
0.446383
0.569574
2.12298
0.675249
1.87151
1.64303
0.384603
0.402139
4.23486
0.115878
0.320369
0.69245
0.3679
0.442445
1.97304
0.766163
0.866396
1.05214
1.01597
0.214637
1.31976
1.6726
0.61128
0.531346
0.351272
0.209612
0.510606
0.788555
1.58208
1.08519
0.319571
1.26849
0.425325
1.1087
0.6478
0.336742
0.486336
0.253823
0.435773
0.366299
7.03345
1.04067
0.304581
0.516674
1.34126
0.401866
0.306832
1.71736
1.67174
0.0923717
1.48458
0.162344
1.54824
0.398952
0.186906
1.01886
0.360788
0.968767
0.299825
2.41107
2.03867
3.22277
0.184003
1.31287
0.294401
0.354774
0.367148
0.120128
1.71479
0.344156
0.887559
0.468407
3.04309
0.314712
0.335424
0.455041
1.16063
0.823573
0.364646
0.824444
0.461024
1.27698
1.5022
1.18951
0.208001
0.366495
0.276607
0.707365
2.53602
1.48757
0.755861
0.557876
0.945283
0.114891
1.49714
0.95388
1.24248
3.8352
0.746841
0.341206
0.542342
0.764907
1.73307
0.827604
1.24766
0.182816
3.88136
1.69248
1.31087
0.524978
6.22342
0.320552
1.29518
0.277498
1.41837
1.08008
0.311114
3.08456
0.845336
1.02237
0.285659
5.58779
0.271614
2.45129
0.81001
1.24885
1.60749
3.0635
3.10273
1.57047
1.03555
0.297958
0.361152
0.329767
1.04018
0.116254
1.25908
0.311274
0.372269
0.795245
5.01788
0.542036
0.237466
0.24851
1.05519
1.06627
0.298918
0.103894
3.86257
0.419251
0.270646
1.6808
0.448513
0.190475
1.0389
0.113827
0.569438
1.0897
0.881432
4.89188
1.05044
0.296136
0.122079
0.183943
0.857031
1.11399
0.241892
0.271784
0.750635
1.13204
1.10326
1.09455
0.880187
1.09631
0.339911
1.21319
0.988982
0.463306
1.04295
0.338782
0.520538
1.0019
1.00716
1.04277
1.09096
0.338283
0.31809
0.880445
1.01379
0.21585
0.936904
0.986232
1.1643
0.561255
1.25683
0.338218
0.218653
0.973635
0.852276
0.107512
0.879815
1.25308
1.17461
0.907797
1.1411
0.2633
1.15175
0.305507
0.692401
0.230958
0.299593
0.103469
1.87216
0.288123
1.63431
1.38753
1.26321
0.415011
0.868613
0.238074
0.899827
0.363666
0.726531
1.69511
1.00441
0.359067
0.0994284
0.132182
0.524097
0.935822
0.118809
0.0700562
0.451461
0.864739
0.566362
0.727373
0.525923
0.271896
0.108944
0.0713993
0.102597
)
;

boundaryField
{
    frontAndBack
    {
        type            empty;
    }
    wallOuter
    {
        type            kqRWallFunction;
        value           nonuniform List<scalar> 
96
(
0.835393
0.547243
0.522029
0.899746
0.924067
0.889069
0.207804
0.201963
0.195071
0.286043
0.191781
0.238869
0.198799
0.961762
0.259673
0.322157
0.878339
0.546217
0.199997
0.215388
0.191645
0.223934
0.558751
0.358929
0.869393
0.846968
0.726666
0.751795
0.744068
0.747141
0.948963
0.696825
0.509374
0.53149
0.515809
0.566255
0.715502
1.0323
0.592333
0.591304
0.625814
0.581366
0.667353
0.639047
0.560462
0.613671
0.598063
0.5403
0.586281
0.57017
0.876046
0.546989
0.549188
0.228185
0.845067
0.556539
1.14604
0.793388
0.546633
0.546776
0.399269
0.238232
0.260097
1.15661
0.655169
0.718388
0.632573
0.572079
0.481147
0.496452
0.527361
0.724045
0.727186
0.728376
0.592781
0.735023
0.247308
0.284222
0.2991
0.24328
0.236543
0.284342
0.55221
0.218855
0.516864
0.545769
0.730559
0.209612
0.435773
0.461024
0.755861
0.557876
0.271614
1.03555
0.795245
0.24851
)
;
    }
    inlet
    {
        type            fixedValue;
        value           nonuniform 0();
    }
    outlet
    {
        type            zeroGradient;
    }
    wallInner
    {
        type            kqRWallFunction;
        value           nonuniform List<scalar> 
126
(
0.256075
0.179111
0.123042
0.366788
0.0865737
0.0819091
0.638455
0.193484
0.671241
0.230881
0.111756
0.355916
1.71892
0.155135
0.318344
0.114298
0.275197
0.11706
0.806489
0.738352
0.268588
0.375171
0.242458
0.519254
0.80065
0.115353
0.212071
0.396975
0.437691
0.0803777
0.453301
0.089192
1.66701
0.3032
1.08193
0.238917
0.886161
0.250043
0.463955
0.0816291
0.607911
0.243013
0.311487
0.103304
0.300642
0.134632
0.482921
1.48711
0.233776
1.22762
1.2811
0.409173
0.914881
0.0877949
0.846103
1.04834
0.0893659
1.60598
1.39676
0.900059
1.35399
0.206778
0.236422
1.09447
1.05441
0.711453
1.05091
0.97027
1.10768
0.791993
1.1115
0.967727
0.152591
0.305432
1.41831
1.52918
0.194455
0.41984
1.48145
0.513823
1.41782
0.457882
1.18681
0.144045
1.33189
0.859353
0.609523
1.05217
0.507002
0.424696
0.124906
0.178269
0.123079
0.614719
0.129907
0.098369
0.928437
0.856247
0.542036
0.237466
0.299593
0.103469
0.288123
1.38753
1.26321
0.415011
0.238074
0.363666
0.726531
1.69511
1.00441
0.359067
0.0994284
0.524097
0.935822
0.118809
0.0700562
0.451461
0.864739
0.566362
0.727373
0.525923
0.271896
0.108944
0.0713993
0.102597
)
;
    }
    procBoundary3to1
    {
        type            processor;
        value           nonuniform List<scalar> 
48
(
1.82206
2.1876
1.96165
1.92439
1.69902
1.84452
2.1876
0.841565
1.28645
0.245749
0.245749
0.370179
0.370179
1.5
1.67381
0.401334
0.410748
0.342101
0.410748
0.360772
0.978258
0.90017
0.360772
0.884758
0.121228
0.391355
0.686313
0.90017
0.680337
0.489685
0.489685
0.76515
0.76515
1.28645
0.386984
1.50818
0.934681
0.121228
1.67831
1.37876
1.5
0.998283
1.05595
0.360772
1.72274
0.914126
1.62297
1.10972
)
;
    }
    procBoundary3to2
    {
        type            processor;
        value           nonuniform List<scalar> 
29
(
0.120055
0.120055
0.123389
0.21522
0.601141
0.134263
0.251063
0.15301
0.364208
0.305702
0.157491
0.826568
0.116482
0.647586
0.475687
0.556239
0.27447
0.361431
0.124568
0.412969
0.397928
0.27447
0.249258
0.361431
0.441277
0.268931
0.361431
1.32763
1.32763
)
;
    }
}


// ************************************************************************* //
