/*--------------------------------*- C++ -*----------------------------------*\
| =========                 |                                                 |
| \\      /  F ield         | OpenFOAM: The Open Source CFD Toolbox           |
|  \\    /   O peration     | Version:  v1912                                 |
|   \\  /    A nd           | Website:  www.openfoam.com                      |
|    \\/     M anipulation  |                                                 |
\*---------------------------------------------------------------------------*/
FoamFile
{
    version     2.0;
    format      ascii;
    class       volScalarField;
    location    "0.31";
    object      nut;
}
// * * * * * * * * * * * * * * * * * * * * * * * * * * * * * * * * * * * * * //

dimensions      [0 2 -1 0 0 0 0];


internalField   nonuniform List<scalar> 
1431
(
0.00276309
0.0053412
0.0018092
0.00168733
0.000869872
0.00222792
0.00225655
0.00454974
0.00104218
0.00126848
0.00393994
0.00481686
0.00461061
0.00141145
0.000693725
0.00226255
0.00118942
0.00118864
0.00159344
0.0016658
0.00508538
0.0033891
0.000937319
0.0057548
0.000864719
0.0042666
0.00355166
0.00096893
0.000919948
0.000766575
0.0026506
0.00263505
0.00273465
0.000878088
0.00214272
0.00249839
0.00558898
0.000620915
0.00362485
0.00256496
0.00399125
0.00460201
0.00473111
0.00370064
0.00192156
0.00104927
0.00217345
0.00340429
0.00249032
0.00101423
0.00238309
0.00410076
0.00196024
0.00683452
0.00406218
0.00180123
0.00052644
0.00584514
0.000904907
0.00068775
0.000758051
0.0011926
0.00051925
0.000571174
0.0011318
0.000595221
0.00140852
0.00102231
0.000592343
0.000961382
0.0025488
0.00074931
0.000966915
0.000566568
0.00105504
0.000541542
0.00145104
0.00162117
0.00104126
0.00111545
0.0009239
0.00121286
0.00307016
0.00223698
0.00286718
0.00440795
0.00131536
0.00110917
0.00406898
0.00386466
0.000631555
0.000806366
0.000718495
0.00288008
0.00273142
0.000699947
0.00568227
0.00522758
0.00299356
0.00161998
0.0020433
0.0015122
0.00139273
0.00128733
0.00178786
0.00243919
0.00306584
0.00292543
0.000964515
0.00112028
0.00120309
0.00438972
0.00360724
0.00382098
0.00432924
0.000702064
0.000914244
0.00120124
0.00109971
0.000463281
0.00104013
0.000532463
0.0018022
0.000928964
0.00158853
0.000819367
0.00173876
0.00105467
0.00229483
0.00190032
0.0007679
0.00105557
0.00281034
0.00128789
0.00169567
0.000760981
0.00232606
0.00160814
0.00443719
0.00045245
0.00143666
0.00268172
0.000777574
0.000802184
0.00121758
0.00266722
0.000562166
0.00209682
0.00190928
0.00101801
0.000799123
0.000745323
0.00261807
0.00122745
0.00338954
0.00100702
0.00391707
0.00491937
0.00357612
0.00319846
0.00558911
0.00468595
0.00200782
0.0022436
0.00201579
0.00346673
0.00346491
0.00294506
0.00082502
0.00486765
0.00525656
0.00263712
0.00263758
0.00450942
0.0053712
0.00381268
0.00252492
0.002109
0.00191745
0.00207706
0.000688557
0.00415336
0.00321961
0.00809321
0.0022966
0.00136422
0.00138611
0.00534473
0.00260734
0.00336474
0.00282279
0.00257792
0.00266009
0.00336267
0.00106476
0.00443488
0.00551111
0.00193577
0.000603909
0.000770797
0.00491343
0.00215731
0.00381426
0.00134938
0.00416082
0.00279597
0.00239481
0.000569486
0.00492112
0.00130696
0.00138294
0.00167946
0.00303077
0.00248612
0.00440255
0.00165483
0.00279602
0.00203153
0.00355243
0.00372212
0.00324414
0.00344585
0.0010002
0.00224673
0.00354377
0.0058249
0.00386313
0.00503442
0.0028874
0.00312828
0.0026965
0.00271325
0.00235625
0.00265771
0.00276202
0.00515423
0.00299347
0.00265674
0.0028233
0.00494087
0.00372453
0.00297115
0.00529402
0.00264916
0.00259719
0.00329748
0.00266716
0.00355543
0.00343658
0.000895226
0.00125525
0.00486924
0.00312294
0.00301879
0.00282491
0.00453625
0.00304692
0.00650867
0.00547089
0.00269156
0.00176402
0.00441879
0.00331763
0.00236833
0.0037931
0.00406209
0.00205941
0.00421859
0.00339349
0.000374669
0.00123433
0.0029441
0.00520552
0.00531302
0.00545333
0.00253914
0.00530016
0.0027541
0.00108132
0.00157316
0.00262735
0.00454345
0.00263767
0.00335097
0.00350928
0.00453978
0.00432785
0.00538334
0.00264025
0.00554333
0.000425558
0.00225865
0.00560056
0.00325946
0.00283474
0.00266061
0.00167518
0.00153287
0.00218568
0.00111271
0.0020978
0.0017976
0.00500189
0.00401866
0.00239753
0.00297159
0.00520548
0.00254356
0.00451455
0.0047326
0.00382162
0.000678314
0.000800107
0.00121888
0.00127502
0.00520735
0.00192247
0.00379274
0.0010413
0.0100817
0.00432892
0.00489896
0.00133564
0.00317783
0.0021591
0.00171022
0.00125487
0.002253
0.00800737
0.00285485
0.00119233
0.000994327
0.00186356
0.00401756
0.0034631
0.00413413
0.00363569
0.00499985
0.00223739
0.00117592
0.0016834
0.00423999
0.00301863
0.00410221
0.00111316
0.00248914
0.00566982
0.00519609
0.00315617
0.00350804
0.00243451
0.00156118
0.00291116
0.00325156
0.0013297
0.00360494
0.00315713
0.00128072
0.00438367
0.00414193
0.00313609
0.00136527
0.00114237
0.00475998
0.000966936
0.00239261
0.00119426
0.00883175
0.00266678
0.00250665
0.00360076
0.000949827
0.00418755
0.00311538
0.00442953
0.00831101
0.00398195
0.00290116
0.00524749
0.00920199
0.00455991
0.00231758
0.00227726
0.00122438
0.0105776
0.0014622
0.00183602
0.00133922
0.0020691
0.00292445
0.00406586
0.00207309
0.00213725
0.00289647
0.00559223
0.00280402
0.00350465
0.00362676
0.00143654
0.00207726
0.00293772
0.00450016
0.00541202
0.00464226
0.00308473
0.0026667
0.00195956
0.000510932
0.00318617
0.00248023
0.00354193
0.0020457
0.00234551
0.00595319
0.00142517
0.00141127
0.00260803
0.000772128
0.00232614
0.00225572
0.00388721
0.00518062
0.00363284
0.00285321
0.00222746
0.00076121
0.00186417
0.00341679
0.00384221
0.00516906
0.0054177
0.00548959
0.00542132
0.00556694
0.00532495
0.00516886
0.00535443
0.00455364
0.0050789
0.00450644
0.000933016
0.00446029
0.00111342
0.00133875
0.00180628
0.00147003
0.00114188
0.00101081
0.00216847
0.00244565
0.00237156
0.00095018
0.00203388
0.00126443
0.00174053
0.00248155
0.00282112
0.00618876
0.000972215
0.00493395
0.00254551
0.00139122
0.00579815
0.00235305
0.00489342
0.00121832
0.0014862
0.00546348
0.000930087
0.00514887
0.0036279
0.00377251
0.00151368
0.00365696
0.00442884
0.00454388
0.000729186
0.00176365
0.00153766
0.00355154
0.00408836
0.00149466
0.00443888
0.00337733
0.00183427
0.00381559
0.00180518
0.00187846
0.00442479
0.00285474
0.00437537
0.0038745
0.00410475
0.00342008
0.00354316
0.00187815
0.00386834
0.00424533
0.00480747
0.000793801
0.00572516
0.00377599
0.000635759
0.0013963
0.00413983
0.0045926
0.000956119
0.00498988
0.00416519
0.00110833
0.00351977
0.00462592
0.00174803
0.00396718
0.00130085
0.00257678
0.00573755
0.00368563
0.00412644
0.0044356
0.00212669
0.00405115
0.00103199
0.002824
0.0038805
0.00355121
0.0040049
0.00255421
0.00104089
0.000542275
0.00517931
0.00210943
0.00427169
0.00433101
0.00451561
0.00436913
0.00208232
0.000818671
0.0039838
0.000763722
0.00332555
0.00174973
0.0034874
0.00338389
0.000770378
0.00193312
0.00324463
0.000887836
0.00340487
0.00461729
0.00200921
0.00149815
0.00423711
0.00215358
0.000873854
0.00269909
0.0037596
0.00578688
0.000845606
0.00578902
0.00452829
0.0042197
0.00441698
0.0035319
0.00768943
0.00288431
0.00313886
0.00224489
0.00619814
0.00452942
0.00267904
0.00321808
0.00489505
0.00471516
0.00138817
0.00216044
0.00303501
0.000478078
0.00538059
0.00539542
0.00278839
0.00296187
0.00215153
0.00234949
0.00259017
0.00316439
0.00266099
0.0030188
0.00150792
0.00129298
0.00574428
0.00133506
0.00218858
0.00301779
0.00371716
0.00422901
0.00393968
0.00182923
0.00553919
0.00466979
0.000985828
0.00417085
0.00192509
0.00196647
0.00247137
0.00226548
0.00180838
0.00268578
0.00452776
0.00110645
0.00330766
0.00353826
0.00222026
0.00528473
0.00111136
0.00265386
0.00236607
0.00330076
0.00563576
0.00202669
0.0045635
0.00445419
0.0013068
0.00216224
0.00370524
0.00257829
0.00426579
0.00133521
0.00269618
0.00318126
0.00386002
0.00205708
0.00101769
0.0048048
0.00263576
0.00219576
0.00433374
0.00444406
0.00077399
0.00451972
0.00166486
0.00495042
0.00472006
0.00197251
0.00109816
0.00388107
0.00231001
0.00205338
0.00202844
0.00351468
0.0061424
0.00445968
0.000431512
0.00239577
0.000990242
0.00219796
0.000988796
0.00270901
0.00476102
0.00495084
0.00569806
0.00382736
0.0043682
0.00338055
0.00581725
0.00446955
0.00201195
0.00470881
0.00200739
0.00136141
0.00226482
0.00317724
0.00107923
0.00448851
0.00594467
0.00269934
0.00109649
0.00371646
0.00224631
0.00542337
0.00559162
0.00412337
0.00306388
0.0010661
0.00147926
0.00216007
0.0057028
0.000776183
0.000856056
0.000493123
0.00384148
0.00283676
0.00272808
0.000486372
0.000454589
0.00517394
0.000566116
0.002194
0.000427702
0.00350358
0.000511237
0.00213624
0.00293244
0.000476105
0.000817037
0.00113338
0.000413521
0.000534361
0.00337046
0.00162224
0.00120754
0.00271376
0.0024903
0.00345421
0.00200067
0.00396944
0.00613074
0.000700163
0.005361
0.00102338
0.00397676
0.00275272
0.00481811
0.00335184
0.00343844
0.00194267
0.00262466
0.00560755
0.00301078
0.00419536
0.00136332
0.00389176
0.00516749
0.00503145
0.00564348
0.00286175
0.00197565
0.000611321
0.00104244
0.00392407
0.000767672
0.00123297
0.0053015
0.0022111
0.00545257
0.00227259
0.00254217
0.00139695
0.0011934
0.0020965
0.00411261
0.0040517
0.00253582
0.00318755
0.00642465
0.00134972
0.00350364
0.00112556
0.00174175
0.00106793
0.00722686
0.00601854
0.00316324
0.00155638
0.000920102
0.003104
0.00322418
0.00270708
0.00190143
0.00431489
0.00579632
0.00239456
0.00147082
0.00157629
0.00190866
0.00272597
0.000460333
0.00236365
0.00261901
0.0013664
0.00239442
0.00242638
0.00321336
0.000747136
0.000500569
0.00458658
0.00226971
0.00198797
0.00270465
0.00261127
0.00570851
0.00157779
0.00254954
0.00327835
0.00247986
0.000418697
0.00470958
0.00217927
0.00446022
0.00405687
0.00262141
0.00323642
0.000618962
0.00540582
0.00541985
0.00895631
0.00252123
0.00166381
0.00261704
0.00229277
0.010434
0.00129318
0.00394846
0.00418597
0.00468783
0.00673246
0.00571198
0.000810341
0.0052197
0.000933122
0.000869765
0.00358229
0.00293445
0.00445282
0.000502682
0.000778842
0.00459632
0.0026204
0.00100112
0.00446773
0.00461465
0.000656619
0.000984321
0.00263828
0.00322941
0.00730094
0.00117625
0.00548722
0.00312363
0.00430731
0.00354182
0.00193143
0.0016751
0.00241376
0.00233762
0.00523738
0.00291211
0.00857833
0.00202342
0.00525765
0.00291349
0.00254578
0.00410344
0.00279259
0.00156948
0.00111385
0.00215724
0.00206996
0.00223425
0.00188542
0.00286082
0.00281625
0.00222639
0.00317082
0.00503861
0.00154384
0.00536791
0.00174855
0.00510887
0.00166337
0.0044835
0.00850246
0.00305233
0.000376844
0.00170334
0.00134267
0.00218226
0.000590076
0.00146599
0.000726115
0.00478144
0.00448149
0.00111218
0.00253125
0.00877449
0.0059383
0.00326583
0.00084058
0.000906293
0.000871813
0.000755099
0.000804412
0.000962527
0.00089162
0.000592078
0.000707936
0.000631426
0.000666504
0.000725702
0.0010492
0.000763475
0.000680991
0.000680877
0.00079955
0.00083784
0.000787199
0.000787062
0.000745935
0.000743347
0.000752848
0.000759592
0.00562747
0.00409232
0.00124411
0.00509007
0.0022338
0.00338744
0.00194108
0.0033031
0.00245503
0.0025276
0.00199938
0.000504526
0.00395929
0.00757806
0.00423768
0.00174452
0.00471457
0.00223797
0.0052414
0.00230263
0.0013239
0.00743947
0.000749568
0.000762902
0.00218786
0.00275122
0.00245993
0.00244007
0.00416064
0.00179403
0.00221922
0.00559581
0.00380243
0.00336995
0.00366513
0.00422396
0.000790614
0.00386414
0.00102859
0.00385565
0.00310576
0.00102106
0.000771928
0.00566748
0.0019122
0.00385894
0.00229309
0.00100481
0.00426475
0.00112453
0.00402453
0.00401777
0.00191269
0.000513297
0.00134555
0.00280616
0.00443442
0.000694289
0.000779785
0.000546052
0.00204554
0.00236061
0.000860236
0.000943419
0.00214184
0.00139248
0.00560638
0.00183545
0.010547
0.00193814
0.00257177
0.00326302
0.00535489
0.00225193
0.00480171
0.0031729
0.00187853
0.00407271
0.000973974
0.00220811
0.0023997
0.00234712
0.00600378
0.00473356
0.000728167
0.00205666
0.00336624
0.00202754
0.00405343
0.00362286
0.00239356
0.00111167
0.00385678
0.00287261
0.0053551
0.0011422
0.00445789
0.00480506
0.000804695
0.00377235
0.000966263
0.00172249
0.00141477
0.00211021
0.00370833
0.00201184
0.00105117
0.00195244
0.00243993
0.00334916
0.00598732
0.00173671
0.000819939
0.000731192
0.00225076
0.00273586
0.00669757
0.000770686
0.00154431
0.00275938
0.00539174
0.00442544
0.00521456
0.0021866
0.00286477
0.00199334
0.000698443
0.00324569
0.00457938
0.00235561
0.000545284
0.00185191
0.000552857
0.00325252
0.0034687
0.00131824
0.00543356
0.00469844
0.0048983
0.00271832
0.0033527
0.00189947
0.00227675
0.00181085
0.00126744
0.00423856
0.00222756
0.00204034
0.00448567
0.00187113
0.00539712
0.00461913
0.00551821
0.00164342
0.00219431
0.00485662
0.000943065
0.00156693
0.00109577
0.00582191
0.00443589
0.000897531
0.000737879
0.000738676
0.000714983
0.000716068
0.0011166
0.00101754
0.00099835
0.000805058
0.00103666
0.000554554
0.000523203
0.00048055
0.000502147
0.000378542
0.000475437
0.00380164
0.00184229
0.00449407
0.0026208
0.00396666
0.000760769
0.0027934
0.00521029
0.000847627
0.00223878
0.00241584
0.00414243
0.0029245
0.00172132
0.000544019
0.000686825
0.00113449
0.00227762
0.00525854
0.0032325
0.00196176
0.00286767
0.00466453
0.00260023
0.0104743
0.00304575
0.00178493
0.00130296
0.00341675
0.00242917
0.00371517
0.00307836
0.00253974
0.00184738
0.00216811
0.000821312
0.00461471
0.000665887
0.00235643
0.00133619
0.00260743
0.0028245
0.00178459
0.00240862
0.00362967
0.00446823
0.00316794
0.00351987
0.00208964
0.00333199
0.000852338
0.00275469
0.00420925
0.00235258
0.00350147
0.0014546
0.000902192
0.00209905
0.00305648
0.00129861
0.00207635
0.00363647
0.00335868
0.00472218
0.000709477
0.0025498
0.00106033
0.00283112
0.00473762
0.00193981
0.00277428
0.00283764
0.00119881
0.00375642
0.00421754
0.00260043
0.00439162
0.00167585
0.00220542
0.00148885
0.00496918
0.00165236
0.00126629
0.0047658
0.00375295
0.00364238
0.00260888
0.00197765
0.00223763
0.00461469
0.00190995
0.00386749
0.00509599
0.0033552
0.00204797
0.00150337
0.00147143
0.00120938
0.00253634
0.00450802
0.000787607
0.00268229
0.00188751
0.00279314
0.00378541
0.00336173
0.0037233
0.00420513
0.00151593
0.00253447
0.00806817
0.000935204
0.00225299
0.00415408
0.00189417
0.00172213
0.00463726
0.003311
0.00119568
0.00272493
0.00414835
0.00145646
0.00414635
0.00434361
0.00412262
0.00277973
0.00127215
0.000520451
0.00277457
0.00294835
0.00426746
0.0036382
0.00196922
0.00428112
0.00186305
0.00243636
0.00281209
0.00148053
0.00165396
0.00180669
0.000734326
0.00183583
0.0104733
0.00232095
0.00154087
0.00218331
0.00406761
0.0019546
0.00133939
0.00432504
0.00314514
0.00055529
0.00337097
0.000990954
0.00323613
0.00221125
0.00137184
0.00384158
0.00221713
0.00414416
0.00214157
0.00468564
0.00455314
0.00500739
0.00126137
0.00407582
0.00208503
0.0020769
0.00222208
0.000764406
0.00255806
0.00224283
0.00376372
0.00203758
0.00430116
0.00192111
0.00192222
0.0013447
0.00350931
0.00241694
0.00186063
0.00195014
0.000745878
0.00359073
0.00564863
0.00427143
0.00150383
0.0020074
0.00178608
0.00302432
0.00492747
0.00352598
0.000750434
0.000688939
0.00138528
0.0012549
0.00212432
0.00270769
0.00328262
0.00718304
0.00312966
0.00148038
0.00323437
0.00279023
0.0034497
0.00251511
0.00281221
0.000822408
0.00772622
0.00393831
0.00459057
0.0015649
0.0098755
0.00225948
0.00376873
0.000971871
0.0045166
0.00202549
0.00163468
0.00590646
0.00402835
0.00471061
0.00131459
0.0100045
0.000543933
0.0037044
0.0037501
0.00349237
0.00385323
0.00586945
0.00593714
0.00531705
0.00120374
0.00144515
0.00101497
0.00183236
0.00174354
0.00105097
0.00385066
0.00129756
0.00211471
0.00063997
0.00881079
0.000909319
0.000589465
0.000551042
0.00330218
0.00504548
0.00128644
0.000616232
0.00776125
0.00229773
0.00122074
0.00346784
0.00250529
0.0013226
0.00236941
0.00125344
0.00270378
0.00515112
0.0036841
0.00920438
0.00497423
0.0021669
0.00116311
0.000801915
0.00184598
0.00256488
0.00146316
0.00141446
0.00310369
0.00245379
0.00256475
0.00254153
0.00388469
0.00250746
0.00110789
0.00264921
0.00271735
0.00257932
0.00492485
0.00153252
0.00340516
0.00434709
0.00269128
0.00264605
0.00296552
0.00122224
0.000796489
0.0037563
0.00398357
0.00135071
0.00155013
0.00423441
0.00427441
0.00169248
0.00302319
0.00105818
0.000850916
0.00282367
0.00243528
0.000655673
0.00348619
0.00516415
0.00241044
0.00254662
0.00388058
0.0018299
0.00433693
0.00197001
0.00305255
0.00161136
0.000638442
0.000488401
0.00326111
0.000967114
0.00304442
0.00159235
0.00151759
0.000926475
0.00116844
0.000723928
0.00261209
0.000703297
0.00142125
0.00223226
0.00176781
0.000910962
0.000419333
0.000617658
0.000901375
0.00124043
0.000449253
0.000321212
0.000864833
0.00163319
0.0012971
0.00120261
0.00116615
0.00073365
0.000540817
0.000398884
0.000450298
)
;

boundaryField
{
    frontAndBack
    {
        type            empty;
    }
    wallOuter
    {
        type            nutkWallFunction;
        Cmu             0.09;
        kappa           0.41;
        E               9.8;
        value           nonuniform List<scalar> 
96
(
0.000107809
9.14188e-05
8.39518e-05
0.000126552
0.00012848
0.000125097
5.89685e-05
5.82841e-05
5.47034e-05
6.73073e-05
5.15591e-05
6.08653e-05
5.71722e-05
0.000132599
6.35629e-05
7.26508e-05
0.000122479
9.29005e-05
5.58122e-05
5.97495e-05
5.05955e-05
5.99208e-05
9.41947e-05
7.80347e-05
0.000116024
0.000101417
0.000105607
0.000102038
8.90376e-05
9.45646e-05
0.000115557
0.000103873
7.19562e-05
8.58569e-05
7.67235e-05
8.08551e-05
8.76764e-05
0.000125414
9.20785e-05
8.18748e-05
8.20401e-05
9.60872e-05
9.781e-05
9.21355e-05
9.44998e-05
8.75908e-05
8.75773e-05
9.02946e-05
8.98815e-05
9.07076e-05
0.000119073
9.20237e-05
8.36655e-05
6.64447e-05
0.000102081
8.71541e-05
0.000135843
9.6539e-05
8.74117e-05
9.1938e-05
8.3021e-05
6.64126e-05
6.74273e-05
0.000153197
0.000111376
0.000128349
0.000106273
8.93032e-05
8.80053e-05
8.5307e-05
8.54794e-05
0.00013063
0.00011967
0.00011752
9.57679e-05
0.000121747
6.74567e-05
6.38859e-05
5.86709e-05
6.11877e-05
4.59423e-05
5.80516e-05
9.08675e-05
6.61241e-05
7.99641e-05
8.50333e-05
9.37443e-05
6.32019e-05
8.73021e-05
8.87477e-05
8.86051e-05
8.25797e-05
6.63832e-05
0.000140453
7.67313e-05
6.71751e-05
)
;
    }
    inlet
    {
        type            calculated;
        value           nonuniform 0();
    }
    outlet
    {
        type            calculated;
        value           nonuniform List<scalar> 9(0.00883175 0.0105776 0.00180838 0.00642465 0.00895631 0.00598732 0.00131824 0.00333199 0.00420925);
    }
    wallInner
    {
        type            nutkWallFunction;
        Cmu             0.09;
        kappa           0.41;
        E               9.8;
        value           nonuniform List<scalar> 
126
(
0.000107675
8.90227e-05
8.66444e-05
0.000138919
6.19362e-05
6.73321e-05
0.000130625
7.22945e-05
0.000165832
0.000101491
6.96742e-05
0.000114167
0.000284457
8.91458e-05
0.000114768
6.81412e-05
0.000124688
6.60328e-05
0.000170506
0.000173356
0.000124904
0.000133437
0.000110811
0.00014074
0.000191085
8.50394e-05
0.000108472
0.000140888
0.000129432
5.46914e-05
0.000123845
6.54606e-05
0.000204136
0.000110524
0.000187851
9.98936e-05
0.000201271
9.35918e-05
0.000125752
5.4386e-05
0.000163749
9.35659e-05
9.85698e-05
6.6644e-05
0.000114456
8.64255e-05
0.000143418
0.000227519
8.34586e-05
0.000157462
0.000159949
0.000125671
0.00016009
4.55143e-05
0.000127828
0.000179884
5.10652e-05
0.000191267
0.000175173
0.000131282
0.000199035
8.3761e-05
9.54963e-05
0.000144579
0.000197923
0.000149621
0.000139619
0.000136916
0.00018494
0.000150171
0.00015775
0.000134405
5.61769e-05
7.84463e-05
0.000165454
0.000154068
6.26897e-05
9.98081e-05
0.000202303
0.000105871
0.000176535
0.000102075
0.00015589
5.89986e-05
0.000168456
0.000127789
0.000116398
0.000147005
0.000118817
9.8517e-05
5.29678e-05
7.03861e-05
5.18876e-05
0.000110395
4.79769e-05
6.13104e-05
0.000127373
0.000143626
0.000108608
7.2559e-05
7.78064e-05
4.79276e-05
0.000112693
0.000184979
0.000171917
0.00010705
8.39026e-05
8.32179e-05
0.000164594
0.000250546
0.000194846
0.000110403
5.12119e-05
0.000106236
0.000146386
5.55231e-05
3.87191e-05
0.000104214
0.000185803
0.000121505
0.000143309
0.000123338
8.83297e-05
6.5977e-05
4.67101e-05
5.47719e-05
)
;
    }
    procBoundary3to1
    {
        type            processor;
        value           nonuniform List<scalar> 
48
(
0.00580289
0.00373733
0.00406549
0.00564625
0.00383976
0.00304639
0.00373733
0.00465171
0.00546517
0.0012179
0.0012179
0.00150957
0.00150957
0.00533155
0.00556457
0.0015954
0.00190879
0.00157269
0.00190879
0.00183627
0.00454845
0.00410103
0.00183627
0.0017762
0.000831462
0.00166496
0.00368519
0.00410103
0.0038666
0.00148133
0.00148133
0.00436658
0.00436658
0.00546517
0.00168502
0.003244
0.00497907
0.000831462
0.00595466
0.00319544
0.00533155
0.00507655
0.00508472
0.00183627
0.00555084
0.00109504
0.00376285
0.00487498
)
;
    }
    procBoundary3to2
    {
        type            processor;
        value           nonuniform List<scalar> 
29
(
0.000803797
0.000803797
0.000522187
0.000715367
0.00107494
0.000617658
0.000762161
0.00084578
0.00219577
0.00166731
0.000762866
0.0023285
0.000750539
0.002602
0.0031456
0.00246657
0.00148073
0.00200534
0.000911127
0.00224002
0.00246898
0.00148073
0.00057556
0.00200534
0.00277833
0.00129279
0.00200534
0.00416623
0.00416623
)
;
    }
}


// ************************************************************************* //
