/*--------------------------------*- C++ -*----------------------------------*\
| =========                 |                                                 |
| \\      /  F ield         | OpenFOAM: The Open Source CFD Toolbox           |
|  \\    /   O peration     | Version:  v1912                                 |
|   \\  /    A nd           | Website:  www.openfoam.com                      |
|    \\/     M anipulation  |                                                 |
\*---------------------------------------------------------------------------*/
FoamFile
{
    version     2.0;
    format      ascii;
    class       volVectorField;
    location    "0.31";
    object      U;
}
// * * * * * * * * * * * * * * * * * * * * * * * * * * * * * * * * * * * * * //

dimensions      [0 1 -1 0 0 0 0];


internalField   nonuniform List<vector> 
1431
(
(0.546916 1.04252 1.25271e-16)
(2.5393 0.835167 3.01442e-17)
(-4.43491 0.0340484 0)
(-1.24441 0.0874959 1.82215e-16)
(-0.929172 -0.399919 0)
(-0.14171 2.01322 2.88274e-16)
(1.40217 0.329815 4.06731e-16)
(1.89054 0.317932 5.53823e-17)
(-0.210561 1.66757 2.16004e-16)
(2.00765 0.0208267 3.62296e-16)
(2.92959 10.0199 2.00315e-17)
(7.03075 0.0120641 0)
(-2.55219 6.45688 -1.07282e-16)
(-1.02681 0.0384657 -5.32014e-16)
(0.257448 -0.282843 0)
(1.31005 -0.0141345 -3.58707e-16)
(2.6751 0.00426219 -2.56582e-16)
(-2.95001 -0.154242 0)
(2.98354 -0.0820864 -2.04295e-16)
(-2.03008 0.59594 1.18541e-16)
(4.29943 9.35699 -6.77182e-19)
(-0.373103 0.0326211 2.23861e-16)
(-0.259621 1.3878 -2.2306e-16)
(12.1061 2.04554 -3.52538e-18)
(-0.283561 1.48479 2.16036e-16)
(-2.03895 5.38306 4.06477e-20)
(1.67298 9.77651 -2.07825e-17)
(-0.798088 -0.86521 -3.46424e-16)
(-0.111004 5.40742 -3.59601e-17)
(0.225325 4.30584 3.30796e-17)
(0.0228189 5.00363 -8.87179e-17)
(-0.176883 6.8777 2.80585e-17)
(0.0518519 4.9088 0)
(-0.793238 0.00721717 -4.06762e-16)
(0.425928 3.39395 -3.07998e-16)
(0.695918 -0.284503 0)
(-2.18034 7.69398 0)
(0.948261 0.0790598 -9.37904e-19)
(-0.853887 -1.07681 0)
(-0.246665 6.21128 0)
(-1.75244 8.07011 -1.92158e-18)
(-2.09048 8.91483 8.87201e-17)
(-2.36168 5.73802 -1.31421e-16)
(-1.16033 -0.612358 1.68815e-16)
(-0.345589 0.926876 0)
(0.777369 -0.619466 2.95913e-16)
(0.235204 0.105442 2.72471e-17)
(1.22023 9.34216 -6.41374e-17)
(0.618039 0.651557 0)
(0.296646 -0.790481 0)
(2.00994 5.3984 0)
(-1.14717 -1.4205 0)
(1.39098 5.84984 2.3111e-16)
(2.04454 0.059188 1.71292e-17)
(3.12157 0.531436 -1.89473e-18)
(0.233543 5.19887 2.73039e-16)
(-0.781749 0.301444 1.8643e-16)
(4.81955 -0.265729 0)
(2.55519 0.0155208 0)
(-0.00194414 -0.29971 3.94614e-16)
(-0.130786 -0.176568 -1.37017e-16)
(-1.26811 0.344025 3.43654e-16)
(0.0780474 -0.165063 0)
(0.920528 -0.0176222 0)
(-0.903997 -0.352064 8.10661e-19)
(1.60672 0.134496 -2.02407e-16)
(-3.67945 -0.321192 -1.58255e-16)
(-1.3929 -0.22052 -7.88567e-17)
(1.23969 -0.0156262 -4.74337e-18)
(-0.739908 -0.245585 0)
(-0.00219592 -0.584385 7.21025e-17)
(-0.793969 0.0648395 -1.44619e-16)
(-1.2077 0.138054 1.15167e-16)
(-0.786431 -0.0526953 3.20044e-16)
(-1.14951 -0.0465297 3.78299e-16)
(0.185672 -0.24552 -5.06115e-16)
(-4.18288 -0.305576 -1.34259e-17)
(-3.38542 -0.528333 -1.29691e-16)
(1.95739 -0.211037 -2.46268e-16)
(-2.26057 -0.507327 0)
(2.52911 0.0700693 -5.99345e-17)
(-1.36156 -0.635273 9.08212e-18)
(5.70997 0.584049 -6.41134e-18)
(1.00768 0.180692 1.06286e-16)
(11.6883 0.74628 2.03764e-18)
(-0.26605 -0.193937 -1.06888e-16)
(3.47741 -0.042134 0)
(0.562244 -0.00498237 1.92846e-16)
(9.06306 0.204083 6.77472e-18)
(7.35844 0.550366 2.30032e-18)
(-0.759515 0.654206 -2.66789e-16)
(-1.18184 0.6373 2.55663e-16)
(0.81568 0.313523 2.76833e-16)
(0.698128 -0.487517 -1.26847e-16)
(3.715 0.433686 8.17597e-18)
(0.0418199 3.32159 0)
(3.41365 -0.162905 -7.61081e-17)
(4.87968 1.25162 -1.28169e-17)
(-1.63258 -0.143335 0)
(-3.62344 -0.0121284 -4.37899e-19)
(0.634129 7.10864 9.9134e-17)
(-1.80734 0.184691 -5.5334e-16)
(2.41815 0.0677078 0)
(-1.98756 -1.20221 -2.09604e-16)
(-4.39021 -0.269069 2.10258e-16)
(-0.0679537 6.48949 1.09846e-17)
(-0.0750271 6.2967 0)
(1.45543 7.05721 6.7012e-18)
(-0.238965 1.19011 3.67537e-16)
(2.56995 0.0514264 0)
(-0.522054 -0.595484 -5.67384e-16)
(-2.35445 6.58076 -2.20945e-16)
(-3.43839 0.425318 2.56388e-16)
(-1.1525 5.77292 -8.84069e-17)
(3.25047 0.657838 -9.03343e-19)
(-0.547426 -0.29919 6.73444e-17)
(-0.982293 0.0750891 0)
(-1.40948 0.116399 -2.06792e-16)
(-1.36389 -0.114408 0)
(0.661039 -0.155411 0)
(0.0778687 -0.226864 -2.32871e-17)
(0.486852 -0.0897561 8.00627e-17)
(0.390561 0.159438 2.43774e-16)
(-1.14152 -0.145021 1.5065e-16)
(-0.567543 -0.111912 0)
(1.37598 -0.320179 1.52812e-16)
(-4.34346 -0.172838 0)
(0.240168 -0.474202 5.28899e-16)
(-3.79477 0.194357 -1.45629e-16)
(3.58811 0.050985 3.25344e-16)
(2.46824 -0.117141 3.35433e-16)
(-2.57539 0.193481 -7.0398e-17)
(3.293 0.0509303 -7.75538e-17)
(2.46492 0.250812 8.71189e-17)
(-1.72151 0.689693 0)
(-0.720779 -0.846814 -3.147e-16)
(-2.97006 -0.0576208 1.03994e-16)
(-1.58839 0.701347 0)
(10.0135 0.128147 3.40086e-17)
(0.861013 0.204111 1.80678e-16)
(0.115706 -0.973691 0)
(0.200235 5.00382 0)
(2.55454 0.0122714 7.53914e-17)
(-0.804745 -0.296123 0)
(-0.0939061 1.06115 2.43193e-16)
(0.066628 4.8481 -6.95318e-17)
(-0.694267 -0.286345 -1.83863e-16)
(0.827606 6.73346 -2.06175e-16)
(1.8269 -0.359236 2.53543e-16)
(-0.570491 -0.329768 1.49321e-16)
(-0.221352 -0.553504 2.39915e-16)
(1.04601 -0.217272 6.78212e-17)
(-0.20367 6.46928 8.00905e-20)
(-1.18787 -0.157381 -1.96554e-16)
(-0.133022 6.90833 -2.71643e-17)
(0.527798 0.451871 -3.59415e-16)
(10.5456 0.514536 -2.11751e-18)
(3.22627 2.15502 6.87384e-17)
(6.52552 0.615521 -5.44048e-18)
(3.05318 -0.159346 1.98427e-17)
(7.7648 1.48361 -3.45565e-18)
(-2.82585 6.67149 1.2279e-16)
(3.8563 0.0204584 -1.10235e-16)
(3.62569 -0.114534 8.22395e-18)
(0.624368 0.0103955 -4.8972e-17)
(-0.0147369 2.27444 -1.58709e-16)
(-0.644124 4.19951 4.67271e-16)
(3.84153 0.527147 7.87097e-18)
(0.923092 -0.384101 2.21464e-16)
(4.09401 1.05749 2.76138e-17)
(7.85883 0.850379 -7.39107e-18)
(0.762791 5.85587 0)
(-0.239981 5.59848 -2.84924e-17)
(10.0361 0.331034 3.5645e-18)
(2.79202 1.09275 -1.22452e-17)
(10.552 0.325652 0)
(3.4088 -0.0335369 0)
(-0.279019 1.43239 -1.68974e-16)
(1.72575 5.73978 -2.40649e-16)
(0.901735 3.81504 -3.4726e-17)
(1.72559 0.0805358 -3.71735e-16)
(-1.08179 -1.61354 0)
(1.35488 2.70381 7.20297e-18)
(10.5653 2.62259 -2.52268e-18)
(0.141273 1.91968 1.141e-16)
(0.0421861 4.42264 0)
(0.874438 3.12887 -1.01958e-17)
(3.27617 1.48641 -4.68498e-18)
(-0.350601 6.32601 4.28512e-17)
(10.0862 -0.0606353 2.25628e-17)
(0.0250525 5.85501 -5.15359e-17)
(-0.463777 6.66531 -2.61267e-17)
(-0.35335 6.91313 -3.8786e-17)
(1.1841 6.00986 0)
(-1.49442 0.00854158 0)
(4.04232 2.89527 -6.37365e-17)
(4.78563 1.767 0)
(2.75734 3.65695 -1.81141e-16)
(1.45377 0.206321 3.01329e-16)
(1.1078 -0.234302 0)
(1.12752 1.16643 -7.56555e-19)
(3.84471 0.0279315 -6.27989e-17)
(1.56952 8.03136 -3.49584e-17)
(3.42323 -0.0399219 7.09305e-17)
(-1.71311 6.28392 -4.181e-17)
(-0.0210009 6.08573 3.33016e-18)
(-0.287203 6.46916 7.28334e-17)
(1.11971 0.0665097 2.44376e-16)
(9.84829 0.698548 -1.1282e-18)
(0.77683 0.0136917 -1.80401e-16)
(0.232059 0.111146 3.60836e-16)
(3.62014 -0.0481773 0)
(-0.146358 6.38182 2.2941e-17)
(-0.0623224 6.43452 2.75315e-17)
(10.9857 1.08098 0)
(-2.61759 0.537405 3.83435e-16)
(-0.269531 6.96796 1.20977e-16)
(3.05449 3.82185 -4.37025e-17)
(1.73508 3.78595 -4.87394e-17)
(1.33387 7.71495 2.36771e-16)
(-0.187759 7.39492 1.88972e-16)
(0.861081 1.96897 0)
(2.99837 -0.0182449 2.1821e-16)
(3.73352 -0.0538179 0)
(-0.12174 6.59887 -1.06408e-16)
(9.85782 1.29353 1.94343e-18)
(2.4232 6.84757 -2.816e-17)
(4.48095 1.12064 2.83818e-17)
(-0.0755749 7.04464 1.32907e-16)
(0.912831 7.7427 4.13439e-17)
(3.52984 0.554932 3.20459e-17)
(0.0473241 5.00872 -3.60546e-21)
(-0.0497758 6.48322 -3.06401e-18)
(-0.366617 6.62075 5.50713e-17)
(-0.148046 6.96366 -2.70204e-17)
(6.94061 1.00169 8.42271e-18)
(-0.194745 6.56435 0)
(-0.115145 6.36861 -3.37974e-17)
(0.108331 5.54251 0)
(0.432788 0.680184 3.48354e-17)
(2.76175 -0.0532681 5.95748e-17)
(2.86503 3.90217 1.26942e-17)
(9.81052 0.958312 -7.52646e-19)
(-0.257489 6.4553 0)
(-0.402643 6.54794 2.14147e-17)
(-0.549079 -0.87012 5.65752e-16)
(-0.321161 6.47201 2.11226e-16)
(1.40038 8.43649 0)
(-0.200708 7.03754 -2.38975e-16)
(0.686063 -0.179145 1.6922e-16)
(0.112264 -0.303502 0)
(9.39191 0.456136 -3.10472e-19)
(3.11002 -0.153717 1.90678e-18)
(3.45045 0.2622 -1.15399e-17)
(0.0064688 6.00037 3.88592e-17)
(-2.31003 6.89976 -4.13551e-17)
(3.16869 -0.129319 -3.97261e-20)
(9.97705 1.70962 -4.63146e-18)
(5.94006 1.61083 3.36637e-17)
(-0.292939 6.94148 -3.97564e-17)
(-0.0937744 3.33813 9.93175e-17)
(10.0229 0.159682 -2.07463e-17)
(1.66704 3.31965 0)
(3.45086 -0.0891313 6.42548e-17)
(-0.0345655 5.74255 2.38271e-17)
(1.58528 6.94752 -5.49609e-17)
(-0.186261 2.73762 -1.83499e-16)
(1.0674 4.90665 0)
(1.0724 8.85921 6.07048e-17)
(-0.733619 0.0791419 0)
(0.0953393 0.883866 -6.67995e-17)
(-0.23681 6.85776 4.69471e-17)
(2.33608 0.643056 -1.39247e-17)
(0.35915 0.216943 6.78486e-17)
(8.34123 1.31895 0)
(-0.19831 5.3163 1.85899e-20)
(8.93432 1.10068 -6.61288e-17)
(1.34912 6.22918 2.21104e-17)
(-0.0401562 5.57723 -1.2785e-20)
(-0.111326 4.83149 -5.97974e-17)
(0.552276 5.09224 0)
(-3.33667 7.82726 1.36146e-16)
(0.0953662 4.64453 9.10606e-17)
(1.14229 4.46879 2.04944e-16)
(3.04328 0.270024 0)
(5.51444 0.947288 0)
(-2.41172 7.74733 1.1349e-16)
(5.33904 1.43285 -4.12409e-17)
(11.2357 0.511935 0)
(2.05378 1.198 -3.15619e-17)
(0.832705 0.250094 -2.03893e-16)
(-0.235023 2.42343 2.04867e-16)
(4.33723 1.56125 -3.41485e-17)
(0.242935 6.04451 -4.9294e-17)
(0.87026 7.24416 -1.37094e-16)
(-0.0428463 7.0771 -3.14026e-17)
(2.05634 4.81595 0)
(0.168444 4.38326 0)
(-1.50756 2.22127 1.46633e-16)
(-0.0297667 5.43644 6.70592e-18)
(1.00652 5.94791 -1.45871e-16)
(-3.70556 0.705775 -1.58614e-16)
(2.18117 0.473817 -3.79719e-18)
(-1.30032 6.30154 5.71593e-17)
(0.344974 5.59474 -4.12946e-17)
(3.23226 -0.0866831 -4.34711e-17)
(2.46123 1.64009 2.09673e-17)
(-0.448057 6.83407 -2.19895e-16)
(-2.47198 8.77773 -1.95826e-16)
(3.71774 0.964729 -1.89555e-17)
(4.80701 3.69909 2.19022e-16)
(0.77196 -0.131685 0)
(-0.465779 0.275884 -8.84574e-17)
(0.0358039 0.369511 0)
(-0.164229 1.94082 -3.7422e-16)
(4.60346 2.15759 0)
(2.46298 3.74714 1.83767e-18)
(3.04655 0.401104 1.52809e-17)
(1.13051 0.313748 -1.91223e-17)
(6.25724 5.09488 1.12825e-18)
(2.61222 2.42098 2.02779e-17)
(4.2497 2.44722 0)
(-2.57497 -0.489523 0)
(0.247076 6.68239 0)
(1.47638 3.07803 4.03099e-16)
(-3.94942 -0.0156504 -1.30701e-16)
(-2.95992 -0.0440099 0)
(-0.295664 2.15027 4.3919e-16)
(2.54273 0.277617 2.90234e-17)
(3.55071 0.162416 5.56316e-17)
(0.0462363 5.22484 1.66025e-16)
(1.44219 -0.192151 1.43715e-16)
(-0.134893 1.91065 -4.52303e-16)
(-0.155313 -0.0557146 -3.62991e-16)
(2.90301 -0.10475 -1.41957e-17)
(-1.85171 6.30437 -2.4111e-17)
(-0.864831 3.23625 0)
(6.44885 1.04019 5.93383e-18)
(1.04263 2.80744 -1.89894e-16)
(0.318554 0.944101 0)
(-4.2936 0.254658 0)
(-2.16055 6.34606 1.86175e-17)
(4.66588 4.85747 8.3449e-17)
(-1.37186 5.82417 0)
(-0.240277 1.8316 2.27988e-16)
(0.0635269 6.22716 0)
(1.74003 0.854897 2.15575e-17)
(9.10604 0.791073 6.0367e-17)
(4.501 4.16051 -1.53513e-16)
(-0.191266 6.08758 0)
(1.79917 2.14591 1.90746e-16)
(-1.13494 -1.49409 -2.59223e-16)
(0.522974 6.78462 1.35559e-16)
(3.45309 3.57312 -6.74761e-19)
(-0.910247 -1.61747 2.09765e-16)
(1.37601 3.22487 -1.50321e-16)
(8.97506 2.78922 1.91755e-18)
(0.166376 0.456505 -8.08206e-17)
(9.90231 0.242348 -1.59836e-19)
(-2.11124 8.0643 -7.93523e-19)
(0.0168153 0.0365784 -4.4257e-16)
(-0.0497353 4.51595 -2.54598e-17)
(0.00451827 5.3646 -5.33347e-17)
(2.16257 0.300869 3.6201e-18)
(1.39836 0.306763 -3.39076e-17)
(7.76286 5.04115 1.74969e-17)
(-0.109385 1.48338 2.28707e-16)
(11.483 3.68775 -3.74877e-19)
(-0.232315 7.4028 2.63519e-17)
(0.567147 5.46026 1.09867e-17)
(1.39344 8.55767 -7.82753e-17)
(-0.321222 -0.960797 -1.79846e-16)
(8.62948 0.302637 9.80869e-17)
(2.45035 3.68351 0)
(-1.3761 5.36761 7.47646e-17)
(7.67178 1.23804 -1.08645e-18)
(3.34662 2.972 -2.02795e-17)
(-0.451366 0.39563 -7.83509e-17)
(-2.07764 2.02092 0)
(7.62136 1.77936 -2.17549e-18)
(-3.02226 6.89586 2.50399e-16)
(0.580341 2.44858 1.07514e-16)
(0.959182 2.00776 0)
(-1.42749 -1.19322 1.18071e-16)
(9.79953 4.96343 -1.10826e-17)
(-0.265209 2.03907 5.65976e-17)
(2.22975 4.79599 -4.81974e-16)
(-0.261143 1.76318 3.66045e-18)
(2.2656 2.88507 0)
(2.66626 4.2039 -2.24096e-17)
(2.54891 0.0374686 1.17682e-16)
(1.39335 4.66155 -1.52618e-16)
(1.11769 4.62238 1.53982e-16)
(3.31827 -0.0278015 1.4066e-16)
(6.57926 1.63669 -4.36601e-18)
(0.670172 6.51823 -1.23741e-18)
(-1.03539 4.80188 6.04656e-20)
(-1.21375 4.84797 -9.57956e-17)
(-0.0622128 1.41534 -4.79969e-16)
(-0.260139 2.35205 -5.7855e-17)
(3.87031 3.99987 -7.96955e-17)
(-1.27382 4.64056 2.18468e-17)
(5.32203 2.09011 1.1496e-16)
(-1.98319 5.77101 -1.91769e-17)
(-0.265149 2.25787 -6.63621e-17)
(-0.360357 4.0233 -2.53981e-19)
(-0.35662 1.62826 1.00279e-16)
(-0.262344 0.038584 1.02172e-16)
(3.12819 0.155332 3.047e-17)
(-0.210777 3.89038 1.44644e-17)
(4.00812 3.56571 0)
(1.78066 3.44378 0)
(-0.0705002 3.81324 7.19654e-18)
(-2.41881 4.7967 9.75437e-17)
(-0.274034 1.77104 -2.09902e-17)
(-2.8742 -0.934174 1.26379e-16)
(3.49299 4.25318 -1.28747e-19)
(0.195372 0.321318 0)
(0.407265 2.76216 -1.85626e-16)
(0.0455719 3.82107 0)
(-0.0828337 5.48685 -5.81757e-17)
(-2.71439 6.0496 -2.69636e-16)
(1.42139 4.308 -8.56477e-17)
(3.474 3.97609 3.29763e-17)
(0.136608 3.91992 1.53069e-17)
(-0.222683 -1.35311 3.43509e-16)
(-1.16786 1.41726 3.5584e-19)
(1.53838 -0.142711 9.87856e-17)
(-2.41823 0.571753 -1.51256e-16)
(11.7229 1.73175 2.11432e-18)
(-2.46576 5.66736 9.09779e-17)
(-2.06066 5.78722 1.39981e-16)
(-2.48641 6.43113 5.37909e-19)
(-1.71219 5.91573 0)
(-2.88217 6.84824 -8.20098e-17)
(-3.1504 6.80022 -6.85759e-17)
(-2.82076 6.20612 -6.57909e-17)
(-3.42621 7.32732 -1.27633e-16)
(-3.19912 6.64247 2.09085e-16)
(-3.45503 7.33727 5.22898e-17)
(-0.0750915 -1.48619 0)
(9.95159 0.53638 1.39723e-18)
(0.237255 -1.40421 -8.4442e-17)
(0.320069 -1.18325 2.47333e-16)
(-1.23939 -0.787747 -3.15647e-16)
(0.482487 -0.0788762 2.30859e-18)
(0.468751 1.15085 0)
(1.06302 0.866113 -7.68037e-17)
(1.87411 -0.0922902 4.67193e-17)
(0.61069 -0.0419458 6.43718e-17)
(0.772793 -0.0532553 5.91762e-17)
(-0.287425 -1.24182 -2.25604e-16)
(-0.447652 0.930642 -1.59386e-16)
(-0.0673009 -1.26495 0)
(-0.710727 0.970359 -8.58052e-17)
(0.0878973 0.681831 2.75031e-16)
(0.581399 0.0182712 9.10286e-17)
(8.25488 0.337115 -2.26428e-18)
(0.0630204 -0.749578 0)
(-2.44024 0.109713 1.57435e-16)
(0.465054 0.0195405 -1.22703e-16)
(-1.81179 -1.5649 1.74543e-16)
(8.3486 0.157823 -3.05698e-17)
(-0.669904 0.608021 -2.46748e-16)
(-2.45555 0.0298939 -9.83744e-17)
(-1.74077 -1.52203 1.89518e-16)
(-0.829491 -2.07981 2.49875e-16)
(8.34491 0.0296482 1.19381e-19)
(-1.10485 -1.48051 -2.15389e-16)
(8.47525 -0.0224451 -2.63813e-17)
(-0.563663 -0.402583 -6.21038e-16)
(-0.688384 -0.949945 0)
(-0.744761 -1.51139 -4.17012e-18)
(0.714373 -0.0400064 0)
(10.0304 0.241284 3.77105e-17)
(10.0429 0.402228 1.17358e-16)
(-1.02942 -1.21622 1.15688e-16)
(-1.19012 -0.247302 -1.01628e-16)
(-0.200291 0.4732 5.58251e-16)
(0.00433293 -0.967409 0)
(0.300024 -0.11768 0)
(-0.391824 0.892615 0)
(9.82169 0.323725 2.60222e-17)
(0.541076 -0.799847 2.09919e-16)
(-2.20299 0.468497 1.23166e-17)
(0.758768 -0.153354 2.33222e-16)
(-0.651084 -0.139523 0)
(-1.71483 -0.00589026 0)
(-2.00736 0.248554 1.48485e-17)
(-2.30769 1.41742 1.11657e-16)
(9.36741 0.432733 -7.50686e-17)
(-0.0242105 -1.26018 1.90794e-16)
(-2.22662 0.275855 1.00664e-16)
(-1.6592 2.49377 2.08499e-16)
(1.06914 -0.284335 -2.86581e-16)
(-0.838244 0.919128 -1.34257e-16)
(-2.62695 0.360659 8.38106e-17)
(9.17817 0.685037 1.75309e-17)
(-0.819184 -1.18919 -2.30346e-16)
(-0.909167 0.977926 -4.8383e-16)
(-1.64975 1.37962 1.22179e-16)
(-1.60732 4.16457 -2.45787e-16)
(0.0372824 0.0385888 9.57556e-16)
(-1.18245 0.304046 -1.62031e-16)
(9.25918 0.924985 -3.67711e-17)
(9.75478 0.634474 -9.83391e-17)
(0.705833 -1.16238 -2.57706e-16)
(-0.477977 -0.353135 2.0944e-16)
(-0.95766 -0.0354885 1.77913e-16)
(-0.491716 0.642096 0)
(-1.30526 2.88576 1.60927e-16)
(0.318797 -0.74391 2.79767e-16)
(-0.332017 1.66614 0)
(-1.62906 0.454996 0)
(-1.88584 -1.3552 1.48464e-16)
(1.97658 0.281698 -1.58636e-16)
(-2.00823 0.808785 -5.78999e-17)
(-1.8249 3.76153 8.69279e-17)
(-0.451036 -1.214 1.60713e-16)
(9.79389 0.890891 -3.20531e-17)
(0.127254 0.371637 0)
(-0.660715 1.04137 -3.42641e-16)
(-0.288982 0.940233 -1.95548e-16)
(3.43302 0.0379516 -5.28046e-17)
(-1.92072 5.00801 -6.47651e-17)
(2.38167 -0.115017 -8.38892e-17)
(9.45396 1.32672 6.06879e-17)
(-0.204143 5.82043 -2.99672e-19)
(-0.609617 -1.41028 0)
(-0.221526 0.259334 2.58881e-17)
(1.63383 1.3909 1.5388e-16)
(0.422272 5.22352 -1.63444e-16)
(-2.09981 5.99027 0)
(-0.50441 0.143064 0)
(-2.53294 6.42644 0)
(-1.53364 0.893128 2.54648e-16)
(0.45954 1.34671 2.47921e-18)
(1.27948 0.259418 4.10831e-17)
(-1.89616 5.2233 3.94992e-17)
(-0.266202 -0.781408 2.12188e-16)
(-0.646078 4.96634 1.3158e-16)
(-0.717985 2.38252 -2.31855e-16)
(-0.487243 2.62404 -6.39795e-17)
(-0.094006 3.21926 3.56369e-16)
(-0.632707 1.21747 4.39965e-16)
(-0.0390171 0.748405 6.10196e-17)
(1.94978 3.33149 -6.56706e-18)
(1.41707 3.76098 -5.4549e-17)
(-0.858135 4.86315 0)
(-2.97577 6.93093 0)
(3.07621 4.75783 2.07609e-16)
(-0.869131 1.39436 3.04456e-16)
(-1.09302 3.84141 0)
(0.351408 3.99927 -3.04841e-16)
(0.344132 -0.59589 -3.72912e-16)
(-0.397978 1.88344 -5.15922e-16)
(2.29257 -0.174506 1.41637e-17)
(-1.51472 2.20512 -1.11867e-16)
(1.09184 1.93971 5.90695e-18)
(2.6191 6.81951 0)
(-3.33539 7.41327 2.38392e-17)
(9.7437 1.66321 -5.70749e-18)
(5.09591 3.22697 6.48487e-17)
(-0.0978528 6.5552 0)
(5.26366 7.49882 0)
(0.244513 6.93351 5.0389e-17)
(1.4181 3.01617 0)
(3.68454 -0.0906296 -8.17098e-18)
(-2.07666 3.26702 -7.22439e-17)
(-1.38083 4.32673 1.55742e-16)
(0.180722 4.59598 -3.10499e-17)
(5.26194 5.39313 -3.35676e-17)
(-3.28961 6.72274 -3.90446e-17)
(-0.215881 1.16808 -1.0365e-16)
(0.346732 5.60608 5.44546e-17)
(2.45514 3.152 4.18999e-17)
(2.763 0.0433704 1.01761e-16)
(-0.115467 0.968999 0)
(-2.84763 5.58152 8.48171e-18)
(-1.72926 5.26226 -2.76064e-18)
(0.0460176 4.57566 0)
(3.24233 5.42089 2.94395e-18)
(0.148705 0.829044 2.21392e-16)
(3.58796 4.2984 -1.07561e-16)
(3.71666 4.2442 1.51979e-16)
(-0.168215 6.96907 1.1719e-20)
(-0.179847 6.2519 -1.01242e-16)
(0.606878 4.47842 -4.37304e-16)
(0.399972 5.66277 0)
(0.0504409 0.386253 1.26206e-16)
(-2.49336 4.42916 -2.05582e-17)
(-0.0978035 1.28091 4.21949e-17)
(1.57755 5.72245 -2.53655e-18)
(2.35415 4.54742 -1.02033e-16)
(-0.178396 6.42788 -1.3174e-19)
(-1.93809 5.88247 0)
(-0.359714 -0.973834 -1.7321e-16)
(2.52488 4.61444 4.01336e-16)
(3.83361 1.57957 0)
(9.92643 0.504459 2.14211e-18)
(1.78084 6.05821 3.19543e-17)
(-1.8549 6.0131 4.71624e-18)
(0.049803 3.33033 4.98255e-17)
(0.0928517 4.97196 0)
(3.27714 4.43534 1.08403e-16)
(1.14288 2.23488 -2.59178e-16)
(2.65129 11.638 4.69601e-18)
(4.06016 4.44583 5.68114e-17)
(-0.341071 -0.0957144 -5.12295e-17)
(1.12493 -0.456958 -2.19234e-16)
(2.53264 -0.0377741 5.37082e-17)
(0.0376853 6.50782 -6.38718e-17)
(0.898891 4.73511 2.32149e-16)
(-3.00393 5.83851 -1.07719e-17)
(-0.223598 1.47578 -8.81225e-17)
(-0.547458 2.52064 2.05165e-16)
(11.0703 0.135959 -9.73081e-18)
(2.9914 -0.143481 -3.28268e-17)
(-2.23969 2.15626 -8.21888e-17)
(1.2328 3.8899 -2.34862e-17)
(3.43415 0.802398 -1.33365e-17)
(1.9893 1.99986 -2.73844e-16)
(0.398765 5.17228 -5.57162e-17)
(0.655427 4.21615 1.43213e-16)
(-0.307369 6.46114 6.63981e-17)
(1.88066 3.15101 -7.9356e-17)
(-1.88914 5.62061 -1.46498e-16)
(-0.139027 0.0538766 0)
(3.93605 4.90025 -5.76084e-17)
(0.091829 1.09239 0)
(-0.889345 6.23598 7.4651e-17)
(0.788357 6.47087 0)
(-1.35047 -0.0967894 3.91179e-16)
(-3.27122 6.76576 -1.29595e-16)
(0.304694 4.64592 3.87869e-17)
(3.36056 4.14876 8.28151e-17)
(6.00851 0.561041 -6.74939e-17)
(2.31426 0.155732 1.1633e-16)
(-0.338828 1.03875 -2.42314e-16)
(0.857157 1.30337 8.95836e-17)
(-0.154872 1.54425 -2.31077e-16)
(5.27065 2.7187 -2.14927e-16)
(1.85457 -0.0968804 5.20693e-17)
(0.144837 3.58166 0)
(-0.219576 0.981245 -4.1032e-17)
(-0.650911 6.30433 5.33591e-17)
(2.77262 3.75783 -2.14659e-17)
(2.0103 3.03097 1.42742e-16)
(2.47224 0.785131 1.5765e-16)
(2.93643 3.19146 1.86081e-17)
(-2.06798 2.68173 9.21155e-17)
(-3.08715 7.94472 -4.04079e-18)
(0.000364287 0.751425 1.73023e-16)
(3.69074 4.42259 -9.87531e-17)
(1.29955 -0.593311 5.32361e-17)
(1.68261 2.62553 -8.16419e-17)
(-0.270558 1.60643 -2.3923e-16)
(2.3553 4.29735 -5.18786e-17)
(-1.71486 1.58773 0)
(8.54992 0.514816 -1.64267e-16)
(7.17641 1.55676 1.15925e-17)
(-1.36337 4.92644 1.09183e-16)
(-2.29651 6.06444 3.01928e-16)
(0.0535793 6.06759 2.48667e-17)
(-1.6107 3.15312 0)
(1.27923 0.357775 -1.60003e-16)
(-0.993648 1.33039 5.21939e-17)
(-2.28423 0.94987 -1.7624e-16)
(1.24478 6.36452 -1.53601e-19)
(-2.23647 -1.35703 -1.07459e-17)
(0.219886 4.0261 5.267e-17)
(4.01534 0.615153 -7.63003e-18)
(9.32849 0.459389 0)
(-3.3197 7.19178 0)
(-2.14096 2.2834 -4.5767e-17)
(0.57471 -0.665454 2.00167e-16)
(9.93466 0.525994 0)
(0.21721 0.0171375 3.11764e-19)
(0.189882 1.37049 -3.83461e-16)
(1.07637 0.403829 0)
(1.26991 0.650784 0)
(1.11912 2.91208 -1.11931e-16)
(3.10462 3.6984 1.9668e-17)
(8.72686 0.399728 0)
(-3.18485 -1.1233 1.23999e-16)
(-5.09827 -0.181059 -6.69303e-17)
(-2.64147 4.9029 0)
(-0.412626 1.35735 0)
(0.357773 -1.30043 1.5341e-16)
(3.18223 0.17651 -5.45229e-18)
(-0.0310782 2.53209 1.12098e-16)
(-0.0387612 2.66621 -2.14701e-16)
(-0.482269 2.12954 6.46285e-17)
(2.93234 0.151914 0)
(2.54157 0.0769536 0)
(-3.14605 7.26822 -9.1612e-17)
(4.95472 0.254594 -2.11288e-18)
(0.776502 0.517711 -2.60279e-16)
(2.40933 0.0255736 1.36039e-17)
(5.22481 4.62268 -3.25501e-18)
(4.15173 0.229549 0)
(3.42455 4.22429 0)
(-0.138487 4.64 -6.34997e-18)
(2.71648 0.119938 0)
(-0.11034 0.6339 0)
(10.8013 0.605441 -1.20768e-18)
(0.0503797 0.644056 -3.49341e-16)
(4.53488 0.24218 0)
(2.17941 3.13002 -3.51944e-18)
(-0.21911 2.45122 3.4665e-17)
(-0.273069 1.54219 1.16289e-16)
(1.20338 2.62012 -1.62574e-16)
(0.804298 6.01307 -3.11855e-18)
(-0.197719 7.12868 2.30857e-17)
(-4.37487 0.0395216 -2.97305e-19)
(-0.664399 4.00406 -3.00703e-16)
(-2.19575 3.99433 -6.31143e-19)
(-0.573843 0.889794 2.61525e-16)
(0.532731 0.000246914 -2.71992e-16)
(-0.0616526 0.960453 2.51695e-16)
(-0.4754 3.10358 0)
(-0.0555452 6.15582 1.62831e-18)
(9.56544 0.40779 -9.10409e-18)
(-0.183655 5.45916 0)
(-3.00823 1.46788 3.83232e-16)
(4.15151 0.414049 1.44587e-17)
(-0.000575862 4.16647 0)
(-2.35999 5.17503 2.33739e-16)
(2.01701 7.45449 0)
(1.87944 8.11583 2.48808e-17)
(-0.150054 -0.450063 0)
(4.81612 0.812837 1.79105e-17)
(-1.65646 3.02778 -1.80152e-16)
(1.56141 0.00880433 -9.49375e-17)
(0.343482 1.36202 -1.9072e-17)
(-0.196935 2.2902 1.81473e-16)
(-0.457166 1.81904 -6.5815e-17)
(5.36618 0.269939 7.69483e-18)
(8.26587 0.338737 0)
(2.23872 -0.209126 -1.63264e-17)
(-0.053389 3.56445 0)
(-0.259447 1.68479 0)
(1.29089 0.158529 -1.21477e-16)
(0.842177 1.04483 0)
(-2.27271 4.82313 0)
(2.07667 1.75794 -3.72206e-17)
(1.41833 0.0376582 0)
(-1.36093 -1.78406 1.34442e-16)
(-0.190619 1.31064 7.92213e-17)
(-1.42413 0.448701 1.95633e-16)
(-1.1743 5.23814 9.68627e-17)
(0.427172 1.2218 1.85058e-17)
(3.62976 0.335945 -4.99173e-17)
(-1.01952 0.0626809 -3.52393e-16)
(13.0284 2.6293 0)
(-0.194027 1.09986 0)
(-0.808763 3.00153 -1.9643e-16)
(0.436707 1.10194 -9.82035e-19)
(-0.327582 1.70141 1.60608e-17)
(1.02377 1.5552 1.90314e-17)
(10.22 2.20729 3.14772e-18)
(1.34628 1.51997 4.48805e-17)
(-0.222216 2.00501 -6.62658e-17)
(-1.08104 0.912238 3.3828e-16)
(0.0165702 -0.404982 -2.779e-16)
(-0.0237597 6.29938 0)
(0.284995 -0.223026 4.31406e-16)
(0.752618 0.354645 -2.25084e-16)
(0.0127717 3.20723 -3.24036e-17)
(-0.121554 0.482287 -1.84475e-17)
(-1.94664 4.17902 -2.66929e-16)
(-0.0761213 6.50099 -4.63209e-18)
(-0.249579 0.930011 2.30251e-16)
(-0.40925 1.6245 1.10488e-16)
(-0.401355 1.89561 0)
(2.35641 5.03646 7.13946e-17)
(2.41258 -0.06376 5.10994e-17)
(0.376714 7.12863 0)
(-0.432072 3.11492 -1.60473e-16)
(0.484057 0.348057 -6.48366e-16)
(3.48042 4.41327 0)
(-4.22195 0.0321329 -9.89845e-17)
(0.0412968 5.36673 0)
(-0.724041 -1.19513 1.13293e-18)
(3.4723 0.19946 -2.54268e-18)
(9.1719 2.0862 2.02078e-18)
(1.06802 1.54174 0)
(2.56704 5.24071 1.4235e-16)
(-0.268865 5.81608 -8.52096e-17)
(2.85947 4.7452 0)
(0.0472303 -0.196603 -1.2249e-16)
(-0.428379 1.63183 -1.12362e-16)
(-0.24331 6.63469 -7.55086e-17)
(-0.841598 4.00208 1.07433e-16)
(-0.412024 6.68528 1.65089e-16)
(2.34888 -0.0248095 -2.82853e-17)
(1.02593 -0.260295 0)
(0.170158 6.08274 0)
(1.04676 -0.164188 2.96167e-17)
(-1.33072 6.18403 1.10352e-16)
(-0.23195 6.37644 -2.83811e-17)
(0.582042 0.0238209 1.24471e-16)
(0.279732 -0.195605 -2.3866e-16)
(-2.11868 5.00521 0)
(-2.581 5.26507 5.97759e-17)
(9.72794 7.33467 -1.26859e-18)
(-0.489978 6.54019 2.35675e-17)
(-0.30366 2.10691 -1.77191e-17)
(0.281867 7.1444 -5.31669e-17)
(0.603702 1.88275 2.30726e-16)
(4.70821 1.73475 2.48041e-18)
(3.47896 -0.01749 -1.11769e-16)
(1.14995 1.96032 0)
(10.7561 0.842408 2.29866e-18)
(-2.41265 6.22042 4.30042e-17)
(8.05966 0.551701 1.14635e-18)
(-2.35471 4.0229 -7.54843e-17)
(0.0723771 -1.34269 -1.40878e-16)
(-3.01862 7.52569 -1.6469e-16)
(-0.173585 1.21534 -5.85283e-20)
(1.36207 0.375091 3.23164e-16)
(1.21502 5.39518 -1.08937e-16)
(0.523157 5.61174 -2.49566e-16)
(-2.57234 6.59886 -2.81809e-19)
(3.80655 0.216595 1.02749e-17)
(-0.0397316 3.76473 -5.25756e-17)
(-1.65202 4.91081 2.55751e-17)
(0.276459 5.06407 -2.08884e-18)
(-0.0708907 -0.948867 0)
(-1.06836 -1.59334 0)
(-3.39024 7.45273 -4.92166e-17)
(5.82742 0.283772 1.75631e-18)
(7.84799 0.228586 -1.37082e-17)
(-0.242401 5.82103 1.23254e-16)
(2.67517 3.43672 -2.60666e-17)
(2.55988 0.00806211 6.82468e-17)
(2.74397 -0.0860438 7.62158e-18)
(-2.53542 7.07825 3.35051e-17)
(-0.380214 4.81307 -9.53244e-17)
(0.547263 2.99828 3.61165e-16)
(-0.50812 5.65534 -7.95915e-17)
(-0.289119 0.866879 0)
(-0.668816 0.410216 -1.06096e-16)
(-0.424427 5.21424 -7.707e-17)
(0.57012 4.58795 0)
(7.41175 0.938303 -1.00589e-17)
(-3.46477 0.626677 5.47385e-17)
(5.4071 0.272444 0)
(0.610735 7.26882 0)
(6.18943 2.4726 -2.81633e-17)
(-0.20547 7.43613 1.1981e-17)
(0.387149 5.21776 -5.79688e-18)
(-1.314 5.97129 0)
(0.674573 1.81544 7.07967e-17)
(-4.32713 -0.103147 3.92935e-16)
(-1.92964 -0.540094 -4.67197e-16)
(3.58569 0.13743 -3.62115e-17)
(2.26637 0.234895 6.94757e-17)
(-4.46436 0.066864 1.22607e-16)
(-3.45721 -0.660104 0)
(1.16864 2.51563 -6.15857e-17)
(3.21682 4.08808 -1.56375e-18)
(1.91773 0.780146 8.60886e-17)
(2.19179 3.92475 -2.26378e-17)
(-2.98646 6.39198 0)
(-0.123133 2.48018 1.09178e-16)
(-2.96474 5.95268 5.91589e-17)
(1.64306 -0.689669 0)
(9.13271 0.562236 1.4503e-16)
(-0.103944 2.73955 0)
(-3.19104 7.08264 0)
(3.57768 4.75546 -2.55253e-18)
(-0.643631 3.34078 1.98464e-16)
(-0.180678 0.556402 1.97301e-16)
(2.07977 -0.0302856 -2.19987e-16)
(-0.431899 -1.17489 2.00422e-16)
(0.920061 0.483618 2.32115e-16)
(-0.000713821 0.517959 0)
(-0.192058 2.3347 9.42622e-20)
(-0.148574 0.583725 -2.79632e-16)
(7.91852 -0.0381606 -6.75551e-17)
(-0.14449 -0.256491 5.81092e-17)
(-0.0470897 0.943329 4.39668e-16)
(1.01582 0.501222 -1.31766e-16)
(2.38729 2.14014 1.3623e-17)
(6.51146 -0.160503 4.13759e-17)
(4.26018 0.292235 -7.08586e-17)
(0.178408 7.77151 8.4826e-17)
(0.0312748 5.13286 3.46573e-19)
(0.0527882 5.09263 7.56158e-17)
(0.0245598 4.93533 6.88496e-19)
(0.0433379 5.0149 0)
(0.167307 8.61899 -7.4202e-17)
(-0.0028278 5.0398 -1.45398e-16)
(-0.00506641 2.95707 -9.10773e-19)
(-0.0599934 3.30015 -2.3158e-17)
(-0.0396375 3.03988 0)
(0.0522578 3.06676 5.2351e-17)
(0.188847 7.10399 0)
(0.277046 9.47597 0)
(0.067836 3.21814 -6.89444e-17)
(0.319577 5.82592 -4.28602e-18)
(0.249003 6.48277 -3.97573e-18)
(0.0657398 3.29852 2.18027e-17)
(-0.04452 4.83105 7.68462e-17)
(-0.0742257 4.64715 0)
(0.052455 3.33177 -3.00422e-17)
(-0.074758 4.47223 0)
(-0.0574589 4.39585 0)
(0.0398164 3.34082 2.23846e-17)
(-0.0463867 4.33395 0)
(-2.77377 5.38443 6.30879e-17)
(6.04848 3.94844 -5.27366e-17)
(-0.79616 -1.29486 2.12642e-16)
(-2.74762 1.00847 0)
(1.62976 1.7256 -1.2118e-16)
(-0.65636 -0.0502999 1.02398e-16)
(-0.295493 -0.0364448 5.526e-16)
(8.34328 1.84782 -1.82817e-17)
(-0.210085 7.35186 -1.49127e-17)
(0.787355 5.81329 0)
(-0.456829 0.100097 5.42558e-16)
(0.717595 -0.208748 2.93515e-16)
(0.334961 0.60568 0)
(5.44389 -0.0790698 3.22391e-17)
(0.260526 -0.515234 -2.50325e-16)
(0.0149193 1.64228 -1.32556e-16)
(6.36273 3.14972 9.62398e-17)
(1.344 0.566254 -6.93491e-17)
(-3.05732 6.05704 6.07952e-17)
(0.971886 0.00110508 -5.26463e-17)
(3.45136 -0.0425004 -7.30772e-17)
(7.83652 0.839608 -2.88688e-19)
(-1.4117 0.30652 -2.61037e-16)
(-0.0516342 4.24132 0)
(0.680535 3.25146 3.46347e-16)
(3.0353 4.33481 4.78754e-19)
(-0.645731 0.163348 6.32285e-17)
(-0.211195 1.6732 0)
(10.2716 0.152325 2.91376e-17)
(-0.166416 2.95065 -1.06312e-16)
(1.47612 0.024891 3.92801e-18)
(-2.72293 5.62121 8.72752e-17)
(-0.920849 3.26806 0)
(0.0676982 6.6519 6.08168e-18)
(-0.507806 6.14803 -4.65781e-17)
(8.57986 2.64565 2.48116e-17)
(-1.3106 -1.2544 2.5583e-16)
(-1.38977 -0.985058 -2.27388e-16)
(0.285761 -0.905162 1.81884e-16)
(0.00603713 0.00410875 -6.7132e-17)
(0.201405 5.31676 2.9578e-17)
(-0.0775529 5.70574 7.51407e-21)
(0.165377 4.01916 -1.95616e-17)
(-2.80337 0.942434 0)
(2.1403 5.50178 9.36545e-19)
(-2.28024 3.43073 3.94086e-17)
(1.49493 -0.0720662 1.15901e-16)
(0.0108439 -0.86891 0)
(-1.60839 3.48712 -2.55331e-16)
(0.34568 4.70188 0)
(10.6185 0.661139 2.09374e-18)
(-1.58952 5.86856 0)
(1.56875 5.1194 -5.70935e-17)
(-0.307652 0.414049 1.91075e-16)
(-1.4984 -1.80456 1.91402e-16)
(1.42033 0.00661868 0)
(2.07526 -0.150827 -2.74625e-17)
(-0.0531801 3.81718 3.61137e-19)
(-0.178383 -1.10893 0)
(2.66072 -0.0699917 0)
(1.09823 5.34613 -1.5927e-16)
(-0.0548243 6.36611 -8.94048e-18)
(7.32479 0.0434768 0)
(1.11268 0.834211 -1.00508e-16)
(2.06066 -0.0461853 -2.04759e-16)
(-2.2607 -0.55752 0)
(-2.18563 3.68621 1.9941e-16)