/*--------------------------------*- C++ -*----------------------------------*\
| =========                 |                                                 |
| \\      /  F ield         | OpenFOAM: The Open Source CFD Toolbox           |
|  \\    /   O peration     | Version:  v1912                                 |
|   \\  /    A nd           | Website:  www.openfoam.com                      |
|    \\/     M anipulation  |                                                 |
\*---------------------------------------------------------------------------*/
FoamFile
{
    version     2.0;
    format      ascii;
    class       surfaceScalarField;
    location    "0.8";
    object      phi;
}
// * * * * * * * * * * * * * * * * * * * * * * * * * * * * * * * * * * * * * //

dimensions      [0 3 -1 0 0 0 0];
oriented        oriented;


internalField   nonuniform List<scalar> 
2776
(
-0.000364951
-3.35442e-05
0.000277836
0.00012066
-0.000873871
0.0009444
0.000303186
-0.000373716
-0.000421145
-0.000217935
0.000261224
0.000377856
0.000128706
-3.90937e-05
0.00100633
-0.00109594
-0.00012743
0.000102144
0.000125529
-0.000100244
-0.000119267
-0.000451111
0.000379889
0.000190489
-0.00010917
-2.58955e-05
0.000461384
-0.00010678
-0.000635496
0.000280892
0.00101019
0.000888396
-0.00089217
-0.00100642
-0.000945816
0.000750629
-0.000227879
0.000423066
-0.000342474
-0.00115356
0.000517953
0.000978081
0.000424701
0.000177202
-0.000556084
-4.58188e-05
0.000885507
0.000114897
-0.00136697
0.000366567
-0.000134527
-0.000118984
0.000126081
0.000117335
-3.84919e-05
-0.000198109
0.000472119
-0.000141784
-0.000672809
-0.000261508
0.000211533
0.000259398
-0.000209423
3.13815e-05
-0.000482602
0.000451221
0.000527456
-0.000156168
7.9012e-05
-0.0004503
0.000728398
-4.71789e-05
5.50552e-05
-0.000736274
-0.000699657
3.80762e-05
-2.70306e-05
0.000688612
-7.46412e-07
0.00022526
-0.000327597
0.000103084
0.000589968
2.27341e-05
-2.28036e-05
-0.000589899
0.000692331
4.68494e-05
-3.14195e-05
-0.000707761
0.000309116
-0.000381869
-0.00117445
0.00124721
1.49776e-05
1.94775e-06
2.32175e-05
-4.01429e-05
-0.000243544
4.04077e-06
0.000124386
0.000647195
-0.000731556
-4.00253e-05
0.000145651
-0.000115524
0.000176374
-0.000206501
-0.000355895
0.00040813
0.00062712
-0.000679355
0.000562743
-0.000837878
-0.000111579
0.000386715
4.4144e-05
-5.47748e-06
4.86429e-06
-4.35308e-05
0.00012878
3.02609e-05
-0.000168107
9.06632e-06
-0.000342572
0.000304882
-0.000693342
0.000731032
3.86234e-05
9.06147e-06
0.000374346
0.000287739
-0.00014172
-3.68308e-07
-0.000482139
-5.21625e-05
-0.000355328
0.000199876
0.000962812
-0.00023237
-0.000730442
-8.6819e-05
0.000222739
-0.00013592
-4.16757e-05
0.000229414
-0.000187738
-0.00048046
0.000545382
-6.49212e-05
-0.000488328
0.000481207
7.12104e-06
-0.000119767
-3.54197e-05
0.000155187
3.06683e-05
-7.63945e-05
4.57262e-05
0.000524626
-7.6491e-05
0.000938099
8.56718e-05
0.000244145
-0.00023333
-1.08147e-05
-0.000273903
0.00031794
-4.40373e-05
-0.000115579
0.000182503
-6.69239e-05
-0.000231348
0.000150162
8.11858e-05
-0.000211756
-0.000662115
-0.000363911
-8.72001e-05
0.000183237
-8.1093e-05
0.000231312
-0.000102533
-0.0010907
0.00139982
0.000351565
9.58487e-06
-0.000361149
-0.000955585
-0.000197976
-4.22876e-05
-3.33848e-05
7.56724e-05
-0.000800148
-0.000145668
2.52646e-05
-1.77438e-05
1.94194e-05
-2.69401e-05
-0.000107272
9.46011e-05
-2.90051e-05
-6.43364e-05
7.42671e-05
-9.67498e-05
-0.000205092
5.01871e-05
0.000595571
-0.000440667
0.000791602
-0.000686367
-0.000187532
8.2297e-05
0.000217729
-0.000259247
5.75342e-05
-1.60167e-05
0.000255082
5.81095e-06
-4.56639e-05
-0.000215229
-0.000201096
-5.82918e-05
-0.000457258
0.000873087
-0.000875972
6.89889e-05
-6.61042e-05
0.000180632
-0.000280468
-0.000155338
0.000255174
0.000163341
-0.000145311
-8.37826e-06
-9.65211e-06
5.36857e-05
-0.000545938
0.000492253
5.26842e-05
-0.00054349
0.000490806
0.00105869
-0.000452246
-0.000809765
0.000203323
9.25878e-06
-2.62536e-05
4.22594e-05
-0.000633261
-7.21725e-05
0.000307173
0.00039826
-4.02771e-05
-9.95461e-05
3.25515e-05
-0.000130625
-2.39049e-05
9.01938e-05
-0.0002187
0.000119605
9.90953e-05
0.000107161
-0.000391754
0.000344225
-5.96315e-05
-0.000595548
3.35569e-05
-5.70369e-05
0.000619028
-0.00029242
0.000476307
0.000334066
4.01353e-05
0.000237216
-1.36888e-05
-0.000263663
-0.000342231
-6.38626e-05
0.000298987
0.000107107
-0.000562863
1.70103e-05
0.000557951
-1.20982e-05
-3.79478e-05
0.000593588
-0.000581409
2.57686e-05
-0.000631107
0.00105904
-0.000770505
4.08964e-05
-1.67215e-05
0.000328339
-0.000352514
0.000766591
-0.000399327
2.8861e-05
2.36582e-05
7.7933e-05
-0.000130452
1.67705e-06
9.31497e-06
3.9856e-06
-0.000238551
6.46016e-05
-6.95953e-05
0.000231809
-0.000788178
0.000685075
6.69657e-06
0.000137151
-0.000191928
4.80805e-05
-4.87297e-05
-0.000237999
0.000179949
-0.000189833
0.00080557
0.000138829
-1.74855e-05
-8.05108e-05
0.000149278
-2.37489e-05
0.000148541
2.27129e-05
0.000127449
9.96668e-06
0.000234178
-4.03797e-05
-0.000233523
-0.000519938
3.16107e-05
-6.9134e-05
-0.000566362
-4.59705e-05
-5.00925e-05
0.000372608
0.000605473
-1.33866e-05
-1.07028e-05
-1.914e-05
1.20989e-05
0.000525119
-0.00055289
2.50868e-05
2.68447e-06
6.41492e-05
-0.000285419
0.000187725
0.000276506
0.000474123
-7.26035e-06
-8.44274e-05
3.08104e-05
6.08774e-05
0.00042507
-0.000118239
0.0001373
-0.000428304
0.000715704
3.62692e-05
-0.000102708
-4.27315e-05
5.24246e-05
-0.00011113
-7.61458e-05
-0.00105775
0.000946213
7.24464e-05
-3.73096e-05
4.78559e-05
-3.62832e-05
2.57368e-05
-7.50064e-05
5.28644e-05
-3.63526e-05
5.84947e-05
-2.19466e-05
-9.78204e-05
-4.82933e-05
7.89616e-05
0.000378199
-0.000157432
-0.000683008
0.000176964
0.000608822
-0.000102778
-0.000212952
0.000717386
4.51423e-05
-0.000549576
-0.000315433
0.000897837
6.06898e-05
-0.000643093
-6.23629e-05
6.28288e-06
8.45571e-05
-2.84771e-05
0.000111869
0.000531786
0.00013184
0.000613175
-8.1797e-06
-2.4393e-06
4.68732e-06
5.93169e-06
-0.000182877
-0.000208949
0.000157588
-5.61714e-05
-9.73399e-05
-8.53178e-05
-8.23948e-05
0.000724383
1.96892e-05
-0.000661677
0.000669423
2.16236e-05
-1.72174e-05
-0.000673829
0.000516885
-2.63617e-05
3.17244e-05
-0.000522248
0.000224013
-0.00013739
-0.000145986
5.93625e-05
-0.000561735
-9.38125e-05
1.71487e-05
0.000638398
4.93505e-05
4.45246e-06
-9.65897e-06
8.67568e-05
-4.52426e-05
-3.48021e-05
-6.71207e-06
0.000136301
-0.000114557
3.05501e-05
-5.22943e-05
0.000179343
-0.000144126
-6.35634e-06
1.41091e-07
-5.72439e-06
0.000229989
-0.000423057
0.000496254
-0.000816064
-9.26864e-05
0.000225743
6.00491e-05
-7.59769e-05
-3.28018e-05
-0.000178296
-4.43584e-05
-2.03986e-05
0.000243053
0.000236116
-7.57776e-05
9.32651e-05
0.000686206
-5.54933e-05
-0.000723978
0.000734998
-0.000611998
-0.000754107
3.17582e-06
1.58664e-05
6.43656e-06
-2.54787e-05
-0.000739172
0.000235864
0.00048113
2.21779e-05
-6.1801e-06
-2.86918e-06
5.83998e-05
-0.000627623
0.000191822
0.000542961
-0.000270922
0.000232974
0.000505714
-0.000756201
-0.000158767
0.000409255
-4.05649e-05
0.000118794
-0.000348997
0.000270768
8.82468e-05
-0.000384172
0.00073908
-0.000685631
7.83912e-05
0.000553955
-0.000515973
7.38863e-05
0.000649266
-0.00054836
-6.56384e-05
-3.52681e-05
0.000104413
0.00154834
-0.00121601
-0.000436743
0.000603099
-0.00083227
0.000353557
-6.69018e-06
1.30481e-05
3.66902e-05
-4.30482e-05
0.000148868
-2.7995e-05
6.16301e-05
-3.81028e-05
9.51256e-05
0.000529308
-0.000638449
0.000109141
-0.000404843
0.000289651
-0.00127821
0.0013934
-0.000442885
-3.0636e-05
0.00060693
-0.000133409
0.000224328
-0.000188199
-0.000392024
-7.92452e-06
-1.82625e-06
-9.52016e-07
4.97787e-05
2.16974e-05
9.18649e-05
-0.00133247
0.00117083
-0.000249477
0.000411114
0.000381399
-0.00032568
-0.000130474
7.47539e-05
0.00013914
-0.000559358
0.000538468
-0.000118251
-0.000169894
-2.2995e-08
0.000111526
5.83915e-05
-2.62408e-05
2.06176e-07
0.000360964
-0.000334929
0.000606825
3.08311e-05
-4.40679e-05
-0.00055414
2.45137e-05
-3.32372e-05
-0.00036618
-0.000191468
0.000215417
-0.000987666
-0.000171177
0.000282872
-6.76555e-05
3.72506e-05
-0.000188295
0.000694816
-0.000183807
-0.000593404
3.36233e-05
-2.52218e-05
1.10178e-05
-0.000398689
0.0002798
0.000350698
0.000304187
0.000365423
-0.000590946
-7.86639e-05
0.000114595
0.000163855
-0.00101762
3.70303e-05
-1.62766e-05
-2.86782e-05
-9.66746e-05
-0.000183794
-0.000405792
0.000328568
0.000525807
-0.000448583
-0.000254072
4.44744e-05
4.86864e-05
0.000160911
-0.000728739
0.000471191
-0.000378574
-0.000181539
0.000161425
0.000111649
-3.7711e-05
-0.000497395
0.00044179
0.00036167
-0.000306064
-0.000285934
0.000294172
2.46204e-05
-3.28588e-05
-0.000130625
-3.93735e-05
2.46883e-05
-0.000244858
-0.000437453
7.19623e-05
0.000730914
0.00049421
0.000780401
-0.000419657
-0.000854954
-5.35785e-06
2.25667e-06
1.2346e-05
-9.24481e-06
1.32848e-05
0.000719731
-4.61767e-06
4.45669e-05
0.000573004
-9.01151e-05
-3.06413e-05
2.1584e-06
-0.000566282
0.000594765
-2.36466e-05
2.34897e-05
-0.000264832
0.000264989
0.000432159
-0.00016947
0.000340411
5.36188e-07
-0.000698697
-1.49686e-06
4.69317e-05
-0.000577566
0.000770961
-0.000240327
0.000624065
0.00011756
-0.000134799
-0.000534528
2.73195e-05
-0.000249728
-0.000449499
0.000333047
-0.000176611
0.000685904
0.000229786
-0.000156054
0.000528039
0.000181971
-4.87968e-05
3.7972e-06
-3.94278e-05
-4.09361e-05
-3.09155e-05
5.77229e-05
-3.98325e-05
-1.36698e-05
-0.000463776
0.000332843
-0.000117387
-0.00016393
7.06596e-05
0.000210658
4.53664e-05
0.000116281
-1.62123e-06
-0.000160026
-7.29175e-06
-7.03712e-06
-9.41888e-05
4.40834e-05
1.30863e-06
3.99141e-05
-6.78685e-05
1.95762e-05
-4.23917e-05
0.000303447
-0.000527119
0.000266063
8.12315e-05
-0.000433844
-0.000238333
-6.85095e-05
0.000423487
-0.000381677
2.66993e-05
0.000155522
9.75574e-05
-0.000137221
-0.000115858
-1.10274e-05
-0.000243483
4.84271e-05
-8.88994e-05
6.08309e-05
-2.03586e-05
1.68645e-06
0.000209797
0.00011567
-0.000101897
-0.00022357
8.18728e-05
-4.86772e-05
-0.00042495
0.000459455
-0.000303609
-0.000343899
2.47408e-05
7.76841e-06
-1.58671e-05
-1.66421e-05
7.60321e-05
-0.000621782
-2.67108e-06
2.56996e-06
-3.91442e-05
3.92453e-05
-0.000258822
0.000912667
-0.000284423
0.000243275
-2.65355e-05
6.76838e-05
-0.000312995
0.000741814
0.00060168
0.000199242
-0.000176857
0.000827505
-0.000426431
0.000893837
-3.43928e-05
5.14175e-05
0.000472945
-0.00048997
-2.49601e-06
4.73117e-05
-5.01735e-05
6.89148e-05
2.10178e-05
-7.76433e-05
0.000605082
-0.000788233
-0.000970623
0.0011976
0.000561259
-0.000415521
0.000417679
-0.000263805
0.000381365
6.83349e-05
-4.48453e-05
-2.62948e-05
0.000402026
-2.22597e-05
0.000458824
-3.5983e-05
-6.63856e-05
0.000441491
-0.000443925
-0.000503772
0.000506205
-2.10266e-05
-0.000424052
0.000502654
-7.86014e-05
-6.03639e-05
7.0903e-05
-0.00058702
-0.000145155
-0.00130142
0.000658341
0.000204031
-0.000474952
-0.000402228
-1.32926e-05
7.6128e-05
-7.79308e-06
1.15227e-05
-4.57931e-07
-8.80814e-06
-1.33799e-05
1.73182e-05
-3.76193e-05
6.8402e-05
3.28336e-05
-0.000706567
0.000249632
-0.000161408
0.000618343
-0.000579835
0.000463634
0.000169436
-0.000207074
-7.69188e-05
2.34732e-07
4.67833e-05
1.46035e-05
-6.16216e-05
-0.000315404
0.000249246
0.000173944
-0.000107786
0.000318923
-0.000186101
0.000434533
-0.000567355
-0.000555289
0.000503499
0.00022728
4.56788e-05
-0.000145251
-0.000127708
3.53387e-05
-7.26707e-05
0.000105921
-6.85888e-05
0.000341836
-0.000424314
2.21147e-05
-2.22512e-05
0.000319728
-6.8676e-05
5.89653e-05
-2.36741e-05
0.000933079
-0.000844245
-0.000508492
0.000542599
0.000379713
-0.000745348
0.000193049
8.47864e-05
-0.000828829
5.09286e-05
-0.000809297
0.000421653
-1.22654e-05
-0.000179202
0.000385218
-0.000360704
0.000106113
-9.12447e-05
-8.17917e-05
-5.24175e-05
1.24293e-05
4.00522e-06
-8.18647e-05
-9.6e-05
0.000114048
6.38163e-05
-2.76222e-05
5.81384e-05
4.74341e-05
-7.79503e-05
5.60285e-05
-9.96767e-06
-4.60608e-05
-0.000561954
0.0014064
-0.00110327
0.000516404
-0.000569635
-0.000660744
-1.66739e-05
-7.48998e-05
3.80891e-05
-6.09199e-05
-6.99519e-05
5.92943e-05
7.15775e-05
-2.24223e-05
-2.89835e-05
0.000246362
-0.000194956
-0.000889422
0.000918534
0.000372842
-0.000401954
-0.00020568
0.000138465
-0.000843669
0.000910884
-0.00109514
0.00053453
0.00075243
-0.000135934
0.000451021
-0.00035551
0.000725982
0.000130024
0.000287039
-0.000153452
-0.000263611
7.36732e-05
-0.000455287
5.0046e-05
0.000331568
0.000637432
-3.82878e-05
7.78534e-06
-5.71206e-05
5.60466e-05
4.49233e-05
-4.38493e-05
0.000694812
-9.35442e-06
0.000316484
-0.00100194
-0.000157953
0.000207442
-7.19122e-05
2.69174e-05
1.08693e-06
8.93302e-05
-4.76625e-05
-8.7206e-06
3.96556e-06
-0.000935381
-7.41157e-05
0.000126627
0.000882869
-0.000982783
0.000480185
0.00100718
-0.000504583
0.000113456
-0.000455818
0.000575676
0.000574954
-1.32486e-06
-1.11149e-06
-6.61956e-05
0.000147637
0.000386159
-0.000467601
6.19641e-05
-0.000539288
0.000508705
-0.000476135
-0.000198914
0.000123709
-0.000142731
0.000765518
-0.00085983
0.000343944
-0.000210157
0.000294118
0.00035753
0.00121934
-0.000561358
0.000263947
-0.000921932
0.000444814
-7.49836e-05
-0.000255235
9.04713e-05
-3.05215e-05
-2.29749e-05
4.78619e-05
4.61726e-05
-7.10596e-05
3.99586e-05
-5.4954e-05
-2.45612e-05
3.95566e-05
-2.35394e-05
-6.55781e-05
3.47698e-05
5.43477e-05
-0.000414117
-2.91399e-06
-0.000437923
0.000282492
8.66295e-05
0.000290178
-0.000451935
0.000514927
-0.00035317
0.000481684
0.00110401
-3.73561e-05
-7.20391e-06
6.32324e-05
-0.00057533
-1.80619e-05
0.000798014
-0.000685196
0.000388643
-0.000501461
-0.000152095
-0.000807042
-2.85294e-05
0.000236754
0.000504081
-0.000526723
-0.000701594
0.00155721
0.000363726
-3.62466e-05
-0.00115075
0.00131462
-0.00012762
-3.05234e-05
0.000111822
0.00010786
-0.000163635
0.00015294
0.000190121
0.000392385
-0.000294767
-7.96442e-05
-0.000481714
0.00134635
-0.000549368
-0.00149857
0.000361367
-0.000452775
6.87665e-05
1.25324e-05
0.000345624
-7.24988e-05
5.7308e-05
-4.42511e-05
0.000605286
-6.94204e-05
-0.000307958
0.000376555
8.23539e-07
3.26545e-05
-0.000131642
-5.27114e-05
0.000277309
3.04838e-05
0.000685989
-0.000636516
-0.000521042
0.00047157
0.000684913
-0.000872344
0.000646877
-0.000459446
-0.000174192
9.45477e-05
0.000210762
0.000612064
-0.00046892
0.000321245
0.00106621
0.000308978
-7.60553e-06
0.000499766
-0.00028047
-0.000219297
0.00058767
-0.000845828
-0.000260039
9.91162e-05
-3.79918e-05
-0.000472399
-0.000124437
7.55649e-05
0.000521272
0.000215693
0.000381721
-0.000420212
0.000711593
-0.000211827
-0.000160885
-8.20219e-06
0.000175784
0.000488371
-0.000698195
0.00023208
-0.000128711
7.70133e-05
-0.000180382
-7.39145e-05
0.000195697
4.03726e-05
-0.000162155
0.000280995
-0.000122829
6.2741e-05
0.000331417
-0.000113163
-0.000230432
1.77932e-05
0.000254957
-4.23186e-05
2.80066e-05
0.000367192
-0.000113684
1.46762e-05
0.000197415
0.000155101
7.9949e-07
0.000260239
-9.66934e-07
0.000209209
-1.33488e-05
1.24423e-05
-1.12208e-06
2.02861e-06
-0.000130723
-7.24147e-07
0.00015421
-2.27629e-05
1.69552e-05
-0.000184797
0.000173437
-5.59516e-06
1.82673e-06
-0.000113949
-1.86008e-05
-6.36518e-06
2.32541e-05
2.19663e-05
-3.88551e-05
-2.59939e-05
2.11859e-05
8.71684e-05
-8.23604e-05
2.00665e-05
-9.37042e-05
-0.000260757
0.00097235
-3.49339e-05
5.21871e-06
2.335e-05
5.78739e-05
-8.38678e-05
-3.46231e-05
2.67904e-05
2.78992e-05
9.12912e-05
-1.99934e-05
-0.00053132
0.000102876
-0.000513351
0.000941795
2.20828e-06
0.000131776
-0.0011469
-0.000211501
0.00113555
0.000222852
-5.36457e-05
2.05771e-05
6.41464e-05
-3.10777e-05
0.000577288
-0.000286455
-0.000822153
3.29096e-05
0.00014627
-0.000288857
0.000114729
0.000222164
-4.80363e-05
0.000121383
-9.40137e-05
-0.000126141
9.8771e-05
1.22727e-05
4.14024e-05
-1.05723e-06
-5.26179e-05
-5.6146e-05
0.00073631
-0.000497479
0.000474243
-6.80658e-06
7.45443e-05
-0.000234723
-0.000310589
0.000281891
0.000263421
0.000183489
0.000104205
0.000184077
1.61995e-06
3.19532e-05
-0.000120405
2.7989e-05
1.12012e-05
-7.76016e-05
7.02114e-05
-0.000131032
0.000138422
-2.83073e-05
-4.09129e-06
-6.16151e-05
5.63388e-05
-9.14527e-05
3.70561e-06
7.57219e-06
-8.88794e-05
-0.000706001
-1.18818e-05
1.54533e-05
1.34104e-07
-2.54341e-05
5.46486e-05
3.24383e-05
-0.000100529
7.73966e-05
9.70808e-06
9.4266e-06
2.33951e-06
-3.76616e-05
5.38759e-06
-1.32117e-05
-3.57656e-05
3.74341e-05
-1.97966e-05
-6.84584e-05
5.08209e-05
-4.8542e-05
4.7385e-05
2.23429e-05
3.21081e-05
-0.0002063
0.00109917
4.8147e-05
-0.00114732
0.000148788
-0.00016765
0.000248851
5.2225e-05
5.6489e-06
-4.81598e-05
-0.000117457
2.33859e-05
-7.40496e-05
5.06637e-05
0.000118635
1.56674e-05
-5.85553e-06
1.03124e-05
-3.16819e-05
2.92079e-05
-4.25567e-05
5.97012e-05
0.000101989
-0.000146023
0.000104387
-0.000122749
0.000141998
9.70804e-05
-9.02901e-05
0.000167245
9.74028e-05
-0.000200499
0.000176781
-0.00018963
0.00111997
0.000174928
-0.000238176
0.000205246
0.000120416
0.000160176
-0.000113347
0.000137734
-0.000230393
9.56688e-05
-3.01007e-06
-0.000118427
0.000258175
0.000136694
-0.000276442
0.000111635
-0.000152105
-2.35677e-05
1.08158e-05
1.27519e-05
0.00142185
-5.44025e-05
-4.84478e-05
7.20476e-06
5.36853e-05
2.83747e-05
8.3314e-07
-6.63654e-05
-7.30074e-08
0.000107846
-4.14079e-05
4.07042e-05
0.000292898
-9.63857e-05
4.80707e-06
0.000152703
-9.62012e-05
0.000117734
-2.56021e-05
-4.85388e-06
4.56494e-06
0.000108912
-0.000134573
0.000149583
-0.000195326
0.000174344
0.000111345
-6.99957e-05
0.000139885
-3.64522e-05
-0.000151759
0.000165706
3.84678e-06
-7.93586e-06
7.88906e-06
1.09398e-05
-1.15921e-06
1.6433e-05
-2.62135e-05
5.95848e-06
-0.000129711
1.38197e-05
-6.44018e-05
0.000173241
-0.000106944
0.000163901
8.59251e-05
-0.000139665
9.87464e-05
5.39573e-05
1.31844e-05
7.27438e-05
3.87744e-05
-1.24783e-05
3.84928e-05
-6.69951e-05
-0.0003229
3.8388e-05
0.000351508
0.000294227
-6.59293e-05
-0.000249932
2.16343e-05
0.000126757
0.000173382
-0.00010006
-0.000200079
0.000131422
0.00106831
-0.00038231
-0.000894967
-7.57557e-05
0.000342023
2.79595e-05
-0.000161605
0.000222434
0.00112168
0.000252342
-8.24783e-05
3.92126e-05
9.7223e-05
-9.96651e-06
4.27821e-05
-5.03399e-05
2.32205e-05
0.000336097
-9.54423e-05
-0.000109405
4.32418e-05
0.000486702
-8.97749e-06
-0.000114325
-1.01844e-05
1.29234e-06
0.000174598
-0.000269749
-8.31801e-05
-0.000197256
-1.82878e-05
0.000214819
3.37767e-05
0.000494863
-0.000402915
-0.000125724
-1.37708e-05
0.000258543
0.000701751
-0.000275438
-3.95217e-05
0.000258884
5.60756e-05
-0.000140205
0.000429304
-0.000438983
-0.000190621
0.000489399
-0.000150078
0.00011872
-4.76261e-05
-0.000178038
-0.000188011
-0.00040705
-0.000125102
0.000462732
-0.000833814
0.0009459
0.000228405
0.000128516
0.000110833
-1.75268e-05
0.000299948
-0.000299284
3.31122e-05
0.000229456
-7.38471e-05
-0.00017113
1.55211e-05
0.000278361
-0.000131683
-1.38233e-05
3.74845e-08
-0.001082
0.00104575
0.000265421
6.35711e-07
0.000228806
0.000118072
5.39702e-06
-4.48445e-05
4.73366e-05
0.000707915
0.000714888
0.000202825
2.65669e-05
-0.00094428
-4.42295e-05
0.000115699
0.000350263
6.52701e-05
2.70227e-05
7.04374e-06
-3.52257e-05
-2.38614e-05
0.000494062
-0.000463712
-6.48834e-06
-0.000847365
0.00070803
6.57368e-05
-0.000110276
9.14598e-05
-7.52245e-06
-7.79789e-05
3.85473e-05
4.90843e-06
4.5048e-05
-7.3873e-05
6.09332e-05
0.000100704
0.000383898
-3.13342e-05
-1.78475e-05
7.25676e-05
0.00107854
2.06331e-05
1.40792e-05
6.63625e-05
-1.28681e-05
-0.000182561
-0.00026194
0.00027738
-2.83073e-05
-0.00089371
0.000572783
-0.000684273
3.45369e-06
-0.000794644
-0.000482633
-0.000633115
0.00090743
-0.000101688
5.64774e-05
0.000154133
-0.000225864
-7.90477e-06
-0.000176068
0.00010545
-0.000907686
0.000469509
-1.29465e-06
-0.000964153
0.000669462
-0.000599019
2.60424e-05
-4.20781e-05
0.000695004
-0.000678969
0.00023306
0.000278482
3.84373e-05
-0.000355335
3.84156e-05
-1.28813e-05
6.27941e-05
-4.22594e-05
9.25758e-06
-1.26548e-05
-3.45909e-06
-0.000232098
6.84859e-05
-2.36138e-06
0.000136276
0.000403542
-0.000590087
5.74202e-06
0.000416544
6.0556e-05
-9.03261e-05
-0.000561455
-0.000677399
0.00124019
8.7731e-05
-7.23817e-05
0.000525846
7.4584e-05
0.00057857
-0.000540122
-0.000113032
-9.25462e-05
0.000138708
-0.000981543
-3.94158e-05
2.39281e-05
0.000541334
-0.000515826
0.000147531
-0.000168069
0.000173249
-0.000152711
0.00148172
-0.000924161
0.000346949
-0.000904507
0.000441434
4.34228e-05
-0.000441238
-4.01917e-05
0.00075597
-0.00055673
-0.000352586
0.000153346
0.000232493
-0.000190795
-0.000167832
0.000621964
-0.000367542
-0.000375929
-4.49445e-05
-0.000171102
0.000247952
0.000102444
-0.000179294
-0.00120294
4.48955e-05
0.000100287
0.000814262
8.90892e-05
0.000207428
-0.00111078
0.00023152
1.64118e-05
9.83931e-05
-1.62572e-05
3.78012e-05
0.000451604
-0.000902343
0.000567439
-0.000148271
-0.000263758
0.000140704
0.000271325
-0.000352427
0.000656678
-0.00066267
0.000690545
-0.000446008
0.000505256
5.00497e-05
0.00114696
-0.00114886
-0.000118318
-0.000240547
0.000936738
-0.000928766
-0.00032358
0.000545364
-0.000443224
0.000967913
-0.00100082
0.000918229
-0.000903837
-0.000364194
-8.45231e-05
1.48735e-05
-0.000189451
0.000106107
0.000152111
-5.35503e-06
0.000188587
4.62242e-05
-0.000110958
-6.67665e-05
-0.000105533
0.000119966
0.000149468
-0.00017175
-0.000380396
0.000192821
-0.000102752
-0.000778164
-0.000191552
0.00067455
-0.000791008
-0.000484953
-0.000604457
0.000821125
0.00078348
-7.44086e-05
-0.000166472
7.3104e-05
-0.000887103
4.93754e-05
-9.9114e-05
9.41816e-05
-0.000877015
9.90913e-06
1.47929e-05
0.00085051
-0.000875212
-1.4819e-05
3.97689e-05
0.000750924
-0.000790693
-0.000229862
6.71839e-05
-0.000170263
0.000608238
-0.00021269
-0.000130736
-6.47665e-05
-0.000572372
-0.000235626
0.000413684
-0.00041801
-3.80476e-05
0.000813692
-0.000768763
-0.000693988
-0.000843265
0.00097596
0.000561293
4.37219e-05
-2.78055e-05
0.000920821
0.0001478
0.000221975
0.000980882
-0.00103366
0.000699311
-9.80739e-05
-0.00105792
0.00110259
5.34077e-05
-0.00113979
-1.44285e-05
6.98453e-05
-6.56899e-05
-0.000549172
-0.000206549
0.000565099
6.46014e-05
-0.000477593
-0.000152515
0.000505007
-0.000352942
2.02562e-07
-0.00103653
-0.000490176
0.00047383
0.00014637
-3.52548e-05
-3.01266e-05
8.86018e-05
-0.00052649
-0.000194431
-0.000105808
-0.00072541
-3.90226e-05
0.000764432
1.44749e-06
-2.12254e-06
-4.80243e-06
0.00027696
-0.00127304
-5.38653e-05
0.00104994
-0.000444383
8.63064e-06
-1.02661e-05
-7.11011e-06
0.000532629
-0.000515253
-4.62049e-05
2.43804e-05
-0.000948058
-5.82424e-05
2.55105e-05
-7.66731e-05
-4.75427e-05
-1.81825e-05
2.80142e-05
0.000624368
-0.000342554
0.00012192
0.000268932
0.000347335
0.000171687
1.38163e-05
5.75747e-05
0.000158913
-0.000412247
-6.20695e-05
0.000128621
-0.00022901
9.8768e-05
-0.000107186
0.000144315
3.35299e-05
2.72995e-05
-1.50036e-07
-8.62506e-06
3.8803e-05
-3.73819e-05
-0.000260631
0.000377577
-0.000110159
-6.78745e-06
0.000862089
-0.000827474
0.000585468
3.97522e-05
0.000202253
-3.38111e-05
0.000205624
-3.12003e-05
3.07487e-05
-1.29283e-05
8.38518e-06
-6.88394e-05
1.28281e-05
1.35221e-05
-2.98126e-05
1.62905e-05
-6.52598e-05
2.80858e-06
-5.38674e-05
3.28779e-05
2.09895e-05
-6.55928e-05
5.88456e-05
6.74715e-06
-3.86282e-05
-0.000279768
-5.26826e-05
4.71455e-05
5.53707e-06
2.35022e-05
-0.00110658
0.00117857
-0.000487987
-0.00151273
-9.96468e-06
2.34868e-05
-7.22829e-05
0.000198279
0.000126801
-4.65981e-05
-7.7602e-05
2.37346e-05
1.98977e-07
0.000679909
-0.000662617
-0.000223841
2.29132e-05
6.16301e-06
4.55804e-06
-0.000313204
-0.000190021
-0.000186838
0.00027462
0.00015223
4.66124e-05
-7.68276e-05
4.54465e-06
-0.000193963
0.000169989
-1.00262e-05
-0.000431859
5.19658e-05
0.000441857
-0.000127719
0.00012884
0.000706163
-8.55304e-05
-4.0688e-05
8.06851e-05
0.000659313
0.00110558
-0.000855532
0.000696389
7.08785e-05
0.000428649
-0.000323902
1.33251e-05
-2.13912e-05
-0.000103193
0.000119291
0.000115153
-0.000173311
-6.11332e-05
-0.000109157
-8.74919e-05
-0.000465621
2.5514e-05
-0.000616181
-0.000143359
9.78522e-05
0.000661688
0.00093228
-1.34485e-05
-5.9622e-05
7.61633e-05
-1.66329e-06
-2.66381e-05
6.85857e-05
-5.35332e-06
0.000211941
-0.00042243
-0.000323747
-8.66536e-05
-1.27849e-05
0.00022624
-0.0001566
0.000160561
-4.13898e-05
-0.000104994
7.7544e-05
5.25569e-06
-0.00036528
-0.000638134
0.000582641
0.000865705
1.67519e-05
-0.000102596
-1.34702e-05
-0.000671987
0.00043098
-2.89259e-05
-0.000298038
0.000269927
-0.000200635
0.000337092
-0.000170763
0.000176059
-8.81348e-05
8.28383e-05
1.66901e-05
1.48032e-05
1.6645e-06
-0.000147108
0.000123196
2.39124e-05
4.95314e-05
-5.55291e-05
5.99765e-06
-6.04196e-06
-8.73689e-05
6.5784e-05
-9.10922e-05
0.000614175
0.000232887
-3.29391e-05
7.58737e-05
0.00011554
-0.000100122
-0.000303875
0.000308043
-2.09726e-06
-0.00110978
-4.13499e-05
0.000117469
0.0012166
-0.00115939
3.79173e-05
-4.04745e-05
3.35207e-05
0.000105947
-7.59339e-05
0.000124151
0.000429391
7.00366e-06
-1.41451e-05
0.000430628
-0.000286953
-0.000395316
4.35951e-06
-0.000793976
-0.000456982
-0.0002594
-0.000141485
5.72796e-05
-0.000327523
4.31806e-05
-2.71772e-05
-4.67747e-06
-1.1326e-05
-1.68382e-05
0.000113505
-8.33867e-07
6.09271e-05
-0.000174216
-0.00033413
0.000107852
0.000502323
-4.01986e-05
1.0386e-05
-0.000102787
-0.00101464
-3.90356e-05
7.41202e-05
-3.82158e-05
-4.52601e-05
-5.48613e-06
-0.000176782
-8.08372e-05
0.000239771
-8.82152e-05
0.000297886
-0.000335227
3.39183e-05
-0.00011906
5.01022e-06
2.21569e-05
-8.54095e-05
-0.000132956
0.000561323
-2.58502e-05
3.19881e-05
-0.000196059
-0.000232353
-0.000774979
0.00098822
-0.000710758
0.000357298
-0.000489805
7.09637e-05
0.000808854
-0.000119291
0.000160365
8.26356e-05
-6.08144e-05
-5.4321e-05
4.02356e-05
0.000100044
-9.9908e-05
5.91582e-05
6.84831e-05
-1.28711e-05
-0.000129485
0.000714083
-0.000192038
-0.000689877
0.000220406
0.0001202
0.00015406
2.1581e-05
2.79504e-05
-0.000111199
0.00118021
2.34305e-05
-0.00012688
-0.000633775
-1.11975e-05
-0.000931039
0.000573943
-1.76792e-05
0.000161122
-2.02082e-05
0.000196853
-6.22981e-05
-0.000112158
0.000200295
3.31367e-05
1.61875e-05
2.73271e-05
0.000537648
7.28112e-05
-0.000201891
0.000340721
7.51855e-05
-9.08602e-05
-5.19808e-05
-0.000275982
5.26005e-05
7.36027e-05
9.45593e-06
2.0441e-05
4.03145e-05
0.000399682
-0.000491773
-4.08657e-05
-0.000696997
-0.000520286
0.000442304
-4.5239e-05
7.98947e-05
0.00010742
-4.76175e-05
-2.19192e-05
5.50737e-05
-0.000232495
0.000143914
-0.000103942
0.000367937
-1.6847e-06
0.000131195
-8.68842e-05
7.94324e-05
-0.00012977
6.9469e-06
-5.64239e-06
0.000786243
-0.000462238
-0.00018554
0.000440671
-0.000327401
2.85955e-05
-0.000139118
9.09014e-05
0.000452485
-0.00118496
-0.000282172
-0.000163829
0.000284067
-0.00034049
-0.000126218
-0.00055792
0.000472383
-0.000157195
-6.19764e-05
3.35719e-05
-0.000479999
-0.000532582
-0.0012426
-4.6572e-05
1.53661e-05
-0.000184284
-4.66802e-06
7.84373e-05
-2.98458e-05
-4.39234e-05
0.000172201
-0.000149428
-2.40365e-05
0.000237571
-0.000262211
-0.000160779
0.000473098
-0.000378515
0.000153522
-8.03797e-05
-0.000472469
0.00102157
-0.000969773
3.67178e-05
0.000382029
-0.000247728
-2.28333e-05
7.32902e-05
-4.28431e-06
-1.71107e-05
5.15842e-06
1.0126e-05
-0.000126118
-0.00147337
-0.000832042
-0.000383162
0.000314223
9.13637e-05
-2.60625e-05
1.63409e-05
-0.000123991
-2.5434e-05
-7.76994e-06
-9.05243e-08
-0.000199686
-4.81568e-05
-4.42145e-06
-8.18666e-05
-0.000566873
0.000580158
-0.000511817
0.00057491
5.24771e-06
-0.000504997
0.000444125
6.08724e-05
-0.000447922
-6.38955e-05
-3.79691e-06
-0.000684138
0.000684674
-0.000553912
0.000568742
-1.48297e-05
-0.000509346
-0.000634771
-4.93665e-05
0.000657643
0.000630958
2.66852e-05
-0.000562809
-0.000430334
0.000491906
-0.000445279
-4.6627e-05
-0.000333791
-9.65425e-05
-0.000241033
-9.27576e-05
0.000180386
-0.000135911
-6.06479e-05
0.000617818
1.31404e-05
0.000635438
-1.76197e-05
0.000655127
1.40623e-06
0.000533622
-0.000372767
6.91878e-05
-6.02092e-07
-7.73138e-05
-0.000151022
7.56241e-05
-0.000240274
0.000147129
3.61082e-05
-9.33515e-05
0.000159036
-0.000237875
-0.000684051
0.000187331
-2.27602e-05
7.28778e-05
0.000458587
-0.000576683
0.000143023
-0.000182521
0.000139265
0.000140554
0.000101638
2.15571e-05
-0.000841683
-3.77948e-05
-3.48819e-05
0.00012282
-7.66818e-05
9.76181e-05
-0.000794351
-0.000194417
-0.00149699
0.000540152
0.000280818
-0.000221942
-2.72648e-05
0.000649641
-4.81293e-05
7.40386e-05
1.77763e-05
-1.32053e-05
0.0010597
-0.00126445
7.93236e-05
3.15503e-07
-7.96391e-05
0.00126116
3.40417e-05
6.39124e-05
0.000221759
-0.000133315
1.3346e-05
3.02529e-05
0.000227726
0.000773279
-0.000783408
-0.000181909
-0.000178942
5.26094e-06
-0.000373641
0.000205128
0.000697822
0.000798001
-0.000802652
6.49398e-05
-2.651e-05
5.72628e-05
-8.03356e-05
0.000277575
-0.000164971
0.000174435
-0.000527841
-0.000790741
-0.000213916
-6.89406e-05
0.000172292
-7.66905e-05
0.00012533
-0.000220932
0.000236913
0.000224293
-0.000217931
8.87888e-05
-7.30073e-05
-7.54188e-05
-0.000227161
0.000582379
0.000116169
5.36958e-06
-1.30748e-05
-1.26609e-05
3.65895e-05
0.000164879
0.000285584
-0.00040652
-5.20417e-06
-0.000131238
0.000686309
0.000584473
-0.000196836
-0.000102834
-0.000525867
-0.000609615
0.000600638
-0.000173441
9.61205e-06
-0.000737589
0.000541568
-0.000159489
-0.000337815
0.000196032
5.8493e-06
0.000134043
0.000351747
-0.000509949
-6.9677e-05
0.000210509
2.90763e-05
-7.59127e-05
8.92274e-05
-0.000579498
4.03397e-06
-3.96582e-05
-3.18449e-05
0.000398965
0.000119128
0.00041816
0.000437597
-0.000135501
0.000130688
0.000458649
-0.000485179
-8.94036e-05
1.80384e-05
-3.77819e-06
-1.02946e-05
-0.000195038
-6.44323e-05
1.06046e-06
-0.000480317
-0.00135362
0.00111893
0.000226747
-0.000128712
0.000688208
0.00020167
6.82221e-05
5.51139e-05
5.3426e-05
-0.000195283
0.00027123
-3.37192e-05
1.2103e-05
3.78037e-05
3.10063e-05
-4.2035e-05
-9.99294e-05
5.64714e-05
-6.11842e-05
0.000124679
0.000766008
0.000501136
-0.000404676
-3.49191e-05
0.000237187
-0.000173383
-0.000339787
-0.000138432
0.000211798
-0.000245972
4.71812e-05
-0.00012512
7.04044e-05
0.000246852
-0.000311485
-5.7713e-06
-7.52397e-05
-4.52838e-05
2.23488e-05
1.75653e-05