/*--------------------------------*- C++ -*----------------------------------*\
| =========                 |                                                 |
| \\      /  F ield         | OpenFOAM: The Open Source CFD Toolbox           |
|  \\    /   O peration     | Version:  v1912                                 |
|   \\  /    A nd           | Website:  www.openfoam.com                      |
|    \\/     M anipulation  |                                                 |
\*---------------------------------------------------------------------------*/
FoamFile
{
    version     2.0;
    format      ascii;
    class       volScalarField;
    location    "0.72";
    object      k;
}
// * * * * * * * * * * * * * * * * * * * * * * * * * * * * * * * * * * * * * //

dimensions      [0 2 -2 0 0 0 0];


internalField   nonuniform List<scalar> 
5794
(
0.0351834
0.063851
0.481408
2.05302
1.73736
0.0484582
0.151768
0.219295
1.48577
0.147521
0.926688
0.38835
0.308229
1.92807
0.177759
0.0366116
6.19957
1.98989
0.128312
0.0479797
0.941557
0.0443185
0.436315
0.245112
0.274911
2.55728
6.29819
3.20044
2.0852
0.160514
0.273119
0.605262
0.749409
0.207432
0.26239
0.291357
0.19674
0.671484
0.848867
2.24967
1.11419
0.491938
0.278592
0.282162
0.141928
1.12316
0.841711
0.43437
0.106137
0.0724065
0.289872
1.44482
0.0889364
0.129019
0.010893
1.07413
0.823493
0.597392
0.218238
4.24738
0.934558
0.066676
0.267938
1.05386
1.26914
0.0559165
1.31687
0.424974
1.76351
0.0898843
2.45743
1.46221
7.44425
0.163879
1.85173
2.1985
0.313049
1.96799
0.25877
0.0464554
0.0380712
0.0447199
1.35513
0.610514
0.519189
0.782868
0.469703
1.04523
0.364491
0.686127
2.42956
0.673615
1.57613
2.6241
0.985813
2.53368
1.86444
1.3696
0.617916
1.02114
0.881231
0.339294
0.249582
2.55545
0.108153
3.38088
0.0561612
0.61847
1.62002
0.246393
0.0629892
0.0513194
0.868005
0.0966471
0.823269
1.9964
0.244088
2.21715
0.856605
0.499721
2.53673
0.0483407
0.205592
2.82931
0.0954151
1.46915
1.53812
0.0706357
1.74344
0.678928
0.481037
0.351145
1.16846
1.75302
3.12191
0.195867
2.0235
0.0711199
0.158115
0.108611
0.0807064
1.84706
0.0840054
2.26941
0.252595
6.81518
0.946138
0.905026
1.29078
1.1979
0.313938
0.10882
3.30453
0.300584
6.94986
1.00739
0.645233
0.342692
1.41872
0.552778
0.070948
0.196131
0.0751705
0.189857
1.18798
1.32256
0.19857
0.171389
0.0508182
0.0435134
0.106358
0.827163
0.160578
0.173977
0.131231
0.294486
0.0836969
0.22284
0.130016
1.27229
0.262092
0.608167
0.193707
0.907112
0.198806
3.68067
0.38496
0.442234
0.108129
0.264427
0.94823
0.555442
0.720745
0.218696
0.27553
0.412539
0.145037
0.0396225
0.0967576
0.277308
0.187326
1.23264
0.31036
0.256404
0.850096
1.14046
0.1518
1.0594
4.21189
0.957469
0.257825
0.313353
0.292251
0.263191
0.219823
0.306169
0.365838
1.33298
1.06863
2.29751
0.306291
0.81964
3.79859
1.46095
1.96583
3.38733
0.243436
0.222416
0.27737
0.231296
0.161547
0.179471
0.155753
1.1829
0.900263
4.49224
5.20959
0.900968
0.275115
0.0408726
0.037552
2.10502
0.895721
0.690359
0.409689
0.116744
0.119591
1.26943
1.3389
0.913947
0.471591
0.0546787
6.5498
0.0415444
0.210888
4.49534
0.266371
0.426747
0.759687
0.0933338
1.50746
0.283471
0.252179
0.0461555
0.656812
0.384716
1.79442
1.73345
0.0810057
1.39483
1.04371
0.291399
0.451372
2.18681
0.397791
0.218748
0.12758
0.0863698
0.113256
0.30312
0.037943
1.68214
0.868279
0.381961
1.56101
2.40945
0.930045
1.18083
2.96711
2.60267
0.240475
0.21567
0.222102
0.11518
0.203253
2.27172
0.746931
0.232283
1.09874
0.0537351
0.0408589
0.763455
0.0383575
1.0683
0.207225
1.62572
0.105761
1.37851
1.37558
1.01832
0.328715
1.15791
1.05808
0.0961032
0.292259
0.593622
0.796046
3.45093
1.57838
2.52766
1.17168
0.41892
2.05658
1.71923
0.0425209
0.560853
0.136356
0.396971
0.28627
0.854631
1.18937
0.281519
0.230397
0.601755
0.493563
0.125509
0.139076
0.0564867
0.0959262
0.327263
0.183779
0.241906
1.37919
0.35377
0.12435
0.172019
1.1998
0.726899
1.54331
0.804851
1.04149
3.0722
0.767534
0.558545
0.212086
2.72223
0.0746899
1.32804
0.157169
0.116017
0.937687
0.655124
1.80854
0.222042
0.201498
0.490456
1.18343
1.00372
0.752929
0.4842
0.175301
0.04108
0.450055
0.0869842
1.1833
1.33587
0.896868
0.729395
0.765784
0.0873607
0.740683
0.176857
0.322719
0.257067
0.238194
0.174705
2.56337
0.261134
0.30062
0.238929
0.182091
1.04202
0.0840186
0.0595187
0.128716
0.13934
0.111837
0.234146
0.122269
0.3808
0.212384
0.27229
4.92256
0.0607911
0.0377824
1.15527
0.213625
0.0523879
0.050358
1.85922
1.34957
0.589943
1.27792
0.617698
1.23066
0.913107
0.204183
1.83528
1.11051
1.73625
0.599337
1.29497
0.875181
0.162307
0.190419
0.200735
0.120389
0.0886906
0.050984
0.0444096
1.37307
0.224008
2.07415
1.29149
0.120774
0.192889
0.366806
0.374725
0.208042
0.210781
0.122629
0.269436
0.239945
0.326626
0.096698
2.23001
0.888699
0.0977808
0.182286
1.1202
0.14489
0.0516741
1.2658
0.0543474
1.93212
0.041117
1.90224
2.75987
1.15623
3.6891
0.0564392
0.0626662
0.243214
0.088006
1.1196
0.683775
4.10843
2.85053
1.01753
0.237156
0.031432
4.96819
1.59313
0.342454
0.133758
1.81677
5.87083
3.55284
0.193598
0.0636301
0.450691
0.0606979
0.105888
0.299151
0.881528
1.12719
0.312462
0.133332
2.82633
0.0491651
0.0490196
1.98761
1.95352
1.66452
0.191214
0.0968437
0.14302
0.177988
0.0573222
1.03988
3.38969
5.83425
0.265109
0.371671
2.45137
0.0608026
0.0578959
0.620172
1.46706
0.0534671
2.48299
0.0947381
0.893117
0.0433129
0.0806059
0.726366
1.78452
0.0465191
0.222993
5.0243
0.0496938
0.0515473
2.27807
2.26253
0.756896
0.0378597
0.195198
1.07874
0.0486853
0.0434354
0.413953
0.0462605
3.95303
0.157871
0.411632
0.134965
0.240094
2.3103
0.664411
1.23753
0.0476907
1.49888
0.0488586
1.72792
0.125013
0.0375395
0.215151
2.22739
0.0799326
0.0693094
2.61436
0.0975683
0.100336
0.212124
0.0447847
0.0663117
0.382794
0.041771
0.0472682
1.09214
10.3697
0.133144
1.49933
0.123127
1.7516
0.187062
0.0262174
0.787923
0.0416789
0.0546335
1.23542
0.937636
1.45623
1.1359
1.58903
0.292721
2.90297
1.36125
0.361907
0.858531
2.09212
0.756062
2.92198
3.81842
1.87749
0.913791
0.0760386
1.69276
0.656699
2.14484
0.0545562
0.0749889
0.0745106
2.35908
0.801515
1.2336
0.0659173
0.29355
0.0573111
0.204078
0.0546191
1.37714
0.832287
2.57338
0.0462207
0.518364
2.79053
0.139503
0.0123777
0.788571
3.39797
4.42757
2.21916
0.112104
0.247598
0.182155
0.948216
0.580619
0.270967
0.867835
0.0488094
1.29604
1.69978
0.854897
0.0580866
0.0393204
0.0947154
1.36855
2.16609
0.0719584
0.0400704
0.049036
0.0322247
0.045237
0.0529268
0.145602
2.20687
0.486938
0.352397
3.2171
0.109487
0.290442
1.09276
0.702981
2.00374
2.83534
0.941172
0.737737
0.151727
0.0377943
0.0284007
0.256959
0.161457
0.15461
0.200684
1.62966
5.73893
0.73289
1.87262
0.648481
0.0666009
0.0765453
0.0606575
0.681213
0.0593463
1.12814
3.0803
2.50321
0.952362
1.1937
0.920021
0.259742
4.92962
0.875454
0.616392
0.911998
2.78739
0.112369
2.2606
0.0979117
0.0288679
1.1277
0.143969
0.0567275
1.1102
2.07663
2.30052
0.163484
0.117482
0.0454629
1.44248
4.02381
2.04347
1.14665
0.103094
0.983167
1.06135
0.0342071
0.0592735
0.289764
0.0813434
0.231453
0.0432985
0.447431
1.09698
2.44789
1.53981
0.219966
0.170932
2.84521
0.517735
4.07607
1.22494
1.63757
1.43424
0.373573
0.266988
6.99187
1.30939
1.38478
1.84117
2.52348
2.34553
0.137379
3.92952
0.271854
0.363103
0.506415
2.79222
0.63901
1.11122
1.35642
3.06245
0.870618
0.107221
0.261209
4.71795
0.755392
0.657036
1.50964
2.18059
0.0476291
0.0295065
0.109362
0.167674
2.15284
0.919003
2.52833
0.092182
0.283074
0.0301219
0.222342
0.120643
0.0421568
0.801973
2.36495
0.207186
2.8017
1.02807
0.258861
0.144962
5.94617
2.06527
1.06905
3.14904
2.56765
0.985297
1.4267
0.2746
1.55392
0.633363
2.03639
0.835012
0.156727
0.37124
0.056202
0.0366149
0.104057
2.00705
0.0700186
1.21575
6.27453
0.201949
0.0522453
0.0560057
2.14915
0.843586
1.21453
2.24879
0.788064
0.282397
2.22937
2.13833
1.4235
0.234868
0.929122
0.0504214
1.85932
0.0536011
2.15156
0.304438
0.864525
0.838266
0.0645038
0.0288172
0.117986
1.18439
1.56699
1.69365
4.32585
1.20486
0.0819466
0.260788
0.633909
4.18793
0.0832624
0.563184
0.687079
2.45966
0.0471246
0.0481682
0.358405
0.864038
4.77791
0.0795683
0.385701
0.126674
0.316094
0.0980573
0.68027
1.83624
2.04425
0.282655
0.144106
2.26922
0.281313
0.600819
7.93058
0.0354714
0.0233584
0.0788821
0.0606845
1.0387
0.29179
0.4984
0.0776981
0.0855622
0.218262
0.316462
5.62453
0.871683
2.72824
0.841789
1.13489
1.68898
1.17704
4.84889
1.00711
0.0762961
0.0459784
0.206944
1.05511
0.240119
0.383887
4.16158
1.32859
2.55596
0.872944
0.0955403
2.7076
0.192286
0.348331
1.38155
0.0575576
3.86945
0.12907
0.173122
1.69526
0.388513
0.231253
0.265837
1.46133
0.658557
0.264975
0.0618002
0.168368
0.75939
1.78164
0.252222
0.299192
1.06006
0.252735
1.01173
3.0244
1.65885
2.50597
1.31629
0.046034
0.0473032
0.477945
0.0662915
0.071003
0.0502677
0.0501868
0.799822
0.0562375
0.254152
0.0674011
2.43023
1.59124
0.710606
0.276539
0.519954
0.987399
5.58367
0.696708
1.65616
0.234254
0.0589558
5.31163
0.38392
1.34067
0.261013
1.31606
0.700901
0.946772
0.0306127
1.6509
1.11043
0.180938
0.147885
0.0989719
0.0366138
0.0532376
0.728945
2.77136
3.46487
1.65235
0.595347
1.263
1.25895
0.321246
0.0478625
0.0521175
0.694912
0.0616852
4.90755
1.16778
2.04339
0.246269
2.31974
1.00535
0.0532304
0.0552773
5.0915
3.32171
0.305094
0.262321
0.474183
1.63615
0.0989722
1.75296
0.0756414
0.153815
0.192691
0.0642922
0.0632054
0.378478
0.0875536
0.0551576
0.0576944
0.0680233
0.26422
2.44194
0.215715
0.119349
0.0683776
1.17936
0.299664
0.39033
0.154331
0.556961
0.054146
0.640898
0.20042
0.133289
0.0795346
0.403223
1.5344
0.0830886
0.304256
0.492574
0.0735858
0.291791
1.15846
0.430531
3.94269
1.77841
0.0449201
0.318484
0.531756
2.57484
0.536194
1.0079
1.10535
2.45
0.0416768
0.255078
0.0640298
0.0253253
0.416134
0.410517
1.98274
1.71629
1.29699
0.0218377
0.742917
1.4791
0.771578
0.809336
0.95188
0.0598805
0.0514463
0.0549586
0.594936
0.302383
2.32515
0.201016
0.651658
0.196766
0.204775
0.287088
0.0585755
0.0495308
0.0472033
0.965364
2.67917
0.762377
0.069347
0.274437
1.29695
0.0534214
0.241622
0.0864439
0.227531
0.832877
0.0563358
1.35655
0.0543446
0.311144
1.0368
0.0949302
2.28027
0.286294
0.0404403
0.557375
2.3644
0.0448172
1.46628
0.0908738
0.0522413
0.058537
0.10135
0.0595578
0.0532949
0.309228
0.0817245
0.0539871
0.155053
0.200774
0.196404
1.70916
0.543213
0.267189
2.49429
0.82934
0.0543243
0.0815482
2.36757
0.512701
1.12897
2.70841
0.0583304
0.49102
0.049556
2.82601
0.118276
1.64971
0.131655
3.82298
1.0576
0.0252612
0.664181
0.0707452
0.0616998
0.21499
0.0644951
0.622083
0.645666
0.0405378
0.677473
0.0208358
0.0318216
0.12383
0.0600391
0.054916
1.51153
0.226648
1.11188
0.0798903
1.33402
0.104032
0.0479486
0.0551576
0.198717
2.16813
0.404161
0.21369
0.574971
0.25011
0.416542
4.23585
2.26988
0.0548537
0.578904
1.97516
0.787751
0.949601
0.239481
2.40884
2.15669
1.52006
0.492267
2.86085
0.265402
0.264217
0.136692
0.25055
0.189386
0.0444749
11.6927
0.693691
0.0455648
0.25404
1.71793
1.67402
0.271957
0.0287634
0.222011
0.297158
0.101512
0.0609659
2.23712
0.120905
1.10041
0.499384
2.0224
0.221147
0.0859567
0.237945
0.302309
0.238709
0.602981
0.0538183
0.749447
0.0540954
3.85105
0.401505
0.195432
0.191137
0.481543
0.292449
0.391516
0.333545
0.193313
0.195871
0.123339
2.12289
0.290527
0.214526
0.0473839
0.0431721
0.643734
2.13357
0.686655
0.358545
0.123607
0.252295
0.264162
0.256577
0.238339
0.25477
0.458603
0.322621
0.552079
0.0472871
2.14204
0.0519762
7.01895
0.0454459
0.0942708
0.0984998
0.0411412
0.0560951
1.34071
0.105947
0.229816
0.0321945
0.185403
0.655437
1.99417
0.978688
0.128548
0.0814319
0.383515
0.238391
1.69711
1.08002
0.325499
0.281582
0.0181254
2.16492
0.278053
1.26752
1.57356
0.168453
0.284818
0.653633
0.366318
0.036891
2.7393
2.23609
0.632426
1.7612
0.88524
0.299525
0.0324364
2.10117
5.76459
2.07473
1.22836
0.0982586
0.105789
1.15614
0.30452
0.031086
0.0473566
0.33737
0.925498
0.121654
0.0558017
0.628055
0.0721803
0.0450747
0.119582
0.36132
2.80659
0.0564224
0.523094
1.12829
3.32845
3.39785
0.227584
0.909293
0.197843
2.09666
0.105041
2.01143
2.54761
0.785218
1.5707
0.730939
1.39371
1.34569
5.17347
0.3109
0.124824
0.0945852
3.36653
0.125023
0.558911
1.21976
0.671796
0.284988
1.69004
1.16447
0.843214
2.6793
0.0890706
0.0464304
0.257351
0.881126
0.0552793
0.612748
1.24543
0.293921
1.57444
1.34963
1.82698
0.0481651
3.56456
0.107033
1.05671
0.448564
0.312076
0.34151
0.0751828
2.10764
0.0662878
0.0787947
0.0465866
2.55516
0.0659756
0.46722
0.651316
3.87701
0.197609
1.64667
4.34319
0.198066
0.277833
0.020696
1.14448
0.631289
2.33548
2.27252
0.0819736
0.0323281
1.15751
1.3518
0.61052
1.68724
1.01901
1.39196
0.863954
0.671201
0.108788
0.389151
1.0012
0.0970169
2.35225
0.0850714
0.0686305
0.176368
0.556536
0.133428
0.0880305
0.0907413
0.309598
0.210546
0.114985
0.111883
0.0472973
0.263595
0.981664
1.07492
0.900475
0.0663816
2.82927
1.30297
1.98598
0.437917
0.145053
0.917195
0.0701445
0.0430224
0.0262488
0.0352897
11.4189
0.323244
1.13234
0.62411
1.77412
2.37193
0.594276
0.0619298
0.0517282
0.0411909
0.0978924
0.0295744
0.0570713
0.0457764
0.0561642
0.0496659
0.120242
0.0320589
0.109298
0.0653406
0.0383358
0.0422478
0.0475124
0.0609203
0.0448867
0.0203325
0.0374067
0.124483
0.031837
0.0426946
0.0312634
0.0834959
0.106623
0.0609633
0.0284794
0.0361324
0.0414628
0.0872284
0.100201
0.0456515
0.0190248
0.021685
0.0683814
0.0194978
0.0591512
0.0492432
0.0495837
0.0356524
0.0405288
0.0811793
0.115591
0.497315
0.397153
4.90806
0.068146
0.730549
1.12064
2.45756
1.74223
0.119288
0.0453211
0.396627
0.138161
0.570539
2.07093
9.0732
2.67707
2.62698
0.666687
0.0807415
0.0712077
0.0681124
0.305334
0.0392514
0.881264
0.140177
0.434873
0.182469
0.534708
1.01871
0.389468
0.650084
2.17418
1.18814
10.158
0.167367
0.36644
0.460207
0.334295
3.74969
0.0993705
0.875795
1.93936
0.940816
0.420858
0.450061
0.485748
0.49528
0.327886
0.362147
12.9276
0.123749
0.132312
0.01759
2.0121
2.4522
0.0360307
1.75801
1.96869
0.0547626
0.0216529
0.0411386
0.0558226
0.0813584
0.0450189
0.0771166
0.0436153
0.0387029
0.0418909
0.114103
0.0910377
0.0369384
0.118529
0.0328655
0.0485962
0.117448
0.0421452
0.0251511
0.0361247
0.0336414
0.0656044
0.0314894
1.31653
1.3305
0.172255
0.459195
1.08844
0.362254
2.01969
0.0448678
1.4568
1.85406
0.390259
1.22037
2.60541
0.744675
0.0377442
2.63365
0.982042
0.201032
5.93306
2.34767
2.24378
0.0490302
3.35398
0.791495
0.0721407
3.34178
0.369753
1.62434
0.10798
0.0860265
0.0373667
1.97098
0.0657078
2.13011
2.82835
0.122678
3.24437
0.0679626
3.22949
0.237381
0.100935
0.0488655
2.01746
0.0926623
0.124115
0.44433
0.0798389
3.12929
0.315572
1.59055
0.386187
1.10529
1.23795
4.99855
0.0272512
0.279543
0.310591
2.21314
1.20842
0.0812657
0.0575465
0.590723
0.414815
3.16488
0.307959
0.0943026
0.104632
0.0960368
0.42996
0.0533764
1.87016
0.166908
0.0252828
0.042201
3.2299
2.76752
0.326465
0.532174
2.04132
0.138915
3.15577
3.08353
2.25608
3.13556
3.22602
0.081804
1.86271
0.0462562
0.200083
0.123463
1.92838
0.251022
0.200919
0.403737
2.38367
0.133733
0.0840945
0.112517
0.167044
0.518923
2.12531
3.11028
4.45276
1.42386
0.617726
3.31791
0.223971
0.836118
0.80352
0.985785
1.26568
2.45783
1.23098
3.08535
1.10086
3.32804
1.37327
0.101391
1.1535
1.0162
0.47877
0.445231
0.500049
3.61792
0.68068
0.479418
1.54244
1.30686
1.39145
0.938117
0.342668
6.35366
0.49341
1.934
0.765963
0.0999783
0.0650365
0.170671
1.564
0.143082
0.101366
0.260513
3.68435
3.69035
2.31864
2.38064
3.74984
2.58078
3.77521
0.0790099
3.78767
3.76247
2.81572
2.83347
3.76795
2.61758
3.72851
3.82941
3.7655
0.425632
0.378382
0.474523
4.84247
0.256879
0.437474
0.332402
0.251013
0.0312638
0.0390443
1.59196
2.76432
0.941064
0.167603
0.177759
1.69205
2.73351
1.13179
0.550952
0.199566
0.218933
0.204477
0.459582
1.38263
0.274617
1.39828
0.35195
0.556078
0.165966
0.387791
0.10804
1.01996
0.13948
0.337049
0.123137
0.0500191
1.10638
0.174767
0.212148
0.164906
0.239679
0.24097
1.50533
0.212986
1.33006
0.990924
0.202463
1.29275
3.77593
0.222693
1.64131
1.00439
0.970049
3.88064
0.147786
0.177947
3.60247
1.17122
1.85303
0.216028
0.221375
2.11817
3.78745
1.68307
0.179269
0.212739
0.174018
1.21513
0.223502
7.19203
0.232014
0.228636
0.26959
0.205215
1.07314
0.125577
0.216395
1.33423
1.44783
0.371263
6.8636
3.06361
0.154238
3.24013
0.206119
0.30687
0.42137
0.153146
2.08857
0.245211
6.61326
0.40575
0.312671
0.166586
2.29477
6.32428
0.115977
1.35019
1.75005
0.711419
0.374963
0.321818
0.102207
0.286675
2.01364
1.56238
1.79513
4.93844
4.66947
0.215074
0.745069
0.199953
1.37812
0.738822
0.198732
0.0738623
2.09328
0.121078
0.237835
0.0892951
1.30504
0.254833
0.673576
0.567634
0.334264
0.734772
0.177011
1.03488
0.505263
0.273792
0.178412
1.14039
0.973037
0.218301
0.307234
0.272029
0.102407
1.0634
0.597944
0.496129
0.330829
0.507879
0.0926583
0.291305
0.427914
0.877847
0.0757798
0.300656
1.52681
1.94256
0.853792
0.314302
0.204357
1.20989
0.178422
0.395712
0.187406
0.917233
0.669416
0.708935
0.0836408
1.07968
1.29567
5.01046
0.162979
1.31531
0.86787
0.16217
0.891745
1.20455
0.67879
0.122602
0.979054
0.291467
0.735188
0.836451
1.115
1.3867
0.137671
0.536626
0.151181
0.908355
0.157968
0.129217
1.34227
1.14233
1.01482
0.0877762
0.11707
0.856892
0.393014
1.27528
0.246568
1.15402
0.0956105
0.22347
0.08169
0.0609677
1.5213
0.340416
1.99297
0.514608
0.188175
1.04968
0.248009
0.114458
1.29407
1.27732
0.255529
0.201412
0.223861
0.388683
0.280066
0.234055
0.32773
0.0992356
0.10653
0.0768751
5.19694
0.621362
0.294754
0.304453
0.358369
0.0902062
0.202969
0.0730354
0.103233
1.3727
0.216104
0.333924
0.264099
0.399096
0.179673
0.0733975
0.108763
1.92783
1.47049
0.380968
1.39948
1.58697
0.202677
0.571599
0.648555
5.17198
0.332218
0.241361
0.25805
2.19812
0.680397
0.0914345
0.788097
2.45808
0.312449
0.714782
1.33104
0.182305
0.0655894
0.100211
0.466593
0.657957
1.15141
1.35811
1.43246
0.0558353
5.00305
4.78048
0.114899
0.224053
0.277966
0.467501
1.56551
0.226785
0.150771
0.200775
0.533806
0.338409
0.666969
0.845617
1.62279
1.79677
0.280476
0.714287
0.264232
0.662906
1.2307
0.134228
0.110601
2.61706
1.48878
1.37805
2.41343
0.21166
0.245738
1.41514
2.46003
0.552158
0.829117
0.165285
0.0707576
0.10827
1.71382
1.95259
0.235454
1.3772
1.26631
1.21832
1.72257
0.316816
0.667405
0.173168
0.420423
0.0678557
4.85247
0.109189
0.733798
2.27986
0.207189
0.314839
4.16982
0.0882058
0.279497
0.256962
0.316744
0.418436
1.31339
1.51206
2.27534
0.453569
0.917703
1.1643
0.162143
0.937641
0.80697
0.0732715
0.0674412
0.285275
0.386345
0.404953
1.52551
0.153935
0.0612885
0.0969822
1.82987
2.13521
0.246778
0.0439624
3.86806
3.24137
0.748015
0.0646713
1.39306
0.472005
0.926944
0.215097
0.0839976
4.73294
0.105459
0.0974967
0.121374
3.72266
2.20006
1.03016
0.291078
3.6176
1.92226
0.808907
0.475948
0.519338
0.197323
0.325231
0.198583
0.289363
0.286648
0.631099
2.80564
1.34573
0.291593
0.210311
0.543027
3.21323
1.64816
3.68511
3.02539
1.43705
0.546667
1.37736
0.139008
0.11792
1.33722
2.13966
3.03381
3.22444
1.19441
2.27719
1.10255
0.825057
0.681796
0.113288
0.438386
0.15198
0.0641406
0.0939602
0.106437
0.0967312
0.107829
2.47628
2.72111
0.477135
3.52819
0.982648
1.355
0.750209
0.480416
0.906911
0.401078
0.782727
0.296295
0.147841
0.227798
2.60553
0.474638
0.315543
0.101815
1.66184
0.81484
0.688917
0.542234
1.49217
1.55439
0.507698
1.15013
0.520857
1.18881
0.446723
0.172356
0.0461738
0.0807592
0.100897
0.206367
3.56342
0.149253
0.0935077
0.108458
1.29419
0.117911
0.666596
2.82557
0.109623
1.85043
0.220905
0.243479
0.353268
1.56585
1.81648
1.51178
0.127966
0.844369
3.75225
2.02425
0.134075
0.642867
0.17828
1.00986
1.97939
0.487439
0.0884286
0.315753
0.236145
0.0822531
0.315655
0.922769
0.157923
0.312362
1.04826
0.985627
0.711467
0.589006
0.551015
1.43686
1.0147
0.722369
0.573697
0.489077
0.823147
3.32718
0.323755
3.22252
1.28977
1.47427
0.934069
0.892798
4.22577
0.881463
1.30366
0.0898392
2.14534
0.445059
0.442274
0.0443832
0.0201762
2.47651
0.936732
1.48488
0.750382
2.16807
1.72846
0.217293
1.91534
0.920512
1.31966
0.654696
1.03542
1.17836
0.135648
0.0592037
0.0935323
1.41977
1.67065
2.34219
0.302285
0.0484151
3.58993
0.580171
1.99472
3.6591
3.35963
3.40455
2.32057
0.0431289
0.61574
0.744027
1.09619
3.12173
3.37065
0.175569
1.85127
1.00008
1.13035
1.8124
0.214469
2.10928
1.97573
2.89593
0.394199
0.139113
1.65641
2.11659
0.504753
0.702696
1.80148
2.91038
0.611901
0.129906
0.76626
1.48943
2.50717
0.280207
0.961419
2.65479
0.611978
0.193531
0.717067
2.45295
3.66768
0.901545
0.418024
0.0929522
0.0720844
1.46324
1.70548
2.00625
3.19302
1.5824
5.32473
0.170269
0.680454
1.38788
3.21059
0.621754
1.89894
1.05873
0.240475
0.0896049
0.610576
0.0680619
0.151819
3.66716
3.47969
3.61668
1.86777
4.57903
1.16575
0.837212
0.562338
3.39962
4.33474
2.25602
8.20468
0.201767
0.122892
1.75043
3.62821
0.643383
1.2126
0.968782
0.680497
0.163258
1.16248
0.26031
0.0657717
3.04209
0.0702508
1.4467
0.0842014
2.18291
0.352458
1.05028
0.977262
1.46295
0.455441
1.34975
2.98039
1.33543
0.0466449
4.14786
0.451443
0.390591
0.122064
0.0276481
0.194228
1.87866
3.0703
3.48045
0.47635
2.45834
4.0867
0.090492
1.17191
0.357594
0.512173
0.183605
0.105731
3.39134
1.57379
0.453032
0.440619
3.85697
0.432008
0.441316
0.784736
0.102297
0.907794
0.223302
2.77683
0.352367
2.04143
0.0719404
0.174018
0.371288
3.56644
0.746562
3.48982
1.95118
0.184524
0.487386
1.81152
0.382579
0.0780251
3.44966
0.169304
0.0920247
1.67742
0.31457
3.63043
0.0912875
3.67709
2.3646
0.0534318
1.37997
0.399547
3.5913
2.21706
0.238596
0.641087
1.08
3.12763
0.359632
0.294709
0.27501
0.470014
0.060085
0.0742714
2.67466
1.48132
1.14899
0.489681
2.62442
0.324531
3.28407
1.4958
0.310362
0.204654
1.62338
2.53881
0.0808543
0.0206609
0.0444656
2.46354
0.818882
2.61822
0.40932
0.399454
2.58027
3.51987
0.115193
1.04564
3.17138
2.03856
0.775373
1.90209
0.0327922
1.22694
1.04621
0.136032
0.0600746
0.0848441
0.759155
0.145666
0.750947
1.43287
0.144358
3.40617
1.07722
1.0476
1.26585
1.87792
0.2887
1.16733
0.102388
1.8379
2.16374
1.67044
1.2588
0.117543
0.0567701
0.0866797
1.34887
0.466323
1.63962
1.30052
0.454894
0.967811
4.71606
1.30003
3.52403
0.0263162
2.78788
0.130546
0.236191
0.953487
1.34494
0.926246
0.174821
0.241239
1.35539
1.63733
0.103594
0.245833
2.44048
3.01812
0.877982
1.26509
0.921242
3.49641
5.3334
1.85481
0.160307
0.843326
1.14433
2.33362
2.18471
2.9332
0.20532
1.23089
0.719233
1.23485
0.491235
1.0132
0.537419
0.710615
0.0348672
1.49287
1.1229
0.117974
0.999868
0.13483
0.887816
2.07612
1.02218
0.0750222
0.258734
2.44992
1.8639
1.55672
0.870262
0.543993
0.157278
0.052168
0.0637466
0.0797748
0.148918
1.58405
0.0732435
0.737859
2.96739
0.321042
0.112705
0.182675
0.306033
2.68545
0.104081
0.0573042
0.0627124
0.233351
0.927619
0.337477
0.231118
0.071703
0.210667
0.0823657
0.0798786
1.19506
0.769273
0.229884
1.24885
0.579082
0.258827
1.92264
0.872179
1.66276
0.139726
0.0347746
0.0173391
0.0722924
0.119467
2.64694
0.154144
3.71118
1.91243
0.912188
2.12891
0.103696
0.238349
0.295573
3.36371
0.925668
1.11207
0.119145
0.0579126
0.0751154
0.198239
0.0816675
3.37888
2.14645
0.358538
0.78882
0.0425828
0.467349
0.198062
0.535221
0.139722
2.81528
2.55258
2.58115
3.22085
0.0315668
0.145494
0.731675
3.6255
0.693035
2.81284
0.654117
1.56953
0.0817421
0.247103
0.0715865
1.23676
1.0945
0.719895
0.766182
0.105443
0.137388
0.853338
0.0936633
0.262267
1.33334
2.24507
1.88603
0.649158
2.76189
0.487885
2.32313
0.687896
1.80773
0.42133
0.866154
0.108253
1.89399
3.41404
3.48274
0.420979
0.080676
0.14665
0.0331848
0.0899555
0.101383
0.50299
0.337142
1.0976
2.62129
0.128415
0.243941
2.90518
0.261238
0.61018
0.77938
2.68856
1.88266
0.481187
1.14837
0.84685
0.256775
0.33216
0.332928
0.369078
1.85423
0.0540939
1.19175
1.01829
0.0881418
0.865566
0.0759408
0.0668563
0.0413757
0.0424564
0.0557051
0.0286105
0.162827
0.198241
0.28272
0.054418
0.0218546
0.0433904
3.86777
3.02203
0.359068
1.50142
0.444591
1.05811
1.15557
2.4178
1.62177
2.39298
6.06547
0.472622
1.74368
2.04782
3.79886
0.771665
0.0568639
0.0538806
0.100417
0.0594554
0.0558912
0.264315
1.23853
1.78075
0.0295986
0.0279801
0.159294
0.952043
0.320961
1.93533
0.0926701
0.0983326
1.49359
0.314546
0.507646
0.334544
0.174371
0.080061
1.26557
0.48637
3.31908
0.113677
0.465511
4.75008
0.32531
1.08112
2.93593
0.0256966
0.0441042
0.184232
0.0518935
0.0553813
0.100526
0.0669565
0.111951
0.264855
0.328427
0.369161
0.0845845
0.929984
1.63661
2.82661
0.0532586
0.147565
0.0521796
1.20635
0.575205
0.39568
2.22884
2.17488
0.0727
1.18954
1.00537
2.07487
3.44358
3.40062
1.4705
0.896399
0.180451
0.957948
2.23773
2.974
0.53345
0.0263387
3.39818
0.141092
2.84451
0.870948
0.166841
0.354519
1.46415
2.62651
0.0523184
0.0619773
1.2584
0.470757
0.266898
0.182411
1.21903
0.686508
4.18983
0.476985
1.93652
0.10163
0.0573347
0.0653611
0.0172423
0.0678179
0.0154361
1.91204
0.0756398
2.1029
3.21451
0.873912
1.72129
5.35818
0.272535
0.202864
1.74842
1.02378
0.926693
6.04857
0.252048
4.3228
0.098991
0.0542741
0.0763234
3.27394
0.188092
0.0846537
0.0514756
0.050287
0.160218
2.6351
1.83099
0.656937
0.33103
0.478544
3.78085
1.1601
0.579988
1.32534
1.01255
0.362715
1.86245
2.62016
2.11499
2.51691
0.0574821
0.317926
0.121692
1.41719
0.0826444
1.60976
1.64891
0.720976
1.49516
0.671263
2.09738
0.147718
0.0659284
0.131679
0.0889275
0.166396
1.52198
0.871193
1.47929
0.323491
0.33894
3.04661
2.1451
0.421459
2.28044
0.983822
0.0554847
0.142786
0.0864571
3.79096
0.665299
2.8268
0.484288
0.0962764
0.516431
2.62227
2.33569
0.208933
0.327641
1.06801
1.85713
0.0656769
0.0357476
0.129382
0.413648
2.33112
0.267017
1.3419
1.64633
1.60002
0.730985
0.299179
0.21812
1.08496
1.53063
0.652019
0.0940181
0.390812
0.0304205
2.22401
0.022792
0.427626
2.29646
1.48055
0.696436
2.07939
0.0818885
0.196198
0.265978
0.0381076
0.47923
0.0532994
0.0168636
0.119999
0.61254
2.02099
3.46222
1.30091
0.60397
0.0161059
0.0887188
0.0453457
0.012293
0.034006
0.0278265
0.472218
1.66643
0.476162
0.363601
0.504387
0.749008
1.49827
0.559321
0.133399
0.0378497
0.189968
4.03173
2.6008
1.14824
0.176034
0.0258138
2.07948
0.0870724
0.361221
1.22898
0.584577
0.502422
3.40666
0.355326
0.459762
0.206649
3.70163
1.93786
0.144859
1.59583
0.0288177
0.167516
1.56915
0.288893
0.057339
0.0386988
0.125428
0.155981
0.0470912
3.94788
1.08048
0.25406
1.39866
0.915438
0.601413
2.27096
2.37099
0.316075
4.01127
0.0259678
0.593947
0.0525713
0.53329
1.36804
0.0587412
0.39051
3.19104
0.19964
0.447726
0.0253746
0.11192
0.592654
1.4793
1.29739
3.05785
0.404732
2.43442
0.0844304
0.477057
2.23994
0.210983
3.32566
0.441337
1.31055
0.433484
0.225001
1.66171
0.750199
1.68177
0.0845241
0.035456
0.0508073
1.59455
0.52337
0.190724
0.20908
0.487153
0.516793
0.0588607
0.0265317
0.210393
0.903927
2.79991
0.146136
0.0319012
0.350117
2.31727
0.521509
0.421377
0.169083
1.55231
0.379135
0.24002
0.546041
2.38013
0.0269182
0.794048
1.24097
1.98139
0.76397
0.799694
0.487549
0.107956
0.0612398
0.0619404
0.148647
0.0637457
0.203017
0.306345
2.52949
0.401315
0.988793
3.25259
1.0458
1.25197
0.70342
0.188578
0.945078
0.353382
0.507088
0.176745
1.63688
3.83126
2.12374
3.10778
1.39849
0.786296
0.862309
0.614365
0.293534
0.0158517
0.0343461
2.08424
0.501147
0.0991461
1.86293
2.22092
0.127752
1.03864
0.723732
2.6564
4.65609
3.23869
0.0803
1.47973
0.0576938
0.115195
0.0592431
1.62595
3.01649
1.32906
0.0781639
0.431232
3.18337
0.25121
0.0482711
0.304866
1.85167
0.57173
1.71562
4.02145
1.34021
0.06631
0.0529571
0.956722
3.00742
1.92071
2.27154
3.18539
0.498028
0.0865195
3.30476
2.01647
0.0541933
0.0425887
0.0742705
0.058554
0.0425195
0.145882
3.75032
1.96967
0.0448625
1.43958
2.5501
0.186644
2.81603
1.77986
2.91188
0.23729
0.533883
0.512779
1.2906
0.682201
0.334912
3.52257
3.2909
1.14531
2.04399
2.23522
2.32083
0.368966
0.0920889
2.37363
2.47231
0.235617
0.308329
0.0374787
0.0247264
0.518153
1.21044
1.98935
0.447315
0.109278
2.60895
0.0649297
0.123016
0.0712263
0.0860109
0.03127
1.63169
1.77188
3.50989
0.191708
3.49496
0.0256306
0.226269
3.46555
1.82255
1.81808
1.42715
0.27874
3.30078
1.85105
0.123626
0.190906
0.342168
0.391792
0.192144
1.54028
0.900544
0.532385
0.601922
0.981258
0.956987
0.319649
1.23268
0.0266615
0.121958
1.26993
0.687371
0.362676
8.56911
0.309646
2.01058
1.78748
0.0467883
0.0530159
0.0500134
0.107074
1.97819
1.56969
2.07906
0.245428
0.727842
0.22978
0.590978
0.618132
1.28789
0.218411
0.249028
0.349482
0.0937752
0.0256318
0.0149861
0.0604451
2.14732
1.86607
0.303138
0.159344
9.03044
2.88393
3.16283
1.22062
0.167123
0.919668
0.195471
0.659221
1.22178
3.17575
0.131916
0.163559
0.0657172
2.92454
0.584536
2.08622
0.130755
0.279715
1.05634
0.45997
0.0525303
0.0397056
0.0241002
0.0661092
0.280636
2.12986
2.71665
0.234454
2.28609
0.925344
1.67463
2.00356
0.46427
1.98385
0.386266
0.645997
1.31368
1.81428
1.44135
0.0602133
0.0475345
1.51762
0.175178
0.223639
0.17697
1.18873
0.537773
0.527576
0.0364824
0.518738
0.0377534
0.528246
0.503228
0.508801
0.509203
1.52982
2.76146
0.59169
0.106231
2.34129
0.552172
0.0552331
0.0453727
0.0786492
0.369164
0.203008
0.384862
2.94796
0.180339
0.192417
0.944123
0.0481418
1.45565
0.056827
0.148724
4.37795
4.68069
0.0925866
0.054837
0.0394148
0.0598888
0.181925
0.0697127
0.107825
0.0641644
0.0730858
0.0964523
0.0368794
1.31362
0.290912
0.102316
0.576967
1.72212
0.334616
0.61917
0.0697893
0.372309
2.23815
1.92378
0.760741
0.050604
2.03107
2.27733
2.24012
2.36442
0.502743
0.24129
0.0222937
0.0700838
0.957826
2.96472
1.27322
0.194333
0.755266
0.259207
0.118922
0.204382
0.268881
3.02838
0.615134
2.44319
0.0334877
0.263446
2.68477
0.885412
0.2471
0.505868
0.28281
1.48633
1.36808
0.916919
0.240352
0.139124
0.166265
0.161975
0.233451
0.32809
0.271921
3.12079
2.18508
1.86596
2.16975
0.814242
0.15738
0.827306
0.144932
2.12087
0.856175
0.97798
0.367013
3.64948
0.233774
1.35055
1.67034
0.0821527
0.126945
0.288732
3.68803
2.63644
1.22044
3.49701
2.11436
3.61412
0.383763
0.777022
0.0326424
0.237082
0.441792
10.3982
3.78318
0.459103
2.53443
0.890743
0.259267
0.0635629
0.577719
0.0957995
0.120849
0.0572223
2.01847
1.62221
0.852531
1.71764
1.25246
0.0304655
0.167957
0.057847
0.343249
0.762735
1.35637
10.6567
0.519462
0.320633
0.029973
0.940202
3.26661
1.43313
0.363671
0.390651
0.0632121
0.344826
0.225102