/*--------------------------------*- C++ -*----------------------------------*\
| =========                 |                                                 |
| \\      /  F ield         | OpenFOAM: The Open Source CFD Toolbox           |
|  \\    /   O peration     | Version:  v1912                                 |
|   \\  /    A nd           | Website:  www.openfoam.com                      |
|    \\/     M anipulation  |                                                 |
\*---------------------------------------------------------------------------*/
FoamFile
{
    version     2.0;
    format      ascii;
    class       surfaceScalarField;
    location    "0.72";
    object      phi;
}
// * * * * * * * * * * * * * * * * * * * * * * * * * * * * * * * * * * * * * //

dimensions      [0 3 -1 0 0 0 0];
oriented        oriented;


internalField   nonuniform List<scalar> 
11117
(
7.10107e-06
-4.17906e-05
-3.33682e-06
3.80264e-05
-1.63244e-05
8.44763e-05
8.12128e-06
-7.62732e-05
-3.83186e-05
5.05651e-05
-0.000133181
0.000120934
-0.0004153
-1.67535e-05
0.000201488
0.000230565
0.000169096
0.000240152
-0.000187977
-0.000221271
1.07847e-05
-7.31755e-07
4.55944e-05
-5.56473e-05
-0.000217659
-7.38233e-06
0.000144888
8.01535e-05
8.77478e-06
3.38074e-05
-6.25169e-05
1.99347e-05
0.001284
0.000246812
-0.000934737
-0.000596071
-0.000152139
0.000183358
-5.83284e-05
2.71091e-05
-0.000864495
0.000933407
0.000300697
-0.000369609
-0.000488778
-0.000198356
0.000358357
0.000328777
-0.000336268
-0.000217086
0.000213116
0.000340239
0.000768807
-0.000919542
0.000420891
-0.000270156
8.62377e-05
-8.80191e-05
4.20928e-05
-4.03114e-05
9.74408e-05
-1.05739e-05
2.14271e-05
-0.000108294
-0.0001143
0.000174551
-2.3973e-05
-3.62786e-05
-0.000586396
0.000631319
0.000649853
-0.000694775
3.08521e-05
0.000109592
-5.42064e-05
-2.1675e-05
1.28174e-05
0.000109078
-0.000100221
-0.000324489
0.000183696
7.05681e-05
7.02252e-05
1.15002e-06
-6.37353e-07
-4.69154e-05
4.64027e-05
0.00029915
0.000231895
-0.0001455
-0.000385544
0.000121127
0.000131538
-6.94655e-05
-0.0001832
0.000240863
0.000146751
-0.00025357
-0.000134044
0.000937002
-0.000970605
0.000286601
-0.000252998
0.000264671
-0.000346086
0.000740756
-0.000659341
-0.000162935
0.000223406
-0.000266866
0.000206395
0.00010283
-1.6487e-05
0.00101342
-0.00109976
7.75912e-05
-6.0659e-05
5.87813e-05
-7.57135e-05
-0.000179146
-6.13257e-05
0.00026086
-2.03879e-05
-0.000107995
-0.000380716
0.000348987
0.000139724
-0.000117956
-0.000446737
0.000376244
0.000188449
-3.3079e-05
0.000104698
-4.7339e-05
-2.42799e-05
-0.000189526
9.79155e-05
-7.03856e-05
0.000161996
-0.000110541
7.04209e-05
-3.51489e-05
7.52686e-05
0.000603055
-0.000827209
0.00100772
-0.000783566
0.000386342
-0.000521689
-0.000144163
0.00027951
0.000358806
-6.85466e-05
-0.000545563
0.000255303
0.00017736
0.000341628
-0.000428076
-9.0913e-05
0.00011477
0.000393859
-0.000418306
-9.03225e-05
3.38347e-05
0.000199977
-0.000222696
-1.11161e-05
0.00101477
0.000892415
-0.000896574
-0.00101061
0.000274229
3.73181e-05
-3.73415e-05
-0.000274206
0.000119954
2.82204e-05
-0.000117323
-0.000952568
0.000757063
-0.000230325
0.000425831
-0.000800744
0.000636801
-0.000194736
0.00035868
0.00021141
-0.000345562
0.000218623
-8.44706e-05
4.71687e-05
-3.98986e-05
2.56426e-05
-3.29128e-05
-6.35566e-05
0.000167483
-0.000103927
-3.33524e-05
-2.9105e-05
6.24574e-05
-0.000360202
-0.00119491
0.000535451
0.00101966
7.71885e-05
-7.19834e-05
4.63194e-05
-5.15245e-05
3.8282e-05
-3.75771e-05
-1.03169e-05
9.61201e-06
9.23259e-06
-9.23259e-06
0.000430115
0.000176489
-0.000561368
-4.52361e-05
0.000365692
0.000137119
-0.000468792
-3.402e-05
-0.000190555
-7.11398e-05
0.000251841
9.8536e-06
0.000890371
0.000114922
-0.00137436
0.000369065
-0.000391424
0.000788301
0.000540126
0.000851927
-0.000866475
4.15944e-05
-2.70464e-05
0.000168642
-8.59738e-05
-7.95251e-05
-3.14326e-06
-0.000153468
-8.96091e-05
6.39312e-05
6.90104e-05
-3.44946e-05
-0.000142511
0.000115503
-3.77718e-05
-0.000195688
-1.89833e-05
-0.000130892
0.000105212
4.46626e-05
0.000119461
-0.000108992
3.90293e-05
-4.94981e-05
-1.15678e-06
-0.00033801
0.000339167
-0.000617873
-0.000324583
0.000490522
0.000451934
3.21765e-06
4.45976e-05
1.38797e-07
-4.79541e-05
0.000490346
-0.000151004
-0.000699545
-0.000188658
0.000176504
0.000131615
-0.000268758
-0.00126565
0.00130342
0.000230994
-6.86245e-05
0.000256015
-0.000255689
6.82991e-05
-0.000691669
-0.0005126
-0.000107071
4.31067e-05
0.000149757
-8.57932e-05
-3.77624e-05
-2.96558e-05
6.74181e-05
-0.000943711
-0.000162248
0.000135354
0.000255524
7.3257e-05
-5.45519e-05
2.852e-05
4.55535e-07
-2.89756e-05
-5.57511e-05
-3.25736e-05
8.4152e-06
7.99095e-05
4.70119e-05
3.05908e-05
-3.24052e-06
-7.43622e-05
0.000107755
-9.15025e-05
0.000266839
-0.000283091
-0.000228033
0.000118733
0.000253482
-0.000144182
-0.000252748
0.000134953
0.000285906
-0.000168111
5.91076e-05
-0.000454905
0.000395798
-2.10433e-05
-0.000524143
0.000545187
3.04404e-05
-0.000481101
0.000450661
3.25055e-05
1.45199e-05
9.56633e-05
-0.000142689
-2.34504e-05
3.62851e-05
0.000170633
-0.000183468
0.000524532
-0.000154907
7.82916e-05
-0.000447916
0.000619022
5.03646e-05
-5.38941e-05
-0.000615493
0.000710793
-4.12168e-05
5.13731e-05
-0.00072095
-0.000704019
3.79565e-05
-2.71317e-05
0.000693194
-0.000565047
4.87166e-05
-2.06665e-05
0.000536997
-1.44002e-06
0.000224658
-0.000327256
0.000104038
0.000586638
2.26833e-05
-2.26872e-05
-0.000586634
0.00067078
4.80133e-05
-3.07762e-05
-0.000688017
0.000593671
4.41388e-05
-2.45766e-05
-0.000613233
0.000822399
5.88337e-05
-2.93056e-05
0.000369173
8.05337e-05
-0.000402475
-4.72311e-05
-0.000233721
0.00017169
6.8569e-05
-6.53792e-06
0.000310958
-0.000384575
-0.0011804
0.00125402
0.00069102
0.000292676
-0.000727828
-0.000255868
-6.93586e-05
0.000128631
-8.71894e-05
2.79171e-05
-0.000927529
0.000212991
0.000837712
-0.000123174
3.51426e-05
-5.27661e-05
0.000137959
-0.000120335
1.32024e-05
3.57588e-06
2.06889e-05
-3.74672e-05
-0.000239959
6.02061e-06
9.8279e-05
0.000135659
0.000206365
-6.43385e-05
0.000113498
-1.48823e-06
7.47205e-06
2.01453e-05
-2.61291e-05
-3.63096e-05
4.78655e-05
3.347e-05
-4.50259e-05
-0.000416509
0.000351146
-0.000145737
0.0002111
-2.60551e-06
2.16294e-06
-2.96579e-06
3.40837e-06
8.62229e-05
0.000491295
-0.000560921
-1.65961e-05
0.000128047
0.00065
-0.000735922
-4.21247e-05
-5.0157e-06
-4.11219e-05
3.74223e-05
8.71532e-06
-0.000509357
0.000444175
0.000917815
-0.000852633
3.4734e-05
-1.95361e-05
-0.000881673
-0.00103842
8.20346e-05
0.000958746
-2.35618e-06
0.00105565
-0.000734206
-0.000830796
0.000100361
-9.65339e-05
-3.82723e-06
0.000138794
-9.48112e-05
0.000156641
-0.000200624
-0.000160177
-0.000109829
-6.35212e-05
-2.80075e-05
4.32851e-05
4.82436e-05
-0.000352177
0.000405142
0.000620895
-0.00067386
-0.000470922
0.000651243
-0.000515076
0.000334754
-7.44599e-06
-6.729e-05
5.767e-05
1.70661e-05
0.000579924
-0.000877681
-0.000113019
0.000410776
4.13312e-05
-5.71762e-06
4.99171e-06
-4.06053e-05
0.000212552
-7.11031e-05
-0.000192115
5.06659e-05
6.72198e-05
0.00010105
-0.000143797
-2.44725e-05
0.000177576
-0.000129598
-7.50775e-05
2.70999e-05
-0.000891986
0.000108371
-0.000160096
-0.000374298
0.000338405
-0.000710163
0.000746056
3.9103e-05
-4.21533e-05
-8.49688e-05
-0.000419152
3.84438e-05
9.0237e-06
0.000371684
6.83717e-05
0.000125899
-2.56283e-05
-9.56881e-05
-5.36624e-06
9.74519e-05
3.60246e-06
3.22152e-05
8.2184e-07
-4.14952e-05
8.45815e-06
-0.000219523
0.000100223
0.000102851
1.6449e-05
7.29135e-06
-0.00033161
0.000374967
-5.06489e-05
6.35067e-05
-6.45182e-05
-5.23822e-05
5.33938e-05
0.000414787
-0.000236213
-0.000201349
2.27752e-05
-9.53328e-05
6.48054e-05
-3.03822e-05
6.09096e-05
2.38325e-06
0.000279791
-0.000149423
-0.000132751
0.000256544
-0.000114024
-3.72644e-06
-0.00043643
0.00097787
-0.000560699
1.92587e-05
9.67179e-05
0.000175796
-0.000132884
-0.00013963
-8.08747e-05
0.00018869
-4.13275e-06
-0.000103682
0.000935209
0.000452918
-0.000618241
-0.000769886
2.3205e-06
3.09632e-06
-8.58978e-05
8.04809e-05
-0.000493184
-3.35138e-05
-0.000400831
0.000125072
-0.000191313
-6.38578e-05
0.000130098
-0.000399809
-0.000375914
0.000480079
0.000295644
0.000816257
-0.000193005
-0.000623251
0.000130773
0.000192592
3.73152e-05
-0.000229907
0.000970389
-0.000234021
-0.000736368
0.000133594
6.80345e-05
-1.55889e-05
-5.24457e-05
-0.000109421
0.000298223
-0.000188802
-3.71854e-05
6.6724e-05
-2.95387e-05
-4.90154e-05
0.000218207
-0.000169192
-0.000477721
0.000541526
-6.38044e-05
-0.000489043
0.000479161
9.88164e-06
-8.50023e-05
-4.2874e-05
0.000127876
2.58737e-06
-8.57658e-05
8.31784e-05
1.73388e-05
-1.8827e-05
-1.91224e-05
-1.71872e-05
-7.37051e-05
5.92106e-05
1.44946e-05
0.000209739
0.000192696
-0.000402435
0.000111416
-0.000139119
2.7703e-05
0.00012825
-0.000192402
6.41526e-05
0.000161654
-0.000146579
-1.50752e-05
-0.000309255
0.000359594
-5.03397e-05
-2.20206e-05
1.80143e-05
4.00633e-06
-0.000269769
0.000314488
-4.47191e-05
-9.89042e-05
8.13802e-05
1.75239e-05
0.00096647
-0.00105392
8.74526e-05
-3.80022e-05
0.000118059
-8.0057e-05
-0.000162615
0.000231279
-6.86643e-05
0.000212719
-0.00016323
-4.94883e-05
-0.000271865
0.000315187
-4.3322e-05
-0.000172158
0.000225441
-5.32826e-05
-0.000144412
0.000178533
-3.41206e-05
-0.000250027
1.63059e-05
-0.000229225
0.00014891
8.03147e-05
9.8497e-05
-6.31563e-05
-3.53407e-05
3.79289e-05
0.000133761
-0.000209279
-0.000655216
-0.00029374
-8.69754e-05
-0.000360521
-8.62163e-05
6.32412e-05
-0.000124567
0.000159426
-9.22064e-05
0.000312491
-9.9939e-05
4.85202e-05
7.70281e-05
-0.000125548
-3.53229e-06
1.55813e-05
-1.2049e-05
9.67497e-05
1.28422e-05
-0.00109585
0.0014068
0.000222982
1.62732e-05
-0.000239255
-0.000986546
-0.000208367
4.65305e-05
0.000164879
-3.86277e-06
-9.56725e-05
9.95353e-05
-0.000677531
-0.000123213
-0.000805765
-0.000146803
7.08075e-06
-6.7849e-05
6.07683e-05
2.44799e-05
-1.957e-05
2.11255e-05
-2.60354e-05
-0.000165813
8.36969e-05
0.000502436
-0.000420321
-0.000883687
0.000894152
0.000656202
-0.000666667
9.77831e-05
-1.1957e-05
-0.000106119
2.02932e-05
-0.00118892
0.00114548
-5.23569e-05
9.57938e-05
-0.000100076
8.98022e-05
-3.87413e-05
-0.000106867
0.000117261
-0.000119814
-3.73529e-05
2.0381e-05
-7.5546e-05
9.25179e-05
9.7615e-05
-0.000117753
-8.85225e-05
0.00010866
3.11236e-05
-4.47647e-05
-8.66862e-05
0.000100327
-0.000238543
0.000211716
0.000204403
-0.000202969
4.94541e-05
0.000589592
-0.000436078
0.000790508
-0.000686472
-0.000187491
8.34559e-05
-0.00140385
-3.52184e-05
0.00025015
0.000191602
-0.000224264
5.44094e-05
-2.17473e-05
0.000255079
4.38019e-06
-4.48571e-05
-0.000214602
0.00070435
-0.000189263
-6.31309e-05
-0.000451956
-0.000358685
-0.000257333
4.26723e-05
0.000573346
-7.65371e-05
5.35428e-05
0.00123378
-0.00121079
7.65685e-05
-1.74203e-05
-5.91482e-05
1.7215e-05
0.000166918
-2.2705e-05
-0.000161428
-2.51376e-05
7.19856e-06
-7.85067e-06
2.57897e-05
4.73154e-05
-5.65795e-05
-5.98057e-05
6.90698e-05
-4.01928e-05
5.7101e-05
-0.000130641
0.000113732
-7.36508e-05
0.000117233
-0.000182166
0.000138583
-4.58301e-06
-5.40366e-06
-0.000125172
0.000135159
0.000138268
-4.6031e-05
-0.000218298
0.000126061
0.000184038
-0.000205484
1.3816e-05
7.62964e-06
2.37632e-05
2.75146e-05
-0.00102333
0.000972052
-0.000123745
4.81781e-05
-0.000751277
0.000826844
0.000869747
-0.000872572
6.891e-05
-6.60843e-05
0.000173913
-0.000273161
-0.000158424
0.000257672
6.97546e-05
8.04874e-05
-7.94048e-05
-7.08372e-05
-6.75929e-05
-4.43906e-05
5.07014e-05
6.12821e-05
0.00016402
-0.000145779
-1.08395e-05
-7.40152e-06
4.96034e-05
0.000671849
-0.00037018
-0.000351273
5.05564e-07
0.00019802
-7.34535e-05
0.000241885
-0.00025939
1.80112e-05
1.09815e-05
-2.37069e-05
2.01974e-05
-1.17797e-05
5.30234e-05
-0.000125034
8.37907e-05
0.000136555
-9.92398e-05
5.94028e-05
5.33294e-05
-0.000542318
0.000488988
5.10424e-05
-0.000515143
0.0004641
3.40277e-05
-0.000453398
0.00041937
9.29703e-05
-0.000104842
-7.11162e-06
-0.00027955
9.55163e-06
3.47619e-05
-2.88203e-05
-1.54933e-05
-2.01263e-05
2.97407e-05
-0.000960396
0.000950782
-0.000288815
-0.000400892
0.000468447
0.00022126
0.00106486
-0.00045523
-0.00081418
0.000204545
-0.000658186
0.00116762
-0.000874572
0.000365138
7.54128e-06
-2.36975e-05
4.06361e-05
-5.99525e-05
-4.45356e-05
4.09669e-05
-0.000629685
-7.18097e-05
0.000304784
0.000396711
-5.21201e-05
-8.92717e-05
4.13154e-05
-0.000151714
-6.07775e-05
0.000105624
2.38727e-05
0.000101171
-7.13268e-05
-5.37164e-05
-0.000285982
0.000178484
0.000107498
-0.0001633
0.000154839
8.46115e-06
0.00029087
-0.000186922
-0.000184823
0.000105719
-0.000388893
0.00034195
-5.87759e-05
4.45072e-05
-3.64251e-05
-0.000600941
3.34965e-05
-5.70951e-05
0.00062454
-0.000511009
2.71576e-05
-5.04234e-05
0.000534275
-8.94564e-05
-7.80033e-05
0.000156652
1.08074e-05
-3.7819e-05
0.000126628
-0.000159625
7.08163e-05
-0.000308821
0.000498875
0.000345397
2.9879e-05
-0.00108564
0.00111203
-5.62686e-05
1.10402e-05
5.29322e-05
-1.6657e-05
1.87201e-05
3.80138e-05
-1.84519e-05
0.00022074
-4.39126e-05
-0.00023647
5.96432e-05
-7.12776e-05
8.90899e-05
-6.64598e-06
-1.11663e-05
4.47735e-05
0.000215354
-2.61142e-05
-0.000234013
-1.88591e-05
1.73493e-07
1.51533e-05
-0.000343173
-6.38935e-05
0.000300404
0.000106663
-0.000498038
0.000345201
0.000267607
-0.000201434
0.000127395
0.000107874
-0.000571522
0.000343975
0.000404907
-0.00055294
1.88644e-05
0.000549312
-1.52367e-05
-0.000581441
-4.17329e-06
0.00059104
-5.42595e-06
8.39167e-06
0.000600297
-0.000582921
-2.57679e-05
-3.94172e-05
0.000599412
-0.000587112
2.71177e-05
-0.000661442
0.00107233
-0.000785187
-5.22701e-05
5.38972e-05
-5.07599e-05
4.91328e-05
-8.0046e-05
8.64183e-05
-0.000127584
0.000121212
-6.21693e-05
3.71479e-05
4.20775e-05
-1.70562e-05
8.37567e-05
-7.51701e-05
-2.73422e-05
1.87556e-05
-0.000973243
0.000112742
0.000956629
-9.61274e-05
-0.000124361
0.000673827
-0.000726598
0.000177131
-7.81589e-08
-8.75652e-05
0.000328574
-0.000240931
2.64549e-05
-9.19976e-05
0.000134513
-6.89701e-05
-9.85259e-05
-7.65794e-05
0.000540014
-0.000364909
2.80101e-05
9.4033e-05
-4.17659e-06
-0.000117867
2.96271e-05
-3.09932e-05
4.8378e-05
-0.000562634
0.000515298
-3.50612e-05
6.58291e-05
-8.6519e-05
0.000313632
-0.000258762
-5.26659e-06
0.000145642
0.00014877
-0.000106669
-0.000187743
4.00791e-05
-1.63094e-05
0.000326372
-0.000350142
-5.8701e-05
-9.81151e-06
-2.76507e-06
0.000443221
-0.000284592
-0.000483212
0.000772269
-0.000402821
0.000650374
-0.000345126
3.14729e-05
7.16628e-05
2.79176e-05
2.48709e-05
7.6901e-05
-0.00012969
0.00044399
-0.000742457
-0.000585221
7.09119e-06
-1.1004e-06
-8.5963e-06
-0.000427225
0.000472684
0.00101265
-0.00105811
0.000848784
-0.000171337
-4.76555e-05
-0.000629791
-8.67441e-08
1.07094e-05
2.57977e-06
-0.000383321
0.000169615
0.000437111
-0.000236292
6.36239e-05
-6.72906e-05
0.000202458
-0.000769661
0.000670033
7.78633e-05
-2.99901e-05
3.69804e-05
-8.48535e-05
6.14646e-05
8.3543e-05
-0.000103891
-4.11168e-05
-0.000649448
0.000591217
0.000502405
0.000117481
0.000227411
8.43486e-06
-8.97103e-06
0.00010517
-0.000104633
-1.98262e-05
-0.000212565
0.000163844
-2.40045e-05
4.44575e-05
-0.00016583
0.000145377
-0.000176287
-0.000176842
0.000795718
0.000137689
-2.00755e-05
-8.10787e-05
0.000234852
2.60074e-05
0.00014702
9.89601e-05
-5.36421e-05
0.000209761
-0.000192546
-1.98466e-05
-1.59876e-05
2.23874e-05
0.000126522
2.22226e-05
-2.89058e-05
0.000230074
-1.0105e-05
-1.09804e-05
-5.81469e-06
0.000218533
-3.97658e-05
-0.000232099
-5.1647e-05
-0.000110968
-0.000523974
3.49307e-05
-9.37124e-05
-0.000427977
-4.90685e-05
-0.000496494
8.42579e-05
-8.18746e-05
-4.53338e-05
-6.24607e-05
-9.9989e-05
-5.10135e-05
0.000229546
9.92214e-05
-2.47167e-06
0.000383461
0.000636203
5.32279e-06
5.7295e-05
-1.27517e-05
-1.8858e-05
1.20397e-05
-0.000111671
-0.000200472
0.00016798
0.000521047
-0.000548738
2.48139e-05
2.87707e-06
6.44356e-05
-0.000179
0.000107182
9.21944e-05
-5.67741e-05
-1.61288e-06
-3.87876e-05
2.03992e-05
1.02722e-05
8.11623e-06
0.000277522
0.000479541
0.000229491
0.00040731
-4.60762e-05
-0.000299485
-4.10782e-05
3.63259e-05
-5.90456e-06
1.06568e-05
-9.39487e-05
-2.63935e-06
9.28359e-05
3.75215e-06
-3.85884e-05
-5.27426e-05
5.25434e-05
-7.29669e-05
1.85928e-05
4.334e-05
1.10341e-05
-8.02777e-06
-8.69053e-05
3.24043e-05
6.25288e-05
0.000421449
-0.000116216
0.000136634
-0.000434305
0.000727786
7.63508e-05
-0.00037329
0.000662632
-0.00016918
0.000289632
-0.000311006
-1.93413e-05
4.42673e-05
-3.59974e-05
1.10714e-05
1.28176e-05
0.00012473
-6.75518e-05
-6.99957e-05
-3.61294e-06
-4.78299e-05
1.03647e-05
-0.000625018
0.00103034
-0.000735268
0.000329943
4.01416e-05
-9.93479e-05
-5.13342e-05
6.68434e-05
-0.000151952
-0.000104418
4.68285e-05
-2.23811e-05
-5.75264e-05
-0.00107586
0.000966751
9.26186e-05
-1.99739e-05
5.15671e-05
-5.98088e-05
2.82156e-05
-3.68336e-05
6.11206e-05
-7.09182e-05
4.66312e-05
-2.88887e-05
-5.61136e-05
-4.85143e-05
5.11016e-05
0.000367837
-0.00014915
2.00145e-06
5.76828e-07
5.11045e-05
-5.36828e-05
1.01595e-05
-3.85004e-06
-2.0206e-05
1.38965e-05
7.12232e-05
5.4599e-05
0.000157071
8.46731e-05
-7.15966e-06
-7.7028e-05
-4.85399e-07
0.000104172
-2.13883e-05
-9.83724e-05
0.000252913
0.000116408
0.00021546
0.00120261
0.000122359
-0.00116363
-0.000161341
3.11268e-05
1.30507e-05
3.48149e-05
-0.00067919
0.000175952
0.000604761
-0.000101523
-0.000140511
8.61164e-06
-5.62762e-06
0.000137527
-2.46526e-05
6.51068e-05
-3.61696e-05
-4.28464e-06
7.98719e-05
-0.000150973
7.87643e-05
-7.66277e-06
-0.000212311
0.000713538
4.5176e-05
-0.000546403
-0.000300769
0.000864302
5.58248e-05
-0.000619358
0.000590012
2.94404e-05
6.98399e-05
-0.000689293
-6.31662e-05
5.69183e-06
8.56819e-05
-2.82075e-05
6.39517e-05
0.000145787
-0.000142969
0.000313825
0.000319667
0.000485073
0.000111305
0.000528662
0.000102783
0.000524916
0.000130429
0.000591393
-7.97662e-06
7.20546e-07
4.6016e-06
2.65447e-06
3.4635e-05
-8.62837e-06
1.03194e-05
-0.000182254
0.000222396
-0.00027324
0.000340084
-9.32229e-05
0.000140051
3.0778e-07
-1.40414e-05
1.58966e-05
-1.80268e-05
-0.000107051
0.000126486
-1.40866e-06
1.12766e-05
6.82121e-05
-7.91943e-05
-2.94384e-07
2.64978e-05
0.000685302
-0.000464988
0.00096852
6.30174e-05
-0.00101645
-1.50862e-05
-0.000228094
0.000265066
0.000253898
0.000137238
-0.00026394
-6.68037e-05
0.000193505
0.000121017
-2.35021e-05
-1.40195e-05
3.25059e-05
0.000140675
0.00012691
-6.33948e-05
-0.000126969
-4.888e-05
-0.000954465
0.000926964
-0.000399724
-7.11086e-05
-0.000109105
4.83854e-05
0.000249732
-3.55021e-05
-0.000262616
-8.18347e-05
0.000729153
1.88883e-05
-0.000666207
-7.54661e-05
0.000553487
2.01448e-05
-0.000498166
1.87414e-05
-1.60393e-05
0.000109641
-0.000112344
3.0783e-05
1.57002e-07
-3.29377e-05
1.99771e-06
3.98545e-05
-0.000132234
0.000181179
-8.87994e-05
-3.01874e-05
0.000239948
-9.73118e-05
0.000112808
-4.31055e-05
2.76094e-05
-0.000283981
-6.10224e-05
0.000201684
0.000143319
5.58273e-05
-7.88848e-05
3.11047e-05
-8.04727e-06
0.000657166
2.39484e-05
-1.88846e-05
-0.00066223
-2.26077e-06
0.000102132
-7.59985e-05
0.000515554
-2.62505e-05
3.14794e-05
-0.000520783
0.000224209
-0.000147403
-0.000142349
6.5543e-05
-0.000519362
-2.79781e-06
-6.9716e-05
0.000591876
-0.00056678
-9.62615e-05
1.92714e-05
0.000643771
7.09813e-05
-2.92116e-05
-6.27226e-05
2.0953e-05
-9.68889e-05
2.13913e-05
0.000107465
-3.19676e-05
-8.00826e-05
-6.01601e-05
9.19213e-05
4.83214e-05
-2.7121e-05
2.53929e-05
-2.19788e-05
0.000782293
7.80637e-05
-3.79576e-05
4.63027e-05
4.50644e-06
-9.47795e-06
-0.00120882
-0.000122314
0.00116722
0.000163913
0.000474689
0.000359851
-0.000315372
-0.000519169
8.96451e-05
-4.68012e-05
-3.62824e-05
-6.56156e-06
-0.000133027
0.000183872
-0.00020227
0.000151425
8.35261e-05
-8.57869e-05
-0.000160103
8.46459e-05
-0.000602039
0.000677496
0.00013705
-0.000114687
2.99924e-05
-5.23551e-05
-3.77687e-05
3.9874e-05
2.66679e-06
-4.77215e-06
5.58651e-05
-3.16946e-05
2.64756e-05
-5.06461e-05
0.00017876
-0.000142743
-8.09896e-06
0.00105495
-0.000913937
0.000215638
-0.000356652
-0.000318471
-0.000189302
0.000240907
8.56082e-05
0.000117175
-0.000111333
-9.14498e-05
-8.64575e-05
-9.31845e-06
-1.11302e-06
-0.000197452
0.000179135
-6.17659e-05
8.31404e-05
1.78304e-05
-2.99896e-05
4.55698e-05
-6.80411e-05
2.02937e-05
2.17766e-06
1.43398e-05
-4.6924e-06
4.88718e-06
-1.45346e-05
-3.0557e-06
-5.05881e-06
0.00022918
-0.000419779
0.000491296
0.00113261
-1.75348e-05
3.04125e-05
3.52341e-06
-2.11345e-06
-0.000265449
0.000264039
-6.05003e-05
0.000144758
-5.10571e-05
0.000105773
-8.9777e-05
6.66444e-05
-0.000107565
7.05473e-05
-0.000684558
0.000344726
-7.54681e-05
-0.000842116
-0.000491889
0.000179683
7.43527e-05
-2.74409e-06
-0.000136388
-1.37913e-06
8.99227e-06
4.39597e-06
-0.00010615
-6.891e-05
0.000101355
2.62448e-06
-2.94627e-05
2.32252e-05
5.28361e-06
-6.26863e-06
0.00010612
-0.000105135
-0.000812467
-9.16124e-05
0.000224889
0.00039208
-0.000369388
-0.000174881
0.000152189
-0.000138707
-0.000935413
6.23179e-05
0.0010118
-6.60987e-05
-0.00100424
0.00103249
3.78412e-05
5.30559e-05
-6.62799e-05
-6.60218e-06
-0.000251138
-0.000312863
0.000335907
8.14946e-05
3.75146e-05
-7.50926e-05
-4.39167e-05
-5.32111e-05
-3.55708e-05
6.21819e-05
2.66e-05
-0.000808506
-0.00028611
-0.000178047
-4.47526e-05
-1.93266e-05
0.000242126
9.06549e-05
-1.39296e-05
-9.43038e-05
1.75784e-05
0.000234716
-7.38622e-05
-1.71748e-05
-3.85784e-05
-2.94783e-06
8.02958e-05
1.33668e-06
-6.88149e-05
0.000128516
-0.000117866
-9.51829e-06
-1.13187e-06
2.35411e-05
1.10749e-05
-4.24651e-06
-3.03695e-05
2.93088e-05
0.00058488
-1.98294e-05
-0.000594359
0.000100903
0.000680206
-5.93086e-05
-0.000721801
7.11808e-05
5.90959e-05
-1.76097e-06
3.01507e-05
-0.00108917
0.00108927
-3.02533e-05
0.000263582
-0.00150696
3.79699e-05
0.00120541
-9.62223e-05
-2.28004e-05
4.71581e-05
7.18646e-05
0.000167523
1.00996e-05
-3.49399e-05
-0.000142682
0.000348828
-0.000320224
0.000211549
0.000713372
-0.000616983
-0.000757831
3.89073e-06
1.33955e-05
6.21025e-06
-2.34965e-05
-2.45654e-05
4.11017e-05
-6.82092e-05
5.16729e-05
-3.52316e-05
-4.51292e-06
9.76388e-05
-5.78943e-05
-0.000745014
0.000238546
0.000484701
2.17668e-05
0.000127451
-3.00941e-05
4.03636e-05
-0.000137721
-4.96308e-05
6.16079e-06
-1.5703e-05
5.9173e-05
0.000216291
2.06129e-05
6.2537e-06
-0.000243158
-4.74446e-06
7.75306e-05
-7.27862e-05
0.000314229
-0.00125946
-7.26792e-06
2.80887e-06
-8.32699e-06
1.2786e-05
-3.12539e-05
-2.19425e-05
1.46079e-05
2.32828e-05
-3.4859e-05
-1.65932e-05
2.81694e-05
0.0010411
-0.0014657
0.000184302
0.000240303
0.000475447
9.15637e-06
1.26093e-05
-0.000497212
-6.00419e-06
-2.58788e-06
5.48948e-05
8.77805e-05
8.88141e-05
-0.000957378
0.000780784
1.05924e-05
4.32255e-05
-6.03732e-05
6.5553e-06
-1.6415e-05
0.000168425
-0.000207542
5.55312e-05
-2.98231e-05
-7.85006e-05
0.000115586
-7.26192e-06
0.000891765
-0.00059388
-3.93615e-06
-7.7028e-05
5.69596e-05
9.7191e-06
9.27316e-05
-9.40158e-05
0.000846636
-0.000580299
4.90846e-05
-0.000315421
4.56329e-05
0.000387447
-1.8293e-05
4.40291e-05
-4.16823e-05
1.88993e-05
8.1868e-05
-1.21916e-05
-8.85757e-05
0.00053799
-8.57788e-05
-0.000409562
-4.26488e-05
1.02493e-05
-1.81021e-05
-5.45365e-05
6.23893e-05
-3.61921e-05
-0.000251551
0.000137425
0.000259768
7.77922e-05
-1.9837e-05
-0.000106897
4.89416e-05
4.11072e-05
5.58695e-05
-5.21162e-06
4.24254e-07
0.000221078
-1.48214e-06
-1.47674e-06
-4.6672e-05
2.00339e-05
-1.74704e-05
0.000124888
0.000215447
-0.000252276
0.000128826
-9.19973e-05
0.00115037
-0.00112881
-0.000290311
-2.85587e-05
-0.000622808
0.000190131
0.000538397
8.14017e-05
-8.64023e-05
7.32112e-06
0.000493545
-0.000102953
0.000501173
-0.000171332
-3.0368e-05
0.000133076
-8.54969e-06
4.82832e-05
6.8806e-05
-0.00010854
3.83127e-05
-2.10837e-08
-4.52969e-05
7.00532e-06
-4.06637e-05
5.9563e-05
9.17455e-06
-8.95536e-05
8.39821e-05
-3.60302e-06
0.000728052
9.93895e-05
-4.51484e-05
0.000163778
0.000167186
-0.000271092
0.000231675
-0.000457758
0.00046615
-0.000315894
0.000191533
-0.00114133
0.00114331
9.60377e-05
-9.80219e-05
0.000225655
0.000597861
-0.000276366
-0.000393681
-3.85727e-05
-0.000136406
-0.000174109
-0.000324006
0.000506606
-0.000746926
-0.000163963
0.000404282
-0.000756413
0.000332621
-9.41344e-05
0.000517926
-4.22181e-05
0.000119979
-0.000346639
0.000268878
-2.64253e-05
-5.53408e-05
-0.00109903
0.00118079
9.33662e-05
-0.000393131
0.000773772
0.000179211
-0.000824587
-0.000128396
-2.44455e-05
2.38305e-05
9.22775e-07
0.000719896
-0.000671784
8.23172e-05
0.000598847
-0.000651823
0.000155759
0.000551885
-0.000514552
7.39717e-05
-1.02444e-05
8.9894e-05
1.10054e-05
3.34033e-05
4.94564e-05
-5.06751e-06
9.32101e-05
-9.63053e-05
7.11778e-05
-6.80827e-05
0.000649439
-0.000548234
-7.31444e-05
-2.80605e-05
0.000630061
-0.000538261
-1.04729e-05
-8.13269e-05
0.000103021
0.00154976
-0.00121924
-0.000433539
-1.15164e-05
6.74612e-06
-2.46212e-05
2.93916e-05
-0.000994168
-0.000637515
0.00105566
0.000576027
1.07116e-05
-4.10391e-05
-6.8991e-05
9.93186e-05
2.37347e-05
-1.49871e-05
1.12275e-05
-1.99751e-05
9.97717e-06
-2.74599e-05
-4.84027e-05
6.58854e-05
0.000117412
-4.42906e-05
0.00065493
0.000539072
-0.000766924
0.000314075
0.000605071
-0.000837894
0.00036087
1.72328e-05
0.000111948
-6.42835e-06
1.25808e-05
3.45577e-05
-4.07101e-05
0.000596809
-6.59569e-05
0.000142975
-9.18766e-06
1.50322e-05
-5.7996e-06
-0.000130744
-0.000234749
1.9475e-05
0.000346019
0.000190958
0.000826375
-0.000657481
-0.000306331
-0.000358769
0.000376285
0.000650891
-0.000615008
-0.000130587
9.47042e-05
-0.000103623
4.67266e-05
6.55075e-05
0.000103897
-3.18574e-05
4.60192e-05
0.000169914
-1.86101e-05
7.41372e-05
-3.74594e-05
9.47393e-05
0.000523611
-0.000631203
0.000107592
-0.000407324
0.00029122
-0.00128499
0.0014011
-0.000148447
0.000102014
0.000213913
-0.00016748
0.000158862
4.12923e-05
-7.99997e-05
-0.000120155
-0.000439581
-3.00836e-05
0.00060174
-0.000132075
0.000222744
-0.000186456
-0.000388465
-8.30427e-06
-2.17317e-06
-2.27429e-06
0.000160184
-0.000111558
0.000110236
-7.88132e-05
-5.06101e-06
5.93087e-05
-3.30736e-05
1.93471e-05
4.42881e-05
-3.05617e-05
0.00021938
-0.000218481
0.000104303
-0.000105202
5.18596e-05
2.0159e-05
9.20016e-05
-4.23317e-05
-1.1451e-05
3.97413e-05
-9.40864e-06
3.79367e-05
-5.48885e-05
2.63605e-05
9.0865e-06
-5.94603e-05
7.75011e-05
-2.71273e-05
7.14134e-05
-3.01212e-05
-5.85226e-05
5.40237e-05
-9.17235e-05
6.19538e-05
-1.9611e-05
0.00012518
3.71255e-05
2.60075e-05
-1.75632e-05
-0.000628031
-0.000406074
0.000774732
0.000259373
0.000822867
-0.00104164
0.000356919
-0.000138148
-6.29563e-06
-1.60183e-05
2.18602e-05
4.53702e-07
4.27627e-06
0.000275338
-0.000325263
4.56493e-05
-4.5372e-05
1.33686e-05
2.32548e-05
8.74863e-06
-0.00133971
0.00117671
-0.000251073
0.000414079
0.000377662
-0.000322374
-0.000129309
7.4021e-05
8.61539e-06
0.000646219
-0.000644527
-1.03073e-05
-0.000351494
2.01226e-05
0.000137106
-0.000564684
0.000545321
-0.000117744
0.000159297
-0.000615901
0.000622154
-0.00016555
-0.000101471
-0.000759528
0.000860999
-9.08207e-06
3.91013e-06
-1.55325e-05
2.07044e-05
8.67253e-06
-9.22619e-06
3.30569e-06
-2.75203e-06
8.73483e-05
-5.06814e-05
0.000128537
-0.000165204
-8.44044e-05
-0.000141907
0.00019108
-9.7635e-06
-4.09769e-06
6.59327e-06
-0.00018611
8.16534e-06
0.000116787
6.1158e-05
-0.000121476
-6.28076e-06
9.48619e-05
3.28945e-05
-2.64814e-05
5.17199e-07
0.000358348
-0.000332384
0.00108859
-0.00111538
-5.42575e-05
8.10389e-05
-0.000156114
-9.08639e-06
0.000144909
7.90947e-06
-0.000152819
3.57881e-05
0.000129583
-4.0818e-05
-0.000124553
-3.20816e-05
-6.30923e-05
3.4821e-05
6.03528e-05
-1.63062e-05
1.34025e-05
-6.51374e-05
-4.11203e-05
1.54797e-05
0.000108781
-3.24078e-05
6.04759e-05
-0.00022552
-9.64195e-06
1.37405e-05
-9.0556e-05
0.000618186
4.81396e-05
-6.60289e-05
0.000612561
3.08559e-05
-4.40054e-05
-0.000544216
3.07861e-05
-3.95107e-05
-0.00051351
-4.55273e-05
-2.24028e-05
-0.000366108
-0.000191269
0.000214203
-0.00098308
-0.000170913
0.000281421
9.4891e-05
8.74635e-06
-1.89642e-05
-9.27762e-05
-0.00116888
0.00118512
-8.53168e-05
3.51758e-05
-0.000235841
-8.70609e-05
-1.15587e-05
-6.46803e-05
0.000621079
-0.000182734
-0.000513811
0.000700514
-0.000183951
-0.000598397
-1.70118e-05
1.13979e-05
5.23767e-05
-4.67628e-05
1.58627e-05
0.00065673
-2.17017e-05
-6.58176e-05
8.44777e-05
5.42621e-06
-2.40864e-05
5.31964e-05
-5.24547e-05
-1.96691e-05
1.89274e-05
3.21491e-05
-2.37735e-05
1.27499e-05
-1.21266e-05
7.47887e-06
3.92827e-05
4.50263e-06
-9.65465e-05
-3.75483e-06
9.57987e-05
0.000281649
-8.58143e-05
0.000100058
-0.000295892
-0.000332646
-7.98727e-05
6.10252e-05
-0.000378472
0.000250188
0.000330741
8.50658e-06
-1.35335e-05
7.65144e-06
7.3885e-05
-2.87089e-06
1.80758e-05
8.41487e-05
-9.74521e-05
8.11595e-05
-6.78561e-05
-0.000423481
3.9405e-05
0.000394744
-1.06683e-05
0.000303439
0.000367869
-0.000594054
-7.72537e-05
0.000228245
-0.000588227
-0.00026805
0.000446888
0.000299324
-0.000602162
-0.00014405
-0.000109468
9.13854e-05
3.54021e-05
-1.73196e-05
0.000116234
0.000164167
-0.00102541
3.87527e-05
-1.79548e-05
-2.91021e-05
3.46291e-05
-2.04562e-05
-2.38148e-05
-7.84318e-05
-5.67854e-05
9.4097e-05
0.00089984
-2.333e-05
-0.000766927
-0.000109583
-2.76129e-05
-1.22858e-05
-9.97794e-05
-0.000173382
1.26841e-06
7.62622e-05
-0.000104697
0.00111613
0.00015619
-9.60596e-05
0.000185597
0.00012591
-0.00040994
0.000331913
0.000530653
-0.000452625
0.000287039
-0.00028584
0.000460223
-0.000461422
3.54938e-05
7.63877e-06
-2.88982e-05
-1.42344e-05
4.8665e-06
-2.46628e-06
-9.3622e-06
6.96199e-06
-0.000253517
4.32295e-05
4.9533e-05
0.000160755
-0.00111304
0.00110809
9.37674e-05
-0.000737767
0.000474425
-0.000606382
0.000533908
-0.000356451
-0.000155298
0.000133277
0.000111598
-3.77145e-05
0.000860483
-0.00102848
-0.000263136
0.000431136
-0.000227424
-0.000989271
0.001191
2.56927e-05
-0.00107166
0.00109437
-0.000115485
-0.000494043
0.000438021
0.000359088
-0.000303066
-0.000314771
0.00032259
3.36695e-05
-4.14887e-05
-0.000131332
-3.74569e-05
2.30102e-05
-0.00059075
0.000723512
-0.000538835
0.000155251
-1.24503e-05
-2.25469e-05
4.28274e-05
5.36881e-06
-2.56493e-05
-0.00018177
0.000172958
-5.58472e-05
2.66939e-05
0.000124044
-0.000920753
0.000884606