/*--------------------------------*- C++ -*----------------------------------*\
| =========                 |                                                 |
| \\      /  F ield         | OpenFOAM: The Open Source CFD Toolbox           |
|  \\    /   O peration     | Version:  v1912                                 |
|   \\  /    A nd           | Website:  www.openfoam.com                      |
|    \\/     M anipulation  |                                                 |
\*---------------------------------------------------------------------------*/
FoamFile
{
    version     2.0;
    format      ascii;
    class       volScalarField;
    location    "0.09";
    object      p;
}
// * * * * * * * * * * * * * * * * * * * * * * * * * * * * * * * * * * * * * //

dimensions      [0 2 -2 0 0 0 0];


internalField   nonuniform List<scalar> 
1431
(
91.0144
54.5806
86.7832
80.0821
92.2878
88.3337
94.133
84.1717
84.974
94.3354
86.2926
93.73
77.9091
93.3712
68.8882
80.8172
73.6584
91.375
94.5535
87.0856
91.8437
94.6482
85.5724
93.8445
69.0141
87.6335
62.009
92.7556
80.5537
94.7974
94.0523
105.524
89.769
88.1955
94.0911
89.1426
89.7263
82.789
87.9625
83.1346
94.1503
77.9349
86.0861
92.9938
87.0645
89.9504
85.5363
107.86
95.0926
84.7876
94.2604
93.9938
83.6768
87.1812
92.8937
102.075
93.8945
84.5192
68.3023
92.0223
76.5675
90.451
87.8001
84.5533
89.0115
92.317
88.4145
88.5558
95.2236
85.4213
86.6872
93.599
84.9304
88.524
81.4015
90.0137
91.6836
85.4376
85.3265
64.3045
84.4547
93.6352
81.9347
75.4037
69.8934
92.2411
92.3356
78.5939
94.2065
88.7201
88.5618
78.598
92.6101
82.1139
93.0091
91.8483
80.3442
88.3068
91.7926
94.1546
95.1775
82.2556
90.3793
92.3255
79.989
74.5231
84.8404
94.3053
97.4503
91.9791
64.7281
92.2978
84.658
90.8577
79.958
92.3939
90.8755
65.1644
94.474
88.3045
79.3324
84.7556
94.1083
95.1249
84.0865
67.9021
94.704
81.3075
90.9773
84.3511
91.9295
97.4786
89.0259
90.6663
92.6631
78.9345
86.3088
92.884
89.4372
96.2842
93.5106
92.9612
83.8054
95.8654
98.3338
82.4414
87.3918
95.2566
87.5854
96.4358
85.355
90.3708
62.4981
75.0311
91.0374
79.7665
84.4534
90.9747
85.5875
95.4945
92.0128
87.2371
90.1877
79.3957
92.1267
61.4806
91.8643
80.8545
94.5983
90.6792
94.8521
80.0901
94.0271
85.8848
84.3708
90.6027
76.7691
85.7791
95.3715
92.638
84.5549
70.2155
94.4875
90.0686
83.8837
95.0947
82.8428
74.7285
88.0999
84.4073
92.494
73.1128
91.7147
84.4013
81.654
77.8581
84.9162
108.894
89.1751
87.9715
84.5435
103.818
96.6799
94.3887
84.6883
64.6448
92.2335
84.837
83.6417
87.5246
84.371
85.5944
94.6263
84.7224
93.6785
84.3692
87.0294
91.9351
68.5745
84.4459
84.3856
59.682
84.0191
88.0499
85.1608
80.1301
95.3204
90.8177
92.2252
94.1175
92.5325
79.6958
85.3041
81.4846
83.6619
84.9426
87.0826
90.7106
84.3164
65.8171
85.894
96.373
86.8878
78.1781
79.0034
78.8073
83.6979
94.0323
88.4318
94.4159
92.347
85.2811
94.4258
111.982
86.3646
85.0254
94.1481
65.2049
83.5659
84.3068
84.9588
78.8889
91.8218
91.1612
84.3154
91.3603
75.5704
82.3595
97.3484
90.2557
83.7382
94.9844
91.2961
90.2932
84.3176
79.479
89.9472
93.859
93.6266
94.3776
85.8308
65.1577
68.579
90.3313
79.1633
77.33
92.3962
91.4916
93.753
85.2516
82.3655
84.0646
91.404
94.8591
93.4282
88.0683
91.4145
93.5024
64.6815
94.1218
84.6101
95.3563
79.0629
100.555
91.0919
61.6546
84.4808
84.6715
83.9663
93.8412
85.2052
83.9072
73.1262
92.6594
77.4032
60.0539
94.5242
71.409
82.9769
94.1475
67.3158
94.0905
93.9092
70.0319
93.6144
94.3554
84.3563
94.7475
94.3142
84.923
73.4167
72.5148
62.7285
94.3428
84.314
89.0505
94.9922
94.1188
94.4385
76.7259
86.4683
84.3506
94.5849
79.1034
99.3476
74.8721
85.1568
75.3933
93.1187
93.6739
74.5561
93.1583
93.6702
92.6039
74.5782
74.3858
93.3865
75.3156
91.8961
67.7665
94.5861
73.8221
92.9636
92.7126
93.3195
75.1103
93.7468
71.9439
73.0976
74.7172
54.3052
62.9062
94.288
94.3754
94.3511
68.2236
71.3986
84.1433
83.5931
91.4343
92.8085
74.8224
93.4963
93.5743
73.0079
93.3412
70.2064
75.2004
92.2556
92.912
75.628
87.3599
95.4123
84.2224
94.602
92.5767
94.0867
84.8919
95.2283
84.9066
68.3532
71.7823
84.7429
94.0854
73.2318
78.9979
72.6529
100.702
93.7147
73.0907
82.0512
68.8705
93.5842
90.8243
96.9162
123.249
64.7631
87.5741
74.595
93.9684
70.3872
96.6024
95.0027
65.243
96.8121
62.1755
61.2041
85.2334
87.1521
55.8331
85.7121
70.1856
68.647
89.8864
66.5792
56.0372
96.4438
86.5205
68.1587
88.1465
93.3921
94.8439
88.786
86.4956
75.796
95.284
94.176
74.6384
89.1372
90.0808
91.3906
95.2155
93.9798
94.8934
96.6732
94.8349
95.0745
95.456
94.9237
69.6838
85.125
95.7621
87.4205
85.171
72.2248
73.8638
93.5968
87.7586
85.3112
73.8403
90.2607
92.6583
100.513
112.402
84.0404
74.5501
87.9256
86.3744
76.9364
97.5168
96.9791
92.9577
101.754
80.8539
99.6471
92.0208
83.8798
95.274
95.8704
85.2095
80.7486
96.2734
75.1756
86.5749
96.9129
93.2505
82.1925
84.8842
85.0478
80.5952
83.3512
76.4609
81.3769
58.729
57.7181
84.3505
75.1021
95.1668
96.1699
95.0491
94.7996
79.8772
85.5039
70.8372
84.4895
95.6923
82.1923
79.1921
96.6624
73.7931
88.3419
73.8179
86.7713
93.657
93.1959
96.3881
70.235
96.0604
78.2356
83.0251
99.1508
101.007
71.443
82.6909
95.6547
96.4601
77.3733
78.4787
94.7529
93.9143
61.6842
76.5186
68.364
92.5807
92.5879
95.0756
81.807
84.381
95.4015
75.5391
75.9582
91.3557
82.5862
96.176
64.8608
72.6864
74.5821
69.1472
81.1124
89.0595
93.4454
64.5871
76.6666
77.907
89.29
94.0897
95.6929
91.039
77.3545
61.2132
76.0895
94.7006
84.1019
94.9703
82.3119
90.7317
96.0809
94.7352
60.8134
91.0222
93.5365
84.4669
70.8178
57.6148
75.107
73.4532
69.9425
81.1798
93.9525
90.3702
93.0885
83.5195
82.7773
82.873
85.3145
67.9656
92.8311
88.427
89.7611
74.13
69.8547
66.4889
75.4806
76.9882
76.6509
95.2756
86.1865
75.1073
94.7746
75.7635
86.5301
95.373
94.0973
87.6683
80.3885
88.5688
83.4468
94.5727
81.6701
95.564
75.417
73.7597
90.8329
72.3748
90.016
113.165
74.9736
92.4045
96.0325
84.265
94.3777
91.4368
89.7045
84.2766
69.4751
95.8852
75.1695
92.8179
81.1531
90.9039
71.747
94.5838
84.3339
95.5008
91.376
72.6146
66.2498
83.9443
94.2654
91.5713
93.7125
69.5273
89.06
77.9679
85.1679
96.0448
84.4724
84.5174
90.6155
95.6764
59.7337
91.7763
89.878
88.9656
84.67
74.4375
81.661
94.9971
95.6614
74.6185
91.8518
84.3847
90.0708
63.1767
98.6862
97.6061
83.6222
92.759
74.028
85.6684
68.8557
91.6713
79.4907
93.3966
93.9681
63.5121
96.3925
67.9237
71.7973
94.2155
95.198
62.5859
66.2885
90.743
95.9628
74.0808
92.5543
75.8255
84.4564
94.5173
71.4998
73.5084
89.6825
73.2999
92.1696
120.38
78.9786
95.0689
80.4254
94.7089
94.6805
93.1225
75.4065
94.8821
85.2581
85.3155
60.1686
83.6587
96.5034
90.0558
85.1755
85.4903
83.8774
78.8387
75.7095
85.7352
94.6572
89.469
94.5874
95.393
94.5549
89.9976
94.4469
94.2656
79.5251
88.3557
90.4566
92.4488
95.0417
90.1368
64.0556
89.1756
103.084
88.9538
90.5606
85.8688
91.0951
92.9914
95.1301
75.7284
88.2368
92.4233
94.0798
93.6406
89.4546
91.4866
84.6529
85.615
84.6539
94.8834
86.5037
92.1907
109.785
102.887
83.6709
84.0637
78.3396
109.195
89.9367
93.8878
93.6015
84.8875
92.8523
75.5293
67.4267
91.8907
91.7787
77.8772
91.8415
72.928
81.5197
92.2934
93.3001
90.811
94.2604
88.6509
93.1056
75.3277
92.2702
94.9
89.5577
87.0896
94.0408
128.247
83.9686
84.7428
92.5287
75.4824
82.0614
82.9979
95.3421
67.5904
98.0861
74.538
92.5274
74.5909
93.3785
92.3468
83.2851
91.4598
84.8059
83.3621
83.9664
91.3781
69.517
87.1882
87.1846
84.9853
83.7075
83.7012
86.8847
84.9225
92.7992
68.6554
76.6005
85.3543
83.2917
70.5832
74.9699
91.8699
93.6818
93.3101
74.8739
92.4008
76.7251
73.0701
93.567
83.2375
68.5855
95.3275
86.0264
99.2568
87.6889
83.1685
92.8459
99.0251
75.0215
56.3654
65.4621
84.0957
64.7399
53.6067
62.4123
93.8415
117.628
90.9841
93.5921
83.5922
84.6595
84.323
84.1778
89.9234
73.9737
92.9206
73.4118
91.2905
81.441
98.2815
92.304
75.9765
98.0126
99.6629
88.4213
53.3597
93.4273
98.4866
85.5645
92.342
94.0109
84.4159
91.4034
76.4355
91.9528
93.8032
85.5388
91.0637
90.9321
87.8626
85.0551
100.271
85.559
77.85
86.8058
84.5395
90.2288
85.3849
93.2956
74.9659
95.1797
78.1947
94.2418
94.0548
95.2731
95.6324
93.6332
94.853
87.9698
90.6494
93.5052
94.3753
89.0036
83.9572
83.2474
93.7236
94.9741
66.2765
73.3792
84.6313
79.7521
77.6433
94.9793
85.4752
90.8664
84.2249
84.3592
84.7725
77.6299
85.5692
94.5889
94.6019
82.4868
97.5536
88.714
84.3806
86.3394
85.4383
83.2872
87.0338
87.5384
68.4724
92.6915
76.5974
84.5411
88.0108
91.1553
91.1633
62.7005
91.764
92.9935
90.926
94.883
92.5254
80.7616
92.7708
90.4395
75.4507
88.5542
92.3387
94.4639
91.9703
85.6017
91.2641
73.4101
93.3125
63.7492
90.7653
89.1957
84.2617
92.2464
73.431
94.4615
94.8603
62.1687
63.9907
94.5412
94.7193
84.3546
90.3773
89.8386
92.8206
56.41
89.603
94.2043
85.0242
94.6428
75.2847
92.8054
87.7158
91.1129
83.2963
92.4152
84.5467
95.7325
52.7374
85.3491
75.5838
80.1589
93.2003
68.7509
92.0454
94.9179
83.1268
86.3689
84.2684
92.3131
85.0823
87.3013
71.487
83.3202
89.1054
90.2393
94.7694
84.1238
89.2674
93.6992
80.7293
87.3735
94.7143
92.6672
93.954
60.6517
85.4755
68.8784
90.1631
90.7347
75.0555
73.9366
93.6987
81.3368
93.5037
92.2414
94.7054
56.7316
76.1035
71.9379
94.4439
79.7151
84.5143
95.3715
93.1413
81.2732
92.4076
92.4118
75.7618
95.52
72.9429
88.0881
92.9328
94.7664
68.0627
74.2549
83.5528
92.0111
70.8858
87.4447
93.3572
89.883
89.7356
96.5988
103.739
96.098
76.5981
81.7347
71.8626
104.385
88.8757
81.6808
84.7904
84.2464
93.6158
90.7843
83.0454
81.0279
95.2053
84.2936
94.1097
91.7364
83.6358
85.5754
85.5879
92.5172
97.0224
94.1608
93.9213
101.46
92.4304
81.6999
94.2535
86.195
73.1204
94.3264
88.8386
94.372
104.065
82.1728
91.4492
74.2584
85.6357
90.7711
88.6762
74.2898
91.4839
80.702
68.3546
91.9841
84.8523
61.4301
92.153
75.2897
91.4826
68.2713
73.7486
95.8789
95.4306
93.1888
97.9479
53.6801
66.5068
104.404
103.649
66.2978
93.8093
85.4073
91.7498
70.1234
91.2416
93.9021
94.7042
86.2027
92.1606
85.5228
94.1958
90.9107
83.1943
76.123
89.6896
76.8969
73.7215
67.1515
93.1149
75.2101
91.4865
85.5084
94.5373
89.6365
83.3467
69.5384
92.5704
72.4473
84.5338
85.7528
92.649
75.6494
69.9795
74.1711
93.3576
84.2514
91.8012
94.3685
84.7394
72.5972
91.9594
93.5764
74.489
94.7327
93.5216
96.6947
92.891
75.4838
91.1846
85.0685
86.8622
78.9648
81.652
83.0185
83.3767
105.522
94.0159
74.8674
95.5546
94.3273
84.5776
100.127
91.1313
95.0425
80.2988
86.8086
78.7287
85.9231
93.3468
74.4034
89.9935
88.1357
91.6408
78.2189
91.3047
71.2145
94.9044
82.1837
86.1085
66.5201
94.3218
85.6966
94.0286
76.2373
88.3033
81.0947
75.8743
93.8737
85.1235
84.8035
93.198
94.4105
88.0675
93.8944
93.9519
91.2096
77.1005
73.1517
69.2209
93.4102
94.5914
83.1537
91.4883
78.0935
102.219
84.9595
99.9305
83.8585
84.139
87.0256
76.0679
92.1853
67.5486
91.8545
93.4978
69.7833
92.5624
69.6458
89.5454
92.676
73.3619
93.5397
84.8394
93.1176
94.7578
92.1907
77.7972
73.8971
100.923
92.1227
79.0295
84.2337
92.3184
74.0633
94.4092
73.7419
79.643
93.0472
91.935
74.0994
65.1801
84.7446
87.7934
84.8741
83.1353
67.4645
91.1552
74.0379
80.8518
55.5714
93.7996
93.754
84.6338
85.2248
83.7981
76.5623
89.1899
85.0247
90.3735
82.232
72.8437
108.642
114.754
59.3234
73.369
92.266
87.363
94.5442
92.6266
83.6006
95.0956
90.7538
73.8752
90.8316
83.9063
91.9995
72.5382
75.2462
91.2575
90.7584
85.2115
68.6842
87.9434
94.772
92.0037
94.7675
84.5838
59.0871
94.8363
83.6535
88.7625
90.5294
95.0104
57.519
91.4008
61.0664
85.5918
90.9487
93.7884
90.8149
91.3274
63.5622
94.7772
64.3133
82.1132
76.1603
80.3129
94.8185
89.1928
68.3339
55.9937
90.4765
70.624
86.1702
75.6886
63.2452
83.9201
79.6636
92.3207
102.44
67.8549
94.3979
75.9337
92.108
74.6434
95.9496
83.6833
92.9639
75.0263
75.3955
83.4596
96.5811
62.2402
93.4579
72.2166
91.5193
86.3374
89.1453
56.3994
92.6028
65.0858
101.536
71.9524
86.2729
95.1764
88.5386
87.4806
73.9223
87.361
87.2851
90.2116
82.4848
95.8747
57.8072
89.2867
63.8993
75.2454
107.475
94.7044
84.0117
100.962
71.7834
93.7135
83.4443
89.5254
73.4005
83.9804
72.3732
92.4087
79.9184
90.5328
72.136
94.4721
92.3747
75.3872
83.2774
72.9764
90.932
82.8243
90.5773
85.7689
84.5705
85.8534
95.1453
91.9037
83.3559
85.4012
85.6328
84.3041
66.9112
94.7554
87.5961
94.6385
86.2442
99.4882
85.689
94.6615
86.2807
94.497
65.2414
85.31
86.8542
88.8509
108.076
85.1374
85.0654
92.5892
93.7924
94.4542
87.5233
)
;

boundaryField
{
    frontAndBack
    {
        type            empty;
    }
    wallOuter
    {
        type            zeroGradient;
    }
    inlet
    {
        type            zeroGradient;
    }
    outlet
    {
        type            fixedValue;
        value           nonuniform 0();
    }
    wallInner
    {
        type            zeroGradient;
    }
    procBoundary0to1
    {
        type            processor;
        value           nonuniform List<scalar> 
29
(
94.6426
94.393
88.9648
88.9648
89.0596
89.0596
99.2902
89.5103
89.6066
89.0268
89.3399
90.0468
89.3185
94.5841
99.2664
100.079
88.5959
87.9831
88.9305
94.0122
100.386
100.736
89.7041
101.122
101.624
87.9831
101.91
99.5165
101.122
)
;
    }
    procBoundary0to2
    {
        type            processor;
        value           nonuniform List<scalar> 
42
(
94.5755
94.7504
92.1121
92.3224
94.0464
94.5755
92.1121
91.5028
94.0772
93.8706
94.0331
94.2365
94.0331
94.4258
94.5926
94.5281
94.5926
93.7329
93.9932
92.8392
92.8392
93.7329
93.5286
91.8471
91.8471
93.3574
92.5628
93.1601
93.6625
94.7401
94.7401
92.8605
92.3628
91.6477
90.9499
92.1121
94.7564
92.6253
93.6625
91.5028
90.8446
90.6978
)
;
    }
}


// ************************************************************************* //
