/*--------------------------------*- C++ -*----------------------------------*\
| =========                 |                                                 |
| \\      /  F ield         | OpenFOAM: The Open Source CFD Toolbox           |
|  \\    /   O peration     | Version:  v1912                                 |
|   \\  /    A nd           | Website:  www.openfoam.com                      |
|    \\/     M anipulation  |                                                 |
\*---------------------------------------------------------------------------*/
FoamFile
{
    version     2.0;
    format      ascii;
    class       volVectorField;
    location    "0.05";
    object      U;
}
// * * * * * * * * * * * * * * * * * * * * * * * * * * * * * * * * * * * * * //

dimensions      [0 1 -1 0 0 0 0];


internalField   nonuniform List<vector> 
1466
(
(0.54728 0.110318 -3.16516e-16)
(0.665324 0.0223315 8.4693e-19)
(-0.0376776 -0.124389 9.34284e-16)
(0.113095 2.00414 -8.93844e-17)
(0.0310123 -0.0381634 -9.14298e-16)
(0.312884 -0.00516182 -1.38112e-15)
(0.288768 -0.736604 2.79414e-16)
(0.237825 0.00200719 2.57073e-16)
(3.668 0.0696168 -1.01257e-19)
(0.445458 0.0482816 2.69394e-16)
(0.954067 0.0358777 -4.20909e-16)
(0.658695 0.221463 0)
(3.86243 0.0892029 0)
(0.108083 -0.0691067 -2.43893e-16)
(0.335969 0.0212572 0)
(1.05086 -0.154183 3.22016e-16)
(0.204581 -0.0198863 -1.69224e-16)
(0.0679951 1.39726 -4.62878e-17)
(0.0756147 1.63243 -1.61076e-16)
(0.174981 2.77817 2.63435e-16)
(-0.00405705 2.53112 1.34506e-16)
(0.435238 -0.172948 1.03831e-17)
(-0.0873234 1.56491 -1.12585e-16)
(-0.0493853 2.96075 -2.74507e-17)
(3.89258 0.09775 1.15332e-16)
(0.48586 0.0934908 -3.27773e-16)
(-0.117794 -1.27642 -1.87606e-16)
(-0.0790362 2.22372 0)
(-0.848933 -0.332222 0)
(1.71851 0.955433 8.14157e-17)
(1.21434 0.107373 3.03496e-16)
(0.764922 0.0366174 1.9653e-16)
(0.0743192 -0.0172832 3.2902e-16)
(0.241521 2.74214 2.92533e-16)
(3.77313 -0.251864 1.15521e-16)
(-0.0893205 0.744087 3.14014e-16)
(0.233166 2.68098 0)
(0.183051 -0.0013829 -4.30852e-16)
(0.326442 0.0024381 -4.84364e-16)
(0.225858 0.0426399 -5.25283e-16)
(0.0805903 0.0732298 -2.17216e-16)
(-0.125742 0.0684182 -5.77955e-16)
(0.206364 -0.0716175 3.03383e-16)
(0.151382 -0.0464215 1.93772e-18)
(0.312268 -0.0308397 -5.61116e-18)
(0.718931 -0.0310511 0)
(1.32785 -0.113641 1.30069e-17)
(0.143952 -0.0101851 0)
(0.206228 0.0122883 1.76942e-16)
(0.0698198 0.00204122 0)
(0.291594 -0.00817119 -1.34137e-16)
(0.529213 0.0173648 -5.31184e-16)
(0.270032 0.0316911 8.72133e-16)
(0.0748413 0.018569 8.53633e-16)
(0.047968 -0.0296343 -1.52688e-16)
(3.34123 -0.0070507 1.7408e-16)
(0.512616 -0.0108095 -3.02891e-17)
(0.928095 0.0787954 0)
(0.213837 0.0305277 1.55314e-17)
(0.383051 0.0199793 0)
(0.260568 0.357966 -6.32301e-21)
(0.300468 -0.106507 -1.71667e-16)
(0.427562 -0.0868286 2.49615e-16)
(0.719063 0.0490111 2.25005e-16)
(0.399337 2.24929 -3.37765e-16)
(0.309348 0.215941 3.87723e-16)
(0.101512 1.14524 0)
(-0.308305 2.23979 5.07577e-17)
(3.58741 0.213505 4.27065e-17)
(-0.73787 -0.452214 -2.4658e-16)
(0.30346 0.703029 1.62365e-15)
(-0.0678495 1.31819 0)
(-0.107581 2.5035 0)
(3.956 0.110812 -2.43257e-16)
(0.164358 0.307583 3.61639e-16)
(3.9617 -0.169373 -1.6021e-16)
(0.362123 -0.0531649 1.45113e-16)
(0.471619 -0.0462637 -1.41292e-16)
(0.487818 -0.00858909 0)
(2.9499 0.392128 0)
(0.379581 0.0163072 -2.35467e-16)
(0.926285 0.028644 -4.48738e-16)
(0.43777 0.123897 -4.08092e-16)
(-0.0375831 1.53012 4.26998e-16)
(0.264764 2.72427 1.98349e-16)
(0.227835 2.4136 8.56868e-17)
(0.264472 2.82041 0)
(3.50658 0.169193 1.87454e-18)
(0.365505 0.011876 5.33092e-16)
(0.62672 0.139207 -3.79324e-16)
(0.533687 0.10435 -1.23586e-16)
(-0.277176 -0.814222 -3.92416e-16)
(-0.0530585 1.7629 -8.98905e-17)
(0.498857 0.634529 -2.79899e-16)
(0.321018 -0.00870187 0)
(0.0406782 0.0214972 -5.58186e-16)
(0.61928 0.0276346 4.48837e-16)
(1.06298 -0.017951 -1.38909e-17)
(3.39135 -0.005151 4.39139e-16)
(-0.0316287 -0.022512 1.31776e-16)
(0.291775 -0.0373584 6.98693e-16)
(0.115668 -0.000851199 0)
(0.128932 0.00541677 5.37781e-16)
(0.120929 0.00715616 4.6611e-16)
(0.279465 -0.15841 -2.25752e-16)
(0.235446 0.0357414 1.17907e-16)
(0.227634 0.00863572 -3.26458e-17)
(0.0902527 -0.00837378 0)
(0.889704 -0.0495867 3.51318e-16)
(0.530918 0.0810117 1.07016e-16)
(0.321951 0.27444 -3.67864e-16)
(3.92748 -0.0936985 4.51413e-17)
(0.49317 0.0341558 -5.65749e-17)
(0.081265 0.0225262 -7.12487e-17)
(0.488177 0.0352213 0)
(0.607785 0.132709 1.11907e-16)
(-0.434817 -0.391473 2.91768e-16)
(0.773538 0.251791 0)
(0.204861 -0.452349 2.25407e-16)
(0.342786 -0.379131 -8.85774e-16)
(0.104667 2.1968 -7.31581e-17)
(0.3295 0.074656 4.29063e-16)
(0.442819 0.0455903 -1.44417e-15)
(0.186525 -0.0888744 0)
(0.303582 -0.0440014 -1.04278e-15)
(0.241303 0.770125 3.96885e-19)
(3.34632 0.436286 6.99643e-17)
(-0.000126141 1.3923 -1.2316e-16)
(-0.166603 2.88848 4.47363e-17)
(1.39944 0.391039 2.10804e-16)
(0.362061 0.00199001 3.67986e-17)
(-1.0667 -0.375886 0)
(-0.0885172 1.52552 8.16636e-17)
(-0.120223 3.01895 5.78675e-17)
(0.657781 0.0470069 -1.85414e-17)
(-0.418166 -0.200335 0)
(-0.199753 -0.178705 0)
(0.198307 0.00692856 -1.48307e-17)
(-0.025305 -0.173076 -1.58017e-16)
(0.16239 -0.142564 3.12034e-16)
(0.0898232 0.0228656 0)
(-0.136075 2.42154 -1.38304e-16)
(0.0455727 2.92044 -5.07462e-17)
(-0.119999 1.60534 -4.21623e-18)
(0.3481 0.186166 -4.6826e-16)
(0.423728 2.46107 1.96775e-16)
(0.782863 0.0396058 -3.3461e-16)
(0.826533 0.159001 -5.30269e-16)
(1.67551 0.462528 -8.67322e-17)
(0.0404207 -0.253647 1.51156e-15)
(0.573355 0.0844652 2.27534e-16)
(0.700022 0.050871 2.91023e-19)
(3.44649 0.375549 1.0932e-19)
(0.414459 -0.0831208 0)
(1.15765 0.539104 0)
(0.180277 -0.37116 4.45674e-16)
(0.133824 2.10005 -3.36737e-17)
(0.237807 2.9308 -2.85306e-16)
(0.834577 0.0807971 1.22287e-15)
(1.87643 3.05709 1.14653e-16)
(0.809528 0.0395639 1.44079e-16)
(2.89104 0.589804 0)
(0.213793 1.21893 1.23525e-16)
(0.323162 2.19959 -9.20291e-19)
(0.510148 1.09586 0)
(0.280439 -0.0052441 2.83762e-16)
(-0.106713 2.91323 0)
(-0.132737 1.44836 3.46418e-16)
(0.0677299 2.00148 -6.4794e-17)
(0.522661 2.0938 1.22984e-16)
(-0.197201 2.14494 4.33404e-16)
(1.19031 0.114662 -1.27297e-16)
(0.0877695 -0.0240603 7.72029e-17)
(3.52159 0.295707 -2.23301e-17)
(0.805921 -0.00383214 -3.45629e-16)
(3.91714 0.102603 -4.51447e-16)
(1.40015 1.13285 2.82535e-16)
(1.80869 0.758964 -1.06959e-16)
(0.368434 0.22035 -5.12345e-16)
(0.196533 0.887081 -3.33673e-16)
(3.79631 0.0766017 5.7437e-16)
(0.724614 0.0481482 -4.3292e-17)
(-0.328684 1.96259 -3.40381e-16)
(0.26785 -0.167969 4.15474e-16)
(3.71014 0.140745 -4.76558e-17)
(0.00529346 2.27754 -6.49387e-18)
(0.56394 2.74639 -1.94376e-16)
(0.269024 1.65224 -2.56535e-16)
(3.6563 0.134939 1.0473e-16)
(0.463192 0.314419 5.52017e-16)
(-0.228451 2.38255 -2.99849e-16)
(0.20071 0.460357 -2.78244e-19)
(-0.12163 0.963914 1.27131e-17)
(0.32093 2.1246 5.28236e-16)
(2.286 3.15558 -6.7288e-17)
(0.444704 0.233315 0)
(-0.538377 -0.0461927 5.2096e-18)
(-0.00362599 0.342486 -6.76312e-16)
(0.245069 1.13707 -4.55048e-16)
(0.759216 2.31124 -1.02404e-15)
(0.456976 0.982843 0)
(1.56024 0.413883 0)
(2.20275 0.878136 8.09878e-20)
(0.273335 2.61786 0)
(0.412082 0.550345 3.07189e-16)
(0.335939 0.986514 -2.83558e-16)
(0.241441 2.20154 -2.51268e-16)
(1.79501 1.3549 0)
(0.958236 0.147918 1.49972e-16)
(0.0922867 2.87598 -2.47594e-19)
(-0.0083761 1.64731 1.55979e-16)
(-0.0253523 2.50181 -1.85227e-16)
(-0.224301 1.40005 0)
(-0.0709273 2.08965 3.57546e-16)
(0.0759736 2.44438 -8.27495e-17)
(0.481685 2.54424 8.35844e-19)
(-0.129483 2.26519 5.80596e-18)
(0.908505 2.31742 -1.74244e-16)
(0.685951 1.50909 2.57655e-16)
(-0.152786 2.97135 4.16067e-16)
(-0.0946063 1.42642 -3.1049e-16)
(0.642242 0.089671 -1.57217e-16)
(0.481744 2.29378 -4.63632e-16)
(0.407586 0.309599 3.55207e-16)
(0.311809 2.0485 1.8507e-16)
(0.66257 1.32107 -2.84413e-16)
(0.0564905 0.192837 8.28513e-16)
(0.0258894 -0.212308 -3.81255e-16)
(0.466391 0.168006 -3.79645e-16)
(0.674321 0.088721 2.59238e-20)
(0.18157 0.612694 -8.13319e-16)
(3.85419 0.133402 2.65822e-16)
(0.489575 1.83824 2.35638e-16)
(0.285412 2.18008 3.61045e-16)
(0.528855 -0.104292 7.41305e-17)
(0.49104 0.767087 -1.13257e-15)
(-0.0203678 2.91388 7.32018e-17)
(-0.14221 1.52834 3.23521e-17)
(1.09761 0.331038 2.83063e-16)
(-0.252409 2.22609 5.3059e-17)
(-0.326894 1.15982 0)
(3.12343 0.367158 6.08652e-17)
(1.62132 1.18245 1.60917e-16)
(0.987293 1.9126 4.25752e-16)
(1.29462 0.23531 0)
(3.06504 0.547701 0)
(0.733751 0.0334245 0)
(4.01217 0.182344 0)
(2.58472 0.421582 -1.59501e-16)
(1.45274 1.3364 -1.56312e-16)
(-0.183017 2.37264 -1.21442e-16)
(0.368302 2.16235 -4.87064e-16)
(1.5934 1.52528 9.67639e-19)
(0.96055 1.45585 -1.64494e-16)
(1.00994 0.0980266 3.362e-16)
(0.805568 0.121538 -3.13251e-16)
(0.147573 2.20718 0)
(2.6922 2.31495 -3.9825e-16)
(0.00112534 0.853679 -1.2986e-16)
(-0.173465 1.14828 1.76408e-16)
(-0.154077 0.896903 0)
(-0.0640356 1.48028 -5.79007e-17)
(-0.143609 2.99741 -7.74795e-17)
(0.67718 0.0474326 1.80384e-20)
(1.31462 2.96049 2.18694e-17)
(0.0136428 -0.0585034 -4.5123e-16)
(0.666349 0.0742542 3.43875e-16)
(1.38302 0.529477 -1.56633e-16)
(0.213583 2.03444 -4.54206e-17)
(2.86531 1.88422 -1.68865e-16)
(0.69165 1.77739 -2.12026e-16)
(0.141205 0.911756 0)
(-0.058315 0.711766 8.45505e-18)
(1.045 0.182825 -1.88414e-16)
(0.618068 0.0666817 -4.55317e-16)
(0.356908 0.400186 6.92806e-16)
(0.537349 0.161105 -3.29478e-16)
(0.544236 2.49896 -2.6425e-16)
(-0.107034 1.95683 -3.03189e-16)
(1.85862 0.495625 2.38785e-16)
(0.692647 0.040954 2.82744e-16)
(0.230154 1.68695 3.87495e-17)
(0.628168 2.70937 0)
(3.54959 0.266826 -5.61115e-17)
(-0.291527 1.6171 7.5262e-16)
(0.0676892 0.0361894 -2.58968e-16)
(1.45004 0.694203 0)
(1.20731 0.720876 -4.78469e-16)
(0.220306 0.0371572 0)
(1.9817 1.60355 -6.1019e-16)
(3.3698 0.53615 2.57552e-16)
(0.686549 0.026075 -5.4344e-19)
(3.84184 0.0885205 -6.31135e-16)
(0.241275 0.0313388 0)
(0.70265 2.5306 2.42051e-16)
(0.404203 1.26644 -5.05522e-16)
(0.640119 2.02126 2.12425e-16)
(0.121859 0.0176255 6.90784e-17)
(1.6716 0.635576 1.1486e-16)
(0.693365 0.0502633 -3.32665e-16)
(0.107978 -0.0546046 0)
(0.343672 0.0446056 3.1185e-16)
(0.110787 0.0410176 0)
(3.81828 0.177331 -3.74509e-16)
(0.374659 2.71644 0)
(-0.157873 1.48406 1.50405e-16)
(-0.279383 1.27051 2.0423e-16)
(0.170263 0.0235338 -3.93006e-17)
(0.507479 2.30692 -5.92611e-17)
(0.250984 2.39226 1.64468e-16)
(2.8822 0.827828 2.6763e-16)
(-0.0880612 1.32599 0)
(-0.227091 2.83866 -3.21217e-19)
(0.588289 0.473913 -2.57169e-16)
(1.00025 0.913049 -3.28527e-16)
(1.19636 1.13965 -4.79287e-16)
(0.121699 2.89764 0)
(0.995559 1.43393 3.56361e-16)
(0.174338 0.0688953 0)
(0.347696 0.00691516 4.82499e-16)
(0.0762789 0.814075 0)
(0.289679 1.51675 -2.36646e-16)
(-0.0309877 0.872045 -1.15618e-16)
(0.697969 0.0117409 4.06039e-16)
(0.00171875 2.90193 -4.57694e-17)
(1.54397 1.94893 -1.97745e-16)
(0.113126 -0.00845363 -1.37366e-16)
(0.758087 1.52324 -4.39158e-16)
(0.731479 0.0347522 -3.43635e-16)
(0.745061 0.150619 2.78384e-16)
(0.132585 1.47122 2.07513e-16)
(1.76663 1.78988 1.20046e-15)
(0.103827 -0.10152 -6.76816e-16)
(0.584899 2.40773 5.62096e-17)
(0.82397 3.00755 -2.75132e-16)
(4.07359 1.81238 1.04432e-16)
(1.36455 3.23866 -5.88772e-16)
(0.953649 0.275486 5.20176e-16)
(0.0986465 1.58736 -2.87193e-16)
(0.183833 0.0266447 -3.26225e-16)
(0.332729 -0.022757 -1.97386e-19)
(1.97812 1.22116 1.34558e-16)
(0.198276 -0.00555171 7.18656e-17)
(0.407537 1.67005 -5.13984e-17)
(0.392263 1.98127 -1.31596e-16)
(0.186309 0.0454861 -1.12057e-16)
(3.6429 0.225017 -2.67774e-17)
(0.543245 2.01031 -1.53706e-16)
(3.72874 0.0979059 3.86051e-17)
(1.25337 3.21752 2.5777e-16)
(1.72296 2.78182 -8.83151e-19)
(3.82738 2.33703 -8.35264e-17)
(0.245812 2.64738 -1.46941e-16)
(0.580792 3.18116 1.76076e-17)
(-0.236371 2.52103 0)
(0.435712 2.8567 3.57604e-16)
(0.414041 1.76319 -3.68913e-16)
(2.54495 0.735421 4.98524e-18)
(3.60224 1.61268 0)
(0.502808 2.18993 5.13624e-17)
(0.237483 2.80682 0)
(0.422241 2.58319 1.9127e-16)
(0.449815 2.41809 2.16498e-16)
(0.132016 2.59279 0)
(0.212607 0.042149 -4.55788e-16)
(0.221712 1.19389 4.3602e-19)
(2.28671 1.17757 1.10043e-16)
(2.56709 1.031 8.85762e-17)
(-0.646561 -1.00457 2.40154e-16)
(0.530405 2.3768 9.25514e-18)
(0.56348 2.32495 0)
(0.319859 2.43513 1.83404e-16)
(0.113379 1.87567 -4.13254e-17)
(0.528227 2.33566 -7.85929e-18)
(0.160345 -0.0647582 1.01438e-15)
(0.167313 2.76212 8.1428e-17)
(0.482921 0.269325 -4.76766e-17)
(0.171794 2.14433 1.06338e-16)
(0.360132 0.40121 8.76237e-16)
(0.933799 2.74015 -1.81609e-16)
(0.169294 2.35123 1.59101e-16)
(0.298526 2.37877 -5.09849e-16)
(0.208961 2.40064 -3.27211e-16)
(0.229452 2.4661 4.78518e-16)
(0.32423 2.58715 0)
(0.322892 2.47957 2.57228e-16)
(0.172563 -0.00185222 -3.53735e-17)
(0.151812 -0.0233051 -3.88555e-16)
(0.134897 0.0121015 2.74771e-16)
(0.124306 0.0582917 -6.88605e-17)
(0.0112074 1.33222 2.69993e-17)
(-0.0267229 2.83818 7.2133e-17)
(0.0266712 2.56914 -9.58628e-17)
(0.0841123 2.9504 -8.34868e-17)
(-0.312189 2.55006 2.85296e-19)
(-0.154898 0.800998 2.06886e-16)
(0.0955487 0.0995358 -8.55533e-17)
(0.212805 2.39963 -4.89063e-17)
(-0.163602 2.71198 9.40784e-17)
(0.0773296 -0.374384 0)
(0.0426815 0.17069 -2.91171e-16)
(-0.00210765 0.0350552 3.43775e-16)
(0.545194 1.50151 0)
(0.19173 -0.495611 3.83051e-16)
(0.19277 1.71215 -4.76456e-17)
(0.668021 -0.306543 1.35181e-18)
(0.85927 1.51771 -8.24861e-16)
(0.753906 0.195921 -1.4918e-16)
(0.840037 0.0290892 0)
(1.0824 -0.680963 2.14807e-16)
(0.378502 0.00182762 -2.01396e-16)
(0.687739 1.27679 -3.09736e-16)
(0.957536 1.01238 3.96205e-16)
(0.828474 -0.489738 1.15144e-15)
(0.458885 0.289569 -2.04674e-16)
(0.106095 -0.199369 0)
(0.0305713 -0.312466 0)
(0.669226 0.269333 1.83703e-16)
(0.367419 0.0252807 0)
(0.448754 -0.113126 0)
(0.900276 -0.88391 -2.96042e-16)
(0.546227 -0.597307 7.17338e-16)
(0.488233 -0.245975 0)
(1.01918 1.34847 1.81868e-16)
(0.386446 -0.274584 2.05703e-16)
(0.495839 -0.230428 -5.98498e-20)
(0.392727 -1.36961 6.90007e-16)
(0.0590512 1.57852 2.80246e-17)
(0.398469 -0.576362 -1.10444e-15)
(0.518733 -0.471927 5.38335e-16)
(0.353784 0.0422637 0)
(0.0332082 2.32192 8.26628e-19)
(-0.388299 -0.690324 8.26352e-16)
(-0.808753 2.15082 5.06002e-17)
(0.691981 0.0587221 -7.16999e-16)
(0.180363 -0.399701 -6.00655e-16)
(0.176543 0.115836 1.13331e-16)
(0.158146 0.173473 -1.02841e-16)
(0.129257 -0.0503569 5.50748e-16)
(0.345504 0.0743874 -5.81354e-16)
(0.162711 0.258511 6.51192e-17)
(-0.0444972 -0.419815 -1.33522e-16)
(0.3573 0.0986087 4.33304e-16)
(0.288229 0.124478 0)
(0.691912 0.0430535 -4.04926e-16)
(0.410279 0.0440721 2.5101e-16)
(4.0282 -0.110683 1.24232e-16)
(0.691911 0.03236 0)
(0.407067 0.167886 -1.60915e-16)
(0.380784 0.183032 2.765e-16)
(0.698995 0.047354 -3.62149e-19)
(0.435557 0.321168 -2.1616e-16)
(0.68668 1.32904 -5.62255e-17)
(3.95781 0.0656079 5.73204e-17)
(0.242958 2.70738 -2.70448e-18)
(-0.158819 -0.426277 8.05281e-18)
(0.584341 0.143217 0)
(0.763606 0.785382 0)
(0.0845255 -0.279419 0)
(0.692411 0.0437 3.56619e-16)
(0.132973 0.000217412 -7.60496e-16)
(0.345638 1.53143 -3.14555e-17)
(0.721788 0.252469 -3.16335e-16)
(0.615984 1.35984 8.14885e-16)
(0.348997 0.290245 3.28655e-16)
(0.341151 0.246642 -2.39005e-16)
(0.428151 2.64685 -1.71807e-16)
(0.727206 1.89627 -4.27775e-17)
(1.3239 2.07614 -6.88123e-17)
(0.452952 2.49309 9.32335e-17)
(1.09851 2.3696 1.56452e-16)
(0.689803 0.479063 -2.6907e-19)
(0.200119 0.255116 -9.4669e-16)
(0.027999 -0.225839 -3.34998e-19)
(0.665743 0.0642022 2.04799e-16)
(0.191256 0.247357 2.08536e-19)
(0.305181 0.173637 -3.65128e-16)
(0.284682 2.4897 0)
(0.236946 2.18685 0)
(0.38393 2.1898 -1.43385e-17)
(0.504744 2.33791 -2.11119e-16)
(0.74889 2.09821 3.52086e-16)
(0.452824 2.62821 -2.79473e-16)
(0.224259 2.25874 1.47949e-16)
(0.292321 2.20952 -5.42074e-17)
(1.34427 1.67636 -3.51878e-16)
(0.0433133 0.293031 -2.63448e-16)
(0.140678 0.23063 3.31119e-16)
(0.295924 2.32157 -1.74923e-16)
(0.414367 2.33496 1.92496e-16)
(0.265301 2.1563 2.33678e-16)
(-0.0258917 2.12754 9.61269e-17)
(0.178009 -0.0412332 -3.39915e-16)
(0.363634 2.78726 1.66043e-16)
(0.345097 2.52703 0)
(0.0916461 2.82744 4.25837e-17)
(0.159585 2.73757 0)
(0.298216 2.69171 9.94179e-18)
(0.900392 1.15045 0)
(0.0976448 2.45152 1.07534e-16)
(0.223428 2.5586 0)
(0.15243 2.51085 0)
(0.761993 1.02213 5.52284e-19)
(0.154754 0.485559 4.0619e-16)
(-0.262353 0.308474 -3.88427e-16)
(0.178331 2.56106 0)
(0.406479 2.36223 0)
(0.679457 0.0741143 3.03178e-16)
(0.149572 0.538779 1.83764e-16)
(0.119405 2.7353 0)
(0.695436 0.109546 4.0744e-16)
(0.303136 2.29237 -2.48534e-17)
(0.193765 2.63688 8.03632e-17)
(-0.0369724 2.03269 -1.52495e-16)
(0.172502 2.68835 -1.61574e-16)
(0.106878 2.52632 -1.5336e-16)
(0.794261 2.79292 -2.77552e-17)
(3.8327 0.0726507 -5.52619e-16)
(3.72782 0.137878 1.39488e-17)
(0.227359 -0.0394837 1.18194e-15)
(0.232228 2.64996 -8.28395e-18)
(0.924525 2.107 2.86163e-16)
(0.120376 2.31535 1.22146e-17)
(0.889631 1.6922 0)
(0.299485 2.39198 0)
(0.620191 2.55197 4.94243e-17)
(0.975761 2.35269 0)
(0.553932 0.315922 -6.00741e-16)
(0.562193 2.78743 -6.54309e-17)
(0.217579 2.35864 -1.90742e-16)
(1.31242 1.92679 1.8566e-16)
(-0.380071 2.1119 -5.88179e-17)
(0.218113 2.62579 -3.71698e-16)
(0.166481 2.88292 0)
(0.186387 2.80241 0)
(0.935122 2.63175 -5.20191e-17)
(0.916025 2.47121 0)
(0.356208 2.18218 0)
(0.537295 2.78963 0)
(0.546959 2.69556 -2.76763e-16)
(1.16997 1.83574 1.58764e-16)
(-0.0688629 0.506446 -3.96127e-16)
(-0.137878 0.54866 -3.66108e-16)
(0.0662388 2.68379 2.52923e-16)
(0.434088 2.94817 8.2927e-17)
(0.694153 2.37054 -7.56096e-17)
(0.256725 2.99859 2.54542e-18)
(1.13837 2.31382 -9.19866e-17)
(0.0164449 2.42765 -9.80101e-17)
(0.663639 0.10778 1.65485e-16)
(0.565622 0.74616 3.70395e-16)
(-0.119563 0.783129 1.35349e-16)
(-0.0666271 0.865518 -6.62962e-17)
(0.246754 2.77051 -1.52751e-17)
(-0.128217 1.97436 6.37516e-17)
(0.166045 2.64907 2.77362e-16)
(0.131233 2.6784 -3.36979e-20)
(0.0286892 2.46731 4.48633e-17)
(1.87495 1.01157 1.64228e-16)
(1.33926 2.11761 -3.7591e-16)
(0.219318 2.46091 2.35994e-17)
(-0.0537687 2.57314 2.84967e-16)
(0.673354 0.0492994 3.57127e-16)
(0.625629 1.76646 5.0231e-17)
(3.70337 0.142601 -4.91725e-16)
(-0.0482763 2.8027 8.70112e-17)
(0.267708 2.87325 1.02529e-17)
(0.130117 2.43327 -2.40444e-17)
(0.370074 1.95735 9.1913e-17)
(0.156961 2.74554 1.8171e-16)
(-0.0590777 2.76946 4.04653e-17)
(0.16483 2.52473 0)
(1.20774 0.379435 0)
(1.22085 0.916303 7.35589e-16)
(0.510913 2.44065 -7.96628e-18)
(0.363784 2.52378 1.17428e-16)
(3.19847 2.63949 -6.98529e-17)
(0.16278 2.75048 4.41841e-17)
(0.138295 2.78359 -2.1164e-17)
(1.25829 0.379814 5.82369e-16)
(0.391784 2.28491 -8.13022e-17)
(0.176102 2.76623 -8.39252e-17)
(0.168491 2.7687 1.65902e-16)
(0.215972 2.59284 -2.54548e-16)
(0.0903129 2.38846 3.03064e-16)
(0.379397 2.39898 8.90403e-17)
(0.248544 2.27026 -8.16894e-20)
(3.49461 1.00475 1.92985e-17)
(0.0651289 2.739 -2.61369e-16)
(-0.0944984 2.61498 -1.46898e-16)
(0.317921 2.76683 -1.6648e-16)
(0.838154 2.2539 0)
(-0.728953 0.627817 0)
(0.190613 2.76962 -1.69967e-16)
(0.0469862 2.51561 1.32017e-19)
(0.317205 2.80517 5.68602e-17)
(0.114454 1.67731 1.43298e-16)
(-0.233171 2.50401 1.17967e-17)
(0.488096 2.26221 3.06416e-18)
(-0.0883636 2.45235 3.61498e-17)
(0.495347 1.35371 0)
(2.02442 2.12772 -1.975e-18)
(2.38607 2.58174 -1.61705e-16)
(0.56162 2.33487 6.98641e-18)
(0.502544 1.55835 -1.31791e-16)
(-0.485251 1.73357 -3.00269e-16)
(0.689416 0.0585501 -2.90522e-16)
(0.0710242 -0.0988876 -1.8666e-16)
(0.24337 0.175907 -1.54793e-16)
(0.156226 2.44646 0)
(0.461353 2.6709 8.41367e-18)
(0.451667 1.64043 0)
(0.998577 2.05975 0)
(1.26783 2.63443 9.30143e-17)
(0.435897 2.48667 0)
(1.21255 1.41161 1.92016e-16)
(1.4591 0.917758 -1.95387e-16)
(0.780492 1.9043 9.91185e-17)
(3.24119 0.609257 0)
(0.361008 2.40214 -1.50694e-17)
(0.611415 2.25413 2.57577e-17)
(0.121017 0.0170455 5.44941e-16)
(0.709287 0.112656 -1.90431e-16)
(1.53403 2.45142 5.20776e-16)
(3.86681 -0.0417675 -8.24847e-18)
(0.216161 2.72887 1.72009e-16)
(-0.706056 1.92345 1.92935e-16)
(-0.714118 1.62968 1.79751e-16)
(-0.34593 2.25675 -2.80341e-16)
(0.182911 2.73288 0)
(0.351234 2.1236 -7.95266e-17)
(2.15847 1.40183 2.12687e-16)
(3.0708 0.762862 -1.7736e-16)
(2.03366 2.65471 1.34216e-16)
(0.160678 2.70489 -9.35319e-17)
(3.04168 1.53316 1.15053e-16)
(0.27052 2.65706 2.15517e-19)
(0.00281376 2.613 -4.95178e-17)
(0.992414 0.740728 5.96626e-16)
(-0.158836 2.77534 7.54349e-17)
(0.0940247 2.53997 1.01615e-16)
(-0.203709 1.52277 6.05767e-17)
(0.229402 2.65934 1.19183e-17)
(0.521893 0.226841 2.91523e-16)
(0.0804397 2.46631 -1.72924e-16)
(1.75161 2.29267 -2.1732e-16)
(-0.609667 1.5525 1.72778e-16)
(0.207723 2.57611 0)
(0.102822 2.64482 6.01985e-18)
(0.68787 2.10722 -5.07062e-17)
(0.156463 2.63888 -9.05449e-17)
(3.69838 0.136378 6.8282e-16)
(0.337771 0.429194 7.26383e-20)
(0.115875 0.010783 3.87108e-16)
(0.164813 2.27285 2.92508e-16)
(0.112962 2.41393 3.22068e-16)
(-0.0463831 1.17037 2.00211e-16)
(-0.0754898 1.60607 2.31916e-16)
(0.761726 0.0445846 4.3022e-16)
(4.31464 0.85134 1.09614e-16)
(0.149267 2.2115 -1.48725e-16)
(3.83481 0.0590863 6.07068e-18)
(-0.168474 0.119937 6.46187e-16)
(2.27204 1.89699 0)
(0.230029 2.13009 0)
(1.62249 0.267425 1.74429e-16)
(0.684262 1.54996 -1.08397e-18)
(0.944702 0.549637 0)
(0.545725 0.474831 0)
(0.27429 0.880635 0)
(0.201528 0.0123282 -6.99472e-17)
(0.902463 0.231479 6.6298e-17)
(0.335397 1.38403 0)
(0.291334 -0.226957 1.18107e-15)
(0.0442146 -0.0524011 -1.35629e-15)
(0.0951596 -0.0694064 2.18989e-16)
(0.342602 0.0291657 -4.01458e-16)
(0.252867 0.101437 3.11055e-17)
(0.565679 -0.0645568 1.87836e-16)
(2.56249 1.33975 5.1476e-16)
(0.195838 2.94512 8.47455e-18)
(0.152393 -0.0122231 -3.35032e-17)
(0.612082 0.0382646 1.0175e-15)
(0.191368 0.7941 0)
(1.54841 0.0451468 -3.30421e-16)
(0.948913 2.88925 3.02965e-16)
(2.06803 0.0393712 0)
(1.04141 -0.0167611 2.12458e-16)
(0.445043 2.13686 1.36773e-17)
(1.15674 -0.00402925 0)
(0.14278 2.38516 1.59827e-16)
(2.85777 1.09861 -6.71773e-17)
(2.43197 1.62854 -3.63254e-16)
(0.821155 1.81978 -2.69163e-16)
(1.74725 0.0520156 3.05095e-16)
(0.986535 -0.0140926 -7.49627e-16)
(0.503805 1.75265 -1.54015e-16)
(0.30904 0.957614 -1.70723e-16)
(2.20877 0.0292181 -4.79201e-18)
(0.254387 2.56221 1.34327e-16)
(0.0288301 2.41733 2.88964e-16)
(1.92747 0.0484246 0)
(1.09391 -0.0142276 1.93521e-16)
(0.714063 0.0308251 0)
(0.156345 2.40673 0)
(0.118066 2.41969 1.90529e-16)
(0.904449 0.385101 -2.2484e-16)
(0.0602173 0.984745 1.31354e-16)
(0.931207 -0.0111377 3.68237e-16)
(0.138895 2.38936 -1.58619e-16)
(0.313966 2.79057 0)
(0.260634 1.42136 5.01154e-19)
(0.686863 0.289147 4.6376e-16)
(0.311251 2.68497 5.03566e-17)
(0.156637 2.58424 1.09299e-16)
(0.364821 2.92542 2.44178e-16)
(2.82171 2.39689 -6.54699e-17)
(0.134286 2.50039 -2.61533e-19)
(-0.273383 2.0842 -2.47854e-16)
(2.12764 0.397171 -1.32582e-16)
(4.03172 -0.239715 8.79265e-17)
(0.920136 -0.0669378 -3.85972e-16)
(0.0394281 0.886841 0)
(-0.325448 1.58598 0)
(-0.30778 1.66393 0)
(0.0642965 2.70234 5.24084e-16)
(0.0112645 2.84166 -4.54341e-17)
(0.625055 2.31785 0)
(-0.0675659 2.00176 0)
(0.255534 0.053124 6.65891e-17)
(-0.0391744 1.22115 1.35875e-16)
(0.131976 1.64958 2.91021e-16)
(0.0825479 0.621697 6.25558e-16)
(0.0690506 -0.114071 0)
(0.412825 0.696084 -7.20038e-17)
(0.684682 0.871069 1.08267e-15)
(0.0696673 1.93225 -2.31544e-20)
(0.0682523 2.64753 0)
(0.521622 -0.207556 -3.40923e-16)
(0.00634577 2.26754 8.76343e-17)
(0.208155 2.71421 1.51125e-16)
(0.36359 0.0309101 1.77432e-16)
(0.138808 2.57851 0)
(-0.394848 -0.260353 2.29295e-16)
(0.670506 -0.485761 7.89438e-16)
(0.565281 -0.615545 4.32544e-16)
(2.61315 -0.00509016 0)
(0.0342395 0.27674 3.28533e-17)
(0.165342 2.77785 -1.59256e-16)
(3.21878 0.488819 -1.47051e-17)
(0.123174 2.88048 -2.59453e-17)
(1.20861 0.72372 -6.21971e-16)
(0.564855 0.0610737 -1.14541e-19)
(-0.234241 0.208504 2.09858e-16)
(0.709016 1.71001 4.4974e-16)
(0.682282 0.748437 -1.60271e-16)
(0.550907 2.54648 2.45868e-16)
(-0.355817 2.53211 0)
(3.55973 0.411774 -1.8826e-16)
(-0.174047 1.43029 -1.30009e-16)
(0.1026 2.56118 9.94943e-17)
(1.04296 2.06784 2.00781e-16)
(0.497982 0.312076 3.03094e-19)
(0.847715 0.832549 -6.83146e-17)
(0.252181 2.14283 -9.50484e-17)
(1.91293 1.02678 0)
(0.0671416 2.07476 -4.45736e-17)
(0.390944 0.641218 0)
(0.36605 0.475504 0)
(-0.28036 2.17522 3.58086e-16)
(0.700646 0.134667 -1.11443e-16)
(0.552793 3.04983 -9.1058e-19)
(0.481625 0.0188783 3.43976e-16)
(0.377095 0.0350534 2.6484e-16)
(0.138727 -0.951397 1.96994e-18)
(-0.204296 1.8749 -6.0992e-16)
(0.702652 1.06167 4.64436e-17)
(1.37999 0.0301501 3.56304e-16)
(0.435478 2.3441 5.42881e-19)
(0.923318 1.78291 3.05875e-16)
(0.0072615 2.5737 0)
(-0.257241 2.11947 4.8802e-17)
(-0.126992 2.32166 5.64074e-17)
(1.67454 1.97622 -2.08842e-17)
(-0.0740288 2.34807 -1.11555e-16)
(0.111257 -0.0644109 -3.4938e-16)
(0.352902 0.0214923 4.98648e-16)
(0.203675 2.67848 0)
(0.13137 2.45324 1.00731e-16)
(0.515631 2.2448 -2.89778e-16)
(0.244191 2.27757 1.63071e-16)
(0.169342 2.13198 -6.0524e-16)
(0.0609822 1.80796 0)
(0.657207 2.31708 -5.03663e-16)
(0.690968 0.0765355 -1.63713e-17)
(3.33369 0.699691 -1.07863e-16)
(0.190679 2.62976 1.9907e-16)
(1.89237 -0.531541 1.55037e-17)
(0.152467 -0.198 -3.85394e-16)
(-0.294072 1.28162 -7.18592e-17)
(-0.437843 0.957987 -3.78722e-16)
(0.410932 0.772223 -2.68041e-16)
(0.155219 2.78878 1.76196e-16)
(0.136214 -0.0275156 -4.49753e-16)
(2.74337 3.0313 2.84908e-16)
(0.0836859 0.00902553 -5.67526e-16)
(0.0317572 0.180119 2.14105e-16)
(3.6705 0.219069 1.27781e-16)
(0.0775483 -0.611355 -2.08374e-18)
(-0.283464 2.11298 1.72e-16)
(0.0468395 1.8334 9.75447e-17)
(-0.133177 2.19509 -1.22519e-16)
(0.0382682 1.37301 7.4441e-18)
(-0.150995 2.81033 1.73064e-16)
(0.462575 0.420648 9.89534e-20)
(0.12492 -0.040235 3.53308e-16)
(1.41945 1.90927 -9.74273e-17)
(0.0118593 2.07957 0)
(0.647492 0.0726874 -2.13113e-16)
(0.102836 2.63354 -1.16476e-16)
(0.216625 0.17189 -1.37511e-16)
(0.184686 2.54207 -9.37119e-20)
(0.254709 0.510569 -4.00013e-16)
(1.98222 0.568569 -1.28808e-16)
(0.51134 -0.113168 2.56936e-16)
(0.413142 -0.136849 2.66077e-16)
(-0.0620599 1.44934 0)
(3.46989 0.701899 0)
(3.48049 0.484601 7.44851e-17)
(0.088057 1.39825 0)
(2.77051 0.413345 0)
(1.71841 2.71743 -2.3674e-16)
(0.32399 3.07669 0)
(0.811176 -0.193101 1.94951e-16)
(0.659094 -0.0716213 2.95641e-16)
(0.54014 0.0206032 1.41886e-19)
(0.386446 -0.115747 -1.47813e-16)
(1.25004 0.0122304 -3.75576e-16)
(0.441857 2.67248 -9.88142e-19)
(0.104504 2.78877 0)
(0.0939372 2.97929 -8.37871e-17)
(0.19194 2.40844 1.79568e-16)
(0.221209 2.53895 4.76917e-17)
(0.51549 -0.0125677 -1.85106e-19)
(0.392133 0.57622 0)
(0.886399 2.28222 -3.99369e-19)
(2.72873 -0.020236 -1.43402e-16)
(0.194362 2.79925 3.18686e-16)
(0.625306 0.0791999 0)
(-0.214244 -0.69034 -9.86866e-16)
(0.756688 0.531375 3.25021e-16)
(3.7277 0.190639 5.32705e-17)
(0.362632 2.0863 -1.14638e-16)
(0.00135068 2.57552 0)
(-0.204795 2.29775 1.80085e-16)
(0.761296 0.234128 8.14293e-16)
(3.07907 0.223092 -1.01235e-18)
(0.803335 0.106078 7.95023e-16)
(0.374594 0.0348884 1.1352e-16)
(0.391803 2.67734 -2.3364e-16)
(0.294378 2.24257 -5.23099e-16)
(0.198975 2.75956 -6.06776e-16)
(3.76233 0.0919741 4.39806e-19)
(0.278343 1.92547 -6.66482e-16)
(0.327205 0.157523 -1.70491e-17)
(1.43025 1.04946 2.09915e-16)
(0.560442 2.26978 1.14437e-16)
(-1.18155 2.10026 -3.39054e-16)
(0.66531 0.125611 3.74567e-16)
(0.0904677 2.6527 8.80892e-17)
(-0.0721634 2.47367 -1.16008e-16)
(0.50956 0.0435975 6.15745e-16)
(-0.464051 0.320652 -1.90407e-16)
(0.897329 0.119212 -7.33036e-17)
(0.247903 2.15731 -2.06919e-16)
(0.608794 2.06127 1.07094e-18)
(0.216166 2.57796 0)
(0.0096266 2.7024 0)
(0.034363 2.58801 0)
(-0.0257968 2.71699 -6.50712e-17)
(0.0688265 2.16309 4.5538e-17)
(0.0523317 2.42945 0)
(0.0740142 2.03808 0)
(0.0596383 2.29029 0)
(-0.00599237 2.32834 -1.64229e-16)
(-0.0638323 1.49905 0)
(-0.0392215 1.55671 0)
(0.0253478 2.22876 1.65628e-16)
(-0.0478756 2.30817 0)
(-0.082982 2.22461 -7.91571e-17)
(0.0436649 2.09935 3.97676e-17)
(-0.0745384 1.41309 0)
(-0.00635897 1.53824 -1.82087e-16)
(0.0795188 1.79433 -7.3543e-17)
(0.0606285 1.95197 4.46694e-17)
(0.0249178 1.45127 1.94822e-16)
(0.0495862 1.30248 5.4123e-17)
(0.0950875 1.0487 2.35165e-17)
(0.0699771 1.16382 -2.88974e-17)
(-0.0951108 2.11181 8.3679e-17)
(-0.0871387 2.02413 0)
(-0.0715326 1.9438 0)
(-0.0721764 2.65256 6.52254e-17)
(3.90065 -0.0489228 5.27909e-17)
(3.89109 0.106597 -3.82777e-18)
(0.346136 0.0585101 -3.42718e-16)
(-0.431519 0.813579 -1.4541e-16)
(0.737986 2.54816 -1.88189e-16)
(0.223637 -0.198423 -2.88638e-16)
(0.445252 1.24676 3.43728e-16)
(0.131973 -0.050548 3.70073e-16)
(0.346773 0.0362593 0)
(0.26103 2.46536 -3.33157e-16)
(0.166483 1.58698 -1.42337e-16)
(0.0375273 2.62364 -9.74074e-17)
(0.328804 0.000584011 -6.59744e-16)
(2.48502 0.00752755 0)
(3.22365 1.11476 -1.91619e-17)
(0.327912 0.1989 -2.31276e-16)
(0.567945 1.69599 1.84446e-16)
(-0.741674 0.720202 1.7442e-16)
(0.705093 0.0611346 1.16416e-15)
(0.580037 2.3357 2.12827e-16)
(0.685039 0.0310899 0)
(0.729896 2.07499 6.47585e-16)
(0.191356 2.57283 0)
(0.582505 0.0148847 0)
(-0.055204 1.85981 0)
(0.305871 0.0352788 1.2507e-16)
(0.425856 0.0104129 2.40681e-16)
(4.89794 0.754663 -4.0517e-16)
(0.819011 -0.0170744 -2.20573e-16)
(3.77447 0.251612 -1.26227e-16)
(-0.31641 1.01625 0)
(0.374616 0.0327096 0)
(-0.46023 0.0154716 -2.21881e-16)
(0.112398 2.85072 3.80242e-16)
(0.295775 0.229106 0)
(0.551717 -0.351315 -4.3336e-16)
(0.450336 -0.439999 0)
(0.140591 -0.0170516 0)
(1.15643 0.206537 3.91889e-17)
(0.954609 0.157274 4.73989e-19)
(-0.0230863 2.73048 -8.63758e-17)
(0.253717 -0.220686 -5.9036e-16)
(0.387418 -0.186292 3.84003e-16)
(0.643634 0.320515 -2.33341e-16)
(0.0503874 1.32577 0)
(3.769 0.0480881 4.81892e-17)
(3.21749 0.920271 0)
(0.563589 0.568286 -5.5561e-16)
(0.414195 0.0404462 -4.3279e-16)
(2.41976 0.512474 -4.16112e-16)
(1.42491 -1.0832 -2.75088e-16)
(-0.0460013 0.499362 -3.22772e-16)
(-0.0113178 1.83909 -7.81925e-16)
(0.276049 0.170597 -1.81666e-17)
(0.369286 0.0458789 9.71593e-17)
(1.34287 -0.615862 -2.30894e-17)
(0.0771231 1.18268 2.5949e-17)