/*--------------------------------*- C++ -*----------------------------------*\
| =========                 |                                                 |
| \\      /  F ield         | OpenFOAM: The Open Source CFD Toolbox           |
|  \\    /   O peration     | Version:  v1912                                 |
|   \\  /    A nd           | Website:  www.openfoam.com                      |
|    \\/     M anipulation  |                                                 |
\*---------------------------------------------------------------------------*/
FoamFile
{
    version     2.0;
    format      ascii;
    class       volScalarField;
    location    "0.61";
    object      k;
}
// * * * * * * * * * * * * * * * * * * * * * * * * * * * * * * * * * * * * * //

dimensions      [0 2 -2 0 0 0 0];


internalField   nonuniform List<scalar> 
5794
(
0.0632355
0.0765122
0.400197
2.06537
1.93977
0.0923773
0.257181
0.229833
1.47933
0.264349
0.913256
0.424385
0.36826
1.98756
0.101037
0.0340296
6.40162
2.16611
0.0679078
0.0563332
0.955968
0.0633387
0.410788
0.120797
0.48155
2.51772
6.67405
2.34286
1.96323
0.222616
0.314187
0.523839
0.705551
0.169716
0.520365
0.52679
0.196923
0.908163
0.756718
1.77926
1.06311
0.735324
0.280635
0.236335
0.0760752
1.08057
0.811311
0.290765
0.258911
0.171292
0.0687405
1.39844
0.122229
0.200387
0.0154918
1.0188
0.768949
0.555206
0.224747
4.11616
0.95881
0.0621596
0.38153
0.891477
1.19648
0.0579709
1.15171
0.419933
1.93437
0.0696889
2.35007
1.35929
8.15628
0.100458
1.99538
1.07866
0.251591
1.96796
0.23094
0.0403711
0.0613845
0.0813036
1.51362
0.582322
0.695094
0.713441
0.536628
1.03081
0.17079
0.532178
2.39606
0.67921
1.46206
2.50837
0.886444
2.42004
1.83822
1.26667
0.626427
1.05318
0.895481
0.269802
0.2553
2.1372
0.0738466
3.70812
0.0571527
0.630665
1.56216
0.224811
0.0722067
0.0526305
0.888195
0.100336
0.738047
1.88699
0.238854
2.24703
0.874673
0.499924
2.6344
0.0537424
0.267458
1.90799
0.0584803
1.49753
1.61414
0.0883415
1.63187
0.666111
0.536198
0.381467
1.13768
1.76822
3.28628
0.132955
2.07687
0.06305
0.0729072
0.0963888
0.146761
1.37009
0.0592764
1.52015
0.0886321
7.2963
1.00068
0.99371
1.87572
0.688925
0.313444
0.139436
3.59184
0.337495
7.58286
0.993719
0.586097
0.512926
1.38836
0.776141
0.0614716
0.320309
0.0882589
0.341396
1.12411
1.21319
0.352753
0.252375
0.068159
0.0406741
0.116024
0.800188
0.305815
0.313866
0.111871
0.336767
0.0671514
0.412702
0.0720714
1.26753
0.291275
0.616743
0.194174
0.845637
0.205114
4.19223
0.319248
0.42071
0.201865
0.201217
0.936631
0.511133
0.675066
0.277835
0.324008
0.467554
0.294934
0.0577459
0.0573531
0.279812
0.275528
1.2126
0.294029
0.255735
0.829086
1.10375
0.30462
1.07235
4.70701
0.935559
0.13635
0.313578
0.504375
0.519715
0.168746
0.563214
0.57993
1.36644
1.05034
2.16339
0.306713
0.686956
3.68308
1.35394
2.07315
3.45258
0.156191
0.449089
0.660529
0.197046
0.300446
0.314723
0.27744
1.13635
1.17079
4.67515
5.60353
0.976926
0.331809
0.102847
0.0802018
2.10317
0.888769
0.937753
0.491617
0.0781969
0.0675689
2.01588
1.31916
0.827699
0.532422
0.0653561
7.03021
0.0457915
0.212222
4.70952
0.272737
0.459075
0.772849
0.0588158
1.63068
0.469174
0.485372
0.0522057
0.71138
0.229552
1.06328
1.7438
0.057985
1.35059
0.998778
0.426018
0.628582
2.05826
0.39898
0.153486
0.211739
0.13104
0.189021
0.357062
0.0619086
1.65813
0.882472
0.703973
1.2829
2.27322
0.989842
1.12222
2.836
2.60833
0.441662
0.422296
0.235172
0.226545
0.203509
2.35247
0.715918
0.683531
1.11694
0.0557713
0.0690816
0.772665
0.0496158
1.08058
0.167369
1.63028
0.204761
1.6098
1.34052
0.985006
0.468953
1.13298
1.02186
0.0895097
0.292262
0.596945
0.807322
2.73973
1.5168
2.29935
0.220116
0.71236
2.06237
2.21491
0.0345833
0.503564
0.146043
0.441979
0.345227
0.840504
1.18159
0.283428
0.28868
0.568624
0.423199
0.220976
0.214884
0.0706088
0.199149
0.314803
0.0888303
0.439781
1.37442
0.35183
0.0968535
0.16009
1.12032
0.762237
1.39474
1.09355
0.904864
2.77645
0.716227
0.541834
0.250629
3.06333
0.052197
1.27949
0.248271
0.239731
0.951173
0.868302
1.88205
0.426293
0.319312
1.1009
1.1022
0.962924
0.730585
0.271924
0.232158
0.050293
0.980278
0.0973236
1.19103
1.27506
0.850038
0.676066
0.741387
0.105285
0.777521
0.265877
0.322851
0.461959
0.453992
0.153397
2.33329
0.393892
0.393364
0.417027
0.239523
0.947888
0.0677214
0.0801227
0.24353
0.254147
0.109102
0.266439
0.0950232
0.461408
0.116068
0.485472
5.08373
0.0649348
0.052931
1.22973
0.197635
0.0995792
0.075575
1.83552
1.23868
0.638625
1.2403
0.598254
1.19632
0.889739
0.381449
2.12478
1.06635
1.71253
0.609916
1.19692
0.880694
0.209874
0.353475
0.352786
0.112478
0.106171
0.0641943
0.0682235
1.36572
0.22401
1.24455
1.32995
0.0659793
0.220972
0.57252
0.339506
0.374531
0.366965
0.118507
0.269438
0.254595
0.380784
0.139645
2.11805
0.796842
0.0457297
0.26214
1.1424
0.210025
0.0607033
1.31213
0.0696913
1.77927
0.0528137
1.87845
2.48138
1.09722
3.51832
0.0708334
0.0569796
0.245328
0.0885043
1.16144
0.668849
4.2038
2.49257
0.989518
0.206238
0.0242293
5.39894
1.55924
0.697736
0.360629
1.78484
5.73571
2.87642
0.137407
0.0618451
0.391738
0.0689725
0.392276
0.693863
0.891802
1.10792
0.312351
0.131942
3.07425
0.0663319
0.0763739
1.95146
1.936
2.37312
0.177923
0.0930684
0.16312
0.234573
0.0284182
1.11714
3.697
6.04842
0.266918
0.374205
1.3175
0.0526021
0.0770392
0.67634
1.43341
0.0709532
2.38244
0.216213
0.962923
0.0598739
0.0690844
0.683722
1.66893
0.0561966
0.222925
5.26834
0.133403
0.0563776
2.32326
2.18971
0.735211
0.0872441
0.156464
1.04737
0.0534154
0.0606427
0.388748
0.0605609
4.02238
0.215758
0.894863
0.203064
0.240106
2.41326
0.647591
1.35685
0.0651457
1.54284
0.0584938
1.77491
0.122316
0.0383558
0.214917
1.54717
0.0919092
0.110057
2.01526
0.102333
0.0633494
0.172492
0.115843
0.0633732
0.349639
0.0568607
0.0563833
0.780492
11.6094
0.171649
1.55567
0.171902
1.77925
0.103888
0.0365649
0.49759
0.0431333
0.0660034
1.2894
0.900667
1.39603
1.05806
1.67204
0.2921
2.82313
1.23091
0.768606
0.869014
1.93911
0.81454
2.89792
3.87736
1.68047
0.98853
0.10068
1.54926
0.761296
2.11925
0.0717179
0.116126
0.0568283
2.20309
0.834423
1.20703
0.102011
0.293551
0.0615414
0.273543
0.0681132
1.44574
0.823285
2.422
0.0537237
0.497611
2.80684
0.229918
0.018121
1.08761
2.90264
4.3567
1.83371
0.152999
0.263316
0.18725
1.02576
0.571833
0.275792
0.982568
0.0441787
1.32811
1.71072
0.869044
0.05348
0.0963687
0.109669
1.22811
2.16001
0.0945828
0.0758227
0.089178
0.0335311
0.14848
0.0609546
0.486421
2.26972
0.486978
0.798398
2.17053
0.0977311
0.306259
1.07621
0.802925
2.06657
2.67932
0.935669
0.743084
0.326194
0.0449079
0.0480524
0.166149
0.283787
0.153149
0.171118
1.64997
6.13317
0.806834
2.07935
0.131108
0.216846
0.319585
0.067891
0.612021
0.066913
1.08146
2.93388
2.3691
0.99823
1.17986
0.997376
0.254261
5.17796
0.943949
0.421633
0.883957
2.64018
0.121553
1.87001
0.143192
0.0474665
1.14012
0.197148
0.0403924
0.778066
2.13698
1.94568
0.199203
0.177847
0.047803
1.12192
3.85354
2.11196
1.06509
0.24813
0.955734
1.07229
0.0560466
0.0375824
0.289822
0.156485
0.285286
0.0601735
0.484351
0.846781
2.42193
1.5441
0.608777
0.334125
2.82665
0.564375
3.88586
1.16386
1.32629
1.39831
0.373598
0.267602
7.65316
1.35226
1.24063
1.8382
2.62123
2.43886
0.148354
4.22299
0.228833
0.389839
0.50662
2.7773
0.644247
1.00624
1.39954
2.94196
0.911159
0.239951
0.401404
5.03041
0.73037
0.663933
1.39797
2.14928
0.0604661
0.047218
0.212143
0.138572
1.99965
1.06257
2.47987
0.126236
0.283076
0.0565463
0.158199
0.17225
0.0564159
0.781852
2.22206
0.207041
2.68122
0.927113
0.270418
0.107094
6.2329
1.91083
1.03604
2.99164
2.4234
1.03549
1.40848
0.2017
1.42313
0.726786
2.0127
0.893928
0.345901
0.745697
0.0590477
0.080142
0.136915
1.52558
0.110159
1.21991
6.78342
0.192269
0.0704678
0.0536847
1.98608
0.926777
1.2232
2.08974
0.845736
0.061371
2.20649
2.00151
1.46214
0.20563
0.998443
0.0664276
1.92797
0.0666894
2.21565
0.304083
0.877029
0.493373
0.132918
0.0533663
0.170792
1.1877
1.5717
1.73174
4.14662
1.12549
0.133483
0.185211
0.675947
3.75534
0.0892184
0.706026
0.662636
2.44629
0.0695292
0.0668594
0.309879
0.942912
4.72705
0.0943513
0.385907
0.178178
0.688185
0.332779
0.785506
1.68494
2.01966
0.282702
0.176706
2.48264
0.671541
0.18016
8.77309
0.0808715
0.0437688
0.104162
0.0696669
1.00592
0.100261
0.500305
0.0815219
0.197864
0.223437
0.316465
5.66132
0.860032
2.57358
0.732062
1.14917
1.71097
1.21257
5.02901
0.844101
0.0633068
0.0480139
0.20633
0.739407
0.2039
0.823637
3.96598
1.27492
2.67039
0.841159
0.157827
2.73995
0.0866779
0.348352
1.44655
0.122357
3.79711
0.192613
0.286154
1.71495
0.413724
0.230856
0.276897
1.78073
0.650647
0.272637
0.0519453
0.248904
0.762382
1.77095
0.21315
0.299195
1.09678
0.481422
0.981521
2.87133
1.58384
2.34261
1.6576
0.0649999
0.0792584
0.6767
0.0729585
0.256719
0.0661511
0.143199
0.836011
0.0507575
0.254159
0.0797394
2.06738
1.34085
0.95239
0.275656
0.501057
0.961619
5.38229
0.662231
1.54657
0.234249
0.0743426
5.11657
0.394457
1.52534
0.259439
1.23396
0.673135
0.882156
0.0424998
1.58013
1.08445
0.168825
0.173539
0.178815
0.0708667
0.0592031
0.734628
1.58454
3.799
1.63
0.607323
1.16716
0.864073
0.34189
0.0769969
0.0904872
1.29482
0.0659633
5.28906
1.16621
2.12948
0.246297
2.49571
1.04081
0.0670622
0.0730648
5.20857
3.38026
0.305094
0.218654
0.475852
1.55866
0.2687
1.6953
0.0561244
0.154272
0.182067
0.0512614
0.0530957
0.208078
0.0669914
0.0695944
0.069248
0.0621469
0.264227
2.69781
0.215744
0.239698
0.0777387
1.27484
0.299664
0.41247
0.461534
0.56123
0.0549526
0.628897
0.200406
0.317882
0.0718326
0.272967
1.50017
0.0666787
0.304257
0.281762
0.0640335
0.291792
1.19466
0.430706
3.96964
1.77231
0.062476
0.318486
0.534016
1.05357
0.58147
1.06858
0.991755
2.37175
0.10552
0.189751
0.078686
0.0332022
0.428783
0.429912
2.05804
1.63994
1.21461
0.0240861
0.464244
1.39116
0.734382
0.79508
1.05076
0.0561529
0.072185
0.0554062
0.555146
0.302516
1.43717
0.201101
0.163754
0.19687
0.204829
0.287775
0.0598565
0.0941826
0.0839277
1.38062
1.24783
0.735513
0.065751
0.274438
1.5562
0.0564996
0.642858
0.157078
0.442833
0.840346
0.0576007
1.36349
0.0496149
0.311183
1.04724
0.0774376
2.04253
0.302007
0.0642495
0.364138
2.00012
0.0520012
1.42368
0.117451
0.120028
0.0506899
0.12592
0.142331
0.0661298
0.309229
0.0666041
0.14835
0.169322
0.366496
0.364463
1.62269
0.574539
0.275204
2.34419
0.844009
0.168802
0.0659137
1.90508
0.56598
1.16299
2.9066
0.193155
0.467906
0.059746
3.13566
0.167636
1.62737
0.208328
3.20674
1.02885
0.0442618
0.667941
0.0989731
0.0300159
0.408172
0.0516318
0.624727
0.648893
0.0579685
0.681546
0.0211881
0.0510271
0.143775
0.0514457
0.0850249
1.16398
0.258904
1.09312
0.0801529
1.40072
0.250875
0.137753
0.0538885
0.198754
2.35383
0.41324
0.267777
0.576546
0.248389
0.397049
3.93723
1.84893
0.0504129
0.145313
1.60669
1.02833
1.56942
0.237885
1.85757
2.02489
1.57322
0.532315
2.34973
0.270837
0.268025
0.333422
0.326552
0.2132
0.063088
12.3732
0.698122
0.0608105
0.330854
1.69942
1.65384
0.271357
0.0495819
0.145363
0.518208
0.216722
0.0610886
1.82014
0.161208
0.984514
0.840206
1.64198
0.110609
0.0690036
0.435569
0.145767
0.142896
0.605052
0.0574906
0.752877
0.0724284
3.43875
0.42476
0.184537
0.191821
0.505032
0.292455
0.391538
0.334323
0.19494
0.221913
0.283874
0.670182
0.302177
0.213578
0.08307
0.0680261
0.675618
1.92699
0.739056
0.160698
0.206431
0.249048
0.459423
0.268942
0.246599
0.150097
0.493864
0.322644
0.604011
0.0478303
2.4126
0.0505164
8.0438
0.057651
0.133447
0.222002
0.109285
0.0716169
1.28397
0.386359
0.238538
0.057731
0.149826
0.645763
1.89578
0.926821
0.223414
0.0619357
0.497785
0.259869
1.68429
1.0769
0.469685
0.281582
0.0332301
2.4262
0.345366
1.1249
1.48095
0.176224
0.298953
0.657114
0.722656
0.0552822
1.42254
2.23231
0.635362
1.44651
1.27345
0.301928
0.0415767
2.35901
6.06756
1.93436
1.32017
0.0931573
0.0887092
1.15659
0.304525
0.0604008
0.0494529
0.33738
0.83551
0.0947166
0.0588996
0.131384
0.0546641
0.0581472
0.144871
0.443478
1.60034
0.0587003
0.86459
0.966086
3.11926
2.75714
0.351863
0.966418
0.197913
2.1303
0.119797
2.16561
2.51013
0.959023
1.43603
0.510863
1.49558
1.33153
5.087
0.4941
0.317965
0.293357
2.74249
0.0707929
0.332233
1.06308
0.900323
0.481579
2.09234
1.34826
0.680069
1.13819
0.0679961
0.0386866
0.257355
0.839954
0.063463
0.368182
1.35774
0.293921
1.58288
1.37909
1.65076
0.041096
3.18802
0.144277
1.08917
0.2861
0.339515
0.570252
0.0591195
0.838947
0.0559696
0.129281
0.0470564
2.01393
0.18706
0.610656
0.385902
3.54061
0.35323
1.74403
4.36571
0.410022
0.277838
0.0281094
1.26176
0.375167
2.29231
2.37348
0.13026
0.0426094
0.987014
1.28237
0.601452
1.59367
0.945533
1.34127
0.820977
1.11259
0.0741353
0.201642
0.994171
0.169609
2.19676
0.246269
0.0619952
0.0983956
0.577427
0.0707559
0.121551
0.12341
0.353228
0.229308
0.178687
0.292232
0.054429
0.263596
0.904951
1.10492
0.886878
0.0590783
2.27074
1.29522
2.17128
0.437914
0.173668
0.871558
0.282092
0.0503106
0.038045
0.11926
12.6778
0.323245
1.03428
0.686796
1.74802
2.4116
0.620547
0.110932
0.0453485
0.0318653
0.0919342
0.0208182
0.122525
0.0888192
0.0458804
0.124238
0.019565
0.0228699
0.0900957
0.0533054
0.0468799
0.045601
0.0160483
0.115693
0.100094
0.0286509
0.0762275
0.0753174
0.0404576
0.0477185
0.0358303
0.0413486
0.12539
0.0935369
0.0347738
0.0171078
0.0553718
0.0824114
0.0976048
0.0485182
0.0174404
0.016676
0.0652667
0.0298966
0.108585
0.0386888
0.0211621
0.0480561
0.0452227
0.101204
0.133252
0.582948
0.440711
5.16454
0.0833243
0.158348
1.08661
2.30045
1.31004
0.289476
0.0580862
0.395337
0.267507
0.389317
2.12693
10.1478
2.18068
2.4613
0.643343
0.154721
0.166257
0.0620276
0.187586
0.0524056
0.998302
0.0741291
0.432609
0.356833
0.116096
0.987829
0.473098
0.455314
1.65593
1.64673
11.3973
0.200408
0.5707
0.325405
0.351953
3.28634
0.23564
0.866145
1.90905
0.984098
0.275334
0.231165
0.47451
0.666204
0.327887
0.362147
14.0978
0.165308
0.0794038
0.0304744
2.1596
1.76119
0.0624273
1.78368
2.10719
0.0429566
0.0262467
0.0754814
0.113338
0.0784919
0.111696
0.0148308
0.0474334
0.0525029
0.0166052
0.110958
0.101304
0.0419919
0.152496
0.0445912
0.045381
0.0809937
0.0459638
0.0254883
0.0433018
0.0260137
0.11745
0.0238435
1.27837
1.33477
0.180049
0.494074
0.968384
0.362254
1.77602
0.0648087
1.51554
1.39087
0.793647
1.23915
1.77873
0.607022
0.0416603
1.75544
1.06477
0.59961
5.94387
2.2098
1.05628
0.0392996
2.99695
0.778526
0.143055
3.1248
0.373523
1.51227
0.247795
0.0843696
0.0433714
2.14672
0.128385
2.1707
2.25202
0.0860556
2.98986
0.0717042
2.79761
0.12497
0.0777611
0.123361
2.09176
0.196149
0.262309
0.186435
0.136077
2.88019
0.315572
1.60428
0.374475
1.05138
1.76315
4.81552
0.0345198
0.279607
0.323151
2.46232
1.21747
0.0942068
0.0502792
0.35317
0.202478
2.70506
0.307959
0.149929
0.0530808
0.125501
0.223829
0.0622035
1.96187
0.153466
0.0263813
0.0623512
2.86875
2.5668
0.323293
1.10032
1.93174
0.0305499
2.58626
2.51018
1.93686
2.46187
2.33284
0.132861
1.82465
0.0559818
0.304803
0.279038
2.05547
0.254501
0.426381
0.43189
1.85033
0.109424
0.0929144
0.096789
0.191157
0.380463
2.06846
2.33512
4.28766
1.32734
0.618046
2.49648
0.195641
0.879147
0.850209
0.881598
0.906386
1.91501
1.19264
2.21672
1.09476
3.05472
1.3816
0.161288
1.15388
0.999615
0.519738
0.461553
0.640614
4.00221
0.666472
0.535326
1.4434
1.14454
1.39698
0.256884
0.588617
6.87032
0.252332
1.47819
0.936361
0.0863571
0.0802025
0.199301
1.48885
0.0986983
0.0819616
0.416942
3.9191
4.06277
2.60274
2.8341
4.09881
2.8993
4.2154
0.128313
4.09827
3.94717
3.17791
3.36062
3.9414
3.10749
3.88017
3.83528
3.83667
0.429184
0.39013
0.646615
4.80021
0.263883
0.580663
0.514849
0.266958
0.043952
0.0999522
1.75707
3.11537
0.638653
0.343605
0.219607
1.70243
3.12282
1.29031
0.719237
0.417005
0.263505
0.348014
0.569286
1.69806
0.411169
1.40079
0.437088
0.304934
0.140162
0.495935
0.256647
1.12454
0.307372
0.458823
0.159611
0.0721353
1.09822
0.224137
0.176694
0.190623
0.241319
0.265057
1.48418
0.256081
1.26854
0.786345
0.330194
1.26299
3.59008
0.270604
1.62225
0.980784
0.79178
3.63108
0.113224
0.144895
3.46278
1.12504
1.82904
0.278511
0.383994
2.08776
3.62508
1.65234
0.164738
0.21215
0.121161
1.02753
0.371905
7.84645
0.247568
0.387067
0.524128
0.263643
0.868426
0.103254
0.323925
1.30575
1.38571
0.671792
7.4316
2.94134
0.109089
3.10401
0.274684
0.628288
0.732992
0.117529
2.05986
0.392872
7.1389
0.720858
0.656868
0.124002
2.20881
6.80075
0.0672277
1.36046
1.68535
0.535105
0.668859
0.654191
0.0610016
0.37536
1.91503
1.4144
1.75432
5.05988
4.64681
0.290703
0.885808
0.098498
1.21145
0.957751
0.162924
0.0872405
2.06239
0.0818156
0.397482
0.0734121
1.28023
0.339881
0.4273
0.776665
0.399136
0.864557
0.281583
0.547764
0.784476
0.436129
0.195888
0.731057
0.510935
0.190516
0.5579
0.53799
0.0607803
0.879323
0.794196
0.688511
0.0920969
0.0962559
0.163057
0.309053
0.206661
1.32306
0.185537
0.335522
1.40492
1.83612
0.409869
0.404856
0.15499
1.67232
0.0963377
0.0989114
0.27895
0.348881
0.123566
0.150847
0.198959
1.21713
1.25272
5.09151
0.115531
1.38908
0.415655
0.0730876
1.12185
1.4738
0.724855
0.219956
0.408593
0.0907329
0.188154
0.280865
1.48971
1.64508
0.0566726
0.658747
0.103224
0.289571
0.282185
0.249613
1.54348
1.3145
1.24639
0.0648654
0.127593
0.391275
0.118355
1.48487
0.128524
0.678486
0.0809144
0.349066
0.0821882
0.0335757
1.38415
0.33495
1.88655
0.584457
0.180049
0.508642
0.0929362
0.105507
1.27084
1.25709
0.480219
0.357638
0.0775037
0.384647
0.551241
0.192224
0.570117
0.0424411
0.0822064
0.035492
5.25999
0.679616
0.225047
0.473228
0.423189
0.0614556
0.299002
0.0858887
0.0900308
1.34913
0.360679
0.310669
0.473674
0.0925947
0.247378
0.0879172
0.0931694
1.81656
1.35279
0.370703
1.38131
1.58679
0.329229
0.257468
0.858875
5.16204
0.353911
0.255074
0.420495
2.49617
0.785813
0.0736561
1.04643
1.38219
0.352405
0.619659
0.262529
0.234014
0.0824551
0.0875949
0.530802
0.812464
0.471428
1.33975
1.44897
0.0337828
4.8815
4.66745
0.136542
0.232597
0.299779
0.602754
1.80577
0.406344
0.0972754
0.132037
0.684235
0.370396
0.109983
0.866301
1.41534
1.66861
0.368896
0.704605
0.438632
0.267768
0.435942
0.395926
0.329226
3.19467
1.80519
1.8195
2.98127
0.327278
0.354012
1.80313
1.33688
0.505313
0.120681
0.203892
0.0831848
0.0933808
1.64052
1.81162
0.251707
1.36488
1.26397
1.18628
1.64409
0.510492
0.285942
0.264806
0.477593
0.0369035
4.7056
0.135833
0.726166
1.95933
0.207207
0.334511
3.50049
0.136173
0.295536
0.397187
0.450524
0.396506
1.74124
1.6361
1.70426
0.254803
1.18454
1.13385
0.540602
0.325266
1.00998
0.178813
0.16129
0.336489
0.137689
0.173396
0.318703
0.174291
0.0717504
0.0847562
1.82185
2.10273
0.630456
0.0865558
3.26099
2.56873
0.779186
0.114191
1.35267
0.73202
0.370078
0.297006
0.041561
4.44148
0.142906
0.145912
0.329044
3.3882
2.07726
1.05361
0.49745
2.87291
1.81437
0.72307
0.636158
0.515747
0.196445
0.325231
0.105672
0.114512
0.104144
0.111007
3.37346
1.12963
0.486234
0.416637
0.468905
3.67161
1.47343
4.15197
3.58076
0.989126
0.0998898
1.4004
0.101292
0.0730154
1.33735
2.16723
3.43642
3.48124
0.964288
0.939829
1.01976
0.594137
0.588595
0.245579
0.100592
0.175587
0.0743142
0.0814205
0.182321
0.142085
0.203708
2.48816
2.54277
0.524855
3.56877
0.785623
1.73136
0.278268
0.556846
0.742998
0.678871
0.635996
0.58061
0.255392
0.226436
2.49391
0.330215
0.315548
0.178229
1.66868
0.342459
0.218152
0.582188
1.4792
1.47877
0.82388
0.376418
0.399965
1.20348
0.521033
0.25118
0.0550765
0.0409346
0.253014
0.367815
4.0501
0.333525
0.100737
0.0917873
1.26788
0.148376
0.882593
2.26529
0.154648
1.82957
0.104082
0.107285
0.213612
1.48765
1.77527
0.275508
0.0954868
0.262787
4.21841
2.01772
0.19322
0.76882
0.348842
0.439981
2.42212
0.65592
0.0779361
0.335411
0.244954
0.119019
0.486768
0.345185
0.335488
0.33206
0.54025
1.2559
0.155643
0.725589
0.599405
1.11782
0.430846
0.664606
0.770919
0.633955
1.23586
2.58659
0.103993
3.68928
0.677795
1.96935
0.922516
0.665448
3.7139
0.908713
1.29309
0.0705791
2.16602
0.211626
0.509832
0.0541964
0.0314222
2.0425
1.01333
1.89434
0.824756
2.73378
2.24839
0.217335
1.75832
0.584458
1.56727
0.565025
0.65995
1.51055
0.160435
0.0607272
0.0834121
1.04674
1.61134
2.88604
0.484933
0.0628234
3.07328
0.452375
1.96172
3.30177
2.81647
3.67841
1.74332
0.0520835
0.618209
0.962711
0.554386
3.6164
3.90881
0.257141
2.34686
0.972342
0.526431
1.8267
0.336378
2.48222
2.05675
2.06842
0.219286
0.108554
1.19042
2.05861
0.258837
0.726639
1.96476
2.75047
0.612312
0.161133
0.211856
1.46916
3.00695
0.645401
0.940676
3.09549
0.614425
0.193741
0.714203
1.42401
3.28719
1.22176
0.531848
0.0715034
0.0639792
1.45778
1.68423
1.5351
2.75676
1.50543
5.243
0.24728
1.05665
0.782112
3.76842
0.113475
1.86294
1.02015
0.169455
0.0841849
0.999605
0.131755
0.193096
4.12169
3.76213
4.08718
1.91884
4.18236
1.11162
1.05821
0.575797
2.98047
3.77972
0.601603
8.204
0.20383
0.306874
0.3158
3.17066
0.398078
1.1956
1.00311
0.629042
0.311558
1.18906
0.654201
0.109191
2.12011
0.0628419
1.95003
0.06849
2.48407
0.103811
1.05977
1.11391
1.92056
0.492929
1.38755
3.5166
1.28476
0.0562511
3.68383
0.106162
0.108004
0.211142
0.0384995
0.135605
1.90003
1.94002
3.71224
0.740104
2.28367
3.67033
0.199404
1.13548
0.123547
0.559084
0.179567
0.0463253
2.71302
1.58831
0.102106
0.116194
3.70971
0.233976
0.420981
0.141266
0.148432
0.695054
0.223334
2.54405
0.205706
1.78175
0.217518
0.554875
0.375197
3.95582
0.481626
4.00053
1.77675
0.208408
0.612093
1.38054
0.220729
0.0687714
3.67378
0.194063
0.144426
1.8887
0.310586
4.11934
0.136584
3.44647
2.21021
0.0572742
1.55676
0.406011
3.97934
2.34912
0.605622
0.630654
1.05541
2.06077
0.359632
0.290502
0.270981
0.581853
0.0630984
0.0633844
2.17443
1.17208
1.19081
0.158446
2.39041
0.343312
3.71789
1.58317
0.531723
0.206725
1.73161
2.55592
0.178822
0.0374465
0.0572614
1.95482
0.814345
2.07397
0.201614
0.267644
2.18029
4.02288
0.269518
0.994238
3.02536
1.88654
0.849944
1.87673
0.035497
0.840045
0.171394
0.157389
0.0619982
0.0776833
0.978432
0.181177
0.781373
1.38843
0.364023
2.8065
0.938243
0.921666
1.74353
1.94141
0.209721
0.877059
0.143866
1.35334
1.99128
1.23818
1.26342
0.142398
0.0506529
0.0775597
1.36892
0.482113
1.96107
1.26864
0.460929
0.955716
4.51973
1.21915
3.25936
0.0333358
2.403
0.0612274
0.286134
0.906638
1.31734
1.41037
0.218884
0.26031
1.27373
1.5196
0.083721
0.149589
1.79566
3.2453
0.583344
1.27061
1.18361
3.47285
5.64197
1.68256
0.315322
0.694548
1.10082
2.10632
0.764606
2.38358
0.206794
0.771066
0.730667
1.20504
0.727819
0.953221
0.147827
0.923552
0.0341823
1.23809
1.50393
0.142155
0.971324
0.0518225
0.896311
2.01206
1.05667
0.0661969
0.345531
2.04445
1.77981
1.57773
0.889581
0.113809
0.106085
0.0468198
0.0602122
0.114845
0.335624
1.55849
0.0707815
0.791952
2.39406
0.101583
0.340077
0.286639
0.304839
2.45201
0.13005
0.0516116
0.0618989
0.139788
0.924497
0.499664
0.248159
0.126323
0.599499
0.0699449
0.0824256
0.843152
1.12107
0.229897
1.21981
0.581958
0.305414
0.380967
1.12699
2.0191
0.109817
0.0370679
0.0326594
0.0923263
0.163834
1.71701
0.343929
3.3273
2.02895
0.998218
2.37808
0.164244
0.238359
0.513026
3.42965
1.22971
0.672099
0.141777
0.0507695
0.075064
0.200763
0.0882463
3.87796
1.93157
0.707557
0.202627
0.0525547
0.0962704
0.0398014
0.515454
0.198031
2.38557
1.94876
1.982
2.73626
0.0347437
0.104145
0.730556
3.98872
0.146599
2.10418
0.973573
1.35902
0.0882052
0.247111
0.0699581
1.12414
1.57845
0.757561
0.820401
0.27168
0.356741
0.241323
0.100514
0.332098
0.983407
2.63342
1.53136
0.157315
1.94555
0.493446
0.660911
0.668739
1.35302
0.554219
0.928003
0.156802
1.67185
3.38436
3.85568
0.443098
0.084421
0.120946
0.0355924
0.0680861
0.172203
0.604927
0.490771
0.797982
2.38039
0.19797
0.136648
2.37009
0.257546
0.600018
0.697764
1.26852
1.38091
0.364182
0.692576
1.17663
0.256777
0.33216
0.213573
0.605734
1.23064
0.105808
0.962661
1.48771
0.338992
0.564142
0.0796216
0.065482
0.0627399
0.0860503
0.0455464
0.0331834
0.104277
0.118765
0.28272
0.150627
0.0365967
0.0535496
3.56694
1.85699
0.359068
1.86293
0.150689
1.48064
0.798458
2.20969
1.60275
1.96468
6.19044
0.909571
1.87287
1.93914
3.415
0.765017
0.0496974
0.0602759
0.182035
0.0529477
0.0613407
0.264316
1.09018
1.7547
0.018611
0.0342286
0.106901
0.616431
0.341112
2.08772
0.173834
0.0285875
1.41553
0.334151
0.495823
0.43127
0.480141
0.109327
1.27181
0.465288
3.41422
0.0828082
0.477701
4.3395
0.590592
0.901762
2.29617
0.028332
0.0654165
0.173868
0.0778486
0.0549928
0.14568
0.0729343
0.263262
0.388284
0.446432
0.0974678
0.208725
0.50255
1.72047
2.35942
0.0542421
0.24538
0.0621985
0.846734
0.398624
0.210409
0.658161
1.86271
0.288614
1.29622
0.648139
1.82579
3.20727
3.59055
1.4135
0.904684
0.332529
0.754342
1.7492
2.11293
0.104112
0.0337587
3.73232
0.31327
3.19763
0.249185
0.342381
0.378413
1.67763
2.13108
0.0983205
0.100939
1.25726
0.599606
0.295969
0.270328
0.951987
1.06241
3.64043
0.106187
1.79048
0.125755
0.0469106
0.0677829
0.0209383
0.116077
0.0203792
2.05668
0.223647
1.78844
3.31367
1.30876
1.09049
5.57043
0.272536
0.206783
1.57237
0.847331
0.907625
6.02916
0.257857
3.78531
0.127822
0.0453157
0.0681355
3.21074
0.189109
0.115408
0.0650992
0.0737877
0.277237
1.53406
1.88305
0.63295
0.387921
0.49957
3.03306
1.12451
0.564137
1.847
1.19469
0.362717
1.66123
1.06385
2.23181
1.54225
0.0626874
0.0905621
0.145976
1.3889
0.149873
1.49921
1.43323
0.789557
0.524207
1.05654
1.41579
0.24423
0.0761318
0.15381
0.0712409
0.262745
1.84515
0.765317
1.3302
0.583727
0.341344
2.09071
2.7906
0.421459
2.31804
0.955011
0.0597085
0.152928
0.0667647
3.7541
0.142144
2.07824
0.291241
0.191031
0.156708
2.19216
1.86705
0.214416
0.265687
1.12082
1.7514
0.112431
0.0765109
0.259709
0.413649
2.37246
0.377328
1.17558
1.55837
1.63599
0.96616
0.299232
0.218141
1.24867
1.48547
0.379709
0.125585
0.40226
0.0487114
1.71457
0.0421714
0.427625
2.33634
1.68474
0.479829
2.00423
0.0791605
0.372375
0.443404
0.0526373
0.483499
0.0833815
0.0351378
0.0581159
0.646972
1.93752
2.77417
1.36093
0.436347
0.0313413
0.0748472
0.0551711
0.0201234
0.0241333
0.0376217
0.470549
1.82516
0.471583
0.397761
0.651386
1.15255
1.43482
0.565526
0.0833695
0.0411325
0.190823
3.81628
2.85245
1.13271
0.118095
0.0364833
2.0891
0.211795
0.352927
1.7569
1.00265
0.116549
3.1313
0.754666
0.454132
0.198587
4.00521
2.2693
0.210853
1.18523
0.0335384
0.107338
1.70178
0.657356
0.0462051
0.0413249
0.349377
0.181579
0.127117
3.21372
0.721792
0.245373
1.76639
1.10457
0.237487
2.08388
1.88323
0.315425
3.5436
0.0379035
0.632824
0.0484871
0.561337
1.35575
0.0507601
0.383015
2.21767
0.192008
0.87066
0.0440205
0.149385
0.59206
1.58296
1.27692
2.60146
0.404732
2.48747
0.320751
0.472924
2.01966
0.21018
3.25783
0.458778
1.51528
0.426651
0.216563
2.01127
0.80621
1.27378
0.182256
0.0637991
0.0694627
1.21901
0.211946
0.191236
0.285712
0.481635
0.512048
0.0485576
0.0333965
0.118436
0.893658
2.99213
0.0944988
0.0361912
0.350117
2.35928
0.522413
0.422708
0.189585
1.63752
0.605911
0.084758
0.380127
2.43245
0.0159825
0.800326
1.20991
2.12158
0.74458
0.789064
0.602816
0.371588
0.121824
0.05468
0.226813
0.0660453
0.195715
0.30691
2.68623
0.222939
0.88723
3.16618
1.25438
1.15226
0.169316
0.330089
0.728617
0.284864
0.606291
0.123864
1.53142
3.45671
2.10866
2.18075
1.64627
0.189064
0.855401
0.614722
0.490622
0.0223266
0.0400788
2.00766
0.495737
0.201584
1.94695
2.24099
0.377743
1.0044
0.813744
2.62652
4.62279
2.68765
0.211699
1.42557
0.058893
0.152656
0.0491616
1.59619
1.75102
1.4537
0.0878863
0.0865
3.00513
0.171678
0.0508565
0.074865
2.56393
0.570088
2.00612
3.85214
1.27633
0.0748923
0.0673886
0.97683
2.10214
1.7225
2.36787
3.15263
0.775296
0.0903664
3.35924
1.91949
0.0556123
0.0524701
0.123774
0.0634862
0.0867026
0.252728
4.2646
2.52764
0.045953
1.8198
2.50938
0.194589
2.33829
1.71222
2.54447
0.338949
0.530096
0.143992
1.09664
0.907881
0.618655
3.30472
3.37821
1.16719
2.04161
2.5485
2.36534
0.221442
0.0868969
2.34669
2.45418
0.268493
0.643539
0.0286958
0.0395612
0.535791
1.13478
2.14201
0.754526
0.143316
2.37676
0.0718052
0.159578
0.055927
0.0851576
0.0397667
1.72421
1.87439
3.56356
0.296638
3.13375
0.0364836
0.133591
3.78214
1.67528
1.74579
1.28105
0.412953
3.53267
1.94246
0.0838555
0.270155
0.685362
0.684665
0.192752
0.261021
0.90505
0.533268
0.581145
0.875023
1.68864
0.329258
1.17657
0.0248975
0.0748792
1.33984
0.141974
0.362676
9.44929
0.309646
1.92307
1.8615
0.056916
0.0479887
0.0464361
0.145972
2.13608
1.49541
1.8368
0.313606
0.825978
0.229721
0.986549
0.627229
0.861388
0.225832
0.28912
0.271254
0.125852
0.0281579
0.0243573
0.0869583
1.92363
1.97202
0.434491
0.0954165
10.0542
2.6982
3.02837
1.26815
0.154655
0.899055
0.32988
0.134558
1.15792
3.03511
0.074635
0.0968521
0.0676387
2.4748
0.669301
1.9679
0.121724
0.448625
0.933995
0.49862
0.0674313
0.0693785
0.0301843
0.0965742
0.280643
2.09189
1.77044
0.234481
2.14054
1.0248
1.73887
2.01566
0.447853
2.08136
0.407283
0.679273
1.11596
1.34592
1.44413
0.0564421
0.0574955
1.51224
0.230859
0.561344
0.332015
1.21876
0.537798
0.527422
0.0441606
0.518405
0.044097
0.528307
0.50324
0.50883
0.509229
0.520094
2.88681
0.637472
0.0862473
1.8136
0.549448
0.0577564
0.07095
0.0615226
0.267914
0.139614
0.384877
1.61524
0.142279
0.225427
1.35033
0.0339115
1.00793
0.0586834
0.315663
3.88591
4.13902
0.127656
0.0554262
0.0495539
0.138778
0.037051
0.071767
0.17861
0.0482427
0.0569923
0.13894
0.0516746
1.35316
0.421514
0.344837
0.577687
1.6803
0.626044
0.62171
0.126065
0.69499
1.63332
1.80465
0.70838
0.0454046
1.51576
2.24936
2.08038
2.17651
0.57647
0.168254
0.0249765
0.060106
0.940326
2.7964
1.24861
0.194716
0.721092
0.272748
0.25151
0.413433
0.46708
3.08186
0.137939
2.35242
0.0728532
0.264478
2.53332
0.903651
0.595716
0.505886
0.57231
1.49167
1.38104
1.12127
0.572498
0.30102
0.248302
0.226555
0.243359
0.319377
0.187531
1.97046
2.7305
1.84615
2.41103
1.00569
0.318329
0.207639
0.174321
2.00896
0.767908
0.814952
0.456438
3.11101
0.358988
1.17781
1.59308
0.244823
0.150121
0.412199
4.09318
2.64297
1.19346
3.7398
2.53966
3.54047
0.417348
0.179484
0.0306997
0.237145
0.23738
10.6525
3.06997
0.487456
2.39028
0.912201
0.430517
0.0389197
0.625226
0.180677
0.106581
0.0482957
2.1512
0.373912
0.83754
1.70994
1.23128
0.0363552
0.1281
0.0528926
0.588387
0.7724
1.19096
11.8901
0.558491
0.320633
0.0578816
0.742376
2.97065
1.42675
0.398896
0.883541
0.113042
0.345698
0.225127
0.12668
1.06295
4.73071