/*--------------------------------*- C++ -*----------------------------------*\
| =========                 |                                                 |
| \\      /  F ield         | OpenFOAM: The Open Source CFD Toolbox           |
|  \\    /   O peration     | Version:  v1912                                 |
|   \\  /    A nd           | Website:  www.openfoam.com                      |
|    \\/     M anipulation  |                                                 |
\*---------------------------------------------------------------------------*/
FoamFile
{
    version     2.0;
    format      ascii;
    class       volScalarField;
    location    "0.28";
    object      nut;
}
// * * * * * * * * * * * * * * * * * * * * * * * * * * * * * * * * * * * * * //

dimensions      [0 2 -1 0 0 0 0];


internalField   nonuniform List<scalar> 
1466
(
0.00129681
0.00207534
0.00133376
0.00328076
0.00161422
0.00192657
0.00293191
0.00174942
0.000739375
0.00236181
0.00307741
0.00236947
0.000714462
0.0018356
0.0037648
0.00570242
0.00135145
0.000936924
0.00441623
0.00271033
0.00449243
0.008132
0.00339342
0.00250413
0.000739348
0.00313102
0.00529759
0.00326607
0.000483123
0.00344831
0.00375568
0.00435333
0.00143682
0.0038101
0.00270426
0.000835047
0.00382045
0.00131211
0.00211363
0.00108732
0.0013832
0.00212479
0.00210384
0.00134406
0.00084602
0.00101813
0.00217277
0.000890744
0.00164803
0.000917232
0.000957561
0.00167689
0.00167
0.00132216
0.000796789
0.00100837
0.00083758
0.00231921
0.000891905
0.00206026
0.00469789
0.00345312
0.0026154
0.00391557
0.00391816
0.00221295
0.00672301
0.00321735
0.00179127
0.000718826
0.00694416
0.00113243
0.000885003
0.000892284
0.00263929
0.00218556
0.00364316
0.00268703
0.00111851
0.00348589
0.00283108
0.00509312
0.0009425
0.00276156
0.00460945
0.00366315
0.00360915
0.00294555
0.00244655
0.00257976
0.00404222
0.00472839
0.00386931
0.00401394
0.00188872
0.000963559
0.00189252
0.00204101
0.000822507
0.00102712
0.00136146
0.000722988
0.000747807
0.00182149
0.00249558
0.00198942
0.00153655
0.00103102
0.00203007
0.000975666
0.00461654
0.00266522
0.00185503
0.00191821
0.00163407
0.00635565
0.00318496
0.00170006
0.00290943
0.00210318
0.00487895
0.00399921
0.00362992
0.00142258
0.000831784
0.00173048
0.0023013
0.00323984
0.00278087
0.00452941
0.00176893
0.00209975
0.00294199
0.00232965
0.00535011
0.00108247
0.00133677
0.00082191
0.0019796
0.00166629
0.00110494
0.00371257
0.00393626
0.00379802
0.00907854
0.0049954
0.00422913
0.00535476
0.00445416
0.00287268
0.004521
0.00363888
0.00208196
0.00177693
0.00494948
0.00805888
0.00298617
0.00349112
0.00427235
0.00204125
0.0038692
0.00303311
0.00115594
0.00382689
0.00709606
0.00366358
0.00358175
0.00403505
0.00426551
0.00255519
0.00440818
0.00272143
0.000929021
0.00190439
0.00110869
0.000857035
0.00319188
0.00394491
0.00439748
0.00570769
0.000795988
0.00460438
0.00461574
0.000717472
0.00283133
0.00409842
0.00470406
0.00230922
0.00177723
0.00128382
0.00449903
0.00409011
0.00401716
0.0066786
0.00187189
0.0054437
0.00057013
0.00302491
0.00659467
0.005309
0.00334475
0.00447247
0.00287385
0.00527548
0.00690994
0.00756706
0.00540108
0.00208211
0.00416311
0.00267494
0.00401688
0.00435053
0.00401067
0.00409161
0.00486664
0.00386079
0.00441519
0.00488085
0.00269176
0.00326689
0.00375086
0.0066437
0.00399153
0.00590693
0.00414702
0.00496683
0.00488805
0.00108461
0.00451166
0.00690341
0.00529587
0.00284018
0.00703575
0.00764634
0.00202251
0.00737233
0.00383535
0.00401484
0.00460537
0.00456396
0.00203881
0.00332455
0.00281733
0.00467888
0.00401685
0.0027714
0.00431739
0.000875546
0.00377677
0.00258231
0.00447304
0.00413738
0.00196065
0.0053292
0.00256868
0.00574645
0.00261985
0.00100363
0.00129181
0.00179087
0.00125233
0.00267311
0.00225753
0.00693252
0.00329896
0.000677546
0.000967914
0.0048062
0.0046013
0.00113956
0.00135775
0.00136951
0.00105828
0.00405227
0.00434445
0.00608697
0.00541637
0.00339263
0.00440223
0.00422909
0.00694416
0.00991369
0.00432289
0.00283792
0.0108741
0.00151753
0.00467125
0.00482215
0.000826424
0.00159978
0.00152744
0.00100288
0.000754021
0.000756198
0.00281084
0.00097817
0.00152635
0.00150696
0.0043557
0.00676246
0.00178153
0.00499304
0.000510912
0.000815182
0.00370961
0.00418867
0.003806
0.00117143
0.00269077
0.00632789
0.00198876
0.00453998
0.00335597
0.00459113
0.00421983
0.00342983
0.00919295
0.00273884
0.00140019
0.00406427
0.000925551
0.00144372
0.00118757
0.00653964
0.00365582
0.00144138
0.00143335
0.00273351
0.00616583
0.0061586
0.00323365
0.00151231
0.00136756
0.00245291
0.00500196
0.000839935
0.00559502
0.00476874
0.00407693
0.00326835
0.00234373
0.00219407
0.00117412
0.00360071
0.00265137
0.000452991
0.00267734
0.00278811
0.00182822
0.00482383
0.00160712
0.000879749
0.00308988
0.0070993
0.00989049
0.00659978
0.00185681
0.000655633
0.0009809
0.00276043
0.00925973
0.00541878
0.00379915
0.0058109
0.00111262
0.00756494
0.00193315
0.00183371
0.0013101
0.00257763
0.00259211
0.00639435
0.00144498
0.00235667
0.00129001
0.00471501
0.00372501
0.00144347
0.00453874
0.00320011
0.0040379
0.00395585
0.00434275
0.00457699
0.00435339
0.00417131
0.00124212
0.00125379
0.00124701
0.00152194
0.00365617
0.00449727
0.00481502
0.0044667
0.00259403
0.0017288
0.00152593
0.00148515
0.00264288
0.000700139
0.00141777
0.00136705
0.00251106
0.00123953
0.00245875
0.0109992
0.00257019
0.00241255
0.00938244
0.00844926
0.00312752
0.00280349
0.00302875
0.00984018
0.00303077
0.00163457
0.00159896
0.00274366
0.0041503
0.00230049
0.00857478
0.00991816
0.00251956
0.00285478
0.00285433
0.00493189
0.00736821
0.00148199
0.00300469
0.0042527
0.00559061
0.00277822
0.00188326
0.00162092
0.00548334
0.000803315
0.00149523
0.00124852
0.00204959
0.00572438
0.00151752
0.000831269
0.00570637
0.00141901
0.00659535
0.00255205
0.00114727
0.00616156
0.00314376
0.00508598
0.00653974
0.00346966
0.000787304
0.000819644
0.00430848
0.000816194
0.00161455
0.00186586
0.000775413
0.00701334
0.00145579
0.00358526
0.00117484
0.00076819
0.00465036
0.00452069
0.00420888
0.00347737
0.00359382
0.0040595
0.00343277
0.00169257
0.00458568
0.00131987
0.00736613
0.00468237
0.00331414
0.00704313
0.010641
0.00852106
0.00250572
0.00205966
0.00363293
0.0101428
0.0101849
0.00187707
0.00457683
0.00366385
0.00695944
0.00387933
0.0111126
0.00312262
0.00133959
0.00434413
0.00526765
0.00457234
0.00451363
0.00447664
0.00366914
0.00547197
0.0047435
0.00527493
0.00269618
0.00518831
0.00114
0.00659698
0.00330299
0.00731822
0.00485636
0.00456744
0.00601077
0.00897665
0.00558739
0.00156813
0.00443821
0.00579184
0.00413423
0.000810061
0.00116874
0.00152367
0.00476361
0.00392428
0.00914515
0.00222234
0.0078387
0.00408269
0.00399388
0.00468991
0.00419361
0.00942856
0.0027088
0.00162093
0.00815982
0.00453563
0.0046365
0.00404501
0.00219345
0.00349749
0.00423853
0.00329205
0.00178238
0.0058087
0.00117058
0.00505598
0.00430985
0.00220282
0.0044055
0.00166979
0.00686795
0.00750956
0.0102956
0.00434922
0.0040054
0.00457593
0.00160403
0.00442752
0.00452937
0.00465121
0.00199048
0.00141617
0.0087512
0.00993234
0.00705937
0.00275732
0.00105018
0.00370764
0.0044555
0.00897604
0.00361694
0.00489384
0.00403355
0.00873343
0.00466044
0.00405248
0.00430957
0.00504732
0.000901954
0.00489659
0.00464145
0.00458303
0.00690879
0.0046098
0.00470363
0.00646153
0.00454184
0.00577967
0.00495584
0.000957772
0.00455846
0.00364018
0.00371912
0.00194712
0.00989323
0.00477366
0.0046637
0.00391621
0.00375692
0.00257881
0.0050677
0.00398252
0.00351566
0.00121441
0.00109567
0.0023028
0.00738824
0.00949021
0.0063197
0.00144531
0.00450398
0.0052417
0.00428791
0.00351175
0.00177873
0.00211599
0.00289058
0.00257156
0.00381864
0.00214809
0.00163373
0.00500798
0.00223349
0.00155604
0.00621781
0.00133344
0.00159871
0.0047839
0.00186575
0.00995083
0.0102861
0.00441945
0.010162
0.00173174
0.00171152
0.00115285
0.00501647
0.001163
0.00502083
0.00443644
0.00483872
0.00289346
0.00718985
0.00285303
0.00278007
0.00634884
0.00571543
0.00119799
0.0104042
0.00774718
0.0026493
0.00217419
0.00512376
0.000901522
0.00400478
0.00151376
0.0100883
0.00582603
0.00427216
0.00161441
0.006183
0.000897579
0.00912647
0.00294008
0.00243167
0.00125691
0.0114496
0.0040197
0.00277362
0.00492499
0.00331842
0.00465682
0.00106482
0.00497065
0.00922871
0.00114343
0.00425604
0.00173497
0.00516612
0.00177723
0.00138149
0.0015054
0.00309926
0.0013622
0.00232247
0.00659687
0.000635257
0.00803383
0.000713856
0.000462646
0.00676475
0.000502506
0.00970137
0.00143888
0.00137508
0.00237575
0.000686585
0.000454959
0.00238663
0.0107205
0.000707772
0.00660137
0.00590429
0.000723881
0.000478915
0.00609068
0.00514706
0.00566232
0.0049313
0.00267261
0.000465682
0.00492135
0.00486116
0.00589424
0.00166851
0.00292215
0.00734005
0.00323271
0.00184392
0.00641299
0.0107387
0.00397013
0.001958
0.00752891
0.00704408
0.00277333
0.00170966
0.00506616
0.0028268
0.00400319
0.00346767
0.000456242
0.0108003
0.00210471
0.0110165
0.00193722
0.0055001
0.00652426
0.0010794
0.00482391
0.00072999
0.00640311
0.00401655
0.00439712
0.00527545
0.000950894
0.00475945
0.00283256
0.000741905
0.000575431
0.00527789
0.00253302
0.00292566
0.00582014
0.00282837
0.00131366
0.00319204
0.00394965
0.00377998
0.00311449
0.00113441
0.00338475
0.00448365
0.00320006
0.00670676
0.00445673
0.00829416
0.00297383
0.00331721
0.00335232
0.00449619
0.0046267
0.00554262
0.00427034
0.00402028
0.00347106
0.00819141
0.00463804
0.00387798
0.000582379
0.00392857
0.00247852
0.00433783
0.00188392
0.00355734
0.00235982
0.0105024
0.00173369
0.00484502
0.00394757
0.00620633
0.00259994
0.00374597
0.0114861
0.00458499
0.00329589
0.00451139
0.00126218
0.00623044
0.00333705
0.00120709
0.0040442
0.00323594
0.0073683
0.00436511
0.00131617
0.00166686
0.00115361
0.00044343
0.00104284
0.00833833
0.00349381
0.0011178
0.00357333
0.00325693
0.0026722
0.00680651
0.00154847
0.00545861
0.00341305
0.0048393
0.00518984
0.00289181
0.00671434
0.00190278
0.00408931
0.00476135
0.00256473
0.00409498
0.00110476
0.00130193
0.00317006
0.00364295
0.00519464
0.0046979
0.00998902
0.0011277
0.0026867
0.00198522
0.000537708
0.00363329
0.00379664
0.00420979
0.00647376
0.00824011
0.00163241
0.0116676
0.00190611
0.000752736
0.00395005
0.00288782
0.00534451
0.00942788
0.00252319
0.00314928
0.00448926
0.00316082
0.00531671
0.00299922
0.00324385
0.00336109
0.00328611
0.00723523
0.00421265
0.000851071
0.00389524
0.00307966
0.00145374
0.00300758
0.00200021
0.00479389
0.00453378
0.00367368
0.00189732
0.00831092
0.00430424
0.0106756
0.003984
0.00792952
0.0010212
0.000979117
0.00100463
0.0008561
0.000872166
0.000973334
0.000796821
0.00131474
0.00131212
0.00134504
0.00131784
0.00124281
0.00117495
0.00121154
0.00124749
0.00134514
0.000892721
0.00102788
0.00131216
0.00124072
0.00140956
0.00119479
0.00111965
0.00112275
0.00115203
0.000963858
0.00276991
0.000714494
0.000504971
0.0105043
0.00357815
0.00147089
0.00427621
0.00173778
0.00351645
0.00657247
0.00337084
0.00533455
0.00238061
0.000724287
0.00112451
0.00520018
0.0040538
0.00925262
0.0066339
0.00281956
0.00508247
0.0024117
0.00845137
0.00787695
0.00115713
0.00401802
0.00274622
0.000918519
0.000489162
0.000815684
0.00196699
0.00370522
0.00921486
0.00395098
0.00061672
0.00497417
0.0028501
0.00167392
0.00399516
0.00169244
0.00475544
0.00327663
0.00295224
0.00485028
0.00104788
0.00180997
0.0012647
0.00698711
0.00321859
0.00379
0.0072109
0.00298591
0.0108955
0.00260869
0.00476907
0.00627934
0.00367533
0.00811256
0.00139914
0.00104148
0.000757129
0.00359471
0.00525636
0.00115766
0.0037237
0.00385814
0.0102427
0.00135837
0.00491325
0.00831294
0.00475604
0.00539272
0.0019977
0.00709552
0.00330201
0.00203643
0.0050804
0.00219232
0.0039744
0.00461312
0.00508786
0.00110617
0.00110109
0.00628889
0.00407004
0.00620434
0.00314005
0.00223867
0.00162607
0.00483758
0.00308118
0.00553756
0.00752097
0.00380148
0.0086954
0.00112676
0.00143631
0.00368487
0.0083505
0.0111201
0.00105201
0.0011466
0.00314259
0.00352676
0.00128912
0.00385917
0.000729999
0.00135558
0.00557902
0.00125395
0.000372697
0.00206805
0.000917981
0.00803306
0.00656136
0.00202344
0.00658341
0.000838655
0.0016877
0.0100324
0.00306113
0.00454792
0.00113915
0.000989721
0.00376299
0.00262416
0.00422677
0.00302637
0.0051556
0.00737024
0.00288557
0.00393254
0.00753458
0.00490238
0.00306941
0.0103768
0.000775651
0.00682719
0.000826267
0.00209579
0.00161928
0.000739985
0.00129603
0.00198761
0.000596362
0.00244009
0.00748036
0.00435801
0.0030499
0.00383886
0.003451
0.000927013
0.00359366
0.00523049
0.00712568
0.00575503
0.00159914
0.00297569
0.000917969
0.000718034
0.000748977
0.00206798
0.00515061
0.00116829
0.00410392
0.00373315
0.000234927
0.00921414
0.00357111
0.000560131
0.00360744
0.000655327
0.0015425
0.000926123
0.000633733
0.000657842
0.00388207
0.00260788
0.000716587
0.00107784
0.000483961
0.000562075
0.000498004
0.000499845
0.000986541
0.00100572
0.000578025
0.000651717
0.000674893
0.000668082
0.00091025
0.0113634
0.00750639
0.00504017
0.00696227
0.00440157
0.00716042
0.00561215
0.00111986
0.00095873
0.00335854
0.00299121
0.00460058
0.00114092
0.00445689
0.0032987
0.00738506
0.00412319
0.000476815
0.00597708
0.00251592
0.00397965
0.000760758
0.00274556
0.00252036
0.0045977
0.00160531
0.00447927
0.00604879
0.00300358
0.000811448
0.00102077
0.000838088
0.00167685
0.00619885
0.00309598
0.0034071
0.00247007
0.00295708
0.00446492
0.00212158
0.00438106
0.00336394
0.0040102
0.00601703
0.00366487
0.00866836
0.0055567
0.00153723
0.00130179
0.00354427
0.00390278
0.00295587
0.00275319
0.00377829
0.00154366
0.00275884
0.00522255
0.00103468
0.00103985
0.00434459
0.00261609
0.00101177
0.00279482
0.00304902
0.00399628
0.00556123
0.00109853
0.00215967
0.00102359
0.000844851
0.00428245
0.0101588
0.00232545
0.0116759
0.00463248
0.00430194
0.00302671
0.00289149
0.00450025
0.00235694
0.00148069
0.0112386
0.00299805
0.0111819
0.00852472
0.0109804
0.0104142
0.00142754
0.00525254
0.00339703
0.00399858
0.00245145
0.00515474
0.00201946
0.00389313
0.00708508
0.00814604
0.00156517
0.0118155
0.00710817
0.00237908
0.00313629
0.00253621
0.0011528
0.00305092
0.00368611
0.00340816
0.00257801
0.00228008
0.00242811
0.00241261
0.00692743
0.00610793
0.00094705
0.00329595
0.00403229
0.00235476
0.00248107
0.00446237
0.00410592
0.00277563
0.000896983
0.00392496
0.000894937
0.0027403
0.00474705
0.00591862
0.00125693
0.00258155
0.000845769
0.0108131
0.00350209
0.00164423
0.00574622
0.00316336
0.0106974
0.0112064
0.00392581
0.00369395
0.00150777
0.00199598
0.002304
0.00768791
0.00143643
0.00181416
0.00492477
0.00138785
0.0113119
0.00407375
0.00198
0.00260051
0.00611007
0.00418005
0.00105918
0.00614348
0.00285438
0.000821632
0.00378005
0.0034037
0.00338855
0.00234104
0.00171732
0.0115008
0.00247215
0.00344299
0.00369624
0.00545965
0.00621206
0.00419679
0.00695551
0.010794
0.00884098
0.00300893
0.002068
0.00164593
0.0038003
0.00075312
0.0033311
0.00308676
0.000515363
0.00752433
0.00377508
0.00315925
0.00676638
0.00198834
0.00510803
0.0031141
0.000908169
0.00236987
0.00452772
0.00151837
0.00151168
0.00200077
0.00435177
0.00213295
0.00715341
0.0060995
0.00491971
0.00188091
0.00166876
0.00135754
0.000803808
0.00145057
0.00465074
0.000969925
0.00361474
0.00396003
0.00474989
0.00524945
0.00266482
0.00729394
0.000889997
0.00331241
0.00529943
0.00453983
0.0014151
0.00382161
0.00370879
0.00394005
0.00280983
0.00200795
0.00707249
0.00593137
0.000941176
0.000397503
0.00609388
0.00252059
0.0029041
0.00663392
0.00569085
0.000655607
0.00297021
0.000579096
0.000871484
0.00179643
0.00143867
0.00213883
0.00576653
0.000394762
0.00638117
0.00436022
0.00284729
0.00113408
0.000980097
0.00520613
0.00118308
0.00425345
0.00227842
0.00438073
0.00858887
0.0014203
0.00315198
0.00323209
0.00313967
0.00331897
0.00304568
0.00121665
0.00602979
0.00305539
0.00481373
0.000687098
0.00340991
0.0028938
0.00419609
0.00303457
0.00324269
0.00593478
0.0032553
0.00260894
0.00185113
0.00293436
0.00581557
0.00460344
0.00120836
0.000258141
0.000404009
0.00300566
0.00404987
0.00274208
0.00623261
0.00325534
0.00116666
0.00226995
0.0116287
0.00604074
0.00429672
0.0035459
0.00249653
0.00482453
0.0113096
0.00129138
0.00207218
0.00377049
0.0016872
0.00576158
0.00228635
0.00232824
0.00503028
0.00269105
0.00413691
0.00388447
0.00287593
0.00449884
0.00240664
0.00307142
0.00321624
0.00151549
0.00343479
0.00318327
0.00706144
0.00422531
0.00289309
0.00256961
0.00601708
0.00319086
0.00452275
0.00283618
0.00578568
0.0113114
0.00201877
0.000962213
0.00579482
0.00402151
0.00188125
0.00180024
0.00298109
0.00334634
0.00357984
0.00499237
0.00377322
0.00316231
0.000735618
0.00354523
0.00349864
0.00438703
0.00530633
0.00165314
0.00229188
0.000936297
0.00188945
0.000878391
0.00113797
0.00179855
0.00273628
0.000821364
0.000923817
0.000904502
0.000729249
0.00138796
0.00196896
0.00105503
0.000638035
0.00171256
0.00225745
0.00151614
0.00135217
0.00105726
0.00177415
0.000730769
0.000833437
0.000957477
0.00132226
0.000744165
0.000867893
0.00231821
0.000389538
0.000389971
0.00177911
0.000662973
0.00132616
0.00123287
0.0026376
)
;

boundaryField
{
    frontAndBack
    {
        type            empty;
    }
    wallOuter
    {
        type            nutkWallFunction;
        Cmu             0.09;
        kappa           0.41;
        E               9.8;
        value           nonuniform List<scalar> 
108
(
0.000109915
0.000130478
0.000102876
5.83608e-05
5.16796e-05
7.67337e-05
8.60011e-05
5.59042e-05
6.10387e-05
8.27392e-05
5.49622e-05
8.53344e-05
8.71196e-05
5.80379e-05
5.64115e-05
5.23106e-05
0.000122785
8.9366e-05
6.72618e-05
7.05625e-05
5.14364e-05
0.000126835
6.5305e-05
9.0632e-05
0.000117367
0.00011261
0.000115741
9.87334e-05
0.000100747
0.000111433
9.23023e-05
0.000148007
0.000149781
0.000153305
0.000148612
0.000140395
0.000133172
0.00013776
0.000142869
0.000153356
0.000104331
0.000118634
0.000149924
0.000142409
0.000160617
0.00013758
0.000127249
0.000127484
0.000130519
0.000111443
5.83559e-05
8.73056e-05
0.000131053
5.94655e-05
0.000121976
0.000118673
9.11477e-05
0.000125072
0.000131626
4.27585e-05
9.90205e-05
0.000131747
0.000114173
9.91263e-05
8.91652e-05
7.04643e-05
0.000110606
8.65574e-05
9.02116e-05
0.000134612
2.53833e-05
2.53833e-05
6.6405e-05
7.79768e-05
7.54016e-05
7.84194e-05
0.000122523
5.75655e-05
6.69082e-05
5.9465e-05
5.93913e-05
0.000117322
0.000119473
7.00009e-05
7.84996e-05
8.09388e-05
7.98321e-05
0.00010866
0.000129516
0.000110821
5.79084e-05
8.90653e-05
9.47557e-05
0.00011834
0.000122702
0.000123261
0.000118742
9.83958e-05
0.00010691
6.26048e-05
9.48928e-05
0.000115402
4.64918e-05
6.80635e-05
4.61604e-05
2.87641e-05
4.82058e-05
0.000134481
)
;
    }
    inlet
    {
        type            calculated;
        value           nonuniform 0();
    }
    outlet
    {
        type            calculated;
        value           nonuniform 0();
    }
    wallInner
    {
        type            nutkWallFunction;
        Cmu             0.09;
        kappa           0.41;
        E               9.8;
        value           nonuniform List<scalar> 
126
(
0.000138326
0.000237457
0.000131768
0.000173963
0.000238436
0.000235788
0.000165248
0.000101051
0.000117277
0.000246399
9.72156e-05
0.000177034
0.000109717
0.000110133
0.000191815
0.000179734
0.000144909
9.69884e-05
0.000119705
0.000104728
0.000260793
0.00010733
0.000231835
0.00012827
0.000115999
0.00021475
0.000232353
9.86394e-05
0.000112983
0.000151724
8.5031e-05
8.19373e-05
0.000194818
0.000275504
0.000214068
0.00016549
0.000113081
0.000230383
0.000125041
0.000216768
0.000186675
0.000172693
0.000102274
0.000201504
0.000235929
0.000134956
0.000160289
9.92967e-05
0.000131806
0.000133931
0.000130982
6.76165e-05
0.000148121
0.00019756
0.000142898
8.06823e-05
0.000115314
0.000154436
0.000156339
0.000121822
0.000129366
8.95612e-05
0.000113187
0.000172861
0.000107273
0.000164175
0.000138119
7.87554e-05
0.00015056
0.000167442
0.000167126
0.00017143
8.55707e-05
0.000171598
0.000210794
0.000182448
9.67612e-05
0.000143001
0.000101655
0.000101168
0.000101529
9.85456e-05
0.000178116
0.000182765
0.000181435
0.000210085
0.0001812
0.000192459
0.000171871
0.00022525
0.00019105
0.000165798
0.000141752
0.000188527
0.000111598
0.000212298
0.000105032
0.000139179
0.000206818
0.000101903
0.00011883
0.000103485
8.52566e-05
0.000155995
0.000218337
0.000123677
7.61768e-05
0.000192923
0.000248179
0.000174009
0.000150363
0.000124405
0.000202482
8.80528e-05
9.98987e-05
0.000113995
0.000164984
9.16348e-05
0.000102853
0.000249687
4.35245e-05
4.24672e-05
0.00020239
7.9926e-05
0.000154279
0.000144875
)
;
    }
    procBoundary1to0
    {
        type            processor;
        value           nonuniform List<scalar> 
29
(
0.00309247
0.00309247
0.00189617
0.00272283
0.00604432
0.00267753
0.00258312
0.000908292
0.00268007
0.0024087
0.00173804
0.00267753
0.00189617
0.00199799
0.00180232
0.000997494
0.00604432
0.00457128
0.00272283
0.00429305
0.000788145
0.000725371
0.00337654
0.000706765
0.000706765
0.00337654
0.000708817
0.000902488
0.000708817
)
;
    }
    procBoundary1to2
    {
        type            processor;
        value           uniform 0.00405439;
    }
    procBoundary1to3
    {
        type            processor;
        value           nonuniform List<scalar> 
48
(
0.0039227
0.00389585
0.0038996
0.0038996
0.00321452
0.00231314
0.00231314
0.00419183
0.00413329
0.00135094
0.000915997
0.00135094
0.0015992
0.00439831
0.00446936
0.0015992
0.00171891
0.00171891
0.00176737
0.00176737
0.00406165
0.00394026
0.00163111
0.000538992
0.000538992
0.00137675
0.00372839
0.00372839
0.00402792
0.00240944
0.00126018
0.00402792
0.00419183
0.00444664
0.00145301
0.00240944
0.00435796
0.000915997
0.003921
0.00246963
0.00440404
0.00443691
0.00444664
0.00145301
0.0042699
0.000921444
0.00296649
0.00440404
)
;
    }
}


// ************************************************************************* //
