/*--------------------------------*- C++ -*----------------------------------*\
| =========                 |                                                 |
| \\      /  F ield         | OpenFOAM: The Open Source CFD Toolbox           |
|  \\    /   O peration     | Version:  v1912                                 |
|   \\  /    A nd           | Website:  www.openfoam.com                      |
|    \\/     M anipulation  |                                                 |
\*---------------------------------------------------------------------------*/
FoamFile
{
    version     2.0;
    format      ascii;
    class       volScalarField;
    location    "0.94";
    object      nut;
}
// * * * * * * * * * * * * * * * * * * * * * * * * * * * * * * * * * * * * * //

dimensions      [0 2 -1 0 0 0 0];


internalField   nonuniform List<scalar> 
1431
(
0.00492201
0.0169771
0.000838502
0.000637441
0.0013118
0.00780883
0.00149085
0.0102578
0.00693298
0.00104356
0.0037584
0.0137331
0.0126067
0.00208107
0.00171021
0.00152088
0.00184986
0.00103551
0.00175395
0.00144366
0.00494616
0.00482234
0.00551468
0.0158697
0.00578795
0.00872127
0.00333911
0.00162042
0.000900512
0.000749383
0.00211267
0.00261288
0.00199242
0.00119646
0.011826
0.00369045
0.0125503
0.000738268
0.000720148
0.00233621
0.00633279
0.00873615
0.0108243
0.00135458
0.00349404
0.00155305
0.00303191
0.00315247
0.00166527
0.000824627
0.0131527
0.00155898
0.0133353
0.0129661
0.0140249
0.00710301
0.000814326
0.0144073
0.00170615
0.00125312
0.0015408
0.000353239
0.000352306
0.000404736
0.000233641
0.000225933
0.00101364
0.000457952
0.000645736
0.00114821
0.00375894
0.00110785
0.000252569
0.00082294
0.00137817
0.00082965
0.000780929
0.000404257
0.000401676
0.000921242
0.00162932
0.000677146
0.013711
0.00360618
0.00695928
0.00113239
0.000384467
0.00299448
0.0108341
0.0138455
0.00152957
0.00126615
0.0015078
0.00158347
0.011968
0.00070735
0.0126995
0.0231211
0.00115705
0.00121301
0.00985865
0.000757377
0.00245053
0.00113556
0.000733877
0.00256438
0.00309008
0.00307763
0.00431263
0.00212594
0.00128977
0.0136421
0.00241417
0.00516372
0.0160876
0.0010979
0.00129818
0.000313888
0.000280257
0.000317677
0.00120993
0.00170613
0.00253085
0.00115458
0.00263504
0.000405238
0.000810133
0.00251942
0.00100057
0.00383451
0.00123933
0.00099101
0.00430834
0.00137602
0.00167669
0.000972815
0.00139241
0.00130969
0.0146216
0.000384816
0.000406294
0.00204463
0.00142518
0.00066067
0.00547981
0.00187857
0.000388463
0.0118338
0.00121663
0.00101647
0.000886714
0.000829374
0.0024845
0.000321487
0.00348571
0.00194529
0.0106855
0.0202982
0.0143716
0.000905631
0.0203159
0.0136834
0.000742078
0.000629769
0.00278717
0.00462721
0.00428532
0.0137709
0.000935525
0.0211908
0.0192423
0.0133873
0.00225354
0.0145594
0.0189609
0.0100128
0.0021587
0.00546007
0.0135651
0.0127716
0.000264751
0.00161531
0.0120414
0.018511
0.00582468
0.00133055
0.00150586
0.0208404
0.00257502
0.00774581
0.0024268
0.00261738
0.00272521
0.0033664
0.000269293
0.0207455
0.0235815
0.0114219
0.000673211
0.00186706
0.0147387
0.000820833
0.00372379
0.000582466
0.0134494
0.00255802
0.00250877
0.000533443
0.0157138
0.00280049
0.00208026
0.000539516
0.00308926
0.00256808
0.0129302
0.00143127
0.00290264
0.0117437
0.0123757
0.00356037
0.00329536
0.0118346
0.0024265
0.000749813
0.00362381
0.0172212
0.00402017
0.0222457
0.00287413
0.00279041
0.00639664
0.00210993
0.00260921
0.00262499
0.00275152
0.0209896
0.00309572
0.00283257
0.00232192
0.0116096
0.00285547
0.0155949
0.0164491
0.00271521
0.00263979
0.00355459
0.00285671
0.00353778
0.00347816
0.00117981
0.00228285
0.0151754
0.000975327
0.00148747
0.0025166
0.00852428
0.00109101
0.0178509
0.0232448
0.00278608
0.00164961
0.014245
0.0122571
0.000999229
0.00385276
0.00415189
0.0109012
0.00402667
0.0031015
0.000567256
0.00457683
0.0030709
0.0149904
0.00884567
0.0188658
0.00207621
0.0177489
0.00301485
0.001052
0.00153491
0.0141746
0.0130622
0.00187452
0.0113207
0.00952872
0.0211315
0.00831637
0.0235878
0.00602916
0.0170752
0.000453551
0.00948152
0.023076
0.0134034
0.00250822
0.00262473
0.0017993
0.00149271
0.00198864
0.00109755
0.0130906
0.000791912
0.0129367
0.0123655
0.00293776
0.00122558
0.0188012
0.00261894
0.00987888
0.0198298
0.0193032
0.000597305
0.000279331
0.00128969
0.00826161
0.0230544
0.0116948
0.0118671
0.000951501
0.0129728
0.0181615
0.0221525
0.000846662
0.0112904
0.009471
0.000603572
0.000844177
0.00771417
0.0125644
0.00141238
0.00121494
0.00116624
0.00780214
0.00534561
0.00142969
0.0121334
0.00827187
0.021392
0.00875986
0.00130694
0.000618869
0.0118442
0.0147601
0.00583412
0.00733823
0.00252062
0.0154226
0.0170325
0.0175569
0.0131985
0.00625035
0.000945456
0.0114959
0.017712
0.00135262
0.00999078
0.00839702
0.00190887
0.0129941
0.00740984
0.00514937
0.00133156
0.00114445
0.0105891
0.00108504
0.00527832
0.00652349
0.0178298
0.00267336
0.00208966
0.00360138
0.00176945
0.0122516
0.0150189
0.00619738
0.0189154
0.0190085
0.0054241
0.00900874
0.0188609
0.0142362
0.00761879
0.00564343
0.00141254
0.0165122
0.00788733
0.0141819
0.00691275
0.0093604
0.014783
0.00517499
0.0140515
0.0139901
0.00134427
0.0226073
0.012452
0.0134674
0.0132836
0.00615879
0.00915145
0.0172311
0.00638683
0.0234308
0.00863881
0.00625572
0.0130052
0.00729041
0.000833964
0.00699205
0.0132029
0.0189318
0.0107893
0.0134011
0.0120609
0.00687431
0.000856074
0.0154496
0.000900407
0.00932109
0.013606
0.00379372
0.0126942
0.0118144
0.0164919
0.0138335
0.00177514
0.0014368
0.00294358
0.00183965
0.0149423
0.0139732
0.0139919
0.0140597
0.0140477
0.0141459
0.0140963
0.0141485
0.0139569
0.0141935
0.0141435
0.00161127
0.015033
0.00129532
0.00094377
0.000894252
0.00086955
0.000957104
0.000938325
0.00392488
0.00436553
0.00381793
0.000858956
0.00183157
0.00143942
0.00185607
0.00177588
0.00523775
0.0172342
0.00145068
0.00145979
0.00484332
0.000699096
0.0166272
0.00172329
0.00177926
0.000791105
0.00138267
0.0160454
0.00087262
0.015372
0.00157596
0.00157512
0.00109892
0.00556934
0.0147764
0.0147728
0.00105189
0.00132509
0.00101915
0.00170132
0.00560803
0.00100079
0.0148853
0.00354266
0.00108268
0.00523781
0.00115511
0.00102258
0.00108581
0.00315143
0.0146448
0.00255012
0.00101387
0.00447105
0.00404263
0.00130636
0.000998627
0.0140375
0.00377406
0.00216185
0.0072487
0.00599095
0.00173229
0.000874152
0.0137235
0.0152364
0.00140726
0.00561623
0.0048111
0.00166674
0.00456645
0.00400473
0.00109151
0.00121262
0.00075595
0.0015811
0.00729855
0.0057807
0.00428579
0.0149202
0.00359416
0.00658651
0.00296709
0.00139611
0.00762747
0.00148353
0.0129044
0.00230297
0.00161036
0.000778679
0.0162559
0.00984489
0.0100677
0.00518114
0.0136645
0.00356509
0.00544382
0.00171757
0.0083918
0.00170993
0.0138292
0.00125929
0.00549731
0.00880924
0.00362132
0.00523514
0.0139299
0.0015595
0.0136539
0.0132508
0.0142878
0.000991618
0.00649699
0.0136401
0.00096707
0.00339083
0.00136007
0.00746162
0.00161368
0.0057084
0.0133667
0.0133935
0.0209199
0.0113556
0.00833496
0.00713284
0.00970003
0.000681547
0.0111156
0.0089024
0.0142934
0.0109136
0.0143
0.00773214
0.00108278
0.00944039
0.00162719
0.00171604
0.0139029
0.0138534
0.0141669
0.00851912
0.00393963
0.0144246
0.0156842
0.00330681
0.00258657
0.0104132
0.00124671
0.00262902
0.0129201
0.00173127
0.0125493
0.013926
0.00372023
0.0137703
0.0041635
0.0141146
0.0222566
0.0150841
0.00166153
0.010434
0.0128424
0.00824064
0.0112212
0.00695011
0.00171786
0.0157095
0.00294753
0.000993178
0.00157981
0.00915473
0.0138658
0.0139728
0.00481395
0.00797641
0.00511772
0.000961527
0.0100464
0.0129841
0.0180701
0.016841
0.0010052
0.01358
0.0116121
0.00630089
0.0133979
0.0018444
0.0129934
0.0089393
0.0126647
0.0111904
0.000247485
0.0143773
0.0143733
0.0125934
0.0112663
0.00790953
0.00426996
0.0138042
0.00586369
0.0223102
0.00342719
0.0131204
0.00176125
0.0111503
0.0100255
0.00955299
0.00428283
0.0173844
0.0108811
0.0110894
0.00154968
0.0139529
0.00136025
0.00796995
0.00639712
0.00691401
0.00731081
0.0161744
0.021907
0.0130143
0.0108313
0.013294
0.00789853
0.0036292
0.00206144
0.00507133
0.0125258
0.000918368
0.0140681
0.0154544
0.0017451
0.0143095
0.0105975
0.00298088
0.0017709
0.00573616
0.00437811
0.0114324
0.013749
0.00973129
0.0165493
0.00173976
0.000474189
0.00104792
0.0131143
0.00475489
0.00167451
0.00107675
0.00464797
0.00276298
0.00533256
0.000954397
0.000641565
0.0137845
0.00159665
0.00396098
0.000481365
0.0152204
0.00136778
0.0135452
0.0140318
0.000814264
0.00183272
0.0018364
0.00144237
0.0014784
0.0152352
0.00985916
0.00578076
0.00618144
0.00274253
0.00346658
0.000898955
0.00516009
0.0114507
0.00313117
0.00588288
0.00476658
0.00575242
0.00257052
0.0145838
0.013968
0.00235066
0.00977826
0.0033551
0.011167
0.00320842
0.00410543
0.00101874
0.0192588
0.010994
0.00579726
0.00584254
0.00294727
0.0053651
0.00173076
0.00172066
0.00123882
0.000807165
0.00672064
0.00857504
0.00421805
0.0134855
0.00669611
0.00477127
0.00135287
0.00473147
0.00143371
0.00872411
0.0116822
0.0100389
0.00152492
0.0162927
0.00468321
0.00725356
0.000869613
0.00699611
0.00102689
0.0181541
0.00557719
0.00335787
0.00172345
0.00137418
0.00310648
0.00165711
0.00169168
0.0125521
0.00888142
0.00937203
0.00258803
0.00417979
0.00566473
0.00642774
0.0136789
0.000279474
0.00675022
0.0110493
0.00227789
0.0146616
0.00128437
0.0140971
0.000971167
0.00119093
0.01441
0.00575471
0.0142185
0.0023791
0.0145699
0.00510958
0.00138998
0.00264105
0.0120923
0.00261905
0.000357661
0.00132566
0.00247435
0.00148154
0.0134251
0.00244953
0.00561181
0.00154683
0.0136461
0.0137261
0.0108581
0.00269478
0.00816838
0.00686659
0.00552943
0.0163606
0.00111318
0.0138425
0.0120805
0.010885
0.0178481
0.0126947
0.00171506
0.0134139
0.00528657
0.000914003
0.00421303
0.0139609
0.0140337
0.00128089
0.00081853
0.00875398
0.0020402
0.00177933
0.0025293
0.0136436
0.00184645
0.0016504
0.00241366
0.0160972
0.0135549
0.0027019
0.0138304
0.0139264
0.00970606
0.0138319
0.00316318
0.00208119
0.00254205
0.0140251
0.0202205
0.0022653
0.0174736
0.00664252
0.0217508
0.00294536
0.00206298
0.0107466
0.00912625
0.001019
0.000469994
0.00588421
0.00497694
0.000982945
0.000799114
0.00943316
0.015764
0.00565838
0.0139481
0.0137883
0.0103762
0.0137354
0.00122898
0.0161185
0.0111248
0.0143824
0.00975307
0.010987
0.00123446
0.0035922
0.00151094
0.00140101
0.00208407
0.00964941
0.00359416
0.0145713
0.00113211
0.00419629
0.00429706
0.0110255
0.0155314
0.00761655
0.000806955
0.000895847
0.000857706
0.00074266
0.000790901
0.000925948
0.000885229
0.000621011
0.000745297
0.000665344
0.000672364
0.000696466
0.0010121
0.000756524
0.000660311
0.000657317
0.000793436
0.000836135
0.000790341
0.000786878
0.000754012
0.000759543
0.000757268
0.000784673
0.0132999
0.017123
0.000717058
0.00653398
0.00656583
0.00431902
0.0023961
0.00916657
0.00243709
0.00210989
0.00349628
0.00169725
0.00672575
0.0167842
0.0043697
0.00122977
0.0193313
0.00430662
0.0140005
0.00343511
0.000436236
0.0184535
0.00110648
0.000794313
0.0112944
0.0151181
0.00195511
0.00475237
0.0116143
0.00163079
0.0042997
0.0129383
0.00675395
0.0112489
0.0130273
0.0127449
0.000973969
0.00114632
0.00176337
0.00128607
0.0142031
0.000997052
0.000754134
0.00762934
0.0139062
0.00609112
0.00426735
0.00147169
0.00547505
0.000861162
0.0113117
0.013926
0.0140326
0.00209389
0.00115837
0.00497088
0.00182472
0.00072795
0.00211207
0.000137901
0.0135812
0.00260366
0.00146745
0.000901662
0.00314368
0.00105222
0.012445
0.00172208
0.0144804
0.0122865
0.0028521
0.00192751
0.0114983
0.0118932
0.0214949
0.0017081
0.00218029
0.00116541
0.00198494
0.000872803
0.0142414
0.00263499
0.00600174
0.0139491
0.000761733
0.0120439
0.00120782
0.0024171
0.00460285
0.00361136
0.00255855
0.00274553
0.00381235
0.00354589
0.0131998
0.00110508
0.0107194
0.00129628
0.000979684
0.00394895
0.00271461
0.00202002
0.000811831
0.0130327
0.0165606
0.0143955
0.00091302
0.0138059
0.0146958
0.00874855
0.00628908
0.00112726
0.000804553
0.000715218
0.00061756
0.0121104
0.0152848
0.000753541
0.00688166
0.00208403
0.0200882
0.0132046
0.00364519
0.00310685
0.00284674
0.0129838
0.00193219
0.00713326
0.0110127
0.014575
0.000132236
0.00400916
0.000144213
0.00972659
0.0138872
0.00216815
0.0127355
0.0125544
0.0162258
0.00949882
0.00327325
0.011877
0.000669072
0.00240841
0.000350076
0.00124843
0.000817793
0.0136008
0.0124756
0.00856285
0.0119147
0.0123578
0.0196352
0.00052382
0.000998689
0.0142597
0.00205977
0.0107555
0.00232426
0.013624
0.0140126
0.00202229
0.000768412
0.00190406
0.00178429
0.001737
0.00230509
0.00203575
0.00193697
0.00187936
0.00195202
0.000192598
0.000152294
0.000146345
0.0001716
0.000126275
0.000151567
0.0136048
0.00275508
0.0133887
0.00269898
0.0097873
0.000743257
0.0014053
0.0126702
0.000912335
0.00180543
0.0138223
0.00197841
0.00305755
0.00768758
0.000152726
0.00211442
0.00163768
0.0114476
0.0135609
0.00325766
0.0107772
0.00294918
0.00563962
0.0151023
0.0148771
0.00319785
0.00123852
0.00335024
0.016954
0.00328177
0.0122704
0.00777359
0.00218809
0.00958011
0.000749534
0.00235721
0.00140243
0.000670016
0.00448652
0.00147914
0.00093321
0.00363613
0.00124998
0.000946363
0.0181784
0.0115001
0.00251499
0.00390994
0.0116189
0.00318129
0.000930383
0.00647545
0.0111984
0.00799972
0.00839385
0.00317427
0.0015114
0.00435423
0.00758904
0.000348623
0.0126508
0.00366445
0.00361207
0.0120337
0.000697911
0.00270021
0.00222334
0.0017173
0.0107693
0.00634761
0.0143486
0.0075131
0.00195382
0.0100163
0.0203083
0.00242891
0.0154447
0.00165634
0.000696396
0.0010327
0.0013686
0.00269053
0.00109684
0.0149634
0.0139029
0.00341089
0.00588835
0.0138612
0.00397636
0.0126839
0.00270272
0.00390162
0.00549918
0.00302643
0.0116557
0.00072645
0.00379188
0.0061728
0.00566394
0.0126053
0.00144312
0.000789263
0.00139015
0.00281217
0.0100388
0.0142501
0.00534823
0.0113945
0.00802077
0.00168215
0.017231
0.00136032
0.00412874
0.00500835
0.00237881
0.0013198
0.0112164
0.00162402
0.00124725
0.00305601
0.0116227
0.00254685
0.0138783
0.0082593
0.00500299
0.00165154
0.000913501
0.000200765
0.0130057
0.00317821
0.0126329
0.00889705
0.0127181
0.0135093
0.0141309
0.00189918
0.00104869
0.00180533
0.00138157
0.010213
0.00198866
0.0137514
0.0185841
0.00241491
0.00515829
0.0141211
0.0121553
0.013058
0.00118748
0.0088617
0.00460386
0.00220215
0.00634184
0.00445485
0.00490395
0.00572598
0.00178724
0.015394
0.00353785
0.00155054
0.011325
0.00682474
0.0098366
0.00509814
0.00761653
0.00960981
0.0113807
0.0134091
0.00400163
0.00150189
0.00311017
0.00383292
0.00159622
0.0140047
0.00887948
0.0130106
0.0136531
0.000672238
0.00132445
0.00245116
0.0131317
0.00175111
0.00197316
0.0112398
0.0138794
0.0122582
0.00213117
0.0139021
0.011516
0.0142764
0.00561392
0.00348772
0.000737872
0.000670816
0.00157608
0.00270932
0.00226855
0.00257495
0.00340521
0.0162569
0.0136191
0.00104441
0.00508334
0.0126969
0.00346496
0.00246579
0.0029195
0.00168552
0.0141444
0.00636182
0.00125702
0.000606809
0.0181535
0.00939205
0.0123512
0.000857978
0.00172993
0.00413626
0.00647319
0.010741
0.00145867
0.00121165
0.00239011
0.017414
0.000150407
0.00816864
0.0142404
0.00435699
0.00386686
0.00619628
0.0118284
0.0131815
0.00196926
0.00376908
0.000845829
0.00879667
0.00168309
0.00156971
0.0113994
0.000356285
0.0107062
0.00111929
0.0123864
0.000896153
0.000890307
0.000136345
0.00739837
0.0020721
0.00288116
0.00155648
0.0134396
0.00169079
0.0018841
0.00402996
0.0122204
0.00232274
0.00246531
0.00199909
0.00166578
0.00247059
0.0110797
0.0175432
0.00150336
0.00994375
0.0019544
0.0010115
0.00164696
0.00246598
0.00254506
0.00953925
0.00148266
0.00189992
0.00208653
0.00250047
0.0131231
0.00244682
0.000353433
0.00262544
0.00244247
0.00166027
0.00143155
0.00964036
0.00401319
0.00114613
0.00205081
0.00232146
0.00311803
0.000354937
0.000261015
0.0121265
0.0101143
0.00227227
0.00399472
0.00123726
0.00114313
0.000813765
0.00304698
0.000711151
0.000733912
0.00124509
0.00118683
0.000948934
0.0015118
0.0179648
0.00238249
0.00212792
0.0139278
0.0032906
0.0116567
0.0126733
0.00162516
0.00263755
0.00126817
0.00118212
0.00464619
0.000687681
0.00325578
0.00058474
0.000953817
0.000499725
0.00153121
0.000909376
0.00516526
0.000340099
0.00238727
0.00284545
0.00173281
0.00188268
0.000722526
0.00128379
0.000917588
0.00115857
0.00160262
0.000658869
0.000800786
0.00166201
0.00175124
0.000736364
0.000275777
0.00140449
0.00175028
0.00120658
0.000696397
)
;

boundaryField
{
    frontAndBack
    {
        type            empty;
    }
    wallOuter
    {
        type            nutkWallFunction;
        Cmu             0.09;
        kappa           0.41;
        E               9.8;
        value           nonuniform List<scalar> 
96
(
0.0001074
9.00257e-05
8.51595e-05
0.000199215
0.000201933
0.000198652
0.000126686
0.000112901
7.67508e-05
0.000183407
5.74496e-05
0.000158783
9.68756e-05
0.000208813
0.000170741
0.000197645
0.000196634
9.67407e-05
3.2189e-05
0.000139384
4.21198e-05
0.000149295
9.80474e-05
0.000209832
0.000189192
9.65705e-05
0.000106879
0.00010254
8.93199e-05
9.48894e-05
0.000110087
0.000105674
7.50561e-05
8.96047e-05
8.02829e-05
8.10975e-05
8.38269e-05
0.000119753
9.08856e-05
7.96305e-05
7.92686e-05
9.51343e-05
0.00010008
9.48286e-05
9.43737e-05
9.06377e-05
9.12754e-05
9.0954e-05
9.41726e-05
9.52794e-05
0.000118281
9.05793e-05
8.76072e-05
1.41498e-05
0.000169659
9.15235e-05
0.000130088
9.64553e-05
8.60593e-05
9.05133e-05
0.000218809
1.32413e-05
1.4799e-05
0.000243292
0.000232086
0.000259349
0.000228194
9.22889e-05
0.000215868
0.000203309
0.000198323
0.000257386
0.000229602
0.000219321
0.000213287
0.000220895
2.16799e-05
1.59631e-05
1.51359e-05
1.87595e-05
1.22911e-05
1.59024e-05
8.93259e-05
1.62742e-05
8.07959e-05
8.40578e-05
0.000167032
2.22785e-05
0.000224696
0.000223081
8.8764e-05
8.08735e-05
1.56765e-05
0.000222692
0.000131735
1.37305e-05
)
;
    }
    inlet
    {
        type            calculated;
        value           nonuniform 0();
    }
    outlet
    {
        type            calculated;
        value           nonuniform List<scalar> 9(0.0178298 0.0165122 0.00171786 0.0162927 0.0108581 0.00628908 0.00216815 0.00318129 0.0111984);
    }
    wallInner
    {
        type            nutkWallFunction;
        Cmu             0.09;
        kappa           0.41;
        E               9.8;
        value           nonuniform List<scalar> 
126
(
0.000195001
0.000146249
0.000177079
4.2663e-05
4.25552e-05
4.91493e-05
2.69157e-05
2.62497e-05
0.00011965
5.54291e-05
7.79322e-05
0.000134936
0.000402579
0.0001306
2.97921e-05
9.85393e-05
0.000160155
9.86055e-05
9.29465e-05
5.04932e-05
4.88161e-05
0.000110009
0.000186766
8.19539e-05
0.000142622
0.000128761
0.000151497
3.7834e-05
3.35526e-05
3.80779e-05
0.00014164
0.000194917
0.000280515
0.0001357
0.000290895
4.90458e-05
9.58941e-05
0.000144753
0.000117662
4.69489e-05
4.95973e-05
0.000164979
7.89085e-05
4.71835e-05
0.000119585
9.90972e-05
3.88847e-05
0.000306306
3.14474e-05
0.000155053
0.000173808
3.21155e-05
0.000234516
6.84064e-05
0.000124426
0.000177107
5.49536e-05
0.00020493
0.00017256
0.000129486
9.63448e-05
7.29821e-05
3.29865e-05
0.000150386
7.13899e-05
0.000101447
0.000142417
0.000152347
7.61995e-05
0.000216385
0.00015517
0.000134667
0.000100214
0.000107885
0.000104787
9.13886e-05
9.37032e-05
0.000196376
0.00014745
0.000179585
0.000117916
0.000185349
0.000128458
0.000196239
0.000146623
0.000198
0.00019049
0.000119763
2.87796e-05
0.000201159
0.000178534
0.000208675
0.000167002
0.000122267
0.000144419
0.000234888
0.000103412
0.000221034
0.000106893
0.000105953
0.000148063
0.000138905
8.36179e-05
7.19031e-05
0.000114297
6.11837e-05
0.000109537
4.03744e-05
0.000266084
0.000312066
0.000198106
0.000213732
8.68947e-05
0.000109275
0.000136266
0.000184185
7.93623e-05
9.60329e-05
0.000190587
0.000200156
8.80385e-05
3.22701e-05
0.000162827
0.000199677
0.000141467
8.35445e-05
)
;
    }
    procBoundary3to1
    {
        type            processor;
        value           nonuniform List<scalar> 
48
(
0.0121437
0.00497045
0.00655837
0.0105248
0.00370747
0.00370878
0.00497045
0.00793175
0.013819
0.00138774
0.00138774
0.00140175
0.00140175
0.00152994
0.00198631
0.00132058
0.00112976
0.00112178
0.00112976
0.00118158
0.00112435
0.00103784
0.00118158
0.00227649
0.00132433
0.00100307
0.00160011
0.00103784
0.00313589
0.00113623
0.00113623
0.00574244
0.00574244
0.013819
0.00115262
0.00304938
0.0101677
0.00132433
0.0133697
0.00325387
0.00152994
0.0121496
0.013258
0.00118158
0.00199307
0.00106679
0.00371936
0.00133989
)
;
    }
    procBoundary3to2
    {
        type            processor;
        value           nonuniform List<scalar> 
29
(
0.00106935
0.00106935
0.000289352
0.000287722
0.000881407
0.000440078
0.000211585
0.00114696
0.00160216
0.00108697
0.000765743
0.00115163
0.000646007
0.0013771
0.00152097
0.000894066
0.00181027
0.00190157
0.00126356
0.00167099
0.00168816
0.00181027
0.000202513
0.00190157
0.0010063
0.00105976
0.00190157
0.00162125
0.00162125
)
;
    }
}


// ************************************************************************* //
