/*--------------------------------*- C++ -*----------------------------------*\
| =========                 |                                                 |
| \\      /  F ield         | OpenFOAM: The Open Source CFD Toolbox           |
|  \\    /   O peration     | Version:  v1912                                 |
|   \\  /    A nd           | Website:  www.openfoam.com                      |
|    \\/     M anipulation  |                                                 |
\*---------------------------------------------------------------------------*/
FoamFile
{
    version     2.0;
    format      ascii;
    class       volScalarField;
    location    "0.89";
    object      k;
}
// * * * * * * * * * * * * * * * * * * * * * * * * * * * * * * * * * * * * * //

dimensions      [0 2 -2 0 0 0 0];


internalField   nonuniform List<scalar> 
5794
(
0.0443803
0.0533955
0.442812
2.51196
2.76142
0.102789
0.352026
0.12396
1.5372
0.0453233
0.909321
0.26718
0.376471
1.82798
0.0903924
0.155119
6.43572
2.01539
0.0754989
0.0308852
1.0081
0.0682101
0.719814
0.115633
0.425562
2.11237
6.42463
2.41571
2.05613
0.0697859
0.291277
0.529239
0.761649
0.0851857
0.157679
0.24164
0.196661
0.682007
0.944401
2.82837
1.3183
0.44843
0.277896
0.414947
0.0855049
1.10303
0.696503
0.350695
0.0374132
0.0972362
0.233107
1.40814
0.0712658
0.0758281
0.00993121
1.05242
0.633224
0.506045
0.217811
3.51468
0.935148
0.0383039
0.24935
0.896573
1.28479
0.0550668
1.74673
0.459265
1.86526
0.0313674
2.36035
1.77975
7.37628
0.145591
1.9166
1.56717
0.0988342
1.61421
0.369082
0.0957364
0.0495381
0.0251747
1.01268
0.704391
0.474689
0.837504
0.522193
1.06816
0.174609
1.07217
2.48477
0.762086
1.58744
2.58466
1.03118
2.43164
1.90678
1.38858
0.705161
1.02176
0.896788
0.31676
0.248436
2.43428
0.582587
3.51049
0.0325831
0.6406
1.58344
0.325004
0.0719153
0.049096
0.914422
0.104632
0.876451
1.97181
0.0897026
2.39503
0.857139
0.497889
2.86512
0.0395376
0.22354
2.0496
0.0665696
1.42143
1.55073
0.129855
1.63
0.693182
0.28382
0.428828
0.961728
1.42431
3.42422
0.0951343
2.01069
0.0405623
0.379147
0.0632078
0.115193
2.24282
0.076675
2.41446
0.420142
6.55826
1.11605
0.903502
2.05366
1.41906
0.314434
0.0574464
3.50167
0.226924
6.87898
0.888589
0.776627
0.47444
1.39057
0.515625
0.0365705
0.110691
0.0459735
0.159458
1.14712
1.24457
0.180554
0.10599
0.0473967
0.0272407
0.0408492
0.819283
0.121313
0.0916834
0.058532
0.552085
0.0362369
0.306033
0.0687579
1.29724
0.142929
0.513602
0.153549
0.912658
0.181027
3.60159
0.352506
0.452236
0.0269905
0.24741
0.923854
0.479829
0.730711
0.200345
0.382078
0.243528
0.185542
0.0878272
0.0453169
0.276156
0.408736
1.22655
0.267836
0.246855
0.719778
1.11874
0.18277
1.10638
4.89453
1.00531
0.281445
0.312784
0.289592
0.161099
0.0965352
0.289044
0.466786
1.17758
1.07971
2.1922
0.305829
0.903014
3.83551
1.53498
1.96283
3.53991
0.237589
0.0615814
0.0362643
0.0988364
0.117482
0.0950682
0.0672407
1.16033
0.918581
4.81288
5.75461
0.871026
0.338146
0.0688194
0.0292066
2.19106
0.978881
0.78658
0.304293
0.153274
0.0829245
1.79905
1.37058
0.947744
0.531613
0.0601612
6.5896
0.0327614
0.211311
5.5865
0.264268
0.426513
0.791727
0.0629278
1.48916
0.284612
0.159726
0.0480367
0.516793
0.457661
1.91572
1.70396
0.0522484
1.37223
0.895154
0.291232
0.744881
2.05734
0.397408
0.0835512
0.0728965
0.115189
0.0320857
0.376658
0.178294
1.71839
1.13249
0.340691
2.05624
2.39251
1.05317
1.3105
2.94208
2.92918
0.184653
0.117926
0.0876846
0.0672818
0.203512
1.98426
0.874272
0.254131
1.2989
0.0639313
0.0244886
0.772123
0.0559445
1.231
0.193089
1.60419
0.0300714
1.54417
1.34972
0.889038
0.38352
1.16227
1.11396
0.107105
0.292405
0.59387
0.827126
2.72375
1.54107
2.42726
0.376877
0.261611
2.18293
2.59369
0.193688
0.633321
0.148484
0.254583
0.382936
0.841381
1.20168
0.280616
0.219108
0.613283
0.439765
0.0334807
0.0384612
0.042911
0.0255258
0.335712
0.0911561
0.360023
1.41729
0.624982
0.0427532
0.138421
1.20369
0.602183
1.43347
0.84306
1.15928
3.29017
0.775183
0.477512
0.172958
2.72239
0.0459753
1.28319
0.369945
0.139136
0.978812
0.630806
1.78929
0.415764
0.171119
0.297551
1.12801
0.984422
0.612012
0.4162
0.0787666
0.0428894
0.308627
0.312983
1.24214
1.29814
0.87732
0.574489
0.715191
0.0299382
0.27651
0.0765213
0.322925
0.211293
0.136812
0.0802369
2.63985
0.335338
0.142967
0.20617
0.102854
1.09076
0.02714
0.233952
0.0942877
0.0750618
0.051017
0.129946
0.0736857
0.645094
0.0999387
0.337238
5.18758
0.0755707
0.0587045
1.11566
0.398498
0.102956
0.0417535
1.90698
1.38546
0.680676
1.262
0.610653
1.20682
0.787733
0.172404
2.00343
1.0879
1.77712
0.68694
1.31456
0.918818
0.0818169
0.153851
0.109338
0.0598334
0.09853
0.0335105
0.0499184
1.4088
0.224147
2.18249
1.34653
0.0761728
0.0728468
0.283246
0.533669
0.172315
0.11637
0.0734318
0.269556
0.22948
0.179549
0.11832
2.19742
0.941357
0.308028
0.0475623
1.29815
0.0438937
0.0388247
1.39184
0.0630722
1.96537
0.0405758
1.94752
2.50383
1.27852
3.63534
0.0749127
0.0561315
0.362795
0.192882
1.1202
0.69607
4.32462
3.95409
1.01715
0.296558
0.0257038
5.60744
1.5765
0.0487799
0.0636127
1.82042
6.60729
2.73223
0.210793
0.0509016
0.654326
0.0732904
0.0487305
0.0410553
0.920297
1.12592
0.311814
0.129964
2.79312
0.0533971
0.0393082
2.25955
2.07467
2.31629
0.376034
0.0686808
0.0688294
0.0811237
0.210754
1.00308
4.45616
6.44265
0.265329
0.435685
2.48896
0.0578077
0.0805717
0.619764
1.45108
0.0633443
2.39654
0.0297104
0.353122
0.0412252
0.102742
0.800612
1.77563
0.0399762
0.222805
5.2308
0.116941
0.04691
3.36726
2.4775
0.762038
0.0640658
0.29359
1.04736
0.0436739
0.0827329
0.520111
0.0452163
4.17793
0.0801032
0.123657
0.0936931
0.240226
2.30086
0.673147
1.2261
0.0580137
1.56924
0.0285028
1.6744
0.20377
0.177444
0.214836
2.41906
0.0876655
0.109896
2.54154
0.0380836
0.0429984
0.214362
0.129244
0.10877
0.493058
0.0838968
0.0431919
1.98946
9.82174
0.0496266
1.45383
0.0567632
1.66393
0.134701
0.104994
1.12444
0.0637447
0.0615129
1.23592
0.916346
1.4556
1.19869
1.51672
0.292033
4.05164
1.74408
0.356842
1.10302
2.10789
0.869234
3.01388
4.05753
1.72708
0.91555
0.0884014
1.74468
0.747707
2.2057
0.0643991
0.125355
0.0458102
2.35446
0.928036
1.1774
0.0250713
0.293617
0.0375469
0.105705
0.0428632
1.37738
0.951677
2.53796
0.049962
0.512185
2.36203
0.0352292
0.0113552
0.789728
4.39968
5.58501
2.20502
0.146688
0.130505
0.170045
0.914768
0.589372
0.268782
1.26351
0.0285145
1.24131
1.66145
0.892543
0.031613
0.0803529
0.329507
2.33624
2.24859
0.0826732
0.0535507
0.0313611
0.0226072
0.13366
0.0443096
0.0486211
1.76925
0.487385
0.0516514
2.56377
0.22965
0.286863
1.11661
0.801724
1.99183
2.77828
1.08986
0.73711
0.0715897
0.0406546
0.0917939
0.250894
0.0798631
0.139172
0.125683
1.60688
5.84585
1.11737
2.0983
0.38777
0.0363916
0.0456453
0.0710728
0.880268
0.0468875
1.26821
3.03666
2.48279
1.07473
1.2142
0.892129
0.153886
5.09604
0.764792
0.645759
1.03267
2.74157
0.213757
2.25232
0.134015
0.0518982
1.17759
0.0834719
0.223565
2.03233
2.06763
2.27642
0.08047
0.0361373
0.0418761
1.73257
3.96732
1.61403
1.24213
0.0669011
0.954012
1.10991
0.0317247
0.0892273
0.289935
0.0285019
0.281125
0.0439073
0.446067
1.93399
2.40864
1.39019
0.0436158
0.0813172
2.94735
0.512462
4.01636
1.35272
1.60088
1.41777
0.373814
0.267145
6.93118
1.26378
1.4384
1.91394
2.10689
2.33523
0.0976661
5.01821
0.195988
0.364001
0.506951
2.89515
0.639331
1.16304
1.12384
3.02601
0.82666
0.0671412
0.185868
4.69856
0.755762
0.745175
1.52472
2.22787
0.0320282
0.0512993
0.0244975
0.127756
2.17455
1.03357
2.58433
0.118796
0.283211
0.10137
0.200812
0.0852991
0.0406691
0.906198
2.33802
0.206917
2.75982
1.07603
0.259583
0.139837
6.70436
2.0863
1.21751
3.0943
2.55953
1.10717
1.44584
0.349763
1.60303
0.721264
2.09352
1.73455
0.0772842
0.165992
0.0600328
0.0519829
0.226434
2.72063
0.108386
1.27666
6.31079
0.367205
0.0850762
0.0536124
2.17312
0.955706
1.26916
2.26048
0.910328
0.410518
2.27799
2.13019
1.22869
0.188323
1.04873
0.0401146
2.03054
0.0558889
1.76209
0.303758
0.901288
0.20257
0.10941
0.0837766
0.0608236
1.24559
1.62955
1.67022
4.27976
1.31444
0.115307
0.275134
0.635572
3.90181
0.103215
0.492982
0.698256
2.54807
0.0440737
0.0854677
0.504782
0.864294
5.19888
0.086668
0.385995
0.0510643
0.0486867
0.06476
0.775444
1.88053
2.09932
0.282817
0.07936
2.58254
0.0510936
0.348136
7.73387
0.0443656
0.0168885
0.12514
0.0354467
1.02612
0.429428
0.497911
0.0876838
0.125457
0.218655
0.316535
6.59672
0.998559
2.68336
0.880885
1.17092
1.65709
1.1269
5.09162
1.33269
0.101941
0.04836
0.206955
2.02076
0.249322
0.0626915
4.11962
1.47361
2.00458
0.858908
0.078515
2.58167
0.395945
0.348533
1.33695
0.106612
3.18241
0.0446973
0.0792186
1.37045
0.389737
0.230822
0.189313
1.65743
0.67616
0.262355
0.0515538
0.0792808
0.792165
1.75781
0.294625
0.299342
1.00754
0.130398
1.15174
2.97376
1.89381
2.37637
2.25715
0.0497857
0.0358826
1.2216
0.0777894
0.0503103
0.0420891
0.130767
0.756825
0.0337287
0.254285
0.0794139
3.03997
1.31063
0.775222
0.275867
0.520872
0.994272
6.24059
0.769543
1.65252
0.234387
0.0684261
5.89402
0.372332
1.1303
0.262253
1.31257
0.803332
1.02409
0.0817245
1.63099
1.13214
0.120238
0.069558
0.0442076
0.0593433
0.0298327
0.731046
2.70622
3.36204
1.69169
0.686245
1.28087
1.87837
0.322184
0.0440098
0.0923988
1.10204
0.0726275
5.82275
1.22386
2.03974
0.246398
2.6203
1.10545
0.0458163
0.0586972
6.14633
3.46265
0.30513
0.375517
0.473923
1.58231
0.0663234
2.8219
0.0516238
0.138261
0.106496
0.0442343
0.0401734
0.053502
0.143926
0.0636764
0.0378687
0.064369
0.264355
2.45361
0.215858
0.0353361
0.0799467
1.18014
0.299683
0.513317
0.0910467
0.628165
0.0522666
0.641091
0.200201
0.114678
0.077443
0.490263
1.5176
0.068149
0.304313
0.0712655
0.143853
0.29183
1.22725
0.430929
5.12942
1.85241
0.0634448
0.318541
0.531187
2.46723
0.537624
0.89149
1.13498
2.44191
0.102582
0.228976
0.0752937
0.0900188
0.416907
0.3953
1.84555
1.7153
1.36376
0.0138022
0.722382
1.47823
0.878177
0.829582
0.947788
0.0320395
0.0724055
0.0474445
0.722772
0.302564
2.41416
0.200865
0.518563
0.196742
0.204859
0.287255
0.373092
0.0449777
0.0805387
1.80078
2.15369
0.758051
0.0314225
0.274523
1.25309
0.0678538
0.0549772
0.0693706
0.125497
0.870893
0.0768419
1.41508
0.0378235
0.311377
1.08482
0.0528611
3.37051
0.28716
0.0491776
0.38078
2.64019
0.051761
1.58593
0.126772
0.096813
0.0533593
0.141759
0.0284064
0.0597844
0.309284
0.0637541
0.0298023
0.0706934
0.107831
0.151447
1.64711
0.544659
0.267794
2.47391
0.959386
0.0372069
0.0472028
2.83313
0.414622
1.22091
3.05202
0.0489314
0.500933
0.0466738
3.85172
0.0417554
1.62851
0.03969
4.52495
1.13552
0.0296876
0.662455
0.0485214
0.216635
0.127567
0.139422
0.620102
0.643757
0.0415169
0.675884
0.0182613
0.0346076
0.213474
0.056017
0.0870523
1.85751
0.24744
1.1414
0.0309681
1.17045
0.0357067
0.0980852
0.0505626
0.198745
2.15708
0.404749
0.220215
0.572892
0.250087
0.423065
5.3704
2.26917
0.0439883
0.332223
2.07411
0.865395
1.56441
0.239423
1.9065
2.07109
1.48526
0.492671
2.46566
0.265829
0.264546
0.0493734
0.131314
0.194942
0.0650818
10.2185
0.692285
0.0569454
0.203122
1.69348
1.65012
0.271248
0.0696097
0.290277
0.529567
0.141671
0.0626105
3.25703
0.173883
1.39404
0.481501
2.60585
0.0494589
0.125578
0.125299
0.357121
0.230947
0.600845
0.0447364
0.793265
0.0668114
4.94634
0.237136
0.290325
0.191095
0.482764
0.29253
0.391755
0.333071
0.193461
0.147266
0.118596
2.15046
0.291288
0.214427
0.030834
0.0485828
0.612386
2.01979
0.660841
0.0915371
0.31045
0.253175
0.168363
0.254655
0.238903
0.342698
0.299116
0.322813
0.553552
0.0453804
2.2578
0.0443791
6.32432
0.0522456
0.0308704
0.0481135
0.0876932
0.0489309
1.2932
0.0627859
0.230058
0.123863
0.181986
0.661679
1.99235
1.09847
0.0365211
0.0564894
0.176106
0.268255
1.67001
1.12966
0.224227
0.281663
0.023945
2.23457
0.213206
1.03757
1.58185
0.177624
0.280441
0.651803
0.0746241
0.0385151
2.12429
2.46883
0.630493
1.00023
0.479003
0.451835
0.0349733
2.31988
6.58865
1.94755
1.2058
0.0607194
0.101855
1.09009
0.304604
0.229192
0.0337925
0.337525
1.1871
0.214916
0.0497718
0.496887
0.0834791
0.0479038
0.114374
0.260834
2.10994
0.0834416
0.511142
1.45709
3.47799
3.56641
0.144557
0.871834
0.197782
2.24155
0.25724
2.00986
2.61369
0.875818
1.63262
0.174419
2.40957
1.31901
5.68938
0.191473
0.0585946
0.0506602
3.86576
0.185145
0.105034
1.56616
0.741973
0.14932
1.20535
0.824341
0.269196
2.41106
0.163678
0.0307496
0.257449
0.33508
0.0528472
0.111374
1.24565
0.293956
1.52647
1.29005
1.70451
0.0413179
3.32751
0.224785
0.994787
0.660425
0.265808
0.18944
0.0635824
2.18049
0.0737739
0.0681988
0.0383999
3.3332
0.0293956
0.275687
1.72503
4.11105
0.1093
1.70532
4.67021
0.126928
0.277972
0.0234747
1.1058
0.422728
2.3609
2.52572
0.120096
0.146213
0.998931
1.3657
0.627257
1.68738
1.08354
1.39148
0.975058
1.33159
0.164254
0.0653997
1.03925
0.0762706
2.55449
0.0363001
0.0984225
0.043666
0.52984
0.337346
0.119505
0.0596347
0.151809
0.220652
0.0455711
0.0688653
0.052047
0.263642
0.380693
1.00854
0.924238
0.0912394
2.93926
1.35646
2.0399
0.437082
0.0820931
0.965222
0.0634203
0.0401622
0.0235757
0.0402555
10.6479
0.32328
1.16447
0.67927
1.80816
1.98063
0.565106
0.021494
0.0214628
0.0496281
0.0478186
0.0944196
0.0860101
0.101772
0.058555
0.0922913
0.137251
0.110205
0.0568418
0.057328
0.0335425
0.0362982
0.103982
0.106549
0.0949666
0.0682766
0.0468521
0.0676899
0.027212
0.0394208
0.0121405
0.261493
0.0582346
0.0481799
0.0280555
0.127746
0.0376815
0.0650897
0.0533726
0.0367477
0.0375569
0.0380284
0.024809
0.0810746
0.0291051
0.0549944
0.181441
0.0332108
0.028183
0.0494121
0.0669981
0.351726
0.478338
5.29754
0.0461709
0.524609
1.07898
2.3588
2.55116
0.0492006
0.0648749
0.388461
0.0481255
0.753084
2.22589
8.58271
3.63751
2.52256
0.884026
0.0294443
0.0283531
0.120223
0.0478128
0.0505931
1.07346
0.214925
0.36491
0.107075
0.468968
1.00985
1.00814
0.160648
1.26022
0.632977
9.45045
0.0840365
0.283519
0.169709
0.335289
2.9739
0.112608
1.02333
1.82322
0.896774
1.32625
0.64845
0.633503
0.335711
0.327944
0.362151
11.6601
0.0783474
0.0775984
0.0523677
1.96889
2.60797
0.0269106
1.65697
1.96906
0.0600005
0.0872552
0.114469
0.0558254
0.0393071
0.0936165
0.119806
0.0338916
0.0355573
0.152484
0.0709474
0.0509826
0.0217945
0.0662638
0.0320145
0.0524565
0.0618578
0.0376657
0.0857415
0.0306825
0.028276
0.0238686
0.0441986
1.25176
1.40507
0.181397
0.460587
0.444841
0.362255
1.918
0.0486523
1.42316
2.53653
0.420988
1.14432
2.66536
0.237484
0.0244942
2.66791
0.954756
0.0589863
6.83014
2.26104
2.30748
0.0378851
2.91866
0.769094
0.0656931
2.95122
0.361463
1.5464
0.191287
0.249129
0.16293
2.05485
0.0545872
2.02701
3.4031
0.245394
3.08032
0.0572249
2.97456
0.0591112
0.141958
0.0399812
2.1792
0.050332
0.0650403
0.291005
0.0661974
2.96871
0.315589
1.73478
0.37411
0.679864
0.616329
6.06465
0.0317147
0.279705
0.302418
2.53255
1.13587
0.0490787
0.046656
1.04407
0.578999
2.80867
0.307992
0.0736085
0.306885
0.120106
0.588345
0.0590292
1.79199
0.51775
0.0139991
0.0244664
3.01911
2.63787
0.328016
0.669366
1.96658
0.27506
2.808
3.87258
2.17901
2.81214
2.19403
0.0705555
2.07641
0.0569628
0.138612
0.067382
1.90966
0.25104
0.250091
0.293278
2.83166
0.628113
0.0577949
0.0929768
0.104953
0.751762
2.00417
2.82112
4.46153
1.51943
0.618051
2.43049
0.265574
0.799093
0.768987
0.920783
1.94049
3.05661
1.18842
2.8364
1.043
3.14963
1.30089
0.195425
1.22481
0.972486
0.475682
0.51804
0.418328
3.6253
0.701591
0.349454
1.5034
0.952141
1.31826
0.275307
0.30385
6.39221
0.637795
2.28311
0.900292
0.0889671
0.0435244
0.101059
1.50997
0.0600244
0.119743
0.147754
3.06065
3.18936
2.48668
2.15837
3.32617
2.71912
3.34523
0.0639999
3.37034
3.25253
2.90013
2.43816
3.15342
2.32087
3.28401
3.16233
3.26519
0.575076
0.54658
0.365763
5.24132
0.406488
0.230335
0.159252
0.233638
0.0292717
0.0353414
0.907079
1.89759
0.625363
0.0919801
0.131664
1.92217
1.81207
1.19527
0.470357
0.196405
0.227976
0.143984
0.18268
0.679323
0.173981
1.32511
0.139611
0.719515
0.319652
0.249092
0.0765335
1.0086
0.0891906
0.264714
0.305642
0.0294205
0.895458
0.197873
0.122701
0.17074
0.122517
0.104828
1.45488
0.106824
1.18599
0.876038
0.291689
1.2326
3.57181
0.110429
1.59142
1.0045
0.83664
3.59016
0.0661321
0.0948621
3.44651
1.17852
1.80999
0.11396
0.358596
2.07888
3.6082
1.65126
0.0960875
0.102582
0.0931645
1.06083
0.303219
7.0505
0.105197
0.404329
0.226879
0.106954
0.954418
0.0598957
0.27948
1.31164
1.45282
0.569044
6.7868
2.95489
0.0871167
3.10761
0.106828
0.246919
0.575306
0.0692397
2.04666
0.32329
6.5856
0.458296
0.216836
0.0714426
2.23099
6.35402
0.0761237
1.27954
1.71271
0.79034
0.366177
0.212395
0.0740293
0.239558
2.00783
1.28675
1.78147
5.23441
5.05084
0.155737
0.678257
0.215062
1.27098
0.369053
0.0852048
0.17515
2.04051
0.0516129
0.13139
0.104128
1.32729
0.202919
0.840177
0.224762
0.305164
0.41947
0.138146
0.391835
0.679341
0.134944
0.133552
0.474727
0.605847
0.090945
0.256642
0.158478
0.0853479
1.40605
0.281102
0.224128
0.504762
0.434638
0.0626834
0.219125
0.196788
0.371634
0.0598575
0.221771
1.2237
1.93907
0.312743
0.335779
0.147745
0.649968
0.444432
0.457727
0.124208
0.578228
0.420295
0.419479
0.081206
0.718315
0.652261
5.33484
0.34881
0.723002
0.572695
0.435846
0.468544
0.529194
0.354985
0.26096
0.587337
0.54646
0.442586
0.541537
0.59627
0.698603
0.326737
0.211221
0.371482
0.570251
0.174834
0.232787
0.664609
0.49147
0.413873
0.404786
0.329657
0.359103
0.328983
0.583003
0.253395
0.516752
0.0881856
0.133747
0.054308
0.189942
1.20033
0.236748
1.97756
0.423891
0.210886
0.455411
0.496943
0.348962
1.32759
1.29531
0.479859
0.156009
0.526154
0.125677
0.193573
0.103646
0.318246
0.256306
0.430429
0.217275
5.52538
0.612776
0.133582
0.481958
0.511708
0.208585
0.129682
0.0540603
0.0814518
1.41189
0.407359
0.141039
0.259824
0.558156
0.117615
0.0512194
0.0859429
1.89824
1.10678
0.239927
1.45066
1.62337
0.34371
0.152143
0.202603
5.51449
0.32902
0.109176
0.260572
1.3025
0.320836
0.426352
0.89995
1.38235
0.413827
0.731448
0.939766
0.111549
0.0459493
0.0793617
0.682317
0.263669
0.605292
1.40798
1.51659
0.226437
5.38573
5.22224
0.122691
0.223947
0.409253
0.242062
0.808621
0.229644
0.776304
0.680303
0.494072
0.436037
0.588645
1.12242
1.19961
1.75804
0.173955
0.741075
0.333254
0.175058
0.603696
0.0672731
0.0688269
1.82647
0.659661
0.398447
1.68797
0.0964944
0.295842
0.506538
1.28991
0.650883
0.778498
0.0923691
0.0411007
0.0911057
1.38121
1.93032
0.162841
1.43784
1.35122
1.27848
1.87153
0.30237
0.207971
0.0689598
0.157352
0.254041
5.30424
0.116454
0.763836
2.22746
0.207007
0.313134
3.80955
0.0444781
0.126058
0.335963
0.533889
0.554154
0.642176
1.39412
1.90611
1.01757
1.06737
1.11933
0.0615186
0.564056
0.309858
0.0422496
0.039906
0.0889797
0.269787
0.22834
1.16195
0.088361
0.0401614
0.0924006
2.00936
2.2142
0.0617319
0.0292143
3.57696
2.86351
0.705762
0.0532205
1.47281
0.270078
0.335563
0.0673773
0.28289
5.15731
0.111185
0.0798041
0.0693108
3.50108
2.11007
1.15069
0.128729
3.17198
1.90017
0.864945
0.404204
0.600148
0.447205
0.325238
0.424366
0.347929
0.454948
0.407435
1.96563
1.30824
0.123733
0.0931048
0.656473
2.40231
2.66926
3.40503
2.52561
1.73955
0.413753
1.31537
0.386937
0.364995
1.46618
2.46095
3.05324
3.49185
1.17284
1.71895
0.988746
0.997151
0.656022
0.084174
0.42132
0.0799343
0.0377846
0.0938883
0.285977
0.30921
0.261555
2.18702
2.69007
0.423198
3.17268
0.643957
0.662077
0.444565
0.17636
1.19959
0.576654
1.04061
0.459312
0.0987911
0.227709
2.77656
0.609718
0.315691
0.0513813
1.56616
0.407297
0.481815
0.197274
1.5578
1.63307
0.28613
0.436625
1.24396
1.31191
0.164292
0.129979
0.0240927
0.272687
0.083555
0.11223
2.97564
0.0947511
0.0585477
0.0932943
1.30002
0.132944
0.265775
2.54786
0.0781387
1.76127
0.395516
0.364854
0.397078
1.70964
1.77204
1.26728
0.389646
0.532586
3.43208
2.30118
0.0619284
0.240769
0.0950974
0.496171
0.965195
0.224443
0.105747
0.314866
0.236707
0.0453269
0.1393
0.516161
0.089821
0.309096
0.595677
0.398981
0.441718
0.225775
0.537923
1.72041
0.561594
0.795306
0.557245
0.235338
0.349244
2.83617
0.416168
3.12407
0.801906
0.460789
1.01243
1.0677
3.97785
0.827618
1.46403
0.316119
2.30288
0.588884
0.647481
0.107472
0.0756883
2.31444
0.689424
0.837211
0.475075
1.1446
0.641254
0.217351
1.80752
1.46647
1.50898
1.15976
0.622554
0.515865
0.0805155
0.0411137
0.0916337
2.30481
1.5722
1.32173
0.127449
0.0536297
3.38951
0.373028
1.94552
3.42372
2.88135
3.24861
2.58388
0.0556616
0.613673
0.290822
0.556983
2.2711
2.75798
0.0919638
0.786995
0.964944
0.653851
1.70695
0.118309
1.14908
2.13044
2.76661
0.503809
0.0749138
2.22935
2.13991
0.715607
0.663739
1.76312
2.90196
0.580012
0.0815422
0.484088
1.64946
1.50348
0.0583158
0.923158
1.6812
0.609883
0.193384
0.690161
1.47424
3.45992
0.43982
0.236842
0.0455073
0.075455
1.53494
1.61592
2.65345
2.71153
1.76668
4.4134
0.171622
0.309428
0.660046
2.63275
0.430166
1.85255
1.04194
0.084786
0.0956897
0.231785
0.0626106
0.0837042
3.20346
3.29525
3.0439
2.15471
5.06556
1.12025
0.706642
0.537822
3.29457
5.20228
2.13288
6.95556
0.201987
0.0683373
1.76067
3.35417
1.70517
1.2534
1.12285
0.611673
0.0757606
1.0889
0.0415526
0.0380463
1.91367
0.0913168
0.824163
0.0664059
2.48996
0.383764
1.15929
0.717393
0.829143
0.444461
1.44717
2.11862
1.40373
0.0512524
3.96164
0.446241
0.364296
0.0662163
0.0985445
0.179465
1.76966
2.80558
3.71342
0.190077
2.65357
3.95844
0.109765
1.15786
0.338804
0.385045
0.113113
0.31335
3.3437
1.52522
0.391391
0.351948
3.10504
1.19901
0.448196
0.877992
0.106871
0.759179
0.223366
2.77198
0.430211
1.92022
0.07518
0.0669498
0.36292
3.58563
0.941088
2.88046
1.7614
0.160162
0.250136
1.55852
0.437727
0.0760581
3.68663
0.131042
0.0768971
1.77065
0.316049
3.3275
0.116041
2.79498
2.48449
0.0588303
0.788659
0.399995
3.01092
2.5395
0.172331
0.773118
1.2727
2.80211
0.35964
0.29596
0.276039
0.257714
0.0423453
0.085307
2.50147
1.34228
0.712806
0.287521
2.67562
0.314517
2.52455
1.6753
0.141085
0.204888
1.61922
2.88833
0.0278594
0.0165074
0.0373139
2.71282
0.783221
3.00643
0.510908
0.400985
2.308
3.2368
0.0691667
1.16222
3.12984
2.05853
0.88071
1.93595
0.139017
1.74473
1.11234
0.0717563
0.0407302
0.0919832
0.777422
0.0866366
0.526385
1.36614
0.0761521
2.32665
1.06139
0.662496
0.621517
2.21869
0.35685
0.937021
0.0826484
2.16189
2.03088
2.33397
0.700888
0.0752179
0.0435067
0.0858004
1.27416
0.447995
1.10053
1.36977
0.441669
0.922717
4.68419
1.42026
3.02507
0.103038
2.55875
0.356338
0.151082
0.996294
1.35961
0.394452
0.164011
0.157904
1.06088
1.62655
0.128963
0.073662
2.60145
3.32299
0.601212
1.03886
0.780645
4.6822
5.49487
1.74568
0.0782833
0.774167
1.20088
2.25079
1.71527
2.7352
0.205506
1.52683
0.683594
1.42646
0.540747
1.32256
0.302663
0.805214
0.0329188
1.6526
0.491199
0.0620175
0.968231
0.344378
0.660594
2.10927
0.965423
0.0361562
0.168215
2.36234
1.75052
1.50822
0.818989
0.491752
0.153078
0.039672
0.0726913
0.0657368
0.108449
1.35682
0.089238
0.708934
3.26501
0.132437
0.06726
0.31754
0.307665
2.70689
0.0606959
0.0486538
0.0774591
0.324375
0.880663
0.151278
0.22609
0.028641
0.0648959
0.0708694
0.0938551
0.576609
0.306583
0.22994
1.25861
0.56031
0.230141
1.834
0.744952
1.13546
0.14889
0.152961
0.025568
0.0459885
0.0825638
2.65691
0.0781219
2.78329
1.93108
0.893086
2.28633
0.0759681
0.238419
0.158603
3.50706
0.376182
0.600016
0.0675218
0.0452441
0.0849186
0.198387
0.0927131
3.16178
2.13778
0.0534562
0.543038
0.0452062
0.446542
0.308349
0.54436
0.0585823
2.55004
1.51628
2.54561
2.92594
0.136833
0.159499
0.561868
3.65376
0.495452
2.33669
0.656819
1.52397
0.0885479
0.247185
0.0727017
0.657363
0.502622
0.685866
0.734401
0.0958702
0.0761601
0.550377
0.184041
0.201299
1.68888
3.20628
2.8826
0.760529
2.69717
0.474326
2.10857
0.570067
2.36362
0.308507
1.13081
0.0799015
1.74021
3.06705
3.54499
0.405401
0.0809437
0.158576
0.149677
0.03715
0.179044
0.39066
0.211406
0.633864
2.5525
0.0643968
0.123083
2.91823
0.262153
0.621407
1.5173
2.24479
2.39217
0.287458
0.56043
0.34492
0.256819
0.332172
0.283338
0.160848
2.03816
0.0617402
0.635583
0.44324
0.0701169
1.14478
0.0717492
0.0691506
0.0545971
0.0261077
0.0301319
0.118068
0.178506
0.211063
0.282754
0.033854
0.018986
0.0395139
3.04734
2.80988
0.359089
0.844061
0.259477
0.462153
0.610142
2.2808
1.59693
2.42967
6.25962
0.844491
1.86967
2.0352
3.61968
0.981098
0.0516054
0.0687128
0.05482
0.0456402
0.0687889
0.264336
2.18064
1.72827
0.0261295
0.11553
0.166901
1.33908
0.320665
2.04729
0.0292458
0.237922
1.4179
0.315052
0.60689
0.471729
0.0851289
0.0605087
1.32579
0.494305
3.66529
0.149118
0.448467
5.73459
0.227646
1.45063
2.75713
0.0590536
0.0735902
0.362995
0.0913412
0.053016
0.210985
0.0623478
0.115774
0.181573
0.148382
0.478577
0.0950463
0.294193
1.96128
2.51024
0.0482596
0.0485521
0.0690787
1.58281
0.825244
0.0844274
1.96429
2.04978
0.0738262
1.1813
1.37721
1.9832
3.51117
3.31182
1.39945
0.847161
0.0921611
1.09248
3.12646
1.81006
0.39123
0.0960956
3.52424
0.065263
3.10507
0.558661
0.0791967
0.347485
1.54327
2.7633
0.0542772
0.163098
1.21443
0.219631
0.35498
0.109078
0.572818
0.261574
3.84994
0.374969
1.82069
0.0654846
0.0465815
0.0762631
0.0476121
0.0281343
0.0303785
1.95064
0.0587281
1.92398
3.57885
0.339384
0.915112
5.82408
0.272563
0.203139
1.79078
1.09178
0.944665
6.87205
0.248892
4.03098
0.0707551
0.0436789
0.079118
2.95827
0.188149
0.0633412
0.0608571
0.0404014
0.064418
1.94734
1.80641
0.669138
0.252356
0.458625
3.32109
1.14304
0.590303
0.718411
0.746739
0.362761
1.84815
2.44059
2.11229
1.60679
0.0539661
0.42966
0.0991113
1.40034
0.10626
1.57047
1.35789
0.635026
0.644667
0.252985
2.25698
0.208986
0.037882
0.0674339
0.0894271
0.083799
0.859368
0.633115
1.48108
0.216274
0.484332
2.84512
2.88935
0.421407
2.34433
0.979102
0.0859659
0.108917
0.0557195
3.23478
0.521835
1.6855
0.546469
0.0642519
0.311488
3.24783
1.8711
0.209342
0.272166
0.972641
1.86569
0.115371
0.0411265
0.0621274
0.413623
2.40012
0.223687
1.11819
1.65471
1.582
1.58765
0.299399
0.218091
2.05233
1.70902
1.63687
0.0582999
0.40743
0.00957943
2.96729
0.00914808
0.427537
2.35918
0.99984
0.47701
2.07329
0.0513779
0.230797
0.510254
0.0111287
0.477702
0.0476891
0.0102117
0.312196
0.585883
1.98385
2.39139
0.663684
0.166186
0.0372823
0.0448665
0.013363
0.0122947
0.0228993
0.0713445
0.470889
1.7943
0.474948
0.536308
0.349642
0.918432
1.71398
0.581111
0.214055
0.0431127
0.189999
3.99745
2.22731
1.15624
0.170994
0.0742484
2.20677
0.0999774
0.356074
0.643971
0.696577
0.442136
3.21772
0.319376
0.451034
0.205086
3.39999
2.26271
0.0545468
1.27092
0.103977
0.175347
1.50033
0.18196
0.0311274
0.0285797
0.071562
0.0905925
0.135233
4.21662
1.45391
0.249314
1.67614
0.998788
0.376755
2.32529
2.53171
0.316368
3.7148
0.0899876
0.568534
0.0407611
0.509954
1.31088
0.0253098
0.383333
2.80179
0.199879
0.498567
0.0509992
0.0890592
0.592106
1.7807
1.2408
2.56238
0.404722
2.50961
0.0768925
0.467537
2.28973
0.210941
3.63174
0.442328
1.36604
0.425605
0.221629
1.96599
0.752016
2.56618
0.0464461
0.0293221
0.0605111
1.9983
0.278933
0.190675
0.106851
0.486024
0.515816
0.0283597
0.101366
0.225687
0.930937
3.12757
0.199245
0.11656
0.350119
2.23478
0.521891
0.421068
0.123823
1.55201
0.697995
0.116405
0.838394
2.72491
0.0269836
0.794683
1.22982
2.01537
0.807742
0.858002
0.399403
0.0768946
0.0697079
0.0568659
0.0508145
0.0677881
0.204666
0.305946
2.86223
1.43558
0.987033
3.28163
0.993779
1.33596
0.182637
0.296128
1.19278
0.162991
0.733969
0.192181
1.56403
3.68773
2.26857
2.03266
1.58791
0.542794
0.911267
0.613962
0.678258
0.0165645
0.0399953
2.1523
0.500093
0.122137
1.95604
2.40032
0.0767081
1.00357
0.825351
2.92872
5.04856
2.87521
0.029767
1.55813
0.0433543
0.056035
0.0728766
1.60985
2.6476
1.31375
0.0870731
0.464217
2.99263
0.243136
0.0272144
0.654368
2.35115
0.571051
1.61439
4.02866
1.37666
0.0768761
0.0586258
1.10285
2.10723
1.94111
1.96745
2.64572
0.207443
0.106462
3.63637
1.99846
0.0690042
0.0314902
0.0604746
0.0362144
0.131195
0.0755535
4.64949
0.966991
0.103141
1.18868
1.7211
0.196291
2.35615
1.83335
2.54897
0.278121
0.532992
0.292881
1.68324
0.800444
0.558524
3.47985
2.89436
1.14845
2.13895
2.57463
2.38367
0.0985308
0.100366
2.47759
2.55126
0.101593
0.0558141
0.0249492
0.0662574
0.595069
1.20443
2.01867
1.04509
0.0905011
2.48038
0.0380352
0.0639034
0.0791045
0.244796
0.131095
1.65014
1.77056
2.72193
0.243788
3.27505
0.0785147
0.286423
3.57959
1.71954
1.80549
1.22423
0.337391
3.56825
1.86035
0.0753705
0.216123
0.216473
0.39564
0.192141
1.38443
0.892646
0.521242
0.612672
1.84627
1.32924
0.337896
1.31252
0.0580158
0.0759748
1.22784
0.450649
0.362674
8.33256
0.309658
1.98161
1.78945
0.0495531
0.0512761
0.0652571
0.0548451
2.1621
1.74251
1.81061
0.175609
0.901522
0.229601
0.224911
0.641803
1.802
0.218966
0.267008
0.22287
0.0606681
0.0583241
0.0217042
0.0736477
2.09776
1.81132
0.178363
0.823272
8.66351
2.82772
2.92534
1.26398
0.0904423
0.973656
0.279493
0.462656
1.34599
3.14954
0.0832125
0.0907685
0.0316449
2.71539
1.37491
2.07557
0.13437
0.134271
1.24641
0.444424
0.033473
0.0465948
0.0639418
0.118191
0.280706
2.17517
1.81949
0.23431
2.28681
1.04566
1.66309
2.08456
0.344798
2.09914
0.207211
0.818637
1.80907
2.31965
1.5069
0.0528471
0.0622247
1.48001
0.234898
0.0578561
0.11312
1.2367
0.537616
0.527327
0.0413994
0.518433
0.0438613
0.528194
0.503137
0.508777
0.509206
1.65086
2.65725
0.849703
0.129577
2.67721
0.55138
0.0870693
0.271678
0.0808666
0.372486
0.183792
0.385079
2.66269
0.0776887
0.132087
1.15889
0.197384
2.00534
0.0460058
0.0757412
4.06313
5.24841
0.0589484
0.0613031
0.0550289
0.0940678
0.174703
0.0355709
0.0704186
0.0725655
0.0833969
0.0573976
0.0484016
1.26486
0.155509
0.0738729
0.574495
1.6512
0.149313
0.61714
0.0460162
0.161626
2.52061
1.90645
0.83721
0.0349104
2.5394
2.23736
2.19881
2.00192
0.422098
0.0381738
0.0246639
0.0816543
1.09988
2.89612
1.26987
0.194294
0.659145
0.259914
0.0694471
0.144447
0.40595
2.83911
0.364138
2.37069
0.0257347
0.263625
2.65835
1.03137
0.100949
0.505867
0.0613206
1.54005
1.30972
0.975677
0.0637231
0.182032
0.0652523
0.0676136
0.234134
0.322711
0.295998
2.5238
1.52028
1.81291
1.35162
0.778882
0.146113
0.548442
0.0776846
2.09247
0.909494
0.764602
0.272241
3.31411
0.275351
1.15342
1.67474
0.0691355
0.0873954
0.446803
3.59976
2.95463
1.16915
2.82083
1.93211
2.78824
0.296513
0.523439
0.0267194
0.23715
0.511972
9.05819
3.33568
0.371039
2.52615
1.02814
0.178157
0.245683
0.469978
0.189648
0.0558058
0.0567207
1.95707
1.70402
0.890284