/*--------------------------------*- C++ -*----------------------------------*\
| =========                 |                                                 |
| \\      /  F ield         | OpenFOAM: The Open Source CFD Toolbox           |
|  \\    /   O peration     | Version:  v1912                                 |
|   \\  /    A nd           | Website:  www.openfoam.com                      |
|    \\/     M anipulation  |                                                 |
\*---------------------------------------------------------------------------*/
FoamFile
{
    version     2.0;
    format      ascii;
    class       volScalarField;
    location    "0.29";
    object      k;
}
// * * * * * * * * * * * * * * * * * * * * * * * * * * * * * * * * * * * * * //

dimensions      [0 2 -2 0 0 0 0];


internalField   nonuniform List<scalar> 
1431
(
0.534614
0.370149
2.02642
1.15052
0.436699
0.460421
1.1807
0.196615
0.499567
1.14878
0.378678
0.42094
0.474701
0.902772
1.09732
0.28112
1.52386
0.228627
0.205356
0.409952
0.212014
0.863741
0.646149
0.978628
0.927438
0.438959
0.994095
0.833199
0.496446
0.346721
0.771647
0.318636
0.943111
0.298178
0.751442
1.38794
0.52758
0.314402
0.47559
0.30706
1.78296
0.110054
0.520175
1.60103
1.43722
0.251983
1.32281
0.209011
0.379305
0.398469
0.296118
1.21068
0.567088
0.485894
1.63138
0.202866
1.93872
0.719617
0.79085
0.160143
1.72225
0.295251
1.61896
0.292491
0.5896
0.347151
1.8469
0.391257
0.703317
0.322858
0.249729
0.93168
0.346955
0.417371
0.457358
0.715251
0.326994
1.70601
0.224212
1.44461
0.269626
0.269776
0.284556
1.71383
1.64051
0.496783
0.437539
0.486408
1.06335
0.469398
0.273778
0.564918
0.388249
0.313896
0.302762
0.316354
0.610197
0.263151
0.257705
0.538511
0.783173
0.223386
0.406395
0.503517
0.579584
0.734537
0.240282
2.09801
1.04126
0.34188
1.72386
0.37906
0.21569
0.41794
0.51544
0.469275
0.230289
0.70467
1.16176
1.15659
0.29465
0.626535
2.06021
0.810209
0.293662
0.659529
1.28168
0.430675
0.393293
0.487649
0.322938
1.85987
0.742156
0.398783
0.438912
0.698194
0.354725
0.411496
0.281409
1.9345
0.342924
0.0882286
0.289959
0.392308
0.44486
0.373944
0.266428
2.14002
0.360863
0.326468
0.507031
0.632579
0.399129
0.243506
0.187001
0.532354
0.283298
0.370061
0.207562
0.244237
0.227735
0.412374
0.386458
0.478619
0.510736
2.33014
0.387165
0.306118
0.310567
0.500145
0.577924
0.511131
0.750365
0.38588
0.282847
0.170083
0.229151
0.499078
0.340217
0.212184
0.316592
1.42623
0.208032
0.499105
0.348639
0.355464
0.232138
0.820215
0.467299
0.29944
0.473495
2.4845
0.258647
0.254354
0.582701
0.278606
0.234463
0.267075
0.266715
0.230147
0.249396
0.738694
0.293481
1.89334
0.246433
1.27384
0.496274
0.305158
0.356785
0.4752
0.264426
0.21589
1.04051
0.299697
2.34325
0.662698
0.200579
0.511621
0.624335
0.304353
0.291857
1.356
0.430945
2.35766
0.318578
0.532408
0.473775
0.462954
0.400483
0.80039
0.578621
0.68512
0.30248
0.201047
0.196703
0.204849
0.286437
0.443599
0.274579
0.459443
0.311592
0.265788
0.720905
2.34693
0.630704
0.534255
0.30932
0.816671
0.428732
0.502219
0.257719
0.577571
0.958437
0.596462
1.61582
0.665725
0.132328
0.437709
0.622853
0.646706
0.679404
0.497932
0.368985
0.528186
0.198749
0.393092
0.575241
0.254204
0.486408
0.77164
0.243092
0.435215
0.259142
0.259909
0.696135
0.273527
0.342551
0.734589
0.504796
1.728
0.55111
0.479241
0.376629
0.341178
0.602999
0.837468
0.559683
0.190467
0.451377
0.29259
0.391889
0.334139
0.191631
0.474441
0.276192
0.216473
0.242486
0.26155
0.434889
0.228212
0.322986
0.48062
0.301826
0.217202
0.320082
0.420809
0.281718
0.654888
0.63331
0.078682
0.304667
0.337619
1.51122
0.099568
0.327738
0.403851
1.52657
0.6015
0.197805
0.446178
0.440761
0.339151
0.330202
0.521075
0.716571
0.545486
0.257501
0.68489
1.08165
0.293983
0.729945
0.528034
0.465053
0.487845
0.278049
0.690835
0.273953
0.241119
0.302218
0.570006
0.229732
0.263667
0.630411
0.435995
1.25523
0.235712
0.323303
0.425612
0.0388602
0.0304774
0.337878
0.212673
0.311662
0.145328
0.356196
0.270914
0.237534
0.283145
0.143787
0.403673
0.155182
0.394612
0.145085
0.0313286
0.0444839
0.385484
0.133029
0.421793
0.904608
1.15164
0.370857
0.446121
0.46246
0.311755
0.489408
1.25878
0.611963
0.327991
0.362154
0.156456
0.248874
0.344087
0.0394979
0.272528
0.444783
0.141742
0.428338
0.320829
0.143974
0.0343897
0.44853
1.67803
0.412359
0.362256
0.582309
0.3276
0.156833
0.315602
0.504297
0.279709
0.354897
0.509335
0.308017
0.326238
0.593181
0.33796
0.633873
0.247518
0.0765417
0.949232
0.617821
0.354801
0.519504
1.42063
0.416007
0.809316
0.422249
0.789961
0.64614
0.102098
0.561433
0.309667
0.921222
0.33175
0.30689
0.445075
0.316716
0.335943
2.08807
0.403383
1.86537
0.341989
0.215639
0.427894
0.496599
0.424729
0.327659
0.375744
0.356897
0.489404
1.65682
0.294145
0.412389
0.37775
0.191528
0.678639
0.835474
0.356407
0.47316
0.435828
0.513053
0.882826
0.787214
0.860218
0.350814
0.814109
0.840712
0.841882
0.841922
0.50481
1.68749
0.310638
0.489458
0.624665
0.496368
0.494391
0.0848567
1.71501
0.551607
0.510449
1.55821
0.279517
0.211315
0.856001
0.580987
0.449877
1.72904
1.89868
2.65165
0.202856
0.327112
0.287023
0.888472
0.207358
0.283592
1.51252
0.6765
0.760788
0.660947
0.346445
0.24383
0.250778
0.637302
2.22341
0.214699
0.296959
1.1215
0.393904
0.325244
0.391498
0.657577
1.61278
0.318675
0.386441
0.348845
0.397123
0.452321
0.889738
0.477743
0.213053
0.198963
0.383417
0.230721
0.747338
0.315786
0.571733
2.52042
1.33889
0.383148
0.664663
0.46048
0.403487
0.426503
0.0710861
0.381019
0.392787
0.349881
0.570965
0.412837
0.370706
0.28525
0.223789
0.381108
0.402528
0.736435
0.448132
0.296116
0.368527
0.732217
1.32404
0.329518
2.08326
0.43253
1.22768
0.213431
0.837834
0.346064
0.217358
0.810102
0.628708
0.404273
0.160181
0.616012
0.517341
0.491078
0.501513
0.351593
0.599515
0.611915
0.193378
0.66
0.320844
0.483358
2.20961
1.20759
0.05146
0.573779
0.19961
1.49115
0.298827
0.380996
0.521114
1.53437
0.6625
2.17739
0.322545
0.377013
0.449727
0.305281
0.510617
0.309321
0.223388
0.441369
0.467665
0.48071
0.36291
0.368385
0.32683
0.282887
0.391766
1.52496
0.687967
0.35965
0.306622
0.286055
0.331026
0.0762907
0.405604
0.202463
0.16416
0.399864
0.304913
0.465046
0.337557
0.308993
0.60914
0.389894
0.584835
0.675386
1.66194
1.25446
0.495597
0.105048
0.3432
1.48836
0.203797
1.18739
0.40914
0.299134
0.676613
0.482579
0.538053
0.255582
0.453964
0.464893
0.311415
0.490923
0.0589468
0.364748
0.229968
0.503422
0.282913
0.175626
0.238455
0.482025
0.593229
0.461661
0.195388
0.60398
0.312949
0.322555
0.928575
0.247228
0.410432
0.538085
0.301862
0.299293
0.624144
1.03381
0.338847
0.585039
0.397184
0.271434
0.664782
0.733848
0.454036
0.25684
0.332184
0.447626
0.42004
0.456786
0.0493279
0.314064
0.292179
0.282776
0.18002
0.359112
0.989236
0.531287
1.30455
0.048311
0.264344
0.28534
0.601516
0.290397
0.286733
0.630612
1.75941
0.471159
0.557352
1.39252
0.182779
0.507101
0.464551
0.497027
0.364326
0.322602
0.325181
1.00002
0.182773
1.01572
0.513399
0.296895
0.490688
0.41468
0.448321
0.02962
0.442927
0.272578
0.198271
0.298707
0.518124
0.187081
0.442569
0.380858
0.771223
0.642246
0.451281
0.362816
1.92494
0.403975
0.0929278
0.478866
1.03084
0.317408
0.421363
0.358857
0.463744
0.202291
0.336364
0.4136
0.299606
0.218227
1.82825
0.642533
0.427464
0.870067
0.480514
0.475365
0.189261
0.434169
0.180712
0.475194
0.482048
1.77226
0.189122
0.311618
0.623033
0.536492
0.319172
0.380876
0.8395
0.320966
0.232098
0.592484
0.404712
0.212499
0.419367
0.674317
0.34742
0.73085
0.190319
0.493653
0.521742
0.307512
0.326538
0.35012
0.520896
0.422213
1.4304
0.392963
0.801594
1.00942
1.08301
0.306914
0.720388
0.161661
1.07965
0.613169
0.507142
0.640462
2.42269
0.0705015
0.676289
0.140873
0.572752
0.0633764
1.50008
0.486297
0.433495
0.332462
0.188831
0.537538
0.481366
0.0869477
3.2376
0.0863531
0.691474
0.322441
1.6188
0.312897
0.191568
0.878029
0.703927
0.362672
0.309669
0.0569696
0.66352
2.11668
0.230203
0.658863
0.466693
0.209097
0.507858
0.0291353
0.488241
1.26166
0.23053
0.70921
0.358349
0.280753
0.234787
0.702291
0.0449225
1.31448
0.537402
0.527288
0.518593
0.528011
0.502992
0.508661
0.509117
0.554487
0.268396
0.286699
0.385212
0.347956
0.404434
0.559496
0.0461348
0.358223
0.082284
0.832841
0.0467955
0.553845
0.579914
0.517677
0.619713
0.337185
0.58797
0.193996
0.240801
0.262401
0.505789
1.6037
0.220529
0.479687
0.39961
0.303559
0.237274
0.347152
0.384995
0.413005
0.0248952
1.04539
0.281829
1.15762
0.618348
0.320655
0.34539
0.225177
0.316601
0.645284
0.365975
0.645544
0.426941
0.216018
0.204319
0.0425902
0.723163
0.288746
1.13729
0.242824
0.400252
0.0832281
0.255531
0.490558
1.62842
0.574223
0.248292
0.10607
0.496665
0.369184
0.062434
0.292996
0.534076
0.287739
1.78321
1.65769
0.293301
0.448172
1.68647
0.545723
0.269765
0.527013
1.94096
0.098439
0.713213
0.411135
0.4314
0.360509
0.341613
0.820419
0.683197
0.79939
0.722968
0.488119
0.511995
0.0817803
0.0756847
0.265469
0.223107
0.914214
0.332763
0.790462
0.681904
0.779063
0.357496
0.634023
0.545433
0.5194
0.219771
0.326049
0.233193
0.211605
0.715893
0.526853
0.530012
1.34755
0.509107
0.301161
0.187965
0.374292
0.252052
0.30012
0.279662
0.214719
0.316253
0.330553
0.288155
0.0311761
0.298712
0.250621
0.339937
0.498333
0.14892
1.72604
0.32274
0.245802
0.390416
0.893489
0.290355
0.385932
0.567884
2.83194
0.744746
0.34174
0.275421
0.673726
0.342843
0.704771
0.675556
0.808545
0.257067
0.260053
0.359783
0.344543
0.863245
0.281593
1.15164
0.750875
0.746341
0.300784
0.607978
0.724393
0.620664
0.239951
0.354991
0.354291
0.33258
0.384024
0.40008
0.58514
0.957222
1.26975
0.664566
0.121
2.14047
0.345918
0.649501
0.317645
0.252775
0.513851
0.375567
0.32809
0.822412
0.400931
0.657378
1.92349
0.351151
0.318616
0.967436
0.454971
0.535824
1.76869
0.198189
0.471569
2.03722
0.350455
0.295497
0.445221
0.856127
0.228264
0.261279
0.765323
1.45455
1.35496
0.273471
0.28193
0.465984
0.496675
0.666569
0.512603
1.31338
0.714491
0.823556
0.435502
0.418264
0.187433
1.92154
0.744226
0.827063
0.350496
2.07259
0.31848
0.352913
1.77816
0.316503
0.42585
0.436192
0.761638
0.471392
0.0456432
0.860011
0.46991
0.558352
1.66908
0.470942
0.188563
0.76199
0.78142
0.461152
0.505667
1.26303
0.474243
1.43494
0.243139
0.393231
0.209811
0.196791
0.382291
1.57993
0.349536
0.599503
0.206831
0.267897
0.435354
0.309497
0.327467
0.379794
0.339114
0.20216
0.475043
1.17473
0.244278
0.530692
0.124262
0.785945
0.35315
0.355119
0.299647
0.214747
0.456763
0.0463974
0.229944
0.310245
0.553712
0.764508
0.446301
0.57074
0.292487
0.385006
0.384941
0.199245
0.507783
0.343159
0.541053
0.334492
0.441655
1.63404
1.56755
0.307486
0.538887
0.918769
0.173978
0.375799
0.541028
0.0489226
0.642453
0.63488
0.606282
0.973393
0.368
0.662144
0.423431
0.877537
0.387469
0.63306
0.559327
0.255749
0.57123
0.324321
0.366799
0.279057
1.07737
0.34538
0.569844
0.29645
0.492671
1.60826
0.356062
0.0312175
0.5607
0.345694
0.149006
0.420934
0.267718
0.601658
0.491256
0.0747084
0.855649
0.358538
0.399811
1.45641
0.320225
0.207149
0.748883
0.141593
1.22239
0.259523
1.65763
0.0519453
0.866835
0.625755
0.751865
0.322215
0.69092
0.769653
0.495493
0.287658
1.32045
0.263729
0.0693073
0.810172
0.929103
0.893485
0.95024
0.0620353
0.865964
0.342602
0.336469
0.519504
0.727264
0.977111
0.603688
0.366326
0.203217
0.0230133
0.196608
0.781534
0.834504
1.67196
0.188731
0.296954
0.689865
0.634771
2.29605
0.31654
0.432351
0.0998642
0.505106
1.59421
0.544203
0.291219
1.43724
0.820526
0.809887
0.792993
0.369697
0.299971
0.609404
2.4143
0.867329
0.450277
0.86834
0.67362
0.346257
0.496582
0.470927
0.351672
0.359987
1.14836
0.547617
0.434739
0.436497
0.0677539
1.82992
0.305723
0.602458
1.24079
0.469755
0.652489
0.430659
0.119237
1.68543
0.191055
0.366923
0.247164
0.412437
0.344125
0.609777
1.59673
0.392743
1.00454
0.270049
0.894993
0.845663
0.449401
0.637248
0.231393
0.236708
2.06327
1.07734
0.552019
1.9348
0.752055
0.14994
0.451048
1.18763
0.269069
0.49562
0.507123
0.201903
0.262738
2.45395
0.487574
1.46167
0.462276
0.623139
0.27667
0.465886
0.429308
2.12143
0.637582
0.395801
0.340884
0.641138
1.49716
0.634927
1.1767
0.421722
0.658726
0.0555446
0.265203
0.352904
0.226233
0.394645
0.505579
0.567286
0.670322
0.170576
0.251398
0.22788
0.40034
0.369605
1.95027
0.821586
0.522786
0.903268
0.354808
1.90605
0.893324
0.514111
0.536528
0.513962
0.350878
0.247042
1.02882
0.506619
0.048092
0.856072
0.229135
1.48003
0.348135
1.0025
0.562817
0.812278
0.32858
0.404724
1.09062
0.333847
0.417194
0.172012
0.56904
0.340313
0.17513
0.477128
0.310866
0.182614
0.541719
0.200741
0.326877
0.522169
1.1647
0.466089
1.78209
0.780803
0.355972
0.76337
0.29552
0.384098
0.387989
0.295703
0.716843
0.212619
0.690557
1.31612
0.231629
0.662303
0.531584
0.236755
0.209523
0.452086
1.10778
0.265877
0.841767
0.335283
0.212675
0.30582
0.637613
0.743198
0.521911
0.295016
0.288334
0.39913
0.759612
0.237182
0.533695
0.512493
0.34396
0.391946
0.587937
0.23986
0.52938
1.86528
0.45923
0.493003
0.203739
0.411752
0.394973
0.623885
0.522823
0.377594
0.273129
0.33831
0.223346
0.682886
0.399989
0.241685
1.19645
0.346344
1.3352
0.626316
2.00543
0.235005
0.707412
1.48872
0.336591
0.134068
0.443109
0.487361
0.538347
0.919298
0.166397
0.896621
0.473984
0.779716
0.438758
0.457588
0.370025
0.516353
0.342461
0.27625
0.926597
0.582501
1.07028
0.635219
0.585772
0.64796
0.206389
0.431211
0.689677
0.370808
1.02183
0.312034
0.300168
0.331672
1.26393
0.41312
1.07889
0.776014
0.459796
0.20579
0.889814
0.396621
0.273935
0.781188
1.99533
1.17996
1.4771
0.439763
)
;

boundaryField
{
    frontAndBack
    {
        type            empty;
    }
    wallOuter
    {
        type            kqRWallFunction;
        value           nonuniform List<scalar> 
90
(
0.28112
0.421363
0.4136
0.427464
0.475365
0.475194
0.482048
0.592484
0.404712
0.493653
0.521742
0.613169
0.507142
0.572752
0.537538
0.878029
0.537402
0.527288
0.518593
0.528011
0.502992
0.508661
0.509117
0.554487
0.505789
0.79939
0.722968
0.530012
0.509107
0.252052
0.30012
0.279662
0.214719
0.316253
0.330553
0.339937
0.390416
0.290355
0.385932
0.34174
0.359783
0.344543
0.863245
0.281593
0.354991
0.354291
0.345918
0.649501
0.317645
0.657378
0.765323
0.187433
0.461152
0.599503
0.475043
0.299647
0.310245
0.553712
0.764508
0.385006
0.507783
0.343159
0.307486
0.918769
0.63488
0.662144
0.877537
0.279057
1.07737
0.34538
0.495493
0.263729
0.95024
0.342602
0.977111
0.834504
0.432351
0.544203
0.291219
0.809887
0.430659
1.00454
0.270049
0.462276
0.170576
0.326877
1.10778
0.265877
0.521911
0.394973
)
;
    }
    inlet
    {
        type            fixedValue;
        value           uniform 0.375;
    }
    outlet
    {
        type            zeroGradient;
    }
    wallInner
    {
        type            kqRWallFunction;
        value           nonuniform List<scalar> 
138
(
0.42094
0.205356
0.943111
0.298178
0.751442
0.110054
1.8469
0.391257
0.249729
0.93168
0.715251
0.742156
0.243506
0.187001
0.170083
0.229151
0.266715
0.230147
0.249396
0.738694
2.35766
0.665725
0.132328
0.622853
0.646706
0.679404
0.575241
0.696135
0.602999
0.654888
0.63331
0.229732
0.235712
0.425612
0.0388602
0.0304774
0.337878
0.212673
0.311662
0.145328
0.356196
0.270914
0.237534
0.283145
0.143787
0.403673
0.155182
0.394612
0.145085
0.0313286
0.0444839
0.385484
0.133029
0.421793
0.156456
0.248874
0.344087
0.0394979
0.272528
0.444783
0.141742
0.428338
0.320829
0.143974
0.0343897
0.44853
0.354897
0.354801
0.809316
0.215639
0.294145
0.191528
0.47316
0.310638
0.856001
0.202856
0.888472
0.346445
0.24383
0.250778
0.214699
1.1215
1.61278
0.213053
0.198963
1.33889
0.213431
0.160181
0.616012
0.611915
0.380996
0.16416
0.175626
0.18002
0.182779
0.02962
0.442927
0.189261
0.180712
0.320966
0.392963
0.161661
0.140873
0.188831
0.703927
0.0291353
0.358223
0.619713
0.337185
0.0248952
0.0756847
0.715893
0.0311761
0.298712
0.14892
0.607978
0.664566
0.121
0.318616
0.967436
0.209811
0.124262
0.785945
0.173978
0.0312175
0.149006
0.748883
0.141593
0.0230133
0.196608
0.119237
0.300168
0.889814
0.396621
0.273935
1.99533
1.17996
0.439763
)
;
    }
    procBoundary0to1
    {
        type            processor;
        value           nonuniform List<scalar> 
29
(
0.72345
1.72791
0.530019
0.530019
1.8915
1.8915
1.89294
0.342025
1.66985
0.455003
0.384637
1.25739
0.361483
0.573173
1.11942
0.528173
2.59972
2.04172
0.49698
1.85874
0.296738
0.214663
1.61251
0.292643
0.29288
2.04172
0.256081
0.807155
0.292643
)
;
    }
    procBoundary0to2
    {
        type            processor;
        value           nonuniform List<scalar> 
42
(
0.914737
0.828269
0.469807
0.410726
0.228116
0.914737
0.469807
0.218335
0.173576
0.102351
0.34877
0.42036
0.34877
0.520265
0.57334
0.963416
0.57334
0.0920574
0.129746
1.45971
1.45971
0.0920574
0.103608
1.35615
1.35615
0.103779
1.1086
0.10092
1.02453
0.771524
0.771524
0.0842925
0.0622301
0.0480166
0.0433004
0.469807
0.570406
0.280665
1.02453
0.218335
0.0667367
0.0483439
)
;
    }
}


// ************************************************************************* //
