/*--------------------------------*- C++ -*----------------------------------*\
| =========                 |                                                 |
| \\      /  F ield         | OpenFOAM: The Open Source CFD Toolbox           |
|  \\    /   O peration     | Version:  v1912                                 |
|   \\  /    A nd           | Website:  www.openfoam.com                      |
|    \\/     M anipulation  |                                                 |
\*---------------------------------------------------------------------------*/
FoamFile
{
    version     2.0;
    format      ascii;
    class       surfaceScalarField;
    location    "0.73";
    object      phi;
}
// * * * * * * * * * * * * * * * * * * * * * * * * * * * * * * * * * * * * * //

dimensions      [0 3 -1 0 0 0 0];
oriented        oriented;


internalField   nonuniform List<scalar> 
11117
(
9.67976e-06
-4.12022e-05
-3.74828e-06
3.52707e-05
-1.66709e-05
7.91231e-05
8.10784e-06
-7.056e-05
-3.74489e-05
4.89656e-05
-0.000135535
0.000124018
-0.000421287
-1.54845e-05
0.000202682
0.00023409
0.000167937
0.000243739
-0.000191439
-0.000220238
2.03399e-05
-2.96223e-06
5.78446e-05
-7.52223e-05
-0.000231969
-1.05572e-05
0.000158603
8.3923e-05
5.76408e-06
3.22445e-05
-5.88355e-05
2.08269e-05
0.0012794
0.00024573
-0.000932195
-0.000592939
-0.000136244
0.000169879
-5.60698e-05
2.24351e-05
-0.000865978
0.000935068
0.000301152
-0.000370242
-0.000472074
-0.000202163
0.000348794
0.000325444
-0.00034343
-0.000216992
0.000216966
0.000343456
0.000764804
-0.000920298
0.00042448
-0.000268986
7.92877e-05
-8.17214e-05
3.8532e-05
-3.60983e-05
9.84578e-05
-1.74826e-05
2.67205e-05
-0.000107696
-0.000116781
0.000184143
-2.32246e-05
-4.41381e-05
-0.000592056
0.000638903
0.000648825
-0.000695672
2.71532e-05
9.81189e-05
-4.59844e-05
-2.09926e-05
1.25486e-05
0.000102108
-9.3664e-05
-0.000324444
0.000183688
7.03088e-05
7.0448e-05
3.87349e-06
-2.28245e-06
-5.28304e-05
5.12394e-05
0.000315892
0.000246289
-0.000153482
-0.0004087
0.00011667
0.000128989
-6.44922e-05
-0.000181167
0.000239115
0.000147343
-0.000254547
-0.00013191
0.000934018
-0.000967521
0.000287727
-0.000254224
0.000266916
-0.000346167
0.000745487
-0.000666236
-0.00016617
0.000225815
-0.000271387
0.000211742
0.000106711
-1.99032e-05
0.00101343
-0.00110023
6.76101e-05
-5.41847e-05
5.1542e-05
-6.49674e-05
-0.000172564
-3.151e-05
0.000239656
-3.55828e-05
-0.000107602
-0.000377582
0.00034708
0.000138105
-0.000118174
-0.000447442
0.000376863
0.000188754
-4.04143e-05
0.00010569
-4.95692e-05
-1.57066e-05
-0.000180009
9.5524e-05
-6.82879e-05
0.000152773
-0.000105373
6.77195e-05
-3.25929e-05
7.02467e-05
0.000602919
-0.000827282
0.00100778
-0.000783418
0.000366912
-0.000507654
-0.00013453
0.000275272
0.000370138
-7.25537e-05
-0.00055619
0.000258605
0.000179209
0.000332048
-0.000420015
-9.12422e-05
0.000118025
0.000380205
-0.000405157
-9.30736e-05
2.08587e-05
0.000197393
-0.000217411
-8.40241e-07
0.00101419
0.00089189
-0.000895988
-0.0010101
0.000273502
3.41199e-05
-3.55284e-05
-0.000272094
0.000111426
2.55138e-05
-0.000109786
-0.000952962
0.000757282
-0.000230348
0.000426028
-0.000790239
0.000627475
-0.000191365
0.00035413
0.000228314
-0.000354996
0.000220515
-9.3833e-05
4.34726e-05
-4.0278e-05
2.63994e-05
-2.95941e-05
-6.60933e-05
0.000171448
-0.000105354
-3.026e-05
-2.58705e-05
5.61305e-05
-0.000358241
-0.00119005
0.00053324
0.00101506
7.23901e-05
-6.94195e-05
3.97214e-05
-4.2692e-05
4.43261e-05
-4.44548e-05
-8.04467e-06
8.17335e-06
9.22124e-06
-9.22124e-06
0.000430111
0.000176701
-0.000561492
-4.53201e-05
0.000359606
0.00013552
-0.000461353
-3.37727e-05
-0.000188813
-7.55696e-05
0.000252128
1.22538e-05
0.000889581
0.000114917
-0.00137317
0.000368677
-0.000393016
0.000785266
0.000541769
0.000852388
-0.000866844
4.1401e-05
-2.69453e-05
0.000168329
-8.71445e-05
-7.8778e-05
-2.40617e-06
-0.000152499
-9.68113e-05
7.67467e-05
6.77165e-05
-3.4846e-05
-0.000140473
0.000115726
-3.7898e-05
-0.000196003
-1.70021e-05
-0.000133363
0.000107565
4.28003e-05
0.000119829
-0.000111622
4.01184e-05
-4.83255e-05
-1.26478e-06
-0.000337244
0.000338509
-0.000615478
-0.000326827
0.000487213
0.000455092
3.97933e-06
4.43712e-05
-6.42214e-08
-4.82864e-05
0.000488059
-0.000149927
-0.000696373
-0.000191353
0.000177623
0.000133559
-0.000268864
-0.00126482
0.00130282
0.000230863
-6.87403e-05
0.000251452
-0.000245206
6.24949e-05
-0.000691219
-0.000516315
-0.000110449
4.60167e-05
0.000153181
-8.87488e-05
-3.54315e-05
-2.95326e-05
6.49641e-05
-0.000940454
-0.000162901
0.000135834
0.000257358
6.92559e-05
-5.31119e-05
2.59919e-05
3.64778e-06
-2.96396e-05
-5.90215e-05
-3.31552e-05
8.18061e-06
8.39962e-05
4.10624e-05
2.69808e-05
-2.39285e-06
-6.56503e-05
0.000107156
-9.14821e-05
0.000252899
-0.000268573
-0.000231601
0.000128036
0.000254673
-0.000151108
-0.000245614
0.000116494
0.000281403
-0.000152283
5.94066e-05
-0.000459301
0.000399895
-2.10327e-05
-0.000520506
0.000541539
3.05167e-05
-0.00048153
0.000451013
3.40484e-05
1.26895e-05
9.33656e-05
-0.000140103
-2.21074e-05
3.9881e-05
0.000183203
-0.000200977
0.000525054
-0.000155093
7.83901e-05
-0.000448351
0.000617051
4.97575e-05
-5.28979e-05
-0.000613911
0.000714343
-4.20327e-05
5.19068e-05
-0.000724217
-0.000704244
3.79447e-05
-2.71126e-05
0.000693412
-0.000570682
4.94338e-05
-2.11371e-05
0.000542385
-1.36026e-06
0.000224934
-0.000327645
0.000104071
0.000587239
2.2692e-05
-2.2704e-05
-0.000587227
0.000674709
4.80687e-05
-3.09882e-05
-0.00069179
0.000591053
4.40556e-05
-2.42585e-05
-0.000610851
0.00082297
5.86269e-05
-2.92087e-05
0.000369261
8.0422e-05
-0.000402494
-4.71892e-05
-0.000233613
0.000171248
6.88518e-05
-6.48688e-06
0.00031071
-0.000384149
-0.00117957
0.00125301
0.000693943
0.00029785
-0.000730538
-0.000261256
-6.47377e-05
0.000118949
-8.041e-05
2.61988e-05
-0.000925379
0.000215733
0.00083596
-0.000126315
3.38522e-05
-5.37932e-05
0.000136408
-0.000116467
1.33401e-05
3.39945e-06
2.09145e-05
-3.7654e-05
-0.000240577
5.64311e-06
9.87409e-05
0.000136193
0.000211084
-6.42728e-05
0.000110547
-6.77185e-07
6.39853e-06
2.12361e-05
-2.69574e-05
-3.00242e-05
4.23016e-05
2.8578e-05
-4.08554e-05
-0.000416419
0.000350968
-0.000145853
0.000211304
-2.57535e-06
2.14364e-06
-3.29607e-06
3.72778e-06
8.80104e-05
0.000494705
-0.000565432
-1.72839e-05
0.000127667
0.000650599
-0.000736391
-4.18756e-05
-4.92044e-06
-3.75848e-05
3.50581e-05
7.4471e-06
-0.000512121
0.000448549
0.000920219
-0.000856648
3.45603e-05
-1.94364e-05
-0.000881968
-0.00103842
8.20381e-05
0.000958733
-2.35524e-06
0.00105358
-0.000734053
-0.000831643
0.000103612
-9.89785e-05
-4.63363e-06
0.00013974
-9.72083e-05
0.000159378
-0.00020191
-0.000163499
-0.00011312
-5.91882e-05
-2.5922e-05
4.06514e-05
4.44588e-05
-0.000353021
0.000405876
0.000622218
-0.000675073
-0.00046492
0.000644462
-0.000507203
0.000327661
-7.68207e-06
-8.42777e-05
7.63558e-05
1.5604e-05
0.000577623
-0.000873238
-0.000112739
0.000408354
4.16962e-05
-5.70648e-06
4.99015e-06
-4.09799e-05
0.000195319
-5.03311e-05
-0.000185688
4.07002e-05
7.22463e-05
9.55841e-05
-0.000145802
-2.20283e-05
0.000174322
-0.000126341
-7.42762e-05
2.62954e-05
-0.00088877
0.00010854
-0.000160224
-0.000371457
0.000335233
-0.000709258
0.000745482
3.66782e-05
-3.92462e-05
-7.91534e-05
-0.000420493
3.86088e-05
9.01938e-06
0.000372865
6.52203e-05
0.000127721
-2.46121e-05
-0.000102786
-8.85122e-06
0.000103285
8.35225e-06
3.0916e-05
-5.86596e-06
-3.89212e-05
1.38712e-05
-0.000234949
0.000107922
0.000109121
1.79061e-05
1.28887e-05
-0.00033218
0.000374822
-5.55315e-05
5.90579e-05
-6.03286e-05
-4.79298e-05
4.92005e-05
0.000417015
-0.000233061
-0.000204002
2.00485e-05
-9.86375e-05
6.70647e-05
-3.13964e-05
6.29692e-05
2.4104e-06
0.000286538
-0.000150304
-0.000138644
0.000260361
-0.000117149
-3.47121e-06
-0.000436914
0.000979086
-0.000561464
1.92919e-05
9.61464e-05
0.000180696
-0.000132225
-0.000144617
-8.79082e-05
0.000195841
9.43092e-07
-0.000108876
0.000934878
0.000452701
-0.000617964
-0.000769616
-2.72154e-07
4.89423e-06
-8.48195e-05
8.01975e-05
-0.000492891
-3.56322e-05
-0.000396855
0.000126492
-0.000193377
-6.58889e-05
0.000132774
-0.000409523
-0.000377681
0.000485819
0.000301385
0.00080732
-0.000190263
-0.000617057
0.000138537
0.000171728
4.48878e-05
-0.000216616
0.000970741
-0.000234133
-0.000736608
0.000121299
5.94254e-05
-1.39157e-05
-4.55098e-05
-0.000107043
0.00028091
-0.000173867
-3.84851e-05
6.92129e-05
-3.07278e-05
-4.70616e-05
0.000211394
-0.000164333
-0.00047809
0.00054208
-6.39901e-05
-0.00048909
0.00047945
9.64028e-06
-8.22516e-05
-4.20196e-05
0.000124271
1.30713e-05
-8.31719e-05
7.01006e-05
1.8292e-05
-1.89692e-05
-1.53856e-05
-1.46386e-05
-6.56549e-05
5.2158e-05
1.34969e-05
0.000210047
0.000193167
-0.000403213
0.000108993
-0.000135135
2.61426e-05
0.000124231
-0.000185835
6.16039e-05
0.000160031
-0.000145426
-1.46049e-05
-0.000325178
0.000376915
-5.17366e-05
-1.59539e-05
1.37565e-05
2.19737e-06
-0.00026675
0.000309806
-4.30555e-05
-9.28639e-05
7.25697e-05
2.02941e-05
0.000962993
-0.00105019
8.71972e-05
-5.02653e-05
0.000122921
-7.26561e-05
-0.000158203
0.000227788
-6.95844e-05
0.000219474
-0.000176662
-4.28121e-05
-0.000272239
0.000315643
-4.34036e-05
-0.000168208
0.000222981
-5.47738e-05
-0.000147515
0.000167873
-2.03579e-05
-0.000249368
1.57547e-05
-0.000229617
0.000149182
8.04358e-05
8.67883e-05
-5.63631e-05
-3.04252e-05
3.9073e-05
0.000132175
-0.00020965
-0.000656329
-0.000290749
-8.6833e-05
-0.000361068
-8.63745e-05
8.51511e-05
-0.000116661
0.000165418
-9.31713e-05
0.000295205
-9.98859e-05
4.8157e-05
7.44515e-05
-0.000122608
-1.37723e-05
1.81437e-05
-4.37138e-06
8.73586e-05
1.07603e-05
-0.0010952
0.00140591
0.000234691
1.53055e-05
-0.000249997
-0.000982821
-0.000207234
6.01685e-05
0.000168146
-9.17387e-06
-8.83613e-05
9.75352e-05
-0.000669142
-0.000121097
-0.000806113
-0.000146849
1.0911e-05
-7.09137e-05
6.00027e-05
2.45332e-05
-1.942e-05
2.09999e-05
-2.61131e-05
-0.000164474
8.30775e-05
0.00050509
-0.000423693
-0.000882256
0.000891595
0.000657634
-0.000666973
0.000103339
-1.32524e-05
-0.000114589
2.45027e-05
-0.00118892
0.00114548
-5.2384e-05
9.58247e-05
-9.4233e-05
8.43783e-05
-3.72068e-05
-9.64209e-05
0.000107735
-0.000118357
-4.14497e-05
2.73263e-05
-6.56352e-05
7.97585e-05
9.56677e-05
-0.000116215
-9.20434e-05
0.00011259
3.07762e-05
-4.55215e-05
-9.02742e-05
0.00010502
-0.000233837
0.000207929
0.00020023
-0.000203264
4.95196e-05
0.000590539
-0.000436795
0.000790553
-0.000686495
-0.000187621
8.35628e-05
-0.00140385
-3.52391e-05
0.000250176
0.000195214
-0.000228846
5.54052e-05
-2.17739e-05
0.000255156
4.51322e-06
-4.49325e-05
-0.000214737
0.00070731
-0.000190642
-6.29828e-05
-0.000453685
-0.000359769
-0.000257958
4.28252e-05
0.000574901
-7.68853e-05
5.35821e-05
0.00123098
-0.00120768
8.30538e-05
-1.79194e-05
-6.51343e-05
1.96365e-05
0.000163289
-2.66986e-05
-0.000156227
-1.78028e-05
8.39656e-06
-8.29926e-06
1.77055e-05
4.27348e-05
-5.13527e-05
-5.62351e-05
6.48531e-05
-3.81537e-05
5.39882e-05
-0.000125875
0.00011004
-7.12815e-05
0.000112792
-0.000175854
0.000134343
-2.18188e-06
-8.25567e-06
-0.000128023
0.00013846
0.000138977
-4.6873e-05
-0.000218789
0.000126685
0.000179638
-0.000200379
1.44973e-05
6.24314e-06
2.40433e-05
2.72162e-05
-0.00101949
0.000968227
-0.000121957
4.73498e-05
-0.000751338
0.000825946
0.00087098
-0.00087386
6.89244e-05
-6.60443e-05
0.000174599
-0.000273974
-0.000158396
0.000257771
6.90469e-05
9.29958e-05
-8.05028e-05
-8.15399e-05
-5.32181e-05
-4.42413e-05
4.06889e-05
5.67705e-05
0.000164043
-0.00014579
-1.06783e-05
-7.57472e-06
5.01518e-05
0.000671388
-0.000370103
-0.000351437
-6.14433e-07
0.000200174
-7.30674e-05
0.000240942
-0.000256215
1.46586e-05
1.22929e-05
-2.54345e-05
1.95401e-05
-1.01746e-05
4.94165e-05
-0.000117666
7.84243e-05
0.000142401
-0.00010512
5.88655e-05
5.33826e-05
-0.000542894
0.000489512
5.14151e-05
-0.000519439
0.000468024
3.35453e-05
-0.000448996
0.000415451
9.46826e-05
-0.000105923
-5.76159e-06
-0.000290121
7.98494e-06
3.67766e-05
-3.19587e-05
-1.28028e-05
-1.98792e-05
2.96275e-05
-0.000960328
0.000950579
-0.000286849
-0.000403439
0.000470757
0.000219531
0.00106398
-0.000454802
-0.000813567
0.00020439
-0.000658084
0.00116749
-0.000874238
0.000364835
7.66008e-06
-2.38556e-05
4.07287e-05
-5.47926e-05
-4.09763e-05
3.65807e-05
-0.000631165
-7.20335e-05
0.000305679
0.000397519
-5.06181e-05
-8.36766e-05
4.00616e-05
-0.000149003
-5.11837e-05
0.000103766
2.47256e-05
9.84263e-05
-7.16692e-05
-5.14827e-05
-0.000278867
0.000172285
0.000106582
-0.000173288
0.000162646
1.06423e-05
0.000291219
-0.000192661
-0.000186466
0.000106068
-0.000389774
0.000342682
-5.89768e-05
3.777e-05
-3.31371e-05
-0.000601126
3.35289e-05
-5.71402e-05
0.000624737
-0.000505126
2.65154e-05
-4.90934e-05
0.000527704
-7.70421e-05
-7.66286e-05
0.000158567
-4.89654e-06
-3.40651e-05
0.000128724
-0.000165248
7.05889e-05
-0.00030696
0.000496325
0.000343875
2.98771e-05
-0.00108565
0.00111204
-5.62672e-05
8.98066e-06
4.86323e-05
-1.48782e-05
1.81782e-05
4.30507e-05
-1.69028e-05
0.000235218
-4.62181e-05
-0.000249491
6.04913e-05
-7.0367e-05
8.78835e-05
-6.81002e-06
-1.07065e-05
4.39397e-05
0.000216673
-2.47677e-05
-0.000235845
-2.88274e-05
-5.12035e-06
2.01754e-05
-0.000343268
-6.39264e-05
0.000300428
0.000106767
-0.000500444
0.000343789
0.00027468
-0.00019147
0.000121811
9.05174e-05
-0.000563862
0.000336662
0.00040641
-0.00055527
1.8662e-05
0.000551496
-1.48876e-05
-0.000583307
-3.31024e-06
0.000593081
-6.46371e-06
8.46274e-06
0.000604818
-0.000587267
-2.6014e-05
-3.94e-05
0.000599377
-0.000587082
2.71057e-05
-0.000659407
0.00107232
-0.000784369
-4.79929e-05
5.03502e-05
-4.81614e-05
4.5804e-05
-7.54423e-05
8.20599e-05
-0.000122121
0.000115503
-7.25677e-05
4.39781e-05
4.17318e-05
-1.31422e-05
8.69073e-05
-7.79244e-05
-2.56585e-05
1.66756e-05
-0.000973313
0.00011277
0.000956649
-9.61058e-05
-0.000124105
0.000672202
-0.000725125
0.000177028
-5.35811e-06
-8.98291e-05
0.00034703
-0.000251843
3.90185e-05
-0.000100126
0.00011941
-5.83029e-05
-0.000105702
-7.4309e-05
0.000549501
-0.00036949
2.98704e-05
9.18748e-05
-6.75929e-06
-0.000114986
2.58062e-05
-2.46323e-05
3.98885e-05
-0.000562671
0.000515513
-3.61864e-05
6.89546e-05
-9.17897e-05
0.00031463
-0.000260059
-4.41888e-06
0.000141408
0.000141297
-0.00010082
-0.000181885
4.02898e-05
-1.64079e-05
0.000327125
-0.000351007
-5.80485e-05
-8.3371e-06
-3.98136e-06
0.000438238
-0.000285196
-0.00047987
0.000772584
-0.000402969
0.000642626
-0.000340433
1.64601e-05
7.8226e-05
2.80126e-05
2.48122e-05
7.70302e-05
-0.000129855
0.00044534
-0.000741795
-0.000585801
5.86446e-06
-1.19226e-06
-7.24754e-06
-0.00042723
0.000472693
0.00101264
-0.00105811
0.000848892
-0.000171328
-4.77039e-05
-0.00062986
8.23231e-08
1.05282e-05
2.72955e-06
-0.000388656
0.000170144
0.000444327
-0.000236659
6.38114e-05
-6.77296e-05
0.000206958
-0.0007735
0.000673254
7.13012e-05
-2.84675e-05
3.50751e-05
-7.79089e-05
5.18213e-05
8.91887e-05
-0.000112091
-2.89191e-05
-0.000654614
0.000595109
0.000508054
0.000116413
0.000232221
4.76646e-06
-5.31383e-06
0.000108684
-0.000108137
-2.26494e-05
-0.00021611
0.000166205
-2.89036e-05
5.19552e-05
-0.000182002
0.00015895
-0.00017687
-0.000178012
0.00079715
0.000137919
-1.98274e-05
-8.10023e-05
0.000222718
1.69386e-05
0.000147245
9.77121e-05
-4.94558e-05
0.000201232
-0.000181596
-2.0193e-05
-1.28905e-05
2.2439e-05
0.000126743
2.38058e-05
-2.76356e-05
0.000229213
-9.28605e-06
-6.97326e-06
-3.02216e-06
0.000222496
-3.98309e-05
-0.000232408
-5.19351e-05
-0.000106268
-0.000523749
3.46586e-05
-8.88621e-05
-0.000418792
-5.10554e-05
-0.000505134
9.43112e-05
-9.19008e-05
-4.54253e-05
-6.29616e-05
-9.1511e-05
-5.22748e-05
0.000220148
9.02186e-05
-2.85998e-06
0.000382046
0.00063301
2.7222e-06
5.39211e-05
-1.25719e-05
-1.88959e-05
1.20479e-05
-0.000104494
-0.000196686
0.00016665
0.000522617
-0.000550433
2.48946e-05
2.92083e-06
6.34628e-05
-0.000190046
0.000116026
8.84684e-05
-5.55567e-05
-6.67165e-07
-4.17734e-05
2.57301e-05
1.14277e-05
4.61562e-06
0.000277709
0.000479573
0.000226654
0.000400821
-5.21902e-05
-0.000302806
-4.53694e-05
4.13382e-05
-7.5982e-06
1.16295e-05
-9.23753e-05
-2.80581e-06
9.11925e-05
3.98867e-06
-4.50967e-05
-5.42262e-05
5.75495e-05
-7.20809e-05
1.22535e-05
4.31e-05
1.67274e-05
-7.90517e-06
-8.66739e-05
3.22777e-05
6.23013e-05
0.000421998
-0.000116577
0.000136795
-0.000434252
0.000727568
7.41749e-05
-0.000367048
0.000652479
-0.000170619
0.000290552
-0.000308747
-1.83848e-05
4.07816e-05
-3.29421e-05
1.05453e-05
1.62686e-05
0.000121752
-6.62684e-05
-7.17526e-05
-4.39277e-06
-5.11506e-05
1.01739e-05
-0.000625012
0.00103032
-0.000735276
0.000329965
3.88024e-05
-9.55024e-05
-4.86733e-05
6.54863e-05
-0.000143521
-0.000101974
4.63199e-05
-2.58711e-05
-6.08631e-05
-0.00107354
0.000964229
8.94057e-05
-2.7542e-05
5.00758e-05
-5.28403e-05
3.03065e-05
-4.02992e-05
5.78559e-05
-6.5265e-05
4.77083e-05
-2.85538e-05
-5.36979e-05
-4.76401e-05
6.07114e-05
0.000369602
-0.000151064
3.15756e-06
1.98097e-07
5.20269e-05
-5.53825e-05
1.5179e-05
-1.00171e-05
-1.23307e-05
7.16873e-06
7.08391e-05
5.29494e-05
0.000157849
8.37437e-05
-8.10281e-06
-7.63905e-05
7.49532e-07
9.72201e-05
-2.00955e-05
-9.10403e-05
0.00026778
0.000111345
0.000215375
0.00119955
0.000121081
-0.00116057
-0.000160062
3.3529e-05
9.21786e-06
3.30838e-05
-0.000680383
0.000176292
0.000605956
-0.000101865
-0.000137818
7.55381e-06
-5.09929e-06
0.000135364
-2.34858e-05
7.55647e-05
-4.31716e-05
-8.90721e-06
7.75587e-05
-0.000148614
7.84083e-05
-7.35328e-06
-0.000212494
0.000714257
4.52075e-05
-0.00054697
-0.000302813
0.000869817
5.63528e-05
-0.000623357
0.00058754
2.94275e-05
6.93218e-05
-0.000686289
-6.31349e-05
5.77238e-06
8.56313e-05
-2.82689e-05
6.41245e-05
0.000145922
-0.000144622
0.000315236
0.000316599
0.000485809
0.000111408
0.000529213
0.000102307
0.000522291
0.000130987
0.000595137
-8.03036e-06
3.77838e-07
4.63527e-06
3.01725e-06
4.0499e-05
-1.17183e-05
1.25574e-05
-0.000176507
0.000215309
-0.000261196
0.000326682
-9.4312e-05
0.000140632
7.95267e-07
-1.34324e-05
1.47808e-05
-1.59916e-05
-0.000100669
0.000118416
-1.75576e-06
1.11973e-05
7.30545e-05
-8.41992e-05
-5.27043e-08
2.5961e-05
0.000681705
-0.000461936
0.0009685
6.30833e-05
-0.00101643
-1.51484e-05
-0.000233045
0.000263452
0.000260812
0.000137264
-0.000264012
-6.6834e-05
0.000193582
0.000112011
-2.14296e-05
-1.45626e-05
3.10717e-05
0.00013221
0.000129363
-6.06147e-05
-0.000123807
-5.09702e-05
-0.000954461
0.000926959
-0.000399728
-7.26236e-05
-0.000100596
3.96344e-05
0.00026085
-2.84558e-05
-0.000272028
-8.20876e-05
0.000729508
1.90551e-05
-0.000666476
-7.54134e-05
0.000558377
1.99167e-05
-0.00050288
2.47385e-05
-2.32587e-05
0.000111457
-0.000112937
2.55913e-05
5.31559e-06
-3.42214e-05
3.31458e-06
4.05125e-05
-0.000132567
0.000181529
-8.94744e-05
-3.16761e-05
0.000232908
-9.0242e-05
0.000104336
-4.00962e-05
2.60019e-05
-0.000283801
-6.12179e-05
0.000201757
0.000143262
6.17459e-05
-8.33272e-05
3.18952e-05
-1.03139e-05
0.000659979
2.37623e-05
-1.87884e-05
-0.000664953
-6.51301e-07
0.000100082
-7.47046e-05
0.000515963
-2.629e-05
3.15244e-05
-0.000521197
0.000224356
-0.000146485
-0.000143011
6.51395e-05
-0.000523531
-3.05705e-06
-7.01978e-05
0.000596786
-0.000566818
-9.62061e-05
1.91825e-05
0.000643842
7.56525e-05
-2.91863e-05
-6.80197e-05
2.15536e-05
-8.83367e-05
1.66517e-05
9.96259e-05
-2.79408e-05
-7.66401e-05
-5.89022e-05
8.75779e-05
4.79644e-05
-1.90818e-05
1.9917e-05
-2.62697e-05
0.000782991
7.78592e-05
-3.78802e-05
4.66969e-05
4.51364e-06
-9.51433e-06
-0.00120463
-0.000123087
0.00116375
0.000163967
0.000471614
0.000362684
-0.000317601
-0.000516697
8.93312e-05
-4.66352e-05
-3.61238e-05
-6.57225e-06
-0.000133502
0.000181156
-0.000201869
0.000154215
8.58452e-05
-8.64965e-05
-0.000158417
8.38705e-05
-0.00060394
0.000678487
0.000137103
-0.000114798
3.00973e-05
-5.24026e-05
-4.28613e-05
4.4608e-05
4.85169e-06
-6.5983e-06
4.9789e-05
-3.72034e-05
3.60614e-05
-4.8647e-05
0.000178878
-0.000143004
-7.86178e-06
0.00105133
-0.000911881
0.000212607
-0.000352057
-0.00032237
-0.000192515
0.000243497
9.23103e-05
0.000107823
-0.00010324
-9.68926e-05
-7.76173e-05
-7.02466e-06
-3.69473e-06
-0.000195956
0.000178455
-5.9139e-05
8.7227e-05
1.67132e-05
-2.82877e-05
5.82284e-05
-7.5742e-05
7.67355e-06
9.84003e-06
1.71825e-05
-1.20552e-05
1.14267e-05
-1.6554e-05
-2.74788e-06
-5.07496e-06
0.000229417
-0.00042034
0.000492074
0.00113259
-1.75677e-05
3.04546e-05
9.84224e-06
-1.24859e-05
-0.000261375
0.000264019
-6.02574e-05
0.000154569
-5.41136e-05
0.000111751
-9.38237e-05
6.0925e-05
-9.8511e-05
6.33922e-05
-0.00069516
0.000347686
-7.38125e-05
-0.000852067
-0.000497707
0.000185237
7.35771e-05
-3.95919e-06
-0.000132893
-9.66691e-07
3.44467e-06
8.50215e-06
-9.35265e-05
-6.39861e-05
9.18577e-05
6.85625e-07
-3.25572e-05
2.74788e-05
5.38489e-06
-5.60406e-06
0.000106313
-0.000106094
-0.000813699
-9.19252e-05
0.000225241
0.000395137
-0.000373231
-0.000172146
0.00015024
-0.000136039
-0.000933356
6.07622e-05
0.00100863
-6.59318e-05
-0.00100421
0.00103245
3.76906e-05
5.40215e-05
-6.76747e-05
-8.9962e-06
-0.00025615
-0.000311113
0.000334219
7.57253e-05
3.0123e-05
-6.81233e-05
-3.7725e-05
-5.72291e-05
-3.71492e-05
6.62238e-05
2.81546e-05
-0.000808704
-0.000286295
-0.000178253
-4.47202e-05
-1.94872e-05
0.00024246
9.19593e-05
-1.1338e-05
-9.63075e-05
1.56861e-05
0.000235121
-7.41769e-05
-1.46677e-05
-3.87971e-05
-4.58371e-06
8.23243e-05
5.20271e-06
-7.12584e-05
0.00012754
-0.000115921
-1.32003e-05
1.58101e-06
2.10302e-05
1.01483e-05
-3.70165e-06
-2.74769e-05
3.15113e-05
0.000586225
-2.09688e-05
-0.000596767
0.000100049
0.00068213
-5.89098e-05
-0.000723268
6.74175e-05
6.02621e-05
-1.39851e-07
3.00928e-05
-0.00108916
0.00108926
-3.01909e-05
0.000263898
-0.00150312
3.63001e-05
0.00120292
-0.000106069
-2.82095e-05
5.38147e-05
8.04641e-05
0.00015776
1.29366e-05
-3.63842e-05
-0.000134312
0.000352347
-0.000318404
0.000209796
0.00071659
-0.000617776
-0.000758221
3.7771e-06
1.37124e-05
6.2529e-06
-2.37424e-05
-9.87498e-06
2.68879e-05
-6.88401e-05
5.18272e-05
-3.58463e-05
-3.28846e-06
9.61815e-05
-5.70467e-05
-0.000744442
0.000238301
0.000484349
2.1792e-05
0.000121403
-2.70388e-05
3.57386e-05
-0.000130102
-5.66654e-05
6.66305e-06
-1.69831e-05
6.69855e-05
0.000214904
2.03976e-05
6.43672e-06
-0.000241738
-3.91262e-06
7.73164e-05
-7.34038e-05
0.00031361
-0.00125434
-8.78046e-06
5.44164e-06
-5.278e-06
8.61683e-06
-3.20718e-05
-2.77048e-05
1.46799e-05
2.3686e-05
-3.85437e-05
-1.94473e-05
3.43051e-05
0.00104109
-0.00146569
0.000184337
0.000240268
0.000476909
9.17535e-06
1.25894e-05
-0.000498673
-6.04903e-06
-2.60994e-06
5.53559e-05
8.79531e-05
8.88175e-05
-0.000959145
0.000782375
1.21026e-05
4.63039e-05
-6.50379e-05
6.63143e-06
-1.62496e-05
0.000168506
-0.00020776
5.55032e-05
-2.76969e-05
-7.35381e-05
0.000108055
-6.81973e-06
0.00089
-0.000590115
-5.95215e-06
-9.1224e-05
6.82726e-05
6.93848e-06
9.56684e-05
-9.78404e-05
0.000846655
-0.00058035
4.89582e-05
-0.000315263
5.16625e-05
0.000387664
-2.23113e-05
4.37148e-05
-4.17629e-05
8.09265e-06
9.41556e-05
-1.94126e-06
-0.000100307
0.000540855
-8.93532e-05
-0.000411041
-4.04608e-05
1.05335e-05
-1.86073e-05
-5.07984e-05
5.88723e-05
-3.22279e-05
-0.000251784
0.000136581
0.000256611
7.70897e-05
-3.55749e-05
-0.000105987
6.44725e-05
3.59626e-05
5.16734e-05
-4.71968e-06
2.48715e-07
0.000219375
-2.19633e-06
-1.20007e-06
-5.3269e-05
1.68568e-05
-1.53285e-05
0.000119874
0.000215573
-0.00025095
0.000127029
-9.16517e-05
0.00115121
-0.00112999
-0.000290082
-2.59163e-05
-0.000624132
0.000190587
0.000539613
8.25823e-05
-8.72503e-05
4.39583e-06
0.0004939
-0.000100969
0.00049707
-0.000159616
-3.36759e-05
0.000124552
-1.38489e-05
4.64779e-05
7.76137e-05
-0.000110243
3.73961e-05
9.60894e-07
-4.46212e-05
6.26421e-06
-3.95546e-05
4.76472e-05
9.65701e-06
-8.91451e-05
8.31941e-05
-3.70605e-06
0.000728882
9.9214e-05
-4.51053e-05
0.000164857
0.000167286
-0.000271133
0.000231733
-0.000460626
0.000469089
-0.000316756
0.000192651
-0.00114129
0.00114326
9.59749e-05
-9.79431e-05
0.00022322
0.000600742
-0.000279061
-0.000390503
-2.04691e-05
-0.000131982
-0.000178545
-0.000327258
0.000507294
-0.000749351
-0.000163548
0.000405605
-0.00075915
0.000336907
-9.63417e-05
0.000518585
-4.21198e-05
0.000119955
-0.000347
0.000269165
-2.64997e-05
-5.49787e-05
-0.00109446
0.00117594
9.29667e-05
-0.000392359
0.00077456
0.000179054
-0.000825199
-0.000128416
-2.24903e-05
2.11571e-05
2.12846e-06
0.000723581
-0.000674821
8.22269e-05
0.000598313
-0.000651697
0.000155692
0.00055238
-0.000514973
7.40016e-05
-7.91484e-06
9.02963e-05
9.57793e-06
4.39164e-05
4.91174e-05
-1.59441e-05
9.3236e-05
-9.88584e-05
7.35781e-05
-6.79557e-05
0.000650457
-0.000549105
-7.22086e-05
-2.91436e-05
0.000633839
-0.000541278
-1.26138e-05
-7.99472e-05
0.000103223
0.00154969
-0.00121904
-0.000433877
-9.94998e-06
5.81557e-06
-2.27656e-05
2.69e-05
-0.000994168
-0.000637514
0.00105565
0.000576027
9.11654e-06
-3.74813e-05
-6.58643e-05
9.42291e-05
2.41758e-05
-1.7373e-05
8.64974e-06
-1.54525e-05
1.05841e-05
-3.00684e-05
-5.10702e-05
7.05544e-05
0.000117287
-4.42845e-05
0.000655879
0.000542459
-0.000772736
0.000318287
0.000605729
-0.00083833
0.000360268
1.95126e-05
0.000108784
-6.4631e-06
1.26391e-05
3.48515e-05
-4.10276e-05
0.000595003
-6.63437e-05
0.000143543
-1.17167e-05
1.49545e-05
-5.73327e-06
-0.00012512
-0.000233326
1.36224e-05
0.000344824
0.000193427
0.000824244
-0.000654986
-0.000307687
-0.000357579
0.000378417
0.000650127
-0.000614762
-0.000130479
9.51146e-05
-0.000101829
4.49555e-05
6.44278e-05
0.000104625
-2.92813e-05
4.75773e-05
0.000169053
-1.95669e-05
7.34952e-05
-3.76607e-05
9.49418e-05
0.000524334
-0.000632127
0.000107793
-0.000406992
0.000290988
-0.00128413
0.00140014
-0.000146408
0.00010484
0.00021345
-0.000171882
0.000155991
4.05535e-05
-7.92618e-05
-0.000117282
-0.000440271
-3.01195e-05
0.0006028
-0.000132409
0.000223164
-0.000186888
-0.000389296
-8.28825e-06
-2.13094e-06
-2.15273e-06
0.000156859
-0.000110392
0.000109524
-7.9481e-05
1.03843e-05
5.92217e-05
-3.62477e-05
1.23952e-05
5.03116e-05
-2.64591e-05
0.000220147
-0.000218658
0.000103046
-0.000104535
5.17436e-05
2.02619e-05
9.20378e-05
-4.2222e-05
-1.10745e-05
3.98641e-05
-1.31345e-05
4.01251e-05
-5.82464e-05
3.12559e-05
8.81524e-06
-5.4691e-05
7.15867e-05
-2.57109e-05
6.92517e-05
-2.86982e-05
-7.30179e-05
6.41945e-05
-9.72459e-05
6.11385e-05
-2.09343e-05
0.000117556
3.12839e-05
3.87282e-05
-1.17837e-05
-0.000626987
-0.000404505
0.000773022
0.000258469
0.000822866
-0.00104164
0.000356921
-0.000138149
-6.32442e-06
-9.00222e-06
1.48478e-05
4.78874e-07
7.94627e-06
0.000279381
-0.000330471
4.31438e-05
-5.65271e-05
2.14698e-05
2.488e-05
1.01773e-05
-0.00133852
0.00117583
-0.000250936
0.000413628
0.000378269
-0.000322896
-0.000129474
7.41006e-05
8.87977e-06
0.000646243
-0.000644636
-1.04868e-05
-0.000352716
2.01759e-05
0.00013774
-0.000564511
0.000544943
-0.000118172
0.000158912
-0.000621212
0.000628097
-0.000165796
-0.000101469
-0.000759534
0.000861002
-1.13275e-05
5.07414e-06
-1.68649e-05
2.31183e-05
8.47644e-06
-9.32055e-06
3.46612e-06
-2.62201e-06
9.76893e-05
-6.39046e-05
0.000133231
-0.000167016
-8.22159e-05
-0.00014398
0.00019035
-1.01223e-05
-8.95075e-07
2.23691e-06
-0.000185803
7.31496e-06
0.00011706
6.14278e-05
-0.000121475
-6.10847e-06
9.50269e-05
3.25568e-05
-2.64337e-05
4.47253e-07
0.000359285
-0.000333299
0.00108777
-0.0011138
-5.59526e-05
8.19775e-05
-0.000155244
-6.64879e-06
0.000135904
8.50445e-06
-0.000144408
4.45553e-05
0.000132479
-4.81673e-05
-0.000128867
-2.79098e-05
-6.53847e-05
3.11516e-05
6.21429e-05
-1.66404e-05
1.78096e-05
-7.69111e-05
-3.84618e-05
1.22958e-05
0.000113393
-3.02551e-05
6.02344e-05
-0.000225936
-1.04445e-05
1.37838e-05
-8.09566e-05
0.000622926
4.86879e-05
-6.67961e-05
0.000612547
3.08024e-05
-4.39731e-05
-0.000546505
2.99981e-05
-3.8763e-05
-0.000515308
-4.36782e-05
-2.43203e-05
-0.000366298
-0.00019139
0.000214421
-0.000984765
-0.000170982
0.000281887
9.31563e-05
6.95656e-06
-1.63691e-05
-9.36713e-05
-0.00116659
0.00118337
-8.36314e-05
3.49355e-05
-0.000230171
-8.89294e-05
-8.73495e-06
-7.56238e-05
0.000626417
-0.000183367
-0.000518463
0.000700667
-0.000184259
-0.000598496
-5.43575e-06
2.36173e-06
5.71409e-05
-5.40669e-05
1.65264e-05
0.000655299
-2.16985e-05
-7.28528e-05
9.13275e-05
7.36842e-06
-2.58432e-05
5.34127e-05
-5.57564e-05
-5.94804e-06
8.29172e-06
3.22397e-05
-2.38777e-05
1.26379e-05
-1.73356e-05
1.07355e-05
4.70991e-05
5.25303e-06
-9.95163e-05
-5.47712e-06
9.97404e-05
0.000279797
-8.12557e-05
9.57532e-05
-0.000294294
-0.000333771
-8.01836e-05
6.12388e-05
-0.00038169
0.00025455
0.000334097
5.49682e-06
-1.63535e-05
1.15423e-05
7.28833e-05
-4.49458e-06
1.94948e-05
8.34178e-05
-9.72074e-05
8.29769e-05
-6.91873e-05
-0.000407144
4.27043e-05
0.000380287
-1.58468e-05
0.000303643
0.000367969
-0.00059423
-7.73823e-05
0.000227493
-0.000587134
-0.000267346
0.00045006
0.000302159
-0.000607077
-0.000145142
-0.000113526
9.53367e-05
3.4278e-05
-1.60892e-05
0.000116065
0.000164111
-0.00102462
3.8575e-05
-1.77702e-05
-2.90931e-05
2.77255e-05
-2.03264e-05
-1.78437e-05
-8.12507e-05
-5.40917e-05
9.68806e-05
0.000899835
-2.33379e-05
-0.000766928
-0.000109569
-2.92565e-05
-1.10214e-05
-9.96096e-05
-0.000174364
1.80332e-06
7.55131e-05
-0.000104607
0.00111613
0.000155966
-9.62395e-05
0.000186571
0.000125241
-0.000409871
0.00033198
0.000530808
-0.000452918
0.000284739
-0.000281606
0.000456599
-0.000459731
3.84915e-05
1.65718e-05
-2.99837e-05
-2.50795e-05
9.68253e-06
-7.00523e-06
-1.01432e-05
7.46593e-06
-0.000253694
4.3337e-05
4.95011e-05
0.000160856
-0.00111321
0.00110844
9.3584e-05
-0.000737643
0.000474467
-0.000611217
0.000537746
-0.000359443
-0.00015944
0.000137193
0.000111722
-3.77534e-05
0.000860482
-0.00102848
-0.000263136
0.000431138
-0.000227531
-0.000989239
0.00119097
2.58021e-05
-0.00107158
0.00109493
-0.000117023
-0.000494861
0.000438905
0.000359742
-0.000303786
-0.000312013
0.000319858
3.34175e-05
-4.12627e-05
-0.000131299
-3.76402e-05
2.31491e-05
-0.000591538
0.000722594
-0.000535561
0.00015566
-1.25219e-05
-2.42034e-05
3.7297e-05
7.75274e-06
-2.08464e-05
-0.000179456
0.000171154
-5.1198e-05
2.36522e-05
0.000120702
-0.000920523