/*--------------------------------*- C++ -*----------------------------------*\
| =========                 |                                                 |
| \\      /  F ield         | OpenFOAM: The Open Source CFD Toolbox           |
|  \\    /   O peration     | Version:  v1912                                 |
|   \\  /    A nd           | Website:  www.openfoam.com                      |
|    \\/     M anipulation  |                                                 |
\*---------------------------------------------------------------------------*/
FoamFile
{
    version     2.0;
    format      ascii;
    class       surfaceScalarField;
    location    "0.5";
    object      phi;
}
// * * * * * * * * * * * * * * * * * * * * * * * * * * * * * * * * * * * * * //

dimensions      [0 3 -1 0 0 0 0];
oriented        oriented;


internalField   nonuniform List<scalar> 
2776
(
-0.000573139
-7.04862e-05
0.00048476
0.000158865
-0.000854202
0.000924518
0.000294177
-0.000364493
-0.000659379
-0.000237067
0.000402736
0.000493711
0.000135229
-4.61784e-05
0.000965636
-0.00105469
-0.000218172
-0.000128501
0.000346828
-1.55241e-07
-0.000116775
-0.000440375
0.000371023
0.000186127
-0.00025145
-5.2755e-05
0.000599553
-0.000173106
-0.000750712
0.000324265
0.000985072
0.000868308
-0.000871887
-0.000981493
-0.000881354
0.00069671
-0.000210273
0.000394917
-0.00031992
-0.00110058
0.00049757
0.000922934
0.000389683
0.000169691
-0.000514555
-4.48189e-05
0.000874425
0.000114399
-0.00134876
0.000359935
-0.000160911
-9.29446e-05
3.56834e-05
0.000115112
-3.81353e-05
-0.000193751
0.000451563
-0.000130369
-0.000641114
-0.000320453
0.000347456
0.000283059
-0.000310061
3.2748e-05
-0.000465452
0.000432704
0.000510809
-0.000152512
7.75484e-05
-0.000435845
0.00068764
-4.9804e-05
5.54489e-05
-0.000693285
-0.000655499
3.80951e-05
-2.65046e-05
0.000643909
-2.40457e-07
0.000225904
-0.000328009
0.000102346
0.000571089
2.19297e-05
-2.21041e-05
-0.000570915
0.00065942
3.79207e-05
-2.67894e-05
-0.000670551
0.000301558
-0.00037558
-0.00115007
0.00122409
2.06824e-05
-6.9945e-07
2.93196e-05
-4.93025e-05
-0.000247327
1.6352e-06
0.000115366
0.000600991
-0.000679862
-3.6495e-05
0.000187694
-0.000112401
0.000181767
-0.00025706
-0.000343876
0.000396782
0.000604623
-0.000657529
0.000543996
-0.00078702
-0.000110563
0.000353588
4.79089e-05
-4.6862e-06
4.22519e-06
-4.74479e-05
0.000304183
-0.000142116
-0.000249138
8.70711e-05
-0.000271404
0.000233914
-0.000641325
0.000678815
3.27563e-05
9.78378e-06
0.000346259
0.000338561
-0.000191297
4.04298e-05
-0.000443792
-8.69276e-05
-0.00025216
0.000279099
0.00089801
-0.000216087
-0.000681923
-5.05102e-05
7.97783e-05
-2.92681e-05
-5.9864e-05
0.000529989
-0.000470125
-0.000483302
0.000549206
-6.59038e-05
-0.000487924
0.000483543
4.38121e-06
-0.000429203
-2.00139e-05
0.000449217
7.14861e-05
-4.36813e-05
-2.78048e-05
0.000601399
-0.000114087
0.00090222
8.40863e-05
0.000189799
-0.000129754
-6.00451e-05
-0.000263601
0.000308352
-4.4751e-05
1.89623e-06
9.12697e-05
-9.3166e-05
-0.000225538
0.000145553
7.99848e-05
-0.000207221
-0.000646981
-0.000354537
-8.58378e-05
1.71209e-05
-0.000145622
0.00043276
-0.000128577
-0.00106325
0.00136481
0.000515717
-3.32104e-05
-0.000482506
-0.000915951
-0.000184634
-5.21274e-05
-4.89564e-05
0.000101084
-0.000746146
-0.000135208
2.82201e-05
-1.19721e-05
1.31414e-05
-2.93895e-05
-0.000297559
0.000248857
-1.11624e-05
0.000106936
-0.00010389
-5.35566e-05
-0.00020044
5.01818e-05
0.000579848
-0.00042959
0.000787047
-0.000680446
-0.00018698
8.03789e-05
0.000255866
-0.000314594
4.85599e-05
1.01684e-05
0.000244265
7.55013e-06
-4.53093e-05
-0.000206506
-0.000209935
-3.67428e-05
-0.000416349
0.000844092
-0.00084582
6.79316e-05
-6.62031e-05
0.000202051
-0.000301237
-0.000136121
0.000235307
0.000153746
-0.000138416
1.72244e-06
-1.70532e-05
5.22095e-05
-0.000531811
0.000479602
4.75317e-05
-0.000538705
0.000491173
0.00103646
-0.000443051
-0.000791564
0.000198156
1.54542e-05
-3.63909e-05
4.91569e-05
-0.000598915
-6.55152e-05
0.000288658
0.000375772
-2.63216e-06
-0.000315834
2.09074e-05
-7.06163e-05
0.00012048
5.70729e-05
-0.000131436
7.87956e-05
5.26399e-05
0.000103
-0.000373728
0.000327951
-5.72236e-05
-0.000553442
3.15192e-05
-5.30803e-05
0.000575003
-0.000271906
0.000447212
0.000322264
3.60325e-05
0.000329337
1.86699e-05
-0.000384039
-0.000322516
-6.07842e-05
0.000280423
0.000102878
-0.000524583
1.34921e-05
0.000518263
-7.17267e-06
-3.08658e-05
0.000552286
-0.00054091
1.94897e-05
-0.000543004
0.000995066
-0.000723467
3.84681e-05
-1.57108e-05
0.000311124
-0.000333881
0.000714627
-0.000370058
3.01049e-05
1.91527e-05
7.72931e-05
-0.000126551
6.21451e-06
8.08765e-06
6.38025e-06
-0.000240908
6.55708e-05
-7.19904e-05
0.000234238
-0.000763393
0.000664383
1.56664e-05
0.000258223
-0.000359335
8.54448e-05
-0.000108597
-0.000283217
0.000218708
-0.000226619
0.000790274
0.000134244
-1.37307e-05
-7.81764e-05
0.000305582
4.1246e-05
0.000145485
2.23394e-05
0.000123214
-1.20643e-05
0.000201863
-4.04092e-05
-0.000223191
-0.000515527
2.76027e-05
-0.000109339
-0.000641373
-4.61858e-05
-0.000112633
0.000359605
0.000563329
-5.74227e-05
-5.07171e-06
-1.91407e-05
1.22403e-05
0.000491654
-0.000514903
2.40038e-05
-7.55314e-07
3.1461e-05
-0.000343862
0.000241915
0.00025971
0.000437
-8.42113e-06
-7.62079e-05
2.55283e-05
5.91008e-05
0.000428517
-0.000120218
0.000131866
-0.000392181
0.000649998
6.53281e-05
-0.000236622
-8.01564e-05
7.18756e-05
1.48457e-05
-2.71726e-05
-0.00102536
0.000911698
6.74802e-05
0.000109133
6.47874e-05
-0.000111336
-6.25846e-05
-0.000228197
1.38638e-05
0.000112538
0.000101795
1.55933e-05
-0.000444797
-4.36656e-05
0.000115152
0.000382342
-0.000144259
-0.000658784
0.000170817
0.000586196
-9.82293e-05
-0.000204394
0.000693504
4.30349e-05
-0.000532145
-0.000316836
0.000868701
6.79111e-05
-0.000619777
-5.70082e-05
7.40451e-06
7.72236e-05
-2.76199e-05
0.000108043
0.000515256
0.000117756
0.000589196
-6.98995e-06
-9.36574e-06
4.02173e-06
1.2334e-05
-0.000395005
-0.000148943
0.000226972
-0.000101638
-5.43185e-05
-0.00014022
-7.58221e-05
0.000674014
1.82007e-05
-0.000616393
0.000625573
1.53626e-05
-1.13917e-05
-0.000629544
0.00049432
-2.47523e-05
3.07355e-05
-0.000500303
0.000223898
-0.000125589
-0.000149031
5.07216e-05
-0.000523124
-8.19024e-05
9.64499e-06
0.000595381
5.32542e-05
3.88051e-06
-9.22584e-06
7.76071e-05
-4.01458e-05
-3.04873e-05
-6.97403e-06
0.000126615
-0.000107319
3.02697e-05
-4.95662e-05
0.000175254
-0.000140777
-4.37234e-06
6.28537e-06
-8.49199e-06
0.000220759
-0.000409955
0.000483373
-0.000788593
-8.82502e-05
0.000218059
8.44333e-05
-9.71065e-05
-9.59235e-05
-0.00016809
-4.05622e-05
-2.16606e-05
0.000230313
0.000237632
-7.76322e-05
8.12544e-05
0.000640732
-4.82265e-05
-0.00067376
0.000745695
-0.000563708
-0.000724991
2.24351e-06
1.99229e-05
6.35378e-06
-2.85202e-05
-0.00072156
0.000230672
0.000469659
2.12287e-05
-5.86985e-06
-3.68022e-06
6.28043e-05
-0.000603556
0.000185363
0.000521194
-0.000261887
0.000231022
0.00046785
-0.000708011
-0.000142858
0.000383019
-3.25833e-05
0.0001088
-0.00034036
0.000264144
8.17596e-05
-0.000373388
0.000700127
-0.000642189
5.9818e-05
0.000531659
-0.000493434
6.98173e-05
0.000603347
-0.000510358
-5.66278e-05
-3.63609e-05
0.000108288
0.00152235
-0.00119215
-0.000438487
0.000560144
-0.000773553
0.000328776
-6.73542e-06
1.3211e-05
3.8631e-05
-4.51066e-05
9.81677e-05
-3.76711e-05
3.07732e-05
-3.53854e-05
9.08841e-05
0.000521958
-0.000629767
0.000107809
-0.000395587
0.000283545
-0.00124563
0.00135767
-0.000429966
-2.92494e-05
0.000589255
-0.000130039
0.000212981
-0.000180698
-0.000376159
-5.99295e-06
-1.34439e-06
2.26563e-06
3.94799e-05
2.7163e-05
8.71035e-05
-0.00131764
0.00115543
-0.000241896
0.000404102
0.000370654
-0.00031709
-0.000127342
7.37791e-05
0.000127676
-0.000525886
0.000506156
-0.000107946
-0.000118966
-8.72905e-06
8.33059e-05
4.43888e-05
-2.60015e-05
6.59503e-07
0.000341437
-0.000316095
0.000565027
3.13488e-05
-4.40901e-05
-0.0005176
1.82556e-05
-2.52385e-05
-0.000348861
-0.000182078
0.000208422
-0.000950406
-0.000168595
0.000273181
-3.79542e-05
4.14016e-05
-0.000134883
0.000646842
-0.000170061
-0.000552603
3.94539e-05
-3.02931e-05
3.98064e-06
-0.000408035
0.000291767
0.000350506
0.000293432
0.000341818
-0.000556035
-7.92151e-05
0.000112301
0.000158841
-0.000992702
3.31253e-05
-1.34302e-05
-2.56881e-05
-8.58021e-05
-0.000215435
-0.000379546
0.00030583
0.00048959
-0.000415874
-0.000243676
4.70472e-05
4.3113e-05
0.000153516
-0.000672542
0.00044285
-0.000411462
-0.000183289
0.000186716
0.000105424
-3.58168e-05
-0.000481293
0.000425683
0.000351022
-0.000295412
-0.000266826
0.000273201
4.11927e-06
-1.04938e-05
-0.000124649
-4.32973e-05
2.9531e-05
-0.000236779
-0.00041492
6.58715e-05
0.000690866
0.00048079
0.00076227
-0.00040957
-0.00083349
-5.9283e-06
6.50642e-06
1.29646e-05
-1.35427e-05
1.57715e-05
0.000680426
-8.55718e-06
4.36596e-05
0.00055475
-8.76009e-05
-2.13046e-05
-4.45773e-06
-0.000524715
0.000550477
-2.28162e-05
2.2071e-05
-0.000247552
0.000248297
0.000399099
-0.000156384
0.000317429
-1.2769e-06
-0.000656418
2.19591e-06
3.59131e-05
-0.000538057
0.000720316
-0.000218172
0.000581095
0.00011121
-0.000127278
-0.000496169
1.4482e-05
-0.000236313
-0.000438483
0.000325934
-0.000163918
0.000638184
0.00022586
-0.000151179
0.00050741
0.000175428
-4.27694e-05
1.54461e-06
-3.49831e-05
-4.59243e-05
-2.42833e-05
5.28532e-05
-3.88685e-05
-2.34097e-05
-0.000453958
0.000326445
-0.000116536
-0.000157722
7.04343e-05
0.000203823
1.20528e-05
0.0001172
7.00415e-06
-0.000136257
-2.72214e-06
-1.14075e-05
-8.4497e-05
4.16435e-05
8.41216e-08
3.78707e-05
-6.2007e-05
2.58587e-05
-3.90183e-05
0.000286721
-0.000498489
0.000250786
8.67985e-05
-0.000409228
-0.000233605
-6.89598e-05
0.000436082
-0.000392991
2.58693e-05
0.000154289
9.52376e-05
-0.000135712
-0.000113814
-1.83689e-05
-0.000235464
4.318e-05
-8.00697e-05
5.73679e-05
-2.04782e-05
9.643e-07
0.000187756
0.000102886
-7.80727e-05
-0.00021257
7.84764e-05
-4.65855e-05
-0.000405619
0.000447605
-0.000267912
-0.000317831
2.45067e-05
3.19215e-06
-1.56028e-05
-1.20961e-05
7.3193e-05
-0.000598273
-1.94514e-06
2.14817e-06
-4.40273e-05
4.38243e-05
-0.000253337
0.00089421
-0.000270566
0.00023188
-2.65462e-05
6.52323e-05
-0.000305105
0.000723461
0.000562246
0.000184561
-0.000165712
0.000826375
-0.000416613
0.000873778
-5.14719e-06
2.03418e-05
0.000423305
-0.0004385
-2.89077e-06
4.97659e-05
-5.28034e-05
6.46028e-05
1.52478e-05
-6.94062e-05
0.00056728
-0.000771015
-0.000946784
0.00116995
0.000547844
-0.000378933
0.000374475
-0.00026237
0.00037358
6.8419e-05
-4.6348e-05
-2.56763e-05
0.000389753
-1.7927e-05
0.000443205
-3.08854e-05
-6.06016e-05
0.000431796
-0.00043431
-0.000492173
0.000494686
-2.07979e-05
-0.000418306
0.000496135
-7.78289e-05
-5.5262e-05
6.52831e-05
-0.000559418
-0.000140561
-0.00127408
0.000643628
0.000179962
-0.000441849
-0.000370022
-8.91125e-06
7.6538e-05
-8.11905e-06
1.1969e-05
4.0751e-06
-9.53769e-06
-2.05219e-05
2.83519e-05
-3.93054e-05
6.27692e-05
3.08938e-05
-0.000691712
0.000244732
-0.000160738
0.000607718
-0.000539395
0.000428136
0.000161387
-0.000195564
-7.31414e-05
7.10729e-07
4.25249e-05
1.12884e-05
-5.45241e-05
-0.000311262
0.000247347
0.000172535
-0.00010862
0.000313329
-0.000185999
0.00042813
-0.00055546
-0.000531025
0.000481243
0.000211872
6.17747e-05
-0.000170647
-0.000103
6.19865e-05
-8.67542e-05
6.56179e-05
-4.08502e-05
0.000326606
-0.000404638
2.27694e-05
-2.02097e-05
0.000306254
-5.86719e-05
3.08714e-05
-2.11559e-05
0.000912798
-0.000825506
-0.000496862
0.000527131
0.000369747
-0.000726061
0.000356162
0.000128598
-0.000818795
2.01237e-05
-0.000790763
0.00041238
-1.57538e-05
-0.000166324
0.00035653
-0.000338274
5.38893e-05
-9.75833e-05
-4.9472e-05
-4.45424e-05
1.13869e-05
2.27012e-06
-0.000129466
-8.21877e-05
0.000173008
3.86451e-05
-2.82226e-05
5.76529e-05
4.73079e-05
-7.67382e-05
6.09569e-05
-1.21212e-05
-4.88357e-05
-0.000551736
0.00138443
-0.00108603
0.000543962
-0.000552225
-0.000609535
-0.000105818
-6.48248e-05
0.000171714
-3.17833e-05
-0.000146608
0.000168056
1.03354e-05
6.42346e-05
-0.000127269
0.000329044
-0.000266009
-0.000867923
0.000896634
0.000363065
-0.000391776
-0.000208179
0.000145268
-0.000818408
0.000881319
-0.00106419
0.000520684
0.000728869
-0.000129686
0.000432702
-0.000346066
0.000667415
0.000125112
0.000276539
-0.000147347
-0.000254304
7.18158e-05
-0.000439212
4.75819e-05
0.000319814
0.000619164
-3.79315e-05
8.02207e-06
-5.94734e-05
4.25867e-05
5.21402e-05
-3.52535e-05
0.000678285
-9.07206e-06
0.000308743
-0.000977956
-0.000127203
0.000191943
-5.0495e-07
2.69067e-05
5.01059e-07
8.77041e-05
-4.12065e-05
-3.08391e-06
-2.52008e-07
-0.000891929
-5.15447e-05
0.000101719
0.000841755
-0.000961256
0.000469405
0.000984536
-0.000492684
7.82047e-05
-0.000445942
0.000561644
0.000562583
-5.46391e-06
4.2295e-06
-6.43979e-05
0.000141946
0.000375651
-0.000453199
6.36037e-05
-0.000520359
0.000489503
-0.000465071
-0.000183531
0.000190259
-0.000243795
0.000749105
-0.000840144
0.000335771
-0.000208867
0.000289688
0.000350975
0.00118837
-0.000546688
0.000258356
-0.00090004
0.00043529
-7.39396e-05
-0.000249049
8.15919e-05
-2.64429e-05
2.73389e-05
0.000145163
2.33016e-05
-0.000195804
0.000166492
3.92701e-05
-0.000163176
-4.25853e-05
-5.17682e-05
-0.000118688
8.83462e-05
8.21096e-05
-0.000403574
-3.7507e-06
-0.000426166
0.00037117
0.000203258
0.000283919
-0.000442444
0.00050166
-0.000343135
0.000457501
0.00109399
-2.91487e-05
-9.1908e-06
7.01477e-05
-0.000550038
-1.63724e-05
0.000778725
-0.00066867
0.000380271
-0.000490325
-0.000150487
-0.000775189
-2.47292e-05
0.000231652
0.000491891
-0.000514405
-0.000687249
0.00151933
0.000356296
-3.78632e-05
-0.00113785
0.0012954
-0.000119688
-3.66881e-05
0.000103903
8.93474e-05
-0.000150663
0.000155829
0.000262468
0.000443613
-0.000367519
-7.68941e-05
-0.000469794
0.00131695
-0.00053873
-0.00146547
0.000352886
-0.000442084
5.79197e-05
9.29469e-06
0.000345305
-7.79134e-05
5.64827e-05
-4.68446e-05
0.00059808
-9.73424e-05
-0.000279609
0.000336344
4.06076e-05
-3.83324e-05
-5.79994e-05
-5.45652e-05
0.000263175
3.56548e-05
0.000669772
-0.000621062
-0.000507151
0.000458441
0.000668964
-0.000851519
0.000628782
-0.000446227
-0.000168341
9.14466e-05
0.000205724
0.000599864
-0.000456
0.000311825
0.00104081
0.000315187
-1.6727e-05
0.000486051
-0.000271175
-0.000214876
0.00057618
-0.000826456
-0.000240477
0.000119367
-6.24212e-05
-0.000432827
-9.06623e-05
4.48861e-05
0.000478603
0.000209942
0.000348945
-0.000389195
0.000692972
-0.000206921
-0.00020953
9.43727e-06
0.000215759
0.00047767
-0.000682155
0.000181343
-0.000103518
3.813e-05
-0.000115955
-4.55682e-05
0.00017971
4.97169e-06
-0.000139113
0.000238805
-0.000103031
4.12023e-05
0.000294281
-9.66785e-05
-0.000217166
1.45465e-06
0.000241486
-2.57744e-05
3.74579e-06
0.000471201
-0.000227301
6.84649e-05
0.000242644
0.000160092
5.14719e-05
0.000346037
2.23719e-05
0.000221043
-1.17692e-05
-2.356e-06
6.56338e-05
-5.15086e-05
-6.65387e-05
2.50244e-05
0.000107657
-6.61424e-05
-2.40976e-05
-0.000148692
0.00012665
4.61397e-05
6.27847e-06
-4.85652e-05
-2.42519e-05
3.41471e-05
-5.55862e-05
-4.71604e-05
6.85996e-05
3.7007e-05
-5.55177e-05
0.0001039
-8.53896e-05
2.39162e-05
-8.82985e-05
-0.000253676
0.000946648
5.63419e-05
1.98695e-05
-4.20643e-05
0.000104665
-6.76584e-05
9.72751e-06
-1.25747e-05
2.67634e-05
6.35716e-05
1.17738e-05
-0.000519288
9.06022e-05
-0.00048773
0.000916416
-9.54589e-05
9.26719e-05
-0.00112741
-0.000195429
0.00112011
0.000202725
-4.85135e-05
1.40548e-05
6.92321e-05
-3.47734e-05
0.00055276
-0.000282945
-0.000789103
3.76217e-05
0.00013582
-0.000278205
0.000114566
0.00020497
-4.1331e-05
0.000113616
-8.52669e-05
-0.000120118
9.17686e-05
9.87774e-06
3.96237e-05
1.24834e-06
-5.07498e-05
-6.21329e-05
0.000705495
-0.000469049
0.000444538
-1.59722e-06
6.67001e-05
-0.000216579
-0.000283247
0.00026185
0.000237976
0.000204118
4.05236e-05
0.000216371
-0.000107711
2.33036e-05
-0.000104063
2.49665e-05
1.18179e-05
-7.43722e-05
2.03036e-05
-9.857e-05
0.000152639
-3.267e-05
-5.65362e-07
-5.20315e-05
5.96781e-05
-9.39453e-05
-2.4751e-05
3.19499e-05
-8.15711e-05
-0.000674702
2.66357e-05
1.78875e-05
-6.92743e-05
-0.000206027
5.2974e-06
0.000225177
-0.000104536
7.28599e-05
1.27437e-05
5.24471e-05
9.60263e-06
-0.000114805
-0.000135353
1.46176e-05
0.000154772
3.38519e-05
-1.71492e-05
-6.33492e-05
4.66465e-05
-5.93525e-05
2.39913e-05
-2.01564e-05
2.99187e-05
-0.000198259
0.00106504
5.37723e-05
-0.00111881
0.000141121
-0.000161575
0.000241213
0.000106283
-1.61803e-06
-1.68383e-05
-7.19651e-05
5.60295e-05
-0.000108184
5.2154e-05
0.000171411
1.13025e-05
-5.67328e-06
-1.52222e-05
-1.41908e-05
4.09369e-05
-5.27061e-05
5.30268e-05
9.43701e-05
-0.000136094
5.90316e-05
-7.83568e-05
0.000136744
9.01603e-05
-8.57834e-05
0.000156238
4.6802e-05
-0.000171579
0.000170419
-0.000177749
0.00108857
0.00016668
-0.0002288
0.000198863
0.000141426
0.000123865
-0.000109054
0.00013067
-0.000214537
8.3493e-05
3.73043e-07
-0.000114355
0.000247737
0.00013318
-0.000266561
0.000127189
-0.000195292
-7.0108e-05
-3.4802e-06
7.35882e-05
0.00140621
-5.53358e-05
3.24724e-05
-8.41244e-06
-2.6416e-05
5.90846e-05
-1.81477e-05
-0.000113164
-1.54133e-05
0.000185237
-5.66596e-05
6.78296e-05
0.000354292
-9.27852e-05
-1.10234e-05
0.000143804
-9.14787e-05
0.000107083
-1.01837e-05
6.76113e-05
-2.01252e-05
0.000156266
-0.000201601
0.000115463
-0.000256998
0.000171608
9.62444e-05
-5.79111e-05
0.000126524
1.01023e-05
-0.000149232
0.000155464
-4.77805e-06
6.38272e-05
-7.23932e-06
-5.08546e-05
3.42852e-05
1.63261e-05
2.43291e-07
-1.35204e-05
-0.000131966
9.49237e-06
-8.98642e-05
0.000230717
-0.000108056
0.000163129
9.729e-05
-0.000134269
9.45889e-05
-2.44914e-05
0.000111042
3.9973e-05
0.000144039
-0.000100214
8.61992e-05
-4.55666e-05
-0.000306056
1.97506e-05
0.000331872
0.000303308
-5.39997e-05
-0.00026453
1.52225e-05
0.000105821
0.000165198
-0.000103437
-0.000167582
0.000129559
0.00104649
-0.000464075
-0.000882464
-5.79845e-05
0.000343802
1.74905e-05
-0.000170662
0.000222483
0.00109671
0.000246473
-0.000156135
0.000107124
2.45197e-05
-3.93057e-05
0.000146741
-4.71925e-05
1.66922e-05
0.000345687
-8.35475e-05
-0.000124589
3.74749e-05
0.000451904
-7.29741e-06
-0.000184719
2.32745e-07
1.81608e-06
0.000153416
-0.000248032
-6.43612e-05
-0.000156974
4.31774e-06
0.00017768
-1.19981e-06
0.000443066
-0.00036879
-7.3076e-05
-1.22583e-06
0.000242945
0.000681908
-0.000239606
6.67133e-06
0.000205974
2.69608e-05
-0.000121048
0.000389555
-0.00038996
-0.00017537
0.000444282
-0.000147033
0.000115522
-5.11315e-05
-0.000172447
-0.00014763
-0.000378884
-0.000140527
0.000422069
-0.000813019
0.000922408
0.000217181
0.000125145
0.000115466
-5.58428e-05
0.000270709
-0.000269064
-2.84529e-06
0.000218448
-7.11146e-05
-0.000163252
1.59181e-05
0.000268417
-0.000103918
-3.7362e-05
3.09541e-05
-0.00103717
0.000999311
0.000211703
-2.91489e-05
0.000260511
7.26402e-05
1.78412e-06
1.50097e-05
-2.40331e-05
0.00070181
0.000697093
0.000196508
2.83262e-05
-0.000921927
-9.61925e-05
0.000110397
0.000321293
6.70359e-05
3.93205e-06
5.25987e-05
-2.22455e-05
-1.07467e-05
0.00049849
-0.000472837
-1.49066e-05
-0.00082886
0.000691661
4.58313e-05
-8.34703e-05
6.4771e-05
-1.76925e-05
-6.05988e-05
-6.80956e-06
2.70677e-05
4.30992e-05
-7.15767e-05
5.83961e-05
6.1777e-05
0.000378886
-3.43221e-05
3.44722e-06
8.69044e-05
0.00103835
2.66872e-05
1.68728e-06
7.62284e-05
-1.05471e-06
-0.00014964
-0.000241239
0.000250937
-1.07527e-05
-0.000872758
0.000559665
-0.000667055
-1.16859e-05
-0.000818137
-0.000528402
-0.000618814
0.000886663
-9.83461e-05
5.61466e-05
0.000153085
-0.000183514
4.82391e-05
-0.000156323
5.19072e-05
-0.000886313
0.000458549
-5.07048e-06
-0.00094182
0.000654113
-0.000585051
3.60178e-05
-4.92417e-05
0.000699537
-0.000686313
0.000223841
0.000283401
5.46289e-05
-0.000351316
1.32856e-05
-7.13194e-05
0.000155003
-5.07647e-05
1.29524e-06
4.10433e-07
1.17694e-06
-0.000220341
2.12192e-05
2.99317e-05
0.000103389
0.000392902
-0.000576098
-8.27305e-06
0.00040691
4.28663e-05
-7.64325e-05
-0.000549469
-0.000665725
0.00121233
3.85786e-05
-4.59257e-05
0.000526235
5.34382e-05
0.000532155
-0.000496289
-8.93043e-05
-7.09519e-05
0.00011711
-0.000938087
-4.9635e-05
3.81208e-05
0.000537749
-0.000497353
0.00011804
-0.000149044
0.000160671
-0.000129667
0.00144869
-0.000910729
0.000349939
-0.000887897
0.000431981
2.40308e-05
-0.000403419
-1.38094e-05
0.00071272
-0.000510471
-0.000331875
0.000129626
0.000213462
-0.000152182
-0.000132073
0.000573565
-0.000337713
-0.000353455
-6.27906e-05
-0.000158844
0.000179837
7.6091e-05
-9.70839e-05
-0.00117235
4.72047e-05
9.97874e-05
0.000798491
8.75173e-05
0.000203902
-0.00108991
0.000205717
-3.08822e-05
3.64716e-05
4.82467e-05
8.04154e-05
0.000362425
-0.00088116
0.000554513
-0.000127011
-0.000261199
0.000138906
0.000249304
-0.000324435
0.000611072
-0.000617067
0.000645273
-0.000429117
0.000485027
5.61592e-05
0.0011358
-0.00113819
-0.000108083
-0.000193144
0.000937654
-0.000930736
-0.000313978
0.000533425
-0.000432244
0.000946035
-0.000978863
0.000896552
-0.00088246
-0.000344126
-8.67521e-05
2.16501e-05
-0.00018072
9.33938e-05
0.000145246
-3.84059e-06
0.000179452
4.28364e-05
-9.36579e-05
5.46422e-06
-0.000105125
0.0001192
0.000149054
-0.000159792
-0.000326847
0.000192947
-9.66373e-05
-0.00075622
-0.000190461
0.000659616
-0.00077252
-0.000539593
-0.000646062
0.000801808
0.000761066
-7.15092e-05
-0.000162426
6.81601e-05
-0.000865995
8.26094e-05
-9.30868e-05
8.6575e-05
-0.000856727
1.22786e-05
1.17382e-05
0.000816671
-0.000840688
-2.73106e-06
2.29081e-05
0.000765216
-0.000788124
-0.000218384
4.51416e-05
-0.000152939
0.000566512
-0.000160986
-0.00011777
-6.92144e-05
-0.000559307
-0.000229931
0.000403375
-0.000380397
-2.57536e-05
0.000795658
-0.000752791
-0.000689855
-0.000833042
0.000958303
0.000564595
5.12599e-05
-3.44184e-05
0.000920812
0.000139964
0.000213872
0.000945675
-0.000993719
0.000701162
-8.22905e-05
-0.00103079
0.00107526
3.78277e-05
-0.00112807
-8.60571e-06
6.65038e-05
-6.12981e-05
-0.000502318
-0.000194708
0.000521656
3.86298e-05
-0.000460355
-0.000164749
0.000484577
-0.000318336
4.97515e-06
-0.00102095
-0.000476955
0.000460251
0.000141816
-5.63711e-05
-3.74938e-05
0.000110557
-0.000474508
-0.000187603
-0.000190588
-0.000755437
-5.42711e-05
0.000809708
5.73009e-07
-6.20903e-06
9.49818e-07
0.000271064
-0.00124482
-5.31363e-05
0.00102689
-0.000456481
1.13484e-06
-1.20165e-05
-5.47787e-06
0.000502894
-0.0004854
-6.26388e-05
6.07387e-05
-0.000927881
-7.81872e-05
2.4048e-05
-7.04499e-05
-4.20967e-05
-1.70441e-05
2.3324e-05
0.000612104
-0.000322547
0.000113559
0.000256718
0.000315006
0.000165805
1.17921e-05
5.44107e-05
0.000166035
-0.000400837
-7.64599e-05
0.000121777
-0.000210533
9.57604e-05
-0.000101048
0.000134776
3.67064e-05
4.62298e-05
2.3684e-06
-1.13636e-05
4.58453e-05
-4.36725e-05
-0.000291338
0.000433377
-0.000161899
1.98602e-05
0.00084356
-0.000806864
0.000563172
2.25468e-05
0.000221145
-3.22877e-05
0.000264748
-3.90598e-05
3.42821e-05
-1.57442e-05
7.68729e-06
-6.62798e-05
7.46103e-06
1.5961e-05
-3.13093e-05
1.53483e-05
-6.40843e-05
-5.6063e-07
-4.87023e-05
2.84032e-05
2.02991e-05
-6.441e-05
5.78723e-05
6.53769e-06
-4.13924e-05
-0.000234272
-5.21257e-05
4.71574e-05
4.96837e-06
3.13033e-06
-0.00108363
0.00115764
-0.000480398
-0.00146634
-6.36272e-06
2.23237e-05
-7.11454e-05
0.000213583
0.00013662
-6.68016e-05
-7.14708e-05
2.27685e-05
-1.74643e-05
0.000641374
-0.000624215
-0.000211866
2.20405e-05
5.74656e-06
2.74062e-06
-0.000253826
-0.000176051
-0.000172894
0.000220023
0.000144484
3.96435e-05
-7.60238e-05
4.87839e-06
-0.000177507
0.000163452
1.90009e-05
-0.000414788
5.54512e-05
0.000422941
-0.000225033
0.00022186
0.000687945
-8.23975e-05
-4.80813e-05
9.10194e-05
0.000658224
0.00105752
-0.00085142
0.000679192
7.00056e-05
0.00039598
-0.000315969
-7.37003e-06
-7.36929e-06
-8.37946e-05
0.000113811
0.000106965
-0.00016289
-5.78858e-05
-9.85472e-05
-8.31087e-05
-0.000406003
9.77905e-06
-0.000572796
-0.000123064
8.12383e-05
0.000614622
0.00090391
2.03877e-05
-5.39188e-05
7.24919e-06
2.47403e-05
0.000113174
7.74514e-05
-7.30374e-06
0.000208971
-0.000477175
-0.000360184
-0.000100922
1.35976e-05
0.000223945
-0.000235393
0.000275762
-4.42813e-05
-8.96024e-05
6.7604e-05
-2.11749e-06
-0.000356611
-0.000598864
0.000550638
0.000864125
-4.44515e-05
-0.000193441
-2.06001e-05
-0.00068062
0.000356635
-2.7836e-05
-0.00027566
0.000250415
-0.000182869
0.000308815
-0.000208264
0.000278681
-0.000158276
8.78584e-05
0.000171378
-4.09677e-06
4.70191e-05
-0.000137687
0.000115016
2.26711e-05
5.28575e-05
-6.21408e-05
9.2833e-06
3.80831e-05
-8.35859e-05
4.27748e-05
-6.12087e-05
0.000580015
0.000193914
-4.11715e-05
5.68481e-05
6.69341e-05
-6.02106e-05
-0.00029115
0.000279487
-8.76288e-06
-0.00106125
-2.68685e-05
9.43994e-05
0.00118946
-0.00113473
3.61464e-05
-3.52716e-05
6.16881e-05
0.000101198
-7.35629e-05
0.000120084
0.000413602
9.3534e-06
-1.68555e-05
0.000443584
-0.000277982
-0.000383297
6.62869e-06
-0.000737016
-0.00042769
-0.000235102
-0.000133701
5.58263e-05
-0.000312165
4.75597e-05
-9.02366e-06
-1.55728e-05
-2.29632e-05
-0.000233238
4.74544e-05
0.000112678
4.32578e-05
-0.000177092
-0.000310935
0.000100317
0.000488014
-4.09163e-05
9.60701e-06
-0.000106606
-0.000979846
-5.80732e-05
7.4053e-06
8.62599e-05
-8.92706e-05
-4.88359e-06
-0.000143462
-4.76909e-05
0.0001946
-8.06715e-05
0.000250047
-0.000332641
-1.89854e-05
-8.19977e-05
-1.93943e-05
2.41526e-05
-8.29455e-05
-0.000127453
0.000519228
-3.13344e-05
3.57063e-05
-0.000189491
-0.000224304
-0.000758957
0.000966278
-0.000711445
0.000363786
-0.000485383
6.78437e-05
0.000769701
-8.11096e-05
0.000151013
0.000120355
-2.30307e-05
-0.000180071
0.000138277
0.000186683
4.02302e-05
-5.88579e-05
6.62603e-05
-1.32593e-05
-0.000124578
0.000665714
-0.000156743
-0.000641044
0.000247172
0.000118471
8.818e-05
2.43864e-05
2.84711e-05
-0.000111249
0.00115498
3.6702e-05
-0.000132316
-0.000592236
-1.90854e-05
-0.000932251
0.000554538
-1.86027e-05
0.000157569
-8.49433e-06
0.000167061
-6.27565e-05
-0.000223243
0.000194662
3.23165e-05
1.90703e-05
3.29919e-05
0.0004996
6.80802e-05
-0.000211156
0.000317256
5.21773e-05
-5.67073e-05
-3.34243e-05
-0.000262452
-7.31281e-05
7.71607e-05
2.07144e-05
-1.78642e-05
1.74534e-05
0.000363569
-0.000453487
-3.75357e-05
-0.000681462
-0.000511145
0.00043365
-4.59412e-05
8.01206e-05
0.000103419
-4.60333e-05
1.66537e-05
4.99069e-05
-0.000221708
0.000137216
-0.000152585
0.000462646
-5.08321e-06
0.000123624
-8.51987e-05
7.72505e-05
-0.000127764
6.24107e-06
-1.63668e-05
0.000742119
-0.000437735
-0.000159117
0.000427566
-0.000388908
-1.23768e-05
-0.000145225
9.89321e-05
0.000447278
-0.00115258
-0.00027454
-0.000153398
0.000228746
-0.000286498
-0.000122982
-0.000543386
0.000459147
-0.000150358
-6.11607e-05
4.95618e-05
-0.000462086
-0.000508107
-0.00119794
1.65261e-05
-7.57164e-05
-0.000160703
-3.27976e-05
-2.13082e-05
6.6613e-06
4.74445e-05
0.000164543
-0.00014062
-2.29684e-05
0.000224563
-0.00024818
-0.000157908
0.000463566
-0.000370056
0.000140957
-7.45969e-05
-0.000436419
0.000986234
-0.00093866
3.30751e-05
0.00037512
-0.00024064
-0.000120586
7.26188e-05
7.12689e-05
-2.29992e-05
7.67819e-06
1.39766e-05
-9.13078e-05
-0.00142093
-0.000814992
-0.000370379
0.000303223
3.36057e-05
-3.0438e-05
1.8586e-05
-0.000118865
-2.01075e-05
-1.13853e-05
-5.93873e-07
-0.000217702
-5.42929e-05
5.29728e-05
-9.5579e-05
-0.000551239
0.000567011
-0.000495791
0.000565494
1.51678e-06
-0.000481232
0.000426578
5.46541e-05
-0.000432752
-6.30388e-05
-6.17413e-06
-0.00064062
0.000639343
-0.000539344
0.000553915
-1.45708e-05
-0.000495685
-0.000596527
-4.40927e-05
0.000612838
0.000587114
2.57248e-05
-0.000530656
-0.000418136
0.000465372
-0.000422847
-4.2525e-05
-0.000322919
-9.5217e-05
-0.00023105
-9.18689e-05
0.000169946
-0.000122899
-6.11045e-05
0.000574335
1.27785e-05
0.000590394
-1.60594e-05
0.000608595
2.42586e-06
0.000501507
-0.000366284
7.92033e-05
-1.75191e-06
-6.25768e-05
-0.000139427
7.23373e-05
-0.000235589
0.000144114
5.1247e-05
-0.000235259
6.30698e-05
-0.000232281
-0.000662461
0.000193993
-2.40728e-05
7.40679e-05
0.000439508
-0.000535179
0.000127014
-0.000164632
0.000136327
0.000137504
9.44392e-05
2.05764e-05
-0.000823864
-3.2366e-05
-0.000123632
0.000113435
-7.28616e-05
9.07395e-05
-0.000757246
-0.000188027
-0.00145755
0.000533189
0.000280031
-0.000221349
-3.10794e-05
0.000603711
-0.00021221
0.00029259
9.4451e-05
-0.000124253
0.00103306
-0.00123179
7.89146e-05
6.82311e-07
-7.95969e-05
0.00124059
3.25873e-05
5.5064e-05
0.00018954
-0.000122884
-2.51838e-06
3.51016e-05
0.000216721
0.000731403
-0.000737851
-0.000150295
-0.00026102
3.21416e-05
-0.00036657
0.000203753
0.000684775
0.000751859
-0.000757812
0.000177073
-2.98537e-05
-0.000132897
-2.53116e-05
0.000266043
-0.000158138
0.000168634
-0.000511394
-0.00075888
-0.000207051
-7.17105e-05
0.000157857
-7.34156e-05
0.000115932
-0.000200374
0.000224424
0.000215307
-0.000207852
8.45028e-05
-6.36743e-05
-0.000102839
-0.000236599
0.000631205
0.000120905
2.34417e-05
-1.79867e-05
-1.6376e-05
3.38358e-05
0.00015323
0.000270757
-0.000383504
-7.37107e-06
-0.000125455
0.000671623
0.000574273
-0.000205833
-9.27444e-05
-0.000512062
-0.000567217
0.000559919
-0.000162214
8.81655e-06
-0.000678153
0.00048597
-0.000153883
-0.000319144
0.000185631
3.82694e-06
9.12247e-05
0.00032714
-0.000473631
-6.37823e-05
0.000206266
1.51601e-05
-0.000187401
0.000195509
-0.000533972
-8.12158e-06
-4.35962e-05
-3.81529e-05
0.000386959
0.000116874
0.000409848
0.000430608
-0.000128443
0.000126246
0.00047616
-0.000476695
-0.000136691
2.07551e-05
-5.08149e-06
-1.59256e-05
-0.000291726
-6.78581e-05
-1.02959e-06
-0.000440804
-0.00132471
0.00109455
0.000225254
-0.000131139
0.000648004
0.00019504
6.77172e-05
5.17456e-05
5.07766e-05
-0.000186758
0.000266724
-3.90058e-05
1.30933e-05
4.49827e-05
0.000104635
-0.000144737
-5.35554e-05
5.76645e-05
-6.23771e-05
0.000123912
0.000749385
0.000484848
-0.000389233
-2.54998e-05
0.000228458
-0.000166042
-0.000324868
-0.000209296
0.000327477
-0.000240803
3.47961e-06
-4.33433e-05
6.29961e-05
0.000223249
-0.000279729
-6.51619e-06
-4.35612e-05
-4.59443e-05
8.63229e-06