/*--------------------------------*- C++ -*----------------------------------*\
| =========                 |                                                 |
| \\      /  F ield         | OpenFOAM: The Open Source CFD Toolbox           |
|  \\    /   O peration     | Version:  v1912                                 |
|   \\  /    A nd           | Website:  www.openfoam.com                      |
|    \\/     M anipulation  |                                                 |
\*---------------------------------------------------------------------------*/
FoamFile
{
    version     2.0;
    format      ascii;
    class       surfaceScalarField;
    location    "0.31";
    object      phi;
}
// * * * * * * * * * * * * * * * * * * * * * * * * * * * * * * * * * * * * * //

dimensions      [0 3 -1 0 0 0 0];
oriented        oriented;


internalField   nonuniform List<scalar> 
2776
(
-0.000661985
-0.000138117
0.000617389
0.000182713
-0.000885019
0.000959161
0.000302934
-0.000377075
-0.00024442
-0.000221331
0.000150324
0.000315427
0.000176308
-8.0317e-05
0.00108439
-0.00118038
-3.76331e-05
0.000469799
-0.000167941
-0.000264224
-0.000117627
-0.000568392
0.000425386
0.000260634
0.000193471
0.000125579
0.000396574
-6.18112e-05
-0.000644571
0.000309808
0.00100693
0.000884688
-0.000888481
-0.00100314
-0.00101586
0.000830546
-0.000266362
0.00045168
-0.000388484
-0.0012133
0.000550572
0.00105121
0.000476164
0.00019447
-0.000620854
-4.97801e-05
0.000876419
0.000114099
-0.00135414
0.000363618
-0.000123698
-0.000210193
0.000296258
0.000179402
-8.93624e-06
-0.000288093
0.000522461
-0.000175643
-0.000735302
-0.000252194
0.000114005
0.000284127
-0.000145938
3.55246e-05
-0.000431912
0.000396388
0.000544249
-0.00016732
8.57411e-05
-0.00046267
0.000767639
-4.38988e-05
5.47015e-05
-0.000778442
-0.000693536
2.02433e-05
-1.48456e-05
0.000688138
5.04881e-07
0.00021951
-0.000317736
9.77214e-05
0.000611222
2.51783e-05
-2.64559e-05
-0.000609944
0.000727487
5.26104e-05
-3.51284e-05
-0.000744969
0.000308162
-0.000378225
-0.00116794
0.001238
4.20171e-05
-8.26726e-06
5.36914e-05
-8.74412e-05
-0.000231786
1.03718e-05
0.000118272
0.000672726
-0.000754149
-3.68488e-05
5.26801e-05
-9.38774e-05
0.000160222
-0.000119025
-0.000368726
0.000421239
0.000641957
-0.00069447
0.000588284
-0.000921025
-0.000109114
0.000441855
5.1414e-05
-3.71101e-06
3.52368e-06
-5.12267e-05
-3.37965e-05
0.000249888
-0.000122011
-9.40798e-05
-0.000503942
0.000481167
-0.00079738
0.000820154
4.43829e-05
8.47207e-06
0.000406679
0.00017878
-0.000112035
-1.40656e-05
-0.000584406
4.68176e-05
-0.000646283
0.00014438
0.000955287
-0.000244943
-0.000710344
4.86795e-05
-0.00026878
0.000220101
-3.29274e-05
-6.75408e-05
0.000100468
-0.000476756
0.000541448
-6.46913e-05
-0.000485104
0.000476252
8.85203e-06
0.000160892
-2.83675e-05
-0.000132525
0.000199054
7.39955e-06
-0.000206454
0.000669025
-0.000121835
0.000960241
7.96139e-05
0.00032147
-0.000440459
0.00011899
-0.000394404
0.000438443
-4.40393e-05
-0.000306267
0.000356833
-5.05661e-05
-0.000220077
0.00010379
0.000116287
-0.000214542
-0.000670477
-0.000478806
-8.95864e-05
0.000484969
-1.51701e-05
6.84674e-05
-0.000102264
-0.0010873
0.00139546
0.000559452
-4.45191e-05
-0.000514932
-0.000988604
-0.000224696
-5.54891e-06
-0.000128584
0.000134133
-0.000840869
-0.000174994
4.25615e-05
1.88556e-06
-1.74028e-06
-4.27068e-05
0.000202953
-0.000207489
-2.83919e-05
0.000138253
-0.000111288
2.17138e-05
-0.000209496
5.43701e-05
0.000599641
-0.000444515
0.000800294
-0.000694305
-0.000199975
9.3986e-05
0.000268514
-0.000321116
0.000113366
-6.07641e-05
0.0002006
8.71602e-05
-7.52793e-05
-0.000212481
-0.000202251
-5.44878e-05
-0.000453772
0.000899011
-0.000903747
6.74869e-05
-6.27503e-05
0.000189289
-0.000293776
-0.000175197
0.000279684
0.000151683
-0.000144486
2.89333e-05
-3.61304e-05
6.14787e-05
-0.000567085
0.000505607
5.60918e-05
-0.000557551
0.00050146
0.00105232
-0.000449852
-0.000805621
0.000203154
3.91037e-05
-7.46366e-05
7.80945e-05
-0.000669271
-7.92774e-05
0.000328605
0.000419943
-4.48403e-05
0.000215737
3.20566e-05
2.08186e-05
0.000131082
-1.36473e-05
-0.000269259
0.000190217
7.90418e-05
0.00011535
-0.000407683
0.000356585
-6.42528e-05
-0.000588381
5.2792e-05
-9.88419e-05
0.000634431
-0.000338546
0.000527269
0.000361849
3.67596e-05
0.000202687
-4.29038e-05
-0.000196543
-0.00031665
-6.27489e-05
0.000269393
0.000110006
-0.000543158
1.68604e-05
0.000541304
-1.50071e-05
-7.0148e-05
0.00058491
-0.000571209
5.64475e-05
-0.00081499
0.0011522
-0.000841147
4.63572e-05
-1.91445e-05
0.000344609
-0.000371822
0.000788077
-0.000421172
4.74371e-05
-2.03722e-05
6.59326e-05
-9.29974e-05
1.87479e-05
1.06992e-05
1.25701e-05
-0.000233015
6.64968e-05
-6.52677e-05
0.000293247
-0.000878729
0.000761789
-0.000227196
0.000280115
-0.000396341
0.000343422
1.07704e-05
-0.000299803
0.000227222
-0.000175953
0.000821978
0.000137183
-2.8363e-05
-8.03694e-05
-5.37522e-05
-0.000114189
0.000205309
2.60378e-05
7.77526e-05
6.10062e-05
0.000260463
-4.85836e-05
-0.00034582
-0.000518554
3.34509e-05
-3.87239e-05
-0.000605847
-4.03627e-05
4.45099e-05
0.000386203
0.000665008
-0.000102533
1.01159e-05
-2.3518e-05
1.52877e-05
0.000564684
-0.000596695
2.66095e-05
5.40107e-06
-1.46724e-05
-0.000516176
0.000392731
0.000298389
0.000532157
-2.10653e-05
-8.51494e-05
2.07344e-05
8.54803e-05
0.000424096
-0.000115663
0.000168305
-0.000482377
0.000790237
6.91741e-05
0.000114498
9.7994e-06
-8.40655e-05
0.000110531
7.58062e-05
-0.00111596
0.000998049
3.75891e-05
-0.000347679
-4.23839e-06
0.000208802
0.000143115
7.48767e-05
-2.9675e-05
-3.4189e-05
-1.10127e-05
-4.81109e-05
0.000209003
-4.80127e-06
0.000203855
0.000409507
-0.000183458
-0.000706133
0.000185998
0.00063148
-0.000111345
-0.000188879
0.00072613
3.00509e-05
-0.000567302
-0.000328366
0.000937688
6.26781e-05
-0.000672
-5.99302e-05
5.37199e-06
7.90685e-05
-2.45103e-05
0.000121797
0.000550904
0.000141075
0.000642504
2.73952e-06
-1.92387e-05
-1.59207e-06
1.80913e-05
-8.22322e-05
0.000241674
0.000138831
-3.52753e-05
8.34241e-05
-5.6379e-05
-9.50829e-05
0.00074244
2.59668e-05
-0.000673324
0.000686851
2.43539e-05
-2.14607e-05
-0.000689744
0.00051392
-2.73453e-05
3.34406e-05
-0.000520015
0.000217413
-0.000157259
-0.000130026
6.98726e-05
-0.000565276
-0.000119906
4.49689e-05
0.000640212
5.63095e-05
1.91472e-06
-6.81021e-06
8.53657e-05
-4.28851e-05
-3.07553e-05
-1.17253e-05
0.000134167
-0.000114599
3.09753e-05
-5.05435e-05
0.000166291
-0.000122351
3.49804e-06
1.87481e-05
-2.10656e-05
0.000227253
-0.000424672
0.000500352
-0.000840994
-0.000100821
0.000235682
9.35854e-05
-0.000115952
3.31366e-05
-0.000174586
-4.42732e-05
-1.83167e-05
0.000237176
0.000226429
-7.161e-05
9.63701e-05
0.000723452
-6.02484e-05
-0.000759574
0.000709327
-0.000723225
-0.000801092
1.11457e-05
1.9466e-05
2.85658e-06
-3.34682e-05
-0.000752112
0.000248155
0.000486613
1.73435e-05
-9.23026e-07
-8.22748e-06
6.546e-05
-0.000651381
0.00020305
0.000563681
-0.000203967
0.000133819
0.000516521
-0.000771962
-0.000167759
0.0004232
-2.00417e-05
0.000102875
-0.000368334
0.000285501
9.38679e-05
-0.00039501
0.000764809
-0.000705637
8.19023e-05
0.000556203
-0.000515084
8.06773e-05
0.000658248
-0.000553966
-6.40127e-05
-4.02696e-05
0.000116489
0.0015633
-0.00122463
-0.000455159
0.000621182
-0.000843893
0.000340982
-3.86663e-06
1.04195e-05
3.65018e-05
-4.30546e-05
0.00026213
-1.81877e-05
0.000112891
-4.40717e-05
0.000102088
0.000560458
-0.000673016
0.000112558
-0.000403725
0.000287273
-0.00127555
0.00139201
-0.000450156
-2.8122e-05
0.000618339
-0.000140061
0.000227711
-0.000194437
-0.000402
-2.07943e-06
2.76067e-08
1.21677e-05
2.09635e-05
4.40438e-05
8.66759e-05
-0.00131744
0.00116113
-0.00025139
0.000407704
0.000382157
-0.000327797
-0.000134415
8.00552e-05
0.00015404
-0.000511022
0.000479104
-0.000122123
-0.000285275
6.29119e-06
0.000169502
0.000109482
-2.44011e-05
-1.7104e-06
0.000382448
-0.000356336
0.000598637
5.84068e-06
-1.95681e-05
-0.000532598
2.74507e-05
-3.80107e-05
-0.000353851
-0.000186274
0.000223474
-0.00102434
-0.000170514
0.00029111
-8.85971e-05
1.66716e-05
-0.000197333
0.00070204
-0.000194064
-0.000603059
6.37775e-05
-5.11212e-05
-1.43966e-05
-0.000448432
0.000334961
0.000406718
0.000272288
0.000361591
-0.000573049
-6.08297e-05
0.000124803
0.00015692
-0.00103383
3.18062e-05
-1.01495e-05
-2.37361e-05
-0.000115316
-0.00017846
-0.000376286
0.000306369
0.000495904
-0.000425987
-0.00025306
5.99013e-05
3.62875e-05
0.000156871
-0.000742538
0.000449551
-0.000416597
-0.000235725
0.000203889
0.000108662
-3.44252e-05
-0.000508577
0.000453452
0.000374349
-0.000319224
-0.000403388
0.000397921
5.89887e-05
-5.35219e-05
-0.000134393
-5.76802e-05
4.75875e-05
-0.000252138
-0.000414131
7.72936e-05
0.000698428
0.000497025
0.000789636
-0.000416677
-0.000869985
-8.92521e-06
6.37805e-06
1.56095e-05
-1.30623e-05
1.07255e-05
0.000757904
-9.906e-07
4.81102e-05
0.000591846
-9.57077e-05
-3.38247e-05
3.55433e-06
-0.000551985
0.000582255
-2.40141e-05
1.83131e-05
-0.000236496
0.000242197
0.000434696
-0.000171273
0.000357759
1.35182e-05
-0.000683701
-2.33534e-05
5.28928e-05
-0.000587061
0.000787651
-0.000253483
0.000622005
9.96754e-05
-0.000123043
-0.000513644
3.39394e-05
-0.000237487
-0.000472574
0.00035621
-0.000185901
0.000711838
0.000238872
-0.000169346
0.000548795
0.000176754
-4.90119e-05
-1.27403e-05
-2.33972e-05
-3.72413e-05
-3.32988e-05
5.22717e-05
-4.39836e-05
-1.73441e-05
-0.00049095
0.000356338
-0.000125473
-0.000269228
8.29565e-05
0.000311744
0.000115591
0.00013937
-3.42675e-05
-0.000220694
8.17156e-06
-2.65884e-05
-9.56693e-05
6.15013e-05
-1.48439e-05
3.83845e-05
-5.70391e-05
4.75878e-05
-4.69766e-05
0.00032397
-0.000560648
0.000283655
4.94113e-05
-0.000408169
-0.000214292
-7.89587e-05
0.000403527
-0.000362767
3.81986e-05
0.000178827
0.000121002
-0.000164359
-0.000135471
-3.42272e-05
-0.000254041
4.3641e-05
-8.14581e-05
5.57155e-05
-1.78985e-05
1.21871e-05
0.000197229
0.000125298
-0.000147159
-0.000175368
8.96608e-05
-5.35104e-05
-0.000443833
0.000468108
-0.00035152
-0.000341607
2.07063e-05
3.23172e-06
-1.13078e-05
-1.26302e-05
8.38418e-05
-0.000645562
-1.29218e-06
2.78101e-06
-4.93836e-05
4.78948e-05
-0.000258438
0.000907031
-0.000293089
0.000251085
-2.97912e-05
7.17949e-05
-0.000310986
0.000750973
0.000583743
0.000210139
-0.000171877
0.000837824
-0.000420812
0.000899462
-0.000108773
0.000129928
0.000562018
-0.000583173
-4.15479e-06
4.88698e-05
-5.36402e-05
7.63354e-05
2.0176e-05
-8.50241e-05
0.000640718
-0.00079228
-0.000971024
0.00120791
0.000555396
-0.00037155
0.000375104
-0.00013966
0.000239335
8.65734e-05
-6.82603e-05
-3.45751e-05
0.000416133
-2.34875e-05
0.000480091
-3.59094e-05
-5.70203e-05
0.000458494
-0.000449287
-0.000517844
0.000508637
-2.31453e-05
-0.000440374
0.000524068
-8.36942e-05
-6.05517e-05
7.42754e-05
-0.000549236
-0.000138636
-0.00130586
0.000652216
0.000241564
-0.000445531
-0.000357876
-1.36737e-05
9.21248e-05
-5.55144e-06
1.17245e-05
4.24728e-06
-9.59372e-06
-4.72031e-05
5.3211e-05
-5.10079e-05
6.05728e-05
3.96051e-05
-0.000721755
0.000245882
-0.00015528
0.000631154
-0.000572017
0.000452747
0.000172015
-0.000209586
-7.70282e-05
-1.49449e-06
4.94772e-05
1.2003e-05
-5.99858e-05
-0.000325759
0.000224856
0.000179513
-7.86098e-05
0.000316992
-0.000179385
0.000446273
-0.000583881
-0.000581919
0.000527456
0.000237305
7.31552e-06
-9.18845e-05
-0.000152736
-1.58577e-05
-1.63436e-05
0.000157796
-0.000125595
0.000344951
-0.000430701
2.51987e-05
-2.0887e-05
0.000321565
-0.00014168
7.07397e-05
-5.76441e-05
0.000938082
-0.000852073
-0.000502686
0.000553849
0.000388098
-0.00075595
0.000499026
0.000118364
-0.00081925
4.85373e-05
-0.000823893
0.00041913
-2.93759e-05
-0.000156898
0.000341016
-0.000313565
0.000202573
-8.06603e-05
-0.000172479
-5.17334e-05
2.05625e-05
-4.73846e-06
-3.22572e-05
-0.000143573
5.70642e-05
0.000118766
-1.68817e-05
8.93497e-05
3.50232e-05
-0.000107491
7.71445e-05
-2.18287e-05
-5.53157e-05
-0.000560271
0.00139507
-0.00109323
0.000410653
-0.000565773
-0.000752768
0.000142145
-0.000211637
-0.00018036
-0.00019366
-3.23549e-05
-7.64271e-05
0.000302442
-8.25041e-05
3.83992e-05
0.000279732
-0.000235627
-0.000888879
0.000919286
0.00036544
-0.000395847
-0.000171679
0.000106104
-0.000889409
0.000954984
-0.00111785
0.000550012
0.000770893
-0.000107454
0.00046737
-0.000353753
0.000737225
0.000130822
0.000285623
-0.000152214
-0.000264231
7.7888e-05
-0.000463885
4.97056e-05
0.000336291
0.000648827
-4.23231e-05
1.18357e-05
-5.85251e-05
8.82315e-05
2.59588e-05
-5.56652e-05
0.000700602
-1.4313e-05
0.000322836
-0.00100912
-0.000128836
0.000173091
-0.000126759
7.29752e-05
3.3406e-05
7.30213e-05
-4.21405e-05
-5.98822e-06
-3.60471e-06
-0.00101536
-0.000104182
0.000154579
0.000964959
-0.000986276
0.000472602
0.00101132
-0.000497643
0.000168528
-0.000452895
0.000579179
0.000574318
-4.17533e-06
1.38866e-06
-6.02195e-05
0.000134842
0.000402269
-0.000476892
7.35622e-05
-0.00051703
0.000478992
-0.000469005
-0.000237829
4.22303e-05
-2.57317e-05
0.000776904
-0.000870801
0.000339779
-0.000204945
0.000305831
0.000357607
0.00122544
-0.000565245
0.000268086
-0.000928282
0.000455279
-6.75731e-05
-0.000262903
8.37415e-05
-2.8376e-05
-0.000292064
0.000122748
0.000310325
-0.000141008
-8.48439e-05
-0.000174604
0.000135584
0.000123863
-6.21791e-05
2.25891e-05
3.3579e-05
6.01091e-06
-0.000414268
-7.38806e-06
-0.000448329
0.000269247
-1.64106e-05
0.000288685
-0.000447888
0.000516561
-0.000357358
0.000467313
0.00112443
-2.84489e-05
-1.80829e-05
9.52274e-05
-0.000603468
-2.25226e-05
0.000797505
-0.000685944
0.000382475
-0.000494036
-0.000151215
-0.000838815
-3.43133e-05
0.000254147
0.000504209
-0.000535439
-0.000710028
0.00156397
0.000371501
-2.55312e-05
-0.00118972
0.00136996
-0.000154706
-9.32242e-06
0.00012025
0.000148898
-0.000180916
0.000152405
0.000109743
0.000288127
-0.00021909
-8.01238e-05
-0.000485121
0.00134076
-0.000554254
-0.00149654
0.000354533
-0.000445907
9.70124e-05
1.39152e-05
0.000348302
-5.73085e-05
5.04104e-05
-3.40214e-05
0.000614765
-6.37698e-05
-0.000389091
0.000445259
7.60173e-06
0.000117904
-0.000176001
-8.62733e-05
0.000221022
6.58522e-05
0.000697056
-0.000639193
-0.000535057
0.000477194
0.000697018
-0.000879049
0.000657133
-0.000475101
-0.000180109
9.99852e-05
0.000207856
0.000619458
-0.000461913
0.000314935
0.00106626
0.000300268
1.40122e-05
0.000498279
-0.000282295
-0.000215984
0.000598424
-0.000852481
-0.000320182
0.000146414
-6.4061e-05
-0.000639594
-0.000186434
0.000139022
0.000687006
0.000233091
0.000427004
-0.000465625
0.000705734
-0.000207455
-0.000402584
-0.000194906
0.000370293
0.000488324
-0.000714598
0.000496043
-0.000113667
7.16655e-05
-0.000454042
-4.75685e-05
0.000513237
1.6243e-05
-0.000481911
0.000542884
-9.44097e-05
2.25354e-05
0.000598164
-7.7815e-05
-0.000552924
-2.53244e-05
0.000570222
8.02652e-06
-1.71515e-05
0.000364438
-5.6792e-05
1.12878e-05
0.00020533
0.000147821
1.48266e-05
0.000276193
8.52169e-06
0.000179396
2.22626e-06
-8.94278e-07
-0.000147289
0.000145957
-0.00036424
-8.63601e-05
0.000383436
6.71637e-05
3.10358e-05
-0.000201616
0.000205721
-3.51399e-05
-4.19529e-05
-0.000350985
2.8698e-05
-1.32572e-06
5.77947e-05
0.00011336
-0.000169829
-2.85992e-06
-4.54392e-05
9.68041e-05
-4.8505e-05
1.07454e-05
-1.85673e-05
-0.000254749
0.000960483
-3.97073e-05
6.29291e-05
-2.45475e-05
2.08056e-05
-2.36655e-05
-9.80678e-05
8.92007e-05
1.96124e-05
0.000123493
-6.37646e-05
-0.000527677
8.80394e-05
-0.00049428
0.000933918
7.78844e-05
8.6922e-05
-0.00115645
-0.000204327
0.00115334
0.000207434
-8.09996e-05
3.97639e-05
4.78514e-05
-6.61566e-06
0.000553978
-0.000285463
-0.000796192
4.21528e-05
0.000116302
-0.000323312
0.000123542
0.000265441
-6.567e-05
0.000156428
-0.000128238
-0.000150205
0.000122014
2.00302e-05
8.6977e-05
6.27368e-06
-0.000113281
-6.63078e-05
0.000708325
-0.000449536
0.000425381
-2.54285e-05
0.000100857
-0.000206274
-0.000273941
0.000264044
0.000216171
0.000161658
0.000208727
0.00012645
0.000113092
9.56123e-07
-9.09279e-05
3.40383e-05
5.89671e-05
-0.000374313
0.000215464
-0.000292212
0.00045106
-4.14703e-07
-1.48332e-05
-0.00011299
4.81196e-05
-7.39628e-05
-2.85449e-05
8.27506e-05
-0.000428519
-0.000669067
-0.000340144
-4.23061e-05
0.000353905
0.000142038
2.09608e-07
-9.19494e-05
-7.87843e-05
9.30195e-05
6.39063e-06
-0.000221245
6.09517e-05
0.000285872
6.6694e-05
-3.7795e-05
-2.75764e-05
2.60787e-05
-6.20541e-05
-4.5221e-05
8.11964e-05
-6.28142e-05
4.79472e-05
-3.05722e-05
3.42303e-05
-0.000214339
0.00112058
3.94328e-05
-0.00116002
0.000147699
-0.00017239
0.000251944
4.76359e-05
-2.68302e-05
-9.06948e-05
-5.46313e-05
4.79147e-05
-0.00010516
5.72448e-05
8.50184e-05
4.37675e-05
-3.45705e-05
5.82368e-05
-5.97309e-05
-3.51921e-05
3.74183e-05
9.13792e-05
0.000107662
-0.000155274
0.000185108
-0.000160697
0.000146365
9.59358e-05
-9.46018e-05
0.000520254
-2.15287e-05
-0.000513398
0.000176569
-0.000198741
0.00114071
0.000172691
-0.000235468
0.000209143
0.000382696
0.000243058
-0.0001055
0.000141593
-0.000247243
0.000120749
-1.50991e-05
-0.000125931
0.000254917
0.000144414
-0.0002734
0.00014735
-0.000167238
4.77731e-05
7.064e-05
-0.000118413
0.00140848
-5.40308e-05
-0.000246631
-5.97531e-06
0.000251712
-3.50841e-05
-1.07973e-07
-4.42867e-05
9.32541e-06
7.25994e-05
-3.76381e-05
2.4502e-05
0.00029559
-0.000117405
1.2689e-05
0.000150032
-0.000103273
0.000255717
-0.000101536
-0.000157715
1.03188e-05
0.000103045
-0.000122829
0.000110001
-4.5997e-05
0.000197018
0.000105473
-6.93998e-05
0.000208116
-0.000255672
-0.000447092
0.000453749
-3.19815e-05
-0.000176879
3.18522e-05
0.000180905
-6.81561e-05
0.000102848
-0.000215596
-4.31763e-05
-0.000421067
7.4666e-05
-6.56238e-05
0.000177994
-0.000185619
0.000257164
0.000141772
-0.00025409
0.000113574
0.000233602
-0.000161685
0.000136199
-8.79457e-05
1.49277e-05
-6.25257e-05
-0.000131442
-0.000393595
8.77025e-05
0.000437334
0.000275801
-8.17444e-05
-0.000217021
2.29641e-05
0.000165114
0.000205656
-0.000104189
-0.00026658
0.000141739
0.00107614
-0.000264877
-0.000876341
-0.000112103
0.000345397
4.25068e-05
-0.00014544
0.00022881
0.00112575
0.000246317
4.88478e-05
-5.94521e-05
0.000244206
-2.52648e-05
-0.000127998
-6.21986e-05
4.20579e-05
0.000320409
-0.000110819
-7.90327e-05
4.44118e-05
0.000507595
-6.14228e-06
-9.28471e-05
1.62e-05
-1.63016e-05
0.000453851
-0.000375501
-0.000159329
-0.000459576
-9.17336e-05
0.000464949
0.000120528
0.000771199
-0.000630248
-0.00026148
3.00256e-05
0.000556396
0.000712402
-0.000313941
-8.78509e-05
0.000312325
8.94663e-05
-0.00011658
0.00072277
-0.000598183
-0.00017197
0.000653573
-0.000186631
0.000152898
-0.000121851
-0.000216666
-0.000186128
-0.000483189
-0.00011376
0.000533179
-0.00083013
0.000940821
0.000222896
0.000145594
0.00025375
0.000165392
0.000534382
-0.00055979
0.000145936
0.000228858
-7.77876e-05
-0.000169122
1.80522e-05
0.000316882
-0.000200176
-1.40237e-06
1.02322e-05
-0.00112608
0.00110055
0.000496459
6.95118e-05
0.000205228
0.000162354
3.70401e-05
-0.000255477
0.000250289
0.000703333
0.00072425
0.000206486
2.42783e-05
-0.000955014
-2.17195e-09
0.000163872
0.000591703
0.000161093
0.000188362
1.99228e-05
-0.000276441
-5.13619e-05
0.000501601
-0.000458153
7.91413e-06
-0.000840259
0.0007102
0.000117285
-0.000193997
0.000342779
-6.01511e-05
-0.000325805
0.000240962
5.02479e-05
4.42053e-05
-7.48682e-05
6.48933e-05
0.000347838
0.00041132
-3.81553e-05
-5.59727e-05
0.000142043
0.00111125
9.33912e-06
4.38485e-05
5.12479e-05
-4.89609e-05
-0.000452568
-0.000541328
0.000546329
-5.39628e-05
-0.000905161
0.000569592
-0.000683052
1.39762e-05
-0.000755628
-0.00038559
-0.000625543
0.000911031
-0.000191662
7.53322e-05
0.000152574
-0.000199331
7.77879e-06
-0.000201794
0.000345513
-0.000916265
0.000464594
-1.14475e-05
-0.000971448
0.000663993
-0.000597706
5.25922e-06
-2.67823e-05
0.000718905
-0.000697382
0.000261
0.000272326
-6.73727e-06
-0.000368171
0.000102582
0.000121243
-6.11532e-05
-0.000112451
1.01645e-05
4.90382e-06
-1.48365e-05
-0.000376723
0.000227171
-5.04441e-05
0.000168314
0.000412276
-0.000585674
3.85314e-05
0.000460491
0.000100132
-0.000111949
-0.000554653
-0.000677638
0.00125067
0.000100168
-3.45947e-05
0.000545392
9.601e-05
0.000692512
-0.000651443
-0.000137079
-0.000106286
0.000148379
-0.00105745
-1.82596e-05
-5.4855e-06
0.000569137
-0.000527095
0.000265978
-0.00024699
0.000273658
-0.000292646
0.00156861
-0.000935542
0.000327786
-0.000960858
0.000454308
6.17822e-05
-0.000605366
-0.000105194
0.000824365
-0.000642462
-0.000381461
0.000199558
0.00030352
-0.00029804
-0.000225917
0.000731995
-0.00059642
-0.000461202
-2.3389e-05
-0.00015502
0.000398653
9.49349e-05
-0.000338568
-0.00126842
9.18127e-05
6.06509e-05
0.000811469
8.40234e-05
0.000210539
-0.00110603
0.000460113
0.000150772
0.000166964
-0.000101936
-7.60439e-05
0.000662466
-0.000907877
0.000561204
-0.00019043
-0.000248033
0.000132906
0.000305557
-0.000588601
0.000673982
-0.000673306
0.000705742
-0.000449562
0.000505717
3.85083e-05
0.00117755
-0.00117663
-0.000160704
-0.000384327
0.000973701
-0.000961975
-0.000331467
0.000548427
-0.000437207
0.00097325
-0.00100505
0.000927621
-0.000908549
-0.000325655
-8.01375e-05
-2.37614e-06
-0.000196219
0.000134997
0.000158234
-1.8116e-06
0.000188432
4.22374e-05
-0.000200331
-0.000254421
-0.000112631
0.000178384
0.00019141
-0.000141614
-0.000534383
0.000312855
-0.000198526
-0.000865204
-0.000249249
0.000667147
-0.000803667
-0.000415722
-0.000558996
0.000822694
0.00080103
-8.13711e-05
-0.00016581
0.000128517
-0.000889862
-2.68593e-05
-9.38912e-05
9.2439e-05
-0.000885133
7.45284e-06
1.65726e-05
0.000882753
-0.000906778
8.00551e-06
5.62906e-05
0.000843315
-0.000899605
-0.000237751
0.000113285
-0.000194069
0.00075401
-0.000328484
-0.000152957
-6.2051e-05
-0.000569285
-0.000232983
0.000409526
-0.00056747
-2.98903e-05
0.000811583
-0.00077668
-0.00070155
-0.000898792
0.00103939
0.000560949
2.64688e-05
-1.19687e-05
0.000959201
0.000146789
0.000224481
0.00108765
-0.00113764
0.000727114
-9.03325e-05
-0.00105599
0.00110856
3.7765e-05
-0.00117492
-2.96367e-05
7.84782e-05
-6.26092e-05
-0.000637182
-0.000183865
0.000649077
0.000112839
-0.000526961
-0.000137095
0.000550296
-0.000431462
2.50848e-05
-0.00103142
-0.000494226
0.000476138
0.00014891
6.07178e-06
-6.0179e-06
4.2004e-05
-0.000615509
-0.000163287
-0.000203177
-0.000792707
-1.31635e-05
0.000805871
4.09413e-06
-3.56692e-06
-4.23822e-06
0.000279048
-0.00126865
-5.65173e-05
0.00104612
-0.000429808
1.41617e-05
-7.68413e-06
-9.39905e-06
0.000568171
-0.000551088
-7.47289e-05
1.72053e-05
-0.000952339
-1.86336e-05
1.84143e-05
-7.88134e-05
-4.43856e-05
-1.46843e-05
2.46448e-05
0.000687123
-0.000395021
0.000118867
0.000265098
0.000394399
0.000200909
0.00024233
5.64659e-05
0.000111725
-0.000430171
-7.31311e-06
0.000122558
-0.000246529
8.97033e-05
-0.000176358
0.00022986
2.94543e-05
-1.66255e-05
1.83593e-05
-2.35573e-05
7.62247e-05
-7.07503e-05
-0.000366394
0.000606099
-0.000257127
1.74225e-05
0.000869408
-0.000913346
0.000656527
7.57931e-05
0.000181026
-8.02705e-05
0.000184065
-6.6896e-05
4.63219e-05
-2.6629e-05
3.79495e-05
-9.93324e-05
-6.04684e-05
2.00485e-05
-3.61518e-05
1.61033e-05
-7.29147e-05
1.92567e-05
-4.89034e-05
2.69207e-05
2.19827e-05
-6.13491e-05
5.83009e-05
3.04815e-06
-5.02608e-05
-0.000377023
-5.53378e-05
5.19039e-05
3.4339e-06
7.13319e-05
-0.00110572
0.00118342
-0.00048793
-0.00149168
-3.49087e-06
2.35393e-05
-6.52157e-05
0.000172124
8.64307e-05
1.37719e-05
-7.39944e-05
2.5091e-05
3.51206e-05
0.000736415
-0.000716772
-0.000203507
2.34299e-05
2.96314e-06
1.83949e-06
-0.000464501
-0.000164292
-0.000194633
0.000351939
0.000146207
-4.75511e-06
-6.89943e-05
3.77859e-06
-0.000179514
0.00023092
2.84129e-05
-0.000406228
6.52638e-05
0.000414527
-0.00042107
0.000523754
0.000749168
-8.07595e-05
-2.4531e-05
6.26392e-05
0.000689006
0.0012144
-0.000920797
0.000707269
7.65081e-05
0.000469349
-0.000346444
3.94488e-05
-5.19981e-05
-0.000134755
0.000121935
0.000113429
-0.000174097
-6.12665e-05
-0.000139397
-6.65524e-05
-0.000430773
5.06074e-05
-0.000691333
-0.00014994
9.98116e-05
0.000741461
0.00103407
1.8904e-05
-0.000294461
0.000372286
6.4944e-05
-0.000314483
0.000110525
-1.52976e-05
0.000191964
-0.000382954
-0.000288076
-6.59262e-05
-5.67701e-05
0.000209127
-0.00013227
7.67719e-05
-7.30507e-05
-8.97166e-05
6.34348e-05
-1.62865e-05
-0.000386275
-0.000682356
0.000622108
0.000905034
3.10378e-05
6.63195e-06
-3.61446e-06
-0.000685853
0.000650771
-8.58036e-05
-0.000310787
0.000297749
-0.000195844
0.000417955
-0.000101273
4.51536e-05
-8.60904e-06
6.47285e-05
-0.000155955
0.000296674
-6.6627e-05
-0.000149806
0.000123432
2.63741e-05
6.27887e-05
-8.59668e-05
2.31781e-05
3.93588e-05
-9.54529e-05
0.000107562
-0.000158845
0.000670767
0.000312443
-7.53915e-05
0.000101344
0.000175275
-0.000153126
-0.000364711
0.000346183
-2.48347e-05
-0.00120198
-4.36079e-05
0.000107944
0.0012254
-0.00116599
4.26774e-05
-8.2975e-05
6.20249e-05
0.000113244
-7.87494e-05
0.000127879
0.000432893
1.34979e-05
-2.19235e-05
0.000411953
-0.000298644
-0.000403214
5.21146e-06
-0.000828798
-0.000415243
-0.000234983
-0.000121343
5.82097e-05
-0.000321223
2.39357e-05
2.70748e-06
-1.59334e-05
-1.07097e-05
8.48392e-05
-2.83491e-05
-0.000387272
1.8064e-05
-0.000158885
-0.000319563
8.85285e-05
0.000508813
-4.60565e-05
9.90471e-06
-0.00038592
-0.000990706
4.53538e-06
0.000275875
-0.000118142
1.56209e-05
4.78837e-07
-0.000259738
-0.000157755
0.000361521
-9.2615e-05
0.000364182
-0.000348457
1.93388e-05
-0.000429584
5.18693e-05
8.8661e-06
-7.9369e-05
-0.000132068
0.000544546
-0.000115577
2.78467e-05
-0.000194987
-0.000231497
-0.000775174
0.000997462
-0.000735523
0.000354833
-0.000518103
7.8086e-05
0.000876059
-0.000200989
0.000202257
4.09617e-05
-0.000248308
0.000148538
-0.000111867
-3.41314e-05
-0.000314287
0.000271992
6.66741e-05
-7.32859e-06
-0.000134214
0.000792426
-0.000246689
-0.000771653
0.000213964
0.000127742
0.000258273
3.57095e-05
2.70792e-05
-0.000107276
0.00118743
4.55885e-05
-0.000163173
-0.000677145
-5.61787e-06
-0.000959972
0.000563999
-3.67271e-05
0.000198858
-1.97021e-05
0.000202927
-7.21571e-05
1.22792e-05
0.000208076
3.65559e-05
1.91283e-05
1.48052e-05
0.000498489
7.19245e-05
-0.000193621
0.000380356
8.57889e-05
-0.00011848
-5.5906e-05
-0.000282088
5.15664e-05
-2.33588e-05
-0.000161959
8.24548e-05
0.000294969
0.00036232
-0.000447755
-4.66332e-05
-0.000705136
-0.000514944
0.000444906
-5.80282e-05
0.000104997
0.000114523
-5.10265e-05
3.25652e-05
1.97833e-05
-0.000272288
0.000172655
-0.000194879
0.00049751
-2.12911e-05
0.000143249
-0.00013745
0.000130582
-0.000157491
5.84741e-06
-6.49221e-05
0.000839351
-0.000497211
-0.000236035
0.000490126
-0.000549617
-6.90922e-05
-0.000135441
6.27773e-05
0.000459901
-0.00116965
-0.000280959
-0.00016895
0.000393869
-0.00044259
-0.00012715
-0.000561096
0.000473704
-0.000167079
-5.45893e-05
-4.21009e-06
-0.000522806
-0.000560382
-0.00133782
-0.000234879
0.000228757
-0.000407696
6.84776e-05
0.000309464
-0.000166651
-0.000211291
0.000169976
-0.000144265
-2.58272e-05
0.000243735
-0.000271418
-0.000163655
0.000491613
-0.000388177
0.000117435
-0.00010493
-0.000433676
0.00111567
-0.00101182
5.16279e-05
0.000379938
-0.00025023
-5.98533e-05
0.000342924
2.72541e-05
-4.70006e-05
1.80932e-05
2.8935e-05
-0.000202494
-0.00157401
-0.000943213
-0.000380742
0.000311802
0.000184998
-4.77514e-05
2.60513e-05
-0.000128264
-4.32768e-05
4.46218e-06
-5.32167e-06
-0.000159111
-0.000298195
2.3657e-05
-6.02236e-05
-0.000590479
0.000601205
-0.000535778
0.00059268
8.5251e-06
-0.000537084
0.000469661
6.74228e-05
-0.000471242
-6.45356e-05
-1.58137e-06
-0.000657506
0.000671025
-0.000578198
0.000593541
-1.53431e-05
-0.000530088
-0.00059781
-5.96966e-05
0.000656179
0.000639287
1.68923e-05
-0.000520516
-0.000444347
0.000446241
-0.000396735
-4.95059e-05
-0.000338506
-0.00010584
-0.000236061
-0.000102446
0.000165371
-0.000105469
-7.06899e-05
0.000633228
6.05831e-06
0.000657134
-2.39059e-05
0.000683101
1.96579e-07
0.000571941
-0.000371002
0.000116618
-6.09346e-06
-0.00013623
-0.000308306
0.000151891
-0.000247029
0.000137596
0.000296381
-0.000195059
0.000338152
-0.000342657
-0.000727463
0.000165839
-1.96468e-05
7.09843e-05
0.000427655
-0.000651711
0.000138482
-0.000178104
0.000186447
0.000147208
9.98216e-05
2.361e-05
-0.000848503
-4.04374e-05
-6.16672e-05
0.000139639
-8.03265e-05
9.63685e-05
-0.000853365
-0.00019302
-0.00148694
0.000571552
0.000272255
-0.000213859
-2.49454e-05
0.00068358
0.000153084
-0.000205434
7.56563e-05
-0.000110133
0.00106158
-0.00126766
7.31491e-05
3.57598e-06
-7.67251e-05
0.00125196
3.5826e-05
7.43881e-05
0.000224185
-0.000134385
5.11285e-05
1.33739e-05
0.000241055
0.000840695
-0.000853463
-0.000233921
-2.90248e-05
1.74824e-05
-0.000392283
0.000217272
0.000735469
0.000866156
-0.000867716
-0.000253365
1.06011e-05
-4.84394e-05
2.05759e-05
0.000273274
-0.000161312
0.000173661
-0.00048994
-0.000822221
-0.000228283
-8.34389e-05
0.000152338
-0.000115564
0.000144742
-0.000181516
0.000241609
0.000234083
-0.000224607
0.000101065
-0.000121035
-6.07674e-05
-0.000270883
0.000666611
9.32296e-05
-2.11099e-05
-3.80449e-05
-3.2513e-05
7.26059e-05
0.000179922
0.00033364
-0.000487566
3.72188e-06
-0.000136763
0.000691581
0.000620166
-0.000185708
-8.33205e-05
-0.000546151
-0.000646731
0.000640589
-0.000180847
1.18966e-05
-0.000721869
0.000517563
-0.000149447
-0.000323095
0.000185788
2.98521e-05
0.000200799
0.000371525
-0.000532043
-0.000105844
0.000208327
5.1928e-05
4.09828e-05
-1.58053e-05
-0.000558083
7.19691e-06
-3.66297e-05
-3.08806e-05
0.000400162
0.000126409
0.000425753
0.000450595
-0.00012868
0.000151551
0.000444708
-0.000511406
-7.00133e-05
2.32479e-05
-7.40595e-06
-1.94467e-05
-0.000469944
-5.77116e-05
-2.20019e-07
-0.000581521
-0.00136261
0.00112779
0.000186495
-9.02603e-05
0.000743116
0.000198672
7.31712e-05
0.0001102
9.03603e-06
-0.000180876
0.000267666
-5.82298e-05
1.35947e-05
6.37634e-05
-0.000107002
0.00010493
-0.000198259
5.78136e-05
-5.21255e-05
0.000172696
0.000769131
0.000486626
-0.000387504
-3.93698e-05
0.000247192
-0.000179739
-0.000349541
-7.5675e-05
6.29056e-05
-0.000268192
3.00442e-05
-0.000389151
5.95454e-05
0.000293792
-0.000371373
1.80356e-05
-0.000134141
-4.13091e-05
-2.52502e-05