/*--------------------------------*- C++ -*----------------------------------*\
| =========                 |                                                 |
| \\      /  F ield         | OpenFOAM: The Open Source CFD Toolbox           |
|  \\    /   O peration     | Version:  v1912                                 |
|   \\  /    A nd           | Website:  www.openfoam.com                      |
|    \\/     M anipulation  |                                                 |
\*---------------------------------------------------------------------------*/
FoamFile
{
    version     2.0;
    format      ascii;
    class       volVectorField;
    location    "0.21";
    object      U;
}
// * * * * * * * * * * * * * * * * * * * * * * * * * * * * * * * * * * * * * //

dimensions      [0 1 -1 0 0 0 0];


internalField   nonuniform List<vector> 
5794
(
(-1.10034 0.391329 -2.62671e-17)
(0.0667276 2.18139 0)
(1.80183 -0.245792 -1.37539e-16)
(-0.0529669 -0.191391 1.65682e-16)
(3.23518 0.775705 3.09678e-17)
(-0.119329 2.04913 -1.08933e-16)
(-5.82842 -0.501907 -9.75638e-17)
(-6.84443 0.256377 0)
(5.98569 1.34051 9.18281e-17)
(-0.363177 -0.0670189 2.02981e-16)
(5.23548 -0.138217 -5.10165e-19)
(-1.23562 0.175773 0)
(0.501834 -0.416315 6.73188e-16)
(0.976775 3.98974 2.52507e-16)
(3.98465 -0.103166 3.15822e-16)
(0.4788 -0.581738 -1.56811e-16)
(1.48904 0.262595 5.08591e-17)
(0.956467 2.87122 2.04354e-16)
(3.9208 -0.216947 3.0811e-16)
(0.0590142 1.88525 1.30248e-16)
(-2.78622 1.50277 -4.51183e-17)
(0.229115 2.85937 -1.14563e-16)
(-2.03639 0.132043 2.65354e-16)
(1.4651 0.0482781 -5.50498e-16)
(-2.17089 -0.0979268 -4.01169e-16)
(2.75084 9.964 2.01522e-17)
(7.10154 -0.144436 0)
(1.41921 4.70324 -1.4305e-16)
(-0.945072 3.66257 -5.83259e-17)
(-0.360939 0.0846488 2.85478e-16)
(-0.891541 -0.202399 -6.23053e-16)
(-1.40759 0.128748 -5.39732e-16)
(-2.30616 -0.229686 -8.80086e-16)
(-1.40217 -0.197677 3.84508e-16)
(-1.26925 -1.27669 -2.03394e-16)
(0.131969 -0.885286 2.00091e-16)
(9.79631 0.571476 -2.09275e-16)
(2.03922 -0.0954891 0)
(-0.458659 0.130819 1.83882e-16)
(-1.44709 1.29421 0)
(-2.55187 -0.322165 -1.20071e-16)
(0.825738 0.173974 1.48764e-16)
(7.54844 0.111239 -9.08918e-19)
(0.38814 -3.27198 0)
(3.48331 -0.372395 -2.91395e-16)
(3.07852 -0.695618 1.64014e-16)
(4.27376 -0.0410465 -2.29672e-16)
(-2.31271 -0.482453 0)
(-0.660685 0.420443 7.14282e-16)
(0.595804 -0.204888 7.21342e-17)
(0.452448 -0.0738233 -1.68374e-16)
(8.03731 -0.250538 -1.33481e-16)
(1.68303 -0.233261 0)
(2.92454 2.7706 9.78082e-17)
(-0.0650069 -0.0399666 1.0581e-17)
(2.91105 0.108978 0)
(4.81356 -0.11084 -1.79336e-16)
(-3.3674 -0.338098 1.32736e-16)
(8.54441 0.0557655 0)
(4.08105 9.22366 -6.95607e-19)
(9.23076 0.449382 1.82678e-18)
(0.603516 1.82331 -1.04019e-16)
(-0.82289 -0.484721 -1.63794e-16)
(-0.685727 0.251 2.23977e-16)
(-1.46088 -1.15437 0)
(1.44201 -0.0756285 -2.46667e-18)
(1.62371 0.869803 -2.41173e-16)
(0.26301 0.305647 0)
(0.697514 2.34287 -2.1876e-16)
(-0.0155311 0.926172 -7.40696e-21)
(8.09693 -0.424515 9.08795e-17)
(1.47139 1.08598 -3.61127e-16)
(12.3237 2.01444 -3.49457e-18)
(-3.7937 0.102622 0)
(0.864986 2.58107 2.06911e-16)
(0.162527 4.15938 -6.40944e-19)
(0.128993 -0.314344 1.45427e-16)
(1.55146 9.77028 -2.08283e-17)
(0.160698 -3.27141 3.57238e-17)
(0.21152 0.00269321 7.46828e-17)
(-0.387155 1.28008 -1.66598e-17)
(0.0540826 1.76518 -1.31027e-16)
(-2.30125 0.206568 -1.55639e-18)
(-2.05217 -1.0982 -9.52939e-17)
(1.95362 -0.572583 -3.68667e-16)
(-0.0840546 2.04199 -6.27714e-17)
(0.201681 4.79714 3.47377e-17)
(0.0897513 6.33205 -2.22673e-17)
(0.802488 0.68778 -1.6457e-16)
(-2.33527 0.0276322 -4.26831e-17)
(0.632546 5.33656 -9.05496e-17)
(0.136822 5.52122 -9.54138e-17)
(-0.0836515 5.53212 1.62313e-16)
(-0.0238919 8.94473 5.40209e-17)
(0.220482 3.77416 4.90158e-17)
(-2.12776 0.19967 4.75651e-18)
(0.146501 5.99561 -6.20242e-17)
(0.0172021 5.08872 -1.78112e-17)
(-0.0959392 5.57985 0)
(8.97251 0.496188 -2.9538e-17)
(1.73971 3.13615 -1.20832e-16)
(-0.330494 0.0447003 -4.74248e-16)
(8.44165 0.137603 6.94866e-17)
(1.03146 3.51588 -3.59426e-16)
(2.97731 -0.1623 0)
(-1.90983 1.68097 0)
(0.00971941 1.89668 0)
(0.0110204 -0.102321 -3.46084e-16)
(-0.610273 0.888047 -1.15758e-16)
(-0.0129043 -3.2153 -9.67976e-17)
(-0.0196869 -0.240482 9.99677e-19)
(-1.83817 -0.272751 0)
(-1.36489 4.59887 1.10421e-16)
(0.537952 -0.225944 1.49351e-16)
(0.147838 4.18429 0)
(-0.719628 9.1173 0)
(2.97527 0.696892 -2.4449e-16)
(-1.44927 0.414649 2.03848e-18)
(9.4635 0.403904 -2.34316e-20)
(10.8361 0.582116 5.87593e-18)
(-1.8778 0.922806 2.01936e-16)
(3.0609 0.0566304 0)
(-1.74739 0.00975241 0)
(1.11088 5.31081 -1.63654e-16)
(-0.306093 -0.309198 1.99388e-16)
(4.72282 2.40372 4.8612e-17)
(1.21268 4.20553 0)
(-0.0627084 2.10324 6.58609e-17)
(8.25819 -0.930412 8.76119e-17)
(-1.38869 -0.131333 1.46301e-16)
(-1.01925 -0.355814 3.1722e-16)
(2.12335 -0.210389 1.81842e-16)
(0.811592 1.16853 2.45871e-17)
(1.15777 9.35275 -6.45574e-17)
(-2.53792 1.54869 2.40903e-16)
(2.63757 0.235068 0)
(4.62104 -0.190683 8.69101e-17)
(0.804773 1.71567 -1.58361e-16)
(-0.113968 -0.273019 1.93936e-16)
(-0.213296 -0.62588 0)
(-3.09219 -0.268875 -3.54403e-16)
(1.72834 1.87594 0)
(-0.157113 -0.608852 0)
(0.816249 1.52803 4.14037e-16)
(-0.132423 -0.204664 2.218e-16)
(1.8439 0.0260609 1.69581e-17)
(-1.92668 0.0727611 2.20398e-16)
(8.01399 0.27849 2.21765e-16)
(3.79312 0.551328 -1.90724e-18)
(-0.398746 0.100041 5.26519e-16)
(7.42426 -0.186337 -1.65414e-16)
(2.03141 0.68767 2.36031e-16)
(-2.40963 1.69376 0)
(-0.423227 0.121318 2.20704e-16)
(4.76944 -0.382502 0)
(3.9678 0.102294 0)
(-0.381967 0.100633 -3.10813e-16)
(-0.978888 -0.000705173 4.20789e-16)
(6.17684 0.128914 -2.32649e-16)
(1.78385 -0.296057 -1.34698e-16)
(-2.091 0.236196 3.27079e-16)
(1.24285 -0.534792 -3.63985e-16)
(-0.951249 -0.124399 0)
(2.86243 -0.363293 -1.13944e-16)
(-3.52669 -0.0385475 -2.40467e-16)
(-3.55537 -0.450893 1.33963e-16)
(3.33914 -0.146446 8.99522e-19)
(2.30745 0.0663096 -3.41007e-18)
(-0.209126 -0.112764 0)
(-2.0191 -0.123421 7.64058e-19)
(-0.850168 0.0347126 0)
(-2.04694 0.57733 -9.77226e-17)
(1.195 0.305375 0)
(-1.12396 -0.192958 1.02346e-16)
(-1.53153 0.106302 3.96835e-16)
(-1.71723 -0.262953 0)
(3.29584 0.0657333 -1.69713e-16)
(-2.23892 -0.288766 -2.22904e-16)
(0.98883 -0.236049 -8.59705e-17)
(6.76257 0.283575 5.72448e-18)
(-0.233437 -0.171476 -6.12505e-18)
(-1.23202 -0.236427 0)
(0.330355 -0.191097 0)
(-0.119783 -0.211339 1.48655e-16)
(2.07032 0.0466779 0)
(-0.361369 -0.712874 6.5837e-17)
(-0.58008 0.199569 -1.58369e-16)
(-1.94167 0.234059 -8.93616e-17)
(-1.10078 -0.142499 1.17487e-16)
(-0.620293 -0.105565 3.63099e-16)
(4.95984 -0.0733611 -3.15151e-16)
(-1.61629 -0.0810873 3.87704e-16)
(-1.50199 -0.021286 6.20036e-16)
(-0.567047 -0.0788386 6.19528e-16)
(1.5008 0.00398767 -9.40476e-17)
(-1.18871 -0.164833 -5.19859e-16)
(-4.80611 -0.624441 -1.59518e-17)
(-0.337559 -0.0614376 -1.89669e-16)
(3.17275 -0.393134 -2.25627e-16)
(6.54473 -0.0494746 1.15865e-16)
(-3.82847 -0.837473 -1.43638e-17)
(7.18763 0.115349 0)
(-1.6107 -0.209833 0)
(-2.26233 -0.698805 8.89938e-18)
(4.05158 0.0515317 -5.64551e-17)
(3.40428 -0.684778 0)
(0.302925 -0.152711 1.21999e-17)
(0.774498 0.29427 1.04003e-19)
(6.24456 0.631357 -6.31378e-18)
(3.39867 7.16547 1.28265e-16)
(-0.529567 -2.47868 9.09626e-17)
(9.7851 -0.0116878 0)
(1.85844 -0.498969 -8.80246e-17)
(1.02016 -1.17019 1.55794e-16)
(0.421273 -0.168217 0)
(-3.1272 -0.821142 6.28757e-16)
(-3.77456 -0.757697 -1.1664e-16)
(1.76523 1.76506 1.00142e-16)
(4.80622 -0.469179 1.2239e-16)
(1.74837 5.95348 -1.68282e-16)
(9.70573 -0.00562249 0)
(-0.537637 0.128001 2.91791e-16)
(0.408445 2.55503 0)
(-1.04889 6.08332 2.80907e-17)
(5.49965 0.112938 1.23452e-16)
(11.9532 0.729 1.96021e-18)
(0.409293 0.0498861 -7.82105e-17)
(0.981402 -0.322065 -1.02041e-16)
(3.77087 -0.0148702 0)
(2.71319 0.589456 -2.20818e-16)
(0.281499 -0.395033 0)
(-1.83472 -0.507917 -6.45482e-17)
(-1.7017 0.347209 -9.61523e-17)
(-0.0320124 0.250531 1.30115e-16)
(1.46453 0.399686 1.94399e-16)
(9.59201 0.14637 6.31723e-18)
(7.9922 0.580072 2.20122e-18)
(7.53646 0.521869 2.71492e-17)
(-0.706729 -0.814848 -1.92105e-16)
(-2.72202 0.229915 -3.39814e-16)
(0.0630123 1.44301 0)
(1.23806 1.41036 1.33806e-15)
(1.34323 3.62042 2.31355e-16)
(-0.255087 0.17317 -3.14516e-16)
(-0.556986 0.359327 3.13995e-16)
(-0.0447634 -0.42505 3.09219e-16)
(2.87238 -0.61151 -1.00306e-16)
(4.20082 0.444731 8.17748e-18)
(-0.059843 5.81467 0)
(0.0505539 2.7817 0)
(-0.10646 4.54753 0)
(1.37889 -0.174464 2.54869e-17)
(3.21313 -0.256032 -7.13411e-17)
(-0.422596 -0.0388517 1.63477e-19)
(7.48593 1.10869 -5.43126e-17)
(5.29819 1.28926 -1.32769e-17)
(8.34574 0.211571 -1.42596e-16)
(9.117 0.495357 1.51793e-16)
(0.480645 0.0986618 3.47957e-16)
(-1.42857 -0.103771 0)
(6.29828 -0.0430471 -1.05302e-16)
(2.1775 -0.180608 7.46767e-17)
(1.71183 -0.640118 -8.67301e-17)
(0.794731 -0.0598938 0)
(-4.23947 0.0642144 0)
(0.39773 0.133561 -6.84768e-19)
(-0.164593 0.897815 1.93526e-16)
(4.03261 0.769405 0)
(-2.20365 0.0910266 -5.383e-16)
(5.38334 -1.04256 -1.06102e-16)
(3.7621 0.133302 0)
(-1.49912 -0.311569 -2.75575e-16)
(-2.01213 -0.336109 -4.95622e-16)
(7.86356 -0.583595 -1.1183e-16)
(9.55175 0.0931921 3.49822e-17)
(3.58704 0.165997 2.16229e-16)
(3.40146 2.41032 -1.13791e-16)
(-3.1599 0.103931 -6.89234e-17)
(0.880576 0.439945 -1.7762e-16)
(0.000635513 -0.573043 -3.35968e-16)
(-0.401646 -0.0610425 3.89161e-16)
(0.945436 3.64537 2.73003e-16)
(-2.27958 -0.604846 1.32856e-16)
(0.450651 0.0455566 -4.37308e-16)
(-1.00463 0.701342 8.28945e-17)
(-0.301596 7.49798 1.04415e-16)
(0.184295 4.48198 1.44554e-17)
(0.306772 4.65272 0)
(0.598047 6.53615 4.09022e-17)
(-2.44879 1.22577 0)
(-0.64541 -0.644702 -1.57616e-17)
(-1.87495 -0.829872 -1.2357e-16)
(-1.19664 0.131929 2.24992e-18)
(3.45322 1.10102 0)
(8.20668 1.58865 0)
(1.6168 6.8567 6.52109e-18)
(-2.3935 -0.755976 6.3446e-17)
(-0.45155 -0.270525 5.76548e-19)
(-0.173743 0.417388 -3.49551e-16)
(0.753078 -0.102119 -1.75754e-16)
(0.0574882 1.45742 9.51516e-17)
(-0.441789 6.24208 0)
(0.0800215 0.324761 -8.36827e-16)
(0.48532 0.91571 0)
(-1.2228 -2.1936 -1.25055e-16)
(3.84772 0.262278 1.54217e-18)
(0.748107 0.368349 -2.53684e-16)
(0.651778 1.7451 3.81993e-16)
(5.93905 -0.36498 2.16866e-16)
(4.06684 0.167824 0)
(-1.2535 -0.148775 -6.078e-16)
(-0.0648462 1.10341 -2.81296e-16)
(2.15838 5.86681 -1.47683e-16)
(0.582435 -0.166605 -8.43182e-17)
(10.6037 0.117903 0)
(10.0558 0.291486 -1.74482e-17)
(0.0699473 -0.240582 -1.28575e-16)
(1.65939 4.22961 -2.92738e-16)
(-1.74742 0.600896 -2.03887e-16)
(-0.553046 1.78089 -7.19221e-17)
(-3.64309 5.98473 2.95902e-16)
(-4.47122 0.732223 -1.09573e-16)
(-1.03099 0.138062 -1.89139e-16)
(3.90007 0.682612 -9.14897e-19)
(-0.19954 -0.528572 0)
(-0.837383 -0.155685 0)
(-2.13386 0.387257 0)
(-1.25337 -0.0257031 7.12078e-17)
(0.991765 -0.3484 -3.86252e-16)
(4.75994 -0.216492 2.77863e-16)
(7.41935 0.0554579 -5.72552e-18)
(6.72133 -0.128095 2.90224e-16)
(-0.935264 -0.0680145 9.08343e-17)
(-2.33321 0.0380283 4.55857e-16)
(-1.09827 0.23666 0)
(-0.759758 -0.273468 -2.17709e-16)
(-0.285841 -0.0560753 0)
(-0.578017 -0.149518 0)
(-1.12574 0.0449346 -2.78796e-16)
(-1.35519 0.0727518 0)
(1.35545 -0.160254 4.01968e-16)
(-1.51137 -0.00564448 4.13255e-16)
(6.17247 0.623599 0)
(-0.947316 0.306515 0)
(3.39872 0.198979 3.12145e-16)
(0.761822 0.0701702 3.74297e-16)
(0.323199 -0.20603 3.95938e-16)
(-0.486596 -0.332296 -2.33682e-17)
(-3.17568 -0.576778 -1.03177e-16)
(2.01725 0.0831687 7.6474e-17)
(-0.242679 0.0532296 8.89786e-17)
(0.11478 0.198436 2.40526e-16)
(-0.795173 -0.177146 -2.59449e-17)
(-1.66233 -0.132544 1.53338e-16)
(-0.229337 -0.168243 0)
(-1.11055 -0.243543 0)
(2.20323 -0.34285 1.44574e-16)
(6.39409 -0.53175 1.3406e-16)
(-5.0541 -0.828571 4.48137e-17)
(-6.20413 -0.393015 0)
(0.703017 0.106021 -3.29536e-16)
(1.1934 0.0528977 5.25593e-16)
(5.02924 -0.079893 3.43906e-17)
(-5.15783 -0.315288 -1.77651e-17)
(-6.33187 0.084632 -1.39834e-16)
(3.99546 0.0961485 3.20887e-16)
(-3.88091 -0.194259 -2.99896e-17)
(2.29122 -0.23431 0)
(3.92292 -0.181408 3.11882e-16)
(-2.48175 -0.176635 -8.65324e-17)
(1.0184 1.69958 -1.08604e-16)
(0.997895 -0.0577047 0)
(3.86013 0.0974198 -7.57681e-17)
(0.140771 0.258978 3.22141e-16)
(0.734333 -0.443868 1.02381e-16)
(-2.96084 0.2417 1.16758e-16)
(2.4596 0.4769 0)
(3.97215 0.226926 7.69442e-17)
(-2.90736 0.572794 0)
(0.833792 0.11338 1.38424e-17)
(-0.893624 0.757139 1.61392e-16)
(0.796296 1.31014 0)
(10.7907 0.0837638 0)
(1.18364 -0.784346 1.37388e-16)
(-0.39665 -1.2497 -6.37993e-16)
(-1.43225 -0.427964 -2.96241e-16)
(-2.21206 5.96219 -3.56149e-17)
(0.770078 0.159638 2.19574e-16)
(0.369678 1.14416 -9.86693e-16)
(3.21111 0.0326123 0)
(1.97307 0.110763 -6.50798e-16)
(-0.0863405 -0.5077 1.57556e-18)
(-0.00202699 0.981226 -2.33751e-18)
(-0.218076 -0.116726 1.80428e-16)
(0.966791 -0.184917 9.06235e-17)
(-1.7251 -0.168745 -9.25997e-17)
(-1.3039 0.198323 1.02458e-16)
(0.736489 -3.34279 0)
(-1.82478 0.36345 0)
(-3.63143 -0.485627 -2.27229e-16)
(1.37851 -0.190798 1.3164e-16)
(-3.10924 -0.484004 -3.57765e-16)
(10.2799 0.0117996 3.19574e-17)
(0.619148 -0.0735487 2.02646e-16)
(-1.53965 -0.220221 0)
(6.66357 0.966168 4.39019e-17)
(1.79342 -2.21496 5.35043e-19)
(-0.0121449 2.1254 1.74454e-16)
(0.222727 1.69983 -3.09407e-17)
(0.166241 6.22011 -6.00861e-17)
(-0.294688 4.70506 3.01033e-17)
(0.00569092 5.51537 0)
(0.983015 0.858406 1.59057e-16)
(-1.23743 0.720931 2.27568e-16)
(4.6764 -0.715642 1.99171e-17)
(4.13859 0.0353706 7.06907e-17)
(-1.10765 -0.0720213 0)
(0.545585 1.87935 2.46278e-16)
(-2.47386 0.30218 0)
(0.062841 6.20011 4.2036e-17)
(-0.151887 5.64272 -7.28941e-17)
(-0.0110624 4.84599 3.83024e-17)
(-0.36764 -0.30854 -1.64368e-17)
(1.29806 2.09766 -3.09615e-17)
(2.21515 0.104829 0)
(0.0144976 -0.26162 0)
(-1.40721 -0.173074 -1.76875e-16)
(0.477923 -0.295985 -1.9457e-16)
(0.0685724 2.08029 -1.15605e-17)
(-0.149463 2.69977 4.06854e-17)
(7.17534 2.02601 2.1649e-16)
(10.0184 0.153017 1.24319e-17)
(0.188976 1.1206 -4.21758e-16)
(1.00475 -3.04869 -2.03119e-17)
(3.98143 -0.658152 2.11907e-16)
(2.33404 0.792657 0)
(1.0076 -0.335554 1.66737e-16)
(-1.05675 -0.539029 -9.45012e-18)
(2.35734 -0.302021 -8.05753e-17)
(0.680741 -0.910078 2.22507e-16)
(-1.33187 -0.311961 2.116e-16)
(9.96689 0.0956995 -2.42677e-16)
(2.30324 -0.0404378 0)
(-0.749322 -0.12674 8.08325e-17)
(-3.29095 0.410391 -1.61938e-18)
(-0.377425 9.20084 -5.3647e-17)
(0.148156 4.06272 -3.52824e-20)
(0.00313504 -0.170768 0)
(1.6244 -3.0843 1.38754e-16)
(0.652321 0.224986 -8.58023e-17)
(-0.0767294 -0.187803 -2.18802e-16)
(0.069791 2.1107 -5.30163e-17)
(-2.59271 1.14623 4.53614e-17)
(0.194682 2.59632 -3.909e-16)
(-0.208879 7.15636 -2.76165e-17)
(0.752497 -0.0274153 -5.36037e-16)
(0.439029 5.33808 -2.42772e-18)
(-0.60807 -1.05852 -2.42658e-16)
(0.230452 4.36337 -4.49805e-17)
(0.924648 7.27436 9.0322e-17)
(0.362819 1.80345 -9.15729e-17)
(0.0959164 2.13165 -1.77749e-16)
(-0.114033 0.893892 1.77612e-16)
(-0.218053 -0.379822 -4.01594e-16)
(8.64619 0.53811 8.86462e-17)
(-1.39941 -0.0875536 -2.48461e-16)
(10.8369 0.462487 -2.04351e-18)
(2.97335 1.75433 7.52006e-17)
(0.631878 0.388259 -4.27123e-16)
(-0.309505 -3.04822 -4.4009e-17)
(0.624275 0.00736438 3.85134e-17)
(7.11592 0.669636 -5.31649e-18)
(1.69949 0.845036 -6.36537e-17)
(3.72637 -0.132521 1.98694e-17)
(2.40834 0.137872 -1.51261e-16)
(-1.15503 -1.15622 1.07974e-15)
(8.15538 1.51602 -3.35058e-18)
(1.90632 4.68736 1.65061e-16)
(-3.46221 -0.77479 1.26735e-16)
(0.0651764 2.0418 4.41794e-17)
(-1.14281 0.9706 2.55568e-16)
(0.287384 1.47354 0)
(4.4613 -0.115043 -1.07925e-16)
(4.11419 -0.127872 8.22587e-18)
(0.0398184 -0.287401 2.25313e-16)
(4.06829 -0.193823 7.60177e-20)
(9.84555 0.027877 0)
(-3.52273 0.389828 1.60535e-18)
(0.380047 -0.0252029 -4.8465e-17)
(-0.0802817 1.79855 -4.5859e-20)
(0.0598409 1.98135 1.61002e-16)
(-0.724251 -0.114355 -2.18373e-16)
(-1.25532 0.201346 7.94071e-16)
(4.33301 0.540264 7.90555e-18)
(1.71555 -1.36197 -2.24609e-19)
(-0.299698 -0.390857 2.46846e-16)
(-0.834516 0.252526 0)
(0.745392 1.523 0)
(0.0477613 -0.127022 -3.7753e-17)
(7.11425 0.833036 -1.58065e-19)
(4.58549 1.10495 2.86044e-17)
(8.3776 0.85405 -7.13427e-18)
(10.3928 0.500065 3.16078e-18)
(-0.676578 -0.294327 0)
(0.424582 1.79031 0)
(0.162084 1.96978 1.77432e-16)
(0.32542 1.44754 1.92058e-16)
(9.1236 0.471419 -4.25586e-16)
(1.77095 1.15779 0)
(1.19235 -0.225503 0)
(-1.93017 0.398341 1.92148e-16)
(0.659778 0.28257 1.57555e-18)
(-1.2764 0.70756 -1.6313e-16)
(0.712801 -0.034919 1.93635e-16)
(0.638867 -0.0887802 -9.5392e-17)
(0.276194 4.61448 -3.8695e-17)
(-0.962798 7.59475 -1.39415e-17)
(0.703452 -0.0416625 -2.56751e-16)
(9.94855 0.155308 -6.42885e-17)
(10.2725 0.248859 3.43171e-18)
(0.139112 1.82898 1.36404e-16)
(0.358419 2.02972 -3.31523e-17)
(3.31118 0.983332 -1.27401e-17)
(-2.14365 0.991988 -2.61572e-16)
(-0.84568 0.165174 9.77392e-16)
(0.00418196 1.65594 6.0504e-18)
(-2.11291 -1.4392 0)
(5.67537 3.89269 6.26191e-17)
(0.111607 2.00489 9.32296e-17)
(0.359423 2.68324 -4.83596e-20)
(-0.23161 1.8861 1.77076e-16)
(0.519499 -0.0322882 0)
(10.8792 0.258254 0)
(0.571533 1.39373 -5.84246e-17)
(3.92108 0.0138368 0)
(1.65779 -0.0322815 7.46718e-17)
(10.0467 0.0601802 -1.0139e-16)
(5.18201 -0.0165899 7.12122e-17)
(-1.31447 0.0144134 1.08701e-16)
(7.32353 0.0468614 9.01657e-17)
(0.109178 2.97342 5.76367e-17)
(-0.644149 -2.63928 1.73929e-16)
(0.0870572 1.97646 1.72742e-16)
(1.06993 4.23211 -1.36267e-16)
(-1.30364 0.333511 -6.67779e-17)
(-0.273636 -0.326502 0)
(9.74292 0.786051 0)
(1.02218 1.58443 -3.56934e-16)
(0.534051 -0.108867 -2.06057e-16)
(-0.0540051 1.7766 5.9575e-16)
(1.10155 3.22898 -4.25003e-17)
(1.03995 0.201425 0)
(3.08876 -0.0109902 -3.23415e-16)
(-1.0535 -2.32863 -1.27165e-16)
(-0.0291005 1.65738 1.47303e-16)
(-0.716425 -0.581047 0)
(0.635883 1.79302 0)
(0.340188 2.5883 0)
(0.147307 1.87217 -1.47843e-16)
(0.599125 1.06938 9.8057e-18)
(10.8124 2.58435 -2.55276e-18)
(-0.460668 0.122995 0)
(5.54778 1.28627 0)
(2.1949 1.06692 -7.25855e-17)
(1.23513 4.08454 9.98237e-17)
(-4.03799 -0.083099 0)
(0.645821 -0.13842 4.03409e-16)
(1.30367 -0.00629125 5.46421e-19)
(-0.0647008 1.30424 -1.53424e-16)
(0.929902 -0.175926 0)
(8.23099 0.558361 -6.072e-17)
(-0.142259 0.348479 -1.41733e-16)
(0.628229 3.47889 6.72791e-17)
(0.152811 3.80301 0)
(0.799334 2.26291 -1.06092e-17)
(9.96535 0.249224 -1.93811e-17)
(3.53367 1.3469 -4.90969e-18)
(-0.57567 1.08002 -2.04074e-16)
(-0.0112077 -0.360719 -2.80843e-16)
(-2.6424 -0.663803 -4.67802e-16)
(-1.17902 7.90215 7.33209e-19)
(0.472393 4.6496 6.11172e-17)
(2.0362 2.95746 0)
(10.565 -0.155808 2.10674e-17)
(-2.46621 -0.509231 1.28367e-16)
(9.10404 0.770919 -1.12573e-16)
(0.39909 -0.365955 1.76821e-16)
(-0.361608 6.53474 0)
(-0.151036 5.24866 -6.01724e-17)
(0.121291 5.17733 2.03344e-16)
(1.07772 -0.227295 -7.02623e-18)
(-0.0139661 2.02325 4.88205e-17)
(1.20684 1.06431 5.70531e-18)
(-1.2316 8.35985 -2.47403e-17)
(0.319063 4.34679 -3.86576e-17)
(2.43886 9.0863 5.25726e-17)
(0.735848 0.0653802 1.92013e-17)
(10.1407 0.163832 0)
(0.274803 -0.0187418 5.17786e-16)
(2.86905 0.411961 -7.05426e-17)
(-0.960904 -0.0878982 -3.26328e-16)
(7.74005 0.551739 1.59741e-17)
(0.168891 4.36522 -6.2197e-17)
(-0.661468 8.34375 1.67734e-16)
(0.758579 -0.062498 -5.52568e-22)
(-0.753983 0.400711 -1.093e-16)
(1.14524 5.65985 0)
(-0.551491 0.162873 0)
(-0.0460967 -0.0986306 -2.13211e-17)
(-0.956651 -0.497634 0)
(3.58806 2.62157 -6.97868e-17)
(4.99886 1.74132 0)
(1.32228 3.69272 -2.32984e-16)
(2.55001 -2.61243 4.39772e-17)
(-0.0153449 -0.127262 4.61545e-16)
(2.13981 0.312815 3.69302e-17)
(7.43616 0.677974 -1.42189e-17)
(2.66779 -0.0499465 -2.53324e-16)
(7.83629 0.138826 -2.74795e-16)
(-0.0997862 -0.0340385 0)
(0.213787 1.82225 -7.24052e-17)
(5.01183 3.00756 1.53636e-16)
(3.66062 1.68859 -7.03362e-17)
(0.547668 -0.0210524 -4.82199e-16)
(0.32665 1.95167 4.97783e-16)
(-0.0193516 1.65172 3.1129e-17)
(0.231423 0.946735 -4.16999e-16)
(1.44431 0.52859 -8.78136e-19)
(0.812848 2.05131 -2.66727e-16)
(0.351316 -0.199198 1.94899e-16)
(-1.39879 1.43251 6.7803e-17)
(0.0902457 2.109 0)
(0.0892802 0.643214 -7.51447e-17)
(0.00659189 1.59877 -7.11224e-17)
(0.380733 1.87632 2.63037e-16)
(4.42074 -0.10967 -6.19623e-17)
(1.6969 7.60509 -3.77895e-17)
(10.6653 0.422724 -7.03661e-17)
(3.74193 0.0125526 7.00026e-17)
(1.08393 3.47612 -6.03323e-17)
(-0.487278 0.18424 -1.39887e-16)
(8.8028 0.163353 3.38971e-16)
(4.59955 -0.533665 -2.28313e-17)
(-0.0173625 5.18188 3.98938e-18)
(4.60381 -0.137725 2.32525e-16)
(-0.230462 5.82913 -1.65546e-16)
(0.0766589 3.96083 1.0978e-16)
(7.30225 0.246576 0)
(0.27175 0.232428 -1.29368e-16)
(0.115688 0.24175 2.84353e-17)
(0.0769806 1.04067 0)
(-1.82528 -1.79091 -1.32532e-16)
(0.470361 0.989596 5.94058e-17)
(1.34883 0.440834 2.52211e-16)
(0.318744 -0.135767 3.26819e-16)
(4.11709 0.18469 -3.89067e-17)
(10.096 0.643263 -1.10852e-18)
(-0.234154 -0.188938 -2.14371e-16)
(-0.293389 0.106973 3.22803e-16)
(1.59517 2.76483 -2.37066e-16)
(0.560771 0.109888 1.1986e-16)
(4.20936 -0.153395 0)
(0.193409 1.26423 -1.05885e-17)
(-1.95856 1.28108 -2.6698e-16)
(0.0296557 1.97379 2.99352e-21)
(0.258941 4.56113 3.54624e-17)
(0.163631 6.29755 -2.63661e-18)
(-0.539721 7.295 -1.01499e-16)
(0.555264 4.44725 3.6492e-17)
(1.65865 4.47566 -1.56066e-16)
(7.3945 0.349847 6.69614e-17)
(0.227615 -3.22794 0)
(11.2166 1.04626 0)
(-3.64789 0.514009 2.73544e-16)
(0.370842 0.516358 5.82739e-16)
(0.181249 4.37907 1.89377e-16)
(-0.252158 8.09994 -1.2204e-16)
(-1.38589 0.292826 1.13615e-16)
(1.4208 3.92922 -5.53895e-17)
(-3.23394 -0.68421 3.40907e-17)
(0.0815989 1.01905 2.1996e-17)
(0.711016 0.543497 1.51445e-19)
(1.63136 2.48184 -4.65215e-17)
(-0.0313574 -0.173991 -1.12651e-17)
(1.72877 2.09617 -5.95884e-17)
(3.82816 -0.0654593 -3.77336e-16)
(-0.705018 0.910515 1.00921e-17)
(0.692758 1.67302 1.35765e-16)
(1.05345 0.536928 0)
(0.687084 -0.0359199 0)
(-0.98583 -0.281131 0)
(0.651933 7.172 2.29371e-16)
(1.33978 7.23047 2.61364e-16)
(0.119616 4.21002 3.25338e-16)
(3.87472 0.558637 2.4486e-17)
(5.99305 3.40766 -3.67175e-17)
(0.74372 -0.110649 0)
(0.0391746 1.22249 8.65923e-17)
(-0.109775 0.246472 3.65613e-17)
(10.5506 0.0547071 -7.32016e-18)
(-0.629239 0.582478 -9.62441e-17)
(-0.169971 -0.00244292 4.27953e-18)
(0.432114 -0.0565743 -1.67793e-16)
(9.1162 0.366079 -1.95247e-17)
(0.170101 0.427505 0)
(4.13541 1.64783 -3.13466e-16)
(2.65603 0.698511 2.4618e-16)
(4.25141 -0.13955 0)
(0.384838 0.697576 7.16301e-17)
(1.03642 3.01131 -3.0801e-16)
(8.85156 0.170259 0)
(1.61248 6.51803 -4.61414e-16)
(0.183159 4.46931 -1.72028e-16)
(-0.12983 0.670275 0)
(1.33071 0.814467 0)
(11.4032 0.280562 4.24737e-17)
(10.3793 0.335369 3.28285e-17)
(10.1178 1.25503 1.94412e-18)
(5.40746 2.16352 -5.05579e-20)
(0.56879 4.65846 0)
(1.62753 0.927356 2.56408e-16)
(2.9607 6.3085 -2.99038e-17)
(4.96627 -0.043098 0)
(0.710164 2.10594 -3.75323e-16)
(4.94656 1.17405 2.96747e-17)
(-0.15339 -3.1893 -9.5307e-17)
(9.43189 0.854965 -5.04271e-17)
(10.8918 0.0429549 7.62535e-17)
(1.41046 2.48377 -2.07384e-16)
(9.97524 0.406672 -1.5127e-17)
(0.167541 3.56276 2.40979e-16)
(0.923575 7.72359 4.45313e-17)
(0.52341 8.17536 -9.65632e-17)
(6.7039 3.68262 0)
(3.69108 0.784354 9.72296e-17)
(3.16497 -0.212641 -1.32427e-16)
(2.92281 0.174201 2.87082e-17)
(-0.374218 0.432544 1.22474e-16)
(0.0607063 5.5431 1.64324e-20)
(0.02982 5.4351 1.9246e-19)
(0.428469 5.68727 8.41996e-17)
(0.617714 0.858682 0)
(-0.0788479 0.613975 0)
(1.45447 -1.38504 7.90605e-17)
(-0.962924 -0.837141 1.47066e-16)
(-0.255667 7.5507 -9.38491e-17)
(-0.0677159 4.28922 -4.01728e-18)
(0.104493 2.7346 0)
(2.76543 -2.12487 -2.74663e-17)
(10.1093 0.108048 8.38083e-17)
(0.050755 0.937275 0)
(-1.45171 -1.81252 -3.12618e-16)
(1.38497 2.78065 5.34394e-17)
(0.731691 -0.0315767 2.54195e-16)
(0.213345 4.41103 8.74329e-17)
(-0.988374 8.84908 1.2673e-16)
(9.63553 0.883787 0)
(0.158119 8.65309 -3.3842e-17)
(0.222266 3.73241 -4.69075e-17)
(9.52288 1.05282 -9.37678e-17)
(-3.58953 0.278198 -8.6813e-20)
(7.45235 1.05767 8.23047e-18)
(-0.819246 7.68891 -1.12233e-19)
(0.221202 4.46239 0)
(-0.0129161 6.29592 2.80755e-18)
(-0.936608 7.15318 -8.69391e-17)
(0.915933 4.07089 -4.53758e-17)
(2.5883 3.99306 1.60889e-16)
(0.13183 -3.34689 3.17099e-17)
(-0.299913 5.79208 2.40749e-16)
(-0.106466 5.41689 0)
(0.105516 5.7126 -1.50559e-16)
(1.19177 0.187558 3.55807e-17)
(0.362088 0.582353 -1.46081e-16)
(3.55454 0.0208526 5.78493e-17)
(0.295024 0.392121 4.30818e-18)
(0.0304552 1.63069 1.1245e-16)
(-2.3761 -0.900612 0)
(1.83924 2.78302 1.59754e-17)
(-0.0644612 1.95742 -2.01543e-17)
(0.817359 -0.42732 -1.28193e-16)
(10.0655 0.912426 -7.33855e-19)
(1.24625 0.925614 -3.60193e-17)
(0.379687 2.33948 -1.75299e-16)
(0.169846 2.18296 -1.43129e-16)
(-1.149 8.04483 -2.00016e-16)
(0.58489 4.70662 0)
(1.0387 0.07331 3.00257e-16)
(-1.32964 8.31871 8.24737e-17)
(0.506859 4.35155 2.92098e-17)
(0.242374 -0.300541 -8.68263e-17)
(2.53497 3.63765 -1.75477e-16)
(0.696589 -0.0806479 6.59378e-16)
(-0.8701 -0.898319 5.81841e-16)
(-0.480798 0.0506217 -2.78175e-16)
(0.642806 4.22571 3.06694e-16)
(0.0796575 2.12226 -3.06343e-16)
(-0.761904 -0.56795 -1.84519e-16)
(0.0446451 2.5788 -9.47548e-17)
(1.48209 8.2522 0)
(9.90005 0.0983638 0)
(0.357714 -0.176997 -3.74866e-16)
(-0.244264 3.42985 1.35827e-16)
(0.192698 -0.00539763 -8.18824e-17)
(0.0130385 1.02458 0)
(2.53521 1.01412 8.27482e-17)
(0.473554 -0.506582 -1.86804e-19)
(0.732012 1.07618 -7.07384e-16)
(4.40762 0.0919126 2.08989e-16)
(0.970815 5.87369 1.15274e-16)
(0.00240116 4.44416 -3.89664e-16)
(-3.12982 -0.0762812 3.13621e-16)
(-1.40862 -1.93506 -1.28359e-16)
(9.87425 0.847545 -1.3044e-17)
(0.560356 3.26775 2.25584e-16)
(-0.159032 -0.352316 1.93405e-16)
(0.618389 0.304691 0)
(-1.05324 1.29473 4.95102e-17)
(2.00092 1.7852 -8.7062e-16)
(0.203518 1.73761 -2.16697e-17)
(0.207529 2.29393 2.47461e-16)
(0.897226 0.264676 3.21847e-17)
(8.82876 0.533343 -1.09582e-16)
(9.79014 0.357869 -2.87753e-19)
(0.457085 -0.150251 1.89037e-16)
(11.0827 0.0468585 0)
(1.81598 1.03094 -3.95315e-18)
(3.78047 -0.166873 1.90337e-18)
(4.17709 0.0963136 -1.14324e-17)
(-0.0741437 5.17844 4.61724e-17)
(-0.245825 6.87932 4.10094e-17)
(0.220957 5.28092 1.95162e-17)
(10.5347 0.0353904 1.38821e-17)
(0.659084 1.77904 1.18557e-19)
(0.0374186 0.478667 -9.05646e-17)
(3.84294 -0.192843 -1.77953e-20)
(1.33401 2.03716 0)
(10.2424 1.67696 -4.63566e-18)
(-2.50085 -0.146801 0)
(0.296061 0.509287 9.43328e-17)
(-0.0692951 0.21601 8.83274e-17)
(0.121159 1.51547 4.18743e-18)
(0.769324 0.819214 2.22567e-16)
(-0.24423 0.0672698 3.7437e-16)
(9.40434 0.577667 -1.72458e-17)
(0.626835 -0.0604461 2.57962e-16)
(-2.97963 -0.413681 2.44909e-16)
(9.53918 0.998964 9.60019e-17)
(9.76698 0.285933 3.98839e-17)
(6.24104 1.67629 3.39573e-17)
(0.183754 4.3375 -5.98648e-17)
(-0.362333 7.85466 2.25878e-17)
(-0.111894 1.67603 1.52516e-16)
(0.311461 2.36623 0)
(4.42981 0.716876 4.45275e-17)
(5.62123 3.15965 8.25011e-17)
(10.2709 0.0624698 -1.95909e-17)
(0.524681 -0.0799557 1.19867e-16)
(0.653756 -0.0720637 2.48305e-16)
(0.199871 0.386422 0)
(8.94615 1.5786 0)
(1.19671 1.6954 0)
(-0.748847 -2.76524 2.52847e-16)
(3.95592 -0.0400008 6.33459e-17)
(2.18193 4.93607 2.1912e-16)
(0.0894992 4.5504 3.56503e-17)
(1.66422 6.10553 -6.19865e-17)
(0.0792844 0.620095 0)
(0.908574 2.80931 6.66344e-17)
(1.2289 3.35221 -1.9854e-16)
(-0.197717 -0.227258 -8.19503e-16)
(11.2677 0.113343 9.3064e-17)
(5.98016 1.18776 0)
(-0.0954877 2.01526 1.61603e-16)
(0.829951 4.59054 0)
(1.47898 0.926385 1.3802e-16)
(0.596566 1.11501 -2.11357e-17)
(1.07401 8.84338 6.11721e-17)
(9.96287 1.00611 -1.30559e-17)
(9.89664 0.657923 9.91121e-17)
(-0.341105 0.129888 0)
(0.870486 1.4851 -6.7745e-17)
(-1.28028 -0.175935 0)
(8.74772 0.333514 0)
(1.49575 0.0911244 -1.24673e-16)
(0.578736 1.26835 2.04503e-17)
(-2.66234 4.57328 -1.28524e-16)
(3.15733 0.776858 -1.17507e-16)
(-0.14415 -3.09334 1.32152e-16)
(10.2927 0.103344 -2.71966e-20)
(5.86638 3.65234 -7.51554e-17)
(-2.75849 -0.247088 -3.43655e-18)
(0.21539 4.44839 7.76603e-17)
(-0.109649 7.09525 -5.08974e-17)
(0.892497 0.659218 -1.39973e-16)
(1.51811 6.32487 -2.42357e-16)
(3.1718 0.619698 -1.42162e-17)
(-0.33719 2.24025 -2.8176e-16)
(0.0670752 2.07355 -1.70309e-16)
(1.59896 0.0600831 6.34388e-17)
(0.848768 -0.219696 2.06616e-16)
(0.513153 0.103368 -3.03411e-16)
(0.289057 1.88842 -4.46698e-16)
(-0.0473974 1.93051 -3.3463e-16)
(6.89118 4.31574 3.38555e-18)
(0.54582 1.71332 4.96892e-16)
(10.091 0.0401807 -6.127e-17)
(0.994423 -0.3144 0)
(-0.0760389 2.4038 -2.90004e-19)
(5.50865 0.441057 -7.44295e-17)
(-1.16442 -1.01983 0)
(10.112 0.400007 3.85215e-17)
(-1.16991 0.305283 2.66609e-16)
(0.312379 0.21833 -2.63584e-16)
(8.7497 1.30708 0)
(0.253573 4.81912 -6.26263e-20)
(-0.772211 6.725 0)
(10.048 0.0790359 0)
(1.25249 -0.300067 -4.73414e-17)
(9.33497 1.03793 -6.16726e-17)
(9.03821 4.09001 -1.73605e-16)
(1.17923 5.05616 2.5781e-17)
(7.53852 1.979 -1.02338e-16)
(-0.488313 6.69725 -5.51297e-17)
(-0.00285549 2.14438 1.51161e-20)
(0.0581564 3.53678 -8.44267e-17)
(-0.0605697 1.17888 0)
(-0.0435169 2.87211 1.04147e-16)
(-0.176332 -0.452235 0)
(-0.786522 -2.17395 0)
(-0.245545 -1.63678 0)
(0.544687 -2.08318 -1.47056e-16)
(-0.117125 1.45291 0)
(0.105249 1.44431 1.1113e-16)
(2.83675 2.5251 -2.72888e-16)
(0.533352 2.30776 0)
(0.388068 1.9853 2.79749e-16)
(0.0435362 6.36923 -2.67806e-17)
(-0.131731 5.59663 9.57309e-17)
(-0.0272781 4.4151 -5.12166e-17)
(2.19334 1.35081 2.50083e-16)
(9.41714 0.943866 -2.63848e-17)
(0.23938 1.8085 1.88423e-17)
(0.0761929 2.19204 -6.98988e-17)
(3.72029 0.290723 0)
(0.809999 -0.165453 2.78616e-20)
(6.02782 1.01616 0)
(0.587369 -0.388566 -3.24178e-20)
(4.11963 0.12267 -4.25287e-16)
(10.067 0.048653 3.36899e-17)
(-0.608584 0.405319 2.23323e-16)
(-2.25091 2.31736 -2.88527e-16)
(0.0600067 2.11926 0)
(0.114022 2.07704 7.5399e-16)
(5.68979 1.47152 -4.2229e-17)
(11.5238 0.485191 0)
(9.80986 0.204585 2.39688e-17)
(1.25052 -3.19179 1.04441e-17)
(9.31695 0.232365 0)
(4.53486 3.96128 9.77481e-18)
(4.0173 0.373759 -3.12967e-17)
(2.46215 0.830817 -3.34895e-17)
(1.32466 0.618142 -1.21629e-17)
(1.42399 0.306245 -2.74204e-16)
(-0.104077 -0.0372436 -2.68664e-16)
(1.38738 0.770366 -1.14838e-17)
(1.1484 1.24766 -5.30281e-18)