/*--------------------------------*- C++ -*----------------------------------*\
| =========                 |                                                 |
| \\      /  F ield         | OpenFOAM: The Open Source CFD Toolbox           |
|  \\    /   O peration     | Version:  v1912                                 |
|   \\  /    A nd           | Website:  www.openfoam.com                      |
|    \\/     M anipulation  |                                                 |
\*---------------------------------------------------------------------------*/
FoamFile
{
    version     2.0;
    format      ascii;
    class       volScalarField;
    location    "0.14";
    object      p;
}
// * * * * * * * * * * * * * * * * * * * * * * * * * * * * * * * * * * * * * //

dimensions      [0 2 -2 0 0 0 0];


internalField   nonuniform List<scalar> 
1431
(
98.8295
85.6661
89.6298
88.9924
97.7685
95.6857
95.5871
96.3351
95.2929
90.3807
95.0172
96.1583
88.2085
101.606
82.36
95.5307
84.5707
99.7167
92.6249
95.1776
97.9602
91.2989
94.7624
102.257
78.2438
96.0148
69.1404
100.949
88.9845
97.533
108.518
112.237
87.8212
96.7908
94.8087
89.8161
99.3196
95.3055
96.4719
95.4968
106.287
85.9258
96.6089
93.3707
86.3719
97.9519
95.6029
113.879
108.625
97.2446
97.9712
91.9155
95.6061
96.533
93.8993
108.929
92.072
96.7876
76.9632
97.9641
94.1128
94.3077
92.3747
96.5303
98.4646
99.7704
89.8759
95.9088
92.8756
96.8262
96.8281
93.4041
93.4536
96.3952
95.3265
87.4283
98.0162
86.9397
96.6289
72.235
96.5796
99.2431
89.9896
95.5978
76.1652
97.8844
97.6157
88.1482
102.879
96.9451
98.86
88.6398
97.8014
94.9246
100.191
97.9617
94.5707
98.3563
97.2934
108.231
91.5698
95.0419
98.7544
97.4584
90.7226
87.6774
96.4763
108.201
108.96
97.9283
71.1302
99.7093
96.9885
97.1737
91.4198
97.366
99.683
85.2163
103.416
86.8373
93.2736
97.0161
91.7703
105.331
96.3883
88.4107
103.877
93.4641
98.1559
96.4644
99.5095
108.357
104.74
98.6887
97.9122
89.0192
93.4957
99.6596
98.2258
108.209
87.6737
97.8413
95.6073
108.719
109.163
94.6427
97.8712
108.23
93.3538
108.678
97.2342
99.5282
86.4907
83.0933
96.8649
92.2786
96.6131
98.2957
97.8572
105.216
99.8626
94.4806
98.4882
89.6212
97.2958
68.4537
97.9727
94.1814
97.9382
99.0455
103.985
94.6754
107.772
97.3484
96.1003
98.466
88.0684
98.5122
98.8919
102.701
96.6879
89.8298
103.755
97.719
96.0301
104.787
95.5075
82.5501
97.2569
96.611
92.0576
87.9978
97.9998
96.2679
93.5205
92.7584
96.4392
114.393
90.6271
92.0364
92.1097
116.733
107.652
105.334
96.4524
71.1083
97.9726
97.1592
94.6094
101.226
96.2926
96.8443
105.615
97.0571
92.2641
96.6724
98.9047
91.8204
87.9824
96.7352
96.7572
67.5322
95.8391
92.881
97.3917
91.3556
106.634
98.4356
100.92
108.253
97.7754
89.5893
96.6465
94.5621
95.8454
96.5267
97.6804
98.4366
96.6149
87.1686
98.7992
106.517
92.1062
89.7676
90.7348
89.3982
95.9855
95.0704
96.6414
103.263
101.639
93.5454
91.3796
116.394
93.8432
97.5715
100.202
87.1053
96.067
96.79
97.4296
88.469
97.1705
89.6833
96.0827
100.169
90.6708
95.5143
103.97
89.3865
96.9269
108.56
100.827
99.9697
97.2677
93.3369
98.6039
96.7708
98.3132
89.351
97.6413
87.6465
88.1524
98.609
92.9435
85.4834
97.8644
101.955
102.418
98.0412
94.5316
96.3855
101.622
95.8865
102.811
99.7467
97.9996
102.736
86.4829
103.916
96.896
107.893
88.4457
109.347
97.5728
85.6212
96.7988
97.241
96.3926
95.874
97.7665
96.1028
93.568
97.6888
88.1916
85.4639
87.7272
88.3295
95.3825
96.0463
86.02
95.4572
89.4632
87.1397
88.1854
95.3315
96.4389
93.6557
106.678
97.4323
93.9916
88.7126
87.9294
94.5631
96.25
91.7549
99.7429
95.515
98.4553
88.8309
92.7994
96.6287
94.1823
87.3179
103.84
87.3805
97.3295
87.984
96.4531
95.9107
87.979
99.47
97.9706
100.069
88.2656
88.0233
99.0858
87.8388
99.8073
88.6309
100.495
88.3888
100.197
96.7457
96.2922
87.8755
100.431
88.1166
90.7636
95.1156
84.8913
87.6013
95.4029
103.809
95.3013
87.44
93.0043
95.9273
95.0274
99.6462
99.7681
87.903
96.1204
98.5697
88.2491
100.361
88.0711
88.1505
99.9439
96.5938
88.1852
90.0853
105.791
95.8555
95.0158
99.7599
95.5194
97.0201
85.9696
96.5208
88.6244
92.5143
96.9816
99.012
91.7445
93.4039
88.3023
108.964
96.0144
94.1524
93.7846
88.3612
98.4576
89.338
108.995
129.147
90.0557
91.2602
87.3897
95.6887
87.932
99.0121
85.8072
82.8148
103.284
88.0972
80.7244
86.9073
86.6258
79.3228
86.2697
85.7839
88.0104
89.3437
88.1812
82.1026
94.6282
86.685
81.112
96.5613
94.4734
90.0635
87.8237
86.7021
86.8327
89.9114
89.6599
84.7678
85.2034
89.6316
90.5566
87.019
90.0633
87.4749
98.2415
89.5542
88.9267
88.6001
89.0081
88.4346
87.2496
95.1205
96.338
95.2392
88.253
87.8786
96.1479
87.9083
95.8046
87.5352
88.7628
99.898
108.983
114.63
95.6654
87.1112
90.0894
88.9293
87.1276
109.64
103.048
99.764
102.729
94.2316
109.117
92.9909
95.0546
84.6674
91.0779
84.0784
85.3919
97.4701
87.1663
92.6585
103.067
99.4536
98.014
85.4516
97.0439
82.8323
95.2922
96.0428
83.8247
77.9955
78.4542
85.8142
87.0016
84.7171
95.5471
88.1452
85.5684
84.7259
98.2594
88.8568
96.7029
93.8281
88.76
96.9274
99.3581
88.1612
88.6483
82.0565
87.1137
96.0005
99.344
93.6261
88.0151
93.9559
82.4879
84.0266
109.367
110.153
80.3981
84.1992
88.3449
96.2208
82.3528
81.596
90.5502
99.8927
77.3325
91.6883
91.4532
93.2707
99.7707
83.6195
83.413
96.1875
86.2204
87.3856
81.0408
98.7062
95.4015
92.2488
88.2486
90.0885
82.167
91.8077
94.2886
100.222
90.9723
79.2819
85.4413
87.0785
87.7416
95.0056
91.4902
101.051
96.0517
77.6438
88.5518
85.1071
97.1035
84.1404
88.5639
98.4276
94.2277
96.2858
78.9443
100.7
98.9419
96.2995
88.7958
79.9534
87.7024
79.7872
88.9545
95.4916
98.5318
99.4041
92.9509
95.5725
93.9015
96.7426
98.0798
78.9294
96.447
88.5613
100.103
85.1389
90.5873
87.6417
87.2788
80.8944
81.1212
85.2602
94.3093
87.9095
83.6497
94.277
98.4069
89.1784
95.0815
88.5515
96.8328
99.1915
98.5443
87.0642
85.0047
86.36
87.8944
87.5987
99.5002
89.2037
90.4269
118.861
88.4865
96.4803
90.2448
96.2482
84.7606
99.5583
99.0698
96.2836
86.4082
88.7849
87.9153
103.021
96.0218
99.364
78.9546
84.837
96.3658
87.9188
92.3817
80.1217
77.8455
94.0121
92.7254
99.4835
97.8729
85.7805
100.203
94.3245
92.5873
89.6325
96.7673
96.3502
89.8174
87.7351
78.6903
97.0111
99.0749
98.9983
97.185
86.7772
92.2414
83.8666
87.0291
95.1895
96.4674
96.7093
99.2905
79.9079
109.474
109.801
95.8658
92.8487
89.237
98.36
87.1737
99.1166
90.7532
98.9872
95.0644
85.08
100.233
78.7065
93.3267
94.535
108.22
78.3723
77.74
98.8796
90.6141
88.6064
96.9406
88.3831
96.8658
104.23
79.0264
88.594
100.342
89.0801
97.9796
126.949
94.9128
86.3491
90.0782
105.386
96.8046
96.3737
87.35
85.016
87.3386
97.3848
88.2692
95.6004
105.782
98.1587
97.202
98.6089
95.9789
93.1218
88.9289
97.8197
88.5628
92.1282
104.173
103.787
93.8269
99.5374
103.832
103.486
90.1109
99.4334
98.665
92.8963
88.332
98.8674
78.1264
90.6286
109.988
98.7596
98.7862
97.8411
101.657
101.644
104.655
87.1793
91.078
102.622
103.121
102.181
98.8266
99.2322
96.3716
96.6603
97.418
104.302
95.1543
105.528
110.976
104.525
96.0059
94.1935
86.6692
110.163
98.4236
102.689
95.3526
95.6485
96.5046
87.9414
87.2596
100.053
97.1471
95.4482
91.1429
88.7107
91.1597
99.6745
101.627
91.4434
94.214
97.4889
96.4047
87.6339
99.6844
104.736
98.6522
98.4846
106.258
137.662
95.7192
96.9301
96.5958
88.3777
90.479
95.5205
91.9163
79.6699
107.35
88.8767
97.1942
86.5715
96.7056
100.017
94.6334
98.0753
97.507
95.739
93.4531
96.4966
77.5225
97.8369
97.5816
95.0697
95.2661
95.3866
98.6265
96.8251
101.003
87.0801
87.2656
97.5151
93.0118
80.4079
89.0014
96.8156
97.2402
96.3108
87.8063
97.368
88.782
89.4726
93.6463
95.8604
88.8782
93.8387
97.6373
109.732
98.0359
95.2038
89.2941
108.729
87.1613
85.0233
85.6727
96.3996
89.5218
82.6135
86.6344
95.6381
120.61
98.1402
93.1127
94.8632
96.6585
96.6963
96.17
98.7021
88.3316
99.6595
88.3201
98.172
94.5139
106.207
97.0559
88.7299
109.536
101.063
99.099
82.886
96.183
105.8
96.3485
93.2969
96.5571
96.6468
96.9734
88.8942
99.5715
95.7981
96.7296
98.5157
98.6118
86.951
85.9796
106.966
98.9942
94.742
95.5823
97.0268
98.8626
88.427
96.3005
87.5143
97.6768
90.1382
97.0917
97.6102
90.1715
92.7786
107.02
108.267
98.385
99.1946
96.1555
93.4112
99.2286
96.0474
97.4169
99.7758
91.2441
87.7531
93.3198
97.0689
92.6642
89.5608
94.8169
96.7237
98.9114
96.3543
96.1471
99.2913
88.8342
96.7907
85.8782
104.76
87.555
106.114
93.5847
96.1867
95.7671
95.9673
96.3715
95.8233
96.4352
87.1772
97.4981
88.8219
96.8678
97.496
98.311
98.1038
69.8453
97.9908
99.9836
99.8454
83.3079
97.3606
94.5086
91.3245
101.891
87.8826
98.4621
99.8781
91.5523
99.6434
92.7091
91.354
88.0207
99.7342
86.4295
99.9944
99.1754
94.8413
97.7053
92.4084
88.9201
92.4259
85.7077
83.3861
86.115
93.489
96.5223
100.003
99.7324
99.718
86.3172
99.2005
92.5624
98.9047
88.2961
84.1773
97.9834
94.2158
98.7161
95.3971
97.6506
96.9877
93.8706
83.8449
97.4396
87.6155
88.6493
102.531
74.9432
97.8848
84.0512
97.7831
97.184
96.0498
93.0093
96.7214
95.4903
84.4042
94.6688
98.7292
90.6628
87.6027
96.2373
99.1152
107.633
97.1567
97.076
87.8155
100.163
84.947
83.5841
93.9866
88.5545
87.2277
99.2622
87.5633
85.7909
98.2138
96.2534
106.964
90.3392
90.3153
81.4808
95.6431
88.3362
86.2663
96.5265
96.557
97.048
99.3574
92.0017
97.7243
96.8368
88.5889
95.6
87.7843
88.1848
86.756
104.17
81.2298
87.7348
95.6666
87.8558
92.2405
96.5859
94.1922
99.4504
99.0439
109.34
111.764
97.6677
88.9466
92.474
79.4654
112.587
98.5483
96.4295
96.8254
96.0873
85.9622
99.1803
95.3872
93.8641
99.6169
96.6578
95.9106
97.9337
94.5515
97.5751
97.5109
97.4889
108.403
96.4196
95.5058
111.319
97.5496
94.203
108.048
96.4401
82.9465
94.1266
100.751
96.6971
112.352
94.2954
99.4646
88.1076
97.6274
98.2573
98.286
93.2229
98.2067
96.0166
75.9336
99.4778
97.2977
81.621
96.6833
88.7851
100.399
88.2865
84.5747
99.04
108.081
99.3925
108.362
80.6396
88.2867
108.528
109.576
88.4349
98.2736
97.5323
98.0432
76.9657
99.1039
97.0698
92.6824
96.2284
93.2957
97.5952
94.4847
99.2194
91.4501
87.4914
95.7204
85.6864
91.1454
88.5523
96.4376
87.8244
99.3769
96.0467
87.2405
98.4047
95.5867
77.7261
98.0472
90.1524
96.8935
86.4066
96.6872
88.2931
81.5905
87.979
100.121
98.2749
100.099
104.824
97.6393
80.4201
97.8399
96.0493
87.9494
83.7721
107.341
108.291
96.56
88.0011
98.4621
96.922
96.0089
90.2205
90.2897
95.1015
95.2083
111.681
95.2388
87.8981
90.6897
105.468
86.5231
108.159
98.0524
93.5837
92.499
91.9523
84.7753
97.995
96.272
87.3418
99.0668
99.0452
98.1291
91.7962
88.8314
78.9628
90.8785
93.3115
96.8518
79.8631
90.6023
98.0266
96.9082
87.0404
98.0512
92.0716
89.0772
86.2816
96.9232
96.6655
100.933
84.8792
95.3598
97.524
95.5099
88.4093
86.2234
88.2388
88.1272
98.8941
83.9073
95.2413
97.9473
87.5321
110.059
94.4098
110.829
95.5691
95.8331
98.2098
83.2234
97.8156
74.6476
97.9363
89.6905
77.2333
98.0143
88.4423
98.2361
100.067
94.4762
95.275
96.5813
92.7561
91.7453
97.4956
88.0684
94.608
108.252
97.4201
88.6378
96.0281
100.07
94.377
86.9639
91.8738
91.8547
87.7106
99.7511
89.3299
87.7906
96.7232
92.8101
96.4596
94.4561
90.0865
87.4918
88.1765
95.0362
84.4202
97.295
95.8206
97.1167
95.2963
95.9685
92.4699
98.2005
97.0029
99.2149
96.4757
85.9179
114.711
120.907
83.6005
93.1253
90.6187
93.0261
89.8681
99.7923
99.2146
96.211
92.2857
87.5512
99.6236
95.4779
99.949
83.6577
89.1151
96.6783
90.5099
96.6201
84.8995
90.7597
86.0933
90.9395
89.6785
96.6784
85.2937
83.7744
95.2673
98.6971
98.0162
94.5016
85.7267
97.9292
85.8136
89.6859
99.6043
97.6714
97.9529
98.3057
88.1828
84.8294
88.0604
96.9733
85.1291
90.3183
91.3724
98.5384
87.9664
84.3793
98.0363
88.294
97.2904
87.8828
71.5002
96.16
89.8143
97.6113
110.228
86.1822
96.1289
83.1031
97.766
87.9984
101.25
95.8235
99.5563
87.8045
87.9304
94.9004
104
87.4385
98.8498
88.1799
99.8165
96.3521
98.7265
79.674
99.7529
88.2328
109.644
88.3402
90.7341
94.1745
98.178
98.3384
87.1884
99.2909
97.8189
99.7218
95.0735
103.039
86.7628
99.3154
80.8991
88.8608
113.874
84.4477
95.7371
103.801
88.1547
107.937
95.7562
99.792
91.5507
95.6835
86.4782
97.2409
92.8138
99.4962
81.337
93.2547
89.2442
89.2103
94.3794
89.2027
99.4568
96.1918
99.7156
97.655
97.1877
96.6828
93.7058
89.4107
94.9451
96.1965
97.032
96.0829
88.6141
92.9519
92.8906
87.0069
97.2013
105.79
92.9882
85.6439
94.5461
88.516
83.257
96.3458
97.7126
85.0391
112.61
97.0578
97.6656
107.274
91.4838
90.039
94.1936
)
;

boundaryField
{
    frontAndBack
    {
        type            empty;
    }
    wallOuter
    {
        type            zeroGradient;
    }
    inlet
    {
        type            zeroGradient;
    }
    outlet
    {
        type            fixedValue;
        value           nonuniform 0();
    }
    wallInner
    {
        type            zeroGradient;
    }
    procBoundary0to1
    {
        type            processor;
        value           nonuniform List<scalar> 
29
(
96.3892
96.1471
96.7434
96.7434
87.5576
87.5576
108.694
96.7981
89.1544
96.5996
96.5701
88.3213
96.9065
96.0484
108.874
109.114
87.2424
87.5141
96.6677
95.423
108.6
108.58
88.9328
108.908
108.752
87.5141
109.795
108.65
108.908
)
;
    }
    procBoundary0to2
    {
        type            processor;
        value           nonuniform List<scalar> 
42
(
92.4191
92.8103
97.1269
97.0106
95.927
92.4191
97.1269
96.9246
95.855
95.9999
96.3348
96.1017
96.3348
95.6354
94.7256
93.4422
94.7256
96.1091
95.8929
93.6727
93.6727
96.1091
96.257
93.0619
93.0619
96.2999
93.3791
96.3613
93.6933
92.2641
92.2641
96.4028
96.3699
96.2183
96.0957
97.1269
93.9168
97.2617
93.6933
96.9246
96.4814
96.223
)
;
    }
}


// ************************************************************************* //
