/*--------------------------------*- C++ -*----------------------------------*\
| =========                 |                                                 |
| \\      /  F ield         | OpenFOAM: The Open Source CFD Toolbox           |
|  \\    /   O peration     | Version:  v1912                                 |
|   \\  /    A nd           | Website:  www.openfoam.com                      |
|    \\/     M anipulation  |                                                 |
\*---------------------------------------------------------------------------*/
FoamFile
{
    version     2.0;
    format      ascii;
    class       volScalarField;
    location    "0.72";
    object      nut;
}
// * * * * * * * * * * * * * * * * * * * * * * * * * * * * * * * * * * * * * //

dimensions      [0 2 -1 0 0 0 0];


internalField   nonuniform List<scalar> 
5794
(
0.000491476
0.000721394
0.00523666
0.00427082
0.0110953
0.000634074
0.000809695
0.000871376
0.00222286
0.0010433
0.00204786
0.00155184
0.00130907
0.00888437
0.00209677
0.000809428
0.0094366
0.00723477
0.00117069
0.000510194
0.00140612
0.000681844
0.00126641
0.00133607
0.00101948
0.00427264
0.0124016
0.0153111
0.00390396
0.000841599
0.00135469
0.00223827
0.0023995
0.00197539
0.00191843
0.00242539
0.000785962
0.00169708
0.00184568
0.00621754
0.00540534
0.00343306
0.000743568
0.000799105
0.00175325
0.00233327
0.00204382
0.00119296
0.000992998
0.000408906
0.000752878
0.00303137
0.000764355
0.00225922
0.000104491
0.00233279
0.00210042
0.0016452
0.000731387
0.0056695
0.00132536
0.000534042
0.00133418
0.00528249
0.00567678
0.000732046
0.00408754
0.000664548
0.00575076
0.000732304
0.0062655
0.00387479
0.0151006
0.000999281
0.00603878
0.0116945
0.000495203
0.00379406
0.000730427
0.000188924
0.000429957
0.000500074
0.0078945
0.00170032
0.00167049
0.000878168
0.00070444
0.00101254
0.00269849
0.00225202
0.0049889
0.00202171
0.00337199
0.00547653
0.00254792
0.00814325
0.00393445
0.00313245
0.00189956
0.00142359
0.00140789
0.00124354
0.000756391
0.013029
0.00136992
0.0117066
0.000497551
0.00408387
0.00516672
0.000679486
0.00085936
0.00054732
0.00130679
0.00153631
0.00230098
0.00409245
0.00250127
0.00554831
0.00123472
0.00101139
0.00752186
0.000248453
0.000745819
0.0137594
0.00117483
0.00370234
0.00391514
0.000719973
0.00360666
0.00389402
0.00192064
0.00164363
0.00359995
0.00359758
0.0099653
0.00236038
0.00294716
0.000594049
0.00239308
0.00144352
0.000853042
0.0116924
0.00111098
0.0133504
0.00344473
0.0128164
0.00177774
0.00146613
0.00888269
0.00705638
0.000725615
0.00205633
0.0111426
0.000928277
0.0134921
0.00178554
0.00161105
0.00101907
0.00215497
0.00151072
0.000514887
0.000843866
0.000474453
0.000830465
0.00198543
0.00193835
0.000742936
0.000692524
0.000434922
0.000286772
0.000480159
0.00195955
0.000606316
0.000618695
0.000543335
0.000991507
0.00038765
0.000813409
0.000634903
0.00188517
0.000868008
0.00125416
0.000701698
0.00153595
0.000745204
0.0037413
0.00116893
0.00110782
0.000547643
0.000857004
0.00167321
0.0014983
0.00170547
0.000916491
0.000820532
0.00101325
0.000613887
0.000341128
0.000633467
0.00101067
0.000714715
0.00210508
0.00104432
0.000872605
0.0017378
0.00202312
0.000641296
0.00571713
0.0120715
0.00186875
0.000758541
0.000857607
0.00268163
0.00186102
0.00188217
0.00215753
0.00251364
0.00415404
0.00351321
0.00569358
0.000856271
0.00206261
0.00833355
0.00361077
0.00234683
0.00642291
0.000668128
0.00243293
0.00195076
0.00264182
0.000991394
0.000892157
0.00137548
0.00367115
0.00317665
0.010152
0.0127116
0.00208063
0.000886537
0.000448973
0.000657856
0.0075196
0.00209533
0.00158144
0.00150484
0.00150844
0.00163402
0.00809825
0.00113047
0.000937261
0.000662104
0.000696791
0.0118874
0.000603745
0.000809185
0.0191762
0.000909336
0.00088705
0.00384429
0.00105657
0.00252596
0.00256697
0.00171187
0.000728427
0.00125576
0.00117293
0.0101574
0.0037325
0.000778838
0.00290997
0.00268976
0.00106037
0.00220582
0.00526591
0.000868156
0.00218154
0.00222782
0.000805752
0.00216614
0.00117249
0.000454944
0.00321358
0.00346025
0.00250739
0.00417553
0.0052478
0.00233357
0.00293972
0.00531783
0.00772151
0.00196999
0.00139177
0.00210072
0.00207825
0.000770624
0.0033408
0.00208839
0.00139775
0.00233117
0.000978895
0.000359564
0.000980858
0.000344122
0.00272896
0.000769754
0.00313442
0.00199419
0.00437159
0.00252046
0.00228452
0.00111635
0.00276838
0.00213134
0.00157262
0.000782838
0.000903389
0.00501631
0.015915
0.00463602
0.00416627
0.00574576
0.00250858
0.00468311
0.0108087
0.000934663
0.00181064
0.000929679
0.00129784
0.00106381
0.00188193
0.00179249
0.000822716
0.000851173
0.00149188
0.00138939
0.000658957
0.000608151
0.000377562
0.000456687
0.000906585
0.000635577
0.000686607
0.00230188
0.000910958
0.000537313
0.000641902
0.00170714
0.00132231
0.00227489
0.00161245
0.00193668
0.00243893
0.00147826
0.00125944
0.000763892
0.00258626
0.000466645
0.00191115
0.00074472
0.000629546
0.00568339
0.00277373
0.00296194
0.00150396
0.00105738
0.00389167
0.00178399
0.0015661
0.00134927
0.00108988
0.00276722
0.000518664
0.00444269
0.00152147
0.00639574
0.00304935
0.00168625
0.00157434
0.00176081
0.00128423
0.00637218
0.00270581
0.000749967
0.00193521
0.00159247
0.00170191
0.00637138
0.00251256
0.00236971
0.000828306
0.000735568
0.00160852
0.000621994
0.000921085
0.000568933
0.000565222
0.000531232
0.00113228
0.00115563
0.00135943
0.00127095
0.00137426
0.0131255
0.000395229
0.000351221
0.00264215
0.000828458
0.000726555
0.000467572
0.00404241
0.00330383
0.0019138
0.00449043
0.00118419
0.00176208
0.0015067
0.000662472
0.00558663
0.00196633
0.00346325
0.0017842
0.00288358
0.00520391
0.00268389
0.000755803
0.00077651
0.000586939
0.00133348
0.000623452
0.000631866
0.00288275
0.000784061
0.0120604
0.00198724
0.00147457
0.00167543
0.00104485
0.00110385
0.00121126
0.00113819
0.00108009
0.000805354
0.000939432
0.00109914
0.000825866
0.00465345
0.00243454
0.0018267
0.000921849
0.00232088
0.000659531
0.000576654
0.00183746
0.000876493
0.00485245
0.000529019
0.00448643
0.00855239
0.00327481
0.00722497
0.00107779
0.000655678
0.000571551
0.00143052
0.00152976
0.0039375
0.00984191
0.0158214
0.005335
0.000763495
0.000176849
0.0129835
0.00452039
0.00381541
0.00189712
0.00308973
0.0178596
0.0160881
0.00111808
0.00064796
0.000761679
0.00112661
0.000827463
0.00279191
0.0053159
0.00343873
0.000861156
0.000942268
0.00277226
0.000684717
0.000585594
0.00414125
0.00398902
0.00969009
0.000757818
0.00131037
0.000945311
0.00272533
0.00112827
0.0024092
0.0165729
0.0173222
0.00072847
0.00156724
0.0138319
0.000621163
0.00108211
0.00110746
0.00493885
0.00078851
0.00814273
0.00177856
0.00797657
0.000545989
0.00141305
0.00217945
0.00375235
0.000548269
0.000804809
0.0132502
0.000680058
0.000604972
0.0134502
0.00600401
0.00452626
0.000652015
0.00095977
0.0021466
0.000497133
0.000733803
0.000917073
0.000296894
0.0092376
0.00256995
0.00403691
0.00195524
0.000785252
0.00297856
0.00393695
0.00209151
0.000673102
0.00220854
0.000515134
0.00645556
0.000969278
0.000802894
0.000754759
0.0133417
0.00122462
0.000656937
0.0138774
0.00140917
0.00045066
0.000790808
0.000617544
0.000877515
0.000914648
0.000657301
0.000451526
0.00739004
0.0182008
0.000610676
0.00338232
0.00241156
0.00703599
0.00112208
0.000415588
0.00475958
0.000286704
0.000910041
0.00164629
0.00283827
0.00147517
0.00130553
0.00152982
0.000858833
0.0157985
0.00335816
0.00210667
0.00303971
0.0048158
0.00239042
0.00772612
0.00726323
0.00341641
0.00137266
0.00105064
0.00436167
0.002259
0.00481522
0.000840776
0.000774666
0.000700613
0.00532162
0.00241096
0.00323886
0.00104431
0.00083112
0.000759638
0.00239593
0.000865473
0.00178035
0.0025309
0.00559173
0.000766447
0.00284079
0.00373222
0.000609314
0.000120658
0.00481324
0.0173643
0.0195896
0.0125642
0.000709288
0.00103543
0.000766689
0.00221293
0.0010363
0.00086788
0.0015196
0.000296894
0.00339476
0.00417854
0.00546161
0.000429985
0.000651518
0.00177111
0.00900632
0.00608772
0.000987507
0.000593239
0.000728635
0.000256084
0.000521413
0.000626303
0.00118042
0.00430588
0.000808915
0.00255548
0.0157621
0.000834019
0.000844869
0.00392781
0.00237638
0.00282703
0.00538099
0.00229359
0.00101127
0.00244561
0.000605002
0.000281225
0.00102013
0.00264994
0.000595767
0.000759123
0.00304886
0.0145154
0.00216984
0.0019725
0.00593251
0.00122932
0.000587279
0.000949638
0.000919916
0.000597709
0.00291078
0.00561723
0.00546766
0.00235598
0.00275091
0.00206208
0.00117875
0.0119689
0.00150246
0.00155428
0.00270856
0.0058799
0.00114213
0.0128179
0.000827057
0.000612643
0.00506183
0.00247859
0.000984175
0.00798934
0.00277989
0.00389676
0.00258481
0.00226925
0.000551609
0.00567527
0.00822663
0.00416543
0.00310518
0.00166375
0.00194019
0.00615993
0.00027628
0.000726427
0.00076951
0.00044741
0.000637369
0.000280389
0.000946676
0.00698682
0.00329849
0.00265317
0.00195791
0.00274193
0.00687363
0.00111253
0.00778495
0.00340423
0.00305864
0.00448745
0.000775136
0.000733271
0.0162626
0.00316468
0.00557328
0.00754524
0.00452232
0.00308501
0.00227649
0.0179238
0.00113411
0.000802618
0.000818408
0.00798874
0.000954863
0.00275933
0.00313132
0.0064534
0.00229593
0.00183979
0.0026283
0.00608958
0.00451184
0.00201601
0.00334974
0.00458041
0.000273182
0.000227126
0.000334359
0.000504229
0.00483078
0.00237692
0.00457313
0.000662991
0.000802824
0.000617287
0.000849477
0.00196753
0.000545704
0.00246342
0.00517946
0.00075561
0.0059772
0.00265881
0.000708686
0.000939424
0.0186655
0.00485982
0.00289027
0.00588625
0.00587851
0.00263063
0.00343819
0.000968986
0.003984
0.0021674
0.00454677
0.00569348
0.00260861
0.00428367
0.00074026
0.000654607
0.000837928
0.0128332
0.000785807
0.00630838
0.015344
0.00063726
0.000899309
0.000594258
0.00502728
0.00253525
0.0065623
0.00520238
0.00243542
0.00346588
0.00569305
0.00694753
0.00423982
0.0011029
0.00266818
0.000593605
0.00260781
0.000758008
0.00402349
0.000862812
0.00548358
0.0064425
0.000997056
0.000607664
0.00228584
0.00626503
0.00557148
0.00309081
0.00881957
0.00327297
0.000816667
0.000997134
0.0010713
0.0101381
0.00127875
0.00271225
0.00300408
0.00801491
0.000440524
0.000718111
0.000939738
0.0013627
0.0136781
0.00118721
0.000768491
0.00247703
0.00346422
0.00118128
0.00233806
0.00469581
0.00473055
0.00077128
0.00235924
0.00720448
0.00303114
0.00526471
0.0170951
0.000240546
0.000174756
0.000335164
0.000548404
0.00463099
0.00376032
0.000875012
0.00122015
0.000847983
0.000712332
0.000839164
0.0201351
0.00257906
0.00580758
0.00169279
0.00231906
0.00359575
0.00304234
0.012886
0.0039476
0.00133507
0.000621239
0.000753434
0.00758274
0.000815616
0.00377595
0.0076021
0.00362578
0.00491786
0.00397669
0.00144422
0.0114697
0.00263859
0.000772981
0.00312595
0.000754458
0.0045991
0.00249349
0.0026367
0.00354799
0.000811157
0.000752555
0.00065372
0.00457958
0.0038245
0.000898637
0.000747269
0.00264742
0.00108997
0.00397256
0.000664926
0.000799217
0.00278683
0.00264684
0.00286548
0.00596463
0.00364067
0.00619831
0.00903693
0.000658041
0.000633759
0.00356812
0.00106652
0.00125232
0.000530504
0.000617689
0.0021489
0.000436567
0.000790025
0.000972075
0.00673986
0.00366541
0.00396145
0.000845646
0.00305508
0.00559559
0.0165655
0.00202319
0.0032546
0.000784644
0.000785302
0.0156174
0.00106462
0.00333501
0.000837949
0.00135708
0.000988414
0.00148863
0.000215781
0.001962
0.00125124
0.000570067
0.000471689
0.00038805
0.000205388
0.000244841
0.000659744
0.0149236
0.0127893
0.0032007
0.00177325
0.00276169
0.00847243
0.000752139
0.000460469
0.000760955
0.00588209
0.0010495
0.0181193
0.00607594
0.00228448
0.000785574
0.00705216
0.00157507
0.000602077
0.00078656
0.0200734
0.00560586
0.000834153
0.000991393
0.000877914
0.00353386
0.00148526
0.011176
0.000784077
0.00053352
0.000612281
0.000649409
0.000579822
0.00272465
0.00132624
0.00088621
0.000522539
0.000761735
0.000789261
0.00947868
0.00078245
0.00214727
0.00103888
0.00163672
0.00083159
0.000937176
0.00111202
0.00110551
0.000645726
0.000941294
0.000756466
0.00164172
0.000788561
0.00167057
0.00481441
0.000902163
0.000833685
0.00355456
0.00115308
0.000830214
0.00203932
0.000776621
0.0185969
0.00208542
0.000729554
0.000825746
0.000874951
0.0142704
0.000971337
0.00270582
0.00255023
0.00536319
0.000655294
0.000903679
0.000884568
0.000528509
0.000829217
0.00123667
0.00185014
0.00168373
0.00146659
0.000187536
0.00220358
0.00143713
0.00103403
0.00107628
0.00160124
0.000498403
0.000936574
0.000617102
0.00101436
0.000746676
0.0133716
0.000796111
0.00586765
0.000789916
0.000783155
0.000736243
0.000418882
0.000723572
0.000651332
0.00720679
0.0145948
0.00429683
0.000635608
0.000826674
0.00307878
0.000992278
0.00254347
0.00119382
0.00263753
0.00506394
0.00106202
0.00680039
0.000482223
0.000841402
0.00603451
0.00081301
0.0136057
0.000723947
0.000493717
0.00456135
0.00753535
0.000590172
0.00306215
0.000618498
0.000832826
0.000660343
0.000591524
0.00120068
0.000745904
0.000830375
0.000818579
0.00103112
0.00110848
0.000972
0.00106198
0.00421531
0.000973622
0.000723204
0.00545638
0.0024125
0.000977586
0.000700431
0.00699099
0.00391342
0.00584635
0.00854477
0.00101368
0.00112803
0.000322277
0.0149472
0.0022921
0.0043688
0.00246881
0.0174705
0.00232613
0.000203574
0.00109403
0.000385349
0.000406446
0.00226294
0.000388937
0.00113002
0.00110366
0.000265875
0.00108205
0.000184969
0.000229541
0.00056689
0.000626357
0.00096412
0.00561372
0.00316229
0.00596605
0.00045659
0.00135841
0.00186844
0.00069121
0.00066145
0.000789522
0.00863842
0.000809269
0.00306401
0.00103111
0.00074629
0.000976251
0.0192752
0.0127757
0.000548612
0.0052401
0.00716696
0.00435557
0.00721912
0.00074451
0.00696898
0.0050343
0.00315372
0.000941947
0.00959933
0.000726277
0.000726315
0.00162881
0.0016792
0.00118262
0.000719245
0.0140047
0.00107112
0.000787329
0.00315467
0.00478243
0.00488498
0.000764825
0.000607679
0.00106232
0.000811893
0.00121775
0.00074878
0.0136185
0.00128277
0.00497648
0.0031508
0.00523865
0.00186951
0.00133629
0.0029278
0.0023767
0.00100113
0.00102796
0.000600734
0.00115775
0.000925642
0.0184658
0.000935949
0.000746681
0.000754575
0.000906279
0.00083224
0.000776232
0.000868075
0.000748059
0.00293575
0.00132125
0.0118525
0.00073125
0.000744753
0.000670192
0.000627474
0.00176471
0.0109311
0.00175465
0.00101604
0.000596511
0.00076677
0.00291529
0.000786562
0.000704739
0.000781692
0.000813448
0.000843637
0.00101179
0.000602117
0.00733612
0.000507176
0.0133008
0.000771912
0.00172476
0.000774134
0.000491054
0.000663826
0.00330821
0.00109127
0.000739192
0.000578042
0.000701478
0.0010298
0.00159974
0.00114965
0.00235058
0.000810031
0.00194653
0.0013174
0.00450906
0.00597229
0.0036847
0.000828423
0.000173188
0.00771176
0.00135554
0.00603098
0.00662422
0.000474831
0.000865047
0.00110151
0.00422505
0.000250526
0.0146809
0.00567482
0.00111187
0.011933
0.00691511
0.00121418
0.000497967
0.00715409
0.0188579
0.0102256
0.00130856
0.0014262
0.0016697
0.0029301
0.00083587
0.000270755
0.000590676
0.000783533
0.00241892
0.00169939
0.000384703
0.0063283
0.00126199
0.000445004
0.000617189
0.00416152
0.0146554
0.00106484
0.00299193
0.00476982
0.00852285
0.0147851
0.00272844
0.00226802
0.000794787
0.0051685
0.00165021
0.00779869
0.00551888
0.00233805
0.00391465
0.00658591
0.00929357
0.0046476
0.01519
0.00353358
0.00177752
0.00163488
0.0164759
0.00171335
0.00490712
0.00424818
0.00340978
0.00334351
0.00839444
0.00732105
0.00769185
0.0145547
0.00136464
0.000361014
0.000806446
0.00811392
0.000628309
0.00511615
0.00175788
0.000830833
0.00436464
0.00361254
0.00726844
0.00056166
0.00978078
0.0017067
0.00288594
0.00271944
0.00119521
0.00150888
0.000875505
0.0118912
0.000941193
0.000687112
0.00100449
0.0150085
0.00128018
0.0017064
0.0049106
0.00744726
0.00254383
0.0018525
0.0117958
0.00210078
0.000785962
0.000141591
0.00629703
0.00523984
0.00852633
0.00633915
0.000694348
0.000628242
0.00551097
0.00579807
0.000947466
0.00151559
0.00130214
0.00151867
0.00108138
0.00559006
0.00157552
0.00316119
0.00570917
0.0014073
0.00619959
0.00154764
0.00105937
0.00141044
0.00156417
0.00179754
0.000703852
0.00103243
0.00180025
0.00126312
0.000405712
0.00166735
0.000649778
0.000822371
0.00857217
0.00287539
0.0054309
0.00121701
0.00497475
0.00513128
0.0066707
0.00093651
0.00235358
0.00170823
0.00119854
0.000251347
0.000195545
0.000221808
0.0178261
0.00082629
0.00260586
0.00200929
0.00390007
0.00404972
0.00165377
0.000321911
0.000308138
0.000279331
0.000452495
0.000252445
0.000390152
0.000242355
0.000343679
0.000307908
0.000524669
0.00028905
0.000472157
0.000312603
0.000238928
0.000251649
0.000335774
0.000411317
0.00027374
0.000226634
0.000231371
0.000485052
0.000212268
0.000246075
0.000180692
0.000529362
0.000334645
0.000362116
0.000173817
0.000290472
0.000315217
0.000452128
0.000454167
0.000332171
0.000178517
0.000195686
0.000427804
0.000188191
0.000315093
0.000367045
0.000355742
0.00025664
0.000273785
0.000409737
0.00045371
0.00240309
0.0016811
0.0114464
0.000878215
0.00687748
0.00295989
0.00547805
0.0114973
0.00202294
0.000678713
0.000847809
0.002338
0.002246
0.0054226
0.0185073
0.0153596
0.00566684
0.00203007
0.00159345
0.00142481
0.0010497
0.00184485
0.000265383
0.00430747
0.00178901
0.00479451
0.00215265
0.00574409
0.00483866
0.00198458
0.00609685
0.0130173
0.00795523
0.0187932
0.0026461
0.0032138
0.00404305
0.000760431
0.0162429
0.00124495
0.00140753
0.00895478
0.00242685
0.00250308
0.00387526
0.00155969
0.00160743
0.000841893
0.000848842
0.0171611
0.00202352
0.000531208
0.000213592
0.00856469
0.0143554
0.000232845
0.00373228
0.00749731
0.000402206
0.00020459
0.000228701
0.000320471
0.000486613
0.000288
0.000429906
0.000343126
0.000322392
0.000316612
0.00053985
0.000433034
0.000259964
0.000465079
0.000245728
0.000262602
0.00048408
0.000242843
0.000193609
0.000224239
0.00023924
0.000338014
0.000236397
0.00352784
0.00261532
0.000429732
0.000886421
0.00891903
0.000848691
0.0108342
0.000613464
0.00299166
0.0120565
0.00429713
0.00295919
0.0145848
0.00712338
0.000238828
0.014599
0.00212184
0.00204226
0.0197295
0.00503279
0.0128294
0.000574647
0.0146713
0.00172278
0.000898131
0.0142557
0.000907378
0.00358524
0.00189607
0.000967542
0.000645821
0.00614591
0.000778054
0.0101535
0.0156948
0.001624
0.00753766
0.000738183
0.0106143
0.00219805
0.00153797
0.00081207
0.0055303
0.00139826
0.00198226
0.00440683
0.000946604
0.00739034
0.000834636
0.00285844
0.000643125
0.00766708
0.00859327
0.0200747
0.000161049
0.000771821
0.00103649
0.00726197
0.00295945
0.000335427
0.000632178
0.00450293
0.00397953
0.0142488
0.000832667
0.00133499
0.00163376
0.000735504
0.00325229
0.000909217
0.00824562
0.000492787
0.000185722
0.000240713
0.00977858
0.00659905
0.0007883
0.0049857
0.00502173
0.00161619
0.0145059
0.01648
0.012097
0.0147153
0.0149423
0.00081277
0.00755506
0.000659583
0.00248802
0.00195954
0.00752969
0.000723631
0.000923889
0.0011877
0.0143468
0.000444367
0.00142748
0.00174984
0.00264535
0.00264685
0.0105256
0.0148933
0.00944223
0.00365497
0.000830413
0.0154536
0.000511329
0.00216134
0.0020716
0.00121496
0.00865577
0.0146647
0.00325684
0.0150614
0.00290755
0.00805671
0.001463
0.00109839
0.00203914
0.00280072
0.00101937
0.00163392
0.00221778
0.0125449
0.00102486
0.0018703
0.00388475
0.00376375
0.00146099
0.00564973
0.00247488
0.0140684
0.00515993
0.00642795
0.00389195
0.00149022
0.00124238
0.00253581
0.00359526
0.00164815
0.00158762
0.00307659
0.0154473
0.0150597
0.0102741
0.0111091
0.014801
0.0107117
0.0148143
0.000605052
0.0148017
0.0150961
0.0111835
0.0123552
0.0155341
0.0117048
0.014672
0.0157039
0.0150093
0.00155728
0.001519
0.00185755
0.0132175
0.00120267
0.0017911
0.00164422
0.00115774
0.000206156
0.0002301
0.00721542
0.0140455
0.00712774
0.00257633
0.00273741
0.00807396
0.0137437
0.00767726
0.00310843
0.0011888
0.00119284
0.00142404
0.00355493
0.00971173
0.00283945
0.00150211
0.00222253
0.00535471
0.00262382
0.00400063
0.00174108
0.00678466
0.00220464
0.000691085
0.00218668
0.000326447
0.00707277
0.0012286
0.00162741
0.00112511
0.00170944
0.00293182
0.00281203
0.00260608
0.00444593
0.00453178
0.00135702
0.00298178
0.0115162
0.0029254
0.00274957
0.00302773
0.00410672
0.00972467
0.00169661
0.00212408
0.00963289
0.00481896
0.00305564
0.00279352
0.00132025
0.00317461
0.0107933
0.00334696
0.00204544
0.00252139
0.00215184
0.00554792
0.00126007
0.0161384
0.0028172
0.00139593
0.00188923
0.00232071
0.00501334
0.00133442
0.00130537
0.00305284
0.00566973
0.0026817
0.0154331
0.00969695
0.00186151
0.0105375
0.00203958
0.0023133
0.0032753
0.00154383
0.00293174
0.00119807
0.0147827
0.00357998
0.00249098
0.00175525
0.00790305
0.0140424
0.0014711
0.00149844
0.00608433
0.006154
0.00335498
0.00255769
0.00133949
0.00120362
0.00664483
0.0062123
0.00517387
0.0131636
0.0131491
0.00173862
0.00503224
0.000532031
0.00170604
0.0057456
0.00200454
0.00116408
0.00172251
0.00139734
0.00299986
0.00140143
0.00485044
0.000580678
0.00597827
0.00499844
0.00133269
0.00571945
0.00269968
0.007823
0.00105063
0.00295588
0.0014645
0.0087888
0.00756819
0.00215276
0.00280019
0.00215367
0.00143184
0.00117959
0.00500453
0.00438688
0.00398886
0.00537156
0.000388862
0.000807916
0.000787503
0.00687378
0.00117156
0.00137644
0.0063531
0.00695147
0.00548259
0.00153737
0.00151526
0.00775374
0.0025733
0.00449217
0.00150401
0.00747135
0.00633006
0.00642768
0.000358962
0.00710679
0.00901459
0.0131803
0.00253355
0.00886891
0.00696287
0.00202918
0.0065145
0.0093057
0.000956571
0.00214835
0.00783295
0.00344742
0.00654469
0.00701204
0.00745259
0.00972311
0.00045655
0.00410563
0.00238565
0.00760353
0.00249587
0.00218104
0.00962878
0.0092106
0.00837581
0.00132683
0.00208046
0.00549868
0.000809352
0.00955334
0.00129772
0.00872216
0.00148628
0.00287828
0.0013091
0.000295388
0.00602141
0.00147473
0.00656702
0.0014686
0.00120868
0.00796492
0.00322547
0.00201907
0.00557021
0.00287994
0.00210752
0.00125276
0.00256638
0.00071259
0.00212369
0.00216183
0.0027501
0.00039296
0.00166678
0.000345783
0.0128783
0.00130262
0.00255135
0.00172034
0.00175066
0.00135067
0.00271945
0.00140285
0.00158594
0.00519538
0.00178485
0.00200878
0.00183138
0.00399804
0.00253016
0.0014583
0.00173504
0.00536652
0.0049023
0.00176679
0.00540985
0.00284943
0.00158349
0.00311609
0.000987734
0.0122594
0.000875015
0.00225279
0.00201467
0.0113782
0.000983526
0.00134936
0.0022196
0.00941536
0.00139123
0.00150462
0.00852052
0.00265885
0.00137043
0.00157353
0.0013456
0.000966812
0.00127978
0.0057917
0.00247273
0.00121757
0.0119086
0.0134214
0.000846429
0.000739752
0.00137579
0.00202635
0.00719098
0.0014207
0.00183305
0.00213305
0.0020288
0.00122508
0.00544202
0.0018803
0.00516437
0.00533162
0.00149708
0.00106467
0.00218527
0.00441974
0.00117972
0.00183431
0.00151712
0.0126499
0.00690863
0.0067673
0.0119399
0.00194883
0.00150578
0.00658296
0.00971793
0.00151367
0.00662597
0.00254952
0.00128635
0.00165711
0.00538045
0.00647065
0.00143539
0.00617973
0.00245511
0.00241078
0.00350456
0.00281981
0.00525198
0.00047489
0.00245877
0.00138366
0.0130276
0.000860073
0.00107244
0.00781705
0.000799589
0.000830578
0.0115657
0.000440985
0.00244642
0.00122158
0.00152155
0.00163841
0.00927231
0.00406355
0.00673018
0.00379483
0.00298308
0.00317495
0.00158227
0.00772702
0.00668376
0.000327429
0.000318911
0.000631535
0.000787532
0.000795979
0.00994018
0.00234085
0.00109093
0.00144817
0.00341693
0.00454858
0.00288465
0.00027218
0.0110241
0.00966019
0.00204013
0.00062932
0.00287412
0.00392806
0.00746453
0.000542823
0.00159661
0.01111
0.000884515
0.00129984
0.00173437
0.00905038
0.00541479
0.00119551
0.00295163
0.0106494
0.00390433
0.00226295
0.00174753
0.00166893
0.000526271
0.000837184
0.00281027
0.00359571
0.0035805
0.0060519
0.0133546
0.00503111
0.00300908
0.00178015
0.00164868
0.0147967
0.0105958
0.0138853
0.013079
0.00900687
0.0055291
0.00382018
0.00224174
0.00159636
0.00144646
0.00884434
0.0116615
0.0109849
0.00229257
0.0127403
0.0071352
0.00652079
0.00601009
0.000833787
0.00473439
0.00243259
0.00105848
0.00147536
0.00195045
0.00181858
0.00190194
0.00613232
0.00767401
0.00130172
0.0142262
0.00723128
0.00954626
0.0051968
0.00256522
0.00114645
0.000941365
0.00105487
0.00067065
0.00108569
0.000743545
0.0089877
0.0019507
0.000792297
0.00158666
0.00346882
0.00542308
0.00503852
0.00291984
0.00611164
0.00315302
0.00388436
0.0083886
0.00290562
0.00132403
0.00250198
0.00221208
0.000311585
0.0013904
0.000776298
0.00219408
0.0148477
0.00156164
0.00143502
0.00170894
0.00580751
0.00106102
0.00573901
0.00870682
0.00174711
0.00174775
0.00301104
0.00322142
0.00399889
0.00648679
0.0016633
0.010082
0.00205455
0.00703369
0.0142457
0.00826855
0.00255379
0.00484557
0.00187508
0.00778579
0.0105169
0.00439173
0.00150964
0.00081223
0.000739935
0.00112459
0.00334554
0.00734871
0.00163209
0.00086288
0.00808336
0.0081212
0.00652995
0.00446626
0.0013303
0.00791446
0.00804964
0.00178036
0.00182922
0.00448226
0.006489
0.0154488
0.00384987
0.0123907
0.00165062
0.00799198
0.00199219
0.006727
0.0110269
0.00235898
0.00308269
0.00127436
0.00499748
0.00482907
0.00165005
0.000264293
0.000190283
0.00804277
0.00655776
0.00930651
0.0058402
0.0114901
0.0093887
0.000795641
0.00467437
0.0063957
0.00362095
0.00327081
0.00777464
0.00909919
0.00205319
0.000979973
0.00136485
0.00966512
0.00159804
0.0121844
0.00317695
0.000753819
0.0105478
0.00160617
0.00172169
0.00933099
0.0151068
0.0131389
0.0139781
0.000390093
0.00107913
0.0062609
0.00842414
0.0144704
0.0142623
0.0027693
0.00994336
0.00247994
0.00136209
0.00365144
0.00282585
0.0110351
0.00563634
0.0146946
0.00339192
0.00151237
0.00773126
0.00391465
0.00437418
0.00192471
0.00381062
0.00813647
0.00130011
0.00216462
0.00671645
0.00711916
0.0128229
0.0033309
0.00253635
0.0133607
0.0010401
0.000757573
0.00183638
0.00956341
0.00922186
0.00668836
0.00420449
0.00115251
0.00111085
0.00646524
0.00164509
0.00725213
0.00869428
0.00358099
0.00656279
0.00263805
0.00542545
0.0102903
0.013741
0.00610357
0.00170516
0.00251856
0.0020449
0.00122033
0.00554106
0.000931793
0.00251159
0.0148002
0.0133029
0.0150252
0.00878805
0.0114907
0.00197873
0.00575198
0.00153596
0.0102676
0.0185032
0.0124097
0.00936178
0.000740254
0.00187017
0.00781774
0.0109623
0.00475202
0.00589516
0.00223118
0.00591677
0.00248654
0.00291
0.00238196
0.000350533
0.0141483
0.00125437
0.00878874
0.000812567
0.00754901
0.00405881
0.0022383
0.00661614
0.00905501
0.00118017
0.00764202
0.0139838
0.00267684
0.000510599
0.0109678
0.00514632
0.00433342
0.00227786
0.000613301
0.000804882
0.00376291
0.0155235
0.0112175
0.00436591
0.00647473
0.0109012
0.00108694
0.00462967
0.00407048
0.00493867
0.000734854
0.00186908
0.0112374
0.00423146
0.00478244
0.00464816
0.0161036
0.00356454
0.000989495
0.00112044
0.000909497
0.00302744
0.000797632
0.00626904
0.00311458
0.0108696
0.0010528
0.00193617
0.000931571
0.0123876
0.00619605
0.0146202
0.00418916
0.00121817
0.00456461
0.00561366
0.00451904
0.000798173
0.01114
0.00265548
0.00120743
0.00165806
0.000787828
0.0137815
0.000811283
0.0163826
0.0084531
0.000937499
0.00906837
0.000795485
0.0152523
0.009595
0.00165776
0.00197797
0.0024612
0.0155374
0.000848174
0.000777979
0.000768006
0.00454502
0.000824241
0.00113897
0.00923779
0.00502373
0.00770616
0.00443077
0.00633694
0.00104169
0.0150228
0.00838657
0.00310195
0.000739067
0.00437404
0.00759667
0.000321207
0.000186574
0.000273508
0.0143229
0.00216379
0.0149551
0.00465285
0.00483197
0.00972255
0.0134773
0.00182127
0.00310152
0.00664171
0.00490654
0.00241923
0.00457166
0.000699251
0.00813547
0.00132595
0.00218165
0.000915425
0.00130252
0.00288511
0.00239137
0.00591685
0.00309342
0.00239152
0.0160279
0.00711928
0.00747393
0.00892548
0.00160666
0.00104824
0.00340064
0.0015935
0.0114556
0.00574337
0.0110994
0.00858694
0.00167475
0.000946532
0.00126869
0.00362238
0.00131239
0.00880354
0.0019542
0.00116583
0.00263187
0.00957561
0.00351403
0.0149792
0.000519744
0.0099214
0.00215435
0.00307877
0.0016307
0.00593112
0.00724705
0.00270978
0.0015952
0.00519562
0.00611339
0.00154492
0.00239014
0.0143123
0.0106636
0.00676844
0.00764843
0.00589445
0.017495
0.0138207
0.00171104
0.00257383
0.00333105
0.00182761
0.00378304
0.0127742
0.0139829
0.000744133
0.00770796
0.00193222
0.00238345
0.00203914
0.00338089
0.00470525
0.00379016
0.000464011
0.00805999
0.00876321
0.00187178
0.00231769
0.0022107
0.00642992
0.00349233
0.00274227
0.000617965
0.00274455
0.0122777
0.00837786
0.00403221
0.00229381
0.00567249
0.000941851
0.00110149
0.00100397
0.00078565
0.0016921
0.00186467
0.00124553
0.00187456
0.0153987
0.000715611
0.00183493
0.00131578
0.000930248
0.00628554
0.00148861
0.000803393
0.000981366
0.00318927
0.00247301
0.00178244
0.00119403
0.00138205
0.00240503
0.000891334
0.00125916
0.0088556
0.00675368
0.000804264
0.0059654
0.00144678
0.00317122
0.0102161
0.00578745
0.00862227
0.000841418
0.00078605
0.000159211
0.000422117
0.00194852
0.0145322
0.00240118
0.0165857
0.00537915
0.00186013
0.00718571
0.00161125
0.000805116
0.00341716
0.00479539
0.00774296
0.00832259
0.00181017
0.000888999
0.00116819
0.000732459
0.00119913
0.0130054
0.00183524
0.0040729
0.0069698
0.000521295
0.0051348
0.00215529
0.00107276
0.00263253
0.0102952
0.0138134
0.0139836
0.0109615
0.000701445
0.000816127
0.0059189
0.0124624
0.00663688
0.00830926
0.00415304
0.00707729
0.00111306
0.000806265
0.00078447
0.00864098
0.00802308
0.00192647
0.00196013
0.00104063
0.00213518
0.00730631
0.00150655
0.00256193
0.00764464
0.0129223
0.0118792
0.00101764
0.0145232
0.00123536
0.0129452
0.00582745
0.00520743
0.00313373
0.00384176
0.00130685
0.00724052
0.0140364
0.0120551
0.00126835
0.00103135
0.000850035
0.000754436
0.000759441
0.00112971
0.00237509
0.00389229
0.0080032
0.00626877
0.00243964
0.000838635
0.0135829
0.000764445
0.00111483
0.00450956
0.0145817
0.00584621
0.00390517
0.0087066
0.0072627
0.000820267
0.000841071
0.00377761
0.00357799
0.0110016
0.000851894
0.00851083
0.00797875
0.0014622
0.00640944
0.000934128
0.00129609
0.000682328
0.000777516
0.000329181
0.000630156
0.000850748
0.00104188
0.000827452
0.000267654
0.000182713
0.000260242
0.0164314
0.0154729
0.000848068
0.00948162
0.00341391
0.0083579
0.00848603
0.00626653
0.00488182
0.0134116
0.0101949
0.00458612
0.00441572
0.00386713
0.00950005
0.00228535
0.000906164
0.000889945
0.0015846
0.00117255
0.000957246