/*--------------------------------*- C++ -*----------------------------------*\
| =========                 |                                                 |
| \\      /  F ield         | OpenFOAM: The Open Source CFD Toolbox           |
|  \\    /   O peration     | Version:  v1912                                 |
|   \\  /    A nd           | Website:  www.openfoam.com                      |
|    \\/     M anipulation  |                                                 |
\*---------------------------------------------------------------------------*/
FoamFile
{
    version     2.0;
    format      ascii;
    class       volScalarField;
    location    "0.72";
    object      p;
}
// * * * * * * * * * * * * * * * * * * * * * * * * * * * * * * * * * * * * * //

dimensions      [0 2 -2 0 0 0 0];


internalField   nonuniform List<scalar> 
5794
(
92.6837
94.648
91.1285
93.606
93.2053
93.592
89.87
92.0477
89.6772
94.6748
124.97
89.6154
88.3031
92.8344
96.0013
94.6249
37.1148
94.2012
96.074
94.7799
92.8592
92.8978
89.1344
94.6372
91.0213
44.8876
43.0216
95.443
91.2952
95.2171
92.6647
87.2437
105.301
94.6271
90.021
88.8499
98.3407
90.8462
88.439
91.8185
92.0065
94.4986
116.241
91.1209
96.1033
106.603
88.6628
92.2068
94.8531
90.9324
94.7345
83.2546
90.5695
94.9308
95.2628
108.831
90.4702
90.4612
116.414
40.1449
104.009
95.0127
92.3098
87.0399
104.867
94.9702
90.955
90.9787
94.052
95.0696
82.469
91.2708
20.0252
91.6364
93.6929
95.4378
93.1376
50.8114
91.5732
94.8399
92.5023
94.5314
91.7881
89.5861
91.7547
93.3108
87.2284
110.607
94.3965
90.0512
113.782
89.9273
91.3537
92.2131
94.1281
82.1807
109.574
92.2127
90.1851
104.914
81.049
88.0412
116.401
94.5611
96.3429
91.6367
95.0115
126.193
81.6273
92.1204
95.3644
96.2535
74.7929
94.658
93.5379
90.6754
95.6279
92.1052
103.157
92.4106
91.9263
94.7969
92.158
95.3585
96.1466
122.991
90.3635
94.0602
85.1006
124.781
93.6389
90.7988
88.7387
55.0423
91.7289
95.9279
116.366
95.074
94.8141
95.2775
91.8305
95.4461
96.2681
95.8836
94.8477
50.8772
92.7815
114.387
93.6742
96.6359
121.063
94.9341
91.8893
91.8921
46.2494
87.7697
90.1828
92.0717
106.155
92.2522
95.9291
91.3939
95.1818
89.1019
81.5903
83.2156
89.6452
92.3469
95.3697
96.182
95.6628
82.8664
89.1659
91.1208
94.515
89.0155
95.906
90.6532
94.8999
85.6863
93.9913
89.1473
91.6301
107.185
90.0647
45.0156
87.7546
106.14
94.86
88.1462
124.701
87.4895
105.317
93.2831
91.2758
93.3984
91.878
95.3024
96.1968
114.623
89.3859
82.4577
93.0968
91.0244
88.2569
106.246
93.4575
126.457
86.9619
88.8379
92.8609
97.4218
89.0351
91.1871
94.4507
90.1819
88.9409
89.4786
125.349
97.978
97.5159
86.3889
112.439
91.6664
111.299
39.4252
91.3259
94.3332
94.0116
95.7677
89.3834
91.5666
93.9471
82.2515
90.632
51.3603
70.1663
118.925
88.3819
92.4042
94.4286
126.521
92.429
92.5
91.361
95.4095
96.2132
93.8109
110.597
92.6094
90.2244
94.8987
42.81
94.6935
119.508
86.9373
115.318
115.366
126.501
96.0898
116.801
89.2319
91.8204
94.8545
89.4544
92.9417
96.5978
122.416
96.0431
105.686
87.7384
92.9387
92.3825
81.5554
98.8505
95.8239
94.8818
91.6783
95.0981
87.5302
95.4051
104.978
92.3292
94.2802
91.2912
92.0444
89.4539
94.6938
87.7741
91.794
88.9727
90.4942
94.082
94.8174
112.471
53.8667
92.4673
94.237
90.0842
94.7916
94.5823
81.3205
92.5126
91.3594
90.9623
120.834
95.1139
92.3682
104.975
87.1598
92.8447
105.544
91.9364
94.6758
98.2732
100.295
126.143
95.3898
81.5171
92.2907
91.5779
89.8478
91.9584
93.4249
94.6276
85.9435
90.9349
91.0956
89.7901
125.213
83.446
117.542
92.5435
105.699
87.4402
94.8103
94.4657
95.3019
94.8802
106.387
94.7181
90.9461
88.1974
88.9377
95.8571
91.0626
109.282
90.4838
83.9136
90.675
87.6398
52.537
105.794
88.0935
92.6568
41.6502
96.2386
84.4237
89.6454
92.083
126.367
89.043
117.362
89.6006
92.0835
93.8942
82.3825
107.378
89.2421
91.5244
95.179
94.8576
93.8766
95.5093
126.089
81.5594
109.044
89.8969
91.9237
95.1418
91.7374
95.2222
98.673
88.8925
90.272
94.9053
90.9389
89.516
91.8638
89.9545
92.17
89.5477
95.0221
95.4164
89.3473
91.4944
94.2791
90.5843
95.9172
89.2839
94.6327
90.495
48.1935
95.3813
96.3238
120.249
90.4656
93.417
94.9696
110.208
91.8047
89.3752
124.107
83.0321
105.941
87.9299
93.1561
95.6758
81.8138
109.783
90.147
92.2321
125.742
95.1283
88.9759
90.6948
94.8863
94.6793
94.5803
92.631
83.0776
98.6721
96.5276
75.7145
96.1933
95.5664
93.1684
90.9914
88.9618
90.7216
95.0245
98.2993
91.0102
94.5418
91.4316
90.372
93.588
94.7347
90.5832
91.4886
94.2937
94.7278
83.6643
92.7836
92.1153
94.9346
108.077
85.3391
93.7741
92.7858
93.0368
94.7932
90.7056
95.4289
105.846
124.639
47.4923
91.1313
124.433
91.9846
94.9829
79.4357
124.073
93.9969
94.7859
107.276
63.1138
95.1811
91.9902
94.7914
91.1127
92.9636
94.6898
94.0783
126.101
124.487
97.149
91.5219
52.3394
92.625
94.6026
92.7087
91.7836
93.6611
90.4302
95.3264
95.6116
95.2536
94.7059
119.644
90.8625
62.3934
100.455
85.4156
96.3989
94.7922
93.1462
114.35
124.129
94.9125
81.4027
95.1241
91.6814
95.0326
94.808
92.3466
90.7343
95.0681
97.3047
49.0535
93.3527
94.8881
92.585
92.4804
124.374
94.5597
92.7531
95.9878
94.7906
93.0611
91.3455
94.8086
46.7927
95.3262
93.8765
90.6055
98.4005
114.593
124.464
116.242
92.7223
77.9238
94.6607
91.6764
90.9272
94.6201
98.8639
95.8587
94.7027
93.819
94.7196
95.1145
96.0349
91.6754
94.4892
96.3316
90.9786
93.1395
94.8485
94.5365
23.4734
95.5834
121.617
94.9244
92.436
91.7001
94.607
91.0435
93.5863
94.8005
106.737
83.289
82.408
94.6059
48.717
95.7728
91.3034
90.5296
94.3329
91.8801
91.6589
92.0702
123.864
49.7032
84.5546
109.556
94.7466
92.1259
90.1275
109.167
94.8759
94.6972
95.1191
89.9175
92.6576
101.671
95.116
98.0153
95.002
90.4948
92.5476
107.558
93.5307
90.4876
94.8795
124.07
56.2777
94.6497
95.2564
93.5135
88.0837
85.6405
92.6706
90.4225
93.7128
89.5685
119.231
124.908
113.479
91.8949
94.8441
124.051
123.37
126.303
94.959
94.5891
95.525
93.9681
127.183
94.6665
92.5726
94.5426
94.5709
93.3947
94.9385
94.6033
67.2386
98.1626
93.9142
95.6457
90.9844
116.868
125.556
90.0143
115.526
90.4595
94.0054
104.981
95.3409
95.2346
94.0011
92.6912
95.3326
90.0457
93.898
119.997
49.0056
91.5836
36.8084
95.392
95.1508
94.7282
92.8415
92.2802
94.7705
94.3213
89.9862
92.2073
89.5941
105.174
119.017
90.5763
41.4384
89.9357
93.4983
93.5792
90.079
90.8928
91.5373
92.372
94.4241
126.703
95.0691
94.6703
94.6912
115.094
93.6953
95.2821
95.0787
95.0341
92.272
100.04
72.1039
93.711
94.7661
94.9577
126.275
94.7859
92.8559
97.4107
94.8892
87.9283
94.742
115.457
94.6073
118.145
94.9586
94.3278
95.3783
125.556
116.656
93.7012
93.8518
88.2296
124.043
96.2894
99.9266
44.9515
122.203
90.1676
126.382
68.0819
115.022
95.4053
89.2126
90.6927
113.922
98.9818
125.586
101.408
93.6095
69.8847
97.878
120.581
94.7995
90.5239
35.3322
124.194
90.0123
91.7815
111.109
95.2599
93.1085
90.3644
90.6805
92.2009
89.9883
107.199
90.2974
98.3082
94.4486
92.1717
95.1347
94.9786
93.4366
90.5127
99.6404
93.5926
94.0503
108.822
91.4483
72.0065
92.3494
94.1395
90.77
92.2373
90.6561
112.068
90.9467
92.1742
90.5181
110.127
94.2945
95.331
93.8965
95.2444
94.5116
92.6794
93.5315
93.7562
126.117
47.5877
90.7319
93.1495
94.8251
92.2175
90.9804
126.325
90.596
92.4901
94.717
120.175
108.716
89.7033
90.6746
91.3278
94.6504
74.1639
92.697
60.6701
96.5448
126.236
92.3933
95.3955
94.4808
94.8856
125.711
126.968
118.953
104.868
93.8337
91.7773
92.8651
107.446
97.108
95.3735
88.7664
106.422
125.846
94.9109
93.2732
90.433
113.262
49.8629
94.6571
99.1734
94.969
94.0713
94.7267
90.0673
92.1725
108.516
97.9155
95.3112
92.6942
94.171
95.2258
40.3826
91.6838
94.4381
90.5597
95.0292
124.135
94.9234
99.9106
94.8791
91.9239
105.473
98.3751
79.2444
93.5079
89.9817
93.8356
89.7811
122.092
122.542
49.6134
91.3222
94.8913
95.2445
105.671
94.5576
92.2661
93.9038
102.059
93.7715
76.494
124.075
95.1988
95.0498
94.8597
97.703
121.415
93.5423
57.4124
95.0149
95.2782
60.3309
108.491
97.3405
91.2042
92.7777
125.09
114.869
95.0087
95.298
88.5735
122.92
92.5482
98.2803
122.483
91.5043
93.9179
90.7587
91.2881
98.3946
93.6216
92.5935
94.5754
94.2929
94.7577
95.204
94.9574
93.4225
119.968
94.8318
98.0944
94.852
91.5329
90.3642
93.4863
95.4696
124.174
124.404
57.8061
92.0908
91.3878
98.4076
94.9083
53.3722
104.53
86.1848
118.003
92.4711
89.9098
94.2047
93.1481
90.2007
105.974
90.904
90.7852
90.6901
93.5645
95.2955
118.061
96.1593
93.1477
110.425
90.1251
92.2916
95.8043
112.369
94.9436
93.3414
93.8419
94.7498
85.2343
125.771
110.012
98.3231
92.3967
78.0986
94.696
92.7311
83.6356
45.6238
98.7687
90.5739
102.264
94.9028
94.7458
92.9971
95.1506
89.7432
93.8191
94.9939
94.9561
92.5359
95.2996
94.8327
95.0272
95.2465
98.0937
94.6004
98.9514
95.1258
94.7965
110.233
98.6671
92.4206
94.0683
89.8459
94.8883
125.093
100.562
91.1168
95.2705
91.0443
124.009
95.243
98.3636
92.4854
95.3862
98.3552
71.3195
97.5789
87.9618
103.457
94.9472
99.0425
93.2083
96.1718
111.285
73.7055
93.2606
101.452
94.5702
92.5202
94.8959
94.4828
103.231
106.726
47.2585
79.4949
95.2704
94.6637
93.3572
92.3568
89.3145
104.514
114.693
95.0369
92.9451
94.7941
91.9081
98.5585
96.1797
96.7269
94.3543
98.0181
98.6718
99.6965
95.6359
94.5581
92.656
93.8231
95.6338
124.166
95.0825
98.2572
91.8718
94.8342
94.2963
95.2433
90.4206
126.031
94.8512
126.396
94.7776
100.157
126.173
95.174
92.5777
110.671
94.8119
94.9185
91.9606
95.0355
91.1351
90.3419
93.2495
94.7904
90.5157
95.0883
94.9387
97.6119
95.2514
95.0985
94.5108
90.6926
88.9948
97.3649
106.342
104.202
90.0207
93.1192
95.1455
95.1707
91.9965
94.6629
92.0231
92.1304
95.1896
118.338
94.9128
92.146
95.0474
123.877
95.0577
84.4594
91.9444
94.7903
99.1927
91.7967
94.7993
90.3875
96.2551
98.0252
98.5402
94.7239
99.0397
94.717
94.78
90.7638
94.8165
93.1809
92.038
95.6683
125.201
95.7789
55.4448
95.1474
93.3043
94.8257
98.2504
94.4294
102.337
95.6509
93.4183
97.1942
104.342
86.3742
93.3831
94.7849
95.4302
91.8491
93.0079
93.794
98.3881
94.8411
94.8857
120.581
114.322
92.9489
103.186
102.196
94.8189
92.9319
88.521
94.9933
31.9549
98.6358
94.9214
95.6343
124.065
124.336
95.3569
94.468
92.5597
91.7199
91.1987
94.9991
92.3708
91.2679
91.8912
94.4542
91.5209
92.4933
95.1422
90.4252
91.2726
92.4161
95.3829
94.7791
90.4346
92.8805
87.9057
90.7368
93.3561
104.116
105.173
99.4581
96.2082
98.2396
103.988
95.5003
91.7779
96.307
105.691
100.847
94.5403
92.5589
116.475
94.3012
118.511
91.9471
89.9709
103.636
90.546
116.923
107.065
93.1519
90.1379
98.5125
112.928
95.0821
93.5179
94.6151
55.3344
94.9171
95.1202
90.3216
93.3005
94.9528
99.1406
94.7182
117.183
94.3464
91.2299
101.732
92.7533
88.0911
95.0952
95.2176
93.679
89.5457
123.854
125.429
90.7638
98.4259
94.7612
94.0202
91.8199
87.3658
105.064
126.71
116.033
98.8955
93.915
94.7453
95.5928
92.2657
98.2535
91.3399
89.4275
90.1222
95.2308
93.8215
76.9069
93.9047
53.8105
92.5089
94.783
115.282
99.2687
95.4635
95.0754
97.7693
91.326
95.5459
95.0123
94.6011
93.0603
94.7987
90.7122
90.9432
95.3874
94.8864
94.3334
91.9579
89.8078
79.325
90.6562
119.575
97.6204
91.6298
95.5507
93.9589
110.217
91.062
92.035
92.0853
93.6807
125.573
51.3208
90.7658
94.8239
95.207
84.9537
95.4761
92.4298
92.6078
93.6492
90.5661
91.8158
92.4428
91.8647
95.8552
95.479
94.6192
98.1946
91.6606
95.339
92.335
111.789
98.9686
125.32
124.754
92.27
95.2556
92.8055
95.5371
126.095
91.356
89.2488
93.0711
95.1112
96.4174
94.722
90.6292
93.1209
91.0207
95.1116
92.9618
94.9147
40.6958
90.3235
36.2772
48.7361
91.6584
98.0296
95.2522
92.0756
94.9592
92.0235
92.0694
91.9464
94.6192
86.9128
104.78
103.957
92.4222
94.1592
87.6849
88.1167
93.8879
95.3229
92.5482
125.433
95.1016
91.5414
95.156
95.1663
92.4974
113.773
94.8208
91.825
90.6636
93.3418
89.0368
90.6248
94.7414
95.2471
98.2943
91.7067
131.02
125.032
94.7852
40.4903
125.698
93.783
91.1903
95.2588
103.155
95.252
94.7472
93.1061
90.6738
11.1711
99.006
92.9589
87.7098
110.948
55.5807
115.15
90.6725
92.9336
94.7451
92.6848
94.6896
90.69
91.1189
94.7529
91.2932
94.7708
94.6891
91.7032
90.7016
92.8412
94.681
94.7267
90.7925
91.2068
94.6601
90.673
91.9439
93.054
94.7162
95.1116
94.8287
90.4629
91.8762
92.5557
94.7161
92.6946
90.7191
91.6826
94.6944
93.0439
94.7543
92.8248
94.644
90.6369
94.7109
94.7657
92.5671
94.8807
91.7425
90.7159
89.0525
87.9259
55.5503
95.321
94.4772
102.708
93.2894
94.0376
95.1846
95.0624
95.2529
95.1513
91.3743
92.4513
49.3821
90.9372
91.3522
91.3889
95.1178
95.1003
95.2947
92.5215
93.655
92.487
95.5372
90.9672
90.2929
94.7021
124.27
94.8762
92.1664
91.5188
89.464
45.7711
95.2204
89.7781
91.7596
107.088
94.8325
91.4835
91.0215
93.278
120.298
94.2886
91.2662
91.017
93.3074
97.7792
97.0446
11.9447
95.2909
92.0286
94.6228
94.6684
94.8171
95.192
140.399
93.9269
94.7026
94.6643
91.0174
90.6406
92.7315
91.2833
94.7613
94.7787
92.5965
94.7374
90.74
91.7036
94.9679
90.6398
92.5526
90.682
91.79
94.6884
94.6847
92.9651
93.0022
90.7285
94.7545
101.208
89.9107
126.573
109.965
91.8157
97.7791
93.2038
94.994
120.127
94.217
93.9004
130.13
95.1882
91.8556
95.3172
95.3209
118.474
94.4399
74.0184
92.7113
96.5694
95.0616
95.3991
98.8947
95.174
95.6809
98.7389
94.4941
95.5193
90.9131
94.6422
93.3867
95.2154
93.9384
88.9451
95.5748
92.1944
95.0673
92.365
92.5486
95.1115
95.1447
92.4911
95.3026
95.3396
95.6146
95.2859
93.3513
98.7168
92.4493
87.5911
93.2001
91.6565
82.0226
95.268
98.3501
107.604
92.9753
122.998
90.3633
94.9128
96.5866
91.3454
95.7177
98.6308
95.3013
94.7966
91.7155
91.4185
94.7902
93.0425
94.1622
95.1717
92.6343
91.7007
94.7817
95.1093
93.8585
96.902
94.7532
95.6548
88.5307
94.2743
95.6817
94.4334
95.3123
89.8696
95.1206
90.6722
94.8031
94.2657
116.942
93.2165
90.2189
91.9327
94.0082
92.508
94.6875
95.4576
91.266
93.3437
95.7559
113.714
92.3891
95.498
95.1253
91.1294
119.503
118.859
92.1648
95.5294
91.3702
100.34
95.8119
108.585
95.3306
142.928
91.2826
87.4255
105.381
116.062
87.9149
89.2846
91.1547
131.325
89.7371
109.281
91.2492
132.895
91.6007
89.771
29.7323
91.1933
91.793
92.7731
94.6193
92.6245
90.6372
96.1539
92.5247
94.9318
90.6037
92.3086
91.939
89.5335
89.666
92.2818
89.65
91.3716
95.2887
92.2484
93.073
89.8284
90.0885
92.5923
89.8398
93.8069
93.6716
93.9943
90.1378
89.589
91.4551
46.4213
89.6973
92.9065
92.9443
88.8843
95.323
95.1442
90.9202
91.2341
94.0924
95.4186
95.4963
89.4016
91.0891
89.2833
89.0338
92.877
88.2615
92.7194
91.9948
91.419
90.5004
121.564
92.079
91.1532
95.6055
90.6657
95.3708
89.2907
95.4013
88.4796
95.5811
95.253
91.569
88.3037
92.736
88.5428
92.9338
95.5881
108.719
95.5925
89.2075
87.4243
89.8246
106.452
81.771
95.5511
108.347
106.556
87.8627
82.7848
95.1475
95.8938
81.4833
104.891
110.939
95.509
89.8706
108.5
81.4683
107.503
95.7969
95.7073
95.9651
87.1455
90.6773
51.3187
95.6504
89.6498
90.598
95.5394
87.0481
95.1921
90.5961
106.372
104.997
88.9329
51.2274
81.0541
95.9884
81.2087
95.448
90.0144
88.7621
95.0505
108.114
91.1907
50.7984
88.8267
89.9475
95.0086
81.1906
47.6749
96.1438
147.217
81.8603
90.9608
88.7956
89.7305
96.2086
91.5716
104.962
87.2783
82.1047
47.4073
47.3996
90.3656
89.225
91.3118
91.6832
91.7302
94.6249
95.3861
85.968
92.4874
90.4921
94.9696
124.91
88.6933
90.9928
91.8366
88.516
91.622
95.5088
92.739
93.7981
90.5534
92.6353
92.6352
94.1375
94.3956
88.8407
89.897
96.2481
93.215
91.5427
91.3823
95.4028
95.2896
90.0798
89.0314
93.4937
91.8974
95.3157
91.1942
87.4955
105.126
92.9129
88.4144
92.6838
91.8851
95.5863
95.4476
90.1853
94.296
95.1905
95.1482
89.2481
91.9473
92.163
46.7475
95.5715
91.9542
94.498
95.651
91.8508
91.5094
90.3742
95.5889
94.0435
95.437
95.0589
94.6373
91.9733
91.4437
95.9432
91.8582
95.5488
94.208
95.5389
95.5671
91.4228
91.4554
91.568
96.3749
95.5518
93.3388
94.4772
91.4567
92.8003
92.9594
94.8179
90.5837
92.4844
95.4775
87.6859
90.4944
105.205
88.9497
92.7365
93.1593
95.5686
95.5346
125.173
84.9975
89.3781
91.9128
95.6882
90.7864
90.3208
94.2883
88.9628
95.7431
95.5468
95.6012
45.3395
117.027
94.14
91.7267
89.5264
96.3492
90.6285
92.4774
94.6912
125.401
89.5775
91.8322
91.0819
95.6106
90.622
92.5165
94.6259
106.176
88.6677
89.551
125.62
85.9584
89.7289
91.7186
90.1156
43.5649
116.885
93.9031
89.259
90.8833
90.3416
96.4387
91.6975
93.5734
85.638
87.449
95.54
90.6167
92.5341
94.6076
90.6647
90.2561
94.1312
125.467
86.6227
94.6633
43.863
48.4407
90.98
116.888
90.0796
93.2952
90.5125
91.3834
96.4429
96.509
90.0045
86.1994
95.5683
91.7853
90.7374
108.423
89.5329
114.592
89.6495
91.6295
93.5929
94.7432
94.716
90.1146
90.2513
89.9288
89.8795
93.7779
89.4692
90.0658
92.9142
86.302
95.632
90.5982
92.6034
94.5666
90.2636
108.263
89.9428
125.646
89.8977
89.6586
91.1905
89.6455
91.564
91.8348
91.9079
94.6869
46.6751
90.9792
100.763
91.7557
96.5972
116.85
96.4831
95.1967
94.0153
91.7331
91.9047
89.5656
91.4858
89.1272
95.6433
96.4993
90.8572
100.887
94.5783
94.0052
91.6
89.6762
89.8892
91.3379
94.2114
93.8771
95.5654
90.6247
92.7316
94.6079
91.1515
92.4023
94.299
95.2113
95.52
96.1664
119.83
95.2579
94.3804
89.6165
91.4597
91.7058
94.7073
42.943
91.0758
95.3086
94.7321
96.264
97.5492
89.8568
90.9402
96.8167
90.8288
93.3026
91.249
88.6481
94.0799
98.7993
95.5603
95.6058
95.5415
95.3775
90.3818
90.623
90.6911
93.8515
89.5339
91.1328
93.6576
91.4671
90.2831
96.5218
95.3828
126.358
95.539
95.5684
85.4144
89.241
90.1738
89.9691
87.1774
95.8386
91.4202
90.8836
90.9094
89.8891
95.4776
90.5954
92.7337
94.592
95.5665
95.543
95.56
92.1428
110.358
90.3709
94.559
93.8853
91.4381
93.9792
91.6232
92.6853
94.0103
92.6609
94.1985
89.9696
99.4252
90.1373
91.2458
98.3634
95.3071
119.185
93.6716
94.2247
91.5689
125.769
91.9368
89.6659
91.4191
94.31
86.2338
91.7752
90.6703
95.29
94.7
89.9732
90.3889
91.2411
90.5738
92.5508
94.6539
124.594
90.9672
91.7405
94.8664
95.3201
93.512
95.5646
95.5913
91.2809
89.9441
94.3124
95.6706
95.5475
94.0559
91.403
89.6077
94.9163
91.6627
90.3139
93.4828
90.2346
91.1665
94.7281
116.847
117.708
95.3053
90.5838
93.8213
90.3254
117.124
93.8052
91.55
95.0648
91.7441
118.088
91.275
93.7836
87.4809
89.7425
90.943
91.9544
95.577
95.5476
90.2462
94.787
89.7842
96.5222
90.833
94.9586
125.398
90.9416
95.522
91.5086
91.2644
92.1141
90.9536
94.6243
93.1839
93.7173
91.4728
91.3376
89.951
89.8496
98.1941
91.332
96.5199
91.9259
94.523
93.8211
91.4966
90.6262
92.8765
94.6389
94.3584
82.6036
90.1851
90.5963
94.8596
94.1352
89.1184
82.9248
94.0106
95.5121
93.8481
93.9863
90.948
97.5677
91.6595
93.5124
90.9687
90.9039
95.4243
90.0216
102.56
94.5132
128.55
90.4268
90.5149
92.4317
95.5767
91.3871
95.1988
91.1288
91.8734
91.1976
119.953
91.1606
109.752
91.1667
95.3429
94.9143
89.4781
90.4607
94.1844
106.542
90.7823
96.5618
101.94
107.235
94.0452
94.3448
91.9311
90.7114
92.4922
95.0076
125.885
88.2549
91.193
86.8229
92.2695
53.3905
95.5428
89.5291
91.3576
90.6056
95.1766
90.3391
82.3568
92.7831
95.0123
91.931
95.3352
95.3649
91.3564
93.6949
91.1219
89.4994
46.5066
91.7116
93.8313
111.466
92.7102
83.4027
95.9051
38.066
103.306
94.7657
95.9166
93.7054
94.6187
125.329
91.6027
90.8299
95.2566
133.107
94.1908
90.8025
93.6452
94.73
91.5963
95.2447
93.8189
95.5672
92.6544
93.3803
91.5328
118.106
89.3191
90.6885
90.2523
94.9491
93.488
94.795
95.5754
94.8475
94.4403
91.805
137.261
95.9905
91.0118
91.9561
90.7379
92.1932
91.6512
124.139
95.6216
90.777
95.586
94.7239
71.1998
124.704
95.5149
95.585
93.9846
96.3885
100.099
96.0329
91.2221
90.7247
98.2597
89.6278
91.3227
91.4997
95.313
94.5563
100.917
90.9092
91.0159
91.1002
86.378
90.8245
90.8091
93.9123
91.3035
95.2196
91.2438
95.4938
95.3239
93.5747
96.5434
91.1099
91.5575
93.2966
90.4694
94.7899
91.7173
101.477
91.557
89.4289
94.0209
92.3288
90.093
95.8691
96.0668
97.075
98.1188
90.7405
92.9241
94.65
78.2276
91.9465
92.9061
95.5483
89.923
113.226
91.2074
89.2867
91.2584
102.274
90.1515
91.4334
90.4585
93.204
94.9543
90.8492
111.699
89.746
91.3273
91.2697
90.2967
90.8727
94.7637
94.2674
91.4514
91.758
90.578
110.456
94.6067
96.273
95.8428
90.6028
92.8906
94.6364
90.1628
95.1794
91.1045
95.5024
95.3056
93.4064
91.2081
93.6027
91.5535
89.3655
90.7314
92.7543
95.3396
95.7893
95.656
94.5589
92.3696
90.6351
93.0037
94.6783
133.173
108.343
91.5726
91.7779
101.065
109.339
108.898
93.5366
95.2046
94.5215
91.3703
94.7878
95.4963
95.9658
124.976
91.7812
95.5389
89.8826
89.1396
106.847
95.0596
92.6604
94.4229
89.8281
94.3651
91.7297
93.1704
89.5653
49.2805
72.4402
95.3052
89.638
93.7072
89.2522
95.731
95.5067
101.307
96.4271
116.596
91.568
94.2465
92.1477
95.3663
93.215
95.2568
91.5024
91.5298
90.6167
99.2674
94.7439
94.0251
92.2684
124.156
95.0844
90.7294
85.6465
93.5389
124.27
125.23
94.5623
91.5717
93.1373
94.7276
90.5806
90.9723
20.8483
94.7076
119.594
86.0646
95.7716
95.2485
94.4105
123.61
88.4148
90.6411
93.0509
94.7142
95.6471
115.354
93.2185
89.1216
95.1041
94.4298
95.2637
94.7081
92.9525
91.7202
98.1234
124.586
103.72
95.659
95.8629
93.5024
91.7052
91.2412
94.5884
94.4875
91.8256
95.2294
95.8289
95.2935
93.8372
93.7592
118.038
93.0417
95.267
98.1171
90.5841
44.0594
91.5861
93.5839
90.6164
93.0269
94.6915
105.604
94.753
90.5961
89.7747
93.9459
94.1999
94.8834
95.1743
94.76
94.7192
94.9598
91.571
91.9369
94.5874
93.0612
94.5609
91.1974
90.9516
91.2745
94.6954
96.4584
94.0613
91.6966
94.8222
98.1642
95.3007
92.7346
91.7071
117.936
119.699
90.5817
95.2826
94.4593
95.5306
95.6181
91.0766
92.9459
93.2801
96.2927
95.4664
101.197
95.7706
90.8746
91.8081
94.5057
92.2778
95.2977
88.0166
94.8764
90.7473
111.132
94.8804
91.0803
94.5837
95.097
91.3198
89.0574
90.8572
93.5043
90.7844
94.8787
95.6516
82.5469
100.502
95.3567
94.8577
95.8578
91.9104
94.7784
93.1442
91.6516
98.44
98.1792
95.6692
91.4896
96.6362
95.218
93.0936
91.6979
95.279
90.8415
94.8864
93.1786
94.791
95.0823
96.1086
94.5307
91.5797
91.8523
98.7277
90.6268
93.1165
94.7961
94.235
96.134
94.6748
91.4261
95.5713
91.5977
93.2614
92.8179
124.718
89.7617
39.5075
93.8972
92.4753
91.117
92.5351
91.2481
93.1225
94.7543
95.3071
93.1579
94.7473
98.3539
93.9737
116.073
95.0389
94.5516
91.5321
90.9165
116.726
92.955
95.114
94.7163
93.9723
116.081
89.6369
92.1367
93.8222
90.5315
126.233
97.0968
90.0626
95.2363
106.844
82.0709
93.9667
90.9931
95.1935
94.5505
90.9139
90.6203
93.2093
94.8465
91.1893
94.8364
91.3265
90.4692
92.032
95.2723
95.3784
92.5603
90.4849
91.9169
94.7305
95.1091
95.1568
90.9245
91.2275
92.7144
95.7842
88.724
95.278
115.044
90.8241
93.8542
90.6233
35.3817
92.611
121.57
95.4257
90.9086
92.4002
93.1085
95.4805
94.5279
90.7149
95.2227
92.0905
94.1825
95.3732
117.461
93.2226
87.8028
94.6185
92.7454
126.636
93.7805
89.9205
95.471
92.586
91.8536
96.16
95.5095
94.2949
90.6193
93.1123
94.7312
93.0935
90.7957
94.758
94.1411
94.7604
83.4341
89.8663
89.4658
91.3528
56.0029
98.4627
107.156
91.9028
91.0303
124.763
68.4221
111.055
96.1295
90.6301
93.0907
94.7117
95.0578
102.36
90.587
92.6176
94.6557
95.1864
95.4948
118.66
129.685
88.883
110.666
96.94
123.976
94.3707
91.6645
93.129
93.0286
88.6384
96.0377
110.008
94.436
94.7658
94.8082
95.37
124.583
91.7231
111.623
92.8118
90.836
91.4294
89.6543
96.2874
95.5773
92.7665
90.5925
94.5946
95.3762
91.3639
94.2117
91.6954
93.4377
90.863
95.9459
93.3304
99.104
38.9283
124.185
94.9536
95.4287
95.226
94.4647
94.4093
92.4642
91.1776
94.8147
95.5672
91.7683
92.3448
109.24
91.6293
89.07
108.389
92.5778
94.4702
95.3201
98.9409
33.8186
91.7484
87.1132
104.844
91.385
94.0307
99.8868
98.0226
93.9816
90.626
95.2311
90.6661
126.453
95.1107
92.5497
95.0908
99.5321
42.667
91.5783
94.7716
91.9726
95.1799
91.1406
89.0455
95.1368
108.321
91.9644
95.0776
94.8663
116.205
93.4675
93.8522
91.8034
92.3386
94.5664
91.7878
95.1615
95.0722
94.9192
93.2853
107.768
92.6736
107.15
89.9995
92.002
94.4541
91.3626
126.041
95.4985
95.3164
101.384
112.061
93.5572
91.0414
91.6525
94.5049
91.9144
90.401
123.396
91.8669
94.3599
94.5119
91.7966
94.1279
122.706
123.958
92.8339
91.1258
95.0115
94.9829
94.4892
91.632
89.9629
94.0415
94.9896
94.6119
95.3041
95.4082
94.3142
78.985
90.8558
123.786
93.7358
92.5337
95.2154
91.8358
91.9459
118.231
94.9058
94.4536
116.426
94.5643
113.259
107.242
95.098
123.229
95.8008
124.021
94.2394
94.4613
91.9354
100.685
92.5382
104.77
88.658
99.6053
27.0833
95.3053
122.355
90.9202
103.083
90.2422
104.151
92.8735
123.008
123.882
92.7301
108.492
93.9312
90.3894
93.2349
94.8514
91.5897
95.0625
104.679
95.2557
106.482
104.919
95.0442
94.4893
91.9744
125.255
89.65
90.9875
94.5774
98.2548
94.9582
98.4772
98.8579
95.4284
108.31
92.3427
94.5538
90.2122
89.5474
95.0863
106.707
124.347
93.6644
111.538
103.137
89.0033
95.298
95.3181
95.2541
95.061
95.2731
124.076
97.9287
89.5629
94.5012
89.6326
111.815
89.3849
93.0484
91.8073
90.045
90.6751
94.3449
92.3776
91.0383
95.7475
91.7253
92.9781
94.0831
92.48
94.2799
110.005
100.246
94.1902
95.2513
95.2929
92.2173
105.73
91.0669
92.832
91.6114
95.3002
92.3575
89.8648
90.1338
48.7231
93.9252
95.1232
98.7225
92.9678
90.6308
94.6949
123.747
95.8151
116.697
94.7832
94.5976
82.2759
91.4072
95.1921
95.7636
93.8513
102.11
92.8755
111.477
91.4495
93.1816
94.8125
91.2042
95.0236
91.1164
55.8132
54.5589
91.7299
95.3416
90.7953
91.9809
94.7421
93.1649
90.4627
95.1229
93.3543
90.4733
90.2216
89.7965
90.9478
89.3588
91.4794
126.418
91.173
92.5395
87.906
91.6525
104.098
95.268
92.2397
93.3151
93.9853
113.079
93.9213
91.5457
92.8282
88.8123
44.4074
92.9069
95.1414
107.145
124.802
95.5319
94.092
94.9419
93.2217
92.6291
91.7582
93.5718
94.0203
95.359
91.9717
92.8317
90.597
94.6346
90.939
94.5983
91.6823
109.018
92.5899
90.1604
96.1758
94.4472
92.3435
91.6854
94.9539
104.811
87.0635
92.1473
90.3226
93.5041
96.0074
91.2295
89.636
88.7926
100.455
95.7104
111.348
121.13
141.36
94.5229
93.8695
126.659
89.563
94.4569
96.0733
120.974
95.042
97.5876
9.87612
98.6015
92.7323
92.8434
94.8205
93.0609
94.745
90.6699
93.5729
93.4018
86.9676
95.5618
92.5081
97.6896
91.9645
126.129
90.8784
111.461
88.9114
93.0251
90.6505
93.1288
94.7689
94.7243
88.0093
93.4371
90.7369
93.6375
33.6516
113.499
93.1385
93.4149
95.8332
94.6132
89.6423
94.9188
94.9146
86.8822
96.1328
96.0313
95.0349
95.5731
94.6648
90.6504
91.3669
94.1064
90.2769
117.562
94.5661
92.6056
94.5902
93.6815
98.9754
105.726
94.7946
97.8011
92.1231
89.8128
92.159
93.4081
89.028
93.2959
94.4404
92.4207
91.1995
95.0664
126.276
93.1565
94.7704
125.705
95.6394
93.9424
95.4709
80.8048
99.6782
99.4448
94.948
96.8642
94.952
97.0053
97.1407
100.405
98.5543
96.3736
94.9902
91.0567
94.7277
92.5207
103.251
95.0544
95.4608
95.1915
91.2426
90.905
99.1928
95.9563
94.9315
90.4967
94.4511
94.6569
90.9551
94.6058
95.3683
97.1135
50.0022
90.6436
93.1466
94.7814
91.1982
94.7584
92.7469
90.5987
94.6101
93.1598
90.7878
94.7936
122.654
95.4972
95.307
92.543
92.9518
91.7658
97.9278
90.3386
91.9287
94.8395
90.1621
92.4678
94.6829
94.465
114.297
111.182
92.9061
90.2303
92.4226
95.2427
95.2386
93.8921
90.291
124.766
99.6391
89.2207
115.294
94.7965
91.8281
89.3372
94.7712
95.4917
81.0094
95.0755
100.108
89.4798
92.9983
93.9801
96.8884
94.1451
86.0924
128.315
90.8728
94.3547
95.5314
95.1393
95.0861
113.543
123.541
95.6635
95.5733
89.7252
108.803
91.2599
89.2951
95.5054
94.3424
90.5804
90.3503
93.5465
89.3677
90.9175
94.792
91.6236
87.0303
104.815
95.3194
95.3743
89.9571
91.7727
89.7192
100.935
92.032
89.5354
93.0781
90.9759
94.5879
94.9337
98.2039
91.2584
17.5991
96.7259
90.9023
90.3547
93.2264
90.5297
94.677
89.0689
95.5144
92.723
94.857
94.4948
96.1323
122.252
92.6205
124.589
94.3969
91.0755
95.1411
94.2458
92.3887
90.7656
52.2562
116.813
98.4123
95.0721
91.9479
91.0841
83.2248
86.383
93.9091
93.6529
98.4609
98.1054
92.168
94.2236
44.6044
94.7021
90.6568
93.0702
91.3499
89.3788
90.854
93.5008
90.7222
51.4968
92.9593
91.1298
91.4768
94.5688
92.6023
90.3516
89.1781
94.7931
96.843
108.856
94.52
92.8265
92.9974
93.383
89.162
89.5477
95.432
126.629
117.414
96.3404
81.0455
91.5779
93.1325
90.7549
94.7766
94.9097
116.602
94.2563
99.3303
91.8385
92.564
90.6564
93.3561
98.7967
91.0408
111.348
92.0761
89.178
92.6342
94.5746
126.297
95.1844
90.5665
89.5352
96.4004
93.3055
85.7399
43.3663
107.524
90.9923
94.797
89.239
91.2903
93.7876
90.2689
93.0302
94.5438
94.8575
94.7962
93.2144
125.785
92.7722
92.5884
93.372
95.6279
51.8673
91.3557
90.145
109.381
91.8995
95.8605
96.2548
98.3699
90.1573
94.7798
93.1971
90.4884
94.5968
91.0028
89.3238
123.736
94.6532
95.7274
94.7538
92.5628
90.6839
88.9253
95.483
95.4537
89.6075
93.2954
95.879
98.6688
92.6436
94.61
115.473
67.1433
95.5385
53.3788
94.4777
90.9708
84.2337
82.9155
93.8042
96.6283
76.1919
95.6097
117.523
92.674
88.7916
111.645
122.783
115.542
95.8504
95.6662
94.6169
91.7712
89.2676
81.9864
89.095
90.9184
95.0988
106.116
105.7
100.13
89.1903
94.3292
89.3275
98.601
95.2836
94.7815
93.8858
94.5885
92.7447
123.67
89.1419
89.1954
89.3327
98.3161
89.5477
91.6435
88.4299
95.2881
92.7045
90.5831
94.5927
92.0873
89.4258
95.3599
91.8369
93.8887
86.1981
90.2281
91.5931
91.5052
94.5236
106.881
94.7786
91.5336
91.71
94.7941
112.489
120.687
94.8749
94.945
114.696
91.7114
100.279
94.6807
92.8378
92.5583
94.579
93.2178
95.3147
95.5168
92.8349
95.4708
95.1766
125.263
96.3057
94.7076
94.4366
94.9301
91.4284
95.0302
85.6687
91.755
94.5519
98.0248
119.651
91.7633
89.7297
91.2952
89.2426
94.7646
91.6134
95.3441
94.355
96.2613
95.236
91.5009
94.7583
51.2055
91.1966
124.276
95.6082
95.3277
94.3684
122.253
91.404
51.8394
98.7562
95.068
95.3063
95.1824
94.8857
94.8531
93.2744
90.4874
95.2628
90.2216
93.2693
94.7639
91.8428
95.4772
98.8071
124.942
94.6158
92.3798
92.3117
94.738
95.0519
91.1353
105.398
87.3943
91.5104
98.186
91.6577
96.8049
91.4548
98.2069
117.081
94.7849
95.8775
95.4357
89.5083
126.352
88.0954
95.3108
87.8983
89.3808
94.0599
94.9157
94.9719
124.851
100
94.7834
93.2373
90.3517
98.583
95.1142
91.2588
89.2285
95.6687
94.668
92.4851
45.8233
94.2502
91.7104
109.135
126.171
91.1629
94.2071
94.6717
124.282
92.9118
96.9625
91.5784
36.7902
56.9741
95.6653
48.2054
94.8425
35.8973
89.6841
109.293
90.9586
91.0026
94.9919
94.9755
94.9439
94.9607
93.5025
93.43
93.5892
93.6951
95.0143
93.8215
63.0398
93.8244
93.4385
92.7569
93.0546
56.5307
94.1919
91.8656
90.8065
92.4732
91.6872
90.2086
68.7038
49.1788
89.9245
78.0175
73.4555
90.168
94.2525
90.9984
91.7318
91.3054
90.8438
90.9886
93.9695
92.1704
92.6732
95.0397
91.3229
90.6227
92.0794
90.6936
92.5124
94.2609
111.048
112.294
94.0002
95.9215
93.1915
90.5571
92.193
98.1397
110.754
115.013
103.966
101.1
118.926
122.912
126.93
125.716
91.229
93.7128