/*--------------------------------*- C++ -*----------------------------------*\
| =========                 |                                                 |
| \\      /  F ield         | OpenFOAM: The Open Source CFD Toolbox           |
|  \\    /   O peration     | Version:  v1912                                 |
|   \\  /    A nd           | Website:  www.openfoam.com                      |
|    \\/     M anipulation  |                                                 |
\*---------------------------------------------------------------------------*/
FoamFile
{
    version     2.0;
    format      ascii;
    class       volVectorField;
    location    "0.72";
    object      U;
}
// * * * * * * * * * * * * * * * * * * * * * * * * * * * * * * * * * * * * * //

dimensions      [0 1 -1 0 0 0 0];


internalField   nonuniform List<vector> 
5794
(
(0.0433847 -0.415134 -3.38244e-17)
(-0.150291 0.827647 0)
(-0.0610915 -1.11192 -1.34914e-16)
(0.0657165 2.6334 1.13966e-16)
(1.87069 1.82268 2.72758e-17)
(0.0319084 -0.541998 -1.41029e-16)
(1.01071 -0.217112 -2.33125e-16)
(-0.231981 -0.184374 0)
(6.00731 0.90548 9.83306e-17)
(0.924373 -0.188073 2.19248e-16)
(4.68688 -0.111957 -3.46184e-19)
(-2.42442 -0.101074 0)
(-2.10099 -0.337656 5.2895e-16)
(0.769611 6.26546 1.87704e-16)
(0.669663 0.158795 5.11833e-16)
(-0.849491 -0.111819 -1.60975e-16)
(1.20122 0.0573844 4.70951e-17)
(0.0972854 6.4976 1.29559e-16)
(0.520711 0.113129 4.89e-16)
(-0.00433415 1.23157 1.52142e-16)
(-2.94825 1.82428 -4.69692e-17)
(-0.078279 -0.532831 -1.72296e-16)
(2.13532 -0.112742 2.94627e-16)
(0.97635 -0.133664 -6.20063e-16)
(1.68402 0.256947 -4.18993e-16)
(2.83481 10.6692 2.10072e-17)
(5.87931 -0.523254 0)
(-0.213225 1.93242 -1.46867e-16)
(-0.119167 9.39614 -3.74854e-17)
(0.644689 -0.136785 2.91891e-16)
(-0.867263 -0.745131 -6.35388e-16)
(-1.81703 0.0414504 -5.2005e-16)
(-2.1208 0.11447 -9.02058e-16)
(-0.302685 -0.402511 4.49894e-16)
(-1.34065 0.240251 -2.00358e-16)
(-0.731102 0.107873 2.17896e-16)
(9.78609 0.595515 -2.18273e-16)
(2.63976 -0.390742 0)
(2.55098 -0.441975 1.41904e-16)
(-0.0513457 3.48046 0)
(-0.458555 3.31513 -1.0106e-16)
(-0.256718 1.81043 1.41318e-16)
(7.44439 0.113787 -8.94348e-19)
(0.478731 2.95981 0)
(0.766303 0.153201 -4.50504e-16)
(4.92308 -0.167891 1.33185e-16)
(4.13569 -0.143921 -2.41727e-16)
(-1.8098 -0.519868 0)
(0.264935 -0.0917443 8.70855e-16)
(1.00525 -0.185515 6.69224e-17)
(-0.323198 -0.100042 -1.72535e-16)
(6.26211 -0.202906 -1.75688e-16)
(-0.648885 0.326812 0)
(0.306402 0.0545813 1.78539e-16)
(-0.0560303 -0.0526904 1.08785e-17)
(5.18286 -0.495327 0)
(4.37328 -0.305881 -1.92287e-16)
(-2.26385 -0.0319111 1.4294e-16)
(8.45654 0.0684276 0)
(4.27481 10.0115 -7.16281e-19)
(9.14991 0.477686 1.9122e-18)
(0.492383 1.24308 -1.20808e-16)
(-0.379259 -1.44506 -1.51373e-16)
(-0.90367 -0.00468416 2.1397e-16)
(-1.20857 0.139836 0)
(1.04215 0.177921 -2.63972e-18)
(0.235614 0.606388 -2.52478e-16)
(-0.161744 3.77519 0)
(0.26436 4.56815 -1.52942e-16)
(-0.00586504 0.516132 -3.7393e-21)
(4.85876 -0.471061 1.36404e-16)
(0.384441 2.04293 -3.19831e-16)
(11.5582 2.02134 -3.48224e-18)
(1.96939 0.62274 0)
(0.155781 5.80088 1.3438e-16)
(-0.043573 0.886133 4.18538e-20)
(0.798967 -0.211404 1.3121e-16)
(1.55731 10.4905 -2.17099e-17)
(0.664262 2.95664 3.63252e-17)
(-0.501746 -0.0021176 7.56494e-17)
(0.10282 -0.776955 -2.00089e-17)
(-0.0743988 0.752377 -1.66437e-16)
(-0.495473 2.17753 1.52001e-19)
(1.51301 -1.44755 -9.61354e-17)
(1.99658 -1.39367 -3.53784e-16)
(-0.140589 4.85413 -4.39629e-17)
(0.226544 5.81982 3.2368e-17)
(0.0403995 5.25525 -2.5118e-17)
(0.988389 0.157726 -1.64917e-16)
(1.34127 0.558138 -5.09161e-17)
(0.904276 5.5763 -8.02147e-17)
(0.0893196 6.42475 -8.91727e-17)
(-0.113883 7.40043 1.35289e-16)
(0.119274 7.68025 5.74968e-17)
(-0.0287233 6.01372 3.60206e-17)
(-2.14992 0.0553947 5.29938e-18)
(0.0129205 6.18049 -5.60076e-17)
(-0.137742 7.1134 -1.46691e-17)
(-0.0117472 6.41833 0)
(8.87213 0.527586 -3.09455e-17)
(1.68204 3.18557 -1.26154e-16)
(-1.10128 0.171926 -4.29139e-16)
(8.34539 0.146768 7.30503e-17)
(0.702563 5.33327 -2.51703e-16)
(0.954653 0.294075 0)
(-0.636867 6.01455 0)
(0.0567219 1.26995 0)
(-0.263122 0.0712432 -2.80395e-16)
(-1.36319 0.571019 -1.2226e-16)
(0.826486 2.77181 -1.01259e-16)
(0.097658 -0.0898685 -9.52705e-21)
(0.309405 -0.00673085 0)
(-1.54738 4.65863 1.17916e-16)
(-0.0259433 0.00824682 1.64257e-16)
(0.0352628 5.90392 0)
(-0.127763 7.81371 0)
(0.237791 0.134334 -3.74684e-16)
(-0.567709 8.20653 -9.38216e-20)
(9.39832 0.428736 -2.36082e-20)
(10.8523 0.590139 6.12842e-18)
(-0.735398 7.98859 1.08877e-16)
(0.971045 -0.0387289 0)
(-1.45309 0.0935466 0)
(-0.143134 1.32835 -1.93727e-16)
(0.676848 0.0596314 2.36063e-16)
(4.74552 2.35775 5.07142e-17)
(0.994434 5.45188 0)
(0.0675191 -0.794532 8.46395e-17)
(6.51935 -0.565944 1.15558e-16)
(-0.430284 -0.0492351 1.69128e-16)
(-0.786891 -1.01008 3.16929e-16)
(-0.0101517 -0.891011 2.20362e-16)
(0.408801 1.29418 2.26657e-17)
(1.1057 10.1443 -6.5879e-17)
(-0.659711 6.84847 1.35853e-16)
(0.756279 0.178651 0)
(4.31497 -0.200089 9.29957e-17)
(0.622759 1.14747 -1.78519e-16)
(-0.882 -0.106292 1.78e-16)
(0.175282 -0.245774 0)
(1.49071 -0.543768 -4.95991e-16)
(0.807369 2.49298 0)
(0.650652 0.0538444 0)
(0.632344 2.85126 2.63938e-16)
(-0.935445 -0.151956 1.82733e-16)
(1.87741 -0.134535 1.5365e-17)
(-0.8465 0.796758 2.41883e-16)
(7.75837 0.284097 2.35284e-16)
(1.34765 1.10608 -1.98478e-18)
(0.261536 1.01777 4.39902e-16)
(7.2889 -0.18061 -1.74289e-16)
(0.857402 0.105738 3.09615e-16)
(-0.629443 6.21047 0)
(-1.07922 0.455611 1.966e-16)
(3.93399 -0.702586 0)
(4.51586 0.130487 0)
(1.51252 -0.623048 -2.71614e-16)
(1.28246 -0.149519 4.13567e-16)
(5.3103 0.18166 -2.64088e-16)
(1.73812 -0.600434 -1.33828e-16)
(0.289958 -0.00294658 4.3376e-16)
(-1.42897 -0.212321 -3.69312e-16)
(-0.380324 -0.0242299 0)
(-1.12869 -0.0985757 -1.50413e-16)
(-2.93932 0.0241121 -3.01305e-16)
(-3.09562 -0.0749237 1.63635e-16)
(-0.626556 -0.195761 1.39122e-18)
(-0.206928 -0.302675 -4.41846e-18)
(-3.62698e-06 -0.0757493 0)
(0.164346 -0.00442991 1.05723e-18)
(0.479916 0.111374 0)
(-1.8299 0.407885 -1.15202e-16)
(-0.935162 0.179142 0)
(-1.27861 0.373154 1.02399e-16)
(-0.947146 -0.173093 4.33744e-16)
(1.95228 -0.031496 0)
(0.150695 0.0522701 -2.65722e-16)
(1.74904 0.0252362 -2.42103e-16)
(0.512664 -0.131419 -9.43691e-17)
(6.42012 0.132226 6.72009e-18)
(0.566333 -0.340771 -5.96694e-18)
(-1.27154 -0.313784 0)
(1.31365 -0.205251 0)
(-1.87862 -0.324833 1.25482e-16)
(1.1777 -0.266971 0)
(-0.333266 -0.78629 6.63728e-17)
(-1.30492 0.156524 -1.51642e-16)
(-1.2225 0.296724 -1.01345e-16)
(0.488378 -0.118057 1.40924e-16)
(-1.07423 0.056528 3.49563e-16)
(4.59075 -0.0723509 -3.44787e-16)
(-1.92064 -0.107395 3.84588e-16)
(-2.2643 -0.0851883 6.00731e-16)
(-0.284302 -0.337877 6.4077e-16)
(-0.45958 -0.371735 -1.03672e-16)
(-1.42406 -0.580161 -4.90754e-16)
(0.546734 -0.363578 -2.36049e-17)
(-0.000177696 -0.0482086 -2.02176e-16)
(0.506695 0.0425237 -3.1667e-16)
(6.46338 -0.0459061 1.21938e-16)
(1.54206 -0.154444 -2.14748e-17)
(6.12965 0.024544 0)
(-0.810511 -0.532693 0)
(-0.200336 -0.33676 1.12957e-17)
(4.08103 0.0076135 -5.80422e-17)
(4.8552 0.0228251 0)
(-0.361589 -0.162875 1.25325e-17)
(0.355825 0.0015319 2.08975e-19)
(4.67787 1.10225 -6.03756e-18)
(2.0577 8.66368 1.25023e-16)
(0.419337 0.587675 1.26879e-16)
(9.76807 -0.0100036 0)
(-0.75431 -0.209287 -1.18219e-16)
(-1.01799 -0.740889 1.74137e-16)
(0.536612 -0.44925 0)
(0.77563 0.407234 7.87569e-16)
(0.679768 0.0859613 -1.87475e-16)
(1.36837 1.74545 9.34365e-17)
(4.08738 -0.200745 1.34081e-16)
(1.38872 5.64753 -1.74209e-16)
(9.68604 -0.00556246 0)
(1.76738 0.398334 2.26764e-16)
(-0.347518 1.99138 0)
(-0.163358 5.29859 2.74339e-17)
(5.17363 0.121876 1.32274e-16)
(11.5162 0.70378 2.08978e-18)
(-0.510316 -0.250899 -7.68453e-17)
(1.10285 -0.12572 -1.14581e-16)
(-0.243677 -0.0765224 0)
(0.623642 0.172145 -3.17454e-16)
(-0.89618 0.336107 0)
(-1.28123 0.623283 -6.67538e-17)
(-0.91728 0.069713 -1.08852e-16)
(-1.02727 0.715094 1.53061e-16)
(1.96215 0.433162 1.66024e-16)
(9.98793 0.187308 5.56613e-18)
(7.71114 0.96756 1.93157e-18)
(7.30334 0.517874 2.87803e-17)
(-2.1177 -0.0294817 -1.58065e-16)
(0.401952 -0.699067 -4.25225e-16)
(-0.273803 0.503412 0)
(1.1852 0.864364 1.17874e-15)
(1.45914 4.55975 2.2141e-16)
(-0.667776 0.686257 -2.73914e-16)
(-1.54219 1.16509 2.63291e-16)
(0.161371 -0.112745 3.31857e-16)
(0.823009 0.136003 -1.54919e-16)
(1.09403 0.742298 9.25919e-18)
(-0.11801 5.95284 0)
(-0.0363465 5.6129 0)
(-0.0223112 5.04431 0)
(0.933925 0.131954 2.81434e-17)
(2.60777 -0.626908 -7.16675e-17)
(-0.278058 -0.0982502 8.13139e-20)
(7.32791 1.17752 -5.75916e-17)
(4.52366 2.3861 -9.7274e-18)
(8.26092 0.217667 -1.50102e-16)
(9.04166 0.524476 1.58937e-16)
(0.0855527 -0.304893 2.95505e-16)
(0.578765 0.0480458 0)
(5.98221 -0.0536579 -1.12445e-16)
(-0.656047 -0.299682 1.02212e-16)
(-0.618284 -0.874059 -1.02118e-16)
(1.12964 -0.109771 0)
(-1.92746 -0.086205 0)
(-1.2093 -0.110315 -6.41408e-19)
(0.260811 1.70634 1.52635e-16)
(3.78806 0.780567 0)
(0.387721 0.00855188 -7.63091e-16)
(4.43774 0.0152724 -1.2408e-16)
(3.79435 -0.00888041 0)
(0.210867 -0.930924 -2.94297e-16)
(0.382517 1.00869 -5.37407e-16)
(5.1029 -0.316662 -1.64415e-16)
(9.53187 0.0897187 3.65467e-17)
(0.375287 0.111367 3.32582e-16)
(0.352735 0.0187256 -1.89753e-16)
(1.76109 -0.443782 -8.29814e-17)
(0.614816 0.353221 -1.88246e-16)
(-1.46156 0.887614 -2.56248e-16)
(-0.0711398 -0.0670544 4.28854e-16)
(0.930253 3.35307 2.57499e-16)
(-0.4348 3.59906 1.02485e-16)
(-0.201587 1.55301 -3.93234e-16)
(0.0806454 4.73832 4.92749e-17)
(-0.143284 5.25205 1.14976e-16)
(0.0826939 5.73761 1.32149e-17)
(-0.0267428 5.6328 0)
(0.639728 5.93748 4.09531e-17)
(-0.714687 8.06289 0)
(-0.570766 0.29132 -1.8143e-17)
(-1.08484 0.693273 -1.34036e-16)
(-0.328742 -0.302531 2.51919e-18)
(0.716146 -0.0124872 0)
(8.09907 1.6965 0)
(1.30848 7.4966 6.85977e-18)
(-0.249663 2.58652 6.88546e-17)
(-0.370191 0.918617 -2.10841e-19)
(0.0579501 4.01904 -2.23185e-16)
(0.942578 -0.134178 -1.74595e-16)
(0.0198355 0.444308 1.25651e-16)
(-0.507265 6.23347 0)
(0.0364981 -0.679864 -8.09384e-16)
(0.677961 1.87697 0)
(1.18566 1.36367 -1.5054e-16)
(3.58533 0.26371 1.64483e-18)
(0.589887 0.366549 -2.61688e-16)
(0.34003 3.04406 2.93068e-16)
(5.08656 0.105354 2.44757e-16)
(4.32305 0.0712348 0)
(0.70858 -0.405973 -6.48214e-16)
(-0.160025 0.493264 -3.07305e-16)
(1.42115 7.47843 -1.39864e-16)
(0.00123662 -0.071789 -9.203e-17)
(10.5988 0.118959 0)
(10.0296 0.299797 -1.82513e-17)
(-0.0363512 0.062927 -1.00153e-16)
(-0.266354 2.72043 -2.73384e-16)
(-2.03628 0.37894 -2.1893e-16)
(-0.00248873 6.96426 -4.20374e-17)
(-0.528493 -0.317835 4.47011e-16)
(0.320099 -0.547116 -2.1037e-16)
(-0.459949 7.00773 -8.36666e-17)
(1.72317 1.36996 -8.75726e-19)
(-0.818844 -0.038232 0)
(1.33599 -0.642181 0)
(1.23904 0.196232 0)
(-2.12142 -0.346951 6.49458e-17)
(-1.38514 -0.275368 -3.51218e-16)
(4.45831 -0.131216 3.02227e-16)
(6.49743 -0.014222 -6.96613e-18)
(6.6318 -0.124676 3.04976e-16)
(-1.30678 -0.342493 8.87427e-17)
(-1.82377 0.253521 4.97596e-16)
(-1.70426 0.164701 0)
(0.74471 -0.143117 -2.48385e-16)
(1.28946 -0.0799662 0)
(-0.157095 -0.0716107 0)
(0.28746 -0.0775161 -3.46598e-16)
(-0.604425 0.0188676 0)
(0.773383 -0.18736 4.41537e-16)
(1.7585 0.0819629 4.15885e-16)
(6.55096 0.422773 0)
(2.1199 -0.111649 0)
(0.0663563 -0.0231343 4.5088e-16)
(1.47769 -0.00970399 3.70428e-16)
(-1.07894 -0.523286 3.26662e-16)
(-0.376923 -0.386879 -2.44304e-17)
(-3.05443 -0.117448 -1.22058e-16)
(2.80154 0.0653093 6.96738e-17)
(2.99724 0.0597586 6.46728e-17)
(0.199824 0.123012 2.44222e-16)
(-2.34914 -0.163635 -2.26847e-17)
(-1.83693 -0.202028 1.55413e-16)
(0.648142 -0.388847 0)
(-1.25868 -0.575766 0)
(0.598681 0.0338825 1.88269e-16)
(5.60458 -0.411952 1.67947e-16)
(1.1552 -0.120587 7.8141e-17)
(-0.0882793 -0.186529 0)
(0.221549 0.0243576 -2.76527e-16)
(1.65027 -0.278946 4.56723e-16)
(4.73012 -0.0818257 3.67307e-17)
(0.998686 -0.50855 -3.9732e-17)
(0.0527058 -0.527878 -3.19554e-16)
(0.156107 0.194833 5.16482e-16)
(-3.19696 0.00174639 -3.78545e-17)
(4.35317 -0.337344 0)
(3.66183 -0.26096 3.30954e-16)
(-2.13761 -0.0573779 -8.82913e-17)
(0.293431 0.168429 -1.40711e-16)
(1.1668 0.0411204 0)
(0.377977 0.277193 -1.16999e-16)
(-0.0486919 0.538537 3.33247e-16)
(0.544787 0.0659854 9.00241e-17)
(-2.75794 0.167557 1.40116e-16)
(3.91323 -0.00764267 0)
(3.42501 0.162013 8.56246e-17)
(-2.18135 0.559317 0)
(0.475531 0.163204 1.45676e-17)
(0.46583 -0.841971 1.39679e-16)
(0.347648 0.168697 0)
(10.7842 0.086766 0)
(-0.964631 -0.0052648 1.58287e-16)
(-1.61031 -0.0844912 -5.78297e-16)
(-0.383616 -0.323888 -3.66084e-16)
(-0.421897 9.28305 -2.87854e-17)
(-0.0451244 -0.59919 3.13457e-16)
(0.0299509 -0.741351 -1.09853e-15)
(-0.191423 -0.208423 0)
(0.348006 -0.104322 -8.34849e-16)
(-1.2044 0.958273 -6.87704e-19)
(0.00664393 0.586491 -2.63811e-18)
(0.112779 -0.11742 1.89876e-16)
(-0.634031 0.224249 9.44099e-17)
(-0.651009 0.332716 -9.98389e-17)
(-1.10248 -0.0128147 1.0971e-16)
(-0.00148113 0.727408 0)
(0.693579 0.0791204 0)
(1.7793 -0.0574492 -3.02075e-16)
(0.905842 -0.277139 1.40334e-16)
(1.58224 0.141588 -4.18686e-16)
(9.33461 -0.263266 3.11196e-17)
(0.140079 -0.0317112 2.18198e-16)
(0.212458 0.00339538 0)
(6.43282 0.95961 4.64108e-17)
(-0.0949358 1.45945 1.02279e-20)
(-0.0207964 -0.554122 2.43984e-16)
(0.248568 1.30626 -3.5297e-17)
(-0.246047 5.79236 -6.13136e-17)
(-0.136159 6.88552 2.35351e-17)
(0.1403 6.47596 0)
(0.887327 0.476388 1.74913e-16)
(-0.965787 0.320604 2.7866e-16)
(5.13929 -0.0309596 2.01991e-17)
(4.33216 -0.0455053 7.17782e-17)
(0.0203883 -0.47077 0)
(0.389044 3.26288 1.85116e-16)
(-2.39486 0.181957 0)
(-0.153729 6.30728 3.86992e-17)
(-0.0362654 6.45836 -6.91229e-17)
(-0.169392 7.13289 3.08383e-17)
(0.0321247 -0.0343982 -1.62102e-17)
(0.252233 0.154569 -4.33211e-17)
(-1.112 -0.0194628 0)
(-1.66146 -0.0437062 0)
(-0.688316 -0.154813 -2.0412e-16)
(-0.0391732 0.106275 -2.13392e-16)
(-0.0311838 1.08172 -1.37162e-17)
(0.0108204 -0.704612 5.76241e-17)
(3.92149 0.748151 3.11495e-16)
(10.0114 0.162355 1.29848e-17)
(0.379063 2.19248 -3.00557e-16)
(0.925265 -3.03774 -2.16149e-17)
(0.76109 0.120933 3.33008e-16)
(-0.0830189 0.0786253 0)
(0.354551 -0.449003 1.73947e-16)
(0.220375 -0.413675 -1.05636e-17)
(-1.17661 -0.0643208 -1.02449e-16)
(-1.74884 -0.192432 1.9176e-16)
(-0.469594 -0.176024 2.57953e-16)
(9.95903 0.0968194 -2.5345e-16)
(0.564671 -0.490413 0)
(-0.366348 -0.314318 8.34307e-17)
(1.99624 -0.288753 -2.04803e-18)
(-0.0509147 7.82471 -5.63274e-17)
(0.0300664 5.90151 -6.1131e-21)
(-0.841241 0.0287267 0)
(0.145855 0.1177 2.57979e-16)
(1.17382 0.32305 -8.55943e-17)
(1.34899 -0.0658354 -2.14894e-16)
(-0.0218686 1.12459 -6.66701e-17)
(-2.7923 1.41285 4.75544e-17)
(-0.128007 -0.703986 -5.65268e-16)
(-0.141671 6.51306 -2.72229e-17)
(1.13159 -0.119371 -5.08271e-16)
(0.356353 5.27489 -2.22576e-18)
(-1.66177 -0.413951 -2.14717e-16)
(-0.124537 6.1045 -3.47236e-17)
(1.00613 6.62202 8.646e-17)
(-0.048335 -0.634315 -1.17698e-16)
(-0.0346189 0.930167 -2.31712e-16)
(-0.543148 0.639189 1.85107e-16)
(0.221899 -0.115817 -4.28454e-16)
(8.52098 0.571382 9.30051e-17)
(-0.432062 -0.0516319 -2.90369e-16)
(10.3728 0.322138 -2.09642e-18)
(2.81988 3.3377 5.958e-17)
(0.571861 0.0618022 -4.45832e-16)
(1.19449 2.46988 -4.84357e-17)
(0.915452 -0.0676694 3.77544e-17)
(6.26158 1.13938 -4.8596e-18)
(1.56301 0.711412 -6.90656e-17)
(0.332414 -0.038595 2.95208e-17)
(0.328909 -0.176277 -2.19937e-16)
(-1.0138 -1.05747 1.14278e-15)
(8.53971 2.30097 -2.68569e-18)
(-0.300016 2.49399 1.59912e-16)
(1.33342 0.362622 1.89861e-16)
(-0.057006 0.789315 5.69207e-17)
(-1.02615 0.622718 2.80359e-16)
(-0.14812 -0.697193 0)
(0.443391 -0.279915 -2.14025e-16)
(0.0450053 -0.134512 1.3578e-17)
(0.0637531 0.0369341 1.86197e-16)
(3.38157 -0.132807 -4.8947e-20)
(9.8304 0.0308394 0)
(2.07297 0.0384515 2.07269e-18)
(0.608398 -0.0641806 -4.9911e-17)
(-0.014758 -0.911768 -2.45461e-20)
(-0.042319 0.859558 2.05204e-16)
(-0.195832 3.8911 -1.49904e-16)
(-0.383796 5.46504 4.56865e-16)
(1.46223 0.927154 8.29522e-18)
(-0.123296 1.36714 -2.45455e-20)
(0.105254 -0.141882 2.71988e-16)
(0.635295 0.0691795 0)
(0.208722 0.0634937 0)
(-0.812787 0.0446951 -3.50091e-17)
(6.88485 0.825259 -1.38259e-19)
(3.26631 2.08045 2.2079e-17)
(8.73341 1.33694 -5.76178e-18)
(10.3903 0.527491 3.29205e-18)
(0.480276 -0.155935 0)
(0.345734 2.74518 0)
(-0.0421128 0.789037 2.33422e-16)
(0.0198725 -0.589681 2.34788e-16)
(8.96482 0.491461 -4.47822e-16)
(1.60204 0.69739 0)
(0.974824 0.127497 0)
(-2.07722 0.146929 2.06532e-16)
(0.58652 0.341306 1.58031e-18)
(0.347999 -0.55743 -1.47544e-16)
(1.01596 -0.280648 1.93874e-16)
(0.131648 -0.22356 -1.02482e-16)
(0.0791261 6.0428 -3.2553e-17)
(-0.261049 7.61485 -1.38264e-17)
(0.949397 -0.343981 -2.48798e-16)
(9.92965 0.163354 -6.71284e-17)
(9.35161 0.0218694 3.45633e-18)
(0.0519504 -0.672835 1.63796e-16)
(0.244945 1.22858 -3.86314e-17)
(2.29678 2.22954 -1.05468e-17)
(-0.673207 8.67303 -1.31815e-16)
(-0.16564 0.00168766 1.08791e-15)
(-0.577943 0.306094 7.21335e-18)
(0.675139 0.14755 0)
(5.54377 3.79247 6.54713e-17)
(0.0487332 1.33221 1.09757e-16)
(0.0199385 -0.507308 4.53296e-20)
(-0.795828 2.14843 1.84861e-16)
(-0.57356 -0.0928187 0)
(10.5842 0.150428 0)
(0.0450118 -0.0868508 -7.28851e-17)
(0.216173 0.171013 0)
(-0.26035 0.164597 8.93637e-17)
(10.0392 0.0638393 -1.05863e-16)
(4.84557 -0.0292933 7.59478e-17)
(-0.416721 -0.0120049 1.27805e-16)
(7.019 0.0306734 9.57038e-17)
(-0.0680418 -0.650786 9.08802e-17)
(-0.796589 -2.51842 1.89001e-16)
(0.000350683 1.18541 2.06974e-16)
(0.871939 6.28524 -1.0812e-16)
(0.509957 0.0462724 -8.2355e-17)
(-0.751188 -0.058012 0)
(9.73353 0.816221 0)
(0.70937 2.86202 -2.58659e-16)
(-0.347783 -0.0321282 -2.14556e-16)
(0.013173 -0.834523 7.07171e-16)
(0.813895 4.90081 -2.65374e-17)
(0.676168 0.166032 0)
(0.272816 0.0853752 -5.00391e-16)
(1.63944 1.80829 -1.40571e-16)
(-0.924504 -0.209755 1.66293e-16)
(0.506423 0.0260332 0)
(-0.316634 2.34868 0)
(0.0359601 -0.492794 0)
(0.106243 1.37442 -1.70081e-16)
(0.914605 1.9824 7.51361e-18)
(10.0249 2.76601 -2.42158e-18)
(0.355898 -0.000729258 0)
(5.34763 1.28902 0)
(0.748187 0.129495 -9.8195e-17)
(1.06272 6.30999 7.62925e-17)
(1.42519 0.474135 0)
(-0.821767 -0.217206 4.26206e-16)
(0.319434 -0.135489 3.03244e-20)
(0.0590025 -0.335602 -1.77031e-16)
(1.00816 0.0630169 0)
(8.07484 0.591212 -6.38445e-17)
(-1.57238 0.661455 -1.53742e-16)
(0.598419 3.05253 7.23059e-17)
(-0.00238432 4.11291 0)
(0.962414 3.50555 -1.04345e-17)
(9.95601 0.256462 -2.02288e-17)
(2.86933 2.69503 -3.92996e-18)
(0.0163133 5.07328 -1.36313e-16)
(-0.331044 1.31285 -2.66027e-16)
(-0.356347 3.59125 -4.5661e-16)
(-0.269168 6.85672 7.97156e-19)
(0.168751 6.2319 5.06718e-17)
(2.55593 2.6407 0)
(10.7763 -0.206307 2.04529e-17)
(-2.74765 -0.190303 1.36285e-16)
(8.92389 0.815812 -1.18286e-16)
(-0.0509692 0.192364 1.94035e-16)
(-0.14409 6.56087 0)
(-0.0451486 6.41861 -5.5674e-17)
(-0.211128 4.92118 1.87332e-16)
(0.962068 0.114508 -7.48387e-18)
(-0.650535 -0.114962 6.09855e-17)
(0.826426 0.717394 6.45856e-18)
(-0.218178 6.67898 -2.79487e-17)
(0.0904706 6.10518 -3.19813e-17)
(2.05205 8.86649 5.61924e-17)
(0.30291 0.107289 2.04767e-17)
(10.1352 0.165744 0)
(0.755104 -0.2132 4.78035e-16)
(-0.00275503 0.266635 -1.13115e-16)
(0.532641 -0.141025 -3.67104e-16)
(7.54804 0.581405 1.68383e-17)
(0.0441451 6.15584 -4.96186e-17)
(-0.127965 6.88603 1.87218e-16)
(1.07016 -0.182604 -2.14253e-19)
(-0.380074 0.0731093 -1.22045e-16)
(1.0504 6.53581 0)
(1.08623 -0.118595 0)
(-0.0498538 -0.128749 -2.18589e-17)
(-0.711466 2.62103 0)
(3.34711 4.13177 -5.57047e-17)
(4.61843 3.05781 0)
(1.13221 5.38134 -1.59619e-16)
(-0.0102369 0.864107 6.77438e-17)
(0.922346 -0.169372 3.83795e-16)
(1.53033 0.000527068 4.25908e-17)
(7.20804 0.671427 -1.50273e-17)
(3.82566 -0.00545267 -2.3648e-16)
(7.75668 0.141966 -2.89462e-16)
(1.69533 0.236096 0)
(0.19303 1.33681 -8.09887e-17)
(5.09403 2.93129 1.61628e-16)
(3.61009 1.64845 -7.39421e-17)
(0.089461 0.0444686 -3.74768e-16)
(0.272423 1.36209 5.68882e-16)
(-0.697129 0.159391 3.71605e-17)
(-0.0510218 0.412374 -4.97184e-16)
(1.36506 1.88883 -2.25596e-19)
(0.917743 1.18835 -2.45592e-16)
(-0.397848 0.110264 2.01151e-16)
(0.149735 -0.604918 1.06758e-16)
(-0.136631 0.895729 0)
(0.0402507 0.480803 -7.96509e-17)
(0.0968917 -0.784853 -8.38879e-17)
(0.285045 1.1102 3.08631e-16)
(0.24141 -0.354558 -1.21743e-16)
(1.47612 8.58877 -3.66624e-17)
(10.6585 0.423412 -7.34642e-17)
(-0.176841 0.0239349 1.1214e-16)
(-0.17274 2.46787 -4.89367e-17)
(0.155612 -0.0147139 -1.55334e-16)
(8.71764 0.171474 3.56131e-16)
(3.92773 -0.135984 -2.44626e-17)
(0.0133476 6.40854 3.67971e-18)
(4.28609 -0.148635 2.48505e-16)
(-0.0863049 4.89639 -1.7472e-16)
(0.0289525 5.52525 9.19204e-17)
(7.27955 0.278379 0)
(0.038283 0.186921 -1.28415e-16)
(0.0616654 0.0602608 3.09633e-17)
(-1.34373 -0.351001 0)
(1.25492 0.77096 -1.71865e-16)
(0.0716975 -0.0386811 7.01445e-17)
(1.16153 0.38508 2.69889e-16)
(0.9669 0.119342 2.94261e-16)
(3.84809 0.181292 -4.162e-17)
(8.97355 0.441858 -1.09342e-18)
(0.726005 1.29771 -1.74796e-16)
(-1.32384 0.202476 2.82802e-16)
(-0.385666 1.02301 -2.7643e-16)
(0.620759 0.155439 1.2019e-16)
(0.602662 -0.151101 0)
(-0.272128 -0.802625 -1.13432e-17)
(-1.89673 0.880399 -2.90075e-16)
(-0.0664404 0.724576 -1.32634e-20)
(-0.0286354 5.69295 2.91675e-17)
(0.219839 5.64038 -2.74202e-18)
(-0.189201 5.15475 -1.13079e-16)
(0.260251 5.71234 3.28505e-17)
(2.00839 4.62291 -1.42467e-16)
(7.14642 0.345609 7.11654e-17)
(0.0987628 0.803923 0)
(10.5083 0.935443 0)
(-1.85391 0.123943 3.56247e-16)
(-0.970442 0.0331674 5.75245e-16)
(0.0231754 6.12807 1.51757e-16)
(-0.0540024 7.01645 -1.25961e-16)
(0.32955 -0.167501 1.39588e-16)
(1.24205 5.59099 -4.11287e-17)
(0.619595 -0.239811 5.18477e-17)
(-0.435233 0.174182 2.51461e-17)
(0.388284 -0.0407263 1.45922e-19)
(0.222482 0.13094 -7.09335e-17)
(-0.797021 0.0283201 -1.0801e-17)
(0.967277 2.30943 -5.57616e-17)
(3.51495 -0.0712483 -4.06904e-16)
(0.430424 3.8999 6.74622e-18)
(0.0856838 -0.029589 1.76318e-16)
(0.65851 0.317277 0)
(0.8709 -0.435053 0)
(0.0560573 3.55746 0)
(0.818428 6.22112 2.26872e-16)
(1.23368 8.38672 2.45951e-16)
(-0.204708 6.55005 2.39288e-16)
(0.806823 -0.0738654 3.86507e-17)
(5.92825 3.31429 -3.86895e-17)
(0.350067 0.119017 0)
(-0.103407 0.223637 1.03809e-16)
(-0.484207 -0.663117 3.36068e-17)
(10.5452 0.0562387 -7.64476e-18)
(0.188374 -0.0489055 -1.15738e-16)
(-1.48756 0.126068 3.32308e-18)
(-0.637987 -0.0500509 -1.68953e-16)
(9.00566 0.380302 -2.04733e-17)
(0.910925 1.64182 0)
(3.51461 1.21937 -3.5299e-16)
(3.38345 0.913025 2.1758e-16)
(0.0770317 -0.306107 0)
(0.0552527 0.041228 8.10082e-17)
(1.28121 2.33079 -2.60764e-16)
(8.69179 0.166772 0)
(1.78862 5.9653 -4.57963e-16)
(-0.224497 5.90283 -1.3493e-16)
(0.23575 2.93742 0)
(1.19277 0.558623 0)
(11.3977 0.281572 4.44599e-17)
(10.3747 0.352012 3.42855e-17)
(8.97382 1.12894 1.85111e-18)
(5.34875 2.16086 -7.86673e-21)
(0.502475 2.63226 0)
(1.35522 0.639206 2.07317e-16)
(2.47885 7.07737 -2.97709e-17)
(4.62627 -0.0567748 0)
(0.163997 -0.207758 -4.94009e-16)
(3.86056 2.20588 2.14193e-17)
(0.323505 1.01419 -1.24282e-16)
(9.3922 0.918658 -5.2582e-17)
(10.8829 0.0434137 7.96174e-17)
(1.63983 1.87711 -1.85459e-16)
(9.94462 0.417447 -1.58174e-17)
(-0.0753416 6.17418 1.69984e-16)
(0.833856 8.80734 4.21567e-17)
(0.616686 6.94395 -1.01625e-16)
(6.76458 3.62105 0)
(0.772253 -0.049467 1.52494e-16)
(-0.223998 -1.20545 -1.75758e-16)
(1.99512 0.0811517 2.79344e-17)
(-0.0152098 0.0746364 1.389e-16)
(0.0695618 6.43704 6.64255e-21)
(-0.0849434 7.27898 2.49377e-19)
(0.541494 5.98429 7.49844e-17)
(0.392559 0.436055 0)
(0.165991 -0.341797 0)
(0.421158 -0.137876 1.09285e-16)
(0.753546 0.587954 1.64194e-16)
(-0.100353 5.35423 -1.07388e-16)
(-0.0272866 5.6324 -3.68365e-18)
(-0.23535 2.43329 0)
(-0.0464717 0.813089 -4.6128e-17)
(10.1027 0.109045 8.75165e-17)
(-0.967903 -0.143542 0)
(1.79949 1.41251 -3.52612e-16)
(0.071519 0.0771912 8.1564e-17)
(1.08265 -0.181101 2.48162e-16)
(0.0473282 6.16733 6.84816e-17)
(-0.192183 7.30978 1.37752e-16)
(9.62844 0.921387 0)
(0.269362 7.45144 -3.55994e-17)
(-0.0417904 6.07586 -3.46085e-17)
(9.52464 1.13986 -9.72689e-17)
(2.15609 0.557164 -9.62595e-20)
(7.40048 1.75501 6.46371e-18)
(-0.244174 6.56441 1.08141e-19)
(-0.0180021 5.78274 0)
(0.00961779 5.64314 2.87878e-18)
(-0.252397 5.01462 -9.77038e-17)
(0.416154 5.55548 -4.05444e-17)
(3.56509 4.14938 1.4376e-16)
(0.590342 2.04541 3.61972e-17)
(-0.165138 6.83938 2.12648e-16)
(0.0253684 6.50198 0)
(-0.275548 5.43842 -1.41976e-16)
(1.07618 1.2372 3.16661e-17)
(0.0771617 0.0389276 -1.61099e-16)
(0.502611 0.254479 8.2734e-17)
(0.142573 0.174826 4.75098e-18)
(-0.462533 0.417782 1.33429e-16)
(0.401909 -0.170678 0)
(1.37277 3.47355 1.20339e-17)
(0.226546 -0.82115 -2.52565e-17)
(0.588709 0.010643 -1.25839e-16)
(8.90934 0.742441 -7.31336e-19)
(-0.224853 1.14539 -4.30783e-17)
(0.0486796 -0.563434 -2.62627e-16)
(0.0616008 1.2591 -1.83275e-16)
(-0.240837 6.40522 -2.11559e-16)
(0.22345 6.18627 0)
(0.591374 0.172645 2.50311e-16)
(-0.249633 6.52455 9.04148e-17)
(0.198534 6.0684 2.50371e-17)
(-0.725174 -0.163161 -7.88666e-17)
(3.48099 3.62576 -1.51798e-16)
(-0.866353 -1.36117 4.92817e-16)
(-0.716419 -1.00416 5.98899e-16)
(0.781827 0.691109 -2.69544e-16)
(0.275945 5.8117 2.53789e-16)
(-0.0370074 1.08658 -3.79081e-16)
(-0.997163 -0.300742 -1.92529e-16)
(-0.0630367 -0.786879 -1.29204e-16)
(1.24485 8.97579 0)
(9.88723 0.103031 0)
(0.059216 0.0833642 -3.03396e-16)
(-0.392448 -0.99433 1.59221e-16)
(0.294083 0.108655 -8.12883e-17)
(-0.834707 -0.0382852 0)
(0.782235 0.0770837 1.15726e-16)
(0.556447 -0.0258949 -3.279e-20)
(0.681845 0.405135 -6.2646e-16)
(4.12994 0.0874396 2.24451e-16)
(1.06601 5.07183 1.13964e-16)
(-0.296944 6.36552 -2.96886e-16)
(1.6029 -0.481099 3.87413e-16)
(0.78129 0.532787 -1.71877e-16)
(9.77895 0.906674 -1.36316e-17)
(0.486023 3.20915 2.05952e-16)
(0.196748 -0.133787 2.05811e-16)
(0.930262 0.329952 0)
(-0.925144 0.773889 5.50524e-17)
(2.06193 1.38289 -7.47815e-16)
(0.203232 1.34429 -2.40981e-17)
(0.00405125 -0.510551 3.18595e-16)
(0.0637897 2.51123 2.67624e-17)
(8.6217 0.556668 -1.15836e-16)
(10.1431 0.334458 -2.32234e-19)
(-0.373881 0.0369195 1.96818e-16)
(11.0753 0.0492067 0)
(0.712223 0.194322 -5.08335e-18)
(0.317685 -0.13151 2.8771e-18)
(0.737838 -0.220413 -1.95482e-17)
(-0.00142587 6.38939 4.27551e-17)
(-0.138192 6.50792 3.99834e-17)
(0.0154154 5.06956 1.77971e-17)
(10.5292 0.0372993 1.44982e-17)
(0.00503583 -0.101909 6.45562e-20)
(-0.648162 7.81422 -4.67609e-17)
(0.306458 -0.235426 1.25113e-20)
(0.0439485 1.2147 0)
(9.15044 1.61394 -4.40302e-18)
(0.42885 -0.370784 0)
(-0.274899 0.0961238 1.02668e-16)
(0.164266 0.227397 9.4775e-17)
(0.160337 1.06914 4.80275e-18)
(0.643673 0.267855 2.46004e-16)
(-0.957927 -0.110911 3.17209e-16)
(9.39037 0.602159 -1.79882e-17)
(-0.162409 -0.177108 2.75962e-16)
(1.30712 -0.530892 3.15786e-16)
(9.54602 1.07431 9.96775e-17)
(9.75766 0.295484 4.16478e-17)
(6.09046 2.77758 2.60903e-17)
(0.0687525 6.091 -4.95492e-17)
(-0.0613958 6.67639 2.39885e-17)
(0.0472067 2.67328 1.27751e-16)
(0.194289 1.89514 0)
(4.18028 0.722399 4.71863e-17)
(5.69025 3.09713 8.60598e-17)
(9.42015 -0.171194 -1.96553e-17)
(0.509353 0.632231 1.18568e-16)
(0.238186 -0.295555 2.64592e-16)
(0.144919 0.119852 0)
(8.90388 1.69229 0)
(0.964695 2.22592 0)
(1.40895 2.03276 2.88243e-16)
(0.137355 0.0889241 9.93928e-17)
(2.42941 4.44117 2.07036e-16)
(-0.249696 5.30528 2.91528e-17)
(1.52249 7.16542 -5.86175e-17)
(0.174297 0.19817 0)
(-0.0140095 0.0563312 1.0539e-16)
(-0.0634334 5.80482 -1.2959e-16)
(-0.908046 -0.125516 -7.10913e-16)
(11.2624 0.114383 9.7185e-17)
(5.76814 1.18386 0)
(0.0753516 -0.64902 2.06475e-16)
(1.00232 5.50681 0)
(0.670357 0.257657 1.62159e-16)
(0.2623 0.0561437 -2.50591e-17)
(0.976529 9.7448 6.18115e-17)
(9.92718 1.0834 -1.35825e-17)
(9.8856 0.682753 1.03378e-16)
(-1.00866 0.26124 0)
(0.862222 2.24637 -5.73054e-17)
(-0.385502 -0.0363707 0)
(8.66225 0.340158 0)
(1.02991 0.233062 -1.36504e-16)
(0.131388 -0.024842 2.49557e-17)
(-2.80367 4.35018 -1.33847e-16)
(2.9131 0.805144 -1.23694e-16)
(0.843146 2.28038 1.48306e-16)
(10.2873 0.104362 -2.62213e-20)
(5.95674 3.5689 -7.8075e-17)
(0.92821 -1.35249 -3.72204e-19)
(-0.00688598 5.98607 6.07551e-17)
(-0.04672 6.29022 -5.22416e-17)
(0.635005 2.10195 -1.21454e-16)
(1.19189 6.06752 -2.48724e-16)
(1.50888 1.48026 -1.33504e-17)
(0.0560228 -0.873734 -3.62932e-16)
(-0.0710803 0.968565 -2.08706e-16)
(1.00441 0.780197 6.69606e-17)
(0.860143 0.0661329 2.16285e-16)
(0.657542 0.118365 -3.01267e-16)
(0.301557 1.32214 -5.20246e-16)
(0.0206407 -0.635916 -4.36716e-16)
(6.96423 4.23246 3.3689e-18)
(0.473491 1.29262 5.55437e-16)
(10.0834 0.0419186 -6.39924e-17)
(0.772952 0.10416 0)
(-0.240737 2.28017 1.95923e-20)
(4.16436 -0.687955 -9.90784e-17)
(-0.490002 2.52893 0)
(10.1007 0.414834 4.01811e-17)
(-0.457372 0.0417669 3.11301e-16)
(0.403496 -0.000880685 -2.78364e-16)
(9.20714 1.89707 0)
(0.0548518 6.11452 1.39127e-20)
(-0.314611 7.70778 0)
(10.0406 0.0841548 0)
(0.839447 0.0863248 -5.27523e-17)
(9.67012 1.3638 -5.28832e-17)
(9.04489 4.01004 -1.81961e-16)
(1.21872 6.42194 2.42779e-17)
(7.37619 2.0978 -1.0682e-16)
(-0.0848842 3.89523 -7.33352e-17)
(0.00761162 3.76069 1.72069e-20)
(-0.032119 4.40635 -7.50478e-17)
(-0.589076 -0.472827 0)
(-0.103504 2.41667 1.1192e-16)
(-0.0205102 -0.543817 0)
(0.445617 0.50396 0)
(0.199986 0.0951015 0)
(-0.0421291 -0.164599 -2.2096e-16)
(0.0855309 -0.6792 0)
(0.131357 0.842351 1.29828e-16)
(2.84783 2.5783 -2.82575e-16)
(0.309017 3.29573 0)
(-0.645879 5.4703 1.5703e-16)
(-0.195853 6.41066 -2.45599e-17)
(-0.00280952 6.361 8.9842e-17)
(-0.15571 7.05148 -3.94613e-17)
(0.809766 1.69247 2.47239e-16)
(9.39631 1.02086 -2.7449e-17)
(0.253115 1.37583 2.11545e-17)
(-0.0108218 -0.538346 -9.1193e-17)
(0.80642 0.633383 0)
(0.922797 -0.00563182 -4.34168e-20)
(5.03283 1.81063 0)
(0.586165 -0.0640581 2.65584e-21)
(3.80975 0.129807 -4.59452e-16)
(10.0591 0.051226 3.51811e-17)
(-0.638013 7.90216 1.16987e-16)
(-2.48166 2.50671 -3.00493e-16)
(-0.0467928 0.963433 0)
(-0.11552 -0.854434 9.7858e-16)
(5.25759 2.60118 -3.15894e-17)
(11.2464 0.463189 0)