/*--------------------------------*- C++ -*----------------------------------*\
| =========                 |                                                 |
| \\      /  F ield         | OpenFOAM: The Open Source CFD Toolbox           |
|  \\    /   O peration     | Version:  v1912                                 |
|   \\  /    A nd           | Website:  www.openfoam.com                      |
|    \\/     M anipulation  |                                                 |
\*---------------------------------------------------------------------------*/
FoamFile
{
    version     2.0;
    format      ascii;
    class       volVectorField;
    location    "0.29";
    object      U;
}
// * * * * * * * * * * * * * * * * * * * * * * * * * * * * * * * * * * * * * //

dimensions      [0 1 -1 0 0 0 0];


internalField   nonuniform List<vector> 
1466
(
(2.23057 -0.525177 -1.71382e-16)
(4.76176 -0.0937004 1.71915e-19)
(-1.17279 -0.61433 5.55099e-16)
(0.147544 10.1967 -3.26652e-17)
(1.88075 -1.08016 -5.00804e-16)
(-2.78572 0.290624 -8.06615e-16)
(1.64369 -0.664715 1.74222e-16)
(1.89361 -0.838705 1.43104e-16)
(7.43678 0.115043 -8.89807e-19)
(5.93249 -0.0561077 1.11692e-16)
(6.65507 -0.123771 -1.59462e-16)
(6.5724 -0.515779 0)
(8.37909 0.0659453 0)
(1.29198 -1.84801 -1.15213e-16)
(-1.76979 0.714317 0)
(5.53264 -0.373847 1.21512e-16)
(0.662483 -1.22512 -1.01359e-16)
(0.0554268 4.37789 -2.7082e-17)
(1.04241 5.80351 -7.5447e-17)
(-0.166849 8.13731 1.20776e-16)
(0.298832 8.0192 5.43279e-17)
(-2.14716 0.0318252 4.95416e-18)
(-0.0699894 6.38291 -5.20182e-17)
(-0.164249 7.82012 -1.31495e-17)
(8.31104 0.146244 7.03613e-17)
(-0.897372 0.0471721 -2.46966e-16)
(-1.26327 0.536852 -1.14403e-16)
(-0.0854871 8.46977 0)
(-0.675618 -0.233472 0)
(4.91252 2.49455 4.83949e-17)
(7.16184 -0.401504 1.03277e-16)
(-0.626728 -0.000454667 1.552e-16)
(1.21141 -0.829728 1.79333e-16)
(-2.6495 8.73099 1.10304e-16)
(4.80564 -0.18315 8.61426e-17)
(-0.297884 -0.0645434 2.69183e-16)
(-3.16382 8.40476 0)
(0.925995 -0.572655 -2.72935e-16)
(5.70294 0.225764 -2.43266e-16)
(0.718441 0.037505 -3.37835e-16)
(1.20213 -0.131661 -1.31246e-16)
(-2.98564 0.0250269 -2.79083e-16)
(-3.14932 -0.000991581 1.51319e-16)
(2.24171 -0.29186 1.05104e-18)
(0.750193 -0.0578856 -3.47005e-18)
(3.19845 0.0767722 0)
(6.40219 0.19189 6.34159e-18)
(2.82338 0.470638 0)
(-3.15511 -0.400018 1.06951e-16)
(2.35625 -0.142671 0)
(-0.954067 0.403811 -9.80429e-17)
(4.67764 -0.0516773 -3.31219e-16)
(-3.19751 -0.0760775 5.31546e-16)
(2.94589 -0.449909 4.76598e-16)
(0.704046 -0.189197 -9.70993e-17)
(6.46619 -0.0431132 1.17054e-16)
(3.01655 -0.176462 -1.71784e-17)
(6.35074 0.0731648 0)
(-0.901789 -0.515303 9.74059e-18)
(5.68884 0.129533 0)
(0.218103 -0.386524 1.5287e-19)
(1.37832 -0.460892 -9.59776e-17)
(0.36261 -0.0357989 1.58551e-16)
(4.12649 -0.138412 1.26669e-16)
(1.47704 6.17359 -1.59509e-16)
(2.35583 0.0811118 1.85651e-16)
(-0.963082 1.25788 0)
(-0.0749679 5.47539 2.51468e-17)
(7.59163 0.580577 2.73711e-17)
(-2.23019 -0.374305 -1.43789e-16)
(1.35114 0.459547 1.11687e-15)
(-0.213537 6.06997 0)
(-0.0290288 5.90693 0)
(8.23476 0.225206 -1.44414e-16)
(-0.133041 -0.884276 2.63393e-16)
(6.48315 -0.0235648 -1.04668e-16)
(1.59278 -0.671728 7.82071e-17)
(0.336372 -0.114334 -9.018e-17)
(-2.03463 -0.0134148 0)
(3.99015 0.856545 0)
(4.93321 0.230955 -1.10129e-16)
(5.68756 -0.210823 -1.45753e-16)
(-0.989979 0.337026 -2.53034e-16)
(0.803943 2.79533 2.57266e-16)
(-0.176393 5.30204 1.07418e-16)
(1.28653 5.99645 3.76085e-17)
(-2.47752 9.35988 0)
(3.82579 0.312981 1.55728e-18)
(5.54977 0.25404 2.2097e-16)
(-0.230815 0.0887331 -2.99113e-16)
(-0.524581 0.103646 -9.19313e-17)
(-2.04161 0.343486 -2.03809e-16)
(0.251522 8.00496 -3.66143e-17)
(1.27584 -0.324704 -1.66736e-16)
(1.41256 -1.27188 0)
(-0.563375 -0.397576 -3.59569e-16)
(4.59117 -0.112344 2.8923e-16)
(6.64662 0.0257556 -6.51188e-18)
(6.62855 -0.122136 2.92879e-16)
(1.21224 -0.401385 8.46259e-17)
(-2.00516 0.426724 4.63338e-16)
(-0.201127 -0.103981 0)
(1.5831 0.116268 3.22846e-16)
(-2.16564 -0.779789 2.76386e-16)
(-3.17322 -0.0171871 -1.12299e-16)
(2.7418 -0.32946 6.23933e-17)
(-3.62867 -0.138018 -1.94684e-17)
(3.32359 0.0865613 0)
(5.97106 -0.361259 1.53199e-16)
(2.41408 -0.290773 6.20806e-17)
(-0.0431115 -0.263956 -2.70767e-16)
(5.20063 -0.0652095 3.41919e-17)
(2.43234 -0.83878 -2.86394e-17)
(-3.22734 0.0339314 -3.51519e-17)
(5.39971 -0.347761 0)
(0.420771 0.201222 8.56505e-17)
(-2.80677 0.150165 1.2943e-16)
(5.065 -0.038338 0)
(1.23902 -0.524725 1.33031e-16)
(0.362139 0.503652 -5.8118e-16)
(-0.0723117 9.59968 -2.64439e-17)
(2.18453 -1.22829 1.98822e-16)
(-1.00449 0.391842 -7.60582e-16)
(2.82248 -0.180556 0)
(0.745828 0.0260033 -6.40061e-16)
(-1.05322 1.06966 -6.22383e-19)
(6.74485 1.054 4.38648e-17)
(-0.589802 5.64446 -6.18913e-17)
(-0.138414 7.56231 2.09767e-17)
(0.822804 0.436268 1.7145e-16)
(5.81361 0.0921153 1.79787e-17)
(-2.48694 0.155427 0)
(-0.326869 6.51058 3.61188e-17)
(-0.19048 7.82945 2.76054e-17)
(-0.289478 0.0695422 -1.46995e-17)
(0.565863 -0.360705 0)
(0.800833 0.260206 0)
(0.0906985 -0.404064 -9.76669e-18)
(0.987801 -0.289081 -9.05581e-17)
(0.600533 0.195604 1.9229e-16)
(2.01307 -0.412515 0)
(0.0199495 8.41141 -5.04728e-17)
(-0.167611 7.01287 -2.48601e-17)
(0.370773 5.12805 -2.14393e-18)
(-1.78344 -0.193585 -1.93082e-16)
(1.69199 6.8998 8.06555e-17)
(-0.607832 0.0157403 -2.69873e-16)
(0.555044 0.15639 -4.34942e-16)
(1.55469 0.705377 -6.73291e-17)
(-0.945241 -1.27974 1.1018e-15)
(-0.358146 0.133517 1.68075e-16)
(3.39502 -0.0849179 2.7908e-20)
(7.18541 0.910369 -1.47995e-19)
(0.584275 -1.09806 0)
(1.54551 0.686724 0)
(-2.0731 0.12335 1.93074e-16)
(-0.302413 8.37533 -1.21883e-17)
(-2.08222 9.32378 -1.20428e-16)
(-0.266709 0.10387 1.03937e-15)
(5.62923 3.84733 6.1445e-17)
(-0.579446 0.0902208 1.19668e-16)
(5.6253 1.40688 0)
(0.540078 1.57754 7.54536e-17)
(-0.314372 7.39681 1.03529e-18)
(2.96814 2.55013 0)
(-2.92201 -0.0907947 1.2387e-16)
(-0.154267 7.10156 0)
(-0.421799 4.80531 1.78463e-16)
(-0.200939 7.07098 -2.5259e-17)
(2.04379 9.36326 5.19872e-17)
(-0.0693187 7.26119 1.7036e-16)
(-0.396201 0.0552958 -1.18718e-16)
(2.58632 0.192641 3.2304e-17)
(7.49405 0.745317 -1.42219e-17)
(4.1786 0.00431885 -2.18265e-16)
(7.76011 0.151755 -2.77634e-16)
(5.22907 3.0866 1.5526e-16)
(3.74594 1.74504 -7.0912e-17)
(-0.263587 -0.151671 -3.67072e-16)
(1.04048 0.770736 -2.44282e-16)
(8.62852 0.180535 3.43957e-16)
(3.99259 -0.0626224 -2.28055e-17)
(-0.00251289 4.43494 -1.68272e-16)
(1.66462 0.652554 2.25725e-16)
(4.14788 0.231546 -3.93792e-17)
(0.646553 5.60208 -2.31625e-18)
(-0.241858 5.19223 -1.05832e-16)
(1.95057 4.29087 -1.40515e-16)
(7.46409 0.40487 6.73374e-17)
(-1.72115 0.203694 3.31807e-16)
(0.0206901 7.40594 -1.15504e-16)
(0.329004 -0.59117 3.04141e-19)
(0.67838 4.61584 6.05158e-18)
(1.1951 6.00132 2.34259e-16)
(5.99053 3.36224 -3.62484e-17)
(0.108054 0.0100954 0)
(-1.46575 0.0368649 3.12488e-18)
(3.61187 1.24152 -3.35498e-16)
(1.50693 2.07882 -2.54106e-16)
(2.697 6.05944 -4.56087e-16)
(0.597697 3.49975 0)
(1.15403 0.528458 0)
(5.56914 2.30025 -1.29644e-20)
(0.654018 3.51231 0)
(1.49848 0.385867 1.94957e-16)
(1.91161 1.62435 -1.85889e-16)
(0.926924 6.74302 -1.00438e-16)
(6.88252 3.75299 0)
(-0.0820246 0.164641 1.33382e-16)
(-0.125402 8.00595 3.97135e-19)
(0.608348 6.21547 7.00748e-17)
(-0.119994 5.45117 -1.0027e-16)
(-0.324822 1.98074 0)
(-0.169507 7.87102 1.23369e-16)
(0.502185 7.66768 -3.31773e-17)
(-0.309167 7.05288 -1.33687e-20)
(0.162018 5.55695 2.69687e-18)
(-0.312496 5.03865 -9.11414e-17)
(3.9245 4.05233 1.38297e-16)
(-0.171772 7.4766 1.90609e-16)
(-0.562488 5.39005 -1.36778e-16)
(0.477692 0.162577 -1.20478e-16)
(-0.286025 6.83556 -1.9287e-16)
(0.475981 -0.00367187 2.47329e-16)
(-0.264494 6.92828 8.21978e-17)
(3.98302 3.57621 -1.44306e-16)
(-1.87455 -2.04771 4.31283e-16)
(0.993734 1.20368 -2.29439e-16)
(-0.359376 0.00404796 -2.89447e-16)
(0.486964 0.141306 6.00991e-21)
(0.771158 -0.0885551 -5.84366e-16)
(4.48524 0.130135 2.09156e-16)
(1.48333 4.67352 1.23875e-16)
(0.325907 3.31643 1.98978e-16)
(-1.12515 0.984387 5.21835e-17)
(2.34578 1.19582 -6.89902e-16)
(-0.158005 7.02488 3.64221e-17)
(-0.0408986 4.9212 1.70179e-17)
(0.552628 0.25952 2.41861e-16)
(0.0240894 6.94614 2.18926e-17)
(0.484849 1.46076 0)
(4.42273 0.805184 4.48048e-17)
(5.83592 3.24398 8.22731e-17)
(3.46812 4.3112 2.00853e-16)
(0.104387 0.158057 0)
(6.06244 1.29847 0)
(-0.636043 -0.00722676 0)
(8.62506 0.350161 0)
(3.02916 0.857545 -1.18581e-16)
(6.07153 3.719 -7.49487e-17)
(0.0179836 6.3864 -4.94491e-17)
(1.2392 6.63992 -2.31558e-16)
(7.03882 4.36232 3.52566e-18)
(5.02058 -0.175536 -7.80369e-17)
(-0.52592 0.107299 3.01366e-16)
(0.41067 0.126579 -2.6736e-16)
(-0.380016 8.50187 0)
(9.0812 4.06393 -1.73137e-16)
(-0.0686403 3.59872 -7.07721e-17)
(-0.274175 1.43043 1.19684e-16)
(0.0173485 -0.819813 0)
(-0.403089 6.5893 -2.28356e-17)
(-0.169307 7.72199 -3.52209e-17)
(0.538641 0.061365 2.27053e-20)
(4.48326 3.94138 9.33836e-18)
(1.96801 0.282005 -2.47041e-16)
(4.25884 -0.0336823 2.26258e-16)
(1.54699 0.758026 -1.19397e-16)
(0.765018 6.31877 -1.92296e-17)
(9.3798 3.67203 -8.42078e-17)
(2.14939 4.0103 -1.18403e-16)
(-0.110161 3.48498 0)
(-0.172067 -0.857583 6.47933e-18)
(-0.0265138 0.144446 -1.71484e-16)
(-0.554063 0.0827916 -3.63899e-16)
(0.726636 -0.0195448 4.68918e-16)
(0.0121484 0.115534 -2.56878e-16)
(2.93242 5.65637 -1.15192e-16)
(-0.187368 6.55659 -1.14182e-16)
(2.04645 0.871399 1.82316e-16)
(0.38856 -0.00351876 2.10061e-16)
(1.95553 -0.947562 2.14628e-17)
(2.68405 3.90014 0)
(5.56142 0.589469 -3.98561e-17)
(-0.381831 -1.8228 4.16051e-16)
(1.15486 0.37921 -1.4485e-16)
(2.65949 1.30705 0)
(2.69924 1.28248 -3.32078e-16)
(-1.58703 -0.275192 0)
(7.95419 4.19285 -2.79312e-16)
(7.86223 1.26453 1.42134e-16)
(1.42673 -0.436502 2.31852e-18)
(8.54377 0.131525 -3.61512e-16)
(-1.71484 0.0108872 0)
(4.0969 6.14164 1.00169e-16)
(0.6857 2.02942 -3.76111e-16)
(-0.193341 3.00274 1.31616e-16)
(1.90014 -0.34805 3.40563e-17)
(2.60286 1.26496 8.10248e-17)
(0.328526 0.0737669 -2.54983e-16)
(1.22925 -0.562614 0)
(-1.07386 0.390811 1.84861e-16)
(-0.557484 -0.305509 0)
(8.77503 0.414232 -2.16905e-16)
(-2.11114 7.78291 0)
(-2.06818 2.12538 6.63627e-17)
(2.60381 1.31186 1.01489e-16)
(-0.829408 -1.51578 -2.10913e-17)
(3.27028 8.70838 -2.65868e-17)
(0.181809 7.5509 6.69998e-17)
(7.24998 1.99639 1.55085e-16)
(-0.768444 4.27484 0)
(-0.169145 7.06039 -1.97645e-19)
(2.99756 0.372946 -1.47311e-16)
(3.86086 1.95258 -1.93174e-16)
(4.93369 3.01345 -2.88039e-16)
(-0.316269 -0.246699 0)
(5.35952 3.70496 2.16122e-16)
(-0.840554 -0.609912 0)
(-0.945576 0.759008 2.93716e-16)
(0.0490314 -1.46579 0)
(-0.13711 3.25711 -1.36678e-16)
(-0.256026 -0.0271036 -7.76598e-17)
(0.206358 0.0348078 3.32274e-16)
(-1.16459 9.90951 -1.71386e-17)
(7.93188 5.41239 -8.73166e-17)
(1.83552 0.353064 -7.00063e-17)
(4.8782 3.90873 -2.18301e-16)
(-0.105921 -0.00443498 -2.68412e-16)
(3.20911 0.247142 1.69483e-16)
(0.0230822 5.09178 1.07864e-16)
(7.99021 4.79548 5.29136e-16)
(-0.556988 -1.40029 -3.95801e-16)
(3.7434 7.62409 2.17427e-17)
(2.53086 2.75913 -1.50998e-16)
(7.30052 1.80629 6.37948e-17)
(2.50865 1.43813 -3.97457e-16)
(0.603648 0.193864 4.22867e-16)
(1.72643 1.56806 -1.73812e-16)
(3.08305 -0.465232 -1.17615e-16)
(-0.384204 0.422769 2.32782e-19)
(6.66879 3.29806 6.95803e-17)
(-0.335483 -1.19915 4.29052e-17)
(3.22591 3.44551 -3.4375e-17)
(1.63784 9.31318 -5.75821e-17)
(-0.931321 -0.230115 -8.84642e-17)
(5.83311 0.485936 -1.86898e-17)
(3.91382 6.30675 -7.98581e-17)
(7.19358 0.278034 2.50074e-17)
(2.93071 2.29293 1.66022e-16)
(6.47419 4.71771 -2.25572e-18)
(8.73216 2.82169 -4.85174e-17)
(0.181977 10.6766 -5.95241e-17)
(0.844901 0.826506 1.23407e-17)
(-1.25432 -1.28686 0)
(1.03261 1.54198 2.17027e-16)
(-0.327849 1.2152 -3.29375e-16)
(3.6226 0.459255 6.69563e-18)
(9.64137 2.56375 0)
(3.55834 7.65069 2.38748e-17)
(-0.552858 -0.487118 0)
(1.5051 3.02337 1.00528e-16)
(2.1177 5.34011 1.03253e-16)
(0.17335 3.11865 0)
(-1.55601 -0.632411 -2.49289e-16)
(-0.46679 1.1605 -4.43394e-19)
(7.25635 3.07752 5.54534e-17)
(7.45936 2.63429 4.81209e-17)
(-1.04421 -2.05431 1.57661e-16)
(2.98243 7.38456 3.75322e-18)
(3.09717 9.29628 0)
(0.788107 2.45549 1.10868e-16)
(1.40558 3.08258 -3.32157e-17)
(3.12973 8.89896 -3.0513e-18)
(-0.0823289 -1.82614 5.39505e-16)
(-1.53058 6.83789 3.26321e-17)
(4.08114 -0.420483 -2.23805e-17)
(1.23996 5.51718 7.37655e-17)
(1.80629 -0.743883 4.61803e-16)
(4.27544 4.83377 -8.16411e-17)
(1.5225 4.3019 8.47854e-17)
(0.908944 4.14946 -2.62442e-16)
(1.11231 4.67858 -1.6299e-16)
(0.732067 4.98431 2.32047e-16)
(0.215634 4.55151 0)
(0.562548 4.38179 1.28971e-16)
(-0.336212 -1.86377 -2.03968e-17)
(-0.0246318 -2.09457 -1.978e-16)
(0.142781 -1.51638 1.58192e-16)
(0.14636 -0.72252 -4.24882e-17)
(-0.390004 1.2221 1.55282e-17)
(-1.39377 3.28143 3.69809e-17)
(0.627238 1.8074 -6.13561e-17)
(-0.984147 3.07973 -4.53394e-17)
(2.14081 1.21325 -2.40958e-19)
(-0.228878 -0.297013 1.48077e-16)
(0.0641444 0.287208 -5.46924e-17)
(1.22841 7.22888 -2.97463e-17)
(0.0485627 -0.0176542 7.94676e-17)
(-0.0301126 0.10241 0)
(0.0538149 1.05809 -1.71588e-16)
(0.897929 1.11636 1.86547e-16)
(1.58399 9.1146 0)
(-0.260368 -0.84863 2.69287e-16)
(1.24353 10.1016 -1.96115e-17)
(0.303735 -0.0994473 7.24116e-19)
(1.57882 7.8351 -3.11753e-16)
(-0.495603 0.382964 -1.19414e-16)
(2.96542 -0.223205 0)
(2.29705 -0.0861258 9.50177e-17)
(-0.0800932 0.943742 -1.4125e-16)
(1.33082 6.90535 -1.40405e-16)
(0.976869 3.36702 2.56021e-16)
(1.29937 -0.128403 5.41048e-16)
(2.91033 1.52593 -1.12834e-16)
(-0.411118 -1.93243 0)
(-0.227318 -1.29583 0)
(0.816534 0.885447 1.35621e-16)
(0.268945 0.673319 0)
(2.59189 -0.354735 0)
(0.714599 0.149702 -1.65135e-16)
(-0.236505 0.094851 3.81218e-16)
(2.52148 -0.227668 0)
(0.960565 4.45184 1.04318e-16)
(2.02499 -0.304418 1.10936e-16)
(-1.68238 -0.113139 2.24777e-19)
(0.0735519 0.512438 4.14524e-16)
(2.12965 0.616051 2.65102e-17)
(1.97317 -0.485376 -5.90038e-16)
(-1.25065 0.164257 2.79711e-16)
(0.896361 0.362592 0)
(-0.595448 -0.527324 -3.35165e-19)
(-0.514066 -1.03583 5.30711e-16)
(-1.4867 10.6078 1.81131e-17)
(2.20124 0.0166071 -4.83297e-16)
(-0.320655 -0.406689 -4.10387e-16)
(-0.964475 0.284661 6.87081e-17)
(-0.70124 -1.12589 -6.64502e-17)
(0.136238 -0.402285 3.32722e-16)
(0.0315434 0.247501 -3.46908e-16)
(-0.615634 0.868562 3.75405e-17)
(-0.238197 0.440135 -7.92725e-17)
(1.34632 0.0893595 2.41711e-16)
(-1.58489 0.0268472 0)
(1.40878 0.0218723 -2.87495e-16)
(2.2306 -1.21009 1.29483e-16)
(8.76744 0.118719 7.58382e-17)
(2.23234 -0.0374074 0)
(2.04342 -1.32112 -7.71983e-17)
(2.29392 -0.189784 1.38485e-16)
(2.60382 -0.0426158 -2.54809e-19)
(1.73819 -1.16356 -1.01216e-16)
(0.062299 0.394652 -4.00612e-17)
(8.72947 0.145225 3.50446e-17)
(-0.525994 2.02618 -1.65899e-18)
(-0.113272 0.26623 5.02039e-18)
(0.0954473 0.0827104 0)
(-0.530165 1.36135 0)
(-0.0502822 0.254376 0)
(1.54632 0.00304677 2.51656e-16)
(0.845489 -1.50657 -4.00203e-16)
(-0.154591 1.09152 -2.01634e-17)
(-0.503435 0.666421 -2.15595e-16)
(-0.0783522 0.260838 7.51991e-16)
(1.38045 -0.960255 1.99219e-16)
(2.03289 -1.01677 -1.09629e-16)
(0.0951542 3.62191 -9.51458e-17)
(0.0577844 1.06981 -3.10887e-17)
(0.477618 1.20593 -5.33613e-17)
(0.375405 3.4804 5.02673e-17)
(0.262876 1.11952 1.21216e-16)
(0.101041 0.910515 -6.29031e-19)
(-1.11609 -1.69661 -5.69157e-16)
(0.765279 1.75257 1.94334e-18)
(1.12489 0.0393105 1.445e-16)
(2.42571 -0.833432 -2.48858e-19)
(-1.6506 0.803101 -1.49281e-16)
(1.03467 3.58094 0)
(0.336738 1.76405 0)
(2.02028 1.14872 -7.70736e-18)
(2.64931 8.06584 -8.21417e-17)
(-0.326352 1.74697 2.78547e-16)
(-1.31356 5.40427 -1.65743e-16)
(0.508921 2.33952 8.11058e-17)
(1.04573 1.11038 -3.05611e-17)
(6.92667 4.92748 -1.73428e-16)
(2.6087 -0.297371 -1.10859e-16)
(-1.84262 1.01126 1.54179e-16)
(0.465448 2.45012 -1.0398e-16)
(1.69285 5.62348 9.75914e-17)
(0.686785 0.388267 1.37002e-16)
(-0.116753 8.58807 3.13411e-17)
(0.271282 -1.7341 -1.9289e-16)
(-0.227553 3.73993 9.20127e-17)
(1.27742 3.48762 0)
(-1.44867 4.20676 2.01138e-17)
(-1.99257 6.30615 0)
(-0.161918 4.66849 5.12707e-18)
(4.60313 2.90355 0)
(0.829884 2.9807 5.571e-17)
(0.325504 5.3275 0)
(0.285413 5.81696 0)
(-0.144671 2.80817 -9.43866e-19)
(-0.364203 -1.90708 2.35675e-16)
(0.136749 1.72216 -2.22241e-16)
(0.351958 4.20525 0)
(2.29513 8.27854 0)
(2.07665 0.0679863 2.08657e-16)
(2.07931 -0.16705 9.08474e-17)
(-1.90178 5.35065 0)
(1.76843 0.0132141 2.70635e-16)
(1.31085 1.99852 -1.35122e-17)
(0.264437 3.2866 4.88314e-17)
(-0.613057 10.097 -5.96673e-17)
(-2.50484 6.49405 -7.47772e-17)
(0.342109 2.90702 -9.11129e-17)
(0.0364839 1.8362 -1.9889e-17)
(8.76514 0.157044 -3.2586e-16)
(8.38844 0.304421 8.08828e-18)
(0.971069 -1.44359 6.23892e-16)
(-0.0992955 5.47655 -3.24001e-18)
(0.539125 1.43096 1.95828e-16)
(0.0972146 4.16376 6.29367e-18)
(5.80745 5.02423 0)
(1.30856 2.90403 0)
(0.275579 2.5636 3.0578e-17)
(0.437477 1.71597 0)
(0.24244 -0.955092 -3.96243e-16)
(0.0429223 2.68661 -4.12142e-17)
(0.587852 3.02334 -1.0235e-16)
(0.872815 -0.482229 1.53288e-16)
(-1.05737 10.8029 -2.06811e-17)
(0.113656 0.566341 -2.45608e-16)
(-1.02269 4.01908 0)
(-1.02947 4.94371 0)
(0.266261 1.79232 -3.75631e-17)
(5.46586 6.49108 0)
(2.31511 6.84183 0)
(-0.22597 1.90577 0)
(-1.00634 4.70774 -1.75827e-16)
(6.8483 5.68185 6.90621e-17)
(-1.50505 -2.00341 -2.20647e-16)
(0.29475 1.62674 -2.19321e-16)
(-0.191245 1.36941 1.85755e-16)
(-0.244053 2.78976 5.12211e-17)
(4.66342 7.55105 -3.01744e-17)
(-0.592039 2.91781 1.48423e-18)
(6.75113 6.47158 -3.54097e-17)
(-0.140929 6.65721 -4.45744e-17)
(1.40293 0.158718 1.16677e-16)
(2.62806 -0.647005 1.66587e-16)
(2.49738 0.437318 5.90232e-17)
(-2.21641 1.58499 -3.05312e-17)
(-0.583416 4.7863 -7.53656e-18)
(-0.704393 10.4421 2.43377e-17)
(-2.65842 5.9901 1.14215e-16)
(-2.32206 5.54127 5.4682e-19)
(1.26427 2.65235 2.54654e-17)
(2.11142 -0.276529 1.2135e-16)
(7.60027 6.03942 -1.53518e-16)
(0.538981 3.68281 1.23134e-17)
(-0.810333 -0.986145 1.70622e-16)
(0.821569 0.0160797 2.70151e-16)
(4.3807 4.94077 2.61921e-17)
(8.41452 0.385622 -2.80071e-16)
(0.60022 0.798361 6.59577e-17)
(-0.604259 3.86163 5.46419e-18)
(0.0767822 4.63197 -1.19439e-17)
(2.57911 5.11223 5.7443e-17)
(-1.08988 7.35064 7.08589e-17)
(-0.851411 9.82733 1.56599e-17)
(0.0772583 5.07289 0)
(0.756126 0.37706 0)
(3.94692 2.09585 4.65154e-16)
(2.33599 2.81443 -4.38818e-18)
(-0.214585 9.317 4.49815e-17)
(8.89939 3.66637 -3.75725e-17)
(-1.05944 6.57194 1.81011e-17)
(-1.47742 5.12357 -9.19444e-18)
(6.2853 -0.268507 2.05971e-16)
(2.27052 2.20127 -4.25305e-17)
(-1.56666 7.683 -3.08132e-17)
(-1.50603 5.99655 6.80055e-17)
(0.458542 4.12784 -1.38681e-16)
(1.61584 3.71034 1.71456e-16)
(1.97189 3.07407 4.81313e-17)
(-0.00993474 9.70842 -2.93752e-20)
(9.05572 1.89434 1.04819e-17)
(-1.86335 4.44688 -1.19914e-16)
(1.81721 1.87581 -9.01202e-17)
(-2.5589 8.96301 -6.96919e-17)
(5.64313 7.24461 0)
(-1.79859 -1.3192 0)
(-1.03351 5.79893 -7.39745e-17)
(0.536943 7.35516 6.24754e-19)
(-0.255254 7.13889 2.77415e-17)
(1.73187 5.50602 7.15093e-17)
(-0.328652 10.812 4.8876e-18)
(3.11521 2.26324 1.70094e-18)
(-0.222813 9.04197 1.53008e-17)
(4.28565 2.51233 0)
(8.67581 4.83527 -5.6106e-18)
(8.48714 4.46744 -7.27333e-17)
(3.80589 8.54646 2.91531e-18)
(1.22401 3.24659 -7.56919e-17)
(-1.47018 -1.19755 -1.5574e-16)
(1.82439 0.0196254 -1.96888e-16)
(1.64185 1.60774 -9.45123e-17)
(-1.36213 -1.05044 -9.32527e-17)
(0.668854 5.34807 0)
(1.06827 2.71172 5.51475e-18)
(0.391709 7.48622 0)
(6.44306 6.58179 0)
(6.03171 5.48907 3.72204e-17)
(-0.706759 3.77822 0)
(5.85845 4.11139 1.03074e-16)
(4.2477 2.2328 -1.25502e-16)
(5.57785 6.06478 4.62696e-17)
(7.58474 1.44573 0)
(-0.0863172 9.76128 -6.04122e-18)
(4.41111 8.01272 1.06094e-17)
(1.17165 -0.368562 2.97149e-16)
(1.10751 0.0193163 -1.41967e-16)
(7.50362 5.62324 2.08598e-16)
(7.58638 0.151364 -5.27151e-18)
(-0.572256 5.62301 8.0043e-17)
(-0.878194 7.00438 8.97302e-17)
(-1.73786 -1.6246 8.85981e-17)
(-1.33059 -1.73896 -1.4724e-16)
(-2.12247 7.2246 0)
(1.51937 0.272617 -4.22948e-17)
(7.73898 3.62575 1.01081e-16)
(7.59879 1.78355 -1.04195e-16)
(7.82767 4.86964 5.88216e-17)
(-0.63222 6.36802 -3.99754e-17)
(9.14683 2.95166 5.35518e-17)
(-0.311827 9.54703 -4.52324e-19)
(-0.190589 9.26488 -2.09272e-17)
(2.81642 1.15643 3.77625e-16)
(-0.730102 10.0245 3.08439e-17)
(-0.124037 6.93151 4.52535e-17)
(0.643434 9.03115 2.78511e-17)
(0.302195 10.961 4.92407e-18)
(0.569968 0.149693 2.09573e-16)
(0.156674 6.51518 -7.13868e-17)
(8.35764 5.34405 -8.97825e-17)
(-1.33623 -1.85383 8.49556e-17)
(0.227712 4.92733 0)
(0.119538 11.0153 2.27909e-18)
(5.04754 7.1287 -2.27582e-17)
(-0.261935 6.2271 -3.93403e-17)
(8.69268 0.415338 3.93755e-16)
(3.96419 0.352942 2.75085e-19)
(1.6185 -0.984269 2.06415e-16)
(-0.402494 -0.237363 2.14384e-16)
(0.412781 5.93777 1.42164e-16)
(2.14464 0.977668 1.08241e-16)
(-0.557066 5.04384 1.24622e-16)
(-0.0617375 -0.00892285 3.43319e-16)
(9.5093 1.2036 6.44184e-17)
(0.132604 3.81831 -7.81779e-17)
(5.00162 0.0497505 4.6307e-18)
(-0.488886 -0.687649 3.85298e-16)
(8.76131 4.27238 0)
(0.338594 -0.224591 0)
(0.442895 0.218358 1.60357e-16)
(-0.288868 4.2587 6.64355e-19)
(1.88441 0.700085 0)
(3.95414 -0.339773 0)
(1.59873 0.220634 0)
(-1.26418 -1.16128 -3.84774e-17)
(0.527133 0.202685 5.47742e-17)
(2.57844 -0.923128 0)
(0.746068 0.489536 7.86339e-16)
(-1.62884 -1.39708 -7.86823e-16)
(0.322251 -1.40571 1.17318e-16)
(-0.22573 0.608183 -2.60802e-16)
(-0.888832 -0.380457 2.32195e-17)
(3.3578 -0.198195 9.14288e-17)
(8.20187 3.14761 2.51166e-16)
(-1.15786 8.70002 3.53928e-18)
(0.406559 -1.90362 -1.63805e-17)
(-1.15164 0.0850122 7.89461e-16)
(-0.345634 -1.40796 0)
(-0.279237 0.10313 -3.71372e-16)
(0.337001 -0.0577247 2.49877e-16)
(0.475348 0.197253 0)
(-0.606357 0.00968505 2.09512e-16)
(2.98168 1.24535 7.56799e-18)
(-0.594049 0.0149859 0)
(-0.388387 -0.153909 1.0631e-16)
(8.28358 2.55526 -3.6947e-17)
(8.68767 3.7466 -1.69051e-16)
(1.97686 9.55139 -1.09452e-16)
(-0.0628191 0.125629 3.60471e-16)
(-0.616416 0.0217311 -7.30763e-16)
(1.777 10.2243 -6.41017e-17)
(1.55931 -0.928237 -8.50014e-17)
(0.73482 0.20253 -5.45652e-18)
(0.701788 3.9553 7.15205e-17)
(-0.000430207 7.41879 1.08492e-16)
(0.221553 0.152307 0)
(-0.605712 0.00588717 1.92234e-16)
(-0.122648 -0.00347514 0)
(0.973458 4.82376 0)
(0.895614 3.63905 1.03189e-16)
(1.1559 0.321675 -1.7142e-16)
(-0.70762 -0.659921 8.5994e-17)
(-0.650419 0.0356012 3.53553e-16)
(1.27097 4.28338 -8.18791e-17)
(0.13074 2.25602 0)
(0.10566 3.70499 9.8694e-19)
(1.32282 -0.393354 2.94752e-16)
(0.0333289 10.8759 1.81339e-17)
(-0.099332 7.16074 4.5815e-17)
(-1.41375 7.40926 1.27695e-16)
(4.38671 1.35947 -4.60785e-17)
(0.411702 4.22082 -9.37604e-20)
(-0.967586 -1.86284 -1.27048e-16)
(1.69799 0.628357 -1.13596e-16)
(7.14571 -0.0229586 5.64403e-17)
(4.28395 -0.289915 -1.43867e-16)
(-1.28793 -0.775511 0)
(-0.018334 3.49458 0)
(-0.752945 6.02545 0)
(-0.744806 7.92124 1.97978e-16)
(-0.940568 9.67671 -1.83109e-17)
(0.472622 2.36711 0)
(2.30052 2.6805 0)
(-1.20535 -0.169318 5.18538e-17)
(0.686768 -1.37254 7.25137e-17)
(-0.416783 2.03134 2.15549e-16)
(-0.334834 -0.946624 3.06226e-16)
(0.544854 -2.01109 0)
(1.46448 -0.72153 -4.64848e-17)
(3.50786 1.91618 6.26202e-16)
(-0.184669 7.4696 7.12733e-21)
(-0.201406 9.23966 0)
(-0.210863 -0.0501173 -2.76318e-16)
(-0.0303022 6.40719 4.1595e-17)
(-2.60084 7.86215 5.7611e-17)
(2.08487 0.41999 1.00724e-16)
(0.00070079 6.36904 0)
(-0.409847 -0.379965 1.6953e-16)
(-2.78963 -0.0163628 3.87263e-16)
(2.51698 -0.332062 2.3306e-16)
(1.56051 0.189728 0)
(-0.0743626 -1.10156 2.60328e-17)
(-0.401045 1.64496 -1.14163e-16)
(6.36219 1.17134 -9.39127e-18)
(-1.08705 9.1847 -1.09113e-17)
(5.87664 -0.296998 -2.4554e-16)
(-0.996207 0.119279 -2.11974e-19)
(0.608119 1.45971 1.15262e-16)
(0.0873314 6.52047 1.9596e-16)
(3.66355 0.448142 -1.00812e-16)
(2.12285 6.53795 1.05036e-16)
(-0.477769 10.1433 0)
(8.586 0.973984 -1.15164e-16)
(0.0697933 2.1537 -8.73058e-17)
(-0.145992 5.40384 5.31084e-17)
(-0.340745 -0.581222 1.62256e-16)
(1.05418 0.210052 -6.5451e-20)
(3.39145 1.385 -4.08344e-17)
(0.254457 3.53562 -5.13002e-17)
(5.74224 2.81901 0)
(-0.194532 8.32852 -1.64564e-17)
(2.83625 3.09909 0)
(1.68801 -1.09893 0)
(-0.00737584 5.14797 1.68109e-16)
(1.85444 0.0249551 -7.49488e-17)
(-0.496715 0.310764 1.37432e-18)
(-1.32889 0.248877 1.93271e-16)
(1.91492 -1.22726 1.3656e-16)
(-0.798843 0.336749 4.77821e-19)
(-0.0633183 5.18631 -2.69575e-16)
(4.10948 2.02938 2.79652e-17)
(-0.444477 0.0718128 3.81503e-16)
(0.644213 3.25365 1.32324e-18)
(1.30174 6.45497 1.55665e-16)
(-0.866911 2.18221 0)
(1.24062 0.484794 3.66629e-17)
(-0.0265164 8.33775 2.16748e-17)
(3.50337 0.258022 -1.38485e-17)
(-0.847493 -1.38796 -5.91969e-17)
(0.115271 -2.64061 -1.84827e-16)
(0.451413 0.617543 3.18103e-16)
(-2.89436 7.43596 0)
(0.586604 4.01891 5.05391e-17)
(2.35858 8.71703 -1.28711e-16)
(1.28866 3.78212 8.65095e-17)
(0.0582636 -0.774792 -3.78809e-16)
(-0.14158 5.54763 0)
(-0.901817 -0.642649 -3.96506e-16)
(2.83459 -0.0596979 -9.81724e-18)
(8.43157 1.55549 -5.78663e-17)
(-0.260905 8.30629 7.45041e-17)
(6.73089 0.0627876 7.36489e-18)
(-0.714418 -1.33727 -2.25385e-16)
(-1.52738 1.77084 -3.68261e-17)
(3.49281 1.30639 -1.81519e-16)
(-0.442774 -0.855404 -1.50725e-16)
(-1.59304 8.57409 6.47511e-17)
(0.108961 -1.90298 -2.37621e-16)
(5.98946 2.70889 1.82697e-16)
(2.02342 0.556872 -2.49863e-16)
(-0.173731 -0.763038 1.75626e-16)
(8.56733 0.559176 7.75185e-17)
(-1.53922 0.217024 1.63315e-19)
(-0.184367 10.0293 6.68051e-17)
(-0.115125 7.74797 3.80071e-17)
(-0.0666749 8.76567 -5.54389e-17)
(-0.512632 5.36082 3.77435e-18)
(-0.216065 7.58926 8.31823e-17)
(1.36146 0.298426 -1.3756e-19)
(-0.131489 -1.41158 2.03487e-16)
(1.06297 -0.214803 -7.28998e-17)
(-0.144362 8.38281 0)
(-0.483136 0.091357 -1.73815e-16)
(-0.33392 9.27482 -4.54789e-17)
(4.80752 0.683459 -6.4905e-17)
(0.33098 4.66322 3.51923e-19)
(-0.770989 0.676601 -2.35781e-16)
(2.77405 1.15613 -9.48142e-17)
(-2.06651 0.00868285 1.16371e-16)
(2.10431 -0.484523 1.31419e-16)
(-0.0463682 3.23544 0)
(8.82163 1.49161 0)
(8.3477 1.13305 4.22165e-17)
(-0.294024 5.1417 0)
(3.54446 0.892618 0)
(2.09279 0.735302 -1.92093e-16)
(-0.921816 0.520444 0)
(2.15635 -0.25607 8.36748e-17)
(3.51297 0.00944941 1.39692e-16)
(-0.25546 0.878257 8.60723e-19)
(-1.19675 1.13315 -9.54819e-17)
(-0.54696 0.0421624 -3.86529e-16)
(-1.01291 -0.560741 -1.8853e-18)
(-0.936804 -0.381824 0)
(-0.799922 0.181245 -7.21079e-17)
(0.451364 6.00946 7.60018e-17)
(0.423872 4.19638 2.41954e-17)
(2.87676 -0.593907 -8.10359e-20)
(0.804896 -0.589673 0)
(2.02608 8.78582 2.90365e-18)
(1.80365 0.15757 -1.46725e-16)
(-2.11468 9.0326 1.18552e-16)
(4.37109 -0.0489897 0)
(-0.951909 -1.14983 -5.84247e-16)
(3.57051 -0.460649 1.37901e-16)
(5.93534 0.372372 3.85799e-17)
(0.339938 10.3408 -4.23246e-17)
(-2.23778 3.83547 0)
(2.9481 2.86426 9.95339e-17)
(1.16199 0.160648 6.13523e-16)
(2.83256 0.417383 -8.86426e-19)
(4.20579 0.171511 4.12846e-16)
(3.46427 0.359316 5.44872e-17)
(-0.235045 11.0099 -8.50555e-17)
(0.378633 2.87067 -3.05957e-16)
(-2.11187 8.1783 -2.31537e-16)
(8.67423 0.266608 6.59424e-19)
(1.28095 2.26021 -3.92857e-16)
(-0.671303 -0.255677 -1.21522e-17)
(1.79362 -0.123806 1.40234e-16)
(0.337463 10.3273 4.55079e-17)
(-0.931478 7.6406 -1.63086e-16)
(2.95026 -0.0315829 2.28421e-16)
(-2.27808 4.74792 3.73556e-17)
(2.30571 2.7198 -6.07485e-17)
(-1.36587 0.0745045 4.62351e-16)
(-1.42206 -1.01335 -8.16156e-17)
(-0.135162 0.144384 -6.45545e-17)
(0.146497 1.30604 -1.24011e-16)
(0.669795 1.97819 5.81126e-19)
(0.306919 4.57921 0)
(0.0798214 6.32892 0)
(0.0400309 6.30138 0)
(0.0671944 6.24338 -3.49491e-17)
(-0.228618 6.41281 1.98945e-17)
(-0.0197309 6.1804 0)
(-0.245683 6.97272 0)
(-0.118722 6.18493 0)
(0.167706 7.73669 -7.12878e-17)
(0.0381281 6.41668 0)
(0.171158 6.17173 0)
(0.237922 7.22279 7.30715e-17)
(0.0809215 7.98873 0)
(0.00528095 8.06662 -3.14433e-17)
(0.287214 6.65864 1.85252e-17)
(-0.0975239 6.39008 0)
(0.340171 5.6139 -9.46879e-17)
(0.328744 5.46136 -3.77466e-17)
(0.319747 6.06566 2.26976e-17)
(0.529908 4.7242 1.06403e-16)
(0.660216 3.5863 3.32732e-17)
(0.738323 1.46342 1.88335e-17)
(0.720758 2.4957 -2.01425e-17)
(-0.0313764 8.08365 3.25501e-17)
(-0.0486942 8.10406 0)
(-0.0500876 8.12052 0)
(0.013563 6.13019 3.50268e-17)
(5.16699 -0.0362103 4.0463e-17)
(8.33387 0.0305046 -2.30303e-18)
(-1.38095 -0.0725771 -2.72507e-16)
(-0.99637 -1.41809 -7.3729e-17)
(2.46663 1.97004 -1.1899e-16)
(-1.42733 0.691754 -1.94606e-16)
(1.2132 0.790421 2.17448e-16)
(2.28749 -0.935454 1.88283e-16)
(-2.57377 0.440565 0)
(0.135853 6.95903 -1.38421e-16)
(0.318216 5.22675 -7.3281e-17)
(-0.419659 7.55645 -3.73229e-17)
(-1.70744 0.732358 -3.88654e-16)
(1.30027 0.20717 0)
(8.8654 2.26393 -9.82717e-18)
(0.653969 -0.420236 -1.34633e-16)
(0.906601 1.42703 1.172e-16)
(-1.72027 -1.14434 6.86028e-17)
(1.52333 -0.00719968 7.903e-16)
(0.306252 9.28492 8.81031e-17)
(3.13429 -0.0430925 0)
(2.30034 10.0842 2.94429e-16)
(0.0601699 5.48389 0)
(-1.88921 -0.167363 0)
(-0.0644519 8.15515 0)
(2.44532 -0.796955 5.66057e-17)
(0.225072 0.165795 1.52125e-16)
(9.09063 0.942488 -2.45651e-16)
(-0.79309 0.0685885 -2.02626e-16)
(8.80678 0.60354 -7.68514e-17)
(0.270352 1.64456 0)
(2.01645 0.467219 0)
(-2.18486 -0.708318 -9.31172e-17)
(-1.59119 9.39381 1.38173e-16)
(-0.254988 -0.0711616 0)
(-2.44697 -0.086241 -1.89766e-16)
(2.30742 -0.293949 0)
(0.37667 -1.48023 0)
(0.00102867 0.143387 3.60935e-17)
(4.83002 0.283416 1.02035e-18)
(-0.817185 8.88493 -3.29176e-17)
(1.36785 -0.380555 -3.31809e-16)
(0.0314364 0.0367896 2.40167e-16)
(2.64404 0.171145 -1.47265e-16)
(-0.082996 4.49956 0)
(7.32181 0.223298 3.08785e-17)
(8.55805 1.99389 0)
(2.36083 0.826994 -3.29191e-16)
(1.56414 0.607779 -2.62333e-16)
(3.39398 1.10709 -3.042e-16)
(1.64183 0.294512 -1.65258e-16)
(2.85369 0.962949 -1.55939e-16)
(0.486971 -1.65134 -4.4956e-16)
(-0.611666 -0.450611 -1.29722e-17)
(2.31558 0.201573 5.03784e-17)
(4.1216 -0.0555354 -1.08503e-17)
(4.31692 0.434046 1.51211e-17)
(0.0102436 5.93405 8.8672e-17)
(4.93585 2.35294 2.59186e-16)
(-0.0909769 7.84672 1.60886e-17)
(1.99112 0.116279 6.9162e-19)
(-0.0996369 5.2402 -2.52447e-19)
(-0.848949 1.56088 -3.57655e-18)
(1.59514 1.02381 2.01724e-16)
(4.13331 -0.0913787 1.87442e-16)