/*--------------------------------*- C++ -*----------------------------------*\
| =========                 |                                                 |
| \\      /  F ield         | OpenFOAM: The Open Source CFD Toolbox           |
|  \\    /   O peration     | Version:  v1912                                 |
|   \\  /    A nd           | Website:  www.openfoam.com                      |
|    \\/     M anipulation  |                                                 |
\*---------------------------------------------------------------------------*/
FoamFile
{
    version     2.0;
    format      ascii;
    class       volScalarField;
    location    "0.11";
    object      nut;
}
// * * * * * * * * * * * * * * * * * * * * * * * * * * * * * * * * * * * * * //

dimensions      [0 2 -1 0 0 0 0];


internalField   nonuniform List<scalar> 
1466
(
0.000638184
0.00068215
0.000719705
0.000869463
0.000787514
0.000728475
0.00098114
0.000667092
0.000900971
0.000619917
0.000589117
0.000815041
0.00098426
0.000870125
0.000862201
0.000784153
0.000732675
0.000316964
0.00120033
0.0006872
0.000742515
0.000987852
0.000960444
0.000692174
0.00100589
0.000463849
0.00148061
0.00067806
0.000563447
0.00109175
0.000879547
0.00065287
0.000654737
0.000846728
0.0041197
0.000694285
0.000871667
0.000492578
0.000481308
0.000503498
0.000504971
0.000558968
0.000440672
0.000446162
0.000397382
0.000479497
0.000677388
0.000359516
0.00035712
0.00037982
0.000431151
0.000617564
0.000490437
0.000477083
0.000362294
0.00121922
0.000444507
0.000521152
0.000398408
0.000448983
0.000827489
0.000858852
0.000945828
0.000771409
0.00149048
0.000931666
0.000976679
0.00107618
0.00197882
0.000537928
0.000976349
0.000364119
0.000303347
0.00116005
0.000734357
0.00454529
0.000839843
0.000867407
0.000435501
0.00162693
0.000661505
0.000794652
0.000930336
0.000888816
0.00116721
0.000870491
0.000792337
0.00203296
0.000588012
0.000867979
0.000557998
0.00141603
0.000985761
0.00143342
0.000939414
0.000485771
0.000610267
0.000466729
0.000981503
0.000440421
0.000494311
0.000414508
0.000350586
0.000349811
0.00055288
0.000607964
0.000385905
0.00037905
0.000544939
0.000574403
0.000758849
0.00383949
0.000707895
0.00044455
0.000363337
0.000783144
0.000982131
0.000860933
0.000820838
0.00108748
0.000809915
0.000957197
0.00086879
0.000487154
0.000408706
0.000721391
0.00178741
0.00080212
0.000763472
0.000962809
0.000366195
0.000776129
0.000838269
0.000659247
0.00067226
0.000494981
0.000553932
0.000414355
0.000625196
0.000893079
0.000456305
0.0007501
0.000903646
0.00108811
0.00172126
0.00104832
0.000675338
0.000940032
0.00103084
0.00102154
0.00063101
0.000821263
0.00183861
0.0010217
0.000930913
0.00110233
0.000676423
0.000762172
0.000806439
0.00103731
0.000703635
0.00157263
0.000511343
0.000835376
0.00136235
0.00141666
0.00087997
0.000981642
0.000908498
0.0014381
0.00090379
0.00100626
0.000608882
0.0018985
0.000347738
0.00106137
0.00113098
0.0010926
0.000675167
0.000805946
0.00125673
0.000784475
0.00101649
0.000611578
0.00231289
0.000912432
0.00120747
0.000896622
0.00217736
0.000819307
0.000930455
0.000825417
0.00114664
0.000864121
0.00105905
0.00072506
0.000343022
0.00129123
0.00104245
0.00108759
0.00100415
0.000994776
0.00121208
0.00132342
0.00101164
0.00108991
0.000736644
0.00118231
0.000885942
0.000696276
0.0011433
0.0010619
0.00106098
0.000846267
0.000761145
0.000866923
0.000958391
0.00126546
0.00108999
0.000838872
0.000912645
0.000792217
0.000885557
0.000809413
0.000887197
0.0013726
0.000786227
0.000879981
0.000615854
0.000793727
0.000748732
0.00271277
0.000890474
0.00140022
0.000965948
0.00117257
0.000904652
0.0010473
0.000917853
0.000935927
0.000914202
0.00174468
0.00114364
0.0012045
0.00102978
0.0016483
0.000620726
0.00115137
0.00143196
0.00118786
0.000949582
0.00148751
0.00120993
0.001626
0.000850327
0.000882582
0.000623712
0.00102093
0.000510692
0.000575145
0.000400722
0.000769314
0.000648953
0.000806605
0.00107266
0.000293987
0.000304129
0.000942991
0.000635266
0.00111222
0.000582069
0.000550793
0.00036959
0.000930458
0.000614091
0.000884534
0.000710708
0.00125777
0.000943534
0.00107746
0.000814834
0.00135726
0.00111264
0.00205983
0.00167242
0.000891384
0.000971023
0.000963498
0.000489794
0.00117117
0.00143425
0.00069399
0.00120795
0.000265354
0.00123513
0.000464318
0.000622168
0.000776106
0.00102565
0.000797556
0.00086322
0.000857529
0.00021226
0.00114567
0.000698946
0.00143558
0.00134465
0.000845304
0.00165198
0.000846248
0.00132063
0.000923465
0.000871672
0.00127464
0.00108194
0.00116073
0.00158113
0.00130732
0.000860895
0.000913601
0.000406767
0.000588723
0.000499018
0.000795104
0.000806797
0.00120742
0.000828296
0.00144166
0.000775512
0.000847903
0.000630678
0.00118237
0.000905419
0.00145439
0.00117598
0.000929675
0.00137861
0.000942296
0.00126961
0.000895227
0.00080952
0.00117436
0.000739798
0.00172706
0.00142233
0.000193883
0.00214955
0.00162467
0.00246687
0.00122582
0.00100972
0.000962481
0.000942528
0.00148551
0.00190744
0.00122768
0.000753482
0.000606192
0.00108897
0.0016495
0.00193032
0.00110753
0.00131575
0.00114454
0.000760507
0.000987257
0.00118639
0.00121553
0.000522709
0.00148317
0.00164411
0.00113468
0.000845113
0.00160508
0.000897061
0.000901176
0.000965959
0.000815641
0.00135045
0.00110305
0.000999915
0.00100915
0.000969286
0.000950311
0.000979096
0.000989084
0.000843082
0.000859596
0.000860371
0.000873742
0.00124428
0.00127133
0.0011145
0.00127972
0.00129989
0.00165076
0.000910031
0.000817365
0.00138706
0.00068676
0.000981498
0.000925644
0.00127895
0.00104321
0.00122188
0.00100345
0.0012375
0.000979526
0.000983115
0.00109906
0.000986238
0.00130399
0.00107161
0.00106423
0.00121861
0.00100018
0.00102442
0.00103537
0.000930665
0.000846193
0.00128192
0.00119436
0.000862532
0.00108997
0.000919624
0.00104505
0.00138718
0.000907772
0.00098259
0.00110682
0.000866445
0.00161185
0.000633277
0.000841
0.000833444
0.000744976
0.000898835
0.00101282
0.000862741
0.000867834
0.00103659
0.000370083
0.000869558
0.000802057
0.00083012
0.000913136
0.00306985
0.000819077
0.00103045
0.000880001
0.000824073
0.00117754
0.000622429
0.00164611
0.00140523
0.000429661
0.0010114
0.000929694
0.000506124
0.000826431
0.000837536
0.00136765
0.000980732
0.000886788
0.0009498
0.00117876
0.00106913
0.00153769
0.00166557
0.00106916
0.00167632
0.00100297
0.000893593
0.000949843
0.000824853
0.0011617
0.000916462
0.0013789
0.00142317
0.00137294
0.00156085
0.000830312
0.000718964
0.00144047
0.00139184
0.00126622
0.00133977
0.000998306
0.001218
0.00141302
0.00133141
0.000658667
0.00085002
0.00107843
0.00139145
0.00110915
0.000926392
0.000977906
0.001222
0.0010485
0.00093623
0.000907314
0.000930647
0.000889795
0.00103774
0.00114274
0.00169038
0.000837148
0.00142122
0.000987894
0.000960442
0.0014255
0.00123689
0.00063889
0.000930509
0.0010889
0.00148887
0.00153729
0.00210461
0.000773746
0.000934729
0.00144797
0.00141073
0.00140869
0.00142067
0.00123177
0.00142537
0.000999166
0.00125128
0.00142045
0.00227367
0.000785605
0.00121731
0.00110479
0.00098346
0.00147386
0.00123039
0.00172949
0.00146375
0.000734692
0.00133009
0.000740213
0.000927121
0.00117459
0.00127298
0.00142265
0.00128489
0.00123035
0.00129295
0.000832272
0.00149692
0.00143341
0.00125459
0.000980362
0.00071705
0.000960168
0.00098722
0.00107404
0.00115936
0.00122643
0.00136977
0.00158638
0.000822846
0.0015594
0.0016942
0.00122638
0.00109199
0.00134809
0.00175278
0.000883254
0.000814381
0.0012753
0.000933397
0.00105177
0.00145899
0.000861311
0.000949857
0.00090331
0.000986538
0.00118973
0.00141847
0.000879559
0.000929128
0.00122886
0.00101614
0.00142667
0.000820813
0.00109691
0.00110311
0.00116248
0.00079084
0.0014012
0.00150443
0.000931358
0.00100121
0.00087947
0.00120305
0.00108321
0.00143294
0.00118899
0.00162589
0.00110766
0.00101108
0.00158698
0.000959204
0.00182797
0.000920517
0.000898658
0.000860256
0.000919748
0.00143031
0.000917545
0.00137467
0.00108835
0.000731358
0.00124839
0.00105731
0.00147885
0.00138538
0.000840768
0.00156023
0.000860726
0.000907474
0.00109561
0.00312792
0.000933211
0.000516766
0.00174819
0.00185037
0.000896118
0.00131301
0.00117687
0.00132394
0.00101423
0.000904389
0.00112657
0.000916604
0.0010913
0.000994357
0.000836039
0.00120929
0.0015624
0.000951563
0.000797007
0.000877748
0.00111085
0.00168038
0.00114218
0.000984674
0.0015291
0.000904491
0.00137545
0.00172523
0.000808184
0.00115071
0.000890303
0.00139083
0.000479006
0.000796384
0.00109357
0.00145068
0.00312733
0.00187118
0.00111688
0.00126289
0.00109439
0.000804362
0.000977845
0.00112378
0.00145652
0.000748519
0.00093538
0.00138183
0.000736769
0.00069932
0.000874428
0.000878103
0.000463801
0.000660195
0.0011672
0.000793252
0.000850093
0.000401019
0.00113072
0.000383852
0.00173691
0.000493339
0.000325873
0.0013744
0.000294984
0.00116556
0.00118696
0.00115249
0.0012366
0.000438175
0.000335555
0.00122732
0.00146901
0.000514842
0.00131149
0.000843611
0.000477083
0.000295345
0.000779632
0.000937921
0.00100763
0.000972489
0.00186831
0.000330017
0.000970372
0.00135597
0.00079101
0.000841116
0.000980133
0.00113142
0.000661129
0.00116851
0.00102624
0.00181684
0.00117431
0.00454248
0.000866236
0.00110375
0.0011633
0.000489143
0.000856511
0.000805488
0.00122627
0.00117816
0.000201905
0.00144046
0.000673002
0.00149027
0.000940233
0.00127386
0.00133467
0.000323339
0.00102134
0.00101029
0.0013693
0.000884058
0.000850617
0.0008967
0.000798205
0.00103487
0.000979833
0.000625451
0.000197987
0.00126093
0.00172318
0.00079632
0.00142783
0.000438566
0.000961986
0.000864974
0.00155975
0.000895123
0.00086221
0.00137918
0.00100084
0.00111873
0.00210623
0.000866668
0.0011016
0.00144443
0.00115128
0.000725768
0.00145422
0.00103641
0.000947677
0.00104221
0.00157333
0.000875682
0.000904864
0.00147285
0.00102135
0.00132653
0.000339097
0.00108408
0.00113755
0.00135777
0.00148665
0.000729618
0.00228744
0.00150338
0.000909185
0.000887455
0.000905827
0.00100261
0.00158044
0.00104289
0.00122364
0.00105688
0.0019199
0.000945001
0.00126599
0.000989638
0.00104816
0.000987054
0.0012949
0.00137377
0.00110181
0.000849552
0.000872288
0.0010762
0.000763968
0.000168387
0.00154533
0.00129756
0.000876329
0.000329933
0.00129286
0.000752288
0.000757437
0.000940295
0.000837056
0.00129394
0.000736346
0.00059543
0.000981964
0.00110714
0.00107717
0.00131981
0.00113037
0.000905147
0.000872728
0.00124539
0.00121263
0.00140022
0.000684326
0.00152085
0.00130469
0.00141719
0.000956609
0.000493095
0.00101508
0.000995309
0.000309139
0.00167833
0.00149427
0.00131184
0.000892803
0.00130078
0.000698282
0.00156067
0.000959586
0.000676546
0.00083596
0.00100444
0.000748109
0.0015198
0.00225307
0.000881484
0.00123015
0.00116946
0.0010022
0.00161006
0.000656906
0.000872184
0.00091607
0.00132343
0.000870147
0.00131556
0.00118609
0.000591206
0.000936557
0.000896404
0.000544772
0.00112073
0.00108087
0.00112235
0.000362976
0.00130365
0.000842784
0.00137273
0.00126656
0.00122065
0.000328934
0.000309789
0.000330109
0.000263505
0.000273528
0.000295555
0.000249261
0.000315279
0.000402144
0.000400852
0.000313407
0.000304139
0.000294271
0.000296147
0.000392078
0.000386501
0.000257554
0.000272709
0.000356665
0.000314789
0.000336955
0.000286249
0.000287496
0.000294302
0.000308466
0.000323169
0.00356621
0.000983532
0.000229316
0.0014799
0.00154946
0.000934543
0.00140292
0.000824248
0.000798677
0.000882712
0.000590763
0.000859497
0.000919965
0.000579626
0.00114898
0.000896945
0.00134383
0.00140929
0.00087452
0.000882007
0.000805584
0.00128397
0.00119623
0.00111933
0.000317932
0.000880443
0.000798263
0.00107396
0.000287556
0.00112199
0.00104601
0.000908546
0.00138879
0.00081636
0.000952263
0.00103138
0.000936474
0.000774369
0.000978955
0.000485079
0.000824406
0.000894488
0.00104974
0.00119956
0.000355502
0.00282166
0.00122432
0.00108614
0.00101648
0.00136366
0.00126062
0.000993272
0.00146097
0.000606808
0.00084775
0.0010373
0.0019907
0.00111802
0.000658506
0.000299091
0.000712743
0.000983851
0.00103992
0.000850346
0.000805422
0.00112167
0.00165431
0.000982762
0.00123639
0.000952142
0.00114045
0.000806417
0.00060011
0.000841262
0.000767909
0.000909206
0.000656696
0.000783291
0.000989234
0.00105466
0.000885479
0.00219111
0.000309739
0.000870314
0.000770119
0.00103881
0.00105226
0.000434851
0.000868972
0.000848087
0.00163297
0.000826459
0.00099024
0.00120289
0.00177169
0.000692878
0.000940447
0.00104535
0.00131228
0.00153479
0.00144736
0.000334924
0.000938005
0.00110483
0.000812351
0.000757278
0.00093988
0.000776932
0.000649467
0.000723064
0.000185143
0.00074117
0.000625295
0.00141055
0.000860959
0.00112133
0.000916939
0.000280744
0.000614036
0.00105313
0.00116062
0.000814041
0.000385609
0.000361581
0.00107108
0.000699663
0.000899008
0.00089005
0.000751895
0.000860468
0.00108258
0.00149578
0.00183287
0.00105907
0.000702755
0.00126548
0.00108924
0.000899723
0.00077361
0.00071953
0.00064047
0.000715524
0.000964333
0.000703005
0.000250111
0.0010397
0.00102769
0.00100352
0.000866952
0.000544921
0.000668607
0.000932487
0.00153306
0.00107962
0.00129335
0.000844438
0.00044277
0.00199647
0.0010742
0.000547399
0.000706641
0.000458318
0.000803376
0.000299606
0.0010378
0.000874457
0.000139019
0.00130915
0.00109782
0.00024799
0.00186959
0.00025564
0.000694823
0.00108071
0.000246785
0.000259219
0.00102696
0.000895147
0.000904641
0.000312639
0.000207395
0.000224514
0.000212709
0.000207689
0.00102536
0.00104852
0.000291855
0.000300061
0.000286191
0.000269427
0.000904035
0.00127524
0.0010786
0.00104477
0.000820591
0.00159513
0.000962201
0.000807079
0.000376914
0.000341049
0.00110611
0.000900279
0.00102586
0.00100061
0.000938544
0.00149684
0.00107725
0.00107254
0.000311817
0.000752688
0.00108142
0.00113141
0.000213859
0.00397634
0.00403504
0.000973441
0.00101482
0.00131043
0.00092458
0.00144511
0.000284646
0.000335406
0.00107956
0.000941954
0.000786328
0.00138374
0.000976474
0.00241295
0.00189281
0.000849591
0.000756483
0.00143289
0.00125079
0.00110996
0.00125146
0.000803668
0.000948803
0.00086642
0.00101983
0.000793965
0.00074856
0.00120704
0.00139074
0.00101197
0.00121299
0.00145452
0.00161839
0.000888113
0.0010532
0.0010429
0.000822723
0.000924844
0.000896058
0.00061068
0.00090263
0.00159197
0.000829284
0.00226593
0.00105654
0.000341935
0.000297757
0.00142893
0.00121156
0.0012282
0.00156813
0.00147784
0.000955297
0.000893639
0.00122957
0.00126161
0.000673809
0.000671625
0.00165091
0.00196345
0.00128401
0.00132847
0.00116126
0.00129689
0.00336178
0.000823507
0.000765736
0.000778524
0.000671476
0.000825107
0.00137922
0.00119034
0.00136519
0.001473
0.00121249
0.00161739
0.000897701
0.000861016
0.000744866
0.00125528
0.00214016
0.00113701
0.000583236
0.00116402
0.000783496
0.000981752
0.00132654
0.00118308
0.000851453
0.00130811
0.00118269
0.00171414
0.00107403
0.0017553
0.000464675
0.00123442
0.00089874
0.000826855
0.00110774
0.000878006
0.000902816
0.00063078
0.000854432
0.000909641
0.000949456
0.00135795
0.00106902
0.00125776
0.00201405
0.000876437
0.000874868
0.000789091
0.00158351
0.00125101
0.00124946
0.000575042
0.000576011
0.000919293
0.000796542
0.00102623
0.000657474
0.000860011
0.000847662
0.00107081
0.0013512
0.0015338
0.000898268
0.000731129
0.00112435
0.000704779
0.000644977
0.000825836
0.00191351
0.00109976
0.000828771
0.000789451
0.000929819
0.000587614
0.00302518
0.00135442
0.000760173
0.000796725
0.00172605
0.00140515
0.000831896
0.00105676
0.000976841
0.0010097
0.00146169
0.00141123
0.0005631
0.000695548
0.00101969
0.00105102
0.00076861
0.00108606
0.000278567
0.00106077
0.00160701
0.00185464
0.000993184
0.000767145
0.00086603
0.000914689
0.00109049
0.00144096
0.00125281
0.00049083
0.00326337
0.000989454
0.00135531
0.00139614
0.00120372
0.000854374
0.00106783
0.000941207
0.00061693
0.000746422
0.000256828
0.000630095
0.000578994
0.00101598
0.00112852
0.000893943
0.00102676
0.00085653
0.00167546
0.000970374
0.00111764
0.000943552
0.000939238
0.00161823
0.000889346
0.0013885
0.00110154
0.000847047
0.000828264
0.000823626
0.000835452
0.000948795
0.00110444
0.000180566
0.0014516
0.00086634
0.0021673
0.000935511
0.00114245
0.000264922
0.00290953
0.000165854
0.0011199
0.000920068
0.00102793
0.000626519
0.00132006
0.000193013
0.000940446
0.00138859
0.00132473
0.00101333
0.00102556
0.00146034
0.000824477
0.00059413
0.000804435
0.000634505
0.00154419
0.000521037
0.00164719
0.00129469
0.0011572
0.00163489
0.00113434
0.000286909
0.000818789
0.00113808
0.000809117
0.000916971
0.0012794
0.000978696
0.000808952
0.00147976
0.00120915
0.000815998
0.00069025
0.00128579
0.000621191
0.00131782
0.0014252
0.00148981
0.000492312
0.000104694
0.000170068
0.0011331
0.00113312
0.00247722
0.000969519
0.00134772
0.000310357
0.000623453
0.00155278
0.00115925
0.000797914
0.000857671
0.000906935
0.00126701
0.00100067
0.00103527
0.00120831
0.000728438
0.000921917
0.00121613
0.000444554
0.000598966
0.00123842
0.0006667
0.000719873
0.000708796
0.00334939
0.000633165
0.000873268
0.000982288
0.000531806
0.000796746
0.000762453
0.000734926
0.00145555
0.00148008
0.000796577
0.00071201
0.00137809
0.000736539
0.000953286
0.000520763
0.000815226
0.0011452
0.000851987
0.000762082
0.000715751
0.00167978
0.000721673
0.000756183
0.00175543
0.000953144
0.00183078
0.00103667
0.00072438
0.0005418
0.000904746
0.00143368
0.000584006
0.00147147
0.000679276
0.000564142
0.0009025
0.000292212
0.000652425
0.00104109
0.000505336
0.000865072
0.0013783
0.00034834
0.000726373
0.0004198
0.000355664
0.000589437
0.000552819
0.000379762
0.000355847
0.000727371
0.00101295
0.000694997
0.00034778
0.000360949
0.00086348
0.000849693
0.00102563
0.00115834
0.000451563
0.000361751
0.000420797
0.000723268
0.000335614
0.000345943
0.000492466
0.00036091
0.000559973
0.00038354
0.000648736
)
;

boundaryField
{
    frontAndBack
    {
        type            empty;
    }
    wallOuter
    {
        type            nutkWallFunction;
        Cmu             0.09;
        kappa           0.41;
        E               9.8;
        value           nonuniform List<scalar> 
108
(
3.61173e-05
4.16e-05
3.63616e-05
2.48921e-05
2.2192e-05
4.53556e-05
5.68269e-05
3.69702e-05
3.4417e-05
5.13832e-05
3.8067e-05
5.89334e-05
5.54089e-05
3.40148e-05
3.74349e-05
2.31747e-05
3.84747e-05
7.00878e-05
2.21963e-05
4.01812e-05
1.82908e-05
3.93948e-05
3.65314e-05
7.49645e-05
3.93312e-05
3.67872e-05
3.95928e-05
3.07076e-05
3.20566e-05
3.48674e-05
2.88815e-05
3.75141e-05
4.62152e-05
4.60878e-05
3.70647e-05
3.62366e-05
3.5064e-05
3.45958e-05
4.49858e-05
4.44465e-05
2.92264e-05
3.13458e-05
4.09982e-05
3.60987e-05
3.94023e-05
3.28338e-05
3.4243e-05
3.51558e-05
3.69845e-05
3.88196e-05
2.67774e-05
6.54935e-05
3.81733e-05
3.25214e-05
4.06652e-05
3.5618e-05
7.87083e-05
3.70638e-05
3.95177e-05
2.05981e-05
3.18034e-05
4.41812e-05
4.40309e-05
8.722e-05
7.90285e-05
2.94475e-05
0.000103786
6.22623e-05
7.87849e-05
3.50185e-05
1.45705e-05
1.45705e-05
2.91481e-05
2.99875e-05
2.89139e-05
3.03194e-05
3.72763e-05
2.36395e-05
2.5963e-05
2.43592e-05
2.36845e-05
0.000114233
0.000117678
3.33021e-05
3.4732e-05
3.33414e-05
3.14596e-05
0.000108162
4.30782e-05
4.13739e-05
3.53274e-05
2.40478e-05
3.40023e-05
3.80926e-05
0.000119782
0.000119751
3.88575e-05
3.57554e-05
0.000106302
3.14835e-05
2.89674e-05
0.00011707
1.99899e-05
1.77311e-05
2.17212e-05
9.33719e-06
1.84684e-05
3.61231e-05
)
;
    }
    inlet
    {
        type            calculated;
        value           nonuniform 0();
    }
    outlet
    {
        type            calculated;
        value           nonuniform 0();
    }
    wallInner
    {
        type            nutkWallFunction;
        Cmu             0.09;
        kappa           0.41;
        E               9.8;
        value           nonuniform List<scalar> 
126
(
6.16089e-05
5.8571e-05
6.2249e-05
6.2208e-05
6.91549e-05
5.43133e-05
5.38037e-05
4.95752e-05
6.09077e-05
8.40174e-05
4.46535e-05
4.4251e-05
4.70876e-05
5.29677e-05
7.00669e-05
6.12232e-05
5.94994e-05
4.4604e-05
0.000141579
5.23975e-05
6.44576e-05
4.96113e-05
5.61585e-05
5.15869e-05
6.04062e-05
7.19142e-05
5.87352e-05
0.00011618
5.4491e-05
6.09604e-05
5.08903e-05
4.34543e-05
4.29709e-05
6.5609e-05
7.37632e-05
4.80307e-05
4.7193e-05
6.27865e-05
6.54782e-05
5.51851e-05
4.53294e-05
5.78248e-05
5.10581e-05
4.5705e-05
9.40357e-05
6.23461e-05
6.74331e-05
5.17723e-05
5.68875e-05
5.94307e-05
4.22258e-05
4.20119e-05
5.9823e-05
6.81519e-05
4.64329e-05
3.59803e-05
3.63272e-05
6.7339e-05
6.48167e-05
4.37761e-05
7.58586e-05
3.14023e-05
5.47749e-05
7.39658e-05
4.7923e-05
6.96209e-05
5.82815e-05
7.055e-05
6.23515e-05
9.56418e-05
9.16905e-05
9.12671e-05
7.11715e-05
0.000103384
7.64845e-05
9.37151e-05
7.82092e-05
0.000107293
4.32523e-05
7.16623e-05
4.89638e-05
5.77772e-05
7.31972e-05
8.83811e-05
8.13812e-05
6.35528e-05
5.86017e-05
6.00384e-05
0.000101077
6.68108e-05
7.27397e-05
5.80635e-05
3.5143e-05
6.66947e-05
3.45771e-05
7.48942e-05
0.000119248
5.43112e-05
9.47182e-05
4.22286e-05
8.21814e-05
5.12388e-05
4.29721e-05
6.89558e-05
6.88528e-05
4.64807e-05
4.24439e-05
8.34574e-05
0.000114713
7.87047e-05
4.14297e-05
4.34789e-05
9.40706e-05
0.000101755
0.000119013
0.000132421
5.50752e-05
4.32767e-05
5.23545e-05
8.85759e-05
4.1127e-05
4.25328e-05
5.8301e-05
4.4323e-05
6.28773e-05
4.6686e-05
)
;
    }
    procBoundary1to0
    {
        type            processor;
        value           nonuniform List<scalar> 
29
(
0.00113488
0.00113488
0.000723782
0.00107623
0.00135991
0.00114516
0.00415026
0.000445297
0.001167
0.000903877
0.000757371
0.00114516
0.000723782
0.000854889
0.00440894
0.00279178
0.00135991
0.00121403
0.00107623
0.00103973
0.00163095
0.00101665
0.00126586
0.000831644
0.000831644
0.00126586
0.000892267
0.000822356
0.000892267
)
;
    }
    procBoundary1to2
    {
        type            processor;
        value           uniform 0.000927432;
    }
    procBoundary1to3
    {
        type            processor;
        value           nonuniform List<scalar> 
48
(
0.000879328
0.000718082
0.000757203
0.000757203
0.0011162
0.000805396
0.000805396
0.00139215
0.000955505
0.00102332
0.00101728
0.00102332
0.000933101
0.000863872
0.000954218
0.000933101
0.000857882
0.000857882
0.000860064
0.000860064
0.000855593
0.000853501
0.000880939
0.000916308
0.000916308
0.000981652
0.000904189
0.000904189
0.00109817
0.00115786
0.00114317
0.00109817
0.00139215
0.00104336
0.000912491
0.00115786
0.00138633
0.00101728
0.000906525
0.000708662
0.00087435
0.00116861
0.00104336
0.000912491
0.000936244
0.000345931
0.000901556
0.00087435
)
;
    }
}


// ************************************************************************* //
