/*--------------------------------*- C++ -*----------------------------------*\
| =========                 |                                                 |
| \\      /  F ield         | OpenFOAM: The Open Source CFD Toolbox           |
|  \\    /   O peration     | Version:  v1912                                 |
|   \\  /    A nd           | Website:  www.openfoam.com                      |
|    \\/     M anipulation  |                                                 |
\*---------------------------------------------------------------------------*/
FoamFile
{
    version     2.0;
    format      ascii;
    class       volScalarField;
    location    "0.1";
    object      nut;
}
// * * * * * * * * * * * * * * * * * * * * * * * * * * * * * * * * * * * * * //

dimensions      [0 2 -1 0 0 0 0];


internalField   nonuniform List<scalar> 
1466
(
0.000592095
0.000641631
0.000746479
0.000812326
0.000797298
0.000754707
0.00106922
0.000682077
0.000904892
0.000629998
0.000600333
0.000804968
0.000963902
0.0008683
0.000861327
0.000830055
0.000753192
0.000293424
0.00106318
0.000690174
0.000779782
0.000995529
0.00084705
0.000704747
0.000972227
0.000490216
0.00148684
0.000679498
0.000571031
0.000885835
0.000759502
0.000631816
0.000683045
0.00085344
0.00338182
0.0007019
0.000875134
0.000519704
0.000483753
0.000520235
0.000518344
0.000580304
0.000453583
0.000441345
0.000419203
0.000519851
0.000706599
0.000378561
0.000374315
0.000397028
0.000442192
0.000548821
0.000515173
0.000500437
0.000375745
0.00119994
0.000422468
0.000537984
0.000418504
0.000473923
0.000830703
0.000873918
0.000926704
0.000776555
0.00148931
0.000993834
0.000885148
0.00106287
0.00139232
0.000551418
0.000931668
0.000334134
0.000306639
0.0011128
0.000735607
0.00354338
0.000843001
0.000863895
0.000417844
0.00106856
0.000686399
0.000795451
0.000919324
0.000805898
0.00108566
0.000854394
0.000798993
0.00140293
0.00060316
0.000878124
0.000588032
0.00137558
0.000971197
0.00133858
0.000971514
0.00050702
0.000579778
0.000496634
0.000976288
0.000456464
0.000508705
0.000425303
0.00036865
0.000362014
0.000529946
0.000613644
0.000405599
0.000399308
0.000493973
0.000511267
0.000776124
0.00285111
0.000767876
0.000463599
0.000385618
0.000799476
0.000963195
0.000764686
0.000912475
0.00107315
0.00079292
0.000912983
0.000870619
0.000468322
0.000431559
0.00072677
0.0012242
0.000713618
0.000771307
0.000849164
0.000388438
0.000789589
0.000740711
0.000668338
0.000692483
0.000529807
0.000558895
0.000437093
0.000685627
0.000919697
0.000478526
0.000761455
0.000904963
0.00097409
0.00147482
0.00105897
0.000649855
0.000915782
0.000829706
0.00100238
0.0006605
0.000799175
0.00127282
0.00103983
0.000908888
0.00112244
0.000669354
0.000760549
0.000757483
0.000896129
0.000667262
0.00104798
0.000475252
0.000823887
0.0012426
0.00128531
0.000886638
0.000874679
0.000886028
0.00131227
0.000892398
0.000850762
0.000611972
0.0013263
0.000353801
0.00101888
0.00100422
0.00084083
0.000699979
0.000760466
0.00107493
0.000800216
0.00100245
0.00061672
0.00160389
0.000906043
0.00114861
0.000821067
0.00151458
0.000915722
0.000929845
0.000810499
0.00118748
0.000895325
0.000906107
0.000747572
0.000354671
0.00131417
0.000955536
0.00109232
0.00100466
0.000830408
0.000904779
0.00112564
0.000981037
0.00101051
0.000761262
0.00102031
0.000815871
0.000703653
0.00101159
0.00100424
0.00091606
0.000833225
0.000803289
0.000870369
0.000956416
0.00123517
0.000990953
0.00084704
0.000813476
0.000806757
0.000885305
0.000822094
0.000869054
0.00124879
0.000819267
0.000890052
0.000645103
0.000807374
0.000727765
0.00187962
0.000900318
0.00140739
0.000952546
0.001101
0.000906981
0.000935175
0.000895917
0.00092847
0.000881205
0.00113991
0.000982168
0.00117166
0.000881545
0.0011068
0.000610401
0.00109384
0.000963584
0.00106805
0.000947862
0.0014285
0.00109417
0.0015739
0.000735607
0.000853751
0.000620635
0.00092884
0.000482498
0.000553531
0.000373013
0.000680411
0.00065432
0.000818726
0.000950692
0.000308561
0.000305661
0.0008454
0.000637554
0.00099617
0.000537351
0.000524775
0.000359181
0.000837969
0.000642289
0.000883543
0.000733725
0.00137132
0.000919902
0.000828461
0.000818176
0.00121696
0.00108971
0.00137308
0.0013866
0.000887227
0.000845116
0.00090859
0.000535097
0.00103601
0.00109352
0.000576675
0.00106372
0.000267392
0.00132042
0.000443444
0.00060528
0.000780121
0.000823403
0.000808932
0.00086548
0.00085859
0.000222115
0.00102298
0.000720704
0.00142154
0.00132934
0.000852997
0.00156309
0.000821463
0.000998855
0.000823605
0.000880278
0.00131754
0.001069
0.00108597
0.0011678
0.00126769
0.000863364
0.00090093
0.000389446
0.00056615
0.000467545
0.000804231
0.000789635
0.00116675
0.000825334
0.00141395
0.000774048
0.000854321
0.000585079
0.00109325
0.000905459
0.00152724
0.000987457
0.000850689
0.00111526
0.000941029
0.00126087
0.000929251
0.000814083
0.000973983
0.000761324
0.00165343
0.00127889
0.000201012
0.00145024
0.00156452
0.00168851
0.0010002
0.000938128
0.000867344
0.000856219
0.00115157
0.00157759
0.000986973
0.000762893
0.000571906
0.000983628
0.00157479
0.00160822
0.00111618
0.00143288
0.00100265
0.000784883
0.000912564
0.000963408
0.000961196
0.000510501
0.00154794
0.0015419
0.00119236
0.000771406
0.00157253
0.000897846
0.00090078
0.000945649
0.000732188
0.00122288
0.00108484
0.000968184
0.000986925
0.000949713
0.000938273
0.000968974
0.000974388
0.00085172
0.000863373
0.000863004
0.000872287
0.0011139
0.0011961
0.00101381
0.00121153
0.00120613
0.00128297
0.000904469
0.000723932
0.00126798
0.00051952
0.000976272
0.000923645
0.00106756
0.00104228
0.00104634
0.00100386
0.00105349
0.000966923
0.000935453
0.00114401
0.000963037
0.00112235
0.0010121
0.00109656
0.00119365
0.000987401
0.00101421
0.0010231
0.000915477
0.000870585
0.00133266
0.0012321
0.000912298
0.000984089
0.000962756
0.00103364
0.00145563
0.000845446
0.0010426
0.00110337
0.000868664
0.00142343
0.000638667
0.000739512
0.000830709
0.000586815
0.000897332
0.00083198
0.000865778
0.000868765
0.00102112
0.000348705
0.000871247
0.000811096
0.000834765
0.000887285
0.00228105
0.000828521
0.000951849
0.000878269
0.000836986
0.0010577
0.000570167
0.00129361
0.00127623
0.000386825
0.00102104
0.000902794
0.000456928
0.000837168
0.000842999
0.0011514
0.000965775
0.000892174
0.00094126
0.0010835
0.00106713
0.00127862
0.00156745
0.00106589
0.00147768
0.000999343
0.000910743
0.000951193
0.000836323
0.00107547
0.000922517
0.00118274
0.00135011
0.00132445
0.00155792
0.000837349
0.000737462
0.00131192
0.0013318
0.00120287
0.00122415
0.00100813
0.0012991
0.00148752
0.00131869
0.000657538
0.00085902
0.00107473
0.00119775
0.00107872
0.000920656
0.000970083
0.00120273
0.000959022
0.000928565
0.000908228
0.00090864
0.000871255
0.00103405
0.000998871
0.00154173
0.000847881
0.00133108
0.000975962
0.000921631
0.00130724
0.00105911
0.000581789
0.000923177
0.000974944
0.00140735
0.00122251
0.00149081
0.000791621
0.000926885
0.00143525
0.00124093
0.00138086
0.00125199
0.0012346
0.00141265
0.000854613
0.00124361
0.00124817
0.00189784
0.000700544
0.00096557
0.00108543
0.000977394
0.00143029
0.00129417
0.00159509
0.0013431
0.000754039
0.00130927
0.00071212
0.000940912
0.00104454
0.00124919
0.0014893
0.0012355
0.00127122
0.00112896
0.000842525
0.00145301
0.00140415
0.00126771
0.000973625
0.000646189
0.000947508
0.000972657
0.000996808
0.00104014
0.00123202
0.00117627
0.00111456
0.000830922
0.00151692
0.00127587
0.00112314
0.00108397
0.00116576
0.00164093
0.000888705
0.000805957
0.00110016
0.000879863
0.000982914
0.00130927
0.000802461
0.00085206
0.000903081
0.000978411
0.0010951
0.0013125
0.000884939
0.000923365
0.00105064
0.00096801
0.00126538
0.000788961
0.000964972
0.00106549
0.00108061
0.000801622
0.00144888
0.00153582
0.000925153
0.00100962
0.000883923
0.00107706
0.000935423
0.00134268
0.00103903
0.00160204
0.00104249
0.000939339
0.00157074
0.00093753
0.00183505
0.000894107
0.000900105
0.000858953
0.000915781
0.00124397
0.000883845
0.00139322
0.00108467
0.000753943
0.00117352
0.000915804
0.00146442
0.00106316
0.000793547
0.00155336
0.000859691
0.000874833
0.00109311
0.0021514
0.000926154
0.000530212
0.00168078
0.00145098
0.00089604
0.00130335
0.000998677
0.00102388
0.000961392
0.000904663
0.000987146
0.00084619
0.000958297
0.000996476
0.000770969
0.00105763
0.00136348
0.000847935
0.000810581
0.000886737
0.00108459
0.00153644
0.00100407
0.000860054
0.00152129
0.00090573
0.00112183
0.00168373
0.000812832
0.00110366
0.000892844
0.00137461
0.000487773
0.000778819
0.00102262
0.00131276
0.00219696
0.00128892
0.00101198
0.0012664
0.000896929
0.000804742
0.00100852
0.00106573
0.00141348
0.000772881
0.000933322
0.00135154
0.00074545
0.000705119
0.000873187
0.000875705
0.000478572
0.000658514
0.000982468
0.000771274
0.000854411
0.000415883
0.00102735
0.000371184
0.00147627
0.000452752
0.00029868
0.00133948
0.000287458
0.00100375
0.000972859
0.00100813
0.00105487
0.000415499
0.000305571
0.00104687
0.00141044
0.000467411
0.00111354
0.000858063
0.000444093
0.000283123
0.000784021
0.000924895
0.000942321
0.0010017
0.00142384
0.000300999
0.000941173
0.00116894
0.000749115
0.000790266
0.000897851
0.00100169
0.000682459
0.00102791
0.000944429
0.00132581
0.000882145
0.0036109
0.000886175
0.000971761
0.00114181
0.000500607
0.000870209
0.000748872
0.00123293
0.00112586
0.00020766
0.00134454
0.000692609
0.00141327
0.000926349
0.0011726
0.00123599
0.000321438
0.000911064
0.00100574
0.00120758
0.000885391
0.000857864
0.000900797
0.000818237
0.00106294
0.00104161
0.000548471
0.000198129
0.00109721
0.00116808
0.000760016
0.00139488
0.000459896
0.000957285
0.000843663
0.00138798
0.000879911
0.00081129
0.00109439
0.000880069
0.00103828
0.00177785
0.000868917
0.00113544
0.00139975
0.000906837
0.000714964
0.0013803
0.00100202
0.000948443
0.00099634
0.00140314
0.000875458
0.000883836
0.00149786
0.000993506
0.00134369
0.000332889
0.00107691
0.000989281
0.00125589
0.00134515
0.000734165
0.00194829
0.00106705
0.000899441
0.0008844
0.000902432
0.000935674
0.00149474
0.0010101
0.00118542
0.00102316
0.00164004
0.000900126
0.00102404
0.000909802
0.00112652
0.000983322
0.00127135
0.00131871
0.000906379
0.000859874
0.000874291
0.000932399
0.000766892
0.000170577
0.00119334
0.00130711
0.00084155
0.000329174
0.0011409
0.000676791
0.000760724
0.000927992
0.000843202
0.0011108
0.000726613
0.000620637
0.000896349
0.0011405
0.000966445
0.00123972
0.000838893
0.00090493
0.000887808
0.0011901
0.00101109
0.00109165
0.000623909
0.0010102
0.00110119
0.00126198
0.000957633
0.000552626
0.000999116
0.000970323
0.000305074
0.00148766
0.00134469
0.0011813
0.000871867
0.00110959
0.0007568
0.00145164
0.00082245
0.000583226
0.000844049
0.000929123
0.000742665
0.00142633
0.00153579
0.000809885
0.00114364
0.00109978
0.000998097
0.00113017
0.000677073
0.000867966
0.000832694
0.00138055
0.000875862
0.00109719
0.00117217
0.000614688
0.000792595
0.000826387
0.000556351
0.00103011
0.00104023
0.0010543
0.000373939
0.00146787
0.000788721
0.00135296
0.00127202
0.00105086
0.000328039
0.000307795
0.000330665
0.000261007
0.000271293
0.000293026
0.000247318
0.00031321
0.000369829
0.000369019
0.000308288
0.000304379
0.000296057
0.000287665
0.000360192
0.000356827
0.000244977
0.000261642
0.000331274
0.000295382
0.000323518
0.00027244
0.000290191
0.00029757
0.000311911
0.000325259
0.00258411
0.000961357
0.000234008
0.00140799
0.00140711
0.000925752
0.00140759
0.000830837
0.000802298
0.000839418
0.000558068
0.000873677
0.00090797
0.000514882
0.000974968
0.000888887
0.00134586
0.00159778
0.000862304
0.000831834
0.000809962
0.00112517
0.00104326
0.000977543
0.000321148
0.00085238
0.000808555
0.00100356
0.000266071
0.00100732
0.0010041
0.000897554
0.00143078
0.000821237
0.000945941
0.00104609
0.000993129
0.000787956
0.000860804
0.000491186
0.000839557
0.000922388
0.00101769
0.00118614
0.000326988
0.0019069
0.000998945
0.001041
0.00100171
0.000923114
0.00131563
0.00112918
0.00113902
0.000626561
0.000856261
0.00110394
0.00189831
0.000995207
0.00062322
0.000300662
0.000613099
0.000986387
0.000895891
0.000851082
0.000815402
0.00110997
0.00150847
0.000987015
0.0012047
0.000924784
0.0011112
0.000822166
0.000591859
0.000848651
0.000755107
0.000957314
0.000666676
0.000786936
0.000972685
0.00090763
0.000891185
0.00157517
0.000312247
0.000866121
0.000781909
0.000902023
0.00104728
0.00044788
0.00087113
0.000850294
0.00147545
0.00076512
0.000942702
0.000863042
0.00173657
0.000709562
0.000923773
0.000999054
0.00128915
0.00110108
0.00113723
0.000326398
0.00098493
0.00107648
0.000822628
0.000760259
0.000936334
0.000785908
0.000597136
0.000740244
0.000187277
0.000740337
0.000614525
0.00117833
0.000839933
0.00105098
0.000858236
0.000262241
0.00059194
0.00107425
0.0011029
0.000817893
0.000353364
0.0003688
0.000944979
0.000711034
0.000893288
0.000883135
0.000789658
0.00086472
0.000909694
0.00141332
0.00165953
0.00111199
0.000715849
0.0011985
0.00100405
0.000893624
0.000696408
0.000762243
0.000641002
0.000616227
0.000962115
0.000684831
0.000253732
0.00108401
0.000940599
0.000971907
0.000872016
0.000547749
0.000691172
0.000832053
0.00149906
0.00104384
0.00117172
0.000814338
0.000455212
0.00175762
0.000993954
0.000491587
0.000618898
0.000475008
0.000812037
0.000291611
0.000970387
0.000878428
0.000146226
0.0013031
0.00105363
0.000251364
0.00165743
0.000256649
0.000718631
0.000995815
0.000249136
0.000258301
0.00103388
0.00090069
0.000919542
0.000313132
0.00020972
0.000227066
0.000215055
0.000210071
0.000926138
0.00096312
0.000273395
0.000286544
0.000278195
0.000265711
0.0009286
0.00110557
0.00129262
0.0010722
0.000815775
0.00146516
0.000898689
0.000820346
0.000344797
0.000347272
0.00104655
0.000923229
0.00100348
0.000987743
0.000940746
0.000995398
0.00096907
0.00101096
0.000285912
0.00073121
0.000993047
0.00088283
0.000210278
0.00319757
0.00313952
0.000981126
0.00100414
0.0011729
0.000906431
0.00125845
0.000288798
0.000307419
0.000975819
0.000958707
0.000777881
0.00102872
0.000960169
0.00165203
0.00130245
0.00085335
0.000802552
0.0013565
0.00119447
0.000891116
0.00105502
0.00080409
0.000982642
0.000879309
0.00102204
0.00080272
0.000755679
0.0011216
0.00124564
0.00099198
0.00113682
0.00121885
0.0014737
0.000893999
0.000993099
0.00100223
0.000833233
0.000789969
0.000903942
0.000628141
0.000894851
0.00161591
0.00084738
0.00164646
0.000941995
0.000312956
0.000302732
0.0013746
0.0012285
0.000938638
0.00142056
0.00138162
0.000939587
0.000899625
0.00115055
0.00118139
0.000690057
0.000690511
0.00146195
0.00129594
0.00112421
0.00108747
0.00103728
0.00131406
0.00244173
0.000826192
0.000763203
0.000726547
0.000658434
0.000843114
0.0012642
0.00112912
0.00132632
0.00146154
0.00117029
0.00139589
0.000893561
0.000867692
0.000763418
0.00108386
0.00152506
0.000968132
0.000611076
0.000870892
0.000689429
0.000955989
0.000971854
0.000935268
0.000839829
0.00128028
0.00115301
0.00156291
0.000897002
0.00155861
0.000485564
0.00129384
0.000889777
0.000833561
0.00104228
0.000869792
0.000896298
0.000654911
0.00086674
0.000900333
0.000959396
0.00113804
0.000965724
0.00125326
0.00181216
0.00087798
0.000874136
0.000786794
0.0013468
0.00119779
0.000894286
0.000498187
0.000568517
0.000880225
0.000796884
0.000926856
0.000670344
0.000863185
0.000851618
0.0010592
0.00113374
0.00136678
0.000824623
0.000655088
0.001017
0.000707033
0.00066022
0.000818299
0.00173277
0.000993464
0.0008389
0.000772673
0.000893751
0.000586453
0.00205051
0.00113788
0.000762686
0.000777802
0.00153722
0.00137308
0.00084355
0.00102825
0.00095541
0.000965714
0.00136749
0.00133923
0.000581898
0.000650059
0.000963122
0.000990499
0.000759581
0.00107221
0.000258933
0.000960164
0.00155002
0.00121582
0.000922525
0.000804261
0.000787165
0.000914535
0.00101225
0.00138223
0.0011413
0.000504251
0.0022975
0.00102838
0.00127432
0.00129973
0.00111982
0.000861929
0.00106109
0.000820589
0.000661479
0.00061073
0.000242278
0.000638827
0.000512072
0.000981174
0.00101169
0.000896648
0.00103564
0.000862625
0.00163139
0.00103111
0.00105951
0.000947897
0.000840137
0.00157352
0.000898634
0.001334
0.00110797
0.000833664
0.000832247
0.000830446
0.000834573
0.000915927
0.000972193
0.000183003
0.00145317
0.000932607
0.00149686
0.000888968
0.00120442
0.000279124
0.00201799
0.000165557
0.00106581
0.000911876
0.00102726
0.000639048
0.00125802
0.000195762
0.000903942
0.00131869
0.0012546
0.00100522
0.00102231
0.00133685
0.000820739
0.000590554
0.000779641
0.000619692
0.00132393
0.000451361
0.00144621
0.000992996
0.000954219
0.00153528
0.000966563
0.00030263
0.000793848
0.000960501
0.00080219
0.000922739
0.000900895
0.000974422
0.000804056
0.00106507
0.000962458
0.000821721
0.000712705
0.00112431
0.000622513
0.00093834
0.00127865
0.00145041
0.00049939
0.000108842
0.000171653
0.000954914
0.00108819
0.001726
0.000947119
0.00119888
0.000298672
0.000633345
0.00131931
0.00110053
0.000865451
0.000932065
0.000980871
0.00129262
0.000962186
0.00102763
0.00116012
0.00074614
0.000900342
0.00108905
0.000433919
0.000592425
0.0011006
0.000662625
0.000750032
0.000732043
0.00238725
0.000623663
0.000882568
0.000965766
0.000538686
0.000805288
0.000770262
0.000681963
0.00146688
0.00136646
0.000704931
0.000719129
0.00124086
0.000737453
0.000959286
0.000535941
0.000827437
0.00101733
0.00085459
0.000787897
0.000711032
0.00161203
0.000800349
0.000825804
0.00121391
0.000894728
0.00167879
0.000965183
0.000745364
0.000553286
0.000912217
0.000955393
0.000556119
0.00146261
0.000694636
0.000545882
0.000751294
0.000290639
0.000602414
0.000989417
0.000404956
0.000747423
0.00132378
0.000353241
0.000655277
0.000425908
0.000356998
0.000554314
0.000580319
0.000388815
0.000350465
0.000665147
0.000934731
0.000622352
0.000342162
0.000361366
0.000723805
0.000851747
0.000991926
0.00110784
0.00045572
0.000356324
0.000440348
0.000751076
0.000347967
0.00035963
0.000475577
0.000373478
0.00048998
0.000388985
0.000667698
)
;

boundaryField
{
    frontAndBack
    {
        type            empty;
    }
    wallOuter
    {
        type            nutkWallFunction;
        Cmu             0.09;
        kappa           0.41;
        E               9.8;
        value           nonuniform List<scalar> 
108
(
3.39016e-05
3.84912e-05
3.7041e-05
2.63988e-05
2.3332e-05
4.39121e-05
5.24003e-05
3.45976e-05
3.39267e-05
4.88677e-05
3.51874e-05
5.37523e-05
5.18087e-05
3.33347e-05
3.47102e-05
2.41399e-05
3.81935e-05
6.18068e-05
2.24374e-05
3.94747e-05
1.87737e-05
3.9233e-05
3.61254e-05
6.50419e-05
3.94916e-05
3.67542e-05
3.99579e-05
3.04425e-05
3.19117e-05
3.45509e-05
2.87176e-05
3.78223e-05
4.2889e-05
4.28022e-05
3.71108e-05
3.67057e-05
3.56171e-05
3.42601e-05
4.17022e-05
4.13648e-05
2.82556e-05
3.06452e-05
3.83443e-05
3.40659e-05
3.80965e-05
3.14178e-05
3.48196e-05
3.57283e-05
3.75141e-05
3.93734e-05
2.76206e-05
5.84795e-05
3.86199e-05
3.07316e-05
3.79175e-05
3.57796e-05
6.79477e-05
3.73776e-05
3.88058e-05
2.10657e-05
3.01159e-05
4.1014e-05
4.50637e-05
7.7876e-05
6.821e-05
3.01349e-05
9.14687e-05
5.61954e-05
6.89925e-05
3.43192e-05
1.57097e-05
1.57097e-05
2.98063e-05
3.04849e-05
2.95016e-05
3.06514e-05
3.72775e-05
2.41239e-05
2.65203e-05
2.48484e-05
2.41866e-05
0.000101293
0.000105568
3.18853e-05
3.38497e-05
3.30293e-05
3.15545e-05
0.00010484
3.98456e-05
4.23368e-05
3.3005e-05
2.38137e-05
3.47582e-05
3.51687e-05
0.000109618
0.000111398
3.58582e-05
3.66039e-05
0.000100907
2.99152e-05
2.77054e-05
0.000108909
2.04708e-05
1.78592e-05
2.2255e-05
1.00286e-05
1.88238e-05
3.49857e-05
)
;
    }
    inlet
    {
        type            calculated;
        value           nonuniform 0();
    }
    outlet
    {
        type            calculated;
        value           nonuniform 0();
    }
    wallInner
    {
        type            nutkWallFunction;
        Cmu             0.09;
        kappa           0.41;
        E               9.8;
        value           nonuniform List<scalar> 
126
(
6.4882e-05
5.90221e-05
6.4581e-05
6.43297e-05
7.1763e-05
5.64383e-05
5.41642e-05
5.25137e-05
6.60031e-05
9.05443e-05
4.71985e-05
4.67449e-05
4.95166e-05
5.43648e-05
6.42461e-05
6.45052e-05
6.25845e-05
4.64802e-05
0.000139262
5.16341e-05
6.72178e-05
5.23836e-05
5.9427e-05
5.03172e-05
6.32261e-05
7.03408e-05
6.28405e-05
0.000115294
5.66426e-05
6.28874e-05
5.22459e-05
4.5866e-05
4.4827e-05
6.45192e-05
7.36361e-05
5.07814e-05
4.98959e-05
5.80598e-05
6.19987e-05
5.76006e-05
4.8282e-05
5.69038e-05
5.40222e-05
4.85144e-05
9.55939e-05
6.63788e-05
6.81229e-05
5.48467e-05
5.98539e-05
5.60277e-05
4.32162e-05
4.35328e-05
5.65331e-05
6.63112e-05
4.38572e-05
3.79651e-05
3.68651e-05
6.31401e-05
6.1645e-05
4.27662e-05
6.56066e-05
3.23028e-05
5.27122e-05
7.10758e-05
4.62441e-05
6.66191e-05
5.5407e-05
6.57142e-05
6.09392e-05
8.59403e-05
8.1568e-05
8.05876e-05
5.44946e-05
9.4048e-05
7.70548e-05
8.45862e-05
6.1148e-05
8.82925e-05
4.25421e-05
6.67684e-05
4.5195e-05
5.34522e-05
6.74918e-05
8.03405e-05
7.43667e-05
6.5137e-05
5.94684e-05
6.12785e-05
8.44709e-05
6.83584e-05
7.06235e-05
4.95558e-05
3.72261e-05
6.3393e-05
3.49088e-05
6.75236e-05
0.000112444
4.6096e-05
8.07097e-05
4.40264e-05
7.28342e-05
5.22001e-05
4.39307e-05
6.65069e-05
7.21143e-05
4.78572e-05
4.23314e-05
7.80064e-05
0.000106987
7.15691e-05
4.12885e-05
4.37763e-05
8.14328e-05
0.000101625
0.000115012
0.000126072
5.62456e-05
4.38406e-05
5.5094e-05
9.02927e-05
4.27611e-05
4.43214e-05
5.54265e-05
4.58888e-05
5.58486e-05
4.76634e-05
)
;
    }
    procBoundary1to0
    {
        type            processor;
        value           nonuniform List<scalar> 
29
(
0.00111707
0.00111707
0.000808164
0.00111518
0.0014223
0.00112097
0.00356404
0.000506161
0.00120782
0.000942312
0.00080154
0.00112097
0.000808164
0.000870432
0.0036805
0.0022341
0.0014223
0.00126974
0.00111518
0.00103465
0.00137024
0.000983388
0.00128816
0.000837474
0.000837474
0.00128816
0.00090753
0.000862802
0.00090753
)
;
    }
    procBoundary1to2
    {
        type            processor;
        value           uniform 0.000981262;
    }
    procBoundary1to3
    {
        type            processor;
        value           nonuniform List<scalar> 
48
(
0.000881283
0.000738788
0.000776698
0.000776698
0.00108966
0.000810203
0.000810203
0.00138774
0.000942281
0.00102534
0.00102904
0.00102534
0.000924401
0.000874437
0.000963305
0.000924401
0.00086199
0.00086199
0.000864456
0.000864456
0.000861917
0.000861049
0.000885022
0.000917524
0.000917524
0.000987077
0.000911099
0.000911099
0.00111525
0.00114074
0.00113417
0.00111525
0.00138774
0.00100637
0.000912904
0.00114074
0.00129323
0.00102904
0.000902282
0.000707309
0.000877595
0.00108773
0.00100637
0.000912904
0.000967599
0.000353003
0.000894326
0.000877595
)
;
    }
}


// ************************************************************************* //
