/*--------------------------------*- C++ -*----------------------------------*\
| =========                 |                                                 |
| \\      /  F ield         | OpenFOAM: The Open Source CFD Toolbox           |
|  \\    /   O peration     | Version:  v1912                                 |
|   \\  /    A nd           | Website:  www.openfoam.com                      |
|    \\/     M anipulation  |                                                 |
\*---------------------------------------------------------------------------*/
FoamFile
{
    version     2.0;
    format      ascii;
    class       volScalarField;
    location    "0.37";
    object      p;
}
// * * * * * * * * * * * * * * * * * * * * * * * * * * * * * * * * * * * * * //

dimensions      [0 2 -2 0 0 0 0];


internalField   nonuniform List<scalar> 
5794
(
78.599
77.4811
78.3635
74.1845
86.0588
77.1886
72.9388
67.9316
77.7226
82.0342
111.388
73.5304
71.1893
73.0391
79.6158
76.5452
48.485
74.3837
80.2385
78.7893
75.1235
77.767
71.1528
75.8149
72.1961
40.8336
50.6935
71.1093
77.9165
79.7108
73.3002
70.7953
91.7261
71.1031
69.4461
63.486
84.2425
73.7849
71.9723
76.0186
76.4657
76.5215
102.343
79.1268
79.8241
93.0631
71.4223
71.4042
81.6064
80.1168
77.1085
70.9924
72.8222
81.4422
80.1939
95.1682
72.124
71.4238
102.499
35.8204
89.6883
79.8389
71.8731
70.5506
91.2347
79.3382
79.8059
79.4644
74.4486
79.8021
70.2122
80.047
17.7842
77.7469
74.2035
70.7484
76.1291
46.8257
78.8629
78.9904
77.8284
78.6358
76.5359
72.8043
73.7707
74.1068
68.7715
96.8312
76.4289
77.0472
100.187
71.785
72.5915
78.7776
74.4622
69.814
95.8279
73.1238
72.0235
90.5986
64.7049
71.6362
102.55
73.6951
81.0428
70.1955
79.6976
112.566
69.0502
78.718
70.3421
80.8875
56.2466
79.2751
74.0696
76.6458
80.1428
71.6107
88.8377
75.3601
71.1312
82.1603
72.5798
70.8093
79.752
109.352
72.5179
77.0217
72.782
111.171
73.0949
76.6129
72.0404
50.4689
71.7548
79.4464
102.482
79.9151
77.2328
68.6021
74.8604
79.6847
80.2967
77.9397
77.1282
53.6857
73.1197
100.368
87.2148
80.6635
106.849
81.9851
70.9752
72.4236
51.4207
70.892
74.6126
73.3036
92.6425
73.9243
79.756
68.602
68.9434
66.8025
69.1752
70.9473
72.4999
68.1344
69.9414
81.2786
79.8718
70.1044
65.7509
72.3303
75.0465
68.2176
80.1195
70.2488
73.7142
73.2941
72.3602
71.528
70.5941
93.5793
76.8115
50.4795
71.3652
92.6653
81.5391
71.7842
111.165
70.8393
91.6895
73.1892
76.6809
73.9257
68.2175
70.8107
80.8973
100.837
70.0114
70.1559
72.3615
76.6582
71.0525
92.7488
73.2959
112.818
75.9792
76.5999
78.6522
83.2648
67.138
67.6668
73.3193
71.239
66.1421
72.0835
111.826
84.777
83.3446
70.7215
98.558
72.4678
97.1788
37.6505
77.5192
83.4566
85.0317
80.0982
67.3454
72.8957
76.4175
69.5161
73.4092
54.3064
64.1446
105.186
72.8364
78.1688
77.4795
113.099
79.6303
72.5737
72.4841
70.5118
80.3491
87.2151
96.8759
73.6296
71.7874
79.1613
49.9686
79.3007
104.997
77.13
101.517
101.36
112.899
79.6031
103
69.6647
67.9138
79.9061
75.5205
72.7126
80.2679
108.862
79.6126
92.205
70.6887
72.9455
73.5901
69.3895
84.6022
80.1546
81.4684
72.9848
81.3286
71.9705
70.5083
91.099
76.0361
76.6403
75.7583
72.3086
71.8566
74.8463
74.5078
72.3494
64.16
71.7206
73.7081
81.6964
98.0807
53.3042
75.6817
76.2992
72.4518
79.9088
78.6108
63.981
77.7629
78.7545
78.0899
107.263
81.2015
73.6242
91.5462
70.5741
73.3722
92.1765
79.4853
79.6035
84.0181
86.0395
112.565
71.3923
68.9888
79.4738
67.9459
74.2987
71.4448
86.5468
76.6452
68.9601
77.2628
74.0562
73.5198
111.667
71.024
103.615
74.075
92.2141
71.0231
81.704
83.5888
69.339
81.478
92.8336
74.3934
71.3145
76.1805
71.4473
80.2489
70.944
95.6477
72.0973
71.6785
73.6669
71.6938
55.0348
92.1556
71.0935
71.6467
49.4104
81.2958
72.1889
71.4683
68.0584
112.703
73.336
103.518
72.2821
67.8283
87.0786
70.0405
93.7949
71.704
71.4223
80.8427
79.7557
87.1175
78.5135
112.549
69.0492
95.3654
72.0278
72.9399
81.3372
76.8066
80.6765
84.4603
64.0206
68.9475
69.5301
77.5779
73.2714
68.1493
74.1737
68.2033
74.4018
79.6327
69.874
67.2882
72.963
77.2059
78.7573
79.4326
68.5945
74.4257
71.1512
51.1727
70.5201
80.9757
106.571
79.7599
77.347
79.3899
96.3877
72.4444
70.2845
110.53
70.2371
92.5019
70.8107
72.9577
74.9676
69.2133
96.0268
71.8034
73.0987
112.238
81.0245
64.307
69.5554
70.5793
79.0235
78.2854
77.9173
70.8031
84.485
79.1169
58.4654
80.7335
80.042
73.7099
76.1862
64.9544
68.9253
69.0916
84.0501
77.6082
72.797
73.8601
76.7312
73.9142
77.2222
77.5587
78.4115
84.49
78.6739
63.4115
77.7527
72.9263
80.0181
94.306
73.0554
73.9512
79.3779
77.7393
78.8825
73.0909
70.3193
91.5451
111.025
47.2537
80.5444
110.839
78.5461
80.0637
69.886
110.489
85.0485
81.2479
93.4535
60.7939
70.7877
78.0682
78.8406
73.9502
77.7309
82.3704
84.5283
112.58
110.89
83.0219
76.2208
53.7504
77.7664
78.5229
73.1519
71.7637
86.6378
78.9666
69.5418
79.891
80.4262
77.1546
105.953
81.6704
60.3159
86.2454
68.4327
78.0547
78.8437
77.7048
100.326
110.546
79.0791
69.0107
81.1096
76.5268
80.1883
80.1566
73.3476
74.9234
80.3085
83.1896
49.823
77.4413
79.2332
84.6576
73.2841
110.783
76.9327
78.4304
82.9293
78.9764
77.7164
75.9889
80.0285
47.6823
79.7099
86.6995
75.9843
84.2
100.667
110.848
102.291
77.8088
58.2811
78.5141
72.7828
77.348
76.7291
84.7784
78.1802
79.7978
77.0303
73.9078
81.5629
80.1245
78.2899
77.0474
80.4377
76.378
77.7303
79.0644
84.1684
20.7103
79.8058
108.013
81.8909
72.7599
77.8628
76.5044
79.1918
76.9491
79.337
92.463
70.4674
69.2772
74.5258
50.9853
81.73
82.3647
74.8933
76.5436
76.0795
74.9326
73.4665
110.548
52.4715
72.3713
95.3747
78.8876
72.8931
71.8952
95.3909
79.0787
77.0415
79.913
74.9058
73.2596
88.3949
81.1538
83.6566
79.26
75.9749
76.4749
93.3178
73.9513
76.5703
80.0241
110.504
54.9372
82.6545
80.1732
74.1804
75.8869
75.9097
72.9075
78.8117
72.6781
76.3085
105.51
111.433
99.7273
72.2453
79.5827
110.413
109.77
112.638
79.782
76.9444
78.4339
86.7115
114.003
79.1814
78.285
77.7801
79.3633
77.2346
79.3846
82.7124
57.775
83.7047
86.0116
72.9473
77.5596
103.036
112.08
72.1113
101.565
77.0341
74.3196
92.025
79.4336
80.0975
77.0343
78.3773
79.6326
76.7094
73.9412
106.361
47.7399
71.2805
47.2284
77.1176
80.9327
82.245
77.7382
75.6559
78.7681
74.5161
76.6745
72.5037
72.043
91.3096
105.252
78.5763
39.2944
75.8977
74.134
73.8617
76.5757
76.5631
72.4937
78.2304
76.9693
113.148
81.1873
77.0694
82.328
101.128
82.1359
80.1419
81.4721
80.4729
76.2642
86.4307
59.7913
74.1012
81.6963
81.9149
112.625
78.7637
77.6672
83.1705
81.5142
71.8415
79.7254
101.461
85.0671
104.642
72.4678
83.5335
79.3217
112.475
102.704
80.3548
74.0936
73.8659
110.462
81.95
85.7127
42.4717
108.517
77.1759
112.821
58.7347
101.105
79.0443
79.5873
78.4035
99.7241
84.6861
112.33
87.1207
73.8924
58.6989
84.285
106.846
81.7098
78.4445
47.9456
110.628
71.9603
72.7694
97.4071
79.7936
77.1204
75.1493
78.0599
73.1629
72.267
93.4856
77.6876
84.0388
76.9584
78.2851
80.9282
80.0634
73.9925
76.1752
85.568
80.1252
74.3803
94.621
77.5852
65.6517
74.0994
74.3615
77.4977
73.9487
72.6736
98.3943
78.677
72.9673
71.8598
96.3459
86.7835
79.6032
86.7176
80.1234
76.9889
78.4142
79.1661
77.0143
112.627
45.6622
74.6591
77.72
79.0011
74.9335
72.7337
112.668
74.8186
73.435
77.1393
106.74
95.0063
71.5406
71.3073
72.8754
78.4655
55.4307
77.7956
55.2279
82.459
112.599
76.1184
79.1996
76.8901
81.9498
112.226
113.536
105.246
91.2079
74.4013
73.8076
78.5134
93.2135
83.8957
69.9625
72.9931
93.0123
112.44
79.2153
77.6077
78.705
99.1763
53.7487
79.468
84.9471
81.7769
84.4574
81.741
72.0534
73.044
94.762
83.6947
79.8394
70.9476
83.8908
77.0304
37.567
78.0285
77.6524
73.904
79.6075
110.561
77.1238
85.4242
80.2643
75.2269
91.3071
83.6933
70.128
73.7831
76.3266
74.1456
76.3619
108.533
108.841
50.9023
79.163
80.277
80.0979
91.51
83.2113
78.4411
86.1406
88.5142
74.1357
62.4213
110.502
80.5693
74.0328
77.2129
83.3798
107.775
77.131
55.6658
81.6126
80.2934
53.8346
94.2918
83.3007
72.7221
74.0412
111.496
101.084
79.5712
80.0109
69.5729
109.344
78.6671
83.9913
108.809
76.8753
74.1958
77.4385
79.4743
85.1936
86.9609
77.8536
78.4527
86.8905
79.1924
80.8125
79.4094
77.2618
106.251
79.7111
83.8804
78.9125
78.1693
77.7573
74.0024
81.4513
110.607
110.804
58.2143
73.3951
74.8627
84.2123
79.0052
56.0722
91.177
68.255
103.36
73.2589
72.4858
74.3844
76.984
76.9976
92.2063
77.9236
78.1937
78.3289
76.4354
79.9812
102.916
77.2435
70.256
96.6795
71.4747
73.187
80.7848
98.1573
79.3228
77.402
87.7058
79.5005
75.1454
112.288
95.857
84.1208
70.9049
58.4712
78.6468
77.745
73.881
44.6998
84.2507
79.4677
88.3216
81.8966
81.6651
85.1673
79.9697
76.4615
73.2061
79.7118
79.7429
74.9138
79.2274
79.1654
79.5504
80.1092
83.8638
73.4785
84.7806
81.1399
78.999
96.1007
84.2094
74.8553
76.57
69.6361
79.353
111.594
86.5082
77.5034
80.3537
77.2392
110.43
80.2254
83.9251
75.0448
79.251
83.975
54.1715
83.3305
78.077
90.567
80.3579
84.581
78.0574
79.1508
97.1212
60.5855
73.6529
87.8141
76.9943
78.4127
78.9194
76.6868
88.96
93.3265
51.2082
66.8092
75.2706
79.3935
73.771
72.8139
71.8354
90.7398
100.743
79.7935
77.7409
78.8771
75.0711
84.3413
78.0131
82.6687
76.9968
83.9009
84.5212
85.4816
71.7562
77.3133
78.4542
87.4731
74.2262
110.595
79.8087
83.9778
71.3874
80.0937
83.3578
80.2454
77.5993
112.553
80.2244
112.756
79.6379
85.8813
112.577
80.0382
83.4838
96.4579
78.9795
76.7853
75.7354
80.5288
79.1578
75.7739
77.5488
78.9986
74.2095
81.0267
79.164
83.22
80.135
80.9694
72.4004
70.4772
64.4691
84.2714
92.0918
90.002
75.6351
73.5691
80.8937
80.0115
75.9299
76.6823
76.33
70.9327
80.8074
103.385
80.266
83.7475
81.6432
110.29
81.4301
70.8889
79.296
79.0945
85.0321
74.3647
77.2348
77.8796
81.6244
83.8794
84.4
79.4268
84.8245
79.3047
79.091
73.4245
78.9442
77.689
76.3091
78.6193
111.618
79.9162
55.4263
81.0375
77.4103
79.0956
84.0994
74.1505
88.0688
78.7506
79.5046
83.191
90.1385
75.9127
73.1848
79.5438
77.3451
75.701
74.2375
87.5875
84.3844
81.9396
81.8613
106.976
100.213
80.0206
88.9789
87.9872
81.4355
70.7414
75.2796
80.4703
28.2521
84.6105
80.2939
78.9374
110.489
110.757
81.3725
76.8487
78.3021
72.7707
78.4625
79.4733
81.9849
74.8496
76.5661
76.2712
75.9106
75.1993
79.2073
77.104
77.5404
78.2474
81.373
78.7677
71.7827
77.762
76.6614
76.5842
72.6939
89.9922
90.9108
85.2178
81.7998
84.051
89.8542
79.2319
76.0472
80.0942
91.4942
86.8529
78.2778
77.9668
102.764
72.9082
104.764
67.9801
73.5286
89.5412
77.923
103.029
92.8814
72.2562
76.3219
83.8531
98.7603
80.6428
72.7032
79.4997
54.7853
80.1751
81.3132
76.4085
77.2477
79.3331
86.0457
81.9119
103.141
77.0238
78.1804
88.0977
71.908
71.0922
81.2734
80.0949
71.5183
76.3467
110.267
111.906
78.0619
84.1124
79.1822
73.4967
70.1402
70.6303
91.4317
113.331
102.249
84.7705
86.203
79.2042
72.7645
71.9646
84.0953
68.346
77.3471
76.2734
80.1058
72.6118
68.6828
72.9173
54.0333
76.3889
78.9727
101.685
84.8543
70.8225
80.7255
83.3973
78.0414
79.0637
80.4067
76.9537
77.6589
78.8057
72.9379
77.9776
71.7374
80.3063
75.7018
76.6589
76.911
65.9714
76.2614
105.859
83.5019
70.9047
78.7853
74.3489
96.4365
71.7935
72.7678
75.348
86.5168
112.028
54.7771
77.8315
81.3728
80.8401
70.4436
79.1958
74.8434
76.5974
74.1592
77.247
75.2244
75.3944
75.6907
78.2527
79.2268
79.513
83.956
76.0718
79.8503
75.0501
97.689
84.5962
111.775
111.182
72.1262
80.1239
79.7167
78.91
112.587
78.3434
76.0178
70.4761
79.8919
79.744
78.5991
75.8513
77.074
77.1037
81.0183
71.8757
82.8322
50.0559
77.0794
46.8052
52.1698
76.547
83.7847
80.1643
76.0899
76.6091
75.7477
71.1602
74.7355
76.8285
70.5296
91.2012
90.0517
71.8258
74.2334
74.4662
70.9723
87.7096
79.1807
74.8005
111.886
81.083
74.7888
80.9694
79.2339
75.4289
100.206
77.2331
73.732
72.59
71.7227
75.8204
78.387
81.4491
80.1454
84.0379
76.0253
117.483
111.454
80.0396
46.6709
112.224
73.9503
73.6648
80.3015
88.9561
80.6693
78.6007
76.9964
75.7527
8.97537
84.4749
73.6464
68.9501
97.1344
52.4744
101.492
77.8154
76.9044
78.3961
76.8948
77.2404
77.0717
76.5042
79.0183
77.317
77.215
77.1289
77.2042
75.2726
77.0224
78.502
77.2621
76.9975
76.4183
76.7983
75.7107
77.8283
76.9842
78.4918
79.1961
77.2353
77.1676
74.4603
76.534
77.1666
77.0249
74.9987
76.5674
78.6929
77.1021
78.5527
76.9024
77.0281
77.6661
78.4301
77.2191
76.9608
79.1559
74.8458
75.3383
73.3687
70.3376
56.5048
79.6249
76.8489
89.4769
80.2993
80.9767
80.9214
80.5504
81.9626
81.0356
77.6851
71.5323
46.9673
78.7662
78.4198
78.4171
81.1594
81.0906
79.23
75.1918
76.8181
75.4955
79.0631
78.3265
77.5727
76.9996
110.696
85.358
75.2413
68.1515
77.5134
42.6785
80.5918
75.0881
68.3478
92.887
70.5881
76.8014
77.0627
72.9778
106.602
84.2808
78.3767
76.0123
73.2442
82.8789
81.9384
9.61102
79.9966
77.9375
76.6762
74.1182
75.7715
80.2005
126.8
73.7309
78.6477
77.1618
76.9942
77.2912
76.9199
76.5117
77.2455
78.9556
77.0215
77.1988
74.9369
75.7162
79.2204
75.8503
76.7989
75.5443
77.6058
78.4411
76.8956
76.9953
76.968
77.4024
78.4498
87.9425
77.6891
113.117
95.7767
76.0882
82.8147
72.6484
80.3467
106.501
79.533
87.162
116.43
75.6016
75.6843
79.3206
75.5203
104.715
82.8736
66.6082
79.7289
79.1821
80.6176
72.8804
85.7788
80.6541
72.6643
85.456
80.6433
78.8501
77.1097
76.9808
73.3816
80.2751
73.6323
73.7757
78.8912
79.1904
80.3784
79.2792
75.1964
79.1867
80.8364
71.4044
79.264
79.3168
78.0329
79.9416
80.2987
84.1192
72.6507
74.7384
76.2014
75.5061
72.2313
80.211
84.142
94.0488
71.0283
109.334
77.8628
79.5304
80.7826
78.18
74.6012
84.1271
79.8541
77.2457
73.6289
77.9752
79.5514
73.0875
84.7222
79.19
76.3114
78.6327
81.7001
81.1722
87.5155
83.7722
77.2291
75.3169
74.6968
73.0533
75.896
70.3033
79.6843
77.2791
80.6416
75.7741
81.3181
73.7941
102.901
71.4678
76.5282
75.2129
84.3267
76.6578
78.6782
78.8968
78.408
73.1514
76.202
99.8229
73.2691
81.2863
70.6341
77.4126
105.744
105.093
78.8355
81.7031
75.9178
87.1271
76.3406
95.0953
82.1819
129.408
75.747
74.9813
92.0175
102.078
70.2517
73.1654
71.9376
115.884
70.7458
95.5965
72.3553
119.051
67.9562
74.9888
27.2853
78.3786
75.959
74.5905
78.2271
76.815
74.4374
83.1401
75.8459
79.1519
76.7711
69.3457
69.4504
77.3958
76.6183
69.6639
76.8456
69.7337
79.5399
69.6524
69.8914
76.0924
74.4112
69.5707
75.631
70.2993
70.0989
70.3539
74.7108
74.2979
72.5123
52.4111
75.8365
71.27
69.8846
75.648
79.3035
80.6908
69.087
69.7596
76.3917
79.1392
78.7557
77.2248
69.8613
76.7928
75.93
70.2999
75.0747
70.07
76.0163
76.868
78.7935
107.611
76.2925
78.6274
78.3542
78.7415
79.2245
76.3719
79.1754
75.8212
78.4436
79.2311
77.1728
74.8357
71.5968
75.1247
71.7346
80.0436
95.2335
79.9956
71.7858
70.9756
71.853
93.1236
69.4904
79.9826
94.7984
93.123
71.3424
70.602
67.3583
79.3379
69.1417
91.4548
97.3482
79.8687
72.2903
94.9903
69.1558
94.0211
79.6982
80.0295
79.1173
70.5779
72.7092
51.5376
80.0858
71.5944
67.5002
79.8619
70.6726
68.117
72.7158
92.9795
91.4774
67.6102
52.2565
68.6811
78.9636
68.8534
79.7806
68.0527
65.3851
68.4945
94.5303
72.5646
52.4763
64.4681
67.8953
67.8572
68.6775
51.1852
79.4321
133.621
69.2721
79.1
63.2994
68.7681
79.8677
70.4084
91.4073
70.5625
69.527
51.5195
52.3303
78.8457
76.0402
77.5591
78.4438
76.5338
69.9762
69.6011
73.0933
75.7587
76.4668
79.178
111.332
75.7766
79.0281
75.7531
75.3462
77.2792
78.7682
76.8259
74.3612
78.8862
70.8689
76.7133
76.4843
71.5567
63.2534
70.355
80.2683
77.23
76.9656
77.3065
77.7213
77.5616
78.8338
75.9442
76.8091
75.1447
79.1995
69.4384
70.6871
91.5207
76.7851
74.9574
71.9787
75.1366
78.0124
77.8101
78.9376
76.5115
77.0282
76.8252
78.5427
76.5529
76.3442
51.6928
78.3124
76.0995
76.447
77.8167
76.193
76.7896
67.9896
78.5267
76.6016
77.6099
76.6962
76.5239
75.4018
76.9339
77.6271
76.5108
78.2828
76.6412
78.6803
78.5817
76.7898
76.7422
76.7612
80.7094
78.4123
76.8196
76.9116
76.7099
72.2381
76.8732
79.038
75.7499
76.2999
77.4385
70.7745
69.0967
91.6387
75.617
70.989
76.8867
77.9013
78.3681
111.604
72.5981
72.0368
67.7503
77.7573
79.1332
71.6207
72.9632
64.8147
77.7117
70.2794
77.6758
51.8321
103.111
76.0301
73.2892
73.8054
80.4578
75.1426
76.6124
78.7241
111.865
73.4757
67.805
72.7071
70.6499
74.8257
76.7379
78.4
92.6144
71.3067
69.4108
112.139
73.3588
74.2955
67.8382
68.3781
51.6653
102.97
75.8016
68.4414
69.2904
68.382
80.2156
72.4839
70.0165
69.2753
72.0475
70.7169
74.4762
76.7778
78.3154
71.0913
68.7523
70.5659
111.949
73.9958
76.845
51.8823
53.3734
76.721
102.902
76.1755
71.8863
68.6985
73.4354
80.5163
80.2383
72.5656
70.1485
70.6744
71.9766
72.0304
94.7672
70.3802
99.7522
74.617
68.0364
70.4463
81.2195
81.3619
72.9828
68.8134
70.0805
74.4942
76.2978
68.4374
68.6855
69.4941
70.5785
71.0813
74.7052
76.727
78.1093
71.6926
94.5786
70.5376
112.161
77.7952
77.8342
79.6048
75.2794
68.1787
77.1751
76.8693
77.0393
53.0513
75.9702
86.75
78.9028
82.527
102.87
83.3856
79.2106
76.4084
74.2029
73.8908
73.4374
76.2255
72.2405
82.7662
80.4128
72.8261
87.63
82.4469
76.7016
76.9565
78.6439
78.7896
78.49
76.8896
76.8527
71.1694
74.8523
76.7511
78.1272
70.7066
72.3719
83.152
79.6468
82.5408
83.1479
106.188
79.8893
82.2106
75.7461
68.32
77.8285
77.1606
51.2699
74.9468
79.4831
81.2901
83.0495
84.3685
75.3974
77.8486
83.6683
76.4749
73.9422
73.0306
71.3001
84.8127
84.1039
78.1311
78.1224
78.0061
77.2178
71.7379
77.7173
78.2685
76.4669
71.8018
70.1718
86.0977
70.9848
73.1518
80.6522
77.5418
112.837
78.2258
77.857
73.2459
77.1429
75.1404
75.5174
71.9011
71.7467
77.734
79.2543
79.0612
78.6203
77.8338
74.9435
76.6867
78.0421
78.5155
78.4954
78.5948
72.172
96.589
71.2596
70.9268
76.3198
76.5936
76.8501
77.9468
76.3187
74.3281
76.0441
74.4525
78.8394
85.4404
77.422
77.3871
84.0361
79.4376
105.396
76.8335
76.9029
78.0775
112.308
80.225
76.014
67.9407
84.7629
73.1305
77.4147
75.5791
79.3675
77.1556
78.3014
78.8483
70.4694
78.0685
76.8082
78.6118
110.996
75.3495
76.1795
82.0067
79.7011
72.7541
78.1747
78.1772
77.6608
77.0755
79.827
72.3078
78.097
76.7897
70.402
77.2954
81.7478
77.3853
78.7248
76.8452
69.0992
77.7413
79.9231
102.823
103.588
79.5007
78.7439
76.7849
78.4556
103.173
76.5949
76.6796
76.8612
77.0071
104.292
78.2778
76.6978
70.0226
73.6899
78.1609
75.3139
74.3581
78.0315
73.971
70.7897
72.8928
82.9609
79.161
81.9973
111.762
78.6872
77.989
70.5508
78.2263
74.6123
77.106
76.8836
80.3959
75.9073
76.2386
77.7181
72.1717
71.7235
84.0112
78.1967
80.9122
72.7134
85.0696
76.4798
76.5955
75.3469
76.722
78.1487
82.7193
68.4878
70.6873
78.5839
79.3681
81.2377
75.9537
69.6754
80.8718
73.5249
70.5466
75.5242
77.7974
83.4521
76.6513
76.7216
70.4814
71.4147
79.0956
69.7648
89.4013
70.6782
114.759
76.3211
68.934
71.2178
75.4148
77.794
68.0114
78.8848
72.0369
78.4923
106.329
71.9003
95.9881
71.9534
79.5367
76.6438
76.9331
69.8793
83.7145
93.2583
69.6987
82.4943
87.8757
93.942
70.2834
81.3674
75.6928
78.7922
75.9341
79.2205
112.413
71.3061
78.9449
74.5369
80.6777
49.1789
78.6566
76.7606
68.1853
72.1424
77.2164
76.4723
69.6555
76.2377
79.3105
75.2581
80.062
79.4102
69.7624
70.4397
70.0159
77.6158
52.8576
78.5602
75.5031
98.0095
79.8126
71.2286
79.551
33.5511
89.1524
81.2905
81.1694
80.545
83.6559
111.775
78.6121
78.95
80.5449
119.431
84.0076
75.0346
69.9698
79.7599
75.4766
80.1015
72.0251
78.0076
79.5084
75.6477
75.8486
104.256
76.7884
70.9151
78.4853
79.4314
80.5457
77.0384
77.9501
81.7553
76.8965
78.1527
123.582
77.2569
73.1013
75.4704
75.09
79.2195
75.8806
110.562
78.0442
78.811
78.9728
77.2055
60.5554
111.144
77.8294
77.8602
70.2379
81.3182
86.1897
83.1455
73.8209
77.9106
84.0636
76.5909
77.6235
72.0767
80.3692
82.1933
87.6705
72.535
79.2083
70.9042
73.9669
77.2722
78.4999
81.2183
77.7971
80.2425
72.501
78.7931
79.63
73.1647
82.6457
71.4541
73.0554
69.8606
77.5988
79.8159
76.4544
87.2176
69.284
77.5835
76.5384
75.3637
73.62
76.9365
80.7425
83.2414
84.2801
78.7132
76.6912
78.0913
65.3456
79.2392
76.0248
77.7893
76.5365
99.4625
69.7935
77.1903
77.3419
88.1178
72.4387
71.3754
75.6734
77.0901
79.2099
73.2905
98.3151
73.3337
77.9572
77.7492
77.4481
72.0482
81.4427
74.5421
78.0688
72.6613
72.6045
96.6784
76.501
80.9106
83.4952
75.3498
76.6722
78.0857
73.0172
80.7676
78.1422
82.2874
79.891
69.8359
78.1899
76.253
75.8235
67.5952
78.8763
80.1451
79.4397
79.4422
82.6071
80.1036
76.1015
75.6744
76.7703
78.2578
119.785
94.8744
75.8989
78.454
87.8162
95.9155
95.1917
74.2426
71.5736
76.612
78.2927
77.2377
79.317
82.3615
111.381
75.0548
78.7164
69.5355
71.4375
93.2012
79.2211
75.5782
75.1373
76.3382
76.2787
76.8754
74.822
79.6876
48.9747
62.5199
79.9259
76.4801
80.3126
74.9706
72.7525
75.5569
87.1477
80.1079
103.087
77.3945
74.6132
76.1441
77.3728
74.0769
80.113
77.7779
76.2514
75.9034
86.1851
77.213
76.0983
72.6623
110.509
79.9019
77.1062
69.5687
72.7158
110.681
111.571
77.0316
77.7853
77.147
78.5957
75.2214
77.6503
18.436
79.4493
105.823
70.5534
78.0797
80.6661
85.219
108.871
75.0234
75.5516
76.802
78.2607
78.2739
101.85
70.5003
75.8421
81.1443
82.632
80.2442
79.1152
76.6616
75.4488
83.9327
110.988
90.4866
78.7445
79.2453
74.973
75.5602
77.671
76.496
77.0202
78.0348
80.4557
75.8606
80.2061
70.1154
73.427
104.183
72.0204
80.1402
83.9053
77.6108
45.2037
76.3801
76.6083
75.5718
76.7542
78.2296
91.4448
78.9127
72.8729
74.0636
85.6407
76.8653
79.6005
77.4244
77.1988
81.1246
81.6538
78.5713
68.5029
73.9641
79.9689
76.5362
77.7396
78.4961
71.3658
76.8844
83.4015
75.0127
76.3735
78.8238
83.9321
80.3647
76.3704
75.2461
104.201
105.918
77.9355
80.4564
76.609
79.1098
78.8932
78.7347
85.3935
83.9354
81.8785
74.9971
87.9742
78.1278
78.7571
75.7994
76.8197
75.678
79.4551
70.7504
71.3992
73.4307
97.5347
78.8336
77.6534
76.5324
79.88
76.3829
72.7575
77.7448
76.5582
77.1843
81.7722
78.6071
67.802
86.5604
81.5026
85.5336
76.1556
75.7643
76.8873
76.6919
75.9364
84.2204
83.3628
78.2657
76.924
80.0677
80.6631
76.4929
75.4066
80.5996
79.4604
78.9214
77.5161
78.7464
80.9831
80.2901
76.6155
77.8815
77.9845
84.4267
75.8636
77.034
78.7933
70.3268
77.393
78.9771
76.5806
77.9306
75.8239
76.5248
79.7024
111.134
71.8618
50.0442
87.5325
72.8611
75.9261
79.5159
78.4051
77.0301
78.4737
79.6135
77.2251
78.6092
84.0786
85.7214
102.656
80.1297
76.5477
77.8333
79.6452
102.671
72.626
81.2167
77.2463
80.3412
101.928
70.3011
74.9009
76.4329
73.6206
112.621
83.3886
76.0272
79.1843
93.4662
71.326
86.5414
79.116
75.5957
76.8357
77.6672
75.4666
77.6594
79.0824
75.8767
79.0712
77.1939
78.681
75.8496
77.5601
79.1856
76.4658
69.1242
78.9944
79.414
81.1807
80.5994
79.1135
78.5136
75.0971
77.1888
71.0397
80.5484
101.105
79.501
72.7701
77.77
43.9625
79.2197
107.971
79.1083
78.8979
80.0014
69.6066
77.6352
76.5973
74.5668
80.7564
69.9739
76.7494
79.3021
103.588
72.932
71.1353
77.1431
78.5503
113.195
71.4205
76.5477
78.9053
76.6128
75.2258
82.8707
77.7688
72.7661
75.3284
76.9604
78.4319
77.2752
76.3621
78.6426
74.4844
81.867
68.4798
76.5263
76.9986
67.9802
56.9549
84.1744
92.9706
74.951
78.5823
111.158
63.6221
97.4011
83.0996
75.6087
76.9264
78.4309
71.9505
88.2494
74.5907
77.7371
78.6454
80.8818
71.0881
104.939
114.292
75.7468
97.1075
83.7071
110.389
80.735
75.3401
75.5128
76.6675
73.4759
79.0289
95.8816
70.449
79.2543
77.0732
79.1431
111.004
75.1246
97.8007
72.8554
71.9526
67.9238
75.9568
79.1737
78.5933
76.6965
75.7578
78.0295
79.344
76.7621
76.2168
77.3069
72.1198
76.8936
76.3177
85.6794
84.498
37.3354
110.61
80.3996
78.9509
80.0758
70.613
76.9584
69.0347
78.2226
82.0082
77.7401
77.4957
79.6661
95.0171
72.2861
71.6341
94.7434
78.3311
77.1857
79.4619
84.2872
31.9691
70.9844
70.5193
91.2585
72.5808
87.431
85.8056
83.8582
87.0899
79.0013
82.6658
73.1093
112.912
81.0732
78.3972
80.9843
84.967
41.4381
76.9391
76.4049
76.0682
70.2898
68.3728
68.4261
81.166
94.1545
75.1357
80.8872
77.1366
102.49
75.8318
70.0701
76.3706
75.5828
76.7144
78.0664
81.2662
80.7974
79.253
77.5594
93.5762
73.4806
92.9232
74.9038
72.7682
86.9201
79.8762
112.529
78.9736
80.4303
87.2769
98.2382
72.5787
71.9154
78.0256
76.6544
71.1538
78.6146
109.818
75.0951
87.3214
77.0617
78.7851
87.3981
109.154
110.382
69.9305
79.4116
81.5139
82.2493
76.797
77.9349
72.2581
87.194
82.1083
79.436
79.8877
79.1384
77.0586
65.6335
79.4001
110.202
83.6245
75.092
76.813
75.5971
73.4354
104.143
81.6787
76.8242
102.628
79.5298
99.6279
93.7322
81.7959
109.656
76.4075
110.45
87.4617
76.8896
78.0741
86.3786
72.2931
91.4022
76.2291
84.9037
25.1677
80.3801
108.809
78.0056
89.0117
76.3741
89.8827
72.8729
109.447
110.3
81.7
94.281
82.3736
75.8656
77.1784
79.0437
76.1139
77.0383
90.5547
79.69
92.2216
90.6058
81.95
76.7274
78.0462
111.674
76.9021
77.692
76.7143
83.3602
74.4944
84.25
84.7045
79.3479
94.1065
73.2801
76.1966
77.2658
77.5574
80.2255
92.4168
110.769
73.7206
96.7171
88.956
75.8051
80.4058
80.5263
80.1091
81.3459
80.2435
110.507
83.76
77.3553
83.7593
76.4325
97.9917
70.0556
73.8067
67.9454
73.7882
76.9679
76.8764
74.1016
77.5094
81.5655
78.6357
72.9779
70.1863
72.5508
76.8147
95.2978
85.9522
86.6104
80.1669
80.3087
73.0005
91.4389
78.0307
72.9978
70.8721
80.1624
79.2918
71.9958
77.7415
52.8917
80.8083
81.0468
85.7241
76.7721
76.554
78.1879
110.162
77.1494
102.823
80.0839
77.0642
70.0678
77.5353
79.8472
72.9792
85.8989
87.7841
72.4043
97.6251
72.2942
77.5954
78.8058
78.3487
70.5953
74.7801
53.9123
51.0675
76.3821
69.2577
74.2876
75.7617
78.7235
77.2094
75.6184
79.6917
76.8775
77.7657
80.4631
74.1149
77.3386
77.7814
68.1423
112.875
78.4822
73.2695
75.473
72.9572
89.771
77.4581
76.9274
74.0682
86.9827
99.2368
73.0058
72.4781
72.4541
76.777
43.7563
75.6796
79.2523
93.1841
111.338
79.9704
84.3035
79.2299
77.6867
73.8297
75.8492
74.0206
87.3321
79.287
78.7911
76.7569
76.5056
78.119
77.3909
76.7281
72.4664
94.8448
69.2843
71.1495
83.183
76.7721
78.1982
71.147
72.7014
91.3395
70.4578
72.8434
74.8889
73.246
79.0854
72.7527
69.4633
63.3067
86.3362
74.2009
97.2372
107.566
125.553
85.919
87.5111
113.14
76.6266
76.9024
79.1395
107.305
76.9845
82.7122
8.27652
84.0239
75.6892
73.0219
79.6937
76.9017
78.364
76.0541
72.5507
81.3427
74.5731
79.1189
74.8666
83.5523
75.4128
112.591
79.5736
97.2028
75.3653
72.6842
74.7258
77.4357
78.6957
78.9894
72.9533
73.3851
77.4312
83.8422
30.6531
99.568
73.1655
74.4292
79.7111
81.3645
70.8579
77.0083
75.1114
73.8012
79.5327
79.2773
79.7068
75.5897
86.1669
76.7959
77.2566
76.7091
75.0535
103.738
78.107
78.0687
76.7874
76.9409
84.7613
91.9988
70.5598
83.6626
72.9298
72.0749
72.7055
73.327
75.7455
73.1391
76.985
74.7779
75.8064
79.7185
112.646
77.2952
78.6492
112.14
78.6171
86.6035
78.9401
63.6499
85.4316
85.1986
79.53
82.676
79.4308
82.784
82.9003
86.0757
84.2387
80.8434
73.2835
70.9079
77.0698
74.8199
88.9186
80.4735
70.2418
80.3296
77.6323
77.4379
84.7081
77.9003
68.0793
78.7558
86.1909
76.8041
79.3138
79.4055
79.2984
83.941
54.499
73.8398
77.3545
78.6973
78.9064
77.1684
76.881
76.9346
78.2919
77.5506
72.9573
78.7624
108.957
79.3136
80.1463
78.6878
72.6233
76.2292
83.7875
78.4505
75.6577
77.4322
74.9767
73.1904
79.616
78.0744
100.609
97.3953
72.5762
71.2096
76.3473
79.0349
80.3952
74.16
76.9768
111.175
85.5084
75.827
101.043
81.4384
67.9275
71.9831
72.648
77.2048
68.5554
80.8818
85.902
75.5956
73.2017
86.9196
82.5807
84.1252
73.1308
114.862
70.7461
82.9472
78.7311
81.0388
81.2109
99.2707
109.958
78.2928
73.8247
75.8609
95.0923
69.8269
76.3165
78.8111
76.7211
75.3879
76.5482
73.9365
76.3298
78.2294
81.5709
71.945
70.4861
91.2773
80.1242
79.2633
70.3008
70.7351
77.4593
87.676
69.0393
77.3203
69.71
77.796
76.7437
80.0295
84.0442
78.0302
14.2862
83.4494
78.6198
75.7874
73.7114
78.2087
77.0293
75.7181
78.9799
76.8625
79.2856
74.044
81.4281
106.945
72.7029
110.99
76.96
78.042
81.6429
76.768
75.4108
75.0313
48.5077
103.033
83.7051
80.7989
75.8317
77.7998
70.7889
68.5936
86.4817
77.0289
84.2775
83.914
78.134
85.0191
42.9627
78.4497
75.9379
76.9291
68.9006
76.7432
76.2166
71.0147
76.2389
50.7224
69.5046
78.0057
73.185
77.9452
78.2367
73.1069
72.5221
78.9274
82.7564
94.5805
81.4511
70.0785
73.51
72.6188
75.8496
70.8052
78.968
113.161
103.634
78.2977
68.6259
78.3228
77.3975
73.7206
78.7234
70.9611
102.531
85.1132
85.4733
78.0061
73.461
75.2376
71.4473
85.714
78.8154
97.5318
72.7664
70.0548
76.9323
78.2862
112.674
80.3667
73.6613
72.9077
80.2497
70.1355
73.9034
43.7778
93.2362
77.9797
76.9996
66.4721
73.0289
75.7696
75.4597
73.6784
76.7809
80.255
78.9015
77.6258
112.305
74.239
79.2256
80.5565
78.4186
53.5545
76.8004
71.8763
95.8018
69.7878
75.6387
82.2322
84.1505
77.6284
78.7849
77.6278
72.5424
76.6262
77.5408
75.6235
110.15
77.0754
76.0955
78.9582
76.6529
67.5585
66.9524
70.4217
69.923
75.6437
73.4049
76.0128
84.4564
78.5036
77.6618
101.716
62.858
70.6003
53.1971
76.8718
77.8903
71.3369
70.2495
77.0105
80.774
67.1856
79.1326
103.754
73.3894
69.7466
97.8179
109.228
101.562
74.7002
78.446
84.9724
78.7769
75.9536
69.7443
67.9194
69.3533
72.2347
92.7617
92.2676
86.2056
77.5481
75.645
72.3804
84.35
80.5566
80.1022
87.3857
79.5282
78.5451
110.085
75.8407
76.0178
76.3538
73.0303
76.8274
78.7111
76.3899
80.3865
76.8142
76.2103
78.1675
67.7635
71.0528
69.3541
75.2873
74.2644
73.9281
76.3712
73.3943
72.8051
84.3751
93.2945
77.214
76.7232
77.3043
77.191
98.4626
107.103
77.0761
82.0869
100.771
72.7352
86.0332
77.0489
78.5828
76.8256
78.2618
75.7356
79.7895
78.2899
77.2424
78.9923
79.2393
111.699
72.8563
79.8055
81.3957
79.263
78.2825
81.3701
73.4512
77.9356
76.5706
83.8587
105.982
77.8744
75.8462
68.6845
77.5895
70.4274
74.2847
74.5371
70.2702
81.1921
80.0992
76.5498
77.2322
54.452
79.0149
110.691
78.1311
75.0141
70.4181
108.713
78.1571
46.9537
84.5693
79.7437
79.8653
80.0379
81.4871
79.1235
77.5919
77.1487
80.1911
74.845
77.4381
78.8884
76.033
77.3861
84.6258
111.456
72.7092
72.5733
75.5849
76.6673
79.6858
77.8156
91.9736
70.6322
73.2242
83.9804
77.7113
83.5753
72.024
84.0329
103.236
78.8122
79.8456
79.2284
77.3947
112.714
75.0604
79.6441
73.5285
75.065
74.6742
77.1854
74.6024
111.274
86.6345
78.8822
77.5625
73.3985
84.3419
81.1207
69.4351
77.4197
78.1883
79.4983
72.6085
51.3087
75.7142
76.6565
94.9961
112.584
78.0606
84.0992
79.4707
110.706
73.0059
83.7701
77.788
47.3894
53.2626
78.5048
52.3095
78.9286
47.8624
75.4824
95.0435
78.2885
78.078
79.5437
79.4833
79.3692
79.4273
77.2743
77.2852
77.2626
77.2173
79.6212
77.135
54.5105
74.1559
73.7088
73.074
73.34
50.3452
74.6226
72.9266
72.2016
73.8471
73.0507
71.7858
57.7939
44.7389
71.6919
63.1119
60.4227
72.0566
74.7134
79.827
79.311
79.5951
79.9711
72.1781
77.0552
79.0411
73.7764
79.7052
74.2937
72.2443
75.659
72.994
78.8484
80.7743
97.3607
98.6736
74.3913
82.3756
79.7276
72.4305
78.7128
84.5241
97.0456
101.537
90.2138
87.4171
105.662
109.849
113.998
112.765