/*--------------------------------*- C++ -*----------------------------------*\
| =========                 |                                                 |
| \\      /  F ield         | OpenFOAM: The Open Source CFD Toolbox           |
|  \\    /   O peration     | Version:  v1912                                 |
|   \\  /    A nd           | Website:  www.openfoam.com                      |
|    \\/     M anipulation  |                                                 |
\*---------------------------------------------------------------------------*/
FoamFile
{
    version     2.0;
    format      ascii;
    class       surfaceScalarField;
    location    "0.37";
    object      phi;
}
// * * * * * * * * * * * * * * * * * * * * * * * * * * * * * * * * * * * * * //

dimensions      [0 3 -1 0 0 0 0];
oriented        oriented;


internalField   nonuniform List<scalar> 
11117
(
-3.84957e-05
3.2675e-05
1.93637e-05
-1.35431e-05
4.09419e-05
0.000196245
-2.66962e-05
-0.000210491
-7.71596e-05
9.85991e-05
-3.31781e-06
-1.81217e-05
-0.000525038
-1.79784e-05
0.000251424
0.000291593
0.000207014
0.000343648
-0.000244673
-0.000305989
-3.41327e-05
6.2471e-06
-0.00015544
0.000183326
-0.000703387
-0.000122984
0.000613986
0.000212385
0.00033993
3.07386e-05
-0.000292392
-7.8276e-05
0.00124954
0.000245018
-0.000886857
-0.000607706
0.000376075
-0.000327539
5.04455e-05
-9.89812e-05
-0.000887427
0.000959859
0.000306035
-0.000378466
-2.16253e-05
-0.00014958
4.38923e-05
0.000127313
-0.000508785
-0.000224456
0.000313322
0.000419918
0.000329266
-0.000482795
0.000277338
-0.00012381
8.36502e-05
-7.34811e-05
6.62808e-05
-7.64498e-05
-4.49487e-05
3.7816e-05
-5.87344e-05
6.58672e-05
-0.000145218
0.000408862
-1.16738e-05
-0.00025197
-0.000580849
0.000689803
0.000476006
-0.00058496
0.000135864
0.000108225
-0.000160439
-3.02779e-05
1.60469e-05
0.000113966
-9.97351e-05
-0.000333141
0.000178447
5.68903e-05
9.78029e-05
-1.51004e-05
1.35037e-05
8.95357e-05
-8.7939e-05
0.000695254
0.000556321
-0.0005167
-0.000734874
-0.000170711
-0.000205835
0.000201483
0.000175064
-5.55839e-05
-5.66414e-05
1.78761e-05
9.43492e-05
0.000847528
-0.000873442
0.000308821
-0.000282906
0.00027137
-0.000324801
0.000890593
-0.000837161
-0.000330594
0.000360695
-0.000522665
0.000492563
0.000171317
-7.69835e-05
0.00101212
-0.00110646
-2.33111e-05
1.59384e-05
-2.27194e-05
3.00922e-05
-9.26275e-05
0.000252271
-1.58623e-07
-0.000159485
-4.87186e-05
-0.000219299
0.000185101
8.29162e-05
-0.000113252
-0.000451954
0.000373928
0.000191278
0.000155567
4.98785e-05
-0.000125448
-7.99976e-05
0.000341399
-0.000153163
6.93828e-05
-0.000257619
-0.00018644
9.61869e-05
3.63293e-05
5.39241e-05
0.000594118
-0.00081819
0.000998149
-0.000774077
5.23898e-05
-0.000147012
3.93538e-06
9.06865e-05
0.000595445
-0.000157754
-0.000760687
0.000322995
0.000286856
0.000236285
-0.000289569
-0.000233572
3.3777e-06
-1.10774e-05
-2.4503e-05
3.22027e-05
-0.000200678
-0.000109598
0.000114455
0.00019582
0.000996143
0.000876276
-0.00088055
-0.000991869
-0.00010404
2.83204e-05
-2.0105e-05
9.58243e-05
3.58738e-05
0.000142359
-4.23684e-05
-0.000932264
0.000740214
-0.000225798
0.000417848
-0.000404406
0.000281537
-7.63706e-05
0.00019924
0.000350066
-0.000402844
0.000223443
-0.000170665
-0.000214443
0.000214854
-0.000139563
0.000139152
-0.000127767
-4.16492e-05
0.000169417
3.63929e-05
1.68953e-05
-5.32882e-05
-0.000360126
-0.00116865
0.000529058
0.000999715
7.09968e-06
6.22294e-05
5.2436e-05
-0.000121765
3.18925e-05
-3.6026e-05
0.000110305
-0.000106172
1.54561e-05
-1.54561e-05
0.000420429
0.000172402
-0.000549018
-4.38134e-05
0.000137253
8.88184e-05
-0.000200253
-2.58192e-05
-0.000177642
-0.000100411
0.000253209
2.48438e-05
0.00087368
0.000113521
-0.00134904
0.000361839
-0.000435008
0.000711736
0.0005708
0.000851974
-0.00086497
3.80334e-05
-2.50369e-05
0.000193282
-9.85974e-05
-9.08725e-05
-3.81178e-06
-0.000130785
-0.00013797
0.000176128
3.05395e-05
-1.39917e-05
-6.52664e-05
0.00011005
-3.22813e-05
-0.000191021
-4.71329e-05
-0.000184329
0.000151069
8.03935e-05
9.4035e-05
-6.34387e-05
1.5673e-05
-4.62693e-05
7.50119e-05
-0.000174667
9.96556e-05
-0.000451035
-0.000235572
0.000312486
0.000374121
3.74363e-06
5.7064e-05
8.52766e-07
-6.16604e-05
0.000495069
-0.000154796
-0.000700398
-0.000138465
0.000141934
9.05662e-05
-0.000282624
-0.00128936
0.00133197
0.000240012
5.28675e-05
-9.93733e-05
2.75576e-05
1.89482e-05
-0.000572876
-0.000459008
-0.000294331
0.000182396
0.000347398
-0.000235463
0.000175547
-4.13034e-05
-0.000134244
-0.000844943
-0.000171925
0.000143426
-0.000101904
4.77381e-06
-6.90916e-06
-7.01568e-05
-8.7253e-06
7.88822e-05
1.19106e-05
2.79901e-05
-5.74744e-06
-3.41533e-05
0.000111523
2.97542e-05
7.96299e-06
-0.00014924
-1.96964e-05
8.75423e-05
-0.000151493
8.36473e-05
-0.000306093
0.000320484
0.000278211
-0.000292602
-9.05342e-05
-0.000200985
0.000185165
0.000106354
6.48503e-05
-0.00052152
0.00045667
-8.12626e-06
-0.000513286
0.000521412
3.29266e-05
-0.00049265
0.000459724
8.5821e-05
-4.44043e-05
-8.99822e-05
4.85655e-05
-0.000112356
0.000139331
0.000383726
-0.000410701
0.000529611
-0.000158526
8.06269e-05
-0.000451711
0.00066059
4.75785e-05
-4.50363e-05
-0.000663132
0.00076874
-5.7716e-05
6.12049e-05
-0.000772229
-0.000702856
3.87935e-05
-2.76036e-05
0.000691666
-0.000645942
5.38158e-05
-2.42687e-05
0.000616395
1.72087e-06
0.000205097
-0.000295387
8.85695e-05
0.000592492
2.19209e-05
-2.23637e-05
-0.000592049
0.000736163
4.95188e-05
-3.50773e-05
-0.000750605
0.000625404
5.00988e-05
-2.64573e-05
-0.000649046
0.000824505
5.46908e-05
-2.72214e-05
0.000406047
7.80205e-05
-0.000425088
-5.89795e-05
-8.70235e-05
2.74994e-05
3.72426e-05
2.22815e-05
0.000305318
-0.000376818
-0.00115864
0.00123014
0.000505401
0.000372853
-0.000606446
-0.000271808
1.91215e-05
-0.000115288
6.90548e-05
2.71112e-05
-0.000998108
0.000276077
0.000923249
-0.000201217
4.29349e-05
-5.86281e-05
0.000149044
-0.000133351
2.38347e-05
2.17812e-06
3.14286e-05
-5.74415e-05
-0.00022197
8.52037e-06
8.47015e-05
0.000128748
-9.14677e-05
4.83258e-06
-1.52693e-05
-0.000283737
0.000133832
0.000147079
2.82667e-06
0.000131229
6.60169e-05
-0.000137782
-5.94635e-05
-0.00041682
0.000340629
-0.000195519
0.000271711
-3.08295e-05
4.33849e-05
3.83028e-05
-5.08582e-05
0.000102732
0.000561509
-0.00064144
-2.28008e-05
0.000120936
0.000653221
-0.000736528
-3.76291e-05
1.10629e-05
-1.76057e-05
-1.18485e-05
1.83913e-05
-0.00056536
0.000516278
0.000998945
-0.000949864
3.16988e-05
-1.77108e-05
-0.000878958
-0.00103631
9.32857e-05
0.000958367
-1.53398e-05
0.00108327
-0.000759836
-0.000888794
0.000132922
-0.000103897
-2.90253e-05
0.000137136
-0.000139424
0.000201876
-0.000199588
-0.000357783
-0.000267141
0.000113901
-6.54184e-05
-9.5946e-05
4.74632e-05
-0.000365194
0.000416491
0.000639163
-0.000690459
-0.000192945
0.000230382
-0.000183672
0.000146235
1.44584e-05
0.000169987
-0.000156073
-2.83718e-05
0.000568909
-0.00086649
-0.000109344
0.000406925
4.955e-05
-5.56587e-06
4.82597e-06
-4.88101e-05
-0.000143713
0.000323023
-3.80951e-05
-0.000141214
0.000182729
2.95e-06
-0.000210343
2.46636e-05
9.22274e-05
-6.68185e-05
-4.90112e-05
2.36023e-05
-0.00080112
0.000105713
-0.000149536
-0.000338967
0.000306794
-0.000756747
0.000788921
-1.88697e-05
6.65379e-07
-5.52768e-05
-0.00044193
4.18736e-05
8.66242e-06
0.000391393
6.29571e-05
0.000159146
-2.88218e-05
-3.21862e-05
-2.20677e-05
9.9326e-06
4.43213e-05
-2.43283e-05
6.99996e-05
8.291e-05
-0.000128581
-6.77435e-05
-0.000242137
0.000131155
0.000178725
0.000221687
-0.000795968
0.000834191
-0.000259909
0.000105518
-9.37326e-05
0.000151277
-0.000163063
0.000913993
-0.000378084
-0.000477707
-5.82021e-05
-3.22423e-05
-2.04499e-05
2.21648e-05
3.05275e-05
-8.0976e-06
0.000410318
-0.000145542
-0.000256679
0.000316856
-0.000171005
-8.71488e-06
-0.000443009
0.000993417
-0.000570737
2.03284e-05
0.000105744
0.000224458
-0.000164154
-0.000166048
-0.000492911
0.000771988
0.000174713
-0.00045379
0.000918484
0.000445067
-0.000608237
-0.000755314
-5.02228e-05
3.2797e-05
-1.98962e-05
3.73219e-05
-0.000550233
-8.37697e-05
-0.000364105
6.44715e-05
-0.000137159
-8.28988e-05
0.000155587
-0.000648561
-0.000389628
0.000656204
0.000381986
0.000435306
-0.000111437
-0.000323869
0.000289353
-2.39212e-06
6.64127e-05
-6.40206e-05
0.00095327
-0.00022797
-0.0007253
-3.81443e-05
-0.000263529
0.000129716
0.000133812
0.000135708
-0.000593202
0.000457495
0.000321095
-0.000456342
0.000135246
-0.000117044
0.000515296
-0.000398251
-0.000455279
0.000516762
-6.14832e-05
-0.000456472
0.000453558
2.91367e-06
-0.000200905
-9.03102e-05
0.000291216
0.000340469
4.23954e-05
-0.000382865
-0.00027449
-9.24733e-06
0.000112756
1.84726e-05
2.65733e-05
-5.13326e-05
2.47593e-05
0.000207363
0.000182994
-0.000390357
0.000234167
-0.000299562
6.53949e-05
-0.000313138
0.000379693
-6.65548e-05
-0.000140971
0.000233377
-9.24067e-05
-0.000755484
0.000916886
-0.000161401
-0.000120071
8.84921e-05
3.15793e-05
0.000109981
-0.000242232
0.000132251
0.000255829
-0.000490926
0.000235097
0.00093953
-0.00102458
8.50523e-05
-0.000312523
0.000317944
-5.42044e-06
-6.01909e-05
0.000124146
-6.39552e-05
0.000284618
-0.000325937
4.13184e-05
-0.000274714
0.000319876
-4.51622e-05
-0.000112047
0.000192014
-7.99671e-05
-0.00016199
-0.000154346
0.000316335
-0.000116127
2.91038e-05
-0.000220217
0.000133564
8.66531e-05
-0.000315407
0.000251388
6.40193e-05
2.51211e-05
2.3783e-06
-0.000215094
-0.000672333
-0.00017113
-4.81689e-05
-0.000366366
-8.55886e-05
0.00030672
-5.44489e-05
0.000301169
-0.000118439
-7.55806e-05
-6.81325e-05
-0.000302535
4.7283e-05
0.000255252
-0.000686234
0.000172204
0.00051403
-3.41253e-05
0.00014235
-0.00107562
0.00138094
0.000638253
4.27568e-06
-0.000642529
-0.000960691
-0.000207956
0.000145848
0.000204218
-9.09206e-05
6.1002e-06
8.48204e-05
-0.000355381
-4.90254e-05
-0.000789434
-0.000142829
0.000171242
-0.000296943
0.0001257
3.32468e-05
-1.38459e-05
1.42122e-05
-3.36131e-05
-0.000125235
6.30719e-05
0.000568218
-0.000506056
-0.000836308
0.000866616
0.000601153
-0.000631461
-4.64542e-05
1.36266e-05
8.42198e-05
-5.13921e-05
-0.00116746
0.00112517
-5.199e-05
9.42792e-05
-0.000121755
0.000101403
-9.66929e-05
0.0004428
-0.000368048
6.0955e-05
-0.000312315
0.000457276
0.000356894
-0.000501854
-0.000158377
0.000204478
3.76258e-05
-8.37259e-05
0.000238545
-0.000330687
-0.00059795
0.000690093
-9.11903e-05
9.58822e-05
8.75355e-05
-0.000206196
5.05914e-05
0.000601369
-0.000445764
0.000788348
-0.000684495
-0.000186536
8.26832e-05
-0.00137846
-3.49525e-05
0.000245959
0.000264038
-0.0003241
7.08972e-05
-1.08352e-05
0.000251759
3.42477e-06
-4.3754e-05
-0.00021143
0.000743405
-0.000198678
-6.55344e-05
-0.000479192
-0.0003761
-0.00026815
4.61323e-05
0.000598118
-9.65893e-05
5.92957e-05
0.00119237
-0.00115507
-6.76441e-05
1.30302e-05
5.4614e-05
3.70885e-05
-0.000164933
-4.96112e-05
0.000177455
0.000159386
9.98412e-06
-4.31251e-06
-0.000165058
7.10612e-05
-6.95625e-05
1.8466e-05
-1.99647e-05
-8.64232e-05
0.000166404
-0.000221245
0.000141264
0.000100201
-0.000117874
0.000253067
-0.000235394
0.00017805
-0.000258371
-1.82936e-05
9.86147e-05
0.000129006
-3.51747e-05
-0.000205616
0.000111785
8.07052e-05
-9.24557e-05
3.45487e-05
-2.27983e-05
2.89233e-05
1.9449e-05
-0.000889993
0.000841621
-6.18071e-05
1.69437e-05
-0.000730953
0.000775816
0.000885242
-0.000889039
6.7956e-05
-6.41581e-05
0.000186483
-0.000289603
-0.00015331
0.000256431
-1.67503e-05
-8.92161e-05
2.03853e-05
8.5581e-05
-0.000188999
2.76916e-05
0.000123601
3.77058e-05
0.00016124
-0.000146685
4.65808e-06
-1.92136e-05
5.30504e-05
0.000618155
-0.0003399
-0.000331306
-2.40373e-05
0.000152362
-6.38535e-05
6.90374e-05
-5.67786e-05
-3.62961e-05
-2.52033e-05
3.79308e-05
0.000121104
-0.000187216
0.000162202
2.24752e-05
2.53828e-06
0.000214357
-0.000172676
6.40625e-05
5.35042e-05
-0.000553678
0.000500173
5.83893e-05
-0.000588857
0.000530468
3.40567e-05
-0.00045174
0.000417684
0.000106102
-0.000109186
-4.40493e-05
-0.000539181
-2.70278e-05
5.6385e-05
-7.5635e-05
4.62777e-05
-2.09818e-05
3.13409e-05
-0.000949854
0.000939495
-0.000255802
-0.000494425
0.000565996
0.000184231
0.00104445
-0.000446701
-0.000798773
0.000201027
-0.000652388
0.00116043
-0.000865775
0.000357734
1.80906e-05
-4.30341e-05
5.81902e-05
0.000151889
1.02738e-05
-4.82613e-05
-0.000651461
-7.60267e-05
0.000318271
0.000409217
-0.000138173
-9.06172e-05
0.000107036
5.88755e-05
0.000458554
-7.46299e-05
8.79367e-08
0.000131049
-4.7133e-05
-8.40042e-05
-0.00014029
6.89941e-05
7.12955e-05
-0.000296862
0.000360354
-6.34921e-05
0.000704556
-0.000702865
-0.000494601
0.000112109
-0.00040058
0.000351023
-6.25522e-05
-0.000222244
0.000110604
-0.000590951
3.21395e-05
-5.50582e-05
0.000613869
-0.000277829
8.12718e-06
-2.40158e-05
0.000293717
4.06829e-05
-8.22104e-05
0.000217012
-0.000175485
2.7345e-05
-2.25817e-05
2.78244e-05
-3.25877e-05
-0.000310089
0.000494228
0.000344919
3.10131e-05
-0.0010626
0.00108918
-5.75878e-05
5.264e-05
3.75725e-05
-1.91513e-05
-9.41543e-05
3.57228e-05
9.03241e-05
5.63956e-05
-7.81799e-05
-5.83906e-05
8.01749e-05
2.24809e-05
-1.88076e-05
-1.41603e-05
1.0487e-05
2.64782e-05
0.000261119
4.25866e-06
-0.000291856
-0.000509915
-0.000338612
0.000162293
-0.000336172
-6.10821e-05
0.000290537
0.000106717
-2.16861e-05
7.33829e-06
1.77255e-05
5.67771e-05
-6.98882e-05
-0.000187567
-0.000346819
0.00020837
0.000425306
-0.00059644
1.54754e-05
0.000589426
-8.46115e-06
-0.000611477
4.19153e-06
0.000624324
-1.70382e-05
6.92722e-06
0.000641373
-0.000623702
-2.45987e-05
-3.65163e-05
0.000593717
-0.000582313
2.51117e-05
-0.000639079
0.00110996
-0.000809845
0.000103586
-1.32547e-05
-0.000160432
7.01002e-05
9.18418e-05
-0.000111432
0.000151507
-0.000131916
-0.000246073
0.000104089
0.000260408
-0.000118424
0.000138906
-0.000111309
3.50059e-05
-6.26023e-05
-0.000961949
0.000106628
0.00094622
-9.08997e-05
-0.000101968
0.000647129
-0.000699687
0.000154526
-7.69411e-05
0.000116739
5.99084e-05
-9.97066e-05
0.00021987
-0.000178918
-0.000203677
0.000162725
-0.000315838
0.00010773
0.000686714
-0.000478607
-4.75727e-06
0.000152137
7.48067e-05
-0.000222187
5.15343e-05
-9.7079e-05
0.000157068
-0.000591992
0.000581219
1.51055e-05
3.21196e-06
-6.40686e-06
0.000268407
-0.000221142
5.78523e-06
-5.11746e-05
-8.06692e-05
6.50524e-05
6.67914e-05
4.42087e-05
-1.83162e-05
0.000336407
-0.0003623
2.2189e-05
1.18696e-06
-8.95007e-07
0.000247961
-0.000139645
-0.000343888
0.000757295
-0.000394975
0.000347254
-0.000189777
-6.36377e-05
0.000101929
3.33989e-05
9.04732e-06
7.20187e-05
-0.000114465
0.000408444
-0.0006897
-0.000555052
5.38067e-05
-1.21802e-05
-7.24559e-05
-0.000424436
0.000470233
0.00100794
-0.00105374
0.000843901
-0.000169848
-4.79188e-05
-0.000626134
5.88411e-06
1.36924e-05
4.25823e-06
-0.000666884
0.000203735
0.000823844
-0.000222265
6.25258e-05
-6.22303e-05
0.000284293
-0.000831456
0.000718481
-8.83047e-05
-5.60409e-05
0.000140963
3.38302e-06
-0.000254837
0.00024487
-0.000376758
0.000386725
-0.000763901
0.000680381
0.000599799
0.000126944
0.000304528
3.59151e-05
-4.66444e-05
2.84434e-05
-1.77141e-05
-8.57629e-05
-0.000287432
0.000215442
-7.77028e-05
9.59926e-05
0.000142505
-0.000160795
-9.72059e-05
-0.000207616
0.000819283
0.000140576
-2.11609e-05
-7.94751e-05
6.09047e-05
-6.10634e-05
0.000153711
6.8974e-05
6.06677e-05
-0.000250659
0.000287748
4.66053e-05
3.69444e-05
2.32816e-05
0.000110282
8.51172e-05
5.43973e-05
0.000224962
-6.02305e-05
-6.74314e-05
3.39494e-05
0.000250669
-4.18999e-05
-0.000232814
-4.61547e-05
-1.40362e-05
-0.000482453
2.59809e-05
-1.00636e-06
-0.000146005
-9.26601e-05
-0.000668027
0.000255945
-0.000264043
-4.64895e-05
-4.6984e-05
-1.92167e-05
-2.48576e-05
-0.000129488
-0.000129186
9.50604e-05
0.000375227
0.000624488
-6.51338e-05
3.73944e-05
-7.02846e-06
-2.16115e-05
1.47941e-05
1.1587e-05
-9.85616e-05
9.091e-05
0.000545832
-0.000575882
2.57871e-05
4.26241e-06
6.02536e-05
-0.000621017
0.000437779
-3.89019e-05
0.000165078
-9.54371e-05
-7.1649e-05
0.000118206
2.93277e-05
-7.58842e-05
0.000271172
0.000469042
0.000127353
0.000154184
-9.2835e-05
-0.000310009
3.69546e-05
-2.86573e-05
-5.23466e-05
4.40493e-05
-0.000149141
4.00212e-05
0.000132526
-2.34061e-05
-0.000135283
-2.53918e-05
8.90256e-05
0.000140784
2.99016e-05
-8.03492e-05
-9.03365e-05
-1.44699e-05
-8.4487e-05
2.85254e-05
7.04315e-05
0.000404699
-0.000110202
0.000134254
-0.000425229
0.000711404
2.3948e-05
-0.000128364
0.00024167
-0.000171797
0.000285165
-0.00029101
2.51105e-06
-1.58957e-05
1.40618e-05
-6.77137e-07
-0.000168919
0.000190465
-0.000154152
0.000132606
-1.13396e-05
4.02743e-05
8.01991e-06
-0.000621592
0.00102483
-0.000731551
0.000328311
8.8111e-05
-0.000209741
-6.48099e-05
-9.78609e-05
0.000298443
0.000140817
-2.89943e-05
0.000190078
-5.5168e-06
-0.00104294
0.000928903
3.70518e-05
-0.000242273
6.89256e-05
8.65711e-05
8.67761e-05
-0.000271629
-8.91389e-05
0.000242847
0.000117921
-4.63126e-05
-0.000154593
-2.85242e-05
0.000368993
0.000400327
-0.000187366
6.95991e-07
8.47878e-07
6.49044e-05
-6.64483e-05
2.21406e-05
-0.000117018
0.000337239
-0.000242361
0.000147744
-0.000212937
3.70794e-05
-9.57762e-05
6.77016e-05
9.46439e-05
-6.65692e-05
-0.000154524
0.00012812
0.00015612
0.000734635
-0.000433033
-0.000160621
0.00117625
6.95709e-05
-0.00113188
-0.000113943
0.000121876
-5.42335e-05
0.00012025
-0.000694914
0.000181551
0.000621031
-0.000107668
-4.2407e-05
0.00014345
-9.09806e-05
-1.00624e-05
3.09692e-05
-0.00015121
8.86413e-05
3.15995e-05
8.27839e-05
-0.000161484
8.4746e-05
-6.04608e-06
-0.000214454
0.000720395
4.64844e-05
-0.000552426
-0.000329041
0.000951585
6.26683e-05
-0.000685213
0.000621126
2.89017e-05
7.64864e-05
-0.000726514
-5.9763e-05
7.23999e-06
8.02028e-05
-2.76798e-05
6.21037e-05
0.000145259
-8.41503e-05
0.000219855
0.000176782
0.000467225
0.000111037
0.000534958
0.000108818
0.000550643
0.00014107
0.000653482
-6.53257e-06
-7.74595e-06
3.05185e-06
1.12267e-05
-1.23597e-05
-9.7567e-05
8.12695e-05
-0.000431546
0.000519657
0.000466688
-0.000564549
0.00040397
-0.000432964
4.96476e-05
2.06834e-05
-2.69461e-05
-2.15664e-06
-0.000155925
0.000162847
-4.7651e-06
-3.04022e-05
-9.03572e-05
0.000113464
7.29544e-06
3.7228e-05
0.000706759
-0.000498969
0.000961614
6.34327e-05
-0.00100938
-1.56627e-05
-0.000717836
0.000508637
0.000913755
0.0001299
-0.000257896
-7.52853e-05
0.000203281
-8.9914e-06
-3.53676e-05
2.3636e-05
2.27946e-05
0.000133098
0.000198432
-0.000125991
0.000171929
0.000137706
-0.000949226
0.000921027
-0.000396238
-0.000109097
1.04993e-05
-7.54434e-05
5.14471e-05
5.50579e-05
-3.10616e-05
-8.45835e-05
0.000728512
2.10503e-05
-0.000664979
-8.25772e-05
0.000634637
2.14055e-05
-0.000573465
4.05288e-05
-3.3232e-05
-3.80311e-05
3.07343e-05
0.000186015
-0.000127991
7.8587e-05
-0.000136611
1.7454e-05
-0.000115949
0.000155985
-5.74908e-05
-3.5396e-05
-0.000215263
-0.000148459
0.000160022
-4.58747e-05
3.43119e-05
-0.000268424
-4.88095e-05
0.000190212
0.000127021
-6.40026e-05
7.61146e-05
-3.51835e-05
2.30715e-05
0.000704904
2.10912e-05
-1.72777e-05
-0.000708717
-1.16433e-05
6.9226e-05
-5.74948e-05
0.000511984
-2.62404e-05
3.23288e-05
-0.000518073
0.000203055
-0.000124191
-0.000129394
5.05301e-05
-0.000568237
-8.43603e-06
-7.26012e-05
0.000649274
-0.000561854
-9.34845e-05
1.58934e-05
0.000639445
-3.70832e-05
-1.29603e-06
5.32011e-05
-1.48218e-05
-0.000180601
5.41398e-05
0.000171965
-4.55038e-05
-0.000215911
-2.48921e-05
0.000198433
4.23703e-05
-0.000164396
6.28964e-05
0.00013943
0.000786966
7.34998e-05
-3.59613e-05
5.52493e-05
4.13326e-06
-9.83256e-06
-0.00111935
-0.000161306
0.0011047
0.000175951
0.000536072
0.000627753
-0.000528067
-0.000635758
7.88621e-05
-4.06626e-05
-3.05438e-05
-7.65573e-06
2.94524e-05
-4.87973e-05
8.8649e-05
-6.93041e-05
-1.39648e-05
2.32152e-06
-9.85062e-05
5.38915e-05
-0.000643547
0.000688162
0.000133421
-0.000113671
3.17436e-05
-5.14939e-05
-0.000114588
9.78821e-05
4.18248e-05
-2.51191e-05
-0.000165909
0.000100623
-1.79616e-05
8.32476e-05
0.000174659
-0.000137737
-3.52285e-06
0.000980341
-0.000885141
0.000117139
-0.000212339
-0.000548381
-0.000345115
0.000370832
-7.85044e-05
-5.05109e-05
4.59089e-05
8.31064e-05
-0.000181301
-1.66831e-05
1.73837e-05
-0.000353162
0.000221796
-8.45452e-05
-2.73748e-05
-5.70707e-06
-4.00137e-06
0.00020929
-0.000201607
-9.40871e-05
8.64042e-05
2.4783e-05
-0.000174428
0.000163316
-1.3671e-05
3.4736e-06
-1.20594e-05
0.000229421
-0.000424618
0.000501232
0.00111267
-1.77739e-05
3.02676e-05
5.29341e-05
-9.62148e-05
-4.90308e-05
9.23116e-05
-4.81988e-05
0.000304144
5.08616e-05
-6.4619e-05
2.88629e-05
0.000103108
-0.000207192
0.000155618
-0.000857728
0.000423072
-9.03824e-05
-0.00103332
-0.000588308
0.000264647
7.66536e-05
0.000204183
-0.00011041
-0.000136181
0.000247525
-0.0002811
3.28658e-05
4.96224e-05
-5.5915e-05
-1.32258e-05
4.19778e-05
-4.00916e-05
-3.35147e-05
5.88256e-05
-6.99012e-05
4.45903e-05
-0.000828158
-9.72352e-05
0.000230479
0.000496129
-0.000486177
-0.000139105
0.000129153
-5.11381e-05
-0.000873349
1.0639e-05
0.000913849
-6.31839e-05
-0.000997988
0.0010257
3.54678e-05
8.27395e-05
-9.9966e-05
-6.85364e-05
-0.000676083
-0.000622133
0.00058038
0.000130105
8.86654e-05
-0.000141606
-7.71645e-05
5.07747e-05
-3.43276e-06
-3.94315e-05
-7.91042e-06
-0.00080834
-0.000287057
-0.000176423
-4.27327e-05
-2.20375e-05
0.000241193
0.000140834
-1.19654e-05
-0.000141733
1.28641e-05
0.000213045
-6.94315e-05
1.59503e-05
1.16459e-05
-5.4072e-06
8.21159e-05
-0.000225485
-2.55501e-05
6.47978e-05
-6.68377e-05
-5.11332e-07
2.55126e-06
6.47355e-05
3.01102e-05
-1.21469e-05
-8.26989e-05
4.84641e-05
0.000650127
-3.22993e-05
-0.000666292
8.32675e-05
0.000706072
-5.06268e-05
-0.000738713
3.38629e-05
2.66978e-05
4.23704e-06
2.90405e-05
-0.00107289
0.0010731
-2.92493e-05
0.000295638
-0.00147163
-2.45773e-05
0.00120057
0.000102333
7.69944e-05
-8.52394e-05
-9.40877e-05
0.000205398
1.63928e-05
-4.22186e-05
-0.000179572
0.000511515
-0.000410494
0.000242628
0.000781348
-0.000634472
-0.000785955
2.79557e-06
2.1123e-05
6.20182e-06
-3.01204e-05
-0.000138191
0.000149778
-1.08466e-05
-7.39741e-07
1.03626e-05
-2.69779e-06
-7.43754e-05
6.67105e-05
-0.000735604
0.000236884
0.000478014
2.07056e-05
0.000138569
-2.16057e-05
5.00334e-05
-0.000166997
0.0001002
-2.03965e-05
1.69352e-05
-9.67384e-05
0.000255037
1.60886e-05
3.33533e-05
-0.000304479
-3.04948e-05
8.94473e-05
-5.89525e-05
0.000305879
-0.00112959
3.9305e-05
-4.08214e-05
-3.25058e-05
3.40221e-05
-4.6369e-06
-0.000130659
1.31644e-08
-0.000284005
0.000286703
4.80197e-05
-5.07184e-05
0.00103411
-0.00145598
0.000183588
0.000238284
0.000499937
9.43002e-06
1.21369e-05
-0.000521504
-6.1536e-06
-3.99254e-06
6.53954e-05
8.96602e-05
8.93328e-05
-0.000982703
0.00080371
-2.982e-05
-7.18728e-05
0.000104195
-2.50253e-06
1.74763e-05
0.000171142
-0.000228759
4.01407e-05
-3.27934e-05
-8.80198e-05
0.000121761
-9.47382e-07
0.000382343
-0.000246021
-4.80285e-05
0.000150446
-0.000180121
2.52063e-05
7.18037e-05
-6.10949e-05
0.000836311
-0.000573469
4.70137e-05
-0.000309857
0.000317282
0.00076202
-0.00016531
7.46634e-05
-5.13515e-05
-2.6369e-05
-0.000124516
3.47942e-05
0.00011609
0.000507576
-0.000142527
-0.000388461
2.34115e-05
3.36576e-06
-6.57403e-06
1.77218e-05
-1.45135e-05
-7.19469e-05
7.52329e-05
-4.19052e-05
-8.45023e-05
9.15758e-06
0.000121466
-1.91412e-05
-0.000111483
-0.000124143
9.1879e-05
4.96875e-05
-4.17278e-05
0.000247078
2.01925e-06
-6.36285e-06
0.000104543
1.99422e-05
-1.07167e-05
0.000129343
0.000531599
-0.000600085
0.000243575
-0.000175089
0.00119554
-0.00119254
-0.000285625
9.55474e-06
-0.000641211
0.000197999
0.000555321
5.81569e-05
-3.57087e-05
-7.2671e-05
0.000219814
-2.71821e-05
0.000189711
4.01601e-05
4.70722e-05
-3.43648e-05
1.7406e-05
-1.91783e-05
-9.46709e-05
9.64432e-05
3.52593e-05
4.26305e-05
-5.30279e-05
-2.48618e-05
3.89798e-05
-6.53487e-05
7.40131e-05
-0.000135692
0.000118155
-5.64761e-05
0.000735665
9.48051e-05
-4.35042e-05
0.000149233
0.000162767
-0.000271774
0.000235257
-0.000473622
0.000480549
-0.000385123
0.000283156
-0.00112132
0.0011234
9.34531e-05
-9.55377e-05
0.000230725
0.000816862
-0.000408133
-0.000254524
0.000342916
-6.62683e-05
-6.46017e-05
-3.40255e-05
0.000513556
-0.000784819
-0.000153134
0.000424397
-0.00081325
0.000376833
-0.000119915
0.000556332
-3.34184e-05
0.000112455
-0.000352906
0.00027387
-3.71673e-05
-4.25363e-05
-0.000956102
0.00103581
7.84795e-05
-0.000357878
0.000782053
0.000173498
-0.000829276
-0.000126275
4.79642e-06
-4.70597e-06
4.95571e-05
0.000779216
-0.000722588
8.44429e-05
0.00064519
-0.000699116
0.000162744
0.000550855
-0.000511058
7.12399e-05
1.269e-05
0.000140175
-1.20314e-05
-0.000168238
5.9723e-06
0.000171424
0.000103787
-0.000136837
0.000114499
-8.14493e-05
0.000660246
-0.000557806
-5.56341e-05
-4.68061e-05
0.000684824
-0.000581824
-2.60871e-05
-7.69129e-05
0.000102209
0.00154173
-0.00121112
-0.00043282
4.43648e-06
-1.4207e-06
7.84496e-06
-1.08607e-05
-0.000987725
-0.000636711
0.00105154
0.000572895
-9.39066e-06
1.37595e-06
-4.08423e-05
4.8857e-05
1.10591e-05
-2.15791e-05
5.2813e-05
-4.2293e-05
4.64586e-05
-5.74263e-05
-4.74815e-06
1.57159e-05
0.000113232
-4.31667e-05
0.0006656
0.000594816
-0.000840576
0.000348493
0.000609982
-0.000837184
0.000348138
-6.80865e-06
0.000133101
-6.1612e-06
1.26355e-05
4.00747e-05
-4.6549e-05
0.00057388
-7.73957e-05
0.000150645
-3.97917e-05
2.6675e-05
-1.12189e-05
0.00016824
7.13029e-05
-0.000103362
-0.000136182
0.000389501
0.000953075
-0.000714823
-0.000387704
-0.000366132
0.000498034
0.000477216
-0.000472361
-2.63242e-05
2.14693e-05
9.68515e-05
9.41967e-05
-4.75982e-05
0.000188203
1.52073e-05
0.000114533
0.00016315
-3.54081e-05
6.42716e-05
-4.14541e-05
9.85376e-05
0.000538889
-0.000649482
0.000110593
-0.000400013
0.000285477
-0.00126194
0.00137648
-0.000133079
0.000143771
0.000195885
-0.000206578
0.000164331
4.63432e-05
-8.81193e-05
-0.000122555
-0.000448829
-2.99204e-05
0.000616689
-0.00013794
0.000226519
-0.000192486
-0.000399227
-6.67657e-06
-1.88597e-06
1.53407e-06
0.000170087
-0.00012829
0.000122534
-1.0108e-05
-0.000130014
1.93064e-06
8.64902e-05
1.59111e-05
-0.000149928
4.75267e-05
0.000358664
-0.000395102
0.00023329
-0.000196852
3.98493e-05
3.00304e-05
9.13606e-05
-9.00236e-05
1.29194e-05
9.77876e-05
2.95076e-05
-3.35866e-05
4.51436e-05
-4.10646e-05
-3.27494e-05
-0.000127005
0.000168724
-8.97012e-06
6.66665e-05
-2.03232e-05
0.000118477
-9.61454e-05
8.00009e-05
7.64681e-05
-2.1179e-05
0.000150109
-3.98398e-05
0.000201488
4.76417e-05
-0.000630126
-0.000327048
0.000744743
0.000212431
0.0008204
-0.00103754
0.000354327
-0.000137189
1.36643e-06
0.000154335
-0.000154294
-1.40693e-06
0.000123201
0.000535677
-0.000623988
-3.48895e-05
0.000123451
-0.000137246
2.30043e-05
-9.20911e-06
-0.00131493
0.00115803
-0.000249158
0.000406057
0.000384167
-0.000328725
-0.000130652
7.52101e-05
1.34972e-05
0.00069045
-0.000687325
-1.66222e-05
-0.000373245
2.09756e-05
0.00014526
-0.000558494
0.000537249
-0.000124015
0.000166217
-0.000654325
0.000654955
-0.000166847
-0.000108587
-0.000731698
0.000840285
8.00932e-05
-2.27828e-05
9.56889e-05
-0.000152999
6.48674e-06
-7.87382e-06
-1.75168e-08
1.40459e-06
-2.50841e-05
3.60662e-05
1.50837e-05
-2.60658e-05
1.63975e-05
7.48559e-05
-8.08907e-05
3.34888e-05
-7.74088e-05
8.3225e-05
-0.000188701
-2.09979e-06
0.000123847
6.69537e-05
-0.000182199
3.65361e-05
0.000117295
2.83678e-05
-2.49526e-05
-9.92775e-07
0.000371949
-0.000346004
0.00112823
-0.00113516
-0.000114995
0.000121926
-0.000160963
9.90536e-06
-0.000213496
6.7001e-05
0.000146495
6.26026e-05
-8.19443e-05
-3.60699e-05
5.54116e-05
4.43043e-05
-6.95992e-06
-3.14345e-05
-5.90983e-06
-4.30589e-05
6.46687e-05
-0.000223217
-2.82922e-06
1.53758e-06
-2.60832e-05
-6.43176e-05
1.75027e-05
-0.000306347
-3.25779e-06
2.32155e-05
-0.000201259
0.000661224
5.03251e-05
-7.01762e-05
0.000606579
3.20215e-05
-4.48834e-05
-0.000586751
1.3349e-05
-2.30382e-05
-0.000539399
-3.26681e-05
-3.94094e-05
-0.000360265
-0.000193037
0.00021713
-0.00100549
-0.000170324
0.000286778
-9.38741e-05
3.0772e-05
-3.26741e-05
-0.000130044
-0.00114703
0.00118048
-5.8674e-05
2.63856e-05
-0.000108001
-0.000126484
-4.50749e-05
-0.000125303
0.00068518
-0.000196458
-0.000571299
0.000696515
-0.000186506
-0.000594593
0.000111151
-2.69016e-05
-0.000303802
0.000219553
9.72693e-05
0.000482794
-0.000102847
8.47733e-05
-8.72043e-05
4.50502e-06
-2.07403e-06
-3.16947e-06
1.56919e-05
-0.00010383
9.13073e-05
4.60498e-05
-3.52151e-05
3.37748e-06
-0.000163784
0.000119215
3.22093e-05
-6.63896e-05
-2.5648e-05
4.75799e-05
4.44578e-05
0.00066825
-7.56246e-05
0.000119842
-0.000712467
-0.000351891
-8.62569e-05
6.4903e-05
-0.000439108
0.000327911
0.00039549
-1.49806e-05
4.23655e-05
-4.06107e-05
-6.40279e-06
-2.86329e-05
1.62281e-05
4.10791e-05
-7.52197e-05
5.34054e-05
-1.92648e-05
-0.000197526
2.64736e-05
0.000172307
-1.25394e-06
0.000306051
0.000366145
-0.000591649
-8.05474e-05
0.000196796
-0.000542787
-0.000284135
0.000483855
0.000339491
-0.000665022
-0.000158324
-0.000198112
0.000177333
-1.93226e-05
4.01018e-05
0.000116161
0.000160126
-0.00101189
3.93059e-05
-1.82052e-05
-2.77772e-05
0.000123399
-1.41455e-05
-0.000112511
4.65263e-06
-1.2729e-05
5.24719e-06
0.000895294
-2.31419e-05
-0.000762958
-0.000109194
0.00014342
7.14342e-05
-9.38622e-05
-0.000195741
-2.29425e-05
0.00011239
-0.000102515
0.00111121
0.000151733
-0.000157493
0.000455896
0.000233196
-0.000401438
0.000329416
0.000530447
-0.000458424
0.000123663
-0.00012576
0.00021473
-0.000212633
1.27963e-05
0.000188081
-4.96973e-06
-0.000195907
-0.000142057
0.00011218
6.4012e-05
-3.41347e-05
-0.00025343
4.92891e-05
4.46475e-05
0.000159494
-0.00111074
0.00110867
9.1398e-05
-0.000726903
0.0004711
-0.000656457
0.000572074
-0.000419607
-0.000234646
0.000215145
0.000110276
-3.66178e-05
0.000857475
-0.00102437
-0.000261406
0.0004283
-0.000227408
-0.000983203
0.00118353
2.7077e-05
-0.00112718
0.00116114
-0.000164009
-0.000504734
0.000449936
0.000369167
-0.000314369
-0.000333642
0.000338083
4.09173e-05
-4.53582e-05
-0.000133972
-4.57637e-05
3.30511e-05
-0.000661983
0.000719115
-0.000384181
0.000162184
-1.41379e-05
1.03543e-05
-2.98495e-05
-1.67159e-06
2.11667e-05
-0.000140395
0.000142099
-9.37874e-07
-2.61806e-06
-9.03182e-05
-0.000912761
0.000879058