/*--------------------------------*- C++ -*----------------------------------*\
| =========                 |                                                 |
| \\      /  F ield         | OpenFOAM: The Open Source CFD Toolbox           |
|  \\    /   O peration     | Version:  v1912                                 |
|   \\  /    A nd           | Website:  www.openfoam.com                      |
|    \\/     M anipulation  |                                                 |
\*---------------------------------------------------------------------------*/
FoamFile
{
    version     2.0;
    format      ascii;
    class       volScalarField;
    location    "0.64";
    object      p;
}
// * * * * * * * * * * * * * * * * * * * * * * * * * * * * * * * * * * * * * //

dimensions      [0 2 -2 0 0 0 0];


internalField   nonuniform List<scalar> 
1431
(
95.8922
94.267
92.6889
95.978
96.678
92.0823
92.8155
101.465
94.2621
95.6307
95.2863
94.123
93.2714
107.336
94.0964
94.0785
94.3824
95.222
97.0642
95.6422
96.292
95.7587
93.0526
108.236
84.2371
95.7506
78.0073
106.481
95.5708
94.7049
117.465
124.15
85.9665
92.364
94.1268
91.936
95.8274
100.531
91.7095
100.638
114.476
94.4528
92.7573
94.6545
85.355
95.9815
95.6106
122.894
118.416
101.997
94.5147
95.5783
93.9671
91.8834
93.3232
115.901
95.7809
93.9116
84.523
96.3524
94.452
94.9675
95.1037
101.429
103.551
94.9688
91.2158
91.8902
95.3011
101.845
92.7529
94.6474
94.1161
91.9785
93.5486
86.1392
96.3336
86.1306
101.835
78.9036
101.451
94.6644
93.8788
94.5369
86.825
96.5794
96.7585
93.6905
109.153
95.6486
95.7347
94.1829
96.6995
100.239
94.9975
96.3932
93.3597
103.679
96.8509
117.424
95.2957
100.391
95.6934
96.8033
94.5074
93.703
101.558
117.61
119.3
96.486
81.1188
94.8783
102.001
95.2144
94.0662
96.8797
95.5226
94.1766
110.019
86.4128
98.7926
93.3031
95.1759
112.776
101.166
93.6151
110.809
93.5904
96.0595
101.315
94.6567
118.61
108.113
95.5689
96.641
95.487
94.5202
94.8429
95.8715
118.175
94.8614
96.6274
100.569
118.525
119.714
99.4429
103.125
118.056
95.0741
117.132
102.141
104.674
93.7882
92.8225
94.1333
93.2064
101.46
95.3102
102.791
112.096
95.0768
95.2207
95.7511
93.7275
96.8867
77.3773
96.4533
99.6056
94.6093
95.7239
110.716
93.3491
116.372
102.345
101.077
96.1591
93.6767
103.058
94.9714
108.729
101.524
94.4257
109.02
95.5794
100.857
111.749
100.457
91.7253
95.7435
101.432
94.0123
94.4288
96.3155
101.249
94.0471
98.42
101.567
121.53
95.4918
95.3909
94.279
121.205
115.611
113.223
101.479
81.2955
96.5365
101.918
93.9109
105.406
101.248
102.111
113.417
101.816
95.5988
93.5711
103.75
93.7839
93.9043
101.514
101.505
74.5305
100.742
106.652
102.193
96.3644
114.487
95.5824
106.527
117.731
96.691
95.0336
101.728
99.7859
101.128
101.814
102.891
95.8571
101.408
93.9218
103.303
113.937
94.2669
94.2354
93.1059
93.293
100.763
93.5948
91.9803
109.633
107.474
94.3229
95.7682
122.064
95.1223
102.336
94.9658
93.8305
101.146
101.676
102.185
93.6496
96.9164
94.479
101.383
105.625
96.3987
100.302
107.872
94.1535
101.519
117.453
106.449
105.448
101.781
98.3639
95.621
94.0106
94.0063
95.4731
94.0636
93.8273
94.0882
95.3698
98.4254
93.5272
96.6833
107.385
108.474
102.605
99.3603
101.375
107.24
94.4265
108.964
104.082
96.2339
107.023
94.0319
110.334
101.661
116.114
93.3405
120.301
94.828
94.1489
101.576
102.035
101.384
96.4271
102.416
100.921
94.3458
96.7452
93.6702
94.2375
95.2764
93.8325
100.719
96.0568
94.2723
96.418
94.6901
94.0371
94.1613
95.7983
101.346
95.4674
114.931
102.117
94.4031
93.2912
93.5878
94.1754
101.185
94.2003
95.0574
96.5554
94.8419
93.2842
94.6959
101.444
95.6094
94.3457
106.777
93.7125
102.157
94.032
96.8127
96.6156
93.811
94.6001
94.071
95.0985
93.8352
93.8615
94.3342
93.8021
95.4615
93.4952
95.0902
93.831
95.0336
96.8473
96.7412
93.9504
94.932
93.8121
94.3831
94.4475
94.1809
93.6079
96.1111
110.356
94.1382
93.6533
94.3504
100.93
100.196
95.7431
94.7461
93.8678
96.6555
94.1333
93.831
94.9726
93.7794
93.8328
95.2131
96.8372
94.0741
93.0662
113.202
100.931
95.7316
94.8574
96.5812
101.867
94.3834
101.515
93.338
94.3777
101.781
94.7586
94.4235
98.1085
93.7515
120.063
96.3911
94.3564
98.6665
93.7919
94.0047
90.5402
119.136
135.172
94.2879
94.111
93.7732
96.5137
93.9503
94.7903
94.8926
93.6494
95.0816
94.258
93.8704
93.9191
84.9319
94.0673
85.1851
93.4185
93.8255
94.0159
93.782
94.1191
94.519
94.0655
93.7201
91.6013
92.649
94.6018
93.9675
93.9014
93.1163
94.2541
94.1437
93.2999
92.1476
94.182
94.0854
94.92
94.2032
95.0898
94.7036
95.1595
94.999
94.9097
95.0834
93.7552
88.1061
93.8751
91.7772
92.6815
93.7146
93.6848
96.392
89.0982
92.2549
93.7181
89.7649
95.0609
119.983
118.536
92.6565
93.7288
93.0301
92.7282
94.2897
95.0984
94.9315
94.9574
104.419
99.6399
119.934
94.7164
92.8268
94.5214
94.7121
92.501
92.9185
94.2736
93.8099
97.6009
94.8366
94.7445
93.0569
93.7375
101.95
93.6427
92.9175
88.4426
93.9177
93.9681
94.0101
93.0209
93.7648
94.6854
94.7636
94.8751
95.364
93.1543
102.598
94.2651
101.515
94.9979
95.0687
89.2426
94.806
93.7111
93.0194
93.5438
93.5527
96.4392
94.6671
94.5174
94.2467
94.7435
93.4522
93.8326
119.948
120.848
93.6609
93.4291
94.7005
94.6664
93.8782
93.7712
94.2444
99.9318
93.8727
94.0313
94.3323
95.1022
94.8244
94.5593
93.9116
101.339
94.6941
93.8315
93.6364
94.4077
100.662
94.5834
93.6353
94.3886
93.8648
94.3057
99.6362
105.173
94.1586
93.8782
93.9128
95.4269
85.4407
96.7864
94.3587
106.563
94.6698
93.8998
93.8783
94.2864
95.8083
94.4131
93.3052
94.9621
94.518
94.3709
93.9277
103.482
94.4903
101.407
94.2988
94.1113
94.095
93.7642
94.3006
99.652
94.541
104.75
95.4674
93.6728
99.2194
100.24
101.337
93.7905
96.8079
93.8532
105.509
93.0498
94.3426
94.2833
93.7826
93.8402
93.8678
94.4014
94.7125
93.796
94.504
94.799
99.2424
94.1975
96.6713
94.0056
96.8513
104.521
94.6011
95.2944
93.9408
94.5142
93.7633
94.0964
95.0337
93.0047
93.7324
127.088
93.6547
96.8669
94.334
101.27
94.4717
94.7513
96.1908
101.266
94.1117
94.5332
93.7424
108.877
97.8724
94.4826
93.8326
94.9153
101.315
94.2067
93.4301
93.8425
93.882
94.1898
95.6763
94.5456
93.9065
94.2922
103.801
98.3442
94.2565
94.4188
101.589
101.33
93.9785
94.3666
93.951
96.8634
94.6751
95.3024
101.876
93.4644
97.8287
94.7157
94.3892
94.3216
96.8814
101.503
94.8398
94.0178
119.829
119.236
93.147
95.2317
92.7795
100.357
94.127
94.5194
93.5293
94.2604
93.9587
93.7043
94.8253
93.8332
94.3328
96.6944
118.098
93.8984
93.8546
95.7888
94.3632
93.5444
96.8533
94.025
101.612
110.446
93.8443
93.5802
105.597
93.0682
96.4675
133.36
97.4708
94.2396
96.184
113.175
94.4985
96.6868
93.7769
94.8083
94.0168
102.255
94.2712
94.178
112.549
95.8447
102.092
103.031
101.153
93.6649
93.2135
102.684
95.3942
94.0882
111.526
95.249
96.2512
96.0374
110.985
110.389
94.4418
104.597
94.7386
93.3432
94.3051
94.6463
93.8729
94.1316
121.353
96.0601
104.009
102.756
106.374
107.452
111.739
93.0955
93.7035
107.971
109.747
108.23
95.2285
94.3917
101.406
101.666
102.004
111.533
92.9974
109.851
115.428
106.865
101.059
93.4574
94.2854
113.935
103.556
109.021
93.8139
102.166
96.8456
93.847
93.8488
105.437
96.8601
94.2721
94.0629
92.7867
93.7536
94.8131
107.42
94.1288
96.8847
110.688
96.7542
93.8226
94.8087
112.221
95.5852
103.639
114.516
144.866
100.739
101.751
96.8771
93.8005
96.6568
100.794
94.3307
93.8744
114.77
93.3974
96.846
94.2105
97.9798
95.093
93.4742
96.2498
102.122
100.919
93.8919
96.8837
83.9724
102.881
102.657
100.096
100.179
100.307
103.567
101.714
106.577
94.2003
94.2629
102.344
93.7635
93.8425
93.2308
96.8741
94.1038
96.6642
93.8179
96.827
93.5973
95.4671
94.1143
101.037
93.2176
94.3506
102.802
118.539
103.315
100.046
89.2257
116.832
93.7443
94.2211
94.2733
101.343
94.3128
94.1199
93.931
96.6962
126.207
94.6327
95.6058
93.7414
101.563
101.6
101.248
95.242
93.712
94.9167
93.7779
96.1614
99.9092
112.256
96.8594
93.5696
119.696
102.969
95.8787
94.1848
96.5402
110.999
92.3795
94.2102
93.9402
101.518
96.8965
92.8922
94.6747
96.4786
101.843
95.9748
94.3831
87.383
86.0245
118.665
103.273
92.1048
92.3612
101.749
95.7599
91.4785
96.6264
93.7626
94.6814
92.9715
94.2256
94.1969
94.9964
95.0518
115.584
117.728
103.489
95.7646
96.4484
97.1687
95.4185
101.161
94.3951
94.8072
95.1729
94.2991
94.4171
101.899
93.3587
92.7992
94.347
101.969
94.2875
101.33
101.348
103.138
92.9052
101.766
95.1386
112.317
93.97
112.644
95.4277
94.8528
95.6206
95.2772
94.4835
95.7778
95.779
94.1038
96.7955
93.8687
101.692
95.7458
96.0666
94.6922
78.1415
96.4147
94.9859
95.8121
94.6431
96.9347
94.6298
94.117
113.386
93.8549
95.7412
95.0431
94.19
94.782
93.9493
94.2826
93.808
94.8313
94.3048
95.8187
95.7792
100.304
96.6801
94.4205
94.1499
95.3684
94.3441
90.2525
95.094
95.6066
101.452
95.8143
95.7972
94.8017
94.2299
104.438
94.1454
94.8738
95.555
92.3754
96.3332
101.424
95.9786
99.0065
96.736
101.791
94.4641
94.2149
102.303
93.8704
93.9658
107.707
85.5542
96.5535
95.5694
94.2114
102.267
92.8657
94.9043
101.942
92.4694
94.2418
99.8742
95.5968
94.1573
95.2678
101.252
104.498
116.466
93.0404
96.1685
95.0116
95.0732
94.4599
94.1706
93.7797
93.7177
86.779
104.525
93.8431
94.2957
94.0974
93.9639
115.533
94.1684
95.5354
93.9774
94.7821
93.2097
94.9502
95.2045
101.437
94.7038
94.6045
96.5957
96.7229
96.868
93.806
94.5644
93.7465
86.0473
94.1779
110.006
93.9702
93.8068
100.507
94.5771
94.3588
92.2198
93.8761
95.5201
104.319
95.3438
120.762
94.6378
94.5623
97.9576
86.8598
122.902
95.898
93.5929
101.701
101.06
94.651
94.2783
100.71
95.4189
100.399
101.531
93.9857
96.3196
100.216
102.479
102.45
96.8656
95.2816
94.067
96.6508
121.487
96.7963
96.6248
117.187
101.592
93.8852
96.5774
105.694
94.3258
122.103
99.1072
95.8546
93.9418
102.535
95.9595
97.8763
95.0044
96.2544
93.3455
83.3422
94.7139
102.088
94.1125
96.8796
93.6189
105.544
93.5829
94.2107
94.9449
117.756
94.5646
118.717
94.0963
93.4426
113.6
115.759
93.2063
94.288
102.379
96.4089
86.328
95.9055
93.867
96.5223
92.0203
93.6569
102.465
97.0668
95.8307
94.0387
94.1559
95.4424
94.4232
96.3037
93.1963
96.7982
93.8969
94.4047
94.0939
95.2995
95.7523
100.879
86.6356
96.3756
94.9344
101.687
86.5224
96.8696
93.947
93.8763
93.7201
94.8992
94.5215
105.476
112.517
102.174
87.289
96.5465
96.5211
93.7666
94.7784
116.047
118.323
96.8576
93.9516
96.0688
101.893
92.0341
93.9929
97.8456
99.9411
100.19
119.693
96.8684
93.9976
94.8934
113.411
86.6545
115.482
96.1487
95.413
97.289
101.26
93.9044
102.865
96.5373
93.6994
99.6852
104.083
96.3333
94.553
94.2097
86.0268
95.229
93.6324
102.018
93.8527
95.3808
93.6049
93.9747
94.1021
103.131
97.3131
92.5973
94.295
101.92
101.633
102.883
94.7381
95.5574
93.9737
96.5738
89.0626
94.3409
93.9036
94.062
94.2683
94.6176
100.102
96.2433
94.3052
118.211
94.259
120.662
100.517
100.877
103.232
92.6397
96.6133
83.1298
96.4746
94.2767
86.8803
96.5549
93.7047
96.0249
95.0802
94.2639
96.6846
93.2176
95.2249
95.4542
96.7949
93.5192
94.4131
119.454
96.8211
93.7418
101.307
95.1329
94.7695
94.2878
94.8955
96.6381
94.1711
94.9249
92.555
93.6409
100.621
94.019
101.432
99.6714
94.2832
86.4378
93.7878
94.3457
94.2279
93.9291
96.5481
101.875
94.7721
101.025
97.9886
95.6549
101.88
104.408
94.1787
94.349
124.947
130.729
93.9099
94.6684
94.0827
94.1477
95.5731
95.0238
100.326
96.7833
94.8422
93.5972
95.7976
100.581
95.2516
94.1658
92.8151
96.8793
94.1401
101.789
94.1456
94.0598
95.0503
94.1279
95.3357
101.528
94.0632
94.8297
100.337
103.901
96.1401
95.6945
94.2332
96.2306
94.2414
94.0164
95.7982
93.8759
96.1405
96.165
93.3888
95.0249
93.3756
96.3555
91.0755
96.1347
95.3038
95.7682
93.3549
94.1264
96.0207
93.7565
102.565
93.8509
77.6379
101.175
94.6203
96.7454
121.096
94.3098
94.2045
92.3847
96.6145
93.8386
95.4453
101.065
94.7252
93.7861
93.8609
99.8151
95.2605
94.2802
94.3498
93.7932
95.4436
101.429
95.857
94.0158
94.9539
93.5273
120.667
93.7357
96.2491
95.5923
95.7446
103.621
93.2514
104.226
102.873
95.823
93.7175
95.2401
94.2737
95.9825
94.036
92.6651
125.388
94.9815
94.2745
105.943
93.7461
116.912
100.844
104.921
95.1734
100.723
94.2626
96.9593
93.641
95.7845
86.8835
96.8546
94.1891
92.522
99.3882
92.5417
95.8311
93.912
95.8425
102.611
101.866
101.833
95.5786
89.0167
99.8692
101.191
102.01
101.329
93.4967
95.449
94.0841
95.2204
102.353
117.641
94.054
95.1201
94.0854
95.4132
94.1824
101.407
103.002
83.0885
127.107
93.1014
93.5116
121.833
95.0753
95.3851
95.4602
)
;

boundaryField
{
    frontAndBack
    {
        type            empty;
    }
    wallOuter
    {
        type            zeroGradient;
    }
    inlet
    {
        type            zeroGradient;
    }
    outlet
    {
        type            fixedValue;
        value           nonuniform 0();
    }
    wallInner
    {
        type            zeroGradient;
    }
    procBoundary0to1
    {
        type            processor;
        value           nonuniform List<scalar> 
29
(
93.0281
92.4152
91.6245
91.6245
84.6853
84.6853
119.397
91.7573
88.7347
91.5686
91.7423
84.8766
91.8902
93.4641
119.711
120.069
84.2382
84.9502
91.474
92.2928
119.933
119.838
86.269
120.183
120.3
84.9502
120.913
119.319
120.183
)
;
    }
    procBoundary0to2
    {
        type            processor;
        value           nonuniform List<scalar> 
42
(
95.996
95.9548
96.9565
97.0578
96.5646
95.996
96.9565
96.9518
96.5538
96.4158
96.3296
96.0845
96.3296
95.9277
95.8046
96.0897
95.8046
96.369
96.4958
93.0505
93.0505
96.369
96.4238
94.2331
94.2331
96.5128
94.816
96.6509
95.5279
95.7272
95.7272
96.7793
96.8511
96.8758
96.8877
96.9565
95.8966
97.0177
95.5279
96.9518
96.9351
96.9062
)
;
    }
}


// ************************************************************************* //
