/*--------------------------------*- C++ -*----------------------------------*\
| =========                 |                                                 |
| \\      /  F ield         | OpenFOAM: The Open Source CFD Toolbox           |
|  \\    /   O peration     | Version:  v1912                                 |
|   \\  /    A nd           | Website:  www.openfoam.com                      |
|    \\/     M anipulation  |                                                 |
\*---------------------------------------------------------------------------*/
FoamFile
{
    version     2.0;
    format      ascii;
    class       surfaceScalarField;
    location    "0.47";
    object      phi;
}
// * * * * * * * * * * * * * * * * * * * * * * * * * * * * * * * * * * * * * //

dimensions      [0 3 -1 0 0 0 0];
oriented        oriented;


internalField   nonuniform List<scalar> 
2708
(
-2.21375e-05
5.33972e-05
1.00908e-05
-4.13505e-05
-6.42741e-05
9.53007e-05
-1.93991e-05
-1.16276e-05
0.00120473
0.000228768
-0.000894728
-0.00053877
-0.000338598
0.000186968
6.54666e-05
8.61638e-05
-1.486e-05
1.11337e-05
0.000105945
-0.000102219
0.000540251
0.000404334
-0.000310149
-0.000634436
3.71831e-05
-0.000245756
0.000602232
-0.000817521
0.000997776
-0.000782488
0.000204663
0.000352042
-0.000442811
-0.000113894
0.000152076
0.000108726
-0.000171749
-8.9053e-05
2.86093e-05
2.36565e-06
7.09304e-06
-3.8068e-05
-9.09978e-05
7.31669e-06
8.36811e-05
0.000133503
-6.1134e-05
0.000142888
-0.000215257
0.00083809
-0.000854538
4.52323e-05
-2.87842e-05
0.00013814
-0.000149682
6.61642e-05
-5.46224e-05
5.03636e-05
-0.00029736
0.000246996
-0.000235711
0.00020645
0.000167401
2.66461e-05
8.47273e-06
-9.77704e-05
6.26516e-05
8.10952e-05
-3.25458e-05
-4.85494e-05
2.51368e-05
6.55284e-07
2.81728e-06
5.59827e-05
5.18132e-05
-9.11575e-06
-9.86801e-05
3.76962e-05
-1.92309e-05
-8.60991e-05
0.000102264
0.000306844
-0.000323008
0.000806444
6.2614e-05
-3.09687e-05
0.000394663
7.96339e-05
-0.00041903
-5.52668e-05
2.16706e-05
-8.5538e-07
4.32159e-06
-0.00041954
0.000348113
-0.000177948
0.000249375
3.8039e-05
-2.12938e-05
-0.000871283
-0.00103753
8.94494e-05
0.000959302
-1.1224e-05
-6.76961e-05
-9.57012e-05
7.59597e-05
8.74376e-05
-0.000424767
0.000948105
-0.000542821
1.94825e-05
0.000905228
0.000437519
-0.000598369
-0.000744379
0.00021073
0.000199417
-0.000410147
0.000185904
-0.000252211
6.63067e-05
0.000172377
-0.000138077
-3.43005e-05
-0.000873034
0.000856197
0.000688775
-0.000671937
4.32445e-06
6.94033e-08
-2.03092e-05
1.59154e-05
-0.00117397
0.00113141
-5.11583e-05
9.37189e-05
0.000110657
-0.000124688
-0.000198658
-0.00138609
-3.43574e-05
0.000246477
-0.000336844
-0.000244546
3.85472e-05
0.000542843
-0.000118147
1.41449e-05
0.000104002
-8.07048e-05
0.000121406
-0.000233035
0.000192334
-1.20681e-05
5.77879e-05
5.93487e-06
-5.16547e-05
0.000144724
-5.48672e-05
-0.000225188
0.000135331
-6.68972e-05
-9.27881e-05
6.34519e-05
9.62334e-05
6.34692e-05
0.000694507
-0.000389303
-0.000368673
-1.16838e-05
2.30775e-05
-0.000934579
0.000923185
-0.000647126
0.00114802
-0.000862288
0.000361393
3.05952e-05
-0.00106963
0.00109606
-5.70309e-05
7.2831e-05
-9.58271e-05
-8.90715e-05
0.000112068
-0.000218535
0.000115166
0.000255445
-0.000599925
0.000349932
0.000454656
-6.83199e-05
9.54815e-05
-0.000134431
0.00010727
0.000266858
-0.000181842
2.39305e-05
-0.000108946
-0.000951545
0.000121118
0.000932951
-0.000102524
-0.000192627
8.82666e-05
0.000418623
-0.000314263
-0.000147574
-8.87277e-05
0.000675397
-0.000439095
-0.000583505
0.000558628
3.4615e-05
-3.16447e-05
5.30123e-05
0.00033543
-0.000282459
1.04987e-05
7.66369e-05
7.554e-05
-0.000118659
-3.35177e-05
0.000478107
-0.000753993
-0.000597148
-0.00042541
0.000470983
0.00100995
-0.00105553
0.000842725
-0.000170649
-4.64651e-05
-0.000625611
-0.000120937
0.000116359
0.000109138
-0.00010456
0.000215648
-4.42702e-05
-8.92471e-05
0.000118645
-8.72449e-05
5.78472e-05
-0.000623063
0.00102744
-0.000732744
0.000328364
0.000105199
0.000160309
9.61216e-05
5.98542e-05
-9.13832e-05
-6.45925e-05
-0.000208989
0.00016911
-0.000138885
0.000178764
6.56791e-05
0.000145051
-3.61164e-05
-0.000110459
0.000139459
7.11643e-06
1.79049e-05
0.000621323
-0.00041046
0.000964584
6.11779e-05
-0.00101237
-1.33876e-05
0.000132723
-0.000260932
-7.2829e-05
0.000201038
-0.000951213
0.00092327
-0.000397466
5.0313e-05
9.94359e-05
-4.4956e-05
-0.000104793
0.00025876
-2.79199e-05
-6.65682e-05
-0.000164272
3.62739e-05
-0.000143663
0.000180857
-7.34679e-05
-0.000279195
-5.41861e-05
0.000196959
0.000136423
-9.72926e-05
0.000117805
-4.66003e-05
2.60878e-05
-7.58892e-05
3.7808e-05
7.48102e-05
-3.67291e-05
-0.000207627
-7.21578e-05
0.000219077
6.07078e-05
0.000764031
8.16772e-05
-3.92638e-05
-7.41438e-06
1.67401e-05
-3.44504e-05
2.51246e-05
-7.88562e-05
1.76813e-05
-9.09891e-06
7.02738e-05
-0.000309051
0.0002255
-0.000124076
-8.24978e-05
-2.29468e-05
2.95554e-05
0.00111909
-1.64923e-05
2.88115e-05
9.99289e-06
-1.76894e-05
-0.000170662
0.000178358
7.86993e-05
-0.000127105
8.30211e-05
0.000128436
-0.000226497
-0.000110928
-6.95624e-05
-0.0010001
0.00102807
4.15938e-05
3.99805e-05
3.10047e-05
-3.10694e-05
-3.99157e-05
-0.000793039
-0.000278855
5.25028e-05
-0.000126382
-1.53682e-05
3.1571e-05
-0.00107829
0.00107855
-3.18279e-05
-3.82355e-05
4.33608e-05
-1.7442e-05
1.23167e-05
0.000107503
-2.78423e-05
3.61816e-05
-0.000115843
0.00027249
2.87939e-05
8.21932e-06
-0.000309504
-9.34841e-05
0.000146253
6.02554e-05
-0.000113024
0.00103698
-0.00145987
0.000182872
0.000240016
0.000450503
7.08484e-06
1.32693e-05
-0.000470857
8.74777e-05
8.27676e-05
-0.000925493
-3.32504e-05
-8.4074e-05
0.000122416
-5.09183e-06
5.21992e-06
0.000169382
-0.000220791
4.61884e-05
-0.000107283
0.000164553
-0.000178207
0.000837838
-0.000572943
5.31786e-05
-0.000318074
-2.92908e-05
5.25514e-05
5.33763e-05
-2.05337e-07
-8.7125e-06
0.000281408
1.40262e-05
-1.12335e-05
0.000104711
-5.54583e-05
3.52566e-05
4.68479e-05
3.33581e-05
1.27361e-05
-5.00629e-05
3.96878e-06
0.000707604
0.000102301
-4.5874e-05
0.000179102
0.000165039
-0.0011282
0.0011309
9.67738e-05
-9.94685e-05
-0.000322995
-0.000424504
-0.000232789
-0.000178372
0.000752326
0.000180898
-0.000805602
-0.000127622
-0.000990076
-0.00063701
0.00105302
0.000574068
-4.57477e-05
7.8919e-05
9.82493e-05
-0.000131421
0.000119268
-4.44858e-05
0.000632822
-0.000108384
0.000195755
8.17388e-05
2.32917e-05
-4.97578e-05
6.76087e-05
-4.11425e-05
0.000821318
-0.00103903
0.000355259
-0.000137544
0.000116387
-0.000162511
0.000103639
-5.75152e-05
-0.000330344
1.92174e-05
-0.00010608
-0.000741341
0.000847421
-3.48769e-05
-7.01427e-06
3.65565e-06
1.78565e-05
-2.79844e-06
-9.75559e-05
-7.56612e-05
4.17717e-05
-0.000275161
7.66145e-05
4.34757e-05
-2.39687e-05
3.25076e-05
8.41095e-06
-0.000227812
0.000186894
6.63353e-05
-6.80093e-05
-3.86593e-05
4.03334e-05
-0.000314566
-7.28583e-05
5.70804e-05
-0.000346115
2.45364e-05
0.000312306
9.27273e-06
4.18047e-05
2.03131e-05
-4.42612e-05
0.000897163
-2.30375e-05
-0.000764459
-0.000109666
-0.000100764
0.00109537
0.000153418
-0.00109086
8.87215e-05
0.000858623
-0.00102589
-0.00026204
0.000429304
-0.000223687
-0.000986038
0.00118662
2.31014e-05
0.000146288
-1.03511e-05
-1.35793e-05
2.45531e-05
6.56406e-05
-0.000909668
0.00087162
-0.000275122
0.000313169
0.00126699
7.62419e-05
-0.000314915
-0.00102832
-5.03683e-05
0.000900521
-7.42787e-06
-1.41133e-05
-2.36081e-05
9.94367e-06
2.77777e-05
-1.56157e-05
0.000274376
2.944e-05
4.61e-05
-0.000160764
0.000180816
-0.000928188
-0.000376492
0.000353467
-3.00001e-05
-3.2674e-05
2.77972e-05
0.000900854
0.000121446
-0.000184462
-0.000193935
0.000894309
-0.000879565
0.000179191
6.35677e-05
-0.000143044
8.79491e-05
-5.45366e-05
4.16126e-05
3.06665e-05
5.1829e-05
-3.91347e-05
-4.86019e-05
0.000192141
-0.000143744
2.90991e-05
-7.10761e-05
-5.33569e-05
-1.68961e-05
7.54729e-05
0.000103076
-5.76274e-05
2.24589e-05
-0.000106652
0.000111787
-3.78417e-05
4.19333e-05
-1.11058e-05
-0.000935015
0.000187418
0.000866865
5.76206e-05
0.000291755
-0.000299012
0.00036437
-0.000571747
-0.000539708
0.000747085
1.43745e-05
0.000237294
-0.000874732
-3.34654e-05
0.00091654
1.40889e-05
-8.97474e-05
-3.70092e-05
0.000126757
0.000113546
-0.000189208
0.00106882
-0.0012452
-0.000162068
0.000338444
0.000138178
-0.000134014
-9.98651e-05
-0.000811723
-0.000357759
0.000847638
0.000321844
-7.91144e-05
0.00104159
-0.00094707
-1.54096e-05
-3.39253e-05
0.000116895
-2.16382e-05
-6.1332e-05
0.00013613
-0.000966554
0.000930695
-0.00010027
3.48431e-05
-4.16508e-05
-2.24831e-05
-0.000332602
0.000246788
0.000944437
-0.000916497
0.000903548
-0.000180985
0.000625031
-0.000595742
-1.55608e-05
0.000590174
-0.000532842
-2.34782e-06
1.6604e-05
-0.000331609
-0.000907546
0.000310967
0.000104833
-9.17344e-05
6.78744e-05
-8.09731e-05
-0.000361731
0.000351919
-8.10195e-05
9.08316e-05
-0.000111409
0.00101442
-0.000890282
-0.000157601
0.000314491
-1.33661e-05
-1.15784e-05
-0.000289546
-0.000157567
0.000166772
0.00112169
9.06498e-06
2.2174e-05
0.00100574
0.000134758
0.000908409
-0.000977001
-6.61654e-05
-9.99631e-05
-1.86961e-05
-7.541e-05
3.19343e-05
-0.000221184
0.00028915
-6.7966e-05
-0.000202544
-0.000910824
0.0002037
-0.000307226
-6.88379e-05
3.92198e-05
-0.00019817
-0.00024728
-3.50112e-05
4.0795e-05
4.35981e-05
0.00101924
-8.86666e-05
-0.00097417
0.000126854
0.000106364
-0.000147994
-8.52251e-05
-8.0192e-05
0.00104294
-0.00064916
-0.000264159
0.000674193
-1.07258e-05
-0.000887155
0.000133932
0.000807874
-0.000189481
0.000974331
0.000150296
-0.000160298
-0.000964329
0.000352553
0.000142354
-0.000406639
0.000223766
-8.57639e-05
-0.00022673
0.000211764
0.000889222
-0.000200133
0.000129784
0.000134074
-0.000159024
-5.82966e-05
0.00010413
2.24815e-05
-6.83151e-05
0.000369155
-9.23952e-05
0.000582562
-0.000859322
0.00035341
-0.000115211
0.00051308
0.0012249
-0.000548147
-0.00034658
0.000809959
-0.000883142
-1.92122e-05
-0.00102536
-0.000821221
0.000601385
0.000823249
-0.000891861
-1.52904e-05
-0.00100514
5.43189e-05
0.000996051
0.000854427
-0.000100147
6.03698e-06
7.11628e-05
-0.00019739
0.000210948
0.000211942
0.00101036
0.000199961
-0.000532352
0.000960024
-0.00124519
-0.000417548
-0.000917068
0.000802264
-0.000612981
0.000869627
-7.97973e-05
-0.000989533
8.32922e-05
-5.1467e-05
-5.1267e-05
8.05966e-05
-0.000934965
0.000662167
-5.88112e-05
6.17425e-05
-4.55521e-05
5.13951e-05
-6.75854e-05
-0.00110079
-3.98755e-05
0.00106048
-0.000192584
0.000176069
-0.000300323
-7.94643e-05
0.000131994
0.000247793
-0.00051535
0.000631726
-0.000171984
-4.6661e-05
5.78813e-05
-0.000168453
1.20133e-05
-1.55442e-05
0.00075551
4.43515e-06
0.00030116
-0.000992807
0.000160093
-0.000969925
-9.30132e-05
0.00116747
-0.000104528
0.000147184
-9.54655e-05
0.000116258
-6.21001e-05
0.000772593
0.000496559
-0.00113439
0.000213846
-0.000273332
-0.000955746
0.000979712
-2.39661e-05
0.00011585
-0.000165772
4.99224e-05
3.10977e-06
1.59902e-05
4.26426e-05
-0.00104061
-2.43856e-05
0.001065
-0.000997453
0.00100886
-1.14106e-05
-0.00092515
-8.35519e-05
-0.00049685
0.000161096
-1.03606e-05
0.000245667
-0.000869374
-0.00101918
5.20833e-05
-0.000985447
0.00108222
0.000901522
-0.000223312
-0.000921563
-0.000129058
0.000928543
0.000122078
-0.000226603
6.82141e-06
0.0003128
-9.30178e-05
0.000990103
3.28651e-05
0.000442952
-0.000976509
6.11057e-05
-5.45219e-05
9.33018e-05
-0.00101549
-3.50966e-05
-0.000890054
0.00102437
-0.000660087
-3.57287e-05
-1.86427e-05
3.69295e-05
-7.10406e-05
-0.000129226
0.000109269
5.49103e-05
-7.47734e-05
0.000154002
-0.000134139
-0.000318798
-8.57407e-05
-9.41848e-05
-0.000671621
-6.48205e-05
6.03324e-05
-4.1064e-05
3.28334e-05
-5.07997e-05
-4.03304e-05
-3.04074e-05
-1.66572e-06
-0.000962988
-0.000414456
-0.000831975
0.000525175
0.000721257
-0.00100414
-0.00104532
-9.44386e-05
5.74321e-05
0.00108232
0.000550942
3.17471e-05
0.0011462
-1.37576e-05
-0.00116419
-0.000685611
-0.000540568
0.000168301
4.34111e-05
-3.33291e-05
-0.000178383
0.0009698
-0.00102642
-0.000389882
0.000213192
0.00120311
3.91304e-05
-9.38618e-05
-5.66771e-05
0.00020392
-0.00105078
0.000982991
2.4927e-05
-8.28804e-05
6.10631e-05
-0.000240721
0.000208794
-0.00134198
-2.36196e-05
0.000292886
-0.000240431
-6.80708e-05
0.000300235
0.00100872
-6.39223e-05
-0.00124504
5.01422e-05
8.65841e-05
-0.000140995
7.93379e-05
0.000377178
-0.000259125
-1.77409e-05
5.76158e-05
-5.51757e-05
-5.88234e-05
0.00086297
-2.95843e-05
-2.54792e-05
6.66074e-05
-1.15438e-05
3.73027e-05
3.40574e-05
-0.000176173
0.000165644
6.3338e-05
-3.31706e-05
5.64168e-05
-3.64634e-05
-0.000293002
1.0668e-05
-0.000100879
0.000118694
2.25457e-06
-2.00696e-05
0.000305832
-0.000977233
-2.93137e-06
9.26366e-05
-0.00013743
-8.64457e-05
2.8961e-05
-1.35103e-05
8.34437e-05
2.18751e-05
-0.000390636
0.000393297
-0.000131948
0.000131677
-6.45497e-05
3.75508e-07
5.91347e-05
2.5096e-05
-8.46062e-05
-1.63273e-05
0.000105693
0.000403668
0.000920027
-0.000400425
-0.000120125
2.13474e-05
-4.29811e-05
0.000141759
0.0010751
1.84949e-05
-6.23436e-05
2.44114e-06
4.14076e-05
0.000233317
-0.000265411
0.00021828
-0.000186186
-2.47229e-05
4.20219e-05
4.30334e-05
0.000121722
3.92021e-06
-0.000217376
-3.81539e-05
-0.000195919
0.000154609
-9.72763e-05
-4.07653e-05
3.13893e-05
3.97527e-05
6.53706e-05
-5.22398e-05
-0.000140864
-0.000126906
-8.49162e-05
9.0051e-05
0.000121771
0.00117354
-0.000887861
-1.36629e-05
-6.33491e-05
0.000136932
8.85056e-05
-0.000244208
-0.000550278
0.00070598
3.26783e-05
-0.000122207
8.95292e-05
0.000106091
-0.000915535
-7.36982e-05
8.05882e-05
1.04026e-05
-9.09908e-05
9.81401e-06
-3.14446e-05
2.16306e-05
7.07542e-05
-0.00011298
4.22262e-05
0.000296255
-0.000206092
-9.01624e-05
-0.000229596
1.36921e-05
0.000215904
0.000193704
-4.81948e-05
-0.000145509
0.000201143
-0.000173493
-2.76502e-05
-3.01099e-05
8.78933e-06
2.13205e-05
0.000227434
6.88206e-05
-0.000224337
-5.25852e-06
-5.22574e-06
3.7904e-05
-8.537e-05
0.000130271
-4.49009e-05
-0.000128447
0.000137407
-8.9601e-06
6.36102e-05
-0.000117776
8.7666e-05
0.000211136
4.58286e-05
-4.77749e-05
1.94625e-06
-2.45484e-05
3.43624e-05
0.000148022
-6.7434e-05
-0.000199108
3.33358e-05
0.000153319
-0.000163149
9.82954e-06
5.32913e-05
-5.03097e-05
-1.7046e-05
1.40644e-05
-1.17012e-05
6.64699e-05
-7.92036e-05
6.18488e-05
-4.69193e-05
4.26624e-05
-1.62579e-05
9.53842e-05
-0.000105942
0.00016328
0.000110963
-7.86935e-05
2.25912e-05
0.000160232
2.39667e-05
-2.11858e-05
-6.51245e-05
1.53911e-05
-0.000325525
-0.000636936
-0.000339213
0.000388309
0.00106202
-5.05195e-05
-3.48506e-05
0.000177375
1.58038e-05
-0.000193179
-5.80703e-05
4.62057e-05
-3.06337e-05
3.55431e-05
1.20275e-05
-0.000196128
3.29797e-05
3.56359e-06
-4.32217e-05
1.43841e-05
0.000123473
-0.00011307
-0.000327491
-0.000587342
0.000355268
0.000559565
0.00103917
-0.000267275
0.000110782
-4.96127e-05
0.000205184
-0.000223094
6.75231e-05
4.83259e-05
2.93294e-05
0.000913529
-0.000923273
9.4003e-05
-8.42591e-05
-2.55584e-05
-4.04845e-06
4.2815e-05
-1.32081e-05
-0.000110891
-1.75562e-05
-8.12734e-05
1.43447e-05
6.93698e-05
7.58169e-05
-0.000166758
5.48129e-05
-6.92534e-05
-3.19593e-05
4.63998e-05
0.0010843
-0.000283241
-4.3234e-05
-6.56131e-05
7.96847e-06
0.000413888
-0.00105683
0.000943173
6.30189e-05
-7.75351e-05
2.39534e-05
-1.16879e-05
0.000156234
-0.0003684
0.000725246
-5.6212e-05
-0.000176921
0.000201198
0.000665171
0.000675528
-0.000484502
7.97248e-05
-7.5221e-05
0.000645519
-0.000353989
-0.00029153
-5.84481e-05
7.37171e-05
4.36717e-05
-5.89407e-05
-0.000435883
-0.000120212
0.000329491
2.1842e-05
8.02034e-05
1.5851e-05
-0.000117896
-1.45138e-05
3.89934e-05
-5.2248e-05
-3.95681e-06
-2.77253e-05
-0.000143909
0.000175591
7.50965e-05
-7.55838e-05
3.45241e-05
-3.40367e-05
5.33458e-05
-4.46056e-05
-4.90647e-05
4.03244e-05
-0.000135837
2.30826e-05
0.000108797
-7.02131e-05
5.20785e-05
-4.03135e-05
-1.9584e-05
3.16034e-05
4.13265e-05
-2.78093e-05
-2.04186e-05
3.38008e-05
1.44271e-05
8.18375e-05
1.40074e-05
-3.13042e-05
7.67556e-05
-5.94588e-05
-0.000124688
-0.000122107
2.58762e-05
5.16254e-05
-2.33785e-05
2.98561e-05
1.91863e-06
-1.16483e-05
-2.01264e-05
-3.66618e-05
3.45911e-05
-3.31234e-06
-6.69963e-05
6.53558e-05
4.9528e-06
-0.000132766
0.000162381
-5.73411e-05
-3.03607e-05
-1.25527e-05
1.51041e-05
-8.87094e-05
-3.26403e-05
7.2285e-05
6.98014e-05
0.000396079
-0.000374204
2.99457e-05
-3.04502e-05
4.84178e-05
-3.10248e-05
8.75683e-06
-0.00011041
0.000101653
-2.60209e-05
4.02411e-05
3.2707e-05
-4.69272e-05
1.6076e-06
-4.61911e-06
-2.30093e-05
-0.000133571
2.02202e-05
0.00015016
3.10323e-05
-0.000181193
3.54493e-06
-2.54689e-05
2.38426e-05
-7.08408e-06
-1.01929e-06
-6.57547e-05
7.65856e-05
6.42656e-05
1.31791e-05
1.83511e-05
-2.99226e-05
-3.89521e-05
2.39268e-05
-6.05585e-05
2.73512e-05
-4.13982e-05
-0.000129862
7.63183e-05
-8.63859e-05
-2.88845e-05
-0.000125598
0.000101979
-4.21359e-05
8.21241e-05
-4.71521e-05
4.16136e-05
-2.53524e-05
-3.56023e-05
1.19508e-06
0.000258497
-0.000265977
0.00023315
-0.00022567
7.38715e-05
-3.76969e-05
-3.61746e-05
-5.67375e-05
1.85041e-06
-6.6353e-05
-0.000304367
0.000284621
-3.40705e-05
-4.47659e-05
-0.000102819
0.000112829
-4.40804e-05
-0.000100069
-0.000417839
-0.000111068
0.000201416
-8.97493e-05
-0.000118665
0.000142062
3.09643e-05
-0.000111942
0.000513677
-0.000266345
1.4875e-06
1.00968e-05
6.14014e-05
-7.29857e-05
-4.14986e-05
1.72536e-05
0.000860035
-0.000214516
0.000119143
-2.44033e-05
-0.000184489
-4.27696e-06
0.000115445
-0.000783441
0.000709775
0.000699776
-0.000807689
0.000583694
-0.000512812
0.000281036
-2.07051e-05
-0.00011917
0.000139875
-0.000129191
8.44458e-06
-2.9811e-05
2.28539e-05
-0.000143781
0.00100382
-0.00109693
-0.00112904
-8.5934e-05
-0.000276115
-5.62391e-05
-0.00021468
2.94552e-05
-2.06069e-05
-4.02967e-05
1.24759e-05
4.84277e-05
4.81989e-05
-5.45866e-05
0.000109434
-0.000103046
0.000126545
2.36158e-05
1.6135e-05
9.85558e-05
-2.46843e-05
0.000124308
-8.61095e-06
-9.98464e-05
-0.000756538
0.000950154
0.00051616
-2.06143e-05
1.02433e-05
1.1226e-05
-1.30247e-05
-0.000475977
7.27417e-05
0.000403236
8.9096e-05
-3.32297e-05
3.50788e-05
-9.09452e-05
9.64017e-05
-9.03503e-05
-0.000929324
-4.35728e-05
4.96651e-05
8.30038e-05
-0.000252088
1.30055e-05
0.000543475
0.000147969
-0.000691443
-3.56805e-05
-1.91526e-05
3.44144e-05
-4.7903e-05
-6.16328e-06
6.80737e-05
-2.85233e-05
-5.06839e-05
0.000151401
-0.000163327
3.5542e-05
-1.94065e-05
0.000139438
5.15809e-05
-3.76637e-05
-9.92402e-05
0.000114446
-3.98901e-05
0.000406426
-1.03476e-05
4.50901e-06
0.000401917
3.39653e-05
0.000175449
-5.68708e-05
4.18471e-05
-5.35066e-05
-8.34304e-05
0.000526933
6.74973e-05
-3.53592e-05
9.67512e-05
-4.95349e-05
3.18662e-05
-0.000164161
-0.000104917
3.64281e-05
0.000129178
-0.000130541
-0.000100691
9.50375e-05
-7.18815e-05
9.86395e-05
1.33374e-06
-8.973e-05
-0.000117719
-5.64446e-05
4.64315e-05
-2.83442e-05
-2.93531e-05
1.12658e-05
0.000119344
-0.000111035
-0.000121147
5.01948e-05
4.91357e-05
3.43609e-05
-0.00111324
-7.89329e-06
-0.000916624
-0.00032052
-6.9027e-05
7.28148e-05
-5.92281e-05
8.67657e-05
-4.58778e-05
-4.6944e-05
4.96823e-05
-4.10056e-05
3.82672e-05
4.64865e-05
5.23143e-05
1.78762e-05
3.55439e-05
-0.000257233
0.000331079
0.000450355
-0.0005242
-6.7856e-05
-8.37226e-06
7.0065e-05
-2.87421e-05
-0.000354864
0.000127762
-2.47867e-05
1.88503e-05
-3.43603e-05
1.37846e-05
-0.000957391
-2.23826e-05
0.000988838
5.66184e-05
0.000146924
-5.89002e-05
-9.66346e-05
6.41716e-05
3.75101e-05
6.20818e-06
-4.37183e-05
0.00097948
-0.00103064
-5.41631e-05
5.75213e-05
1.90918e-05
6.1239e-05
-5.67359e-05
2.35104e-05
-4.28434e-05
-5.86862e-05
7.80193e-05
3.64586e-05
-5.79114e-05
-0.000332635
3.50314e-05
-6.88269e-06
-9.79763e-06
7.06383e-05
-1.79373e-05
0.000152527
-0.000128646
-3.70217e-07
0.000606339
-0.000315117
-1.67376e-05
-0.00011467
0.000129998
1.40884e-06
-8.81596e-05
6.72995e-05
5.3567e-05
-0.000855293
6.51545e-05
0.000161587
8.0378e-05
-0.000175495
-6.17716e-05
-3.46077e-05
-0.000215164
-2.7925e-05
0.000243089
2.41847e-05
-5.04901e-05
7.46976e-07
0.000271175
-0.000366822
3.91709e-05
-3.97728e-05
1.5921e-05
-1.85312e-05
-5.81235e-05
0.000124541
9.59642e-05
-0.000147834
8.5303e-05
4.04701e-05
0.000275889
-0.000993532
1.25533e-05
4.89858e-05
-0.000737566
2.01918e-05
5.77835e-06
6.76649e-05
0.000112684
0.00014466
-0.000229643
-2.77001e-05
4.01546e-05
7.05035e-05
-2.90462e-05
-5.60338e-05
0.00109094
2.62278e-05
8.61813e-05
-0.00104923
-3.95111e-05
0.00010912
-4.53614e-05
-2.71515e-05
0.000589107
0.000113441
0.000251526
0.00124789
0.00109033
0.000176053
0.000213171
0.00109035
9.5032e-05
-7.1011e-06
-2.83944e-06
-3.93966e-05
-1.60488e-05
-0.000105921
-0.00091642
0.000122232
0.000219652
5.47242e-05
-8.39549e-05
-1.00058e-05
-4.05302e-05
-5.49779e-06
-4.18234e-05
0.000169341
5.15212e-05
1.45776e-05
-1.45753e-05
4.75983e-05
-7.61396e-05
0.000208636
-0.00011639
-0.000151146
-7.34346e-05
7.07139e-05
-3.70521e-05
0.00084686
-0.000182091
-0.000648734
-1.60345e-05
-0.000755841
0.000694595
0.000337134
-4.58965e-05
3.70448e-05
-3.80755e-05
-7.93682e-05
9.196e-05
-2.77595e-05
3.60914e-05
-0.000258054
0.000349074
0.00015794
-0.000981057
6.51289e-05
0.000671294
-0.000663681
-4.77909e-06
0.000393358
-0.00038407
5.0066e-05
3.40308e-05
5.53324e-05
4.97137e-05
-8.35672e-06
-0.000225551
2.67871e-05
0.000207121
0.000250552
-0.000190116
-0.00014079
-4.10091e-05
8.40291e-05
0.000152927
0.000273754
-0.000193363
-1.68062e-05
8.10968e-05
0.000815629
-0.000252581
0.000229354
1.48702e-05
-1.61843e-05
-1.55992e-05
-9.05906e-05
-7.59888e-05
0.000109238
-0.00100337
0.00103627
-0.000280181
-3.27607e-05
-9.1164e-05
-1.93664e-05
-9.96233e-05
-2.18008e-05
-5.38255e-05
-3.59219e-05
-0.000962936
-0.000198038
-7.33377e-05
8.7935e-05
-5.87382e-05
0.000782687
6.43318e-05
0.00104066
-0.00100959
-8.83282e-05
0.000118942
-4.99801e-05
1.73636e-05
6.77174e-05
0.000193836
9.03539e-07
1.2555e-05
-0.000207294
-0.000307068
-5.03802e-06
-3.17873e-05
-9.07117e-06
-4.68933e-05
-2.63735e-05
-5.74755e-05
7.77879e-05
0.000453873
4.32427e-05
0.00010553
-9.97071e-05
-8.82443e-05
-0.00014511
-8.00058e-05
9.60703e-05
-0.000156073
-2.64434e-05
0.000210922
-0.000171351
0.000995603
-0.00124987
0.000280499
0.000149985
-5.91002e-05
0.000719346
5.67243e-05
0.000944254
0.000278719
-0.000101007
-0.00112197
-6.8497e-05
-3.82118e-05
4.39605e-05
2.98915e-05
-3.28773e-05
4.20006e-05
9.2379e-06
-1.83612e-05
9.24511e-05
2.69192e-05
-1.13825e-05
-0.000107988
-4.67128e-06
1.82662e-05
0.00132917
9.9338e-05
9.74443e-05
3.6239e-05
0.0013264
8.28405e-06
-2.70975e-05
-9.8207e-06
0.000114152
-2.33342e-05
7.62712e-06
-0.00102754
8.0869e-05
0.000104852
-1.14291e-05
3.94193e-05
1.59704e-05
-0.000967716
-0.00115398
0.00073464
-5.54733e-05
0.000185558
-3.33462e-05
7.86651e-05
-6.54443e-05
2.01254e-05
6.9234e-05
4.31465e-05
-5.63637e-06
0.000215537
-1.13834e-05
0.000215984
-2.00444e-05
0.000125977
2.67862e-05
-5.75113e-07
9.30168e-05
0.000121373
-3.87981e-05
-6.50823e-05
-6.89614e-06
4.56049e-05
1.49499e-05
4.59518e-05
-5.99495e-05
-2.01031e-05
3.85655e-05
4.33339e-06
-4.74148e-05
2.66143e-05
-0.000267199
-4.41202e-05
-3.86123e-05
-9.16261e-06
-9.16912e-05
4.25016e-05
0.000853682
0.000137799
-0.000230662
-0.000808048
0.000196288
-1.42816e-05
6.22915e-05
0.000446767
0.000406923
0.000162071
-4.42485e-05
0.001084
-0.000472079
-2.46274e-05
-7.91374e-05
2.8887e-05
0.00012621
-5.85944e-05
-1.79569e-05
0.000162685
3.34429e-05
-8.07498e-06
-1.76777e-05
3.67336e-05
-0.000725858
0.000675895
4.99633e-05
4.74747e-05
-2.89407e-05
-7.74747e-05
-2.84143e-05
0.000321273
2.1632e-05
0.000884122
0.000148751
-0.000788421
6.25627e-05
5.33618e-05
0.00106455
-8.81039e-05
-0.000944791
0.00101051
-0.000343759
0.000578878
4.18045e-05
-0.000276923
-0.000142929
1.72915e-05
-1.26886e-06
5.84404e-05
0.000617454
2.18938e-05
-5.89964e-06
1.45197e-05
-3.05139e-05
0.000137193
-4.98303e-05
5.36995e-05
-0.000141062
-0.00018353
4.21722e-05
0.000141358
2.28449e-05
4.01327e-05
9.41909e-05
-3.89394e-05
-7.24819e-06
-4.65773e-05
-0.000227959
4.44289e-05
-0.000272445
0.000346722
-0.00039987
-0.000290611
-0.000885949
5.07648e-06
3.71249e-05
-2.62803e-05
-0.000220769
-3.09122e-05
-1.62345e-05
6.06578e-05
-6.69638e-05
4.30657e-05
0.000192532
-6.49504e-05
0.000381747
0.00052348
-0.000100282
-2.51039e-05
8.94639e-05
-0.000472577
0.000453016
1.95609e-05
8.31541e-05
-0.000871575
6.52026e-05
-0.000119722
0.000309453
3.81578e-05
-0.000160538
0.000850791
-0.000318319
0.000357582
-0.000388551
3.56571e-06
5.24208e-05
8.88538e-05
7.06797e-05
0.000878054
-0.000195372
0.000356491
-0.000957118
0.000654663
0.000630819
-0.00105367
-5.10577e-05
0.000557528
0.000407867
-0.000305603
-0.000624081
0.000590785
0.000519552
-0.000613779
0.000339316
0.000582548
-0.000264273
-0.0005743
3.98418e-05
0.000563913
-0.00013282
1.46729e-05
-0.000634945
0.000759745
-0.000495635
2.30579e-05
-0.000165833
1.96668e-05
0.000364722
0.000565765
1.87402e-05
-3.18062e-05
-2.63305e-05
2.35076e-05
1.97278e-05
0.000163885
4.65705e-06
-2.80356e-05
0.000438629
1.4387e-05
-1.06826e-05
-4.0796e-05
1.86013e-05
0.000102868
-3.60258e-05
-5.25976e-05
-0.000140317
-0.000240109
0.000115016
-0.000111244
6.46107e-05
6.31516e-05
-0.000417335
-0.000297823
6.82826e-05
2.18541e-05
-9.05719e-05
-0.000528205
0.000114919
-0.000134861
-3.22755e-07
-3.95315e-05
6.15841e-05
0.000124608
-3.90248e-05
-5.48513e-06
2.58672e-05
-0.000912472
0.00012566
-8.71124e-05
9.27778e-05
-0.000169624
0.00101346
-0.000958993
-4.04135e-05
-6.99194e-06
5.69706e-05
0.000192111
0.000244724
0.000381282
-0.00107877
2.92869e-05
5.67405e-05
2.84353e-05
3.69763e-05
1.96244e-05
-1.3535e-05
0.000920569
0.000139622
7.74188e-05
0.000133739
-1.53231e-05
-2.32892e-05
0.000192744
-6.74163e-06
-0.000993759
0.000657777
6.26504e-05
-9.9513e-05
8.62565e-05
7.68242e-05
2.78129e-05
-8.91775e-05
1.78485e-05
0.0011108
7.08611e-05
-0.00107315
-0.00061134
0.000789138
2.38004e-05
-2.76052e-05
6.88474e-05
-0.000106461
0.000170337
0.000500876
-0.000724324
0.000223448
0.000433773
6.71032e-05
0.000444875
-1.1102e-05
-0.000308081
0.000464315
-0.000676481
-0.000600239
-0.000502165
-9.80743e-05
2.44076e-05
-6.37665e-05
-0.000144949
0.000156789
-0.000937113
-0.000121132
-0.000128801
2.3895e-05
1.31551e-05
2.17409e-05
4.40601e-05
-6.18278e-05
1.55184e-05
3.60444e-05
-1.72003e-05
-9.93209e-05
-0.000103442
0.000144693
4.35644e-05
2.97611e-06
-0.000207208
-5.38815e-05
0.000438846
0.000810147
-0.000113079
-0.000108435
-2.45553e-06
8.70333e-05
8.06325e-05
-0.000110925
-0.000232769
-0.000990604
0.000149798
-3.16458e-05
0.00021817
-0.000474694
-2.74713e-05
0.000253985
-0.000145718
-0.000592768
0.000133664
0.000131221
4.16598e-05
-3.7296e-05
2.14304e-05
0.000159469
-0.000100406
3.7007e-05
9.71555e-05
-0.00114327
0.00103236
-6.52223e-05
4.19035e-05
-2.47057e-05
6.97075e-05
-8.69054e-05
1.95094e-05
1.79457e-05
2.6759e-05
-0.000139739
3.39927e-05
-2.38171e-06
8.16624e-05
-0.00117714
1.54035e-06
0.000679198
-0.000380491
0.000131001
-0.000143384
0.000101336
0.000153981
-4.92617e-05
-6.94252e-05
-3.62598e-05
1.65075e-05
-0.000117846
0.000119296
-0.000140146
4.99823e-05
-0.000217841
9.3818e-07
-0.000607261
-0.000377795
-8.92872e-05
6.68659e-06
-8.43532e-05
-4.78981e-05
6.5255e-05
3.24904e-05
7.42675e-05
-9.12396e-05
0.000973229
0.000148755
6.81332e-05
-0.000286995
0.000162941
-9.00222e-05
-0.000132371
9.31676e-05
-0.000798593
0.00111751
6.4459e-05
-3.55419e-05
0.000128471
0.000139722
-0.000100048
-5.94663e-05
-4.83803e-06
0.00103737
5.95801e-05
1.13246e-05
-1.75075e-05
1.39206e-05
0.000148115
-8.008e-05
-8.35536e-05
9.41962e-05
-0.000838708
4.26327e-05
0.00065422
7.26267e-05
-8.0274e-05
5.47461e-05
0.00108178
7.15195e-05
2.38771e-05
8.31135e-05
-0.000363387
6.8212e-05
-8.87935e-05
-8.61583e-05
0.000198903
-1.30311e-05
4.2158e-06
0.000120602
-1.34438e-05
0.00011248
0.000107329
-4.58966e-05
0.000132441
-6.78164e-06
-0.000155807
0.000145456
-0.000961755
0.00102688
-0.000248686
0.000183565
6.83514e-06
6.92359e-05
0.000116476
-3.53813e-05
3.38309e-05
-0.000245401
0.000545228
-0.000493465
-0.000178378
-8.34159e-05
-8.51017e-05
4.17163e-05
-5.06184e-05
7.82617e-06
-4.99253e-05
-0.00114496
-0.000118885
9.06079e-05
-0.000163672
-2.36867e-06
3.58106e-05
-0.00106555
0.000964669
1.66009e-05
-1.6826e-05
0.000989063
8.45886e-06
0.000555704
-0.000479694
-7.60108e-05
0.000168438
-1.10661e-05
0.00011673
3.28233e-05
-8.9517e-05
9.07245e-05
-0.00088832
0.000896925
5.84283e-05
-1.14838e-05
5.89623e-06
-3.48431e-05
2.89469e-05
-3.74131e-06
1.08343e-05
2.15492e-06
-9.34278e-05
5.85847e-05
1.36516e-05
1.27963e-05
0.000318491
-0.00106036
1.04484e-05
1.34466e-05
-1.60767e-05
-2.24204e-06
0.00010581
-0.000100646
-1.54306e-05
-4.13464e-06
1.95653e-05
-2.55503e-05
6.19039e-05
-0.000101556
-1.80222e-06
-0.000326347
2.89876e-05
-2.46503e-05
-0.000610275
0.000446792
4.2457e-05
-6.26024e-05
8.87656e-06
1.57186e-06
2.69428e-05
5.70965e-05
0.000137902
0.000668442
2.77074e-05
7.13319e-05
1.56862e-05
0.000157529
-0.000137672
-1.20074e-05
-3.77873e-05
-6.45562e-05
6.18133e-05
-1.11134e-05
-4.31724e-06
9.38468e-06
-5.08123e-07
6.67051e-05
0.000120263
0.000110059
-9.89249e-05
3.87455e-06
-3.51558e-05
-3.79096e-06
-0.000122606
8.85115e-05
0.000461437
-0.000296878
3.37789e-05
0.000149123
-0.000255106
-9.45409e-06
-1.65931e-06
-0.000198879
-3.85308e-06
0.00104917
-1.50256e-05
-0.00101104
-0.000150939
0.000104761
0.000717471
-6.99574e-05
0.000473984
-0.00023458
-4.05812e-05
-3.87307e-05
-5.53058e-06
0.000261153
-4.03304e-05
5.16551e-05
-0.000239561
0.000306266
-3.05734e-05
0.000140632
0.00139683
-0.00112827
6.71824e-05
-0.000924345
-7.5449e-05
-1.59713e-05
-3.82063e-05
0.000167718
-2.67695e-05
0.000546003
-0.000716652
-0.000117062
9.32305e-05
-2.84462e-06
7.86605e-05
0.00033196
0.000252297
-8.19746e-05
-0.000884618
-9.12074e-05
-0.000157677
-0.000369549
0.000389325
-0.000183763
0.000588188
0.000925937
-0.000266232
3.78367e-05
-7.01234e-05
4.41358e-05
-1.16443e-05
-2.70204e-05
0.000678498
5.99019e-06
6.46597e-05
0.000142538
-1.00967e-05
5.80363e-05
0.00016392
-1.1207e-06
-4.70123e-05
-0.0001513
-0.000140075
-3.24075e-05
0.000139722
-9.28421e-06
2.45771e-05
1.42601e-06
0.000239479
1.86732e-05
4.00431e-05
9.24405e-05
0.000138278
3.17075e-05
0.000896407
-0.000908553