/*--------------------------------*- C++ -*----------------------------------*\
| =========                 |                                                 |
| \\      /  F ield         | OpenFOAM: The Open Source CFD Toolbox           |
|  \\    /   O peration     | Version:  v1912                                 |
|   \\  /    A nd           | Website:  www.openfoam.com                      |
|    \\/     M anipulation  |                                                 |
\*---------------------------------------------------------------------------*/
FoamFile
{
    version     2.0;
    format      ascii;
    class       volVectorField;
    location    "0.17";
    object      U;
}
// * * * * * * * * * * * * * * * * * * * * * * * * * * * * * * * * * * * * * //

dimensions      [0 1 -1 0 0 0 0];


internalField   nonuniform List<vector> 
1466
(
(0.0376803 2.28055 0)
(-0.0496186 2.14745 -1.07972e-16)
(0.378045 -0.73911 -1.60406e-16)
(0.0404848 1.92433 1.31356e-16)
(1.89162 0.0451358 -5.22755e-16)
(-0.0969632 -0.434653 -5.41579e-16)
(-0.491682 0.113821 2.7842e-16)
(-1.28138 -0.077019 4.05849e-16)
(0.621242 2.24402 1.3445e-16)
(0.147743 0.296767 7.77049e-16)
(0.0261406 -0.0954253 -1.83484e-16)
(3.07291 2.38005 1.04334e-16)
(-0.035145 -0.0170418 1.09917e-17)
(0.620532 1.58861 -1.12759e-16)
(1.10787 -0.0720493 -2.64811e-18)
(-0.0690686 0.987008 -1.1723e-20)
(0.193786 -0.00430133 7.65478e-17)
(0.075323 2.08801 -1.26867e-16)
(1.02919 0.815284 -1.63238e-16)
(-0.0541273 1.83818 0)
(0.599416 -0.130043 1.54173e-16)
(3.32013 0.737964 -2.36566e-16)
(3.20988 0.0179396 0)
(0.01857 2.18095 6.57373e-17)
(0.794527 1.41458 -1.68769e-16)
(-0.135172 -0.157385 2.05408e-16)
(-0.107455 -0.0450003 2.34154e-16)
(2.30697 0.66809 2.41873e-16)
(-1.56008 0.0555306 0)
(-1.36193 0.132861 4.17631e-16)
(0.640224 -0.107186 0)
(-0.551893 -1.00578 8.21722e-16)
(3.49526 0.418869 -2.09325e-16)
(-1.46783 0.522169 -1.00196e-16)
(0.082648 1.76642 0)
(1.11911 -0.154504 2.70914e-17)
(-0.143665 -0.159539 2.36052e-19)
(0.713569 -0.0351579 0)
(0.471212 -0.455073 -5.82715e-16)
(3.90787 -0.0015903 2.14832e-16)
(3.53267 1.90301 -1.23078e-16)
(1.07466 0.651331 -1.76473e-16)
(0.343101 2.24063 -3.61153e-16)
(-1.10355 0.270824 2.33713e-18)
(3.4203 0.840631 0)
(0.00958333 1.57521 -8.59266e-20)
(0.695426 -0.055235 -1.81328e-16)
(0.0715558 1.76134 9.11304e-17)
(0.902552 0.598821 -2.50304e-16)
(0.62245 -0.0860332 -8.70572e-17)
(-0.284801 -0.473562 0)
(-0.295607 0.250274 -3.14044e-16)
(1.77314 -0.218129 3.97178e-16)
(-0.447314 -0.397354 4.79903e-16)
(3.50805 0.0658888 3.20645e-16)
(1.17083 1.94286 -1.0948e-16)
(0.825657 -0.0269708 0)
(0.197093 0.532763 3.1671e-16)
(0.954311 0.167194 1.37091e-17)
(0.940544 1.65223 0)
(-0.0595338 0.996886 -2.38687e-18)
(-1.00738 0.249584 1.08702e-16)
(1.82187 -0.168453 1.28542e-16)
(-0.336408 -0.634024 -4.91755e-16)
(-0.123504 1.97946 1.76408e-16)
(0.23729 1.72382 -3.15298e-17)
(1.44659 2.2061 -3.15949e-17)
(0.569245 -0.188477 -2.00607e-16)
(0.0757686 2.16429 -1.16435e-17)
(2.51386 0.788048 0)
(-0.068607 -0.0894338 0)
(0.0612559 2.25231 -5.26045e-17)
(0.69299 -0.0199281 -5.56162e-16)
(0.0776944 2.45195 -1.73142e-16)
(0.618375 -0.00760093 3.9601e-17)
(2.93207 0.0495206 -1.50597e-16)
(0.0382529 2.38944 4.3129e-17)
(0.0723005 2.26658 1.56998e-16)
(-1.18819 0.268362 0)
(0.857675 1.86289 0)
(-0.0226439 -0.088408 -3.89347e-17)
(0.194269 2.30598 1.71335e-16)
(0.945101 -0.139804 0)
(0.772175 0.496512 1.54069e-18)
(0.676559 -0.0255518 1.9974e-16)
(0.653351 -0.0436292 -9.83246e-17)
(0.675918 -0.0302532 -2.64985e-16)
(-0.157922 1.67449 1.34709e-16)
(0.436727 2.16309 -3.36162e-17)
(-0.0793418 1.95846 5.81437e-18)
(0.0913967 2.09952 9.36652e-17)
(0.587972 -0.0042463 0)
(0.672805 1.80803 -5.77109e-17)
(0.0927997 2.00841 1.74681e-16)
(-0.393325 -0.307322 0)
(0.601896 -0.0570497 -2.11449e-16)
(-0.0263397 1.66747 6.03928e-16)
(1.25423 0.270556 0)
(-0.100935 1.73567 1.44875e-16)
(0.137021 1.93589 -1.49288e-16)
(-0.730789 0.161634 0)
(2.43843 1.02436 -7.53019e-17)
(0.604791 -0.317235 4.12135e-16)
(-0.103129 1.08178 -1.58683e-16)
(0.785304 -0.1001 0)
(0.278389 1.89536 -2.54336e-16)
(0.530837 -0.255112 1.81509e-16)
(0.875517 -0.137242 -7.52262e-18)
(-0.0344064 2.2042 4.78495e-17)
(1.06048 0.72157 6.26649e-18)
(0.789486 0.0958322 1.92888e-17)
(0.373516 -0.0347426 5.18567e-16)
(-1.15325 -0.58526 -2.9913e-16)
(0.697014 -0.0380244 -5.12842e-21)
(-0.015903 -0.0320442 -2.23264e-17)
(1.34432 0.514271 0)
(0.185319 1.65429 -7.64747e-17)
(0.299932 1.78352 5.26521e-16)
(-0.108004 1.90264 3.00952e-17)
(0.3316 1.36064 -4.01217e-16)
(0.499275 -0.130318 1.98832e-16)
(0.103512 2.35992 0)
(0.0246976 0.545578 -7.76174e-17)
(-0.143938 1.51702 -7.00152e-17)
(0.474571 1.96691 2.68784e-16)
(0.359818 0.451647 -1.25741e-16)
(0.174218 0.295202 2.87741e-17)
(-0.0905035 0.863673 0)
(0.56576 1.40842 5.82628e-17)
(0.423572 2.72675 -2.5441e-16)
(0.5769 0.229982 1.20114e-16)
(0.00267824 2.31915 2.44669e-21)
(0.052296 1.24431 2.14911e-17)
(1.77277 2.44535 -4.79258e-17)
(-0.18165 -0.15645 -1.13638e-17)
(0.789646 2.01254 1.35699e-16)
(1.2902 0.71816 0)
(0.668136 -0.0199713 0)
(3.74041 0.40767 2.61143e-17)
(0.00103177 1.48414 8.47848e-17)
(-0.451419 0.342286 -1.07129e-16)
(0.548019 -0.0195909 -1.70418e-16)
(0.500312 1.06022 6.98476e-17)
(0.841006 2.33749 -3.76886e-16)
(3.60197 0.581097 1.02016e-16)
(0.754016 0.875653 0)
(0.1875 0.613958 0)
(-0.159754 1.01499 0)
(1.52369 2.73473 5.48283e-17)
(0.683826 -0.0234608 2.62761e-16)
(0.445978 0.929047 -1.43936e-16)
(0.357504 0.384407 4.41414e-18)
(-0.0315284 1.96354 1.08063e-16)
(-0.0300045 1.90644 -2.01531e-17)
(0.170507 2.37839 -1.40853e-16)
(-0.0407786 -0.0856752 -9.54924e-17)
(0.0848568 2.27126 -3.04344e-16)
(0.412205 5.64135 1.08194e-16)
(0.317586 0.0596579 -8.06257e-17)
(-0.16314 1.18043 0)
(2.73557 0.910215 8.71745e-17)
(0.210379 1.79153 -2.20203e-17)
(-0.0177643 1.91894 2.5098e-16)
(0.560931 -0.0871531 1.9354e-16)
(2.09139 1.0711 -4.03142e-18)
(0.753398 2.10999 9.26112e-20)
(0.399338 2.70397 0)
(0.451395 0.65083 9.41917e-17)
(0.0799053 1.50238 4.34733e-18)
(-0.127063 0.181586 3.85804e-16)
(0.651228 -0.0351424 2.64921e-16)
(0.659706 -0.0417503 2.55532e-16)
(0.240324 0.453624 0)
(0.998945 2.7934 6.84814e-17)
(-0.1789 -0.129536 -8.64226e-16)
(-0.0816717 1.94883 1.62658e-16)
(1.76221 1.05156 1.39623e-16)
(0.698506 1.51195 -2.08854e-17)
(1.16369 0.0118446 -1.32909e-16)
(0.671256 1.67485 2.02221e-17)
(0.0879148 2.33002 -1.67692e-16)
(0.748074 -0.124258 2.17644e-16)
(0.54532 0.271406 -3.02549e-16)
(0.315356 1.92033 -4.58288e-16)
(-0.137303 1.8039 -3.355e-16)
(0.58497 1.56469 5.27219e-16)
(0.839283 -0.189794 0)
(1.04049 -0.093224 0)
(1.01446 -0.204613 -5.06591e-17)
(-0.102122 0.977901 0)
(-0.118578 1.15116 0)
(0.135048 1.4209 1.14654e-16)
(0.262043 1.85359 1.92567e-17)
(-0.0974576 1.93461 -6.97161e-17)
(0.723913 -0.0894435 2.85898e-21)
(0.0577861 2.3641 0)
(3.84367 0.263155 -3.33306e-17)
(1.10116 0.364485 -1.33217e-17)
(1.21216 0.451871 -1.25982e-17)
(1.09051 0.901953 -5.74521e-18)
(0.30425 0.735303 -8.88035e-17)
(0.307808 -0.0337817 3.39706e-16)
(0.822893 -0.121495 -6.25709e-17)
(0.157986 1.62966 2.29928e-16)
(0.441675 0.570491 0)
(0.995709 0.864364 3.16756e-16)
(0.784167 -0.158984 1.64279e-16)
(-0.387837 0.79531 1.35093e-16)
(1.20956 -0.034023 4.8772e-17)
(0.870538 0.128592 1.07837e-17)
(0.950432 0.263398 5.32902e-17)
(0.0894413 2.84571 4.67216e-20)
(0.299204 -0.00782531 -1.15361e-16)
(0.668842 -0.0345136 -4.98938e-21)
(-0.114956 1.81507 -7.12983e-17)
(0.916994 -0.209149 2.63624e-17)
(-0.389325 0.633514 -7.87341e-17)
(-0.494983 -0.0349954 0)
(0.0697441 1.95661 0)
(0.0574967 2.38461 -1.81859e-20)
(0.382529 2.08933 1.4117e-16)
(0.0477863 2.37225 0)
(-0.0228643 1.54407 5.47562e-17)
(0.680781 -0.049475 3.94973e-17)
(0.772391 2.65801 -3.76779e-17)
(0.672132 -0.0450818 0)
(0.925289 1.01141 7.62486e-17)
(0.206652 1.23258 1.17392e-16)
(0.154673 -0.264266 2.909e-18)
(0.468801 2.60987 -3.34969e-16)
(0.657321 -0.0220174 2.80476e-16)
(-0.157163 1.43143 0)
(0.431695 2.23394 -1.01032e-16)
(0.660437 0.125313 -1.27683e-20)
(1.02778 -0.121322 0)
(0.688762 0.620457 0)
(0.607511 0.107845 0)
(-1.56939 -0.0350763 -5.28766e-16)
(0.56161 0.100699 -1.15984e-16)
(0.851925 1.12631 0)
(0.54065 2.46568 1.34988e-16)
(0.524789 0.0976871 3.26535e-16)
(0.618639 0.00867785 -3.97479e-17)
(1.55586 0.771851 -6.85724e-16)
(1.46028 1.07346 0)
(-0.00843453 -0.150019 -1.87069e-16)
(-0.171912 -0.0576609 -5.8109e-19)
(0.473971 -0.0451881 3.51099e-16)
(-0.431268 -0.125026 0)
(0.193431 -0.117564 -5.93891e-18)
(0.280486 2.45286 -5.61882e-16)
(0.702428 2.8522 -7.96831e-17)
(0.813797 0.67951 -1.21768e-16)
(-0.168988 1.27721 4.34071e-16)
(0.627148 1.91246 0)
(0.811618 2.85106 1.34504e-16)
(1.17963 0.519773 -1.19367e-17)
(0.36873 2.73631 -5.77549e-17)
(0.685869 -0.128615 1.35081e-16)
(1.32551 0.0738542 -1.05562e-16)
(0.661007 -0.0336768 -2.66743e-21)
(0.676399 -0.0374784 2.7803e-16)
(0.795204 3.1123 -7.42636e-19)
(-0.135938 1.29736 -2.29845e-17)
(0.205302 -0.193736 -2.35364e-16)
(1.0629 -0.06086 -2.64221e-16)
(0.711776 1.8566 9.71483e-17)
(0.321881 -0.26469 1.72648e-19)
(0.308678 -0.0542894 -7.23607e-17)
(0.0509564 2.33497 -4.75097e-17)
(1.32269 2.94196 -7.08798e-17)
(0.11018 2.30566 5.11812e-17)
(0.64676 -0.00716898 3.12853e-17)
(0.902968 0.520244 2.96586e-18)
(0.683086 -0.0384612 -4.15941e-16)
(0.916314 0.261571 5.91568e-17)
(-0.0218305 0.986789 1.36749e-16)
(0.762188 1.4347 0)
(-0.126494 0.879505 -5.86537e-18)
(1.20687 0.994548 1.83403e-16)
(0.931472 0.540565 2.6839e-17)
(-0.219135 -0.161841 0)
(0.357979 -0.0793223 -4.71542e-20)
(0.130224 0.165812 5.03472e-18)
(0.26236 -0.156241 -9.89837e-17)
(0.654099 0.0168448 -9.90039e-17)
(0.308944 0.188955 0)
(0.61011 0.00481212 0)
(0.300796 1.81534 2.65438e-16)
(0.0280173 1.51287 1.16125e-16)
(0.666735 -0.0427215 -2.18157e-16)
(0.836472 1.39402 -4.76713e-17)
(0.284593 0.571515 -4.36686e-17)
(2.2243 0.107295 0)
(0.658647 0.577326 -1.73972e-16)
(0.281735 -0.00130104 0)
(0.822461 -0.419505 8.05104e-17)
(0.913094 1.53709 2.73442e-18)
(0.296748 0.0166887 0)
(0.210748 0.465745 -2.17398e-16)
(0.22722 -0.366192 -6.42512e-17)
(0.279805 4.48714 2.38372e-16)
(0.173279 0.4992 -3.99734e-17)
(0.337707 0.519812 8.08054e-17)
(1.08777 0.0447569 2.46437e-16)
(1.18535 0.168907 -3.77969e-16)
(0.217923 -0.188742 -1.72214e-16)
(0.615351 0.204444 -1.30487e-16)
(0.0880104 0.0694757 5.38214e-18)
(-1.11584 -0.182113 2.68027e-16)
(0.587353 2.65198 2.69908e-16)
(-0.422369 -0.168044 4.0628e-17)
(0.286871 -0.0289407 -1.43078e-16)
(1.66805 3.17338 -1.52011e-16)
(0.66429 0.448274 6.24869e-17)
(0.330418 -0.0394302 -2.59002e-17)
(-0.250397 -0.0408904 -4.09614e-19)
(-0.171657 -0.109497 1.99126e-16)
(4.05661 0.350524 0)
(0.292345 0.222748 -3.85705e-17)
(0.670296 -0.0542966 -3.1932e-17)
(0.893143 2.28507 -1.3938e-16)
(0.494243 0.258111 5.74875e-16)
(1.9708 -0.160207 -1.48039e-16)
(0.831899 -0.17189 1.65252e-16)
(-0.482479 -0.0814673 -1.25763e-16)
(-0.155569 -0.0241262 2.1587e-17)
(0.0310805 -0.0179251 0)
(-0.0118654 -0.0668962 0)
(0.0762815 -0.0915488 -1.60467e-16)
(-0.0384501 -0.0794019 0)
(0.588271 -0.132277 3.5993e-16)
(-0.101623 -0.0233529 2.0544e-17)
(0.941011 -0.209782 0)
(0.308565 -0.166105 -1.17675e-17)
(1.58012 -0.243388 0)
(0.238862 -0.0191049 -4.90472e-17)
(-0.243153 -0.11252 -1.2749e-16)
(-2.07723 -0.0395871 -1.17192e-17)
(-0.0681401 -0.0522266 1.65393e-16)
(-0.163766 -0.0746365 0)
(0.466979 -0.0618748 -2.84064e-16)
(-0.810218 -0.0279168 0)
(-0.300472 -0.0372038 0)
(-0.264375 -0.0707951 -1.38588e-16)
(-0.136689 -0.0253193 0)
(-0.690375 -0.262319 -7.94567e-17)
(0.264283 0.0226304 8.8985e-17)
(-0.0267244 -0.369094 1.08699e-16)
(0.572178 2.32051 -2.70422e-16)
(0.834033 0.889528 4.75031e-17)
(0.647948 -0.0342182 5.30817e-16)
(1.03588 1.13629 -4.55623e-17)
(0.744145 0.233238 -4.01323e-16)
(0.667178 0.202347 2.33185e-16)
(0.318451 -0.0167057 -4.73879e-18)
(-0.139874 1.08957 -3.28403e-16)
(-0.11059 1.1359 3.47671e-16)
(-0.794589 -0.547929 5.96504e-18)
(0.270357 0.0485561 -2.11705e-16)
(0.135506 1.24159 0)
(1.03233 2.16612 1.44937e-16)
(0.807818 2.3284 1.52636e-16)
(1.3202 -0.14844 -2.47266e-16)
(0.345046 2.98425 2.55699e-17)
(-0.085788 -0.0685375 0)
(-0.217308 -0.0286938 -2.21211e-17)
(-0.0290331 -0.0290223 -1.50742e-17)
(0.356869 0.0158926 1.33628e-16)
(-0.341365 -0.150458 0)
(-0.100354 -0.0260793 1.99258e-17)
(0.242976 0.0331266 -9.19704e-17)
(-1.29036 -0.34174 -2.21259e-16)
(1.03126 -0.231322 0)
(0.297807 -0.114977 -4.24297e-16)
(0.0374076 -0.104874 0)
(-0.678359 -0.0686943 8.47741e-17)
(0.0518754 4.50571 -5.36754e-18)
(0.674682 -0.0320747 3.67478e-16)
(-0.0301001 -0.121648 -2.19176e-16)
(0.66136 0.00141194 2.65138e-17)
(0.888463 3.16045 -1.78269e-17)
(0.455085 0.94783 -7.1233e-18)
(-0.296062 -0.128614 -8.54624e-17)
(0.562681 2.82409 -1.60743e-17)
(0.260765 0.219628 4.26962e-16)
(0.679086 -0.0196718 9.72904e-17)
(0.281776 -0.0613561 0)
(0.577374 0.0435439 0)
(0.265333 -0.017521 0)
(0.337655 0.171547 3.5379e-16)
(0.371635 2.8207 0)
(0.652479 2.50822 9.37299e-18)
(2.11412 2.96627 4.8253e-17)
(0.24034 0.0902406 -4.22066e-17)
(1.25226 0.174243 -7.60458e-17)
(0.748661 2.44773 1.32074e-18)
(-0.135906 -0.0676596 -1.39594e-16)
(0.759399 -0.0794327 -9.40583e-17)
(0.244859 -0.0131687 5.22205e-17)
(-1.91314 0.310159 2.93828e-17)
(-0.0454822 -0.0868616 -4.2039e-18)
(0.659435 2.38588 -1.32304e-16)
(0.632511 -0.0211631 -2.60984e-17)
(3.9328 1.04211 0)
(0.254512 -0.233745 2.93084e-16)
(0.784917 2.16288 -1.07095e-16)
(0.144301 -0.526462 -2.95741e-16)
(0.612433 -0.557015 -9.07899e-17)
(-0.136944 -0.395683 -1.06598e-16)
(0.273644 -0.0998888 2.28458e-17)
(0.557412 2.27835 -2.87641e-16)
(0.301681 -0.234372 5.6032e-17)
(0.332539 3.63565 2.55321e-17)
(1.70655 2.91699 -3.266e-17)
(0.469032 0.800725 1.39789e-16)
(0.809496 2.26977 -2.71455e-17)
(0.559213 2.5189 -2.53876e-19)
(0.351988 0.159375 0)
(0.387497 0.417021 0)
(0.582821 2.34876 5.55258e-16)
(0.0871274 -0.165484 8.921e-17)
(3.06964 1.39872 -1.03228e-16)
(1.7098 0.880318 4.56836e-16)
(2.41066 1.6284 -2.38354e-16)
(1.69731 1.75149 5.86889e-16)
(2.28958 0.624391 -1.17975e-16)
(2.90154 0.938964 -2.95992e-16)
(0.645375 0.734578 -2.70531e-16)
(0.274288 0.623351 -2.92948e-16)
(0.309406 -0.615614 -1.98923e-17)
(0.313784 -0.0905862 -4.5493e-17)
(0.715483 1.91765 3.2623e-17)
(1.12718 5.24887 -1.81926e-18)
(0.282776 -1.04908 -1.16309e-16)
(1.44934 5.03805 -1.07817e-16)
(1.63361 3.13357 2.11734e-16)
(-0.862263 -0.0843167 2.29905e-16)
(0.0911709 1.04707 4.446e-16)
(0.267259 1.94903 -1.6492e-16)
(0.392673 3.00453 -3.75348e-17)
(0.333481 0.0536608 0)
(0.672115 4.37135 2.43284e-16)
(0.164898 0.882375 4.30055e-17)
(0.247592 1.72855 -2.23974e-16)
(1.30012 2.98069 -2.00061e-16)
(0.400601 2.51878 0)
(0.475858 2.69256 2.66876e-16)
(0.799763 3.34709 0)
(0.480459 2.26246 5.78638e-17)
(0.347959 2.61096 1.75418e-16)
(1.20624 2.87899 0)
(0.0989783 0.389539 -5.16289e-17)
(0.678386 2.39495 -2.85247e-16)
(1.51894 3.25371 -6.3787e-17)
(-0.026241 0.527745 -3.31479e-16)
(0.557855 2.70342 1.15201e-19)
(0.929225 2.81233 0)
(0.0446891 0.00487563 0)
(0.384106 1.84013 -1.01459e-16)
(1.19631 2.98952 1.39545e-16)
(0.70111 1.99639 2.60119e-18)
(0.67815 2.17142 2.64477e-16)
(0.484382 2.05087 3.08264e-16)
(0.799131 4.04394 -4.69308e-17)
(0.156649 1.36156 0)
(1.66663 4.73709 1.19675e-16)
(0.323545 -0.147072 -1.21138e-17)
(0.262019 -0.724155 0)
(0.0344839 -0.155287 1.20084e-16)
(1.37585 4.71039 2.4208e-17)
(0.13699 0.97384 -3.31547e-17)
(0.381005 1.6808 -2.31177e-16)
(0.0748732 0.446078 6.89268e-17)
(-0.934421 -1.14514 -1.01764e-15)
(-0.0545104 0.194044 -7.53417e-16)
(0.0634702 0.0125366 0)
(0.00541119 -0.0849052 -5.03005e-17)
(0.545811 0.888901 -1.16707e-16)
(0.00998605 -0.43234 2.94939e-16)
(0.122936 -0.687688 -5.03788e-17)
(0.344433 -0.229555 -5.55839e-17)
(-0.499039 -0.744165 5.37705e-16)
(0.293545 -0.352004 -1.68402e-16)
(-0.0182012 0.779184 0)
(-0.0548609 -0.518354 1.32322e-16)
(0.411064 -0.439848 -5.43084e-16)
(-0.0266515 -0.342573 6.73702e-17)
(-1.17487 -0.662237 -2.35144e-16)
(4.1189 0.22478 -3.29047e-17)
(-0.344372 1.20254 -1.64491e-16)
(-0.0463357 -0.345378 -9.49528e-17)
(0.282309 -0.615333 9.19988e-17)
(-0.0376766 -0.202774 -4.66048e-17)
(0.453135 2.12134 0)
(0.183152 1.31816 1.53499e-16)
(-0.540562 -0.420422 1.75512e-18)
(1.27464 3.2595 1.09079e-16)
(0.253025 1.82253 -1.14916e-17)
(0.34499 2.39188 9.67011e-18)
(-0.0713445 -0.294599 2.02731e-16)
(0.651796 -0.695197 1.13591e-17)
(0.305238 2.51739 4.03601e-17)
(0.459376 2.54268 -4.14706e-17)
(-0.0600122 -0.139677 4.86317e-17)
(0.763868 2.34141 -1.02347e-16)
(4.22501 0.31217 2.20681e-16)
(0.266211 1.45436 -1.81208e-17)
(0.465693 2.58013 -3.37903e-16)
(0.252724 1.5781 -9.44531e-18)
(0.379799 2.57671 -3.40014e-16)
(-0.0762574 1.34767 0)
(0.327639 2.34216 2.28091e-16)
(0.275806 1.3426 6.80282e-17)
(0.099421 0.315655 -6.44486e-18)
(0.328678 2.16251 -7.22309e-17)
(-0.0438056 -0.298897 2.92712e-18)
(0.236183 -0.687576 -8.89955e-17)
(0.574938 2.11637 -4.34501e-16)
(0.451553 1.74764 -1.61106e-16)
(0.546807 1.82389 7.48334e-16)
(1.99933 2.94145 3.70551e-17)
(0.651846 2.98563 1.04231e-18)
(0.367087 -0.332546 3.15913e-16)
(0.186623 0.149648 0)
(0.19047 -0.0403534 2.8743e-16)
(0.768417 3.53221 0)
(0.512067 2.51049 7.37163e-17)
(-0.0365396 -0.278222 8.91967e-17)
(-0.102595 -0.143811 -5.20573e-17)
(0.119781 -0.241809 3.59921e-16)
(0.782866 2.33878 -3.90509e-17)
(0.367379 1.96184 -5.6164e-17)
(0.450819 2.36275 1.15406e-16)
(0.17717 0.784946 0)
(0.92259 3.05674 0)
(2.6086 1.40876 1.3954e-16)
(1.31476 4.13132 -2.29936e-17)
(0.640038 -0.0574998 -4.41601e-17)
(-0.0227592 -0.258059 -4.54154e-16)
(1.12734 3.52703 3.04579e-17)
(1.80688 3.5461 3.16796e-17)
(0.469885 2.55468 2.17985e-16)
(1.53248 3.65642 -9.22502e-17)
(0.348889 2.05157 9.45406e-17)
(0.0561287 0.218622 -5.23609e-17)
(-0.409874 -0.0490235 0)
(2.11149 2.44152 0)
(1.93596 3.33164 0)
(-0.0516707 -0.34704 1.04694e-16)
(0.694541 -0.668507 2.5068e-16)
(0.859443 -0.089296 -8.81546e-18)
(1.75072 4.07626 5.23845e-17)
(0.665682 1.69266 7.06913e-17)
(0.755632 2.18183 -1.12555e-16)
(0.646934 2.68274 0)
(-0.288644 -0.543979 -1.40497e-16)
(0.354461 -0.0707826 -5.99463e-17)
(0.800764 2.34206 -1.1714e-16)
(0.345571 2.2373 -5.93384e-17)
(0.216164 -0.0521233 5.38601e-16)
(0.164888 -0.321024 1.31008e-17)
(0.699783 1.92477 7.47296e-17)
(1.9302 1.9114 0)
(4.106 0.612124 -3.51513e-16)
(0.753493 1.32322 -8.41546e-17)
(0.679252 -0.0720446 0)
(0.517582 0.770178 4.53263e-17)
(0.399486 2.37325 -1.04159e-17)
(2.07415 2.29519 1.51004e-17)
(1.03303 -0.0520956 0)
(0.0331193 0.793418 0)
(0.409406 2.57371 9.03369e-17)
(3.2057 1.0357 1.54579e-16)
(-0.452774 0.542493 -7.08731e-17)
(0.450728 2.69795 1.10868e-16)
(0.186591 3.01421 1.02672e-16)
(-0.0759752 -0.120079 0)
(0.370709 2.42404 -1.16168e-16)
(0.412329 2.68577 9.20898e-17)
(0.353072 -0.0718315 -1.09185e-16)
(0.969839 0.0772268 8.90553e-17)
(0.896529 2.44915 0)
(0.743112 2.39705 2.06015e-16)
(0.720046 -0.0589835 0)
(-0.63827 1.85791 -5.87349e-19)
(-0.0104431 1.78397 -1.80067e-16)
(-0.26575 -0.517716 8.70567e-17)
(1.79312 2.64668 0)
(0.324202 2.79282 9.39601e-17)
(0.72627 0.274693 -2.04803e-17)
(1.51456 0.332698 1.51281e-16)
(4.04121 0.531837 3.10384e-16)
(0.0441927 -0.349535 0)
(-0.0721833 -0.330351 0)
(0.167321 -0.621925 -8.06553e-17)
(1.20887 2.45673 -6.46791e-17)
(0.42235 0.837736 -1.10696e-17)
(2.17766 2.9893 0)
(0.807931 2.35503 -1.37984e-16)
(1.09597 2.803 1.04183e-16)
(-0.114724 -0.482734 -1.8608e-16)
(0.683827 -0.46291 -3.33776e-16)
(-0.400073 0.354134 3.80509e-16)
(-0.108364 -0.125714 2.28397e-16)
(1.32123 3.34763 1.92208e-16)
(0.917151 2.53243 0)
(0.253134 -0.0587737 -1.74156e-16)
(1.47131 2.77768 -4.38597e-19)
(1.6718 1.42096 3.30883e-16)
(0.542847 1.27024 -1.05571e-17)
(0.588944 0.518826 7.6314e-17)
(0.354975 2.74194 2.29879e-16)
(0.740532 -0.464348 -3.54089e-16)
(0.130292 0.362077 0)
(-0.090988 -0.12376 -2.14734e-16)
(1.92785 2.52562 -7.14349e-18)
(0.172384 1.73496 -4.70927e-16)
(0.12083 1.33389 -2.36701e-19)
(-0.228265 -0.0407264 -1.92352e-16)
(0.573627 0.314871 -1.8486e-16)
(0.691072 -0.099895 -1.47405e-16)
(0.0436772 2.41877 -2.98247e-19)
(0.641198 0.755197 0)
(-0.363317 -0.29555 0)
(0.519286 2.65143 -1.1697e-16)
(0.757271 0.147639 -1.02991e-16)
(0.783951 0.347088 -5.44263e-17)
(0.704041 -0.142992 -9.35024e-17)
(1.8785 4.18153 -7.05603e-17)
(0.640588 3.01132 0)
(1.85529 1.60974 -1.3584e-17)
(-0.267314 -0.402164 -2.20553e-17)
(1.0291 0.243738 2.11454e-17)
(0.971388 2.53423 6.09789e-17)
(0.556552 1.12511 2.24299e-17)
(0.818945 2.50667 0)
(2.00378 3.78141 4.97004e-18)
(-0.181223 -0.409035 -8.63101e-17)
(0.101124 -0.382098 8.36648e-17)
(0.730778 -0.191508 0)
(0.748218 2.71027 -8.1689e-20)
(0.885382 -0.037254 -6.69528e-17)
(0.146135 1.4049 -2.14337e-16)
(-0.00849577 -0.134831 4.06622e-17)
(2.22239 1.49447 0)
(-0.560577 -0.123462 -3.59418e-16)
(0.441801 2.13868 -2.80575e-16)
(1.39992 1.17725 1.51468e-16)
(0.774571 -0.2403 0)
(0.656251 0.243534 -4.40974e-17)
(1.66895 3.38404 0)
(0.604132 0.970385 0)
(0.958839 2.78943 0)
(0.317714 0.161333 -8.01511e-17)
(0.432901 3.29241 1.9968e-16)
(0.356086 2.45963 8.92374e-17)
(0.785749 2.19128 7.99793e-16)
(0.839539 -0.280018 -4.96318e-17)
(-0.624896 -0.230541 -2.79972e-18)
(-0.0473362 0.955145 3.04339e-21)
(2.09979 3.50965 -4.07999e-18)
(2.94571 1.24369 -1.50639e-16)
(0.143276 2.70274 1.05611e-16)
(0.359037 2.5998 1.02265e-16)
(1.85942 4.25884 -5.85016e-17)
(0.484386 2.85051 1.28762e-16)
(0.54619 -0.0321794 -4.22704e-16)
(2.06442 3.60539 0)
(0.52006 0.448968 -8.19205e-18)
(0.92535 -0.293343 3.67075e-17)
(-0.437977 0.576369 8.99764e-17)
(0.716856 0.0600209 9.96172e-17)
(-0.624641 0.185694 1.53526e-16)
(1.04432 -0.0192115 -1.92538e-16)
(1.97107 0.0151414 -9.08353e-19)
(0.217802 2.79678 8.90795e-20)
(2.09443 3.7494 0)
(-0.381181 0.0393941 0)
(0.118301 -0.0677314 4.67016e-17)
(-0.417647 0.109206 7.99987e-21)
(0.0422017 0.403578 1.89679e-16)
(0.613109 -0.0145357 0)
(-0.263925 0.0625544 1.41575e-16)
(0.798651 0.364702 0)
(-0.0918496 -0.0712592 0)
(-0.336548 1.12827 7.09789e-17)
(0.266229 -0.0374152 -1.69043e-16)
(-0.657579 0.0384169 -4.54061e-17)
(-0.0217993 1.79685 -3.58561e-17)
(0.250954 2.31228 6.90412e-17)
(1.02396 -0.249097 -1.21172e-17)
(0.0423482 0.929697 2.82156e-16)
(0.332967 0.122243 1.3083e-16)
(0.775581 5.44875 -9.88757e-17)
(1.17488 0.15439 3.76073e-17)
(1.26992 1.31501 8.34473e-17)
(0.610101 -0.0387019 -1.84583e-16)
(0.437448 0.184369 9.41683e-17)
(0.56685 1.25374 -1.98644e-16)
(0.357334 2.52996 2.01622e-16)
(-0.138765 0.371532 -1.70143e-16)
(0.807441 1.10779 8.66905e-17)
(1.03795 2.93725 2.335e-19)
(0.422685 0.672108 1.27041e-16)
(-0.00267807 2.3748 -2.34595e-17)
(0.702528 1.8127 0)
(1.52245 4.19563 0)
(0.379452 2.57397 -2.42765e-16)
(-0.301774 -0.303475 8.84095e-17)
(0.0625629 -0.00998049 -1.91906e-16)
(-0.833712 0.0389462 1.0363e-17)
(3.71193 0.168264 1.73932e-17)
(-0.132459 -0.452098 0)
(0.630957 -0.0975138 1.82012e-16)
(0.0265345 2.24638 0)
(1.00932 1.40205 0)
(1.84007 2.06495 -9.34516e-17)
(1.11616 -0.108067 0)
(-0.0914614 0.136462 -4.68244e-16)
(0.916381 2.36051 3.98428e-16)
(0.781014 2.418 7.64874e-17)
(-0.128021 -0.589215 -8.45098e-17)
(0.608992 1.54766 -7.40808e-17)
(1.68601 2.61034 -1.46886e-16)
(0.660584 -0.0413301 -2.49439e-16)
(0.902467 2.40676 1.47404e-16)
(0.797854 0.856548 -1.33497e-17)
(0.418945 2.11482 -2.53102e-16)
(3.33409 0.450858 -8.15081e-17)
(0.349571 2.77413 6.08534e-17)
(0.0269549 1.96888 0)
(0.308754 0.194754 -2.52737e-16)
(0.656847 0.0470916 9.45032e-18)
(0.606665 0.0475017 -3.57217e-17)
(0.847829 2.64986 3.74622e-20)
(0.730131 0.0507203 -9.62539e-18)
(0.575439 0.0430326 0)
(-0.41796 -0.107379 -2.7203e-16)
(-0.0566656 2.95421 0)
(1.33051 0.0670465 3.46598e-16)
(0.822429 0.0556663 -7.64545e-17)
(0.502554 0.0215794 0)
(0.0924173 0.580637 7.43113e-16)
(-0.039705 1.36289 1.51376e-16)
(0.252605 0.00348252 -3.30429e-16)
(0.592726 0.0455754 -4.01571e-16)
(0.260291 0.546309 2.5956e-17)
(0.0714584 1.22001 0)
(1.86192 1.4899 2.05547e-16)
(-0.665438 0.356098 7.75759e-17)
(1.98956 0.0668942 1.21326e-16)
(-0.205438 0.00336724 1.48759e-16)
(0.328695 0.452616 4.89703e-17)
(0.744019 2.03713 3.41687e-17)
(-0.074563 1.69068 -3.16677e-21)
(-0.127348 -0.157705 8.42748e-19)
(0.447133 2.68055 0)
(-0.41408 0.748097 4.41034e-17)
(0.384001 0.402953 0)
(1.48195 0.0812748 -4.99711e-19)
(0.540817 0.565718 -4.19722e-20)
(0.388123 0.242975 5.17519e-17)
(0.219329 0.621217 -1.29481e-16)
(1.2247 0.810005 0)
(0.362984 2.69244 -6.20974e-17)
(0.478821 0.946387 -3.08566e-16)
(1.7224 0.0757963 -2.52747e-16)
(-0.565366 0.497539 0)
(-0.708736 -0.0812944 -2.54871e-20)
(1.37289 2.56816 -1.36737e-16)
(0.469636 -0.0626269 5.47124e-16)
(1.5594 -0.0786111 4.85126e-16)
(0.583783 -0.00572461 -4.41238e-16)
(0.487624 0.606518 -2.0171e-17)
(0.51776 -0.0728989 1.92659e-16)
(0.302975 0.625262 -3.06067e-17)
(1.54627 1.42927 -1.50748e-16)
(0.478047 0.240137 -2.10602e-20)
(0.274696 1.6347 1.05977e-16)
(-0.0689181 -0.515527 8.37552e-16)
(0.766776 2.61552 3.87868e-20)
(-0.0173929 0.0324481 0)
(0.426701 0.0949905 8.54514e-17)
(0.441566 0.731388 1.34692e-20)
(0.66863 0.353585 -9.93388e-17)
(-0.540159 -0.375929 -8.46433e-17)
(0.630095 -0.038961 4.23262e-17)
(-0.0117021 0.611359 -3.03734e-16)
(0.00214992 1.59337 1.0399e-16)
(-0.0141874 1.17894 -7.67259e-17)
(1.07006 0.586681 1.39491e-16)
(0.0360219 0.362748 2.08164e-16)
(0.293311 1.73211 2.63505e-16)
(-0.11942 1.20446 -2.02656e-16)
(0.233254 2.63661 -3.78141e-16)
(0.7881 -0.700996 -8.28035e-19)
(0.243825 -0.0397372 8.33025e-20)
(2.65467 1.60031 2.08031e-16)
(0.118799 0.915583 -2.46635e-16)
(-0.0288485 1.59674 0)
(0.840235 2.37923 2.33951e-16)
(-0.367366 -0.43565 -9.28101e-17)
(-0.586158 -0.174767 3.79468e-17)
(-0.31487 0.90027 2.3689e-17)
(-0.532294 0.103092 4.14211e-17)
(0.421155 2.34967 1.16857e-16)
(0.782675 -0.0585003 -1.17292e-16)
(-0.658957 -0.202245 8.64521e-17)
(1.03007 3.22289 2.01788e-16)
(-0.446042 -0.660201 -4.38145e-16)
(-0.691874 0.12913 -2.03363e-17)
(0.410673 -0.181851 -3.55969e-16)
(0.363637 2.08182 0)
(-0.0267627 1.55769 -6.25139e-17)
(0.0794359 1.86115 1.15664e-19)
(0.0782282 2.13708 -5.53418e-17)
(-0.643265 -0.0189441 -4.02933e-17)
(-0.0386147 1.46424 -2.48515e-16)
(0.232141 2.45132 5.88813e-17)
(-0.682666 -0.460395 -2.18706e-16)
(-0.356929 0.419002 -2.76092e-18)
(0.783399 2.75421 -6.36698e-17)
(0.601452 1.37144 7.61654e-17)
(0.714215 -0.0117506 0)
(0.770992 -0.0411695 0)
(0.0120204 2.2151 -3.52686e-18)
(0.650818 -0.0459381 -4.11236e-16)
(0.676543 -0.102614 2.30857e-16)
(0.191682 -0.568149 0)
(0.856012 0.108569 0)
(0.364822 0.378011 -1.86645e-17)
(-0.639126 0.381101 -8.32779e-17)
(0.254537 -0.0681359 1.41125e-16)
(-0.240521 -0.283866 1.52175e-16)
(-0.35976 0.511798 9.60425e-17)
(0.809918 3.784 -6.01948e-16)
(0.339418 0.347132 0)
(0.575736 0.936219 -9.82921e-17)
(-0.720877 1.49155 -5.92158e-17)
(0.245931 -0.00960207 0)
(0.618821 -0.111572 -1.67813e-16)
(3.93581 0.835753 -1.6942e-16)
(0.406666 2.73877 5.66208e-16)
(0.708345 0.0454992 -1.10306e-16)
(0.614212 1.61369 -1.92019e-16)
(1.25354 1.63948 0)
(1.55109 1.82265 0)
(0.539126 2.78933 1.29489e-16)
(0.616364 1.4772 -6.74646e-17)
(0.881836 2.70277 1.43563e-16)
(0.215359 -0.0403577 0)
(0.789522 2.25272 7.1419e-17)
(0.676806 2.5043 9.57857e-20)
(0.636139 -0.00295033 0)
(-0.120996 -0.200408 0)
(0.368535 0.499462 5.08222e-17)
(0.105096 0.00107749 0)
(-0.419846 0.310323 2.75717e-17)
(1.26799 0.0801896 1.38438e-16)
(0.206911 2.32843 1.54585e-16)
(0.705097 0.0298788 3.55117e-16)
(0.34754 5.59453 -5.95815e-17)
(-0.0656685 1.90417 -1.74037e-16)
(1.27334 -0.224627 1.67777e-16)
(0.142184 -0.472923 0)
(0.0753724 2.16696 -6.14992e-17)
(0.294002 -0.232711 1.90569e-16)
(0.973572 2.4434 0)
(-0.772259 0.287095 -1.39127e-16)
(-0.113994 -0.304015 0)
(0.63844 -0.00960042 -2.39986e-16)
(0.270136 1.72314 0)
(-0.92965 0.740978 -1.91963e-16)
(-0.737928 0.0747619 4.57239e-18)
(0.663947 -0.0471061 1.31063e-16)
(0.307784 2.24732 5.44017e-16)
(-0.106876 1.36374 0)
(0.216356 -0.73419 1.03833e-19)
(0.623615 2.65316 1.51983e-16)
(0.186202 1.76525 -1.42346e-16)
(-0.574487 -0.331425 3.73096e-17)
(-0.0269929 0.104683 -1.5452e-16)
(0.180643 -0.150045 1.81884e-16)
(0.0545273 2.24415 3.37389e-17)
(-0.679924 0.232379 4.9164e-18)
(-0.00860633 1.74108 -4.87848e-16)
(0.540623 3.6027 -1.18704e-16)
(0.632358 2.7633 2.20859e-16)
(1.08869 0.458281 3.03028e-16)
(0.453115 -0.00376785 -1.01037e-16)
(0.661756 -0.0541356 -8.94818e-17)
(-0.258967 0.173843 -7.48721e-17)
(0.74757 0.129869 3.59198e-16)
(-0.179816 -0.400663 1.86122e-16)
(0.903247 -0.0920843 1.05104e-16)
(-0.0878793 -0.125477 0)
(-0.0892347 -0.140819 0)
(-0.0495621 0.465246 -1.81459e-16)
(2.25562 0.408465 2.12209e-16)
(-0.0312319 2.35202 -2.46779e-17)
(0.0682155 -0.389606 -2.97305e-16)
(0.0524333 -0.230318 7.815e-18)
(0.201403 0.726572 -8.45111e-17)
(1.06289 2.50682 4.39669e-16)
(0.20278 0.0109211 1.10684e-16)
(0.657266 -0.072297 4.44745e-17)
(0.957736 -0.100722 0)
(1.87699 1.9445 1.19856e-16)
(0.267687 0.239075 0)
(0.557871 0.973539 0)
(-0.0999327 -0.0620365 -4.09532e-18)
(0.327814 2.85279 0)
(0.851645 -0.0156388 0)
(0.217556 0.10499 0)
(0.0580425 0.415457 0)
(3.21174 2.30825 -4.1157e-16)
(0.345828 2.27976 -1.70653e-16)
(-0.0833754 1.72234 -1.29404e-16)
(0.572723 0.416221 -4.05494e-18)
(-0.154426 1.05166 -4.44604e-16)
(0.661175 1.65879 -3.18988e-16)
(0.38633 2.65827 2.497e-16)
(0.297568 5.5149 -3.17373e-16)
(0.699503 2.62735 2.71322e-16)
(-0.0151598 1.59339 6.10354e-17)
(0.667928 -0.270025 0)
(0.313721 0.0461135 0)
(0.265111 0.19542 2.46105e-16)
(-0.245716 -0.0402882 9.09129e-16)
(0.41611 1.94734 2.49545e-16)
(-0.199028 1.20707 0)
(0.711978 0.344281 0)
(0.48618 2.73934 1.57056e-16)
(-0.605952 0.0212682 2.234e-17)
(1.26985 1.65412 -1.31601e-16)
(0.654385 -0.103984 -1.29778e-16)
(0.540013 2.91454 -2.64178e-16)
(0.43306 -0.358385 -2.89145e-18)
(-0.0501776 0.209296 3.55746e-17)
(-0.0194869 0.18994 -1.23967e-17)
(0.0977204 0.306148 0)
(0.0395313 0.212392 -5.17987e-17)
(-0.0434414 1.52435 0)
(-0.0271813 1.41509 0)
(-0.0335946 1.59396 0)
(-0.00431756 1.57128 0)
(-0.0712984 0.260718 0)
(0.0140093 1.54287 0)
(0.018068 1.55313 0)
(-0.0662356 0.326271 -2.30083e-17)
(-0.0577414 0.390201 -2.22354e-17)
(-0.0374475 0.44413 2.24476e-17)