/*--------------------------------*- C++ -*----------------------------------*\
| =========                 |                                                 |
| \\      /  F ield         | OpenFOAM: The Open Source CFD Toolbox           |
|  \\    /   O peration     | Version:  v1912                                 |
|   \\  /    A nd           | Website:  www.openfoam.com                      |
|    \\/     M anipulation  |                                                 |
\*---------------------------------------------------------------------------*/
FoamFile
{
    version     2.0;
    format      ascii;
    class       volScalarField;
    location    "0.28";
    object      epsilon;
}
// * * * * * * * * * * * * * * * * * * * * * * * * * * * * * * * * * * * * * //

dimensions      [0 2 -3 0 0 0 0];


internalField   nonuniform List<scalar> 
1431
(
4.85508
14.0603
47.2344
12.7614
1.47847
5.48857
8.5369
169.933
1.84412
6.52005
128.707
123.42
25.3417
5.35104
1.39038
9.3614
5.93631
18.2327
8.78836
19.2298
265.936
7.28372
2.11847
112.887
1.45455
38.4244
85.0076
1.61871
46.9395
21.1043
37.1021
61.5483
29.1711
1.96684
4.5482
7.20882
58.5623
0.930959
15.6148
63.9943
101.274
93.7157
33.9133
14.7629
7.07938
2.03942
5.83553
71.3194
9.92448
1.31388
25.4645
19.5932
24.1756
169.36
7.49645
34.7029
1.75011
155.449
5.88153
8.60844
1.0948
8.80074
1.3072
0.825148
21.5118
5.53236
33.085
1.46492
1.59373
12.5698
108.224
2.9048
9.65456
1.84168
7.11808
2.62353
43.6578
4.47235
6.52283
16.417
6.07208
5.03192
8.06487
4.79024
34.4958
20.7998
6.74679
1.43618
19.5825
15.0014
1.51511
1.35024
1.68519
12.6287
4.66167
24.734
166.562
17.084
12.5649
35.8981
23.0555
11.6487
5.55645
16.4526
13.1785
33.1601
42.1793
111.388
1.64342
5.20006
16.7159
18.0507
31.9122
58.0428
8.57762
1.85143
4.79001
11.9928
14.8565
1.11317
19.1806
1.77989
121.093
9.62488
77.6208
6.70773
42.4181
1.08485
37.7892
4.91507
8.49706
24.9632
4.96673
10.3647
29.2822
1.20878
9.61805
7.69192
39.343
1.24028
18.3327
19.4415
6.82514
16.6164
3.07072
26.7979
1.7594
19.9653
7.99362
1.56386
1.37255
1.83113
65.7786
15.9711
41.6735
2.83489
28.4137
18.5607
11.8455
6.29025
36.332
24.1375
7.40871
5.35949
91.1072
17.1051
47.1578
4.93042
1.02007
12.5614
26.2533
10.1803
51.8707
36.9772
16.0377
27.154
4.57343
6.31274
25.0325
6.35448
6.93164
21.2458
9.99536
251.826
5.97217
89.26
97.1098
17.6756
37.8563
26.2751
21.5564
40.7491
43.1243
177.026
13.4974
16.7402
21.883
8.06298
1.32135
0.953441
16.5583
6.87789
90.7253
5.85119
13.5661
26.0987
38.5597
4.47623
49.8131
0.969893
57.2924
8.62065
39.3415
35.9258
38.8496
57.4443
41.7987
7.34562
11.5133
83.6298
43.5013
10.656
7.93079
6.06804
41.8696
80.9937
102.375
14.1401
55.9237
51.2001
108.491
34.2868
28.0486
48.9723
59.3962
22.8331
37.107
35.8446
20.465
14.8997
7.13707
8.56233
61.6876
34.52
38.5258
27.035
35.5385
89.0698
40.8732
1.45308
1.11524
31.639
6.41032
6.45281
23.6535
52.3623
6.54177
115.621
25.6234
40.6451
59.737
36.237
9.96045
4.56802
44.5697
106.635
3.56274
296.326
68.546
1.93297
2.10148
37.3361
12.3407
15.6898
37.8503
48.7735
37.231
42.2526
49.8669
58.8462
5.96203
66.533
25.079
36.5579
6.24207
13.6043
75.7177
20.8631
36.2561
18.2153
1.43588
3.04611
20.3354
8.57905
32.8848
58.7892
126.291
97.8551
56.1951
59.2977
16.9882
34.3762
11.2927
16.6681
40.5654
6.69225
18.6244
40.4185
92.1219
11.5465
15.1133
6.2031
5.9095
93.4433
2.49886
21.3997
8.89358
6.80733
2.66296
722.633
16.2858
19.453
16.6885
13.3471
6.93237
57.8013
25.7098
3.2205
185.067
6.23763
82.9745
1.70182
2.27472
9.21818
6.43689
20.2882
5.66309
20.1837
6.38764
66.68
20.7852
23.8581
11.9761
43.0184
2.9606
20.8571
16.6287
32.8466
10.8121
10.2558
8.23126
5.97257
12.913
9.14332
2.79734
8.00569
40.8256
37.1952
28.4641
94.6497
6.8638
75.6008
70.7668
10.4588
1.69704
27.2653
1.42709
385.935
43.2989
17.5404
112.016
1.36515
19.6885
9.56877
27.681
187.606
13.8443
5.69915
22.3308
258.942
25.1858
5.40493
6.88701
3.05302
644.507
4.06422
16.843
4.49288
7.1471
10.0746
8.19645
12.0646
9.97936
6.83246
29.7869
11.7084
6.98636
7.45868
1.79687
4.75988
8.20632
14.9406
24.4732
31.2936
51.049
4.81418
5.80422
2.1806
5.64022
4.56557
11.4809
7.7514
4.43264
38.7905
4.65784
12.183
7.61033
1.90361
5.13808
4.34762
52.1539
30.4289
24.9097
7.44167
4.31133
1.07639
10.6667
19.9056
20.721
74.0502
42.5136
38.2457
45.7762
37.9483
50.4314
51.6493
45.9192
52.8813
48.6873
43.9464
1.20872
40.4002
1.67689
2.9236
12.571
6.15792
7.32766
2.96279
4.70543
5.14635
4.99192
0.913202
8.35504
9.23585
6.37072
10.1283
6.41591
113.666
5.10031
41.234
5.3515
1.31409
106.969
9.66391
47.4994
1.1879
13.5366
103.178
1.0581
100.797
14.5438
17.6318
12.3005
11.0626
41.303
34.9715
1.24425
5.2662
10.6342
21.8995
12.2073
17.0738
44.0727
14.9847
26.314
12.7057
8.38802
19.9305
26.5873
14.3723
52.779
20.6466
22.3018
29.7047
15.4607
7.31809
21.9797
58.6067
37.3811
1.20804
75.1024
45.2963
1.73359
132.772
57.0138
37.5005
1.56416
30.6446
48.1731
1.40481
37.1127
25.0692
5.76983
18.323
166.255
11.3978
75.3675
34.1533
26.8799
41.9875
5.82159
56.3984
1.38317
6.71558
37.2987
10.9487
55.0219
62.6064
1.42577
4.12877
18.1347
43.4377
25.0917
56.865
17.3313
16.6451
4.31383
17.2997
33.2782
1.17732
6.62507
91.1245
3.30917
53.0959
1.15166
3.37697
10.4785
16.7219
6.75644
27.8461
12.7696
112.493
7.95179
4.43699
1.28356
57.7354
11.0558
68.0133
16.1876
369.651
40.0343
44.2781
19.1927
14.691
576.722
23.9119
7.60859
5.68822
48.0536
13.7393
4.95038
19.8452
44.1404
35.0815
43.337
6.87551
9.85725
5.094
42.2939
33.9075
5.13761
13.9496
6.03923
7.48559
7.25772
40.9461
33.4723
46.6429
48.263
1.33763
41.353
1.975
32.3655
13.6766
43.5534
11.7537
15.0486
14.7858
19.2871
42.0664
20.7043
21.8729
4.17288
43.2231
7.30796
6.66075
110.518
8.25022
13.7581
1.86157
10.6293
22.4275
8.63344
40.5431
4.96515
4.06237
40.3729
6.23752
29.3354
7.8474
10.0666
16.8866
37.5341
5.3028
15.6822
8.38926
11.266
1.25131
9.1699
7.09654
13.9079
32.9067
16.9204
39.139
4.90363
6.96501
143.788
9.37999
1.11345
14.5796
2.53231
22.7909
12.3119
4.17711
1.07991
18.2241
6.76938
7.26999
74.5396
11.0199
48.3511
66.1339
6.03832
7.13389
2.04754
7.02812
2.59508
9.23893
18.2853
23.9129
33.1251
7.99338
28.8308
9.31648
58.0143
31.5733
17.9668
20.7157
28.3701
5.9903
4.39029
5.46647
57.8311
32.9699
41.6417
18.9473
60.3667
8.53754
6.24307
15.0436
15.7928
10.1609
8.19647
56.9458
1.69379
30.1431
39.7271
1.22581
1.4075
6.54343
80.0277
40.432
2.09396
6.37102
6.58304
56.847
10.1644
5.24724
6.89703
18.3428
8.00958
8.2985
5.46961
6.40706
1.11488
63.7955
7.28334
8.94645
11.0736
4.02745
4.85779
7.27766
28.9989
41.625
61.3234
27.5277
43.8667
1.25475
16.4967
1.54905
6.26002
28.5581
30.5438
7.3346
44.1182
4.43105
59.4459
36.9879
101.408
186.587
2.72456
8.38861
23.5485
13.2601
88.3584
36.1338
1.79442
11.8994
56.6399
11.0013
33.4879
4.26328
14.1153
5.67415
38.2265
7.759
7.72862
13.5502
5.37056
9.88383
32.4876
11.6309
4.57576
12.3363
184.14
6.09775
4.13946
17.7683
5.28915
6.65889
171.961
90.2183
37.4973
6.0188
3.29669
44.7292
13.6089
10.7869
4.15777
10.8283
46.4532
30.4542
6.7801
1.99927
2.71778
18.4839
7.19948
23.6958
4.03256
1.34307
8.59648
13.5596
6.71305
1.08027
6.82141
41.0654
6.09139
18.0439
54.8872
12.0482
48.6219
10.2457
38.1197
5.59617
38.4907
7.16732
18.7156
26.5882
20.6065
12.2308
65.4662
7.78492
1.94149
35.5937
42.1424
688.619
37.0196
4.41112
23.4557
5.58405
404.508
5.48554
13.4442
33.4058
32.4888
127.251
40.5048
1.26197
60.1869
1.16348
1.50921
87.1209
6.85796
17.2681
7.25672
36.5377
19.4204
17.8764
1.53108
30.8447
60.0822
13.8206
58.5621
55.8693
9.55671
166.527
5.86009
51.094
5.97316
34.4268
8.27673
7.90657
5.87131
40.8736
5.44696
25.1606
16.6185
209.816
24.7599
30.3801
41.9489
17.1863
19.7217
7.00436
34.0275
1.25406
4.72037
6.88127
34.9319
7.85378
7.81944
7.86299
7.12796
10.8738
31.1895
3.43665
35.7492
6.86079
31.2373
4.01764
27.803
601.742
4.82635
9.60903
5.43284
14.4629
7.3692
1.27854
3.71992
1.49366
100.579
19.429
1.96624
89.1551
473.677
150.367
164.153
64.8221
38.3392
42.1141
43.8463
42.7266
75.3976
37.4651
33.7308
32.514
32.6234
36.7018
47.6854
84.4527
33.8795
29.6809
34.9344
30.2719
38.4967
40.0901
27.9268
41.8865
45.3608
25.7761
45.7077
37.4403
27.3145
1.1975
27.6465
6.88613
7.51461
5.57954
71.7122
47.2804
18.8246
4.67881
1.38037
9.53621
187.105
16.0854
5.86966
30.5735
5.15301
38.11
4.75722
6.30988
149.618
1.52103
42.6051
5.24757
9.26503
6.11919
37.526
26.2224
57.4457
6.15447
34.4301
4.7899
13.8824
11.6509
42.1998
1.28663
14.8627
1.79653
23.9015
6.26334
46.9832
20.9827
45.998
22.4661
32.5251
5.20047
6.77563
42.3975
34.9465
30.0654
10.6856
19.1223
1.50633
11.5488
9.1205
11.2655
41.6464
1.029
8.26802
15.7807
23.4482
62.9869
2.28824
7.76767
13.565
35.5676
7.4907
765.419
4.10857
34.7738
22.6969
176.01
4.04041
17.1089
12.6562
6.23129
10.9266
1.16231
44.8914
4.66589
25.6739
425.316
51.0509
41.7215
4.03447
19.7733
33.2164
11.0689
45.0959
23.2308
1.24035
47.7614
58.6688
30.7632
97.8027
88.2417
17.7037
1.05659
12.0891
2.51185
47.9297
17.4524
5.40042
13.0186
14.9964
33.7124
11.7709
10.864
40.4113
424.43
6.21583
46.9402
22.181
5.04225
4.66046
179.571
21.3841
4.96584
31.6796
36.4346
30.0199
16.9408
5.35405
57.5122
8.64405
16.2204
25.8737
47.8486
10.0855
9.17129
20.1579
11.1266
5.42102
11.8792
82.6329
61.5547
141.967
41.4822
3.95729
45.9841
4.26019
4.75561
10.0123
8.30106
10.9977
6.47135
9.37473
73.5302
4.61715
28.4331
37.2754
39.0598
3.36198
31.7962
34.6244
33.3539
3.7563
34.5095
45.5441
17.3921
32.6898
42.2443
22.7224
25.0464
28.2632
34.4551
38.22
39.1519
31.9445
38.4394
10.4539
14.4175
17.5167
11.2195
14.1362
16.2911
9.78791
6.22583
50.8664
46.5861
7.70694
22.6391
6.3808
26.9955
0.989266
8.87314
9.06637
25.058
43.0793
4.55966
7.50641
1.22986
1.44003
4.95534
29.7816
40.3866
4.35641
41.7702
11.6749
8.73064
585.453
42.5213
36.3905
1.57558
6.27818
10.874
16.3305
35.8691
11.5518
2.76677
7.09067
1.0203
19.8541
24.9116
5.70354
11.9361
6.76699
10.7768
10.415
38.2603
7.10807
84.249
22.6452
9.37463
36.7052
184.634
1.12154
35.0738
77.6816
4.60959
26.387
4.68574
7.72019
5.30484
34.9964
7.69814
4.39602
54.53
79.7865
25.6333
24.6378
43.167
1.10069
13.8358
23.4431
28.6943
5.32315
30.5844
61.6238
52.8904
10.588
38.2956
15.7861
56.0098
13.3439
25.1186
38.2598
5.98647
13.2757
87.7649
8.90667
34.9355
30.2767
17.8394
4.4554
17.851
24.551
47.1968
158.053
63.8502
4.33804
2.44402
8.66749
4.01514
37.8617
51.2569
50.1419
14.3524
11.2925
14.0906
125.34
10.0183
11.4611
9.70619
1.96946
5.54941
196.567
1.45597
4.65571
13.8345
8.39574
14.0161
15.5646
15.7331
46.3756
38.5423
19.5744
2.9071
11.8099
45.5096
10.0758
8.60155
19.9185
7.08651
6.5759
16.318
10.5231
25.511
4.17215
15.5925
18.6131
46.1438
15.3424
8.82502
16.6894
4.24002
18.5496
12.6078
467.615
41.0951
5.01364
9.98693
42.3606
9.4925
6.07628
12.2406
64.7883
1.31354
33.1408
4.40544
3.89799
9.36289
4.10442
14.0232
4.75919
19.9012
6.26246
106.971
14.0662
201.351
3.60332
24.1959
7.23534
7.8989
4.65958
3.20786
91.8567
3.90424
18.5119
11.393
245.766
9.87027
11.3628
1.35114
38.7665
19.8322
10.8882
50.5453
20.5778
6.3972
42.1017
27.0856
3.09495
11.9037
4.14476
5.98898
123.736
48.5598
46.3656
24.6395
48.9712
1.26088
50.9202
31.0261
40.7702
184.948
7.8045
10.3578
10.908
4.9328
89.7854
19.2514
56.2674
1.08275
171.164
51.9407
35.9751
2.3106
379.153
4.92504
7.33293
1.37505
47.6274
44.715
4.76167
143.958
16.2766
19.2185
5.52028
283.989
12.5155
197.289
13.5901
23.5652
50.8055
136.72
152.145
60.5434
70.7353
5.27966
20.6439
4.44357
59.5591
1.47001
38.4125
7.21978
4.6299
74.2911
266.016
36.9815
10.1757
10.0553
26.1671
16.98
4.92246
2.79239
168.919
7.84398
5.50661
59.3687
5.57657
5.76627
41.8955
1.34299
10.3828
18.5841
16.325
231.131
18.5274
4.51861
1.52603
1.49592
54.4114
67.8806
3.78499
3.38862
17.0692
44.6037
39.9919
64.5147
15.6944
67.3721
10.0351
54.4213
29.597
7.17937
17.0253
2.98447
8.21265
22.5854
21.4042
39.1467
44.5552
9.01349
12.2354
16.1016
19.906
8.38051
32.1183
22.9808
29.8544
4.75665
42.9369
1.53555
1.831
34.5595
31.4009
1.74838
20.4255
25.423
53.0495
19.6108
9.57285
6.70046
24.4753
8.95833
13.8855
2.81885
10.739
1.00097
84.3894
4.57873
64.6306
101.011
43.8684
14.6134
32.1669
5.58653
5.6464
13.3961
24.358
110.66
32.8687
10.404
2.40039
6.48766
19.1452
71.2666
3.91165
1.36759
23.1276
42.3266
1.22645
44.528
1.56322
7.8068
2.38104
1.89291
2.20159
)
;

boundaryField
{
    frontAndBack
    {
        type            empty;
    }
    wallOuter
    {
        lowReCorrection 0;
        type            epsilonWallFunction;
        value           nonuniform List<scalar> 
96
(
46.9395
21.1043
24.734
57.8311
60.3667
56.9458
6.54343
6.37102
6.58304
10.1644
6.89703
8.00958
6.40706
63.7955
8.94645
11.8994
56.6399
33.4879
7.19948
6.82141
7.16732
7.25672
36.5377
13.8206
58.5621
64.8221
38.3392
42.1141
43.8463
42.7266
75.3976
37.4651
33.7308
32.514
32.6234
36.7018
47.6854
84.4527
33.8795
29.6809
34.9344
30.2719
38.4967
40.0901
27.9268
41.8865
45.3608
25.7761
45.7077
42.6051
46.9832
20.9827
41.6464
8.26802
62.9869
41.7215
97.8027
46.9402
22.181
21.3841
16.2204
9.17129
11.1266
82.6329
33.3539
34.5095
32.6898
42.2443
22.7224
25.0464
28.2632
34.4551
38.22
39.1519
31.9445
38.4394
10.4539
14.4175
17.5167
11.2195
14.1362
16.2911
22.6391
7.50641
24.9116
24.6378
50.1419
7.08651
18.5496
20.5778
46.3656
24.6395
12.5155
70.7353
74.2911
10.0553
)
;
    }
    inlet
    {
        type            fixedValue;
        value           nonuniform 0();
    }
    outlet
    {
        type            zeroGradient;
    }
    wallInner
    {
        lowReCorrection 0;
        type            epsilonWallFunction;
        value           nonuniform List<scalar> 
126
(
5.88153
8.60844
1.0948
8.80074
1.3072
0.825148
21.5118
5.53236
33.085
1.46492
1.59373
12.5698
108.224
2.9048
9.65456
1.84168
7.11808
2.62353
43.6578
4.47235
6.52283
16.417
6.07208
5.03192
35.8981
1.85143
4.79001
11.9928
14.8565
1.11317
19.1806
1.77989
121.093
9.62488
77.6208
6.70773
42.4181
8.49706
24.9632
1.24028
18.3327
6.82514
16.6164
1.7594
1.56386
1.83113
15.9711
91.1072
6.93164
89.26
97.1098
13.4974
57.2924
1.93297
49.8669
58.8462
1.43588
126.291
97.8551
59.2977
34.3762
6.2031
5.9095
93.4433
57.8013
25.7098
82.9745
66.68
20.7852
37.1952
75.6008
70.7668
2.1806
1.90361
132.772
166.255
4.12877
17.2997
91.1245
16.7219
112.493
16.1876
43.337
5.094
48.263
1.975
20.7043
37.5341
16.9204
1.07991
6.03832
1.11488
7.28334
6.65889
9.60903
1.27854
34.9465
61.6238
36.9815
10.1757
10.739
1.00097
4.57873
101.011
43.8684
14.6134
5.58653
13.3961
24.358
110.66
32.8687
10.404
2.40039
19.1452
71.2666
3.91165
1.36759
23.1276
42.3266
1.22645
44.528
1.56322
7.8068
2.38104
1.89291
2.20159
)
;
    }
    procBoundary3to1
    {
        type            processor;
        value           nonuniform List<scalar> 
48
(
55.9373
105.411
112.17
67.9089
55.7498
43.7475
105.411
18.3808
32.4498
6.73907
6.73907
12.3683
12.3683
46.0545
55.1738
13.3788
13.6843
10.7057
13.6843
7.0476
22.8659
19.2564
7.0476
8.87958
1.80481
5.86457
14.3796
19.2564
14.3695
11.8251
11.8251
16.2834
16.2834
32.4498
6.68948
55.0427
21.4193
1.80481
44.6431
42.5361
46.0545
24.8036
28.0076
7.0476
59.0884
47.9709
50.1156
26.7808
)
;
    }
    procBoundary3to2
    {
        type            processor;
        value           nonuniform List<scalar> 
29
(
1.28907
1.28907
2.92635
5.47418
37.3549
3.42622
7.63758
1.81853
5.61344
4.92675
2.78345
30.9219
1.54182
15.5879
6.88655
13.5769
4.93268
7.58783
1.34904
6.35842
5.63737
4.93268
10.1744
7.58783
6.66322
5.00573
7.58783
45.874
45.874
)
;
    }
}


// ************************************************************************* //
