/*--------------------------------*- C++ -*----------------------------------*\
| =========                 |                                                 |
| \\      /  F ield         | OpenFOAM: The Open Source CFD Toolbox           |
|  \\    /   O peration     | Version:  v1912                                 |
|   \\  /    A nd           | Website:  www.openfoam.com                      |
|    \\/     M anipulation  |                                                 |
\*---------------------------------------------------------------------------*/
FoamFile
{
    version     2.0;
    format      ascii;
    class       volScalarField;
    location    "0.26";
    object      nut;
}
// * * * * * * * * * * * * * * * * * * * * * * * * * * * * * * * * * * * * * //

dimensions      [0 2 -1 0 0 0 0];


internalField   nonuniform List<scalar> 
1431
(
0.000618538
0.0037576
0.00185979
0.00181387
0.000821445
0.00187235
0.00193022
0.00459154
0.00183992
0.00115649
0.00401355
0.00457923
0.00158855
0.00147635
0.00070037
0.00209318
0.00125732
0.00133273
0.00168188
0.00162178
0.00510803
0.00364542
0.00165155
0.00504545
0.00159674
0.00154865
0.00358829
0.000751582
0.000737826
0.000568885
0.00180463
0.0030441
0.00153842
0.000857614
0.00178623
0.00150427
0.00417582
0.000716948
0.00194411
0.00278311
0.00228647
0.00394149
0.00168826
0.00320205
0.00151528
0.000936506
0.00124615
0.00340338
0.0023572
0.000738412
0.0029974
0.00367622
0.00264611
0.00652109
0.00262158
0.00267438
0.000467735
0.00558074
0.000858671
0.00097838
0.000631217
0.00110646
0.00051526
0.000508767
0.000913748
0.000582079
0.00157074
0.000558245
0.000544122
0.000999898
0.00258324
0.000765724
0.000979259
0.000550903
0.00112213
0.000570797
0.00154125
0.000524331
0.00105191
0.00135899
0.000953531
0.000493476
0.00224317
0.00113205
0.00249259
0.00378583
0.00112528
0.00110011
0.00330053
0.00302766
0.000581288
0.000816533
0.000764398
0.00271026
0.00180386
0.00055623
0.0055264
0.00394266
0.0023485
0.00143878
0.00213262
0.00128235
0.0013742
0.00145693
0.000686245
0.00177037
0.00242494
0.00309386
0.00141256
0.00104645
0.00125488
0.00151555
0.00388864
0.00092326
0.00284132
0.000722383
0.000965391
0.00121017
0.00105646
0.00043421
0.00109167
0.000616454
0.0016816
0.000977226
0.00172636
0.000838222
0.00180202
0.00115265
0.00242159
0.00139394
0.00083305
0.00124895
0.00196526
0.00120823
0.00173771
0.000972831
0.000819796
0.00149242
0.00384699
0.000446047
0.00123653
0.00133737
0.000776381
0.00100185
0.00154721
0.00143282
0.000556127
0.00224763
0.0017833
0.000464626
0.000844523
0.000676452
0.00295615
0.00117188
0.00277219
0.000851844
0.00329744
0.00399236
0.00272325
0.00237301
0.00487628
0.00165622
0.00187162
0.00183763
0.00193478
0.000580499
0.000800967
0.00193171
0.000937615
0.00345163
0.00431138
0.00215506
0.00237087
0.00386447
0.00396303
0.00320323
0.00183241
0.00179883
0.00284018
0.00177675
0.000670765
0.00344961
0.00196793
0.00747434
0.00165913
0.00128242
0.00132559
0.00408812
0.002162
0.0028156
0.00154177
0.00235019
0.00271573
0.00357848
0.00102846
0.00375738
0.00443466
0.00158739
0.0009697
0.000429465
0.00411003
0.00194446
0.00412087
0.00112822
0.00153332
0.00168609
0.00209235
0.00078372
0.00423106
0.0005462
0.00139273
0.00164404
0.00243274
0.00189438
0.00372588
0.00150514
0.0028393
0.00174606
0.00164298
0.0040492
0.00276315
0.00255704
0.00102587
0.0019229
0.00268895
0.00509404
0.00417592
0.0036471
0.00284933
0.00287794
0.00284
0.00171423
0.0016488
0.00274087
0.00301931
0.00414404
0.00249649
0.00217431
0.00148064
0.00398244
0.00252419
0.00215749
0.00457922
0.00210588
0.00223922
0.00405703
0.00221459
0.00380915
0.00262953
0.000791737
0.00133561
0.00411268
0.00238647
0.00294519
0.00161128
0.000833762
0.00240212
0.00578258
0.00454047
0.00270978
0.00196443
0.00378868
0.00166884
0.00178795
0.00267436
0.00485743
0.00212547
0.00446648
0.00335613
0.000376607
0.00140082
0.00263569
0.00350351
0.00393349
0.00478981
0.00219044
0.00462552
0.00310565
0.000917952
0.00152242
0.00196229
0.00197727
0.0013791
0.00304784
0.00230206
0.00337016
0.00114112
0.00427623
0.0023041
0.0042949
0.000371557
0.00187535
0.00434018
0.00175677
0.00233788
0.00278155
0.0016044
0.00139833
0.00257692
0.000994034
0.00223676
0.00112246
0.00329863
0.00144579
0.00279226
0.00241678
0.00415207
0.00239406
0.00358005
0.00329932
0.00357548
0.000701795
0.000778403
0.00124963
0.00204918
0.00433743
0.00155569
0.00245137
0.00104348
0.00985051
0.00355975
0.00411019
0.000662181
0.00196647
0.00146453
0.00172344
0.000870303
0.00140655
0.00780693
0.00269995
0.00114342
0.00123824
0.00159803
0.00439352
0.00242075
0.00143692
0.00139858
0.00394743
0.00151891
0.00112995
0.000920351
0.00145553
0.00296604
0.000736423
0.00198247
0.00160997
0.00415968
0.00442532
0.0030464
0.00154492
0.00133139
0.00086598
0.00206783
0.00262794
0.000807946
0.00111322
0.00301845
0.00119301
0.00367459
0.00171462
0.00323238
0.00131036
0.00106367
0.00311816
0.00118598
0.00219628
0.00157511
0.00832932
0.00239912
0.00144995
0.00381135
0.00127172
0.00338051
0.00214374
0.000689329
0.00765585
0.00326925
0.00246813
0.0039805
0.00859403
0.00145337
0.00160047
0.000866254
0.000769835
0.0102141
0.00203783
0.00236895
0.00199114
0.00132296
0.00209891
0.00269005
0.00198101
0.00196313
0.0024296
0.00473595
0.00216184
0.0018956
0.00191115
0.001276
0.00195204
0.0026257
0.000680734
0.00460458
0.000765492
0.0043961
0.00196076
0.00198552
0.000349968
0.00214441
0.00192888
0.00307481
0.00147357
0.00188686
0.00256655
0.00200994
0.000748363
0.00226566
0.000316697
0.00168721
0.0018343
0.00269887
0.00201345
0.00235498
0.00234303
0.00179306
0.00126754
0.00152294
0.00343818
0.00381223
0.00444653
0.00382157
0.0040224
0.0038823
0.00398168
0.00358214
0.00296515
0.00345958
0.00166595
0.00252759
0.0013725
0.0010159
0.00389481
0.000911232
0.000917269
0.000827088
0.000881896
0.000956721
0.000866287
0.00110501
0.0018034
0.00139221
0.000841402
0.00231313
0.00109456
0.00200972
0.00264082
0.00278501
0.00558075
0.000847733
0.00387918
0.00224535
0.00071303
0.00523295
0.00240963
0.00383938
0.000801414
0.00155175
0.00494903
0.000870598
0.0046927
0.00344064
0.00368013
0.00175034
0.00403553
0.00386804
0.00389036
0.00106602
0.000681218
0.000824012
0.00343406
0.00454667
0.00115591
0.00390393
0.00213341
0.00114843
0.00428622
0.00174934
0.000833843
0.00381121
0.00145452
0.0039498
0.00297605
0.0036948
0.00170022
0.00394796
0.00153096
0.00372401
0.00391534
0.00374271
0.000933285
0.00362834
0.00156245
0.000634855
0.00126239
0.00381652
0.00396279
0.00114503
0.00284563
0.00433147
0.0012264
0.00154988
0.00480819
0.00115628
0.00367025
0.00120563
0.00209595
0.00411033
0.00176196
0.00497201
0.00389855
0.00124771
0.00402273
0.0012393
0.0024597
0.00169285
0.00258141
0.00371458
0.00268097
0.000863157
0.00042799
0.00425375
0.00394704
0.00151181
0.00570529
0.00140084
0.00383292
0.0011701
0.000702827
0.00182096
0.00086129
0.00178287
0.0013866
0.000545175
0.0038645
0.00109509
0.00162029
0.00210557
0.00066416
0.00185085
0.00114966
0.00241404
0.00128125
0.00078211
0.00184148
0.00109299
0.00396315
0.00266905
0.00319972
0.000670575
0.00588213
0.00116845
0.00390205
0.00403343
0.00177006
0.00755792
0.0017416
0.0011502
0.00188668
0.00320817
0.00108091
0.00171017
0.00291798
0.00206773
0.00267716
0.00105959
0.00141273
0.00236172
0.00059688
0.00294416
0.00395399
0.00172186
0.00231688
0.00131601
0.0022669
0.00239964
0.00292329
0.00199248
0.00370226
0.00111691
0.00126592
0.00307416
0.000299585
0.00346135
0.00216436
0.00260906
0.00168815
0.00464414
0.00226946
0.00425696
0.0040043
0.000745964
0.00154187
0.00187222
0.00377106
0.00201407
0.00143279
0.0017664
0.00263558
0.00349589
0.00106825
0.002477
0.00186203
0.00200423
0.00254097
0.00184689
0.00146711
0.00208064
0.00238075
0.00405781
0.00170477
0.0030866
0.00368887
0.00100815
0.00189971
0.00170937
0.00146516
0.00168881
0.00136301
0.00250258
0.00271893
0.00145939
0.00289302
0.000872337
0.00181528
0.00173206
0.00199797
0.00430872
0.00290134
0.000979146
0.00379608
0.0010691
0.00440488
0.00314283
0.00183685
0.000313393
0.00168744
0.00164502
0.00135651
0.0020502
0.00275977
0.0036262
0.00133781
0.000599398
0.00229387
0.00133771
0.00136091
0.00182518
0.0017475
0.00388994
0.00402284
0.00489288
0.00186511
0.00149263
0.00163711
0.00286496
0.00384831
0.00184551
0.00391839
0.00281278
0.000783518
0.00178461
0.0020941
0.000988462
0.00122963
0.00397161
0.00299527
0.00100704
0.00402267
0.00148818
0.00387668
0.00405968
0.00130172
0.00232263
0.000974328
0.000598593
0.00238921
0.00272052
0.00133364
0.00119381
0.000443362
0.00537169
0.00224581
0.000640957
0.000441452
0.00042076
0.00319383
0.000491314
0.00117055
0.000400282
0.0034107
0.000449027
0.00216331
0.00175981
0.00043603
0.000376298
0.00104505
0.000623717
0.000465998
0.00248229
0.00202263
0.00184042
0.00078558
0.00240524
0.00253894
0.00211931
0.0006429
0.00284929
0.00074217
0.00382382
0.000954139
0.000638277
0.00177617
0.00405082
0.00159948
0.00172688
0.00138792
0.00358264
0.00234974
0.00320174
0.00438545
0.000644964
0.00269425
0.00393601
0.00335238
0.00616288
0.00234334
0.000855482
0.00052937
0.000950683
0.00273746
0.000717124
0.00191703
0.00358864
0.00123177
0.0038489
0.00129386
0.00258103
0.00150255
0.00191526
0.00187968
0.00200938
0.00343075
0.00170257
0.00283805
0.00578801
0.00196142
0.00120856
0.00180426
0.00202279
0.000483266
0.0065373
0.00535279
0.00257758
0.00162128
0.000694789
0.0024512
0.00300925
0.00255567
0.0019289
0.00356102
0.00260132
0.00169398
0.00193675
0.000988045
0.00121647
0.00252835
0.000438106
0.00183803
0.00203894
0.000638542
0.00227102
0.000929202
0.00160995
0.000977458
0.000446165
0.0042685
0.00136459
0.00268302
0.00253262
0.00226698
0.00546127
0.00125437
0.00225703
0.00199151
0.00227669
0.000395832
0.00349854
0.00191311
0.00342094
0.00153743
0.00290741
0.00341216
0.000597739
0.00396822
0.0034294
0.00862452
0.00226459
0.00202744
0.00178064
0.00147798
0.010049
0.00108188
0.00319342
0.00353327
0.000934547
0.00608614
0.00350215
0.00119472
0.00341413
0.00127402
0.00111925
0.0049533
0.00194374
0.00145695
0.000445019
0.000751406
0.000903127
0.0013181
0.00114211
0.00408877
0.00200593
0.000570071
0.000895716
0.00262693
0.0023863
0.00691332
0.00103903
0.00395854
0.0017891
0.00265918
0.00160118
0.00117522
0.00098105
0.00222523
0.00195249
0.0042698
0.00127824
0.00802616
0.00180843
0.00474181
0.00239471
0.00136054
0.00160949
0.00182175
0.0016806
0.000628961
0.0015246
0.00127472
0.00235902
0.000578786
0.0013694
0.00219375
0.00125514
0.00197714
0.00185549
0.00211123
0.00224315
0.00154485
0.00431923
0.00199462
0.00128917
0.00843759
0.00189704
0.000578875
0.00145529
0.00129724
0.00173756
0.000446733
0.00206338
0.000679299
0.00441977
0.00372289
0.000746349
0.00291022
0.00869003
0.00557216
0.00355393
0.000763679
0.000823798
0.000789407
0.000635373
0.000702662
0.000903208
0.000812335
0.000521129
0.000641462
0.000557033
0.000579022
0.000618217
0.00100164
0.000649706
0.000530336
0.000545984
0.000669322
0.000767296
0.000728918
0.000649921
0.000700927
0.000727762
0.000608273
0.000758792
0.00248745
0.00407481
0.000697255
0.0041331
0.00129872
0.00364298
0.0012458
0.00320373
0.0024328
0.00154656
0.00198999
0.000546929
0.00155048
0.00706954
0.00459306
0.0012233
0.00450785
0.0011615
0.00231917
0.00112848
0.00112222
0.00677304
0.000709501
0.000755306
0.00170066
0.00216499
0.00207712
0.00358916
0.00347666
0.00219432
0.0019816
0.00227535
0.0009926
0.00185488
0.00148698
0.00409293
0.000943452
0.00276399
0.00109776
0.00373324
0.00165742
0.000823376
0.00057062
0.00435922
0.00282818
0.00202128
0.0015142
0.000957969
0.00226019
0.000858659
0.00339159
0.00165
0.00239061
0.000493806
0.00152787
0.00298778
0.00295751
0.000670261
0.00131647
0.000531357
0.00219519
0.0016733
0.000780374
0.000839557
0.00228707
0.00149052
0.00385301
0.00189188
0.010248
0.00199625
0.00224961
0.00305945
0.00532415
0.00208091
0.00369748
0.00302761
0.00142056
0.00279571
0.00137417
0.00238611
0.00181087
0.00165844
0.00617522
0.00402772
0.00071251
0.00205757
0.00336076
0.00201445
0.00468198
0.00257218
0.00196012
0.00108413
0.00264433
0.00388991
0.00393842
0.00110444
0.00281843
0.00350297
0.001017
0.00390546
0.000707465
0.00197666
0.000720725
0.00184625
0.00294233
0.00256161
0.00141767
0.00180716
0.00228987
0.00289934
0.00573909
0.0013408
0.00065902
0.000546249
0.00180742
0.00205717
0.00639586
0.000572073
0.00202523
0.00162851
0.00488716
0.00371923
0.00371332
0.00123749
0.00295965
0.00162515
0.000609277
0.00270961
0.00100154
0.00228835
0.000535099
0.00164478
0.000551723
0.00166794
0.0025426
0.00123844
0.0039257
0.00458527
0.00457258
0.00169442
0.00407729
0.00189547
0.00177684
0.000967941
0.00112252
0.0028633
0.00195254
0.00181504
0.00203371
0.00199967
0.00395364
0.00105631
0.00501359
0.00055167
0.00238729
0.00176337
0.000837204
0.00205948
0.0009726
0.00407321
0.00154448
0.000796922
0.000719568
0.000651647
0.000631603
0.000633141
0.000992103
0.000905402
0.000889513
0.000714042
0.000924617
0.000567598
0.000529855
0.000488807
0.000514852
0.000388956
0.000488584
0.00158741
0.00128777
0.00140725
0.00228222
0.00155554
0.000569119
0.00254313
0.00394565
0.000895446
0.00240645
0.00209717
0.00385401
0.00298166
0.00127141
0.000524868
0.000535726
0.00117773
0.00161147
0.00394984
0.00255384
0.00192591
0.00305433
0.00350301
0.00221867
0.0102069
0.00300991
0.0017355
0.00120172
0.00228396
0.00134175
0.00189031
0.00267132
0.00117375
0.00205247
0.00210092
0.00126493
0.0034881
0.000521681
0.00181935
0.00121211
0.00254837
0.0031438
0.00169386
0.00257927
0.00246362
0.00246741
0.00144774
0.00374767
0.00366951
0.00322745
0.00104307
0.00239802
0.00365624
0.00161658
0.00294008
0.00118589
0.000988754
0.00117021
0.00289266
0.0011325
0.00183059
0.00282034
0.0030939
0.00109115
0.000539826
0.0024295
0.00146125
0.00260083
0.00103225
0.00180895
0.00176682
0.00274671
0.00127187
0.00324582
0.00300983
0.00208017
0.00364088
0.00159595
0.0025431
0.00172746
0.00378394
0.00167811
0.00143073
0.00433472
0.00165174
0.00403733
0.00240084
0.00228563
0.00200271
0.00131675
0.00237712
0.00270255
0.00635083
0.0032522
0.00186975
0.000605485
0.00189353
0.00162848
0.00221936
0.00126157
0.000703985
0.00179945
0.00166136
0.00312443
0.00378945
0.00251122
0.000678147
0.00163083
0.00185486
0.002313
0.00751783
0.000873078
0.00111303
0.00462933
0.00210143
0.00166624
0.00129525
0.00262634
0.00105511
0.00238625
0.00335266
0.00130695
0.00164804
0.00165891
0.00460002
0.00225173
0.00172579
0.00049833
0.00199123
0.00330093
0.00167929
0.00304392
0.00185432
0.00153221
0.00241553
0.00201439
0.00285135
0.00164686
0.00163476
0.00197377
0.000643856
0.00211659
0.0100197
0.00206063
0.00119176
0.00229683
0.00398736
0.00207111
0.00128309
0.00130522
0.00152147
0.000459637
0.00201911
0.00105615
0.000450305
0.00135084
0.00118102
0.0030769
0.00161402
0.00323501
0.0016179
0.00471156
0.00120293
0.00523256
0.00203532
0.0018194
0.00155446
0.00184092
0.00122309
0.000720865
0.00401132
0.00180017
0.00296808
0.00232547
0.00469402
0.00164168
0.00177354
0.000729908
0.00324493
0.00166871
0.00202164
0.00247586
0.000656463
0.00180489
0.0040761
0.0035706
0.00139469
0.00188454
0.00193361
0.00171475
0.00635424
0.00261667
0.000614449
0.000518111
0.00141488
0.00123589
0.00189362
0.00188178
0.00284122
0.00675217
0.00187736
0.00157189
0.00358522
0.00200041
0.00367054
0.00158222
0.00277658
0.0010458
0.00732446
0.0015691
0.00380303
0.000600316
0.00936312
0.00177956
0.00187352
0.00082661
0.00358647
0.00179713
0.00123315
0.0057124
0.00338548
0.00380007
0.00108007
0.00954633
0.000547202
0.00410235
0.00290284
0.00177986
0.00273037
0.00646288
0.00594552
0.00369067
0.00111786
0.00114715
0.00156948
0.00132657
0.00177477
0.00106127
0.00373041
0.00112203
0.00149739
0.00057742
0.00867439
0.00103845
0.000646102
0.000545915
0.00275701
0.00357638
0.0010593
0.000671684
0.00746476
0.00210391
0.00103006
0.00147638
0.00177955
0.00110062
0.00215134
0.00140206
0.00216134
0.00386665
0.00293667
0.00868154
0.00383859
0.00187062
0.00136557
0.000930499
0.00238636
0.00301145
0.00135547
0.00209193
0.0026203
0.00192186
0.00188989
0.00306248
0.00306366
0.00304901
0.00102731
0.00268055
0.00219399
0.00218581
0.00352389
0.00209666
0.00366415
0.00383547
0.00138392
0.00201042
0.00306844
0.00110362
0.000777223
0.0029765
0.00324915
0.00128562
0.00159553
0.00380264
0.00368969
0.00055379
0.00265391
0.0007616
0.00074484
0.00269454
0.0023607
0.000609592
0.00292128
0.0042167
0.00248143
0.00161264
0.00165056
0.00128585
0.00357656
0.00157149
0.002431
0.00145896
0.000600667
0.000310834
0.00282251
0.000715129
0.00141667
0.0015664
0.00110199
0.000860468
0.00087675
0.000609618
0.000817403
0.00060618
0.00122017
0.00218295
0.00141051
0.000763055
0.000461342
0.00081873
0.00075675
0.00127785
0.000556259
0.00031446
0.000887537
0.00165699
0.000340975
0.00131501
0.000317551
0.000686754
0.000599566
0.000508963
0.000454558
)
;

boundaryField
{
    frontAndBack
    {
        type            empty;
    }
    wallOuter
    {
        type            nutkWallFunction;
        Cmu             0.09;
        kappa           0.41;
        E               9.8;
        value           nonuniform List<scalar> 
96
(
8.77714e-05
6.5851e-05
6.3352e-05
0.000115812
0.000117893
0.000114197
5.285e-05
5.26356e-05
5.01335e-05
5.83986e-05
4.76335e-05
5.34481e-05
5.19829e-05
0.000122086
5.54349e-05
6.2834e-05
0.000111512
8.09252e-05
5.22061e-05
5.31677e-05
4.70756e-05
5.30077e-05
8.49982e-05
6.75518e-05
0.00010531
8.99252e-05
9.75341e-05
9.43906e-05
7.76385e-05
8.50546e-05
0.000105941
9.51894e-05
5.89253e-05
7.25081e-05
6.31209e-05
6.49201e-05
7.2794e-05
0.000117116
7.26051e-05
6.19652e-05
6.40056e-05
7.48886e-05
8.93076e-05
8.43747e-05
7.29854e-05
8.1022e-05
8.37003e-05
6.8829e-05
8.68689e-05
8.63282e-05
9.68228e-05
6.58408e-05
7.60332e-05
6.33284e-05
9.22296e-05
8.09469e-05
0.000128673
7.9301e-05
6.34135e-05
6.57823e-05
7.20595e-05
6.3783e-05
6.58212e-05
0.000143037
9.8003e-05
0.000113025
9.34437e-05
8.14507e-05
7.68886e-05
7.45993e-05
7.47717e-05
0.00011524
0.000105739
0.000104052
8.404e-05
0.000108042
6.82271e-05
6.33435e-05
5.84915e-05
6.18744e-05
4.64974e-05
5.85792e-05
6.52012e-05
6.25642e-05
5.9567e-05
6.16842e-05
8.32448e-05
5.94259e-05
7.60155e-05
7.74474e-05
7.45301e-05
6.0289e-05
6.53405e-05
0.000130024
6.87163e-05
6.50899e-05
)
;
    }
    inlet
    {
        type            calculated;
        value           nonuniform 0();
    }
    outlet
    {
        type            calculated;
        value           nonuniform List<scalar> 9(0.00832932 0.0102141 0.0017664 0.00578801 0.00862452 0.00573909 0.00123844 0.00322745 0.00365624);
    }
    wallInner
    {
        type            nutkWallFunction;
        Cmu             0.09;
        kappa           0.41;
        E               9.8;
        value           nonuniform List<scalar> 
126
(
0.000101781
0.000111635
7.76461e-05
0.000129399
6.25105e-05
6.14613e-05
0.000106273
6.95017e-05
0.000186393
6.68318e-05
6.57271e-05
0.000119949
0.000284701
9.36258e-05
0.000116322
6.79705e-05
0.000134093
6.83015e-05
0.000183241
5.52291e-05
0.000122058
0.000159792
0.000113807
5.42043e-05
0.000138033
8.57647e-05
0.000116586
0.000142009
0.000122666
5.2501e-05
0.000129838
7.51976e-05
0.000191784
0.000117566
0.000196179
9.83634e-05
0.000210785
0.000100366
0.000148743
5.45988e-05
0.000140567
9.32359e-05
0.000118688
6.73557e-05
5.80581e-05
8.11857e-05
0.000135072
0.000218375
7.9645e-05
0.000148225
0.000154173
0.000119815
0.000160764
4.42048e-05
0.00010128
0.000173711
4.20789e-05
0.000184155
0.00016029
0.000109682
0.000122493
8.27266e-05
9.35615e-05
0.000145678
0.000200694
8.22981e-05
0.000127524
0.000132676
9.7152e-05
0.0001396
0.000151353
0.000117929
4.16694e-05
3.75613e-05
0.000140982
0.000134216
5.09982e-05
7.94696e-05
0.000155708
7.6465e-05
0.00014399
7.64972e-05
0.000126835
7.36223e-05
0.00013722
3.56444e-05
8.69875e-05
0.000116785
0.000102362
3.89279e-05
7.31335e-05
4.64464e-05
7.52222e-05
5.66447e-05
6.84929e-05
5.55404e-05
9.68569e-05
0.000147805
0.000125188
7.85274e-05
7.13828e-05
3.73557e-05
8.51577e-05
0.000179148
0.000126706
9.92603e-05
7.17984e-05
7.11343e-05
0.000141618
0.000244342
0.000163197
8.83192e-05
5.52312e-05
9.0608e-05
0.000140054
6.821e-05
3.6584e-05
0.000102058
0.000190306
4.03134e-05
0.000158685
3.78593e-05
8.16913e-05
7.27551e-05
6.08983e-05
5.40134e-05
)
;
    }
    procBoundary3to1
    {
        type            processor;
        value           nonuniform List<scalar> 
48
(
0.00418405
0.00225882
0.00380325
0.00427832
0.00273249
0.000738191
0.00225882
0.00390321
0.0039482
0.000894094
0.000894094
0.00149115
0.00149115
0.00378208
0.00354349
0.00157596
0.00192538
0.00164052
0.00192538
0.00149389
0.00332533
0.00356908
0.00149389
0.000569105
0.000625516
0.00103534
0.00342355
0.00356908
0.00375617
0.00100969
0.00100969
0.00384599
0.00384599
0.0039482
0.00114447
0.00249839
0.00397854
0.000625516
0.00400666
0.00244043
0.00378208
0.00399533
0.00400014
0.00149389
0.00361744
0.000888785
0.00264483
0.00316257
)
;
    }
    procBoundary3to2
    {
        type            processor;
        value           nonuniform List<scalar> 
29
(
0.00106608
0.00106608
0.000561466
0.000683845
0.00124258
0.000575251
0.000772608
0.00106557
0.00172624
0.00125704
0.000817238
0.00225207
0.000740337
0.00219799
0.0030988
0.00241695
0.00164955
0.00227135
0.00120098
0.00197498
0.00230279
0.00164955
0.000587709
0.00227135
0.0027434
0.00131153
0.00227135
0.00327098
0.00327098
)
;
    }
}


// ************************************************************************* //
