/*--------------------------------*- C++ -*----------------------------------*\
| =========                 |                                                 |
| \\      /  F ield         | OpenFOAM: The Open Source CFD Toolbox           |
|  \\    /   O peration     | Version:  v1912                                 |
|   \\  /    A nd           | Website:  www.openfoam.com                      |
|    \\/     M anipulation  |                                                 |
\*---------------------------------------------------------------------------*/
FoamFile
{
    version     2.0;
    format      ascii;
    class       volVectorField;
    location    "0.86";
    object      U;
}
// * * * * * * * * * * * * * * * * * * * * * * * * * * * * * * * * * * * * * //

dimensions      [0 1 -1 0 0 0 0];


internalField   nonuniform List<vector> 
5794
(
(0.0666904 -0.305348 -3.36203e-17)
(-0.251933 -0.106829 0)
(-0.149067 -1.35887 -1.32971e-16)
(0.357882 3.24959 1.03823e-16)
(1.84792 1.79376 2.42487e-17)
(0.0613773 -2.06173 -1.05919e-16)
(2.48836 -0.248524 -1.82659e-16)
(0.386793 -0.174337 0)
(5.79785 0.829912 9.86302e-17)
(0.0555091 -0.0152195 2.53068e-16)
(4.74593 -0.10945 -3.28416e-19)
(-1.81259 -0.291636 0)
(-2.73301 -0.180432 4.8301e-16)
(0.503815 6.78102 1.78815e-16)
(0.1997 0.025526 5.37514e-16)
(-0.894571 -0.152631 -1.49001e-16)
(1.50941 -0.0126052 4.70846e-17)
(-0.0815052 7.09801 1.19426e-16)
(0.0698365 0.0156729 5.03063e-16)
(-0.0071948 0.282347 1.81525e-16)
(-2.98131 1.7704 -4.54962e-17)
(0.0343852 -1.00285 -1.53815e-16)
(3.26254 -0.0509271 2.38336e-16)
(0.791639 -0.0370903 -6.34754e-16)
(2.34634 0.178673 -3.77731e-16)
(2.93621 10.6159 2.13338e-17)
(6.03687 -0.539812 0)
(-0.0515195 2.13876 -1.42703e-16)
(0.0666163 9.35866 -3.70508e-17)
(0.0613501 -0.0228867 3.20534e-16)
(-0.171416 -0.881634 -6.3379e-16)
(-1.75242 0.024637 -5.0567e-16)
(-2.13476 0.11414 -8.90236e-16)
(-0.281368 -0.297713 4.60636e-16)
(-0.835363 0.199317 -2.13639e-16)
(-0.809955 0.248728 2.14098e-16)
(9.76741 0.598146 -2.15432e-16)
(2.22447 -0.463996 0)
(3.23793 -0.361207 1.29255e-16)
(0.0712398 3.35909 0)
(0.161732 2.41676 -1.03932e-16)
(-0.866448 1.8327 1.36937e-16)
(7.38755 0.111108 -8.84317e-19)
(0.269681 2.65462 0)
(0.232249 0.00253261 -4.67931e-16)
(4.83995 -0.170517 1.32805e-16)
(3.57692 -0.186758 -2.48648e-16)
(-1.75232 -0.34028 0)
(0.0788018 0.0402171 9.02509e-16)
(0.958123 -0.146364 6.61433e-17)
(0.0519033 -0.0256945 -1.76123e-16)
(5.93678 -0.224381 -1.79446e-16)
(-0.157385 -0.208289 0)
(0.415377 0.197745 1.75548e-16)
(-0.0673025 -0.0590918 1.0555e-17)
(5.07213 -0.512138 0)
(3.61784 -0.391649 -2.00845e-16)
(-1.83884 0.0905155 1.47242e-16)
(8.39139 0.0641716 0)
(4.42123 9.99444 -7.18286e-19)
(9.13282 0.477908 1.88899e-18)
(0.33186 0.834795 -1.28863e-16)
(0.0671365 -1.37888 -1.46319e-16)
(-0.884492 -0.0521986 2.07863e-16)
(-1.21745 0.138585 0)
(0.89192 0.238375 -2.58493e-18)
(0.238393 0.875184 -2.30953e-16)
(-0.146348 3.6239 0)
(0.129031 5.21419 -1.39538e-16)
(0.122643 0.573507 -2.08171e-21)
(4.5931 -0.492073 1.38819e-16)
(0.35863 2.41476 -2.88512e-16)
(11.4147 2.07522 -3.45396e-18)
(1.87807 0.0892429 0)
(0.0177403 6.54926 1.2239e-16)
(0.133468 1.13824 4.58857e-20)
(0.132981 -0.128498 1.42594e-16)
(1.60228 10.4161 -2.2124e-17)
(0.405038 2.75731 3.6679e-17)
(-0.37096 0.118221 7.34935e-17)
(0.0794716 -1.10306 -1.84536e-17)
(-0.018772 -0.215691 -1.87152e-16)
(0.204711 1.37321 -2.34231e-19)
(2.39654 -1.51122 -8.55876e-17)
(1.22262 -1.28762 -3.76226e-16)
(-0.10911 5.40602 -4.03991e-17)
(0.212894 5.95076 3.07279e-17)
(0.0306162 5.27775 -2.47948e-17)
(0.793031 0.111422 -1.69338e-16)
(2.26516 1.22296 -4.50436e-17)
(0.918648 5.60682 -7.91574e-17)
(0.0423339 6.88085 -8.29161e-17)
(-0.0730975 7.54401 1.30764e-16)
(0.106964 7.57984 5.78171e-17)
(-0.0417505 6.77948 3.214e-17)
(-2.13973 0.0441917 5.27977e-18)
(0.0161937 6.21208 -5.52225e-17)
(-0.114516 7.29574 -1.41615e-17)
(-0.0271636 6.82085 0)
(8.85442 0.527864 -3.05814e-17)
(1.72883 3.23458 -1.22187e-16)
(-1.16412 0.175632 -4.10015e-16)
(8.27773 0.142099 7.27417e-17)
(0.437629 5.79803 -2.36938e-16)
(0.137109 0.0630417 0)
(-0.303279 5.65055 0)
(0.151325 0.764005 0)
(-0.3152 0.065596 -2.75302e-16)
(-1.39855 0.575898 -1.20959e-16)
(0.579917 2.83052 -9.93096e-17)
(0.513305 -0.090885 3.39875e-20)
(0.203276 -0.0952846 0)
(-1.44945 4.70297 1.1302e-16)
(-0.159742 -0.0634015 1.549e-16)
(-0.011749 6.64597 0)
(-0.100544 7.70437 0)
(0.14585 -0.0257678 -3.87235e-16)
(-0.255093 8.35884 -9.77137e-20)
(9.38175 0.428932 -2.39086e-20)
(10.8439 0.603561 5.98659e-18)
(-0.412062 7.71532 1.06732e-16)
(0.649954 0.0364441 0)
(-1.69877 -0.100288 0)
(0.0304767 1.57494 -1.90118e-16)
(0.323223 -0.0501848 2.41905e-16)
(4.77686 2.37572 5.02619e-17)
(0.735264 5.3777 0)
(-0.159497 -1.87143 6.72665e-17)
(6.08719 -0.620563 1.19078e-16)
(-0.471182 -0.0430161 1.66418e-16)
(-0.0669459 -0.795322 3.38004e-16)
(-0.659197 -0.977634 2.12831e-16)
(0.186742 1.07771 2.33823e-17)
(1.10128 10.0718 -6.69966e-17)
(-0.381076 6.48902 1.35525e-16)
(0.279716 0.0120278 0)
(4.30594 -0.203111 9.2258e-17)
(0.384983 0.83357 -1.87495e-16)
(-1.08489 -0.033356 1.54331e-16)
(0.247765 -0.328786 0)
(1.59852 -0.269859 -4.78671e-16)
(0.376797 2.63949 0)
(0.332926 -0.127726 0)
(0.331121 3.05616 2.47799e-16)
(-1.07888 -0.0115925 1.58862e-16)
(2.20109 -0.102019 1.56433e-17)
(-0.917052 0.983645 2.25018e-16)
(7.73382 0.283071 2.33258e-16)
(1.43963 1.1137 -1.76925e-18)
(0.160135 1.29485 3.93292e-16)
(7.23072 -0.174545 -1.73547e-16)
(0.43192 0.177353 3.30389e-16)
(-0.311907 5.84551 0)
(-1.32538 0.288037 1.8538e-16)
(4.23539 -0.711956 0)
(4.13056 0.116093 0)
(2.25044 -0.658051 -2.49771e-16)
(0.836346 -0.362806 4.09511e-16)
(5.22752 0.179953 -2.62752e-16)
(1.25667 -0.573719 -1.3536e-16)
(0.0431584 -0.0125764 4.31319e-16)
(-1.20314 -0.114239 -3.72672e-16)
(-0.0469157 -0.081787 0)
(-1.52107 -0.0361867 -1.41981e-16)
(-2.96755 0.0207489 -2.98691e-16)
(-3.09572 -0.0951145 1.63069e-16)
(-1.3387 -0.170592 1.28295e-18)
(-0.283334 -0.311617 -4.32237e-18)
(0.392878 -0.0582031 0)
(0.081006 -0.0159607 1.03543e-18)
(0.0781226 0.0527907 0)
(-1.84776 0.41235 -1.14228e-16)
(-0.991022 0.181449 0)
(-0.969211 0.231623 1.0347e-16)
(-0.514657 -0.0419803 4.45029e-16)
(3.15111 -0.0145195 0)
(-0.0743457 0.0365592 -2.6093e-16)
(2.19667 0.010577 -2.27194e-16)
(0.352857 -0.176881 -9.26501e-17)
(6.16987 0.107445 6.75623e-18)
(0.837648 -0.176556 -5.57974e-18)
(-1.11686 -0.312158 0)
(1.69774 -0.0649246 0)
(-1.88107 -0.328724 1.2408e-16)
(0.671324 -0.243821 0)
(0.124444 -0.845815 6.99867e-17)
(-1.32936 0.132527 -1.45765e-16)
(-1.23218 0.299577 -1.00139e-16)
(-0.0101601 0.0160764 1.47627e-16)
(-1.04995 0.103736 3.35695e-16)
(4.64762 -0.0692672 -3.4031e-16)
(-1.8231 -0.10664 3.73923e-16)
(-2.27823 -0.0870959 5.93265e-16)
(0.41887 -0.497822 6.09603e-16)
(-1.20133 -0.544817 -9.57001e-17)
(-0.505791 -0.39264 -5.24672e-16)
(1.20855 -0.35516 -2.19114e-17)
(-0.144674 -0.119279 -1.90178e-16)
(0.00427976 -0.0322719 -3.21658e-16)
(6.41143 -0.0463726 1.21324e-16)
(3.0014 -0.126431 -1.85174e-17)
(5.83708 0.00984108 0)
(-0.940809 -0.439516 0)
(-0.148174 -0.117784 1.1399e-17)
(3.58314 -0.0124525 -5.83527e-17)
(4.77846 0.0232851 0)
(-0.211415 -0.281522 1.19107e-17)
(0.341214 -0.0303818 2.12543e-19)
(4.79061 1.05291 -5.74403e-18)
(1.92544 8.68271 1.23056e-16)
(0.74865 1.34636 1.06382e-16)
(9.74021 -0.00997011 0)
(-1.06842 0.0091636 -1.14051e-16)
(-0.755076 -0.467141 1.82392e-16)
(0.384345 -0.362137 0)
(1.05111 0.216715 7.62238e-16)
(0.939752 0.193261 -1.76305e-16)
(1.01765 1.3921 9.60589e-17)
(4.13272 -0.197843 1.32075e-16)
(1.40367 5.63061 -1.72744e-16)
(9.65757 -0.00591833 0)
(2.01298 0.536152 2.14917e-16)
(-0.350401 1.98792 0)
(-0.0383346 5.32443 2.65972e-17)
(5.15242 0.123296 1.31034e-16)
(11.185 0.720876 2.13065e-18)
(-0.876408 -0.242949 -7.22169e-17)
(0.234102 -0.126246 -1.29566e-16)
(0.406385 -0.0798564 0)
(0.257006 -0.0178621 -3.41608e-16)
(-0.935718 0.324066 0)
(-0.970108 0.382826 -6.94498e-17)
(-0.572325 0.0677265 -1.11407e-16)
(-1.06197 0.736018 1.5118e-16)
(1.88095 0.280597 1.63424e-16)
(9.70566 0.147138 5.69831e-18)
(7.65603 0.902472 1.89035e-18)
(7.30132 0.516826 2.85745e-17)
(-2.10807 0.084067 -1.55954e-16)
(0.784853 -0.89798 -3.86397e-16)
(-0.324207 -0.184331 0)
(1.20042 0.828404 1.16675e-15)
(1.45676 4.63654 2.14483e-16)
(-0.739685 0.694904 -2.57183e-16)
(-1.34926 0.83114 2.64857e-16)
(0.506875 -0.0444981 2.95189e-16)
(0.286683 -0.0421214 -1.61461e-16)
(1.27413 0.752968 8.35821e-18)
(-0.117437 6.00278 0)
(-0.0349461 5.95689 0)
(-0.0131703 5.19387 0)
(0.530103 0.224228 2.80485e-17)
(3.01407 -0.656587 -7.17105e-17)
(-0.335104 0.137515 -4.23745e-20)
(7.28059 1.19225 -5.73023e-17)
(4.51833 2.28246 -9.02762e-18)
(8.18899 0.213379 -1.4965e-16)
(9.00307 0.522947 1.57717e-16)
(0.067367 -0.345853 2.90665e-16)
(0.261752 -0.0203858 0)
(5.98039 -0.0571131 -1.11548e-16)
(-1.06229 -0.0579907 9.83988e-17)
(-0.472823 -0.643729 -1.04605e-16)
(0.937266 -0.0826628 0)
(-1.35588 -0.158731 0)
(-1.66527 -0.20354 -5.932e-19)
(0.144407 1.89435 1.41403e-16)
(3.79454 0.789271 0)
(0.130573 -0.017243 -7.67185e-16)
(4.36158 0.0141577 -1.23467e-16)
(3.35988 -0.0555858 0)
(-0.0866739 -0.793128 -2.95581e-16)
(0.956223 1.73456 -4.74019e-16)
(4.82455 -0.360111 -1.68939e-16)
(9.49896 0.0889039 3.60799e-17)
(0.130183 -0.0240806 3.462e-16)
(0.424028 0.189345 -1.88508e-16)
(1.62789 -0.164301 -8.4733e-17)
(0.427004 0.0497072 -2.00952e-16)
(-1.70007 1.18015 -2.43332e-16)
(-0.3044 -0.123272 3.8163e-16)
(0.924737 3.313 2.55228e-16)
(0.238901 3.16734 9.93584e-17)
(-0.535294 1.29827 -4.20593e-16)
(0.320983 4.71659 4.70107e-17)
(-0.123007 5.32987 1.11995e-16)
(0.0249017 6.07472 1.23055e-17)
(0.00939079 5.97626 0)
(0.587987 5.82098 4.13747e-17)
(-0.44852 7.75943 0)
(-0.579732 0.349004 -1.79724e-17)
(-0.594804 0.440465 -1.45011e-16)
(-0.325632 -0.148667 2.58128e-18)
(0.538708 0.168945 0)
(8.06255 1.70946 0)
(1.16726 7.48464 7.19522e-18)
(0.265475 3.37106 5.89574e-17)
(-0.326033 0.735255 -8.76232e-20)
(0.29377 4.56072 -2.02042e-16)
(0.759625 -0.111979 -1.74149e-16)
(0.0107368 -0.319106 1.29009e-16)
(-0.465296 6.33064 0)
(0.00890545 -1.0991 -7.24051e-16)
(0.722885 2.0249 0)
(0.613344 0.826496 -1.65049e-16)
(3.58596 0.268676 1.63383e-18)
(0.491196 -0.0286031 -2.78911e-16)
(0.258235 3.46103 2.70159e-16)
(5.00393 0.103668 2.44013e-16)
(3.88012 0.0347485 0)
(0.250529 -0.42963 -6.6452e-16)
(-0.175844 0.484626 -3.03673e-16)
(1.34256 7.55588 -1.36759e-16)
(-0.115232 -0.0819683 -8.73815e-17)
(10.5903 0.119639 0)
(10.015 0.299761 -1.80115e-17)
(-0.0844487 0.0590224 -9.81769e-17)
(-0.121826 2.8521 -2.64665e-16)
(-2.06714 0.377436 -2.16506e-16)
(0.184171 7.17012 -4.09159e-17)
(0.20562 -0.136871 4.91647e-16)
(1.47143 -0.71265 -2.00641e-16)
(-0.15131 7.54753 -7.64335e-17)
(1.80359 1.3592 -7.83131e-19)
(-0.801157 -0.194835 0)
(1.70573 -0.460748 0)
(2.04084 -0.0850831 0)
(-1.3267 -0.300175 6.79929e-17)
(-2.0576 -0.337581 -3.21478e-16)
(4.52416 -0.129988 2.98163e-16)
(6.21867 -0.0316132 -7.01488e-18)
(6.58019 -0.125299 3.03286e-16)
(-0.656736 -0.383976 9.32921e-17)
(-1.83706 0.255175 4.91454e-16)
(-1.67835 0.141281 0)
(0.0214934 -0.0451848 -2.66066e-16)
(0.128617 -0.0115742 0)
(0.226223 -0.0907155 0)
(0.0410027 0.0460579 -3.57626e-16)
(-0.607407 0.0198845 0)
(0.62245 -0.151116 4.37069e-16)
(2.30724 0.0331859 3.88666e-16)
(6.32782 0.379948 0)
(3.2799 -0.106308 0)
(-0.0499897 -0.026589 4.46152e-16)
(1.5975 -0.0198361 3.58397e-16)
(-1.07125 -0.527807 3.23224e-16)
(-0.190207 -0.328666 -2.41501e-17)
(-3.01504 -0.148841 -1.22012e-16)
(2.59757 -0.0127461 6.92484e-17)
(3.60125 0.168376 6.00637e-17)
(0.638995 0.0896474 2.43175e-16)
(-2.35942 -0.166417 -2.2415e-17)
(-1.69792 -0.212277 1.51655e-16)
(1.20741 -0.305515 0)
(-0.852632 -0.591332 0)
(0.00612459 -0.0532085 1.91144e-16)
(5.26085 -0.420873 1.70999e-16)
(2.58036 -0.0591019 6.65211e-17)
(0.568431 -0.267813 0)
(0.197146 8.73248e-05 -2.74305e-16)
(1.29872 -0.541575 4.72439e-16)
(4.72987 -0.0855219 3.64373e-17)
(2.06507 -0.533868 -3.31614e-17)
(0.925894 -0.676681 -2.83935e-16)
(0.394761 0.0738401 5.35741e-16)
(-3.22101 -0.0083255 -3.7603e-17)
(4.26634 -0.340065 0)
(3.04975 -0.279383 3.37483e-16)
(-1.8991 0.0444967 -8.79132e-17)
(0.368237 0.0557171 -1.4137e-16)
(1.11087 -0.0623809 0)
(0.528076 0.10975 -1.21368e-16)
(-0.231837 0.54457 2.83007e-16)
(0.51402 0.0617727 8.91384e-17)
(-2.78788 0.16464 1.38724e-16)
(3.80033 -0.0226439 0)
(2.67906 0.119995 9.09516e-17)
(-1.73855 0.497152 0)
(0.109765 0.00807956 1.64039e-17)
(0.37491 -0.483255 1.61414e-16)
(0.339739 0.0130681 0)
(10.7738 0.0870836 0)
(-1.14339 0.136908 1.53592e-16)
(-1.13213 0.00140796 -6.25099e-16)
(-0.229967 -0.296713 -3.71429e-16)
(-0.234412 9.08561 -2.88758e-17)
(-0.219989 -0.496876 3.22801e-16)
(0.323386 -0.84594 -1.10095e-15)
(-1.07335 -0.243345 0)
(0.282532 -0.148274 -8.26757e-16)
(-1.18304 1.05854 -6.4231e-19)
(0.146064 0.740315 -2.50663e-18)
(-0.166423 -0.293571 1.68832e-16)
(-0.67234 0.216261 9.17555e-17)
(-0.569537 0.241393 -9.90594e-17)
(-0.569951 0.0433207 1.12147e-16)
(-0.0694687 0.791702 0)
(0.264305 -0.00512866 0)
(2.79249 0.0260024 -2.598e-16)
(0.751769 -0.231055 1.41401e-16)
(2.09654 0.0431893 -3.93216e-16)
(8.99383 -0.248254 3.21487e-17)
(0.542462 -0.0361875 1.99676e-16)
(0.279226 -0.111502 0)
(6.44657 0.965426 4.60711e-17)
(-0.110324 1.10059 2.0447e-20)
(0.193661 -1.94247 1.73807e-16)
(-0.0556461 0.630085 -4.0023e-17)
(-0.24803 5.82339 -6.04206e-17)
(-0.0810843 7.14644 2.23446e-17)
(0.130553 6.85626 0)
(0.861128 0.476743 1.74595e-16)
(-0.962992 0.313981 2.76764e-16)
(5.06072 -0.0307556 2.00935e-17)
(3.87161 -0.0646736 7.19711e-17)
(0.0281533 -0.267067 0)
(0.243216 3.70689 1.70673e-16)
(-2.42147 0.181381 0)
(-0.152315 6.34215 3.81412e-17)
(-0.0401635 6.84177 -6.41394e-17)
(-0.147215 7.35035 2.96515e-17)
(-0.0178892 -0.0331275 -1.5897e-17)
(0.378582 0.106656 -4.29877e-17)
(-1.28611 0.0487799 0)
(-1.27645 -0.0038097 0)
(-0.301523 -0.115975 -2.07116e-16)
(-0.201833 -0.0335634 -2.02804e-16)
(0.0043513 0.246804 -1.55306e-17)
(0.0436378 -0.871773 5.50786e-17)
(3.64881 0.681516 3.1651e-16)
(9.99892 0.163393 1.28087e-17)
(0.192319 2.3752 -2.7804e-16)
(0.971957 -3.04429 -2.09384e-17)
(0.179454 -0.0285423 3.43929e-16)
(0.0688009 -0.0233549 0)
(0.129341 -0.35779 1.73039e-16)
(0.697089 -0.535224 -9.92949e-18)
(-1.46438 0.038872 -9.64465e-17)
(-1.35888 -0.0725931 2.0163e-16)
(-0.138841 -0.199443 2.65576e-16)
(9.94811 0.0980402 -2.49934e-16)
(-0.120663 -0.333366 0)
(0.357231 -0.367936 7.97326e-17)
(1.74172 -0.113519 -2.10067e-18)
(-0.0433489 7.71243 -5.67626e-17)
(-0.00202071 6.66932 8.56114e-21)
(-1.01904 -0.118307 0)
(-0.335004 0.377531 2.42136e-16)
(1.28173 0.378821 -8.08991e-17)
(0.242415 -0.0721867 -2.3916e-16)
(0.0379743 0.179411 -8.17079e-17)
(-2.76088 1.32353 4.60796e-17)
(0.0107228 -1.07445 -5.22076e-16)
(-0.10896 6.59346 -2.65116e-17)
(0.90242 -0.0511982 -5.19581e-16)
(0.361846 5.27108 -2.19862e-18)
(-1.57501 -0.491264 -2.18483e-16)
(-0.0432176 6.57658 -3.15574e-17)
(0.947616 6.51724 8.71758e-17)
(0.441473 -1.44527 -1.04823e-16)
(-0.150923 0.0371938 -2.6661e-16)
(-0.291994 0.399857 1.88121e-16)
(0.388444 -0.133936 -3.86017e-16)
(8.50261 0.571786 9.19293e-17)
(-0.47252 -0.0495682 -2.85714e-16)
(9.99653 0.349014 -2.14855e-18)
(2.66878 3.24577 5.59929e-17)
(0.544506 0.0695573 -4.44256e-16)
(0.840263 2.32586 -4.88848e-17)
(0.703272 0.00756906 3.82403e-17)
(6.29307 1.07864 -4.68478e-18)
(1.54419 0.710989 -6.89229e-17)
(0.570186 -0.218745 3.17667e-17)
(0.285669 0.038581 -2.21687e-16)
(-1.01371 -1.04997 1.12999e-15)
(8.3332 2.1278 -2.61649e-18)
(-0.114591 2.63997 1.55837e-16)
(1.64964 0.151128 1.7675e-16)
(-0.0967327 -0.0676233 6.23741e-17)
(-1.01828 0.558239 2.75079e-16)
(0.369414 -1.30207 0)
(0.838202 -0.08506 -1.98694e-16)
(0.613931 -0.162263 1.37936e-17)
(0.0174841 0.0354347 1.83219e-16)
(3.40913 -0.127003 -5.4822e-20)
(9.80299 0.031033 0)
(1.40644 -0.0314698 2.19311e-18)
(0.999742 -0.00168524 -4.99491e-17)
(0.0400436 -1.10171 -1.95698e-21)
(0.0240099 -0.0702889 2.39385e-16)
(0.0596379 4.71408 -1.36594e-16)
(-0.124112 6.24065 4.12093e-16)
(1.63594 0.930898 7.47491e-18)
(-0.117416 0.932601 -6.3984e-22)
(0.34518 -0.23417 2.53592e-16)
(0.128515 0.00242633 0)
(0.226438 0.0199018 0)
(-1.06727 -0.126822 -3.1619e-17)
(6.89189 0.828685 -1.3865e-19)
(3.29762 2.00026 2.02746e-17)
(8.55023 1.2309 -5.65308e-18)
(10.377 0.528984 3.24909e-18)
(0.780991 0.117096 0)
(0.152135 2.90276 0)
(-0.281815 0.12628 2.55263e-16)
(0.489144 -1.32584 2.05139e-16)
(8.93392 0.489576 -4.44173e-16)
(1.58959 0.702544 0)
(0.897969 0.0488973 0)
(-2.08308 0.134557 2.05012e-16)
(0.530873 -0.106746 1.71462e-18)
(0.373512 -0.349763 -1.65331e-16)
(0.843438 -0.0689467 1.90249e-16)
(-0.0220004 -0.103957 -1.00624e-16)
(-0.00643817 6.67407 -2.93406e-17)
(-0.191725 7.58587 -1.37751e-17)
(0.819361 -0.0981186 -2.50704e-16)
(9.90618 0.164827 -6.62344e-17)
(9.02516 0.0663433 3.5604e-18)
(0.28016 -1.51349 1.35601e-16)
(-0.165445 0.432974 -4.08072e-17)
(2.25152 2.16858 -9.61607e-18)
(-0.462883 8.54515 -1.28359e-16)
(-0.200962 0.00747286 1.07468e-15)
(-0.598064 -0.473966 6.7159e-18)
(0.956358 0.478196 0)
(5.4793 3.73607 6.57202e-17)
(-0.0742988 0.306596 1.30278e-16)
(0.277621 -1.43076 -3.01128e-20)
(-0.786814 2.07349 1.8145e-16)
(-0.578477 -0.0566126 0)
(10.1835 0.169656 0)
(0.0708955 0.0447221 -7.22838e-17)
(0.43849 -0.0344475 0)
(-0.634978 0.464511 8.39834e-17)
(10.0275 0.0645579 -1.04404e-16)
(4.82824 -0.0307477 7.52749e-17)
(-0.457174 -0.00755096 1.25828e-16)
(7.00483 0.0263169 9.48955e-17)
(-0.0434044 -0.856244 8.60302e-17)
(-0.737241 -2.58491 1.82232e-16)
(0.0515977 0.314791 2.48465e-16)
(0.609883 6.6687 -1.03418e-16)
(1.37004 -0.110623 -7.25742e-17)
(-0.714875 -0.161068 0)
(9.71288 0.819496 0)
(0.373583 3.06123 -2.34852e-16)
(-0.378008 -0.0515091 -2.06882e-16)
(-0.483451 -1.61323 5.87511e-16)
(0.546036 5.32462 -2.53926e-17)
(0.157732 0.059187 0)
(-0.0303897 0.0364089 -5.03211e-16)
(1.25346 1.51543 -1.45544e-16)
(-0.785396 -0.964381 1.40453e-16)
(0.319687 -0.183854 0)
(-0.279013 2.23126 0)
(0.297213 -1.55135 0)
(-0.0759154 0.386143 -1.99383e-16)
(0.599754 1.92191 6.63982e-18)
(10.0244 2.85746 -2.3748e-18)
(0.00374037 -0.00200582 0)
(5.36838 1.30141 0)
(0.477294 0.214105 -1.02903e-16)
(0.801336 6.80495 7.34193e-17)
(1.51372 0.108419 0)
(-0.768579 -0.110811 3.9946e-16)
(0.32248 -0.0754748 2.1544e-20)
(-0.238035 -0.635589 -1.63849e-16)
(0.921235 -0.115359 0)
(8.05586 0.591814 -6.3114e-17)
(-1.60031 0.687688 -1.52208e-16)
(0.572737 3.05168 7.24974e-17)
(0.0584845 4.25571 0)
(0.891226 3.79287 -1.04928e-17)
(9.9299 0.257421 -1.99605e-17)
(2.80528 2.60286 -3.65506e-18)
(0.264029 5.29017 -1.28095e-16)
(-0.510951 1.32761 -2.66298e-16)
(0.225144 3.53036 -4.34855e-16)
(-0.161092 6.85911 4.94296e-19)
(0.058299 6.72847 4.62137e-17)
(2.59564 2.63304 0)
(10.4104 -0.213452 2.12167e-17)
(-2.6709 -0.225783 1.37167e-16)
(8.89944 0.817552 -1.17066e-16)
(-0.23988 0.0173033 1.84833e-16)
(-0.090799 6.65547 0)
(-0.051143 6.86695 -5.15442e-17)
(-0.206473 4.91867 1.85034e-16)
(0.906099 -0.0284652 -7.38791e-18)
(-0.519172 -1.03182 5.03187e-17)
(0.544881 0.709612 6.5693e-18)
(-0.134658 6.6165 -2.79815e-17)
(0.00529632 6.61593 -2.9202e-17)
(2.02681 8.84084 5.55605e-17)
(0.131918 -0.0289058 2.1883e-17)
(10.1276 0.16845 0)
(0.0598777 -0.184088 5.37004e-16)
(0.357249 0.0982388 -1.1229e-16)
(0.809408 -0.0965675 -3.37061e-16)
(7.52849 0.582277 1.66525e-17)
(-0.0103048 6.7101 -4.49721e-17)
(-0.0981981 6.78285 1.88933e-16)
(0.879909 -0.0838882 -5.3078e-20)
(-0.41092 0.0776956 -1.20543e-16)
(1.02632 6.63868 0)
(0.0644432 0.0281829 0)
(-0.0650568 -0.152678 -2.11282e-17)
(-0.271625 2.03457 0)
(3.20504 4.04025 -5.30372e-17)
(4.56195 2.93616 0)
(0.985405 5.69919 -1.53767e-16)
(-0.173829 0.500196 7.35737e-17)
(1.10577 0.0195964 3.60436e-16)
(1.06358 -0.0978709 4.64275e-17)
(7.20851 0.672478 -1.49205e-17)
(3.88276 -0.00672327 -2.33068e-16)
(7.68923 0.139866 -2.88546e-16)
(2.31397 0.25268 0)
(0.205082 0.758902 -8.58042e-17)
(5.12848 2.94706 1.604e-16)
(3.62883 1.6625 -7.34012e-17)
(0.0580214 0.0269061 -3.71847e-16)
(0.267165 0.846704 6.09098e-16)
(-0.637457 -0.606036 3.26679e-17)
(-0.17357 0.537692 -3.95587e-16)
(1.19685 1.89933 -5.4233e-20)
(0.932579 1.15256 -2.43356e-16)
(-0.452616 0.00259347 1.93996e-16)
(0.323389 -0.755483 9.71148e-17)
(-0.20733 0.0147918 0)
(0.0773349 0.327806 -8.01722e-17)
(0.17757 -1.11169 -7.37132e-17)
(-0.141213 0.418575 3.28585e-16)
(0.803765 -0.107115 -1.16788e-16)
(1.3067 8.7462 -3.60247e-17)
(10.6496 0.424249 -7.23947e-17)
(0.277443 -0.0887141 1.2036e-16)
(-0.11062 2.63217 -4.76439e-17)
(0.540158 -0.0541321 -1.43453e-16)
(8.65171 0.163916 3.54561e-16)
(3.97189 -0.135855 -2.40726e-17)
(-0.0195664 6.84041 3.4138e-18)
(4.27345 -0.151742 2.46416e-16)
(-0.0714256 4.82886 -1.75839e-16)
(-0.00262165 5.82269 8.54918e-17)
(7.23959 0.303012 0)
(0.0215499 0.184253 -1.28728e-16)
(-0.00194511 0.0221184 3.04775e-17)
(-1.44873 -0.839287 0)
(1.57134 1.09888 -1.57203e-16)
(0.0540661 0.0843912 6.94288e-17)
(1.0004 0.28367 2.78196e-16)
(0.97567 0.129386 2.83493e-16)
(3.85131 0.185246 -4.13566e-17)
(8.7366 0.522691 -1.10457e-18)
(1.16771 1.48599 -1.5901e-16)
(-1.18446 0.106209 2.94816e-16)
(-0.76939 1.15888 -2.91247e-16)
(0.531913 -0.255502 1.26203e-16)
(0.818546 -0.0740989 0)
(0.209265 -1.17167 -1.07417e-17)
(-2.01321 1.10805 -2.82741e-16)
(0.00626397 -0.130505 -1.89243e-20)
(-0.0294526 6.02072 2.6941e-17)
(0.193116 5.54065 -2.80002e-18)
(-0.123009 5.25169 -1.10466e-16)
(0.157791 6.03617 3.06151e-17)
(2.01276 4.60443 -1.41028e-16)
(7.14669 0.344203 7.06183e-17)
(0.000912483 0.805777 0)
(10.2348 0.986731 0)
(-1.42851 -0.0665541 3.82146e-16)
(-1.24621 0.0757002 5.2607e-16)
(-0.0088495 6.69802 1.37727e-16)
(-0.0466314 6.90308 -1.27052e-16)
(1.19741 -0.197828 1.22972e-16)
(1.12119 5.83396 -4.07093e-17)
(1.07063 -0.246766 4.79021e-17)
(-0.603671 -0.24427 2.38823e-17)
(0.38167 -0.08351 1.65428e-19)
(0.3694 0.15524 -6.89365e-17)
(-0.627911 -0.139895 -9.61715e-18)
(0.434943 2.196 -5.0654e-17)
(3.49703 -0.0729162 -4.03743e-16)
(0.608031 4.1601 6.55734e-18)
(0.134009 0.0202241 1.74339e-16)
(0.387272 0.108525 0)
(0.747261 -0.147759 0)
(0.124299 2.85895 0)
(0.774864 6.17535 2.26656e-16)
(1.09997 8.60195 2.40003e-16)
(-0.113915 7.06794 2.18742e-16)
(0.61075 0.0985667 3.91928e-17)
(5.85985 3.26892 -3.88622e-17)
(0.322458 0.104306 0)
(-0.154459 -0.22468 1.01617e-16)
(0.254923 -0.836222 3.30229e-17)
(10.5359 0.0569078 -7.53706e-18)
(0.0491224 0.0237507 -1.16406e-16)
(-1.52103 0.235505 3.22635e-18)
(-0.63346 -0.0473095 -1.64163e-16)
(8.96716 0.375785 -2.03178e-17)
(0.701217 1.74223 0)
(3.46393 1.19243 -3.51148e-16)
(3.2943 0.810006 2.12234e-16)
(0.734318 -0.157481 0)
(0.0509758 0.148222 7.92503e-17)
(1.30367 2.31231 -2.57841e-16)
(8.65583 0.158407 0)
(1.69582 5.87275 -4.59825e-16)
(-0.0662026 6.2892 -1.23686e-16)
(0.385554 3.21243 0)
(1.16956 0.557749 0)
(11.3897 0.282858 4.37951e-17)
(10.3626 0.35308 3.38255e-17)
(8.84026 1.23853 1.83467e-18)
(5.37605 2.17581 -5.02158e-21)
(0.354586 2.30271 0)
(1.36391 0.612446 2.04328e-16)
(2.08572 7.26231 -2.96415e-17)
(4.61196 -0.058835 0)
(0.154406 0.0273563 -4.84611e-16)
(3.87958 2.11581 1.96745e-17)
(0.0947571 0.864401 -1.2933e-16)
(9.35983 0.921017 -5.21261e-17)
(10.8714 0.04359 7.85043e-17)
(1.66636 1.85572 -1.83857e-16)
(9.92966 0.417397 -1.56128e-17)
(-0.0143044 6.85622 1.51936e-16)
(0.736352 8.84571 4.15334e-17)
(0.585226 6.8938 -1.01782e-16)
(6.7679 3.61333 0)
(0.574231 0.130863 1.56922e-16)
(-0.107934 -0.952505 -1.87322e-16)
(2.2498 0.0908536 2.73093e-17)
(-0.0468172 0.0798213 1.37147e-16)
(0.0348757 6.87033 3.82862e-21)
(-0.0559698 7.43504 2.2172e-19)
(0.550295 6.01654 7.39248e-17)
(-0.0218978 0.193916 0)
(-0.0979745 -0.148754 0)
(-0.424198 0.0513931 1.08152e-16)
(0.288337 0.182282 1.75823e-16)
(-0.0769926 5.38459 -1.05162e-16)
(-0.0392742 6.02117 -3.42494e-18)
(-0.239558 2.39295 0)
(-0.213421 0.281587 -4.7445e-17)
(10.093 0.110328 8.62946e-17)
(-0.870567 -0.570772 0)
(1.73577 1.38508 -3.48159e-16)
(0.251534 0.129942 7.74415e-17)
(0.877369 -0.0565758 2.48255e-16)
(-0.0208418 6.79188 6.15849e-17)
(-0.144146 7.20916 1.38591e-16)
(9.60776 0.925453 0)
(0.251223 7.36268 -3.58145e-17)
(-0.0314403 6.81023 -3.10457e-17)
(9.50018 1.1453 -9.62329e-17)
(1.96559 0.0397399 -4.09026e-20)
(7.31709 1.64608 6.23976e-18)
(-0.14488 6.61515 2.68163e-19)
(-0.0324222 6.12101 0)
(0.00233328 5.54962 2.90219e-18)
(-0.117031 5.08325 -9.6957e-17)
(0.279033 5.90532 -3.7649e-17)
(3.60588 4.14951 1.4219e-16)
(0.226795 1.66304 3.82319e-17)
(-0.114797 6.99475 2.04767e-16)
(0.0144748 6.94794 0)
(-0.274009 5.45217 -1.40037e-16)
(0.89738 1.36698 2.74187e-17)
(0.0329587 0.128668 -1.59021e-16)
(0.546791 -0.00502289 9.23459e-17)
(0.0640404 0.157252 4.67427e-18)
(-0.572076 -0.36052 1.2968e-16)
(0.528733 -0.0357748 0)
(1.0467 3.46616 1.12039e-17)
(-0.144173 -1.87334 -1.97017e-17)
(0.555882 0.00806674 -1.24521e-16)
(8.72352 0.840281 -7.37815e-19)
(-0.0855064 0.844287 -4.51314e-17)
(0.417168 -1.70618 -2.02712e-16)
(-0.150014 0.257047 -2.26716e-16)
(-0.120808 6.42318 -2.07508e-16)
(0.100355 6.61341 0)
(0.57439 0.152825 2.47488e-16)
(-0.136369 6.4906 8.92234e-17)
(0.0911315 6.5558 2.30667e-17)
(-0.528944 -0.0777696 -7.38727e-17)
(3.53497 3.62416 -1.49876e-16)
(-0.854702 -1.37537 4.86604e-16)
(-0.529006 -0.997659 5.91963e-16)
(0.813944 0.727595 -2.63489e-16)
(0.148455 6.20463 2.3368e-16)
(0.0226942 0.178627 -4.46577e-16)
(-0.89925 -0.399307 -1.89558e-16)
(-0.00134892 -1.0368 -1.23108e-16)
(1.13838 9.01047 0)
(9.86027 0.103377 0)
(0.0196383 0.0723649 -3.00258e-16)
(0.369599 -0.714239 1.90616e-16)
(-0.0304292 0.201928 -7.69056e-17)
(-0.762558 -0.484186 0)
(0.499115 0.201638 1.22755e-16)
(0.523534 -0.0269984 -3.45975e-20)
(0.690644 0.36593 -6.21313e-16)
(4.13464 0.0885198 2.22688e-16)
(1.01027 5.04657 1.13172e-16)
(-0.149453 6.72165 -2.76203e-16)
(1.56733 -0.202993 3.92357e-16)
(1.17182 1.11197 -1.50153e-16)
(9.75653 0.908388 -1.34818e-17)
(0.542609 3.29226 2.02693e-16)
(0.398757 -0.246598 1.89132e-16)
(0.583199 -0.0145786 0)
(-0.93075 0.779831 5.43124e-17)
(2.08733 1.36405 -7.35686e-16)
(-0.0743076 0.519682 -2.60789e-17)
(0.298792 -1.92306 2.42333e-16)
(0.0860277 2.29013 2.69029e-17)
(8.59393 0.557461 -1.14827e-16)
(9.78478 0.268797 -1.9598e-19)
(-0.419314 -0.0292709 1.886e-16)
(11.0645 0.0493429 0)
(0.459463 0.210402 -5.28984e-18)
(0.608812 -0.219891 3.04661e-18)
(0.672398 0.0108292 -1.94511e-17)
(-0.018635 6.82683 3.96083e-17)
(-0.0980384 6.59173 3.89113e-17)
(0.019701 5.06427 1.75887e-17)
(10.5197 0.0378645 1.42956e-17)
(0.081803 0.0183766 -3.42092e-20)
(-0.367863 7.59502 -4.55261e-17)
(0.633846 -0.205995 -6.92039e-21)
(-0.32459 0.859519 0)
(9.07187 1.72867 -4.35603e-18)
(0.819577 -0.679895 0)
(-0.102354 -0.0806347 1.03586e-16)
(0.773366 0.0852204 9.53715e-17)
(0.097842 0.757256 5.06232e-18)
(0.61743 0.270791 2.45269e-16)
(-1.15451 0.0310925 2.79467e-16)
(9.35686 0.628114 -1.77326e-17)
(-0.267993 -0.0989091 2.67528e-16)
(1.33812 -0.290729 3.06134e-16)
(9.52582 1.07955 9.85357e-17)
(9.74617 0.306396 4.104e-17)
(6.02645 2.648 2.48896e-17)
(0.0275983 6.60952 -4.53645e-17)
(-0.0453071 6.57237 2.41445e-17)
(0.0491211 2.72549 1.21142e-16)
(0.201664 1.83503 0)
(4.19082 0.732001 4.68624e-17)
(5.71578 3.10559 8.53844e-17)
(9.07667 -0.140636 -2.02763e-17)
(0.51338 0.809061 1.1054e-16)
(0.0224147 -0.120053 2.63406e-16)
(0.0675763 0.0639175 0)
(8.87455 1.70339 0)
(0.511756 2.07915 0)
(1.2311 2.10561 2.8039e-16)
(0.440422 -0.120644 1.07889e-16)
(2.3151 4.37324 2.08072e-16)
(-0.0212058 5.53177 2.73559e-17)
(1.33272 7.49944 -5.64374e-17)
(0.144242 0.200309 0)
(0.129335 0.0973574 9.89681e-17)
(-0.163278 5.9333 -1.23667e-16)
(-1.15558 -0.015836 -6.20256e-16)
(11.2547 0.115656 9.5795e-17)
(5.78725 1.19483 0)
(0.0852829 -1.95612 1.59726e-16)
(1.10334 5.64259 0)
(0.457202 0.186975 1.72292e-16)
(0.190744 0.015557 -2.53775e-17)
(0.919361 9.70307 6.29038e-17)
(9.90286 1.08669 -1.34381e-17)
(9.86396 0.68576 1.02056e-16)
(-1.13728 0.0669935 0)
(0.787053 2.45603 -5.45482e-17)
(-0.431784 -0.0287131 0)
(8.58579 0.334322 0)
(0.844631 0.32488 -1.34045e-16)
(0.111311 0.0328945 2.50473e-17)
(-2.75945 4.54232 -1.31319e-16)
(2.90876 0.810116 -1.23036e-16)
(0.730556 2.72856 1.37539e-16)
(10.279 0.10572 -2.10601e-20)
(5.97672 3.56933 -7.75302e-17)
(1.16963 -1.18762 -3.94303e-19)
(-0.0296958 6.42443 5.52972e-17)
(-0.0461836 6.18533 -5.27337e-17)
(0.618962 2.36991 -1.13252e-16)
(1.20123 6.07278 -2.45615e-16)
(1.50309 1.4852 -1.17021e-17)
(0.0911444 -1.0562 -3.46432e-16)
(-0.038535 0.037448 -2.43447e-16)
(0.720731 0.853246 6.07568e-17)
(0.675915 -0.128349 2.11775e-16)
(0.432862 -0.207018 -3.17741e-16)
(-0.0680771 0.553885 -5.64892e-16)
(0.196351 -1.68649 -3.42026e-16)
(6.95493 4.21222 3.35047e-18)
(0.302859 0.80265 5.86801e-16)
(10.072 0.0425704 -6.3109e-17)
(0.589497 -0.0335024 0)
(-0.273258 2.46309 4.07939e-20)
(3.7214 -0.851398 -1.06673e-16)
(-0.203713 2.46434 0)
(10.0741 0.416492 3.96354e-17)
(-0.490927 0.0450329 3.072e-16)
(0.375886 0.00639392 -2.76947e-16)
(8.93689 1.72534 0)
(-0.0362804 6.72096 3.14544e-20)
(-0.247456 7.7265 0)
(10.0287 0.0849339 0)
(0.539685 0.132719 -5.24876e-17)
(9.35404 1.21376 -5.30965e-17)
(8.95989 3.96288 -1.82e-16)
(1.10042 6.93032 2.30382e-17)
(7.33504 2.1164 -1.05679e-16)
(-0.0261625 3.88969 -7.21472e-17)
(-0.00296171 4.26693 1.52107e-20)
(-0.0225042 4.4896 -7.08958e-17)
(-0.906772 -1.03982 0)
(-0.0901762 2.43788 1.1183e-16)
(-0.00200073 -0.570433 0)
(0.150399 0.38017 0)
(0.0369482 0.268518 0)
(-0.118957 0.403821 -2.08364e-16)
(0.323606 -0.229208 0)
(-0.0310633 0.322248 1.40425e-16)
(2.85807 2.6382 -2.77438e-16)
(0.117178 3.48177 0)
(-0.332957 5.16476 1.55438e-16)
(-0.196129 6.45191 -2.41856e-17)
(8.43639e-05 6.7118 8.32334e-17)
(-0.13556 7.31695 -3.77636e-17)
(0.311231 1.88282 2.15117e-16)
(9.36652 1.02494 -2.71914e-17)
(-0.0879578 0.561207 2.20753e-17)
(0.264599 -1.99866 -6.76861e-17)
(0.888491 0.598016 0)
(0.748584 -0.139407 6.79357e-20)
(5.06518 1.72595 0)
(0.553503 -0.0654776 1.52798e-21)
(3.7889 0.131627 -4.55332e-16)
(10.0474 0.0518756 3.46939e-17)
(-0.319294 7.69832 1.12281e-16)
(-2.3901 2.45556 -2.94621e-16)
(0.0354064 0.0426617 0)