/*--------------------------------*- C++ -*----------------------------------*\
| =========                 |                                                 |
| \\      /  F ield         | OpenFOAM: The Open Source CFD Toolbox           |
|  \\    /   O peration     | Version:  v1912                                 |
|   \\  /    A nd           | Website:  www.openfoam.com                      |
|    \\/     M anipulation  |                                                 |
\*---------------------------------------------------------------------------*/
FoamFile
{
    version     2.0;
    format      ascii;
    class       volScalarField;
    location    "0.25";
    object      nut;
}
// * * * * * * * * * * * * * * * * * * * * * * * * * * * * * * * * * * * * * //

dimensions      [0 2 -1 0 0 0 0];


internalField   nonuniform List<scalar> 
1431
(
0.00293128
0.00264023
0.00345982
0.00160982
0.00141432
0.00144732
0.00366921
0.000786192
0.0029158
0.00155546
0.0015786
0.00104374
0.00139548
0.00130333
0.00302777
0.000521176
0.00292374
0.00289653
0.000190355
0.00183897
0.00103081
0.00108595
0.00188619
0.00139489
0.00146973
0.00206085
0.00146197
0.00121802
0.00101003
0.00185825
0.00133063
0.000728618
0.00197523
0.000998725
0.00133644
0.00306413
0.00244184
0.000860537
0.00238135
0.000859017
0.00218765
0.000403393
0.00270557
0.00321256
0.00413783
0.00193549
0.0034174
0.000795444
0.000840706
0.000870884
0.00151092
0.00182555
0.00257825
0.00381646
0.00333558
0.000761626
0.00236287
0.00219171
0.00101169
0.000786957
0.00474521
0.0017405
0.0035657
0.000782891
0.000899962
0.00366385
0.00284221
0.000829091
0.00201204
0.000750042
0.00099421
0.00142416
0.00191305
0.0019542
0.00156197
0.00122536
0.00168348
0.00399998
0.000784468
0.00211609
0.000805401
0.00162815
0.000975746
0.00389719
0.00218225
0.00177806
0.00183157
0.000969321
0.00149274
0.00266934
0.00307918
0.000895491
0.0018845
0.000864348
0.00156225
0.00151828
0.00171314
0.000729887
0.00143687
0.00102492
0.00198018
0.00080513
0.00352298
0.00136141
0.00119683
0.00291049
0.000785457
0.00276844
0.0018606
0.00146979
0.00243904
0.00347459
0.000753645
0.00323014
0.00108904
0.00119155
0.00247287
0.00334443
0.00159904
0.00337197
0.000863207
0.00228059
0.00194696
0.00128427
0.000831134
0.00213574
0.00172057
0.00168859
0.0024198
0.000809059
0.00234478
0.00263056
0.0010174
0.00361884
0.00190468
0.000911773
0.00200542
0.0035475
0.00269416
0.00259659
0.00132943
0.000625401
0.000769664
0.000887438
0.0010205
0.000775166
0.000734025
0.00287027
0.00207711
0.000773045
0.000818405
0.000949574
0.00186542
0.000529875
0.000628494
0.00176863
0.000802871
0.00348592
0.000754324
0.000708648
0.00285028
0.00238997
0.00326567
0.00113535
0.00156764
0.00301444
0.00172315
0.000866655
0.00158335
0.00357527
0.00102193
0.00118826
0.00125697
0.000768372
0.000771468
0.000677489
0.000499848
0.000877708
0.00182506
0.000719459
0.000839237
0.00438576
0.000746553
0.00319684
0.000773001
0.000785972
0.000751984
0.00117292
0.0021586
0.000799257
0.00360939
0.00517461
0.00135595
0.000790119
0.00244599
0.000850154
0.000784895
0.000839352
0.000787822
0.000674996
0.000675241
0.000665237
0.000734973
0.00217042
0.000785741
0.0018769
0.00193325
0.000834193
0.00168405
0.00088067
0.000789335
0.000783013
0.00152167
0.00083161
0.00273684
0.00152892
0.000755157
0.00387195
0.00230136
0.000833693
0.000830241
0.00226981
0.000776597
0.00244708
0.000825668
0.000877712
0.000913683
0.00353362
0.000816155
0.00143899
0.00189924
0.00114661
0.000746816
0.000795868
0.00079
0.000783574
0.000736687
0.0030568
0.000826719
0.00226609
0.000841688
0.000716672
0.0030278
0.00526801
0.00178943
0.00146478
0.00083033
0.0021665
0.00239051
0.000937434
0.000723475
0.00303981
0.0015468
0.00138359
0.00387556
0.0010992
0.000601379
0.0021769
0.00113499
0.00110862
0.00108735
0.00124352
0.00150957
0.00175826
0.000789742
0.000800034
0.0010354
0.000745242
0.00113964
0.00239441
0.000742624
0.000887878
0.00072748
0.00072782
0.00107665
0.000766581
0.0034536
0.00365936
0.00345627
0.00156951
0.00271713
0.00227547
0.00234931
0.00355897
0.00103199
0.00127618
0.00189233
0.000755412
0.000880083
0.000832334
0.000776264
0.000871141
0.000752779
0.00277554
0.000727212
0.000740194
0.00130764
0.000776473
0.00225734
0.00070927
0.000843843
0.00094262
0.00102637
0.000726932
0.00290355
0.00231326
0.000828462
0.00110656
0.00111679
0.000722096
0.00083596
0.000783542
0.00386776
0.000950335
0.00101793
0.00238283
0.00103038
0.00245876
0.000794758
0.00202804
0.00231538
0.00178094
0.00122959
0.00232081
0.00243467
0.00187535
0.000806493
0.00193459
0.00161827
0.000830876
0.00359436
0.00158524
0.00208231
0.00334334
0.00078602
0.00315855
0.00118194
0.00143511
0.00115236
0.00177258
0.000648447
0.00082241
0.00160701
0.000935195
0.00249421
0.000625598
0.00082623
0.000747895
0.000237614
0.000267347
0.000819905
0.000583837
0.000835592
0.000598673
0.000756013
0.000705198
0.000686998
0.000674037
0.000614891
0.000592544
0.000681722
0.000985829
0.000585213
0.000224334
0.000306543
0.000696604
0.000572544
0.000790613
0.00316424
0.00392506
0.00240645
0.00209319
0.00201233
0.000747319
0.00308017
0.00206639
0.00362264
0.000841945
0.000848845
0.000693823
0.000637872
0.000680876
0.000343244
0.000771035
0.00100157
0.00057423
0.000813789
0.000701208
0.000610772
0.000224333
0.000802143
0.0043048
0.000845904
0.000848691
0.00210741
0.00224121
0.000976528
0.000834636
0.00184548
0.000772093
0.000632886
0.00329692
0.000832669
0.00119752
0.00308625
0.000799695
0.0025327
0.000713168
0.000753575
0.00399707
0.000830279
0.000689595
0.00320968
0.00291409
0.000945252
0.00114521
0.00331097
0.00267247
0.00186161
0.000762849
0.00236997
0.00185773
0.00137792
0.00120372
0.00196604
0.00323062
0.00124618
0.00311169
0.00545973
0.00216137
0.00411694
0.00102499
0.000605717
0.00350721
0.00229019
0.00268008
0.00178421
0.00340442
0.00143987
0.00362016
0.00319186
0.000447543
0.00366799
0.0036939
0.00066942
0.00241485
0.00255652
0.00150836
0.000990118
0.00338763
0.00342373
0.00170299
0.0029977
0.00103094
0.00190238
0.000990293
0.00172422
0.00175744
0.00121554
0.00230534
0.0042905
0.000406046
0.00276973
0.00242703
0.00230028
0.00229968
0.000740811
0.00319259
0.00280921
0.00182716
0.00297585
0.00302626
0.000727106
0.00119228
0.00311521
0.00176786
0.00433908
0.00456088
0.00544403
0.000632159
0.00200452
0.00277937
0.00120755
0.000799516
0.000795964
0.00248602
0.00267383
0.00168453
0.00170516
0.000875254
0.000781576
0.000440274
0.00179283
0.00555103
0.000530716
0.0025204
0.00096408
0.00369404
0.000837181
0.00294585
0.00293234
0.00133553
0.00280655
0.00188891
0.0017027
0.00188508
0.00170715
0.00164781
0.0015671
0.000417256
0.000403379
0.0016238
0.000740435
0.00278974
0.000792321
0.001586
0.00555227
0.00111994
0.00176018
0.00257752
0.00255185
0.00178037
0.00343524
0.000727242
0.00327765
0.00175402
0.00279865
0.00173936
0.00208652
0.00347923
0.000781453
0.000727824
0.00173074
0.00262352
0.00169159
0.00180117
0.00226231
0.00283923
0.00288041
0.00308191
0.00147697
0.00523448
0.0033604
0.00223452
0.000628484
0.00151199
0.00312024
0.00079585
0.00175019
0.00174579
0.00223168
0.000749859
0.00108352
0.00170071
0.00207851
0.00294886
0.00194331
0.0035875
0.00104405
0.000756761
0.00320645
0.00136926
0.00210233
0.00416577
0.00242656
0.000690138
0.00237993
0.000745584
0.00386623
0.00131707
0.000770314
0.00183455
0.00363024
0.00163007
0.00489892
0.00337953
0.00191031
0.00272955
0.00128169
0.00114426
0.00227976
0.0007978
0.00278557
0.00249804
0.00163611
0.00213126
0.00299628
0.000802229
0.00153135
0.000788938
0.00235462
0.00265934
0.000848183
0.000792773
0.000781551
0.0015846
0.000602907
0.00387149
0.000744458
0.000480756
0.00310536
0.00265763
0.00165979
0.00261697
0.00240909
0.00170932
0.00217946
0.00168584
0.00146663
0.00267233
0.00228768
0.00206523
0.000806027
0.00319304
0.00254652
0.000748385
0.00210398
0.000779086
0.00257941
0.00166731
0.0020338
0.00205605
0.00331449
0.00151313
0.00392283
0.00092997
0.00194995
0.000644332
0.00181083
0.000804339
0.0017459
0.00354697
0.000855901
0.000805184
0.00231526
0.00164939
0.00163386
0.000738096
0.00121129
0.00368376
0.00202304
0.000830411
0.000806323
0.00206207
0.00384108
0.00191462
0.00155216
0.00281994
0.00181319
0.00374233
0.00328732
0.00213958
0.000776375
0.00120845
0.00284389
0.00169299
0.000820305
0.000841086
0.00370387
0.00187551
0.00218727
0.000904535
0.00360748
0.00346888
0.000827493
0.00054411
0.00084809
0.00127858
0.00169934
0.00417301
0.000705193
0.000821877
0.003552
0.00248793
0.000771984
0.000739328
0.00266498
0.00271423
0.00166798
0.00118278
0.00395109
0.000736552
0.00123515
0.00310019
0.00351495
0.0014836
0.00186584
0.00163851
0.00412334
0.000955643
0.00173696
0.00218287
0.00157339
0.00335914
0.0019513
0.00161627
0.000227497
0.000828341
0.000824389
0.000728649
0.00194706
0.00159663
0.000766111
0.00161635
0.0016889
0.00159973
0.00122051
0.00206027
0.000850295
0.00227515
0.00215223
0.000566365
0.00215551
0.000998354
0.00283983
0.000635518
0.00297365
0.00257978
0.000721686
0.00277855
0.000644486
0.000838547
0.000803206
0.00260118
0.00205294
0.000626339
0.00103113
0.00323053
0.000687111
0.000783116
0.00161704
0.000795033
0.000708368
0.000726812
0.00298718
0.00076827
0.00332601
0.00331508
0.00222536
0.00343096
0.00156914
0.00280872
0.000703787
0.00207132
0.000786072
0.000663517
0.000742657
0.000841883
0.00113179
0.0010926
0.00229031
0.000752997
0.000747098
0.000767038
0.00348793
0.00269298
0.000845058
0.000840026
0.000874358
0.00186081
0.000589262
0.0012123
0.00225384
0.00257004
0.00085529
0.00243955
0.000387069
0.00236993
0.000793395
0.000760928
0.00376286
0.00545179
0.000738768
0.00263494
0.000571913
0.000778825
0.000973178
0.00408391
0.00348242
0.0014045
0.00130556
0.000585887
0.000773648
0.00147035
0.000631152
0.00485917
0.000678764
0.00278147
0.00226346
0.00202962
0.00339969
0.00077297
0.000880573
0.00103627
0.000847846
0.000834475
0.000769791
0.00246733
0.00407174
0.00080706
0.00288419
0.00172462
0.000716216
0.00190259
0.000236419
0.00199379
0.00287796
0.00260688
0.00275156
0.00181471
0.000828545
0.000808838
0.00277129
0.000822891
0.00179521
0.000833748
0.000673888
0.000597656
0.000538564
0.000648924
0.000837294
0.000732148
0.000777124
0.00228423
0.000973929
0.000776369
0.00181335
0.0017561
0.00196299
0.000859171
0.000908316
0.000692952
0.00266593
0.000745287
0.0018828
0.00106288
0.00334793
0.00113101
0.000701628
0.00294984
0.000778954
0.000717312
0.00073264
0.000663742
0.00243374
0.000712448
0.00228568
0.00235757
0.00196638
0.00081898
0.00305411
0.00221647
0.00210932
0.000230905
0.00217052
0.00276539
0.002034
0.00283364
0.000837702
0.000868592
0.000805565
0.00349726
0.00187084
0.00344421
0.00244358
0.00212255
0.000802598
0.000752542
0.000748808
0.00230216
0.000756248
0.00263351
0.00254894
0.00253697
0.000721027
0.000782622
0.00351228
0.00305564
0.00332849
0.000817708
0.00112391
0.00157937
0.00346345
0.000716742
0.000745935
0.00278476
0.00277774
0.00341673
0.00377541
0.000712207
0.000878237
0.002321
0.00205011
0.000824992
0.00323187
0.00490778
0.000648594
0.00288263
0.00213351
0.00147146
0.0019908
0.00200162
0.00188249
0.00183645
0.000969146
0.000947593
0.000842873
0.00346633
0.000716091
0.000197712
0.00327967
0.000805075
0.00255185
0.00127217
0.00180322
0.00348189
0.00334231
0.000865393
0.00162884
0.0016817
0.00288532
0.000783675
0.003098
0.000813676
0.000794022
0.00106842
0.00158002
0.000729968
0.000907538
0.000683021
0.00246008
0.00074997
0.00214759
0.000510484
0.000586022
0.000554245
0.000462445
0.000602654
0.000597702
0.00224093
0.000259062
0.000641571
0.000818732
0.000573563
0.00256786
0.000636342
0.00249755
0.00160775
0.00206026
0.000648459
0.0012423
0.000573333
0.000627672
0.00335119
0.00587279
0.00216917
0.000551496
0.0032429
0.00308722
0.00372403
0.00235386
0.00324968
0.00235261
0.00180791
0.00216003
0.000629384
0.000575199
0.000915024
0.000577924
0.00353289
0.00243584
0.00166911
0.00220086
0.000999046
0.000766699
0.00106132
0.000815642
0.000603371
0.000603499
0.00219262
0.00286733
0.00077642
0.00319747
0.00170904
0.00124029
0.000765604
0.000465165
0.00572037
0.000722615
0.00103884
0.000733094
0.000823115
0.00238867
0.00246545
0.00083024
0.00236998
0.00225026
0.000894934
0.00243705
0.00137457
0.000728692
0.000758271
0.000808617
0.00329564
0.003024
0.000777144
0.00108035
0.00380007
0.000845978
0.00330623
0.00327456
0.000905649
0.000812063
0.000728597
0.000989071
0.0022016
0.0033836
0.000897578
0.0017584
0.00160831
0.00300407
0.00198525
0.00207833
0.00326249
0.00106469
0.00232926
0.00203902
0.00288887
0.000422529
0.00240788
0.00314585
0.000923578
0.00170657
0.00379801
0.000757612
0.000902385
0.00378899
0.000837439
0.00215924
0.00352118
0.00130521
0.00141346
0.000754704
0.00266588
0.00230597
0.00195181
0.00374074
0.00200679
0.000751589
0.00269191
0.0022778
0.000624141
0.00194585
0.00441716
0.00331502
0.00360283
0.00294013
0.000780656
0.000864601
0.000751506
0.00187637
0.00271247
0.000846305
0.000783439
0.000760375
0.00278561
0.00125664
0.000776972
0.000840446
0.00147162
0.00360273
0.000797188
0.000759606
0.00289733
0.00082063
0.00323379
0.000420684
0.000785223
0.00079136
0.000802749
0.000615261
0.00125756
0.0027256
0.000723372
0.000734521
0.000743242
0.000995799
0.00102546
0.000792121
0.00203955
0.00129653
0.000743931
0.00208959
0.000762385
0.000534237
0.000636053
0.00186286
0.000833578
0.00274244
0.00342113
0.00238309
0.000728925
0.00139341
0.000893782
0.000571306
0.000866879
0.00282654
0.000803646
0.00227615
0.000808152
0.00137046
0.00260431
0.0018412
0.000699609
0.00294451
0.000911502
0.00219628
0.0016923
0.00131006
0.000801116
0.00172299
0.00209645
0.000790579
0.000655384
0.000923419
0.000704509
0.00334251
0.000767352
0.00321877
0.0027563
0.000788501
0.000202818
0.00292106
0.00246321
0.000347632
0.00265073
0.00142129
0.0010906
0.00171035
0.000730718
0.00275711
0.00352978
0.0028146
0.00125953
0.00315295
0.000799244
0.000821059
0.000540367
0.00206847
0.000821609
0.00333375
0.000757577
0.00274545
0.00212738
0.00268277
0.00139174
0.0025569
0.00113786
0.000509612
0.000835033
0.00136451
0.00054722
0.000742288
0.00257582
0.00099872
0.00143263
0.000767586
0.000753143
0.0027839
0.00072587
0.000840555
0.00246054
0.002408
0.000813129
0.000838244
0.000839723
0.000774305
0.000214987
0.00047041
0.00178802
0.000616482
0.00432064
0.00074918
0.00157936
0.00211366
0.000827237
0.00549481
0.00219469
0.000592115
0.000621697
0.00239713
0.00308978
0.000870261
0.000714765
0.002645
0.00252598
0.000877616
0.00136056
0.00172882
0.00073907
0.00227145
0.00195906
0.00177531
0.00270364
0.00245845
0.000878128
0.000851251
0.00160535
0.00206684
0.00084245
0.000819745
0.00219949
0.00105266
0.00252047
0.00275567
0.000733243
0.0029206
0.00132279
0.00227357
0.00180176
0.00353643
0.00126984
0.000473765
0.000481798
0.00295883
0.000749051
0.00191962
0.000728156
0.00077242
0.00084437
0.00090467
0.00213207
0.00139975
0.000913851
0.000594201
0.00275625
0.00111152
0.00187159
0.00216339
0.00187981
0.00233797
0.00412365
0.00207882
0.00219508
0.00303488
0.000891936
0.00122611
0.00131836
0.00372013
0.000719437
0.0016885
0.00113707
0.000790684
0.00194988
0.00422533
0.00219196
0.00277967
0.000622013
0.00240324
0.00342622
0.00159858
0.00201469
0.00420926
0.00180215
0.000769072
0.000844104
0.0035478
0.00286063
0.00222285
0.00257974
0.00284626
0.00343057
0.000737408
0.000828053
0.0013497
0.000813985
0.000883425
0.00275256
0.000838579
0.00100307
0.000411542
0.00156978
0.000790816
0.000940646
0.00173476
0.00357112
0.00302713
0.0031753
0.00126909
0.00357697
0.00271509
0.00132906
0.00103673
0.00165836
0.00228322
0.000845885
0.00206498
0.00274289
0.00169121
0.000923578
0.00294913
0.000784801
0.00348444
0.00306762
0.00092926
0.0033033
0.000871294
0.000774497
0.00221045
0.0010027
0.000845189
0.000779791
0.000744461
0.00208638
0.00237405
0.000837774
0.00315876
0.00275973
0.00110558
0.00337612
0.00096698
0.000724244
0.00200949
0.000959371
0.0019777
0.00337207
0.00104646
0.000854776
0.00108666
0.00315083
0.0013357
0.00221071
0.00208416
0.00220118
0.000759828
0.0025855
0.00202158
0.000817901
0.00123642
0.00162026
0.000709235
0.0016109
0.00274194
0.000813762
0.000537591
0.00253505
0.0018069
0.000801195
0.00165943
0.00220995
0.00255236
0.00068338
0.00189353
0.00259917
0.00308699
0.00229396
0.00211418
0.000853703
0.00231736
0.00169625
0.00353363
0.0020715
0.000712008
0.00205937
0.00504393
0.000772855
0.0022224
0.00075585
0.00124757
0.000696425
0.000943726
0.00232208
0.0015495
0.00130936
0.00264364
0.00196948
0.00301437
0.00136244
0.000770031
0.000885923
0.00121818
0.00282481
0.00211025
0.00257221
0.000810924
0.00102319
0.00219979
0.000842909
0.000814649
0.001114
0.00104414
0.00309134
0.00137311
0.000652503
0.00264691
0.00156546
0.00119619
0.00150306
0.00151092
0.00118431
0.0022368
0.000837289
0.000831596
0.0013565
0.00183809
0.00184827
0.000876261
0.000908128
0.000911604
0.000792217
0.00174785
0.0013241
0.00305821
0.00105092
0.000740907
0.000678722
0.00275096
0.00104332
0.00305567
0.00127964
0.00320231
0.000801255
0.000761092
0.00127701
0.000762714
0.00100713
0.00081644
0.00180273
0.00146896
0.00214748
0.000594785
)
;

boundaryField
{
    frontAndBack
    {
        type            empty;
    }
    wallOuter
    {
        type            nutkWallFunction;
        Cmu             0.09;
        kappa           0.41;
        E               9.8;
        value           nonuniform List<scalar> 
90
(
6.28811e-05
7.67512e-05
7.78069e-05
7.5669e-05
8.28252e-05
8.52687e-05
8.73977e-05
9.42831e-05
8.00424e-05
8.97468e-05
9.20627e-05
9.51288e-05
9.135e-05
9.34436e-05
9.28331e-05
0.000105195
9.97454e-05
8.12607e-05
7.22747e-05
6.52157e-05
7.83292e-05
0.000100147
8.80453e-05
9.32411e-05
8.00679e-05
0.00011516
0.000112822
8.77952e-05
8.24257e-05
6.0878e-05
7.00703e-05
6.61848e-05
5.50575e-05
7.21803e-05
7.17625e-05
6.90831e-05
7.98002e-05
6.57629e-05
7.56386e-05
6.66481e-05
7.71722e-05
6.97134e-05
0.000108779
6.85259e-05
7.36921e-05
7.33629e-05
8.93231e-05
0.000122725
8.53811e-05
0.000106724
0.000117441
5.0602e-05
7.54061e-05
9.39663e-05
9.10737e-05
7.1e-05
8.59264e-05
0.000117927
0.000121605
8.94116e-05
6.46934e-05
7.84835e-05
8.95825e-05
0.000106495
9.68254e-05
8.43536e-05
0.000108679
8.00574e-05
0.000109817
8.70072e-05
6.17994e-05
6.61817e-05
9.22387e-05
8.96395e-05
9.72436e-05
7.46039e-05
7.1616e-05
0.000103908
8.75123e-05
0.000104686
5.73745e-05
0.000108747
7.22962e-05
7.51555e-05
4.89534e-05
8.92728e-05
9.73305e-05
6.44745e-05
8.23695e-05
8.38913e-05
)
;
    }
    inlet
    {
        type            calculated;
        value           uniform 0.000851986;
    }
    outlet
    {
        type            calculated;
        value           nonuniform 0();
    }
    wallInner
    {
        type            nutkWallFunction;
        Cmu             0.09;
        kappa           0.41;
        E               9.8;
        value           nonuniform List<scalar> 
138
(
0.000126527
2.14732e-05
0.000215003
0.000117953
0.000147183
4.82467e-05
0.000314225
0.000103387
0.000117202
0.000153498
0.000139373
0.000120623
6.34509e-05
7.80681e-05
8.46569e-05
5.83852e-05
9.57123e-05
8.21342e-05
8.0992e-05
8.03094e-05
0.000270481
0.000129743
7.40605e-05
0.000133695
0.000130784
0.000128429
0.000122609
0.000127239
0.000122234
0.000130558
0.000131684
7.83777e-05
7.50545e-05
8.65289e-05
2.71828e-05
3.14551e-05
9.42405e-05
7.10626e-05
0.000102516
7.54808e-05
9.04358e-05
8.08449e-05
8.39267e-05
8.08484e-05
7.77959e-05
6.98981e-05
8.24173e-05
0.000116221
7.34723e-05
2.57727e-05
3.5997e-05
8.0731e-05
7.1227e-05
9.21784e-05
8.73825e-05
7.68694e-05
7.89768e-05
4.05211e-05
9.43076e-05
0.000115296
7.17534e-05
9.48991e-05
8.41341e-05
7.72084e-05
2.56424e-05
9.28151e-05
7.47918e-05
8.42025e-05
0.000134477
7.46621e-05
5.4379e-05
8.40233e-05
0.000121772
5.09711e-05
0.000139756
7.74892e-05
0.000141541
0.0001085
9.75907e-05
5.52289e-05
6.58014e-05
0.000109877
0.000147814
5.15897e-05
4.87522e-05
0.00012575
7.35723e-05
9.25249e-05
0.000127982
0.000123584
8.92765e-05
5.74935e-05
0.000106208
6.54002e-05
8.85405e-05
2.6209e-05
9.57669e-05
9.33344e-05
9.91843e-05
8.47695e-05
6.97722e-05
4.53249e-05
7.0706e-05
6.72917e-05
0.000122218
2.74167e-05
0.000111144
0.000133251
8.27038e-05
2.69652e-05
2.26966e-05
0.000126323
3.05997e-05
7.44523e-05
7.98683e-05
0.00011868
9.1873e-05
5.63998e-05
7.586e-05
8.76664e-05
0.000102402
5.18128e-05
9.42565e-05
6.68175e-05
2.34054e-05
4.01591e-05
9.83233e-05
6.4158e-05
2.4984e-05
5.43798e-05
5.97203e-05
8.18364e-05
0.000149287
9.16114e-05
0.000119488
0.000200096
0.000149949
6.82224e-05
)
;
    }
    procBoundary0to1
    {
        type            processor;
        value           nonuniform List<scalar> 
29
(
0.00278863
0.00337889
0.00422249
0.00422249
0.00467235
0.00467235
0.0027522
0.00103781
0.0022855
0.0025083
0.00205212
0.00199687
0.00145166
0.00155589
0.00202337
0.00117926
0.00628368
0.00430353
0.00297415
0.00312593
0.000830621
0.000717406
0.00367468
0.000740888
0.000736976
0.00430353
0.000720792
0.000919583
0.000740888
)
;
    }
    procBoundary0to2
    {
        type            processor;
        value           nonuniform List<scalar> 
42
(
0.00127716
0.000918429
0.00149366
0.00106007
0.00153072
0.00127716
0.00149366
0.00130681
0.00114363
0.00079769
0.00201261
0.00187518
0.00201261
0.00161848
0.00132181
0.00144639
0.00132181
0.000803676
0.000875
0.00256892
0.00256892
0.000803676
0.000752909
0.00239154
0.00239154
0.000651675
0.00219098
0.00051787
0.00196581
0.00085222
0.00085222
0.000504129
0.000537785
0.000601063
0.000757779
0.00149366
0.000920551
0.00058139
0.00196581
0.00130681
0.00103449
0.000942774
)
;
    }
}


// ************************************************************************* //
