/*--------------------------------*- C++ -*----------------------------------*\
| =========                 |                                                 |
| \\      /  F ield         | OpenFOAM: The Open Source CFD Toolbox           |
|  \\    /   O peration     | Version:  v1912                                 |
|   \\  /    A nd           | Website:  www.openfoam.com                      |
|    \\/     M anipulation  |                                                 |
\*---------------------------------------------------------------------------*/
FoamFile
{
    version     2.0;
    format      ascii;
    class       volVectorField;
    location    "0.24";
    object      U;
}
// * * * * * * * * * * * * * * * * * * * * * * * * * * * * * * * * * * * * * //

dimensions      [0 1 -1 0 0 0 0];


internalField   nonuniform List<vector> 
1431
(
(-1.23446 0.48698 1.55322e-16)
(2.98558 0.705054 3.16984e-17)
(-6.06492 0.902303 0)
(-0.765993 0.0455467 1.94803e-16)
(-1.82786 0.086875 0)
(1.68183 3.46929 2.62594e-16)
(3.38731 0.191799 3.41856e-16)
(1.42959 0.236393 5.50208e-17)
(0.814362 0.650014 2.57957e-16)
(3.78223 -0.053614 3.18559e-16)
(2.74063 10.2382 2.05023e-17)
(6.83362 -0.148521 0)
(0.36423 6.61805 -1.1124e-16)
(-1.06213 0.105108 -5.84307e-16)
(1.55841 -0.138365 0)
(3.08937 -0.0120722 -3.07877e-16)
(4.06988 -0.0262318 -2.42251e-16)
(-4.73659 -0.57901 0)
(4.61002 -0.0556412 -1.88534e-16)
(-4.70725 0.303487 9.64932e-17)
(4.11204 9.56739 -7.04119e-19)
(-0.384351 0.194686 2.40457e-16)
(0.655221 0.321805 -2.71399e-16)
(12.1874 2.09462 -3.68307e-18)
(0.468373 0.322952 2.73796e-16)
(0.345889 6.86787 4.66473e-19)
(1.52258 10.0504 -2.11739e-17)
(1.42209 -0.68459 -3.79664e-16)
(-0.10891 2.04415 -5.94394e-17)
(0.200007 5.4735 3.31476e-17)
(0.243295 5.40441 -9.77977e-17)
(0.22495 3.64541 4.56238e-17)
(0.0798834 5.60682 0)
(-0.232844 0.00536987 -4.98323e-16)
(1.78242 3.45449 -3.69842e-16)
(3.23602 -0.302085 0)
(-1.84664 3.3299 0)
(0.712467 -0.349308 3.37154e-20)
(-2.19314 -0.363019 0)
(0.168611 4.09743 0)
(-1.47809 1.96776 1.85186e-18)
(-1.29327 2.53373 2.07528e-16)
(0.316648 7.1217 -1.29913e-16)
(-0.74593 -0.0457819 1.92011e-16)
(1.46905 3.80885 0)
(-1.3938 -0.427902 2.89305e-16)
(1.01318 1.34742 2.42984e-17)
(1.1071 9.67701 -6.51679e-17)
(1.99963 0.522312 0)
(0.0897723 -0.781565 0)
(1.86899 1.85893 0)
(-0.656651 -0.476154 0)
(1.03135 1.64211 4.03854e-16)
(1.76799 0.0335512 1.78168e-17)
(3.6267 0.506671 -1.94539e-18)
(-0.699171 0.517038 4.96814e-16)
(-1.18621 0.135303 1.91814e-16)
(4.55899 -0.370638 0)
(3.85316 0.092065 0)
(-1.04121 -0.216036 4.11199e-16)
(1.27424 -0.342401 -1.37424e-16)
(-1.70074 0.385261 3.4514e-16)
(-0.548447 -0.164137 0)
(0.483897 -0.0584439 0)
(-2.11865 -0.139245 7.57578e-19)
(3.05815 0.115937 -1.80224e-16)
(-5.73839 -0.783525 -1.55623e-16)
(0.814711 -0.269031 -8.54672e-17)
(-0.427431 -0.248865 -5.80751e-18)
(-1.01703 -0.193985 0)
(-0.376495 -0.659442 7.05379e-17)
(-0.442275 0.154127 -1.66347e-16)
(-1.23966 -0.035186 1.16386e-16)
(-0.561002 -0.12701 3.76641e-16)
(-1.27181 -0.0622963 4.14526e-16)
(-1.64949 -0.201513 -4.82329e-16)
(-7.03288 -0.0443846 -1.3339e-17)
(-0.385085 -0.111299 -1.82683e-16)
(3.41651 -0.295656 -2.26698e-16)
(-3.32583 -0.738058 0)
(3.85849 0.0461988 -5.94375e-17)
(-0.285914 -0.158793 1.22006e-17)
(6.03597 0.633017 -6.50967e-18)
(1.90334 1.9062 1.00501e-16)
(11.8292 0.756065 2.07439e-18)
(0.62074 -0.372587 -1.04076e-16)
(3.76931 -0.0603547 0)
(1.20807 0.252458 1.93798e-16)
(9.41023 0.152291 6.64685e-18)
(7.79092 0.582242 2.28283e-18)
(-1.20598 0.0504411 -2.70871e-16)
(-1.25225 0.307902 2.75683e-16)
(1.13869 -0.538924 2.69367e-16)
(2.49551 -0.247678 -1.06139e-16)
(4.054 0.42737 8.33695e-18)
(-0.0281458 4.74174 0)
(3.06251 -0.260539 -7.73603e-17)
(5.07914 1.28887 -1.35175e-17)
(-1.86818 0.206348 0)
(-0.445556 0.208448 -6.62667e-19)
(-0.1096 1.53147 1.83021e-16)
(-2.20516 0.28491 -5.51009e-16)
(3.59565 0.0950262 0)
(-3.10487 -1.29811 -2.12979e-16)
(-0.518728 -0.216646 3.61607e-16)
(0.281794 4.85839 1.43713e-17)
(0.210836 6.60667 0)
(1.4714 7.09787 6.67926e-18)
(0.429272 0.361765 4.474e-16)
(3.91793 0.128597 0)
(-1.58462 -0.526647 -5.50157e-16)
(0.333753 5.72381 -2.33569e-16)
(-4.63174 2.9625 3.51672e-16)
(-1.32748 1.49241 -1.84819e-16)
(3.707 0.641084 -9.34527e-19)
(-1.75731 -0.0609065 6.5879e-17)
(-0.84881 0.195064 0)
(-1.15834 -0.0798797 -2.13676e-16)
(-0.703315 -0.137959 0)
(-0.0286149 -0.178452 0)
(-0.390963 -0.289296 -2.45672e-17)
(1.6115 0.0496255 7.68547e-17)
(0.114706 0.185937 2.52761e-16)
(-1.3372 -0.106769 1.63507e-16)
(-1.07572 -0.243008 0)
(2.61594 -0.342852 1.43095e-16)
(-6.39395 0.44331 0)
(0.86672 -0.0637883 5.35342e-16)
(-6.24203 1.49104 -1.41436e-16)
(3.90365 0.0649031 3.26074e-16)
(3.76872 -0.149202 3.26983e-16)
(-4.63775 0.0715132 -6.45683e-17)
(3.80855 0.0423765 -7.67338e-17)
(3.85953 0.239365 8.006e-17)
(-4.08988 1.26858 0)
(-1.10102 -0.610291 -3.03551e-16)
(-0.459545 -0.533021 1.59822e-16)
(-1.79261 0.717512 0)
(10.0342 0.0314874 3.40809e-17)
(1.09348 -0.106238 1.82141e-16)
(-1.78012 -0.41234 0)
(0.149096 5.83131 0)
(3.9499 0.0255713 7.44379e-17)
(-1.51321 -0.332841 0)
(0.90433 0.335196 2.7522e-16)
(0.0249629 5.72093 -7.48684e-17)
(-1.15891 -0.246935 -1.77651e-16)
(0.347482 1.56978 -4.04586e-16)
(3.88896 -0.391702 2.18103e-16)
(0.45926 -0.372756 1.7081e-16)
(-0.92182 -0.432312 2.21225e-16)
(-1.04219 -0.209045 7.61211e-17)
(0.171433 3.94258 1.03339e-19)
(-0.390988 -0.23018 -2.14275e-16)
(-0.0256694 5.43153 -3.71373e-17)
(0.480858 -0.808098 -3.79765e-16)
(10.6518 0.487368 -2.16253e-18)
(2.85369 1.80371 7.61779e-17)
(6.90777 0.6709 -5.48544e-18)
(3.76032 -0.227411 1.95492e-17)
(8.01127 1.53739 -3.45404e-18)
(-0.21782 5.39708 1.41976e-16)
(4.55294 -0.101903 -1.06184e-16)
(4.17013 -0.195752 8.10855e-18)
(0.335101 -0.0210609 -5.0974e-17)
(-1.1966 0.615326 -2.24562e-16)
(-1.20416 1.08473 8.39503e-16)
(4.16944 0.527206 8.07448e-18)
(0.250057 -0.579506 2.43222e-16)
(4.35402 1.08173 2.91288e-17)
(8.20919 0.862852 -7.37587e-18)
(0.832777 2.36284 0)
(0.299233 4.55499 -3.85608e-17)
(10.0479 0.274625 3.63505e-18)
(3.05762 0.935393 -1.30172e-17)
(10.6911 0.283003 0)
(3.88777 -0.0420072 0)
(1.54425 3.59474 -1.43573e-16)
(1.20267 1.62237 -3.50064e-16)
(1.58723 3.24223 -4.11355e-17)
(3.01153 0.0341649 -3.35035e-16)
(-1.27346 -0.590931 0)
(0.564972 0.990948 9.91111e-18)
(10.5724 2.68381 -2.6684e-18)
(1.65407 3.67917 1.02969e-16)
(0.0759421 6.1732 0)
(0.917485 2.82778 -1.05241e-17)
(3.32182 1.33474 -4.99704e-18)
(0.416934 5.2252 5.81849e-17)
(10.3711 -0.13712 2.23104e-17)
(0.0374637 5.50486 -6.12663e-17)
(0.221495 5.23028 -3.52229e-17)
(0.191975 5.27976 -5.47135e-17)
(1.1122 6.01928 0)
(-0.986406 0.109479 0)
(3.47363 2.66093 -7.09093e-17)
(4.81885 1.7651 0)
(1.33288 3.73097 -2.35179e-16)
(-0.0930513 -0.290787 4.28886e-16)
(-1.02844 0.103111 0)
(1.22807 0.449826 -6.70133e-19)
(4.5293 -0.115717 -6.09643e-17)
(1.56827 7.94268 -3.76876e-17)
(3.68689 -0.0266661 7.09891e-17)
(1.2307 6.40086 -4.25416e-17)
(0.143892 5.47099 4.06113e-18)
(0.102283 6.06766 8.83783e-17)
(0.753949 -0.48259 3.01742e-16)
(9.85801 0.672308 -1.16754e-18)
(-1.18313 0.232901 -1.94108e-16)
(-0.352054 0.127934 3.45128e-16)
(4.27511 -0.134628 0)
(0.223481 6.50784 2.78735e-17)
(0.515969 4.86628 3.62114e-17)
(11.0541 1.08799 0)
(-0.739481 0.227944 6.11943e-16)
(0.237254 5.2354 1.6255e-16)
(1.40264 3.98162 -5.61497e-17)
(1.68942 2.00275 -6.07015e-17)
(1.2635 7.67078 2.57244e-16)
(-0.188793 4.94998 2.70972e-16)
(0.140935 0.399618 0)
(2.59947 0.711828 2.54463e-16)
(4.34984 -0.186828 0)
(-0.172909 5.89578 -1.34655e-16)
(9.86696 1.29812 2.04205e-18)
(2.75357 6.51482 -3.01727e-17)
(4.71603 1.15862 3.01679e-17)
(-0.00892359 3.66761 2.19747e-16)
(0.86347 8.24293 4.36861e-17)
(2.79179 0.132543 3.12858e-17)
(0.201409 5.5051 8.63616e-21)
(0.0906571 4.60822 -4.05814e-18)
(0.224326 4.91939 7.92593e-17)
(0.167161 3.67028 -4.34568e-17)
(7.26574 1.06588 8.47783e-18)
(0.233078 6.35264 0)
(0.683595 4.70201 -4.50111e-17)
(0.0791862 5.6667 0)
(0.948088 0.0708165 3.67731e-17)
(3.50301 -0.0676027 5.84795e-17)
(1.74344 2.76143 1.61504e-17)
(9.81993 0.946408 -7.76907e-19)
(0.510798 5.27379 0)
(0.394159 5.16575 2.76386e-17)
(-0.550228 -0.831803 6.06485e-16)
(0.494937 5.00173 2.88648e-16)
(1.3323 8.47318 0)
(-0.438885 5.79171 -3.12821e-16)
(0.377834 -0.683713 1.85036e-16)
(0.34243 0.145688 0)
(9.6203 0.362829 -2.83098e-19)
(3.83259 -0.258609 1.86735e-18)
(4.27392 0.176916 -1.11389e-17)
(0.106705 5.45654 4.7203e-17)
(-1.47203 1.82404 -7.48474e-17)
(3.9125 -0.273487 -3.04214e-20)
(9.98465 1.73363 -4.87008e-18)
(6.06816 1.69747 3.47279e-17)
(0.203345 5.45142 -5.2104e-17)
(-0.269508 3.31938 1.20883e-16)
(10.0427 0.0857573 -2.08849e-17)
(1.13144 1.58694 0)
(3.94698 -0.103967 6.38188e-17)
(-0.382921 6.44954 2.80574e-17)
(1.57812 6.41456 -6.13386e-17)
(1.51174 2.55339 -2.01543e-16)
(0.929919 4.9764 0)
(1.00732 9.23446 6.14254e-17)
(-0.93837 0.139 0)
(0.809482 0.450069 -7.07499e-17)
(0.261206 5.90759 6.15706e-17)
(2.93903 0.542393 -1.45156e-17)
(1.33917 -0.0583258 6.57401e-17)
(8.60479 1.32256 0)
(0.292007 4.65702 4.23544e-21)
(9.17371 1.04597 -6.46601e-17)
(1.18914 5.48908 2.54424e-17)
(0.0712141 2.39215 9.0162e-21)
(0.0737565 5.92116 -6.522e-17)
(1.30269 3.00842 0)
(-1.90638 2.86591 2.80981e-16)
(0.0259503 5.72835 9.7471e-17)
(2.34791 1.26339 2.47599e-16)
(3.60947 0.238781 0)
(5.80799 1.01364 0)
(-1.56843 2.04436 1.9222e-16)
(5.49377 1.48479 -4.30862e-17)
(11.3793 0.505127 0)
(2.2201 0.773044 -3.42896e-17)
(-0.188297 -0.179504 -2.59226e-16)
(0.403215 1.32738 2.51655e-16)
(4.39147 1.51704 -3.71304e-17)
(1.17064 3.86202 -6.75842e-17)
(0.784141 7.76251 -1.45882e-16)
(-0.00628913 3.40436 -5.21551e-17)
(2.45505 4.89014 0)
(-0.0107791 6.23526 0)
(-0.650978 0.830048 2.22763e-16)
(0.138013 2.56811 9.93477e-18)
(0.80343 1.82774 -2.64786e-16)
(-1.21194 -0.167754 -2.05956e-16)
(2.89684 0.374099 -3.86697e-18)
(1.20215 6.53682 6.26444e-17)
(0.235087 3.8208 -5.40207e-17)
(4.00197 -0.265877 -4.279e-17)
(2.29699 1.19318 2.30395e-17)
(0.140967 5.3561 -3.1129e-16)
(-1.65761 2.68032 -3.58062e-16)
(4.03019 0.963212 -1.98664e-17)
(3.99094 3.59534 2.47422e-16)
(1.92609 -0.157582 0)
(-0.880343 0.331637 -8.89465e-17)
(-0.135729 0.240713 0)
(1.22565 1.27491 -4.26837e-16)
(4.46384 2.12655 0)
(1.37027 3.46112 -1.46683e-18)
(3.58919 0.367053 1.55205e-17)
(0.0925612 -0.630163 -2.38927e-17)
(6.09393 5.24825 1.1889e-18)
(1.9959 1.76684 2.35849e-17)
(3.93398 2.33721 0)
(-0.585166 -0.0854274 0)
(0.599125 3.17091 0)
(1.5019 3.57491 4.53706e-16)
(-4.31524 0.728879 -1.74548e-16)
(-0.646527 -0.0354955 0)
(-0.448326 0.4852 6.06205e-16)
(2.27754 0.195282 3.06069e-17)
(4.35238 0.0317031 5.32947e-17)
(0.566147 3.24834 2.2317e-16)
(-0.299884 -0.616594 1.82862e-16)
(0.0618897 0.67848 -5.72497e-16)
(-0.0939724 0.0893965 -3.9105e-16)
(3.61242 -0.126164 -1.40084e-17)
(1.03394 6.95952 -2.55935e-17)
(-0.906788 0.514194 0)
(6.75022 1.11831 6.06028e-18)
(1.59817 3.63375 -2.03653e-16)
(0.221944 0.46695 0)
(-0.758181 -0.100236 0)
(0.773419 7.14908 1.96244e-17)
(3.46838 4.93655 9.5804e-17)
(-1.36202 1.48969 0)
(1.19398 0.930566 2.53755e-16)
(-0.0374893 4.97269 0)
(2.1819 0.513305 2.30339e-17)
(9.36252 0.717598 5.87047e-17)
(3.40539 3.95969 -1.78556e-16)
(1.51778 5.08725 0)
(0.732484 4.52386 1.94353e-16)
(0.656496 -1.01007 -3.50377e-16)
(0.403152 2.68395 2.27999e-16)
(2.43598 2.99017 -8.04699e-19)
(0.886296 -1.06662 2.70882e-16)
(1.70165 1.54006 -1.815e-16)
(8.80003 2.83874 1.81259e-18)
(-0.675541 0.567488 -8.06455e-17)
(10.0113 0.163133 -1.25004e-19)
(-1.59689 2.07326 2.17404e-18)
(0.0795457 0.255247 -4.79506e-16)
(0.0704749 6.09314 -2.66668e-17)
(0.282826 3.00395 -7.50295e-17)
(2.96185 0.212965 3.60418e-18)
(-0.0220555 -0.518342 -4.28621e-17)
(7.3368 5.70413 1.63325e-17)
(0.278331 0.419098 2.82887e-16)
(11.5131 3.78259 -4.05287e-19)
(-0.43638 4.69256 3.70309e-17)
(0.471631 6.07673 1.21133e-17)
(1.21538 8.67859 -7.93373e-17)
(-1.08579 0.0538462 -1.91357e-16)
(9.0448 0.268445 9.55748e-17)
(1.54519 2.4285 0)
(-1.34635 1.47915 1.16605e-16)
(7.59825 1.22841 -1.14308e-18)
(2.61985 2.50398 -2.3336e-17)
(-0.0038741 -0.201699 -8.84279e-17)
(-3.9503 4.35631 0)
(7.51756 1.78101 -2.30145e-18)
(-0.675414 4.6696 3.22687e-16)
(1.66851 3.68286 1.05311e-16)
(0.312986 0.149341 0)
(1.09051 -0.836615 1.44269e-16)
(9.74959 5.10427 -1.17295e-17)
(1.78568 1.94602 5.14131e-17)
(1.38461 2.41004 -6.86025e-16)
(1.33278 1.16888 3.66245e-18)
(1.15656 3.94799 0)
(1.69444 2.64922 -2.95202e-17)
(3.33608 0.0100113 1.15e-16)
(1.32902 2.47655 -2.10793e-16)
(1.32246 2.57087 2.10808e-16)
(4.11349 -0.228439 1.37542e-16)
(6.73901 1.73851 -4.40612e-18)
(0.520894 2.41817 4.8211e-20)
(0.914511 3.975 -1.05103e-18)
(0.476312 3.55354 -1.19917e-16)
(-0.251339 0.243338 -6.1373e-16)
(1.88998 3.21762 -5.22769e-17)
(2.63793 3.51422 -9.60012e-17)
(-1.1428 1.38948 3.32273e-17)
(5.27331 2.14492 1.21196e-16)
(-1.26029 1.49382 -3.37054e-17)
(0.0874027 -0.172374 -9.11779e-17)
(2.00822 4.08733 -6.12377e-19)
(1.56084 3.12275 9.04098e-17)
(-0.109936 -0.175001 1.02168e-16)
(3.68662 0.13789 3.02855e-17)
(2.32657 4.14639 1.29028e-17)
(3.10371 3.21859 0)
(1.44975 3.46779 0)
(2.478 4.10916 6.39128e-18)
(-0.642013 5.34481 1.15863e-16)
(1.40717 1.55535 -2.02097e-17)
(0.0463772 -0.398969 2.29188e-16)
(1.83401 3.22965 -1.30112e-20)
(-0.0758249 -0.577604 0)
(1.73709 3.62829 -1.88994e-16)
(2.44823 4.00484 0)
(-1.33306 7.50747 -5.46896e-17)
(-0.161409 5.88015 -2.95401e-16)
(2.39325 1.7744 -1.02882e-16)
(2.12992 3.19022 4.12649e-17)
(2.29176 3.85663 1.49859e-17)
(-0.187843 -0.170717 4.40902e-16)
(-2.94798 1.21825 7.14915e-19)
(2.76528 -0.0101221 9.4494e-17)
(-5.12959 3.13386 -1.64822e-16)
(11.7982 1.76866 2.21173e-18)
(-2.2694 3.69643 1.52793e-16)
(-2.54202 3.87371 2.34615e-16)
(-2.22929 3.52937 -3.41922e-19)
(-2.89125 4.30173 0)
(-2.10224 3.36164 -1.56351e-16)
(-1.99975 3.46651 -1.20125e-16)
(-2.04961 3.57551 -1.09973e-16)
(-1.78777 3.32098 -2.38946e-16)
(-1.82916 3.68302 3.45146e-16)
(-1.61037 3.39592 9.2281e-17)
(0.0995891 -0.80731 0)
(10.0298 0.391907 1.14751e-18)
(0.238586 -1.16495 -1.03578e-16)
(0.268166 -1.07833 2.88308e-16)
(0.335488 -0.642684 -4.40863e-16)
(0.257501 -0.70846 -1.50503e-18)
(-0.0134529 -0.17193 0)
(0.150339 -0.382096 -1.05103e-16)
(2.69962 1.06993 4.79666e-17)
(0.678448 0.307475 6.96857e-17)
(0.945429 0.405772 6.40521e-17)
(-0.160657 -1.00096 -2.40479e-16)
(0.445167 0.84086 -1.61123e-16)
(-1.18995 -0.59613 0)
(-0.119838 0.936005 -8.73622e-17)
(1.13805 0.625271 2.63973e-16)
(0.779111 0.241414 9.77803e-17)
(8.22026 0.3 -2.3323e-18)
(-1.25108 -0.226175 0)
(-4.86031 0.78458 1.35364e-16)
(0.587136 0.346938 -1.31233e-16)
(0.163832 -0.960183 2.23911e-16)
(8.30779 0.104214 -3.12295e-17)
(-0.00343727 0.590446 -2.68023e-16)
(-5.24758 0.0911698 -8.04743e-17)
(0.251299 -1.15337 2.48327e-16)
(-1.61096 -1.58683 3.06691e-16)
(8.29043 -0.0450483 1.49327e-19)
(-0.0734425 -1.13778 -2.29756e-16)
(8.41366 -0.118545 -2.6722e-17)
(0.365609 0.0903456 -7.07828e-16)
(0.135817 -0.307694 0)
(-1.17915 -1.65867 -5.00185e-18)
(1.03819 0.0682349 0)
(10.0578 0.130049 3.73901e-17)
(10.1532 0.283715 1.1579e-16)
(-0.337631 -0.846999 1.30077e-16)
(-0.149365 -0.641906 -1.26322e-16)
(-0.0646494 -0.288545 7.2075e-16)
(1.5912 -0.392097 0)
(0.5099 0.0224218 0)
(-0.179513 -0.0879108 0)
(9.84275 0.191835 2.54743e-17)
(3.37008 -0.425008 1.83949e-16)
(-0.278487 -0.104315 1.93699e-17)
(1.22341 -0.0386164 2.34548e-16)
(-0.982019 -1.12562 0)
(-0.120922 -0.179413 0)
(-3.84929 1.39864 1.39023e-17)
(-0.768333 -0.788607 1.62756e-16)
(9.3498 0.275956 -7.41791e-17)
(2.35307 -0.648863 1.83522e-16)
(-4.4938 1.63716 9.60845e-17)
(-0.471665 0.420419 3.21684e-16)
(1.74194 -0.0949339 -2.7954e-16)
(-1.58907 -0.112513 -1.40493e-16)
(-5.13194 2.59908 7.60974e-17)
(9.1416 0.518648 1.7129e-17)
(1.3741 -0.631528 -2.50359e-16)
(-0.805642 0.18473 -5.64486e-16)
(-1.14568 5.13342 1.1168e-16)
(0.390373 3.74105 -2.85964e-16)
(-0.992045 0.245139 9.96498e-16)
(0.221861 5.59551 -1.1944e-16)
(9.23622 0.768876 -3.58301e-17)
(9.90938 0.507016 -9.63839e-17)
(-0.578592 -0.950633 -3.04447e-16)
(2.5476 -0.356315 1.87732e-16)
(0.400915 -0.519235 1.98332e-16)
(-0.424817 0.302477 0)
(-0.0409396 1.48968 2.20682e-16)
(1.05563 -0.439555 2.82276e-16)
(-1.05461 1.15553 0)
(-4.34266 2.3272 0)
(-0.159784 4.70668 1.362e-16)
(3.23895 0.243503 -1.3969e-16)
(-1.53787 4.55781 -5.83493e-17)
(-0.249894 1.8349 1.29591e-16)
(-0.226393 -0.920473 1.78494e-16)
(9.91401 0.749396 -3.08672e-17)
(1.44531 2.56651 0)
(1.2997 -0.226526 -3.82435e-16)
(0.0560573 0.325917 -2.32125e-16)
(4.23882 -0.160772 -5.11283e-17)
(0.282345 3.9743 -7.94018e-17)
(3.46935 -0.339628 -7.97615e-17)
(9.46211 1.18274 5.8914e-17)
(0.181609 3.96444 -4.46057e-19)
(0.7187 -0.728903 0)
(-0.0942004 -0.154455 2.65965e-17)
(1.61018 0.759728 1.78275e-16)
(0.748344 0.453965 -3.1275e-16)
(0.642311 6.6947 0)
(-0.000965368 -0.523043 0)
(-0.910267 3.08384 0)
(-4.63759 3.5814 2.32424e-16)
(-0.0789045 -0.134365 3.18563e-18)
(0.17649 4.49273 2.81602e-17)
(0.0736244 3.65339 5.30272e-17)
(0.972141 -0.317282 2.28432e-16)
(1.88264 4.95412 1.26662e-16)
(0.294679 6.01536 -1.79712e-16)
(-0.822892 1.2037 -8.42321e-17)
(1.7078 0.23135 4.57749e-16)
(-0.324728 0.232417 5.60376e-16)
(-0.207436 -0.243775 6.8645e-17)
(1.16403 1.84861 -8.57698e-18)
(0.715406 6.12888 -4.72787e-17)
(1.441 4.52895 0)
(-1.30628 2.58603 0)
(1.4951 2.73655 2.89775e-16)
(0.328564 6.09618 2.08512e-16)
(-0.896459 1.02633 0)
(1.84823 3.35366 -3.8354e-16)
(-0.343447 -0.609052 -3.87154e-16)
(-0.34584 0.0405467 -6.55358e-16)
(3.36443 -0.357695 1.34153e-17)
(-0.870234 5.612 -1.07148e-16)
(0.325166 5.3282 3.7731e-18)
(2.42188 6.99241 0)
(-1.53303 2.68637 4.50441e-17)
(9.85237 1.56158 -5.56095e-18)
(4.54113 3.22072 7.03913e-17)
(0.894715 4.2225 0)
(5.10144 7.73064 0)
(0.421826 3.2904 7.7598e-17)
(1.04745 1.16356 0)
(4.26327 -0.201082 -8.05829e-18)
(-1.04158 4.89154 -8.09476e-17)
(-1.00964 0.967439 2.73789e-16)
(2.08253 4.07817 -3.26975e-17)
(4.32323 5.82093 -3.67274e-17)
(-1.60431 3.88125 -6.40857e-17)
(2.84157 0.189149 -9.96078e-17)
(0.0166481 1.79857 8.50844e-17)
(1.14345 4.33361 4.91756e-17)
(3.8563 -0.208665 9.62499e-17)
(0.430851 0.583246 0)
(-1.73705 4.03525 1.23781e-17)
(-3.11061 4.35474 -2.72676e-19)
(2.26366 4.38682 0)
(2.26422 6.27516 2.48947e-18)
(1.72248 3.60734 1.70123e-16)
(1.78466 3.64289 -1.40128e-16)
(2.15809 3.64469 1.90509e-16)
(0.169911 5.19452 2.64237e-20)
(0.374105 5.40978 -1.30528e-16)
(1.97104 0.839041 -6.66962e-16)
(-0.031238 2.01506 0)
(0.310957 0.267321 1.37149e-16)
(-1.52329 4.38461 -2.74421e-17)
(-0.496161 0.93689 4.98261e-17)
(1.59928 1.36555 -9.19436e-19)
(1.85045 2.46691 -1.31964e-16)
(-0.856171 6.62709 -1.41007e-18)
(-0.0547721 3.91304 0)
(-0.311897 -0.661776 -1.93247e-16)
(1.394 2.65743 5.49731e-16)
(3.847 1.48315 0)
(9.93603 0.464137 2.20286e-18)
(1.03609 7.5799 3.02859e-17)
(0.679605 6.22623 5.52549e-18)
(2.36815 3.59011 4.53799e-17)
(-0.148722 0.178459 0)
(1.88915 5.01962 1.24029e-16)
(1.59563 3.71977 -2.57899e-16)
(2.48929 12.1312 4.59263e-18)
(2.68046 4.22133 6.77855e-17)
(0.742314 -0.14794 -5.08696e-17)
(0.0746314 -0.954882 -2.60368e-16)
(3.62884 -0.287927 5.13951e-17)
(0.441498 3.90857 -9.24748e-17)
(1.29637 2.5879 3.56659e-16)
(-1.47362 4.28818 -1.68331e-17)
(0.908829 1.15387 -8.87351e-17)
(-0.83088 0.365365 2.99765e-16)
(11.2153 0.111913 -9.75123e-18)
(3.69016 -0.183102 -3.25768e-17)
(-2.90258 4.21473 -9.11255e-17)
(1.52699 3.16323 -2.84972e-17)
(3.82863 0.792527 -1.38861e-17)
(1.44567 1.15405 -3.27331e-16)
(-0.0300094 1.73847 -8.69951e-17)
(1.57315 3.03593 1.92258e-16)
(0.925909 4.78914 9.23137e-17)
(0.969565 5.14749 -8.0929e-17)
(-0.389364 3.20414 -2.01089e-16)
(-0.0490788 0.266639 0)
(2.61104 5.16362 -6.5606e-17)
(-0.134865 -0.154753 0)
(1.42971 6.18873 9.25538e-17)
(0.281411 0.841849 0)
(-1.97711 0.00625352 3.83771e-16)
(-1.33542 4.12162 -2.01964e-16)
(1.88244 3.77011 4.58132e-17)
(1.65743 4.19159 1.03055e-16)
(5.63875 0.396719 -6.61832e-17)
(3.14212 0.106425 1.13915e-16)
(-0.459225 0.125351 -2.99234e-16)
(0.714529 0.341042 1.07551e-16)
(-0.719001 0.074797 -2.9136e-16)
(4.96758 2.77129 -2.30502e-16)
(2.89733 -0.14064 4.98257e-17)
(2.20124 3.55331 0)
(-0.114475 0.298374 -4.9243e-17)
(0.73351 4.94396 6.57357e-17)
(1.40125 4.72749 -2.4227e-17)
(1.36386 3.66724 1.50865e-16)
(1.17119 -0.000576214 1.67195e-16)
(2.05291 2.49115 2.22158e-17)
(-1.41965 4.55231 1.07795e-16)
(-1.63854 2.28774 -7.63907e-18)
(0.345763 1.31864 1.67728e-16)
(2.09403 4.29116 -1.2041e-16)
(-0.605665 -0.864658 6.20336e-17)
(1.37058 3.69527 -8.66598e-17)
(0.893114 0.508848 -2.90911e-16)
(1.43328 5.69013 -5.38702e-17)
(-4.61266 4.17375 0)
(8.91241 0.477196 -1.61148e-16)
(7.39141 1.63967 1.1713e-17)
(0.0900371 3.16503 1.40888e-16)
(0.494702 7.12944 3.06177e-16)
(1.36675 4.43703 3.12269e-17)
(-0.619326 5.95296 0)
(2.74115 0.339749 -1.48312e-16)
(-2.98381 2.33369 4.38716e-17)
(-4.40283 3.62529 -1.9313e-16)
(0.769764 1.22391 9.62778e-19)
(0.434365 -0.687232 -1.58885e-17)
(2.07331 3.64058 5.79647e-17)
(4.3322 0.625491 -7.85825e-18)
(9.28839 0.463145 0)
(-1.38215 3.4238 0)
(-2.01406 4.28287 -4.92671e-17)
(-0.0584854 -0.55718 2.36675e-16)
(9.90878 0.53509 0)
(0.402847 0.169283 -2.82546e-19)
(1.67357 3.87982 -3.25856e-16)
(1.926 0.144871 0)
(1.90015 0.322178 0)
(2.37659 1.38599 -1.29218e-16)
(1.98836 2.85746 2.42902e-17)
(8.68202 0.398261 0)
(0.227472 -0.565537 1.92376e-16)
(-8.5116 -0.0491188 -5.8494e-17)
(-1.29848 4.65461 0)
(0.132203 0.301669 0)
(-0.685833 -0.624529 1.76873e-16)
(3.35591 0.170934 -5.43688e-18)
(0.182631 0.780594 1.47556e-16)
(-1.06591 5.09751 -1.79462e-16)
(-0.471968 0.639052 8.68769e-17)
(3.10881 0.147098 0)
(2.71673 0.0791196 0)
(-2.03877 3.21166 -1.90653e-16)
(5.18896 0.261916 -2.1054e-18)
(1.82533 3.0264 -2.13105e-16)
(2.57414 0.0336197 1.35111e-17)
(4.25652 4.76586 -3.57487e-18)
(4.34007 0.229611 0)
(1.55361 3.54407 0)
(2.34059 4.67971 -6.15329e-18)
(2.89451 0.117662 0)
(-0.192134 0.0610425 0)
(10.7948 0.619165 -1.23418e-18)
(0.41832 2.02678 -3.0833e-16)
(4.7418 0.246119 0)
(1.28544 1.94478 -4.47441e-18)
(2.17635 2.75744 3.04374e-17)
(1.01246 0.807005 1.20478e-16)
(1.06064 1.03701 -2.15741e-16)
(0.652784 5.3124 -3.70716e-18)
(-0.90911 6.49455 2.7456e-17)
(-4.173 1.33213 3.14964e-18)
(-1.20061 0.977984 -5.08168e-16)
(-0.797871 5.16386 1.70082e-18)
(-0.871547 -0.025923 2.90487e-16)
(1.68155 -0.13015 -2.56175e-16)
(-0.595028 0.0538681 2.95856e-16)
(-1.34307 1.16902 0)
(0.197247 5.50388 1.97354e-18)
(9.76946 0.31338 -8.95737e-18)
(2.03728 5.10484 0)
(-1.55891 -0.108193 4.65451e-16)
(4.37367 0.420503 1.4731e-17)
(-0.0779809 1.86322 0)
(-0.136347 6.11913 2.4332e-16)
(2.18537 7.47489 0)
(1.67278 8.24594 2.52715e-17)
(0.00715573 -0.722624 0)
(5.11874 0.872667 1.86101e-17)
(-4.15257 4.626 -1.96715e-16)
(2.6231 -0.063177 -9.02972e-17)
(1.12096 0.444974 -2.12943e-17)
(-1.62552 4.51272 1.39153e-16)
(-0.383292 0.220316 -8.69717e-17)
(5.63253 0.281096 7.64076e-18)
(8.21994 0.331982 0)
(3.29182 -0.344464 -1.55955e-17)
(0.111723 3.63636 0)
(1.08377 0.723167 0)
(2.33719 0.0341378 -1.16514e-16)
(1.75247 3.72997 0)
(-2.31327 3.88297 0)
(0.840687 3.977 -3.71163e-17)
(1.88599 0.13644 0)
(-2.27212 -1.69203 1.40101e-16)
(0.895579 1.73091 7.38536e-17)
(-1.31812 0.544955 2.07416e-16)
(-0.296306 3.15532 1.2151e-16)
(0.250678 0.0684052 2.24262e-17)
(3.98051 0.327237 -5.06821e-17)
(-0.631807 0.320767 -3.95657e-16)
(13.1371 2.69026 0)
(0.971867 2.38991 0)
(-0.736433 0.477188 -2.83639e-16)
(-0.315184 -0.123518 5.57903e-19)
(1.49141 2.59419 1.4432e-17)
(0.742709 0.419174 2.21619e-17)
(10.2247 2.2559 3.31067e-18)
(2.56337 1.23179 4.66004e-17)
(-2.00115 4.16542 -5.45912e-17)
(-0.947269 0.847906 3.64247e-16)
(-1.01354 -0.140705 -2.98732e-16)
(0.109448 6.52119 0)
(1.61555 0.0155813 3.87269e-16)
(2.23611 0.30237 -1.95227e-16)
(2.4761 3.56599 -2.84488e-17)
(0.439327 -0.151387 -1.97475e-17)
(-0.298592 6.1354 -2.67122e-16)
(0.149953 4.72871 -6.03969e-18)
(1.11195 3.0229 1.92125e-16)
(-0.540871 -0.105208 1.37166e-16)
(-0.858983 -0.0366542 0)
(1.91545 2.29164 8.83739e-17)
(2.54507 -0.047033 5.1088e-17)
(0.228476 2.57735 0)
(0.698787 2.18164 -1.90227e-16)
(-1.15088 0.273793 -6.56679e-16)
(1.63808 3.18354 0)
(-0.731421 -0.424616 -1.58098e-16)
(1.91267 4.61604 0)
(-0.619761 -0.927035 -5.55574e-19)
(3.64569 0.194457 -2.54194e-18)
(9.32527 2.07334 1.95542e-18)
(1.68173 3.74572 0)
(1.55008 2.24784 1.97313e-16)
(0.2541 4.46573 -1.15148e-16)
(1.70544 2.61563 0)
(1.15466 -0.246389 -1.15258e-16)
(-1.63139 2.50275 -9.65666e-17)
(0.209136 6.26063 -9.19288e-17)
(0.368722 2.72639 1.373e-16)
(0.058914 5.54129 2.23238e-16)
(2.49924 -0.0117495 -2.82027e-17)
(2.19164 -0.402299 0)
(0.102753 4.64652 0)
(2.20867 -0.378976 2.74219e-17)
(1.46242 6.35827 1.14889e-16)
(0.169207 4.07644 -4.08522e-17)
(0.819781 0.184992 1.30581e-16)
(-1.12994 -0.0501489 -2.42663e-16)
(-2.62158 3.95001 0)
(-2.01844 3.84253 8.92257e-17)
(9.70278 7.61173 -1.31935e-18)
(0.133907 5.06047 3.12073e-17)
(1.85484 2.38469 -1.60266e-17)
(0.365444 2.88526 -8.48293e-17)
(1.66094 3.77863 2.09812e-16)
(4.4586 1.69914 2.63846e-18)
(3.73724 0.00686973 -1.12176e-16)
(0.495534 0.637817 0)
(10.8296 0.83761 2.373e-18)
(-1.3163 1.66668 8.27491e-17)
(8.02229 0.526605 1.18997e-18)
(-1.82202 4.12998 -1.02557e-16)
(-0.56335 -0.451387 -1.6788e-16)
(-2.053 3.11606 -3.28235e-16)
(-0.0630082 0.202602 -2.03683e-18)
(0.0742259 -0.284735 4.81152e-16)
(1.18444 4.00047 -1.26207e-16)
(1.10965 3.12947 -4.00632e-16)
(-0.571204 3.99054 -1.43738e-18)
(3.98492 0.213389 1.02672e-17)
(0.109527 3.43344 -6.10195e-17)
(-1.07872 1.18498 4.48574e-17)
(0.206625 5.85957 -2.28802e-18)
(-1.39759 -0.164456 0)
(0.00170994 -0.647024 0)
(-1.90034 3.18009 -1.00135e-16)
(6.13126 0.298049 1.73637e-18)
(7.8115 0.216348 -1.38405e-17)
(0.207956 4.26412 1.69847e-16)
(1.70697 2.47949 -3.25291e-17)
(2.30538 -0.0257118 7.13983e-17)
(3.43097 0.480099 9.71475e-18)
(-2.07561 3.3621 6.28519e-17)
(2.2322 4.91237 -9.41968e-17)
(2.64287 0.915198 4.25079e-16)
(1.99958 5.55363 -8.61997e-17)
(0.0564332 -0.648873 0)
(-0.183475 -0.897072 -1.14961e-16)
(-0.147351 4.03149 -1.04336e-16)
(1.48795 2.99925 0)
(7.7537 0.976775 -1.01145e-17)
(-0.9795 -0.713498 8.81934e-17)
(5.26228 0.232913 0)
(0.0653905 2.26248 0)
(6.09887 2.61466 -2.90065e-17)
(-0.579676 5.43081 1.55194e-17)
(0.300757 5.91485 -6.36036e-18)
(0.735454 5.8447 0)
(-0.0467969 0.118761 9.61061e-17)
(-7.60498 -0.416311 3.39607e-16)
(0.497832 -0.394165 -6.2096e-16)
(3.93227 0.142228 -3.63201e-17)
(1.77713 2.0023 7.79417e-17)
(-7.03189 1.10707 1.27874e-16)
(-0.349809 -0.422921 0)
(0.429602 0.615235 -8.65278e-17)
(1.82507 2.97577 -2.01942e-18)
(1.39905 3.2877 8.33797e-17)
(1.56518 2.30177 -2.93576e-17)
(-0.675801 5.15597 0)
(2.1592 2.68138 9.65295e-17)
(-1.00938 4.86257 7.73723e-17)
(3.94785 -0.646914 0)
(9.40411 0.487699 1.41716e-16)
(2.39969 3.16359 0)
(-1.05602 3.91691 0)
(3.37445 4.92165 -2.66253e-18)
(0.125729 1.84313 2.57247e-16)
(0.537917 2.99488 1.60982e-16)
(2.94025 0.195811 -2.22565e-16)
(-1.73852 -0.870523 2.01973e-16)
(2.73426 0.356902 1.93331e-16)
(-0.647437 -0.368052 0)
(2.07935 2.38095 -2.73206e-19)
(-0.944156 -0.124993 -2.88584e-16)
(7.80279 -0.179675 -6.75831e-17)
(0.846299 -0.363643 5.52102e-17)
(-0.980267 -0.230013 4.65406e-16)
(0.30186 0.527182 -1.36998e-16)
(2.12201 2.16406 1.42141e-17)
(6.36409 -0.248984 4.22173e-17)
(3.55766 -0.0715794 -6.9163e-17)
(0.127311 8.67287 8.28738e-17)
(0.146346 1.89856 2.77758e-19)
(0.117703 1.78894 1.29921e-16)
(0.0750092 1.59279 1.20546e-18)
(0.0705819 1.63973 0)
(0.0972254 9.45253 -7.31112e-17)
(0.162708 2.00656 -2.39114e-16)
(0.0557138 4.00837 -9.01311e-19)
(0.0935825 3.77446 -2.54302e-17)
(0.067259 3.86266 0)
(0.0766311 4.21781 5.07549e-17)
(0.150494 8.07438 0)
(0.188451 10.2176 0)
(0.0815063 4.48716 -6.63657e-17)
(0.286125 6.8789 -4.30339e-18)
(0.223435 7.49997 -3.9929e-18)
(0.0731458 4.67922 2.09191e-17)
(0.154145 2.11395 1.23795e-16)
(0.131282 2.25238 0)
(0.0437679 4.77652 -2.87862e-17)
(0.100855 2.38766 0)
(0.0884974 2.53812 0)
(-0.000477042 4.80523 2.13706e-17)
(0.0843697 2.70221 0)
(-1.08056 4.88192 8.82758e-17)
(5.37923 4.10503 -5.77478e-17)
(0.10052 -0.972337 2.45801e-16)
(-3.41659 3.74853 0)
(1.34559 3.68731 -1.26648e-16)
(-0.791729 0.0580559 1.10288e-16)
(0.229229 0.271241 5.9861e-16)
(8.05998 1.76151 -1.74601e-17)
(-0.256958 4.0515 -2.25873e-17)
(0.669243 6.37142 0)
(-0.38581 0.323462 5.96943e-16)
(-1.22281 0.0852553 3.06192e-16)
(3.18027 0.172853 0)
(5.30102 -0.125631 3.33258e-17)
(0.738677 -0.265367 -2.5364e-16)
(-0.125906 0.510835 -1.58985e-16)
(6.03527 3.3053 1.01077e-16)
(1.83081 3.2661 -5.69585e-17)
(-1.24595 4.48303 9.47535e-17)
(1.54145 0.96185 -5.27658e-17)
(3.72478 -0.0425623 -7.32003e-17)
(7.78651 0.822659 -3.0167e-19)
(-1.6212 0.275318 -2.76064e-16)
(0.0870139 2.86209 0)
(1.69263 3.51248 4.01517e-16)
(1.69687 2.81109 -1.50857e-19)
(0.0793624 -0.0400975 7.3847e-17)
(-0.958224 -0.322503 0)
(10.3656 0.0883333 2.94373e-17)
(-0.449362 2.39781 -1.38177e-16)
(1.94253 0.17706 4.10696e-18)
(-0.629565 5.35593 1.03414e-16)
(-0.745306 0.659508 0)
(0.771281 3.64862 8.68002e-18)
(1.55484 5.70048 -5.93169e-17)
(8.68693 2.78568 2.41745e-17)
(0.225046 -0.954798 2.73902e-16)
(-1.63259 -0.234522 -2.35825e-16)
(-1.42346 -0.329515 1.84516e-16)
(0.772326 -0.283489 -6.38397e-17)
(1.71665 4.14973 3.48597e-17)
(-0.150742 2.468 -7.59975e-20)
(0.132483 5.22087 -1.94897e-17)
(-2.31824 4.03417 0)
(1.40383 1.90553 6.27066e-19)
(-0.640964 1.1757 5.68035e-17)
(1.97367 0.317862 1.23362e-16)
(-1.47974 -0.353077 0)
(-0.744164 1.1155 -3.45815e-16)
(-0.133632 1.71033 0)
(10.7047 0.645683 2.14256e-18)
(0.835833 5.12815 0)
(1.24566 2.06995 -8.09202e-17)
(-1.28234 -0.204817 1.78367e-16)
(-2.39705 -2.00226 2.00973e-16)
(1.95082 0.0344373 0)
(3.10294 -0.189738 -2.66443e-17)
(0.0722192 3.05472 4.56733e-19)
(0.078628 -0.0588282 0)
(2.7546 -0.0630384 0)
(1.05441 2.09562 -2.84656e-16)
(-0.0843442 4.40037 -1.1514e-17)
(7.29798 0.0268102 0)
(0.217639 -0.175061 -1.3285e-16)
(3.03097 -0.0536338 -1.98023e-16)
(-3.55394 -1.29958 0)
(-2.30302 4.05716 2.60376e-16)
(-0.686269 0.804248 -1.45064e-16)
(7.71257 5.29038 1.83335e-17)
(2.4456 3.48133 2.70154e-17)
(0.237379 4.63593 2.02651e-16)