/*--------------------------------*- C++ -*----------------------------------*\
| =========                 |                                                 |
| \\      /  F ield         | OpenFOAM: The Open Source CFD Toolbox           |
|  \\    /   O peration     | Version:  v1912                                 |
|   \\  /    A nd           | Website:  www.openfoam.com                      |
|    \\/     M anipulation  |                                                 |
\*---------------------------------------------------------------------------*/
FoamFile
{
    version     2.0;
    format      ascii;
    class       volScalarField;
    location    "0.02";
    object      k;
}
// * * * * * * * * * * * * * * * * * * * * * * * * * * * * * * * * * * * * * //

dimensions      [0 2 -2 0 0 0 0];


internalField   nonuniform List<scalar> 
1466
(
0.212717
0.221138
0.216067
0.213798
0.219846
0.22062
0.262165
0.21997
0.223531
0.230623
0.213855
0.253777
0.160565
0.225485
0.215073
0.208349
0.161888
0.227985
0.247555
0.211059
0.215074
0.224004
0.215208
0.216994
0.221825
0.221732
0.233655
0.219294
0.232983
0.223452
0.219948
0.221572
0.218495
0.253172
0.250896
0.215225
0.213333
0.213485
0.255333
0.217572
0.246751
0.219152
0.231721
0.234179
0.219639
0.250956
0.215138
0.214798
0.219075
0.215107
0.215376
0.233816
0.21899
0.213326
0.22461
0.220329
0.207274
0.226411
0.214523
0.218752
0.208915
0.228731
0.217602
0.217836
0.230486
0.215333
0.22347
0.21506
0.215838
0.22749
0.215938
0.214269
0.208749
0.229806
0.172698
0.220726
0.228627
0.21796
0.238674
0.217547
0.215047
0.232613
0.215107
0.218981
0.213327
0.215301
0.21418
0.25269
0.22009
0.237681
0.217008
0.20177
0.215752
0.211834
0.215504
0.213907
0.239504
0.215941
0.237935
0.215047
0.246127
0.22172
0.217821
0.253106
0.215065
0.237295
0.215047
0.215102
0.226794
0.216518
0.213842
0.216288
0.219115
0.214556
0.170775
0.218196
0.198336
0.217723
0.242036
0.220333
0.213588
0.224202
0.208306
0.280464
0.222887
0.218521
0.214875
0.238302
0.216062
0.215835
0.219075
0.221715
0.247496
0.230882
0.215124
0.216306
0.219278
0.215372
0.216596
0.216246
0.236688
0.199964
0.216113
0.216338
0.217703
0.199612
0.243028
0.25678
0.232596
0.210952
0.216689
0.215911
0.23337
0.242706
0.222587
0.239336
0.214719
0.250784
0.227361
0.260387
0.221168
0.214818
0.227866
0.213718
0.22137
0.215575
0.217277
0.215985
0.214907
0.236922
0.215321
0.215466
0.215582
0.227531
0.229509
0.253089
0.220786
0.217094
0.21523
0.21628
0.223545
0.215133
0.219082
0.21853
0.261423
0.225313
0.215141
0.227758
0.215176
0.247763
0.269962
0.199987
0.215883
0.23087
0.215139
0.214902
0.215951
0.215765
0.215944
0.217556
0.23915
0.221601
0.215087
0.215395
0.216699
0.219472
0.215135
0.254695
0.21534
0.201965
0.214749
0.247637
0.222908
0.215551
0.242334
0.215153
0.243545
0.197843
0.213549
0.221217
0.238564
0.222605
0.213748
0.215397
0.221076
0.215538
0.220282
0.218123
0.21323
0.220392
0.215921
0.267637
0.225439
0.217526
0.215094
0.216538
0.217874
0.227017
0.218474
0.21868
0.222511
0.218955
0.205371
0.220114
0.220493
0.196802
0.218371
0.198574
0.197029
0.196948
0.227084
0.218346
0.219039
0.272786
0.225045
0.220699
0.216405
0.217001
0.221576
0.222809
0.215921
0.215387
0.226047
0.254837
0.22256
0.2123
0.22354
0.226037
0.218665
0.218416
0.233753
0.227309
0.216007
0.217558
0.215132
0.218509
0.293202
0.22638
0.243591
0.220125
0.216182
0.196902
0.197722
0.209551
0.215749
0.215955
0.229714
0.213637
0.232583
0.231318
0.215583
0.222891
0.222881
0.227315
0.218753
0.226971
0.249232
0.216244
0.225872
0.218699
0.220768
0.253391
0.207681
0.222837
0.214099
0.217261
0.226938
0.218642
0.165322
0.219129
0.21864
0.214118
0.221954
0.262634
0.2189
0.218523
0.226425
0.221745
0.216954
0.210219
0.21527
0.216945
0.218845
0.188229
0.18839
0.200985
0.199847
0.208357
0.202844
0.211225
0.19054
0.190346
0.203418
0.209561
0.186688
0.187042
0.191722
0.226057
0.199127
0.210279
0.209573
0.209171
0.19908
0.198295
0.214625
0.215077
0.208534
0.206931
0.227302
0.22678
0.218965
0.216259
0.219672
0.218178
0.218212
0.221106
0.237454
0.259184
0.224174
0.233788
0.237702
0.218837
0.215763
0.210792
0.219456
0.22007
0.198013
0.204956
0.216892
0.217647
0.211812
0.204398
0.206914
0.186813
0.190007
0.186653
0.19858
0.222721
0.215313
0.203338
0.215692
0.25045
0.218388
0.213627
0.231416
0.230869
0.214641
0.21833
0.217741
0.227052
0.223484
0.217313
0.219056
0.216337
0.165207
0.21554
0.21634
0.217304
0.215034
0.197654
0.209507
0.215545
0.218223
0.21628
0.229738
0.215481
0.216172
0.226354
0.21525
0.215352
0.216428
0.22474
0.193595
0.229425
0.216596
0.216495
0.216955
0.21709
0.225487
0.219045
0.217283
0.223726
0.225939
0.233173
0.234401
0.251159
0.220266
0.223887
0.249577
0.262423
0.219146
0.216428
0.216889
0.255609
0.255939
0.227607
0.218915
0.223459
0.244564
0.22028
0.25521
0.2306
0.287667
0.235874
0.223694
0.219305
0.217251
0.216385
0.217154
0.217062
0.216695
0.217932
0.241476
0.217495
0.221834
0.263932
0.21687
0.218356
0.234014
0.219092
0.221519
0.217564
0.217784
0.217528
0.273176
0.22885
0.226554
0.215727
0.216926
0.210396
0.256947
0.241635
0.219045
0.249819
0.230706
0.224279
0.219114
0.213005
0.236744
0.249376
0.216125
0.215559
0.244502
0.215352
0.239527
0.215377
0.215286
0.21521
0.269839
0.216486
0.255495
0.215269
0.215179
0.2152
0.220826
0.251982
0.263594
0.227431
0.228881
0.238364
0.215419
0.215218
0.217024
0.226023
0.215369
0.217772
0.218362
0.225404
0.215934
0.225546
0.21639
0.263899
0.217389
0.224209
0.241873
0.218479
0.215459
0.215198
0.217604
0.218421
0.218434
0.216282
0.25462
0.25332
0.247369
0.230073
0.257973
0.248648
0.218958
0.215321
0.215489
0.215522
0.219134
0.216706
0.233278
0.23868
0.225127
0.248398
0.215167
0.228619
0.242254
0.222367
0.218013
0.229574
0.219065
0.234744
0.200019
0.215826
0.218582
0.215959
0.215337
0.21432
0.230041
0.215702
0.215437
0.217831
0.22013
0.216865
0.217626
0.219828
0.21385
0.224097
0.215559
0.215866
0.222052
0.218085
0.215205
0.217331
0.216629
0.215933
0.206049
0.237326
0.215774
0.221907
0.26301
0.215447
0.244128
0.215797
0.216748
0.215509
0.220581
0.205759
0.217971
0.216179
0.214993
0.217076
0.255932
0.215428
0.216288
0.220553
0.217704
0.194816
0.218261
0.217164
0.216236
0.21536
0.222085
0.217253
0.216119
0.215835
0.216438
0.217442
0.21565
0.229437
0.218424
0.245384
0.218624
0.217158
0.216712
0.216367
0.216509
0.227681
0.221486
0.233359
0.207749
0.216658
0.216158
0.218217
0.238699
0.235437
0.218098
0.215142
0.238975
0.218519
0.216036
0.216161
0.217326
0.215202
0.215135
0.220088
0.221659
0.216044
0.217142
0.199547
0.219434
0.217099
0.217146
0.222596
0.218733
0.215777
0.215135
0.235761
0.207415
0.226181
0.218495
0.224588
0.221081
0.226043
0.218911
0.215138
0.207682
0.217062
0.217986
0.219912
0.225335
0.226098
0.226651
0.220964
0.215148
0.21748
0.207352
0.218772
0.224113
0.236998
0.223926
0.223058
0.21684
0.218371
0.217569
0.218719
0.215174
0.239022
0.213989
0.231007
0.195954
0.190529
0.228705
0.219381
0.218019
0.230708
0.250847
0.220027
0.183104
0.221813
0.218548
0.214799
0.268586
0.221158
0.205052
0.244714
0.221989
0.215234
0.238593
0.22553
0.245469
0.21572
0.220646
0.217196
0.219318
0.215784
0.216419
0.225568
0.218715
0.22563
0.216961
0.224262
0.216137
0.219785
0.216011
0.22735
0.216937
0.200427
0.215222
0.221945
0.216385
0.215527
0.219419
0.21621
0.215385
0.236615
0.217603
0.21787
0.215253
0.21573
0.216467
0.215874
0.21748
0.217197
0.233982
0.216837
0.216861
0.234777
0.223363
0.188137
0.189712
0.217913
0.187397
0.189713
0.229894
0.217301
0.195526
0.187977
0.179759
0.187765
0.223354
0.232142
0.155835
0.229059
0.236381
0.22323
0.252159
0.200861
0.214184
0.219485
0.215702
0.232688
0.220628
0.218225
0.265492
0.219425
0.196212
0.236512
0.219397
0.267636
0.222211
0.222431
0.261059
0.198732
0.251887
0.219716
0.227232
0.272897
0.204391
0.197406
0.218473
0.21971
0.215977
0.221695
0.209557
0.252336
0.247331
0.228586
0.164202
0.162779
0.21777
0.218833
0.215449
0.214279
0.233296
0.195231
0.241753
0.219709
0.2473
0.213217
0.285354
0.233052
0.263225
0.215126
0.227111
0.198879
0.230965
0.216396
0.215233
0.215591
0.257823
0.206679
0.220172
0.214064
0.216401
0.234197
0.232592
0.204299
0.213451
0.223609
0.214072
0.252723
0.216175
0.203606
0.263157
0.231235
0.241972
0.223965
0.219109
0.216039
0.162346
0.160441
0.216472
0.216338
0.217297
0.215226
0.21605
0.219111
0.227741
0.214576
0.215284
0.237947
0.273132
0.219501
0.223821
0.235611
0.213162
0.219807
0.221221
0.215933
0.213512
0.21777
0.220767
0.222957
0.216179
0.216806
0.222777
0.221937
0.215745
0.22206
0.169328
0.215202
0.221248
0.199047
0.246955
0.194032
0.232447
0.211601
0.234053
0.248358
0.215961
0.219413
0.214888
0.213338
0.218875
0.228186
0.21537
0.190697
0.229399
0.25023
0.229311
0.215586
0.227771
0.267474
0.245568
0.217324
0.234105
0.216583
0.247819
0.215454
0.212213
0.241362
0.247103
0.241294
0.216904
0.225678
0.219958
0.215269
0.215907
0.18558
0.215227
0.237704
0.21884
0.222863
0.235551
0.216945
0.226577
0.215232
0.229012
0.228861
0.22112
0.177611
0.215186
0.214086
0.226803
0.222389
0.218449
0.215986
0.220109
0.163987
0.22387
0.168416
0.254237
0.220791
0.247943
0.215758
0.279725
0.225551
0.215901
0.247924
0.219351
0.214001
0.215136
0.225976
0.224573
0.23833
0.226797
0.276209
0.218702
0.215587
0.201618
0.217962
0.215173
0.219003
0.215054
0.175739
0.172281
0.164938
0.168216
0.206678
0.204841
0.209345
0.210904
0.178093
0.211522
0.212423
0.17949
0.179407
0.177684
0.228101
0.174373
0.170876
0.237596
0.217486
0.252874
0.1662
0.213566
0.223303
0.219514
0.217624
0.212758
0.226174
0.219195
0.214007
0.215393
0.215177
0.206045
0.217255
0.199202
0.215308
0.219744
0.202729
0.215358
0.216709
0.214882
0.21558
0.221575
0.232968
0.238428
0.217762
0.215133
0.215891
0.240291
0.216144
0.215811
0.221488
0.225778
0.237562
0.210105
0.215725
0.224417
0.215427
0.194413
0.21624
0.216042
0.22437
0.21345
0.21542
0.23083
0.215148
0.231709
0.222524
0.215016
0.23066
0.220187
0.218063
0.215045
0.199322
0.202952
0.218797
0.216832
0.215585
0.215139
0.215684
0.217143
0.224579
0.214246
0.210634
0.247265
0.248444
0.263603
0.219624
0.240978
0.219212
0.222136
0.239187
0.21514
0.234872
0.217485
0.212115
0.188003
0.222089
0.234071
0.182147
0.21817
0.259714
0.280942
0.176176
0.215735
0.216987
0.219216
0.219374
0.232372
0.170954
0.224135
0.215149
0.215418
0.21492
0.216305
0.217045
0.191931
0.21845
0.225645
0.215303
0.217728
0.259105
0.228686
0.216729
0.221051
0.167556
0.215365
0.215568
0.207262
0.216706
0.217036
0.231357
0.216768
0.217991
0.215084
0.215263
0.220387
0.219319
0.218053
0.239032
0.219425
0.230669
0.221443
0.175054
0.207761
0.230707
0.241102
0.227921
0.223705
0.226321
0.232741
0.21546
0.245635
0.227253
0.214914
0.216518
0.21727
0.203688
0.238369
0.237494
0.271813
0.213898
0.207246
0.213598
0.215844
0.215683
0.228163
0.209697
0.167486
0.203328
0.21636
0.201034
0.232292
0.219485
0.21761
0.221472
0.232587
0.203368
0.196243
0.226474
0.213182
0.215972
0.168867
0.202144
0.218098
0.219677
0.163257
0.207887
0.212055
0.213874
0.22107
0.241356
0.218034
0.233686
0.216388
0.21713
0.212958
0.219908
0.217345
0.20478
0.218774
0.216982
0.199989
0.215489
0.221266
0.217982
0.215253
0.235253
0.168141
0.21665
0.220689
0.186239
0.213772
0.189449
0.207673
0.207034
0.15969
0.219608
0.161357
0.228315
0.263827
0.214167
0.220564
0.215524
0.218388
0.220293
0.218588
0.248566
0.216395
0.208939
0.215767
0.215325
0.197033
0.216354
0.217342
0.214081
0.199442
0.227216
0.229851
0.225078
0.207873
0.222667
0.193151
0.219932
0.227865
0.205675
0.153083
0.208053
0.223656
0.217912
0.215795
0.227688
0.215247
0.216996
0.22207
0.205186
0.216493
0.218153
0.216531
0.215494
0.207822
0.27814
0.216954
0.224179
0.242398
0.217219
0.22972
0.292696
0.208679
0.216408
0.21857
0.220678
0.21804
0.215831
0.21566
0.216263
0.217102
0.214297
0.222463
0.217768
0.225064
0.231024
0.229381
0.27456
0.227528
0.217532
0.217607
0.211746
0.201737
0.216347
0.216428
0.215266
0.215918
0.217307
0.203741
0.25971
0.205484
0.217967
0.215243
0.259678
0.237007
0.205863
0.226709
0.225601
0.216125
0.216197
0.215813
0.216841
0.22621
0.287745
0.215829
0.219048
0.246153
0.273198
0.222178
0.235063
0.217471
0.217145
0.225284
0.253648
0.217836
0.233641
0.218726
0.214142
0.214806
0.219982
0.234802
0.216544
0.215129
0.220632
0.207571
0.166286
0.206319
0.215653
0.236041
0.204156
0.216766
0.217063
0.219479
0.214215
0.214458
0.2146
0.215212
0.255857
0.249697
0.265165
0.214795
0.220895
0.228569
0.223448
0.215119
0.235022
0.216048
0.217604
0.217397
0.214345
0.217077
0.217474
0.226151
0.170176
0.22312
0.238451
0.215711
0.234995
0.185915
0.234321
0.224496
0.240623
0.231456
0.243251
0.160475
0.222708
0.232654
0.219317
0.2395
0.200884
0.216468
0.220301
0.219419
0.24264
0.223041
0.217058
0.21946
0.229391
0.248042
0.213482
0.267091
0.21882
0.247676
0.263218
0.236279
0.290235
0.236676
0.216488
0.215253
0.21718
0.267645
0.189685
0.219434
0.212886
0.21403
0.220103
0.224566
0.241826
0.193524
0.214081
0.214495
0.163418
0.217096
0.21352
0.213535
0.215912
0.217808
0.202045
0.218977
0.21222
0.212872
0.276678
0.219568
0.218097
0.215648
0.218939
0.215253
0.21626
0.207237
0.216287
0.21196
0.216564
0.215181
0.216592
0.219546
0.169473
0.217172
0.221933
0.215533
0.21619
0.163914
0.219698
0.163719
0.216482
0.2175
0.236491
0.209589
0.215481
0.216975
0.216349
0.251764
0.206506
0.215271
0.218677
0.217722
0.217342
0.202118
0.239693
0.224048
0.263752
0.216126
0.202447
0.223281
0.276593
0.229142
0.212375
0.241749
0.215572
0.216421
0.215465
0.215994
0.229052
0.20173
0.224085
0.214573
0.216036
0.206745
0.212228
0.228221
0.215784
0.219148
0.217048
0.219498
0.23108
0.216683
0.216352
0.21757
0.225274
0.288857
0.21669
0.192756
0.251809
0.282217
0.206794
0.221336
0.264338
0.219041
0.214658
0.215411
0.198074
0.220663
0.215698
0.280838
0.199105
0.228682
0.281736
0.2288
0.214824
0.207015
0.231008
0.23343
0.215448
0.205974
0.216376
0.210213
0.228933
0.265092
0.193674
0.218414
0.217853
0.217678
0.211104
0.219252
0.219288
0.214117
0.227888
0.245934
0.238551
0.200246
0.241797
0.229656
0.243037
)
;

boundaryField
{
    frontAndBack
    {
        type            empty;
    }
    wallOuter
    {
        type            kqRWallFunction;
        value           nonuniform List<scalar> 
102
(
0.160565
0.160565
0.215208
0.172698
0.170775
0.165322
0.165207
0.183104
0.188137
0.189712
0.187397
0.189713
0.187977
0.179759
0.187765
0.223354
0.155835
0.200861
0.196212
0.198732
0.197406
0.164202
0.162779
0.198879
0.230965
0.162346
0.160441
0.169328
0.194032
0.163987
0.168416
0.175739
0.172281
0.164938
0.168216
0.206678
0.204841
0.209345
0.210904
0.178093
0.211522
0.212423
0.17949
0.179407
0.177684
0.174373
0.170876
0.1662
0.213566
0.206045
0.199202
0.202729
0.214882
0.210105
0.215725
0.194413
0.21345
0.21542
0.199322
0.202952
0.212115
0.182147
0.176176
0.170954
0.191931
0.167556
0.217991
0.175054
0.207761
0.203688
0.207246
0.213598
0.167486
0.203328
0.201034
0.203368
0.168867
0.163257
0.22107
0.20478
0.199989
0.168141
0.15969
0.161357
0.220293
0.197033
0.199442
0.153083
0.205186
0.201737
0.207571
0.166286
0.170176
0.185915
0.160475
0.200884
0.189685
0.193524
0.163418
0.169473
0.163914
0.163719
)
;
    }
    inlet
    {
        type            fixedValue;
        value           nonuniform 0();
    }
    outlet
    {
        type            zeroGradient;
    }
    wallInner
    {
        type            kqRWallFunction;
        value           nonuniform List<scalar> 
138
(
0.213855
0.161888
0.232983
0.223452
0.233816
0.21899
0.213326
0.22461
0.228731
0.20177
0.246127
0.253106
0.208306
0.236688
0.199964
0.199612
0.243028
0.215985
0.247763
0.269962
0.199987
0.197843
0.205371
0.196802
0.218371
0.198574
0.197029
0.196948
0.22256
0.196902
0.197722
0.213637
0.188229
0.18839
0.200985
0.199847
0.208357
0.202844
0.211225
0.19054
0.190346
0.203418
0.209561
0.186688
0.187042
0.191722
0.226057
0.199127
0.210279
0.209573
0.209171
0.19908
0.198295
0.214625
0.215077
0.208534
0.206931
0.259184
0.210792
0.219456
0.22007
0.198013
0.204956
0.216892
0.217647
0.211812
0.204398
0.206914
0.186813
0.190007
0.186653
0.19858
0.203338
0.197654
0.209507
0.193595
0.229425
0.223726
0.255939
0.25521
0.234014
0.22885
0.210396
0.219114
0.213005
0.220826
0.228881
0.238364
0.217024
0.25332
0.247369
0.218958
0.200019
0.244128
0.217704
0.194816
0.238975
0.199547
0.236998
0.195954
0.190529
0.205052
0.200427
0.229894
0.195526
0.204391
0.195231
0.206679
0.204299
0.203606
0.214576
0.235611
0.213162
0.199047
0.190697
0.177611
0.201618
0.217486
0.226174
0.218063
0.247265
0.248444
0.188003
0.230669
0.21727
0.202144
0.186239
0.189449
0.216395
0.193151
0.231024
0.224085
0.227888
0.245934
0.200246
0.241797
0.229656
0.243037
)
;
    }
    procBoundary2to0
    {
        type            processor;
        value           nonuniform List<scalar> 
42
(
0.217469
0.217469
0.242247
0.230341
0.242144
0.220622
0.255787
0.255787
0.225878
0.216785
0.248883
0.248883
0.255121
0.237527
0.226345
0.226967
0.218712
0.215927
0.218904
0.225625
0.251878
0.215532
0.215532
0.286434
0.251878
0.215409
0.273427
0.215684
0.273427
0.2174
0.217971
0.216783
0.221163
0.236717
0.271411
0.230341
0.218712
0.232777
0.236895
0.280114
0.280114
0.303995
)
;
    }
    procBoundary2to1
    {
        type            processor;
        value           uniform 0.219424;
    }
    procBoundary2to3
    {
        type            processor;
        value           nonuniform List<scalar> 
29
(
0.219918
0.218858
0.23641
0.224581
0.224932
0.228731
0.242035
0.217409
0.217417
0.217264
0.216853
0.21662
0.227912
0.217644
0.215409
0.220287
0.218095
0.218095
0.218858
0.217644
0.215936
0.218245
0.220404
0.216872
0.21425
0.223586
0.217417
0.216106
0.21662
)
;
    }
}


// ************************************************************************* //
