/*--------------------------------*- C++ -*----------------------------------*\
| =========                 |                                                 |
| \\      /  F ield         | OpenFOAM: The Open Source CFD Toolbox           |
|  \\    /   O peration     | Version:  v1912                                 |
|   \\  /    A nd           | Website:  www.openfoam.com                      |
|    \\/     M anipulation  |                                                 |
\*---------------------------------------------------------------------------*/
FoamFile
{
    version     2.0;
    format      ascii;
    class       volScalarField;
    location    "0.4";
    object      epsilon;
}
// * * * * * * * * * * * * * * * * * * * * * * * * * * * * * * * * * * * * * //

dimensions      [0 2 -3 0 0 0 0];


internalField   nonuniform List<scalar> 
5794
(
1.9466
1.51319
3.4545
152.184
49.4695
1.54808
22.3964
12.0153
101.933
11.4296
35.2734
2.15256
11.4383
42.0451
2.17334
0.759823
75.6132
56.4241
2.82223
1.84644
79.9302
1.4117
44.1289
13.4825
4.67295
77.5921
54.4397
28.5385
94.0784
0.860089
6.22392
3.37944
22.3535
17.6211
13.2937
27.4537
4.40487
3.6956
56.6231
31.6123
15.0753
3.24012
9.1231
1.9097
3.75677
46.4763
3.48511
15.1646
7.78393
23.0153
0.201097
62.2177
6.11412
3.55915
0.279522
42.2889
3.32321
21.3285
5.60104
154.287
58.2981
0.899108
4.90293
3.52133
26.3508
0.781541
43.5578
24.2899
65.3662
1.71143
81.0727
59.2358
78.1875
3.6561
65.6721
23.1092
19.7737
49.5198
1.81162
1.04278
0.973176
2.67708
8.80264
33.8664
4.47368
79.1702
33.9872
105.739
5.93647
51.7211
114.421
26.6617
71.4802
116.567
42.2985
67.6061
85.6262
59.6014
23.6572
64.515
54.0659
1.75636
7.09387
30.2871
40.4871
66.5705
0.731567
10.7838
44.5918
1.79538
6.29814
7.57894
63.6345
1.03192
34.369
90.2731
2.10454
85.4052
52.7703
21.632
83.1638
6.42268
6.409
26.5327
4.06256
49.1825
38.6205
1.37171
71.8908
11.5139
4.3316
12.7225
7.65029
39.4216
85.6433
2.3521
119.766
0.900417
0.617331
16.1596
7.78362
28.2812
6.57063
29.8148
1.09223
82.5494
79.6034
46.1976
59.6176
38.8827
12.0085
3.24822
72.5143
1.85699
74.197
4.13623
43.5505
7.08622
80.3079
2.06307
4.81475
20.9051
19.675
23.158
62.2378
77.7043
22.3374
17.6524
8.67341
9.94609
2.35952
30.9411
18.7937
20.9006
18.8829
42.9616
2.85555
6.34583
18.2443
87.205
4.19086
6.47746
5.91655
49.2963
5.29369
49.3128
2.41261
17.0324
11.3727
1.36967
44.3876
4.38162
29.0662
6.61273
18.0992
3.73085
10.7603
26.489
6.15974
6.61984
33.2362
67.9506
10.8879
12.4277
4.11385
55.3017
8.20841
21.7829
69.7185
49.658
1.94339
10.0808
30.3849
15.0273
13.8913
6.19974
27.0517
6.52016
29.5544
78.7119
9.66536
43.9112
162.794
63.8014
140.542
41.5335
3.86674
10.0243
2.66873
2.65645
15.8294
16.5754
12.9416
34.3941
16.5605
44.603
59.8254
30.4418
13.1323
1.23741
1.77546
60.4293
41.5076
26.53
2.81744
4.45075
7.93024
54.6342
154.036
98.4122
37.2708
0.743825
80.1841
0.485173
4.86369
51.8179
6.65634
17.2075
18.2651
4.0347
73.5036
29.4351
14.2006
1.51116
11.3565
17.5287
39.7904
70.7419
5.28185
57.6896
3.36858
8.80262
5.48719
77.3591
16.1409
2.58818
4.25405
4.18819
1.82665
12.8057
24.809
84.3012
14.9197
3.21983
40.0044
99.1774
39.2986
56.3113
149.012
87.9206
18.3925
14.4313
12.246
3.75912
4.74189
81.502
20.335
5.30286
45.8205
0.886375
3.00034
55.9653
0.82025
51.8256
1.35075
74.0803
1.42896
56.1678
64.7713
3.46631
5.34676
44.2432
54.7968
1.05434
9.86538
35.0158
13.9712
31.0538
46.9313
126.397
11.9678
16.2702
94.8335
59.5601
0.388428
25.7104
5.42048
2.48266
13.8158
33.1297
78.2509
8.41562
4.21573
23.4049
3.43085
12.5577
16.9783
15.6901
10.1326
11.2349
14.4258
5.64939
85.535
58.8561
3.34715
5.32153
76.7011
8.7927
89.8715
8.52389
81.5001
87.5166
37.3818
5.48917
6.53352
30.997
21.519
81.2318
25.6257
12.3353
17.1636
4.57341
93.5747
20.6547
13.3719
12.2448
68.3747
54.982
4.24931
22.4603
2.93459
1.38431
20.3099
0.55193
23.0965
51.083
40.6731
4.90236
34.9494
0.43086
4.20972
3.04025
12.5621
23.6194
14.7582
20.4928
104.627
31.5023
14.1664
22.1861
14.8382
76.935
1.48749
15.9996
11.8593
19.9001
15.3274
2.51088
3.40885
34.3127
17.1285
5.96124
28.7298
4.37783
10.5605
40.2666
15.5528
1.68183
0.956907
83.6223
56.5413
21.2635
32.5436
28.9095
74.1278
5.0619
7.6205
68.3642
55.0412
84.5733
23.5643
58.6568
15.7318
2.62353
25.2815
23.183
22.2794
1.00028
1.77617
1.28367
62.7269
5.7903
35.6592
98.7688
10.0644
2.08901
5.12402
30.2449
21.4251
17.8708
18.5587
8.14492
6.96483
4.3918
4.89449
98.9897
37.2964
0.244174
6.18544
67.5799
20.0199
1.66928
124.17
1.35975
75.418
1.76576
78.0955
74.5697
47.4456
169.379
1.66396
1.30281
19.3356
8.32001
71.8052
11.3555
32.1028
27.2037
17.4205
1.58152
0.432836
65.4852
51.0253
7.05269
8.23509
95.8856
35.9748
29.9145
1.65428
1.43918
30.4054
1.51831
3.55048
3.7495
15.9831
32.7138
9.97186
5.99651
58.9149
1.02054
1.76733
126.293
108.255
59.8762
14.0976
11.4002
2.00267
3.07985
0.559821
35.3051
55.723
45.2932
8.6734
14.3593
34.2801
1.20261
1.15419
28.9066
39.4244
0.778625
65.19
1.12538
4.29558
1.43574
0.941818
28.9989
79.9415
1.17937
5.49951
29.6738
1.22749
0.751207
43.2714
85.1402
11.5753
1.81975
1.30402
45.7721
1.37839
1.83795
23.7591
1.02656
32.6802
2.94466
11.0069
5.49728
6.63789
152.498
10.5965
59.5894
1.25537
121.602
1.99217
43.4434
5.70385
0.325544
5.42944
28.2285
1.01845
1.33916
27.8778
1.25417
2.93571
1.21798
1.94416
7.65011
20.2969
1.87213
1.34426
32.0279
141.921
1.20898
55.0038
2.98372
39.6165
3.10841
0.846085
13.6083
0.965351
0.785928
80.7691
27.9875
130.054
114.053
104.344
8.77271
38.3274
49.0343
4.48108
19.9063
89.0822
27.6896
107.658
43.2599
88.7514
51.6448
0.939091
66.9393
21.5255
93.6362
0.771192
1.77207
0.944746
100.142
31.3604
38.2135
0.123905
9.35167
0.589611
8.21173
2.30513
92.2199
32.7493
109.841
1.44615
8.18368
102.34
15.2811
0.314561
5.32228
23.0157
37.6856
19.9395
15.438
3.78555
4.08489
31.6827
30.3699
7.24813
91.3803
0.879681
40.5343
60.4248
14.9771
0.824706
1.91024
0.388206
34.3426
79.5146
0.846529
1.48182
1.61291
0.507774
0.947022
0.693829
3.54675
48.7595
26.5604
2.92624
30.104
4.23972
8.23647
28.4742
23.3417
121.975
135.488
46.7287
47.7543
0.782899
0.73333
0.861181
1.2404
2.4749
3.59671
4.13335
75.3812
37.4075
53.2397
32.0722
1.9215
0.439043
3.71526
1.39411
49.2272
1.59231
52.4367
151.983
102.471
40.7393
49.328
32.2349
1.57676
37.2175
21.213
31.9001
36.5493
120.952
6.74325
17.6703
1.25814
0.863658
28.2971
2.63757
0.365121
30.1732
133.675
136.985
3.09606
2.21474
0.818491
12.2371
181.042
42.8996
47.4667
4.11636
42.0824
19.529
2.16768
0.643541
9.87109
8.33969
12.3128
1.02114
17.5302
33.6335
152.611
6.89395
3.63397
1.69157
118.785
19.5712
191.595
51.1584
88.8367
41.3385
16.2958
8.76608
56.2054
44.8945
35.4425
45.278
65.304
152.02
2.14126
55.6881
1.46578
13.9175
28.4334
97.8409
38.3275
48.7108
29.9763
135.612
25.8429
4.023
4.97931
43.6008
11.3008
25.3892
66.5149
100.181
1.13718
0.64871
9.48151
1.69483
91.8078
37.2106
132.576
12.141
9.02278
0.75282
1.1657
2.834
1.66328
31.2158
100.686
5.03432
121.762
43.709
8.23424
4.33663
50.9277
85.4327
47.8068
152.015
103.47
39.2482
55.7659
1.55829
62.1592
20.9742
89.5336
41.0381
1.70846
22.0683
1.23519
1.75036
1.31945
21.0865
1.23659
24.5058
44.7089
13.6662
1.87766
1.14448
90.3144
30.9405
23.5841
94.9942
29.4285
0.196489
83.223
58.3257
14.5491
6.11524
35.1808
1.67884
182.982
1.17898
52.0619
9.44376
14.9736
3.95812
0.319863
0.749519
3.10877
23.518
47.2169
79.3075
195.347
50.1042
5.39338
1.45007
32.367
149.15
9.51481
4.28275
14.4422
74.7741
1.12869
1.74111
17.6552
45.8386
31.8462
0.941339
17.5234
2.93792
5.86033
3.9157
22.2491
71.7277
86.2256
9.36996
3.03836
66.7391
5.50229
2.22678
75.2333
2.05787
3.85803
9.82529
0.827946
20.5865
1.48936
25.1654
0.97847
8.80745
5.92713
10.7598
42.1839
35.1664
117.946
48.5902
49.5261
68.7965
37.0755
28.8677
39.1151
0.830358
0.948802
5.02359
30.8789
1.44673
6.96528
203.088
57.1712
55.3148
16.5935
2.72152
41.9184
0.996312
14.2016
49.8021
1.2479
146.957
2.90482
2.88656
36.763
16.0139
6.27145
2.19939
54.4489
11.4066
6.61027
0.804535
2.97327
53.9
71.8219
1.86537
10.1275
32.0449
9.85355
43.0621
138.991
92.0308
86.6994
54.037
1.0144
1.61617
48.5847
0.772176
0.580739
0.747636
1.1396
23.0505
0.833735
7.39207
0.829788
35.5417
58.5133
7.05534
7.95454
7.90823
15.8606
33.509
28.7729
79.7889
6.32525
0.78663
32.502
11.313
31.2714
7.24348
119.198
57.2539
71.1851
1.05338
125.853
95.862
1.98293
1.5916
3.60714
1.51693
1.51753
73.2253
32.8711
51.4954
82.9173
23.4605
58.4434
31.3887
11.7255
0.997411
1.68618
49.9275
0.762506
60.547
23.1394
157.207
6.97905
71.278
84.1988
1.62065
1.29658
46.2187
46.9104
10.0517
5.3713
22.7698
64.0754
3.99142
38.4345
1.01561
4.22013
3.67912
0.807169
0.815703
2.06099
0.351493
0.770544
0.836487
1.4096
7.99692
48.7038
5.38181
2.05357
0.803655
71.7687
9.72323
22.7916
7.07104
49.893
0.720936
38.972
4.70973
9.23878
2.15729
14.0633
44.2727
1.52204
10.0119
2.13944
0.493091
9.24012
80.0373
21.6381
42.7574
160.749
1.00512
11.0841
28.6451
35.5267
25.0045
24.2397
51.0671
106.99
1.95036
1.31131
0.823263
0.213028
18.5178
10.8038
124.27
157.235
131.07
0.339891
26.0896
140.895
66.1011
60.0445
46.2828
0.782932
1.68348
1.40127
36.8765
11.0731
32.4226
4.52374
1.33692
4.40033
4.83409
10.0935
42.8065
1.76936
1.54218
55.0768
26.4586
11.9063
0.861867
8.22156
45.1975
0.904397
5.44237
2.58606
4.62173
14.9294
0.833399
28.2502
0.798877
10.4141
19.0523
1.49369
31.6427
9.76683
0.599762
2.83596
16.3157
0.762037
79.467
9.40016
1.05552
0.854987
8.79413
0.121294
0.779568
10.3878
1.43208
0.155094
18.6808
16.2623
19.792
58.377
26.3537
8.74026
106.844
33.8889
0.222325
1.05431
21.9665
3.03117
11.563
76.9349
0.276588
20.0499
0.953084
54.9352
2.59467
56.2178
2.77359
19.6237
51.2774
0.701062
35.349
6.48033
0.257337
4.7641
46.7907
29.8906
33.022
0.963774
37.2543
0.472432
0.793424
9.99837
1.07733
1.42951
13.2935
1.13793
19.8824
4.08889
65.016
1.52071
0.84075
0.730476
4.50389
48.1607
17.9785
1.27007
27.9367
7.42982
16.4777
28.8237
22.184
0.791564
1.96901
13.2651
7.8194
56.2232
6.82381
74.7023
77.9468
61.3145
21.6106
76.358
8.64249
8.59877
7.86079
2.20995
3.20703
0.895876
369.448
39.5438
1.17285
1.75814
55.5841
51.7365
8.48733
0.758717
1.23136
5.51846
11.7649
1.2777
24.8137
6.03129
17.6545
4.00981
46.0147
2.1789
0.358141
4.78877
4.36289
1.21698
30.8013
1.50003
51.7798
1.55064
25.7313
5.22204
11.4348
4.31413
22.4084
9.2674
17.8679
11.3077
4.47915
1.93822
7.48136
38.1684
10.1349
5.46895
1.57508
1.13474
18.2752
29.7888
21.0336
15.6032
22.6244
7.41041
4.2769
7.00351
7.08031
15.8925
5.59607
11.1556
25.2554
0.576037
58.6814
0.794937
95.0725
1.34028
0.640842
11.7011
0.619025
0.720321
45.5879
3.9112
6.14908
0.785161
1.12168
39.131
220.581
94.7789
2.49249
1.21632
2.79745
6.457
57.1007
20.1219
4.07828
8.63567
0.592616
56.0231
4.43212
3.65192
33.7185
8.09508
7.72663
33.9507
14.0131
0.872334
25.5367
88.1382
31.4253
9.16696
19.1825
18.4625
0.708659
56.8933
53.8505
31.9989
80.2124
2.8106
0.491846
35.5384
10.0051
34.8201
0.342509
13.132
53.9615
0.504291
0.81943
0.990547
0.610386
1.63728
8.17775
3.92906
25.6572
0.784187
5.04507
17.1674
125.661
16.8699
4.81809
28.8384
4.41287
86.7536
0.527228
52.5525
114.507
28.7226
65.7835
3.34622
43.9277
34.4492
34.0503
4.25885
6.96627
1.21984
17.0552
0.517507
2.30454
17.7683
5.73166
4.53452
10.721
4.52788
4.30443
33.204
0.502153
0.726826
7.41546
4.47358
0.535432
2.48379
73.9398
9.36622
48.6217
41.1456
16.8817
0.918318
110.759
0.550879
30.0429
12.1427
9.77927
3.61622
1.30366
38.4
0.544095
9.15426
0.628108
18.7491
0.315018
3.95301
35.7205
28.055
5.67636
29.8394
29.7005
9.39431
8.8795
1.0348
9.73592
2.90312
11.0194
77.8255
5.43694
0.309452
3.6757
28.8776
39.0347
171.22
92.9759
116.101
78.7395
54.3963
0.304441
2.12341
17.5132
3.61453
91.5724
0.940592
0.34868
2.08653
15.5006
0.497598
4.52974
8.84148
2.62478
4.17227
2.31878
5.90107
1.11211
7.61424
5.07605
30.8665
14.6132
0.79278
27.2168
32.8134
61.8044
18.2034
2.8427
50.065
0.537463
1.04854
0.686261
2.81616
208.335
11.4006
51.3686
20.347
79.4762
68.2989
16.6265
14.1618
0.321204
0.838957
2.26135
0.323422
9.30026
15.539
0.96437
19.7782
0.154685
0.830181
7.40924
5.93227
1.49087
0.98548
0.22016
8.07087
16.3113
1.50289
3.36147
4.87519
1.00525
1.06483
0.148059
0.552645
12.7646
5.41119
3.73424
0.477247
1.43524
6.98369
8.04522
0.766317
0.417845
0.583857
0.240694
0.415736
12.974
0.785762
0.117244
2.48286
0.658522
7.34324
11.4025
2.22302
13.7032
49.2468
0.442858
2.02327
35.2486
93.052
23.5958
1.97297
0.739883
15.7368
2.57286
21.7307
79.4611
104.787
21.6329
103.205
30.2709
0.314112
0.252629
0.315616
2.0519
1.08153
8.56361
0.610875
3.51943
5.44382
0.704645
19.0104
45.0803
2.95046
8.39758
20.6855
140.315
2.85734
23.9225
12.1192
12.7718
31.8512
7.63692
66.2477
35.526
28.916
49.0072
8.22732
29.0808
5.36994
11.5092
13.9065
334.362
2.80499
3.93212
1.6531
46.8804
24.0733
2.71368
64.012
56.8066
0.823053
0.396165
13.886
11.494
0.474642
17.8939
0.159165
0.665316
1.83031
0.173425
8.27583
7.99696
0.440895
12.7114
2.89031
4.02543
6.27109
1.05059
1.59186
1.27689
0.37592
14.7707
0.737693
40.5221
62.8341
9.20222
20.2728
5.69284
13.9165
21.3418
1.18887
58.9936
22.9523
35.5979
38.5047
26.586
3.75308
0.589587
27.6597
35.8939
5.28807
40.3499
92.812
36.7185
0.54985
37.4214
30.4954
3.40988
38.8783
12.6269
63.4645
0.730913
7.75108
0.359017
67.4794
3.02647
38.6956
16.7697
0.570163
117.226
0.777036
85.8492
2.37771
0.33023
0.240944
73.5646
0.285037
0.341756
1.48592
2.63813
111.569
10.7446
112.023
19.8802
4.40664
10.7777
32.6473
1.59245
9.15757
7.53772
62.964
38.0654
11.3713
0.736881
32.9333
5.70435
38.0155
10.262
2.50091
0.21767
4.71369
8.50646
0.833569
46.0848
65.518
0.089819
2.61566
92.0527
98.0054
12.1031
37.3795
70.1045
0.140446
37.0717
18.8122
27.3318
36.0496
22.8461
2.64684
47.3591
0.591815
5.12303
6.72389
55.7664
7.62529
6.75503
11.3538
17.6229
87.0913
2.61909
0.447479
2.00853
17.6784
35.5496
34.9642
194.441
61.187
41.4791
27.287
13.1437
25.6159
24.6207
70.5234
30.6961
17.6382
38.79
33.8846
32.8976
116.367
96.4233
9.37275
61.408
30.0191
18.4636
17.0705
2.72009
68.4132
43.8263
11.46
52.3388
4.96854
99.275
12.9646
19.5798
57.3878
4.1548
17.1975
7.16174
0.47663
1.15838
7.47465
57.341
2.69918
0.461498
4.65704
33.0973
35.5787
58.0243
41.5809
39.3702
62.4617
38.0702
3.20822
39.9223
37.4817
63.2465
37.1613
34.2321
40.3379
40.1516
34.5382
38.5572
22.6399
20.6348
3.42104
29.4582
15.2236
3.14459
2.54496
7.53034
0.903546
3.2554
18.2303
27.1024
4.55881
1.07669
1.5634
45.1446
25.6181
25.2655
8.16725
3.38251
3.55227
1.95291
6.3468
9.09841
5.00897
97.7632
7.31155
4.62292
0.4364
4.17604
0.313325
20.7016
0.650852
13.173
0.417341
0.302205
6.02249
2.45329
2.68618
2.36862
2.51688
1.96311
65.2
2.20383
3.41566
2.42477
5.96729
45.4207
104.051
1.86691
79.696
29.6092
2.37143
128.282
15.8436
2.55355
114.236
25.1149
92.16
1.67132
8.03217
119.689
112.473
72.4183
2.55219
2.4069
2.30541
3.09699
5.48878
60.9205
2.31728
12.7656
11.7779
1.50736
2.77829
14.0768
4.73285
50.8253
32.4584
29.6474
56.1088
83.4865
2.51284
84.7993
1.32005
10.5331
32.755
14.0124
124.162
6.05398
53.2203
40.3119
11.4901
14.8825
58.5789
51.0169
2.99287
91.1343
44.7875
3.14786
38.5008
11.2847
5.75086
6.10282
53.1231
4.14835
55.2348
28.9094
28.8846
5.64998
11.6959
5.40102
98.5642
8.52936
12.9413
13.1823
205.524
2.47501
5.00616
0.514639
32.6593
8.72018
3.7712
7.09566
4.61833
6.89222
1.42971
5.9096
7.10359
4.71184
2.5854
6.66427
5.2642
12.34
25.5368
11.4511
8.58015
64.0217
8.0292
7.68121
1.57697
2.5719
4.41997
9.3062
3.92129
10.7222
0.274626
5.12056
4.19535
47.8929
3.90508
3.63238
3.97295
10.798
0.455902
2.177
5.5102
4.70641
1.85269
1.90963
28.7535
7.89478
4.54085
29.8647
0.379135
4.40704
4.38285
0.505608
8.94785
6.99038
12.1469
0.626838
5.32688
0.917316
2.17472
3.63031
10.5861
7.98552
0.966603
6.01085
0.357883
4.6164
1.16321
0.764901
6.17384
5.34665
5.86867
26.3434
0.357745
3.97044
1.66398
5.79705
6.8042
6.413
0.54406
5.29607
2.60583
1.20492
3.82918
5.44492
52.4177
6.67
4.68549
5.71989
0.762933
0.35108
28.6156
53.6353
27.3795
15.7374
0.586459
15.4926
8.7811
12.6911
31.0632
0.492344
12.002
0.549873
31.4023
23.8714
8.32851
6.69126
28.8295
17.1988
5.61963
2.40933
0.482761
34.7567
23.7816
15.4907
7.92865
9.78791
5.6214
2.02322
0.405515
59.5978
3.82918
5.85722
35.4807
77.94
20.5887
15.1796
6.55593
31.6779
10.3883
11.4065
28.7935
27.4515
12.5544
22.7674
33.2692
14.9603
16.1277
40.8557
14.0847
6.81225
1.66992
0.430199
39.2266
9.2329
22.2207
31.2524
73.9868
0.485786
30.6958
29.9378
5.76761
5.81139
13.5687
3.47539
15.6302
14.0021
30.9319
27.337
6.81359
17.7506
9.15973
79.4289
7.52329
52.1813
4.94938
47.1966
23.9195
14.5606
26.483
9.3316
6.21719
21.8644
18.1637
14.8098
24.7236
9.00671
35.6918
15.1271
11.8099
32.2797
11.2777
6.86725
0.941929
0.497338
13.4736
51.1723
4.10345
30.8897
63.0584
63.7932
96.7173
23.414
12.2935
15.3127
7.22719
0.423117
30.3411
5.79497
49.9632
65.3177
4.77808
9.94186
136.969
4.99864
6.13946
18.2834
10.7719
31.793
10.9518
14.3701
74.5012
31.4182
35.4599
35.3164
4.88256
4.73307
5.39897
17.6962
8.82836
13.97
2.99562
4.07374
15.6477
7.74092
0.735645
0.479157
121.865
96.0383
7.57123
3.66
125.214
103.1
21.0684
3.15304
71.2902
20.7195
11.2591
14.339
0.34553
29.1222
5.39111
2.16895
8.72459
130.238
75.6645
101.971
8.16721
114.714
87.3932
34.03
3.88415
24.0307
50.9239
11.3741
0.492016
0.79001
1.00428
2.13572
20.0061
36.9237
7.49869
6.29585
35.0896
24.2203
32.948
46.6006
33.6916
35.248
2.34584
40.5278
0.385604
0.574131
137.635
59.2164
61.4655
86.8396
67.4942
22.6404
4.86253
3.14401
3.01334
11.4558
1.89042
6.95237
0.575129
0.486172
0.480263
0.408366
0.573091
49.3632
84.1326
16.9598
40.9418
4.64838
10.3987
3.03711
6.80302
46.4797
3.70215
37.7394
4.87507
8.4067
6.17827
71.6352
16.9012
11.361
0.31785
61.2642
3.73441
2.2768
6.34008
36.6081
84.7765
20.0896
10.4271
48.8749
118.393
7.00781
5.43276
0.39302
0.31969
12.611
5.57024
30.2287
9.51982
2.7411
0.473756
26.5401
5.59652
6.59628
88.429
2.66811
28.1507
0.513223
0.566254
3.19807
38.8103
164.26
16.6043
0.440749
3.48232
44.8021
53.6658
2.79191
5.06548
7.42533
5.17677
15.785
6.91449
1.028
10.2902
6.51814
0.38676
4.87326
4.319
9.05181
9.31229
5.67297
6.59511
1.83863
5.55954
18.095
3.94591
5.34905
40.6626
3.46536
6.08279
10.9133
35.1869
1.01944
56.4227
29.6323
13.1095
46.9516
2.97456
144.745
25.1879
66.1303
0.696984
105.077
4.1127
14.4888
8.65248
0.391653
74.5522
3.98272
12.5002
5.74598
14.5939
12.7631
5.3499
68.1572
34.3427
63.9463
47.2749
5.33493
8.21653
8.39803
0.554041
0.508754
27.2276
24.9012
14.0637
6.21714
0.933929
113.786
18.6588
188.084
121.353
36.2249
46.5127
21.6136
1.25742
30.6201
5.99749
5.9339
21.8433
29.6876
2.11782
12.6367
33.6106
24.5335
69.12
6.14788
20.6176
69.0164
30.4112
6.25663
16.232
5.92915
109.941
8.25678
19.8208
66.7745
92.8849
28.5651
2.83677
2.50575
37.4542
15.7001
7.50072
30.0174
20.2714
31.3631
4.39243
22.9726
17.9349
130.559
10.4698
3.96151
2.32353
0.549744
33.8444
23.9937
15.3212
97.4158
78.6246
197.396
1.16509
19.6994
9.0496
31.0273
2.0492
173.277
39.1155
4.17415
0.554538
9.84966
0.395094
2.75952
36.2722
46.5791
31.2075
52.1139
26.5999
58.6792
3.69406
16.4193
105.174
22.3555
35.165
313.554
4.93642
8.02073
42.1197
104.449
36.4196
24.2823
51.5241
3.05271
2.70125
35.4062
3.65378
12.676
17.6657
0.78295
10.863
1.56664
57.8383
1.04203
55.5164
3.76048
11.5829
13.9486
33.2971
19.9824
72.6679
1.37066
141.109
0.781321
1.22205
3.56507
0.26029
1.19269
72.179
34.0603
88.954
7.66376
95.8835
138.492
7.38873
26.4796
0.988359
3.56051
4.25642
0.250572
20.4565
49.9412
1.64233
1.3829
32.8579
34.7551
18.2209
76.2251
4.68085
27.0775
5.63726
115.58
5.10953
18.2338
0.366712
7.5833
12.389
68.7585
3.95497
29.6004
76.3074
6.90606
4.89324
57.9147
3.23339
2.06157
87.7911
1.65388
2.38207
138.071
11.2456
46.177
4.34743
27.7846
63.6314
0.918434
5.69301
17.9339
31.6323
62.892
4.50533
17.3167
39.7758
34.5165
13.7263
9.99097
8.80661
3.86533
0.359521
0.535006
17.8087
44.2312
3.99501
2.10902
108.404
8.01927
25.9372
39.2045
8.61917
5.08672
25.0374
87.5711
6.0208
0.414833
1.00038
16.5086
25.1422
16.119
3.61391
2.96307
60.5375
47.323
6.34294
41.2129
137.08
81.7764
27.8943
75.3404
0.532871
32.4905
94.7444
7.39495
0.415286
0.525089
13.5202
2.56293
4.89543
53.9908
1.69263
21.5291
4.08653
4.65584
10.8628
301.383
1.67163
38.6097
2.40009
30.0717
72.2368
25.9879
4.23047
9.26167
0.501997
0.526108
39.5136
13.2414
11.547
86.8449
14.6341
28.7278
213.122
54.5833
37.1944
0.237958
68.6747
0.263435
2.07739
55.5285
28.3444
10.3346
1.23903
3.23193
5.40886
38.3505
0.357841
2.88834
22.9103
83.8181
4.41001
5.95449
3.62425
41.0961
32.6823
31.9656
2.44319
22.0842
71.7263
121.685
21.7999
33.4546
5.09311
38.4719
21.1941
68.0875
6.58743
16.3729
2.30987
6.68063
0.61235
4.47333
9.0759
6.55225
36.1866
0.174701
4.18682
123.519
29.7797
0.9664
5.32953
14.781
29.8337
51.0978
25.4677
0.561682
3.21685
0.559067
0.501543
7.20086
9.16557
73.1682
0.770417
22.7715
15.4854
6.40499
1.59577
35.4794
8.95628
111.265
6.68041
0.364089
0.504035
0.569173
27.7289
2.51381
5.9944
0.170568
7.706
1.6262
0.837624
6.06245
8.65228
5.92366
24.1473
19.0938
1.55648
34.5873
3.66703
10.6638
3.68697
0.370966
2.84956
2.13181
2.53912
29.0454
2.29216
27.4239
73.2578
35.5311
59.3481
2.52612
6.36492
4.38672
57.4547
7.33596
5.87984
7.60885
0.39131
0.518452
4.7678
0.884585
50.6368
252.882
9.52867
2.67621
1.30782
2.48045
0.131489
24.6162
2.71286
68.3674
10.0095
26.4739
84.18
0.247514
3.25346
3.90927
69.6944
1.44282
90.4019
4.37896
13.1356
0.90415
6.83435
1.84191
4.88597
10.1694
21.0387
23.4559
9.67128
2.01546
3.78593
0.451887
2.34908
3.55806
57.0985
27.3306
65.0991
28.7283
15.8834
32.2084
3.18394
29.9951
2.84788
10.7416
2.21268
14.9787
40.218
71.2871
11.0339
0.869264
3.89125
0.280398
1.78296
10.3191
3.40863
4.87132
5.31947
102.508
3.07737
4.66283
15.2905
7.97709
30.6585
39.7108
28.5539
22.9791
2.67528
6.02855
7.99562
7.24309
11.8092
1.12031
9.37297
35.27
0.34795
5.33389
10.021
1.08913
4.14935
0.803443
0.471674
0.593189
0.0870527
8.66346
0.207293
2.29094
1.92689
8.70105
3.41573
0.420333
1.01225
31.4688
33.825
13.6888
12.8501
3.05638
9.56418
5.67074
84.1622
48.4918
15.9365
58.1478
50.476
83.6447
89.4213
137.231
36.0561
0.441345
0.471676
0.321163
0.547049
0.467012
7.65341
33.7715
76.0229
0.430887
0.295538
2.70174
8.2464
10.8358
71.5866
0.767361
0.219132
57.6111
11.0752
40.4552
21.2375
6.57203
6.46864
25.1919
21.2091
102.789
0.305491
13.5227
25.5922
33.2709
41.0991
32.1027
0.257192
1.54415
12.3997
1.7335
1.05282
9.12597
0.738359
9.06961
5.36049
6.75591
2.11805
0.295003
5.12639
229.438
70.3365
0.72131
2.89673
0.505597
3.45138
18.4245
2.58514
29.033
15.8826
0.60793
60.1307
5.44617
24.6724
106.339
36.0475
56.8604
26.7754
1.58898
2.93291
21.1452
14.7682
2.01911
0.317462
76.4832
2.3877
62.8385
3.93675
1.1106
10.297
105.762
15.1193
1.85582
1.61353
32.5119
3.16908
10.0065
1.77867
5.89755
9.21849
131.065
1.69108
27.2686
7.00113
0.452298
0.496167
0.423017
14.1253
0.406473
60.7165
3.4835
14.6288
99.1972
18.4617
8.25057
43.9436
8.11412
5.05009
202.687
3.36119
14.7811
38.6044
5.85163
149.866
8.50005
0.517855
0.528994
40.1258
4.15335
6.43296
1.09643
1.958
2.90527
24.6732
88.4671
29.6472
6.19058
13.2291
118.154
29.8785
27.9857
10.5121
3.58037
13.9412
118.528
34.6809
159.33
20.8576
0.70193
0.764404
1.92406
36.8016
7.53565
55.1129
18.3553
22.9338
9.0095
17.1711
32.4155
0.94424
0.535204
6.24473
0.537164
2.36041
12.3341
4.16641
5.26313
5.95977
21.9036
32.7513
62.7342
25.1299
75.2578
17.098
0.743271
1.78836
1.2604
36.9969
1.47694
12.0805
3.31305
3.48306
1.73257
28.8994
72.124
5.38565
10.6167
14.0434
54.8115
1.28433
1.71115
0.372501
23.8821
76.2753
4.99792
3.5905
35.5438
34.6306
48.3049
9.66143
5.31672
46.0911
77.9052
36.702
10.2568
7.99802
0.0932373
19.5802
0.0791809
26.2313
76.0715
10.4247
3.43768
8.1235
17.7069
9.35884
28.3837
0.129539
29.5071
4.36481
0.0762428
0.98017
17.5382
83.9611
22.5659
4.72493
3.29063
2.27662
3.49001
0.222581
0.0889427
0.879288
2.91603
28.2201
71.2934
28.151
18.6866
3.33009
61.4935
63.8992
11.7088
0.628595
2.80474
4.22187
151.154
68.6956
49.4397
1.38526
0.505301
99.4193
12.2267
17.9242
11.2573
46.1415
0.408952
118.834
20.2615
25.026
8.01827
44.988
118.713
2.81048
54.8721
0.194675
1.78515
12.6986
11.2658
4.68006
0.41335
0.937876
2.43862
1.84857
20.1013
3.78672
11.2545
101.171
8.37657
2.47141
13.257
17.6707
12.7788
125.039
0.262132
16.9376
0.678606
14.6716
58.2684
2.56726
18.9991
34.816
7.51325
32.2941
1.0674
1.57003
40.0336
178.266
48.8371
88.971
22.2145
78.0309
0.7408
26.8835
61.4198
5.25774
114.182
19.9559
79.732
22.1309
9.28584
111.496
40.2169
24.8234
9.73502
0.596143
0.603192
15.3678
2.47505
4.29399
1.39954
28.7087
31.3901
3.57008
0.19367
1.59575
14.923
79.5057
2.82506
0.225253
13.0558
36.732
29.2077
18.0742
1.94178
107.069
5.87732
4.95178
67.5732
67.8644
0.439729
47.2785
28.0355
67.2398
36.5985
37.3998
6.82214
1.34737
0.358936
1.26759
2.94081
1.63653
7.62876
9.723
72.2848
47.4461
23.7611
142.203
30.287
51.6551
11.8883
17.6036
35.9836
3.82508
7.24451
6.98197
67.7459
139.198
108.162
20.3803
74.7714
2.77426
40.7276
42.6002
49.6793
0.62693
2.27454
102.684
29.8059
9.72579
83.878
110.259
1.55749
49.068
24.6114
75.7484
31.3738
86.6502
0.71233
75.4515
0.328392
7.47089
0.505737
58.8649
33.6247
62.8746
1.03827
0.225938
103.502
2.84657
1.18673
35.5428
57.1941
37.6421
62.2684
157.425
62.7521
0.573337
0.987572
47.3252
25.1831
228.02
74.6993
106.967
9.82105
14.867
103.722
87.5603
0.49919
0.633589
8.56726
0.797066
0.809356
14.4307
65.8214
16.6391
5.01636
26.7299
15.1128
10.11
78.6598
129.468
73.6713
4.97692
33.1498
3.08548
18.8972
5.91041
47.0634
131.604
77.973
46.9082
93.5942
123.863
78.173
3.94668
0.460592
158.853
83.408
1.82578
8.23079
0.824534
2.34057
41.4654
128.548
59.9232
53.773
2.14012
93.0355
0.358064
6.60903
0.535778
5.94039
0.257057
20.8312
126.403
28.0102
6.22531
122.534
0.287062
1.30589
71.7584
19.8375
54.4881
3.51084
7.12015
89.2392
70.7655
3.31137
4.18897
9.32392
31.6566
4.2882
19.5544
79.5883
31.2418
36.4793
36.432
46.6117
25.2527
29.2901
0.209698
2.63909
45.1681
1.67489
13.9621
113.423
10.3443
85.0515
65.8739
1.05286
0.366604
0.472881
8.27342
61.1615
74.3515
73.8345
1.96265
6.98336
5.82864
10.5936
11.8145
6.62951
5.88441
5.12734
6.34289
7.14153
0.364235
0.258546
0.75404
122.532
50.9685
5.26958
118.34
103.94
112.897
88.2756
50.0012
2.81087
42.8495
8.28582
1.41864
59.1096
163.366
3.57163
2.19451
0.812152
35.0339
42.7049
89.6907
5.27912
3.92981
35.9769
12.7837
1.75428
1.45834
0.301117
0.953733
8.57017
110.791
23.1486
6.06254
95.8545
38.2806
58.8099
83.7309
8.45387
70.8708
2.99424
9.27448
29.184
26.4584
30.4459
0.544533
0.453664
44.2639
0.940137
3.80524
1.38061
93.752
31.1621
37.0742
2.32781
40.4005
2.4899
46.6083
35.0855
27.826
31.8852
43.8219
43.7292
45.7082
1.36995
18.3151
35.2386
0.666656
20.7776
0.528231
2.84668
6.38683
17.255
34.1778
16.6584
5.76485
75.7175
0.716266
6.20744
0.629475
0.71622
156.033
26.65
7.28472
0.48939
0.445438
21.3974
0.166137
0.414524
8.40937
0.575155
0.344386
8.7765
0.708148
43.9079
2.49033
0.864327
27.4923
27.9649
10.207
29.6879
9.82925
9.87049
24.5868
82.6384
30.211
0.792055
22.7918
115.807
70.5161
31.3655
14.7264
2.02842
0.20484
0.474821
45.5233
142.916
26.8868
4.34628
14.4679
7.99571
5.55275
15.1881
33.7923
42.6329
1.86476
60.6551
0.112207
8.54687
119.696
38.8601
6.3584
34.7089
10.0515
88.336
38.6315
35.2451
8.80275
0.987051
3.01411
2.81592
6.67122
16.0375
0.869998
30.0996
27.1062
110.194
26.3768
13.8601
1.12
3.41992
5.89791
93.3066
35.3092
45.2459
3.72675
103.801
4.96352
3.51564
38.4058
0.402973
2.50345
14.1533
58.0872
76.0912
36.9811
29.957
39.054
28.3013
4.20237
2.51587
0.568242
6.1843
2.99869
381.087
115.553
3.32659
106.846
36.5721
4.56326
0.378775
8.81715
0.559158
4.71403
0.950204
44.5016
43.8574
41.3964
32.0082
32.3489
0.265655
1.18075
1.62091
3.0984
11.7345
36.041
201.637
14.6856
11.0483
0.130232
5.07057
119.784
61.2328
11.7736
3.73767
1.21229
12.1288
5.66717
1.34314
30.8622
33.9159
0.565856
10.2998
0.648202
10.0779
15.4506
5.92458
57.9066
5.31109
70.0882
20.5807
67.2048
98.1531
1.74406
1.67438
3.00861
16.3744
0.675224
5.15959
4.83487
38.8931
52.4451
73.8503
3.07189
3.59873
58.0074
1.77521
16.1991
12.6358
34.8587
64.0733
90.3182
0.393961
11.019
0.433834
36.686
10.9427
88.1955
39.749
1.93662
42.9888
132.437
59.8625
60.3833
3.38536
81.4246
52.8686
20.8286
1.57479
0.505438
35.866
1.13073
3.25826
14.9047
11.7539
43.8273
124.277
84.0193
7.03472
86.5993
1.05581
20.3259
17.6051
10.9899
88.4442
32.1769
0.209956
0.78684
0.969121
1.0392
15.1066
5.89699
102.107
21.9307
0.543571
85.0897
7.64934
3.96216
98.542
48.7381
35.0019
34.7437
6.78802
82.0964
1.00205
0.773614
7.92165
0.265859
4.62608
14.6314
61.9149
0.183635
32.8162
0.508333
3.20775
13.9221
40.4368
6.96178
9.98858
92.8025
43.7382
30.5671
10.4145
1.92067
1.5855
11.596
47.822
19.1579
109.559
0.207802
1.44468
56.5059
45.4514
1.12044
43.3781
29.8652
2.49062
16.1567
51.6372
20.7289
79.9618
71.992
10.6035
22.9611
0.785242
38.511
88.9425
20.4719
126.525
34.7141
8.10095
20.5006
27.2476
15.3836
20.3011
85.7494
11.7834
30.3455
7.94484
0.329372
0.831861
23.0708
0.472905
1.55391
13.61
11.8695
16.8695
26.4629
11.1943
106.921
101.063
62.7121
2.10252
0.768254
5.90638
0.542789
11.6309
21.9419
17.9655
7.71345
5.44527
91.5487
10.528
5.29217
4.13907
37.4652
74.9386
0.177448
4.79575
4.5764
0.359887
58.7225
32.5136
1.13975
3.45868
50.8315
94.2474
25.5828
1.921
1.59897
1.98963
0.416053
12.1831
0.352291
0.503389
19.1569
1.66436
0.708649
35.5634
17.637
0.875931
26.3
1.0049
69.7714
2.61022
101.297
2.28757
0.522296
5.55181
57.5182
69.1853
100.373
25.4339
33.2068
28.129
5.11544
40.4189
26.0747
20.0414
1.58061
4.55174
0.197797
33.5361
12.1302
25.1138
1.76079
35.5828
34.5185
69.1712
14.2577
300.532
13.0524
3.06421
0.422427
0.670501
4.75106
0.8922
1.48813
12.5399
1.54613
7.87436
0.738395
0.733111
8.63426
1.99162
5.57048
23.1215
45.8183
66.0655
3.17324
2.67223
0.791189
2.11959
65.0141
3.04189
7.95607
6.01394
101.845
140.08
87.2158
5.08065
9.4542
0.963402
2.57875
0.389666
24.0558
10.8488
48.6602
0.40333
108.83
287.566
134.26
1.2592
38.7628
31.0654
42.2025
0.8231
0.885798
6.64577
34.6172
0.617581
27.413
44.3177
0.777286
0.272846
100.889
48.1711
4.38013
15.8128
35.1031
10.2127
59.5967
11.705
0.895882
11.4804
92.5215
145.121
5.56943
39.518
223.907
1.3112
70.8432
0.738267
54.4925
18.2783
4.28915
1.51446
101.648
0.42353