/*--------------------------------*- C++ -*----------------------------------*\
| =========                 |                                                 |
| \\      /  F ield         | OpenFOAM: The Open Source CFD Toolbox           |
|  \\    /   O peration     | Version:  v1912                                 |
|   \\  /    A nd           | Website:  www.openfoam.com                      |
|    \\/     M anipulation  |                                                 |
\*---------------------------------------------------------------------------*/
FoamFile
{
    version     2.0;
    format      ascii;
    class       volScalarField;
    location    "0.4";
    object      k;
}
// * * * * * * * * * * * * * * * * * * * * * * * * * * * * * * * * * * * * * //

dimensions      [0 2 -2 0 0 0 0];


internalField   nonuniform List<scalar> 
5794
(
0.194278
0.107271
0.320975
3.02259
2.02208
0.113343
0.633953
0.48813
1.64321
0.464406
0.888766
0.157811
0.439242
1.56663
0.195003
0.0812091
1.81222
1.79646
0.167101
0.132749
1.24468
0.123806
1.09373
0.466172
0.22573
1.64817
1.71639
1.55485
2.21938
0.0831942
0.333231
0.212923
0.778056
0.774325
0.732871
1.02932
0.196372
0.191009
1.16653
1.20665
0.96647
0.30298
0.273508
0.13956
0.219097
1.08734
0.193591
0.45224
0.34398
0.527332
0.021133
1.42952
0.306552
0.226096
0.021523
1.03503
0.181149
0.637014
0.212953
2.57079
0.924991
0.0740532
0.274343
0.332837
1.30361
0.0884092
1.42284
0.424945
1.86135
0.118197
2.31002
1.71401
2.2201
0.336104
1.86947
1.18466
0.330369
1.24562
0.14809
0.048269
0.088339
0.188794
0.623865
0.868744
0.22286
0.915706
0.532509
1.10364
0.285408
1.53438
2.54727
0.80105
1.69415
2.68043
1.12352
2.47958
1.96046
1.47908
0.738227
1.0077
0.942786
0.122455
0.242826
1.41178
1.49508
2.8092
0.0649142
0.720629
1.59241
0.158093
0.279964
0.435302
1.04917
0.121952
0.964432
2.0583
0.201948
2.4668
0.849965
0.490576
2.85459
0.182525
0.237584
1.38381
0.2691
1.35933
1.1545
0.105755
1.65781
0.708324
0.237131
0.523751
0.37142
1.077
3.25473
0.217597
1.93635
0.0778028
0.0730662
0.729877
0.388642
1.49534
0.385221
1.5686
0.124125
2.17068
1.43051
0.849147
2.28432
1.47832
0.310596
0.304116
2.96161
0.102572
2.06838
0.187394
0.980716
0.272347
1.37623
0.131052
0.218668
0.575448
0.528531
0.629171
1.16514
1.28191
0.567339
0.475887
0.334866
0.276806
0.114829
0.818314
0.465647
0.48104
0.462976
0.899073
0.121364
0.235826
0.49376
1.37641
0.185458
0.234729
0.22211
0.918535
0.21482
1.0615
0.135315
0.462148
0.360708
0.0873269
0.8959
0.209916
0.746857
0.27472
0.464508
0.163054
0.331386
0.628168
0.2811
0.27115
0.717224
1.26866
0.368163
0.390128
0.193853
1.10762
0.28552
1.21891
2.26267
1.09063
0.188152
0.310326
1.24481
0.70613
0.551005
0.394902
0.919966
0.344063
1.08486
2.24633
0.303754
1.16139
3.94386
1.65119
1.88557
1.12917
0.149435
0.681404
0.195403
0.230527
0.544668
0.768861
0.595113
1.18787
0.578894
1.5323
1.9759
0.795955
0.399493
0.154936
0.157876
2.31554
1.0937
0.571867
0.149521
0.235325
0.37965
2.13266
1.4056
1.04866
0.542019
0.0886091
2.09398
0.0564684
0.209435
2.11058
0.257256
0.407584
0.893519
0.289058
1.38458
1.21483
0.666004
0.0985394
0.333197
0.516556
1.77685
1.65721
0.248862
1.35122
0.228682
0.343159
0.423083
2.07134
0.395227
0.218341
0.271909
0.313368
0.226965
0.459445
0.690165
1.7647
0.921485
0.278872
1.33404
2.40964
1.07255
1.41478
2.99088
3.08028
0.672479
0.821034
0.584091
0.308459
0.201655
1.54954
0.981131
0.32241
1.26409
0.0819682
0.156966
0.797474
0.0730748
1.46433
0.118289
1.5621
0.192265
1.57551
1.33624
0.205272
0.243837
1.18521
1.24198
0.119742
0.293101
0.593225
0.911196
1.68626
1.54828
2.53821
0.738976
0.587667
2.36478
2.2962
0.0553618
0.826687
0.359753
0.148649
0.454742
0.824935
1.26673
0.275999
0.189738
0.628178
0.176551
0.412563
0.45926
0.431937
0.309563
0.339203
0.376178
0.194054
1.51047
0.982393
0.147272
0.202649
1.20653
0.281906
1.49235
0.324251
1.43464
1.22972
0.78659
0.216741
0.243765
0.669895
0.561725
1.30702
0.66036
0.399266
1.08373
0.229431
1.7026
0.720021
0.775033
0.753252
1.15609
0.97104
0.175146
0.532468
0.309803
0.0885262
1.08947
0.0847366
1.33633
1.30981
0.864795
0.209836
0.852728
0.0672785
0.399421
0.332376
0.323844
0.870326
0.723025
0.824945
2.97394
1.27521
0.786387
0.574174
0.431596
1.30825
0.100722
0.800537
0.351996
0.469842
0.415701
0.187952
0.214395
0.97502
0.576231
0.303117
1.2853
0.18586
0.348925
1.03088
0.429786
0.144943
0.0842602
1.97819
1.4732
0.70691
1.25157
0.615842
1.19688
0.197022
0.248856
1.90989
1.09142
1.83014
0.717471
1.39996
0.990036
0.2605
0.624258
0.575453
0.565319
0.122293
0.115077
0.124236
1.4558
0.224921
1.75149
1.56885
0.435534
0.183832
0.214918
0.716298
0.700773
0.61765
0.607653
0.270138
0.284812
0.208118
0.391646
2.27985
1.03477
0.0349888
0.272871
1.52779
0.533386
0.125617
1.83091
0.129372
2.06696
0.10117
2.01025
2.65227
1.37015
3.71563
0.156036
0.106311
0.43199
0.446628
1.10101
0.704509
1.20713
1.39197
1.00591
0.171767
0.0285745
2.14245
1.56758
0.558148
0.52968
1.83788
1.62904
1.64515
0.201309
0.111768
0.542189
0.147408
0.250612
0.313709
1.00268
1.12054
0.309212
0.435893
1.05828
0.10577
0.132998
2.6639
2.35168
2.28354
0.388609
0.501096
0.136259
0.334314
0.0515522
0.920577
2.218
1.86193
0.265374
0.583267
1.78939
0.0919756
0.122327
0.586911
1.44168
0.0924229
2.4223
0.162058
0.406558
0.100173
0.104682
0.866661
1.87367
0.0922068
0.222248
1.29976
0.125008
0.0743722
1.86409
2.73207
0.75217
0.151344
0.187217
1.03259
0.110611
0.147066
0.547871
0.0636719
1.19561
0.335778
0.732925
0.348759
0.240921
2.2022
0.675581
1.13742
0.113883
1.90118
0.13241
1.44517
0.326845
0.0514578
0.213746
1.51133
0.115137
0.110966
1.37127
0.151735
0.127055
0.159091
0.148096
0.457082
0.490703
0.145368
0.107237
1.53837
3.30789
0.0805123
1.37102
0.278611
1.38921
0.293604
0.0922466
0.746327
0.0609047
0.0862726
1.21002
0.944828
1.45883
1.34069
1.25479
0.289629
1.72897
1.45363
0.302691
1.06256
2.2498
0.891804
3.11539
1.27855
1.82332
0.878235
0.11883
1.8532
0.768462
2.28574
0.0919899
0.145583
0.0881846
2.47528
0.960104
1.14937
0.0250826
0.293932
0.0600139
0.507618
0.202621
1.34284
1.00612
2.63999
0.0988386
0.501054
1.7915
0.428821
0.0245654
0.314301
1.24629
1.71512
1.05293
0.458934
0.178177
0.198416
0.835902
0.594419
0.262258
1.4499
0.0552742
1.17424
1.61522
0.994527
0.0633236
0.153205
0.0744827
1.58843
2.36745
0.103484
0.173425
0.128131
0.0399126
0.100645
0.0715518
0.269379
1.28368
0.489324
0.248783
1.67434
0.221407
0.273713
1.13466
0.818679
1.9142
2.85536
1.15353
0.731029
0.12611
0.0866134
0.064448
0.180389
0.299888
0.157115
0.171964
1.55172
1.49648
1.40371
0.644822
0.243639
0.0811108
0.220798
0.136752
0.708237
0.117645
1.36223
3.10296
2.49449
1.09509
1.24671
0.8171
0.145693
1.389
0.564619
0.708397
1.09746
2.83347
0.396647
0.973035
0.170636
0.0953456
1.29683
0.220747
0.0527408
1.53677
1.99344
2.61463
0.335991
0.257187
0.0780165
0.785752
4.10244
1.17758
1.32755
0.345645
0.940126
1.20896
0.10017
0.0678379
0.29071
0.283823
0.321238
0.0623623
0.422992
1.53847
2.33319
0.296358
0.291492
0.229353
3.07213
0.479186
4.10055
1.45163
1.88176
1.40724
0.374886
0.267625
1.92302
1.19608
1.60634
2.01394
1.5534
2.23674
0.274768
2.21741
0.139203
0.350437
0.509218
3.02425
0.637929
1.2587
0.899294
3.14703
0.765966
0.332551
0.387691
1.14596
0.742653
0.781889
1.62727
2.28371
0.0631079
0.0443671
0.233092
0.0795391
2.25426
1.04228
2.64454
0.379699
0.283859
0.0740492
0.165484
0.212375
0.102317
0.96569
2.44107
0.20592
2.86389
1.16911
0.255102
0.3686
2.03445
2.20975
1.29837
3.17637
2.59651
1.12263
1.47644
0.158314
1.70473
0.743593
2.17234
1.69126
0.22881
1.16341
0.122749
0.150513
0.186011
1.21731
0.114033
1.36766
1.67049
0.377423
0.164198
0.0985464
2.31336
0.966888
1.3687
2.40093
0.930762
0.0374168
2.34056
2.13309
0.628422
0.279064
1.05763
0.124251
2.59994
0.117201
1.3026
0.301177
0.996361
0.329306
0.0543666
0.0778327
0.282663
1.33542
1.75419
1.60105
4.4159
1.40304
0.328432
0.19873
0.617135
4.18106
0.463222
0.223346
0.6847
2.65276
0.0943558
0.145759
0.421263
0.82018
1.41
0.110429
0.387266
0.289001
0.486459
0.346345
0.794058
1.98809
2.17236
0.283573
0.333466
2.38101
0.459568
0.281378
2.28542
0.097179
0.135029
0.256302
0.0752111
1.01346
0.159724
0.494514
0.109267
0.401009
0.217212
0.316932
1.83432
1.05486
2.78012
0.967483
1.12333
1.6
1.06216
1.27389
1.4153
0.095181
0.10048
0.20512
1.54143
0.181326
0.537364
4.16905
1.58763
1.42233
0.844988
0.214151
1.74212
0.107327
0.34944
1.25093
0.116292
2.27984
0.300084
0.327656
1.03151
0.378667
0.22938
0.0998132
1.57736
0.703854
0.254346
0.0878536
0.335989
0.870425
1.73086
0.165126
0.300035
0.94075
0.774432
1.22568
3.05914
2.18191
2.46669
2.12752
0.107553
0.130493
1.79534
0.0926733
0.099715
0.0734154
0.113318
0.699229
0.0660315
0.254961
0.102905
1.34337
1.53643
0.432697
0.273693
0.508182
0.98729
1.5398
0.82877
1.7518
0.235116
0.0960795
1.49414
0.354825
0.961716
0.25987
1.34962
0.828547
1.13657
0.0590295
1.65671
1.16703
0.0933006
0.0767741
0.136291
0.0678624
0.068345
0.734122
1.7305
2.31881
1.74379
0.714796
1.36283
1.55837
0.312381
0.0874567
0.145904
1.98615
0.0854029
2.30122
1.302
1.97587
0.247053
2.46458
1.38576
0.122088
0.126789
1.95286
1.14485
0.305322
0.260253
0.471882
1.58227
0.344847
1.7158
0.0983408
0.160055
0.14926
0.0803576
0.0752789
0.219522
0.0553725
0.0897076
0.0759837
0.130255
0.265027
1.83111
0.216656
0.252064
0.0992771
1.12751
0.299784
0.765613
0.38839
0.874699
0.0821466
0.637227
0.199266
0.703052
0.156326
0.519371
1.50778
0.134864
0.304575
0.217057
0.069311
0.292024
1.45213
0.43263
1.86068
1.97778
0.0866475
0.318795
0.526933
1.90077
0.514581
0.783025
1.23095
2.55633
0.151919
0.182531
0.101704
0.0423547
0.412879
0.370489
1.48637
1.71177
1.51994
0.028536
0.763597
1.50761
0.910408
0.858876
0.883906
0.0659338
0.155017
0.114822
0.688117
0.303383
1.67123
0.200333
0.151421
0.19675
0.205382
0.287712
0.77819
0.147874
0.195497
2.13682
1.53266
0.744723
0.0779076
0.274941
1.16189
0.0831496
0.452148
0.205032
0.339771
0.942431
0.082155
1.51914
0.0703251
0.312583
1.17877
0.118651
1.5304
0.280373
0.0737005
0.326545
0.882635
0.076809
1.8634
0.317784
0.116891
0.0783627
0.309102
0.0297381
0.0907252
0.309542
0.12763
0.0361272
0.642696
0.631272
0.59518
1.65778
0.531851
0.265412
2.5728
1.00043
0.0477193
0.0921745
0.995729
0.323242
0.799911
2.81219
0.0570586
0.511228
0.0626567
2.19195
0.280889
1.61157
0.301007
1.11348
1.27402
0.0468523
0.652934
0.216843
0.0274528
0.358539
0.858928
0.609762
0.633591
0.0591773
0.666792
0.0357141
0.0510933
0.330824
0.0892264
0.140645
0.814329
0.168641
1.16757
0.174735
0.899003
0.203559
0.0964942
0.0723577
0.199024
1.71752
0.402125
0.18379
0.562782
0.248292
0.427871
1.44705
1.14149
0.077407
0.252596
0.841868
0.502509
2.17914
0.237668
2.47808
2.10177
1.40639
0.470521
2.95368
0.264503
0.26385
0.467087
0.176547
0.20524
0.0829171
5.36617
0.683724
0.0922223
0.221658
1.67302
1.6317
0.26878
0.0817297
0.17685
0.205923
0.660825
0.114843
1.32512
0.410395
1.05931
0.295526
1.51755
0.221573
0.0511188
0.348821
0.297943
0.172082
0.590016
0.118744
0.889281
0.145288
1.34286
0.227104
0.350367
0.19051
0.47387
0.292995
0.39281
0.330762
0.19335
0.231596
0.575189
1.9251
0.287192
0.212837
0.125944
0.120629
0.567136
1.30858
0.607306
0.438853
0.571602
0.25133
0.325367
0.245165
0.236081
0.420859
0.173619
0.323796
0.526559
0.0654535
1.9333
0.0773852
2.35919
0.097917
0.0992903
0.40102
0.0712359
0.0728578
1.29024
0.342589
0.224926
0.0701609
0.139287
0.672393
1.97659
1.1478
0.285561
0.111458
0.199167
0.331552
1.64427
1.19808
0.306966
0.282053
0.0417545
1.85668
0.266731
0.361594
1.5915
0.220594
0.267537
0.641934
0.874227
0.0549276
1.46785
2.61723
0.620296
0.539199
0.905653
0.626096
0.0744036
2.07633
2.11773
1.3466
1.03426
0.217336
0.0639042
1.02671
0.305063
0.687603
0.0458312
0.338221
1.35424
0.0869883
0.0615485
0.130371
0.0770118
0.0945554
0.322372
0.306241
1.44183
0.080907
0.26889
1.01697
3.71513
0.96999
0.3311
0.806101
0.197649
2.36122
0.0950694
1.76506
2.70982
0.895724
1.73967
0.311792
1.8501
1.29357
1.51285
0.301773
0.407007
0.173499
1.01103
0.080733
0.243578
0.839678
0.367129
0.309168
0.863577
0.335267
0.383632
1.82091
0.0777629
0.0588797
0.257955
0.407852
0.0586801
0.245657
1.18275
0.294157
1.47241
1.21873
0.812143
0.0880189
3.52658
0.0995336
0.921437
0.641831
0.403735
0.209898
0.121399
1.92767
0.0753232
0.366586
0.0722186
1.10807
0.0637507
0.213996
1.65462
1.08383
0.414023
0.614991
1.28066
0.7461
0.278647
0.0505035
0.670495
0.338903
0.764777
2.48959
0.299094
0.0499247
0.339398
1.36968
0.650384
1.70251
1.21161
1.40008
1.01526
2.09006
0.0513302
0.231126
1.08755
0.204856
2.89388
0.142473
0.0491081
0.210458
0.493986
0.0573313
0.290791
0.447115
0.188397
0.247589
0.098573
0.448377
0.108408
0.263904
0.443663
0.931088
0.953064
0.0842393
0.929215
1.41389
1.85149
0.434235
0.298108
1.0338
0.0951215
0.0583697
0.0443378
0.111339
4.05916
0.323448
1.24186
0.691653
1.89641
1.51218
0.524609
0.347268
0.0284623
0.0543285
0.110439
0.0293685
0.307256
0.33578
0.061856
0.442073
0.0186682
0.059839
0.238913
0.183393
0.0740062
0.0562964
0.0234872
0.280254
0.372261
0.0871275
0.123996
0.179178
0.0561171
0.0582454
0.0144624
0.0483371
0.274643
0.194412
0.120712
0.0400097
0.0846056
0.239119
0.251448
0.0558176
0.0330101
0.0415487
0.0266124
0.0337492
0.328525
0.0588411
0.0161124
0.112197
0.0462496
0.234631
0.303359
0.160832
0.572001
1.68095
0.0514875
0.237539
1.0642
2.39657
1.31673
0.247189
0.0760348
0.380333
0.296874
0.758259
2.29846
2.86027
1.21154
2.55269
1.01221
0.0605787
0.0536621
0.0489033
0.209359
0.0630644
0.63262
0.0947502
0.304083
0.399613
0.0966263
0.99698
1.41493
0.291881
0.567146
0.881078
3.38557
0.299489
1.02247
0.565316
0.32821
1.72595
0.55604
1.10808
1.40014
0.834512
1.70082
0.557781
0.788343
0.240837
0.328255
0.362165
5.36373
0.29681
0.161806
0.0944094
1.68007
1.31953
0.109008
1.53951
1.83537
0.0622646
0.0328783
0.311808
0.312824
0.0440349
0.407012
0.0191669
0.0527475
0.103828
0.0204193
0.276091
0.249151
0.0353902
0.328888
0.123064
0.138502
0.213906
0.0574305
0.0759645
0.0652509
0.0308655
0.362317
0.0487049
1.24307
1.4344
0.223261
0.444056
0.482655
0.362259
1.05065
0.0970727
1.34274
1.29731
1.56757
1.06138
1.42078
0.352088
0.0415428
1.46517
0.875975
0.441176
1.77899
2.28133
1.88397
0.0615212
1.84212
0.751198
0.204794
1.87024
0.350131
1.65999
0.126565
0.296058
0.0546875
1.91609
0.184249
1.54803
1.01382
0.09393
3.17249
0.0872442
3.27257
0.23195
0.0494112
0.0436776
2.21897
0.0431326
0.0626325
0.200185
0.209001
3.06449
0.315668
2.05641
0.373507
0.378282
0.85663
1.55987
0.0666112
0.280455
0.287153
2.29681
1.06146
0.278929
0.0787995
1.29595
0.43523
1.78488
0.308147
0.247224
0.0313761
0.333147
0.481767
0.0841288
1.62789
0.900343
0.0112156
0.104257
3.22376
2.71067
0.325387
1.61556
1.98921
0.0320435
1.75978
1.09785
1.28066
1.73331
1.29221
0.221198
2.16189
0.0676496
0.349241
0.432578
1.80585
0.247313
0.269931
0.422678
1.05283
1.07704
0.199669
0.064875
0.265576
0.817795
1.47729
1.70299
4.57064
1.63362
0.619386
1.50505
0.290411
0.742239
0.71223
0.969616
1.55079
1.0609
1.17437
1.67301
0.990875
3.27385
1.2162
0.519737
1.24366
0.942711
0.448089
0.62497
0.17603
2.95456
0.713314
0.488477
1.48774
0.284448
1.2334
0.793075
0.789489
1.83802
0.393163
0.908343
0.526562
0.0759272
0.111363
0.459784
1.51315
0.226595
0.060404
0.316547
1.69352
1.81191
2.63308
1.9527
1.97098
2.78215
1.94885
0.205587
2.00282
1.90179
2.80799
1.80911
1.76938
1.91757
1.98498
1.79757
1.94094
0.706272
0.686738
0.204271
1.32507
0.572292
0.196585
0.184301
0.34879
0.052864
0.123877
0.713842
1.09231
0.445007
0.164571
0.224527
2.19257
1.03028
1.46124
0.59511
0.21622
0.21205
0.169669
0.542569
0.695258
0.36897
1.24149
0.48622
0.41875
0.0850868
0.335892
0.0585402
1.25422
0.11048
0.32677
0.0860223
0.0300002
0.524014
0.182922
0.192356
0.174812
0.180263
0.202143
1.38891
0.19113
0.2459
0.234173
0.276029
1.20212
3.58897
0.189113
1.51933
0.998881
0.213927
3.63051
0.770754
0.211348
3.40952
1.14484
1.7268
0.181771
0.326834
2.04073
3.59478
1.62795
0.196393
0.202944
0.217796
0.303953
0.270585
1.99585
0.211509
0.432802
0.72712
0.154702
0.26553
0.7373
0.252446
1.31102
1.42228
1.08928
1.87182
2.93575
0.222767
3.10912
0.143957
0.648124
1.20105
0.697229
1.99178
0.290074
1.78659
1.48342
0.705921
0.750581
2.24003
1.71402
0.212009
1.19695
1.72545
0.313679
1.40778
0.675008
0.320819
0.29391
1.97714
0.383919
1.74688
1.29593
1.31228
0.361219
0.82432
0.171525
1.35908
0.716088
0.641666
0.712521
1.94734
0.222029
0.363961
0.0629033
1.3417
0.2388
0.367716
0.62079
0.243287
0.581082
0.209723
0.489826
0.238103
0.33193
0.191723
0.551442
0.503629
0.589131
0.99818
0.708122
0.418232
0.869547
0.672097
0.623167
0.168886
0.263975
0.159611
0.288396
0.141969
0.876281
0.0428773
0.296504
0.390268
1.93106
0.332388
0.232457
0.233395
0.884837
0.0647095
0.218222
0.294124
0.47587
0.235666
0.252405
0.541851
0.672711
0.389856
1.3232
0.0733091
0.370318
0.453812
0.058941
0.753887
0.578298
0.289971
0.117035
0.507976
0.104875
0.280933
0.400742
0.868966
0.621281
0.0532694
0.521982
0.0651529
0.459992
0.181463
0.134977
0.510602
0.474354
0.513725
1.14558
0.0740938
0.348295
0.0810793
0.496039
0.311612
0.54731
0.0652159
0.383135
0.215995
0.0643618
0.353559
0.309312
1.95149
0.291406
0.255741
0.497385
0.0963459
0.0668806
1.35364
1.38084
1.05526
0.926536
0.0719341
0.334989
0.576197
0.537542
1.03438
0.0349196
0.730519
0.0391403
1.34638
0.568864
0.378109
0.473606
0.93118
0.831421
0.397326
0.196954
0.0621865
1.4454
0.922544
0.9212
0.52854
0.659104
0.382391
0.164185
0.0687213
1.87073
0.300022
0.341053
1.50112
1.62123
0.78495
0.891297
0.200656
1.32941
0.312864
0.499415
0.877707
0.980026
0.301444
1.02908
0.850587
0.811668
0.585857
0.938715
0.786282
0.448376
0.145367
0.0717675
0.985668
0.24665
0.427752
1.4582
1.47885
0.0564291
1.29868
1.34952
0.41071
0.218533
0.552769
0.221656
0.642093
0.795074
1.30657
1.14314
0.294357
0.584397
0.589072
1.60575
0.419819
1.75515
0.28934
0.756533
0.947548
0.837405
0.454635
0.634272
0.47212
1.04352
0.624489
0.419411
1.12402
0.433008
0.969476
0.453105
0.704132
0.883472
0.744208
0.420174
0.0915274
0.0821686
0.596526
1.92453
0.252049
1.50852
1.41269
1.43656
2.18438
0.975405
0.689298
0.332504
0.492658
0.0504232
1.3457
0.417032
0.782551
2.53221
0.206395
0.299736
4.35051
0.184411
0.327564
0.906286
0.684944
0.950239
0.827354
0.584594
2.52717
1.29406
1.04027
1.10005
0.415013
0.460386
0.490316
0.389931
0.249276
0.319223
0.119007
0.146755
0.937467
0.423057
0.0830481
0.0790933
2.35963
2.35618
0.604923
0.134262
4.07708
3.50585
0.65117
0.18682
1.67373
0.917314
0.630844
0.323178
0.04474
1.23427
0.402046
0.243047
0.59192
3.67762
2.14707
1.20962
0.582224
3.85835
1.98614
0.953107
0.21441
0.735644
0.76015
0.325271
0.0734762
0.115826
0.121024
0.249295
0.99572
1.55951
0.484399
0.343217
0.922681
1.18326
1.56224
2.26787
1.68913
1.57623
0.250738
1.24334
0.0627305
0.0610323
1.53701
2.64965
2.74834
3.45616
1.44698
1.28935
0.424065
0.313517
0.294379
0.477401
0.202083
0.394488
0.0684975
0.0820823
0.0959935
0.0826509
0.108891
1.38474
2.68536
0.505066
1.98562
0.431176
0.779344
0.294753
0.4771
0.727824
0.154668
0.630765
0.166815
0.372141
0.226008
2.82913
0.624756
0.316364
0.0470717
1.46087
0.340676
0.229548
0.464979
1.63226
1.93175
0.835133
0.641273
1.59772
1.36373
0.484777
0.358557
0.035574
0.0452454
0.579213
0.33112
1.60654
0.598045
0.191922
0.06936
1.2978
0.389739
0.580018
3.09864
0.292013
0.602493
0.0801189
0.0906287
0.291518
1.80997
1.71731
1.03813
0.062064
0.35705
2.20365
2.42656
0.241102
0.456967
0.406613
0.475063
0.566228
0.532341
0.114033
0.30236
0.231898
0.0479901
0.327893
0.420381
0.50289
0.294142
0.524872
0.564507
0.241529
0.490382
0.496614
0.353762
0.501516
0.974686
0.194146
0.43567
0.883341
1.81027
0.126949
2.58244
0.596364
0.465927
1.12005
0.290015
4.34546
0.763994
1.73617
0.0725504
2.5259
0.387733
0.831547
0.247825
0.0326201
2.74286
0.329884
0.915825
0.472982
0.604133
0.437957
0.217742
1.86756
1.51181
1.56257
1.47489
0.495989
0.658771
0.418111
0.072271
0.0819593
1.43559
0.522794
0.604809
0.391558
0.0901183
3.81157
0.586419
1.86453
3.60553
1.82292
2.1495
1.21605
0.0873041
0.602895
0.534316
0.533384
1.08983
1.55964
0.273324
0.443311
0.950182
0.47738
1.58774
0.443553
0.750015
2.15067
1.52489
0.401586
0.624166
0.451677
2.29788
0.568174
0.615486
1.42728
2.91653
0.661065
0.322234
0.307728
1.86707
0.681627
0.606167
0.902315
0.850533
0.59894
0.192574
0.666006
0.92972
3.76225
0.852941
0.31107
0.216051
0.0636211
1.62326
0.527459
0.80333
3.02111
1.97964
3.02453
0.182952
0.859266
0.546712
1.59922
0.237951
1.78289
1.04314
0.248994
0.0716999
0.81349
0.0586584
0.323942
1.8703
2.16232
1.65589
2.45309
1.20533
1.11996
0.26865
0.507037
3.61853
1.21686
1.84452
4.3468
0.20197
0.531756
1.7854
3.66088
1.65145
1.29257
1.32225
0.279998
0.311671
1.00488
0.299537
0.33409
1.04213
0.0862107
0.873525
0.134615
2.18961
0.134128
1.32387
0.298728
0.894065
0.412001
1.75774
1.01164
1.63972
0.0962601
4.28772
0.103747
0.154804
0.288309
0.0407598
0.159283
1.6438
1.76746
3.46873
0.663137
2.99531
4.24116
0.482516
1.14809
0.137841
0.30226
0.181438
0.0372809
1.01999
1.4683
0.186917
0.174104
1.74477
1.51421
0.452443
1.00948
0.36929
1.03093
0.223783
3.03107
0.350451
0.943117
0.0669911
0.58887
0.351173
2.96764
0.37775
1.56841
1.8403
0.324017
0.348719
2.0491
0.309222
0.152506
3.42384
0.230946
0.250797
1.58733
0.313648
2.25153
0.350638
1.51016
2.58841
0.0838523
0.45869
0.398343
1.63177
2.80388
0.291205
0.91414
1.19641
1.78243
0.359679
0.29386
0.274174
0.298509
0.0564254
0.0815817
0.897473
1.70232
0.337136
0.254383
2.99859
0.294466
1.26373
2.00402
0.675843
0.204824
0.89586
3.03866
0.185774
0.03323
0.0592998
0.979827
0.753944
0.976907
0.339015
0.283562
2.62676
2.28263
0.455552
1.24196
3.20647
2.16364
0.898
1.9844
0.0736809
1.5522
1.19026
0.386058
0.0601948
0.0838792
0.543059
0.245392
0.386029
1.35871
0.22513
1.21554
0.351242
0.411227
0.844444
2.49291
0.155052
1.29493
0.280298
1.54762
2.19123
1.41688
0.360634
0.422603
0.070114
0.0817145
1.18996
0.421877
0.902022
1.44323
0.423499
0.889511
4.80565
1.52016
1.8701
0.0473074
2.82749
0.0386732
0.231757
1.05146
1.36427
0.852259
0.190543
0.237061
0.374664
1.62406
0.0538019
0.244217
1.26222
3.38876
0.440932
0.53667
0.257995
1.81141
1.37783
0.608236
0.294978
0.980471
1.26843
2.36684
1.29055
1.57769
0.205605
1.52048
0.644727
1.56098
0.266838
0.781
0.275592
0.473149
0.0691211
0.40316
0.720785
0.34261
0.95419
0.0306289
0.369324
2.27597
0.896365
0.0806631
0.308316
0.846234
1.22465
1.44906
0.761566
0.0772406
0.304298
0.0717011
0.0738164
0.315404
0.679918
1.11858
0.0910243
0.652459
0.935806
0.197521
0.212372
1.14476
0.304478
3.00075
0.334264
0.0593415
0.0737292
0.0989254
0.840478
0.188967
0.306701
0.0364369
0.605374
0.142507
0.103331
0.517018
0.725121
0.230312
1.25622
0.538414
0.204548
1.7241
0.252348
0.865258
0.314733
0.0626195
0.114276
0.115264
0.244881
1.52339
0.279823
1.51291
1.84497
0.820103
2.0405
0.244441
0.238841
0.304673
1.20033
0.618338
0.529877
0.372076
0.0610181
0.0794334
0.197459
0.111583
2.38718
2.30984
0.683676
0.288446
0.0885975
0.251067
0.0306376
0.546261
0.250979
2.88846
0.663633
1.32747
3.30965
0.0496692
0.283143
0.312893
2.97027
0.185962
3.0601
0.24383
0.930289
0.115369
0.247644
0.147776
0.416088
0.839946
0.63504
0.676228
0.666556
0.253327
0.404198
0.0792205
0.242669
0.323379
2.24236
1.40611
0.902649
1.46725
0.454349
1.75569
0.274284
1.16042
0.295024
0.755126
0.235824
0.756588
1.94058
3.03305
0.378872
0.112083
0.300556
0.0515751
0.124366
0.564425
0.195994
0.308031
0.482195
2.81825
0.256313
0.19187
0.889888
0.260361
0.619411
1.5562
1.63267
1.02932
0.298355
0.533626
0.670288
0.257074
0.332231
0.16364
0.750334
1.71036
0.0545864
0.459363
0.809662
0.158348
0.384029
0.103708
0.0675325
0.0701526
0.017709
0.258233
0.0422489
0.230243
0.218562
0.282949
0.129327
0.032777
0.0582425
1.70063
1.76255
0.359187
0.909292
0.285986
0.76552
0.507274
2.48941
1.57746
0.91853
1.65821
1.95552
1.9147
2.20797
3.92684
1.15784
0.065999
0.0670677
0.0522356
0.0731739
0.0687349
0.264489
1.55854
1.64319
0.0311881
0.0552974
0.266377
0.560353
0.308576
1.97238
0.119967
0.0412296
1.47555
0.304766
0.903524
0.896288
0.364144
0.31874
1.4189
0.497844
3.73918
0.0512388
0.424419
1.33323
1.48371
1.443
1.54199
0.0248997
0.100999
0.359954
0.157098
0.0920803
0.472192
0.0934111
0.675441
0.403944
0.521829
0.211146
0.0533354
0.417869
2.19056
2.91991
0.0786626
0.316282
0.0643152
0.319418
0.875692
0.256948
1.62504
0.868325
0.102912
1.1039
0.448687
1.16343
3.63656
0.88046
1.4169
0.79793
0.221676
0.273915
1.20604
0.906459
0.225587
0.0563613
3.16634
0.284625
2.51577
0.399006
0.165798
0.326543
1.30698
0.903425
0.155578
0.205577
1.16657
0.213562
0.453789
0.24356
0.496589
0.770864
4.23932
0.196697
1.19283
0.333816
0.0664897
0.0735852
0.0335731
0.358747
0.032804
1.85805
0.285887
0.76254
3.67187
0.792618
0.532804
1.72766
0.27274
0.201792
1.97652
0.296588
0.958448
1.72461
0.241591
4.4131
0.373534
0.0705651
0.0792134
1.90026
0.187933
0.305857
0.107675
0.1321
0.32307
1.35536
1.72578
0.674986
0.323214
0.428942
3.99818
1.12901
0.58984
0.860936
0.283824
0.362992
2.06027
1.87422
2.03631
1.05716
0.084186
0.0984919
0.249016
1.3888
0.422354
1.55923
0.690011
0.780138
0.602742
0.683154
1.6538
0.157343
0.0648051
0.347184
0.0858557
0.29246
0.865898
0.397098
0.471086
0.250147
0.666041
1.64747
2.36513
0.421193
0.973795
0.967209
0.0797967
0.24402
0.110608
1.89667
0.174989
0.775059
0.331731
0.308312
0.225306
1.17716
2.31907
0.207412
0.386435
0.586902
1.88003
0.175951
0.151127
0.0674266
0.413517
0.98399
0.266871
0.360359
1.64662
1.17862
1.89914
0.300566
0.218143
1.88483
1.8082
1.67717
0.491927
0.477466
0.0106104
1.1503
0.00972021
0.427166
0.977087
0.740112
0.376705
0.655739
0.655733
0.498743
0.833829
0.0133053
0.473262
0.170087
0.0101594
0.0668293
0.543183
2.12124
1.28343
0.406761
0.316083
0.102808
0.152885
0.0193753
0.0103294
0.0429338
0.0943639
0.469079
1.84514
0.474269
0.672451
0.210323
0.858195
1.78811
0.632127
0.094182
0.0879565
0.189768
4.01546
1.64548
1.26663
0.166381
0.0699249
2.41016
0.696866
0.351683
0.902501
0.716592
0.0491071
3.31529
0.404076
0.440772
0.201965
2.1608
1.27158
0.280421
1.75645
0.036364
0.190588
0.552361
0.262575
0.139675
0.0495953
0.143701
0.300767
0.140166
1.08433
0.349125
0.245171
1.14354
0.571429
0.304146
0.837932
1.01476
0.312246
4.00857
0.0431027
0.524572
0.0704973
0.473673
1.24291
0.0953437
0.376521
1.79508
0.196497
0.565022
0.102987
0.179902
0.590697
1.96293
1.1929
2.93816
0.40468
1.00776
0.119244
0.455207
2.47876
0.209154
3.79456
0.436256
1.08236
0.417224
0.218331
1.21614
0.725846
1.34722
0.349378
0.0639886
0.0662755
0.870943
0.290872
0.189935
0.136962
0.485656
0.515177
0.117849
0.0386804
0.192127
0.965199
3.27181
0.19167
0.0385607
0.350126
1.53335
0.523131
0.419101
0.233537
1.50655
0.271409
0.167045
0.965022
2.90834
0.0355732
0.793228
1.22127
1.91329
0.857586
0.922341
0.502445
0.187043
0.056574
0.118106
0.307933
0.139362
0.201144
0.304092
3.07179
1.74956
1.1653
3.4134
0.92891
1.42407
0.535654
0.539016
1.23646
0.258875
0.551388
0.19837
1.67103
3.99062
2.54127
1.1698
1.55071
0.301833
0.945589
0.612556
1.74387
0.0364334
0.0823226
2.31836
0.499666
0.652439
1.99438
2.65929
0.209916
0.992849
0.841951
2.99467
1.38502
3.35567
0.11568
1.80575
0.054365
0.388807
0.0708999
1.60138
1.81331
1.2162
0.115158
0.0363085
2.97251
0.125014
0.0598855
0.944386
2.03632
0.569741
1.42129
4.07658
1.49153
0.078563
0.0841895
1.29686
1.35576
2.12286
1.51014
1.99769
0.795634
0.714842
3.70212
2.15852
0.065422
0.0717551
0.3358
0.0772895
0.0735948
0.46622
2.44402
0.657607
0.181599
1.3067
0.805732
0.237689
2.79954
2.01244
2.82634
0.272405
0.532095
0.289808
0.932537
0.430008
1.81366
3.46724
1.9123
1.28375
2.3304
1.32021
0.984604
0.277689
0.0645431
2.68233
2.63238
0.201354
0.64416
0.0496457
0.0979899
0.615812
1.27608
1.88105
1.98111
0.266817
2.72369
0.053764
0.369169
0.078274
0.258365
0.0442647
0.809848
1.71159
1.4564
0.291342
3.55664
0.0468657
0.178133
2.9931
0.914968
1.75876
0.324457
0.318331
3.49895
1.7852
0.236258
0.219
0.582011
1.18755
0.191921
1.18413
0.877999
0.503723
0.617612
1.58055
1.89685
0.39647
1.48662
0.0215497
0.227904
1.14219
0.216865
0.362668
2.73836
0.30973
2.12675
1.70245
0.0868403
0.0586857
0.0634415
0.406478
2.07426
1.94665
1.96261
0.236425
0.552611
0.229088
0.854869
0.706573
0.488027
0.216174
0.250168
0.265949
0.342181
0.0311361
0.0246518
0.095579
2.26265
1.71963
0.311341
1.31971
2.74409
2.82598
2.06936
1.41118
0.19653
1.03399
0.347983
0.185578
1.45401
3.19843
0.22305
0.198941
0.0752706
1.6197
1.61871
2.25913
0.413294
0.268901
1.17471
0.408532
0.109738
0.138917
0.0277471
0.0846348
0.28113
2.22919
1.20102
0.2339
2.33583
1.05902
1.55006
2.22938
0.496966
2.11112
0.259563
0.666135
1.15245
1.43321
1.5973
0.0738538
0.0639656
1.44163
0.151807
0.132008
0.202239
1.40055
0.537218
0.526668
0.0820262
0.517656
0.0865577
0.528142
0.502934
0.508834
0.509359
1.76586
1.82355
1.21959
0.109996
1.07226
0.550248
0.0758482
0.833731
0.0704814
0.251094
0.258211
0.386022
1.8327
0.795823
0.294175
0.974926
0.0689454
0.46552
0.0742615
0.117355
4.39917
1.24422
0.366183
0.0690117
0.0581665
0.477528
0.020745
0.050703
0.433244
0.0697622
0.0536703
0.413646
0.0735733
1.19717
0.238207
0.134279
0.564767
1.11964
0.815787
0.606556
0.278712
0.801695
1.36198
1.99843
0.911011
0.0657451
1.2889
2.17012
2.19183
1.08495
0.521246
0.0964035
0.0209761
0.0642518
1.16914
2.99209
1.26271
0.194056
0.84891
0.25366
0.393294
0.855088
1.32531
1.88603
0.241262
2.37092
0.0202842
0.263951
2.7445
1.06959
0.176787
0.505986
0.733347
1.51359
1.24435
0.968753
0.683356
0.160604
0.321321
0.288403
0.230042
0.317642
0.135768
1.68377
1.18401
1.74226
0.970893
0.940245
0.175159
0.364308
0.351775
2.17962
1.00076
0.937786
0.30852
3.73466
0.26492
0.34377
1.64458
0.0724836
0.301574
0.536906
2.60692
3.05627
1.1427
1.52036
1.83954
1.50744
0.275988
0.292259
0.0335527
0.237689
0.314894
5.18714
3.97477
0.303585
2.59606
1.05116
0.356964
0.0502175
0.621743
0.100879
0.169356
0.0583021
1.64343
1.7857
0.916026
1.21049
1.24328
0.0369813
0.1353
0.0714261
0.258024
0.785409
1.27247
4.03058
0.460175
0.320707
0.0224121
0.430196
3.45134
1.45853
0.534202
0.31559
0.113284
0.342114
0.225476
0.17604
1.49234
1.29174
0.08069
0.425581
0.0774558
0.528942
0.841789
0.397447
2.35353
0.33229
2.19931
1.14597
2.35241
3.54146
0.107346
0.158486
0.194084