/*--------------------------------*- C++ -*----------------------------------*\
| =========                 |                                                 |
| \\      /  F ield         | OpenFOAM: The Open Source CFD Toolbox           |
|  \\    /   O peration     | Version:  v1912                                 |
|   \\  /    A nd           | Website:  www.openfoam.com                      |
|    \\/     M anipulation  |                                                 |
\*---------------------------------------------------------------------------*/
FoamFile
{
    version     2.0;
    format      ascii;
    class       surfaceScalarField;
    location    "0.4";
    object      phi;
}
// * * * * * * * * * * * * * * * * * * * * * * * * * * * * * * * * * * * * * //

dimensions      [0 3 -1 0 0 0 0];
oriented        oriented;


internalField   nonuniform List<scalar> 
11117
(
-3.21437e-05
3.97421e-05
1.61643e-05
-2.37627e-05
2.83365e-05
0.000172958
-2.19628e-05
-0.000179331
-7.29295e-05
9.48974e-05
-6.54493e-06
-1.5423e-05
-0.00055927
-2.36647e-06
0.000248496
0.000313141
0.000280186
0.000338332
-0.000251937
-0.000366581
-2.83199e-05
5.05187e-06
-0.000132616
0.000155884
-0.000825434
-0.000124595
0.000701678
0.000248351
0.00020359
7.57907e-06
-0.000163709
-4.74598e-05
0.00124156
0.000243096
-0.000891691
-0.000592961
0.000427458
-0.00033772
4.54073e-05
-0.000135145
-0.000880794
0.000953034
0.000303498
-0.000375738
-6.97388e-05
-0.000172354
7.74021e-05
0.000164691
-0.000570942
-0.000216214
0.000344476
0.00044268
0.00059727
-0.000922988
0.000535801
-0.000210082
5.56e-06
-2.32045e-05
9.81678e-05
-8.05234e-05
-5.0533e-05
3.32956e-05
-5.34685e-05
7.07059e-05
-0.000141588
0.000360153
-1.45789e-05
-0.000203985
-0.000736131
0.000818505
0.000684498
-0.000766872
0.000134666
-3.86719e-05
-9.0434e-05
-2.63006e-05
1.393e-05
9.1933e-05
-7.95625e-05
-0.000338946
0.000183142
5.95752e-05
9.6229e-05
-1.39485e-05
1.19889e-05
8.95163e-05
-8.75567e-05
0.000679866
0.000512963
-0.000485405
-0.000707423
-6.85794e-05
-8.08026e-05
0.000102576
4.68057e-05
0.000109423
9.67523e-05
-0.000171573
-3.46021e-05
0.00085614
-0.000886217
0.000300294
-0.000270217
0.00026603
-0.000326057
0.000845631
-0.000785605
-0.000316803
0.000379018
-0.000448731
0.000386515
0.000185254
-8.76458e-05
0.000984586
-0.00108219
-2.5632e-05
1.39215e-05
-1.71744e-05
2.88849e-05
-8.1119e-05
0.000244893
-1.17353e-05
-0.000152038
-3.77455e-05
-0.00020242
0.000163708
7.64582e-05
-0.000118155
-0.000449246
0.000378224
0.000189177
0.000206452
4.12751e-05
-0.000109432
-0.000138295
0.000303218
-6.22402e-05
4.02519e-05
-0.00028123
-0.000237071
5.54597e-05
3.35162e-05
0.000148095
0.000595753
-0.000816991
0.000997044
-0.000775806
2.09542e-05
-0.000138658
2.94722e-05
8.82313e-05
0.000664111
-0.000182546
-0.000818302
0.000336737
0.00024993
0.000239806
-0.000296249
-0.000193487
0.000117386
2.49663e-05
-7.23886e-05
-6.99634e-05
-0.000100425
-0.000121
0.000124096
9.73296e-05
0.000987788
0.000869395
-0.000873304
-0.000983879
-5.10835e-05
2.70498e-05
-1.61179e-05
4.01516e-05
-8.13522e-05
0.00017995
3.60678e-05
-0.000949084
0.000751034
-0.000227915
0.000425965
-0.000412173
0.00030859
-9.63315e-05
0.000199915
0.000314625
-0.000386341
0.000214687
-0.00014297
-0.000288593
0.000312737
-0.000206327
0.000182183
-0.000125632
-3.58185e-05
0.000161451
5.35736e-05
1.65163e-05
-7.00899e-05
-0.000350133
-0.00114983
0.000521494
0.000978472
6.13958e-05
1.008e-05
8.76383e-05
-0.000159114
-0.000106588
0.00011425
9.34713e-05
-0.000101133
1.5898e-05
-1.5898e-05
0.000425534
0.000177233
-0.000557116
-4.56512e-05
0.000163314
8.78788e-05
-0.000226208
-2.49846e-05
-0.000171054
-9.58589e-05
0.000243037
2.38758e-05
0.000869505
0.000113269
-0.00134206
0.000359283
-0.000422082
0.000718466
0.000559756
0.000847773
-0.000861696
3.99645e-05
-2.60422e-05
0.000168788
-9.01916e-05
-7.79412e-05
-6.55521e-07
-0.000119994
-0.000132843
0.000171718
2.6919e-05
-2.65678e-07
-6.43989e-05
0.000113086
-3.87392e-05
-0.000192502
-4.56837e-05
-0.000161967
0.000132865
7.47851e-05
0.000100167
-9.2344e-05
3.1277e-05
-3.90996e-05
7.40551e-05
-0.000219783
0.000145728
-0.000632593
-0.000377382
0.000466372
0.000543603
2.8942e-06
4.15011e-05
1.21078e-06
-4.56061e-05
0.0004871
-0.000146716
-0.000690516
-0.000169066
0.000156448
0.000112784
-0.000278088
-0.00129118
0.001332
0.000237272
4.01836e-05
-5.20243e-05
-2.40041e-05
3.58449e-05
-0.000749786
-0.000618938
-0.00021343
9.6958e-05
0.000317572
-0.0002011
0.000135973
-4.7715e-05
-8.82578e-05
-0.000862071
-0.000162866
0.000138719
-5.23488e-05
9.48041e-06
-8.2151e-06
-7.25303e-05
-1.50864e-05
8.76167e-05
2.65548e-05
3.13244e-05
-5.33754e-06
-5.25416e-05
9.26638e-05
1.61694e-05
1.17111e-05
-0.000120544
1.31639e-06
6.47877e-05
-0.000142986
7.68822e-05
-0.000321206
0.000392651
0.000266421
-0.000337867
-8.56153e-05
-0.000213641
0.000171449
0.000127808
6.70227e-05
-0.000546731
0.000479708
-9.94553e-06
-0.000543717
0.000553662
3.11674e-05
-0.000485534
0.000454366
8.6313e-05
-1.4532e-05
-1.0534e-05
-6.12469e-05
-0.000138291
0.000141566
0.000361834
-0.000365108
0.000522372
-0.000155785
7.92303e-05
-0.000445817
0.000656318
5.15928e-05
-5.24605e-05
-0.00065545
0.000784499
-6.2281e-05
6.38799e-05
-0.000786098
-0.000698672
3.76583e-05
-2.69505e-05
0.000687964
-0.000679712
6.07724e-05
-2.80663e-05
0.000647006
2.27049e-06
0.00021313
-0.00030763
9.22293e-05
0.000583927
2.22674e-05
-2.24043e-05
-0.00058379
0.000754863
4.87113e-05
-3.56667e-05
-0.000767908
0.000628668
4.30439e-05
-2.24836e-05
-0.000649228
0.000819189
5.68292e-05
-2.82445e-05
0.00040632
7.85011e-05
-0.000426047
-5.87744e-05
-8.36034e-05
8.48847e-05
5.56516e-06
-6.84644e-06
0.000302659
-0.000374566
-0.00114998
0.00122189
0.00080516
0.000549899
-0.000877865
-0.000477193
1.36479e-05
-0.000195666
0.000138408
4.36104e-05
-0.000928728
0.00030344
0.000858323
-0.000233035
3.63804e-05
-5.03776e-05
0.000129115
-0.000115118
2.2305e-05
3.39228e-07
3.0869e-05
-5.35133e-05
-0.000233482
3.85517e-06
9.30642e-05
0.000136563
-4.84306e-05
2.82177e-07
-4.20037e-06
-0.000338769
0.000171125
0.000165213
2.43025e-06
1.82748e-05
0.000148789
-3.85044e-05
-0.00012856
-0.000420016
0.000344937
-0.000194062
0.00026914
-3.43263e-05
4.5429e-05
3.28517e-05
-4.39544e-05
0.000114163
0.000573159
-0.000660844
-2.64776e-05
0.00011826
0.000652186
-0.000734228
-3.62183e-05
1.5054e-05
-1.6476e-05
-1.52719e-05
1.66939e-05
-0.000569457
0.000532302
0.000951222
-0.000914066
3.33864e-05
-1.86623e-05
-0.00087642
-0.00103688
9.32793e-05
0.000959118
-1.55141e-05
0.00100564
-0.000710707
-0.000864394
9.10511e-05
-7.03708e-05
-2.06803e-05
0.000135688
-0.000145409
0.000197952
-0.000188232
-0.000292075
-0.000238158
8.32207e-05
-0.000113401
-8.79724e-05
0.000118152
-0.000360548
0.000412259
0.000629732
-0.000681443
-0.000315242
0.00044503
-0.000335545
0.000205757
1.23033e-05
0.000143566
-0.000131909
-2.39606e-05
0.00056002
-0.000845503
-0.000108667
0.00039415
5.18273e-05
-5.55209e-06
4.73326e-06
-5.10085e-05
-0.000114898
0.00028195
-5.01316e-05
-0.00011692
0.00024797
-8.26804e-05
-0.000227759
6.24692e-05
6.34426e-05
-9.9315e-05
-1.04234e-05
4.62957e-05
-0.000821377
0.000103395
-0.000144089
-0.000301329
0.000264434
-0.000716278
0.000753174
2.77105e-05
-2.37056e-05
-2.72093e-05
-0.000429602
3.96247e-05
8.94151e-06
0.000381036
4.90884e-05
0.000142315
-2.26152e-05
-4.14361e-05
-1.87636e-05
1.82468e-05
4.19528e-05
1.07713e-05
0.00014833
3.26328e-05
-0.000191734
-7.89916e-05
-0.000170957
0.00011078
0.000139168
0.000293635
-0.000597648
0.000651961
-0.000347949
0.00015276
-0.00013641
8.41196e-05
-0.000100469
0.00079608
-0.000266054
-0.000443146
-8.68793e-05
-5.06329e-05
-1.07449e-05
2.28265e-05
3.85513e-05
-6.28885e-06
0.000382353
-0.000144384
-0.00023168
0.000324496
-0.000189791
9.82848e-07
-0.00043749
0.000980109
-0.000562598
1.99793e-05
0.000170619
0.000226869
-0.0002454
-0.000152088
-0.000274498
0.000489166
6.24919e-05
-0.00027716
0.000910991
0.000440977
-0.000602448
-0.00074952
-5.23918e-05
3.39585e-05
1.31207e-05
5.31257e-06
-0.000519061
-0.000102619
-0.000307049
9.65304e-05
-0.000172699
-9.79946e-05
0.000174163
-0.000597941
-0.000382478
0.000616906
0.000363514
0.000386823
-0.000107753
-0.00027907
0.000342906
2.7991e-05
7.06988e-05
-9.86898e-05
0.000970799
-0.000234073
-0.000736726
-6.4661e-05
-0.000225521
8.41088e-05
0.000141412
6.52705e-05
-0.000554104
0.000488833
0.000375515
-0.000522335
0.00014682
-8.74468e-05
0.000565691
-0.000478244
-0.000465595
0.000530339
-6.47442e-05
-0.000465099
0.000463324
1.77448e-06
-0.000346965
-6.481e-05
0.000411775
0.000400431
4.87958e-05
-0.000449226
-0.000323346
-1.54226e-05
5.14767e-05
-3.32019e-05
4.15753e-05
-6.87836e-05
2.72083e-05
0.0002112
0.000192116
-0.000403316
0.000162426
-0.000242269
7.98426e-05
-0.000147428
0.000208439
-6.10113e-05
-0.000145954
0.00024732
-0.000101366
-0.000752175
0.000938099
-0.000185924
-9.46503e-05
5.6101e-05
3.85493e-05
-8.8338e-05
1.87543e-05
6.95837e-05
0.00014121
-0.000331364
0.000190154
0.000930193
-0.00101689
8.66935e-05
-0.00028651
0.000294543
-8.03256e-06
-7.2099e-05
0.000123871
-5.17719e-05
0.00029564
-0.000319463
2.38226e-05
-0.000270254
0.000314933
-4.46784e-05
-4.27049e-05
0.000134146
-9.14412e-05
-0.000156534
-9.66888e-05
0.000253223
-0.00010131
1.77066e-05
-0.000228973
0.000146266
8.27071e-05
-0.000378565
0.000323076
5.54887e-05
-8.35102e-06
9.32357e-05
-0.000213517
-0.000667277
-0.000162183
-4.02374e-05
-0.000361884
-8.73625e-05
0.000295524
-5.0631e-05
0.000365584
-0.000117614
-4.33726e-05
-7.15254e-05
-0.000168457
6.69661e-05
0.000101491
-0.000498931
0.000119245
0.000379686
-0.000152223
0.000113551
-0.00106648
0.00136914
0.000747291
-2.13766e-05
-0.000725915
-0.000948068
-0.000201764
0.000119821
0.000194804
-0.000121224
2.31513e-05
9.80723e-05
-0.000346712
-6.54609e-05
-0.000804121
-0.000144962
0.000180234
-0.000293051
0.000112818
3.12394e-05
-1.29036e-05
1.37659e-05
-3.21017e-05
-0.000146919
7.50173e-05
0.000601426
-0.000529524
-0.000847457
0.000861536
0.000630932
-0.000645011
-2.76036e-05
8.50109e-06
4.59264e-05
-2.68239e-05
-0.00116719
0.00112487
-5.15888e-05
9.39094e-05
-0.000242451
0.000204063
-4.90592e-05
0.000463203
-0.000383967
-1.39657e-05
-0.000249402
0.000349788
0.000191637
-0.000292023
-2.57691e-05
1.40408e-05
-0.000132169
0.000143898
0.00023124
-0.00026885
-0.000464373
0.000501984
-0.000136132
0.0001421
5.74747e-05
-0.000205395
5.08082e-05
0.000597172
-0.000442585
0.000777778
-0.000676168
-0.000185412
8.38025e-05
-0.00137821
-3.46505e-05
0.000245672
0.000283369
-0.000353503
7.61835e-05
-6.04886e-06
0.000247689
2.56371e-06
-4.27428e-05
-0.00020751
0.000770905
-0.00021776
-6.19816e-05
-0.000491163
-0.000364948
-0.000261263
4.37963e-05
0.000582415
-9.25635e-05
5.84086e-05
0.0012114
-0.00117725
-8.02108e-05
1.63596e-05
6.38512e-05
5.84486e-05
-0.000196459
-7.82962e-05
0.000216307
9.03635e-06
2.68506e-05
-1.15446e-05
-2.43424e-05
6.5767e-05
-7.10949e-05
1.29742e-05
-7.64634e-06
-7.608e-05
0.000134061
-0.000202075
0.000144095
5.9081e-05
-5.96765e-05
0.000204522
-0.000203927
0.000167165
-0.000222923
1.65637e-05
3.91944e-05
0.000139446
-4.63059e-05
-0.000214852
0.000121711
9.69648e-05
-9.31728e-05
6.1479e-05
-6.52709e-05
3.63966e-05
1.81718e-05
-0.000944093
0.000889525
-6.80412e-05
2.00076e-05
-0.000783118
0.000831152
0.000874554
-0.000878081
6.74057e-05
-6.38787e-05
0.000189048
-0.000289345
-0.000149405
0.000249703
-3.02449e-05
-8.5489e-05
3.15217e-05
8.42123e-05
-0.000141797
2.50947e-05
8.86419e-05
2.80607e-05
0.000158182
-0.000142784
3.20131e-06
-1.85993e-05
5.83729e-05
0.000642997
-0.000356392
-0.000344978
-3.28496e-05
0.000202566
-7.31864e-05
0.00011382
-8.79297e-05
-5.87395e-05
-3.31884e-05
3.98906e-05
0.000164423
-0.000176518
0.000144583
8.6045e-05
-5.411e-05
0.000175149
-0.00010625
0.00010172
5.30963e-05
-0.000545004
0.000491908
5.9596e-05
-0.000610466
0.00055087
3.21241e-05
-0.000468602
0.000436478
9.10075e-05
-9.17678e-05
-4.49235e-05
-0.000488445
-2.71013e-05
5.54818e-05
-7.63517e-05
4.79712e-05
-1.60519e-05
2.75994e-05
-0.000942732
0.000931185
-0.000282246
-0.000514406
0.000582549
0.000214102
0.00103677
-0.000443576
-0.000792464
0.000199273
-0.000650109
0.00115488
-0.000862984
0.000358212
1.64002e-05
-3.92262e-05
5.40655e-05
0.000120813
-7.65527e-05
3.89604e-05
-0.00063954
-7.34769e-05
0.000311738
0.000401279
-7.90936e-05
-0.000229826
6.64693e-05
-1.08903e-05
0.000513701
-3.96072e-05
-9.04281e-06
0.000124879
-3.03394e-05
-8.54968e-05
-7.70058e-05
2.68262e-05
5.01796e-05
-0.000335588
0.000371105
-3.55176e-05
0.000512307
-0.00044179
-0.000345014
0.000110302
-0.000393055
0.000344227
-6.14732e-05
-0.000130947
2.62393e-05
-0.000602253
3.24636e-05
-5.59257e-05
0.000625715
-0.000253441
1.89332e-05
-4.59087e-05
0.000280417
1.76729e-05
-7.76298e-05
0.000195948
-0.000135991
6.0786e-05
9.60489e-05
-0.000118463
-3.83717e-05
-0.000300124
0.000482599
0.000339018
3.08851e-05
-0.00106235
0.00108891
-5.74431e-05
4.03798e-05
4.24893e-05
-1.7102e-05
-0.000123
-8.21587e-05
9.85706e-05
7.51175e-05
-9.60165e-05
-8.79253e-05
0.000108824
4.49411e-05
-4.93164e-05
-2.56753e-05
3.00506e-05
2.25891e-05
0.000275679
1.50021e-05
-0.00031327
-0.000361662
-0.000231992
9.47234e-05
-0.000329573
-6.21445e-05
0.000286528
0.00010519
-8.77372e-05
4.7778e-05
0.000157345
0.000111913
-9.2154e-05
-0.000120183
-0.000374609
0.000219753
0.000404786
-0.000607004
1.46632e-05
0.000598959
-6.61819e-06
-0.000618917
4.6934e-07
0.000629621
-1.11724e-05
9.4979e-06
0.000689887
-0.000669986
-2.93993e-05
-3.79671e-05
0.000591072
-0.000579074
2.59693e-05
-0.000593871
0.0010683
-0.000775754
4.96395e-05
3.25407e-05
-0.000177672
9.54917e-05
0.000147725
-0.000142936
0.000118175
-0.000122965
-0.000155849
3.61471e-05
0.000260595
-0.000140894
3.64127e-05
-1.54305e-05
3.92414e-05
-6.02237e-05
-0.000957094
0.000111937
0.000940198
-9.50412e-05
-9.64302e-05
0.000636838
-0.000687516
0.000147108
-0.000156806
0.000122996
0.000228656
-0.000194846
0.000119557
-7.60391e-05
-0.000185801
0.000142283
-0.000278648
6.59177e-05
0.000681692
-0.000468961
-2.32399e-05
0.00014777
9.12725e-05
-0.000215803
3.59883e-05
-6.97426e-05
0.000126418
-0.000593088
0.000579392
2.09766e-05
-1.14341e-05
1.70122e-05
0.000289686
-0.000241343
1.00294e-05
-1.81157e-05
-2.04982e-05
1.31709e-05
2.5443e-05
4.31736e-05
-1.78209e-05
0.000329719
-0.000355072
4.08236e-05
-5.39877e-06
9.51634e-06
0.000338302
-0.000261024
-0.000454659
0.000771658
-0.000403112
0.000327779
-0.000194397
-4.21913e-05
8.78551e-05
2.95324e-05
2.15437e-05
7.49927e-05
-0.000126069
0.000433927
-0.000710515
-0.000570869
5.11892e-05
-1.60523e-05
-6.94632e-05
-0.000424548
0.000470294
0.00100821
-0.00105396
0.000843155
-0.000169902
-4.75488e-05
-0.000625705
6.4745e-06
9.9742e-06
5.85634e-06
-0.000585151
0.000246979
0.000717191
-0.000230248
6.53078e-05
-6.85417e-05
0.000299477
-0.000828466
0.000714243
-0.000186217
-1.16377e-06
7.07568e-05
0.000116624
-0.000171196
0.000294579
-0.000453823
0.00033044
-0.000748234
0.000665615
0.000614921
0.000191108
0.000315947
3.78853e-05
-5.07952e-05
2.66521e-05
-1.37423e-05
-0.000103444
-0.000306191
0.000227089
-0.000113569
0.000127496
0.000128698
-0.000142625
-0.000113111
-0.000205358
0.000813983
0.000139051
-1.78753e-05
-7.86957e-05
4.97698e-05
-6.15051e-05
0.000149251
6.23975e-05
4.88928e-05
-0.000220545
0.000278993
5.21695e-05
3.44829e-05
2.32856e-05
0.00012298
7.26305e-05
2.10849e-05
0.00022467
-7.23096e-05
-5.42705e-05
2.57411e-05
0.000269899
-4.00555e-05
-0.000230199
-3.85994e-05
-3.34996e-05
-0.000491281
2.61819e-05
1.87629e-05
-0.000157421
-0.000106061
-0.000712241
0.000226475
-0.000232764
-4.6951e-05
-3.83119e-05
-2.39391e-05
-2.58026e-05
-7.08862e-05
-0.000241779
8.9556e-05
0.000370514
0.000607957
-7.81427e-05
3.51327e-05
-6.00726e-06
-2.09483e-05
1.40519e-05
4.6999e-05
-0.000116585
9.90579e-05
0.000533519
-0.000562134
2.54181e-05
3.19619e-06
6.72518e-05
-0.000647735
0.000455888
-2.74987e-05
5.80963e-05
-2.30185e-05
-5.73925e-06
-2.11944e-05
6.86243e-06
2.00713e-05
0.000277443
0.000473591
0.00013055
0.00017804
-8.17046e-05
-0.000304637
6.7526e-05
-7.15332e-05
-2.85939e-05
3.26012e-05
-0.000140296
3.63904e-05
0.000125811
-2.19052e-05
5.32349e-05
-2.29812e-05
-3.5993e-05
0.000197136
7.61418e-06
-0.00011668
-8.80704e-05
-1.03629e-05
-7.84256e-05
2.66408e-05
6.21477e-05
0.000416297
-0.000116206
0.000136691
-0.00042794
0.000716783
2.27309e-05
-0.000153055
0.000293638
-0.000175988
0.000280761
-0.000275827
6.042e-06
-4.41852e-05
4.1702e-05
-3.5588e-06
-0.000117913
0.000184463
-0.000140238
7.36874e-05
5.17492e-06
6.35037e-05
-1.15267e-06
-0.000621796
0.00102523
-0.000731671
0.000328232
6.00067e-05
-0.000247105
-4.99729e-05
-3.59572e-05
0.00027441
6.47647e-05
-2.81233e-05
0.000231958
2.61754e-06
-0.00100847
0.000894671
2.61486e-05
-9.92508e-05
8.24198e-05
-8.85319e-06
2.56842e-05
-0.000359404
-0.000107923
0.000320024
0.000147303
-2.47524e-05
-0.000322213
-2.32397e-05
0.00042367
0.000404286
-0.000192649
2.00096e-06
-2.14647e-07
4.86112e-05
-5.03975e-05
-3.67917e-05
-4.2005e-05
0.000227859
-0.000149063
8.63461e-05
-8.83465e-05
2.12115e-05
-4.2184e-05
6.26054e-05
4.06938e-05
-6.11152e-05
-0.000136557
6.77933e-05
0.000152872
0.000671893
-0.000257574
9.20681e-05
0.00117856
8.20413e-05
-0.00113188
-0.000128726
0.000132024
1.07665e-05
0.000138023
-0.000685503
0.000179357
0.000612008
-0.000105862
-0.000109684
0.000166777
-0.000116717
5.96238e-05
2.7497e-05
-0.00013167
7.7205e-05
2.69682e-05
7.08654e-05
-0.000133938
7.01506e-05
-7.07756e-06
-0.00021031
0.000708341
4.56924e-05
-0.000543723
-0.000343654
0.000983763
6.63202e-05
-0.000706429
0.000630636
3.17079e-05
7.2504e-05
-0.000734848
-5.76791e-05
8.34331e-06
7.77982e-05
-2.84623e-05
6.55733e-05
0.000145627
-0.000168499
0.000354339
0.000280532
0.000481605
0.000110181
0.000526842
0.000103873
0.000556919
0.000142256
0.000672202
-7.40259e-06
-1.07987e-05
3.95223e-06
1.42491e-05
-8.17479e-05
-4.93793e-05
5.95939e-05
-0.000426707
0.000486714
0.000371928
-0.000407885
0.000436264
-0.000464387
5.03691e-05
1.4698e-05
-1.96381e-05
1.14338e-05
-0.000141622
0.00014145
-1.12615e-05
-2.77705e-05
-9.20094e-05
0.000114091
5.68883e-06
3.19007e-05
0.000688729
-0.000477534
0.000961986
6.27866e-05
-0.00100976
-1.50135e-05
-0.00053378
0.000399328
0.000646759
0.00013012
-0.000258852
-7.58447e-05
0.000204577
-0.000144318
-1.15812e-05
1.03993e-05
1.62358e-05
0.000115573
0.000221682
-0.000108121
9.22339e-05
0.000145887
-0.00094941
0.000921221
-0.000396359
-0.000125385
-4.56055e-06
-1.33339e-05
9.46204e-05
1.00947e-05
-9.13812e-05
-8.52765e-05
0.000725743
2.17076e-05
-0.000662174
-8.02732e-05
0.000657926
1.91536e-05
-0.000596806
3.98585e-05
-3.14528e-05
-3.43535e-05
2.59479e-05
0.000203419
-0.000100421
2.76425e-05
-0.00013064
2.23982e-05
-0.000123516
0.0001637
-6.25823e-05
-5.78074e-05
-0.000162737
-0.000127738
0.000139384
-3.97851e-05
2.8139e-05
-0.000272884
-4.97611e-05
0.000192766
0.000129879
-7.16564e-05
8.52495e-05
-3.65153e-05
2.29222e-05
0.000718229
1.95458e-05
-1.62609e-05
-0.000721514
-1.53001e-05
5.52884e-05
-4.90311e-05
0.000505043
-2.53488e-05
3.15147e-05
-0.000511209
0.000209059
-0.000128253
-0.000134838
5.40322e-05
-0.00060433
-8.15148e-06
-7.86283e-05
0.00069111
-0.000559977
-9.38462e-05
1.74152e-05
0.000636408
-4.08374e-05
1.28647e-05
5.00992e-05
-2.21265e-05
-0.000155922
4.49342e-05
0.000148159
-3.71709e-05
-0.00022015
-4.16173e-05
0.000211166
5.06011e-05
-0.00030137
0.000159541
0.000181719
0.000780344
7.57302e-05
-3.68852e-05
5.73512e-05
4.22936e-06
-9.75322e-06
-0.00115042
-0.000151726
0.00112785
0.000174298
0.000588606
0.000496459
-0.000438997
-0.000646068
7.51758e-05
-3.86823e-05
-2.95206e-05
-6.97284e-06
1.33511e-05
-2.12802e-05
4.34967e-05
-3.55677e-05
-2.15875e-05
6.28734e-06
-0.000112747
6.23215e-05
-0.000685614
0.00073604
0.000129597
-0.000110696
3.23214e-05
-5.12223e-05
1.94317e-05
-4.12499e-05
7.00495e-05
-4.82313e-05
-0.000203291
0.000199995
-0.000127823
0.000131119
0.000177175
-0.000141689
-5.95386e-06
0.00100527
-0.0009079
0.000125784
-0.000223155
-0.000489048
-0.000343761
0.000384079
-7.23491e-05
-2.39592e-05
2.35279e-05
7.27803e-05
-0.000156772
-1.39277e-05
1.47775e-05
-0.000347879
0.000227613
-9.9884e-05
-4.03826e-05
-1.28454e-05
1.23906e-05
0.000110474
-0.000122236
-2.09435e-05
3.27059e-05
4.97743e-05
-3.88802e-05
1.89617e-05
-2.98558e-05
6.20001e-06
-1.00884e-05
0.000227034
-0.00042116
0.000497624
0.00111242
-1.72987e-05
2.97419e-05
4.25879e-05
-7.70193e-05
-0.000114157
0.000148589
-4.81666e-05
0.000274642
5.55884e-05
-7.96836e-05
4.50718e-05
8.3784e-05
-0.000186144
0.000138349
-0.00090934
0.000413358
-6.32875e-05
-0.0010479
-0.000609674
0.000248409
0.000117848
0.000205505
-0.000167736
-0.000147453
0.000363381
-0.000368033
4.60054e-05
6.71356e-05
-7.15657e-05
9.83572e-06
6.23877e-05
-6.70485e-05
-3.48368e-05
6.30716e-05
-6.83237e-05
4.00889e-05
-0.000817802
-9.55653e-05
0.000227865
0.000518949
-0.000507771
-0.000180568
0.000169391
-5.36907e-05
-0.000924493
1.11756e-05
0.000967008
-6.48996e-05
-0.000998157
0.00102588
3.71781e-05
9.25426e-05
-0.000110543
-8.54431e-05
-0.000538798
-0.000505099
0.000510117
0.000112422
7.36362e-05
-0.000121828
-6.42304e-05
3.82553e-05
2.96856e-06
-2.46625e-05
-1.65614e-05
-0.000802995
-0.000284604
-0.000173295
-4.08482e-05
-2.35206e-05
0.000237664
0.000125413
-1.47815e-05
-0.000125359
1.47279e-05
0.000222764
-7.43777e-05
1.62262e-05
2.51299e-05
-5.32546e-07
0.00010808
-0.000170688
-5.53053e-05
2.96841e-05
-4.39464e-05
2.38036e-05
-9.54137e-06
7.36582e-05
3.22616e-05
-1.06275e-05
-9.52924e-05
5.46443e-05
0.000648614
-3.29395e-05
-0.000670319
7.78114e-05
0.000712246
-4.80005e-05
-0.000742057
3.71795e-05
1.01835e-06
-8.51379e-06
2.97745e-05
-0.00107286
0.00107307
-2.9987e-05
0.000287095
-0.00147974
-9.65668e-06
0.0012023
8.66416e-05
6.51861e-05
-7.18436e-05
-7.99841e-05
0.000177224
1.3043e-05
-3.67308e-05
-0.000153536
0.000494754
-0.000464614
0.000308192
0.000774984
-0.000607462
-0.000761392
6.00647e-07
2.3548e-05
6.92407e-06
-3.10728e-05
-0.000109205
0.000116444
-1.19137e-05
4.67445e-06
-5.77614e-06
1.19703e-05
-5.37339e-05
4.75398e-05
-0.000729592
0.000234269
0.000474464
2.08589e-05
0.000114542
-1.37101e-05
4.0147e-05
-0.000140979
9.37724e-05
-2.24347e-05
2.26455e-05
-9.39832e-05
0.000267718
2.27453e-05
2.26995e-05
-0.000313163
-2.93699e-05
0.00010893
-7.95602e-05
0.000309921
-0.00117325
5.38868e-05
-5.8353e-05
-5.55572e-05
6.00234e-05
1.92755e-05
4.04556e-05
-6.49625e-06
-0.00022427
0.000247657
5.56211e-05
-7.90075e-05
0.00103446
-0.00145645
0.000183353
0.000238629
0.000485905
8.68782e-06
1.24326e-05
-0.000507025
-6.85554e-06
-3.69773e-06
6.79044e-05
8.91806e-05
8.71382e-05
-0.000966249
0.00078993
-2.86753e-05
-7.12959e-05
0.000103596
-3.62476e-06
1.58235e-05
0.000170947
-0.000228051
4.12814e-05
-2.34186e-05
-7.42487e-05
9.99864e-05
-2.31907e-06
0.000779614
-0.000497587
-8.02383e-05
0.000163829
-0.00019716
2.56294e-05
6.90052e-05
-5.67493e-05
0.000835686
-0.000572534
4.87434e-05
-0.000311895
0.000366204
0.000658941
-0.000229065
8.41551e-05
-6.23358e-05
-2.34702e-05
-0.000108817
2.98427e-05
0.000102445
0.000731016
-0.00026335
-0.00052832
6.06543e-05
4.69142e-06
-9.06808e-06
4.57847e-05
-4.1408e-05
-3.4333e-05
3.73876e-05
-1.58128e-05
-3.96905e-05
7.1968e-06
9.98519e-05
-1.24056e-05
-9.46431e-05
-2.8756e-05
0.000143011
2.9205e-05
-2.9653e-05
0.000268166
6.56285e-06
-8.18153e-06
9.53911e-05
1.46973e-05
-6.02454e-06
0.000105869
0.000482786
-0.000507135
8.84169e-05
-6.40682e-05
0.0011906
-0.00118446
-0.00028423
2.03734e-05
-0.000631207
0.000195456
0.000546053
6.28587e-06
1.2644e-05
-7.13217e-05
0.00045511
-6.57892e-06
0.000331083
2.83877e-06
4.03845e-05
-3.03973e-06
1.2064e-05
-2.61136e-05
-8.7851e-05
0.000101901
3.08007e-05
3.85289e-05
-4.83228e-05
-2.10068e-05
3.7707e-05
-6.11772e-05
6.60076e-05
-0.000122403
0.000107088
-5.0692e-05
0.000727663
9.68822e-05
-4.42021e-05
0.000165624
0.000165937
-0.000269472
0.000231505
-0.000513313
0.000522811
-0.000372937
0.000276506
-0.00112118
0.00112348
9.4307e-05
-9.66018e-05
0.000283823
0.000799537
-0.000372889
-0.000280368
0.000235764
-4.29444e-06
-0.000178319
-6.62242e-05
0.00051477
-0.000794732
-0.00014973
0.000429692
-0.000827477
0.000390949
-0.000122313
0.000558841
-3.28717e-05
0.000110816
-0.000348222
0.000270277
-3.1308e-05
-4.98642e-05
-0.0010032
0.00108437
8.10542e-05
-0.000363276
0.000773342
0.00017566
-0.000822186
-0.000126816
-1.93782e-06
5.14639e-07
5.17922e-05
0.000799888
-0.000737735
8.01027e-05
0.000642785
-0.000695446
0.000156534
0.000542519
-0.000503909
7.15709e-05
7.53595e-06
0.000125665
-7.78771e-06
-0.000142272
6.23686e-06
0.000143232
8.82432e-05
-0.000122579
0.00010469
-7.03548e-05
0.000662069
-0.000559291
-4.98858e-05
-5.28926e-05
0.000706685
-0.000602474
-3.54338e-05
-6.87775e-05
0.000101622
0.00152482
-0.00119896
-0.000427479
6.94596e-06
-2.73426e-06
3.40338e-05
-3.82455e-05
-0.000987917
-0.000636713
0.00105163
0.000573003
-5.77867e-06
-3.97695e-06
-4.35718e-05
5.33274e-05
-1.08354e-05
1.83974e-05
7.26245e-05
-8.01866e-05
4.3432e-05
-6.6475e-05
-3.11263e-05
5.41693e-05
0.000114951
-4.36106e-05
0.000656323
0.000614683
-0.000883606
0.000383086
0.000609571
-0.000834242
0.000342931
-2.30908e-05
0.00012473
-6.77791e-06
1.34226e-05
4.22295e-05
-4.88743e-05
0.000567808
-7.17846e-05
0.000140814
-5.87262e-05
2.76624e-05
-1.17643e-05
0.000176636
7.65862e-05
-0.000117806
-0.000135416
0.000284006
0.000926101
-0.000713648
-0.000385806
-0.000378527
0.000482088
0.000621167
-0.00061067
-0.000168888
0.000158392
2.50792e-05
0.000142186
-4.87984e-07
0.00017453
1.48778e-05
0.000105135
0.000132144
-4.37975e-05
4.57995e-05
-4.05343e-05
9.72859e-05
0.000534014
-0.000644697
0.000110683
-0.000396969
0.00028321
-0.00125102
0.00136478
-0.000152525
0.000158265
0.000219859
-0.000225599
0.000144224
3.66604e-05
-7.46698e-05
-0.000106214
-0.000443867
-2.94057e-05
0.000609953
-0.00013668
0.000221386
-0.000189691
-0.000392242
-6.73894e-06
-1.30638e-06
2.03806e-06
0.000143748
-0.000108569
0.000109046
-9.18218e-06
-0.000104586
4.56324e-06
0.00011835
-1.19654e-05
-0.000190939
8.45547e-05
0.000333091
-0.000409338
0.000315074
-0.000238828
3.98409e-05
2.85597e-05
8.97816e-05
-9.71969e-05
8.8589e-06
0.000103036
2.63174e-05
-3.73089e-05
5.01779e-05
-3.91863e-05
-3.22208e-05
-0.000105784
0.000144263
-6.25843e-06
5.38338e-05
-1.71734e-05
0.00010295
-8.62564e-05
6.99477e-05
6.29313e-05
-1.58313e-05
0.000130124
1.18927e-05
9.27006e-05
5.88073e-06
-0.000634786
-0.000328053
0.000747118
0.00021572
0.000820487
-0.00103765
0.000354402
-0.00013724
1.79512e-05
-1.67355e-05
5.21825e-06
-6.4339e-06
3.43639e-05
0.000458075
-0.000540946
4.85073e-05
0.000128701
-0.000157048
5.01464e-05
-2.17996e-05
-0.00130955
0.00115266
-0.000246785
0.00040367
0.000381744
-0.000326588
-0.000130179
7.50226e-05
6.21476e-06
0.00068744
-0.000684987
-8.66834e-06
-0.000360929
2.05073e-05
0.000147096
-0.000554812
0.000531499
-0.000123783
0.000161395
-0.000711727
0.000721791
-0.00017146
-0.000108349
-0.000732366
0.000840715
9.62952e-05
-2.88032e-05
0.000112323
-0.000179815
4.6272e-06
-6.36925e-06
-5.47064e-07
2.28911e-06
-2.62277e-05
3.06874e-05
8.26505e-06
-1.27248e-05
-9.83706e-07
4.78581e-05
-5.26505e-05
4.42604e-05
-9.9832e-05
0.000109458
-0.000161589
-1.09603e-05
0.000111501
6.10477e-05
-0.000166305
3.06431e-05
0.000113953
2.17081e-05
-2.48298e-05
-8.63077e-07
0.000364452
-0.000338759
0.00112205
-0.00113233
-0.000102068
0.000112348
-0.000176144
2.12524e-05
-0.000136088
4.80271e-05
8.80614e-05
5.98241e-05
-0.000139377
-2.67018e-05
0.000106254
5.85313e-05
8.6983e-06
-4.46057e-05
-2.26239e-05
-2.92057e-05
2.99083e-05
-0.000122939
9.44338e-06
-9.82046e-07
-4.88439e-05
-7.00159e-05
2.33353e-05
-0.000301198
-7.38751e-07
1.91594e-05
-0.000175193
0.000711285
5.79049e-05
-7.9303e-05
0.000604135
3.04094e-05
-4.34719e-05
-0.000596969
8.35309e-06
-1.83876e-05
-0.000548169
-3.24871e-05
-3.82618e-05
-0.000356117
-0.000186463
0.000213008
-0.000991973
-0.0001691
0.000282992
-4.20648e-05
3.33539e-05
-3.34732e-05
-0.000121805
-0.0011594
0.00118864
-4.28026e-05
2.92822e-05
-6.34854e-05
-0.000138353
-2.19414e-05
-0.000175293
0.000725895
-0.000200462
-0.000605707
0.000693323
-0.000186864
-0.000591736
0.000112096
-3.48943e-05
-0.000311906
0.000234704
3.41772e-06
0.000609318
8.4309e-06
7.44999e-05
-7.56152e-05
-9.17853e-06
1.02939e-05
1.30357e-06
1.10493e-05
-8.1965e-05
6.96121e-05
4.29331e-05
-3.30919e-05
3.92471e-06
-4.09673e-05
7.51175e-05
-0.000115898
-7.03809e-05
-1.84795e-05
5.0836e-05
3.80244e-05
0.000536016
5.47808e-05
-5.1285e-05
-0.000539512
-0.000341342
-8.2241e-05
6.26538e-05
-0.000445126
0.00034733
0.000397274
1.23586e-05
6.03926e-05
-6.29155e-05
-3.31034e-05
-4.1967e-05
2.57539e-05
3.81901e-05
-4.51268e-05
2.08102e-05
-1.38735e-05
-0.000230217
3.01294e-05
0.000211056
-1.09683e-05
0.00030202
0.000364639
-0.000588464
-7.81956e-05
0.000201706
-0.000545793
-0.000290698
0.000512085
0.000357206
-0.00070255
-0.000166741
-8.05472e-05
8.24699e-05
-3.08398e-05
2.89171e-05
0.000114318
0.000159417
-0.00100333
3.56465e-05
-1.52311e-05
-2.71544e-05
0.000105569
-8.82359e-06
-9.74841e-05
9.81155e-06
1.2574e-05
-1.29422e-05
0.000895555
-2.31096e-05
-0.000763148
-0.000109297
0.000220754
9.19831e-05
-8.8862e-05
-0.000200484
-1.98099e-05
0.00012874
-0.000101829
0.00110484
0.000151871
-8.82388e-05
0.000456381
0.000114643
-0.000407791
0.000332896
0.000531394
-0.000456499
0.000128857
-0.000111098
0.0001932
-0.00021096
4.37301e-05
5.8669e-05
-2.6577e-05
-7.58221e-05
-0.000172917
0.000141919
7.78819e-05
-4.68843e-05
-0.000249804
4.83766e-05
4.4072e-05
0.000157355
-0.00110335
0.00110032
9.01746e-05
-0.000727047
0.00046909
-0.000703742
0.000611497
-0.000430595
-0.000252814
0.000238283
0.000108762
-3.68444e-05
0.000857592
-0.00102449
-0.000261461
0.000428363
-0.000226267
-0.000983637
0.00118393
2.59789e-05
-0.0011186
0.00115143
-0.000154628
-0.000497953
0.000442894
0.000365029
-0.00030997
-0.000318041
0.000321324
3.5627e-05
-3.89098e-05
-0.000129068
-4.56058e-05
3.18894e-05
-0.00064434
0.000705361
-0.000389074
0.00015753
-1.29667e-05
4.62063e-05
-2.69483e-06
-3.1834e-05
-1.16775e-05
-0.000171311
0.000175854
-8.56633e-06
4.21653e-06
-3.7715e-05
-0.000910535
0.000875644
-0.000271528
0.00030642