/*--------------------------------*- C++ -*----------------------------------*\
| =========                 |                                                 |
| \\      /  F ield         | OpenFOAM: The Open Source CFD Toolbox           |
|  \\    /   O peration     | Version:  v1912                                 |
|   \\  /    A nd           | Website:  www.openfoam.com                      |
|    \\/     M anipulation  |                                                 |
\*---------------------------------------------------------------------------*/
FoamFile
{
    version     2.0;
    format      ascii;
    class       volScalarField;
    location    "0.51";
    object      epsilon;
}
// * * * * * * * * * * * * * * * * * * * * * * * * * * * * * * * * * * * * * //

dimensions      [0 2 -3 0 0 0 0];


internalField   nonuniform List<scalar> 
5794
(
0.791739
0.507448
2.08323
118.661
45.0739
1.03585
15.4755
4.29936
90.8867
4.9523
35.3134
5.30787
15.1729
39.6096
0.752961
0.31386
330.029
53.4897
0.964887
0.951193
66.329
0.844175
21.9802
0.869481
34.2983
101.216
330.604
21.3643
89.5016
1.4886
8.20125
3.19074
20.6628
1.29108
18.1901
17.9448
4.4289
41.3348
43.0646
66.6997
33.0025
0.966907
9.31618
6.26269
0.92143
42.2541
19.0683
6.24032
4.49894
7.95477
0.200696
57.3179
3.0199
3.4924
0.259671
38.3771
12.5539
10.4904
6.02723
196.989
61.4335
0.575055
9.78518
4.71954
24.3218
0.529522
49.3341
26.1142
61.2673
0.861277
77.0289
59.1882
431.82
2.54768
59.746
9.62536
8.83037
71.9378
3.45418
1.36631
1.62965
0.893614
19.9679
27.7912
21.4416
68.2498
48.6087
94.2679
0.794423
23.353
105.558
29.7433
57.5655
97.2074
35.4674
62.6926
78.5457
47.8903
27.2172
68.7448
52.7659
2.27629
7.46328
35.7571
5.48833
88.9383
0.536559
9.36968
42.4366
1.88179
3.85767
2.18308
57.8992
0.857181
30.2299
74.4375
0.687925
81.4742
55.0561
21.9908
89.3683
1.24545
9.85977
17.3226
1.25897
50.3164
71.877
0.831292
66.0497
10.7205
6.05374
17.6206
34.4284
62.3376
100.297
0.716437
123.637
0.533889
0.362708
2.90326
2.85117
17.5958
1.7639
20.0861
0.558324
352.62
62.4736
55.1709
46.8399
10.5053
12.0502
1.95539
94.0908
5.75914
374.775
44.4574
34.8092
39.4324
74.6916
27.181
1.15469
8.72116
3.13771
22.1106
58.4466
70.87
28.033
5.09573
4.39481
2.69712
0.690392
30.2731
18.1183
16.8132
2.37533
21.0426
1.16727
21.2868
1.54205
76.7705
3.78998
4.59397
3.94375
46.1604
9.13593
368.472
2.87569
15.897
5.96834
2.21419
44.9738
3.60769
26.9252
5.54806
25.4326
5.38183
8.96327
2.85094
1.52295
6.79578
20.1834
62.0107
8.75818
8.38098
24.2026
50.5168
5.28313
19.4056
217.939
44.4092
0.567657
10.2113
20.6288
10.6012
0.87671
18.9461
15.7854
45.7896
28.408
71.6301
9.79559
32.0799
143.953
53.6724
154.429
173.035
2.79084
5.55826
25.581
0.637682
11.0182
14.8867
1.42515
31.9466
39.3197
219.115
271.865
35.4454
16.5143
1.24431
0.72761
55.3971
38.0329
56.0995
9.39021
3.55885
1.66441
57.6865
140.846
77.8159
51.073
0.601178
353.165
0.611965
4.9825
143.56
7.03458
20.1241
15.7675
1.16364
84.2303
19.9479
7.70925
0.997191
14.7913
11.4003
16.6686
69.5163
1.17769
52.4591
29.3371
25.9446
35.5733
70.7682
16.3984
0.742164
2.82794
2.37646
2.64105
15.8667
4.35826
77.6564
34.0527
0.910607
53.0166
87.0992
53.6175
52.8957
128.605
90.8129
12.6485
17.9231
0.938931
2.47587
4.81285
119.063
25.9145
1.23926
56.2507
0.723596
1.14026
55.547
1.39454
48.1884
2.89541
72.6656
2.93213
60.0114
59.43
35.4685
33.1501
40.3241
46.4673
0.797687
9.84047
35.3918
12.3852
26.3441
44.8023
114.687
2.39646
12.2745
79.4048
56.3115
0.270138
19.7386
2.24888
4.5765
18.8339
32.8966
69.5013
8.60014
9.93857
21.6973
3.49202
6.30092
6.54205
4.21107
5.97668
10.6754
1.62195
36.0197
74.824
26.3878
1.16507
3.34827
71.6245
6.54368
80.2384
59.9936
60.8438
268.598
34.8477
4.08257
4.8245
285.694
3.52084
75.1122
17.2404
5.51586
15.2649
25.7748
99.0183
17.2529
5.50088
37.3888
63.0768
50.3234
18.45
7.56363
5.08592
0.750363
27.7724
0.942933
21.0957
48.5274
36.7578
11.9525
19.1412
1.21894
2.84526
5.96033
12.5385
18.5917
16.8773
1.54071
88.6464
20.5557
4.8548
32.8212
4.60343
61.7026
0.721642
3.57725
10.8132
11.8266
2.62548
10.5429
0.836186
19.5142
1.03966
23.4097
195.951
5.65576
2.90851
44.9606
7.9477
1.10385
0.711692
75.5655
46.3907
27.1594
30.2791
27.748
67.7602
36.5915
25.5243
76.8057
53.0824
77.4119
27.6052
46.9631
14.3552
4.50747
23.7626
18.4656
2.5532
0.928817
0.509149
1.24907
58.5634
5.77661
17.5426
88.7378
1.74442
0.871472
12.8593
24.5712
19.2275
11.2065
2.05111
8.12714
13.3486
4.39233
2.46857
81.9398
32.2673
0.298615
12.5039
66.9328
5.47239
0.6471
98.7357
0.929782
62.6539
1.00253
71.7023
65.5957
44.3219
143.846
0.776841
0.684328
12.5012
2.96896
77.4565
10.6375
174.999
54.5131
16.4666
2.31245
0.30009
256.285
47.6661
14.2737
3.75028
88.3601
198.142
25.2487
1.15935
0.653723
22.5788
0.811367
13.2142
17.6196
14.3255
31.8096
10.0793
2.66958
306.515
1.2438
0.76621
94.1585
84.8343
69.174
6.94283
2.97768
0.624409
4.88886
0.461784
40.2488
105.339
230.162
8.83287
13.0441
17.8961
0.729121
0.878417
34.3426
36.9012
0.548667
61.119
3.01569
3.6531
0.589013
0.670592
28.3055
64.9703
0.25002
5.52566
205.69
1.58862
0.58769
54.5383
80.1592
11.0217
0.825564
0.717814
44.3836
0.900267
0.722389
17.8339
1.62157
171.289
4.35204
25.5872
2.63862
6.6229
164.547
9.96724
70.2107
1.09169
106.725
0.636369
49.1141
2.47757
0.282357
5.45312
20.159
1.13581
1.02952
32.5781
1.37474
1.21017
2.10022
0.940896
2.08208
14.7908
0.68949
0.953739
18.2151
714.343
0.910998
58.1197
2.47911
45.9254
2.85606
0.31739
11.2919
0.823394
0.502866
88.2528
25.9384
117.693
91.1787
140.037
8.83662
67.8323
54.048
1.14541
31.2467
71.0079
34.9947
99.9313
204.014
77.7825
60.4014
0.958259
55.5041
31.486
85.3665
0.5269
0.708048
0.463325
80.3519
37.5226
37.7527
0.89723
9.34017
0.534313
3.9942
0.86811
102.012
36
89.1024
1.07395
7.7726
150.134
7.7048
0.299733
3.45719
63.0782
121.046
31.7171
5.47379
3.18089
6.37314
36.7054
29.1414
7.56738
99.374
0.605343
42.4508
59.7355
13.2272
0.572484
0.867638
0.755158
25.6343
72.5198
1.05464
1.11491
0.621254
0.38876
1.73457
0.531934
13.4698
82.6483
26.461
31.4569
20.414
2.82431
9.22028
27.0575
33.3869
127.167
110.448
49.5255
48.7795
2.72479
0.426921
0.61623
0.871875
5.06336
4.47807
3.56918
75.6874
249.728
51.5422
173.155
0.664192
2.54442
14.7605
0.896797
42.0727
0.690349
50.9517
128.621
90.0264
54.2111
45.7989
37.4338
7.96342
216.61
31.5004
17.7379
38.1007
99.5247
2.38461
32.1089
0.961688
0.396168
25.0589
4.16416
0.357382
16.0044
139.183
104.623
4.1418
2.42828
0.262207
33.1175
152.114
75.0384
42.4243
3.58908
40.7897
17.666
1.11384
0.635098
9.8484
6.24335
16.8126
1.60592
20.6584
18.8446
152.68
81.7678
15.085
3.63194
109.196
23.1066
163.114
47.3199
63.6338
38.5712
16.2453
8.81185
345.479
47.0176
30.079
41.8541
104.696
162.635
2.61267
125.748
5.68875
16.3808
28.3208
90.172
38.941
40.0662
49.6404
113.576
28.3711
2.81847
6.82127
361.215
10.7161
28.5004
53.6251
92.2853
0.890852
0.858479
16.2155
2.05526
78.318
56.1208
121.119
4.12437
9.00067
0.563862
1.20628
4.61266
0.901366
33.3032
81.6531
5.05983
101.525
36.2981
9.27146
2.59606
235.955
69.3622
48.5087
126.702
88.5668
51.3423
52.0403
5.07278
51.3591
30.0227
81.3916
19.6349
4.7407
18.5738
0.635568
0.775675
0.733078
26.1282
1.10013
22.4296
287.644
7.6385
0.783785
0.762086
72.5349
40.9966
21.5242
75.7311
37.1665
0.310048
77.4198
53.712
17.2937
3.47418
45.4874
0.618185
150.059
1.08376
84.6138
9.53231
13.3067
2.31893
1.30182
0.537507
2.30269
21.5179
42.3862
81.4568
165.849
45.1546
2.5978
0.840281
36.91
128.623
3.07669
18.06
13.5419
69.3257
0.859096
0.758266
12.6868
54.353
165.217
1.09319
17.4833
2.6757
13.328
7.96036
32.3964
59.5536
78.9116
9.34891
3.51099
73.1969
12.5636
0.568622
432.37
2.52651
0.909539
5.32704
0.575313
19.2329
0.584934
25.634
0.99199
3.22759
6.36919
10.7486
184.516
38.401
95.9941
35.4781
48.0971
68.753
39.1352
194.081
34.7383
0.618877
0.504811
5.03808
17.1869
1.82544
23.0846
176.344
53.0455
97.9365
15.537
4.74695
44.9664
0.452621
14.161
53.6871
1.37044
216.825
3.05832
6.0999
60.1386
18.4684
6.29791
5.0634
69.2082
10.5164
7.05063
0.473828
5.16193
50.2646
68.6078
1.10974
10.1013
34.4414
4.32939
44.1492
115.49
79.2604
76.9865
38.2885
1.33821
0.686801
16.1301
0.506142
3.70958
0.561546
1.61881
25.4092
0.553978
7.37436
0.58855
73.1216
45.1776
8.17003
7.99393
7.56935
15.056
183.926
28.8026
64.6958
6.30956
0.623149
173.389
11.9125
58.1595
7.22106
101.811
64.9647
61.4569
0.710079
108.307
85.5725
3.965
5.42159
8.58586
2.31081
1.14945
73.8935
21.4004
67.4061
75.7989
27.5275
46.5315
12.2386
13.6402
0.764023
1.04752
33.5673
0.492941
186.194
21.2561
169.803
6.96492
77.1165
70.0113
0.647105
1.02705
162.824
191.869
10.0464
9.48159
23.1298
61.339
5.11983
37.0784
0.460536
6.21855
3.28558
0.422663
0.450268
1.05763
0.400698
0.508894
0.585049
0.685123
7.97757
53.1112
5.37117
4.07777
0.547571
83.5293
9.72039
26.2043
1.38364
32.9167
0.533597
37.8653
4.74166
3.51917
0.936705
12.1766
41.4439
0.646446
10.0015
1.31489
0.479845
9.23422
69.8434
21.5641
108.637
140.213
0.742224
11.0678
29.2221
12.9766
29.628
38.7623
40.2099
90.4163
0.907665
1.40243
0.617037
0.200944
19.728
11.8784
163.342
143.904
104.992
0.239512
17.3887
122.489
74.1195
53.978
55.7138
0.571099
0.789733
0.643458
30.6196
11.0567
19.6753
4.54801
0.324197
4.41113
4.83096
10.145
7.97939
0.640261
0.784348
31.6562
10.8275
11.2334
0.616512
8.20919
73.4118
0.833996
11.9013
2.4251
4.85148
13.4618
0.852203
25.8072
0.468112
10.3817
17.2402
0.914858
44.2332
11.2044
0.82103
0.718035
60.4304
0.446677
66.1964
3.57725
1.49379
0.643978
3.82794
0.958184
0.553698
10.3744
0.645418
1.09181
1.697
14.4446
17.7892
55.3201
29.5993
9.44893
86.5938
38.7747
1.59242
0.554519
64.5984
0.846659
30.7876
88.6645
2.36238
18.1443
1.54486
84.5863
2.32411
53.2118
3.49444
69.4753
44.5071
1.02612
36.2278
2.91357
0.157676
6.02913
6.65516
30.6295
33.8545
1.5267
38.1678
0.474947
1.23387
4.79549
0.707306
0.993647
35.9035
1.22445
18.6685
0.740626
109.23
4.02222
1.61067
0.591767
4.50489
49.2797
18.8384
1.24692
28.5502
7.37491
15.0382
100.884
31.7196
0.447994
0.60403
47.0778
14.5311
39.2189
6.77666
49.3504
73.3385
64.3845
25.4755
58.2284
9.12111
8.93462
4.14902
1.79563
4.86435
0.715494
876.637
40.4964
0.945542
1.36858
53.0449
49.3135
8.54204
0.479781
0.807665
54.1758
3.98947
0.662744
36.5305
2.45727
32.7712
1.21382
67.4656
0.804358
0.443958
4.04618
3.0098
0.865885
31.5396
0.621968
46.8118
0.840428
81.6386
4.59706
7.7228
4.38489
24.7596
9.25643
17.8153
11.4842
4.60449
1.07357
3.14294
10.1694
11.1954
5.45734
0.65323
1.46277
20.21
37.1937
24.07
3.77064
17.1266
7.27552
5.48302
7.79369
7.80734
9.88014
7.29766
11.1264
30.4089
0.33264
60.7676
0.465558
403.523
0.983488
1.3877
5.5429
1.09151
0.59408
43.8258
9.22363
6.78906
0.578587
1.58392
36.3683
203.762
105.159
3.85534
0.535726
3.05494
9.70355
54.8445
18.5218
3.39656
8.62331
0.76276
58.1454
7.00325
6.79209
31.0139
6.59417
8.54138
34.8028
17.0209
1.38612
11.8997
85.1418
32.2095
3.53113
21.2988
17.7223
0.464035
60.4543
225.349
38.7496
110.663
0.845933
0.447051
37.2958
9.99303
5.51287
0.237815
13.0996
54.2177
0.968957
1.32172
1.04706
0.630807
0.943407
4.79222
2.82522
13.2005
0.789119
1.87442
31.4515
116.331
54.8203
2.95243
32.1346
4.42561
75.0131
0.852558
49.4127
103.087
46.1122
55.1355
2.05862
32.8437
33.3443
175.84
3.29017
3.35366
4.98093
53.8554
0.560916
1.48322
31.5462
8.8331
3.2356
28.6256
5.75556
2.28943
12.3785
0.800388
0.415088
7.40221
2.59414
1.369
1.69116
87.345
9.36122
48.7658
43.0936
41.4053
0.464129
99.3137
0.909899
32.5878
10.1623
9.45244
4.09968
0.587299
12.2791
0.442871
4.26638
0.332194
37.0307
1.85554
8.26239
13.3926
179.293
4.59598
125.804
161.972
4.01341
8.85763
0.700147
25.7895
0.864826
48.2969
79.8106
2.58757
0.317813
7.19404
26.6854
35.2689
152.623
75.6917
103.823
87.7123
26.0917
0.375364
1.11977
16.2893
5.26197
81.6146
3.48
0.437268
0.780574
16.8209
0.330335
2.41514
2.80793
2.42647
6.21875
6.91804
4.71481
0.633567
7.60847
2.577
33.5488
13.6176
0.669997
103.863
30.5923
59.3362
18.3454
3.82724
43.9726
4.2877
0.813319
0.746103
7.52224
841.567
11.3894
41.6142
28.228
70.1459
100.907
18.2545
5.82352
0.198348
0.578331
1.82718
0.363506
4.23173
5.9274
0.68102
6.46477
0.147663
0.545475
4.54823
1.58709
1.07656
0.88735
0.234144
3.8612
5.84321
0.628263
3.86369
5.02466
0.849448
0.872297
0.371952
0.285286
7.16094
2.26896
1.71767
0.435552
1.04665
2.49795
4.19775
0.733672
0.280013
0.334397
0.527529
0.470919
5.23759
0.55784
0.0919051
1.59767
0.688744
3.43144
5.11763
9.8129
15.516
242.836
1.21461
0.981503
34.374
87.5976
23.5859
5.461
0.654474
15.7602
5.39782
18.5799
70.5379
514.101
43.3784
97.3643
31.218
1.41139
1.49562
0.409932
0.971128
1.24362
31.0069
0.803347
2.57071
5.57527
0.992022
17.8164
14.8044
1.83858
3.64152
17.299
639.835
4.24603
19.8658
3.0674
14.4418
30.1632
2.93414
65.2298
40.9111
31.5088
16.4478
5.3778
25.8954
12.6932
11.4995
13.9059
1011.47
3.12311
5.05832
0.617526
44.3329
25.403
1.74972
68.4695
51.267
0.586327
0.451056
5.92247
4.87282
1.09983
6.13911
0.15533
0.649699
1.3875
0.208878
3.36312
3.83772
0.550887
6.4641
1.57372
1.44333
4.80463
0.903566
0.762944
0.965198
0.221296
6.09631
0.481109
38.6397
63.5039
7.59957
23.7638
2.57227
13.9163
33.5128
0.494642
62.6121
23.0942
20.3389
41.3526
25.8711
2.15282
1.14849
25.4916
41.5983
11.3759
202.93
87.8948
14.6266
0.208832
36.0553
30.023
4.48652
39.0354
12.8869
59.3123
1.0093
3.1922
0.36808
64.5817
1.84386
39.8318
41.0902
0.914509
108.708
1.10705
73.2559
0.898853
0.45492
0.887276
66.5075
1.36188
1.50314
0.855572
1.75281
102.888
10.741
88.0704
19.378
1.62636
15.1811
138.122
0.97827
9.1398
8.21089
69.6456
40.4103
6.70481
0.440587
4.3769
3.73983
34.6458
10.2556
2.39224
0.192003
2.44715
6.21529
0.528338
40.6489
19.7822
0.182896
1.21598
81.8943
90.4218
11.9772
29.8581
65.665
0.128069
33.0492
49.4032
34.8185
31.841
11.2638
1.9164
48.0716
0.53546
2.85843
2.67861
48.4322
7.88661
5.74913
8.51967
30.6135
23.0936
0.936983
0.462858
2.49044
14.2615
38.6902
30.7444
170.714
52.5628
41.4446
19.5346
10.954
28.1191
27.2834
61.3235
13.402
33.1329
37.5897
29.7697
34.039
105.13
104.911
3.14823
62.6655
30.0045
21.736
16.5103
16.113
96.6209
40.419
4.8539
46.5377
13.5706
107.586
2.88617
14.374
326.349
2.3037
49.2938
23.7195
0.490094
0.745203
2.72393
54.8545
0.811705
0.464726
3.1419
44.2524
56.7846
72.8597
55.6841
60.2469
77.9802
67.8429
1.63045
59.9337
50.088
81.261
56.5518
45.6556
56.9434
49.5781
40.9179
45.594
20.8055
19.6449
12.1404
178.344
15.9938
5.50657
3.01479
9.03359
1.57527
1.83354
9.5852
27.9938
0.782943
1.85183
2.02608
47.1206
30.0971
34.3038
19.7535
3.17332
4.53852
1.9094
3.6847
11.873
4.74898
105.502
3.30595
2.65123
0.827766
4.1314
1.38228
25.2026
1.48706
52.62
0.84029
0.783693
6.62495
3.61408
1.56532
3.66473
1.71765
0.624264
68.3389
0.606919
38.9828
10.8617
7.90404
45.759
96.0083
0.636913
82.833
27.1998
14.7478
115.477
2.11203
0.628168
105.865
23.4702
96.8203
0.731637
10.3924
116.947
104.047
69.2835
0.595803
0.569611
0.677814
12.5256
11.7302
350.8
0.588613
10.7187
11.3719
0.749618
9.85127
2.4848
9.22774
46.2848
30.1232
25.2627
330.06
77.2409
0.714329
79.364
1.04815
12.7831
25.423
1.87751
124.465
15.5478
319.221
25.5263
12.5327
1.67828
54.2222
307.091
1.01019
99.351
41.6027
2.26686
22.0297
14.5841
1.45817
11.6057
48.2238
16.2793
51.1565
194.864
166.584
4.7129
18.9724
3.44431
83.6241
6.70461
1.10772
3.10654
217.45
0.726496
3.59666
0.448946
30.9353
32.4169
2.13641
5.18467
5.10262
5.43522
1.83228
2.08782
21.6433
4.01704
1.47189
2.00436
0.681235
0.939478
15.288
15.6614
2.06419
86.1215
5.42875
4.79982
1.59365
0.985893
6.696
15.9175
2.54981
10.4966
1.54816
6.96398
11.8075
43.4392
1.97159
5.831
1.59757
15.2135
1.36087
1.10479
4.15582
0.775158
0.874572
0.857642
13.0731
8.84048
2.54362
197.862
0.683058
5.30071
1.02066
1.75597
8.20263
8.62669
6.90214
1.0769
0.560101
1.56013
1.04745
1.27477
12.713
11.4986
0.935571
3.74657
0.730574
0.555529
1.51722
1.14326
9.66781
6.66639
6.51062
3.71643
0.708323
1.70078
0.710813
8.59165
2.80772
1.57333
0.443921
3.23356
0.754711
2.13549
13.3603
5.80599
47.2405
8.39117
2.27211
1.59134
1.59538
0.736381
26.8671
47.9342
24.6081
5.89182
2.06364
8.98063
17.9915
0.821317
14.339
0.814983
3.07091
1.37881
216.226
28.1869
0.661809
30.1892
11.7102
2.99443
3.03121
0.843959
0.461569
32.5028
20.0077
4.5551
22.2603
2.86783
2.54503
0.934237
0.467743
53.2826
15.7299
3.69079
32.9694
78.1796
16.1702
3.5048
5.93524
219.716
11.8874
0.660788
9.59927
18.8929
9.18429
2.85311
51.7213
3.9575
14.3993
29.4717
4.28233
2.7579
0.840095
0.483026
29.0063
7.91888
3.84195
29.0065
79.8676
0.332922
203.295
165.506
2.37586
6.41302
16.2659
5.12515
9.51886
20.1835
3.63716
3.01388
22.162
16.1574
3.01389
51.7975
11.656
46.6559
2.26234
43.7973
17.739
3.1808
4.61416
4.88664
5.89409
33.2279
7.9003
5.79311
31.8188
0.6367
9.33065
6.3602
3.45364
23.2348
2.9744
2.57896
0.767702
0.559232
13.0376
47.236
2.33192
28.4616
62.8124
55.8545
79.7217
17.1288
2.914
6.71755
3.37618
0.374601
174.597
2.57388
46.3032
55.0599
4.80383
11.3767
111.205
2.22343
0.567523
20.6503
28.5014
12.9802
13.2532
64.0052
47.9175
4.05591
50.1417
34.4561
11.0078
0.522517
4.85212
10.5083
8.22806
7.35882
1.29518
1.88652
4.13641
2.89913
0.474764
0.474629
93.4148
84.0532
9.22924
1.9854
103.035
75.2761
23.2143
1.45311
61.9313
15.6841
2.56573
6.8131
0.379169
181.014
2.64752
2.0256
4.51384
115.888
69.9055
94.0707
4.1844
84.154
72.1894
29.8198
15.4368
20.7376
18.5042
11.3724
0.970521
0.722434
1.0663
0.724835
35.3366
28.1683
4.03572
0.643348
19.3419
43.7587
30.9236
79.5531
55.3247
12.4446
0.734054
42.2449
0.899615
1.56003
124.741
63.602
83.1523
104.62
45.9858
8.32964
5.39842
2.46441
2.63388
4.92952
0.771015
2.56345
0.435946
0.495258
0.864374
0.734938
0.896848
48.9517
76.9589
11.6095
46.1532
1.00396
12.6168
1.04228
3.29774
68.4917
7.50337
59.028
3.09096
4.47649
6.14454
72.7799
14.7291
11.3327
1.31496
65.1016
1.32867
0.679896
3.11149
33.7287
67.764
14.764
2.52618
16.895
110.047
3.351
2.61256
0.914921
0.350029
5.09984
4.03249
60.5679
3.97322
1.08383
0.451453
25.1451
2.47017
5.16165
65.7238
2.76501
163.222
0.742908
0.671473
2.2082
36.8708
166.808
3.94875
1.17393
0.589316
77.5675
55.6728
2.91094
3.48459
3.98332
1.20337
12.6843
4.39458
0.737521
11.8085
7.19149
1.22533
3.8221
0.914427
4.03521
10.6099
0.770832
6.79911
1.04141
3.65146
21.1404
6.73816
0.791674
31.819
28.9522
4.03764
9.56597
29.107
0.77145
81.139
8.70331
6.19503
43.3091
2.72784
125.926
27.4869
58.3124
1.36211
82.8108
2.38946
26.93
4.32083
0.44213
58.3033
1.53913
17.8047
4.68044
15.737
7.84063
5.34794
60.5831
7.76294
70.8721
16.7548
0.85538
9.29873
4.1238
0.320972
0.484772
20.6646
138.843
19.268
3.8815
0.548737
96.5927
11.4747
196.629
109.2
32.6301
55.7796
26.0829
0.551221
31.3842
5.0128
1.05651
42.3907
57.7503
3.14027
9.60712
32.913
4.37048
73.6868
3.82754
16.4172
63.2193
30.6169
4.43691
2.21129
13.6915
92.1632
5.19522
21.561
81.5899
84.4593
20.9897
3.1264
1.27527
36.2678
23.7019
9.47169
29.7331
28.4245
32.1525
4.43603
23.1867
5.13733
110.826
9.32163
3.62804
0.709928
0.447599
31.1168
147.667
36.3423
75.7938
67.994
286.36
1.61186
16.3418
2.60541
55.753
0.999423
178.955
38.0029
1.473
0.50702
7.44938
2.25806
3.71446
65.4101
57.1383
60.976
57.6722
158.939
54.9517
1.75536
17.3268
93.6018
90.9926
8.67115
506.419
5.09516
3.35013
9.2461
89.804
14.8195
22.68
51.4952
2.85083
6.99929
38.3904
16.3107
5.40681
6.52423
0.568276
20.7037
0.760861
65.2805
0.67406
52.5798
1.80914
19.0075
16.2104
34.7463
38.8279
58.9659
0.714791
125.129
0.862721
0.681948
2.44701
0.288471
0.973353
77.1131
24.3837
109.165
5.28427
85.1867
124.952
2.91116
24.6143
0.750431
3.44038
2.07344
0.302907
63.5406
50.363
0.677284
0.69854
35.8508
5.81628
16.6818
12.809
2.49583
16.1199
5.63333
101.848
3.66731
32.9705
3.77713
8.8858
12.6496
96.995
2.40115
59.7635
67.2907
2.68742
3.71543
37.6768
2.17962
0.886374
107.341
1.91927
2.34596
179.797
11.0719
78.7647
2.3835
25.8993
62.5338
0.636283
10.2648
18.5438
52.0898
73.6357
0.826875
26.2284
49.7749
25.1624
13.7248
9.80163
8.62557
3.50039
0.225402
0.444406
50.42
30.5981
1.91414
0.750526
92.1114
8.99713
44.0174
45.419
4.39552
5.25122
73.3963
90.4867
12.6984
0.580301
0.765783
32.7083
25.5154
35.8646
2.23164
1.93538
49.5398
77.8863
3.49656
39.403
116.044
67.2896
36.7399
69.7105
0.238748
10.762
16.0941
3.43648
0.254622
0.473135
32.5881
4.22213
4.04068
55.2228
6.1545
12.7537
4.4259
1.34524
13.9777
281.696
6.78392
22.5631
2.52814
16.5637
60.9264
19.3681
2.45798
4.73081
0.263538
0.494268
41.8781
14.1664
25.1214
80.1638
15.0202
29.0668
183.916
48.9933
37.925
0.205036
58.247
0.256455
1.08879
49.1536
26.7746
11.2757
1.60902
2.30933
6.80649
35.5769
0.469208
1.07563
26.6166
99.5952
0.937836
8.7665
2.68583
90.0801
223.802
138.168
6.16827
14.4012
64.7156
108.96
7.11924
35.1003
5.20999
10.3762
22.2794
63.8376
2.36706
27.4428
0.588721
14.4373
0.355667
8.06917
9.7266
3.6792
35.3193
0.22152
1.1712
103.339
32.2743
0.690469
2.68032
37.3012
41.9401
51.811
27.3736
0.66827
2.12469
0.29765
0.44077
3.14752
3.68565
98.3512
0.488887
25.9038
43.7837
2.07996
6.807
7.97161
8.98857
95.8556
3.38381
0.222411
0.429267
0.832344
28.5314
2.55095
8.50005
1.0367
9.01457
0.706219
0.552785
1.61131
7.6566
5.91876
22.7726
19.3756
1.26374
7.95726
1.98722
27.5335
2.05802
0.233216
0.763831
2.26029
4.1846
24.8895
7.14654
23.9835
72.6188
41.8429
59.6763
2.9799
6.35745
3.45007
231.931
7.04926
0.993436
4.18092
0.216578
0.461943
4.98727
0.630681
78.3248
206.714
15.5341
0.324597
0.697897
1.00625
0.129466
23.0459
3.39778
56.2408
4.57771
31.8372
69.1894
0.192897
2.04302
3.50584
96.8865
1.24252
59.0662
2.0121
33.0693
0.687971
6.82447
0.878109
1.81863
12.6642
23.2842
26.5775
3.97656
7.62563
1.05064
1.01341
1.36905
5.58546
68.5871
30.9742
10.4117
29.5828
16.2653
8.36895
3.10476
53.193
0.77986
35.2791
1.76909
41.2703
43.9223
98.2643
12.2589
0.707281
2.22385
0.227998
0.928747
3.35305
12.4239
2.38277
1.10262
87.1685
2.60267
1.9829
44.5
7.81533
29.8452
16.8111
11.5898
50.7667
0.631212
1.31214
7.29724
7.23809
11.8072
0.978766
4.81131
16.3509
1.08934
1.56698
10.8493
6.36069
3.35104
0.69412
0.593717
0.761147
0.502875
1.77619
0.20529
1.63875
1.34191
8.69665
10.3807
0.646263
0.762975
31.8947
23.9315
13.685
16.8589
0.914122
10.1293
1.25226
70.0692
46.3347
33.7236
338.271
22.6223
81.5704
82.4046
117.379
35.9129
0.290638
0.437948
1.71007
0.360764
0.447389
7.65166
22.8841
81.8494
0.23313
0.201501
1.80856
8.91221
12.4788
67.6605
2.00764
0.216263
56.0443
12.8236
22.4292
22.4578
0.876306
2.32454
23.1384
19.5685
114.683
0.377195
14.2498
114.917
13.9169
37.3343
34.0783
0.271424
0.585016
6.2465
0.889061
0.751117
2.99458
0.660883
3.17135
5.81676
3.51611
1.13447
1.34549
2.40464
220.915
55.9114
0.486247
5.05377
0.823332
4.70265
13.7995
1.26348
7.58799
33.9697
5.01692
69.9768
5.82497
34.8077
102.941
234.33
57.5581
28.1427
2.68199
3.08582
32.7547
5.59096
0.672759
0.209323
100.989
6.97841
76.2774
0.399574
2.42782
11.7175
158.042
37.2404
0.646039
0.638481
32.8623
4.04089
14.594
2.37372
1.83987
7.62703
110.512
0.669304
38.1575
3.61113
0.240593
0.46082
0.365715
5.77674
0.209329
54.8313
4.69398
42.5552
111.119
15.2238
2.71605
221.115
8.11108
5.38436
164.605
3.64144
13.8714
209.43
6.16508
128.712
4.07059
0.256892
0.486736
42.5522
4.23602
2.86511
1.17363
0.846656
6.47867
13.3044
91.9253
27.7558
18.1755
14.4441
88.0024
27.9244
26.724
17.7703
2.14192
13.9317
98.8026
12.47
177.969
7.34226
0.597461
0.660363
2.31051
34.6706
2.82126
49.2265
19.836
11.9026
2.3401
11.7688
18.4067
1.42907
0.433717
2.92979
0.493429
4.06245
16.3132
0.931387
9.5651
5.60058
19.8625
28.5155
84.0533
25.1434
273.072
16.0887
0.744479
2.36826
0.596621
41.7572
0.578539
5.09861
1.73693
2.11616
0.723443
72.8515
50.2339
5.85119
6.22105
13.7846
50.2443
0.896391
0.724799
1.85578
23.8886
281.854
9.88814
8.07734
32.8457
57.5842
21.4666
9.63425
5.32517
27.1579
70.7476
11.4848
2.69788
6.68453
0.972277
30.1764
0.672012
26.2554
278.995
19.443
1.09334
28.7441
2.08181
11.6547
18.9468
1.31326
30.0923
1.70972
0.412961
0.371841
19.5138
75.9804
13.6488
4.52781
1.82869
0.725286
3.50575
1.6326
0.288029
0.513026
1.1676
28.0915
67.4513
27.7074
19.8012
9.53978
170.622
59.9947
10.4066
0.794662
1.43764
4.29415
135.721
98.061
38.3526
0.965887
0.233982
78.4984
4.6561
17.3698
16.0932
147.194
0.297547
110.038
112.652
24.9049
7.61292
63.2163
398.075
4.00834
33.2719
0.246133
1.21915
67.2825
101.123
1.79495
0.439326
4.99799
3.11583
0.965919
72.4002
4.29571
10.7539
293.866
23.358
0.652229
54.7707
31.0355
12.8535
108.965
0.260332
19.1172
0.44699
16.284
60.9955
2.00323
18.5968
26.253
7.18765
127.746
0.357761
1.34492
40.0622
177.989
50.2253
67.6585
22.217
299.731
5.9551
27.0133
56.7956
5.259
116.597
21.657
137.997
21.8296
8.8104
345.675
46.515
24.362
5.4036
0.492051
0.507684
39.7181
0.523404
4.35958
1.44523
28.1769
30.9508
1.89659
0.223649
1.04808
13.9152
93.3888
2.18495
0.256543
13.0554
41.7143
29.2409
18.3552
1.08168
119.617
37.7118
1.03842
37.044
74.5602
0.165962
48.0144
26.2118
66.6886
33.8067
34.9844
16.2738
7.30818
1.60565
0.636162
4.57428
0.822786
7.34854
9.85774
84.177
15.4593
17.4534
123.661
53.0611
44.8314
2.81749
14.7573
31.7049
0.537995
36.2991
4.04282
64.4507
119.727
83.371
8.21789
90.7373
0.513093
39.3883
42.738
12.7829
0.480119
1.26381
89.4984
29.2934
3.34158
76.5657
85.1747
7.13197
46.9831
34.2221
80.0071
162.519
68.1143
2.59603
63.3433
0.215076
3.63283
0.411999
55.0138
19.1501
73.6658
1.14707
0.300289
95.6915
1.67429
0.875519
6.65666
103.823
37.5496
94.5541
141.199
50.7369
0.831496
0.976265
45.4687
14.8344
185.056
111.871
146.405
5.88487
3.13803
113.448
79.8258
0.417164
0.377893
3.49368
0.564926
1.44179
6.51501
143.815
12.8673
3.04593
36.3678
9.37363
8.49783
58.7423
107.932
60.9355
10.4099
32.8165
0.673831
33.4951
14.2788
15.4697
119.769
90.3932
33.5959
73.0452
450.182
290.414
1.7152
0.39701
145.078
77.7774
0.684118
9.77927
0.505636
0.934753
50.0061
102.935
56.1867
17.9825
2.50473
76.6953
0.361606
2.89104
0.434278
3.03939
0.276191
70.9283
141.934
29.132
7.8922
103.584
0.227778
0.877573
95.6535
40.882
49.2269
23.7132
20.8936
106.904
67.4292
0.846405
8.34839
14.5683
20.0591
4.34215
4.6292
80.9417
32.1652
33.2888
19.1287
49.2522
21.2097
25.3977
0.188949
0.866779
49.4764
1.111
13.9623
551.555
10.3423
77.2831
62.6759
0.62061
0.239931
0.416016
3.62603
59.9035
64.6585
61.796
1.29117
32.0191
5.85568
7.34384
10.3796
11.4109
6.51824
7.18476
4.17414
3.13232
0.430697
0.259618
1.01087
106.067
42.89
2.51195
28.8805
548.522
100.281
91.3909
39.5658
0.653401
39.1795
7.33608
1.18737
54.7224
141.714
0.957421
0.730713
0.580265
36.2835
16.1966
83.554
2.59168
0.623201
42.1949
14.9135
0.49431
1.31066
0.339842
1.19063
8.56157
101.356
10.7652
6.09264
82.8899
54.9005
62.3725
66.3451
11.3627
61.5517
0.610324
36.7246
40.7547
18.9209
28.1723
0.421989
0.468084
43.4621
1.23884
82.9129
1.95755
86.3492
31.1941
37.1128
1.30026
40.43
1.3522
46.6286
35.1074
27.8291
31.8816
11.1666
47.5617
32.0893
0.657892
29.1649
35.0235
0.701072
4.09343
0.715816
1.92793
3.23521
17.2081
18.6226
1.40353
8.97592
201.675
0.360666
12.0392
0.511461
1.94808
133.009
143.578
2.84904
0.421477
0.478497
6.8463
0.171235
0.514129
3.18181
0.436651
0.477137
3.77852
0.80065
45.9686
1.98835
5.89182
27.9442
46.2578
5.27077
30.4249
6.34353
5.61623
22.4931
67.3099
28.9501
0.481093
23.158
116.067
63.8241
30.3348
8.72892
0.985244
0.16618
0.909016
47.5874
116.257
25.5087
4.38399
11.4103
9.1678
2.69165
5.94093
23.8331
45.9689
0.622903
57.2548
0.334363
8.63387
97.4725
44.3105
93.2693
34.706
7.16587
92.3167
39.7331
55.6888
7.17167
1.28728
5.86196
5.23918
7.52668
15.5136
1.0026
18.9129
29.5248
112.785
16.9297
24.2292
1.46006
0.769948
2.33937
76.9909
30.8251
28.7285
3.41594
85.1916
11.8883
11.7662
35.6096
3.81165
2.87138
17.3005
87.9823
81.7939
36.3367
38.25
52.1709
28.0506
2.05014
1.23915
0.398548
6.1835
1.73907
723.006
87.7444
3.24505
88.4966
42.4785
6.97662
0.353709
12.0233
0.982121
2.44357
0.70117
42.4412
9.82681
39.6624
48.2613
31.3035
0.284055
1.01255
2.05835
0.799738
35.4732
46.7115
733.296
16.8659
11.0464
0.257072
2.42156
101.335
58.7075
13.8865
35.4275
1.20468
12.3198
5.6652
0.901226
22.0591
194.362
0.497233
4.92773
0.33961
3.15961
23.1336
2.39931
69.6928
2.76431
380.795
12.6052
59.1323
106.69
0.496034
1.23536
11.0507
16.9938
0.928487
5.18497
4.876
37.6718
72.4522
67.9337
2.54928
5.24755
103.305
2.01812
13.4279
14.7111
17.4529
60.5376
84.7195
0.381634
3.99991
0.47684
38.1239
12.6145
245.716
37.6242
1.54588
50.8182
106.369
66.9145
51.5233
2.12751
73.0406
43.2971
26.9014
1.26478
0.420775
33.2603
1.82292
8.35792
17.2745
2.40826
56.8333
488.946
318.59
6.93367
80.2276
1.1284
9.91392
19.4656
0.934342
72.3312
30.552
0.254303
0.645245
0.69464
1.20775
13.6668
30.6639
83.9695
27.2896
1.00826
337.764
2.57448
54.4669
95.6922
74.4815
27.5333
9.06803
6.78526
83.6191
0.781873
1.07809
2.37128
0.245133
2.52381
21.7809
59.3468
0.363017
19.7975
0.446184
1.02902
10.5332
30.032
2.98748
2.96822
82.9178
41.9036
25.7609
10.4199
0.901467
0.504221
13.2833
236.41
3.39812
429.675
0.260261
0.960563
46.0127
38.4671
1.03876
13.6342
158.174
1.82894
18.7181
42.1243
27.7855
71.1934
69.632
10.7678
6.77551
1.13567
16.8748
83.5033
16.3543
115.552
18.3236
15.6907
1.5394
23.9519
14.512
20.6094
76.7824
0.822265
18.7426
7.93848
3.02867
0.600426
39.0402
0.33768
1.03319
13.1222
14.3313
18.6155
24.1895
68.5093
110.639
94.1364
56.8241
1.04272
0.861779
2.48704
0.461719
6.72963
17.4798
3.64144
3.08263
4.75798
74.7494
3.32398
2.35227
2.26407
16.0724
79.3882
0.292031
5.04413
3.22278
0.4223
58.1848
33.6766
0.719937
1.54814
53.9626
100.595
25.7203
0.650957
0.621951
1.08795
0.461859
5.20849
1.953
1.02217
28.3896
1.59126
0.648647
35.8649
66.0649
0.567316
19.9035
0.589871
58.0242
4.58871
81.128
1.64854
0.247012
5.55762
61.3308
79.616
96.6443
24.5598
50.7301
22.4054
2.4743
43.4934
19.5482
3.52128
0.808911
4.39206
0.229067
171.648
9.53719
23.564
0.914176
40.2138
36.6518
65.5061
12.2421
621.573
13.2582
1.52532
3.2396
0.464846
3.31594
0.678037
1.2219
6.20487
0.717285
2.67423
1.09688
0.623708
4.1618
0.664003
5.55842
22.0688
50.8446
134.202
2.11746
1.35898
0.560456
1.57116
58.8866
36.8803
25.1164
6.01379
94.4224
122.81
104.658
5.07948
10.6629
0.825073
0.75724
1.11821
19.9861
9.34712
33.8926
2.48451
105.536
237.162
139.826
0.482251
42.9695
30.1808
43.1877
0.661526
1.43436
2.66431
34.6464
2.23307
45.4218
54.4123
0.835585
0.174012
99.1864
305.212