/*--------------------------------*- C++ -*----------------------------------*\
| =========                 |                                                 |
| \\      /  F ield         | OpenFOAM: The Open Source CFD Toolbox           |
|  \\    /   O peration     | Version:  v1912                                 |
|   \\  /    A nd           | Website:  www.openfoam.com                      |
|    \\/     M anipulation  |                                                 |
\*---------------------------------------------------------------------------*/
FoamFile
{
    version     2.0;
    format      ascii;
    class       volScalarField;
    location    "0.51";
    object      p;
}
// * * * * * * * * * * * * * * * * * * * * * * * * * * * * * * * * * * * * * //

dimensions      [0 2 -2 0 0 0 0];


internalField   nonuniform List<scalar> 
5794
(
99.2408
98.2552
97.1178
104.287
97.1213
98.7396
95.4276
99.4143
96.1249
95.783
131.032
93.687
93.6595
92.4356
95.6181
97.9688
38.0878
97.3303
95.5874
98.0584
97.2211
99.0212
93.9302
98.3069
98.6331
45.3796
42.94
98.5687
100.704
95.8758
99.1161
86.5264
112.572
98.2777
95.6024
93.3228
103.986
94.2332
94.9388
97.3229
99.9161
99.2838
122.82
99.1565
95.4177
113.748
88.6528
101.33
97.0943
98.9898
99.0226
91.4419
93.5438
96.5809
98.2092
115.812
89.9503
100.082
122.991
41.1959
110.09
98.0749
99.2613
86.5732
112.144
97.711
97.3268
97.1299
98.5047
98.1916
90.4886
97.6129
23.0884
98.8974
97.3051
98.8892
99.9097
50.9993
99.1788
97.8109
98.7421
98.1158
100.069
95.7135
95.9481
100.647
85.9172
117.432
98.3059
96.0202
120.457
89.936
100.432
102.26
97.7034
90.2514
116.399
101.158
90.3853
111.026
85.9312
86.3452
122.968
94.2345
94.3879
100.323
98.1684
132.087
89.7435
99.2232
97.9757
95.6869
78.735
97.3073
96.7596
101.063
95.9715
100.16
109.199
96.9982
100.288
96.9527
98.018
98.9699
95.3965
129.312
88.7503
98.34
93.4075
130.848
97.1218
100.355
86.5025
54.9027
100.918
95.6607
122.789
98.0998
98.6511
97.9739
98.2926
94.3078
95.4261
94.8117
98.6336
51.4908
98.9454
120.617
97.6934
95.9795
127.502
96.7264
100.823
93.851
46.6621
86.2574
97.5777
97.1625
113.422
96.2864
95.5925
98.397
98.2577
93.3173
89.7186
91.4364
94.6555
99.7143
98.08
95.6561
95.9048
91.065
94.6749
95.1066
98.4042
93.5458
95.821
97.9808
98.209
93.1627
97.006
88.8398
100.763
114.31
100.973
45.3129
86.311
113.408
96.8592
86.3961
130.798
87.0009
112.577
100.618
99.9497
97.2037
98.8553
97.9191
95.5411
121.302
93.8307
90.5794
101.447
100.196
87.9711
113.395
97.1893
132.344
95.681
95.9472
99.2863
102.98
93.1547
98.6241
98.3066
96.9715
93.6235
87.0359
131.383
104.79
103.11
93.8696
118.917
100.381
117.568
43.4056
96.1769
94.6895
95.0023
95.865
95.2935
94.0535
98.4875
90.4083
92.8443
52.9726
76.8936
125.549
97.3782
99.1358
98.25
132.521
98.7218
94.7552
93.3832
97.8731
95.2885
98.451
117.37
101.485
90.3366
97.6437
43.2297
97.8134
126.037
94.4975
122.006
121.614
132.411
95.3869
123.217
93.5043
99.141
97.8824
99.9019
96.1218
96.0165
128.857
95.4886
112.913
86.9087
99.8787
100.329
89.9234
104.54
95.8682
96.6783
97.819
96.8335
95.7559
97.5979
112.125
100.18
99.1255
96.9422
100.781
88.9869
97.094
98.7828
100.704
93.8539
94.0676
98.3933
96.9158
118.972
55.0891
97.2431
98.9691
96.5312
97.795
98.0174
85.8064
98.7309
97.2666
99.109
127.375
96.9677
95.4615
112.326
86.1809
99.1808
112.865
98.6037
97.5068
103.951
106.147
132.054
98.1966
89.6317
101.606
99.645
97.6208
99.6111
98.0586
97.955
91.7031
97.7306
95.3503
96.1337
131.261
91.347
124.066
98.3818
112.973
86.3617
96.3539
95.0144
98.2086
97.1762
113.65
98.3359
98.5473
94.9988
93.6537
95.9281
100.442
116.275
90.0857
92.2156
93.4856
94.71
52.7706
113.015
87.776
101.071
42.5846
95.2843
92.611
94.5312
99.1573
132.25
91.2252
123.885
94.0885
99.3537
96.3818
90.5315
114.495
89.1098
100.861
96.6003
97.7114
95.9213
97.751
132.012
89.6871
116.171
89.1811
100.496
97.0387
99.3048
96.927
104.375
93.2788
96.9185
98.2933
100.708
94.1433
99.6902
95.7785
100.033
98.9633
98.2203
96.9841
95.2758
94.8174
98.5129
100.244
95.6112
94.1219
98.2472
97.7844
49.5375
98.5227
95.9072
126.832
96.4452
99.0552
98.2283
116.91
100.215
88.6046
130.343
91.262
113.106
87.3483
100.931
102.259
89.964
116.583
90.2737
101.135
131.698
96.3503
93.6289
96.5025
98.3263
97.1782
98.1421
98.9851
90.9029
104.348
95.6129
80.0968
95.3853
96.0002
97.193
99.4614
93.3373
97.4936
98.2762
103.976
101.519
97.6383
97.0644
100.815
96.9164
98.6288
98.0818
97.1271
94.5934
98.0135
86.8577
98.9569
101.114
97.9436
114.991
93.7062
97.0019
102.606
99.1089
97.9968
94.7635
97.145
111.98
130.725
50.8103
95.4942
130.575
99.2681
97.8945
87.7566
130.329
94.7082
96.8938
114.497
68.0055
98.643
99.2156
97.9276
95.73
99.0321
95.9002
94.8546
132.032
130.567
102.663
97.2628
54.0952
98.8043
98.0098
100.596
98.6401
98.9495
95.2485
97.9501
95.9158
96.5107
98.4837
126.255
97.506
67.0605
106.296
90.8414
95.7505
98.0215
99.2072
120.574
130.344
97.4017
89.4943
97.1152
99.2849
97.8877
97.8786
94.3998
100.66
97.8092
102.817
51.6585
99.2255
98.2261
97.0904
100.534
130.511
98.2775
99.2743
103.941
98.0607
99.1014
96.3305
97.9732
49.4063
96.0971
95.4936
96.0435
104.07
120.801
130.566
122.645
98.9633
81.3236
98.098
90.7035
98.0899
98.0439
104.531
94.7234
97.6956
98.2651
94.1536
96.831
95.6795
99.2791
98.3119
95.541
95.8134
99.1643
98.0804
94.5065
26.9764
96.1251
128.106
96.6622
91.8848
99.2052
98.0392
97.2121
98.1984
97.4283
112.883
91.4885
94.2522
95.583
49.7438
101.145
96.5806
96.2136
99.2319
99.112
101.185
93.7832
130.131
51.1766
92.9532
115.769
97.1369
101.12
90.2831
115.989
97.3375
98.3072
98.0739
100.244
94.9303
108.4
97.2556
103.674
97.7102
95.7029
99.1044
113.71
96.7329
100.976
97.9099
130.29
58.1761
95.5185
98.1933
100.385
92.96
92.6485
93.0968
95.8751
96.695
100.626
125.856
130.956
120.294
100.186
97.9798
130.309
129.681
132.189
98.0795
98.294
97.666
95.6804
133.29
97.2621
99.159
98.2237
97.7743
99.1052
98.2811
95.6924
65.8766
103.783
95.4002
97.539
98.8509
123.425
131.571
90.2132
121.976
100.911
97.5771
111.292
97.3292
98.1141
98.272
99.3106
96.7353
100.603
97.5046
126.568
53.0712
99.2465
37.8749
98.5928
97.4612
96.0646
98.9569
97.3796
97.8794
97.5232
100.593
100.753
89.1543
112.222
125.625
99.8896
45.9897
100.343
96.41
96.9877
100.598
97.2111
92.3964
99.2543
98.3049
132.614
96.2389
98.4387
94.1189
121.496
103.5
95.7803
96.7165
97.7
99.0979
108.517
70.0095
98.0737
96.978
102.996
132.16
97.7002
98.9596
103.088
97.2598
95.8597
97.7086
121.785
94.7182
123.641
93.388
95.0842
96.9914
131.856
123.079
103.407
97.0439
97.0382
130.292
101.953
105.684
49.9601
128.613
98.3578
132.312
67.028
121.324
95.9542
96.4186
99.4464
120.238
104.651
131.766
107.279
97.6882
67.9738
106.731
127.037
97.0177
97.245
36.7251
130.374
90.1128
100.775
117.881
98.6045
99.032
94.0706
98.318
101.432
90.3397
114.223
94.5495
103.983
98.3223
99.3512
95.5755
97.9354
96.4155
100.915
105.363
103.318
97.7003
115.079
98.4418
79.1891
101.313
97.7951
101.211
101.113
91.208
118.758
99.2351
101.067
90.584
116.855
95.2689
97.1565
95.1847
98.1317
98.2728
99.255
94.2162
98.3727
132.066
52.1902
94.9975
99.2144
98.0768
101.462
91.7369
132.205
100.563
94.4838
98.8294
126.565
115.679
90.022
100.221
92.6816
98.0418
77.995
98.8922
60.4879
101.995
132.128
99.7106
97.7058
98.2957
96.7447
131.668
132.925
125.555
112.587
99.0065
98.1506
99.3019
113.629
103.544
97.508
90.807
113.694
131.918
98.1576
99.1841
95.5855
119.45
50.9972
97.448
104.872
96.5946
94.7127
96.5244
90.2961
101.232
115.401
103.6
95.3044
100.069
94.7968
98.507
45.4915
99.2966
98.496
95.328
98.2409
130.339
98.5517
105.574
98.0623
98.2431
111.585
103.931
86.9011
96.7192
100.528
97.3125
100.379
128.562
128.881
51.7717
97.3398
97.8931
98.1174
111.949
94.2904
99.2724
95.1869
110.257
98.0951
74.4593
130.305
94.8108
96.8792
98.613
103.368
127.932
98.7185
60.0359
96.6001
97.0394
59.6061
114.717
102.967
93.5364
97.0465
131.12
121.609
97.8823
96.5194
92.5112
129.301
99.2587
103.954
128.818
97.3452
97.6419
101.126
97.4507
104.979
96.9443
98.897
98.1078
95.0561
97.3255
97.6196
98.2423
99.0054
126.44
98.0221
103.769
97.2284
97.0838
98.5698
100.532
100.705
130.357
130.527
60.288
93.8632
101.006
104.077
97.446
54.8244
111.905
84.5189
124.552
101.65
90.3781
97.9135
98.2151
100.812
113.061
99.4015
99.653
101.093
97.4241
98.3583
123.679
95.6537
99.5794
117.179
90.15
101.137
94.2843
118.685
98.2184
99.1012
96.7395
97.5049
93.4948
131.741
116.296
103.996
100.213
81.5539
98.0289
98.9014
91.3285
49.1849
104.385
98.8338
108.156
102.9
96.8839
96.2402
98.0795
100.685
96.9968
98.0046
98.0338
99.2211
97.7397
97.3469
98.2631
98.1255
103.767
97.398
104.635
96.9381
97.2368
116.45
104.3
95.2093
98.8072
96.3338
97.8233
131.134
106.4
97.3757
98.2549
95.9446
130.252
98.1846
103.999
99.3994
97.7251
104.012
75.7167
103.268
94.7028
108.176
97.75
104.668
98.5799
96.0258
117.53
71.5629
98.0739
109.708
98.3116
99.362
97.2981
98.2259
109.26
113.966
49.3529
91.9161
95.7673
97.8032
96.2052
101.245
89.2286
111.698
120.942
98.128
99.0413
98.0469
96.6818
104.249
95.1888
102.235
99.2833
103.613
104.33
105.438
96.846
98.2522
99.2225
96.5609
96.9497
130.356
98.1967
103.936
90.4565
97.8326
94.9557
94.5151
96.4433
131.979
97.8413
132.28
98.0113
105.888
132.076
98.1657
96.2106
116.971
97.4145
98.8965
97.6528
97.6748
97.2551
94.0003
99.2568
98.1767
94.0334
97.3868
97.5349
103.261
98.1478
97.4519
98.3421
95.0651
94.0192
104.928
112.503
110.28
100.556
95.9323
97.5533
98.121
97.5635
99.0947
100.213
100.552
97.6852
125.045
98.1866
98.1093
96.663
130.153
96.6382
89.3198
98.3835
97.5013
104.9
97.9111
98.628
96.709
94.6631
103.639
104.219
97.4895
104.734
97.7857
97.3844
94.4221
98.0826
99.2418
98.5701
97.2912
131.219
95.7943
58.2026
97.1364
99.2865
98.2605
103.874
96.7864
108.318
97.0879
98.6841
102.797
110.935
92.9368
93.5353
97.9717
98.305
98.1021
100.56
97.2247
104.034
102.204
102.745
127.139
120.577
101.015
109.194
108.144
96.9291
95.3192
99.9141
97.7146
35.0216
104.426
97.8522
97.1169
130.312
130.543
100.808
98.2771
99.2688
100.065
98.4841
97.741
95.1977
97.4359
99.4026
99.503
97.022
99.0304
97.7152
95.9299
96.203
99.2763
100.796
98.0083
94.3869
98.9993
93.8046
100.251
96.8125
110.216
111.298
105.187
101.846
103.882
110.054
96.477
97.8872
96.094
111.827
106.824
98.1637
99
123.154
94.0355
125.179
99.5024
96.6932
109.96
96.9142
123.506
113.253
96.2955
100.202
104.089
119.183
97.6488
97.2043
97.9657
58.2174
97.8899
97.0164
94.63
99.2371
98.3829
106.72
96.1955
123.701
98.3234
99.1164
109.019
100.769
86.5797
96.7626
98.1352
96.4653
100.613
130.125
131.402
97.0258
104.098
97.6587
97.2434
99.9928
87.0863
112.309
132.714
122.709
104.602
94.951
97.3757
97.482
100.164
103.896
100.828
99.1223
99.8171
98.1228
98.1646
84.8226
93.4822
55.6249
98.9309
97.3483
121.921
104.933
97.1456
97.6127
103.419
96.7743
97.6798
98.2816
99.0895
99.0333
97.8033
94.7062
97.0103
97.9757
97.7823
99.8465
99.4079
99.501
82.9841
95.4084
126.175
103.174
100.095
97.599
96.2237
116.921
90.9684
100.906
99.5333
96.3903
131.661
53.341
96.8819
97.0201
97.4623
88.7892
97.7046
99.3569
99.2164
100.544
95.9345
97.8672
100.192
99.5448
96.1325
97.7006
97.912
103.867
99.4488
97.625
99.4697
117.991
104.639
131.465
130.958
93.2406
98.1653
100.86
97.5715
132.243
97.0449
99.9433
96.1899
97.9992
96.0919
97.9104
94.4196
99.2029
93.561
97.3567
96.6895
93.952
40.8932
95.9446
38.0637
50.0139
97.5583
103.703
98.1721
100.296
99.0755
97.5009
100.365
98.328
98.1575
86.2415
112.082
111.17
100.753
96.863
98.7519
86.9965
96.1731
97.7469
99.2185
131.426
95.7556
100.677
97.3192
97.7221
99.0966
120.578
98.6426
98.0735
93.4489
96.0714
100.269
100.039
96.8263
98.1508
103.974
99.5569
136.954
131.061
97.7606
43.72
131.673
97.0603
95.6186
95.0985
109.954
97.7362
97.8916
99.2982
96.3769
13.3492
104.607
100.151
86.3101
117.725
56.5777
121.888
97.3442
99.4768
97.4476
99.441
98.6762
96.2562
97.6454
97.4162
98.3535
98.8243
98.4279
98.0226
96.5788
99.6578
97.3941
98.7286
95.9855
97.7685
98.1658
96.5975
99.1249
99.4041
97.7146
97.6934
98.6332
96.0072
98.1116
99.2756
98.4906
99.6723
96.4466
97.6702
97.3581
99.301
97.6751
99.5446
98.4036
97.0611
97.3216
98.5819
99.435
97.5765
97.6757
96.0519
93.3685
92.412
58.4225
97.5105
99.2317
109.956
101.37
94.408
97.2117
97.6889
103.091
96.958
96.4881
100.709
54.5054
94.3111
99.6678
97.1039
97.1864
97.273
97.7425
99.2826
98.1022
100.635
97.6891
97.1546
96.343
98.9285
130.451
94.6838
99.445
100.355
99.7463
51.322
96.0168
96.0062
100.175
113.274
98.6766
97.8469
95.7293
92.55
126.781
94.0116
97.0463
99.2174
97.3162
103.246
102.423
14.3438
94.615
99.4698
98.1953
96.172
94.2004
95.1396
146.005
96.0755
97.3054
98.5702
97.9435
96.7024
99.5438
98.029
98.7676
97.4425
99.5862
98.5427
96.2328
97.5597
97.6519
95.9839
99.2815
96.5858
98.5625
97.5257
98.2165
99.5415
99.3842
97.3193
97.5818
107.843
96.9052
132.548
116.212
99.6452
103.214
93.5335
97.7668
126.7
94.2664
95.4911
136.133
94.3892
99.4572
97.2001
94.5778
125.076
95.178
81.6048
100.898
96.1636
97.6566
97.4799
106.628
95.0957
97.992
106.432
102.428
97.392
98.0186
98.331
96.7962
94.8807
94.0454
91.7587
97.6383
100.404
98.1435
100.481
99.0333
97.7087
97.6198
100.42
97.567
97.5017
97.9494
94.4607
101.326
104.295
98.4745
95.839
99.8734
98.3326
88.9601
98.201
104.043
114.781
99.5597
129.303
95.8048
97.9326
95.3904
96.9325
96.9023
104.244
94.3592
98.6369
97.7149
96.7626
97.5566
93.2654
94.2298
97.6882
99.3787
99.9286
102.495
100.544
96.2883
104.292
98.7391
96.5392
92.2933
94.081
96.2498
98.9479
94.7587
98.7401
97.6791
95.4582
96.9322
95.9948
123.473
96.397
100.196
93.2074
93.9156
99.0474
97.1862
96.3772
97.049
92.664
96.0322
120.133
100.633
101.209
98.9314
96.0759
126.046
125.471
100.187
94.1739
93.2075
107.594
95.8396
115.497
102.785
148.413
97.7118
95.0483
112.39
122.458
92.5638
93.4558
100.965
137.783
99.6466
116.158
90.7942
138.785
99.8886
96.447
33.8377
97.049
97.8655
100.64
97.0926
99.4212
96.1845
104.013
98.9206
97.5643
95.58
99.9897
100.452
99.9096
99.8424
100.173
99.9065
100.632
95.0941
99.7021
99.4177
99.9657
100.006
99.5979
99.864
99.3676
99.384
99.0991
97.7477
97.3844
95.6192
46.9087
99.7308
96.2431
95.6799
99.8746
96.8504
95.241
100.31
101.336
99.6153
97.1769
96.6932
98.8513
101.027
98.2688
97.852
95.5548
99.7156
95.0451
98.3074
99.1779
97.1856
128.002
98.3998
97.1384
97.6111
97.2419
97.5923
97.8657
97.389
98.5043
97.5024
97.5834
96.9039
99.6453
95.1585
99.862
95.4138
95.9923
115.365
95.9706
86.5865
85.8453
93.6002
112.874
89.8534
96.0262
115.3
113.868
85.8697
90.8441
98.1909
95.6627
89.5084
112.228
117.673
96.0826
93.2903
115.604
89.5339
114.573
95.7516
95.8555
95.5392
86.1849
94.8905
54.3787
95.9359
93.1634
98.6375
96.0432
85.8508
98.1098
94.8745
113.633
112.314
93.1432
53.5049
89.1182
95.4449
89.2891
96.1096
98.008
92.838
98.2372
115.323
95.9691
52.4187
92.9761
97.7167
98.2328
89.276
48.6416
95.3085
152.585
89.9513
97.2075
93.0596
96.5503
95.3411
99.259
112.216
86.8505
90.2078
48.2009
48.0348
97.0065
97.7131
96.1506
99.7083
97.0377
98.2695
97.1607
92.6273
98.8977
95.5578
97.5911
130.965
98.1952
97.206
98.2282
99.8363
97.0124
96.9155
99.6833
100.67
97.1585
94.9476
99.7029
99.5518
98.329
93.3561
95.0933
95.2655
99.6222
97.0477
97.0065
98.3058
98.547
96.6238
98.1476
99.3818
97.6985
97.6934
99.9784
87.3071
112.358
99.6421
99.661
95.2258
97.5352
98.0529
98.3073
96.9837
99.463
98.8215
98.9171
96.4489
97.0945
99.901
47.2974
97.7451
99.876
99.4642
98.0563
97.1348
99.0901
99.7766
97.2749
99.4925
98.3253
99.1007
99.3574
97.4594
99.3609
98.0252
98.5266
97.8393
99.4247
97.0494
97.2138
99.464
99.2151
99.0248
94.5557
97.6326
99.5069
99.3228
99.3043
95.5055
99.6196
97.39
95.376
98.8973
97.7067
87.4997
99.9316
112.431
99.95
95.2873
99.5533
98.1752
97.7268
131.198
92.7286
93.6222
99.3788
98.186
99.6654
95.7191
98.3408
93.7162
98.0493
96.3125
97.9488
45.4488
123.475
98.3629
99.0094
95.1396
94.8708
95.4193
99.0214
97.1943
131.413
94.2817
99.5938
97.125
96.5498
95.5904
99.1872
97.0715
113.323
88.6769
99.6624
131.612
93.8106
95.4369
99.7145
99.4443
43.3214
123.365
98.3907
94.5219
100.507
99.7794
94.8785
93.5534
98.3221
91.9871
95.9369
98.1405
95.8164
99.2882
97.0462
95.7837
99.6409
98.2007
131.46
94.5011
98.1526
43.7721
49.1192
97.1529
123.399
100.194
96.5638
99.9058
96.1121
94.5353
95.1125
92.0945
93.1479
97.2251
97.6187
90.5182
115.396
99.3804
121.718
95.4079
99.8676
97.8005
96.5782
96.6986
99.8688
99.6137
99.2454
99.698
98.486
95.0743
99.3947
98.6303
93.8212
96.8788
96.0721
99.3619
97
90.2132
115.257
99.6742
131.627
96.8929
96.4004
97.4191
95.8233
100.086
98.6409
98.6041
98.3888
46.629
96.8762
108.124
99.2521
102.037
123.33
102.491
95.3677
98.4591
95.3695
98.688
95.2495
98.7224
86.956
101.773
94.8509
92.8063
107.937
95.4862
99.4391
98.8989
96.4203
96.6385
99.3088
99.3869
99.4035
97.6256
96.4776
99.3969
97.1324
97.3214
99.8744
94.8907
95.1412
101.701
102.144
126.304
94.8228
101.009
96.6389
100.248
98.9378
98.5554
42.335
96.7943
95.065
96.708
103.324
104.634
96.0056
97.0222
102.824
101.141
96.3941
95.5759
93.9452
94.4555
104.34
98.0265
97.8603
98.1598
98.6877
100.14
98.6012
96.9548
98.596
95.3393
101.205
96.1597
101.299
100.17
95.0907
98.5193
132.467
97.895
97.9447
91.5879
98.9485
100.181
100.043
95.6299
98.1276
96.9157
97.1761
97.1826
96.9162
98.3191
96.2763
99.3689
97.0838
97.4292
97.5653
97.3861
91.4886
117.121
99.9091
98.586
99.7049
98.9452
99.3813
99.1253
98.986
100.465
98.913
100.212
96.9495
105.2
98.7803
96.1656
104.028
97.5723
125.688
99.4247
99.3478
99.3642
131.746
98.4461
97.2455
100.182
94.2461
92.1627
98.8481
95.6223
97.4987
98.5558
97.0197
97.0245
101.222
97.1036
99.2107
97.1721
130.696
96.8619
98.4507
101.14
94.6404
94.9245
97.9858
97.9143
96.4204
98.3876
101.936
96.8633
97.9256
99.3896
101.088
98.9419
96.6033
98.9991
96.9549
99.4672
99.642
96.9574
97.7374
123.313
124.192
97.5335
97.0139
99.4152
96.9705
123.691
99.5432
98.8536
98.9942
98.7627
124.691
96.9378
99.4747
92.8461
93.2872
96.9349
97.5485
96.8286
98.1456
100.207
98.5864
99.1769
103.085
97.1098
101.482
131.581
96.9621
97.8101
100.11
96.9729
98.3878
98.2554
98.2475
100.069
99.8992
98.8065
96.9324
99.5021
99.2638
103.834
99.4909
94.8192
93.8831
94.4682
99.6183
98.8808
96.5478
99.3257
97.2942
94.4925
83.2349
99.7318
96.9639
97.4675
100.739
98.1538
90.2447
101.751
97.1803
98.6065
93.9868
98.9202
103.105
98.6842
99.5285
100.911
100.857
96.5856
99.4115
109.997
98.4238
134.627
95.6254
100
99.5675
95.1952
96.5979
98.1868
97.0172
98.8071
97.0746
126.405
91.0842
116.54
100.57
95.2605
99.2154
98.4317
100.067
94.6955
113.671
100.527
102.054
107.921
114.409
98.3642
101.253
97.3318
97.182
98.9543
97.6361
131.841
89.0476
97.0429
95.3132
98.677
55.4511
96.9391
98.0935
100.502
100.505
98.7568
97.8455
90.5252
99.1624
97.7171
97.7764
97.9534
95.9766
100.965
98.9366
101.012
99.4417
45.8955
99.8042
100.002
118.393
99.8577
89.2168
95.9978
40.2798
109.339
96.8773
95.5922
101.574
94.08
131.333
97.3508
97.1096
97.3023
138.981
94.9266
95.7859
98.6484
97.6195
98.3123
98.1312
98.9912
98.098
98.647
100.006
98.5676
124.753
98.2864
100.514
96.592
97.5837
100.457
98.7688
98.0627
96.802
98.3291
99.2534
142.98
95.9693
100.762
98.0167
100.311
99.6175
97.9307
130.357
97.8942
97.175
97.8134
98.6299
74.9755
130.902
98.261
98.0744
99.1515
94.3988
106.427
95.3991
96.9067
98.6612
103.905
98.7437
96.3658
92.2461
98.0516
95.4164
108.487
100.769
97.2199
101.114
94.9454
95.8772
96.9647
100.518
96.6554
98.1826
100.88
96.4581
94.7342
94.0201
102.094
101.048
97.4011
99.1224
98.71
97.7803
99.8275
107.407
100.688
99.7037
98.8364
97.901
96.1833
96.0745
101.358
102.794
104.051
97.0383
99.3137
97.2962
79.9463
99.3516
99.9923
98.1665
99.5622
120.121
101.283
98.7858
97.1111
108.221
88.2924
99.7544
93.9141
99.1626
98.3273
92.2626
118.593
91.7773
96.7794
96.6664
98.6394
100.803
96.9171
97.6397
101.652
100.63
90.877
117.216
97.9615
94.6406
94.993
96.3115
99.2949
97.263
92.0021
95.679
96.9186
102.05
97.464
98.9179
96.9172
99.7877
98.5026
98.3125
99.3725
99.8328
95.0042
94.4772
102.479
94.1125
99.9561
96.2776
99.24
97.529
139.01
115.482
98.6765
97.3189
108.675
116.239
116.084
99.8097
98.154
98.1189
99.5978
98.6489
96.5031
102.109
131.058
97.8326
96.7609
99.6622
89.1994
113.962
97.7089
99.0853
94.0738
99.9966
99.5643
96.983
100.191
95.6641
52.6429
73.7947
97.0965
97.9853
99.5291
98.0819
97.3189
95.6176
107.176
95.3966
123.231
97.5449
100.189
98.7019
98.3025
100.582
98.1432
96.9336
98.6627
96.1333
106.952
98.6672
99.7978
98.7232
130.401
98.1407
95.7207
87.2825
92.9836
130.516
131.437
99.0848
98.9838
99.1809
97.9054
93.3712
97.2548
20.6353
97.4248
126.221
88.8878
98.3702
97.6022
94.6303
130.046
97.9103
95.3953
99.2237
97.5626
97.6917
122.013
95.8883
100.143
97.2403
95.1275
98.2071
97.2472
99.6962
98.1561
103.784
130.697
111.125
97.3721
95.8489
100.133
98.4685
98.7014
97.9032
98.4037
99.4282
94.7531
95.0366
97.4672
99.0351
94.9306
124.59
96.9594
94.3466
103.781
96.3973
46.4353
98.646
99.5902
96.0569
99.2123
97.5261
111.746
97.1565
100.516
99.0916
94.7863
99.3535
97.6093
98.4673
98.798
100.525
96.536
99.7925
99.9342
93.9608
101.061
97.9613
98.9068
96.9553
100.966
99.0955
102.552
100.141
99.1236
97.1433
103.83
98.281
99.893
98.0384
124.55
126.317
97.3592
97.6285
99.355
97.6408
97.555
96.9777
98.2182
95.3863
95.8769
94.887
108.793
96.1409
97.0397
97.5149
98.962
100.476
95.3295
88.8262
98.2188
100.648
118.122
97.2112
98.7098
97.9107
98.1798
98.0278
91.1667
96.6828
99.6701
99.297
96.6967
98.0995
85.0865
106.639
100.6
94.6992
96.6148
97.8101
98.7507
99.5933
98.4169
104.128
103.673
97.725
97.183
95.6286
97.7901
99.7771
98.2273
97.8257
97.2047
97.3689
99.139
97.8287
97.4319
95.5392
98.0756
99.0885
99.1506
104.417
95.3951
99.2295
98.0708
98.9998
95.9354
99.8136
99.0228
98.2316
98.4414
99.6614
100.118
130.881
91.1377
39.4104
95.804
95.0773
100.664
99.8563
97.0134
99.1786
97.7778
97.6198
99.1739
97.8988
104.031
95.0861
121.725
97.8695
98.0266
99.0416
97.2453
123.14
96.5636
97.0583
98.7023
101.514
122.414
95.7419
95.1215
98.7201
92.6156
132.127
103.169
100.158
97.7537
114.065
88.5207
94.9005
97.0983
95.1177
98.2893
98.9022
94.7664
99.2235
98.1284
97.4589
97.5917
97.6635
97.3382
98.1951
98.3563
97.6276
99.6596
97.7717
100.144
97.9158
96.7383
97.7472
97.0443
97.0676
99.2335
96.3194
89.8487
97.9101
121.393
97.1626
93.9865
99.0057
38.3705
99.6932
127.953
96.9263
97.0296
94.4816
98.782
98.402
98.1424
100.699
97.3103
99.2928
99.3933
97.2067
124.116
93.2913
89.7968
98.2677
99.2481
132.678
96.6375
100.758
96.7288
99.7748
97.9677
103.175
98.2323
94.2003
95.0493
99.1675
97.7676
99.2325
96.6827
97.7128
97.7237
96.8873
84.3941
100.01
98.9182
100.396
59.0955
104.145
113.379
100.166
96.9555
130.827
75.1402
117.987
102.395
95.2045
99.1842
97.7618
97.8515
108.343
93.3872
98.8196
97.972
96.9997
98.3616
125.206
136.016
97.9632
117.672
103.178
130.232
99.9411
98.169
100.095
97.8988
97.9077
96.0397
116.188
98.62
97.7972
98.6968
95.8143
130.75
98.0967
118.305
91.7068
100.066
100.016
98.1772
95.1394
97.0685
99.4013
96.3136
97.1036
96.566
99.1815
99.6771
96.9646
97.0223
100.29
95.7402
99.2718
104.676
42.5254
130.356
97.75
96.1542
98.1302
99.006
99.2321
99.2852
97.0025
96.9803
98.1153
97.2006
100.305
115.551
100.93
89.8559
115.381
99.2253
98.278
97.4868
104.495
37.2879
98.74
86.651
112.117
90.066
95.6533
105.685
103.635
95.9626
96.8589
93.9365
93.3353
132.397
97.3648
94.0387
97.4398
105.118
46.2014
99.776
99.3571
97.1975
98.125
98.5461
93.2652
97.2759
114.482
98.2508
97.5096
98.5925
122.919
101.45
98.8954
99.8117
99.4715
98.3038
99.5964
97.1738
97.5669
98.1579
99.1095
113.902
95.6116
113.27
98.1379
96.0803
100.879
97.7825
131.982
97.705
98.3283
107.279
118.625
92.1385
100.208
99.187
98.2452
99.4603
97.6571
129.723
97.9219
100.099
99.2022
100.092
98.455
129.113
130.203
99.6388
100.132
96.5206
101.38
98.2836
99.1402
87.6947
97.7031
96.7712
97.8711
97.6611
96.1153
98.2912
83.4445
97.1368
130.061
101.925
100.53
98.7611
97.6806
92.8573
124.758
102.328
98.296
123.181
97.9591
120.126
114.16
96.7812
129.577
96.2814
130.25
99.2668
98.3535
99.3211
106.687
98.8651
111.498
97.1515
105.141
30.1672
97.975
128.793
98.8268
109.213
100.286
110.229
93.4131
129.384
130.141
101.388
114.694
94.6301
93.8989
99.2114
98.2579
97.7598
98.5063
110.841
96.0666
112.594
111.011
96.7572
98.2397
99.1757
131.255
99.8885
98.9776
98.1209
103.717
95.6089
104.206
104.605
96.2226
114.471
100.481
98.2217
96.3465
99.6269
97.8335
112.468
130.524
95.3984
118.657
110.199
97.747
97.8514
97.941
98.1349
96.5866
98.2132
130.286
103.555
99.8427
93.8594
97.9152
118.525
88.0259
100.316
99.5301
97.9151
96.505
98.4742
100.267
96.1129
103.844
99.4302
101.377
98.754
94.7726
99.3278
117.239
106.208
94.8058
98.1801
98.2598
99.6925
111.835
97.9249
96.0368
100.607
97.7423
100.493
89.8511
99.5841
49.8576
101.735
97.2442
105.538
99.3491
96.507
97.4021
130.042
96.2168
123.097
97.937
99.0597
90.3616
95.9816
98.2556
96.5798
100.424
108.133
91.8571
118.051
100.636
99.1664
97.9049
96.9654
99.1453
99.9846
56.5816
55.9989
97.1909
97.6049
100.571
101.001
98.0229
99.2291
93.1753
98.3515
98.5681
96.2352
97.9245
99.3783
98.6421
100.006
100.744
132.361
99.5191
98.8116
96.4095
97.0408
110.17
98.26
98.6484
100.604
95.0946
119.619
92.4449
100.48
99.2659
97.993
47.7076
99.2831
97.7739
112.708
130.904
96.0321
94.5759
98.1392
99.1731
94.866
101.481
95.7934
95.3547
95.5023
99.6598
99.4572
96.5368
97.206
98.5277
98.0769
90.0633
115.2
100.042
94.6419
102.753
98.2727
99.2445
101.113
95.7526
112.118
86.2262
97.7918
100.314
94.4269
95.4259
96.3556
96.2676
93.1461
106.257
96.5273
117.615
127.649
147.158
94.9434
97.8788
132.59
98.0685
98.3207
95.3203
127.521
98.9454
103.058
11.7714
104.19
101.179
93.4537
97.6697
99.2581
97.6289
96.0055
98.8393
100.04
95.5528
96.7921
100.598
103.242
97.6198
132.056
97.1506
117.829
99.8802
95.9898
94.2121
99.1632
97.7626
97.1721
96.8528
93.9918
95.9791
93.6342
38.4482
120.044
91.6395
101.427
95.7379
101.599
93.5161
98.9238
96.8965
98.023
95.3138
95.4594
98.1964
95.9263
94.8628
100.597
97.8143
98.6535
96.0784
124.27
98.1794
99.0785
98.2234
98.2818
104.701
112.844
99.0432
103.395
101.189
89.8461
92.3413
98.9481
97.7755
97.2106
98.6967
100.35
97.0234
94.28
132.165
99.1747
97.8847
131.8
97.1077
96.2916
96.9968
85.2947
105.426
105.212
97.6338
102.684
97.6236
102.718
102.834
106.07
104.223
96.11
97.3192
97.1268
98.3106
93.3536
109.298
97.7302
96.818
97.9037
96.4266
96.0491
104.808
96.0709
98.2769
98.6449
101.504
98.0836
97.0766
97.9205
97.3876
103.362
49.5548
93.5105
99.1708
97.8431
98.667
98.9034
99.5339
96.5921
97.2044
99.0943
94.315
97.79
129.025
96.7583
97.8887
97.6415
91.8297
97.3584
103.503
95.3289
97.6171
94.1655
100.368
94.7229
97.9996
94.2179
120.412
117.901
91.9452
99.7481
99.5443
97.7255
97.872
97.6277
100.77
130.876
105.366
97.5765
121.691
96.952
99.4334
93.6801
97.433
98.4519
89.0943
97.5099
105.898
100.181
95.9194
96.9835
102.562
94.4763
94.2741
134.313
89.7983
94.9211
97.1994
96.734
96.5524
119.938
129.848
97.6244
97.0268
99.6424
115.963
101.031
97.9003
97.1251
99.3387
96.2336
100.8
96.7915
98.4461
97.1927
102.436
97.5955
86.3631
112.117
97.9611
95.5299
94.3652
101.115
99.457
107.869
100.164
99.9126
99.5561
96.7661
99.2402
97.9118
103.871
96.8851
19.0592
103.317
97.2566
100.78
96.0255
97.1937
98.3859
97.5843
97.5365
99.322
97.5789
95.3628
95.8243
129.159
91.5057
130.668
98.3407
99.0916
96.8471
98.8757
99.7565
96.5432
57.6319
123.554
103.95
97.5628
99.6123
99.3843
91.1043
90.5934
95.765
98.4824
104.13
103.747
99.2262
94.934
48.9085
97.7602
95.9173
99.2288
100.917
98.3821
96.9446
99.0553
95.5743
55.2984
99.2085
99.3418
100.857
98.2112
99.1591
94.7627
95.0458
97.2302
102.319
115.266
102.565
100.092
96.1508
96.308
100.287
88.1988
96.3131
132.59
124.064
95.9769
89.1397
101.361
99.1656
94.5256
97.7889
98.4812
122.938
101.905
106.489
99.2815
94.7772
100.673
99.1255
105.296
97.2066
117.983
100.271
88.2261
99.5431
97.1128
132.195
98.1521
95.1108
95.291
95.2593
99.3695
94.874
46.2438
114.017
99.2676
98.9211
94.6987
93.9615
98.4618
100.55
95.5359
98.2437
97.8041
98.1141
99.2817
131.75
100.716
100.591
94.4504
97.4579
53.5065
98.1104
87.4848
116.121
100.159
96.6317
94.3869
104.048
99.23
98.0152
99.2487
92.6485
97.9646
98.6002
100.029
130.032
98.9376
96.4786
97.3416
99.0656
98.5118
93.0168
97.1259
96.7279
100.338
96.1414
95.3013
104.367
99.2217
98.2531
122.247
73.1933
96.4467
56.6036
98.3303
99.0756
92.4537
90.9978
98.313
96.3322
82.9783
97.2144
124.235
100.388
87.6788
118.294
129.19
122.168
96.8776
97.4101
94.4938
100.032
97.6221
90.0642
93.3396
98.2886
98.1728
113.42
112.995
106.003
95.1694
98.2954
94.5982
104.297
97.9458
97.777
96.7906
97.9294
99.2994
129.959
97.582
97.627
97.8769
98.002
99.3792
99.2635
95.2627
98.284
99.5077
96.3797
97.1184
99.1423
93.7476
97.5598
98.0293
100.436
94.6166
93.8271
97.898
97.5959
94.2814
114.107
98.6838
99.1468
99.1853
98.6945
118.69
127.229
98.6303
96.7821
120.944
100.849
106.038
98.2785
99.2651
99.3496
97.0418
99.5168
97.7229
97.8068
93.8468
96.4223
97.7911
131.349
96.1087
97.621
94.2841
97.4952
99.5179
96.4898
94.0881
99.1766
98.1432
103.656
126.239
97.392
98.839
101.193
99.3624
98.884
97.3478
96.6975
98.9931
95.1432
98.1435
99.3406
98.6003
53.0517
97.2664
130.432
98.015
95.8137
98.661
128.708
96.8918
55.2463
104.444
97.8713
97.7415
98.172
96.7214
98.1699
99.2394
94.7203
98.1768
93.2083
99.3082
98.172
97.6785
98.496
104.485
130.955
97.5842
92.8719
99.6147
99.2447
98.2364
99.0899
112.697
86.1037
95.8098
103.844
100.342
103.523
100.93
103.839
123.692
97.1011
95.7638
97.7159
99.753
132.253
97.8191
97.5617
97.0004
99.1358
99.7056
98.5449
96.0374
130.954
106.097
98.1364
99.3019
93.1132
104.302
97.1642
101.182
99.1805
97.7544
97.9039
95.2759
46.0577
99.9076
99.3729
115.304
132.084
99.3693
94.4104
97.4115
130.441
96.4804
103.023
96.9832
38.3551
61.0654
97.5611
48.7505
97.3489
37.6249
99.3192
115.659
99.3142
99.0151
98.2257
98.2329
98.2137
98.2288
98.8988
98.9536
98.8093
98.6834
98.2147
98.5454
61.4632
97.7988
97.6618
98.1852
97.8486
55.4444
98.1038
100.814
91.442
94.535
93.0804
90.3037
66.7611
48.5474
89.8533
75.8953
71.2851
90.3115
98.1243
99.1339
99.1181
99.1179
98.9811
100.066
98.4244
99.1691
101.565
98.2015
100.852
99.8664
101.638
100.136
99.2199
103.925
117.834
119.05
97.7177
105.187
103.103
90.9689
102.281
106.941
117.537
121.703
111.723
109.364
125.529
129.41
133.241
132.107
101.47