/*--------------------------------*- C++ -*----------------------------------*\
| =========                 |                                                 |
| \\      /  F ield         | OpenFOAM: The Open Source CFD Toolbox           |
|  \\    /   O peration     | Version:  v1912                                 |
|   \\  /    A nd           | Website:  www.openfoam.com                      |
|    \\/     M anipulation  |                                                 |
\*---------------------------------------------------------------------------*/
FoamFile
{
    version     2.0;
    format      ascii;
    class       volScalarField;
    location    "0.78";
    object      nut;
}
// * * * * * * * * * * * * * * * * * * * * * * * * * * * * * * * * * * * * * //

dimensions      [0 2 -1 0 0 0 0];


internalField   nonuniform List<scalar> 
1431
(
0.000465959
0.0050741
0.00225223
0.00142799
0.000466739
0.00151199
0.00166249
0.000786012
0.00685539
0.00645099
0.000941238
0.000426563
0.000754954
0.00132301
0.00471035
0.00067269
0.004353
0.000921197
0.000441583
0.000849609
0.000438714
0.0082488
0.00283617
0.00142045
0.00140872
0.000758848
0.00131542
0.001233
0.001011
0.000945061
0.00144736
0.00072602
0.00196449
0.000546262
0.000533749
0.00194201
0.000744184
0.000857697
0.00196121
0.000856379
0.00232734
0.000674263
0.000898134
0.000782555
0.0036895
0.000564384
0.00224821
0.000809745
0.00088067
0.000868254
0.000980466
0.00422222
0.00481559
0.00176265
0.00118644
0.000771048
0.0022293
0.00255795
0.000981472
0.000361871
0.00302226
0.000822156
0.00223613
0.000782854
0.000903115
0.00100931
0.00232049
0.0010906
0.00521845
0.000749991
0.000510817
0.000492268
0.000994317
0.00151323
0.000941202
0.00118584
0.00069173
0.00294839
0.000784111
0.00198882
0.000805373
0.001001
0.000791459
0.00258627
0.00185596
0.000728949
0.000783012
0.000610944
0.00152559
0.000848333
0.000929716
0.00087044
0.000920832
0.000861251
0.0010875
0.000721695
0.000863411
0.000728563
0.000695442
0.00109628
0.00676825
0.000804883
0.00102998
0.000564608
0.000986528
0.00117658
0.000785286
0.00294806
0.00205058
0.000616732
0.00221494
0.00115367
0.000754817
0.000824839
0.000994773
0.000508164
0.000825091
0.00530433
0.00164082
0.00283988
0.000859002
0.00382256
0.00360653
0.00136296
0.000831126
0.00209649
0.00177325
0.000703804
0.00068888
0.000808986
0.00104428
0.00279526
0.00101053
0.00100971
0.000905855
0.00102911
0.0010948
0.00127151
0.000781099
0.00275433
0.00643202
0.000795617
0.000769532
0.000937291
0.00109423
0.000775158
0.000733337
0.00305353
0.00112245
0.000799094
0.000818465
0.000954415
0.00246081
0.000227932
0.000486949
0.000669069
0.000802842
0.000835394
0.000755676
0.000708467
0.000956615
0.00111005
0.000825357
0.000735571
0.00057893
0.0026278
0.000744235
0.000862943
0.000954296
0.000992372
0.00106632
0.00104511
0.00134944
0.000768511
0.000771306
0.000253991
0.00037321
0.000874974
0.000915175
0.000712798
0.000839192
0.00452047
0.000753604
0.000841172
0.000772996
0.000808554
0.000752625
0.00110634
0.000700004
0.000799232
0.00164772
0.00401811
0.000718339
0.00079005
0.00736607
0.000845844
0.000784683
0.000839977
0.000530552
0.000403406
0.000352521
0.000659549
0.000750148
0.00227095
0.000785603
0.00159292
0.000744852
0.000834168
0.00107725
0.000877981
0.000789283
0.000782511
0.00162319
0.000831597
0.000901705
0.00107413
0.000756558
0.00109898
0.00184051
0.000833688
0.000830225
0.00204718
0.000776659
0.00210954
0.000825719
0.000874819
0.000964967
0.000866874
0.000827975
0.00157634
0.000720188
0.00108963
0.000746703
0.00079614
0.000789942
0.0007832
0.000736287
0.000720754
0.000826694
0.00236871
0.000841484
0.000723023
0.00776446
0.00328591
0.000627463
0.00058822
0.00083036
0.000844389
0.00095791
0.000970057
0.000723082
0.00748329
0.00679805
0.001151
0.00247691
0.00109336
0.000410599
0.00217228
0.0011295
0.00110307
0.00108134
0.000566387
0.000588386
0.00643165
0.000789551
0.000808403
0.00103076
0.000746466
0.000990874
0.00728741
0.000744651
0.000935146
0.000726273
0.000726371
0.00107038
0.000764964
0.00109314
0.00116879
0.00130215
0.00608068
0.00589473
0.00255698
0.00258393
0.00101359
0.00102758
0.00117874
0.000747367
0.00075481
0.000903737
0.000832277
0.000776253
0.000868179
0.000748406
0.00101271
0.000730721
0.000744795
0.000710431
0.000768542
0.00274602
0.000704951
0.0008437
0.00100384
0.000645035
0.00073853
0.000734321
0.00347576
0.000828439
0.00110087
0.00111132
0.0014993
0.000835905
0.000783538
0.00282378
0.00112604
0.000552359
0.00396335
0.00587671
0.00232493
0.000794809
0.00525383
0.00324517
0.00370378
0.00492481
0.00289219
0.00713009
0.00659293
0.000806466
0.00716411
0.00174066
0.00083085
0.00321402
0.00105967
0.00233094
0.00133908
0.000785979
0.00818417
0.000919304
0.00234725
0.000997359
0.00104432
0.000331245
0.000822389
0.00774905
0.000936324
0.0017897
0.000218651
0.000826269
0.000265381
0.000274284
0.000432821
0.000383616
0.000213923
0.000322491
0.000417478
0.000310923
0.000479075
0.000254722
0.000245454
0.000379784
0.000303331
0.000403435
0.000430279
0.000425092
0.00016568
0.000401364
0.000253806
0.000419634
0.000417796
0.00259545
0.00242644
0.00457577
0.00204544
0.00491481
0.000759046
0.000985729
0.00152285
0.00431091
0.000841914
0.000848843
0.000396981
0.000221557
0.000262115
0.000464671
0.000287367
0.000507179
0.00042511
0.000424115
0.000272196
0.000403255
0.000192007
0.000285186
0.00271911
0.000882128
0.000848691
0.00605361
0.00107478
0.00175227
0.000834636
0.00714011
0.000771853
0.000311349
0.00435427
0.000832668
0.00105914
0.00363108
0.000790146
0.00200151
0.000722852
0.00149405
0.00312985
0.000830449
0.000533222
0.00115749
0.00211318
0.00100609
0.00103588
0.00540448
0.00694859
0.00217388
0.00154562
0.00269737
0.00272441
0.00876819
0.00217014
0.00176789
0.00557697
0.00321119
0.00596658
0.00612722
0.00587054
0.00530661
0.00144241
0.000544415
0.00428598
0.0026269
0.00599654
0.00373768
0.00434029
0.00194418
0.00244217
0.00183242
0.00126793
0.00359282
0.00305581
0.000365296
0.00512075
0.00609311
0.0011116
0.00034635
0.0057703
0.00502136
0.00802968
0.00580761
0.0089921
0.00314051
0.00901494
0.00809532
0.00679996
0.0087054
0.00246626
0.00296536
0.000621518
0.00210346
0.00183159
0.0022206
0.00188606
0.00141798
0.00292265
0.00158457
0.00213589
0.00255835
0.000952354
0.000738671
0.00107767
0.00128147
0.00197833
0.00256083
0.00251455
0.00376832
0.000380875
0.00204312
0.000983808
0.00108637
0.000799633
0.000824049
0.000997216
0.00174007
0.00795417
0.00489255
0.000279088
0.000281889
0.000527775
0.00216074
0.00301238
0.000427941
0.00100632
0.00123031
0.0018566
0.000837183
0.00185063
0.00166932
0.00148366
0.0061699
0.00632147
0.00547206
0.000609043
0.00204872
0.0083653
0.00191145
0.00123393
0.00113886
0.000773391
0.000743634
0.00222133
0.000792306
0.00224823
0.003324
0.00135955
0.00190246
0.0016096
0.000597232
0.00131614
0.000957175
0.0014531
0.00121958
0.00427874
0.00421639
0.00343789
0.00105742
0.00306198
0.000807209
0.000739632
0.00216256
0.000939022
0.00636141
0.00320792
0.00756411
0.00316055
0.00477091
0.00212701
0.00644146
0.00337277
0.00512499
0.00185492
0.000277813
0.00830843
0.00454666
0.000795671
0.00759543
0.00208781
0.00196914
0.000391337
0.00107869
0.00455503
0.00253601
0.00366483
0.00794401
0.00481272
0.00103969
0.000757718
0.00508915
0.0031639
0.00778723
0.00388488
0.00252293
0.00175201
0.00381747
0.000740602
0.00248703
0.00518807
0.000307323
0.00750662
0.00242207
0.00791113
0.00282029
0.000813662
0.00293902
0.000949948
0.00409475
0.00100395
0.00101352
0.000797661
0.00334603
0.00621018
0.000991598
0.00328961
0.00472723
0.000789946
0.000994281
0.000794881
0.00212126
0.00271416
0.000848176
0.00078005
0.000769913
0.00337051
0.000730086
0.00200668
0.000739409
0.000214905
0.00492006
0.0049397
0.00207636
0.00472323
0.00630538
0.00752629
0.00116443
0.00190067
0.0079797
0.0020387
0.00169729
0.00553651
0.00202852
0.00653351
0.00190561
0.000744413
0.00256847
0.00400735
0.00753207
0.00715347
0.00191541
0.00249929
0.000915043
0.001213
0.00109654
0.000932628
0.00175203
0.000779267
0.00514573
0.000804287
0.00762162
0.000898234
0.000320583
0.000805139
0.00299223
0.00595284
0.00196602
0.000732977
0.00108786
0.000884031
0.00485129
0.00743006
0.000806287
0.00642052
0.000819118
0.00745489
0.00490746
0.0059612
0.00476815
0.000899837
0.00118055
0.00360393
0.000766259
0.00112813
0.00657685
0.00557049
0.000820286
0.000841075
0.00232929
0.00637081
0.00649606
0.00122783
0.00092172
0.00101422
0.000827469
0.000201089
0.000848074
0.00864545
0.00673946
0.0026599
0.001042
0.000821858
0.000917849
0.00617972
0.000796422
0.000756514
0.00133997
0.000983364
0.00122915
0.00104607
0.00464546
0.000429058
0.000758164
0.00111649
0.00103654
0.00224268
0.00164092
0.00727094
0.00376381
0.00265184
0.00190242
0.00676814
0.00640107
0.000686797
0.00446472
0.00171982
0.000188899
0.00029594
0.000824367
0.000722101
0.00636276
0.00160554
0.000763104
0.0013821
0.000720318
0.0013616
0.0011189
0.00705407
0.000850251
0.00237806
0.000949668
0.000846018
0.001925
0.00888754
0.00730213
0.000635539
0.00545992
0.007962
0.000714814
0.000755346
0.000644497
0.000838319
0.000803122
0.00340312
0.00124837
0.000626373
0.00873998
0.00821663
0.000686532
0.000389154
0.00451416
0.000306077
0.000704073
0.000720978
0.00406194
0.000765646
0.000825144
0.000720306
0.00642207
0.000877358
0.00703428
0.0077673
0.000691845
0.00058172
0.00078565
0.000663521
0.000748559
0.000858717
0.00119097
0.000419859
0.00641495
0.000753944
0.00074112
0.000762594
0.00105859
0.000933438
0.000845058
0.000840735
0.000871699
0.00192673
0.0010898
0.00119576
0.00168496
0.00186459
0.000852814
0.00302123
0.000505636
0.00185579
0.000793739
0.000755535
0.00108466
0.00325729
0.00060363
0.00172687
0.000705782
0.000777508
0.000972637
0.00260079
0.00306831
0.000713875
0.00075708
0.000338753
0.000770268
0.00543191
0.00225713
0.00364489
0.000685724
0.00163039
0.00106828
0.00211214
0.00112388
0.000771151
0.000880186
0.000940277
0.000847848
0.000834463
0.00063955
0.00165347
0.00395973
0.000806782
0.00363838
0.00711967
0.000710321
0.00153343
0.000244318
0.00291321
0.002063
0.000977101
0.00288846
0.000629723
0.000828491
0.000808554
0.00484707
0.00126063
0.00169187
0.000833881
0.000673879
0.000597531
0.000538647
0.000648998
0.000837376
0.000732203
0.000774808
0.0044922
0.000923453
0.00077636
0.000908836
0.00754406
0.00138623
0.00119692
0.00036751
0.000591845
0.000922007
0.00130106
0.000886214
0.00105413
0.00211529
0.00112572
0.000345961
0.0023027
0.000777954
0.000721633
0.000731551
0.000663783
0.00228021
0.00070969
0.00178773
0.00386355
0.00432805
0.000818737
0.00533598
0.00434669
0.00261232
0.000444054
0.00174092
0.000720582
0.00323798
0.00447915
0.000837691
0.000865808
0.000805482
0.00103806
0.00139482
0.00117402
0.0016265
0.000566342
0.00080246
0.000760672
0.0010224
0.00121262
0.000777663
0.00196027
0.000705709
0.00549311
0.00109737
0.000777659
0.00140501
0.00101054
0.0011261
0.000817685
0.000719524
0.000948958
0.0010312
0.00155023
0.000745702
0.000479851
0.00075979
0.0029829
0.00387813
0.000708245
0.000875556
0.00287604
0.00170269
0.000824943
0.000863333
0.00299798
0.000879517
0.00138894
0.000923547
0.000717112
0.000980126
0.00099689
0.00692155
0.00414622
0.000958394
0.00095388
0.000844229
0.000883115
0.00133624
0.000528785
0.000892225
0.000804976
0.00511849
0.00108851
0.00784052
0.0052593
0.00307915
0.00086279
0.000796398
0.000749827
0.00131904
0.000783242
0.000811264
0.000813609
0.000793823
0.00106179
0.000768339
0.000730047
0.00752142
0.000691169
0.00846736
0.000748441
0.00107818
0.000590902
0.000573853
0.000585702
0.000602045
0.00054915
0.000503811
0.00323359
0.000322814
0.000278185
0.000818694
0.000439125
0.000510644
0.000415188
0.00233021
0.000682179
0.000999462
0.000131519
0.00830129
0.000185071
0.000706561
0.00401882
0.00366015
0.00168883
0.000369735
0.000922657
0.00419562
0.000941836
0.00484991
0.00783406
0.00210348
0.00100297
0.00473481
0.000160858
0.000310853
0.00086803
0.000143607
0.00274202
0.00664943
0.00798325
0.00439184
0.000964419
0.00629415
0.0089147
0.000815586
0.000188398
0.000224526
0.00106522
0.00557098
0.000779601
0.00295242
0.00230667
0.00289233
0.00074372
0.000299085
0.00301498
0.000132963
0.00101566
0.000190348
0.000822908
0.00244327
0.00485593
0.000830273
0.00191563
0.00829761
0.000896583
0.00218947
0.000592684
0.000913476
0.000974216
0.000809521
0.00118818
0.00109118
0.000776368
0.00153893
0.00432256
0.000845968
0.00108776
0.00720425
0.00904393
0.000811998
0.000727135
0.000985436
0.00271738
0.00227079
0.00460684
0.0010653
0.00766992
0.00587933
0.00327162
0.00254189
0.00263316
0.00107305
0.00205179
0.0032893
0.00120121
0.000650507
0.00256774
0.00681899
0.00887608
0.00373605
0.00267976
0.000970434
0.00640633
0.00256611
0.000837417
0.00103163
0.00130098
0.00116982
0.000487763
0.000680493
0.00127276
0.00143223
0.00239455
0.00302874
0.00756279
0.000751377
0.00563134
0.002137
0.000624139
0.0072762
0.00429066
0.000953363
0.000797703
0.000853229
0.000784928
0.000366262
0.000749448
0.00162932
0.00462101
0.000846288
0.00077097
0.000774801
0.000817176
0.00106386
0.000776953
0.000840428
0.00727091
0.000861553
0.000797201
0.00079165
0.00202005
0.000820413
0.00103956
0.000218002
0.000777448
0.000791391
0.00080277
0.000180433
0.000671234
0.00103817
0.00146875
0.000743396
0.000206984
0.000996221
0.00103536
0.000793985
0.0072315
0.0036593
0.000743932
0.00096869
0.000767078
0.000534249
0.000112165
0.000940985
0.000833605
0.000696013
0.00235264
0.0019183
0.000164325
0.00106903
0.000864764
0.00038733
0.000864305
0.00594588
0.000892284
0.00150306
0.00080914
0.000857015
0.00584548
0.00107888
0.000699442
0.0010587
0.000909144
0.00520692
0.0012816
0.00107327
0.000799403
0.0012798
0.00101008
0.000790604
0.000158303
0.000890629
0.000124959
0.00120335
0.00331223
0.00182295
0.00122101
0.000788535
0.000514603
0.000463327
0.00872766
0.000447327
0.000947729
0.00291171
0.00103764
0.00111517
0.000495322
0.00111353
0.00091852
0.00836915
0.00766412
0.000932736
0.000799215
0.000805994
0.000311264
0.00166336
0.000821565
0.00300137
0.000477678
0.00128508
0.00670548
0.00108293
0.00109348
0.00513539
0.00114909
0.000514055
0.000834798
0.00133456
0.000129168
0.00114344
0.000808542
0.0080383
0.00155472
0.000771424
0.000449721
0.00126692
0.000142277
0.000840556
0.0015776
0.00687217
0.000781917
0.000838201
0.000839724
0.00078548
0.000476267
0.000459051
0.0054174
0.000619661
0.00320497
0.000746624
0.000702504
0.00636304
0.000827171
0.00306283
0.0082783
0.000592163
0.00112503
0.00166981
0.00216406
0.000870472
0.000168132
0.00485678
0.00762012
0.000852617
0.00850251
0.000792929
0.000738818
0.0065157
0.00236911
0.00218225
0.00109498
0.00636324
0.000880697
0.000851166
0.000796742
0.00733339
0.000842459
0.000819754
0.00160843
0.00734071
0.00098566
0.00115115
0.00170677
0.00276736
0.00232264
0.00193839
0.00155264
0.00131591
0.00784405
0.00047382
0.000241428
0.004389
0.000746105
0.00114272
0.000737887
0.0007725
0.00084436
0.000905568
0.00192014
0.000482711
0.000881813
0.000141693
0.00696511
0.00104063
0.000747295
0.00244077
0.000518804
0.000990526
0.00290366
0.00156162
0.000978145
0.00104577
0.00909121
0.000917378
0.000634333
0.00250879
0.000726137
0.000653453
0.000685538
0.000790488
0.00102367
0.00303126
0.0070069
0.00201904
0.00062203
0.00736417
0.000904029
0.00086835
0.00186658
0.00349675
0.00494381
0.000769201
0.000844083
0.00504416
0.00243747
0.000926265
0.00504506
0.00574693
0.00118555
0.00129495
0.000827811
0.00100937
0.000813814
0.000876385
0.000794319
0.000838581
0.00100937
0.00062276
0.0038434
0.000815251
0.000958274
0.00313935
0.00252596
0.00739836
0.00842274
0.00804707
0.00109748
0.0026054
0.00116168
0.00445874
0.000779945
0.000455658
0.00084588
0.000956926
0.00505305
0.00105579
0.00118613
0.00784382
0.000784517
0.00436121
0.00792322
0.00889625
0.00622132
0.00909987
0.000774488
0.00337038
0.00855838
0.000845145
0.000781915
0.000334044
0.00532407
0.00461005
0.000492233
0.00575391
0.00835857
0.000581173
0.00126155
0.000579336
0.000153167
0.00199923
0.00871732
0.00167066
0.00237131
0.00103815
0.000854779
0.00888965
0.00100829
0.00151439
0.00364205
0.000667697
0.00184565
0.000758307
0.00122682
0.00189507
0.000817626
0.00101062
0.000640962
0.000723831
0.00448162
0.000985563
0.000782298
0.00012792
0.00168989
0.000953025
0.000801135
0.000722328
0.000989666
0.00145853
0.000683446
0.00116413
0.00514079
0.00122961
0.0019784
0.000867358
0.000855761
0.000720337
0.00464127
0.00124535
0.00220607
0.000721496
0.00239719
0.00290311
0.00197135
0.000673835
0.000752903
0.000550604
0.000696426
0.000945225
0.000714452
0.00100815
0.000858023
0.00508668
0.000721554
0.00548154
0.00056144
0.000792465
0.00822434
0.00104224
0.00199854
0.00240832
0.00274413
0.000810678
0.00102562
0.00182114
0.00084289
0.0031691
0.000488325
0.00101151
0.000917836
0.00132528
0.00289263
0.00745336
0.000695103
0.00117333
0.000850033
0.000281543
0.0010598
0.000664706
0.000837306
0.000831355
0.00133035
0.00383388
0.00155795
0.000876639
0.000909242
0.000912285
0.000792015
0.00163112
0.00850185
0.0086879
0.00856952
0.000740768
0.000669287
0.00886916
0.0083973
0.0085205
0.00784436
0.00511947
0.000801963
0.000758971
0.00115456
0.000744795
0.000609107
0.000912747
0.00162633
0.000590353
0.000851132
0.00113994
)
;

boundaryField
{
    frontAndBack
    {
        type            empty;
    }
    wallOuter
    {
        type            nutkWallFunction;
        Cmu             0.09;
        kappa           0.41;
        E               9.8;
        value           nonuniform List<scalar> 
90
(
8.10079e-05
7.67529e-05
7.78079e-05
7.56718e-05
8.27425e-05
8.47878e-05
8.67539e-05
9.42286e-05
8.00428e-05
8.909e-05
9.15727e-05
9.51585e-05
9.07576e-05
9.32917e-05
9.24579e-05
0.000105053
9.97585e-05
8.12577e-05
7.22581e-05
6.52256e-05
7.83377e-05
0.000100157
8.80527e-05
9.2981e-05
8.00736e-05
0.000113903
0.000113396
8.78032e-05
8.32857e-05
7.13708e-05
6.93065e-05
7.07383e-05
7.27003e-05
6.63234e-05
6.0818e-05
5.28549e-05
1.26555e-05
1.99032e-05
8.49479e-05
4.41059e-05
1.65834e-05
3.64169e-05
0.00010354
1.45092e-05
2.05239e-05
2.51803e-05
1.31011e-05
0.000120067
2.09248e-05
0.000106896
0.000116942
7.84159e-05
7.54073e-05
9.2526e-05
9.47619e-05
1.94412e-05
2.31237e-05
0.000117911
0.000122528
8.94116e-05
6.46963e-05
1.02212e-05
1.75802e-05
0.000103247
9.69261e-05
8.42647e-05
0.00010834
1.69154e-05
0.00010618
1.20572e-05
6.22702e-05
1.26951e-05
9.26036e-05
1.437e-05
9.37382e-05
7.48892e-05
7.162e-05
0.00010393
1.82078e-05
0.000101869
5.7379e-05
0.000105181
1.45599e-05
7.51583e-05
7.51524e-05
1.59354e-05
9.37942e-05
1.2372e-05
8.23765e-05
8.38915e-05
)
;
    }
    inlet
    {
        type            calculated;
        value           uniform 0.000851986;
    }
    outlet
    {
        type            calculated;
        value           nonuniform 0();
    }
    wallInner
    {
        type            nutkWallFunction;
        Cmu             0.09;
        kappa           0.41;
        E               9.8;
        value           nonuniform List<scalar> 
138
(
5.16707e-05
5.44564e-05
0.000222385
6.66061e-05
6.55534e-05
8.11875e-05
0.000259037
0.000126913
6.23251e-05
6.04245e-05
0.000139192
0.000119742
2.76718e-05
5.92693e-05
2.91919e-05
4.38558e-05
6.47967e-05
4.95039e-05
4.28431e-05
7.95803e-05
0.000237247
0.000128971
4.97852e-05
0.00013297
0.000130046
0.000127636
0.000121998
0.000126419
0.000121644
0.000129803
0.00013096
4.03775e-05
2.47758e-05
3.18752e-05
3.29944e-05
5.28857e-05
4.55477e-05
2.43373e-05
3.88726e-05
5.17286e-05
3.70563e-05
5.70433e-05
3.01436e-05
2.8315e-05
4.71984e-05
3.64909e-05
4.86683e-05
5.23056e-05
5.23935e-05
1.7663e-05
4.89698e-05
3.03219e-05
5.10691e-05
5.09821e-05
4.92691e-05
2.48605e-05
3.11883e-05
5.67504e-05
3.44533e-05
6.18873e-05
5.20764e-05
5.18441e-05
3.19432e-05
5.01346e-05
2.21125e-05
3.43703e-05
3.74417e-05
6.43641e-05
0.000122491
6.57476e-05
0.000147373
4.45723e-05
4.15821e-05
7.65056e-05
0.000127128
4.6763e-05
0.000128086
3.31064e-05
3.37356e-05
6.52936e-05
5.30937e-05
0.000143666
0.000171173
0.000143728
0.000133344
0.000157773
3.16992e-05
4.70842e-05
0.000127338
0.000122995
3.69574e-05
2.57952e-05
3.83404e-05
2.29191e-05
5.12041e-05
2.04008e-05
3.58673e-05
4.66027e-05
3.72661e-05
8.33551e-05
0.000127348
6.10855e-05
8.48552e-05
3.92251e-05
0.000111797
2.78701e-05
4.4435e-05
0.000132553
4.17623e-05
5.43795e-05
6.53043e-05
0.000125464
3.81612e-05
3.32802e-05
5.09165e-05
0.000114527
8.92979e-05
3.54634e-05
0.000108243
0.00011528
4.35676e-05
2.46269e-05
9.32855e-05
4.57678e-05
6.34669e-05
5.39633e-05
9.65488e-05
3.69314e-05
5.85293e-05
5.50704e-05
2.76458e-05
8.07184e-05
0.000135714
8.95069e-05
7.38621e-05
0.000186535
7.12392e-05
0.000133098
)
;
    }
    procBoundary0to1
    {
        type            processor;
        value           nonuniform List<scalar> 
29
(
0.0013848
0.00214949
0.00218349
0.00218349
0.00516986
0.00516986
0.0029138
0.00120104
0.0018965
0.00232732
0.00151621
0.00196694
0.000686114
0.000672884
0.00223075
0.00127628
0.00794705
0.00580363
0.00280927
0.00225334
0.000865336
0.000729433
0.00318164
0.000741167
0.000729026
0.00580363
0.000726532
0.000917582
0.000741167
)
;
    }
    procBoundary0to2
    {
        type            processor;
        value           nonuniform List<scalar> 
42
(
0.00711381
0.00842912
0.000548003
0.000488524
0.00187576
0.00711381
0.000548003
0.000570849
0.00138057
0.00136087
0.00377217
0.00582791
0.00377217
0.00706818
0.00830195
0.00522271
0.00830195
0.00141927
0.00131
0.00174875
0.00174875
0.00141927
0.00124743
0.00107413
0.00107413
0.00116149
0.00159981
0.000942247
0.00289407
0.00898533
0.00898533
0.000832676
0.000892899
0.00110848
0.00120083
0.000548003
0.00903496
0.000216346
0.00289407
0.000570849
0.00070417
0.000975302
)
;
    }
}


// ************************************************************************* //
