/*--------------------------------*- C++ -*----------------------------------*\
| =========                 |                                                 |
| \\      /  F ield         | OpenFOAM: The Open Source CFD Toolbox           |
|  \\    /   O peration     | Version:  v1912                                 |
|   \\  /    A nd           | Website:  www.openfoam.com                      |
|    \\/     M anipulation  |                                                 |
\*---------------------------------------------------------------------------*/
FoamFile
{
    version     2.0;
    format      ascii;
    class       volScalarField;
    location    "0.78";
    object      p;
}
// * * * * * * * * * * * * * * * * * * * * * * * * * * * * * * * * * * * * * //

dimensions      [0 2 -2 0 0 0 0];


internalField   nonuniform List<scalar> 
1431
(
91.0816
89.4041
87.9934
91.1069
90.9712
87.011
88.2823
96.7405
90.5292
90.0276
89.1326
89.3096
89.0989
102.403
89.1445
89.4309
89.4854
89.7139
91.0181
89.4627
90.7007
89.8611
88.6439
103.317
79.2805
89.9633
72.8959
101.545
90.6537
90.0818
112.925
119.666
81.7916
87.1949
88.9899
87.4153
91.0416
95.8077
86.9699
95.8983
109.8
89.5842
87.3053
89.3158
81.1578
90.7226
90.7881
117.986
113.927
97.215
89.894
90.1865
89.997
87.0264
88.5996
110.901
90.036
87.9695
79.4651
90.6814
89.6354
88.9661
90.3569
96.6425
98.6713
89.5253
86.6301
86.8438
90.1924
97.0496
87.2935
89.2313
88.7939
87.3251
88.9038
81.9704
90.8487
81.8683
97.0576
73.9338
96.6678
89.7552
88.8126
89.7985
81.7548
90.8974
91.0502
89.1005
104.259
89.8548
90.2865
89.5115
91.0194
95.5391
89.7753
90.7891
88.9534
98.8475
91.1086
112.892
90.1267
95.6976
91.1444
91.0449
89.6276
89.0341
96.7797
113.154
114.825
90.8597
76.0148
89.432
97.2653
89.5479
89.3412
91.0686
89.7346
89.2761
105.164
82.2135
94.1746
88.998
89.9808
108.025
96.3733
88.7678
106
88.8093
90.9337
96.5165
89.2355
114.105
103.387
90.9761
90.9505
90.4396
88.7961
89.4355
90.7649
113.665
91.1992
90.9696
95.7829
114.023
115.245
94.6497
98.3144
113.595
88.8342
112.422
97.3482
99.7849
88.8104
88.849
88.8185
88.8308
96.6745
90.1878
98.044
107.271
89.6356
89.0095
91.1251
89.1529
91.079
72.2846
90.835
94.9401
90.0082
91.1248
105.885
88.9619
111.779
97.548
96.2896
89.4169
88.7579
98.2497
90.2929
103.9
96.7129
89.5542
104.077
90.1576
96.0652
106.942
95.7403
86.7405
90.4938
96.6445
90.1
89.5096
90.7966
96.469
89.9852
93.8794
96.7889
116.416
88.8947
88.8481
88.8225
116.377
110.851
108.499
96.7
76.1785
90.857
97.1151
88.8391
100.632
96.4664
97.3422
108.719
97.0178
90.1171
87.6231
98.9662
89.6637
89.4126
96.7164
96.7108
69.5056
95.9489
101.17
97.3946
91.5189
109.769
90.5439
101.628
113.254
91.0004
90.266
96.9367
95.1295
96.4159
97.0664
98.0816
91.1005
96.6211
88.6498
98.5112
109.136
90.8829
89.3962
88.9413
89.0722
95.9677
88.7087
87.0927
104.767
102.617
90.8313
89.9991
116.69
90.3139
97.5628
90.1111
88.6571
96.4063
96.9159
97.4055
89.22
91.0923
91.0816
96.6433
100.729
91.8248
95.5944
102.705
90.9163
96.7879
112.845
101.592
100.597
97.0065
93.7647
90.933
89.3659
89.2859
90.044
90.0875
88.6399
89.6547
90.6888
93.7808
88.7174
90.9733
102.53
103.586
97.817
94.5646
96.6159
102.405
90.2645
104.117
99.2453
90.8099
102.021
88.7701
105.502
96.8489
111.424
88.8189
115.767
89.1448
88.9848
96.787
97.2692
96.6313
90.3923
97.6184
96.1278
89.6555
91.1008
89.0538
89.1747
90.4016
88.8255
96.0169
90.2292
88.9436
90.4357
91.6065
88.7313
90.8225
90.0816
96.5651
90.0077
110.293
97.3225
89.6461
88.9918
88.604
90.2314
96.4006
90.9208
90.2996
90.4373
90.1319
89.1164
88.8169
96.6603
89.962
89.4122
101.512
89.0092
97.3541
89.0018
90.8816
90.5613
89.0984
89.4047
89.338
89.7473
89.082
89.1097
89.3583
89.0241
89.7786
88.7506
90.2511
89.0922
89.8208
91.0129
90.7663
89.0147
89.9944
89.0189
89.7354
89.6723
89.2226
88.6011
90.3143
105.526
89.8335
89.4375
89.5371
96.108
95.3652
89.8625
89.3988
89.0523
90.6525
89.3366
89.083
89.9031
88.9065
89.0514
89.7195
90.954
89.0138
88.4067
108.433
96.1062
90.1306
89.4089
90.4111
97.061
90.6198
96.7259
88.6925
89.6521
96.9798
90.01
89.7527
93.5167
88.9153
115.53
90.4184
89.5265
93.8697
89.5424
89.3084
86.1664
114.639
129.632
89.4663
90.9078
89.0219
90.3918
88.7475
90.5997
90.098
88.8156
90.5543
89.4179
88.9593
90.2137
80.7437
89.2538
80.9899
88.737
89.7535
90.474
88.6863
89.2533
90.5837
90.2328
88.9024
86.9585
88.2138
92.4984
90.2163
89.98
88.5168
90.7646
90.798
88.5897
88.3179
90.6649
90.6414
90.1814
90.8323
89.986
90.4965
89.8621
90.0357
90.2431
89.9564
88.7914
83.7511
89.8133
87.0233
87.3907
88.9062
88.9821
90.4515
84.7619
87.1982
88.9891
85.4415
89.5783
115.48
112.919
87.3089
88.9869
88.4029
88.0938
89.4318
90.2915
90.4258
89.5703
99.2272
94.9992
115.44
89.4922
87.3883
90.3988
90.3452
88.4744
88.4399
90.1739
88.9973
92.7433
90.3176
89.555
88.0438
89.5095
97.1388
89.2398
87.3559
83.6676
89.983
89.1676
89.217
88.5463
88.9785
90.2564
90.3109
91.425
91.1037
88.45
97.8238
89.6118
96.7247
90.2089
90.2534
84.4172
90.3808
89.004
88.7317
88.7658
89.1724
90.4576
89.4545
90.5108
89.633
90.3597
88.7688
89.7381
115.427
116.28
88.9964
88.8889
90.3286
90.4375
89.7481
89.4744
90.8031
94.9119
89.1315
89.2109
89.5532
89.8641
89.3923
90.3967
89.903
96.5768
90.2978
88.9817
89.0683
89.0573
95.9557
90.4452
88.6714
89.7318
89.503
89.4535
94.9543
100.346
90.7632
89.0424
89.5501
90.5254
81.2708
90.5267
90.7589
101.717
89.9068
89.1567
89.0148
90.6118
91.01
90.5224
88.578
89.8584
90.7138
89.9975
89.098
98.4591
89.5353
96.6399
89.6816
89.2905
88.9562
89.2719
89.6384
94.938
89.8091
99.8647
89.9563
88.1
94.3777
95.4636
96.5026
89.1366
90.8726
89.8191
100.681
88.9582
89.6516
89.6011
88.9662
89.6128
89.6976
90.5168
88.8919
88.9784
90.5648
90.1458
94.3144
90.689
90.4554
90.4114
92.0501
99.7092
89.8442
90.476
90.0569
90.4158
88.9649
88.8459
89.734
88.9908
89.5247
122.044
88.9859
90.9726
90.5844
96.5007
90.7157
89.5392
89.8528
96.4919
88.775
90.4319
88.967
104.028
93.0888
89.4388
89.3932
90.48
96.5366
90.6647
89.1652
89.4721
89.2482
90.6725
90.2473
89.3847
89.2984
89.0504
98.8837
93.7599
90.8538
90.5144
96.8086
96.5129
90.1526
90.6154
89.0838
91.1744
89.7703
90.1092
97.0868
89.0017
92.9696
90.2465
90.5194
89.5156
91.0343
96.718
89.741
89.148
115.298
114.613
87.4062
89.9142
89.0243
95.4549
89.1954
89.0367
89.1194
89.3438
89.7428
88.7651
90.5598
89.2511
89.4797
90.514
113.618
89.0602
89.2629
91.1742
90.6922
88.9807
91.08
89.1076
96.8244
105.587
89.4501
88.9836
100.769
89.001
90.7729
128.033
92.7541
90.6624
91.2962
108.495
89.9616
90.732
88.9619
90.0658
90.3179
97.4485
89.4629
90.3174
107.684
91.0202
97.2827
98.2519
96.4068
88.8964
89.071
97.8792
89.911
90.7922
106.787
90.3693
90.4405
89.7985
106.223
105.591
89.6683
99.7901
89.7625
89.0187
90.7882
89.7845
89.129
90.8504
116.821
90.1471
99.0629
97.9445
101.484
102.555
106.945
88.9259
90.7767
103.092
104.911
103.323
90.2327
89.0649
96.5852
96.8526
97.224
106.767
89.2711
105.049
109.866
101.497
96.3081
89.4934
89.2666
108.332
98.6217
104.146
89.3839
97.1093
90.9097
88.9699
89.8689
100.492
91.1646
89.5006
90.4795
88.9788
88.8015
89.3157
102.492
91.5389
90.6288
105.091
90.7941
88.9692
89.3504
107.488
90.6744
98.858
109.853
139.732
95.9189
96.9461
90.9869
88.9949
91.7123
96.0783
90.78
89.1383
109.921
89.0128
91.133
88.8783
93.0692
89.6384
88.5884
90.8786
97.3379
96.1865
90.0938
91.0835
79.0414
98.053
97.8208
95.2415
95.3773
95.5108
98.7714
96.9192
101.638
89.5879
89.0363
97.5442
88.7797
89.2595
89.0348
91.1005
89.3597
90.7096
89.0213
91.1958
89.1616
90.9549
90.453
96.3122
88.6871
90.7074
98.0395
113.797
98.4986
95.2524
85.0276
112.021
88.9754
89.1379
89.2251
96.5801
89.5642
89.1703
88.7827
90.5272
120.552
89.002
90.0922
89.3708
96.7509
96.8348
96.4848
90.4256
88.9919
89.4903
88.9703
90.9281
95.2403
107.272
91.1138
89.0685
115.164
97.7246
90.0728
89.3166
90.593
105.914
87.1893
89.1808
89.4092
96.7404
91.1453
89.0744
89.3488
90.4264
97.0487
91.0422
88.9662
83.1675
81.7933
114.144
98.5029
87.4297
87.2861
96.9644
90.8089
86.879
90.6724
88.9947
90.2243
88.8411
89.6892
89.5926
90.1308
90.288
111.013
113.259
98.6568
91.1824
90.5032
90.9048
89.9637
96.4068
90.1873
89.9188
89.9874
89.4418
89.7231
97.1276
89.0352
88.9103
90.4941
97.1952
89.1375
96.561
96.5922
98.3945
89.0098
96.9561
90.3189
107.612
90.1262
107.727
88.9638
89.1395
89.6915
89.3427
89.0888
90.1061
90.4961
89.6814
91.2405
89.35
96.9135
90.7885
90.9887
89.0272
73.0941
90.8607
89.6858
91.0851
90.4168
91.0437
89.9858
90.6401
107.83
88.9933
90.9711
89.5898
90.7259
89.4834
91.0206
90.9587
89.0305
89.7185
89.4339
91.0648
91.0541
95.4387
90.955
89.7586
90.7834
89.964
89.3553
85.8041
90.5002
89.8066
96.6777
91.0367
91.0292
89.4279
89.3902
99.5808
90.5921
89.936
90.3803
87.2768
90.5438
96.3412
91.0351
94.1185
90.994
97.0175
90.7367
89.3032
97.4964
89.0015
89.8793
102.824
80.4689
90.8919
91.0161
89.101
97.4512
87.3706
89.5983
97.1956
87.4262
89.319
95.0406
90.4162
90.77
89.9739
96.4874
99.6557
111.968
88.3972
91.3254
90.9875
89.7167
90.7383
89.3019
91.7145
88.7899
82.6182
99.6064
89.0084
88.9498
89.3491
89.166
110.957
90.859
89.8321
89.0628
90.057
88.6665
90.8597
90.4469
96.625
90.4745
89.4216
91.7408
90.99
91.0476
89.0524
90.6253
88.9751
81.8059
90.7322
105.106
89.0633
89.0233
95.7101
91.015
89.495
87.1484
88.8578
89.8255
99.4479
90.4419
115.938
90.6257
89.854
93.1039
81.9123
118.252
90.4732
88.8401
96.9121
96.242
90.8847
89.294
95.9982
90.6658
95.299
96.7627
89.538
90.6474
95.2861
97.6685
97.6366
91.0487
90.4487
89.5633
90.4773
116.866
91.0286
91.7617
112.715
96.7589
89.267
90.5436
100.88
89.7942
117.381
94.314
91.0878
89.0094
97.7246
91.0416
92.9645
90.4135
90.9223
88.845
78.3646
89.1794
97.3115
89.2343
91.0461
89.0314
100.636
88.7871
89.4169
90.6097
113.245
89.3842
114.219
89.2324
88.705
108.252
110.625
88.6371
89.5381
97.5754
90.8751
81.2956
91.0675
89.3224
90.6759
87.0869
88.9076
97.6587
90.7333
91.1092
90.2223
89.0548
89.316
89.184
92.0716
88.6545
90.8488
88.9866
89.2192
90.4446
90.0964
90.9077
96.155
81.4988
90.5784
90.3789
96.9042
82.2945
90.9858
89.0075
89.0663
89.0871
89.8442
90.5184
100.547
107.78
97.3948
82.3627
90.8835
90.5339
89.0565
90.4494
111.484
113.819
90.9368
88.9803
90.9982
97.0774
87.1978
89.6642
92.9393
95.1482
95.3729
114.715
90.583
89.0733
90.233
108.698
82.3897
110.567
90.8471
90.1017
92.4964
96.0905
89.8011
98.0626
90.5929
88.9841
94.6977
99.2645
90.8922
89.9545
90.877
81.08
89.9232
88.7759
97.2094
88.9981
89.8931
88.4049
89.438
89.5116
98.2621
92.4655
89.0082
90.7644
97.1021
96.8172
97.8102
90.6992
89.3092
89.3654
90.4246
84.8331
89.0322
88.8988
89.84
89.3377
90.6232
95.3028
90.4798
89.4632
113.327
88.8567
116.04
95.7252
96.0548
98.4247
87.6533
90.9278
78.106
90.8717
90.926
81.752
90.8295
88.833
90.3394
89.657
89.5555
92.0859
87.4121
89.542
89.7959
91.1111
89.0972
89.6949
114.875
91.0708
89.1371
96.5632
89.6947
90.0948
90.7831
90.2796
91.8451
90.823
89.5868
89.0116
88.6602
95.6147
91.9173
96.6376
94.8357
89.4221
82.2854
89.0674
89.9465
89.3966
89.3223
90.4774
97.0973
88.9553
96.268
93.6017
90.4475
97.0875
99.5038
89.1127
89.2683
120.174
125.875
88.8689
90.0524
90.8384
90.8352
89.9207
89.513
95.2076
92.1336
93.4425
88.9987
91.1034
95.755
89.7344
89.2956
89.0541
91.1199
90.8954
97.0112
89.2294
90.5856
89.9971
90.78
89.8466
96.7382
88.9345
90.2731
95.5076
99.0568
90.2694
90.2005
89.2898
90.6781
89.3941
90.3842
89.7963
89.2815
90.6726
90.9599
88.609
90.1612
88.6078
91.5523
86.1798
91.2594
89.8453
90.6454
88.6669
89.0361
90.8215
88.8905
97.7904
89.0086
72.6832
96.4159
89.7835
91.0134
116.496
89.4526
89.7364
87.4003
90.9105
89.0598
90.6253
96.3284
89.4069
89.0013
89.0361
95.0096
90.5214
89.4956
89.3918
88.9807
89.7806
96.5762
91.0832
89.1772
89.4583
88.6818
116.168
88.9131
91.3744
90.3243
90.8231
98.824
88.9895
99.4124
98.0413
91.0785
88.8594
90.3868
89.4436
89.8665
89.1019
88.9173
120.806
90.2922
88.8681
100.651
88.9418
112.426
96.0986
100.083
90.6252
95.8997
89.5656
91.0833
89.1358
91.0499
81.984
90.725
90.8932
88.9463
94.5333
88.984
91.0988
88.856
91.1561
97.7969
97.0853
96.9476
90.2483
84.7621
95.0704
96.3653
97.208
96.5791
88.7261
89.8749
90.6689
89.9851
97.5523
113.094
90.4699
90.1221
90.6458
89.9859
89.3424
96.5998
98.2107
78.9726
122.799
87.3885
87.8284
115.966
89.3653
89.8257
96.008
)
;

boundaryField
{
    frontAndBack
    {
        type            empty;
    }
    wallOuter
    {
        type            zeroGradient;
    }
    inlet
    {
        type            zeroGradient;
    }
    outlet
    {
        type            fixedValue;
        value           nonuniform 0();
    }
    wallInner
    {
        type            zeroGradient;
    }
    procBoundary0to1
    {
        type            processor;
        value           nonuniform List<scalar> 
29
(
88.4899
88.0979
87.001
87.001
80.5212
80.5212
114.967
87.0999
84.3584
86.9397
87.2462
80.7224
87.1213
88.7766
115.301
115.627
80.0726
80.7666
86.9382
88.0299
115.491
115.374
82.0381
115.695
115.833
80.7666
116.448
114.87
115.695
)
;
    }
    procBoundary0to2
    {
        type            processor;
        value           nonuniform List<scalar> 
42
(
89.9515
89.8278
91.0961
91.0919
90.468
89.9515
91.0961
91.1091
90.4242
90.3911
90.3814
90.1802
90.3814
90.0722
89.9375
90.2711
89.9375
90.406
90.3977
88.5601
88.5601
90.406
90.4836
89.2804
89.2804
90.5651
89.7607
90.6943
90.2932
89.8039
89.8039
90.8343
90.9401
91.0033
91.0556
91.0961
89.808
91.0125
90.2932
91.1091
91.1227
91.1144
)
;
    }
}


// ************************************************************************* //
