/*--------------------------------*- C++ -*----------------------------------*\
| =========                 |                                                 |
| \\      /  F ield         | OpenFOAM: The Open Source CFD Toolbox           |
|  \\    /   O peration     | Version:  v1912                                 |
|   \\  /    A nd           | Website:  www.openfoam.com                      |
|    \\/     M anipulation  |                                                 |
\*---------------------------------------------------------------------------*/
FoamFile
{
    version     2.0;
    format      ascii;
    class       volScalarField;
    location    "0.24";
    object      p;
}
// * * * * * * * * * * * * * * * * * * * * * * * * * * * * * * * * * * * * * //

dimensions      [0 2 -2 0 0 0 0];


internalField   nonuniform List<scalar> 
1431
(
91.9266
87.3146
93.0759
84.7033
87.6405
91.2416
88.9326
40.2018
86.8523
88.7321
42.1868
43.0822
86.0336
87.7511
88.2334
87.6998
87.602
85.0881
88.2188
83.4416
37.7432
87.3792
87.8012
18.5095
86.9689
87.2773
47.871
88.6306
89.4618
85.3174
88.9432
91.1132
88.7525
88.554
91.772
90.217
93.3508
88.5391
89.5505
91.5799
93.3205
93.7854
87.5316
87.5597
90.2315
89.3393
89.2558
52.1818
89.1252
89.0149
91.5366
88.5513
92.9951
48.7526
87.3802
94.2084
87.506
44.985
88.5803
90.8081
88.8674
89.3782
89.3239
88.9558
89.3831
90.7633
85.6056
88.9444
90.7526
87.8359
43.9538
88.4192
83.5752
88.656
87.5439
88.9761
87.293
89.3477
89.2337
87.9254
87.8006
90.3653
76.6535
90.2049
36.5959
86.2624
87.0737
87.8618
50.7755
64.0105
87.4132
87.5977
88.1643
87.9159
86.9065
88.7825
42.2803
78.8891
87.8963
91.8056
94.174
88.6724
87.9981
89.6148
89.2893
88.0736
91.7787
50.3127
87.6833
87.8842
90.6381
84.9101
101.664
92.787
86.7627
88.0643
88.0933
83.9726
86.2294
89.273
88.6639
88.0718
49.6808
87.484
42.0938
89.3431
92.5501
87.7017
87.5018
87.3542
87.7013
84.6068
87.6981
86.9036
90.114
88.6251
88.9769
89.0391
46.5199
88.496
90.6894
87.7352
88.1632
89.2014
88.4515
88.6302
88.8329
94.3472
88.1962
89.628
88.9912
90.2197
91.3695
87.0755
91.4566
88.2729
44.5501
85.9601
70.7335
87.2316
60.7238
85.6976
85.628
86.8547
49.4407
92.6549
93.189
86.3094
89.008
83.016
59.4701
93.9279
91.3677
46.4792
86.5805
44.1831
87.6034
90.9103
92.7582
91.7225
89.3275
89.8685
88.7355
22.2512
91.0267
92.0549
45.9818
85.1175
91.1482
48.3882
88.5274
91.8146
91.5769
51.8634
85.3842
83.4717
78.7372
89.3634
90.7121
91.6854
89.153
85.881
65.3459
87.3266
86.5768
88.6635
91.0825
90.6482
45.9736
92.0179
40.2588
85.6487
91.5672
88.3421
38.7513
92.4378
91.0277
88.2286
88.9753
70.5773
90.8007
88.937
94.2315
86.3569
90.8129
42.5446
66.1891
81.0246
90.9519
67.9836
40.1723
88.8437
88.5894
91.8653
91.0854
66.376
91.4423
89.7801
88.7903
89.0614
87.8888
88.8362
44.8072
90.0618
91.6591
88.1925
90.6169
57.9562
91.2497
88.5273
87.5903
49.9439
86.914
85.7321
88.5931
90.4588
86.5752
38.4635
73.0032
91.361
90.7486
47.0124
88.6861
87.4746
92.5176
75.0576
85.9284
52.6774
57.7766
87.5657
87.929
91.0357
87.9748
88.8659
57.3075
91.1492
53.9223
84.1698
88.4715
90.9957
93.4803
90.1488
88.574
92.0968
87.9148
76.5468
91.5757
76.3569
42.5738
87.7516
90.6315
84.5419
80.8552
93.3887
72.0739
90.27
44.0893
94.498
92.5321
88.0414
93.6165
88.9569
88.3863
89.6276
89.53
86.2276
87.4841
91.8828
92.8629
84.6941
80.6693
89.3714
90.1639
50.7955
87.0209
80.1285
90.0158
87.7632
90.7504
30.6994
87.8036
82.2845
90.6455
93.4629
91.3227
99.7616
91.0184
85.2722
52.0113
85.4923
86.826
90.6552
85.0949
87.1956
87.7043
88.1462
87.172
70.0937
91.3376
49.8881
89.1525
86.6359
77.2373
91.9537
88.3961
89.1304
88.5029
51.2859
81.6609
92.4221
89.0249
90.2015
93.6387
86.8133
89.4102
88.9361
43.8897
40.4858
47.7025
92.4635
87.5919
91.1576
86.8391
88.3919
90.7153
43.394
85.9936
9.83703
89.7969
85.8233
51.8697
87.5391
53.6373
89.0072
91.1658
47.3211
86.4753
88.5096
96.5131
44.175
85.9106
91.2429
88.4455
89.6458
10.7195
90.4886
91.066
90.0248
90.2055
89.2393
88.0757
92.0786
92.3186
85.8734
68.9012
94.0685
84.1179
83.5605
85.8004
91.7388
85.1352
90.2299
76.1522
89.5048
93.8973
86.8042
91.6075
88.4361
87.8767
88.3262
84.4405
90.9764
89.9367
90.795
90.9939
90.5738
87.81
88.5275
91.3782
91.1787
88.737
87.1291
90.6782
87.2214
92.0048
87.6674
80.2891
88.8832
94.387
27.8071
92.2255
92.6926
92.1785
92.8395
91.7217
90.7001
91.7631
89.2028
90.2094
88.3166
88.3712
47.0855
89.4006
90.261
90.6503
90.732
91.1233
90.8699
90.1087
88.4835
88.7608
88.9778
89.2706
91.9721
90.1467
88.4186
87.8556
48.7326
92.0686
74.2352
88.0523
89.1595
48.8277
88.0174
72.6892
88.8166
90.7308
48.4182
88.6407
45.8557
87.4022
87.6563
85.9821
87.2922
46.3373
47.4512
87.7682
88.8067
91.0411
88.3094
87.1264
91.4125
45.973
90.7741
91.4633
87.0962
81.2285
90.9626
85.5927
87.9386
45.5866
90.1059
87.8805
87.131
87.4393
79.0425
93.0993
45.1025
91.4555
87.5243
96.7632
86.9703
92.862
96.1699
45.6495
49.1817
89.4578
92.174
92.6037
87.582
86.4895
88.5
79.4836
89.5435
100.306
83.5952
99.2047
87.1
88.311
48.6646
89.4685
93.3102
87.6136
85.5211
87.1013
86.0905
45.5487
91.5619
88.3452
88.4707
88.6004
94.2305
87.65
89.4613
85.0711
92.9407
88.3993
89.4026
88.3032
87.9203
87.1289
93.727
89.8267
93.7517
87.3847
88.4701
88.9367
80.2298
85.3741
86.9273
89.8938
94.6255
89.4652
92.428
89.2168
88.9546
86.549
94.8561
84.9237
49.8511
88.0677
49.0656
79.0944
92.9806
36.083
93.3976
88.5462
86.592
93.5795
87.9703
92.4261
70.3238
89.2961
92.2978
93.5696
88.4887
85.2249
91.8516
91.371
92.7568
91.6666
76.8085
90.0987
87.1576
86.0355
91.4461
89.4814
93.1356
93.9764
87.6536
92.6041
89.0224
92.6512
89.5805
91.6178
83.7498
87.6562
90.502
83.0015
46.3494
71.3576
89.0184
91.6969
94.1937
83.1014
91.4232
19.743
82.9756
88.3216
90.4745
85.6416
92.6043
92.7473
90.3917
91.4407
86.0444
41.4233
87.4948
97.1913
91.4979
85.901
88.6904
92.9782
92.3471
92.0271
85.3519
83.8924
87.5739
80.2901
88.7065
90.9211
94.3272
88.812
88.3871
92.8175
86.5201
42.5382
88.2713
86.9813
89.2312
86.1643
77.0908
88.1038
92.1468
89.0497
91.5
85.9012
90.6681
38.8937
88.0114
95.113
90.5209
92.2845
84.6712
90.1865
91.4609
88.0016
81.3689
94.8345
54.2287
64.5391
83.5428
86.2819
93.1149
93.2777
89.6663
85.2627
97.8225
93.6921
90.274
92.5116
85.4693
35.9343
87.0169
96.4927
87.8679
30.9857
87.3069
90.7351
88.7749
89.0647
89.4781
88.149
39.6246
89.3544
80.9877
91.4124
87.1782
88.554
85.9904
90.4619
84.373
89.3372
86.5103
86.9811
90.9775
79.2624
90.454
87.0623
76.3949
82.9323
88.2761
90.4249
86.8271
88.5066
24.5595
92.0419
81.2615
89.054
91.0436
90.353
88.4748
87.3102
90.303
102.802
92.1506
92.1627
87.2977
88.6106
86.512
90.731
88.6474
48.4616
91.3292
89.2905
85.2351
90.1583
89.1259
52.8738
50.7697
88.7861
81.061
94.1047
88.3949
90.5683
86.6816
88.7319
76.9332
41.3856
86.9755
91.478
89.3355
88.6601
91.285
93.0692
91.6743
87.6036
90.1256
92.0228
88.0679
89.3083
89.0916
87.2994
87.5583
8.72272
91.9384
88.0105
90.5629
91.8765
88.1407
32.1337
89.7068
94.418
90.0236
92.4796
91.5497
87.3219
88.0211
90.8818
88.8257
91.6097
88.4637
91.35
87.8557
87.1003
90.4511
87.3127
93.1649
84.3317
92.5346
88.4921
88.9993
92.3844
88.5769
85.2261
52.3301
91.6287
90.8698
91.4483
89.813
89.8504
81.8525
90.6524
83.7783
91.4025
87.1628
86.944
88.8506
85.8111
88.1623
91.4868
87.5242
92.4001
92.7888
92.3366
16.3492
92.1774
91.3608
93.3954
91.3034
49.7871
87.3951
89.2462
41.7355
88.5773
48.8343
93.7073
87.9061
91.3451
86.4928
90.6422
86.8973
93.7247
84.6452
84.2244
91.4758
88.6988
87.4295
87.9575
90.5917
89.7845
74.2931
40.6215
91.7825
88.7663
49.2898
90.9409
92.4409
88.7924
92.0965
90.0515
86.3236
88.3782
92.3146
92.921
62.8346
88.696
50.675
93.2376
71.7572
89.4308
86.9467
90.6245
88.5568
83.0151
89.3515
87.5233
96.3549
85.6259
89.1426
88.4605
88.4048
94.1889
89.0313
87.4236
88.3014
89.0294
89.2204
50.8299
90.8752
86.2568
48.7795
83.9098
91.4054
88.3226
90.8556
90.0312
87.3838
90.0673
87.0643
44.7427
86.937
87.0085
40.2621
53.3053
46.7058
39.8761
60.8086
91.0035
90.7773
90.1446
90.433
54.1018
91.1897
90.1978
91.3884
90.9052
89.515
66.6652
46.6825
89.0259
76.1239
71.578
89.0067
91.3095
91.3539
89.1891
91.3695
91.4132
89.155
91.4727
90.3928
73.8491
89.0106
100.814
92.3375
87.2777
88.8698
42.0099
89.937
83.6559
87.7482
91.9069
90.6072
49.4159
87.6987
79.0102
72.6931
92.7149
89.5302
89.1918
87.2281
48.613
87.6334
91.5512
91.5665
89.1504
88.3064
93.1727
46.1861
91.2683
88.0996
89.0794
88.7649
93.3952
91.5396
57.9505
87.9787
88.1245
88.6022
84.5739
92.9518
89.2764
86.5387
100.962
91.8347
88.1154
88.686
91.6151
89.8071
92.6817
43.7225
84.4782
92.3428
87.2379
86.7798
87.5699
87.9217
91.6785
87.5633
87.1366
93.0129
88.2342
38.8612
90.6064
87.4246
83.3619
94.3966
88.9914
26.294
89.6687
92.6975
91.1523
40.5209
86.5224
73.6073
87.5725
89.943
87.3592
87.4266
95.8616
93.0076
88.4755
53.5665
34.1474
91.6427
88.0852
83.9735
89.2042
87.2512
89.4952
87.9435
87.7758
90.7207
89.7545
93.1113
37.1078
91.9478
87.4379
88.9952
87.7669
88.1377
88.349
90.8146
92.0156
88.7792
90.1708
90.0694
91.1862
89.624
25.288
18.051
89.644
89.5805
83.3956
87.1161
84.5688
47.5998
87.1354
91.7234
88.8732
66.5917
47.742
88.1933
88.9225
90.9436
91.2393
71.3804
47.0563
89.4886
89.3307
86.9927
52.6196
86.5696
85.0437
89.0805
6.95423
92.5504
42.2402
57.2122
84.4569
106.436
91.8651
87.3197
87.0854
86.4713
87.6677
86.1449
91.8735
90.6404
91.75
94.6684
88.3104
61.4949
89.2854
82.3009
87.7487
51.6926
89.7336
50.9364
93.124
84.489
52.2329
91.6455
62.3615
59.6702
56.8789
49.4662
49.2287
48.2015
54.1181
48.6693
86.7381
86.1162
86.034
86.4957
85.7574
85.0223
89.2816
88.9319
88.9724
90.7289
86.1677
87.4015
85.3444
92.6074
89.1467
89.7557
93.3479
89.273
91.128
86.5968
87.2987
92.1931
87.5287
82.799
92.4519
90.6081
91.8219
79.1263
88.5467
88.839
44.2593
91.2003
91.9903
87.8381
84.3483
87.1416
89.642
31.7105
88.6044
85.503
85.8437
87.6136
86.3877
88.2873
88.1664
91.3427
86.1532
87.1642
80.6894
90.6853
82.8759
91.4022
88.6199
87.4765
93.5798
16.6668
89.2052
40.2538
7.44904
87.5101
47.0714
88.968
91.1084
93.4559
46.671
86.66
92.0369
96.7534
70.9113
87.4039
87.8009
92.9743
87.5116
89.0696
87.852
93.3824
93.3612
60.6784
41.1466
16.2648
78.9826
90.5737
89.1975
91.1339
87.6335
91.7055
80.1533
87.8814
86.7608
46.3722
87.3182
91.9289
45.181
92.5645
88.1079
85.7519
92.01
93.9304
81.0726
63.681
91.8921
88.9368
90.5169
89.0164
43.0962
89.2302
44.5429
88.3308
80.2039
87.5978
40.3131
73.8719
91.4295
85.1766
85.6012
84.9885
50.2091
87.4984
93.0062
87.2065
86.8616
81.9399
86.6084
84.2031
88.1946
92.3133
51.9765
88.4754
83.9746
90.0084
87.254
84.8895
91.221
87.3933
79.0346
88.1522
84.3523
43.4757
92.1498
85.2131
91.7778
90.6873
83.1757
86.8636
82.7498
91.6165
68.2295
90.1334
28.4773
91.2768
87.1719
89.084
62.4158
89.1343
90.1452
89.9119
93.5135
87.2055
92.5026
90.1456
90.5828
94.5529
88.7872
89.1729
88.7703
85.2562
91.4229
50.6109
87.352
51.8558
89.3506
91.4324
91.2688
92.0503
89.0752
91.9798
104.925
88.4804
84.7874
89.5705
40.2279
90.3976
90.7447
89.144
76.1581
87.8978
89.7199
92.2296
65.1676
84.1822
93.1811
47.2189
88.7456
91.7303
91.5639
93.2019
89.6993
87.3876
89.7817
80.3242
88.2985
87.6667
87.4288
88.7933
91.6942
48.3436
93.5531
83.6587
87.2143
85.5285
53.3088
88.3519
93.6654
87.7982
50.5085
87.7288
79.3125
89.1255
37.558
91.375
83.6626
88.4824
73.0667
39.9315
86.9686
49.0097
87.9637
87.5188
87.3032
51.3066
86.2873
39.5384
67.3579
87.8861
92.0012
87.2783
46.0858
91.9295
15.2861
87.2625
90.2146
86.0326
90.6365
87.4841
65.2359
86.858
84.1597
40.729
52.908
88.7071
87.1541
86.8115
48.271
88.0873
89.6805
91.5983
50.9826
90.5722
87.3067
87.2237
81.0818
88.3658
91.9016
87.4831
84.0073
88.0487
55.8693
51.2567
87.8711
91.5581
87.3825
87.9923
91.7938
91.2774
88.0663
88.9323
83.5325
90.1693
89.6425
91.127
60.8052
91.1495
85.8155
90.5354
75.7207
84.8829
87.7856
87.2756
87.318
85.625
88.1671
90.1165
90.8906
86.2523
85.2645
58.023
49.4576
89.657
93.1733
84.9535
83.208
88.986
90.5023
88.9826
88.6146
76.8439
80.1217
87.5579
83.9939
56.4296
89.9354
80.4805
85.7235
89.1045
46.7842
90.9048
84.1049
88.7043
92.7329
91.6607
40.7808
88.2555
89.3762
113.042
91.1059
90.524
92.0906
89.2362
89.0129
88.0311
24.3597
51.4676
83.8948
100.574
88.4462
89.5481
87.9097
94.036
88.7936
87.2362
89.3506
104.713
91.455
81.9101
89.3481
90.15
88.0413
91.3024
87.6354
)
;

boundaryField
{
    frontAndBack
    {
        type            empty;
    }
    wallOuter
    {
        type            zeroGradient;
    }
    inlet
    {
        type            zeroGradient;
    }
    outlet
    {
        type            fixedValue;
        value           uniform 0;
    }
    wallInner
    {
        type            zeroGradient;
    }
    procBoundary3to1
    {
        type            processor;
        value           nonuniform List<scalar> 
48
(
93.3342
93.8976
94.3177
93.8483
86.8891
93.5709
93.8976
91.8972
93.0078
92.4349
92.4349
91.7219
91.7219
75.5902
70.4818
89.3727
83.3954
87.5929
83.3954
79.5916
84.4635
86.7215
79.5916
93.4324
92.8613
80.9643
87.9321
86.7215
89.6044
81.9411
81.9411
91.9589
91.9589
93.0078
80.5371
85.0507
91.665
92.8613
92.6306
88.5666
75.5902
91.1606
91.1262
79.5916
70.8974
88.8875
87.8711
80.5515
)
;
    }
    procBoundary3to2
    {
        type            processor;
        value           nonuniform List<scalar> 
29
(
88.0372
88.0372
90.677
92.0355
83.5841
88.5425
83.5951
87.7042
91.2326
91.2519
88.21
84.2398
88.0866
83.285
86.0873
83.389
90.7754
90.5141
87.581
84.8868
85.3916
90.7754
86.9999
90.5141
86.5895
90.7816
90.5141
76.1982
76.1982
)
;
    }
}


// ************************************************************************* //
