/*--------------------------------*- C++ -*----------------------------------*\
| =========                 |                                                 |
| \\      /  F ield         | OpenFOAM: The Open Source CFD Toolbox           |
|  \\    /   O peration     | Version:  v1912                                 |
|   \\  /    A nd           | Website:  www.openfoam.com                      |
|    \\/     M anipulation  |                                                 |
\*---------------------------------------------------------------------------*/
FoamFile
{
    version     2.0;
    format      ascii;
    class       volScalarField;
    location    "0.19";
    object      k;
}
// * * * * * * * * * * * * * * * * * * * * * * * * * * * * * * * * * * * * * //

dimensions      [0 2 -2 0 0 0 0];


internalField   nonuniform List<scalar> 
1466
(
1.01843
1.21942
0.0503723
0.252179
0.0472674
0.114236
0.378074
0.0897571
0.283538
0.158022
1.15536
0.098322
0.219347
0.0520439
0.183325
1.16333
0.192656
0.427237
0.501299
0.64923
0.713125
0.798409
0.456483
0.473045
0.252965
0.108574
0.687421
0.793334
0.0586632
2.0334
0.929976
0.494341
0.0880851
0.341955
1.99183
0.0728516
0.386198
0.117179
1.34272
0.0616069
0.145225
0.347285
0.409019
0.17881
0.0921399
0.405826
1.58435
0.0311188
0.0400656
0.0538427
0.0667109
1.31612
0.0547164
0.0361018
0.0485003
0.282102
0.7025
1.21499
0.31701
0.294676
0.126664
0.409275
0.113742
1.00925
1.58731
0.0573201
1.02074
0.26107
0.956613
0.0499245
0.230274
0.353559
0.197212
0.271894
0.140249
1.46726
0.437319
0.140543
0.566403
1.85724
0.717441
1.07979
0.058318
0.503939
0.487687
1.00514
0.319339
1.64118
1.07351
0.601764
0.125609
0.402569
0.101987
1.11104
0.0795865
0.0468637
1.09178
1.39306
0.286426
0.0455674
0.0730489
0.0631277
0.0336954
0.0411342
0.400053
0.0636946
0.0431071
0.0316953
0.984993
0.873999
0.113122
1.77527
0.959768
0.363703
0.0879177
0.269044
0.34563
0.136349
0.338227
0.0770415
1.06081
0.895798
0.371448
0.214605
0.1076
0.0784777
1.27726
0.667313
0.305298
1.17901
0.628992
0.285184
0.442029
0.422271
0.314453
0.11097
0.0668799
0.199239
0.214495
0.0710616
0.0577465
0.72933
0.435912
0.50703
0.674234
1.04313
0.543898
1.16419
1.78995
1.38629
0.160155
1.26684
1.14099
0.0704723
1.48886
0.780214
0.906436
0.28851
0.719926
0.946297
0.569121
1.71606
0.653126
0.715683
0.430964
0.516186
0.347215
0.665769
0.730363
1.44699
0.712966
0.430597
0.0583257
1.02712
0.328787
0.277753
1.87064
2.22161
0.111832
0.238474
0.292336
0.839493
0.850739
0.121677
1.63145
1.01964
0.543806
0.341771
0.955409
0.672093
0.777139
0.154286
0.0749483
1.10157
0.877435
0.138887
0.0415335
2.92168
0.348892
1.10975
0.0781294
1.46687
1.73756
0.627488
0.199193
0.323777
0.851295
1.31655
0.776571
0.583158
0.486255
0.387742
1.19564
0.75528
0.757265
0.609913
1.00551
0.598184
0.402321
0.330665
0.629978
0.375671
0.660232
0.13792
0.717269
0.472927
0.0814331
0.165924
0.126316
0.400699
0.17071
1.68089
1.19422
1.34692
0.241636
0.302469
0.388467
0.585845
1.02328
0.728223
0.789165
1.78892
1.72634
1.1337
0.749096
1.56379
0.385036
0.271408
1.97742
1.60305
0.92627
1.68398
1.22954
0.475047
0.470236
1.00327
0.876867
0.449641
0.504901
0.730969
0.430157
0.434175
0.392959
0.520747
1.24872
0.0546916
0.594895
1.55451
0.718559
0.522467
0.653069
0.563432
0.279953
0.77975
0.196428
0.138823
0.177802
1.27606
0.707559
2.01917
0.783914
0.402626
1.42965
1.57966
0.407592
0.151135
2.06385
1.96371
0.432253
0.934628
0.782512
1.14325
0.257019
0.459021
1.12311
0.250017
0.710584
0.112628
2.10093
0.479929
0.0493994
0.130933
0.0271111
0.291753
0.297504
1.15129
1.12276
0.304888
1.54363
2.18247
1.13489
1.04642
0.290155
1.66818
2.00972
1.91306
1.07918
1.61311
0.364143
0.3999
0.189615
0.63103
0.679507
0.521276
0.383078
0.792313
0.10681
1.64638
0.561194
0.511052
0.616089
0.862168
0.0792109
1.07928
1.59014
0.390774
1.74136
1.09838
1.11408
0.808436
0.565044
1.38336
0.253583
2.70387
1.49087
0.0263217
1.50401
1.79095
1.00188
1.61916
0.75034
0.385586
1.80439
1.75702
0.598863
1.59094
0.100677
0.332024
0.35917
1.69476
0.924476
1.49714
1.39834
0.926555
0.413598
1.1151
1.15883
1.05901
0.482244
1.15563
1.40464
1.42091
2.0654
1.15202
0.120323
0.432103
0.113256
2.0562
1.00487
1.20957
1.39996
1.52686
1.65064
1.77178
1.45507
1.6221
0.231395
0.179685
0.207894
0.236298
1.91097
0.947515
0.964777
1.03087
1.02679
1.0052
0.273975
2.02766
1.00862
0.546793
0.339986
0.168525
1.76617
0.0849905
1.52251
1.31417
1.92779
0.545486
1.16289
1.50168
0.663006
2.08477
2.32933
1.45025
1.92088
0.0816124
0.0823391
1.28463
0.69993
0.711663
1.47484
1.35045
0.659118
2.27615
0.638625
0.104474
1.35012
2.06009
0.51006
0.0810536
0.217251
1.07486
0.503287
2.37998
1.22817
0.444466
0.418711
0.342837
0.0502694
0.119395
0.456553
1.57928
0.11432
0.519611
1.05053
0.936781
0.608929
1.0269
0.991298
0.0891352
0.799839
1.02301
1.9763
0.329526
1.38798
1.7
0.0622831
0.0718982
1.82405
0.861303
0.14674
2.24018
0.0641222
0.0887005
0.106128
1.08189
1.39634
2.5933
2.13891
1.51693
2.72184
0.0679821
0.0923037
0.153202
0.747975
1.02825
0.885252
0.708262
0.832699
0.429843
1.19471
0.139908
0.257937
0.842852
0.590722
1.15567
1.07312
0.972405
1.35677
1.50168
0.574996
0.857724
0.171623
1.19781
0.55373
0.830726
0.508625
1.14835
1.89462
1.22259
1.50153
1.5232
0.0814909
0.135115
0.327015
1.10125
2.3706
0.672292
1.02669
0.655836
1.47138
0.619079
0.735969
1.86773
0.518153
1.10882
1.73445
0.311056
0.557599
0.1523
1.02699
1.60127
1.18957
1.34385
0.659986
1.53565
1.70774
1.05205
1.43564
0.869154
0.390958
2.25265
1.2394
0.911674
0.774728
1.80467
0.954535
2.65662
1.56342
0.216353
1.05106
0.137753
0.383878
0.789336
1.28369
1.00585
1.14132
0.806062
1.65299
0.558603
0.784621
1.06722
1.05439
0.917573
2.08034
0.575968
0.647219
1.09043
1.05494
0.746121
0.905026
0.690028
0.807474
1.76585
0.465978
0.816506
1.03134
1.23575
2.81801
0.413974
0.302766
1.31602
1.10617
2.06219
0.386119
2.24264
0.388826
0.462829
0.6942
0.751731
0.451361
0.394759
0.542385
0.89128
1.26468
0.492312
1.76323
0.371916
0.775177
0.935974
0.305478
0.963587
0.33963
0.605373
0.920757
0.543889
0.454092
1.62334
0.352835
1.6607
2.00714
0.604607
0.500902
1.12843
1.27585
0.536952
1.43729
0.0835974
0.0732023
1.89533
0.459413
0.111365
0.969035
0.903954
0.145518
1.56497
2.09474
1.27127
0.865041
2.27705
1.15903
0.165707
1.46455
0.646406
0.901624
0.743323
0.105605
0.427934
0.459795
0.415646
0.420574
1.02913
0.936847
0.531761
0.527337
0.531017
1.92896
1.67626
1.88918
0.230799
1.68248
2.02037
1.67528
0.206796
1.49395
0.582869
0.418014
1.306
1.63202
1.21615
0.687053
0.36171
1.76977
0.116926
0.821683
1.94691
1.08752
0.118111
0.760136
0.264583
1.18425
1.80882
0.52846
0.641421
0.554474
1.04027
0.158803
1.54111
0.196924
1.04588
0.330629
1.10863
0.46245
0.194841
0.0663805
0.0508504
0.232128
0.092992
0.633874
0.824472
0.143409
0.128896
0.134964
0.337075
0.422575
1.64434
0.538969
0.180052
0.349773
0.181191
0.886864
0.762161
0.726925
1.72764
0.485857
0.185497
1.58918
0.630594
0.544239
0.772548
1.38188
0.524564
0.175633
0.515177
1.80624
1.29413
1.39738
0.859285
0.190277
1.48324
0.537665
1.12288
1.29877
2.1524
1.67209
0.235366
0.954246
1.35339
0.422385
1.94726
1.29249
1.12589
0.625744
0.326698
0.124465
0.387756
0.282602
1.5098
1.13622
0.0297158
0.480875
0.0858106
0.56399
0.0663661
0.280811
0.389604
0.295846
1.63167
0.0785507
1.60179
0.389113
0.657261
0.858212
0.0674097
0.0790444
0.510557
0.574228
0.0762947
0.64573
1.41744
0.213705
0.681005
0.119488
0.431458
0.124705
0.445199
1.01136
0.13067
0.504753
0.818807
0.435698
0.495764
0.200678
1.87489
1.29218
1.83417
0.922065
2.69542
0.15961
0.888158
1.53434
0.518013
0.28331
0.786284
0.93178
0.722054
1.85881
0.313734
1.47021
2.19826
1.24024
1.27441
0.753921
0.357292
0.578967
0.0604062
0.443907
0.458391
1.35797
1.35805
1.34893
0.517286
0.674058
0.718381
1.45964
0.604043
1.58184
1.4431
0.0719932
1.24724
1.21218
0.788977
0.389546
0.125676
0.81204
0.0907123
0.0468714
0.451032
0.717325
0.145998
0.31746
1.57491
0.660952
0.273874
0.19253
0.0846044
1.54706
0.898725
0.226617
1.5992
2.2717
1.31054
0.737487
2.15371
0.186234
0.805506
0.717642
0.486378
0.624545
0.63763
1.92273
1.56411
0.614456
1.2795
0.518719
0.785094
0.344168
0.219951
0.761687
0.894543
0.719382
1.96072
0.976587
0.825356
0.815673
1.87028
0.585117
0.343995
1.45451
0.404667
0.85863
1.43235
0.485011
0.824209
1.08027
1.51322
1.60137
0.473539
1.36946
2.47543
1.36058
0.365828
0.330516
1.20755
0.109691
0.36894
0.952331
0.0855131
1.61298
0.727633
1.04676
0.120048
0.382547
0.768403
0.835971
1.41165
1.11352
0.279529
0.30533
0.250524
0.255091
0.308952
0.273908
0.266754
0.506085
0.346872
0.339183
0.512731
0.496119
0.482462
0.511106
0.350284
0.324919
0.458163
0.483407
0.297438
0.25498
0.177377
0.20469
0.465394
0.445515
0.423912
0.220107
1.79079
0.225302
0.0373881
0.441967
0.345866
0.136932
1.10829
0.0487533
0.102351
1.91248
0.594534
0.454911
0.227805
0.562623
0.508294
0.0788751
1.25247
0.35323
1.25869
1.43792
1.11368
1.60495
1.42103
0.906448
0.401413
0.581481
0.225708
0.3068
0.198047
0.284326
0.786624
1.09023
0.320349
0.378973
0.0747106
0.0860976
0.579702
0.0973862
0.739048
0.31454
0.354197
0.452375
0.101397
1.61172
0.424012
1.00977
0.615795
0.262066
1.27822
2.0363
1.64821
0.0599558
0.385716
0.107644
0.405477
1.33428
2.10616
1.53848
0.288722
0.359782
0.596918
0.325583
1.43745
0.116125
0.227899
1.34279
0.486357
0.0755666
0.63212
0.971462
0.648056
0.734615
0.998867
0.314352
0.188783
0.0625898
0.370926
1.142
0.348763
1.47612
0.428455
0.539115
0.379118
2.09434
0.931204
1.02737
0.318311
0.16447
0.0598507
0.0683622
2.06057
1.1334
1.24454
2.11095
0.768973
0.0557842
0.16896
1.23397
0.347521
0.446087
0.450294
0.142987
0.486341
0.0877226
0.0648413
0.0628212
0.259163
0.404449
0.173778
0.484582
0.0445709
0.954431
0.433995
0.891085
1.27289
1.65803
1.72783
0.430121
0.21713
1.37111
2.27097
0.232322
0.420551
0.157297
0.471863
0.526461
0.202561
0.716509
0.807311
0.438706
0.421681
0.314096
0.460688
1.57281
0.117914
0.379946
0.267123
0.370025
0.644233
0.366018
0.184516
0.611321
0.0991794
0.158615
0.0664729
0.0632132
1.54142
0.926723
0.557483
0.289394
0.304644
0.673583
1.27859
1.56456
0.439414
0.872521
0.422425
0.352772
0.297568
0.553557
0.624791
0.103744
0.5923
0.138361
1.03962
0.515545
0.0145705
0.358727
1.21675
0.0879613
0.427952
0.166968
0.688068
0.300764
0.147225
0.188539
1.00195
1.01418
0.262911
0.33962
0.09831
0.128167
0.0870132
0.116134
0.70753
0.74486
0.210628
0.220804
0.226513
0.210268
0.844385
0.485745
0.277296
1.49667
1.04156
0.812938
1.57192
0.892521
0.414291
0.172996
1.13248
0.670757
0.138948
0.059211
0.809034
1.85773
1.66549
1.1221
0.193785
1.07206
1.5499
1.73584
0.11008
1.97651
1.71787
0.859628
0.618919
0.497724
0.158097
2.27138
0.179866
0.357387
0.284266
0.117038
0.692181
1.61264
1.10958
1.42668
1.62358
0.126067
1.04997
0.951624
1.15554
1.391
0.866213
0.317257
1.30111
0.849702
0.0864877
0.052223
0.0619041
0.405978
1.52224
0.687519
1.64619
1.05161
1.63353
0.513533
0.779292
0.844338
0.416114
0.454703
0.0510766
0.389939
1.56934
1.83913
0.737981
0.554684
0.63753
0.375469
0.178449
0.711157
0.82921
1.4016
0.963931
1.69848
0.158077
0.691522
1.03841
0.882343
0.499351
0.738142
0.757378
1.65138
0.389057
0.99271
1.231
0.838351
0.826838
0.411565
0.721623
0.965368
0.783327
0.356534
1.27988
1.39536
0.365021
0.567494
0.576114
0.971701
0.286841
0.851943
0.41837
1.47812
0.556661
0.545039
0.110454
2.02136
0.482967
0.392118
1.42453
1.48387
1.22964
0.95289
0.273653
0.339313
0.820395
2.40155
0.108623
1.77117
0.701229
0.261668
0.266278
0.0897224
0.834403
0.135337
0.410508
1.95882
0.0535734
1.75731
0.285681
0.423076
0.421033
0.0711456
0.080061
0.104583
0.930296
0.389104
2.04022
0.659882
0.492925
0.796931
1.23046
1.01849
0.167524
0.0518726
0.0842024
0.518084
1.09348
0.43135
2.26491
0.487198
0.403965
0.052837
0.0779931
2.13578
0.332983
0.278777
0.326742
0.229678
0.337162
0.850677
0.963948
1.1264
0.0849926
0.319145
0.496365
0.324467
0.615553
0.818845
0.263044
1.29246
1.22167
0.478185
0.0840019
1.93748
0.0798915
0.255441
1.1212
1.5158
0.203949
1.4481
1.5336
1.71803
1.49955
0.617296
1.12747
0.246775
0.276183
0.739656
1.65071
0.085223
0.864066
0.0626003
1.12155
1.31345
0.529319
1.91493
0.274909
1.99204
1.49625
0.599546
0.434415
0.41511
0.38819
0.863503
0.456894
0.487348
0.981722
0.222297
0.869414
1.32214
0.268681
0.273069
1.10986
0.774934
0.135869
1.10839
1.07639
0.531477
0.195008
0.756915
0.988338
1.59078
0.361287
0.0455901
0.413733
0.557231
1.6437
1.6809
1.39106
0.0312608
1.79021
0.0874624
0.269603
0.0687726
0.0633613
0.116336
0.745281
0.0553681
1.68386
1.03386
1.19844
0.0556243
0.0800031
1.64758
0.36253
0.340544
0.805539
0.450275
0.91523
0.752271
2.49075
1.64063
1.43661
0.313792
0.792797
0.0830412
0.859956
1.17008
0.58106
0.0714109
1.96032
1.84997
0.334405
1.60082
1.58893
1.67052
0.665094
1.55655
0.122125
1.72858
1.59287
0.334589
0.0792604
0.0251325
0.06091
0.44488
0.760018
1.61569
0.320858
1.52318
0.175534
0.854428
1.04521
0.336646
1.22253
1.31243
0.459668
1.3704
1.21745
0.0676137
0.740039
0.704383
0.200201
0.471169
0.146106
0.829266
0.505962
0.728138
0.685751
0.684537
1.81341
0.734824
1.1391
0.944019
0.257662
0.0479817
0.0721389
0.504205
0.640755
1.69821
0.494015
0.352988
0.501021
0.711128
0.813137
0.207442
1.14551
1.19022
0.849766
0.0480849
0.973356
0.371404
0.508892
0.416021
1.61229
1.42321
3.16336
1.58505
0.585801
0.224967
0.299475
1.98396
0.589924
0.522033
0.315385
2.30073
0.747244
0.78181
0.253699
0.292458
0.463562
0.581289
0.541839
0.738235
1.6626
0.0582166
0.18919
0.674047
0.0660304
0.132036
0.326421
0.286958
2.48736
1.46065
0.0950799
0.270366
1.81986
0.297861
0.27724
0.285408
0.147105
0.54148
0.0691106
0.0568053
0.051496
0.0535017
1.80358
0.0422101
1.46346
0.466021
0.759087
)
;

boundaryField
{
    frontAndBack
    {
        type            empty;
    }
    wallOuter
    {
        type            kqRWallFunction;
        value           nonuniform List<scalar> 
108
(
0.427237
0.353559
0.197212
0.0271111
0.0263217
0.422575
0.538969
0.180052
0.181191
0.485857
0.185497
0.544239
0.524564
0.175633
0.190277
0.0297158
0.295846
0.574228
0.0762947
0.313734
0.0468714
0.31746
0.219951
0.585117
0.279529
0.30533
0.250524
0.255091
0.308952
0.273908
0.266754
0.506085
0.346872
0.339183
0.512731
0.496119
0.482462
0.511106
0.350284
0.324919
0.458163
0.483407
0.297438
0.25498
0.177377
0.20469
0.465394
0.445515
0.423912
0.220107
0.0373881
0.562623
0.401413
0.198047
0.424012
0.359782
0.596918
0.379118
0.142987
0.0445709
0.430121
0.420551
0.157297
0.644233
0.611321
0.0664729
0.673583
0.553557
0.624791
0.138361
0.0145705
0.0145705
0.0879613
0.166968
0.147225
0.188539
0.33962
0.09831
0.128167
0.0870132
0.116134
0.70753
0.74486
0.210628
0.220804
0.226513
0.210268
0.844385
0.414291
0.172996
0.193785
0.11008
0.179866
0.357387
0.779292
0.844338
0.375469
0.178449
0.834403
0.203949
0.434415
0.863503
0.0455901
0.0874624
0.0553681
0.0251325
0.06091
0.175534
)
;
    }
    inlet
    {
        type            fixedValue;
        value           nonuniform 0();
    }
    outlet
    {
        type            zeroGradient;
    }
    wallInner
    {
        type            kqRWallFunction;
        value           nonuniform List<scalar> 
126
(
0.117179
1.34272
0.0616069
0.145225
0.347285
0.409019
0.17881
0.0921399
0.405826
1.58435
0.0311188
0.0400656
0.0538427
0.0667109
1.31612
0.0547164
0.0361018
0.0485003
0.282102
0.7025
1.21499
0.31701
0.294676
0.566403
0.0468637
1.09178
1.39306
0.286426
0.0455674
0.0730489
0.0631277
0.0336954
0.0411342
0.400053
0.0636946
0.0431071
0.0316953
0.984993
0.873999
0.363703
0.0879177
0.214605
0.1076
0.628992
0.285184
0.11097
0.0668799
0.199239
0.0577465
0.653126
0.328787
0.0415335
0.504901
0.730969
0.430157
0.0546916
0.594895
0.653069
0.563432
0.279953
1.14325
0.459021
0.250017
0.710584
0.189615
0.63103
0.679507
0.332024
0.482244
2.0654
2.0562
2.02766
0.546793
2.06009
0.503287
2.37998
0.444466
0.342837
1.57928
1.9763
1.7
1.82405
1.86773
2.25265
2.08034
0.105605
0.118111
0.124465
0.36894
0.0855131
0.21713
0.752271
0.0830412
2.30073
0.78181
0.253699
0.292458
0.463562
0.581289
0.738235
1.6626
0.0582166
0.18919
0.674047
0.0660304
0.132036
0.326421
0.286958
2.48736
1.46065
0.0950799
0.270366
1.81986
0.297861
0.27724
0.285408
0.147105
0.54148
0.0691106
0.0568053
0.051496
0.0535017
1.80358
0.0422101
1.46346
0.466021
)
;
    }
    procBoundary1to0
    {
        type            processor;
        value           nonuniform List<scalar> 
29
(
0.0833633
0.0833633
0.177867
0.41689
1.46333
0.305713
1.97378
0.315401
1.80615
0.393452
0.368758
0.305713
0.177867
0.08044
1.20371
0.506962
1.46333
1.42775
0.41689
0.0889988
0.311681
0.223867
1.58423
0.298333
0.298333
1.58423
0.246645
0.915665
0.246645
)
;
    }
    procBoundary1to2
    {
        type            processor;
        value           uniform 0.075994;
    }
    procBoundary1to3
    {
        type            processor;
        value           nonuniform List<scalar> 
48
(
0.382704
0.268446
0.300763
0.300763
0.243442
0.186102
0.186102
1.0985
0.557337
0.0843636
0.080963
0.0843636
0.0716909
0.170185
0.125944
0.0716909
0.0492454
0.0492454
0.0565059
0.0565059
0.407444
0.543331
0.0921259
0.0895817
0.0895817
0.164066
0.740008
0.740008
0.955349
0.332397
0.293247
0.955349
1.0985
0.671547
0.104071
0.332397
0.866737
0.080963
0.458271
0.245783
0.246532
0.757777
0.671547
0.104071
0.090078
0.144748
0.223561
0.246532
)
;
    }
}


// ************************************************************************* //
