/*--------------------------------*- C++ -*----------------------------------*\
| =========                 |                                                 |
| \\      /  F ield         | OpenFOAM: The Open Source CFD Toolbox           |
|  \\    /   O peration     | Version:  v1912                                 |
|   \\  /    A nd           | Website:  www.openfoam.com                      |
|    \\/     M anipulation  |                                                 |
\*---------------------------------------------------------------------------*/
FoamFile
{
    version     2.0;
    format      ascii;
    class       volScalarField;
    location    "0.71";
    object      epsilon;
}
// * * * * * * * * * * * * * * * * * * * * * * * * * * * * * * * * * * * * * //

dimensions      [0 2 -3 0 0 0 0];


internalField   nonuniform List<scalar> 
1466
(
0.533755
0.351806
0.144883
0.433578
4.13167
6.9374
3.02151
2.13644
6.62244
1.1655
9.48909
0.71385
0.107037
0.755744
0.365272
0.959559
1.06568
0.389222
4.89217
0.59045
0.545648
2.27106
0.816492
0.525437
0.77055
0.764938
1.38465
0.533609
2.26943
2.9155
2.43062
4.2324
1.92882
1.68939
0.207059
0.378678
0.262841
0.271416
8.06757
2.0726
0.712907
0.58622
5.70239
2.31965
0.618832
4.14706
0.267277
0.454575
0.572027
0.521622
0.15823
2.1027
4.91824
8.14859
2.75992
1.06713
0.296462
0.443464
0.569618
1.14812
1.00386
2.13741
3.20703
5.15038
0.371003
0.536891
0.924543
0.532891
0.401875
2.11347
0.399262
0.444767
0.307275
0.556388
0.505294
0.990507
0.586896
0.397142
2.10479
1.13528
0.236783
0.551217
0.321236
0.525193
0.338539
0.406535
0.393138
0.346472
0.397949
0.22033
0.45055
0.660367
0.957328
0.448124
0.144488
0.473185
0.71724
0.624127
0.362771
0.470724
2.82355
0.595779
0.155132
0.587196
0.299709
6.08595
0.499609
0.318925
0.767577
0.69223
0.41302
0.389684
0.326717
0.258631
0.120297
11.7991
0.731668
0.716388
0.24794
0.41763
0.479468
0.318582
0.366818
0.354503
0.407298
0.935205
0.209419
0.284078
0.988024
6.36011
0.366049
0.560747
0.125201
0.789571
0.242204
0.998644
0.587952
0.366046
0.643828
0.424708
1.50933
0.616838
1.05726
0.769148
0.614629
0.774731
0.316712
0.146496
0.705261
0.318394
0.940686
0.367671
0.198549
0.556609
0.486561
1.86096
0.413077
9.97032
0.404103
0.13422
0.576276
0.487998
0.304563
0.483826
0.615807
0.845139
6.49772
0.323127
0.638901
1.7036
0.446005
0.384449
0.293156
0.616343
1.0246
0.402635
0.638653
1.14919
0.434436
1.07065
0.343361
0.370094
0.405221
0.454862
0.387537
0.652384
0.417712
11.4394
0.392338
0.433752
0.554274
1.04993
0.490791
0.349684
0.327079
0.451228
0.683952
0.624071
0.557107
0.615413
4.85106
0.497872
0.312491
0.615846
0.513595
0.678449
0.403286
2.28683
0.398114
0.69497
0.651924
6.22653
0.409584
0.263065
0.283548
0.412435
0.107816
0.239052
0.661586
0.461952
6.08963
0.328021
0.695869
0.260765
0.614844
0.268631
0.547749
0.980621
0.315609
6.68875
0.333516
0.319412
0.475662
0.295861
0.330831
0.691951
0.274362
2.06123
0.290316
0.842907
6.50299
0.318797
0.690913
0.580194
0.682499
0.297745
0.7395
0.574685
0.21231
0.417138
0.524812
1.3926
0.604709
0.313498
0.423932
1.34117
0.487929
5.82355
12.8698
1.2004
0.262989
0.245496
1.84658
0.12891
10.0491
0.42797
7.23711
2.55247
0.48432
0.458276
1.2229
0.326163
0.356964
0.472056
0.249195
0.502598
0.307481
0.449484
0.177968
0.70015
0.698979
0.175496
0.509363
0.194143
0.603134
0.337963
0.754846
0.733485
5.30286
0.453321
0.26896
8.27421
0.64051
0.902159
0.574481
0.752014
11.85
17.2007
0.49116
0.527837
0.450047
6.65873
0.36159
0.607455
0.548672
0.417154
0.194882
0.347511
0.280741
18.7257
7.3643
0.141615
0.634683
0.665048
0.489218
0.393245
2.30267
0.720729
0.786487
0.305329
0.32125
0.837782
0.406278
0.677458
0.332529
0.515627
0.239097
0.804276
2.19053
0.280236
0.56552
0.642496
0.450879
0.146489
0.437057
0.676205
0.503535
0.957824
0.422162
0.364142
0.502009
0.565291
0.199587
0.178183
0.56751
0.567085
0.453082
0.546598
0.501839
6.70442
0.735031
0.291752
0.832094
0.41496
0.364954
0.389231
4.75071
0.525017
16.1515
0.945639
4.15201
0.998635
0.718671
0.127234
0.519012
0.645015
0.180456
1.00435
0.502132
0.426543
0.456716
0.481202
0.399556
0.664616
0.252298
0.534434
0.350636
12.6287
0.322181
0.566414
0.395287
0.585746
0.596092
0.165055
0.546297
0.849704
0.559338
0.576272
0.27071
0.616456
0.790721
3.68708
0.654593
14.9499
0.419874
0.458174
0.647225
0.502688
0.286729
0.321408
0.704984
0.936683
0.797256
0.310717
0.783952
0.655649
1.00884
13.5133
0.607047
0.310581
0.574611
0.983567
0.441467
0.668381
11.5824
1.10986
1.12118
0.753687
0.687958
0.90998
0.561939
0.75338
1.88681
1.67383
1.61665
1.59237
1.72324
1.82931
1.74569
1.99798
1.03621
0.504115
1.16605
12.4995
22.1634
13.7249
11.4886
2.14539
1.96648
3.83403
20.4971
0.493459
11.9271
0.858809
2.60235
10.208
6.18624
7.0602
17.6592
0.71081
18.5036
10.0151
0.927047
0.68556
11.0285
1.7195
7.53238
9.10113
3.141
0.647958
9.65402
1.02735
0.778641
0.497677
11.8603
16.0792
14.0789
0.549225
0.474065
0.941447
12.5334
1.3218
0.47316
1.34921
3.61682
2.44609
1.90797
1.28783
3.47322
4.85858
0.340095
0.602658
3.6442
0.612857
2.63803
0.28317
0.575917
0.203656
3.38661
0.864037
2.42647
0.352749
0.636165
0.258768
1.65716
3.40663
5.69625
10.0577
16.142
17.8262
0.315175
0.595471
0.656348
0.633385
0.33888
0.700823
0.890299
0.952178
1.59961
1.60844
5.65559
2.74213
4.42116
0.598435
0.64861
3.1166
0.354712
0.542679
0.545335
0.454972
0.611592
12.4959
9.29296
15.8826
12.5931
0.64662
10.6939
7.96406
0.662061
0.355343
0.62224
0.660537
1.08336
1.22594
0.573323
8.77311
0.671041
11.7074
0.45768
0.582485
10.1699
12.388
6.91515
11.4612
1.93259
0.499673
0.202081
12.5713
12.7458
0.325483
0.591824
0.283052
12.9905
1.09022
0.746294
7.94616
0.744209
0.415258
1.10432
5.38346
0.587259
0.454824
0.890981
11.4073
0.831381
1.09924
0.34942
0.740538
2.19694
13.5137
0.378032
3.20899
2.58811
0.628801
0.117421
2.27491
3.76281
0.454735
3.34078
3.20726
0.440359
0.660453
1.02865
0.682122
0.277387
20.0825
3.73848
0.428588
16.0691
4.79703
0.221749
0.675028
0.744951
0.140018
0.35897
0.504388
0.826123
0.88159
13.7652
0.631684
17.4227
0.305081
0.547469
0.11948
0.586742
1.68969
1.10529
0.60764
10.6553
13.3296
1.01649
10.829
5.77961
11.9195
0.229193
0.622895
11.5449
0.831465
4.37872
0.217147
0.373042
0.383358
12.8303
0.727923
0.354885
1.20684
0.37361
0.649192
0.449243
15.0508
1.81126
12.2373
0.136943
0.193954
0.691524
1.02022
0.643628
13.6888
0.339521
0.442254
0.49037
7.66341
0.314585
3.34465
1.48019
0.705504
0.127366
6.25346
9.36058
0.525689
0.566745
16.6865
0.921545
8.89706
0.490278
2.28595
5.66743
0.844472
0.551236
0.130902
0.92568
13.9887
0.646796
5.84882
5.97509
13.9821
2.26456
0.308221
15.6542
0.546304
0.540035
0.237786
0.229322
0.116995
0.258176
0.671353
5.03775
14.646
0.289959
0.618339
0.262443
0.300238
0.391014
0.131501
0.482381
0.61079
2.33374
0.704203
0.285883
0.311255
0.469928
0.496764
2.36445
0.52742
11.3014
0.437027
0.848031
0.314378
0.428757
1.16635
4.38551
0.126898
0.920495
8.88938
1.06616
0.368491
1.17555
15.4971
3.62714
0.29628
0.36901
0.126993
0.551802
0.260152
0.470343
0.463391
1.01479
14.4212
0.446395
1.9111
0.686632
0.92033
0.510374
1.01012
11.0294
0.274671
0.805295
0.824221
5.8222
0.547169
4.71658
0.185469
0.796876
0.542254
0.33619
8.15173
0.76311
0.185996
1.69263
17.6139
0.14756
0.976239
0.122389
0.608057
0.424102
1.01891
0.766178
0.122481
5.56898
0.751461
0.120207
1.20179
0.24661
0.733417
0.913817
0.587122
15.4072
6.8378
0.107143
0.483588
1.3002
0.127349
0.517113
0.203544
0.378008
6.10553
2.39124
1.27269
0.108011
0.15257
0.987704
9.70088
8.2815
0.270682
0.694701
0.34981
0.467853
0.808673
0.47193
4.49372
9.80528
7.51512
0.189198
0.602423
0.810624
0.441117
0.359033
0.454094
3.89287
0.871693
0.42275
0.339196
0.172533
0.504544
0.377662
5.69709
11.8741
0.643906
1.8918
0.543358
0.270851
0.627975
0.431197
0.143328
0.105618
0.296273
6.4147
0.262754
0.293281
1.77834
14.0665
0.129626
0.446219
5.86685
0.6569
3.88542
0.414403
0.265052
0.531087
5.08473
14.1863
0.243024
1.01239
1.17975
0.693172
0.713177
1.06574
0.293315
0.480716
0.170973
0.478601
0.95888
0.200797
3.9916
0.460475
0.239714
2.86746
0.617117
0.547029
8.17043
0.235214
0.408794
0.711674
6.05142
0.169149
0.871404
0.9961
0.912163
1.61282
1.03453
8.21401
0.496195
0.713547
7.54797
0.557868
0.259966
0.498305
0.899898
0.147485
1.29196
4.91118
0.155222
10.1804
0.456163
0.518245
0.244636
0.439118
0.392215
0.900177
0.171869
0.49661
0.757574
5.08109
2.13022
0.156698
0.325434
0.5009
0.311157
11.8099
0.806736
0.505905
0.133712
2.72918
0.589693
0.504891
0.152743
0.644882
2.68954
1.13136
3.54211
0.362954
0.355542
0.378437
0.579948
0.49319
11.0407
0.769083
0.995309
2.37117
0.55577
0.429696
0.611312
0.531924
0.423302
0.973867
1.04201
0.415999
0.319643
0.821075
0.139876
0.943129
0.374054
3.77072
0.843116
0.61186
0.310718
0.738443
0.433933
0.334209
0.549684
0.298787
0.424434
5.3234
8.33587
8.05624
0.628516
0.537253
0.381925
0.72394
1.27258
0.456121
0.305622
0.44706
1.87858
0.213239
8.68747
0.473512
1.92254
0.434765
0.341722
0.318812
0.357786
0.308844
0.463788
0.45646
0.467214
0.480321
0.408468
0.469326
0.47506
0.432735
0.437362
0.419582
0.502998
0.394844
0.358616
0.73088
0.147837
0.732426
0.616076
0.508869
13.3966
0.550453
0.935371
0.473106
0.293813
7.21855
0.423931
0.165955
0.600684
1.15553
0.670617
0.664383
0.242241
0.592466
1.11107
0.579875
0.295646
0.597494
0.90935
6.95592
5.60241
12.2375
8.01958
0.5283
0.13946
0.897759
0.290442
0.458724
0.45376
0.857635
0.706549
1.18462
0.813131
4.70246
0.305208
0.883419
18.3023
6.74057
9.4735
1.20029
1.07946
1.50266
0.566811
0.755815
0.862435
0.8249
9.45056
1.02739
0.513317
0.459227
0.998105
0.704805
0.849382
0.216991
0.526571
0.596737
0.315531
0.301372
3.46784
0.271124
0.453151
9.4079
4.83325
2.03298
0.557857
2.00081
0.558779
5.43872
5.94822
0.515054
0.112594
9.06323
0.891454
0.953906
2.49658
11.9375
0.23412
0.296238
5.45341
11.0145
0.145455
0.460408
0.381139
0.538711
0.845449
0.817074
0.11189
1.1968
0.597493
0.310679
0.199003
0.67506
8.01065
1.24873
0.731076
13.5247
0.347674
0.305768
13.7238
10.3598
0.422282
0.207839
0.256133
0.509935
0.276557
0.340126
13.0989
0.517166
0.69504
0.240954
0.71387
0.517334
0.29629
12.2141
0.496026
0.54734
1.91012
0.143706
3.93329
1.61058
0.798087
1.03059
3.97914
0.108987
0.684424
10.868
0.690272
0.126998
0.545063
3.19027
1.42898
0.559715
10.2705
0.524261
0.714329
1.85237
1.73237
0.702889
0.5539
0.654008
0.883875
0.432182
4.35588
0.8796
0.283381
0.193857
1.12708
0.52324
1.05222
1.36578
0.793443
0.32536
0.329845
2.89068
0.902743
0.778444
0.314632
0.243901
0.524632
0.581186
0.235003
0.821169
0.23609
0.655468
0.410531
0.333057
0.379107
0.677314
2.07278
0.309082
1.42579
0.339027
1.47366
0.364319
0.409546
0.777078
0.918755
16.1287
0.550978
1.00996
0.610437
0.449636
0.841901
0.589547
2.5871
0.136537
0.678542
1.10709
0.998062
0.588398
0.905352
0.281581
0.605187
0.913706
0.513255
1.05736
0.264234
6.01793
0.402723
0.130498
3.83669
7.71422
0.679774
0.97118
0.123901
0.524557
0.976364
0.271892
0.293707
1.00172
0.510238
8.52192
0.341266
0.98035
2.83859
4.73905
1.02561
1.00343
0.438252
0.959209
0.547789
0.316066
1.02918
0.981637
0.139421
0.550531
0.425961
5.31879
0.540378
0.599119
0.30801
0.998568
0.878295
0.435932
14.9157
6.68734
2.72666
0.119614
2.00168
0.288326
1.21308
6.27392
0.382342
0.407915
0.288503
0.291596
14.9105
0.866104
10.1394
0.441313
0.580753
0.497506
1.01454
10.9961
0.297864
0.878047
1.08055
1.0656
0.509931
1.74839
0.443481
0.692976
0.293578
0.891784
0.445373
0.970065
19.3743
7.42248
0.504709
0.422087
0.310886
0.139016
0.161096
0.618981
0.828984
0.199409
1.70503
0.536902
0.214751
1.70952
0.51732
10.731
16.7332
3.05138
14.8118
0.283207
0.265213
0.146647
0.353161
5.89993
11.7465
0.516998
11.5895
0.668671
0.842566
0.331161
7.3693
0.828962
2.13744
2.08266
0.316607
0.526364
0.560717
1.15063
0.677681
0.447016
2.1087
0.462531
0.566737
0.582358
4.23766
0.871707
0.35329
20.1506
7.73795
7.30123
0.50244
0.26397
0.601667
0.196053
6.65985
3.78877
13.6892
0.425468
0.213557
1.081
1.09474
0.767179
0.250966
0.521737
18.1069
7.35477
0.171583
9.42383
8.5905
1.05461
0.10734
1.31211
0.282929
5.06081
11.0135
0.291392
0.338876
1.30644
1.43993
0.769136
9.06163
0.122559
0.435967
0.715391
0.344629
0.287883
0.946996
0.24987
1.07585
0.151625
5.20757
0.31205
9.61681
0.328371
1.89292
1.39445
0.358609
0.735941
0.663329
0.106157
2.44557
0.382039
11.2217
0.266522
9.79538
0.406492
0.292951
1.70993
1.14087
0.334488
0.484988
0.339998
0.434294
1.01384
2.4235
0.973749
0.490033
0.328473
0.666407
0.251143
0.236393
0.465929
0.279369
0.893491
0.989802
2.9643
0.473575
0.353537
1.88039
0.59074
1.64101
0.490726
0.520034
0.425453
0.292225
0.572135
0.156825
0.397456
0.882585
0.176908
1.00448
15.846
0.110927
0.356482
0.58096
0.522172
0.315646
0.641579
0.782145
0.882964
1.13309
0.385986
0.175304
0.272646
0.53057
0.602918
0.4323
2.95056
0.78106
0.606803
0.526586
0.289169
0.577904
0.438441
0.378645
0.139703
1.67705
0.340832
0.286691
0.368117
0.209703
1.41585
0.223277
0.757406
0.760549
9.81979
0.462521
0.288849
1.7041
0.12232
2.79354
0.484902
0.61868
0.838327
0.525302
0.592262
0.315526
0.361693
0.957274
0.734195
1.6588
17.6047
7.09526
4.28789
0.376892
0.2528
0.438829
0.546991
1.50512
2.43935
0.706743
0.314244
0.216261
0.373901
0.669308
0.433048
0.891313
0.32888
0.87057
0.395487
0.764263
0.544092
0.432315
0.427018
0.605797
0.487679
1.31897
1.16713
0.158849
0.63009
0.545926
0.538633
0.308232
8.95363
0.133943
0.670962
8.29892
8.46507
0.504693
0.558708
7.39229
0.176225
16.2885
1.6514
2.71785
12.8061
4.66306
2.72691
1.19007
)
;

boundaryField
{
    frontAndBack
    {
        type            empty;
    }
    wallOuter
    {
        lowReCorrection 0;
        type            epsilonWallFunction;
        value           nonuniform List<scalar> 
102
(
0.107037
0.107037
0.816492
0.505294
0.120297
0.280741
0.419874
0.391014
0.542254
0.33619
0.76311
0.185996
0.976239
0.122389
0.608057
0.424102
0.766178
1.20179
1.3002
1.27269
0.270682
0.189198
0.602423
0.543358
0.270851
0.693172
0.713177
0.557868
1.29196
0.843116
0.310718
0.341722
0.318812
0.357786
0.308844
0.463788
0.45646
0.467214
0.480321
0.408468
0.469326
0.47506
0.432735
0.437362
0.419582
0.394844
0.358616
0.616076
0.508869
1.15553
0.664383
1.11107
0.597494
1.18462
0.813131
0.883419
1.20029
1.07946
0.998105
0.704805
0.891454
0.23412
0.145455
0.11189
1.24873
0.256133
0.71387
0.798087
1.03059
0.714329
0.654008
0.883875
0.193857
1.12708
1.05222
0.902743
0.581186
0.655468
0.677314
0.918755
1.00996
0.136537
0.913706
1.05736
0.679774
1.00172
0.98035
0.981637
0.878295
0.970065
0.462531
0.566737
0.10734
0.291392
0.122559
0.946996
1.14087
0.973749
0.666407
0.110927
0.641579
0.882964
)
;
    }
    inlet
    {
        type            fixedValue;
        value           nonuniform 0();
    }
    outlet
    {
        type            zeroGradient;
    }
    wallInner
    {
        lowReCorrection 0;
        type            epsilonWallFunction;
        value           nonuniform List<scalar> 
138
(
9.48909
1.06568
2.26943
2.9155
2.1027
4.91824
8.14859
2.75992
2.13741
0.660367
2.82355
0.587196
0.366818
1.50933
0.616838
0.774731
0.316712
0.323127
0.433752
0.554274
1.04993
0.239052
0.690913
0.297745
0.7395
0.574685
0.21231
0.417138
10.0491
0.175496
0.509363
0.733485
0.677458
0.332529
0.515627
0.239097
0.804276
2.19053
0.280236
0.56552
0.642496
0.450879
0.146489
0.437057
0.676205
0.503535
0.957824
0.422162
0.364142
0.502009
0.565291
0.199587
0.178183
0.56751
0.567085
0.453082
0.546598
0.525017
0.127234
0.519012
0.645015
0.180456
1.00435
0.502132
0.426543
0.456716
0.481202
0.399556
0.664616
0.252298
0.534434
0.350636
0.566414
0.321408
0.704984
0.441467
0.668381
0.75338
22.1634
20.4971
3.141
16.0792
0.941447
1.90797
1.28783
1.65716
16.142
17.8262
0.656348
15.8826
12.5931
0.662061
0.202081
3.76281
0.221749
0.675028
12.8303
0.193954
5.84882
0.258176
0.671353
0.285883
0.126993
1.69263
0.14756
8.2815
0.871693
0.296273
0.129626
0.265052
3.9916
8.17043
0.235214
0.899898
0.757574
1.04201
0.213239
0.147837
0.293813
0.513317
9.4079
4.83325
0.953906
3.93329
0.524261
0.235003
0.998062
0.905352
0.524557
0.959209
0.509931
2.79354
16.2885
1.6514
12.8061
4.66306
2.72691
1.19007
)
;
    }
    procBoundary2to0
    {
        type            processor;
        value           nonuniform List<scalar> 
42
(
21.5988
21.5988
0.290048
0.267887
4.35808
19.3936
0.303067
0.303067
2.39473
0.605157
7.41183
7.41183
5.746
8.59131
10.6948
17.4258
15.8538
0.43535
1.14636
3.38438
3.10136
0.328912
0.328912
4.79008
3.10136
0.396305
10.0009
0.407684
10.0009
21.9926
18.4414
0.400381
0.370968
0.317859
0.277807
0.267887
15.8538
0.253944
18.0412
0.300446
0.300446
0.282724
)
;
    }
    procBoundary2to1
    {
        type            processor;
        value           uniform 4.25054;
    }
    procBoundary2to3
    {
        type            processor;
        value           nonuniform List<scalar> 
29
(
1.75792
1.85642
1.34309
1.73309
5.90498
2.39738
2.19851
2.14056
1.77317
1.75845
2.38435
4.40342
2.3548
1.04596
0.91312
1.43111
1.50324
1.50324
1.85642
1.04596
0.99487
1.47562
0.691711
1.59724
0.725619
1.42014
1.77317
4.09404
4.40342
)
;
    }
}


// ************************************************************************* //
