/*--------------------------------*- C++ -*----------------------------------*\
| =========                 |                                                 |
| \\      /  F ield         | OpenFOAM: The Open Source CFD Toolbox           |
|  \\    /   O peration     | Version:  v1912                                 |
|   \\  /    A nd           | Website:  www.openfoam.com                      |
|    \\/     M anipulation  |                                                 |
\*---------------------------------------------------------------------------*/
FoamFile
{
    version     2.0;
    format      ascii;
    class       volScalarField;
    location    "0.71";
    object      nut;
}
// * * * * * * * * * * * * * * * * * * * * * * * * * * * * * * * * * * * * * //

dimensions      [0 2 -1 0 0 0 0];


internalField   nonuniform List<scalar> 
1466
(
0.000739091
0.000664576
0.000720594
0.000520067
0.00141958
0.00104835
0.000843665
0.00199106
0.00369861
0.00106116
0.000742052
0.00224659
0.000106049
0.000535282
0.000730603
0.000739759
0.000190622
0.000504057
0.00283569
0.000502073
0.00153714
0.00256035
0.000245062
0.000710236
0.000597129
0.00218904
0.00307188
0.00205124
0.000492123
0.000549763
0.00196778
0.00225518
0.0026629
0.00137075
0.000665804
0.000705914
0.000601468
0.000719278
0.00221743
0.00220704
0.00221018
0.00226561
0.00275606
0.00207537
0.00202635
0.00149403
0.000977466
0.000360699
0.00212201
0.00155755
0.000873745
0.000480125
0.000646331
0.000698841
0.000550903
0.00283402
0.000525327
0.00141472
0.00133109
0.00281332
0.000641258
0.000534134
0.00133673
0.00143766
0.000787605
0.000479833
0.00271297
0.00134463
0.000643565
0.00175062
0.0016946
0.000587352
0.000512359
0.000661105
0.000177404
0.00196544
0.000658531
0.000592548
0.00094452
0.00279009
0.00107212
0.000614175
0.000800214
0.00191951
0.000518839
0.00137868
0.000529181
0.000772627
0.000591321
0.00064631
0.000500553
0.000298433
0.00259254
0.000529262
0.000772184
0.00121678
0.000732241
0.00142767
0.000620257
0.000454083
0.000627405
0.00240939
0.000380754
0.000298658
0.000927566
0.00229681
0.00105722
0.000857284
0.000822523
0.000701962
0.00110607
0.000760264
0.000867386
0.000751326
0.000122657
0.00485167
0.000296469
0.000429304
0.000648234
0.0016274
0.000993376
0.000742108
0.000256604
0.000558501
0.000613752
0.00251018
0.000610362
0.000283511
0.00269434
0.0057984
0.00134027
0.000611715
0.000620656
0.0024843
0.000894066
0.00260679
0.00233996
0.000548697
0.00162109
0.00027956
0.000466488
0.000282267
0.002793
0.00220892
0.00179277
0.000276767
0.000218749
0.00060199
0.00192409
0.000522392
0.00265709
0.000743601
0.000646366
0.00081002
0.000591397
0.00315348
0.000606083
0.00653891
0.00101678
0.000600128
0.00226522
0.000443711
0.000751784
0.00118726
0.00250081
0.00234461
0.0053542
0.000183505
0.000570213
0.00334897
0.00120001
0.00129308
0.000618348
0.00140227
0.00238227
0.000768349
0.00254175
0.00273608
0.000742335
0.00270761
0.000644196
0.00107719
0.00134808
0.000531592
0.000647781
0.000433898
0.000982552
0.00398801
0.000796786
0.000223304
0.000201755
0.000245715
0.000467695
0.000832373
0.00105897
0.000612824
0.00144781
0.000782161
0.000651144
0.000583361
0.00277507
0.00128159
0.000904866
0.000543159
0.000755906
0.00228861
0.00104993
0.00107251
0.000650113
0.000786106
0.000898365
0.00364608
0.00111206
0.000693647
0.000650987
0.000894959
0.000543498
0.000190447
0.000498628
0.000625258
0.00569164
0.000731985
0.000644184
0.000985871
0.00119315
0.00104604
0.000482332
0.000805386
0.000490616
0.00486631
0.000586365
0.000929701
0.00064449
0.00129948
0.000751082
0.000813502
0.00112595
0.00111976
0.00105568
0.000701942
0.00423275
0.00106808
0.00032313
0.00233574
0.00255127
0.000206704
0.000384688
0.000268367
0.000186005
0.000232938
0.000617003
0.00306144
0.00202035
0.000784112
0.000644668
0.00299733
0.000549676
0.00516721
0.00435695
0.00172999
0.000687925
0.000757239
0.00313783
0.000605797
0.000815606
0.00074318
0.00333914
0.00190712
0.00130734
0.000610462
0.00290911
0.000682675
0.000608651
0.000501297
0.000748847
0.00179889
0.000548383
0.000656959
0.000554115
0.00246559
0.000807779
0.000173896
0.000253596
0.00049776
0.00166154
0.00059671
0.00167338
0.000386089
0.00604026
0.000442441
0.0010372
0.00315643
0.00164388
0.00184457
0.0017776
0.00163661
0.00343218
0.00728452
0.00129537
0.000353097
0.000595563
0.00520152
0.00054928
0.00169525
0.000866402
0.000896478
0.000990473
0.00139855
0.000142842
0.00615353
0.00550403
0.000625992
0.00151024
0.00139119
0.00168808
0.00104131
0.00145951
0.0017162
0.00162534
0.000651053
0.00120055
0.00232154
0.0012721
0.000253005
0.000198167
0.000274112
0.000229337
0.000340927
0.000505605
0.000277821
0.000240502
0.000251878
0.000307013
0.00021597
0.000213484
0.00024695
0.000182933
0.000485995
0.000174278
0.000281341
0.000317317
0.000332018
0.000190294
0.000184629
0.000361727
0.000343262
0.000257866
0.000274863
0.000870568
0.006648
0.00218223
0.000661314
0.00248428
0.00169735
0.00153908
0.00102346
0.0018711
0.000266783
0.00423292
0.00176581
0.0053931
0.00266148
0.00198146
0.000208835
0.000235057
0.000397373
0.00019287
0.000404983
0.000343683
0.000324285
0.000307436
0.000261632
0.000246474
0.00024329
0.000183963
0.000225708
0.000230644
0.00889073
0.000590185
0.000243429
0.00058029
0.000871205
0.00191858
0.000623263
0.000795906
0.00161753
0.000779154
0.00149958
0.000856695
0.0014493
0.00205809
0.00410919
0.000953895
0.00771167
0.000161401
0.000634056
0.00131739
0.00156793
0.000924506
0.000188342
0.000245271
0.00135574
0.000799003
0.000657045
0.00195911
0.00174347
0.00263126
0.00387924
0.00146698
0.00125592
0.00156786
0.000595735
0.000207959
0.000237432
0.00720283
0.00266461
0.00275022
0.00236016
0.001822
0.00229675
0.00201357
0.000336169
0.00297259
0.00261173
0.00294298
0.00280442
0.00252117
0.00283839
0.00232671
0.00205805
0.00139311
0.00138464
0.00276067
0.00781257
0.00104993
0.00875063
0.00757105
0.00214782
0.00344734
0.00488559
0.000785204
0.00122533
0.00550947
0.00222741
0.00393417
0.00742956
0.00611356
0.00635094
0.00898753
0.00222452
0.00883806
0.00701897
0.00175839
0.00212877
0.00775319
0.00298588
0.00652125
0.00700218
0.000425949
0.00207373
0.00748301
0.00256955
0.00222665
0.00188149
0.00549294
0.000794677
0.00867535
0.00147811
0.00128638
0.000276091
0.00791638
0.00277092
0.00180414
0.00221919
0.00220231
0.00219566
0.000368616
0.00032409
0.00266073
0.00179017
0.00139324
0.00158218
0.00191534
0.00171459
0.00227941
0.00138594
0.00154997
0.00112665
0.00148069
0.00148163
0.00196589
0.00129266
0.00162626
0.00127336
0.00044648
0.00256971
0.00156051
0.00759185
0.000775973
0.000788538
0.00110287
0.00142617
0.000273059
0.00064219
0.00145042
0.00128688
0.0017075
0.00240725
0.00313776
0.00306367
0.00576733
0.0018586
0.00509372
0.0019558
0.00138844
0.00420078
0.00107083
0.00144778
0.00188553
0.00171051
0.00191411
0.00731093
0.00512509
0.000946513
0.000682045
0.00162771
0.0053816
0.00494109
0.000319429
0.00122625
0.00169814
0.00170451
0.00256811
0.00277016
0.00180068
0.00688552
0.00254744
0.00770295
0.00148318
0.00113496
0.00723229
0.0080306
0.0063987
0.0079451
0.00330818
0.00111789
0.000191943
0.00666364
0.00779092
0.000986358
0.00134692
0.000769823
0.00835088
0.00279406
0.0021261
0.00668349
0.00114788
0.00109966
0.00269131
0.00578287
0.00121634
0.000893439
0.00250221
0.00586921
0.00186501
0.00262093
0.00124736
0.000801255
0.00351906
0.00669338
0.000513384
0.00473483
0.0038099
0.00223393
0.00060092
0.00360477
0.000717937
0.0016806
0.00427351
0.00416531
0.00102876
0.000792919
0.0026393
0.0011827
0.000945664
0.00903205
0.00179865
0.00111084
0.00772648
0.00428756
0.000190227
0.000277043
0.00178069
0.000620421
0.000926129
0.00128167
0.00236185
0.00245299
0.00753916
0.00153946
0.00856721
0.000945338
0.00125354
0.000513052
0.00198587
0.00307378
0.00272886
0.00151826
0.0068692
0.00594078
0.00264681
0.00209328
0.00473254
0.00380409
0.000454604
0.00197171
0.00655816
0.000617184
0.00539927
0.0010797
0.000976673
0.00124652
0.000721258
0.0019785
0.000966938
0.00286681
0.0014711
0.000889939
0.00126289
0.00882625
0.00313576
0.00587082
0.000696932
0.000165342
0.00189036
0.00250683
0.00157716
0.0082876
0.00089162
0.00115821
0.00120038
0.00678694
0.00052791
0.00463791
0.0018691
0.0026517
0.00063587
0.00638988
0.00427463
0.00110736
0.000781563
0.00863368
0.00226613
0.0072012
0.00144737
0.00256426
0.00346302
0.00129976
0.00102187
0.000693966
0.000762865
0.0080229
0.00241209
0.000824526
0.00422351
0.00865748
0.00348888
0.000854453
0.00851244
0.0015666
0.000931157
0.00067808
0.000833696
0.000593229
0.000188356
0.000262892
0.00331725
0.00846897
0.000886562
0.00160967
0.00114926
0.000948109
0.000196618
0.000508675
0.00192043
0.00101254
0.00136957
0.00153949
0.000221744
0.00090271
0.000588855
0.000802885
0.00384868
0.00142239
0.00702466
0.000578531
0.0026595
0.00078112
0.00122847
0.00284016
0.00491488
0.000490272
0.00240326
0.00730814
0.00268716
0.000740131
0.00282883
0.00897271
0.00445979
0.000968905
0.00105572
0.000163042
0.00101506
0.000988223
0.00113044
0.000534295
0.00268543
0.00667015
0.000666064
0.00366831
0.00191504
0.00246024
0.00133631
0.00273488
0.0066078
0.000976637
0.00228037
0.000779969
0.00622674
0.00157492
0.00465496
0.000654409
0.00215225
0.000181195
0.000165896
0.00590779
0.000197033
0.000159423
0.000537943
0.0091599
0.000167535
0.000212284
0.000119245
0.000168548
0.000153092
0.00158722
0.000163927
0.000492678
0.00369924
0.00271356
0.000621778
0.000239214
0.000559065
0.00214882
0.00252711
0.00049475
0.00483925
0.00533328
0.000583589
0.000497593
0.000240566
0.000491131
0.00135827
0.000588554
0.000633783
0.0046796
0.00177761
0.000242174
0.000578982
0.000638867
0.00264934
0.00133748
0.000642624
0.000225474
0.00181148
0.000930887
0.000689437
0.0027263
0.0007509
0.00314306
0.00225423
0.00691473
0.000126166
0.000174339
0.00213774
0.00166169
0.00082462
0.00120454
0.00380414
0.000245967
0.000666917
0.000750497
0.000954684
0.000609588
0.000386584
0.00426281
0.00350014
0.00117544
0.00283029
0.00023462
0.000188993
0.00171046
0.000997623
0.000636655
0.000579092
0.000222964
0.0062414
0.000781858
0.000720002
0.00313413
0.00333392
0.000166951
0.000763271
0.00609878
0.000626751
0.0024002
0.000659573
0.000215894
0.000704284
0.00337665
0.00255699
0.000838133
0.00269069
0.00276789
0.000175253
0.000180642
0.000901535
0.000908001
0.00110445
0.00102571
0.000597635
0.00242692
0.00068037
0.000684231
0.000754103
0.000544885
0.00283367
0.00169839
0.000409116
0.000674221
0.000202068
0.00101184
0.00194337
0.00550412
0.000674139
0.00235038
0.00281102
0.00281327
0.0032189
0.00255038
0.00713587
0.00125635
0.00205815
0.00685395
0.000175984
0.00107178
0.00164783
0.000319802
0.000561706
0.000239999
0.00277063
0.000533796
0.00811848
0.000780151
0.00103752
0.00099213
0.000672645
0.000585926
0.00246139
0.000501757
0.00132116
0.000263806
0.00583171
0.00190804
0.000628055
0.00123211
0.000640247
0.0010318
0.00297787
0.00246255
0.000667942
0.000729302
0.00376022
0.00162578
0.000713946
0.000599485
0.000793496
0.00267004
0.00286849
0.00207426
0.00101622
0.00132207
0.000529838
0.000527839
0.00120711
0.00349994
0.00233082
0.00265772
0.00404823
0.00130162
0.000761537
0.00171691
0.00132432
0.00149683
0.00260232
0.000259194
0.00143686
0.000732381
0.00273723
0.000446436
0.00082077
0.00138208
0.00378952
0.000175579
0.00175902
0.000139125
0.00187316
0.000590813
0.000890922
0.000834534
0.000915758
0.000671246
0.00540627
0.00603127
0.0068414
0.000590655
0.00113518
0.00101686
0.00207031
0.00236691
0.000668528
0.00101255
0.00176065
0.00335798
0.000188756
0.0044347
0.00149185
0.00318821
0.000753068
0.000147176
0.000137225
0.000119131
0.000127275
0.000148128
0.000130664
0.000151556
0.000140971
0.000160702
0.000129796
0.00013901
0.000166592
0.000166351
0.000160743
0.000784987
0.000151925
0.000144934
0.00215832
0.000180236
0.00232936
0.000174534
0.000158994
0.0089312
0.00173927
0.000820579
0.000689631
0.000225248
0.00652679
0.000584714
0.000975891
0.000972501
0.000232904
0.00158646
0.000225492
0.00132055
0.00176352
0.000230728
0.001138
0.000996098
0.000185066
0.000774638
0.00653438
0.00402312
0.0034709
0.00607198
0.00132083
0.000779331
0.00111753
0.000959602
0.000843776
0.00151602
0.000918204
0.000787818
0.000238974
0.000216921
0.00550106
0.00149076
0.000204719
0.00829967
0.00610566
0.00323202
0.000244194
0.000241338
0.00299632
0.00100891
0.00262657
0.000579217
0.000722769
0.00188753
0.000782047
0.000222289
0.00082746
0.000217903
0.000263353
0.00245176
0.000869953
0.00116202
0.00118306
0.00103533
0.0012961
0.00283999
0.000778722
0.00050169
0.000489867
0.000492673
0.00163498
0.00202093
0.00176877
0.0020545
0.00124716
0.00163026
0.001465
0.000534817
0.00648765
0.000266782
0.000202597
0.00294301
0.00236574
0.000141004
0.000918766
0.00324648
0.00277251
0.000114675
0.00115578
0.00119872
0.00196101
0.00175005
0.00062167
0.000117067
0.00287977
0.00121509
0.00109238
0.000957987
0.00173949
0.00647237
0.000236847
0.00200707
0.00882324
0.00102922
0.000529954
0.00151555
0.0033763
0.000525056
0.000466649
0.000133971
0.00120299
0.00124513
0.000524091
0.00546068
0.00152759
0.00238673
0.00107773
0.000254953
0.00106488
0.0011117
0.0044829
0.000881571
0.00177733
0.00142814
0.000491386
0.000427981
0.00187815
0.00022928
0.000259993
0.00517072
0.000572246
0.00226469
0.0041548
0.00210122
0.000647214
0.000768407
0.00468823
0.00224582
0.00107923
0.00506009
0.000185704
0.000234765
0.00213494
0.00342493
0.00169209
0.00124015
0.000275071
0.000239771
0.00124221
0.00484912
0.00160457
0.00041802
0.000125457
0.000238615
0.00126693
0.000230624
0.00311092
0.00215022
0.000947153
0.000742507
0.00439513
0.000227893
0.00031636
0.000525143
0.000506186
0.0011188
0.000178541
0.000205048
0.00241939
0.000675726
0.000171555
0.000320589
0.000311396
0.000784374
0.000236006
0.00364075
0.000338878
0.000731093
0.000642273
0.0031208
0.000326495
0.00044768
0.0021738
0.000214725
0.00913002
0.00197578
0.000225275
0.00141267
0.000878406
0.000753469
0.000924774
0.00225264
0.00011549
0.00081183
0.00276601
0.000294464
0.000769523
0.000217058
0.000535888
0.00066879
0.000186775
0.00167013
0.000176133
0.000388559
0.00110863
0.000601469
0.000680166
0.00445028
0.00453109
0.00024891
0.00257128
0.000614455
0.000260685
0.000695453
0.000476705
0.00121274
0.000186105
0.00129549
0.00477347
0.000522041
0.00021558
0.00217999
0.00188349
0.000801608
0.00057292
0.00167428
0.000309965
0.00212759
0.000722992
0.000509124
0.000147219
0.000389335
0.00150238
0.000624353
0.00515557
0.000827526
0.00161589
0.000672582
0.000704601
0.000229252
0.000636585
0.00541958
0.00560572
0.00384322
0.00036707
0.00271701
0.00071075
0.00280421
0.00151683
0.00112852
0.000702929
0.00112994
0.000505817
0.00648726
0.0023365
0.00423451
0.0016607
0.00155793
0.00125758
0.000917035
0.00497913
0.000751821
0.00241034
0.00280786
0.00234003
0.000221283
0.000949622
0.000628129
0.000888884
0.000755077
0.00201171
0.000509971
0.000198309
0.00816659
0.00623945
0.000571659
0.000918436
0.00103577
0.000290479
0.0005851
0.000397153
0.00229206
0.00117136
0.00125005
0.000561037
0.000327888
0.00210979
0.000625637
0.00586831
0.00758524
0.00397385
0.00596728
0.000824963
0.00122665
0.000825954
0.000900434
0.00405801
0.00323084
0.0014955
0.00795987
0.00218912
0.000817742
0.000819847
0.00373801
0.00237006
0.00255181
0.00182541
0.000973184
0.00126255
0.00212674
0.00284724
0.000774768
0.0008314
0.00275768
9.96798e-05
0.000105301
0.000781262
0.00461662
0.00162538
0.000377239
0.00811205
0.00623669
0.00513365
0.00123062
0.000841458
0.000882943
0.000965162
0.00312786
0.000912941
0.00266598
0.000712423
0.000812976
0.00266563
0.00145602
0.000847051
0.000777798
0.00122244
0.00657149
0.00579685
0.000397777
0.00619568
0.00666846
0.00273317
0.000112391
0.00297391
0.000425756
0.00506018
0.00814472
0.000148578
0.000506341
0.00254243
0.00296246
0.00140095
0.00725413
6.91865e-05
0.00133911
0.00250623
0.000668453
0.000627906
0.000219386
0.000658427
0.00273757
0.000358675
0.00151264
0.000733589
0.00585754
0.000724916
0.00111493
0.00292075
0.00072542
0.00166975
0.00199792
0.00058709
0.00143307
0.000877215
0.00363871
0.000712965
0.00551866
0.000670424
0.000777001
0.00271201
0.000226599
0.00104847
0.000797145
0.000923355
0.000580041
0.000887598
0.0041371
0.00018683
0.000865845
0.000928333
0.000174768
0.000886538
0.000660268
0.000764683
0.000888519
0.00259035
0.000439051
0.00358462
0.000794544
0.000912799
0.00322587
0.00182643
0.00246039
0.00145366
0.0020436
0.000678262
0.000783878
0.00042439
0.000382351
0.000457901
0.000876888
0.000818477
0.00247228
0.009059
0.000111521
0.000773366
0.000925819
0.00127219
0.00130585
0.000171047
0.000400791
0.00019668
0.00285111
0.000660005
0.000716033
0.000563669
0.000758758
0.00141463
0.00118633
0.00144934
0.000727669
0.000508473
0.00194574
0.000745884
0.00138249
0.000493293
0.000782283
0.000390502
0.00269669
0.00113522
0.000268796
0.000668956
0.000823483
0.00274237
0.000467413
0.0020068
0.0012876
0.00515808
0.000986992
0.00108213
0.00238182
0.000364861
0.000501276
0.000441876
0.00141308
0.000745747
0.000522287
0.000806863
0.00116025
0.000639084
0.000768226
0.00104589
0.000962088
0.00691642
0.00593126
0.00259026
0.000704988
0.00100155
0.000547618
0.000441722
0.00296197
0.0027875
0.000706183
0.000820091
0.00110893
0.000574368
0.000806504
0.000802581
0.000374172
0.00063768
0.000885157
0.000518281
0.000309493
0.00110713
0.000359295
0.000760896
0.000893448
0.000618761
0.00290878
0.00285247
0.000855948
0.000761745
0.00121653
0.000787036
0.000613145
0.00370422
0.000258025
0.00205249
0.00554382
0.00521567
0.000486494
0.00202239
0.00478969
0.000867883
0.000779575
0.000525934
0.000613359
0.000705217
0.000457745
0.000618807
0.000376939
)
;

boundaryField
{
    frontAndBack
    {
        type            empty;
    }
    wallOuter
    {
        type            nutkWallFunction;
        Cmu             0.09;
        kappa           0.41;
        E               9.8;
        value           nonuniform List<scalar> 
102
(
9.30717e-06
9.30717e-06
2.82404e-05
1.93367e-05
1.17784e-05
1.46213e-05
1.71663e-05
2.18362e-05
2.04515e-05
1.83441e-05
2.25501e-05
1.73428e-05
2.45267e-05
1.12916e-05
1.80049e-05
1.55959e-05
1.73865e-05
2.75022e-05
2.78494e-05
2.7975e-05
2.54978e-05
1.22559e-05
1.8882e-05
2.70574e-05
2.06728e-05
1.9085e-05
1.97942e-05
1.92052e-05
2.78758e-05
1.90408e-05
1.38593e-05
1.52228e-05
1.37938e-05
1.10115e-05
1.22947e-05
1.55942e-05
1.28717e-05
1.6148e-05
1.45599e-05
1.71141e-05
1.28302e-05
1.39032e-05
1.79057e-05
1.78316e-05
1.69527e-05
1.56823e-05
1.46791e-05
1.9044e-05
1.63867e-05
2.6801e-05
2.59622e-05
2.66194e-05
1.95757e-05
2.74427e-05
2.35239e-05
2.33654e-05
2.7778e-05
2.68725e-05
2.50725e-05
3.12085e-05
3.0992e-05
1.40006e-05
1.01887e-05
1.09676e-05
2.75776e-05
1.31441e-05
2.96507e-05
2.62873e-05
3.01147e-05
2.72914e-05
3.26998e-05
2.74764e-05
1.19509e-05
2.73533e-05
2.66818e-05
2.6537e-05
1.95899e-05
1.86215e-05
2.74518e-05
2.47762e-05
2.60196e-05
1.05363e-05
2.05365e-05
1.90363e-05
2.89957e-05
2.08452e-05
2.48002e-05
1.50893e-05
2.67347e-05
2.25343e-05
8.11795e-06
8.92562e-06
1.02574e-05
1.49034e-05
3.50651e-06
2.53546e-05
2.63323e-05
2.09297e-05
1.90468e-05
1.00524e-05
1.85611e-05
2.19136e-05
)
;
    }
    inlet
    {
        type            calculated;
        value           nonuniform 0();
    }
    outlet
    {
        type            calculated;
        value           nonuniform 0();
    }
    wallInner
    {
        type            nutkWallFunction;
        Cmu             0.09;
        kappa           0.41;
        E               9.8;
        value           nonuniform List<scalar> 
138
(
8.81025e-05
2.13348e-05
6.0387e-05
6.67581e-05
5.98847e-05
7.82709e-05
8.52222e-05
6.74609e-05
6.47492e-05
3.55703e-05
7.69251e-05
3.5845e-05
3.00079e-05
5.79331e-05
3.35312e-05
3.28645e-05
2.45332e-05
2.08575e-05
2.61805e-05
2.2326e-05
2.85824e-05
2.1336e-05
3.86544e-05
2.36502e-05
4.52818e-05
3.17642e-05
2.05028e-05
2.71685e-05
9.82727e-05
1.90079e-05
2.98694e-05
4.65946e-05
2.96561e-05
2.24441e-05
3.18477e-05
2.4857e-05
4.06196e-05
5.96568e-05
3.17531e-05
2.79913e-05
2.94092e-05
3.41786e-05
2.40169e-05
2.43368e-05
2.88074e-05
2.02473e-05
5.66462e-05
1.89103e-05
3.24115e-05
3.80451e-05
3.97486e-05
2.06891e-05
2.03076e-05
4.30569e-05
4.04142e-05
3.02598e-05
3.24561e-05
3.13085e-05
2.35981e-05
2.73536e-05
4.75514e-05
2.08656e-05
4.6602e-05
4.12725e-05
3.89168e-05
3.58859e-05
3.07616e-05
2.87084e-05
2.82938e-05
1.94676e-05
2.60036e-05
2.60891e-05
2.85719e-05
2.10047e-05
2.88569e-05
2.37111e-05
2.82302e-05
4.1017e-05
0.000124619
9.36929e-05
4.98251e-05
9.39637e-05
3.12847e-05
4.29382e-05
3.73318e-05
5.45337e-05
9.20338e-05
9.37468e-05
3.23857e-05
0.000113393
8.34038e-05
3.87071e-05
2.16287e-05
8.46875e-05
2.15115e-05
3.29121e-05
8.63086e-05
1.83078e-05
9.66873e-05
2.13143e-05
3.10143e-05
2.56084e-05
1.72538e-05
6.20999e-05
1.82651e-05
7.76029e-05
2.86711e-05
2.56228e-05
1.81375e-05
2.4948e-05
8.1329e-05
8.18007e-05
2.29309e-05
3.80133e-05
3.07546e-05
3.04138e-05
2.09374e-05
1.99641e-05
2.57799e-05
2.60081e-05
6.08071e-05
5.95504e-05
2.28495e-05
4.87341e-05
2.10014e-05
2.3528e-05
3.48852e-05
2.48183e-05
3.11227e-05
3.6811e-05
2.58835e-05
6.13237e-05
9.3591e-05
6.39373e-05
8.51709e-05
5.63958e-05
7.56416e-05
4.64627e-05
)
;
    }
    procBoundary2to0
    {
        type            processor;
        value           nonuniform List<scalar> 
42
(
0.00778716
0.00778716
0.000944465
0.000670909
0.00318965
0.00566882
0.00102903
0.00102903
0.00220947
0.00140194
0.00663107
0.00663107
0.00496476
0.00770151
0.00856744
0.00376218
0.00929412
0.00141571
0.00162843
0.0022158
0.00145691
0.0014579
0.0014579
0.00126502
0.00145691
0.00125187
0.00165004
0.00098166
0.00165004
0.00884925
0.00943119
0.000835469
0.000809723
0.000902286
0.00112769
0.000670909
0.00929412
0.000165081
0.00285283
0.00116033
0.00116033
0.00128986
)
;
    }
    procBoundary2to1
    {
        type            processor;
        value           uniform 0.00282393;
    }
    procBoundary2to3
    {
        type            processor;
        value           nonuniform List<scalar> 
29
(
0.00172367
0.00200792
0.000467836
0.00039733
0.000831415
0.000639958
0.000574142
0.00182797
0.00257464
0.00235079
0.00130452
0.00164186
0.000599593
0.00188105
0.00117012
0.00197654
0.00203031
0.00203031
0.00200792
0.00188105
0.00141535
0.00179695
0.00022567
0.00244717
0.000798229
0.000984431
0.00257464
0.00261211
0.00164186
)
;
    }
}


// ************************************************************************* //
