/*--------------------------------*- C++ -*----------------------------------*\
| =========                 |                                                 |
| \\      /  F ield         | OpenFOAM: The Open Source CFD Toolbox           |
|  \\    /   O peration     | Version:  v1912                                 |
|   \\  /    A nd           | Website:  www.openfoam.com                      |
|    \\/     M anipulation  |                                                 |
\*---------------------------------------------------------------------------*/
FoamFile
{
    version     2.0;
    format      ascii;
    class       volScalarField;
    location    "0.52";
    object      nut;
}
// * * * * * * * * * * * * * * * * * * * * * * * * * * * * * * * * * * * * * //

dimensions      [0 2 -1 0 0 0 0];


internalField   nonuniform List<scalar> 
1431
(
0.00109912
0.0023197
0.00222341
0.00152839
0.000803892
0.00164058
0.00406634
0.000786469
0.00484989
0.00649493
0.000692062
0.00076415
0.00101079
0.00134488
0.00380026
0.000674129
0.00390294
0.00160731
0.000391276
0.00063094
0.00072751
0.00751946
0.00241263
0.00144857
0.00145916
0.000566413
0.00142793
0.00124985
0.00100743
0.00163168
0.00157334
0.000728046
0.001929
0.00102646
0.00100952
0.0018959
0.000650549
0.000857612
0.00385634
0.000856594
0.00246633
0.000462502
0.00147045
0.00218643
0.00361532
0.00156709
0.00223754
0.000816022
0.000926838
0.000868932
0.00157627
0.0052459
0.00337211
0.00271042
0.00308004
0.000773182
0.00266566
0.00225649
0.00100822
0.000576984
0.00309608
0.000580536
0.00216837
0.000783157
0.000907147
0.00160283
0.00229847
0.00108756
0.00451393
0.000750485
0.000927156
0.000915988
0.000916756
0.0022187
0.000704269
0.00116374
0.00109585
0.00293731
0.000784632
0.00214514
0.000805731
0.00216764
0.000940671
0.00274407
0.00210803
0.000913689
0.000947931
0.000668865
0.00156143
0.000722983
0.00129131
0.00072241
0.000927933
0.000860902
0.00190672
0.000898698
0.000722705
0.00072829
0.00113137
0.0011762
0.00498821
0.000805923
0.00122425
0.000709817
0.000929791
0.0020099
0.000785785
0.00311164
0.00224704
0.000936775
0.00244016
0.0012327
0.00075608
0.000616583
0.000901077
0.000647561
0.00171261
0.00293769
0.0016861
0.00275954
0.000857432
0.00291963
0.00405967
0.00144744
0.000831253
0.00227012
0.00182995
0.000727193
0.00159556
0.000809867
0.000784188
0.00294209
0.00101439
0.00089051
0.000894743
0.00084149
0.000885129
0.00221508
0.00153994
0.00289181
0.00441349
0.000465089
0.000769795
0.000994448
0.00117604
0.000775559
0.000733472
0.00321466
0.000836624
0.000831487
0.000819452
0.000960263
0.00344295
0.000565401
0.000415775
0.000774422
0.000803161
0.000661522
0.000756922
0.000712787
0.00171347
0.000769261
0.00151641
0.000698622
0.000933543
0.00296467
0.000958002
0.000861951
0.00149705
0.000805702
0.00111447
0.000810473
0.00145062
0.000769356
0.000771563
0.000423189
0.000469529
0.00087522
0.00159024
0.000708632
0.00083952
0.00377854
0.000754937
0.000735906
0.000773324
0.00083588
0.000753578
0.00114724
0.000533285
0.000799506
0.00567543
0.00389012
0.000978138
0.000790539
0.00547785
0.000843936
0.000785211
0.000840152
0.000553307
0.000535511
0.000604099
0.000663911
0.000771058
0.00236917
0.000786058
0.00180313
0.000934398
0.000834335
0.000728296
0.000878808
0.000789711
0.000782992
0.00173161
0.000831683
0.00106429
0.00137316
0.00075757
0.00480919
0.00135292
0.000833771
0.000830363
0.00221956
0.000777458
0.00209446
0.000825556
0.000874842
0.00102252
0.000667661
0.000842007
0.00172418
0.000920152
0.000997312
0.000747137
0.000797187
0.000790602
0.000783709
0.000736638
0.00158733
0.000826986
0.00313733
0.000842462
0.000734549
0.00560347
0.00324188
0.000821136
0.000818906
0.000830299
0.00202551
0.00169396
0.001006
0.000725498
0.00526398
0.00718789
0.001091
0.0024225
0.00109457
0.000497482
0.00335129
0.00112895
0.00110336
0.00108309
0.000778673
0.00119458
0.00425995
0.000790208
0.000818624
0.00102868
0.00074441
0.000939114
0.00530108
0.000743293
0.000989182
0.000727054
0.000726461
0.00107272
0.000764145
0.00139917
0.00268337
0.00237058
0.00565937
0.0043699
0.00308033
0.0011933
0.00111901
0.00102605
0.00122902
0.000919123
0.000753875
0.000930386
0.000832762
0.000776622
0.000868453
0.000745059
0.0038442
0.000737817
0.000745418
0.00111246
0.000761426
0.00321408
0.000704269
0.000844406
0.00107273
0.000867539
0.000750578
0.000525525
0.00262592
0.000828676
0.00110161
0.00111122
0.00166752
0.000836325
0.000783714
0.00263279
0.00077016
0.000862152
0.00230683
0.00502092
0.00279729
0.000795598
0.00349106
0.00245973
0.00275731
0.00354089
0.00262736
0.00636277
0.00386414
0.000806883
0.0042573
0.00187191
0.000831051
0.00213605
0.00077172
0.00320632
0.00539553
0.000786328
0.00617181
0.00115561
0.00219882
0.00112272
0.00113055
0.000553846
0.000822683
0.0041555
0.00093494
0.00167617
0.000543668
0.000826151
0.000548359
0.000208972
0.000435958
0.000691299
0.000451954
0.000600681
0.000574805
0.000318976
0.000670881
0.000523466
0.000446811
0.000567793
0.00043064
0.000465967
0.000509722
0.000562075
0.000201176
0.000371108
0.000534285
0.000522303
0.000551744
0.00187835
0.00241671
0.00241181
0.00330561
0.00340757
0.000775007
0.00347093
0.00149832
0.00236202
0.000842137
0.00084885
0.000619038
0.00045078
0.000560731
0.000467782
0.000567402
0.000603987
0.0005438
0.000611141
0.000312032
0.000578103
0.000185781
0.000572826
0.00272368
0.000923728
0.000848692
0.00384886
0.000791678
0.00196548
0.000834649
0.00659786
0.00077206
0.000496989
0.00206551
0.000832706
0.00123457
0.00172279
0.000779078
0.00271288
0.000733009
0.0014497
0.00246104
0.0008314
0.000534677
0.00213754
0.00210311
0.0010747
0.00101848
0.00228395
0.00474882
0.00154446
0.00186002
0.00271178
0.0046885
0.00730728
0.00339384
0.00302334
0.00245449
0.00357143
0.00586765
0.00605341
0.00306504
0.00538926
0.00249978
0.000403645
0.00631521
0.00309563
0.00272757
0.00587418
0.00612496
0.00393171
0.00410648
0.00360484
0.0011415
0.00619439
0.00603004
0.000591326
0.00663251
0.00656378
0.00242843
0.000703885
0.00612431
0.00630963
0.00674873
0.00646723
0.00724211
0.00491408
0.00675256
0.00616404
0.00618115
0.00655366
0.00306385
0.00293499
0.000577446
0.00394294
0.00239986
0.00283749
0.00241251
0.00123225
0.00289977
0.00271077
0.00221396
0.0025742
0.00232573
0.000751222
0.00106547
0.0020756
0.00183793
0.00255082
0.00244682
0.0036332
0.000524118
0.00317042
0.00270685
0.00107626
0.000800716
0.000856712
0.00173326
0.00198618
0.00700653
0.00566655
0.000642827
0.00060968
0.00056776
0.00136984
0.0029255
0.000547124
0.00277791
0.00125154
0.00541906
0.000837181
0.00508857
0.00186053
0.00148908
0.00553934
0.00321896
0.0033878
0.00233601
0.0014927
0.00720009
0.00331888
0.00112748
0.00105484
0.00230825
0.0007432
0.00164107
0.000792511
0.00344582
0.00317244
0.00137383
0.00326166
0.00242411
0.00258215
0.00375892
0.00434446
0.00131125
0.00273739
0.00586811
0.00127448
0.00481311
0.00389806
0.00581601
0.000837611
0.000751074
0.00443322
0.004059
0.00634257
0.00489438
0.00459367
0.00547831
0.00659132
0.00210694
0.00354152
0.00338856
0.00218798
0.00355028
0.00047294
0.00699455
0.0058526
0.000796307
0.00687102
0.00117226
0.00474689
0.000437872
0.00107772
0.00578741
0.00310633
0.00160108
0.00408131
0.00248257
0.00103865
0.000758099
0.00647962
0.00403646
0.00479145
0.00369094
0.00246915
0.00163937
0.00651758
0.00073706
0.00265352
0.00378293
0.000572068
0.00654851
0.00248442
0.00673318
0.00273419
0.000814943
0.00592513
0.00267791
0.00372319
0.000950311
0.00253862
0.000798309
0.00145375
0.00285994
0.00119902
0.00503578
0.00155233
0.000777459
0.00183107
0.000802399
0.00303002
0.00234681
0.000848196
0.00076791
0.000759218
0.00451458
0.000746973
0.00575356
0.000735681
0.000607731
0.0019075
0.00120071
0.00123316
0.00547129
0.00513169
0.00678277
0.000766994
0.000970842
0.00659189
0.00194592
0.00158222
0.00661774
0.00209398
0.00579473
0.0017967
0.000741527
0.00243585
0.00318026
0.00503499
0.00682905
0.00110154
0.00189067
0.00136917
0.000845099
0.00483635
0.000935147
0.000954284
0.000904022
0.00648799
0.000804907
0.00641713
0.00124975
0.000545565
0.000805697
0.00259245
0.0064193
0.00102926
0.000728317
0.00103373
0.00117016
0.00496864
0.00591087
0.000806783
0.00661023
0.00377163
0.00412414
0.00436345
0.00391474
0.00657396
0.00116804
0.00220787
0.00172806
0.00075724
0.00108931
0.00433184
0.0064508
0.000820611
0.000841118
0.00602354
0.00666851
0.00290704
0.0011953
0.00114595
0.00120824
0.000827689
0.000591619
0.000848125
0.00726739
0.00673519
0.00268853
0.00101265
0.000822131
0.0012092
0.00282075
0.000825455
0.000778836
0.00167091
0.00121565
0.000968078
0.00099016
0.00386536
0.000425451
0.000718283
0.00204338
0.00429525
0.00319469
0.00381721
0.0036759
0.002777
0.00235249
0.00207547
0.00291585
0.00408164
0.00136849
0.00652846
0.000865421
0.000225556
0.000585136
0.000824618
0.000716775
0.00463283
0.000830651
0.000760681
0.000880166
0.000816788
0.00130312
0.00107094
0.00648457
0.00085036
0.00248082
0.00199175
0.000728715
0.00129192
0.00749946
0.00538363
0.000635483
0.00198803
0.00571045
0.000710018
0.00164483
0.000644469
0.000839415
0.000803967
0.00330363
0.00112874
0.000626277
0.00766591
0.00598141
0.000688581
0.000430733
0.00331474
0.00056756
0.000701221
0.000715625
0.00382611
0.000763558
0.00110069
0.00251079
0.00660033
0.00117218
0.00322757
0.00587359
0.000688908
0.00135448
0.000784735
0.00066351
0.000749565
0.000878178
0.00125472
0.000808399
0.00416438
0.000753078
0.000735006
0.000757514
0.00128755
0.000825267
0.000845059
0.000842512
0.00087255
0.00199705
0.000965852
0.00120426
0.00162393
0.00182773
0.000853185
0.00237036
0.000418507
0.00182187
0.000793699
0.000749663
0.00349123
0.00313909
0.000722321
0.00124887
0.000410617
0.000775608
0.00127537
0.00271848
0.00630204
0.000855999
0.000805553
0.000461166
0.00076621
0.00366929
0.00186396
0.00356251
0.00062381
0.00141142
0.000767585
0.00219879
0.00144155
0.000769879
0.000878095
0.000914733
0.000847842
0.000834526
0.000884555
0.0011294
0.00374988
0.000807844
0.0065197
0.00330129
0.000707466
0.000965519
0.000248168
0.00185416
0.00200416
0.00194825
0.002405
0.00117126
0.000829012
0.000809616
0.00312966
0.00113997
0.00180237
0.000833839
0.000673631
0.000597139
0.000538705
0.000648995
0.000837464
0.000732298
0.000771841
0.00090621
0.000680583
0.0007767
0.000802025
0.00366987
0.0010451
0.00109958
0.000646661
0.000539642
0.00162927
0.000906458
0.00111422
0.00104897
0.00610192
0.00112492
0.000603226
0.00617388
0.000777523
0.000730768
0.000731357
0.000663852
0.002265
0.000710988
0.00157386
0.00280496
0.0012116
0.000820038
0.00173992
0.00310531
0.00353166
0.000433814
0.0016894
0.000573827
0.00551465
0.00306636
0.00083774
0.000866217
0.000806215
0.00131372
0.000791758
0.00261631
0.00235332
0.00124521
0.000803501
0.000762286
0.00090741
0.00130532
0.000803391
0.00192304
0.00140367
0.00273914
0.00097781
0.000772765
0.00209141
0.00244219
0.00241995
0.000818168
0.00143929
0.00116001
0.0010616
0.00156147
0.000746027
0.00120403
0.000861898
0.00290189
0.00391279
0.00071021
0.000876527
0.00280617
0.00239667
0.000825503
0.00072484
0.00297196
0.000798642
0.00168558
0.00229532
0.00093406
0.00167618
0.00183164
0.0056282
0.00470747
0.000948889
0.000961819
0.0008466
0.00108398
0.00114681
0.000441567
0.00129359
0.000805799
0.00436887
0.00144973
0.00526606
0.00285162
0.00194238
0.000863277
0.000730099
0.0010648
0.00531175
0.000783739
0.00100143
0.000814329
0.000794458
0.00106484
0.0010642
0.000729978
0.00627268
0.000702294
0.00492224
0.00074492
0.00080176
0.000478847
0.000262943
0.0003749
0.000547166
0.000236269
0.000207847
0.000892417
0.0002492
0.000529257
0.000819305
0.000172971
0.00126664
0.000342502
0.00253435
0.00104897
0.00242333
0.000164551
0.00684589
0.000257744
0.00071062
0.00642851
0.00360624
0.000912787
0.000150861
0.00181769
0.00652614
0.00128449
0.00315493
0.00617389
0.00134443
0.00241458
0.00103073
0.00016176
0.000152636
0.000902992
0.000245332
0.0022291
0.00652041
0.00484708
0.00133445
0.000967909
0.00476189
0.00473081
0.000816233
0.000151028
0.000151488
0.0008384
0.00234426
0.000784002
0.00634603
0.00214111
0.00252152
0.000759208
0.000266682
0.00298275
0.000234462
0.00102168
0.000315377
0.000824062
0.00605027
0.00266736
0.000830171
0.00108811
0.00512812
0.000898071
0.0024209
0.00087932
0.000860623
0.00099464
0.000811402
0.00199032
0.00219742
0.000776308
0.00139323
0.00405786
0.000846005
0.00136412
0.00595684
0.00759227
0.000812737
0.000726922
0.000986229
0.00262496
0.0022828
0.00342754
0.00190929
0.00619029
0.00263126
0.00254683
0.00296758
0.00252914
0.00108274
0.00117102
0.00178299
0.00228824
0.000643948
0.00272383
0.00629472
0.00740077
0.003439
0.00271248
0.000860152
0.0045786
0.0026413
0.000837547
0.00355718
0.00234528
0.00115307
0.000781086
0.000837588
0.00128303
0.00508055
0.00226073
0.00303203
0.00612316
0.000749143
0.00357895
0.00140134
0.000624251
0.00548803
0.00343941
0.00159756
0.00235548
0.0015321
0.000790569
0.000511964
0.000747247
0.0047607
0.00424682
0.00084639
0.00079002
0.000782311
0.0013948
0.00071106
0.000777231
0.000840528
0.00557993
0.00109471
0.000798003
0.000795721
0.00198424
0.000821649
0.00288153
0.000274236
0.000783381
0.00079131
0.000802712
0.000270078
0.000720865
0.00198084
0.00135114
0.000753954
0.00032238
0.0009993
0.00104862
0.000796865
0.00439674
0.0027651
0.000743931
0.00174401
0.000768656
0.000534368
0.000198712
0.00137173
0.000833522
0.00164302
0.00232337
0.00186671
0.00029251
0.000752133
0.000901779
0.000418903
0.000864867
0.00263209
0.000995334
0.00111643
0.00080986
0.00108829
0.0046139
0.00322292
0.000699991
0.0017643
0.000904416
0.0030301
0.00209907
0.0010089
0.000797322
0.00223333
0.00216126
0.000790645
0.000270346
0.0009301
0.000221818
0.00220507
0.00252605
0.00272661
0.00286138
0.000788478
0.000454742
0.000898403
0.0054248
0.000421356
0.000788025
0.000789578
0.00101221
0.00221771
0.000461672
0.00150223
0.00103863
0.00588675
0.00673888
0.00154818
0.000800036
0.000819305
0.00034488
0.00168444
0.000822152
0.00294555
0.000726349
0.0013253
0.00396698
0.00195662
0.0017138
0.00405691
0.00116191
0.000519894
0.000835943
0.00136346
0.000226687
0.000971791
0.00172715
0.00654292
0.00168501
0.000771896
0.00055404
0.00140407
0.000249883
0.000840554
0.00321439
0.00527192
0.000816764
0.000839085
0.000839723
0.000788789
0.000445682
0.000518999
0.00552598
0.000620582
0.00319993
0.000742382
0.00134285
0.00429515
0.000827859
0.00302422
0.00450671
0.000592021
0.000969252
0.00199617
0.00206933
0.000870604
0.00029392
0.00442344
0.00611505
0.000886755
0.00572838
0.000718585
0.000739279
0.00326924
0.00223299
0.0020614
0.0018522
0.00498429
0.0008838
0.00085162
0.00123964
0.00627852
0.000842433
0.000819731
0.00148729
0.00569827
0.000762447
0.00199837
0.00187336
0.00270415
0.000772479
0.00220089
0.00155316
0.00247939
0.00631965
0.000473655
0.00037221
0.00405333
0.000742116
0.000756746
0.000751124
0.0007733
0.000844396
0.0009077
0.00211091
0.000829846
0.000920872
0.000245388
0.00645601
0.00109937
0.00087444
0.00237785
0.00140001
0.00222535
0.00307109
0.001531
0.00166927
0.0023518
0.00614659
0.00100958
0.000949609
0.00239583
0.000733753
0.00092907
0.000677454
0.000791137
0.00185974
0.00318746
0.00645972
0.00206269
0.000622099
0.0061467
0.00146419
0.00116799
0.00330839
0.00336627
0.00328974
0.000770044
0.000844201
0.00264616
0.00233575
0.00165165
0.00448837
0.00263019
0.0023456
0.00110652
0.00082903
0.000715475
0.000814883
0.000872058
0.00065801
0.000839551
0.00101682
0.000599529
0.00082933
0.000825881
0.000963379
0.00337716
0.00261489
0.00632294
0.00608352
0.00753713
0.00214549
0.00260516
0.00115441
0.00322601
0.000707013
0.000872331
0.000845895
0.00177589
0.00412307
0.00110108
0.00129603
0.00625021
0.000785046
0.00379644
0.00562322
0.00762341
0.00623079
0.00712534
0.000774778
0.00317919
0.00715345
0.000845467
0.000785122
0.000681647
0.00387619
0.00175956
0.000745265
0.00259015
0.00529892
0.00146149
0.00223922
0.0010561
0.000271048
0.00300177
0.00743328
0.00311609
0.00232227
0.0010414
0.00085509
0.00588441
0.00146072
0.00201973
0.00320534
0.00160571
0.00165525
0.00075766
0.000791538
0.00203626
0.000818985
0.000949574
0.000849194
0.000734459
0.000745722
0.00231564
0.000818217
0.000225366
0.000772968
0.00182846
0.00080198
0.000814053
0.000724331
0.000842091
0.000683378
0.00166387
0.00129271
0.00258125
0.00148612
0.00168963
0.000858827
0.000577977
0.00339245
0.00164789
0.0027786
0.000731515
0.00273286
0.0029007
0.00261491
0.000523946
0.000750877
0.000721616
0.000696423
0.000947667
0.000689245
0.000701951
0.00103454
0.00176184
0.00153984
0.00293014
0.000994369
0.000804233
0.00688564
0.000718245
0.0019257
0.0022444
0.00290549
0.000811753
0.00102903
0.00179765
0.000842989
0.000526225
0.000692282
0.000862235
0.000800392
0.00136968
0.00212935
0.00632365
0.00119211
0.00118979
0.00103014
0.000486868
0.000705367
0.00079285
0.000837252
0.000832543
0.0013453
0.00386042
0.00155167
0.00087803
0.000911258
0.00091414
0.000792657
0.00266325
0.00478542
0.00582729
0.0075505
0.000741324
0.000667368
0.00565287
0.00724937
0.00599535
0.00720871
0.00305469
0.00080363
0.000757675
0.00113677
0.000739991
0.000864625
0.00106188
0.00162233
0.000865461
0.000848178
0.000999742
)
;

boundaryField
{
    frontAndBack
    {
        type            empty;
    }
    wallOuter
    {
        type            nutkWallFunction;
        Cmu             0.09;
        kappa           0.41;
        E               9.8;
        value           nonuniform List<scalar> 
90
(
8.14555e-05
7.67453e-05
7.7804e-05
7.56587e-05
8.29382e-05
8.44387e-05
8.61293e-05
9.41171e-05
8.00413e-05
8.83848e-05
9.09887e-05
9.51465e-05
9.00828e-05
9.30683e-05
9.19901e-05
0.000104741
9.97508e-05
8.12254e-05
7.22085e-05
6.52319e-05
7.8336e-05
0.000100167
8.80639e-05
9.26367e-05
8.00819e-05
0.000112762
0.000114143
8.7793e-05
8.4495e-05
5.6901e-05
3.00425e-05
4.31706e-05
6.57917e-05
2.72071e-05
2.30189e-05
1.83375e-05
1.81896e-05
3.02475e-05
8.57802e-05
1.54992e-05
1.77346e-05
1.59383e-05
0.000108019
2.86523e-05
1.61521e-05
1.61048e-05
2.78292e-05
0.000121377
3.772e-05
0.000107056
0.000116917
7.78075e-05
7.5422e-05
9.48551e-05
9.56758e-05
3.184e-05
3.8606e-05
0.000118849
0.000123844
8.94116e-05
6.4712e-05
2.29735e-05
3.52173e-05
0.000107758
9.70008e-05
8.42341e-05
0.000107724
3.21622e-05
0.000110994
2.61695e-05
6.2911e-05
2.62791e-05
9.25841e-05
2.98087e-05
9.81146e-05
7.49472e-05
7.16004e-05
0.000103943
3.53096e-05
0.000106024
5.73559e-05
0.000109941
2.88208e-05
7.51671e-05
7.23752e-05
3.25102e-05
9.82624e-05
2.60443e-05
8.23665e-05
8.3891e-05
)
;
    }
    inlet
    {
        type            calculated;
        value           uniform 0.000851986;
    }
    outlet
    {
        type            calculated;
        value           nonuniform 0();
    }
    wallInner
    {
        type            nutkWallFunction;
        Cmu             0.09;
        kappa           0.41;
        E               9.8;
        value           nonuniform List<scalar> 
138
(
9.26596e-05
4.71803e-05
0.000218819
0.00012205
0.000118893
5.62293e-05
0.000257066
0.000130355
0.000110593
0.000108579
0.000136821
0.000120133
6.94894e-05
4.86204e-05
5.18712e-05
5.78314e-05
6.60419e-05
6.45159e-05
7.37104e-05
8.00923e-05
0.000236066
0.000129049
6.06522e-05
0.000132851
0.000130021
0.000127776
0.000121712
0.000126626
0.000121418
0.000129827
0.000130891
6.71866e-05
6.6504e-05
6.75869e-05
2.29491e-05
5.30752e-05
8.41734e-05
5.56934e-05
7.37506e-05
7.01586e-05
3.88866e-05
8.18164e-05
6.44747e-05
5.40368e-05
6.95995e-05
5.28573e-05
5.68488e-05
6.27597e-05
6.85273e-05
2.29279e-05
4.37816e-05
6.57871e-05
6.36615e-05
6.75115e-05
7.59852e-05
5.55938e-05
6.88065e-05
5.67172e-05
6.97684e-05
7.39559e-05
6.62841e-05
7.448e-05
3.73235e-05
7.06808e-05
2.086e-05
7.0518e-05
6.14387e-05
6.51281e-05
0.000120679
4.9571e-05
0.000135107
7.12755e-05
8.54958e-05
6.90028e-05
0.00012593
6.31657e-05
0.000127135
7.81468e-05
7.38987e-05
6.79638e-05
6.56941e-05
0.000146648
0.00017241
0.000133708
0.000125724
0.000159949
5.84584e-05
5.24858e-05
0.000127174
0.000122823
7.05164e-05
7.45921e-05
6.71369e-05
7.25654e-05
5.18456e-05
2.61094e-05
7.20496e-05
5.25756e-05
7.006e-05
8.29909e-05
0.000116785
5.09433e-05
4.98214e-05
5.71359e-05
0.000108995
2.90564e-05
7.9226e-05
0.000132404
7.35963e-05
5.28432e-05
5.3588e-05
0.000125753
2.94554e-05
6.52893e-05
4.07961e-05
0.000114955
9.13294e-05
3.16655e-05
0.000103848
0.000118258
6.24712e-05
3.26319e-05
9.39737e-05
5.22088e-05
5.53092e-05
5.14854e-05
9.81648e-05
4.16201e-05
5.42578e-05
6.3579e-05
4.53221e-05
8.0466e-05
0.000133786
8.89367e-05
0.000103582
0.000186566
0.000103085
0.000120223
)
;
    }
    procBoundary0to1
    {
        type            processor;
        value           nonuniform List<scalar> 
29
(
0.00386799
0.00419669
0.00377189
0.00377189
0.0050633
0.0050633
0.00305494
0.00128566
0.00187568
0.00477746
0.00275984
0.00192026
0.00132835
0.00125387
0.00244136
0.00138108
0.00784695
0.00584108
0.00542728
0.00386018
0.000904251
0.000742165
0.00318225
0.000746547
0.000728294
0.00584108
0.000735104
0.000914777
0.000746547
)
;
    }
    procBoundary0to2
    {
        type            processor;
        value           nonuniform List<scalar> 
42
(
0.00748405
0.00689987
0.00107438
0.000868807
0.00180643
0.00748405
0.00107438
0.00145209
0.00166783
0.00158606
0.00274165
0.00361562
0.00274165
0.00387625
0.00404654
0.00724579
0.00404654
0.00140088
0.00168532
0.00349028
0.00349028
0.00140088
0.001159
0.00252992
0.00252992
0.00094714
0.00437109
0.00076951
0.00612283
0.00648624
0.00648624
0.000749138
0.000849553
0.000955238
0.00110083
0.00107438
0.00483135
0.000277516
0.00612283
0.00145209
0.00155864
0.00133749
)
;
    }
}


// ************************************************************************* //
