/*--------------------------------*- C++ -*----------------------------------*\
| =========                 |                                                 |
| \\      /  F ield         | OpenFOAM: The Open Source CFD Toolbox           |
|  \\    /   O peration     | Version:  v1912                                 |
|   \\  /    A nd           | Website:  www.openfoam.com                      |
|    \\/     M anipulation  |                                                 |
\*---------------------------------------------------------------------------*/
FoamFile
{
    version     2.0;
    format      ascii;
    class       surfaceScalarField;
    location    "0.52";
    object      phi;
}
// * * * * * * * * * * * * * * * * * * * * * * * * * * * * * * * * * * * * * //

dimensions      [0 3 -1 0 0 0 0];
oriented        oriented;


internalField   nonuniform List<scalar> 
2708
(
-1.28901e-05
4.69863e-05
5.50005e-06
-3.95963e-05
-4.94507e-05
8.56183e-05
-2.97587e-05
-6.40891e-06
0.00120824
0.000229698
-0.000904713
-0.000533223
-0.000333401
0.000186162
6.67899e-05
8.04488e-05
-1.70715e-05
1.12202e-05
0.000100685
-9.48336e-05
0.000379837
0.000261837
-0.000198302
-0.000443372
0.000126279
-0.000113952
0.000606209
-0.000819519
0.000999914
-0.000786604
0.000179196
0.000470365
-0.000557196
-9.23645e-05
0.000167993
0.000242457
-0.000319109
-9.13407e-05
5.93025e-05
3.97129e-05
-6.23547e-06
-9.27799e-05
-9.14504e-05
6.77974e-05
2.3653e-05
0.000154038
-9.49455e-05
0.000151403
-0.000210496
0.000834298
-0.000851944
4.77285e-05
-3.00823e-05
0.00015364
-0.000163203
7.80692e-05
-6.85066e-05
3.24395e-05
-0.00032256
0.000290121
-0.000250154
0.000222181
0.000181613
2.34367e-05
2.02686e-05
-0.000110062
6.63567e-05
6.61316e-05
-3.22853e-05
-3.38464e-05
4.09271e-05
1.52762e-05
3.09923e-06
4.90213e-05
5.36086e-05
-1.05942e-05
-9.20357e-05
1.18486e-05
-0.00013166
-8.66646e-05
5.53717e-05
0.000186595
-0.000155303
0.000801191
6.53368e-05
-3.22305e-05
0.000383968
7.91537e-05
-0.000411758
-5.13639e-05
3.15708e-05
5.70143e-06
3.65483e-06
-0.000417486
0.000348321
-0.000164481
0.000233647
4.02601e-05
-2.25527e-05
-0.000869651
-0.00103789
8.6113e-05
0.000958961
-7.18399e-06
-8.55779e-05
-6.88e-05
7.9411e-05
7.49669e-05
-0.000419314
0.0009341
-0.000534067
1.92806e-05
0.000909994
0.000439976
-0.000601643
-0.000748327
0.000210356
0.000198612
-0.000408968
0.000195878
-0.000261447
6.55692e-05
0.000243324
-0.000245306
1.98157e-06
-0.000889599
0.000867493
0.000703053
-0.000680948
7.82824e-06
-8.6688e-08
-3.53571e-05
2.76156e-05
-0.00118084
0.00113797
-5.10534e-05
9.39228e-05
8.61635e-05
-8.27529e-05
-9.67094e-05
-0.00139413
-3.42667e-05
0.000247559
-0.000324378
-0.000237207
3.64811e-05
0.000525104
-0.000143994
-3.19029e-06
0.000147184
-8.40653e-05
0.000122987
-0.000251191
0.000212269
-6.12234e-05
7.73509e-05
-0.000153578
0.000137451
0.000143518
-5.39746e-05
-0.000224509
0.000134965
-6.55979e-05
-7.41214e-05
5.97622e-05
7.99571e-05
6.1698e-05
0.000715309
-0.000401363
-0.000375644
-1.23e-05
2.2772e-05
-0.0009366
0.000926128
-0.000647411
0.00114832
-0.000865197
0.000364288
3.02895e-05
-0.00107672
0.00110311
-5.66856e-05
9.3093e-05
-9.42099e-05
-0.000109531
0.000110648
-0.000424214
0.000242423
0.000349784
-0.000697074
0.000436332
0.000439938
-0.000114776
0.000120015
-0.00012638
0.000121141
7.30965e-05
-2.73776e-05
-1.47384e-05
-3.09806e-05
-0.000953346
0.000123517
0.000934591
-0.000104762
-0.000146405
-4.52831e-05
0.000564253
-0.000372565
-5.92724e-05
-0.0001175
0.000558436
-0.000381663
-0.000574271
0.000540753
3.55218e-05
-2.29495e-05
3.6449e-05
0.000351054
-0.00029518
5.8237e-06
0.000164871
0.000114187
-0.000212098
-6.69595e-05
0.000487546
-0.000772988
-0.000604156
-0.000426169
0.000471607
0.00101141
-0.00105684
0.000843264
-0.000171172
-4.59835e-05
-0.000626108
-0.000114394
0.00011367
6.22526e-05
-6.15284e-05
0.000217688
-4.10788e-05
-8.97592e-05
0.000118462
-8.56789e-05
5.69766e-05
-0.000624095
0.00102917
-0.000733721
0.000328645
0.000111813
0.000182101
0.000166806
7.843e-05
-0.000140185
-0.000105051
-0.000218673
0.000116787
-0.000106589
0.000208474
6.50705e-05
0.000145286
-3.77844e-05
-9.68254e-05
0.000126592
8.01761e-06
1.75924e-05
0.000614659
-0.000402553
0.000966708
6.04859e-05
-0.00101453
-1.26689e-05
0.000134893
-0.000262695
-7.04526e-05
0.000198254
-0.000952806
0.000925088
-0.000398451
5.25795e-05
0.000117253
-5.15567e-05
-0.000118276
0.000244779
-3.83057e-05
-6.18579e-05
-0.000144615
4.04801e-05
-0.000149811
0.000188184
-7.88524e-05
-0.000280505
-5.76629e-05
0.00019917
0.000138998
-9.76162e-05
0.000112428
-4.10806e-05
2.62684e-05
-8.03552e-05
3.41554e-05
8.10549e-05
-3.48551e-05
-0.000179931
-8.28891e-05
0.000201442
6.13784e-05
0.000757075
8.4444e-05
-4.03274e-05
-2.16675e-06
2.6937e-05
-7.43574e-05
4.95872e-05
-3.75991e-05
2.95528e-05
-2.86769e-05
3.67232e-05
-0.000272564
0.000213644
-0.000121011
-8.09233e-05
-1.83414e-05
1.89095e-05
0.00112563
-1.61524e-05
2.84876e-05
7.12551e-06
-1.55473e-05
-0.000180312
0.000188734
7.9626e-05
-0.000118939
7.4835e-05
7.4777e-05
-0.000223552
-6.98975e-05
-7.177e-05
-0.00100189
0.00103008
4.35795e-05
4.678e-05
3.42945e-05
-4.00545e-05
-4.102e-05
-0.00079018
-0.000276545
2.85981e-05
-0.000115441
-2.91674e-06
3.24384e-05
-0.00108354
0.0010838
-3.26982e-05
-6.21417e-05
5.55916e-05
1.99662e-05
-1.34162e-05
0.000106892
-2.62634e-05
3.61057e-05
-0.000116734
0.000260079
2.84292e-05
3.61909e-06
-0.000292127
-2.95491e-05
9.13274e-05
5.98179e-05
-0.000121596
0.00103909
-0.00146278
0.000182755
0.000240938
0.000434485
6.47712e-06
1.35899e-05
-0.000454552
8.63402e-05
8.14874e-05
-0.000906642
-3.37393e-05
-7.594e-05
0.000112057
-2.37771e-06
-2.3397e-06
0.000169071
-0.000216329
4.95977e-05
-9.81486e-05
0.000100954
-0.0001172
0.000840627
-0.000574479
5.50684e-05
-0.000321217
-6.22838e-05
0.000118316
0.000108839
-9.8135e-06
-2.23372e-06
0.000272126
1.4025e-05
-1.09542e-05
0.000103821
-6.31044e-05
3.37435e-05
5.27976e-05
3.77414e-05
-9.56525e-06
-4.96824e-05
2.15062e-05
0.000698851
0.000104785
-4.65615e-05
0.000177454
0.000164676
-0.00113491
0.00113776
9.81082e-05
-0.000100954
-0.000286224
-0.000470123
-0.000265683
-0.000304937
0.000743386
0.000183311
-0.000798881
-0.000127816
-0.000991987
-0.000637272
0.00105428
0.000574984
-3.29247e-05
8.47183e-05
9.35294e-05
-0.000145323
0.000121194
-4.47527e-05
0.000622411
-0.00013895
0.000157611
9.81255e-05
1.7714e-05
-4.41561e-05
6.00596e-05
-3.36174e-05
0.000822056
-0.00104025
0.000356012
-0.000137822
4.59873e-05
-9.55699e-05
9.59343e-05
-4.63518e-05
-0.000316789
1.8643e-05
-0.000103945
-0.000749607
0.000853552
-7.82181e-05
-3.96555e-05
5.57319e-05
4.16924e-06
3.90949e-06
-8.9002e-05
-6.86695e-05
5.07623e-05
-0.000254657
0.000161342
7.38578e-05
-6.83942e-05
3.07993e-05
-1.50416e-06
-0.000155686
0.000126391
4.16632e-05
-3.88854e-05
-4.30847e-05
4.03069e-05
-0.000302454
-6.89556e-05
5.46204e-05
-0.000511063
4.2949e-05
0.000459527
8.58693e-06
3.5058e-05
-9.99972e-06
-2.08891e-05
0.000898507
-2.30124e-05
-0.000765588
-0.000109906
-0.000100834
0.00109409
0.000155059
-0.00108792
8.91738e-05
0.000859515
-0.0010271
-0.000262537
0.000430122
-0.000222732
-0.000987924
0.00118887
2.17866e-05
0.000141407
-9.37577e-06
-4.35024e-05
5.16648e-05
0.00015318
-0.000911908
0.00087219
-0.000277179
0.000316898
0.00126912
7.63471e-05
-0.000315358
-0.0010301
-5.10197e-05
0.000900765
-6.48199e-06
-6.94342e-05
6.52737e-05
-1.3285e-05
1.74456e-05
-2.51511e-05
0.00026993
9.07102e-05
2.34766e-05
-0.000173439
0.000109266
-0.000929473
-0.000377409
0.000354076
-7.6829e-05
-9.71428e-05
9.57537e-05
0.000903648
0.00012457
-0.00018759
-0.000198032
0.000897112
-0.000882095
0.000183015
7.53515e-05
-0.000146413
9.13303e-05
-0.000128032
9.98058e-05
9.7543e-06
5.54257e-05
-9.58836e-06
-5.71018e-05
0.000182446
-0.000135157
3.10144e-05
-7.61406e-05
-6.29229e-05
-2.14849e-05
8.20681e-05
9.62232e-05
-5.03365e-05
2.316e-05
-9.37844e-05
0.0001013
-7.75845e-05
6.62259e-05
-2.82969e-05
-0.000932025
0.000191103
0.000862116
2.59789e-05
0.000299111
-0.00029265
0.000363871
-0.000567494
-0.000533227
0.00073685
1.45525e-05
0.000237463
-0.00087611
-3.33875e-05
0.000917919
1.39751e-05
-7.79822e-05
-3.54879e-05
0.00011347
9.71783e-05
-0.000165848
0.00107745
-0.00125399
-0.00015711
0.000333648
0.000144381
-0.000116496
-9.66852e-05
-0.000812159
-0.000363023
0.000849563
0.000325619
-8.20849e-05
0.00104441
-0.000948594
-1.37307e-05
-3.17995e-05
0.000137597
-2.5939e-05
-7.98582e-05
0.000140172
-0.000969382
0.000932796
-0.000103586
6.83883e-05
-9.58095e-05
-3.48627e-05
-0.000333208
0.000247267
0.000945457
-0.000916944
0.000903055
-0.000184143
0.00062865
-0.00059692
-4.89314e-06
0.000575398
-0.000519743
4.08245e-06
2.53216e-05
-0.000332381
-0.000908601
0.000311509
9.67547e-05
-0.000117937
0.000107236
-8.60535e-05
-0.000373704
0.000370089
-9.25095e-05
9.61246e-05
-0.000103115
0.00101642
-0.000891948
-0.000157861
0.000354065
-3.40512e-05
-3.80486e-07
-0.000319634
-0.000160313
0.000168586
0.00112948
9.53639e-06
2.1726e-05
0.00100782
0.000136215
0.000909412
-0.000978496
-6.71312e-05
-0.000165647
-4.64513e-05
-0.000113982
4.01244e-05
-0.000214638
0.000284016
-6.93777e-05
-0.000205572
-0.00091366
0.000207324
-0.000295844
-6.53035e-05
3.67698e-05
-0.00019875
-0.000247607
-3.57949e-05
3.4402e-05
4.19581e-05
0.00102159
-8.75568e-05
-0.000975991
0.000130473
0.000182632
-0.000202563
-0.000110543
-7.72843e-05
0.00105079
-0.000650269
-0.000264692
0.000676494
-9.98891e-06
-0.000889238
0.000135564
0.000795057
-0.000187235
0.000976144
0.000149517
-0.000159731
-0.00096593
0.00030708
-4.24311e-05
-0.000309932
0.00012979
-0.000113542
-0.000133748
0.000215737
0.000891416
-0.000203505
0.000161547
0.000139478
-0.00020427
-5.87843e-05
0.000107042
2.47084e-05
-7.29665e-05
0.00036908
-9.20875e-05
0.000583343
-0.000860336
0.000353238
-0.000106812
0.000513954
0.00122677
-0.0005584
-0.000346313
0.000810344
-0.00088367
-1.87611e-05
-0.0010228
-0.000827814
0.000596627
0.00082005
-0.000890058
-3.60978e-05
-0.0010058
5.72369e-05
0.000996295
0.000839743
-9.92663e-05
8.2495e-06
7.26754e-05
-0.000184334
0.000201522
0.000196456
0.00101198
0.000199945
-0.00053576
0.00096642
-0.00125018
-0.000419894
-0.000919676
0.00080381
-0.000614354
0.000870954
-7.89668e-05
-0.000991348
8.23906e-05
-5.32964e-05
-3.1491e-05
7.18973e-05
-0.000936546
0.00066341
-5.92448e-05
-1.99736e-05
3.18239e-05
2.53357e-05
-3.7186e-05
-0.00110558
-3.75585e-05
0.00106586
-0.000196307
0.000179759
-0.000424647
-7.241e-05
0.000123288
0.000373769
-0.000536485
0.000650327
-0.000179678
-1.26282e-05
1.88674e-05
-0.00016684
3.25627e-05
-4.54009e-05
0.000756415
0.000166335
0.000312002
-0.000991334
0.000164093
-0.000972141
-9.68547e-05
0.00116996
-0.000100961
0.000125811
-8.00931e-05
0.000122963
-6.53301e-05
0.000775781
0.000501635
-0.0011412
0.00021723
-0.000274909
-0.000960505
0.000984292
-2.37874e-05
0.000110267
-0.00016304
5.27736e-05
-4.01878e-05
5.12751e-05
-3.10609e-05
-0.00104548
-2.45922e-05
0.00107008
-0.00100199
0.00101345
-1.14565e-05
-0.000930215
-6.99035e-05
-0.000700309
0.000183914
5.3315e-06
0.000247468
-0.000871811
-0.00102015
5.46099e-05
-0.000991764
0.00108987
0.000905831
-0.000222113
-0.000927933
-0.000133277
0.000934332
0.000126877
-0.000351395
-2.57989e-05
0.000497067
-0.000119873
0.000994301
3.60998e-05
0.000445881
-0.000978542
6.42885e-05
-5.78873e-05
9.62363e-05
-0.00101754
-3.46949e-05
-0.00089552
0.00103151
-0.000662008
-4.54235e-05
2.16601e-05
4.37296e-05
-2.02194e-05
-0.000123551
5.232e-05
5.33295e-05
-7.31312e-05
9.96783e-05
-7.98766e-05
-0.00050006
-8.47319e-05
-6.56672e-05
-0.000777753
-3.32458e-05
3.40993e-05
3.09704e-05
2.73197e-05
-4.13824e-05
-4.47217e-05
-4.57757e-05
5.60841e-05
-0.000968604
-0.000418055
-0.000832609
0.000525728
0.000724935
-0.00100374
-0.00104881
-9.33402e-05
5.6116e-05
0.00108603
0.000551371
3.20353e-05
0.00115309
-1.38279e-05
-0.0011713
-0.000689086
-0.000541128
0.000151826
1.68992e-05
1.33936e-05
-0.000182119
0.000971027
-0.00103011
-0.000395068
0.000218122
0.00120706
3.67095e-05
-8.43885e-05
-5.54359e-05
0.000209271
-0.00105512
0.000986017
1.00819e-06
-2.17214e-05
-1.94746e-05
-0.000245186
0.000212654
-0.00134478
-2.46232e-05
0.000226016
-0.000167969
-8.3198e-05
0.000302764
0.00101715
-6.49524e-05
-0.00125496
0.000102407
4.5491e-05
-5.26663e-05
8.18343e-06
0.000377991
-0.000260263
-1.76998e-05
5.88069e-05
-5.98899e-05
-2.06258e-05
0.000863818
-2.84248e-05
-3.03057e-05
7.05371e-05
-1.18065e-05
1.1384e-05
4.25835e-05
-0.00017447
0.000150637
1.25539e-05
-8.42713e-06
4.13643e-05
-2.84189e-05
-0.000437207
-3.44335e-05
-4.32282e-05
4.97369e-05
-1.30466e-05
6.5379e-06
0.000308345
-0.000980553
-2.23846e-05
9.78588e-05
-4.35701e-05
-3.08176e-05
4.36315e-05
-2.59719e-05
8.13666e-05
3.06961e-05
-0.00046417
0.000476423
-5.24773e-05
4.66363e-05
-2.74048e-05
-1.07401e-05
9.99728e-05
4.5516e-05
-0.000134749
-3.98074e-05
0.000109714
0.00040445
0.000922119
-0.000401481
-0.000108673
3.84305e-05
-6.5248e-05
0.00013549
0.00107777
2.46417e-05
-4.93256e-05
-1.14353e-05
3.61192e-05
0.000174279
-0.000199323
0.000183263
-0.000158219
-8.052e-05
9.57581e-05
1.88612e-05
8.82796e-05
3.52865e-05
-0.000241503
-2.87005e-05
-0.000264511
0.000220801
-0.000105995
-3.35124e-05
4.57233e-05
4.95442e-05
6.135e-05
-4.93208e-05
-0.000150884
-0.000156219
-8.52272e-05
9.86985e-05
0.000142748
0.00117621
-0.000890205
-4.22816e-05
-6.19328e-05
0.000135154
8.65061e-05
-0.00024741
-0.000558289
0.000719194
7.4739e-05
-0.000169908
9.51687e-05
0.000105585
-0.000916011
-7.3244e-05
4.58089e-05
2.65065e-05
-7.23154e-05
-2.01111e-05
-2.17983e-07
2.03291e-05
9.91412e-05
-0.000120907
2.17657e-05
0.000233905
-0.000151702
-8.22031e-05
-0.000169678
9.88891e-06
0.000159789
0.000133632
-4.66112e-05
-8.70203e-05
0.00021425
-0.000187856
-2.63943e-05
-1.19434e-05
3.85692e-06
8.08652e-06
0.000202104
3.18011e-05
-0.000162703
-6.97461e-06
1.03853e-05
6.43537e-05
-9.75516e-05
0.000144389
-4.68374e-05
-7.14456e-05
8.6695e-05
-1.52494e-05
6.09458e-05
-7.36342e-05
6.16907e-05
0.000221376
1.4181e-05
-1.61593e-05
1.97832e-06
-6.57289e-05
4.56177e-05
9.94659e-05
-5.3657e-05
-0.000202721
3.96808e-05
0.000109011
-0.000121812
1.28014e-05
5.36928e-05
-5.58307e-05
-1.3151e-05
1.5289e-05
-5.95353e-06
7.10753e-05
-5.33071e-05
2.48945e-05
-2.10382e-05
-3.90929e-06
-2.97244e-05
0.000101611
-0.000113961
0.000195381
7.04066e-05
-7.36391e-05
2.38501e-05
0.000156831
3.24026e-05
-3.7717e-05
-4.40113e-05
1.6494e-05
-0.000328042
-0.000637046
-0.000339028
0.000388024
0.00106212
-6.09806e-05
-3.6571e-05
0.000126124
1.41914e-05
-0.000140316
-5.22359e-05
3.34123e-05
-2.90716e-05
3.53768e-05
1.86546e-05
-0.00014733
2.55177e-05
1.42423e-05
-4.34667e-05
1.3963e-05
0.00011894
-9.24331e-05
-0.000329109
-0.000586106
0.000360202
0.000555014
0.00103924
-0.000267157
0.00011842
-4.33111e-05
0.000138272
-0.000158516
6.35557e-05
5.61573e-05
3.46659e-05
0.000914482
-0.000924028
9.32154e-05
-8.36693e-05
-2.75662e-05
2.48766e-05
3.54288e-05
-3.27392e-05
-6.47347e-05
-6.71085e-06
-6.32101e-05
-1.04009e-05
6.21757e-05
8.12134e-05
-0.000179324
3.68814e-05
-6.70829e-05
-1.80636e-05
4.82651e-05
0.00109167
-0.000282277
-4.45331e-05
-2.12469e-05
2.25518e-05
0.000416451
-0.00106286
0.000949175
5.51499e-05
-3.86093e-05
2.94829e-05
-3.03378e-06
0.000156543
-0.000369374
0.000726785
-4.89307e-05
-0.000114311
0.000138569
0.000668385
0.000689419
-0.00049031
8.06788e-05
-7.45083e-05
0.000644431
-0.000349416
-0.000295014
-3.18275e-05
4.78653e-05
5.57925e-05
-7.18303e-05
-0.000641011
-0.000137729
0.000427345
-2.16747e-06
8.25361e-05
3.57746e-05
-0.000116143
8.02632e-06
1.5105e-05
-1.78454e-05
-2.12389e-05
-2.42767e-06
-0.00014334
0.000167007
8.6094e-05
1.13322e-05
-1.95926e-05
-7.78336e-05
6.25679e-05
-5.88331e-05
-0.000110621
0.000106886
-0.000143724
1.34622e-05
0.000109023
-7.06108e-05
5.81251e-05
-1.93418e-05
-5.44381e-05
1.88925e-05
9.81136e-05
-2.34095e-05
1.75074e-05
-2.21826e-06
8.12042e-06
8.21361e-05
3.08827e-06
-4.2468e-05
7.6061e-05
-3.66812e-05
-0.000121198
-0.00019198
2.7988e-05
0.000105158
-2.1611e-05
6.96049e-05
4.29262e-06
-2.89847e-05
-4.49129e-05
2.63745e-05
1.97009e-05
-5.26801e-06
-5.70592e-05
6.02183e-05
2.10899e-06
-0.000127193
0.00016272
-3.79544e-05
-6.69764e-05
-1.26513e-05
5.62182e-05
-0.000108093
-7.05882e-05
6.806e-05
0.000112202
0.000387965
-0.000357269
5.7134e-05
-5.45055e-05
8.88036e-05
-4.43209e-05
-9.12821e-06
-0.000162813
0.000171942
-1.82316e-05
4.40709e-05
1.69911e-05
-4.28303e-05
2.25217e-07
6.43662e-06
-2.48935e-05
-0.000178837
-2.22702e-05
0.000170498
3.95496e-05
-0.000210047
-1.65131e-05
1.26608e-05
8.14491e-06
-3.02012e-05
-1.52965e-05
-9.80739e-06
7.36607e-05
2.22407e-05
1.28789e-06
2.6095e-05
-2.71577e-05
1.29852e-05
6.00712e-05
-6.17242e-05
1.42254e-05
-2.62693e-05
-0.000131296
5.03534e-05
-6.19759e-05
2.46077e-05
-9.29257e-05
8.97873e-05
-6.66893e-06
5.61508e-05
-2.63301e-05
4.384e-05
1.74989e-05
2.0837e-05
-7.50905e-06
0.000253388
-0.000260887
0.000227349
-0.00021985
0.000105432
-3.74393e-05
-6.79925e-05
-1.35732e-05
4.30223e-05
-0.000103868
-0.000116788
0.000133991
3.26078e-05
-5.63039e-05
-8.48659e-05
9.15602e-05
2.59135e-05
-6.72276e-05
-0.000413655
-0.000110792
0.000195338
-2.20451e-05
-0.000159469
7.76461e-05
6.28313e-05
-0.000149865
0.000521627
-0.000266898
2.36296e-05
-1.30092e-05
5.95774e-05
-7.01977e-05
-4.21776e-05
1.76713e-05
0.000863359
-0.000218928
0.000128886
4.29324e-05
-0.000193863
3.57798e-05
0.000109588
-0.00079241
0.000727931
0.000721741
-0.000824731
0.000604727
-0.000528649
0.000294011
-1.27287e-05
-0.000144546
0.000157274
-0.000142228
3.0336e-05
-2.8346e-05
2.16395e-05
-0.000147925
0.00101128
-0.00110215
-0.00113678
3.67843e-06
-0.000244696
-0.000123814
-0.00010815
0.000120248
2.28364e-05
-5.48397e-05
-2.3519e-05
5.55223e-05
4.4296e-05
-5.33279e-05
9.79232e-05
-8.88913e-05
0.000157941
1.25571e-05
-4.87277e-06
0.000128678
-2.32463e-05
0.000117532
7.38529e-06
-8.91431e-05
-0.000774016
0.000983079
0.000518868
-1.58676e-05
9.89134e-06
3.47601e-05
-1.43154e-05
-0.000469026
9.82692e-05
0.000370757
0.000131924
-3.48583e-05
3.2532e-05
-0.000129598
9.55933e-05
-8.97756e-05
-0.000929846
-2.83833e-05
3.31868e-05
0.000127121
-0.000148443
8.32255e-05
0.00055389
0.000160658
-0.000714549
-2.5219e-05
2.10793e-05
2.16471e-05
-4.41702e-05
-2.26011e-05
6.98595e-05
-5.1357e-05
-3.52812e-05
0.000188852
-0.00019762
2.13252e-05
2.05291e-05
0.000132783
6.37876e-05
-6.05439e-05
-0.000118086
0.000130849
-3.60101e-05
0.00039861
-1.06451e-05
2.02935e-05
0.000378317
5.14182e-06
0.000179924
-6.12813e-05
4.20076e-05
-5.22998e-05
-0.000103225
0.000552452
8.48643e-05
-2.7246e-05
6.51917e-05
5.12156e-06
3.8611e-05
-0.000196682
-0.000143747
1.33836e-05
0.000168619
-0.000164866
-9.56066e-05
9.56927e-05
-3.86955e-05
5.65256e-05
2.35761e-06
-4.89919e-05
-0.000109168
-4.42945e-05
5.60361e-05
-3.8156e-06
-4.55476e-05
-6.67293e-06
0.000121452
-0.000113166
-0.000161561
2.29558e-05
9.4177e-05
2.71586e-05
-0.00112105
-8.5147e-06
-0.000923978
-0.000322464
-0.000111539
5.43339e-05
-6.1768e-05
6.45909e-05
-3.70908e-05
-3.09984e-05
2.10064e-05
-1.64428e-05
2.64348e-05
9.30546e-05
3.43092e-05
6.7113e-06
3.86475e-05
-0.000267009
0.000341216
0.000462827
-0.000537034
-5.69013e-05
-2.95189e-05
6.38191e-05
-5.30617e-05
-0.000471943
8.28132e-05
-7.58855e-05
7.3657e-05
-5.26112e-05
5.81579e-05
-0.000960054
-2.20163e-05
0.000991606
2.42604e-05
0.000137493
-3.76415e-05
-9.2466e-05
3.85378e-05
4.053e-05
-3.18788e-05
-8.65121e-06
0.000984756
-0.00103581
-4.83357e-05
0.000110056
5.40269e-06
4.66276e-05
-6.55769e-05
1.89189e-05
-3.35754e-05
-5.75133e-05
7.21698e-05
4.375e-05
-3.19688e-05
-0.00033626
4.55471e-05
-2.62951e-05
6.84294e-06
8.74987e-05
-7.38769e-05
0.000165398
-0.000141314
-5.16444e-06
0.000638517
-0.00033622
-2.36666e-05
-9.86597e-05
0.000114372
7.9543e-06
-9.093e-05
7.75352e-05
3.03859e-05
-0.000857552
6.75046e-05
0.00016894
8.54915e-05
-0.000183356
-3.50109e-05
-7.32474e-05
-0.00019366
-1.989e-05
0.00021355
6.84695e-05
-6.93026e-05
-2.67332e-05
0.00028121
-0.000379279
4.62605e-05
-5.36765e-05
8.6969e-05
-3.69911e-05
-3.46225e-05
0.000131941
6.54014e-05
-0.000146787
4.97246e-05
7.13803e-05
0.000283043
-0.0010017
3.90827e-05
4.82569e-05
-0.000739604
2.04879e-05
4.97465e-06
6.58183e-05
6.58005e-05
0.000138351
-0.000185298
-1.88535e-05
8.72968e-05
4.42956e-05
8.44366e-06
-7.78361e-05
0.00109793
2.98407e-05
8.89348e-05
-0.00105047
-4.14566e-05
-7.26986e-06
9.95804e-05
-8.7079e-05
0.000423954
0.000221561
0.000250858
0.00124828
0.00109665
0.000181207
0.00021895
0.00109582
6.77538e-05
3.13506e-06
-1.56731e-05
-4.39914e-05
-3.26059e-05
-0.000141313
-0.000918557
0.000125294
0.000247365
2.25651e-05
-6.90401e-05
-3.75692e-05
-5.39395e-05
1.36726e-05
6.99912e-06
0.000151023
3.32629e-05
5.92042e-05
2.33437e-05
4.76181e-05
-0.000156713
0.000197064
-7.54167e-05
-0.000159289
-0.000146002
0.000144092
-5.1766e-05
0.00086188
-0.000188112
-0.000659328
-1.44404e-05
-0.000767978
0.000704345
0.000346676
-3.2912e-05
2.18736e-05
-3.17919e-05
-7.56687e-05
8.66679e-05
-8.59865e-06
1.90412e-05
-0.000265396
0.000359298
0.000160937
-0.000983257
0.000102849
0.000690835
-0.000695414
8.06332e-06
0.000485554
-0.000473324
2.19798e-05
2.06737e-05
5.50667e-05
2.4716e-05
6.05609e-05
-0.000200999
-3.53779e-05
0.000175816
0.000173348
-0.000125393
-0.000117806
-6.15152e-05
6.92594e-05
9.10474e-05
0.000190663
-0.000107431
-3.59248e-05
7.99724e-05
0.000817139
-0.00020929
0.000189534
8.03169e-05
-7.78666e-06
-1.98188e-05
-7.97247e-05
-6.19087e-05
0.000103679
-0.00100608
0.0010394
-0.000280926
-4.33519e-05
-0.000171953
-3.95135e-05
-9.05197e-05
1.2227e-05
-4.1634e-05
-3.63482e-05
-0.000965359
-0.00019858
-3.41197e-05
7.13218e-05
3.06367e-06
0.000784723
6.66237e-05
0.00105038
-0.00101955
-5.24667e-05
7.78476e-05
-6.48945e-05
5.98979e-05
4.36019e-05
0.000323357
-7.54533e-06
2.41199e-05
-0.000339932
-0.000307931
6.84331e-06
-2.00836e-05
-1.96717e-05
-9.31287e-05
-9.53908e-06
-4.04791e-05
5.44043e-05
0.000584962
-2.28189e-05
5.01264e-05
-5.26955e-05
-9.02909e-05
-8.33549e-05
-7.75678e-05
8.77081e-05
-0.000109016
-9.50995e-06
0.000216717
-0.000176012
0.00100531
-0.00126151
0.000286035
6.72393e-05
-5.26975e-05
0.000721144
5.66111e-05
0.000945201
0.000277978
-0.000100178
-0.001123
-8.85828e-05
-1.96367e-05
4.43014e-05
3.05328e-05
-2.06379e-05
2.69357e-05
8.50069e-06
-1.47984e-05
3.91021e-05
5.30456e-05
-5.04621e-05
-4.16857e-05
-3.86942e-05
4.01972e-05
0.00133234
9.86659e-05
7.7457e-05
3.55161e-05
0.00132645
6.46151e-05
-5.1502e-05
-8.37443e-06
0.000123349
-1.73705e-05
5.13282e-06
-0.0010301
8.06505e-05
6.93781e-05
-8.34117e-06
4.76512e-05
4.99132e-06
-0.000974506
-0.00116035
0.000741032
-0.000105732
5.51149e-05
-8.27384e-05
3.2783e-05
-1.95972e-06
5.19151e-05
8.28286e-05
2.15444e-05
1.89856e-05
0.000210202
4.80663e-06
0.000153144
-2.15489e-05
7.93906e-05
6.7821e-05
-3.03691e-05
0.000110407
0.000115987
-5.93872e-05
-5.13519e-05
1.26977e-06
4.05431e-05
3.23418e-05
4.38385e-05
-5.81571e-05
-2.12268e-05
4.34184e-05
-2.64665e-05
-6.03352e-05
1.67931e-05
-0.000227659
2.14325e-05
-6.12333e-06
-1.0036e-05
-7.47208e-05
4.19754e-05
0.000856368
0.000141009
-0.000212028
-0.000809883
0.000129357
-1.63785e-05
5.54185e-05
0.000448757
0.000406996
0.000166974
-7.95559e-05
0.00108469
-0.000459218
-2.38619e-05
-4.95192e-05
6.56513e-06
0.000122365
-6.17682e-05
-3.26375e-05
0.000138563
-2.29177e-05
2.69583e-05
-4.01767e-05
2.15015e-05
-0.000726674
0.000677007
4.9667e-05
2.5877e-05
-1.38747e-05
-8.38326e-05
-1.27516e-05
0.000373721
-6.90439e-06
0.000887467
0.000151917
-0.000788943
6.22695e-05
5.21057e-05
0.00106987
-8.80634e-05
-0.000948054
0.0010141
-0.000363395
0.000608975
4.34744e-05
-0.000289055
-0.000177585
-6.86531e-06
2.82312e-05
5.82062e-05
0.000618801
1.21484e-05
9.18864e-05
1.75907e-05
-0.000121626
0.000160807
-3.60287e-05
3.85866e-05
-0.000163365
-0.000173724
4.13723e-05
0.000132351
2.74334e-05
3.89219e-05
0.00010163
-3.89404e-05
-1.70993e-07
-4.1463e-05
-0.000217883
4.41592e-05
-0.000262635
0.000369455
-0.000427372
-0.000305479
-0.000888095
6.36216e-05
1.65563e-05
6.79105e-06
-0.000235379
-4.8136e-05
-3.32759e-06
1.34148e-05
-2.55193e-07
4.38621e-05
0.000305615
-6.95757e-05
0.000383626
0.000526369
-7.6412e-05
-2.92386e-05
6.93024e-05
-0.000470494
0.000449933
2.05603e-05
8.28983e-05
-0.000871842
6.16652e-05
-0.000120908
0.000257905
-9.32402e-06
-0.000298763
0.000853224
-0.000309197
0.000349524
-0.000381755
-4.5675e-05
2.03956e-05
-1.52584e-06
6.90576e-05
0.000878238
-0.000195038
0.00035604
-0.000958945
0.000655617
0.000631973
-0.00106093
-5.04844e-05
0.000545662
0.000297128
-0.000241757
-0.000630597
0.000600119
0.00052677
-0.000625254
0.00034781
0.000593525
-0.000265627
-0.00037901
0.000128217
0.000371041
-0.000145872
1.87792e-06
-0.000638752
0.000767634
-0.000494368
2.3874e-05
-0.000176207
2.23242e-05
0.000370328
0.000590427
-3.88818e-06
-1.1246e-05
-2.88572e-05
-3.93489e-05
8.13434e-05
0.000133822
3.27341e-05
-5.43451e-05
0.00043439
1.55435e-05
1.59207e-07
-3.66843e-05
1.58872e-05
0.000109379
-6.70724e-05
-6.64233e-05
-8.32008e-05
-0.000167942
5.182e-05
-7.22155e-05
5.5447e-05
2.73662e-05
-0.000411837
-0.000346808
6.65526e-05
2.23166e-05
-7.71378e-05
-0.000535886
0.000117581
-0.000140094
-2.60974e-05
-3.95591e-05
-3.04304e-06
0.000102257
-2.69654e-05
2.14332e-05
2.71924e-05
-0.000914749
0.000116437
-7.99557e-05
9.93411e-05
-0.000169541
0.0010135
-0.000960272
-2.21741e-05
-8.89078e-06
0.000110845
0.000160033
0.000259403
0.000401439
-0.00108392
2.88641e-05
4.11611e-05
4.30854e-05
4.00722e-05
2.11301e-05
-1.73402e-05
0.000924743
0.000142483
0.000104761
0.000104912
-1.43417e-05
8.21833e-06
0.000131472
1.44709e-05
-0.00100843
0.000668141
6.53823e-05
-9.84787e-05
9.64425e-05
7.73877e-05
0.00012817
-7.60114e-05
1.58955e-05
0.00111448
7.02229e-05
-0.00107806
-0.00063868
0.000834089
2.20141e-05
-2.33943e-05
7.56725e-05
-0.000107613
0.000166834
0.00050141
-0.000725504
0.000224095
0.000433966
6.74434e-05
0.000444943
-1.0977e-05
-0.000308931
0.000465474
-0.000678305
-0.000601958
-0.000503651
-9.83074e-05
1.86605e-05
-0.000101777
-0.000151601
0.000144079
-0.000937852
-0.000121155
-0.000154327
2.31019e-05
-4.00403e-05
2.09725e-05
2.79773e-05
-6.33673e-05
-8.14238e-06
3.83577e-05
1.54024e-05
-9.11781e-05
-3.99518e-05
7.8894e-05
1.81033e-05
1.78139e-06
-0.000211995
-4.77025e-05
0.000442791
0.000815667
-0.000117839
-0.000114953
5.02187e-05
5.35052e-05
0.000113479
-0.000125823
-0.000236052
-0.000995865
0.000152415
-3.34408e-05
0.000220424
-0.000476032
-2.7619e-05
0.000253831
-0.00014571
-0.000598431
0.000136202
0.00012377
-1.39049e-05
-1.66784e-05
-2.40748e-05
0.000131065
-9.81064e-05
5.475e-05
9.7533e-05
-0.00114828
0.00103692
-9.62249e-05
5.9511e-05
-6.61694e-05
3.5219e-05
-2.85607e-05
4.41195e-05
1.67955e-06
8.12054e-06
-0.000129027
8.02409e-05
-1.48254e-05
8.05222e-05
-0.00118436
1.59897e-06
0.000681486
-0.000381693
0.000126444
-0.00015521
5.89789e-05
9.82228e-05
-1.04792e-05
-5.8588e-05
-3.08943e-05
1.34709e-05
-0.0001193
0.0001226
-0.00014315
2.47341e-05
-0.00023875
1.33947e-06
-0.000611557
-0.000388723
-6.26402e-05
1.5781e-05
-5.46469e-05
-6.16663e-05
5.9254e-05
5.32694e-05
5.60251e-05
-0.000117437
0.00097534
0.000191101
5.19016e-05
-5.04255e-05
0.000100399
-3.91535e-05
-0.000125337
4.09392e-05
-0.000801043
0.00112071
8.12572e-05
-7.75042e-05
0.000122447
7.44413e-05
-9.31436e-05
-2.30888e-05
-5.31305e-06
0.00103902
5.07491e-05
7.31181e-06
-1.10746e-05
5.51532e-05
0.000144188
-7.75271e-05
-7.86401e-05
9.2407e-05
-0.000843501
4.19682e-05
0.0006881
8.15342e-05
-4.03521e-05
-2.3959e-05
0.00108533
7.11208e-05
4.01187e-05
8.27966e-05
-0.000362632
6.55298e-05
-5.19252e-05
-0.000108807
0.000134875
-4.32101e-05
3.07817e-05
0.000113728
-4.28971e-05
0.000110335
9.20552e-05
-4.70039e-05
0.000122455
-6.01874e-06
-0.000146097
0.000136722
-0.00096325
0.00102806
-0.000249447
0.000184632
-7.52549e-06
8.44902e-05
9.87566e-05
-3.26249e-05
4.6935e-05
-0.00024608
0.000606555
-0.000537757
-0.0001912
-5.14151e-05
-7.06945e-05
1.55364e-05
-5.10407e-05
1.56872e-05
-4.9952e-05
-0.0011521
-0.000135401
4.54617e-05
-0.000174604
-1.4964e-06
5.33722e-05
-0.00106896
0.00096791
1.60447e-05
-1.63025e-05
0.000991864
-2.93991e-05
0.000556809
-0.000480781
-7.60281e-05
0.00029377
1.16799e-06
0.000108489
2.03351e-05
-8.07161e-05
8.10547e-05
-0.000890647
0.000899414
0.000135832
-2.91033e-05
3.56169e-05
-8.91311e-05
5.35142e-05
-7.78545e-06
1.54999e-06
2.78314e-05
-0.000157957
6.88261e-05
4.64922e-06
1.03507e-05
0.000319393
-0.00106383
1.44331e-05
9.87504e-06
-1.15554e-05
3.15669e-07
0.000116403
-0.000110311
-2.12275e-05
-1.63462e-06
2.28621e-05
-4.2191e-05
0.000133672
-9.25876e-05
-1.35934e-06
-0.000338278
1.57175e-05
-5.10774e-05
-0.000622868
0.00045731
5.31807e-05
-8.60249e-05
1.67435e-05
-2.31036e-06
2.18164e-06
5.54378e-05
0.000132005
0.000663543
4.0305e-05
9.18017e-05
1.3046e-05
0.000148322
-0.000125991
-1.6188e-05
-5.23794e-05
-8.37698e-05
8.22097e-05
-1.9143e-05
-2.08446e-06
1.91221e-05
-2.37858e-06
7.80631e-05
0.000108099
9.97845e-05
-8.85643e-05
4.80833e-06
-5.24394e-05
-2.49543e-05
-9.17088e-05
7.0258e-05
0.000466641
-0.000436689
-3.05121e-05
0.000105943
-0.000256182
-1.90354e-05
-1.07649e-07
-0.000145829
1.13287e-06
0.00105058
-1.63058e-05
-0.00101249
-0.000170714
0.000178102
0.000683446
-0.000109227
0.000560347
-0.000222383
-3.22736e-05
-2.00706e-05
-8.18533e-07
0.000256201
-3.36442e-05
4.0956e-05
-0.000234019
0.000312082
-3.00207e-05
0.000129805
0.00140286
-0.00113342
3.65043e-05
-0.000924713
-7.49679e-05
-6.09183e-06
-3.31934e-05
0.000182906
-1.78885e-05
0.000545387
-0.00071656
-0.000111711
9.45518e-05
-1.07946e-06
7.20559e-05
0.00026909
0.000200043
-8.24847e-05
-0.000886079
-0.000108495
-0.000119124
-0.000371541
0.000388747
-0.000205412
0.000588753
0.000925299
-0.000265776
1.31519e-05
-5.83937e-05
3.05098e-05
-0.000102492
5.29166e-05
0.000680966
6.01864e-06
6.71458e-05
0.000132508
-1.00521e-05
7.75495e-05
0.000170843
-7.54567e-06
-4.57089e-05
-0.000160997
-0.000245449
-4.62993e-05
0.000248397
2.64916e-06
7.88667e-06
5.20322e-05
0.000163707
2.53266e-05
7.72207e-05
9.05944e-05
0.000139152
3.33295e-05
0.000895564
-0.000908333
-4.03364e-05
-5.48986e-05
-1.16635e-05
-8.51203e-05