/*--------------------------------*- C++ -*----------------------------------*\
| =========                 |                                                 |
| \\      /  F ield         | OpenFOAM: The Open Source CFD Toolbox           |
|  \\    /   O peration     | Version:  v1912                                 |
|   \\  /    A nd           | Website:  www.openfoam.com                      |
|    \\/     M anipulation  |                                                 |
\*---------------------------------------------------------------------------*/
FoamFile
{
    version     2.0;
    format      ascii;
    class       volVectorField;
    location    "0.52";
    object      U;
}
// * * * * * * * * * * * * * * * * * * * * * * * * * * * * * * * * * * * * * //

dimensions      [0 1 -1 0 0 0 0];


internalField   nonuniform List<vector> 
1431
(
(-0.0965211 0.443443 -3.42813e-17)
(0.572739 -0.277246 -1.80013e-16)
(5.69495 0.772637 1.09398e-16)
(-3.02944 1.83497 -4.8397e-17)
(0.0224875 1.15356 -1.5989e-16)
(2.54436 0.0917194 2.85026e-16)
(0.100869 -0.450274 -2.23452e-16)
(9.74304 0.656237 -2.32126e-16)
(-0.350686 4.54662 0)
(0.0337177 2.45265 -1.15159e-16)
(0.225476 0.764792 0)
(0.399819 -0.518696 7.60183e-17)
(-1.03692 1.26832 0)
(8.98378 0.520845 2.04622e-18)
(0.247943 0.982769 -2.60065e-16)
(0.104211 3.4712 0)
(0.370688 2.67272 -3.12145e-16)
(0.271145 0.852656 0)
(-0.462139 -0.234704 1.43324e-16)
(-0.000545788 0.51557 5.99344e-17)
(-0.289183 0.912543 -2.03243e-17)
(-0.431308 0.740806 2.1663e-19)
(1.25836 0.843929 -5.20322e-17)
(8.67425 0.571071 -3.31717e-17)
(1.73835 3.29575 -1.32607e-16)
(-0.0858171 0.382857 -1.74466e-16)
(-1.43588 4.76009 1.21886e-16)
(9.25943 0.469692 -2.42714e-20)
(10.8397 0.620313 6.45907e-18)
(0.185929 -0.922282 -5.54392e-16)
(7.40781 0.275481 2.54782e-16)
(7.08791 -0.170475 -1.86909e-16)
(-1.84906 0.414391 -1.26665e-16)
(-1.73606 0.411517 0)
(-1.66905 -0.182512 1.02519e-16)
(1.86861 8.80284 1.33792e-16)
(-0.00321945 0.347212 1.5756e-16)
(9.70371 -0.00327594 0)
(0.73361 0.488956 -1.82006e-16)
(9.61897 -0.00243617 0)
(4.74135 0.121609 1.4523e-16)
(1.17047 0.125813 -7.81217e-17)
(-1.65899 0.730978 0)
(-1.29208 0.372951 -6.91061e-17)
(-1.08119 0.749114 1.67459e-16)
(-0.451484 0.586262 -4.40254e-16)
(1.53538 4.90481 2.27474e-16)
(7.13111 1.20661 -6.20289e-17)
(8.9243 0.539789 1.6932e-16)
(9.45603 0.0861548 3.89516e-17)
(0.757549 -0.791777 -9.24353e-17)
(0.515976 3.19334 1.07579e-16)
(-0.298056 5.67896 4.95502e-17)
(-1.28316 0.744366 -1.66281e-17)
(0.265566 0.0657769 -1.48177e-16)
(7.91148 1.75659 0)
(0.781817 3.95688 5.9706e-17)
(-0.257424 4.21474 -2.36279e-16)
(-0.457661 6.39677 0)
(0.00752758 0.386062 -9.2069e-16)
(0.703127 2.156 0)
(0.343789 1.72754 -1.68828e-16)
(1.34032 7.77887 -1.47492e-16)
(10.5841 0.12169 0)
(9.96741 0.316385 -1.94802e-17)
(-0.451009 0.909588 0)
(6.21526 0.346334 0)
(2.72922 0.00690406 0)
(-0.557292 -0.97399 1.57818e-16)
(10.7646 0.0936325 0)
(-1.01657 0.417245 9.56751e-17)
(-1.54171 0.142555 -9.6524e-17)
(1.27547 1.29177 0)
(2.16614 0.222853 -2.90504e-16)
(1.1009 2.3541 1.48448e-19)
(-0.953767 0.307438 3.07238e-16)
(-0.163783 1.034 5.56823e-17)
(3.46919 0.632839 3.57129e-16)
(9.98936 0.183924 1.38162e-17)
(0.999221 -3.02047 -2.27481e-17)
(9.93814 0.0999273 -2.69451e-16)
(0.925501 -0.377642 -2.3329e-18)
(1.93989 -0.239052 2.09671e-16)
(1.18622 0.420379 -8.90199e-17)
(-2.75408 1.36533 4.96126e-17)
(-0.000636031 1.11559 -5.49117e-16)
(0.0989675 0.770828 -1.22374e-16)
(-1.14696 1.53053 1.69516e-16)
(8.28579 0.612212 9.99431e-17)
(-0.0449649 0.685677 -7.76481e-17)
(-0.121643 0.405143 2.4307e-16)
(-1.54599 1.18386 2.63554e-16)
(0.0857662 0.721568 0)
(9.76851 0.0409866 0)
(1.44302 0.0649065 2.27666e-18)
(-0.131852 0.976134 4.99233e-20)
(0.642273 2.22208 -2.19798e-19)
(10.3649 0.580432 3.48937e-18)
(0.117542 0.503054 2.53034e-16)
(8.73019 0.496242 -4.80294e-16)
(-0.607839 -0.892807 -1.76939e-16)
(9.88121 0.183728 -7.13116e-17)
(0.0621308 0.526077 0)
(0.0576782 1.12971 3.55698e-20)
(-0.996275 2.55984 1.84926e-16)
(0.515156 -0.713183 8.49642e-17)
(10.0181 0.0727177 -1.12497e-16)
(4.42846 -0.0492665 8.27043e-17)
(6.63728 -0.00101628 1.03437e-16)
(-0.0528765 1.14026 8.50201e-17)
(-0.677067 -2.558 1.98285e-16)
(-0.860288 0.860453 -7.68795e-17)
(9.67325 0.895095 0)
(0.311717 1.35263 -1.8242e-16)
(-0.385592 2.81568 0)
(0.0485038 1.14137 0)
(0.234296 0.647462 0)
(0.389963 -0.064031 -1.34218e-19)
(7.79719 0.625623 -6.88414e-17)
(-1.61146 0.704939 -1.68606e-16)
(9.91099 0.278591 -2.14842e-17)
(-0.343832 5.7936 -1.40129e-16)
(0.621655 3.90913 -4.60111e-16)
(8.63101 0.848102 -1.27267e-16)
(10.1206 0.170862 0)
(-1.21692 0.120097 -9.98146e-17)
(7.22554 0.606384 1.82212e-17)
(1.10081 1.3975 5.75733e-17)
(-0.261531 0.662826 1.0065e-16)
(10.6407 0.425115 -7.80272e-17)
(-0.443191 0.590192 -1.53523e-16)
(3.91665 -0.165543 2.70134e-16)
(7.19107 0.334518 0)
(0.225141 0.648915 -2.11531e-16)
(0.0374106 0.707356 -1.2683e-17)
(-1.98969 1.20747 -2.89393e-16)
(0.893097 1.47551 0)
(-0.981632 0.258357 1.34176e-16)
(-0.265906 0.400706 5.42376e-17)
(3.14754 -0.0807836 -4.47879e-16)
(-0.00594235 4.22823 0)
(0.00567947 0.246462 4.10084e-17)
(10.529 0.0600818 -8.12556e-18)
(8.84432 0.379922 -2.18412e-17)
(8.47867 0.142885 0)
(11.3826 0.284167 4.73996e-17)
(10.3522 0.387864 3.65037e-17)
(4.21553 -0.0767639 0)
(0.528861 1.56728 -1.29848e-16)
(9.31032 0.968966 -5.58197e-17)
(10.8596 0.0445226 8.46057e-17)
(9.87311 0.438521 -1.68773e-17)
(-0.321545 -0.543327 -2.02148e-16)
(2.57387 -0.617777 8.70169e-17)
(0.35202 0.824826 1.87282e-16)
(0.810281 1.32403 -4.12004e-17)
(10.0846 0.111879 9.30169e-17)
(0.427225 0.823824 -4.72458e-16)
(9.56138 1.00655 0)
(9.48566 1.22673 -1.02978e-16)
(0.413715 0.883551 -8.23795e-20)
(0.236302 1.17778 4.73909e-17)
(-0.0830455 0.473471 0)
(-0.432798 2.03825 -3.77921e-17)
(0.0550344 0.929287 -2.5411e-16)
(-0.867901 -0.388339 -2.06359e-16)
(-0.0889668 1.13945 -1.28172e-16)
(9.83114 0.117786 0)
(0.502006 -0.758167 4.30461e-16)
(0.0412363 0.587049 -1.97228e-16)
(9.59392 0.968109 -1.45651e-17)
(0.372407 3.17301 2.54132e-17)
(8.31741 0.562023 -1.25197e-16)
(11.0539 0.0543814 0)
(10.5125 0.0419197 1.54136e-17)
(-0.754793 0.311346 0)
(-0.886542 0.30922 8.81842e-17)
(9.3168 0.658517 -1.9118e-17)
(-0.0402533 -1.0588 3.22306e-16)
(9.50668 1.16463 1.05756e-16)
(9.73311 0.317975 4.42546e-17)
(0.447693 0.780697 1.26182e-16)
(8.74315 1.78541 0)
(0.0543133 0.758926 4.14529e-16)
(11.248 0.117079 1.03276e-16)
(9.83213 1.16068 -1.44314e-17)
(9.8291 0.757471 1.10144e-16)
(-2.81802 4.67022 -1.38643e-16)
(-0.0852874 0.327824 2.49571e-16)
(10.2721 0.107173 -2.23399e-20)
(0.0879295 -1.29656 -4.15166e-19)
(0.578613 2.56414 -1.23065e-16)
(-0.25801 1.10577 -3.62087e-16)
(10.0623 0.0463925 -6.80425e-17)
(-0.27954 3.05667 -5.52778e-21)
(10.0609 0.457795 4.25398e-17)
(10.0193 0.0963788 0)
(7.14132 2.13766 -1.1439e-16)
(0.200908 1.58857 0)
(0.323683 1.41029 0)
(0.312912 -0.641834 -2.19707e-16)
(2.86334 2.69857 -2.94848e-16)
(9.33655 1.08712 -2.90993e-17)
(3.39947 0.129395 -5.11058e-16)
(10.0375 0.0575167 3.73934e-17)
(-2.37987 2.51574 -3.17128e-16)
(-0.0337647 1.0163 1.00223e-15)
(9.77998 0.224987 2.65631e-17)
(1.49216 2.05988 1.35241e-17)
(9.20187 0.269953 0)
(10.1281 0.0695091 8.44232e-18)
(9.93533 0.362812 6.68786e-17)
(7.77275 0.676337 1.49218e-17)
(9.85908 0.202509 2.55235e-17)
(0.700855 2.27369 0)
(-0.217355 0.840776 3.91284e-16)
(9.4402 1.10845 0)
(0.123004 -1.50447 0)
(-0.578875 -0.515845 0)
(10.1147 0.238652 -6.67136e-17)
(9.88063 0.171561 0)
(0.236388 1.19857 1.5488e-16)
(11.1227 0.0308789 -1.35934e-16)
(4.47039 1.21221 -7.95655e-17)
(10.7229 0.35466 0)
(9.36401 0.970662 0)
(9.32033 0.979896 -7.78114e-17)
(0.163508 0.894816 0)
(10.5159 0.686551 0)
(7.45219 0.208133 -7.77174e-17)
(0.0610547 1.02151 0)
(-2.60557 2.22582 3.44332e-16)
(10.6256 0.0953225 5.08914e-20)
(9.88551 0.53207 -2.00512e-16)
(9.78223 0.46074 9.2128e-17)
(9.81333 0.410241 5.18905e-17)
(10.4896 0.271874 -2.80516e-17)
(-0.186698 0.503424 2.38592e-16)
(9.8486 0.110307 0)
(-0.296986 0.248634 2.18663e-16)
(9.51221 0.210002 -3.3951e-17)
(9.42655 1.1871 8.73552e-17)
(-0.297548 3.52269 -2.32404e-16)
(0.881027 4.73633 -2.99923e-16)
(0.228431 1.61855 -5.26877e-20)
(-0.226754 1.68351 1.08859e-19)
(10.5352 0.275629 -1.89131e-16)
(-1.44963 -0.39887 0)
(-2.19818 0.277296 0)
(9.94222 0.946997 0)
(10.0907 1.02673 -9.99524e-17)
(-0.309671 4.0002 0)
(-0.0670536 1.76271 1.23547e-16)
(6.28075 3.26109 2.23574e-17)
(1.33678 5.74343 -1.69156e-16)
(8.16686 0.0614611 -4.74754e-17)
(1.11272 -0.217756 1.92907e-17)
(-0.525658 0.113188 6.33977e-19)
(8.31357 0.010045 8.30372e-20)
(8.26062 0.025753 9.20987e-17)
(8.13014 0.0806272 9.12815e-17)
(-0.656968 1.679 2.7328e-17)
(0.0702288 0.662391 4.95625e-16)
(0.038986 4.52998 -4.44702e-17)
(9.77166 0.340284 -8.11549e-17)
(10.6394 0.585397 7.17357e-18)
(8.24047 0.013351 -8.49074e-17)
(9.88627 0.95511 0)
(8.36988 2.83018 2.94576e-17)
(-0.132258 3.66839 -1.49505e-17)
(9.77636 1.10041 0)
(9.07095 0.747436 3.24202e-16)
(10.2326 0.895361 2.89095e-17)
(10.2795 0.786603 0)
(8.07862 0.0943419 -5.65735e-17)
(10.0041 0.694083 1.36598e-18)
(0.1298 0.46746 -1.3761e-16)
(-0.0459815 -0.89761 -2.1153e-19)
(-0.699821 -0.534723 -3.89723e-17)
(0.0959486 3.18462 1.84367e-16)
(-0.442138 5.16292 0)
(-0.286827 0.254675 -4.45702e-17)
(-0.382079 -0.618833 0)
(0.347259 0.520901 3.4441e-16)
(8.29032 0.000537551 -4.64881e-17)
(-3.43907 3.42878 6.09484e-17)
(0.0268683 1.06108 1.20898e-16)
(9.14688 1.24352 5.48704e-17)
(10.1888 0.88219 2.17811e-19)
(9.64198 0.18868 7.08737e-17)
(11.1592 0.436126 1.6189e-16)
(9.52764 0.00619462 -6.3666e-17)
(9.40964 1.10051 0)
(-0.0565868 -1.55367 0)
(10.0446 1.10518 -4.62729e-17)
(9.38188 1.43575 4.98414e-18)
(-0.321828 0.9644 0)
(8.96546 2.13397 1.64935e-18)
(-0.105779 0.0954987 -2.18178e-16)
(9.52935 1.21895 2.97338e-17)
(9.64139 0.37995 3.02828e-17)
(9.10431 0.841324 7.82969e-17)
(1.96012 0.318242 0)
(8.0012 0.139682 0)
(0.549474 0.981101 -2.65139e-16)
(0.282978 0.118435 1.96248e-16)
(9.92371 0.126069 8.595e-17)
(8.21595 0.0415135 -9.31076e-17)
(8.27201 0.0159576 -8.95954e-17)
(-0.484712 0.196978 1.94989e-16)
(9.6543 0.2581 -1.41498e-17)
(10.8056 0.20984 5.72153e-17)
(0.447741 -0.083679 -1.87229e-17)
(0.0870557 0.288509 -2.12311e-17)
(-1.57208 0.79086 -7.58521e-19)
(0.496341 0.0371803 -2.04441e-16)
(0.0662035 3.67063 -5.08851e-17)
(0.421346 -0.0975364 -9.00204e-17)
(9.80806 0.352053 -4.8551e-17)
(-0.484604 -0.633421 -1.75807e-16)
(0.38724 0.178777 -3.14413e-16)
(-0.479328 -0.551939 2.66041e-16)
(0.0536094 4.37456 5.28373e-20)
(0.423137 0.253627 -8.6672e-20)
(-0.275922 1.07291 -1.69483e-16)
(-0.627162 -0.757057 -9.03409e-17)
(9.84402 0.0759088 1.8424e-16)
(-0.713532 -0.883933 -7.61545e-17)
(7.45031 0.469996 0)
(9.76609 0.182033 -7.12001e-17)
(0.0148438 -0.499634 -1.10685e-16)
(1.54716 -1.17022 0)
(-0.818792 0.293673 0)
(0.0243978 -1.40427 1.83568e-16)
(10.2917 0.116282 0)
(-0.257895 2.1553 -1.37164e-16)
(0.589395 -0.456361 -6.60967e-17)
(-0.478902 -0.45959 0)
(0.97431 -0.555772 -1.79037e-17)
(-1.55196 0.514414 1.50226e-16)
(0.379649 0.818077 0)
(9.82384 0.0923157 -8.3101e-17)
(-0.744256 -0.810419 8.86286e-17)
(10.0715 0.221582 3.49043e-17)
(6.69969 3.69595 -2.76637e-16)
(0.886753 -0.41611 1.72283e-16)
(10.5212 0.24438 1.52047e-17)
(0.21062 -0.314566 1.79695e-16)
(-0.0674883 0.0946914 -9.51827e-17)
(-0.853471 0.136706 -7.90737e-17)
(1.31666 -0.0982363 -1.1842e-16)
(-1.54426 -0.0468944 -3.99265e-16)
(-0.918477 -0.294981 0)
(1.56012 0.209641 -1.48922e-16)
(-0.0261228 -0.0470765 0)
(1.60929 -0.0065184 0)
(-1.50381 -0.100462 0)
(0.0904653 -0.174176 -3.89042e-16)
(0.824708 0.283941 0)
(-0.768143 0.112535 4.84908e-16)
(0.621583 -0.210675 -1.99026e-17)
(-0.406824 -0.240621 1.47546e-16)
(1.7452 0.106538 2.28109e-18)
(0.158713 0.0050618 -1.00353e-16)
(-0.227158 0.149635 2.92523e-16)
(0.700064 -0.189866 -1.71493e-16)
(1.50637 -0.143283 0)
(-1.02499 -0.112801 0)
(-0.307194 -0.2729 -2.72677e-17)
(0.291699 -0.0353237 0)
(0.483606 -0.167444 6.62017e-16)
(-0.763779 0.252341 1.30347e-16)
(-0.533836 -0.672143 -1.54503e-16)
(9.971 1.1546 5.38922e-17)
(-0.02387 -1.55411 0)
(-0.986364 -1.66073 1.98891e-16)
(0.155932 -0.551723 1.06861e-16)
(9.81217 0.304818 3.28982e-17)
(10.0046 0.0342877 8.59006e-17)
(0.420509 0.260908 6.63209e-16)
(-1.2761 0.183656 2.60148e-17)
(1.09039 -0.107325 3.86244e-17)
(-0.502057 0.194185 -2.64977e-16)
(-1.24783 -0.206676 0)
(-0.830258 -0.260242 1.36198e-16)
(1.73622 -0.0204603 0)
(-1.08658 0.0108749 0)
(0.0152595 0.111258 2.10754e-16)
(1.24284 0.272748 1.43853e-16)
(0.0985849 0.0645528 1.85737e-16)
(-0.427453 -0.447869 0)
(1.98731 4.83798 1.96542e-16)
(9.64805 1.10927 -2.93183e-17)
(9.98791 0.00237814 0)
(-0.630264 -0.826232 5.64413e-20)
(-1.30186 0.484399 -1.62283e-16)
(-0.526205 -0.289489 -1.72835e-16)
(9.95386 0.196234 0)
(-0.343021 0.15593 0)
(10.4468 0.0819937 0)
(-0.67085 -0.051821 -6.11971e-17)
(-0.0371525 -0.604214 1.9616e-16)
(10.0133 0.212778 2.89047e-17)
(1.34092 -0.515445 3.12736e-17)
(-0.26443 -0.601039 1.28575e-17)
(10.013 0.934962 0)
(0.410849 -0.293439 1.19247e-16)
(8.63542 0.0229847 1.74798e-16)
(-0.429262 0.442658 -3.12741e-17)
(0.252365 -0.253274 -1.56681e-16)
(9.70461 0.0787875 6.78969e-17)
(-0.143637 -0.722155 0)
(-1.03419 -0.344157 -2.64642e-21)
(1.89517 7.55226 -4.23416e-16)
(8.6789 0.217568 -2.32012e-17)
(1.73583 4.42241 6.94753e-17)
(0.376927 -0.533989 -1.76498e-16)
(-0.143158 4.3681 1.94011e-16)
(-0.498732 -0.890912 -2.40008e-17)
(-0.528814 -0.0661361 1.05095e-19)
(0.439071 0.10846 5.07907e-17)
(-0.198016 -1.3451 1.46399e-16)
(-0.548409 0.0311046 5.98168e-17)
(0.062876 -1.05981 -2.78441e-16)
(-0.173012 -1.45055 0)
(0.424731 -0.465495 1.78762e-16)
(0.259091 -0.811188 5.03743e-17)
(0.133984 -0.185109 1.22714e-17)
(-0.354001 0.657867 -1.25685e-16)
(0.508309 -0.276305 -4.24715e-16)
(0.799719 0.705472 0)
(-0.171597 -1.38386 -1.94565e-16)
(-0.16141 -0.289733 0)
(0.0633721 -0.529292 2.63317e-16)
(-0.254918 0.125016 -1.03465e-17)
(0.504191 -0.28003 0)
(-0.226722 -1.13297 -2.20003e-16)
(0.152893 -0.543245 2.81966e-18)
(0.196823 -1.12825 5.93357e-16)
(-0.769984 0.534894 1.86373e-16)
(1.16327 -0.264395 1.81655e-18)
(0.0507971 3.5652 -3.94007e-17)
(0.114637 -0.708027 0)
(0.164142 -0.868073 5.0628e-17)
(-0.00100369 -1.44532 0)
(-0.18705 -0.363467 9.65063e-18)
(-0.206648 0.126836 -5.50404e-18)
(-0.0337751 -1.55429 -1.16351e-16)
(0.45898 -1.65784 0)
(0.0447737 -0.137806 1.83532e-16)
(-0.00562435 -0.346211 -1.14027e-16)
(-0.550871 -0.39987 4.32882e-16)
(-0.131803 -0.0457803 -1.67147e-16)
(-0.599539 -0.0386518 -1.60952e-16)
(-0.232102 -1.28108 7.93914e-17)
(-0.66629 -0.238697 -2.36283e-16)
(-0.611299 -0.581497 -3.2296e-16)
(-0.516707 -0.702948 -6.97964e-18)
(-0.650086 -0.381922 0)
(-0.179237 -0.0928731 0)
(2.35797 2.08736 3.17647e-16)
(-0.269471 -0.833228 0)
(-0.170672 0.62021 0)
(0.451723 0.851507 -2.28048e-16)
(-0.134394 -0.367031 2.19458e-16)
(0.0956439 -0.64963 -4.77324e-16)
(-0.218656 0.658828 -1.7138e-16)
(1.41284 2.75694 1.19978e-16)
(-0.14134 0.992203 -2.44576e-16)
(-0.403744 -0.725688 -5.96378e-16)
(1.45131 4.95481 1.77555e-16)
(0.172714 0.502466 0)
(8.04987 0.0879091 -1.61411e-17)
(1.05058 6.95283 -6.06951e-17)
(-0.577619 1.30984 3.14641e-16)
(-0.223994 -0.936159 -1.87426e-16)
(2.08454 7.24303 -2.92952e-16)
(1.93574 8.18036 2.60037e-16)
(0.923733 4.63476 1.70689e-16)
(-0.0751356 -1.45795 0)
(-0.174021 -1.40466 -4.61891e-17)
(0.216317 0.193298 0)
(0.68042 8.37723 -5.09284e-17)
(9.93929 0.403015 -1.90791e-17)
(8.73785 0.134909 -3.36057e-17)
(1.74255 1.83545 -1.43374e-16)
(0.063663 1.27536 -1.4653e-16)
(-0.452402 0.109578 1.42862e-16)
(-0.406984 -0.953241 -1.05557e-16)
(0.216701 -1.53884 0)
(0.0410493 -1.41428 -1.15133e-17)
(-0.16426 -1.09619 0)
(-0.25431 -0.851087 2.4547e-17)
(1.87357 7.10052 6.03062e-17)
(-0.110029 -1.3118 0)
(0.248953 -0.0911859 0)
(-0.600315 4.39992 0)
(0.211222 -1.24837 4.06506e-17)
(9.92471 0.15923 -1.4237e-17)
(0.216441 -1.25395 0)
(-0.120414 1.29813 -6.57493e-19)
(-1.19162 6.04857 1.36093e-17)
(0.209031 -0.176334 2.15916e-21)
(0.504757 -0.206656 0)
(0.498346 -0.37057 2.41058e-16)
(0.0881169 -1.79645 0)
(-0.134721 -1.02685 1.37539e-20)
(-0.495078 0.086912 -7.74752e-17)
(-0.239723 -1.17161 -4.37353e-17)
(0.0702471 3.76586 -7.47434e-17)
(0.0398858 3.8083 0)
(0.00348118 -1.6913 3.26588e-17)
(9.62174 1.27538 0)
(-0.559391 -0.337353 4.40023e-17)
(10.5144 0.12029 -9.90943e-17)
(-0.3345 -1.02191 0)
(1.35079 6.63496 -3.86865e-16)
(-0.768211 5.39668 7.7742e-18)
(-0.194129 -1.30269 4.41453e-17)
(0.553363 -0.487655 0)
(0.244124 -1.80431 2.43831e-20)
(0.124822 -1.37223 -1.23457e-16)
(0.199382 -1.55496 5.96935e-17)
(-0.607034 0.493586 -1.72319e-16)
(-0.40858 -0.0691637 1.22424e-18)
(-0.280598 -1.06418 0)
(0.0591338 -0.534595 1.96537e-16)
(-0.343045 -1.11572 0)
(0.145027 -1.49661 3.93683e-17)
(0.210536 -0.908101 -1.07457e-16)
(8.71346 0.179249 4.62207e-17)
(7.96131 0.1674 -1.34148e-16)
(0.240273 -1.12708 5.25147e-17)
(0.166066 -1.5686 -1.56442e-17)
(-0.449568 -0.699139 2.11096e-17)
(-0.277224 -1.20231 -4.04403e-17)
(0.235347 0.218549 4.6887e-17)
(0.246312 -0.912159 0)
(-0.12715 -0.457363 3.72537e-16)
(3.19183 4.27377 0)
(0.490306 -0.187984 -1.51976e-16)
(0.69346 2.77451 1.84602e-16)
(0.224968 -0.577979 1.82579e-16)
(1.89846 2.7801 0)
(-0.985072 0.283851 4.46109e-17)
(-0.456602 0.657649 6.00104e-17)
(0.216867 -0.564679 2.84734e-17)
(9.78254 0.108853 0)
(-0.481272 -0.351547 0)
(0.033953 -0.900168 2.88354e-20)
(0.221073 -1.21153 -4.46428e-17)
(0.264668 -0.172994 2.47016e-16)
(8.1946 -0.0399782 4.50195e-17)
(-0.337637 -1.0083 7.83389e-17)
(-0.850744 0.176888 3.45081e-17)
(-0.331917 -0.656622 -6.25526e-17)
(0.200795 0.665299 -8.97914e-17)
(0.261095 -0.528769 -1.94974e-16)
(8.11833 -0.0357369 -5.27649e-19)
(9.24629 1.263 4.87066e-17)
(-0.0665996 -0.374429 -3.75066e-16)
(0.324008 -0.858365 0)
(-0.00356813 1.48343 0)
(0.813555 4.42908 6.69723e-16)
(-2.22556 0.450082 -1.28529e-16)
(-0.954676 -0.0799166 -5.02285e-16)
(-0.163158 -0.790554 0)
(9.68578 1.01196 1.38157e-16)
(1.11014 0.949594 0)
(0.475867 -0.448007 1.5174e-16)
(-1.56052 -0.294402 -5.59271e-16)
(-0.366291 0.682866 1.96247e-16)
(2.11552 2.56972 0)
(-0.421918 0.683509 1.05725e-17)
(1.44717 7.17936 0)
(0.561827 0.522157 2.82807e-16)
(-0.189544 -1.14627 1.17083e-16)
(-0.0397949 -1.49546 1.15637e-16)
(0.406071 -0.666124 -1.49351e-16)
(8.813 2.50445 -3.04378e-17)
(0.283499 -0.384625 -4.98565e-18)
(9.78215 0.0858965 2.33402e-16)
(-0.37936 -0.669472 0)
(0.486933 -0.21566 -7.75502e-20)
(1.71271 0.134352 -2.27945e-17)
(0.28341 -0.886629 0)
(0.135931 -0.579319 3.7105e-16)
(9.9056 1.08481 0)
(0.902065 -0.645422 4.59319e-18)
(10.7446 0.485153 -3.45729e-18)
(1.32097 3.55207 0)
(-0.152262 3.68122 -9.41273e-17)
(10.0003 0.0745107 -1.17013e-16)
(9.82528 1.33391 0)
(9.65878 1.62568 -5.42743e-18)
(0.337711 -0.832811 0)
(-0.00340595 0.366045 -9.88519e-17)
(0.174957 -1.19586 -1.7538e-17)
(9.73346 0.913729 7.44078e-18)
(2.63357 -0.59372 -1.75041e-16)
(0.0488403 -0.588002 -2.42582e-16)
(0.566898 -0.476437 -4.56963e-16)
(-0.0280839 -1.1171 -4.27602e-17)
(0.270846 -0.564271 -6.11059e-18)
(0.27411 -0.194251 7.15647e-19)
(-0.40406 0.128855 -9.96462e-17)
(0.594299 1.40184 0)
(0.367786 -1.32089 2.34089e-19)
(-0.394985 1.37462 5.61077e-17)
(5.9465 1.37515 -4.69721e-17)
(7.21625 2.56416 6.48357e-18)
(-0.26251 -0.312997 -1.63297e-16)
(-0.762456 -0.197045 0)
(0.0732183 0.0293214 -1.9406e-16)
(6.62561 1.91808 0)
(9.78555 0.795959 -1.38334e-17)
(-0.585928 6.49986 0)
(0.0471256 4.28915 4.4776e-17)
(0.164956 0.251687 -1.2417e-16)
(-0.427414 -0.346344 -1.33188e-20)
(-0.150021 -1.45504 9.78027e-17)
(1.21054 0.122327 0)
(-0.0307925 0.943548 3.31865e-16)
(0.75646 -1.09549 -6.35798e-17)
(0.205917 -1.48609 3.62345e-21)
(6.51904 1.64178 -6.61073e-17)
(-0.328113 -1.58191 7.91695e-17)
(0.0569837 0.176487 1.018e-16)
(-0.279075 -0.742009 -1.44207e-17)
(9.78685 0.0581344 0)
(-0.341131 1.36394 5.09866e-17)
(-0.0908285 1.07787 -1.13062e-16)
(-0.37949 0.273298 -1.40751e-16)
(9.79266 0.0489232 -4.88447e-17)
(0.313258 0.309985 7.44006e-17)
(-0.387589 -0.719741 3.8931e-17)
(0.0759435 -1.5026 -8.04894e-17)
(9.0906 1.2802 3.88516e-17)
(9.05028 1.77959 2.15112e-17)
(-0.139 0.915784 2.81961e-16)
(0.332852 -0.547482 -2.0619e-17)
(-0.218467 2.98229 0)
(9.80542 0.0599494 1.93213e-16)
(-0.303443 -0.119051 3.90741e-16)
(0.356644 -1.64498 -1.92935e-17)
(0.30884 0.166813 0)
(0.407571 -0.530612 3.43153e-17)
(-0.203304 5.24115 -6.55673e-17)
(0.452195 2.375 6.09665e-17)
(-0.309896 1.02962 3.32249e-16)
(-0.763344 -0.507259 0)
(0.892893 0.212644 2.80303e-17)
(9.36567 1.89903 4.55518e-17)
(8.80447 1.10286 0)
(-0.114222 4.94857 9.08449e-17)
(-0.330059 -0.748815 -7.13936e-17)
(9.78062 0.071069 8.68262e-17)
(9.91333 0.166256 -2.38229e-17)
(0.111626 -1.07739 -2.6769e-16)
(-0.305694 -0.301421 -4.39216e-16)
(0.467349 -0.113717 2.3061e-17)
(0.217999 -0.130983 1.09168e-16)
(0.0422518 0.51022 -4.05319e-16)
(-0.0159372 0.464355 -1.56855e-19)
(9.78623 0.135199 0)
(1.9157 -0.522367 1.5713e-16)
(10.0125 0.0770926 4.123e-17)
(-0.484409 0.615016 -6.00094e-17)
(-0.373315 -0.341852 1.60995e-16)
(0.528532 0.389403 -5.54011e-17)
(0.113527 -0.0138975 -1.0102e-16)
(9.80462 0.0880969 -2.71868e-17)
(-0.0860052 0.79821 -2.02079e-16)
(0.376256 0.0875595 -2.72042e-17)
(8.6741 0.283462 0)
(8.8128 0.761448 8.38539e-17)
(-0.29461 1.06726 6.968e-17)
(1.3809 2.45059 1.72446e-16)
(-0.509408 -0.561862 0)
(9.01252 2.13922 -3.25329e-17)
(0.433732 0.702269 -1.67211e-16)
(0.255174 -0.0871372 2.10088e-18)
(-0.146538 2.1038 -2.92112e-17)
(-1.22673 -0.170995 2.03724e-17)
(0.0850838 -1.55559 -1.96201e-16)
(-0.123294 -0.873125 -5.09658e-20)
(-0.159682 -1.46188 3.6141e-16)
(0.37877 0.108066 -4.69586e-17)
(0.319389 -0.1759 0)
(-0.685501 -0.347184 1.59681e-16)
(6.84951 0.0838612 2.38243e-17)
(0.413882 0.085438 0)
(0.428537 -0.206999 -2.04985e-17)
(-0.0897694 0.453479 -7.70028e-17)
(-0.220478 -0.759532 1.1834e-16)
(0.147631 -1.65224 -3.84108e-17)
(0.0944386 -0.0502978 -8.53353e-17)
(-1.05546 -0.454134 3.14984e-16)
(9.79891 0.1138 0)
(8.99055 1.31072 -6.27389e-17)
(0.348127 -0.20343 0)
(0.716706 -1.54016 1.43905e-16)
(9.38974 1.09326 -6.9216e-17)
(0.0343176 -1.18567 7.54396e-17)
(-0.0521918 0.722858 3.25691e-16)
(4.73506 2.86307 1.01732e-16)
(8.97247 1.42182 -3.38128e-19)
(-0.323666 0.371133 -2.03632e-16)
(10.0082 0.0858506 -1.1984e-17)
(5.1063 0.321013 2.63248e-16)
(0.0702036 -1.16742 2.76519e-16)
(-0.0889065 0.529859 4.47049e-18)
(-0.0281054 -1.12542 -1.01872e-16)
(-0.521457 0.539937 -3.92927e-17)
(0.0926452 0.260714 -1.13275e-16)
(8.11196 0.300974 5.17148e-21)
(0.540812 -0.399107 3.37561e-16)
(-0.340007 3.16817 -1.18021e-16)
(8.86124 1.30182 -9.41107e-19)
(-0.254832 0.499594 9.04219e-17)
(8.49402 0.333146 0)
(9.52496 0.12195 2.36748e-17)
(9.78407 0.111302 1.32768e-17)
(-1.27054 5.87369 1.40516e-16)
(-1.30799 -0.250828 -4.4269e-16)
(7.68319 0.297294 -2.46421e-17)
(-0.462842 0.778601 0)
(-0.134619 1.23648 1.25156e-16)
(1.74197 0.150939 -2.88335e-16)
(0.400021 -0.0964502 0)
(-0.547877 -0.640961 0)
(0.0163997 0.226139 1.74371e-16)
(2.23628 0.163286 2.68286e-16)
(2.65471 0.198421 0)
(-0.349567 4.83305 -1.79501e-16)
(9.4879 0.980926 -7.48621e-18)
(0.493263 0.288982 1.89239e-16)
(0.57327 -1.52214 1.16e-16)
(-0.269356 0.182038 0)
(0.282854 0.283096 -3.90707e-16)
(0.42662 0.0495809 1.72999e-16)
(-0.280849 3.00418 1.19977e-16)
(5.92067 -0.269794 0)
(-0.374467 0.376532 0)
(5.16752 0.118814 0)
(8.9242 0.354715 8.24551e-18)
(9.08551 1.64434 1.14975e-17)
(10.37 0.785592 -1.4205e-17)
(9.14874 0.943357 7.74956e-17)
(2.28783 -0.00637948 2.0764e-16)
(0.0156028 4.71869 4.44294e-17)
(8.96856 1.39824 -1.40457e-16)
(3.11115 0.211165 0)
(3.93403 0.190672 5.26214e-17)
(0.177878 0.355222 0)
(0.0113238 0.299075 -1.3145e-16)
(9.94479 0.0398659 6.25418e-18)
(10.9245 0.0573344 0)
(9.43265 0.104641 5.70529e-18)
(6.58045 0.549187 -1.7566e-16)
(2.35208 -0.0646211 -3.50299e-16)
(6.93418 0.82958 1.28744e-16)
(4.62371 4.63576 0)
(3.19833 5.57776 1.80015e-18)
(9.55676 0.00998768 1.08303e-16)
(0.302795 2.37015 -1.79325e-16)
(1.29932 0.128886 -6.35141e-18)
(2.29202 6.58174 -3.84644e-17)
(5.36514 0.174819 7.26857e-19)
(3.5525 0.208645 8.56566e-19)
(0.131483 -1.44802 -1.312e-19)
(0.751406 6.74142 0)
(0.0925675 0.256442 1.86722e-16)
(-0.210912 -1.18452 1.5697e-16)
(0.395335 -0.215112 -1.86678e-16)
(4.87296 0.114734 0)
(0.199369 0.0662985 9.7275e-17)
(1.03788 1.9508 3.24906e-17)
(0.0509937 -0.865517 -1.63698e-16)
(1.50623 -0.545286 -1.82275e-17)
(1.56833 0.6323 -1.13487e-16)
(-0.463571 0.288584 6.50015e-17)
(4.27196 0.163616 -5.42382e-17)
(0.130924 4.37558 0)
(-0.8664 -0.206152 1.71368e-16)
(3.60038 2.55431 -4.83325e-16)
(-0.0505782 0.374606 -1.04046e-16)
(0.103786 -0.925345 -1.44465e-16)
(-0.978749 0.645085 -1.15076e-19)
(5.80716 0.456036 -1.1945e-18)
(0.140684 0.404476 2.04239e-16)
(9.5645 0.878247 0)
(1.31734 0.0443151 0)
(3.2577 1.57246 -1.02842e-16)
(9.99394 -0.010658 2.97833e-18)
(9.85662 0.217579 0)
(0.169702 0.0908904 -9.74245e-17)
(-0.589113 -1.32751 0)
(0.122607 5.0269 -1.15403e-16)
(9.83952 0.12449 2.6614e-17)
(-0.108519 -0.797143 2.30068e-16)
(0.30556 0.399526 0)
(8.73731 1.23984 2.96772e-17)
(-0.476628 -1.26475 -1.11453e-16)
(-0.0249804 -0.0579014 9.49349e-17)
(1.14826 0.25485 -2.04186e-16)
(1.71019 7.96791 1.06031e-16)
(0.639119 0.697346 -3.80123e-17)
(0.0614353 3.13719 4.26721e-16)
(-0.188843 0.876522 0)
(9.68233 0.147799 -8.91484e-17)
(9.80863 0.0859508 -2.88614e-18)
(0.00937729 5.11661 -7.82379e-17)
(0.157708 -0.157429 1.03644e-16)
(2.44721 -1.75263 -1.30413e-16)
(6.12371 0.0500914 3.48015e-17)
(5.62741 0.220497 -4.81696e-17)
(4.58503 -0.29582 -2.18135e-16)
(5.22537 0.171811 0)
(5.59383 0.0566915 -1.60174e-16)
(7.23258 -0.0453297 0)
(6.09659 -0.0786832 3.98312e-17)
(4.5814 0.135774 6.21103e-18)
(0.64553 -0.440784 -8.71724e-16)
(1.49206 0.0988029 -3.60569e-16)
(11.1035 0.440185 5.48827e-17)
(1.72845 1.38895 -2.69463e-17)
(0.263269 0.524784 2.46663e-17)
(-1.05317 -0.825048 6.11542e-16)
(0.224216 -0.172761 3.93556e-20)
(-0.431794 -0.387823 0)
(-0.238252 0.285721 -2.2292e-16)
(0.696467 -0.518008 -4.01627e-17)
(0.107012 -0.0382019 0)
(-2.02658 0.356205 2.78321e-16)
(9.11342 0.561493 3.16194e-16)
(0.0261667 -1.11907 -2.36931e-16)
(8.32442 -0.013882 4.35987e-17)
(-0.799447 -0.643597 -6.83767e-17)
(-0.0721404 -1.10895 -1.31889e-16)
(9.64202 0.768498 0)
(8.62018 0.933844 -4.28099e-17)
(10.3595 0.488171 0)
(5.91391 0.117016 0)
(0.869362 3.77221 1.00396e-18)
(8.6502 1.11894 9.73161e-20)
(0.0638601 -1.00551 4.16325e-17)
(0.289959 -0.174975 -4.61033e-16)
(0.959709 0.0976268 3.47279e-16)
(9.69412 0.0289587 1.14691e-17)
(0.411461 -0.472683 1.46155e-16)
(0.347911 -0.354414 2.91657e-16)
(-0.317077 -0.214476 1.71644e-16)
(-1.06585 0.0634155 -3.38372e-16)
(3.251 4.86695 3.79702e-17)
(0.536636 0.391335 2.52633e-16)
(1.00527 3.01989 -4.99865e-17)
(-0.168031 5.42424 0)
(9.88207 0.207216 0)
(9.50498 0.0166511 6.24764e-17)
(9.76751 0.0621777 -9.13489e-17)
(0.323051 0.386762 -2.51714e-16)
(1.12412 -1.31475 -3.57144e-17)
(-0.424887 0.225028 3.84963e-17)
(0.854052 -0.27504 0)
(-0.185005 0.72802 0)
(9.92258 0.274148 6.79742e-17)
(8.34771 1.82126 0)
(0.16792 -0.143734 -9.23548e-17)
(-1.65269 -0.185756 -2.57922e-16)
(8.58738 0.423406 1.69306e-17)
(1.84568 7.45266 0)
(-0.253354 0.468201 3.26647e-16)
(0.512342 -0.289834 0)
(-0.480598 0.489442 1.95669e-16)
(8.45763 2.30084 -1.06384e-16)
(-1.14768 1.04994 0)
(0.092022 0.651611 -1.3292e-16)
(-0.074566 -1.06023 -8.13809e-17)
(9.76915 0.0594658 -8.20484e-17)
(0.160215 0.153617 2.05823e-16)
(-0.849848 0.697698 0)
(-0.611684 0.941993 8.22468e-17)
(-0.74253 0.250602 -8.68503e-17)
(10.5278 0.104736 0)
(-0.123165 0.515368 0)
(0.461765 0.0212642 2.6386e-16)
(-0.429283 0.755831 -1.35398e-16)
(0.265666 0.883177 0)
(6.80631 0.0737366 1.94306e-16)
(9.32717 0.127165 0)
(-1.12727 6.62539 -1.3269e-17)
(1.10389 0.677483 -1.46013e-16)
(9.71565 0.122703 6.71293e-17)
(-0.00891948 0.480404 -2.30468e-16)
(3.9773 1.58579 -3.15249e-16)
(-0.274474 0.469316 -1.2792e-16)
(0.357764 -0.81809 0)
(-0.0433499 -1.37032 -2.4501e-16)
(1.07907 0.688261 3.16941e-17)
(0.229088 -0.955162 0)
(0.325821 -0.8885 -2.0245e-17)
(-0.571536 -0.819458 2.0042e-16)
(-0.445321 -1.03225 7.39814e-17)
(1.27251 0.0723408 0)
(1.59338 -0.00160499 7.96976e-19)
(11.1836 0.195682 -5.13558e-17)
(-0.0228346 0.469932 4.46272e-17)
(-0.396662 0.67454 5.8604e-16)
(-0.851592 -0.077692 1.03472e-16)
(-0.125937 0.639031 3.91533e-16)
(9.77718 0.0878231 6.38764e-17)
(-0.379014 5.04713 0)
(1.49613 -0.359083 2.22703e-18)
(-0.668424 -0.774422 -2.09607e-16)
(0.317207 -0.153882 -3.55278e-16)
(-0.141049 -0.519712 -1.12997e-16)
(9.48064 0.0323091 1.00047e-19)
(0.203223 2.14999 0)
(0.403619 1.04604 5.62889e-18)
(-0.0469996 -1.4003 -1.01226e-16)
(9.95773 0.252672 3.02073e-17)
(0.24806 0.159564 2.80578e-16)
(9.76563 0.0379594 7.19452e-21)
(9.78134 0.146446 0)
(7.82425 0.139894 5.18551e-17)
(-0.288127 1.24791 0)
(5.81221 -0.0436716 -2.13293e-16)
(-0.203339 2.72438 -1.86014e-16)
(1.70263 0.0730814 0)
(0.0664105 0.846862 -8.9783e-17)
(8.45644 1.45752 -2.10195e-17)
(0.258477 1.46967 1.07692e-16)
(0.262582 0.590147 -1.0367e-17)
(-0.112279 0.0169853 0)
(-0.00387692 0.130274 1.13798e-17)
(0.427696 1.37029 2.04918e-17)
(-0.0886657 0.0220823 4.87184e-17)
(-0.0649226 0.0787734 -1.00915e-16)
(0.0388759 -0.421424 2.32989e-16)
(-0.105986 0.017451 0)
(-1.84089 -0.0724012 3.0021e-16)
(9.73957 0.0700323 1.17472e-17)
(-0.0405517 0.151736 -1.24764e-20)
(-0.151649 0.606246 0)
(-0.087355 -0.100496 8.63046e-17)
(0.224159 -2.62217 1.52851e-18)
(-0.118279 1.1034 -2.23777e-16)
(0.882378 0.177483 -4.78825e-18)
(-0.018857 0.262332 -2.38679e-16)
(-0.423896 1.31505 -9.48555e-17)
(0.0183886 0.924 -1.29726e-16)
(-0.140778 3.66738 5.28787e-17)
(-0.0125068 -0.657254 3.52755e-16)
(1.66564 4.91673 0)
(0.50846 -0.926995 -1.7965e-16)
(-0.0146699 0.202301 -1.44161e-17)
(0.0821738 0.833327 4.09779e-17)
(-0.0768129 -0.666976 -1.19069e-16)
(-0.417434 1.08571 -4.2495e-17)
(0.150111 4.72538 1.30007e-16)
(-0.173976 1.1589 8.21343e-17)
(-0.969107 -0.473601 1.32752e-16)
(0.913157 -0.0902074 2.39248e-18)
(0.841601 -0.189638 -2.63594e-17)
(-0.00965276 0.253207 2.20213e-16)