/*--------------------------------*- C++ -*----------------------------------*\
| =========                 |                                                 |
| \\      /  F ield         | OpenFOAM: The Open Source CFD Toolbox           |
|  \\    /   O peration     | Version:  v1912                                 |
|   \\  /    A nd           | Website:  www.openfoam.com                      |
|    \\/     M anipulation  |                                                 |
\*---------------------------------------------------------------------------*/
FoamFile
{
    version     2.0;
    format      ascii;
    class       volScalarField;
    location    "0.95";
    object      p;
}
// * * * * * * * * * * * * * * * * * * * * * * * * * * * * * * * * * * * * * //

dimensions      [0 2 -2 0 0 0 0];


internalField   nonuniform List<scalar> 
1466
(
89.2
125.244
87.5418
92.7443
92.3923
105.65
88.108
88.0833
116.68
106.949
84.3024
109.178
116.843
92.0374
105.212
83.3833
88.9955
110.992
114.135
91.5453
93.6689
83.138
109.895
92.3218
116.843
126.446
82.5915
92.2361
91.1893
123.351
86.2467
125.053
92.0389
92.1861
116.741
91.7972
92.1724
90.2885
106.5
89.7284
87.931
82.574
84.3039
88.5123
91.3586
88.0932
86.219
91.4064
107.543
92.0286
106.502
124.993
105.668
92.9435
92.0972
115.107
88.2766
83.4446
92.0643
106.573
126.726
87.8212
89.5738
125.622
98.2104
86.6813
112.689
91.6599
119.391
89.2252
126.859
110.925
92.7027
115.806
126.782
117.188
87.8913
90.1294
91.2195
122.844
106.015
82.7226
88.0765
105.323
91.975
89.5611
92.1571
121.297
105.333
105.924
126.399
82.4816
93.7461
90.3862
85.404
89.5412
125.49
84.2729
117.958
92.4092
106.054
106.756
91.2229
109.641
85.0708
87.6092
106.149
92.1679
85.485
88.6286
126.629
117.778
88.2742
83.397
107.741
126.345
82.5358
109.476
88.0322
89.3813
92.5972
88.126
91.268
89.1184
92.1021
90.6486
120.708
110.506
91.6029
124.452
106.257
82.8053
110.101
92.3132
125.986
88.1927
89.6066
91.647
88.0163
89.5015
92.5624
91.9873
92.2358
108.392
86.5598
94.1364
124.917
124.733
124.428
107.647
126.359
124.759
120.111
84.8557
124.462
82.3589
91.7592
92.4899
124.671
97.0548
124.745
122.052
84.441
92.3617
124.278
85.7811
92.2393
109.476
91.2493
101.805
92.1323
124.404
91.7378
119.699
125.197
114.014
124.392
123.739
126.562
127.594
117.305
125.828
92.1331
91.8015
120.463
91.6573
92.0533
105.474
119.475
91.5135
91.7434
126.992
95.5099
100.933
96.062
126.531
88.2429
118.023
126.032
95.0165
89.1834
124.394
122.59
91.3999
126.676
125.998
98.8947
120.964
124.511
91.9152
111.438
92.4468
107.549
92.0311
94.9221
92.585
92.4028
92.4173
112.375
92.2415
110.426
126.379
92.7157
126.583
91.6345
120.554
109.064
91.1
126.491
125.962
127.29
119.417
105.526
97.0446
106.784
126.209
92.3278
108.833
124.461
91.656
91.5635
122.53
122.895
102.872
124.415
121.855
125.353
115.373
123.322
122.842
92.369
98.4269
120.358
91.4873
124.49
124.694
92.166
105.312
92.6949
91.9024
106.321
110.745
92.3451
126.025
95.9949
91.7702
125.367
124.355
102.281
107.446
81.7249
92.393
104.875
124.487
126.292
126.662
126.427
98.1723
91.5794
124.239
125.458
95.3754
95.9038
121.045
94.0387
91.087
124.413
124.669
92.0231
116.935
118.986
89.9594
117.358
91.8274
99.9756
102.088
92.2087
91.781
124.211
125.674
91.5536
105.408
127.036
116.516
92.008
92.0204
91.5119
91.7464
115.617
91.5896
120.026
110.513
92.0855
125.878
125.645
125.09
93.9673
126.432
91.532
105.126
104.313
92.0617
89.5098
125.685
92.4314
114.29
91.4585
131.312
125.286
125.966
111.315
115.634
86.8422
103.322
94.446
96.2139
92.6172
124.588
91.9226
89.2958
92.0285
120.697
91.5833
140.668
101.224
126.881
120.594
130.392
118.931
93.9167
99.8489
99.6458
95.2363
93.4374
93.5499
94.4623
91.2801
88.7564
108.281
123.285
92.9542
95.715
97.5797
91.4905
91.9448
113.97
119.917
119.3
93.2277
100.91
108.941
96.0889
143.137
105.815
86.8688
91.9742
109.592
133.074
89.688
97.165
91.7003
91.5144
91.5999
91.5481
91.4585
91.4394
90.6133
90.2782
91.4367
91.2793
91.6341
91.9635
91.3855
91.8488
91.0163
90.7124
90.8687
121.803
90.8064
90.9147
90.5556
90.8921
108.857
88.7032
106.441
82.7328
108.603
106.934
83.7456
82.3869
105.244
111.147
108.827
82.4053
107.802
90.3113
90.0522
106.728
105.347
87.8687
81.9808
82.1538
87.7357
108.484
87.8711
89.1556
82.1334
147.496
87.9718
89.2144
105.3
90.7068
92.7636
85.8612
125.18
90.834
90.9978
90.9053
91.104
105.468
90.5668
91.2627
105.547
91.1708
125.434
87.8968
117.412
125.662
88.2288
106.517
125.88
88.9915
91.0337
117.285
91.6599
91.2028
85.4655
88.1095
91.1221
125.721
91.7212
91.3477
86.2232
90.4306
108.756
88.9076
91.3567
91.1554
91.0701
91.3178
91.0492
86.5865
108.605
90.5203
125.901
89.1718
91.8946
92.369
96.0182
95.2099
101.306
89.8233
91.907
95.138
95.6536
120.232
89.7967
91.9255
96.7193
98.001
96.384
92.3031
87.7843
91.4618
91.6521
91.9178
92.1778
91.4735
126.687
91.3063
91.6369
91.5542
87.8429
110.664
90.849
91.5671
119.466
126.029
90.235
91.997
124.878
94.5247
91.3355
94.8103
92.0198
91.4745
91.2192
117.544
118.543
86.566
91.5247
91.1787
94.824
125.717
93.2942
91.1977
91.0918
92.4863
91.2847
94.0497
90.946
83.0868
94.9819
91.8083
91.8082
91.109
103.339
128.779
91.3989
91.1066
120.338
110.06
91.5278
91.1936
91.4295
107.139
91.6338
107.902
94.4874
126.143
88.1219
90.8341
91.9718
91.6334
90.7292
91.9366
91.8275
91.7003
92.7952
112.032
93.0476
94.7446
125.584
133.374
118.565
91.0533
91.6307
93.6776
137.488
91.9653
91.9679
92.7306
124.474
125.04
91.6801
91.0804
101.785
91.8587
91.9251
87.7179
93.793
92.0337
91.9461
91.6655
91.7171
92.4554
91.5283
113.774
91.9566
91.3093
91.397
112.231
91.5635
91.8123
92.9631
91.8196
110.751
95.4603
92.9914
95.7617
133.485
109.002
101.953
109.779
109.405
92.6035
125.26
90.3543
107.198
91.6242
91.031
90.255
117.044
100.184
91.3999
124.496
124.617
125.548
120.049
89.9453
115.753
91.4498
124.874
104.504
118.465
91.6743
91.0021
92.7924
94.1632
91.9645
96.0618
118.375
120.147
102.083
91.8523
111.734
91.8421
93.2131
125.038
92.434
92.9706
115.937
94.522
126.488
91.7322
107.545
93.1321
91.8447
92.8593
121.919
92.0114
117.92
126.955
91.9046
96.5941
91.6945
91.3505
92.4171
125.031
111.649
95.8202
119.104
90.7789
111.267
96.7259
124.33
89.6639
124.901
111.917
90.839
92.2128
124.496
93.2813
91.9273
108.753
91.5482
105.187
126.745
87.9419
116.687
93.7737
90.8073
126.302
112.334
123.781
93.0604
123.124
124.305
94.7232
124.148
95.6511
116.913
113.804
107.472
123.623
124.36
104.885
89.9662
122.785
91.8771
91.9235
123.414
124.237
125.505
91.6387
91.7204
124.664
90.7021
124.405
91.7177
91.0072
112.169
90.6903
96.5735
92.4265
91.8767
93.4752
92.0381
94.8886
124.119
117.069
83.2435
111.737
91.6894
92.0074
91.9557
92.922
91.2149
91.9749
126.707
92.4147
91.7976
89.2251
91.4645
113.362
125.148
92.7103
92.6101
88.6595
96.0941
92.2271
105.154
91.7318
90.4871
89.2976
88.0509
121.587
126.952
91.0371
121.421
93.3102
88.3222
126.389
90.9318
88.8788
113.789
88.7031
92.3082
118.041
106.085
92.277
90.7369
126.535
126.012
96.8628
123.026
91.4164
114.341
111.484
91.9584
125.058
90.693
90.6202
87.9354
81.9508
91.218
128.631
123.917
91.388
109.173
91.9283
90.7818
91.9576
91.1605
95.6706
91.5077
105.16
92.2372
91.7368
101.231
91.6574
96.81
91.8309
90.6563
124.862
117.306
92.1057
84.0288
85.2352
92.0263
91.0449
92.3336
92.2076
88.8189
95.6144
91.4202
126.935
117.886
81.9955
93.2179
91.7947
98.7113
111.653
91.7812
126.567
89.0676
92.2086
91.6275
126.045
93.4278
109.589
91.8043
91.014
124.106
89.3347
87.7927
91.3418
115.986
118.012
111.967
123.199
92.9922
90.717
82.9463
88.0573
106.481
106.055
124.039
90.6622
90.6783
90.8478
91.4342
92.35
88.131
87.4487
107.264
121.149
92.2344
125.557
92.5393
86.9065
120.116
90.9587
91.9687
91.6074
124.579
122.691
125.21
105.74
92.7135
96.9876
92.086
117.532
91.7951
126.62
90.369
89.0203
90.9928
125.144
91.9451
91.4829
126.43
92.3626
124.588
96.5922
91.3517
91.9943
91.9948
91.1686
92.8027
91.9797
90.9284
92.8753
91.1845
95.5823
111.387
112.651
97.0879
94.6195
93.6857
99.1407
111.086
115.412
104.622
101.922
119.388
123.427
127.448
126.248
92.7684
92.0767
91.8481
93.0431
118.298
117.178
126.577
91.4732
91.1237
106.914
91.4618
92.1373
105.463
91.7848
109.713
91.874
105.137
122.007
114.571
107.053
91.5409
92.38
125.12
89.9949
125.551
106.385
92.2653
84.4487
92.1874
88.292
91.4714
104.408
124.499
116.35
91.2063
105.606
90.6353
92.4536
90.109
89.1557
87.9173
91.0184
124.422
123.608
91.9435
87.8012
89.2816
124.997
111.688
118.955
116.387
126.415
106.128
123.747
82.4515
91.3918
95.2256
126.677
105.472
83.1193
134.302
92.0675
110.773
92.0702
120.661
92.0508
109.426
91.2489
105.868
91.5476
88.7994
90.1134
92.2752
83.5834
92.07
125.742
125.665
126.411
93.7345
85.8849
125.702
89.2857
92.6109
109.213
91.8538
117.839
92.4458
92.0475
126.205
110.254
91.8587
126.064
90.4728
106.197
111.409
112.786
112.684
123.832
92.2544
91.3448
106.388
91.7844
95.5052
95.7559
117.88
127.888
87.8717
89.1831
90.7548
107.617
116.305
92.2599
109.187
91.8338
126.527
89.9261
91.6447
84.9642
124.916
124.893
91.2334
109.396
93.8171
82.5815
109.943
91.553
111.198
92.2356
110.277
92.275
89.8769
87.8474
96.9983
126.202
124.374
92.265
88.3394
125.254
126.7
96.2775
116.715
126.192
119.48
89.1295
92.0404
120.17
85.2441
127.041
126.201
87.6562
91.9618
88.659
91.7958
125.586
91.5556
119.362
91.0024
124.664
124.193
124.805
125.323
90.9745
105.079
122.41
119.749
126.635
92.5854
128.045
88.2452
91.48
127.06
96.086
91.8381
126.13
90.7696
125.302
88.1005
108.944
125.427
125.165
89.5645
91.975
118.237
91.4653
125.788
125.536
125.905
125.665
119.088
118.766
124.693
124.768
124.877
125.017
116.65
96.4561
92.5718
124.791
125.165
92.7703
91.7443
125.926
110.253
91.524
91.8185
87.7579
89.1941
85.6549
91.9943
122.591
92.2162
91.6543
124.446
109.877
125.374
124.195
127.394
116.994
117.896
92.8519
90.7026
116.182
126.855
115.08
92.053
110.54
115.913
85.2311
125.306
123.388
105.345
119.534
121.777
105.788
88.6235
91.9413
91.6663
124.276
86.807
92.6009
82.5855
91.8458
84.7174
90.9524
106.658
120.93
101.149
105.832
91.9519
90.7399
105.936
91.6765
118.349
117.977
92.2619
124.44
87.4163
125.107
106.773
128.974
91.9137
117.012
102.071
110.139
91.555
91.6247
96.8241
121.344
86.2403
98.184
89.4629
87.8031
91.3
91.9856
89.8479
92.1166
87.0191
121.531
96.1645
84.8311
84.3016
96.8116
116.661
125.773
92.2924
83.2279
91.9312
91.7332
90.7908
92.018
94.4173
91.2646
90.7152
85.8098
126.446
87.7487
106.202
106.428
118.433
124.268
126.538
123.37
124.55
105.471
121.292
121.682
125.022
108.649
115.778
90.9438
124.383
91.0937
126.535
126.468
88.5029
91.6776
113.278
107.016
117.174
93.9207
92.1241
91.6335
85.903
112.602
114.784
96.3503
91.7357
90.2675
106.032
105.762
85.3403
96.6112
124.025
107.939
92.9562
90.6754
92.0517
84.2829
107.069
91.0644
105.896
90.6744
84.8261
90.8191
96.475
124.615
124.815
108.793
91.4283
92.1706
91.4154
116.31
91.8051
93.0344
123.026
92.2604
118.654
84.3014
106.492
92.7559
90.6985
93.9868
125.746
91.5313
126.386
83.3555
96.4839
91.5697
93.456
95.3537
93.8606
116.887
125.186
106.807
124.588
91.9271
91.2312
122.049
91.5335
87.9398
111.637
91.3593
109.686
91.2552
125.007
126.834
118.031
85.6511
92.0181
90.9527
113.405
92.0376
90.1762
110.309
91.8337
90.763
107.268
92.2096
108.581
117.655
108.604
91.9329
93.3048
105.326
92.1783
82.5208
113.776
91.6
111.251
92.0796
85.8354
90.4637
91.986
88.0515
90.9096
87.8313
125.313
91.7344
113.153
126.398
92.8833
87.9061
120.821
91.9973
82.6379
127.014
119.491
127.15
114.044
91.3629
84.8304
126.74
112.756
126.341
91.9425
92.0148
91.2588
85.4569
89.1489
97.8313
91.3404
125.508
91.9178
125.223
86.6712
85.487
113.401
123.759
124.006
91.7092
124.181
108.215
125.039
124.101
93.2792
90.1124
123.33
107.813
124.368
123.048
123.884
92.5513
125.475
103.272
126.757
122.56
97.1976
93.0305
126.865
127.004
126.012
124.331
91.7348
120.102
125.8
100.42
128.09
125.712
85.5696
125.775
83.5301
84.0061
88.1299
82.824
83.4657
84.6738
90.9779
92.3306
105.6
122.245
127.391
92.3418
118.333
91.9412
93.2159
92.9164
118.751
104.499
92.005
90.1687
125.725
91.596
105.951
124.726
89.6272
125.214
110.611
92.0384
121.295
92.5205
92.8402
125.981
92.2565
84.2204
87.7159
87.0914
107.23
92.1118
88.0837
88.4025
122.249
125.17
124.392
124.84
125.408
125.834
117.506
123.21
107.727
90.262
125.799
113.7
87.5832
125.506
87.8912
108.14
90.8491
88.4947
89.5895
92.2348
90.9018
90.022
92.078
94.4294
102.633
87.8938
91.7023
108.629
138.001
103.418
109.283
120.905
127.108
117.644
115.569
114.242
88.0493
88.0796
90.4253
88.1842
91.2572
90.9427
109.034
87.7634
124.692
124.999
125.584
)
;

boundaryField
{
    frontAndBack
    {
        type            empty;
    }
    wallOuter
    {
        type            zeroGradient;
    }
    inlet
    {
        type            zeroGradient;
    }
    outlet
    {
        type            fixedValue;
        value           nonuniform 0();
    }
    wallInner
    {
        type            zeroGradient;
    }
    procBoundary1to0
    {
        type            processor;
        value           nonuniform List<scalar> 
29
(
89.4118
89.4118
88.3723
88.1751
82.8111
83.3655
115.897
87.9943
88.2738
88.2671
88.6
83.3655
88.3723
89.7791
116.603
117.028
82.8111
83.0662
88.1751
89.4837
117.242
117.293
83.7833
115.989
115.989
83.7833
117.972
116.009
117.972
)
;
    }
    procBoundary1to2
    {
        type            processor;
        value           uniform 89.4439;
    }
    procBoundary1to3
    {
        type            processor;
        value           nonuniform List<scalar> 
48
(
91.7702
91.8924
91.8932
91.8932
92.2026
90.8811
90.8811
91.8917
91.7915
88.967
87.9909
88.967
91.0968
89.3218
89.0965
91.0968
91.4302
91.4302
90.6626
90.6626
90.7817
91.4407
90.1976
89.1057
89.1057
90.2817
91.7911
91.7911
91.9765
91.2834
90.7236
91.9765
91.8917
91.9789
90.1341
91.2834
91.9384
87.9909
92.3153
92.1736
89.6752
91.9663
91.9789
90.1341
89.1988
92.8575
92.1076
89.6752
)
;
    }
}


// ************************************************************************* //
