/*--------------------------------*- C++ -*----------------------------------*\
| =========                 |                                                 |
| \\      /  F ield         | OpenFOAM: The Open Source CFD Toolbox           |
|  \\    /   O peration     | Version:  v1912                                 |
|   \\  /    A nd           | Website:  www.openfoam.com                      |
|    \\/     M anipulation  |                                                 |
\*---------------------------------------------------------------------------*/
FoamFile
{
    version     2.0;
    format      ascii;
    class       surfaceScalarField;
    location    "0.95";
    object      phi;
}
// * * * * * * * * * * * * * * * * * * * * * * * * * * * * * * * * * * * * * //

dimensions      [0 3 -1 0 0 0 0];
oriented        oriented;


internalField   nonuniform List<scalar> 
2776
(
-0.000518144
-6.7272e-05
0.000437527
0.000147889
-0.000870509
0.000941605
0.00030128
-0.000372376
-0.000489956
-0.000224716
0.000302291
0.000412381
0.000125365
-3.70996e-05
0.000998392
-0.00108666
-0.000156534
2.3981e-05
0.000197054
-6.45011e-05
-0.000118666
-0.000447823
0.00037766
0.000188829
-0.000154572
-2.08212e-05
0.00049363
-0.000122383
-0.000659221
0.000287974
0.00100442
0.000883719
-0.000887446
-0.00100069
-0.000933945
0.00073983
-0.000224232
0.000418347
-0.000332341
-0.00113099
0.000510942
0.000952394
0.000417646
0.000176047
-0.000547993
-4.56998e-05
0.000883265
0.000114671
-0.00136317
0.000365233
-0.000137358
-0.000102677
8.35006e-05
0.000115994
-3.85978e-05
-0.000196062
0.000465826
-0.000136724
-0.000661443
-0.000275906
0.000247436
0.000262498
-0.000234028
3.1809e-05
-0.000481982
0.000450173
0.000524801
-0.000155949
7.90495e-05
-0.000447902
0.000716055
-4.66687e-05
5.4479e-05
-0.000723865
-0.000692226
3.87043e-05
-2.74134e-05
0.000680935
-3.395e-07
0.000224785
-0.000326189
0.000101743
0.000586992
2.24115e-05
-2.25417e-05
-0.000586862
0.000680924
4.49913e-05
-3.01502e-05
-0.000695765
0.000307432
-0.000380668
-0.00116894
0.00124217
1.71147e-05
1.11779e-06
2.54525e-05
-4.3685e-05
-0.000245102
3.55274e-06
0.00012351
0.000637615
-0.000721303
-3.98217e-05
0.000159718
-0.000114513
0.000176663
-0.000221868
-0.000351988
0.000404351
0.000620753
-0.000673115
0.00055695
-0.000814818
-0.000111906
0.000369775
4.51962e-05
-5.08068e-06
4.57024e-06
-4.46858e-05
0.000178127
-2.99179e-05
-0.000181445
3.32358e-05
-0.000326185
0.000287708
-0.000679059
0.000717537
3.6921e-05
9.22753e-06
0.000365332
0.000302322
-0.000149976
7.37227e-06
-0.000469397
-5.876e-05
-0.000329327
0.000217724
0.000952571
-0.000229632
-0.000722939
-6.06293e-05
0.00031223
-0.000251601
-3.08323e-05
0.000346924
-0.000316092
-0.00048328
0.000548733
-6.54532e-05
-0.000488657
0.000483619
5.03727e-06
-0.000300609
-9.53532e-06
0.000310144
-0.000119688
-7.33334e-05
0.000193021
0.000561223
-9.65637e-05
0.000923885
8.5664e-05
0.000215504
-0.00018861
-2.68936e-05
-0.000270942
0.00031498
-4.40384e-05
-5.97669e-05
0.000126018
-6.6251e-05
-0.00023031
0.000149674
8.06351e-05
-0.000211179
-0.00065933
-0.00036097
-8.68532e-05
0.000120981
-9.70004e-05
0.000287671
-0.000109544
-0.00108444
0.00139187
0.000465302
-2.7212e-05
-0.00043809
-0.000939181
-0.000191814
-4.22363e-05
-2.43007e-05
6.65371e-05
-0.000790633
-0.000143311
2.64121e-05
-1.5823e-05
1.7295e-05
-2.78842e-05
-0.000187031
0.000155216
9.82221e-07
-0.000142369
0.000125278
-4.35376e-05
-0.000204733
5.06139e-05
0.00059309
-0.000438971
0.00078906
-0.000682785
-0.000183696
7.74207e-05
0.000220014
-0.000267017
5.18769e-05
-4.87361e-06
0.000252853
4.77484e-06
-4.48867e-05
-0.000212741
-0.000201734
-5.28782e-05
-0.00044587
0.000864019
-0.0008665
6.87586e-05
-6.62775e-05
0.000186971
-0.000286547
-0.000149279
0.000248856
0.000160958
-0.000143802
-4.80644e-06
-1.23493e-05
5.33225e-05
-0.000544691
0.000491369
5.10644e-05
-0.000537234
0.00048617
0.00105384
-0.000450255
-0.000805731
0.000202142
1.15707e-05
-3.01526e-05
4.4994e-05
-0.000622437
-7.0131e-05
0.000301138
0.00039143
5.02568e-06
-0.000198004
5.94784e-06
-7.55375e-05
-0.000125412
5.85801e-05
-0.000194011
9.78434e-05
9.6168e-05
0.000105583
-0.000386018
0.000339154
-5.87179e-05
-0.000589115
3.27866e-05
-5.56898e-05
0.000612018
-0.000283369
0.000463314
0.000330997
4.05302e-05
0.000268263
-6.29657e-06
-0.000302497
-0.000337214
-6.31184e-05
0.00029398
0.000106353
-0.00055328
1.67228e-05
0.000548226
-1.16682e-05
-3.57938e-05
0.000586093
-0.000574081
2.37809e-05
-0.000612203
0.00104705
-0.000761028
3.99456e-05
-1.63095e-05
0.000322779
-0.000346415
0.000757847
-0.00039439
2.84502e-05
2.37482e-05
7.78414e-05
-0.00013004
3.25843e-06
9.03478e-06
4.82152e-06
-0.000239926
6.51174e-05
-7.02938e-05
0.000225719
-0.000776641
0.000676287
-7.47473e-07
0.000230241
-0.000318136
8.86421e-05
-6.47438e-05
-0.000242062
0.000184423
-0.000202285
0.00080392
0.000137685
-1.52959e-05
-8.00165e-05
0.000199857
-2.80225e-06
0.00014735
2.26644e-05
0.00012701
8.25551e-07
0.000214678
-4.02684e-05
-0.000230673
-0.000517829
2.91728e-05
-7.9051e-05
-0.00058017
-4.59895e-05
-6.76287e-05
0.000368069
0.000584325
-5.28422e-05
-8.79055e-06
-1.9143e-05
1.21106e-05
0.000514186
-0.000540634
2.46832e-05
1.7642e-06
2.6754e-05
-0.00032948
0.000235454
0.000273558
0.000466272
-7.83048e-06
-8.20807e-05
2.90915e-05
6.08197e-05
0.000427872
-0.000119065
0.000136212
-0.000420572
0.000702005
3.80129e-05
-0.000151765
-4.08195e-05
3.97715e-05
-0.00014345
-4.81359e-05
-0.00105534
0.000943602
7.46405e-05
2.94552e-05
4.40732e-05
-4.80724e-05
-2.54561e-05
-7.24598e-05
8.39003e-05
-7.05379e-05
5.90974e-05
6.21642e-06
-0.000306825
-5.10084e-05
-6.86791e-05
0.000377657
-0.000150157
-0.000675318
0.000174841
0.000601564
-0.000101087
-0.000211856
0.000713601
4.51502e-05
-0.000546896
-0.000313933
0.000885184
6.21225e-05
-0.000633373
-6.10504e-05
6.52517e-06
8.2793e-05
-2.82677e-05
0.000110974
0.000529341
0.000128233
0.000603756
-7.73972e-06
-4.62328e-06
4.39297e-06
7.97004e-06
-0.000251881
-0.000241944
0.000175488
-5.67226e-05
-7.31642e-05
-8.96847e-05
-8.03388e-05
0.000714763
1.89196e-05
-0.000653343
0.000657598
2.07376e-05
-1.61912e-05
-0.000662145
0.000511904
-2.60526e-05
3.17056e-05
-0.000517557
0.000222801
-0.000132304
-0.000144648
5.41516e-05
-0.000554645
-9.09263e-05
1.49543e-05
0.000630618
5.04826e-05
4.21637e-06
-9.50274e-06
8.4633e-05
-4.40702e-05
-3.36323e-05
-6.9305e-06
0.000133858
-0.000112653
3.03737e-05
-5.15793e-05
0.000178786
-0.000143267
-7.06814e-06
2.12974e-06
-6.70179e-06
0.000227819
-0.000420835
0.000494296
-0.00080744
-9.10587e-05
0.000223181
6.60233e-05
-8.06428e-05
-5.01244e-05
-0.000175735
-4.35539e-05
-2.06731e-05
0.000239962
0.00023588
-7.6548e-05
9.18765e-05
0.000675057
-5.44168e-05
-0.000712517
0.000740413
-0.00060215
-0.000750466
3.15975e-06
1.68928e-05
6.33387e-06
-2.63864e-05
-0.000733727
0.000233611
0.000477764
2.2353e-05
-5.96096e-06
-3.18209e-06
5.96257e-05
-0.000619926
0.000189474
0.000536034
-0.000270784
0.00023499
0.000497967
-0.000744629
-0.000156135
0.000402797
-3.7962e-05
0.000115908
-0.000347998
0.000270052
8.47213e-05
-0.00037975
0.000726708
-0.000673391
7.49154e-05
0.000549323
-0.000510962
7.26125e-05
0.000639655
-0.000540271
-6.49204e-05
-3.44631e-05
0.000101673
0.00154235
-0.00121022
-0.000433811
0.000593891
-0.000820327
0.000349946
-6.72259e-06
1.31622e-05
3.70604e-05
-4.35e-05
0.000114351
-3.14293e-05
4.30964e-05
-3.70658e-05
9.36448e-05
0.000529841
-0.000639079
0.000109238
-0.000402758
0.000288359
-0.00127079
0.00138519
-0.000439427
-3.0697e-05
0.000602084
-0.00013196
0.000221304
-0.000185853
-0.000387439
-7.18652e-06
-1.78464e-06
1.80612e-07
4.63608e-05
2.3874e-05
9.07231e-05
-0.00132967
0.0011676
-0.000247661
0.000409729
0.000379567
-0.000324333
-0.000130211
7.49775e-05
0.000135192
-0.000554743
0.000533902
-0.000114351
-0.000136416
-7.30357e-06
9.45402e-05
4.91793e-05
-2.62596e-05
4.24303e-07
0.000354515
-0.00032868
0.000599151
3.18087e-05
-4.48663e-05
-0.000545016
2.45247e-05
-3.27889e-05
-0.000362167
-0.000189432
0.000214384
-0.000975813
-0.000170477
0.00027979
-5.60533e-05
4.56862e-05
-0.000183644
0.000685716
-0.000180231
-0.000585824
3.59433e-05
-2.71529e-05
8.50466e-06
-0.000397592
0.000276951
0.00034636
0.000303178
0.000361316
-0.000585068
-7.94261e-05
0.000113605
0.000163114
-0.00101045
3.59735e-05
-1.54831e-05
-2.76769e-05
-9.35e-05
-0.000193047
-0.000403045
0.00032501
0.00052008
-0.000442046
-0.000251927
4.57226e-05
4.69671e-05
0.000159237
-0.000717991
0.000466524
-0.000385234
-0.000175629
0.000163271
0.000110044
-3.72364e-05
-0.00049269
0.000437037
0.000358167
-0.000302513
-0.000267209
0.00027532
1.47582e-05
-2.2869e-05
-0.000129383
-4.09265e-05
2.65076e-05
-0.000243528
-0.000434334
7.06883e-05
0.000724962
0.000491057
0.000775357
-0.00041769
-0.000848724
-5.59405e-06
3.22466e-06
1.26457e-05
-1.02763e-05
1.35698e-05
0.000707501
-5.01661e-06
4.46044e-05
0.0005701
-8.99029e-05
-2.91988e-05
1.69974e-06
-0.00055611
0.000583609
-2.3354e-05
2.31147e-05
-0.000260045
0.000260284
0.000426347
-0.000167325
0.000334868
-2.42773e-07
-0.000691818
-1.64663e-07
4.64891e-05
-0.000568484
0.000758287
-0.000236292
0.000615844
0.000117357
-0.00013405
-0.00052642
2.78934e-05
-0.000246386
-0.00044845
0.00033267
-0.000172685
0.000671944
0.000227449
-0.000155088
0.000523377
0.000181034
-4.7088e-05
3.00076e-06
-3.79935e-05
-4.00956e-05
-3.0422e-05
5.64325e-05
-3.9602e-05
-1.30978e-05
-0.000463102
0.000332623
-0.000118032
-0.000161045
7.08667e-05
0.00020821
3.04017e-05
0.000107402
3.71472e-06
-0.000141518
-5.63577e-06
-8.72955e-06
-9.16349e-05
4.36845e-05
8.62482e-07
3.94293e-05
-6.62388e-05
2.20031e-05
-4.12478e-05
0.00029786
-0.0005176
0.000260988
8.30848e-05
-0.00042983
-0.000238322
-6.42184e-05
0.000428183
-0.000384962
2.09978e-05
0.000154706
9.69805e-05
-0.000136335
-0.000115352
-1.37427e-05
-0.000242135
4.71975e-05
-8.68223e-05
6.00725e-05
-2.04476e-05
5.81631e-07
0.00019986
0.00011066
-9.0007e-05
-0.000220513
8.05204e-05
-4.78359e-05
-0.000418703
0.000455981
-0.000295792
-0.000339115
2.47024e-05
6.72603e-06
-1.58293e-05
-1.55991e-05
7.48206e-05
-0.000614226
-2.25831e-06
2.30534e-06
-4.07046e-05
4.06576e-05
-0.000257582
0.000908668
-0.000280207
0.000239784
-2.63705e-05
6.6794e-05
-0.000311605
0.000736889
0.000595176
0.00019593
-0.000175262
0.000826515
-0.000424857
0.000888609
-1.84585e-05
3.28214e-05
0.00044963
-0.000463992
-2.64925e-06
4.78929e-05
-5.08377e-05
6.82057e-05
1.95871e-05
-7.61374e-05
0.00059506
-0.000783868
-0.00096499
0.00119025
0.00055861
-0.000407656
0.000409356
-0.000266799
0.000384155
6.89748e-05
-4.58601e-05
-2.60376e-05
0.00040029
-2.10104e-05
0.000452081
-3.4647e-05
-6.47276e-05
0.000436545
-0.000439899
-0.000499446
0.0005028
-2.20651e-05
-0.00042423
0.000503049
-7.88191e-05
-5.91661e-05
6.97847e-05
-0.000583545
-0.00014455
-0.00129471
0.000655389
0.000198482
-0.000469266
-0.000394803
-1.28532e-05
7.68567e-05
-7.8819e-06
1.17265e-05
5.59374e-07
-9.06122e-06
-1.59794e-05
2.11099e-05
-3.83357e-05
6.68841e-05
3.24905e-05
-0.000699716
0.000249393
-0.000162035
0.000612358
-0.000571301
0.000457377
0.000167147
-0.000203924
-7.58759e-05
1.09474e-07
4.59647e-05
1.35605e-05
-5.96347e-05
-0.00032844
0.000254435
0.00018376
-0.000109754
0.000317505
-0.000185272
0.000428892
-0.000561125
-0.000547315
0.000496201
0.000216138
6.00109e-05
-0.000171226
-0.000104923
5.18554e-05
-8.90784e-05
8.92113e-05
-5.19883e-05
0.00033777
-0.000418825
2.18892e-05
-2.20339e-05
0.00031625
-5.31119e-05
4.34037e-05
-1.45926e-05
0.000927804
-0.000839168
-0.000506327
0.000537972
0.000376681
-0.000739812
0.000321074
0.000116452
-0.00082707
4.47315e-05
-0.000802235
0.000420025
-1.37383e-05
-0.000175694
0.00037808
-0.000353555
7.37437e-05
-8.32139e-05
-5.67808e-05
-5.03889e-05
1.23943e-05
3.34762e-06
-9.55938e-05
-8.13023e-05
0.00012832
4.85758e-05
-2.7666e-05
5.71722e-05
4.74554e-05
-7.69616e-05
5.81034e-05
-1.07931e-05
-4.73103e-05
-0.000559649
0.00140178
-0.00109971
0.000526223
-0.000567609
-0.000649713
-3.28017e-05
-4.39904e-05
5.33075e-05
-5.97477e-05
-0.000130374
0.000132553
5.75683e-05
1.37704e-06
-5.52831e-05
0.000247647
-0.000193741
-0.00088444
0.000913323
0.000372119
-0.000401002
-0.000210616
0.000142304
-0.000836516
0.000904828
-0.00108593
0.000530088
0.000745314
-0.000134708
0.00044623
-0.000351425
0.000709436
0.000128808
0.00028489
-0.000152069
-0.000261629
7.26764e-05
-0.00045096
4.96449e-05
0.000328639
0.000632535
-3.76876e-05
7.23633e-06
-5.39257e-05
5.23823e-05
4.56972e-05
-4.41538e-05
0.000690674
-8.2876e-06
0.000313753
-0.000996139
-0.000138779
0.000185817
-4.56607e-05
2.62796e-05
7.87995e-07
8.89261e-05
-4.57145e-05
-7.20989e-06
2.53545e-06
-0.000930105
-6.91237e-05
0.000121738
0.000877491
-0.000977232
0.000478674
0.00100115
-0.000502592
9.41697e-05
-0.000454296
0.000571961
0.00057301
-2.58494e-06
4.36108e-07
-6.57645e-05
0.0001462
0.000384668
-0.000465104
6.22618e-05
-0.000537051
0.000506598
-0.000474285
-0.000194332
0.000143999
-0.000174383
0.000759238
-0.000852997
0.000343151
-0.000207595
0.000289248
0.000354892
0.00121185
-0.000557923
0.000262514
-0.000916446
0.000438998
-7.37134e-05
-0.00025168
8.84362e-05
-2.95122e-05
1.50496e-06
0.000112599
3.61836e-05
-0.000150287
0.000113357
-6.81019e-06
-9.96428e-05
-6.90438e-06
2.99342e-05
-8.62503e-05
-7.30392e-06
6.36201e-05
-0.000411706
-2.68795e-06
-0.00043433
0.000302109
0.000120815
0.000289306
-0.000450742
0.000511691
-0.000350256
0.000479548
0.00110141
-3.86034e-05
-7.93905e-06
6.60425e-05
-0.000567006
-1.73745e-05
0.00079351
-0.000681169
0.000387865
-0.000500206
-0.000151648
-0.00079689
-2.72747e-05
0.00023271
0.000501181
-0.000522863
-0.00069776
0.001548
0.000361617
-3.84769e-05
-0.00115159
0.00131378
-0.000123707
-2.88109e-05
0.000112245
0.000100311
-0.000160173
0.000149673
0.000206438
0.000405167
-0.000309283
-7.96164e-05
-0.000478306
0.00133991
-0.000546518
-0.00149116
0.000360707
-0.000451636
6.7534e-05
1.59001e-05
0.000341381
-7.4524e-05
5.90463e-05
-4.73043e-05
0.000600616
-7.82446e-05
-0.000287152
0.000350352
1.50445e-05
6.38962e-06
-0.000101765
-5.23253e-05
0.000275058
3.01201e-05
0.000681273
-0.00063267
-0.000516661
0.000468058
0.00068019
-0.000866833
0.00064176
-0.000455117
-0.00017239
9.27735e-05
0.000210514
0.000607771
-0.000467872
0.00032049
0.0010607
0.000307899
-1.38228e-05
0.000496852
-0.000277887
-0.000218965
0.000582596
-0.000839954
-0.000251917
9.88788e-05
-4.12946e-05
-0.000457992
-0.000116976
6.90465e-05
0.000505921
0.000215008
0.000376274
-0.000415235
0.000708395
-0.000211543
-0.00021494
-1.45106e-05
0.000228703
0.000485664
-0.000691897
0.000209329
-0.000113378
5.63887e-05
-0.00015234
-5.9613e-05
0.000185354
2.43014e-05
-0.000150043
0.000261376
-0.00011166
5.27818e-05
0.000313609
-0.000105015
-0.000220299
1.12054e-05
0.000244868
-3.57748e-05
1.78375e-05
0.000386933
-0.000140108
2.21575e-05
0.000205474
0.000159302
8.49186e-06
0.000261313
3.18817e-06
0.000191121
-1.23235e-05
1.16296e-05
1.49274e-05
-1.42335e-05
-0.000116846
6.95421e-07
0.000137508
-2.13572e-05
2.12807e-06
-0.000163777
0.000148562
1.30875e-05
2.956e-06
-0.000102482
-1.73203e-05
1.33567e-05
-9.5588e-06
-1.41365e-05
1.03386e-05
9.52612e-06
-1.52854e-05
8.98478e-05
-8.40886e-05
2.54897e-05
-0.00011138
-0.000260311
0.000968706
8.03751e-06
9.31352e-06
-3.99436e-06
8.88481e-05
-7.9322e-05
-4.3504e-06
-1.7109e-06
3.1551e-05
8.14452e-05
3.4157e-06
-0.000530083
0.000101573
-0.000510633
0.000939143
-3.6553e-05
0.00012978
-0.00114387
-0.000209637
0.00113346
0.000220041
-5.28961e-05
1.75201e-05
6.61248e-05
-3.07487e-05
0.000575095
-0.000286136
-0.000819043
3.32391e-05
0.000145215
-0.000286793
0.00011672
0.00021504
-4.49673e-05
0.000119417
-9.08485e-05
-0.000124536
9.59672e-05
1.21105e-05
4.06114e-05
-9.86129e-07
-5.17357e-05
-5.69126e-05
0.000733581
-0.000495546
0.000471873
-4.71778e-06
7.12387e-05
-0.000232661
-0.000306855
0.000279466
0.000260051
0.000202028
8.14688e-05
0.000203475
-3.79999e-05
3.10439e-05
-0.00011849
2.77174e-05
1.06727e-05
-8.1165e-05
2.96294e-05
-0.000103593
0.000155129
-2.90068e-05
-2.91695e-06
-5.89247e-05
5.75954e-05
-9.132e-05
-2.87912e-05
2.96461e-05
-8.20198e-05
-0.000703841
-1.68533e-06
-2.63411e-06
-2.44718e-05
-2.36723e-05
8.88198e-06
9.63062e-06
-0.000101199
7.61279e-05
1.14194e-05
2.66363e-05
1.5096e-05
-6.25535e-05
1.56643e-05
1.41006e-05
-4.60024e-05
3.75085e-05
-1.91296e-05
-6.824e-05
4.98612e-05
-5.18141e-05
3.30418e-05
3.48688e-06
2.86074e-05
-0.000200997
0.00109344
5.12366e-05
-0.00114468
0.000146907
-0.00016681
0.000247723
8.36881e-05
5.16004e-06
-3.13627e-05
-0.000125678
3.87886e-05
-8.79395e-05
4.91509e-05
0.000128666
1.48964e-05
-5.0539e-06
-1.27735e-05
-2.03002e-05
4.37197e-05
-5.60432e-05
5.81712e-05
0.000101589
-0.000144864
7.1626e-05
-0.000101136
0.000141254
9.52491e-05
-8.95967e-05
0.000187432
2.72435e-05
-0.000187921
0.000175517
-0.000186316
0.00111071
0.000172918
-0.000235999
0.000204335
0.000158115
0.000133497
-0.000104181
0.000137361
-0.000228371
9.33785e-05
-2.36829e-06
-0.000117929
0.000255825
0.000136423
-0.000274319
0.00012668
-0.000183505
-3.94281e-05
9.62244e-06
2.98056e-05
0.00141883
-5.444e-05
-3.50941e-05
7.30508e-06
3.94186e-05
4.36147e-05
1.05007e-07
-8.02905e-05
-6.09282e-06
0.000129865
-4.34821e-05
4.89727e-05
0.000311726
-9.24353e-05
4.18664e-06
0.000150488
-9.54994e-05
9.05472e-05
-1.06787e-05
1.10563e-05
3.97604e-06
0.000122698
-0.000154016
0.000145963
-0.000223643
0.000174155
0.000110197
-6.93434e-05
0.000143582
-3.14122e-05
-0.000147553
0.00015959
-8.31992e-07
7.06175e-06
8.18122e-06
-1.39198e-06
7.87476e-06
1.89132e-05
-2.5396e-05
-1.86732e-06
-0.000127848
1.52922e-05
-7.11551e-05
0.000187761
-0.000105048
0.00016117
7.95967e-05
-0.000124009
9.81551e-05
2.4919e-05
5.59513e-05
6.27116e-05
4.93056e-05
1.64856e-05
7.11405e-05
-5.45482e-05
-0.000311
2.90764e-05
0.000336472
0.000300331
-6.43376e-05
-0.000259336
2.33433e-05
0.000119223
0.000169983
-0.000104593
-0.000184614
0.00012799
0.00106238
-0.000401633
-0.000893467
-6.93241e-05
0.000343302
2.63528e-05
-0.000169962
0.000224848
0.00111527
0.000252014
-0.000128426
7.85632e-05
7.47823e-05
2.13091e-05
6.91112e-05
-4.58213e-05
1.62681e-05
0.000337453
-9.40422e-05
-0.000121568
4.56474e-05
0.000479341
-9.05101e-06
-0.000129526
-5.80627e-06
-1.36663e-06
0.000166763
-0.000251309
-7.04483e-05
-0.000186075
-1.49558e-05
0.000201726
2.8013e-05
0.000475015
-0.000388512
-0.000114516
-9.61013e-06
0.000248672
0.000696924
-0.000253737
-2.39635e-05
0.00023274
4.49607e-05
-0.00013241
0.000410244
-0.000418929
-0.000185706
0.000472225
-0.000144663
0.00011902
-4.66668e-05
-0.000177401
-0.000172061
-0.000388231
-0.000130028
0.000440014
-0.000829756
0.000941563
0.000225653
0.000128328
0.000137002
-3.67252e-05
0.000286399
-0.000286405
2.80187e-05
0.000227099
-7.35303e-05
-0.000169487
1.59178e-05
0.000272996
-0.000117473
-2.29592e-05
1.11273e-05
-0.00107016
0.00103168
0.000249274
-3.73895e-06
0.00022948
9.87423e-05
7.49504e-06
-3.46488e-05
3.53349e-05
0.000706436
0.000709802
0.000201081
2.7056e-05
-0.000937939
-5.71887e-05
0.000111135
0.000336469
6.41651e-05
2.58734e-05
2.57253e-05
-4.3724e-05
-1.95346e-05
0.000495149
-0.000467237
-8.37734e-06
-0.000844315
0.000703772
5.63765e-05
-9.438e-05
8.62319e-05
-1.20851e-05
-7.60141e-05
3.14416e-05
1.33449e-05
4.49938e-05
-7.45495e-05
5.8163e-05
9.28949e-05
0.000380144
-2.82228e-05
-7.01449e-06
7.40258e-05
0.00106949
2.39502e-05
8.82227e-06
6.63268e-05
-9.85704e-06
-0.000173262
-0.000251869
0.00026623
-2.4218e-05
-0.00088685
0.00057028
-0.000680592
4.21685e-06
-0.000799857
-0.000495243
-0.000630849
0.000901802
-9.95404e-05
5.75159e-05
0.000149888
-0.000214547
1.30445e-05
-0.000161777
9.57451e-05
-0.000900964
0.000467991
5.68687e-07
-0.000957684
0.000666715
-0.000595881
2.95663e-05
-4.46465e-05
0.000696691
-0.000681611
0.000231343
0.000289575
4.41173e-05
-0.000359998
2.63054e-05
-4.749e-05
0.000124744
-8.18266e-06
5.93033e-06
-9.1277e-06
-6.65931e-07
-0.0002228
5.98605e-05
8.37099e-06
0.000116227
0.000400282
-0.000587383
-1.89616e-07
0.00040941
5.14972e-05
-8.68287e-05
-0.00055995
-0.000674385
0.00123254
6.26506e-05
-5.91649e-05
0.000524526
7.00294e-05
0.000564981
-0.000526893
-0.000108117
-8.85764e-05
0.000135128
-0.000976657
-4.34751e-05
2.9872e-05
0.000538129
-0.000510682
0.000126117
-0.000152287
0.000157395
-0.000131225
0.00147741
-0.000927643
0.000351194
-0.000900956
0.000438457
3.91739e-05
-0.000427137
-3.51307e-05
0.000737653
-0.000534893
-0.000343014
0.000140254
0.000219572
-0.000167061
-0.000160139
0.000608144
-0.000354596
-0.000359179
-5.2011e-05
-0.000159259
0.000218162
8.46025e-05
-0.000143506
-0.0012006
4.09696e-05
0.000104292
0.000810743
8.90858e-05
0.000206355
-0.00110618
0.000217697
1.20479e-05
6.72524e-05
8.48583e-06
4.90827e-05
0.000430354
-0.00089622
0.000565536
-0.00013733
-0.000258985
0.000138498
0.000257817
-0.00033964
0.000648072
-0.000654234
0.000678829
-0.000442671
0.000501107
5.28159e-05
0.00114779
-0.00114937
-0.000111248
-0.000208099
0.000938768
-0.000930598
-0.000320498
0.000543252
-0.000441187
0.000962107
-0.000995205
0.000912176
-0.000897804
-0.000360954
-8.51012e-05
1.62252e-05
-0.000187021
0.000102401
0.000152153
-4.67322e-06
0.000186598
4.51748e-05
-9.4669e-05
-3.71524e-05
-0.000105642
0.000118073
0.00014874
-0.0001664
-0.000357543
0.000181687
-9.474e-05
-0.000766867
-0.000185403
0.000672297
-0.000784978
-0.000497351
-0.000611789
0.000816119
0.000776715
-7.32395e-05
-0.000165504
6.61855e-05
-0.000881449
5.59183e-05
-9.75702e-05
9.22457e-05
-0.000871181
1.05587e-05
1.40647e-05
0.000839893
-0.000864517
-1.22986e-05
3.64493e-05
0.000746097
-0.000782546
-0.00022404
5.33913e-05
-0.000162067
0.000592244
-0.000200839
-0.000128102
-7.05328e-05
-0.000569601
-0.000234392
0.000411666
-0.000403957
-3.54779e-05
0.000809612
-0.000764406
-0.000698221
-0.000841096
0.000972923
0.000566395
4.68627e-05
-3.11032e-05
0.000923008
0.000146103
0.000219792
0.000973716
-0.00102584
0.000700079
-9.48012e-05
-0.0010551
0.0010996
5.03003e-05
-0.00114064
-1.16192e-05
6.92262e-05
-6.44126e-05
-0.000532606
-0.000204651
0.000551552
4.5489e-05
-0.000466588
-0.000157036
0.000493596
-0.000340735
9.43165e-07
-0.00103295
-0.000487612
0.000471172
0.000145248
-4.19121e-05
-4.11511e-05
9.93313e-05
-0.000505881
-0.000193126
-0.000176359
-0.000724324
-4.28327e-05
0.000767157
1.41522e-06
-3.29054e-06
-3.20536e-06
0.000275321
-0.00126676
-5.34669e-05
0.0010449
-0.000449416
8.53171e-06
-1.07991e-05
-6.58643e-06
0.000522759
-0.000505374
-5.03388e-05
4.60875e-05
-0.000942921
-7.32419e-05
3.06301e-05
-7.89558e-05
-4.62675e-05
-1.79024e-05
2.69335e-05
0.000617016
-0.000331794
0.000119991
0.000266074
0.00034181
0.000170677
1.71572e-05
5.70117e-05
0.00015916
-0.000416727
-7.08736e-05
0.000121597
-0.000213726
9.58439e-05
-0.00010532
0.000141826
3.43602e-05
3.63898e-05
-5.55199e-07
-9.61407e-06
4.16179e-05
-3.99429e-05
-0.000272737
0.000406628
-0.000149267
1.53756e-05
0.000857132
-0.00082329
0.000580938
3.54056e-05
0.000206946
-2.80936e-05
0.000222889
-3.41071e-05
3.21026e-05
-1.39749e-05
9.20317e-06
-6.85756e-05
1.27056e-05
1.38275e-05
-2.98948e-05
1.60673e-05
-6.31954e-05
5.38212e-06
-5.27616e-05
3.20124e-05
2.07491e-05
-6.50117e-05
5.8317e-05
6.69464e-06
-4.08199e-05
-0.000255042
-5.227e-05
4.68816e-05
5.38842e-06
1.05919e-05
-0.00110115
0.00117495
-0.000486668
-0.00150733
-9.35816e-06
2.31857e-05
-7.17343e-05
0.000216993
0.000127533
-5.49512e-05
-7.61532e-05
2.33917e-05
-7.94912e-06
0.000671351
-0.000652383
-0.000223618
2.26543e-05
6.04707e-06
3.76569e-06
-0.000287397
-0.000181807
-0.000177053
0.000250535
0.000150551
4.4669e-05
-7.64026e-05
4.66828e-06
-0.000182612
0.000160288
-1.47066e-06
-0.000429076
5.23056e-05
0.000439032
-0.00021211
0.000215048
0.000701527
-8.59729e-05
-4.39112e-05
8.49275e-05
0.000659063
0.00109587
-0.000852811
0.000691613
7.02856e-05
0.000408952
-0.00031571
5.4995e-06
-1.12313e-05
-9.08251e-05
0.000117674
0.000113058
-0.000170472
-6.02588e-05
-0.000104336
-8.55624e-05
-0.000450717
2.17724e-05
-0.000605598
-0.000139775
9.44835e-05
0.00065089
0.000926365
3.89675e-07
-6.30588e-05
4.58473e-05
2.04973e-05
4.62542e-05
7.20893e-05
-6.0468e-06
0.000204927
-0.000432513
-0.000329253
-9.95128e-05
8.56898e-06
0.000218477
-0.000185407
0.000202375
-4.17019e-05
-0.000103473
7.65992e-05
2.66325e-06
-0.000364404
-0.000627067
0.00057265
0.000867478
2.16036e-06
-0.000144194
-1.49977e-05
-0.000674991
0.000410555
-2.79502e-05
-0.000294653
0.000266913
-0.000195959
0.000327448
-0.000186495
0.000211867
-0.000110411
8.50394e-05
2.80562e-05
1.31883e-05
2.64142e-05
-0.000144389
0.000120958
2.34307e-05
5.10563e-05
-5.83879e-05
7.33159e-06
9.63812e-06
-8.59018e-05
6.0242e-05
-7.57643e-05
0.000601836
0.000211581
-3.59874e-05
6.84667e-05
8.74978e-05
-7.45193e-05
-0.000294514
0.000303259
-3.15142e-06
-0.00110125
-3.93406e-05
0.000114748
0.00120926
-0.00115282
3.71976e-05
-2.95371e-05
4.74017e-05
0.000105019
-7.53945e-05
0.000122717
0.000425714
3.35392e-06
-1.09429e-05
0.000435772
-0.000283909
-0.000391894
4.28817e-06
-0.000781726
-0.000454361
-0.000255538
-0.000139797
5.72477e-05
-0.000324305
4.85518e-05
-2.0018e-05
-8.71111e-06
-1.98228e-05
-5.38837e-06
0.00011781
3.20457e-05
2.4653e-05
-0.00017441
-0.000328791
0.000107436
0.000499142
-4.01031e-05
1.02083e-05
-0.000103157
-0.00101172
-3.40462e-05
5.61446e-05
2.66119e-05
-7.03885e-05
-5.95904e-06
-0.000156066
-6.15045e-05
0.000210556
-8.74682e-05
0.00027686
-0.000331536
8.78046e-06
-0.000102435
-1.22827e-05
2.94646e-05
-9.04238e-05
-0.000130493
0.000553407
-1.93843e-05
3.45162e-05
-0.00019465
-0.000230858
-0.000771055
0.000982232
-0.00071359
0.000361021
-0.000488527
7.02008e-05
0.00079401
-0.000107626
0.000158896
9.27294e-05
-2.04134e-05
-6.65327e-05
4.29556e-05
0.00016552
-3.99185e-05
6.95188e-06
6.68028e-05
-9.82019e-06
-0.000131532
0.000703662
-0.000184766
-0.000679035
0.000230087
0.000119624
0.000115201
2.27875e-05
2.82688e-05
-0.000111377
0.00117344
2.33172e-05
-0.000126177
-0.000622779
-1.34747e-05
-0.000932121
0.000571316
-1.75643e-05
0.00015985
-1.68797e-05
0.000188265
-6.27004e-05
-0.000146581
0.000195251
3.24835e-05
1.73491e-05
3.01818e-05
0.000532198
7.22781e-05
-0.000204027
0.000328331
6.82231e-05
-7.45646e-05
-4.97119e-05
-0.000272104
8.78261e-06
2.94436e-05
-5.9001e-06
-9.16702e-06
4.46966e-05
0.000392562
-0.000483611
-3.94448e-05
-0.000692631
-0.000518464
0.000440041
-4.53631e-05
7.96276e-05
0.000105947
-4.70004e-05
-6.44e-06
5.35212e-05
-0.00022974
0.000142924
-0.000134228
0.000422714
-1.95985e-06
0.000129984
-8.61709e-05
7.86852e-05
-0.000128849
6.77842e-06
-6.3604e-06
0.000769095
-0.000451517
-0.000175274
0.000431333
-0.00036633
-1.59922e-05
-0.00014672
9.13245e-05
0.000450192
-0.00118093
-0.000280984
-0.000160698
0.000271754
-0.00032912
-0.000125855
-0.000555208
0.000469884
-0.000155462
-5.53553e-05
4.12712e-05
-0.000477033
-0.000524507
-0.00123109
-3.70558e-05
3.3095e-06
-0.000166277
-1.09951e-05
3.07587e-05
-2.28985e-05
3.13487e-06
0.000170815
-0.000147436
-2.36375e-05
0.000233688
-0.000257886
-0.000160589
0.000472444
-0.000377619
0.000152204
-7.916e-05
-0.000467434
0.00100911
-0.000963826
2.99113e-05
0.000380574
-0.000245928
-7.31408e-05
7.36051e-05
3.57193e-05
-1.94028e-05
6.02056e-06
1.15976e-05
-0.000106916
-0.00145942
-0.000821886
-0.00038069
0.000312083
6.46283e-05
-2.77372e-05
1.72023e-05
-0.000121939
-2.60036e-05
-7.5195e-06
-3.14017e-07
-0.000210335
-5.81048e-05
2.07713e-05
-8.72656e-05
-0.00055827
0.00057184
-0.000503791
0.000567385
4.45512e-06
-0.000496513
0.00043685
5.96623e-05
-0.000440744
-6.30474e-05
-3.89331e-06
-0.000677406
0.000677163
-0.000552289
0.000567233
-1.49436e-05
-0.000507685
-0.000629308
-4.80979e-05
0.00064975
0.000622766
2.69838e-05
-0.00055862
-0.000428635
0.000488835
-0.000443069
-4.57658e-05
-0.000331919
-9.67168e-05
-0.000238876
-9.30421e-05
0.00017766
-0.000131937
-6.12169e-05
0.00060928
1.34858e-05
0.000626207
-1.69271e-05
0.000645127
1.69459e-06
0.00052305
-0.000371084
7.30446e-05
-9.55285e-07
-6.49417e-05
-0.00013385
6.75661e-05
-0.000238985
0.000146297
5.15376e-05
-0.000184668
0.00011482
-0.00023546
-0.000675493
0.000190171
-2.32812e-05
7.34109e-05
0.000456469
-0.000565422
0.000139496
-0.000179673
0.000138022
0.000139733
9.97907e-05
2.11673e-05
-0.000836926
-3.76247e-05
-7.97081e-05
0.00011896
-7.60286e-05
9.5816e-05
-0.000782109
-0.00019301
-0.00149094
0.000535791
0.00027886
-0.000220137
-2.95505e-05
0.000639168
-0.000132597
0.000182887
-4.80431e-05
8.0935e-05
0.0010536
-0.00125658
7.90518e-05
4.56554e-07
-7.95084e-05
0.00125679
3.36193e-05
6.04032e-05
0.000207923
-0.000131776
7.48632e-06
2.93549e-05
0.000220976
0.000766791
-0.000776235
-0.000175321
-0.00021411
2.65989e-05
-0.000373367
0.000205747
0.000697461
0.000790759
-0.000795406
0.000106007
-7.51319e-06
8.52564e-05
-3.3143e-05
0.00027517
-0.000163591
0.000173311
-0.000527345
-0.000780633
-0.000212831
-7.02305e-05
0.000170325
-7.57392e-05
0.000123632
-0.000218217
0.000233309
0.000221354
-0.000214879
8.70696e-05
-6.98664e-05
-8.40145e-05
-0.000224078
0.000585044
0.000125289
2.42223e-05
-1.48898e-05
-1.41271e-05
3.55151e-05
0.000163158
0.000280434
-0.000398336
-6.63367e-06
-0.000129146
0.000683817
0.000579472
-0.000200717
-9.9864e-05
-0.00052428
-0.000599346
0.000590295
-0.000169972
9.27394e-06
-0.000722625
0.00052814
-0.00015694
-0.000332387
0.000192627
5.05199e-06
0.000111313
0.000348145
-0.000504222
-6.81556e-05
0.000205638
2.03256e-05
-0.000114191
0.00013117
-0.000571326
4.80991e-06
-4.22913e-05
-3.10164e-05
0.00039683
0.00011916
0.000417229
0.000437305
-0.00013362
0.000130028
0.00046381
-0.000485021
-0.0001011
1.88654e-05
-4.27277e-06
-1.20572e-05
-0.000279162
-6.41007e-05
5.09498e-07
-0.000467888
-0.00134582
0.00111223
0.000225687
-0.00013187
0.000675278
0.000200195
6.85626e-05
5.37424e-05
5.33223e-05
-0.000191208
0.000268632
-3.56867e-05
1.25505e-05
4.04854e-05
5.34245e-05
-7.40213e-05
-7.40722e-05
5.65922e-05
-6.15959e-05
0.000123076
0.000761776
0.000500277
-0.000401774
-3.35902e-05
0.000234312
-0.000171072
-0.000335343
-0.000161573
0.000247239
-0.000244521
2.08679e-05
-8.86055e-05
6.59223e-05
0.000241367
-0.000300126
-7.16394e-06
-5.3004e-05
-4.5655e-05
1.73398e-05
2.20895e-05
-0.000176893
0.000140566
0.000227835
-0.000119363