/*--------------------------------*- C++ -*----------------------------------*\
| =========                 |                                                 |
| \\      /  F ield         | OpenFOAM: The Open Source CFD Toolbox           |
|  \\    /   O peration     | Version:  v1912                                 |
|   \\  /    A nd           | Website:  www.openfoam.com                      |
|    \\/     M anipulation  |                                                 |
\*---------------------------------------------------------------------------*/
FoamFile
{
    version     2.0;
    format      ascii;
    class       volVectorField;
    location    "0.95";
    object      U;
}
// * * * * * * * * * * * * * * * * * * * * * * * * * * * * * * * * * * * * * //

dimensions      [0 1 -1 0 0 0 0];


internalField   nonuniform List<vector> 
1466
(
(2.67232 -0.190262 -1.79627e-16)
(4.72114 -0.108301 -3.18697e-19)
(-2.79677 -0.187994 4.88312e-16)
(0.0390291 9.31852 -3.79957e-17)
(-0.53086 -0.860997 -6.46522e-16)
(-2.12707 0.113475 -9.03966e-16)
(-0.905268 0.323324 2.14618e-16)
(3.21936 -0.36558 1.31934e-16)
(7.36962 0.110813 -8.8268e-19)
(4.82369 -0.170776 1.34924e-16)
(5.90498 -0.230012 -1.83363e-16)
(5.05467 -0.510654 0)
(8.38618 0.0647901 0)
(-0.187447 -1.38771 -1.51004e-16)
(-1.21337 0.137202 0)
(4.57106 -0.49686 1.41835e-16)
(2.38703 -1.52523 -8.72172e-17)
(0.0307553 5.25973 -2.51664e-17)
(0.916476 5.58235 -8.03042e-17)
(-0.0779414 7.45765 1.34536e-16)
(0.104274 7.54568 5.89799e-17)
(-2.14577 0.0442546 5.38272e-18)
(0.0157826 6.18282 -5.60961e-17)
(-0.114319 7.20472 -1.45755e-17)
(8.26394 0.142201 7.37507e-17)
(-0.323445 0.0688232 -2.77352e-16)
(-1.40464 0.579171 -1.23262e-16)
(-0.106518 7.66026 0)
(-1.70805 -0.0144918 0)
(4.74269 2.35707 5.09939e-17)
(6.03666 -0.636858 1.21801e-16)
(-0.468419 -0.0415066 1.68434e-16)
(-0.691714 -0.961311 2.14791e-16)
(-0.378081 6.44407 1.3863e-16)
(4.23885 -0.205096 9.3937e-17)
(-0.922863 1.02272 2.28497e-16)
(-0.304511 5.78516 0)
(2.22484 -0.664219 -2.55004e-16)
(5.21199 0.178839 -2.66787e-16)
(-1.61259 -0.0814728 -3.6355e-16)
(-1.85341 -0.0303278 -1.39628e-16)
(-2.9799 0.0205319 -3.04193e-16)
(-3.10733 -0.096497 1.6604e-16)
(-1.85972 -0.136979 1.23894e-18)
(-0.900603 -0.28618 -4.1174e-18)
(3.01324 0.00117787 0)
(6.14843 0.102814 6.88841e-18)
(1.45153 -0.109758 0)
(-1.87461 -0.32718 1.25904e-16)
(0.606628 -0.233828 0)
(-1.22942 0.298352 -1.01602e-16)
(4.62402 -0.069371 -3.44761e-16)
(-2.26942 -0.0866802 6.02309e-16)
(0.0524238 -0.413839 6.40384e-16)
(-1.24963 -0.550521 -9.68731e-17)
(6.39435 -0.0465876 1.23085e-16)
(3.01954 -0.0636567 -1.86694e-17)
(5.80723 0.00685499 0)
(-0.203908 -0.0922335 1.16231e-17)
(4.76247 0.0224287 0)
(0.339249 -0.036372 2.12959e-19)
(-1.19064 0.130841 -1.1269e-16)
(-1.0684 -0.252232 1.79243e-16)
(4.11079 -0.194561 1.33795e-16)
(1.4136 5.60958 -1.76384e-16)
(1.98971 0.556516 2.20216e-16)
(-0.347151 1.97212 0)
(-0.0358046 5.25802 2.73942e-17)
(7.25402 0.509722 2.90067e-17)
(-2.09526 0.124523 -1.59121e-16)
(1.20034 0.817472 1.17866e-15)
(-0.116851 5.98035 0)
(-0.0325287 5.86631 0)
(8.17392 0.212415 -1.51802e-16)
(0.0636188 -0.357071 2.92885e-16)
(5.90865 -0.0606391 -1.13533e-16)
(-1.25975 0.0693522 9.72864e-17)
(-0.922743 -0.46657 -1.02262e-16)
(-1.36487 -0.160273 0)
(3.75936 0.780091 0)
(4.34916 0.0132858 -1.25405e-16)
(4.80186 -0.37109 -1.72796e-16)
(-1.7618 1.24475 -2.45664e-16)
(0.917788 3.28887 2.5954e-16)
(-0.125497 5.26935 1.14992e-16)
(0.582177 5.79459 4.22377e-17)
(-0.441065 7.73302 0)
(3.54739 0.263263 1.65937e-18)
(4.9894 0.1027 2.47858e-16)
(-0.173244 0.487891 -3.08052e-16)
(-0.0890315 0.0636808 -9.8843e-17)
(-2.07504 0.379084 -2.20595e-16)
(0.152498 7.08726 -4.20541e-17)
(1.72904 -0.828473 -1.9593e-16)
(1.71102 -0.455665 0)
(-2.11167 -0.355486 -3.25523e-16)
(4.50297 -0.128561 3.01998e-16)
(6.19266 -0.0353184 -7.15434e-18)
(6.56328 -0.125491 3.07586e-16)
(-1.02407 -0.419634 9.18671e-17)
(-1.83127 0.253914 4.98806e-16)
(-0.607128 0.0201347 0)
(1.48501 -0.0290271 3.7305e-16)
(-1.06967 -0.525102 3.27929e-16)
(-3.02329 -0.150914 -1.24284e-16)
(3.56946 0.16838 6.13578e-17)
(-2.35017 -0.165713 -2.27521e-17)
(0.913043 -0.305673 0)
(5.21787 -0.424701 1.74696e-16)
(2.7116 0.00481804 6.64062e-17)
(0.193621 -0.00272559 -2.76705e-16)
(4.66443 -0.0872011 3.70782e-17)
(2.0666 -0.395334 -3.33106e-17)
(-3.23453 -0.008897 -3.82847e-17)
(4.25048 -0.33931 0)
(0.511466 0.0669781 8.98935e-17)
(-2.79848 0.165126 1.41237e-16)
(3.7863 -0.0223876 0)
(-1.29286 0.18652 1.52021e-16)
(-1.28516 0.127547 -6.22911e-16)
(-0.264294 9.095 -2.95422e-17)
(-0.366535 -0.338216 3.09966e-16)
(0.144937 -1.02124 -1.10609e-15)
(-1.65696 -0.242903 0)
(-0.278282 -0.26029 -8.08278e-16)
(-1.19667 1.0603 -5.88193e-19)
(6.39747 0.954605 4.67961e-17)
(-0.247002 5.79249 -6.13892e-17)
(-0.078075 7.05064 2.30264e-17)
(0.854997 0.472978 1.76828e-16)
(5.04505 -0.0315035 2.04041e-17)
(-2.4301 0.182201 0)
(-0.152253 6.31209 3.87491e-17)
(-0.145513 7.25472 3.05415e-17)
(-0.020575 -0.0308072 -1.60434e-17)
(-1.48952 0.0615999 0)
(-1.44656 0.0545695 0)
(0.658523 -0.53801 -1.01442e-17)
(-1.71118 0.0580872 -9.4103e-17)
(-1.63194 0.00797961 1.95666e-16)
(-0.16243 -0.32153 0)
(-0.0479352 7.67241 -5.80161e-17)
(-0.111549 6.52186 -2.7239e-17)
(0.35903 5.23984 -2.23506e-18)
(-1.56951 -0.49673 -2.23832e-16)
(0.942544 6.4877 8.8932e-17)
(-0.469454 -0.0479926 -2.89244e-16)
(0.542625 0.0699435 -4.49712e-16)
(1.53226 0.705144 -6.98065e-17)
(-1.01188 -1.04666 1.14655e-15)
(0.0136081 0.0398805 1.84474e-16)
(3.39071 -0.124807 -5.22715e-20)
(6.8437 0.818979 -1.37551e-19)
(0.809694 0.129383 0)
(1.57757 0.696831 0)
(-2.08911 0.135173 2.08998e-16)
(-0.199743 7.52691 -1.41083e-17)
(-0.44933 8.52521 -1.31284e-16)
(-0.198944 0.00842085 1.08815e-15)
(5.46296 3.72375 6.70491e-17)
(-0.454237 -0.0060346 1.27394e-16)
(5.32385 1.28736 0)
(0.56906 3.04064 7.39786e-17)
(-0.174976 6.80319 5.30472e-19)
(2.59081 2.61752 0)
(-2.67506 -0.228057 1.39843e-16)
(-0.0938955 6.57915 0)
(-0.206987 4.88762 1.87986e-16)
(-0.145334 6.57296 -2.86245e-17)
(2.03079 8.81759 5.65053e-17)
(-0.10645 6.74317 1.931e-16)
(-0.40642 0.0774535 -1.22121e-16)
(0.960294 -0.102945 4.83294e-17)
(7.16165 0.664074 -1.51528e-17)
(3.87404 -0.00646205 -2.35873e-16)
(7.67053 0.138686 -2.92865e-16)
(5.09712 2.92746 1.6259e-16)
(3.59861 1.64753 -7.44449e-17)
(0.053094 0.0263738 -3.7468e-16)
(0.932755 1.13864 -2.45981e-16)
(8.64845 0.162728 3.59254e-16)
(3.95122 -0.132745 -2.43826e-17)
(-0.0794146 4.81092 -1.79409e-16)
(0.925654 0.237042 2.86186e-16)
(3.80632 0.179802 -4.2003e-17)
(0.188667 5.51543 -2.87045e-18)
(-0.13396 5.18976 -1.13343e-16)
(2.00214 4.57787 -1.43443e-16)
(7.09595 0.337505 7.17347e-17)
(-1.46025 -0.0614798 3.87163e-16)
(-0.052603 6.86737 -1.29805e-16)
(0.381032 -0.0939317 1.65301e-19)
(0.575885 4.10289 6.71535e-18)
(0.77183 6.14618 2.30929e-16)
(5.84266 3.25873 -3.97001e-17)
(0.319486 0.106422 0)
(-1.52836 0.249954 3.28383e-18)
(3.45088 1.19057 -3.5613e-16)
(1.30239 2.29617 -2.6088e-16)
(1.68892 5.8467 -4.68777e-16)
(0.352727 3.17966 0)
(1.16098 0.553311 0)
(5.33736 2.15791 -5.10553e-21)
(0.320348 2.26319 0)
(1.36186 0.60675 2.06121e-16)
(1.66447 1.84193 -1.85972e-16)
(0.582227 6.86238 -1.03744e-16)
(6.74036 3.59676 0)
(-0.0454068 0.0805423 1.38869e-16)
(-0.0585799 7.34724 2.25481e-19)
(0.548719 5.98969 7.50742e-17)
(-0.078974 5.32982 -1.07927e-16)
(-0.240513 2.37483 0)
(-0.151971 7.16473 1.41817e-16)
(0.248531 7.3294 -3.65314e-17)
(-0.159317 6.55183 2.34584e-19)
(-0.00143466 5.52463 2.96089e-18)
(-0.139965 5.02918 -9.91295e-17)
(3.59493 4.12822 1.44208e-16)
(-0.115149 6.90789 2.11022e-16)
(-0.273909 5.42008 -1.42365e-16)
(0.552005 0.011973 -1.25759e-16)
(-0.138139 6.36828 -2.12838e-16)
(0.572288 0.152956 2.49474e-16)
(-0.151462 6.44389 9.14109e-17)
(3.52636 3.60463 -1.51943e-16)
(-0.850731 -1.36778 4.94394e-16)
(0.763227 0.63233 -2.74117e-16)
(0.0150662 0.0752859 -3.02543e-16)
(0.52067 -0.0231744 -3.34552e-20)
(0.69197 0.355253 -6.27671e-16)
(4.08324 0.0838365 2.26641e-16)
(1.00707 5.02203 1.15079e-16)
(0.561762 3.28394 2.07959e-16)
(-0.927935 0.778023 5.51181e-17)
(2.0833 1.35448 -7.42575e-16)
(-0.100879 6.51887 3.99899e-17)
(0.0182447 5.03295 1.78691e-17)
(0.613551 0.269162 2.48395e-16)
(-0.0540729 6.53703 2.46816e-17)
(0.184346 1.80349 0)
(4.15112 0.722377 4.75727e-17)
(5.68435 3.08694 8.66054e-17)
(2.30688 4.35459 2.11969e-16)
(0.144127 0.198909 0)
(5.74065 1.1814 0)
(-0.430214 -0.0272742 0)
(8.5724 0.333046 0)
(2.88315 0.802676 -1.24761e-16)
(5.94888 3.55124 -7.8641e-17)
(-0.0505765 6.15604 -5.38466e-17)
(1.21185 6.05612 -2.50485e-16)
(6.93249 4.19618 3.32847e-18)
(3.65822 -0.893648 -1.10213e-16)
(-0.486817 0.0458635 3.11214e-16)
(0.375456 0.00785613 -2.8025e-16)
(-0.254464 7.65851 0)
(8.93908 3.9531 -1.85055e-16)
(-0.0356759 3.85383 -7.39285e-17)
(-0.0919357 2.43359 1.13866e-16)
(-0.00300993 -0.566837 0)
(-0.195729 6.42197 -2.45785e-17)
(-0.132619 7.21709 -3.89385e-17)
(0.550256 -0.0630055 1.9312e-21)
(4.28604 3.79355 1.06492e-17)
(0.794673 0.0210162 -3.10685e-16)
(4.06616 -0.0740763 2.40304e-16)
(1.55111 0.768413 -1.23489e-16)
(0.494124 6.69562 -1.88357e-17)
(9.27282 3.57717 -8.89024e-17)
(1.77622 4.15246 -1.24106e-16)
(-0.0678291 3.81105 0)
(-0.281409 -0.636661 7.09693e-18)
(0.0131678 0.101052 -1.78374e-16)
(-0.107708 -0.0162817 -4.04502e-16)
(0.737498 0.218217 4.80789e-16)
(0.248417 0.0886849 -2.60183e-16)
(2.69853 5.23803 -1.28453e-16)
(-0.176134 6.20898 -1.28559e-16)
(1.98726 0.845307 1.90153e-16)
(0.399405 -0.0528851 2.26073e-16)
(1.97873 -1.09649 2.52808e-17)
(2.44556 3.67154 0)
(5.19834 0.512235 -4.25806e-17)
(0.19603 -1.64586 4.91253e-16)
(0.554289 -0.466431 -1.76267e-16)
(2.60486 1.26059 0)
(2.67737 1.23889 -3.43549e-16)
(-0.185689 -0.204958 0)
(7.84551 4.05118 -2.94263e-16)
(7.60384 1.16878 1.51161e-16)
(2.03902 -0.13712 -1.42754e-18)
(8.57377 0.125185 -3.7691e-16)
(-0.526186 -0.119924 0)
(3.85656 5.76355 1.1138e-16)
(1.01873 2.44631 -3.9235e-16)
(-0.0707066 3.50099 1.34783e-16)
(0.501531 -0.648221 4.42409e-17)
(2.52347 1.2152 8.451e-17)
(0.362009 -0.0449309 -2.76052e-16)
(0.195336 -1.22281 0)
(-0.800021 -0.0418423 1.93993e-16)
(-0.440862 -0.212771 0)
(8.75657 0.394434 -2.27112e-16)
(-0.389024 8.38364 0)
(0.350485 0.407655 1.06655e-16)
(0.364486 -0.978696 1.50161e-16)
(0.175757 -1.36691 -2.49734e-17)
(3.25433 8.41393 -2.81728e-17)
(-0.252132 7.30934 7.06885e-17)
(6.99332 1.87307 1.64902e-16)
(-0.385366 4.40757 0)
(-0.10062 6.56634 -1.87319e-19)
(3.06019 0.341338 -1.51503e-16)
(3.80855 1.84654 -2.01527e-16)
(4.82862 2.85169 -3.03277e-16)
(-0.167537 -0.0204089 0)
(5.2957 3.52154 2.27788e-16)
(-0.0575828 -0.992021 0)
(-0.639438 0.174816 3.21328e-16)
(0.0171141 -1.32734 0)
(-0.0820158 3.70587 -1.41205e-16)
(0.0709657 1.91875 -7.07028e-17)
(0.254147 -0.0266762 3.53849e-16)
(-0.319332 8.7434 -2.03568e-17)
(7.835 5.23345 -9.19291e-17)
(0.706161 -0.328642 -8.99116e-17)
(4.84772 3.7218 -2.27763e-16)
(-0.0278126 -0.0499617 -2.93549e-16)
(3.06886 0.12443 1.82803e-16)
(0.0541838 5.75979 1.00819e-16)
(7.89478 4.63952 5.57967e-16)
(-1.649 -0.91765 -3.78356e-16)
(3.57233 7.14997 2.40413e-17)
(2.35148 2.66739 -1.67585e-16)
(7.15694 1.7511 6.85855e-17)
(2.42254 1.41508 -4.36864e-16)
(0.6516 0.162917 4.33409e-16)
(0.820099 -0.586363 -2.46186e-16)
(-0.689801 -0.76725 -2.10189e-16)
(0.319627 -0.702336 5.50177e-19)
(6.49376 3.14782 7.33953e-17)
(1.29029 -1.4517 4.21732e-17)
(3.22999 3.26503 -3.58559e-17)
(1.62262 8.75725 -6.12156e-17)
(-0.64033 -0.130193 -9.83758e-17)
(5.45177 0.412921 -2.00148e-17)
(3.9125 6.09335 -8.3612e-17)
(6.79227 0.212397 2.66841e-17)
(2.8007 2.23771 1.81886e-16)
(6.27902 4.55149 -2.13856e-18)
(8.5913 2.7444 -5.21201e-17)
(-0.0336732 10.4089 -6.38071e-17)
(0.813641 0.88484 1.34416e-17)
(-0.841962 -0.962489 0)
(0.941632 1.56108 2.38456e-16)
(-0.426842 3.55586 -2.29252e-16)
(3.53556 0.443944 6.51616e-18)
(9.53686 2.49659 0)
(3.54944 7.39831 2.52035e-17)
(-0.400286 -0.352338 0)
(1.33893 2.84459 1.1171e-16)
(1.93703 4.88466 1.14376e-16)
(0.0383818 2.52156 0)
(-0.304159 -0.643558 -3.10848e-16)
(-0.00758789 2.02593 4.46048e-19)
(7.07429 2.93793 5.85808e-17)
(7.25976 2.50285 5.07856e-17)
(-1.03565 -2.03349 1.70628e-16)
(2.82212 6.8461 4.1175e-18)
(3.06933 8.9057 0)
(0.757519 2.35279 1.18713e-16)
(1.37964 2.93266 -3.48135e-17)
(3.05265 8.39241 -3.32978e-18)
(-0.158372 -1.52117 5.95111e-16)
(-0.232921 4.41282 4.17656e-17)
(3.09142 -0.524842 -2.66946e-17)
(1.23636 5.36002 7.72267e-17)
(1.26839 -0.958353 6.05929e-16)
(4.03006 4.58884 -9.03958e-17)
(0.139134 1.6008 1.078e-16)
(0.219258 1.44954 -3.51785e-16)
(0.0923262 2.11932 -2.05185e-16)
(0.0322914 2.53371 2.86348e-16)
(0.0519016 2.04567 0)
(0.129917 1.79619 1.65985e-16)
(0.71811 -1.96371 -2.05519e-17)
(0.302904 -2.21131 -2.04683e-16)
(0.0144448 -1.57887 1.76559e-16)
(0.164972 -1.18047 -4.67492e-17)
(0.0767984 -0.143756 2.18062e-17)
(0.117025 1.07015 5.19463e-17)
(-0.0387288 1.43785 -6.57498e-17)
(0.0773775 0.945916 -6.14446e-17)
(-0.0841936 -0.123494 2.07671e-19)
(-0.0143782 -0.717708 1.48202e-16)
(0.067333 -0.676935 -6.01493e-17)
(1.23555 7.08879 -3.11493e-17)
(-0.0433429 -0.101583 8.19218e-17)
(-0.148264 -0.787079 0)
(0.25756 0.0480465 -2.17456e-16)
(0.589079 0.12341 2.43765e-16)
(1.60743 8.96492 0)
(-0.928533 -0.522409 2.73769e-16)
(1.19473 9.73602 -2.06577e-17)
(-0.0373451 -0.142957 6.18661e-19)
(1.64159 7.76772 -3.26663e-16)
(-0.226655 0.509711 -1.23993e-16)
(2.31704 -0.355915 0)
(1.55454 -0.0984944 1.08535e-16)
(-0.0153235 0.392122 -1.50006e-16)
(1.39147 6.88698 -1.46289e-16)
(1.09847 3.56479 2.63293e-16)
(0.770597 -0.1512 6.16241e-16)
(2.90554 1.48268 -1.1726e-16)
(-0.651462 -1.37814 0)
(-1.26932 -0.831557 0)
(1.01378 0.959318 1.36163e-16)
(0.211932 0.170589 0)
(0.937518 -0.00801501 0)
(0.234981 0.15722 -1.84238e-16)
(-0.525732 0.0857658 4.06157e-16)
(0.609094 0.0453647 0)
(1.03789 4.58495 1.07443e-16)
(-0.00429814 0.164687 1.52524e-16)
(0.17708 -0.0117311 -2.53818e-20)
(-0.280603 0.56192 4.47389e-16)
(2.06926 0.440072 2.74985e-17)
(-0.338048 0.255706 -8.27082e-16)
(-0.22255 0.192884 4.35272e-16)
(0.642885 -0.107069 0)
(0.0129445 -0.46755 -5.23951e-20)
(-0.426442 -1.03786 5.78933e-16)
(-1.67614 10.2904 1.90379e-17)
(2.16836 -0.0338785 -5.10444e-16)
(-0.0259128 -0.769273 -4.33809e-16)
(-0.510628 -0.683751 7.90427e-17)
(-0.0333634 -0.773059 -8.11965e-17)
(0.000456385 -1.19635 3.35157e-16)
(0.0276088 -0.140225 -3.77174e-16)
(-0.1481 -0.043608 4.9267e-17)
(0.239427 -0.491735 -1.02133e-16)
(0.904586 -0.282551 2.7837e-16)
(-1.14765 -0.557661 0)
(1.35003 -0.0292977 -3.0796e-16)
(0.967011 -0.289606 1.69919e-16)
(8.55873 0.0932932 8.02417e-17)
(2.19199 -0.0951645 0)
(1.11357 -0.512488 -1.01289e-16)
(1.71322 -0.42166 1.64051e-16)
(2.56045 -0.140381 6.96715e-21)
(1.69168 -0.729597 -1.25568e-16)
(0.0418929 -0.255637 -5.21775e-17)
(8.7545 0.136789 3.65361e-17)
(0.0661941 0.322892 -2.28351e-18)
(0.00976065 -0.417865 6.31553e-18)
(0.440571 1.09485 0)
(-0.927514 1.86989 0)
(0.012032 -0.382699 0)
(1.47628 -0.0856297 2.71572e-16)
(-0.326358 -1.49385 -4.80851e-16)
(0.0128785 -0.118558 -2.75714e-17)
(-0.340658 1.46449 -1.98491e-16)
(-0.535486 2.35714 5.61866e-16)
(1.0775 -0.991151 2.22558e-16)
(0.918262 -0.891323 -1.60308e-16)
(0.101097 1.38864 -1.23595e-16)
(0.0636067 -0.085964 -4.1832e-17)
(0.250105 0.0482993 -8.49538e-17)
(0.197581 1.2338 6.64504e-17)
(0.139093 -0.0176223 1.74774e-16)
(0.309126 1.42246 -1.49289e-18)
(-0.498271 -1.3631 -6.23179e-16)
(0.454349 0.663405 7.21053e-19)
(1.07958 -0.0885493 1.56775e-16)
(0.265256 -0.908801 9.45912e-19)
(0.495063 -0.837567 -2.49337e-16)
(0.462323 2.83491 0)
(0.571024 2.36732 0)
(1.41681 1.21036 -9.50484e-18)
(2.5414 7.48758 -9.149e-17)
(-0.203448 4.87238 1.90192e-16)
(-0.118941 8.32878 -1.28641e-16)
(0.510638 2.78292 8.22345e-17)
(0.942163 1.59982 -3.25971e-17)
(6.85299 4.74754 -1.8148e-16)
(0.285307 -1.17687 -1.76814e-16)
(0.486341 -0.520624 2.35509e-16)
(0.57607 2.40632 -1.12318e-16)
(1.5756 5.11551 1.06755e-16)
(0.892033 1.09618 1.40885e-16)
(-0.111946 7.71685 3.65119e-17)
(1.05613 -1.87905 -1.8685e-16)
(0.0404856 1.47634 1.18813e-16)
(0.56375 2.20562 0)
(0.00784305 1.71968 2.74728e-17)
(-0.182113 3.60731 0)
(-0.00634808 2.18476 6.44539e-18)
(4.53225 2.74165 0)
(-0.0534855 2.28278 6.36152e-17)
(-0.0295135 2.92696 0)
(-0.127971 3.94278 0)
(-0.381463 2.79344 -1.46707e-18)
(-0.0551264 -1.30058 2.6289e-16)
(0.0227447 1.29598 -2.57504e-16)
(0.026332 3.49763 0)
(2.32278 8.06913 0)
(1.99827 -0.0657989 2.26166e-16)
(0.91885 -1.08308 1.22062e-16)
(-0.0965222 2.65328 0)
(1.75826 -0.0549428 2.84476e-16)
(0.863528 2.10016 -1.51607e-17)
(0.148199 2.3437 5.47728e-17)
(-0.698691 9.29903 -6.65086e-17)
(-0.210908 3.62219 -8.78781e-17)
(-0.0353134 2.50997 -9.8892e-17)
(0.0860275 0.32933 -2.6531e-17)
(8.81288 0.141425 -3.39542e-16)
(8.15663 0.246895 8.5396e-18)
(2.05512 -1.06264 5.75909e-16)
(-0.0871857 3.05581 -5.00265e-18)
(0.484829 0.103293 3.17218e-16)
(0.106769 4.36122 6.31369e-18)
(5.78227 4.83207 0)
(0.676357 2.52865 0)
(0.204855 0.758039 4.10319e-17)
(0.302601 0.307313 0)
(0.208633 -0.956564 -4.3389e-16)
(0.106705 0.82672 -5.44879e-17)
(0.391596 3.1963 -1.06874e-16)
(0.409316 -0.495517 2.08145e-16)
(-1.1979 10.3044 -2.20481e-17)
(0.220564 0.767785 -2.64629e-16)
(-5.30454e-06 1.60405 0)
(-0.0692646 2.35733 0)
(0.175841 0.334501 -5.15777e-17)
(5.25606 6.16487 0)
(2.34419 6.64925 0)
(0.0393405 0.320993 0)
(-0.0371648 7.72859 -1.37758e-16)
(6.78448 5.47765 7.29994e-17)
(-0.621623 -1.1174 -2.54356e-16)
(0.165671 1.54081 -2.40335e-16)
(-0.0183399 1.4351 1.83124e-16)
(0.0496907 0.857451 6.73837e-17)
(4.50595 7.15222 -3.28869e-17)
(0.037594 0.883507 1.98402e-18)
(6.58861 6.20254 -3.83699e-17)
(-0.222273 6.45892 -4.53225e-17)
(1.33691 -0.010656 1.25936e-16)
(2.33092 -1.26245 2.03345e-16)
(0.503693 -1.14382 9.44639e-17)
(0.434414 0.00501543 -4.72193e-17)
(-0.0473201 2.26757 -9.70307e-18)
(-0.812497 9.78796 2.70038e-17)
(-0.147713 3.14025 1.49504e-16)
(-0.116734 2.76643 -1.49643e-22)
(-0.0197346 1.48428 2.80048e-17)
(2.04538 -0.288112 1.31439e-16)
(7.48056 5.82298 -1.63533e-16)
(0.264316 3.57026 1.31599e-17)
(-0.398401 -0.546795 2.04496e-16)
(0.790323 -0.05248 2.89716e-16)
(4.37354 4.74541 2.7439e-17)
(8.22898 0.329813 -2.95355e-16)
(-0.0551029 0.564085 6.97557e-17)
(0.00482358 1.5309 7.14817e-18)
(0.00586745 4.72687 -1.2118e-17)
(2.60547 4.93064 5.98622e-17)
(-0.270043 5.32513 8.62686e-17)
(-0.303553 8.77164 1.8646e-17)
(-0.0327194 5.0542 0)
(0.810099 0.409434 0)
(3.86366 1.98376 4.8564e-16)
(0.985917 1.51957 -6.50791e-18)
(-0.545623 9.07646 4.84769e-17)
(8.74314 3.56523 -4.01244e-17)
(-0.206426 4.21986 2.25878e-17)
(-0.0825369 2.48215 -1.24518e-17)
(5.06111 -0.648894 2.55051e-16)
(1.24789 1.73201 -5.48061e-17)
(-0.308414 5.55505 -4.00306e-17)
(-0.165326 3.36534 9.0912e-17)
(0.158137 3.26076 -1.51324e-16)
(0.0352631 1.7503 2.00013e-16)
(0.907781 2.07887 6.27636e-17)
(-0.320716 9.29777 3.81216e-20)
(8.99015 1.83415 1.10178e-17)
(0.00653851 1.88753 -1.64298e-16)
(-0.0457531 0.613431 -1.1057e-16)
(-0.431251 7.95989 -7.65133e-17)
(5.51978 6.92189 0)
(-1.24651 -1.37137 0)
(-0.145259 3.22343 -9.53399e-17)
(0.213532 6.73347 2.3076e-19)
(-0.140563 6.63714 3.07002e-17)
(1.56455 5.45143 7.4533e-17)
(-0.506496 10.5801 5.02918e-18)
(1.57256 1.35544 2.34292e-18)
(-0.320539 8.62923 1.58617e-17)
(4.27008 2.34293 0)
(8.55175 4.69195 -5.37991e-18)
(8.32444 4.33752 -7.8558e-17)
(3.723 8.13776 3.13123e-18)
(0.902458 3.75732 -7.06521e-17)
(-1.08983 -1.0854 -1.82456e-16)
(1.79516 -0.034333 -2.06188e-16)
(0.789218 0.163726 -1.33095e-16)
(-0.784049 -0.936251 -1.0359e-16)
(-0.0565271 3.50941 0)
(0.495506 1.34576 7.32961e-18)
(0.139365 6.56164 0)
(6.35775 6.32682 0)
(5.81305 5.25518 4.11783e-17)
(-0.00523365 6.39721 0)
(5.77451 3.93365 1.0817e-16)
(4.12325 2.11058 -1.31638e-16)
(5.55401 5.84339 4.86392e-17)
(7.31714 1.34181 0)
(-0.45064 9.43925 -6.71705e-18)
(4.34673 7.67621 1.13717e-17)
(0.412733 -0.915824 3.45688e-16)
(1.09444 -0.0648863 -1.48814e-16)
(7.32019 5.41886 2.25197e-16)
(7.16681 0.110969 -5.62965e-18)
(-0.12679 3.12067 1.0019e-16)
(-0.428349 6.91737 1.00932e-16)
(-1.17191 -1.41718 1.06486e-16)
(-0.728319 -1.26954 -1.82064e-16)
(-0.273228 4.66081 0)
(1.35945 0.698092 -4.94296e-17)
(7.6026 3.48974 1.06578e-16)
(7.35471 1.67509 -1.10254e-16)
(7.64519 4.71534 6.35785e-17)
(-0.176848 4.10161 -4.86706e-17)
(9.04151 2.86554 5.70068e-17)
(-0.563212 9.37004 -9.16033e-19)
(-0.279039 8.88506 -2.15343e-17)
(2.82652 1.11083 3.90311e-16)
(-0.126298 9.06189 3.68287e-17)
(-0.228454 6.74809 4.58132e-17)
(0.518619 8.85675 2.92162e-17)
(0.129747 10.7081 5.30665e-18)
(0.64666 0.14098 2.15702e-16)
(-0.214806 5.20433 -8.22865e-17)
(8.20879 5.17329 -9.56173e-17)
(-0.708451 -1.6352 1.06232e-16)
(-0.0286326 4.57745 0)
(-0.0599211 10.8133 2.36803e-18)
(5.006 6.85868 -2.40467e-17)
(-0.151934 4.07675 -4.62619e-17)
(8.63044 0.379715 4.13283e-16)
(4.00687 0.311665 2.47724e-19)
(0.133969 -0.947434 2.61625e-16)
(0.143522 0.377139 2.25235e-16)
(-0.159429 4.70262 1.60862e-16)
(0.855534 -0.996908 1.6663e-16)
(-0.178136 6.41085 1.18205e-16)
(-0.0276331 -0.0604878 3.69785e-16)
(9.41033 1.1636 6.81924e-17)
(0.251589 4.04464 -7.75883e-17)
(4.54871 0.0087832 4.97647e-18)
(0.13847 -0.676738 4.50868e-16)
(8.65194 4.14911 0)
(0.774164 0.575219 0)
(0.465283 0.26256 1.65623e-16)
(-0.529456 3.69559 1.05867e-18)
(1.93605 0.691804 0)
(2.83058 -0.287914 0)
(1.30645 -0.999435 0)
(0.221184 -0.828949 -4.7055e-17)
(0.551955 0.132452 5.67067e-17)
(2.45264 -1.37938 0)
(0.794942 0.268189 8.68246e-16)
(-0.68726 -0.911002 -9.0335e-16)
(-0.135717 -1.6429 1.36626e-16)
(-0.25539 0.0417268 -2.79725e-16)
(-0.46627 -0.145102 2.56925e-17)
(2.61137 -0.0109465 1.07634e-16)
(8.06321 3.03198 2.65565e-16)
(-0.13721 8.73394 3.7356e-18)
(-0.444355 -1.86568 -1.91449e-17)
(-0.434414 -0.00575371 8.91386e-16)
(0.0151469 -0.556913 0)
(-0.215415 0.102168 -3.88988e-16)
(0.358958 -0.0410859 2.78e-16)
(0.513667 0.190002 0)
(-0.662194 0.0493629 2.13839e-16)
(1.91565 0.886625 9.98315e-18)
(-0.55397 0.0449836 0)
(0.00258374 0.269618 1.17345e-16)
(8.13788 2.44857 -3.89673e-17)
(8.58122 3.63418 -1.78293e-16)
(2.03003 9.35204 -1.16287e-16)
(-0.00563096 0.124991 3.74002e-16)
(-0.718878 0.0473835 -7.40949e-16)
(1.78608 9.90081 -6.77792e-17)
(1.56729 -1.47979 -9.74437e-17)
(0.756977 0.191797 -5.64709e-18)
(0.289477 3.05213 8.25529e-17)
(-0.283909 6.56856 1.23404e-16)
(0.269671 0.151985 0)
(-0.607868 0.0465561 1.9811e-16)
(-0.0244175 -0.0471701 0)
(-0.0145292 3.00019 0)
(-0.058182 2.57365 1.13651e-16)
(1.2283 0.311679 -1.7593e-16)
(0.107397 -0.67604 9.81128e-17)
(-0.77292 0.040373 3.58179e-16)
(0.0144788 2.42616 -9.81507e-17)
(0.227299 1.28243 0)
(0.213005 4.39595 1.00123e-18)
(1.92979 -0.470824 3.12265e-16)
(-0.18648 10.5425 1.95371e-17)
(-0.223526 6.9693 4.6804e-17)
(-0.229619 8.52257 1.17432e-16)
(4.28643 1.31028 -4.98441e-17)
(-0.0335311 3.5944 -1.623e-19)
(-0.303788 -1.33004 -1.57702e-16)
(1.6548 0.607845 -1.18326e-16)
(6.59791 -0.0663304 6.09585e-17)
(3.42294 -0.417705 -1.68595e-16)
(-0.531995 0.0956935 0)
(-0.0245647 3.5677 0)
(-0.308826 6.71048 0)
(-0.293742 6.36914 2.35419e-16)
(-0.126745 8.93477 -2.15843e-17)
(0.352065 0.610357 0)
(0.417235 -0.20887 0)
(-0.769603 -0.0765539 5.85645e-17)
(0.990006 -1.63152 8.21057e-17)
(0.0129398 4.13786 1.75149e-16)
(-0.111591 -1.34543 3.53824e-16)
(-0.747037 -1.23592 0)
(1.03633 -0.455943 -4.81742e-17)
(3.10887 1.97428 6.8369e-16)
(-0.116785 6.83305 -4.6287e-22)
(-0.316482 8.87569 0)
(-0.784157 0.662712 -2.46133e-16)
(-0.0843926 6.15999 4.22288e-17)
(-0.312525 5.23996 7.49482e-17)
(1.73391 -0.0185314 1.13567e-16)
(-0.182557 4.54105 0)
(-2.03635 0.0898136 1.4114e-16)
(0.255583 0.213596 6.75985e-16)
(0.10609 0.241992 3.52485e-16)
(1.50192 0.172158 0)
(0.0464163 -0.752414 2.90188e-17)
(0.070739 1.36621 -1.23822e-16)
(6.02321 1.06295 -1.00098e-17)
(-0.122087 8.79064 -1.20958e-17)
(4.78263 -0.879237 -3.11645e-16)
(-0.339285 0.0407074 1.6494e-19)
(0.460284 0.729649 1.42816e-16)
(-0.196067 5.67631 2.32402e-16)
(2.45431 0.428274 -1.13309e-16)
(1.26964 6.07713 1.15369e-16)
(-0.130976 9.16339 0)
(8.43726 0.907626 -1.21587e-16)
(0.173317 2.65467 -8.76971e-17)
(-0.107678 5.31352 5.70161e-17)
(0.305651 -0.421846 1.99562e-16)
(1.02441 0.250958 -6.37795e-20)
(3.38182 1.30505 -4.25138e-17)
(0.497656 3.58603 -5.22406e-17)
(5.54356 2.66775 0)
(-0.134327 7.48986 -1.90821e-17)
(2.76637 3.08864 0)
(1.20547 -0.953218 0)
(-0.0640252 5.33715 1.80703e-16)
(1.88196 -0.0283327 -7.7369e-17)
(0.254427 0.183204 -4.04507e-20)
(0.221475 -0.996711 2.60214e-16)
(-0.102667 -0.149138 1.94845e-16)
(-0.984109 0.365371 4.49777e-19)
(-0.111696 5.23359 -2.94478e-16)
(4.07403 1.88849 2.92578e-17)
(-0.376879 0.0755879 3.99337e-16)
(0.3253 0.978177 1.4872e-19)
(1.35044 6.44009 1.62516e-16)
(0.180806 0.386941 0)
(-0.11044 -0.563379 3.90327e-17)
(-0.0761302 7.58054 2.49362e-17)
(1.76265 -0.159452 -2.13472e-17)
(-0.220482 -0.765422 -7.36195e-17)
(-0.300726 -1.59229 -2.23998e-16)
(0.287387 0.0766807 3.51418e-16)
(-0.262755 4.54386 0)
(-0.0648742 3.31309 5.53437e-17)
(2.30409 8.12453 -1.40641e-16)
(0.314999 0.991099 1.23418e-16)
(0.636729 0.0240578 -4.35616e-16)
(-0.130667 5.4184 0)
(0.201405 -0.406007 -4.91497e-16)
(2.84407 -0.103075 -1.02182e-17)
(8.26482 1.47297 -6.10384e-17)
(-0.44627 8.04094 7.80402e-17)
(5.86396 -0.0985934 8.41748e-18)
(-1.29204 -0.419115 -2.25163e-16)
(0.404559 0.191706 -5.53842e-17)
(-0.070356 -1.0903 -2.84051e-16)
(-0.363077 -0.873562 -1.67375e-16)
(-0.3618 6.77078 7.95727e-17)
(-0.669525 -1.86006 -2.52564e-16)
(5.86085 2.62527 1.97549e-16)
(0.931996 -0.0543994 -3.48019e-16)
(-0.0737173 -0.64264 1.88937e-16)
(8.4166 0.504329 8.1593e-17)
(-1.6184 0.234575 3.42783e-19)
(-0.0770705 9.15408 7.6187e-17)
(-0.0659188 7.01822 4.40766e-17)
(-0.176737 8.30811 -5.72127e-17)
(-0.197789 5.64861 3.78392e-18)
(-0.112445 7.06454 9.21805e-17)
(1.2667 0.41716 -1.04363e-19)
(-1.71854 -1.19761 1.9415e-16)
(1.01314 -0.230282 -8.01944e-17)
(-0.118048 7.54539 0)
(-0.11251 -0.00848333 -1.92253e-16)
(-0.48612 8.93622 -4.76403e-17)
(4.62017 0.628057 -6.87816e-17)
(-0.0335064 4.04337 2.60699e-19)
(-0.603452 0.460261 -2.7251e-16)
(2.66461 1.09805 -9.9253e-17)
(0.424491 -0.363361 1.97836e-16)
(0.265435 0.0611707 1.88462e-16)
(-0.0865616 3.54568 0)
(8.72295 1.42493 0)
(8.15021 1.05279 4.47368e-17)
(-0.0979159 5.6461 0)
(3.35334 0.824643 0)
(2.0161 0.712445 -2.10429e-16)
(0.133954 0.427647 0)
(1.55323 -0.326486 9.62153e-17)
(3.06546 0.0342298 1.59911e-16)
(0.0423158 0.691768 6.81791e-19)
(-0.907858 0.652275 -1.03775e-16)
(-0.484731 0.0568418 -4.03782e-16)
(0.142499 -0.254536 -9.53175e-20)
(0.0566396 -0.0850209 0)
(0.00495103 0.524174 -7.23591e-17)
(-0.105734 5.41427 8.44385e-17)
(0.161393 3.88677 2.5622e-17)
(2.35128 -0.214849 -4.77368e-19)
(0.726822 -1.09911 0)
(2.09904 8.66219 2.76186e-18)
(1.71185 0.139552 -1.54543e-16)
(-0.416071 7.12331 1.45159e-16)
(4.38715 -0.0559835 0)
(-0.773912 -1.14524 -6.41133e-16)
(3.06192 -1.00432 1.68546e-16)
(5.53734 0.30538 4.10391e-17)
(0.0813176 9.47253 -4.91233e-17)
(0.117032 1.46047 0)
(0.0638943 0.0494674 1.48305e-16)
(1.21782 0.106296 6.32272e-16)
(2.67837 0.375203 -9.34629e-19)
(4.02301 0.105107 4.47239e-16)
(3.25416 0.0587929 5.89878e-17)
(-0.495731 10.4592 -9.67889e-17)
(0.574857 2.82392 -3.2159e-16)
(-0.355615 5.91688 -2.92553e-16)
(8.65381 0.240614 6.42876e-19)
(0.686301 0.05943 -5.85653e-16)
(-0.211365 -0.0431982 -1.27314e-17)
(1.08578 -0.195244 1.87096e-16)
(0.0309666 9.43166 5.29601e-17)
(-0.541924 7.06469 -1.88753e-16)
(3.004 -0.0613015 2.36246e-16)
(-0.00593109 2.10226 5.3219e-17)
(-0.0147161 0.705022 -8.151e-17)
(-0.581188 0.0541758 5.29295e-16)
(-1.08884 -1.03791 -9.52066e-17)
(-0.101609 0.0452569 -6.75152e-17)
(0.556921 1.95472 -1.21529e-16)
(0.576793 0.303126 4.04218e-19)
(0.0696283 4.19789 0)
(0.080209 6.17586 0)
(0.0492625 6.10909 0)
(0.0648783 6.13295 -3.76913e-17)
(-0.161767 6.05874 2.24556e-17)
(0.00110963 5.96448 0)
(-0.169717 6.46924 0)
(-0.0763408 5.92984 0)
(0.098457 7.44345 -7.82492e-17)
(0.064595 6.13545 0)
(0.168036 5.89242 0)
(0.155616 7.13669 7.89271e-17)
(0.0197215 7.48663 0)
(-0.0427717 7.43724 -3.5971e-17)
(0.191479 6.78066 1.92532e-17)
(-0.0352509 6.17326 0)
(0.304056 5.38197 -1.01691e-16)
(0.221027 5.96357 -3.72481e-17)
(0.221153 6.38719 2.26947e-17)
(0.451321 4.59942 1.13678e-16)
(0.548514 3.61135 3.48106e-17)
(0.647632 1.82932 1.88872e-17)
(0.601678 2.68436 -2.05898e-17)
(-0.0626598 7.382 3.75072e-17)
(-0.0618852 7.36607 0)
(-0.0501414 7.35208 0)
(0.0119775 6.05258 3.76751e-17)
(4.66129 -0.0689487 4.3592e-17)
(8.35119 0.0277871 -2.40522e-18)
(-0.780892 -0.0174102 -3.07708e-16)
(-0.512763 -1.55595 -8.85648e-17)
(0.923251 0.765859 -1.85457e-16)
(-1.4035 0.579335 -2.02353e-16)
(1.35319 -0.69578 2.87417e-16)
(0.288434 -0.990946 2.47067e-16)
(-1.64556 0.00278463 0)
(-0.262296 6.733 -1.46394e-16)
(0.210516 5.98107 -6.75596e-17)
(-0.278721 6.12068 -4.35423e-17)
(-1.32964 0.280889 -4.22051e-16)
(1.27102 0.19063 0)
(8.76481 2.18384 -1.03838e-17)
(0.451704 -0.6063 -1.50636e-16)
(0.920122 -0.186718 1.70629e-16)
(-1.26913 -1.15226 8.11463e-17)
(1.47292 -0.0618834 8.40367e-16)
(0.0461162 8.40136 1.00899e-16)
(3.13752 -0.0920982 0)
(2.34338 9.74931 3.13375e-16)
(-0.072182 5.38226 0)
(-1.85048 -0.23138 0)
(-0.054113 7.35546 0)
(-1.20537 -0.212936 7.91121e-17)
(-0.326791 -0.725024 1.79958e-16)
(8.93404 0.915184 -2.6273e-16)
(-0.85574 0.0357284 -2.08638e-16)
(8.78234 0.576498 -8.03193e-17)
(0.121082 1.7216 0)
(1.79065 0.0872613 0)
(-1.664 -0.897727 -1.11405e-16)
(-0.380391 7.90655 1.65022e-16)
(-1.09039 0.938973 0)
(0.319643 0.105325 -3.50262e-16)
(0.16437 0.209723 0)
(-1.15298 -1.21639 0)
(0.041388 0.148589 3.73083e-17)
(4.48283 0.280052 5.79944e-19)
(-0.324324 7.66446 -3.91044e-17)
(-0.945987 0.188492 -3.91169e-16)
(-0.895534 -0.0787042 2.76284e-16)
(2.72116 0.145063 -1.51222e-16)
(-0.0270336 5.33374 0)
(6.89861 0.168894 3.28808e-17)
(8.40882 1.90172 0)
(2.13514 0.916007 -3.54284e-16)
(1.60971 0.341068 -2.74736e-16)
(3.22403 1.03389 -3.20823e-16)
(0.850215 0.312463 -1.89035e-16)
(2.64017 1.01085 -1.68208e-16)
(0.9934 -1.3634 -5.57486e-16)
(-0.225243 -0.143319 -1.40143e-17)
(1.80522 -0.182221 5.61533e-17)