/*--------------------------------*- C++ -*----------------------------------*\
| =========                 |                                                 |
| \\      /  F ield         | OpenFOAM: The Open Source CFD Toolbox           |
|  \\    /   O peration     | Version:  v1912                                 |
|   \\  /    A nd           | Website:  www.openfoam.com                      |
|    \\/     M anipulation  |                                                 |
\*---------------------------------------------------------------------------*/
FoamFile
{
    version     2.0;
    format      ascii;
    class       volScalarField;
    location    "0.49";
    object      nut;
}
// * * * * * * * * * * * * * * * * * * * * * * * * * * * * * * * * * * * * * //

dimensions      [0 2 -1 0 0 0 0];


internalField   nonuniform List<scalar> 
1431
(
0.00131999
0.00214804
0.00224289
0.00158311
0.000792893
0.00171007
0.00392402
0.00078685
0.00502941
0.00736066
0.000640139
0.00080597
0.00115297
0.0013405
0.00398797
0.000681168
0.00408351
0.00189796
0.000394613
0.000549387
0.000771914
0.00709563
0.00267506
0.00144264
0.00146832
0.000541893
0.00146438
0.00124666
0.00100557
0.00170685
0.00153849
0.000727249
0.00193695
0.00104194
0.000960847
0.00193665
0.000894267
0.000857887
0.00352612
0.000856963
0.00242897
0.000474309
0.00146975
0.00263665
0.0036298
0.00171664
0.00231362
0.000816591
0.000914826
0.000869161
0.00171771
0.0065155
0.00367308
0.00257409
0.0030896
0.000773757
0.00376552
0.00233486
0.00101402
0.000576034
0.0032545
0.000510956
0.0022283
0.000783327
0.000906789
0.0017499
0.00230841
0.00118556
0.00386025
0.00075075
0.000930343
0.000888145
0.00104219
0.00213697
0.000747128
0.00116783
0.00116548
0.0029685
0.000785124
0.00218411
0.00080592
0.00235671
0.00105961
0.00286598
0.00219467
0.000919344
0.000995478
0.000723501
0.00155354
0.000694162
0.00135722
0.000756627
0.000955469
0.000861137
0.00205507
0.000942891
0.000764489
0.000728878
0.00123294
0.00115479
0.00407509
0.000806535
0.00172205
0.00071934
0.000978367
0.00194461
0.000786141
0.00306049
0.00218189
0.000943088
0.00251196
0.00132965
0.00075651
0.000697065
0.000947302
0.000668269
0.00200589
0.00315024
0.00167572
0.00277285
0.000857856
0.00313476
0.00519176
0.00142775
0.000831319
0.00218979
0.00181647
0.000766152
0.00180046
0.000810287
0.000820363
0.00289068
0.00101312
0.00150537
0.000899112
0.000854276
0.000953689
0.00230451
0.00161158
0.00284754
0.00468442
0.000478969
0.000770014
0.000977994
0.00114803
0.000775742
0.000733965
0.00316276
0.000826357
0.000824029
0.000819839
0.000959536
0.00335153
0.000613322
0.000342724
0.000809543
0.000803331
0.00113851
0.00075734
0.00071249
0.00193492
0.000750201
0.00180104
0.00076189
0.00100513
0.00307027
0.000991193
0.000862256
0.0015902
0.00138915
0.0011043
0.000833467
0.0014246
0.000769643
0.000771804
0.000447976
0.000511337
0.000874829
0.00163528
0.000710127
0.000839702
0.00406936
0.000755252
0.000869962
0.000773476
0.000830276
0.000754022
0.0011765
0.000597693
0.00079965
0.0058746
0.00409049
0.00105066
0.000790818
0.00550255
0.000844458
0.000785612
0.000841194
0.00049036
0.00050517
0.000629984
0.000664017
0.000766724
0.00234316
0.000786371
0.00187022
0.000956762
0.00083443
0.000820047
0.000878907
0.000789951
0.000783558
0.00170482
0.000831732
0.00121728
0.0013533
0.000758014
0.00508032
0.00149828
0.000833811
0.000830437
0.00226568
0.000777769
0.00210544
0.000825462
0.000874055
0.00100907
0.00102465
0.000839716
0.0016805
0.000928638
0.0010315
0.000747421
0.000797548
0.000790952
0.000784188
0.000737043
0.00186575
0.000827137
0.00264303
0.000842997
0.000732569
0.00540135
0.00337803
0.000877811
0.00089887
0.000830261
0.00206789
0.00171241
0.000998796
0.000725529
0.0052687
0.0078004
0.00110447
0.00250286
0.00109258
0.000518217
0.0029514
0.00112676
0.00110126
0.0010812
0.000866845
0.00129199
0.0045805
0.000790619
0.000817126
0.00102663
0.000745158
0.000949416
0.00520553
0.000743932
0.000975589
0.000727417
0.000726973
0.00107095
0.000764514
0.0016361
0.00294214
0.00249384
0.00647733
0.00466966
0.00268927
0.00143535
0.00155523
0.00102394
0.00126439
0.000922652
0.000754699
0.000925332
0.000833025
0.000776791
0.000868692
0.000746314
0.00418987
0.000736861
0.000745818
0.001216
0.000763009
0.002587
0.000705062
0.000844799
0.00105602
0.000878861
0.000749386
0.000707606
0.00209253
0.000828801
0.00109954
0.0011091
0.00152978
0.000836556
0.000783799
0.00279688
0.000833714
0.000939852
0.0018697
0.00568701
0.00253936
0.000795945
0.0032177
0.00190451
0.00257465
0.00378119
0.00218115
0.00590828
0.00350674
0.0008071
0.0035965
0.00183843
0.000831163
0.002437
0.000817445
0.00298298
0.00563257
0.000786525
0.00551084
0.00122618
0.00209158
0.00122161
0.00133698
0.000550567
0.000822838
0.00354736
0.000934218
0.00172084
0.000564957
0.00082608
0.000599655
0.000193483
0.000451767
0.000732642
0.000493654
0.000650055
0.000598567
0.000355063
0.000712869
0.000569665
0.00043153
0.000597878
0.000459476
0.000488955
0.000554635
0.000583234
0.000212672
0.000330001
0.000582474
0.000542138
0.000581118
0.00207549
0.00261561
0.00206373
0.00301717
0.00314334
0.000772087
0.00378931
0.00156566
0.00269487
0.000842264
0.000848854
0.000658016
0.000493142
0.000603219
0.000470206
0.000615323
0.00064467
0.000563869
0.000635628
0.000319571
0.000604947
0.000198848
0.000625642
0.00277025
0.000914535
0.000848693
0.00346536
0.000847852
0.00191437
0.000834656
0.00689042
0.000772332
0.000542501
0.00235894
0.000832725
0.00136505
0.00195126
0.000781119
0.00256233
0.000731499
0.00131265
0.00277221
0.000831707
0.000550105
0.00226872
0.00213611
0.00105307
0.00102169
0.00252453
0.00489867
0.00172539
0.00179071
0.00234696
0.00459301
0.00696907
0.00285097
0.00289056
0.00261825
0.00293757
0.00542961
0.00606276
0.00273138
0.00539947
0.00218076
0.000435903
0.00628971
0.00283931
0.00267667
0.00579248
0.0057843
0.0031395
0.00400053
0.00363992
0.00118112
0.00610661
0.00581679
0.000579375
0.00687162
0.00658015
0.00201245
0.000736899
0.00590755
0.00634451
0.00607403
0.00655148
0.00654556
0.00460721
0.00559079
0.00510115
0.0054251
0.00546088
0.00293795
0.0029858
0.000550439
0.00372941
0.00223298
0.00281342
0.00240074
0.00114464
0.00293208
0.00258377
0.00233119
0.00260396
0.00245706
0.000749524
0.00106906
0.00211567
0.00197437
0.00260538
0.00251752
0.00379346
0.000515103
0.00299558
0.00284565
0.00108009
0.000801161
0.000846883
0.00279877
0.00196826
0.00725563
0.00503697
0.000664712
0.000616364
0.000543972
0.0014754
0.0030206
0.000529956
0.00293728
0.00126348
0.00519454
0.000837181
0.00458619
0.00183226
0.00150333
0.00491127
0.00281921
0.00281509
0.00229191
0.0015668
0.00724137
0.00302567
0.00117065
0.00109827
0.00207648
0.000743712
0.00181418
0.000792618
0.00311785
0.00329779
0.00138587
0.0030158
0.00230925
0.00275111
0.00307269
0.00437438
0.00119672
0.00285366
0.00560232
0.00164552
0.00426968
0.00334846
0.00537643
0.000829407
0.000750379
0.00354052
0.00380045
0.00580472
0.00445173
0.00396594
0.00477068
0.00682256
0.00217327
0.00294411
0.0035537
0.00250707
0.00523946
0.000521339
0.0073818
0.00526593
0.000796701
0.00656033
0.00131799
0.00398358
0.00041755
0.00107554
0.00533371
0.00300824
0.00183875
0.00374132
0.00278962
0.00103649
0.000758654
0.00663998
0.00312388
0.00466159
0.00385728
0.00247876
0.00160796
0.0067422
0.00073841
0.00277658
0.00295525
0.000629941
0.00665354
0.00257463
0.00701668
0.00283093
0.00133495
0.00597984
0.00297497
0.00294561
0.000960778
0.00272155
0.000798681
0.00170313
0.00275443
0.00110793
0.00410437
0.00190981
0.000779734
0.00201421
0.000801451
0.00452096
0.00241662
0.000848208
0.00077015
0.000761268
0.00350165
0.000777844
0.00573875
0.000736994
0.000656923
0.0021847
0.00151115
0.00134495
0.00463878
0.00433969
0.00710243
0.000829536
0.00113335
0.00666256
0.00198933
0.00162016
0.00687263
0.00202916
0.00537297
0.00183927
0.000742649
0.00255653
0.00343356
0.00440803
0.00679613
0.00122212
0.00161343
0.00160758
0.000897206
0.00503579
0.000936075
0.00104602
0.000894681
0.006598
0.00080522
0.00622369
0.00142172
0.000584456
0.000805982
0.00205524
0.00611982
0.00116873
0.000729872
0.00104436
0.00125687
0.00396047
0.00605951
0.000807038
0.00686837
0.00419286
0.00355562
0.00334145
0.00428291
0.00754773
0.00126798
0.00237406
0.0013784
0.000759063
0.00109776
0.00465819
0.00637009
0.000820779
0.000841143
0.00611585
0.00692813
0.00275654
0.00120118
0.00117315
0.00126011
0.000827809
0.000632531
0.000848155
0.00762275
0.00689089
0.00289009
0.000977328
0.000822275
0.00134121
0.00284577
0.00081831
0.000774048
0.00163031
0.00194901
0.00114983
0.00100104
0.00414054
0.000448736
0.000780287
0.00215728
0.0046184
0.00305358
0.00391507
0.00320945
0.0031001
0.00225905
0.00202063
0.00283515
0.0032489
0.0017584
0.00670862
0.00096895
0.000233765
0.000642453
0.000824753
0.000718542
0.00375142
0.000929224
0.000761654
0.000942936
0.000847752
0.00131623
0.00108063
0.00664593
0.000850426
0.00245372
0.00214886
0.000699564
0.00137852
0.00767139
0.00481138
0.000635447
0.00213818
0.00564583
0.000711777
0.00182538
0.000644451
0.000840004
0.000804418
0.00341974
0.00135307
0.000626218
0.00764531
0.0052596
0.000686898
0.000455322
0.00306969
0.000615749
0.000700777
0.000715841
0.00398423
0.00076442
0.00130639
0.00299512
0.00666638
0.0010937
0.00293857
0.00546211
0.000687874
0.00153854
0.000784573
0.000663502
0.000749869
0.000874724
0.00124058
0.000805713
0.00450747
0.000753952
0.000735468
0.000757901
0.001197
0.00082324
0.000845059
0.000842817
0.000872808
0.00197971
0.00106123
0.0012032
0.00166069
0.00187469
0.0008536
0.00254864
0.000434983
0.00185447
0.000793449
0.000750146
0.00380727
0.00325062
0.000745533
0.00135724
0.000423451
0.000775563
0.00133552
0.00284953
0.00645705
0.000847233
0.000847031
0.000513042
0.000766455
0.00402665
0.00182282
0.00363609
0.000636031
0.00148429
0.000813539
0.00217663
0.00146108
0.000770566
0.000875768
0.000917284
0.000847839
0.000834561
0.000870285
0.00122546
0.00391569
0.000808478
0.00675943
0.00319486
0.000708921
0.00105429
0.000256375
0.0015652
0.00204883
0.00213029
0.00249338
0.00127058
0.00082929
0.000810261
0.00351261
0.0010864
0.00183139
0.000833759
0.000673548
0.000597066
0.000538689
0.000648959
0.000837462
0.000732312
0.000771935
0.00112739
0.000688526
0.000776854
0.000913656
0.00345517
0.00119921
0.00107038
0.000697942
0.000513632
0.00161585
0.000929392
0.00124704
0.0010473
0.00634436
0.00112269
0.00063353
0.00639687
0.000778046
0.000729532
0.000731919
0.000663862
0.00228198
0.000711612
0.00160229
0.00229068
0.00107859
0.000820673
0.0020704
0.00272249
0.0031847
0.000451807
0.00171597
0.000922916
0.00714714
0.00336091
0.000837769
0.000866458
0.000806578
0.00141014
0.000890266
0.00272967
0.00212693
0.00137643
0.000804059
0.000762712
0.000894373
0.00148621
0.000797719
0.00196391
0.00162356
0.00253319
0.000908284
0.000774118
0.00202788
0.00251284
0.00264473
0.000818411
0.00149485
0.00141134
0.00112942
0.00140971
0.00074634
0.00139825
0.00106676
0.00293342
0.00393579
0.000708535
0.000876787
0.00290515
0.00218423
0.000825795
0.00111497
0.00302719
0.000720985
0.00165793
0.00250883
0.000936662
0.00177015
0.00196866
0.00468664
0.00408996
0.000947265
0.000956231
0.000846712
0.00163319
0.00106483
0.000452202
0.00148798
0.000806237
0.00459312
0.00160561
0.00414487
0.00310004
0.0021727
0.00086353
0.000783029
0.00112942
0.00557622
0.000784269
0.000962888
0.000814682
0.000794866
0.00106323
0.00119836
0.000729918
0.00672559
0.000698485
0.00431948
0.000746492
0.000716258
0.000430731
0.000252698
0.000301449
0.000525879
0.000222005
0.000187261
0.00124629
0.000270987
0.000581762
0.000819612
0.000163238
0.00143049
0.000329459
0.00258724
0.00108612
0.00256364
0.000190583
0.00717237
0.000262558
0.000720825
0.00661801
0.00370507
0.0010876
0.000153472
0.00196968
0.00677324
0.00141119
0.00355382
0.00550308
0.0014469
0.00257575
0.00112443
0.00018596
0.00016206
0.000921313
0.000249411
0.00242136
0.00641402
0.00376753
0.00119755
0.000968143
0.00514227
0.00344851
0.000816553
0.000172393
0.000169448
0.0009067
0.00236181
0.000783685
0.00658952
0.00222888
0.00285442
0.0007659
0.000274335
0.00306124
0.000263247
0.00104085
0.000317887
0.00082464
0.00621165
0.00236801
0.00083011
0.00123195
0.00486827
0.000897692
0.00249705
0.000869803
0.000900662
0.00100834
0.000811614
0.0020128
0.00216882
0.000776791
0.0015627
0.00426258
0.000846027
0.00128914
0.00550273
0.0072561
0.000813095
0.000727498
0.0009823
0.0027368
0.00236258
0.00363262
0.00206972
0.00582506
0.0027274
0.00284619
0.00295932
0.00254143
0.00108118
0.00125109
0.00143876
0.00242406
0.000646072
0.00268017
0.00600998
0.00660661
0.00299814
0.00279615
0.000969609
0.00485056
0.00273425
0.000837621
0.00385426
0.00243737
0.00119781
0.000773455
0.000820773
0.00143975
0.00529082
0.00237606
0.00305308
0.00564996
0.000750342
0.00369987
0.00153346
0.0006243
0.00529675
0.0037483
0.00159991
0.00287858
0.00181808
0.000789998
0.000530849
0.000749361
0.00492795
0.00440799
0.000846452
0.000795527
0.000783495
0.00145166
0.000746649
0.000777376
0.000840585
0.00537498
0.00111096
0.000798385
0.00080884
0.00204129
0.000822257
0.00314497
0.000282639
0.000783676
0.000791261
0.000802677
0.000273226
0.000756246
0.00214332
0.00126725
0.000753345
0.000325101
0.00101715
0.00104204
0.000796839
0.00436433
0.00261919
0.000743931
0.00186004
0.00077046
0.000534414
0.000227227
0.00124273
0.000833473
0.0018912
0.00239766
0.00190142
0.000311586
0.000775251
0.000914118
0.000481359
0.000865105
0.00269608
0.000963478
0.00124358
0.000809548
0.00104066
0.00475709
0.00348099
0.00069683
0.00186378
0.00090193
0.00267427
0.00228797
0.00102245
0.000798466
0.0025547
0.00233848
0.000790652
0.000282816
0.000944067
0.000252356
0.00238897
0.00235128
0.00261967
0.00337155
0.000788438
0.000469363
0.00112691
0.00501621
0.00044462
0.00071434
0.000730914
0.00101859
0.00274844
0.000486754
0.00156352
0.00107538
0.00567097
0.00738817
0.00163035
0.000800451
0.000822567
0.000347981
0.0017202
0.000822452
0.00298521
0.000723558
0.00144924
0.00400359
0.0018629
0.00187204
0.00436573
0.00115965
0.000517383
0.000836547
0.00136567
0.000234492
0.000931505
0.00167546
0.00671385
0.00165015
0.000769279
0.000576404
0.00153309
0.000275807
0.000840553
0.0028581
0.00534493
0.000830974
0.000839487
0.000839723
0.0007895
0.00046232
0.000550712
0.00474181
0.000618871
0.00324837
0.00074429
0.00148675
0.00366848
0.000828191
0.00308636
0.00402716
0.000591934
0.000884099
0.0020091
0.00213014
0.000870549
0.000309379
0.00458655
0.00555601
0.000897652
0.00441878
0.000781766
0.000739641
0.00330314
0.00276792
0.00211209
0.00198164
0.00509367
0.000883429
0.000851876
0.00146398
0.00586045
0.000842417
0.000819716
0.00152355
0.00560443
0.000670806
0.00212733
0.00174896
0.00272531
0.000708952
0.00191524
0.00157516
0.00258957
0.00617771
0.000473555
0.000387947
0.00422925
0.000744257
0.000854243
0.000749319
0.000773602
0.000844417
0.000908033
0.00217886
0.000820419
0.000934332
0.000255302
0.00609608
0.00111943
0.000884304
0.00239062
0.00153349
0.00237421
0.00318221
0.0015522
0.00175819
0.00196071
0.00456717
0.00111099
0.00106688
0.00258258
0.000732616
0.000988776
0.000735903
0.000791548
0.00204455
0.00328018
0.00630144
0.00212867
0.00062212
0.00556131
0.00165269
0.00125935
0.00330899
0.00349745
0.00373292
0.000770336
0.00084427
0.002927
0.00234227
0.00151546
0.00467079
0.00261488
0.00256031
0.00103717
0.000829649
0.00073707
0.000815399
0.000871871
0.000806373
0.000839965
0.00101575
0.000593292
0.000780938
0.000826436
0.000964936
0.00318433
0.00269723
0.00579436
0.00553084
0.0078532
0.00228535
0.00267016
0.00115903
0.00357465
0.00077355
0.00110625
0.000845905
0.00199537
0.00428748
0.00135883
0.00125497
0.00555031
0.000785494
0.004025
0.00498306
0.00779439
0.00610498
0.00606054
0.000774918
0.00262362
0.00762769
0.000845651
0.000785035
0.000720003
0.00348075
0.00156202
0.000801663
0.00272104
0.00462469
0.00163623
0.00238559
0.00114429
0.000293648
0.00305257
0.0078758
0.00321444
0.00239118
0.00103961
0.000855272
0.00443885
0.00143219
0.0022824
0.00279355
0.001785
0.00159711
0.000758353
0.00095153
0.00207215
0.000819648
0.00099641
0.000854984
0.00073396
0.000797407
0.00252502
0.000831527
0.000231102
0.000795541
0.00189484
0.00080242
0.000868322
0.000818867
0.000903194
0.000683323
0.0017108
0.00153745
0.00271213
0.0015194
0.00195235
0.000858765
0.000786266
0.00284934
0.00176378
0.00282559
0.000729924
0.00279723
0.00295918
0.00243883
0.000637115
0.000751808
0.000754991
0.000696421
0.000947729
0.000893869
0.000766196
0.00105605
0.00174692
0.00179761
0.00305937
0.000954946
0.000804537
0.00734026
0.000764407
0.00198109
0.00233854
0.00285769
0.000812387
0.0010289
0.00182802
0.000843047
0.000543057
0.000733263
0.000896711
0.00124748
0.00137746
0.00205333
0.00568714
0.00126363
0.00119062
0.00104752
0.00059
0.000755046
0.00104514
0.000837219
0.000833157
0.00134451
0.00346803
0.00156596
0.000878385
0.000911402
0.000914495
0.00079307
0.00299774
0.00360197
0.00513684
0.00797931
0.00074166
0.000666129
0.00508766
0.00781543
0.00560178
0.00785148
0.00323203
0.000803889
0.000758442
0.00113867
0.000739154
0.000881393
0.00105529
0.00163386
0.000842543
0.000873975
0.00107678
)
;

boundaryField
{
    frontAndBack
    {
        type            empty;
    }
    wallOuter
    {
        type            nutkWallFunction;
        Cmu             0.09;
        kappa           0.41;
        E               9.8;
        value           nonuniform List<scalar> 
90
(
8.22366e-05
7.6741e-05
7.78018e-05
7.56516e-05
8.2738e-05
8.43935e-05
8.61656e-05
9.40995e-05
8.00404e-05
8.84507e-05
9.10429e-05
9.51172e-05
9.015e-05
9.30661e-05
9.20256e-05
0.000104486
9.97416e-05
8.12159e-05
7.22002e-05
6.52298e-05
7.83318e-05
0.000100167
8.80655e-05
9.26526e-05
8.0083e-05
0.00011261
0.000113496
8.7786e-05
8.4026e-05
5.05691e-05
2.88997e-05
3.43521e-05
6.29405e-05
2.45123e-05
2.04301e-05
1.775e-05
2.19311e-05
3.09779e-05
8.69524e-05
1.65493e-05
2.13016e-05
1.7857e-05
0.000110138
2.90336e-05
1.94248e-05
1.89473e-05
3.14992e-05
0.000123582
3.7936e-05
0.00010701
0.00011648
7.79726e-05
7.54278e-05
9.54817e-05
9.71926e-05
3.22856e-05
3.8919e-05
0.000120889
0.00012308
8.94116e-05
6.47175e-05
2.68449e-05
3.74118e-05
0.000109159
9.69632e-05
8.38654e-05
0.000107451
3.35433e-05
0.000112584
3.01519e-05
6.25953e-05
2.71098e-05
9.22759e-05
3.30356e-05
9.97584e-05
7.4744e-05
7.159e-05
0.000103937
3.70321e-05
0.000107258
5.73435e-05
0.000111472
2.98981e-05
7.51696e-05
7.14771e-05
3.52275e-05
9.9797e-05
2.66249e-05
8.236e-05
8.38907e-05
)
;
    }
    inlet
    {
        type            calculated;
        value           uniform 0.000851986;
    }
    outlet
    {
        type            calculated;
        value           nonuniform 0();
    }
    wallInner
    {
        type            nutkWallFunction;
        Cmu             0.09;
        kappa           0.41;
        E               9.8;
        value           nonuniform List<scalar> 
138
(
9.77175e-05
4.79458e-05
0.000219641
0.000123073
0.000113276
5.7806e-05
0.000258272
0.000141547
0.000110383
0.000105345
0.000137284
0.000119981
7.53501e-05
3.95869e-05
5.4478e-05
6.29372e-05
5.62248e-05
5.87868e-05
7.61816e-05
8.00981e-05
0.000237338
0.000128817
6.35592e-05
0.0001326
0.000129778
0.000127555
0.000121478
0.000126419
0.000121175
0.000129588
0.000130646
6.53481e-05
6.80359e-05
7.37614e-05
2.17757e-05
5.51727e-05
8.92718e-05
6.08778e-05
7.97529e-05
7.29676e-05
4.37278e-05
8.69483e-05
7.01339e-05
5.07832e-05
7.26256e-05
5.61559e-05
6.0099e-05
6.83398e-05
7.12158e-05
2.43211e-05
3.79995e-05
7.17217e-05
6.6374e-05
7.10163e-05
7.95961e-05
6.07444e-05
7.41047e-05
5.68606e-05
7.56133e-05
7.88803e-05
6.8931e-05
7.73075e-05
3.87236e-05
7.36262e-05
2.25306e-05
7.70029e-05
6.64339e-05
6.6927e-05
0.00012108
5.33939e-05
0.000139464
6.97474e-05
8.9454e-05
6.6593e-05
0.000126364
6.24859e-05
0.000127595
8.06558e-05
7.4524e-05
6.58073e-05
6.418e-05
0.000147904
0.000173914
0.000138047
0.000129788
0.000161202
6.42442e-05
5.04856e-05
0.000126923
0.000122575
7.75952e-05
8.03126e-05
7.1164e-05
7.69567e-05
5.55125e-05
2.70589e-05
7.91337e-05
5.60166e-05
7.49824e-05
8.28699e-05
0.000127609
5.31348e-05
5.16855e-05
6.32311e-05
0.00010934
3.00856e-05
8.53886e-05
0.000132149
7.72972e-05
5.5305e-05
5.52372e-05
0.000125563
3.23414e-05
7.16907e-05
3.92124e-05
0.000114971
9.21107e-05
3.21261e-05
0.00010751
0.000119789
6.48268e-05
3.31966e-05
9.39998e-05
5.94741e-05
5.74202e-05
5.44158e-05
9.8534e-05
4.13718e-05
5.65872e-05
6.75256e-05
4.67801e-05
8.03198e-05
0.000134068
8.88409e-05
0.000106144
0.000187853
0.000100111
0.000128857
)
;
    }
    procBoundary0to1
    {
        type            processor;
        value           nonuniform List<scalar> 
29
(
0.00380549
0.00385858
0.00380301
0.00380301
0.00507012
0.00507012
0.00300281
0.00139311
0.00188285
0.00435843
0.00254994
0.0019288
0.00137254
0.00122572
0.00236801
0.00134269
0.00785356
0.00584859
0.00521855
0.00377461
0.00089088
0.000739982
0.00320077
0.000744541
0.00072641
0.00584859
0.000733181
0.000911697
0.000744541
)
;
    }
    procBoundary0to2
    {
        type            processor;
        value           nonuniform List<scalar> 
42
(
0.0074637
0.00531548
0.00115941
0.000921561
0.00175501
0.0074637
0.00115941
0.00151903
0.00167056
0.00149486
0.00252353
0.00334385
0.00252353
0.00355491
0.00352362
0.00760072
0.00352362
0.0012906
0.00167341
0.00405785
0.00405785
0.0012906
0.0011115
0.00375909
0.00375909
0.000884246
0.00587576
0.000747337
0.00744044
0.00483202
0.00483202
0.000763391
0.000848643
0.000928889
0.00102679
0.00115941
0.00336872
0.000285595
0.00744044
0.00151903
0.00148828
0.00123215
)
;
    }
}


// ************************************************************************* //
