/*--------------------------------*- C++ -*----------------------------------*\
| =========                 |                                                 |
| \\      /  F ield         | OpenFOAM: The Open Source CFD Toolbox           |
|  \\    /   O peration     | Version:  v1912                                 |
|   \\  /    A nd           | Website:  www.openfoam.com                      |
|    \\/     M anipulation  |                                                 |
\*---------------------------------------------------------------------------*/
FoamFile
{
    version     2.0;
    format      ascii;
    class       volScalarField;
    location    "0.23";
    object      p;
}
// * * * * * * * * * * * * * * * * * * * * * * * * * * * * * * * * * * * * * //

dimensions      [0 2 -2 0 0 0 0];


internalField   nonuniform List<scalar> 
1466
(
75.3263
120.643
87.5929
90.6681
90.7252
97.4306
84.8015
87.0577
112.473
104.168
72.6655
106.966
112.643
89.9418
95.5117
71.1577
86.3992
108.216
113.669
86.8517
89.0059
70.0447
110.304
87.9922
112.596
124.077
72.4297
87.3326
93.586
120.398
73.5367
120.455
84.2085
94.0941
112.837
93.723
92.6685
86.9335
98.0683
78.8906
77.8872
70.5428
71.4908
74.8086
84.2815
84.1828
81.6189
85.5388
105.335
83.5149
99.8685
120.837
98.6402
89.8454
86.3433
110.704
77.4656
71.9964
85.1668
101.11
125.998
75.6161
75.8983
120.68
96.723
87.8729
110.977
88.021
115.028
85.7012
126.572
110.752
87.9537
111.317
126.03
113.277
74.3048
78.8481
84.0225
118.981
96.1273
68.9881
85.6712
107
87.7276
84.7333
94.7339
117.156
95.9066
100.886
123.602
71.8658
91.1316
76.4469
87.0661
87.6671
120.842
75.0663
113.775
91.4659
98.2598
101.235
84.0993
107.982
72.6704
87.5094
101.667
87.8316
74.5909
76.376
125.528
113.67
74.1392
70.6931
105.191
123.039
71.293
106.214
82.3311
80.5622
88.8035
72.9907
85.6161
74.4545
87.1304
85.293
116.458
109.382
89.1667
121.909
98.9885
72.4314
110.286
88.0038
121.572
83.3
84.4071
86.1871
80.0194
79.4325
83.486
86.9267
87.7439
109.338
75.583
89.9008
120.345
120.956
121.665
103.086
123.139
119.944
115.789
87.0716
121.921
69.9094
87.3195
94.985
120.631
92.1494
120.28
118.098
79.9118
86.9943
123.1
73.5786
87.9525
109.953
85.4686
99.4062
86.9189
121.734
84.4789
115.336
121.221
109.296
121.504
120.74
125.133
126.954
113.078
120.844
86.9435
86.2071
116.242
86.8345
88.0389
107.124
115.139
85.1747
86.4958
126.514
90.3462
96.4859
90.1731
124.746
86.5591
117.339
124.693
91.0032
87.4742
121.752
119.148
78.5918
126.089
125.263
94.3417
117.684
121.207
87.37
111.597
87.0733
108.513
86.912
90.528
88.1905
87.6116
87.9205
112.306
87.7606
110.479
122.573
87.7889
125.261
86.3276
119.196
109.25
82.2154
124.378
121.576
126.973
115.135
101.083
95.9434
101.034
125.506
87.7329
109.616
121.729
86.2631
86.3531
118.573
119.855
97.9881
121.887
117.788
120.785
110.794
119.685
119.79
87.6046
96.6996
117.125
79.9537
121.306
120.478
87.8694
100.58
87.2078
86.8437
107.76
110.525
87.7903
121.487
91.7043
85.3238
120.53
121.769
97.7461
102.624
77.9638
87.7631
106.751
121.537
122.641
125.842
123.752
95.7424
85.7023
121.313
120.729
89.5621
92.9301
116.851
87.3384
81.9595
121.769
122.09
83.9174
113.3
114.56
73.8385
113.117
83.4747
97.1476
104.239
88.5741
82.5021
121.415
120.847
87.882
97.3226
125.777
112.054
93.5064
93.2423
77.8767
80.3594
112.528
82.3212
115.877
110.315
87.1692
122.985
122.937
122.28
89.9345
123.471
79.0224
94.3681
106.35
88.1855
84.5095
121.081
94.5508
110.912
83.4894
128.179
120.582
121.743
108.109
112.114
86.9745
100.869
90.4735
88.9222
86.2722
121.568
79.1801
74.4082
87.4933
117.304
85.3474
137.016
98.5515
125.518
116.36
127.011
114.625
88.6972
95.7389
92.8646
88.5577
88.5834
88.3143
91.2375
93.553
81.7498
102.912
120.054
87.3419
93.4081
95.6328
79.0347
81.1282
110.947
116.223
115.304
86.3642
98.6986
105.963
94.5189
139.426
103.385
85.9568
92.9641
108.781
129.262
74.9193
93.6875
81.0563
82.1951
82.0436
83.0491
84.5936
83.2365
83.5203
82.9449
79.9142
78.8587
89.1263
90.3161
78.7572
89.4847
77.827
73.9005
80.2609
117.81
75.9557
72.7639
82.4142
83.5981
105.809
92.123
103.649
69.4288
104.749
101.93
70.5701
70.98
95.1648
107.749
104.531
70.1355
102.887
91.7237
92.0485
101.595
94.1786
76.0135
70.9092
70.2573
78.6343
103.862
78.248
73.7558
71.4466
143.932
82.4658
79.6623
95.5671
74.2644
86.6876
81.8095
120.284
72.6182
80.3111
73.4989
86.4662
98.4287
82.3443
90.0546
99.8077
81.8049
120.552
72.8143
113.424
120.656
72.9199
104.877
120.876
74.0558
87.4557
113.238
88.6685
90.2103
86.9387
85.335
88.9519
120.753
81.6084
88.78
86.2609
92.7767
109.019
74.0775
84.9935
87.9599
84.8995
83.7241
86.9777
86.6927
109.013
80.6636
121.1
74.183
90.4134
83.1594
93.5021
90.3858
99.2587
92.7296
92.8852
91.261
92.3063
117.075
75.1521
92.1541
95.645
96.4224
94.1075
87.4596
85.7115
86.4892
79.9182
90.6667
92.6426
86.3025
123.835
79.6916
84.6138
84.8723
85.8561
110.354
81.473
80.0485
115.855
121.279
75.3936
91.8349
120.413
89.5453
78.519
89.7555
92.4737
79.4569
86.7163
113.341
114.232
86.6848
86.7449
83.1238
89.7392
122.663
86.2283
84.5218
84.1446
85.7126
85.7268
88.4014
72.7885
77.382
92.5011
89.6626
90.0342
85.6048
100.288
125.121
87.7256
93.6587
117.31
110.17
82.9428
77.9523
86.992
104.447
88.3714
104.784
88.1542
121.802
77.174
76.6896
94.0142
88.2528
85.0396
92.4888
92.0431
79.3273
85.2808
108.826
85.4276
91.1552
120.794
129.997
114.158
77.4207
88.1768
86.8774
133.756
92.9174
94.3748
84.316
121.943
122.36
79.3201
82.1627
96.0117
91.9191
91.2535
74.5532
86.9592
93.7428
92.0816
80.2059
80.0366
83.0956
86.2342
108.849
91.2913
78.3565
94.4819
109.377
83.9291
90.7945
88.3449
87.4787
111.242
90.677
83.9555
89.9296
130.323
105.046
97.1241
107.133
105.137
86.3954
120.659
81.5814
106.944
83.1988
75.7918
87.9666
114.094
96.5546
94.3348
121.486
121.859
122.435
115.713
83.0312
112.904
80.5594
120.493
100.925
114.276
88.9045
95.1769
86.2711
88.9517
93.3007
92.6495
114.673
115.86
97.6558
90.3338
107.134
83.6476
86.0598
122.404
95.2362
85.2527
114.618
87.5695
124.153
85.3956
103.777
86.2563
81.0192
86.4793
118.888
88.3765
113.499
124.101
81.3695
95.1914
83.6444
77.7572
94.4605
120.371
106.558
92.2144
114.919
72.7768
107.209
94.9073
121.637
84.6979
122.247
109.292
77.0247
82.9442
121.083
85.1557
84.593
109.013
89.5484
94.6179
125.417
79.4095
112.647
94.4766
83.7068
122.973
110.837
120.37
86.7018
119.363
121.616
88.3447
121.248
93.7919
112.496
109.693
103.697
120.081
121.645
101.857
80.2827
118.929
81.1387
87.0243
119.758
121.475
120.856
82.1111
80.1844
121.814
72.6009
121.555
81.0856
75.3971
108.544
74.6581
90.4053
83.711
94.8329
85.7763
80.1929
89.8495
120.899
113.181
70.1382
111.003
85.2448
94.6845
92.2942
94.7322
83.3107
78.9161
125.139
84.2518
94.5112
79.7794
91.266
110.652
123.631
88.768
84.672
92.4227
91.2239
93.5105
93.4843
86.9473
92.6589
83.3717
84.0879
117.503
126.208
76.6906
117.26
94.4029
75.709
123.414
84.9044
85.5463
109.278
84.3283
94.6456
113.485
107.462
87.4503
71.6224
124.784
123.275
95.2116
119.788
86.359
112.307
110.341
86.7763
120.963
71.9511
82.0035
72.7686
70.8304
85.5537
125.77
120.662
82.624
104.476
89.1527
76.6426
86.9028
74.1532
92.3627
90.5445
93.637
92.3107
80.1763
99.0212
81.1783
94.9934
85.9508
71.2637
120.262
112.724
83.0507
77.2013
87.0032
91.0081
77.9281
85.6971
94.2717
85.0097
88.6267
84.7938
126.008
113.46
70.1851
92.7727
87.6948
94.22
109.791
89.5444
125.453
86.4922
84.7151
86.6364
121.862
85.2191
105.438
80.563
84.7617
121.007
73.5391
75.0977
85.4162
111.298
113.473
109.388
119.448
85.857
73.4692
69.7615
82.1521
100.11
98.6384
120.96
72.2396
73.7593
75.6215
81.4373
83.0497
74.9168
76.8702
102.672
117.008
94.6514
121.533
86.3277
75.2282
115.848
88.0166
91.6727
78.5433
120.987
118.773
121.051
95.9466
85.521
96.1113
94.1692
113.2
80.508
125.201
71.9193
84.5973
95.3128
121.136
91.6565
78.7277
123.822
86.0129
120.924
94.9893
82.2057
81.5926
87.6202
87.0321
88.0057
87.3368
86.6179
88.5918
86.5162
91.0383
111.319
112.215
92.4862
90.0192
88.9603
94.422
111.046
114.24
100.267
97.3155
117.413
121.049
125.628
123.986
87.9174
87.1471
86.9439
88.0481
114.164
113.088
124.693
83.2381
75.4356
101.321
79.2257
88.7261
97.9137
81.4688
106.009
90.1269
95.5652
117.99
109.776
106.714
81.2649
85.7522
120.34
84.3994
120.603
102.904
82.7316
71.3841
87.4616
73.981
85.9531
98.7131
121.127
111.817
85.6245
94.4402
82.4427
94.522
92.9971
77.7584
81.2975
85.5007
121.757
120.207
93.2148
77.5368
75.0609
121.827
109.346
114.712
111.742
125.32
97.8963
120.234
72.0384
89.2387
89.7295
125.453
95.2596
72.8715
131.283
82.0475
110.693
87.4137
116.465
86.0187
110.085
85.0783
100.053
81.5522
79.1483
92.3299
87.0047
69.8928
86.3525
120.827
120.938
123.319
94.909
87.5161
121.152
75.0967
86.702
109.852
91.501
113.671
87.8526
82.9534
121.214
110.491
85.5928
121.909
83.3971
103.435
107.762
109.811
108.801
120.548
85.8625
92.0163
99.6803
79.974
89.8896
91.8231
113.385
127.308
79.8454
76.0369
83.3827
107.093
112.053
85.1299
109.78
81.7149
124.318
84.5081
86.3361
72.6463
120.288
121.696
81.5499
106.068
86.8447
69.6827
106.284
93.5252
109.262
89.8294
110.696
87.8725
76.9156
73.1269
92.7524
122.33
121.791
80.7528
77.7314
122.467
125.69
91.9365
112.333
123.047
115.252
74.779
87.9061
115.93
86.605
126.448
122.738
87.6782
81.8529
73.6965
87.6827
121.05
94.1696
115.184
79.0893
120.931
122.857
120.352
121.165
72.5495
99.091
118.468
115.496
125.094
92.1458
127.25
73.0958
87.2073
125.979
91.8323
80.0543
122.258
71.446
120.691
77.0097
103.596
120.812
120.571
74.6818
89.1968
114.207
86.9564
121.358
120.947
121.575
121.167
114.946
114.649
120.753
120.55
120.45
120.468
112.726
94.012
85.6962
121.717
120.411
88.1636
81.1567
120.879
108.936
89.2131
79.0406
76.207
73.1658
86.4124
87.0337
118.784
83.1383
79.3699
121.365
105.875
121.735
121.153
126.881
113.049
113.931
88.1498
83.1606
115.455
126.438
112.811
87.9646
110.171
111.211
86.7922
120.624
119.664
95.277
115.214
117.698
101.909
74.4092
92.4359
78.525
121.413
74.7321
94.8162
70.1491
87.6369
86.8435
84.8083
104.493
118.974
98.1656
97.6997
88.4176
76.4891
102.811
89.5467
114.239
113.902
94.148
121.56
86.3154
121.218
98.6283
126.117
89.3657
112.875
97.057
109.424
88.4635
85.5957
95.8331
117.664
74.8843
96.0149
74.298
74.483
78.4267
91.0871
76.1617
87.9678
76.4229
117.399
92.306
72.248
71.547
95.7563
112.642
122.068
87.5216
69.687
86.7089
91.4725
78.1092
89.0301
86.9893
81.2414
84.1968
74.3859
124.053
73.7722
98.1359
103.626
114.169
121.489
124.812
120.139
121.027
96.3627
117.397
118.255
120.292
103.787
111.319
73.3757
121.824
83.8793
124.629
123.698
73.6909
87.283
108.372
105.935
113.236
94.8905
93.6297
82.2859
87.2087
110.316
109.966
93.1692
77.7371
82.4997
102.931
103.751
73.713
93.6595
120.634
108.896
86.8489
76.6185
87.4111
71.3101
102.138
85.7107
100.634
84.1544
72.587
72.9219
90.9859
120.789
123.105
108.212
83.7747
84.4862
75.3052
111.694
93.5174
94.6833
120.295
87.716
114.458
71.8229
104.924
94.5495
71.0951
85.7766
121.09
86.2505
124.714
69.8644
94.0131
76.7315
94.5121
90.7835
93.3897
112.599
120.32
100.301
120.917
81.0856
82.559
117.999
80.637
78.8358
109.716
89.1906
104.343
85.2804
121.376
125.639
113.831
87.3357
89.8309
78.435
110.617
84.8129
80.6447
105.7
86.5972
75.6422
103.369
85.2906
109.506
113.659
109.545
87.5658
88.8405
97.3848
86.635
71.0261
108.979
87.6407
110.385
86.4314
86.4163
76.4036
91.6924
73.7994
83.0297
75.1321
120.533
81.0917
108.214
123.777
83.2922
81.2833
116.631
81.1709
72.9353
125.845
115.257
126.537
109.338
91.7655
86.8942
125.69
108.295
123.341
81.0494
91.0738
78.6441
86.7515
92.4486
95.0665
85.8479
120.966
86.7613
120.629
75.3625
71.2579
112.264
120.161
120.684
77.5585
121.216
105.31
120.446
120.948
90.3057
92.9192
119.87
101.602
121.201
119.221
120.412
86.7226
120.725
100.005
125.894
118.907
93.5537
82.5842
125.79
125.989
121.909
121.701
86.2059
115.852
123.293
96.8877
126.752
120.808
74.1201
123.743
72.1241
74.2363
83.8774
75.0026
69.9218
86.8827
85.0087
87.4077
97.4191
120.543
126.938
87.4276
117.038
87.6274
88.4268
88.091
114.612
100.136
89.1351
75.6898
121.277
86.8941
101.195
120.602
78.0738
122.022
110.014
88.5528
119.958
88.3174
88.0938
121.739
88.6952
71.0992
73.5762
87.176
103.033
79.403
81.7674
83.8626
118.246
120.796
124.517
120.478
120.999
121.467
113.4
119.555
103.716
76.7352
121.244
111.776
73.2927
120.76
74.4996
102.872
76.2651
73.4508
73.7442
84.5062
74.6684
94.2034
85.4596
89.94
91.829
84.7518
86.2583
104.922
141.214
98.6288
109.219
118.08
124.56
113.513
111.004
109.477
75.9998
79.3997
80.9697
88.2214
92.3708
93.0222
103.377
87.5577
121.252
120.304
120.711
)
;

boundaryField
{
    frontAndBack
    {
        type            empty;
    }
    wallOuter
    {
        type            zeroGradient;
    }
    inlet
    {
        type            zeroGradient;
    }
    outlet
    {
        type            fixedValue;
        value           nonuniform 0();
    }
    wallInner
    {
        type            zeroGradient;
    }
    procBoundary1to0
    {
        type            processor;
        value           nonuniform List<scalar> 
29
(
84.596
84.596
85.8006
86.2886
72.5903
73.2998
111.962
85.1718
89.1892
85.6994
85.1055
73.2998
85.8006
88.2412
112.726
113.108
72.5903
74.9407
86.2886
87.7122
113.224
113.219
80.4588
111.763
111.763
80.4588
113.919
112.078
113.919
)
;
    }
    procBoundary1to2
    {
        type            processor;
        value           uniform 84.8101;
    }
    procBoundary1to3
    {
        type            processor;
        value           nonuniform List<scalar> 
48
(
91.6691
91.955
92.6138
92.6138
90.1111
92.106
92.106
96.1617
91.9231
91.8059
92.0982
91.8059
91.3742
73.1403
75.126
91.3742
88.5672
88.5672
84.7046
84.7046
82.9084
86.9866
81.713
92.1999
92.1999
80.0732
91.2623
91.2623
95.2019
85.3163
82.677
95.2019
96.1617
91.7334
80.6745
85.3163
93.4995
92.0982
91.7941
90.4063
76.1612
91.823
91.7334
80.6745
79.3927
90.3057
90.6021
76.1612
)
;
    }
}


// ************************************************************************* //
