/*--------------------------------*- C++ -*----------------------------------*\
| =========                 |                                                 |
| \\      /  F ield         | OpenFOAM: The Open Source CFD Toolbox           |
|  \\    /   O peration     | Version:  v1912                                 |
|   \\  /    A nd           | Website:  www.openfoam.com                      |
|    \\/     M anipulation  |                                                 |
\*---------------------------------------------------------------------------*/
FoamFile
{
    version     2.0;
    format      ascii;
    class       surfaceScalarField;
    location    "0.16";
    object      phi;
}
// * * * * * * * * * * * * * * * * * * * * * * * * * * * * * * * * * * * * * //

dimensions      [0 3 -1 0 0 0 0];
oriented        oriented;


internalField   nonuniform List<scalar> 
11117
(
-6.84301e-05
0.000123353
3.2943e-05
-8.7866e-05
1.30032e-05
0.000217432
-5.45897e-06
-0.000224976
-0.000248792
0.000391691
-6.24535e-05
-8.04455e-05
-0.000164068
1.61333e-05
5.57444e-05
9.21906e-05
8.1125e-05
0.000437653
-0.000403002
-0.000115776
-2.28181e-05
-1.53939e-06
-0.00019753
0.000221888
0.00071714
0.000165288
-0.00068637
-0.000196058
0.000200386
5.07983e-05
-0.000199273
-5.19109e-05
0.00116265
0.000356486
-0.000919207
-0.00059993
-4.38401e-05
6.15578e-05
-7.21554e-05
5.44377e-05
-0.000844437
0.000771791
0.000393033
-0.000320387
-0.000220244
-8.87571e-05
0.000167889
0.000141111
-0.00018949
-8.79721e-05
0.000110881
0.00016658
0.000617954
-0.000582966
0.000204361
-0.000239348
0.000396554
-0.000332412
0.00037551
-0.000439653
-6.11543e-06
0.000107922
-0.000101099
-7.08286e-07
-0.000105799
0.000280107
-4.11516e-05
-0.000133157
-0.000286001
0.000295875
0.000389884
-0.000399758
0.000343488
0.000559518
-0.000506452
-3.41336e-05
1.72378e-05
0.000172938
-0.000156042
-0.000316087
0.000167689
2.94725e-05
0.000118926
-2.10195e-05
1.43302e-05
0.000160225
-0.000153535
-0.00038924
-0.000435223
0.000297834
0.000526628
0.000273865
0.000255915
-0.000169815
-0.000359965
1.65421e-05
7.35843e-05
-0.000127601
3.74743e-05
0.000896367
-0.000933334
0.000277161
-0.000240195
0.000265099
-0.00035158
0.000928075
-0.000841595
-0.000217065
0.000276643
-0.000255224
0.000195645
-0.000128164
0.000140129
0.000117245
-0.000129211
-0.000103467
5.92807e-05
-2.77818e-05
7.1968e-05
-3.62333e-05
-4.20463e-05
7.3142e-05
5.13751e-06
-7.64862e-05
-0.000416924
0.000323648
0.000169763
-1.584e-05
4.6052e-05
6.34365e-06
-3.65556e-05
-0.000153165
0.000143665
-6.68912e-05
7.63912e-05
-0.000158472
0.00027873
-0.00019479
7.45328e-05
-0.000168539
0.000201307
-0.000205947
0.000173179
0.00060492
-0.000824523
0.0010067
-0.000787097
0.000356949
-0.000410739
-0.000139133
0.000192923
-0.000187522
9.61282e-05
0.000140808
-4.94137e-05
-0.000228478
0.000239221
-0.000283902
0.000273159
-0.000234939
4.71158e-07
-1.08859e-06
0.000235557
0.000133805
0.00026298
-0.000259913
-0.000136872
0.00106041
0.000929272
-0.000945684
-0.001044
-0.000303145
2.75133e-05
-2.0873e-05
0.000296505
0.000455044
0.00027929
-0.000390846
-3.83058e-05
1.53528e-07
1.61324e-05
2.20199e-05
-0.000973378
0.000831251
-0.000304425
0.000446552
1.39047e-05
-1.74527e-05
1.19293e-05
-8.38131e-06
-1.26775e-05
-2.56092e-05
9.16357e-05
-5.3349e-05
-6.87372e-05
0.000225084
-0.000156347
-7.79659e-07
2.29141e-05
-2.21344e-05
-0.000181923
-0.000505051
0.000251045
0.000435929
-0.000102005
0.000114018
-2.21014e-05
1.00882e-05
0.000459712
-0.000438984
8.04909e-05
-0.000101219
1.41587e-06
-1.41587e-06
-9.54247e-05
6.71994e-05
7.22617e-05
-4.40363e-05
0.000535111
0.000144728
-0.000654863
-2.49758e-05
-2.72644e-05
5.4137e-06
2.75482e-05
-5.69752e-06
0.000934857
0.000103512
-0.0014451
0.000406734
-0.000353966
0.000732454
0.000517879
0.000845339
-0.000861281
4.39238e-05
-2.79818e-05
0.000201302
-9.63648e-05
-0.000101771
-3.16682e-06
-1.96379e-05
-7.7134e-06
-8.88197e-06
9.33421e-05
1.902e-05
-0.000188848
-5.18829e-05
-1.85399e-05
5.45828e-05
1.32243e-05
-0.000132228
0.000104333
1.46707e-05
0.000367063
-8.13374e-05
0.000136111
-0.000421836
6.847e-05
-8.12386e-05
1.27686e-05
-0.000396393
-0.000169918
0.00032657
0.000239741
-4.66359e-06
9.10863e-05
5.28339e-06
-9.17061e-05
0.000368108
-3.64062e-05
-0.000513625
-0.000115889
0.000293862
0.00018909
-0.000264547
-0.00135446
0.00138416
0.000234847
0.000138935
-0.000387613
0.000335909
-8.72308e-05
-0.000413343
-0.000269051
-0.000124343
5.66235e-05
0.000155366
-8.76464e-05
-0.000149624
0.000101066
4.85586e-05
-0.000895327
-0.00017358
0.000135573
-0.000285152
-2.72183e-05
9.22524e-06
-2.13699e-05
3.66274e-06
1.77071e-05
7.68937e-05
3.4162e-05
1.55186e-06
-0.000112608
0.000160581
5.72803e-05
3.09204e-07
-0.000218171
1.45559e-05
-6.19136e-05
0.000120159
-7.28017e-05
1.54189e-05
-0.000174963
2.04372e-05
0.000139107
-0.000176705
0.00019293
0.000167385
-0.00018361
1.72577e-05
-0.000231363
0.000214105
-2.74342e-05
-0.000369216
0.00039665
7.87325e-05
-0.000473944
0.000395211
-6.88686e-05
5.66928e-05
0.000164638
-0.000152462
-0.000208245
-7.69438e-06
-0.000286899
0.000502838
0.000573872
-0.000134526
6.55835e-05
-0.00050493
0.000450399
4.04132e-05
-4.55681e-05
-0.000445244
0.00035469
-3.24394e-05
2.70394e-05
-0.00034929
-0.000542864
5.68568e-05
-1.93404e-05
0.000505348
-0.000354636
2.54836e-05
-1.42086e-05
0.000343361
7.53765e-05
-9.57969e-05
0.000209918
-0.000189497
0.000651362
1.25182e-05
-2.03545e-05
-0.000643525
0.000342245
1.88574e-05
-8.66645e-06
-0.000352436
0.000426147
4.45463e-05
-2.70004e-05
-0.000443693
0.000814586
6.03398e-05
-2.95876e-05
0.000390065
5.4592e-05
-0.000406953
-3.77037e-05
-0.000148835
0.000113928
3.44357e-05
4.70829e-07
0.000340971
-0.000426338
-0.00124409
0.00132946
0.000488407
0.000108719
-0.000543829
-5.32977e-05
-0.000129504
0.000374743
-0.000277366
3.21269e-05
-0.000508379
0.000246002
0.000458757
-0.000196379
6.5267e-05
-6.27377e-05
0.000176407
-0.000178936
-0.000104532
0.000103883
-0.000118691
0.00011934
-2.28837e-05
-5.22001e-05
-3.63641e-05
0.000111448
-0.00023646
3.58973e-05
-8.45894e-05
4.9074e-05
-1.61274e-05
-1.87726e-05
-1.41739e-05
0.000148778
-6.35426e-05
-4.50781e-05
-4.01569e-05
-0.000397308
0.000320386
-0.000181004
0.000257926
6.92199e-05
-6.39118e-05
1.46692e-05
-1.99774e-05
5.60893e-05
0.000323408
-0.000367103
-1.23944e-05
0.000111579
0.000381609
-0.000462275
-3.09128e-05
-0.000244451
-0.000309122
0.000451809
0.000101764
-0.000261107
0.000204914
0.000287895
-0.000231703
3.74209e-05
-2.08884e-05
-0.000877813
-0.00103632
8.41741e-05
0.000954875
-2.72497e-06
0.000358807
-0.000184757
-0.000435157
0.000346106
-0.000306078
-4.00278e-05
6.58582e-05
-5.81368e-05
8.17325e-05
-8.94539e-05
-0.000175865
-0.000165543
1.66335e-05
-0.000112076
6.27273e-06
8.91697e-05
-0.000352816
0.000390719
0.000620145
-0.000658048
-0.000435622
0.000475159
-0.00042493
0.000385393
7.38875e-06
0.000194488
-0.000179298
-2.25783e-05
0.000222421
-0.000419863
-2.34542e-05
0.000220896
-2.31468e-05
-5.54506e-05
3.37566e-05
4.48409e-05
0.000100468
-5.50598e-05
-8.79646e-05
4.25568e-05
0.000113855
-0.000118469
-6.52416e-05
6.9856e-05
0.000229336
-0.000241152
-7.93639e-05
9.11803e-05
-0.000820883
0.000115479
-0.000189923
-4.3975e-05
7.64919e-05
-0.000440312
0.000407795
0.000250944
-0.000327004
-0.000256353
-0.00042122
4.32268e-05
8.07869e-06
0.000369914
9.16675e-05
0.000144344
-3.47096e-05
-1.87375e-05
-1.02125e-05
1.31991e-05
1.57509e-05
4.79942e-05
-4.11159e-05
-7.86141e-05
7.17358e-05
0.000507342
-0.000223345
-0.000248549
-3.54481e-05
-0.00017083
-0.000293409
0.000351736
0.000112503
0.000116969
-0.00015718
2.02837e-05
1.99275e-05
0.000204811
-0.000200714
-6.77652e-05
6.36682e-05
-1.29315e-06
1.47771e-06
-8.13833e-06
7.95377e-06
-9.12533e-06
0.000303293
-0.000139063
-0.000155104
8.02017e-05
1.43788e-05
-2.87222e-05
-0.00044044
0.000979489
-0.000561738
2.26885e-05
5.58105e-05
0.000464612
-6.19739e-05
-0.000458449
1.67565e-05
7.8502e-05
-6.54101e-05
-2.98483e-05
0.000953481
0.000471713
-0.00063954
-0.000785654
-3.91733e-05
3.56127e-05
-0.000222167
0.000225728
-0.000334314
-0.00010833
-6.57353e-05
5.2777e-05
-8.51709e-05
-3.44694e-05
6.68633e-05
-0.000548568
-0.000400738
0.000621036
0.00032827
0.000860144
-0.00025375
-0.000606394
-0.000172103
3.34223e-05
3.2758e-05
-6.61804e-05
0.00012227
1.51346e-05
-0.000137405
0.000180244
-0.000338036
3.39518e-05
0.000304084
-5.97792e-05
0.000239533
-0.000179754
-0.000108735
0.000181941
-7.32067e-05
-5.85899e-05
0.000164444
-0.000105854
0.000123885
-3.38385e-05
-9.00466e-05
0.000247197
-0.000199262
-4.79351e-05
-6.25479e-05
-1.28336e-05
7.53815e-05
-0.000111102
-3.24083e-05
0.00014351
7.14773e-05
-2.24033e-05
0.000129529
1.92483e-05
0.000225638
-0.000261903
3.62643e-05
0.000170612
8.42402e-05
-0.000254853
0.000233737
-0.000225575
-8.16182e-06
0.00036822
-0.000335084
-3.31362e-05
0.000181998
-0.000209615
2.76175e-05
0.000422839
-0.000596042
0.000173202
-0.000523592
0.000288859
0.000234733
4.53193e-05
-0.000126668
8.13484e-05
-0.000257039
0.000242923
1.41159e-05
0.000551285
-0.00078907
0.000237785
1.2535e-05
1.19786e-05
-2.45136e-05
-0.000298696
0.000330347
-3.16509e-05
-3.16958e-07
1.0567e-05
-1.02501e-05
0.000105551
-7.64503e-05
-2.91007e-05
6.74331e-05
-3.60972e-05
-3.13358e-05
-0.000126921
8.08814e-05
4.60396e-05
-0.000192523
4.3688e-05
-3.63164e-05
7.12669e-05
-3.49505e-05
-1.80062e-05
2.58983e-05
-7.89215e-06
8.70148e-06
0.000105227
-0.000162927
-0.00068151
-0.000356032
-6.08927e-05
5.7102e-05
-1.105e-05
-2.28173e-05
-1.9229e-05
0.000133116
-1.92612e-05
0.000139245
-3.87772e-05
-0.000161742
2.05991e-05
0.000141143
4.32556e-05
1.91515e-05
-6.2407e-05
0.000336048
0.00022347
-0.00115232
0.0014933
-0.000572161
9.26452e-05
0.000479516
-0.000448906
-5.61457e-05
5.08165e-06
8.82305e-06
0.000179714
-0.000213933
3.42192e-05
-0.000786739
-0.000186639
-5.1532e-05
1.32263e-05
-7.62854e-05
4.11942e-05
3.50912e-05
-1.36859e-05
-0.000145352
0.000141256
1.77825e-05
-0.000106289
5.80898e-05
0.000639039
-0.00059084
-0.000794087
0.000894554
0.000420902
-0.000521369
-0.000134557
4.27444e-05
0.000174574
-8.2761e-05
-0.00118284
0.00113942
-5.14516e-05
9.48767e-05
-0.000172077
0.000166661
-5.31739e-05
-0.000139582
0.000128517
-4.87141e-05
2.95926e-06
-3.61349e-05
-0.000110969
0.000144145
-0.000121152
0.000203703
-7.28912e-05
-9.65954e-06
-0.000181609
0.000274654
0.000481226
-0.000574271
-0.000352951
0.000380847
0.00020144
-0.000106324
-2.1455e-05
0.000500142
-0.000372363
0.000896453
-0.000733218
-0.0002237
6.04641e-05
-0.00139731
-3.45625e-05
0.000249023
-7.93808e-05
0.000123897
-1.69819e-05
-2.75341e-05
0.000583437
-0.00016387
-4.95952e-05
-0.000369972
0.000390304
-0.000103346
-3.06043e-05
-0.000256354
-0.000360452
-0.000266193
4.90418e-05
0.000577603
-8.41648e-05
5.4321e-05
0.00128778
-0.00125793
-3.49233e-05
9.04017e-06
2.58831e-05
2.34368e-05
0.000254065
-2.96621e-05
-0.00024784
0.000396549
-1.20726e-05
6.59845e-06
-0.000391075
0.000248913
-0.000190183
-0.000428028
0.000369298
1.60384e-05
-4.95918e-05
-0.000255536
0.000289089
5.06251e-05
-6.38468e-05
-0.000342283
0.000355504
-6.2372e-05
8.04044e-05
-0.000201484
0.000183451
3.03509e-05
3.04681e-05
-7.00806e-05
9.2615e-06
0.000147785
-0.000172978
7.23719e-06
1.7956e-05
2.36577e-05
2.46578e-05
-0.000976593
0.000928277
-6.87834e-05
2.0026e-05
-0.000790368
0.000839126
0.000793317
-0.000801837
4.79355e-05
-3.9415e-05
0.000118869
-0.000165636
-0.000126932
0.000173699
-7.15456e-06
-0.000176712
3.69882e-05
0.000146878
-0.000280956
-2.99371e-05
0.000200688
0.000110205
0.000293014
-0.000234555
-0.000175216
0.000116757
1.56187e-05
0.000510416
-0.000269014
-0.00025702
1.91852e-05
0.000111486
-7.78938e-05
0.000101217
-9.85391e-05
1.65072e-05
-6.0284e-07
-3.07479e-06
-1.24498e-05
-0.000218872
0.000275005
-0.000331407
0.000275274
0.000465473
-0.000448551
3.88882e-05
5.10636e-05
-0.000573592
0.000522529
1.93713e-05
-0.000224095
0.000204723
3.51843e-05
-0.000342559
0.000307375
0.000104785
-0.000116752
2.51914e-05
-0.000410389
1.6798e-05
1.51658e-05
-3.82336e-06
-2.81404e-05
-5.59297e-05
5.41924e-05
-0.000972021
0.000973758
-0.000186413
-0.000502293
0.000551827
0.000136879
0.00115022
-0.000507672
-0.000870859
0.000228314
-0.000663328
0.00118658
-0.000893745
0.00037049
-9.40459e-05
0.000115998
-3.56377e-05
0.0001105
-9.82244e-05
4.35806e-06
-0.000607994
-7.48525e-05
0.000290051
0.000392796
-1.6326e-05
-0.000186224
3.04728e-05
-3.17753e-05
-0.00014405
3.62433e-05
1.73855e-05
6.03262e-05
-4.76253e-05
-3.00864e-05
-0.000357817
0.000227652
0.000130165
8.26409e-05
-5.70605e-05
-2.55804e-05
0.000111979
-6.5024e-05
-3.01981e-05
0.000113908
-0.000321835
0.000274899
-6.69721e-05
-0.000222432
-5.10407e-06
-7.55217e-05
-1.34784e-05
3.41265e-05
5.48737e-05
-0.000592709
4.82967e-05
-0.000119627
0.000664039
-1.08781e-05
-6.48352e-06
1.48205e-05
2.54115e-06
7.31528e-05
5.07023e-05
-1.58711e-05
-0.000107984
-0.000193066
0.000255528
0.000188584
2.96415e-05
-0.00108262
0.00110848
-5.5498e-05
3.98147e-05
0.000505578
-0.000296479
1.96894e-05
0.000439347
6.75172e-07
-0.000465735
5.01091e-05
0.000454338
-3.8712e-05
-0.000125338
0.000176425
-2.94753e-05
-2.16115e-05
0.000145365
8.29057e-05
-0.000120689
-0.000107582
2.4427e-05
2.15534e-05
-2.7248e-06
-0.000477864
-9.81226e-05
0.000455589
0.000120397
-5.77824e-05
-1.22095e-05
-0.000164947
-0.00029477
0.000202901
0.000225674
-0.000256185
0.000154756
-0.000127049
-0.000375003
5.57813e-06
0.000365956
3.46893e-06
-0.000390481
-1.14207e-05
0.000397655
4.24635e-06
-4.6495e-06
0.00034237
-0.000333896
-3.82436e-06
2.42178e-05
0.000613562
-0.000595893
-4.18869e-05
-9.90626e-05
0.000418145
-0.000363058
-0.000362677
0.000219721
5.10716e-05
9.18845e-05
-0.000340324
0.000204459
9.65159e-05
3.9349e-05
-0.000134051
9.62516e-05
-3.78927e-05
7.56921e-05
0.000411279
-0.000364577
-3.92406e-05
-7.46126e-06
-0.000963902
8.22434e-05
0.000956912
-7.52536e-05
-0.000143682
0.000543837
-0.000622296
0.000222141
0.000295065
-0.000297972
-0.000131713
0.00013462
-4.89105e-05
-7.62024e-05
0.000286727
-0.000161614
0.000241638
-0.000291247
4.07299e-05
8.87883e-06
2.61893e-05
6.64899e-05
-1.11272e-05
-8.15519e-05
8.06355e-05
-0.000155339
0.000235285
-0.000567477
0.000560234
3.43635e-05
-5.50592e-05
9.75895e-05
0.000259608
-0.000169976
-7.40134e-05
-0.000167917
-0.000398736
0.000262329
0.000304324
4.70212e-05
-1.96725e-05
0.000286193
-0.000313542
-8.97664e-05
-3.1437e-05
-4.13456e-06
0.000336276
-0.000156557
-0.000349637
6.50105e-05
-1.8262e-05
0.000738443
-0.000471008
1.40187e-06
2.11424e-05
7.02698e-05
-8.33051e-05
7.0637e-05
-5.76018e-05
0.000238646
-0.000600593
-0.00043214
1.15465e-05
7.30877e-05
-1.54143e-05
-0.000428407
0.000473859
0.00101448
-0.00105994
0.000848802
-0.000172043
-4.6722e-05
-0.000630037
-0.000117926
0.000104744
-9.13499e-05
-0.000319616
0.000204633
0.000391627
1.03491e-05
9.89855e-05
-0.000132218
-8.32572e-05
-7.74722e-05
3.25656e-05
-1.4548e-05
-0.000183804
0.000173471
2.4881e-05
0.000195261
-0.000486927
0.000518075
-0.000226409
-0.000182526
0.00018851
0.00019893
5.65363e-05
0.000489201
5.20407e-05
-6.97029e-05
3.90816e-05
-2.14194e-05
8.01493e-05
8.68976e-05
-7.09187e-05
0.000129348
-0.000155443
0.000198775
-0.00017268
-8.09987e-05
-5.63733e-05
0.000566465
0.000205326
0.00010238
-9.19163e-05
6.73982e-05
5.74376e-06
-2.99727e-05
0.000131125
-6.18463e-05
8.61513e-05
-6.27144e-05
-3.72575e-05
1.32208e-05
-2.6938e-05
9.82049e-05
1.68259e-05
6.18614e-05
0.000373582
3.35998e-05
-0.000483777
-7.21408e-06
6.89713e-06
-2.98522e-05
0.000135403
-3.35618e-05
-0.000265135
0.000285582
-3.83854e-05
-8.79329e-05
-0.000322806
5.5215e-05
8.55927e-05
9.75183e-05
-0.000106644
-1.93483e-05
-2.56845e-05
-1.22503e-05
-9.75068e-06
9.06321e-05
0.000230438
0.000105611
0.000124935
0.000310994
0.00014498
3.8644e-05
-0.000150814
-1.93946e-05
2.48566e-05
-9.4615e-05
-0.000149303
0.000104785
0.000499093
-0.000532944
2.27293e-05
1.11216e-05
2.56404e-05
0.000595802
-0.000456155
2.3861e-05
0.000155046
-0.000128108
-0.000213556
0.000379615
6.49343e-05
-0.000230994
2.42576e-05
-2.4104e-05
0.000270818
0.000560434
-7.43997e-07
-1.67087e-05
-0.000148026
0.00018695
-0.000188786
0.000149862
-6.72648e-05
5.49073e-06
6.16298e-05
1.4427e-07
-0.000530086
-0.000120992
0.000437522
-8.79573e-05
5.77974e-05
5.36288e-05
-2.34689e-05
-5.45509e-05
-0.000296502
0.000158403
0.000192649
0.0001145
-0.000137989
9.61818e-06
6.81404e-05
-0.000173183
0.000117208
-0.000535458
0.000953361
-3.13147e-05
2.24062e-05
-1.8356e-05
-2.44403e-05
9.33399e-05
-8.1872e-05
1.29723e-05
0.000130387
-0.000682258
0.000484348
6.75226e-05
-0.000163608
-0.000119855
0.000135437
-0.000626634
0.00103338
-0.000737166
0.000330423
6.85042e-05
-0.000101864
-0.000135179
9.91436e-05
-0.000114293
-0.000143323
7.36408e-05
-9.90415e-05
-0.000127764
-0.000209973
0.000182672
0.00016743
0.000399497
2.23881e-05
-0.000286822
-0.000135063
0.000150298
5.36739e-05
-0.000170125
-3.38475e-05
2.21804e-05
-8.47283e-05
-2.02414e-05
-9.08605e-05
0.000114727
0.000149507
-8.83181e-06
6.94628e-06
9.15526e-05
-8.9667e-05
7.39026e-06
1.45022e-05
-5.77516e-05
3.58591e-05
0.000249775
0.000418845
0.000119626
-0.000293989
0.000121432
0.000276913
-0.000104356
-8.51653e-05
-2.59332e-05
0.00014505
-0.000583232
0.0002757
1.42933e-05
0.0013298
9.14894e-05
-0.00128812
-0.000133172
-1.93755e-05
-2.26148e-05
-4.09278e-05
-0.00060091
0.000178168
0.000529713
-0.000106971
0.000139551
0.000182611
-0.000125973
-0.000196189
7.39372e-05
-0.000244273
0.000136937
3.33985e-05
0.000103162
-0.00020598
0.000105929
-3.11035e-06
-0.000306689
0.00089527
5.18075e-05
-0.000640388
-0.000166449
0.000447223
3.26072e-05
-0.000313382
0.000397878
1.67449e-05
5.97356e-05
-0.000474358
-4.24608e-05
1.20816e-05
6.44497e-05
-3.40705e-05
5.16493e-05
0.000118963
-7.39178e-05
0.00018793
0.000212558
0.000213485
0.000107641
0.000594785
8.85539e-05
0.000372778
6.4172e-05
0.000297444
-2.51123e-05
0.000206974
-2.52845e-07
-0.000181608
0.000252892
-0.000231754
0.000165811
-0.000168389
0.000236893
-0.000236113
0.000335257
-0.000204069
0.00027771
-5.85502e-05
2.04193e-05
-2.57808e-05
-1.17098e-05
-0.000215676
0.000238481
-1.10954e-05
-1.03121e-05
-0.000197222
0.000223792
-1.62578e-05
0.000178477
0.00074448
-0.000566471
0.000971754
6.20722e-05
-0.00101962
-1.42037e-05
-7.23854e-05
0.000144441
3.99233e-05
0.000140567
-0.00027578
-7.8654e-05
0.000213867
0.000459642
-0.000285042
0.000377405
-0.000336814
0.000103959
7.61061e-06
-0.000105809
-0.000110873
-0.000121169
-0.000955736
0.000928184
-0.000400856
-5.10363e-05
-4.25248e-05
2.8726e-05
-0.000449212
-3.33049e-05
0.000453791
-4.20149e-05
0.000476929
6.92469e-06
-0.000441839
-4.50351e-05
0.00036224
1.00454e-05
-0.00032725
1.35692e-05
-1.27742e-05
2.56328e-06
-3.35826e-06
0.000268991
-0.00024264
0.000191257
-0.000217608
1.75381e-05
-0.000129047
0.000102397
9.11154e-06
-4.84597e-05
0.000134611
-0.000207552
0.000243604
-8.03073e-05
4.42555e-05
-0.00024871
-7.18964e-05
0.000201333
0.000119273
-0.00014237
0.00019351
-8.41845e-05
3.30443e-05
0.000388765
4.39994e-06
-4.68979e-07
-0.000392696
3.18646e-06
5.91362e-05
-4.49372e-05
0.000635284
-5.11719e-05
3.77386e-05
-0.000621851
-0.000106236
0.000163055
5.70945e-05
-0.000113914
-0.000308788
-1.88706e-05
-2.07684e-05
0.000348427
-0.000523459
8.88989e-06
-8.70696e-05
0.000601638
-0.000155595
4.51476e-05
0.000162503
-5.2056e-05
-0.000277662
9.75619e-05
0.000259351
-7.92504e-05
-0.000156114
-1.59626e-05
0.000132503
3.95741e-05
5.19393e-06
7.3941e-06
-1.56628e-05
0.000773716
7.80886e-05
-3.72181e-05
5.37234e-06
3.53826e-05
-6.39017e-05
-0.0012492
-0.000155021
0.00122501
0.000179212
0.000259581
0.000466726
-0.000400398
-0.000325908
0.000167674
-7.26977e-05
-0.000159108
6.41314e-05
0.000115655
-0.000205182
0.000267924
-0.000178397
5.758e-05
-5.43936e-05
-9.57094e-05
5.51486e-05
-0.000706765
0.000747325
9.89873e-05
-8.28971e-05
5.73305e-05
-7.34206e-05
-0.000429618
0.000420876
5.21243e-06
3.52966e-06
0.000143891
-0.000347039
0.000446147
-0.000242999
0.000190775
-0.000141135
2.06294e-05
0.000996249
-0.000875659
0.000133184
-0.000253774
-0.000281054
-0.000268076
0.000293906
-0.000136875
-0.000181448
0.000152227
0.000166096
-0.000277472
-3.68376e-05
3.6647e-05
-0.000304388
0.000212885
-6.4611e-05
-0.000151698
-3.05089e-05
2.66114e-05
0.000436323
-0.000405611
-0.000209116
0.000178404
-3.91667e-06
-0.000440488
0.000440645
3.75924e-06
-0.000195057
2.25803e-05
0.000389107
-0.000415666
0.000419592
0.00112652
-1.66465e-05
2.95424e-05
-9.49225e-05
0.000128102
0.000573651
-0.000606831
-4.44832e-05
0.000142002
8.88266e-05
-0.000183471
0.000129008
0.000143402
-0.000286882
0.000224115
-0.00025257
9.4188e-05
-5.68639e-06
-0.000244043
-0.000191053
0.000477506
4.45032e-05
0.000234184
3.58059e-05
-0.000130438
-4.04841e-05
6.60751e-05
0.000198618
0.000162169
-0.000135149
-0.000187605
-0.000107254
0.000131251
-8.20371e-06
1.44424e-05
-5.28385e-06
-9.54861e-07
-0.000731944
-9.76829e-05
0.000228717
0.000522928
-0.000544959
-3.64778e-05
5.85091e-05
-7.39072e-05
-0.000902555
1.79032e-05
0.000958559
-6.92422e-05
-0.00100889
0.00103758
4.05576e-05
-7.35159e-05
6.22062e-05
9.14589e-05
-0.000102202
-0.000179798
0.000209614
0.000199902
0.000161047
-0.000229831
-0.000131118
0.000130124
5.69417e-05
-0.000127078
-5.99874e-05
-0.000819388
-0.000284381
-0.000177099
-7.93863e-05
3.72657e-06
0.000252759
8.0791e-05
1.7794e-05
-8.967e-05
-8.91501e-06
-0.000120498
-6.53454e-05
-3.79214e-05
-5.00243e-05
-1.82069e-06
-0.000499052
0.000253918
0.000375521
8.31434e-05
-6.99394e-05
-2.64928e-05
1.32889e-05
1.65932e-05
6.99825e-05
-7.50918e-05
-1.14838e-05
1.86337e-07
0.000395563
-2.45656e-06
-0.000393293
7.60336e-05
0.000350837
-3.33226e-05
-0.000393548
1.73584e-05
5.21016e-05
1.36834e-05
3.10749e-05
-0.00108597
0.00108607
-3.11823e-05
0.000308808
-0.00165283
2.49155e-06
0.00134153
0.000216978
9.65928e-05
-0.000115886
-0.000197685
0.000293046
1.95125e-05
-5.40381e-05
-0.00025852
0.000510129
-0.000170784
9.83077e-05
0.000224206
-7.60992e-05
-0.00024717
-6.83479e-05
1.42495e-06
4.57561e-05
2.11669e-05
-0.000224179
0.000233587
-2.35599e-05
1.41516e-05
5.77813e-05
-3.89868e-05
-0.00019045
0.000171656
-0.000789584
0.000204109
0.000524575
6.09005e-05
0.000193518
-3.71462e-05
8.36557e-05
-0.000240027
0.000178174
-2.92279e-05
4.9902e-05
-0.000198848
0.000199749
6.24928e-08
4.88514e-05
-0.000248663
-5.92182e-06
-7.02972e-05
7.6219e-05
0.000327304
-0.0012677
-8.71591e-05
0.000101752
0.000181272
-0.000195866
-7.70299e-05
-0.000458554
5.49781e-06
-7.82841e-05
5.94727e-05
2.82724e-06
1.59842e-05
0.00104389
-0.0014693
0.000184509
0.000240904
0.000480368
9.16745e-06
1.32865e-05
-0.000502822
-6.58884e-05
2.70948e-05
4.41659e-05
8.06736e-05
0.000102376
-0.00094645
0.000763401
-3.11347e-05
-0.000135147
0.00019029
-2.40079e-05
2.87116e-05
0.000183403
-0.000252755
4.06408e-05
-4.2531e-05
-0.000134818
0.000189703
-1.23538e-05
0.00056557
-0.000383238
9.65804e-05
0.000126633
-9.38659e-05
3.36616e-05
5.39546e-05
-3.55755e-05
0.000843495
-0.000577417
5.22339e-05
-0.000318312
-0.000129712
0.000256766
7.77562e-05
-6.85682e-05
7.41929e-05
-3.07568e-05
-0.000196214
3.28985e-05
0.000194072
0.00034063
3.3763e-05
-0.000287189
-8.72044e-05
1.73322e-05
-3.31575e-05
-0.000109207
0.000125032
-0.000217593
0.000263192
-0.00012067
-0.000310439
5.80993e-06
0.000216288
-1.83029e-05
-0.000203795
6.34048e-06
6.555e-05
9.12175e-05
-6.2613e-05
0.000171145
1.11411e-05
-6.94602e-06
0.000173979
3.60781e-05
-1.82385e-05
0.000175678
5.5423e-05
-0.00014298
0.000108239
-2.06821e-05
0.00120873
-0.00121925
-0.000254031
9.51512e-05
-0.000541001
0.000195271
0.000459639
0.000281976
-0.000276041
-4.51076e-05
0.000290116
-0.000166327
0.000441781
0.000262886
0.000117556
-0.000241506
4.84266e-05
6.67237e-06
-0.000112416
5.73168e-05
0.000249294
-0.000173656
-0.00028836
0.000212722
0.000127719
-0.000158475
2.33535e-05
-6.77127e-05
5.83702e-05
-1.40109e-05
0.00071953
9.73672e-05
-4.31818e-05
1.66315e-05
9.79597e-05
-0.000453038
0.000477256
-0.000230071
0.000225422
-0.000116003
-2.76795e-05
-0.00113533
0.00113801
9.62171e-05
-9.88972e-05
8.86609e-05
0.000681049
0.000211477
-0.000226024
-0.000185289
-0.000158392
0.000455957
-0.000218674
0.000321161
-0.000454535
-9.75668e-05
0.000230941
-0.000480805
0.00017519
-4.23874e-05
0.000348002
-0.000170152
0.000237398
-0.000335287
0.000268041
-4.21768e-05
-5.06955e-05
-0.00106284
0.00115571
-8.67862e-05
0.000266133
0.000773184
0.000171157
-0.000823644
-0.000120697
2.77051e-05
-3.28443e-05
-5.3411e-05
0.00040548
-0.0003924
5.10925e-05
0.000393071
-0.000438221
0.000133705
0.000711933
-0.000651518
4.72253e-05
1.92648e-05
7.41488e-05
-1.26226e-05
-0.000235256
3.17669e-06
0.00023789
0.00011104
-8.7825e-05
6.49475e-05
-8.81629e-05
0.000436778
-0.000384265
-7.42576e-05
2.17448e-05
0.000382384
-0.000325319
5.02541e-06
-6.2091e-05
0.000216099
0.00167924
-0.00126643
-0.00062891
-1.11117e-05
6.6772e-06
-7.05708e-05
7.50053e-05
-0.000995774
-0.000637767
0.00105642
0.000577118
1.32211e-05
-2.76257e-05
-3.25895e-05
4.69942e-05
7.40277e-05
-0.000206716
-0.000244167
0.000376855
-9.22957e-05
0.000108166
7.18471e-05
-8.77169e-05
0.000113192
-4.12669e-05
0.000647605
0.000332904
-0.000458873
0.000182058
0.000414212
-0.000654617
0.000351984
1.97222e-05
6.67932e-05
-1.90757e-06
-4.35732e-06
0.000128592
-0.000122327
0.000434617
-3.43861e-05
0.000143607
-1.15659e-06
7.41842e-07
6.74032e-07
-0.000223527
-3.92844e-05
0.000188199
7.4612e-05
0.00029605
0.000657744
-0.000487068
-0.000346545
-0.000284333
0.000444465
0.00046144
-0.00043789
-1.64669e-05
-7.08346e-06
0.000297992
5.6957e-05
-0.000172339
1.47498e-05
-1.03552e-05
7.58397e-06
-1.06408e-06
-2.4925e-05
-1.01081e-05
-4.8715e-05
0.000110088
0.000347425
-0.000399039
5.1614e-05
-0.000452764
0.000305178
-0.00138746
0.00153505
-7.51853e-05
6.35101e-05
0.00010286
-9.11853e-05
0.000197522
4.43626e-05
-9.37882e-05
-0.000148097
-0.000462185
-6.45469e-05
0.000629116
-0.000102385
0.00018889
-0.00019294
-0.000348766
-4.89298e-05
-1.61399e-05
-8.57447e-05
0.000194733
-0.000145828
0.000148618
-1.13636e-05
-0.000221208
8.39265e-06
-9.78673e-05
0.000121784
0.000101803
-0.00012572
0.000225539
-0.000121034
-0.000107823
3.31843e-06
0.000223674
-7.38877e-05
0.000143227
6.12724e-05
1.10605e-05
-5.19136e-05
3.49708e-05
-8.5474e-05
0.000117944
-6.74409e-05
-8.68798e-06
-0.000161402
0.000209271
-3.91813e-05
8.45808e-05
-4.02182e-05
0.000157444
-9.77086e-05
0.000157242
0.0001059
-2.93305e-05
0.000216476
-0.000111255
0.000437198
0.00011038
-0.000484191
-0.000480186
0.000673763
0.000290614
0.000823437
-0.00104269
0.000357503
-0.000138251
-2.16892e-05
0.000420263
-0.000403105
4.53135e-06
-2.77227e-05
0.000221384
-0.000278867
8.52054e-05
0.000158781
-0.000108274
-0.000118285
6.77776e-05
-0.00139976
0.00122436
-0.00028774
0.000463139
0.000316714
-0.000265671
-8.92194e-05
3.81759e-05
1.76721e-05
0.00044405
-0.000446841
-1.48819e-05
-0.000361727
2.1181e-05
5.13093e-05
-0.000629303
0.000654218
-7.62246e-05
8.95646e-05
-0.000339611
0.000331276
-8.12292e-05
-0.000100003
-0.000759851
0.000859854
-2.08752e-05
-2.12059e-05
-4.32767e-05
8.53578e-05
2.34582e-05
-3.78986e-05
2.37757e-05
-9.33529e-06
-0.000109268
0.000118338
1.58642e-05
-2.49343e-05
7.10165e-05
0.000211045
-0.00022428
-6.69519e-05
0.000153632
-0.000173839
-1.31816e-05
-3.17881e-05
3.77588e-05
7.2109e-06
-2.21526e-05
-1.55483e-05
2.74677e-05
1.02332e-05
-1.7232e-05
-2.33057e-06
0.000326249
-0.000306686
0.00123398
-0.00125631
-8.35667e-05
0.000105896
-7.0457e-05
1.1405e-05
-2.82933e-05
2.91514e-05
-8.5816e-07
0.000245929
0.000210304
-0.000235647
-0.000220586
-4.68449e-05
-5.66263e-05
4.39492e-05
5.9522e-05
-8.24861e-05
0.000129271
-0.000452396
2.00583e-05
-3.79733e-06
-0.000167959
-3.03732e-05
2.07991e-05
-0.000294814
1.93557e-06
1.98843e-05
-0.000299292
0.000350487
2.43467e-05
-3.24636e-05
0.000629642
6.78287e-05
-8.39089e-05
-0.000376379
1.93443e-05
-1.79685e-05
-0.000340793
-6.00052e-05
1.03171e-05
-0.000470781
-0.000213146
0.000206064
-0.000903221
-0.000140636
0.000242019
-0.000305257
5.23293e-05
-4.10607e-05
-0.00010574
-0.0012481
0.00126967
-0.000115771
8.0196e-05
-0.000322242
-2.17392e-05
-4.5912e-05
0.000150292
0.000374782
-0.00010578
-0.000314036
0.000577407
-0.000127444
-0.000491978
-9.63793e-05
7.43979e-05
-3.43143e-05
5.62957e-05
7.67264e-05
0.000472579
-8.78654e-05
0.000171336
-0.000180942
6.43237e-05
-5.47174e-05
4.0799e-05
-1.59236e-05
-0.000173328
0.000148452
-4.79638e-05
5.85941e-05
0.000130626
-0.000325226
0.000175812
0.000402306
-2.27957e-05
-1.67378e-05
1.56293e-05
2.39043e-05
0.000230103
-0.000156883
0.000222066
-0.000295286
-0.000337834
-8.81866e-05
6.42937e-05
-3.44913e-05
-4.87156e-05
-5.0309e-08
-0.000202512
-0.000100414
0.000115322
0.000163398
-2.77276e-05
4.07548e-05
2.18151e-05
-7.70433e-05
7.88782e-05
-2.365e-05
-9.75664e-05
-4.13291e-05
-2.23839e-06
0.000141134
0.000477098
0.000289114
-0.00060549
-0.000160722
0.000221438
-0.000543565
-0.000162063
0.000231265
0.000189517
-0.000355678
-6.51031e-05
-0.000516926
0.000427442
7.93894e-05
1.00936e-05
0.000100502
0.000227554
-0.00111764
0.0001624
-0.000127066
-8.42633e-05
0.000206544
-3.00693e-05
-0.000174539
9.3714e-05
1.63901e-05
-9.00458e-05
0.000901944
-2.35661e-05
-0.000768667
-0.000109711
-2.24397e-05
-3.16951e-06
-7.01635e-05
-9.54728e-05
-7.37345e-06
-6.29238e-05
-0.000109575
0.00113152
0.000164635
-3.42739e-05
2.96393e-05
6.00576e-05
-0.000160268
0.000178555
0.000198114
-0.000216401
0.000270682
-0.000304064
0.000393498
-0.000360116
-1.91729e-05
0.00044796
1.5338e-05
-0.000444125
0.000143603
-0.000133221
-9.31498e-05
8.27675e-05
-0.000350269
-2.02533e-05
0.000132743
0.000237779
-0.00112367
0.00111047
0.000115578
-0.000596851
0.00055049
-0.000374458
0.000296934
-4.9792e-05
0.000132398
-0.000117097
0.000108947
-5.2421e-05
0.000861452
-0.00102969
-0.000263732
0.000431973
-0.000226382
-0.000993677
0.00119641
2.36485e-05
-0.00121531
0.00123157
-0.000122006
-0.000451013
0.000393581
0.000351816
-0.000294384
-0.000551753
0.000590373
-0.000516445
0.000477825
-0.000228066
6.27939e-05
-6.92822e-05
-0.000408568
0.000614753
-0.000686371
0.00015811
-1.55765e-05
-0.000206891
-0.000183999
0.000173401
0.000217489
-6.51519e-05
8.57868e-05
4.06529e-05
-3.21923e-05
-0.000313718