/*--------------------------------*- C++ -*----------------------------------*\
| =========                 |                                                 |
| \\      /  F ield         | OpenFOAM: The Open Source CFD Toolbox           |
|  \\    /   O peration     | Version:  v1912                                 |
|   \\  /    A nd           | Website:  www.openfoam.com                      |
|    \\/     M anipulation  |                                                 |
\*---------------------------------------------------------------------------*/
FoamFile
{
    version     2.0;
    format      ascii;
    class       volVectorField;
    location    "0.16";
    object      U;
}
// * * * * * * * * * * * * * * * * * * * * * * * * * * * * * * * * * * * * * //

dimensions      [0 1 -1 0 0 0 0];


internalField   nonuniform List<vector> 
5794
(
(-0.527711 1.03413 -2.83412e-17)
(0.0393324 2.33883 0)
(2.89989 -0.636002 -1.16695e-16)
(0.193939 1.03342 1.62764e-16)
(3.51403 0.839057 3.19515e-17)
(-0.0300036 2.27108 -1.07764e-16)
(-3.97511 0.0331297 -1.65003e-16)
(-1.14024 -0.000451081 0)
(6.04683 0.530015 9.80439e-17)
(0.489603 -0.181685 2.17898e-16)
(4.34431 -0.544937 -4.00035e-18)
(-1.07782 0.0258065 0)
(-1.05729 -0.0613302 6.42497e-16)
(1.13642 4.04198 2.61293e-16)
(4.12523 -0.466398 3.30048e-16)
(0.385763 -0.754287 -1.62316e-16)
(1.74977 0.166008 5.43099e-17)
(0.468877 3.45741 2.04175e-16)
(3.39993 -0.328478 3.40693e-16)
(0.0274651 1.94588 1.32655e-16)
(-2.91055 1.39999 -4.41845e-17)
(0.0970493 1.83183 -1.36917e-16)
(-3.10589 -0.030974 2.62916e-16)
(2.05926 0.00223513 -5.15007e-16)
(0.575321 -0.360333 -5.24965e-16)
(2.74275 10.2988 2.0266e-17)
(7.21673 -0.091952 0)
(0.105528 2.14033 -1.9897e-16)
(-1.04072 0.792029 -7.11969e-17)
(-0.504874 0.096064 2.80463e-16)
(-0.293095 -0.103498 -7.48503e-16)
(-1.8779 0.170383 -5.33411e-16)
(0.131027 -0.153204 -1.18604e-15)
(-1.18183 -0.143553 4.15147e-16)
(-1.59102 -0.772898 -2.02925e-16)
(-1.7248 -0.404603 2.02471e-16)
(9.7844 0.62389 -2.10564e-16)
(2.17268 -0.180038 0)
(-0.933002 -0.167803 1.83158e-16)
(-2.35522 1.31189 0)
(-1.66535 -0.764566 -1.29614e-16)
(0.460394 2.51946 1.34769e-16)
(7.76144 0.174103 -9.88473e-19)
(0.262094 -3.24449 0)
(3.45009 -0.641402 -3.1195e-16)
(0.12252 -0.0905943 2.36358e-16)
(5.2481 -0.00455858 -2.17549e-16)
(-0.112517 -0.0203366 0)
(0.327109 0.239056 7.85302e-16)
(1.80163 -0.217062 6.35787e-17)
(-0.0294614 -0.0786528 -1.87716e-16)
(2.67452 -0.0785488 -2.5268e-16)
(1.03031 -0.0639984 0)
(3.07863 2.24229 1.07872e-16)
(-0.0276773 -0.0107653 1.11889e-17)
(-0.890947 -0.632251 0)
(6.15382 -0.0529021 -1.67696e-16)
(-0.267186 -0.11445 2.17924e-16)
(8.92098 0.196358 0)
(4.03018 9.49305 -7.12879e-19)
(9.08852 0.494899 1.85028e-18)
(0.628827 1.49652 -1.16525e-16)
(-0.151989 -0.172208 -2.03243e-16)
(-0.938243 0.371261 2.27726e-16)
(0.211587 -0.304101 0)
(1.04034 -0.0646211 -2.71297e-18)
(2.27423 2.19477 -1.83408e-16)
(0.410967 0.449378 0)
(0.507451 2.81419 -2.18751e-16)
(-0.0790817 1.01745 -1.16853e-20)
(3.27621 -0.689749 1.92071e-16)
(1.80856 3.00818 -2.52791e-16)
(12.3422 2.0553 -3.59929e-18)
(-3.01295 -0.682712 0)
(0.503972 3.3094 2.02353e-16)
(-0.140784 0.958424 -1.42237e-19)
(0.828994 -1.17028 1.14458e-16)
(1.60356 10.1075 -2.07909e-17)
(-0.0648263 -3.21012 3.74587e-17)
(0.219934 -0.00532012 7.72138e-17)
(0.0176199 1.14059 -1.89223e-17)
(0.0861805 2.18972 -1.26808e-16)
(-0.129039 0.740265 7.88272e-21)
(-1.03361 -0.147992 -1.20251e-16)
(1.84753 -0.782846 -3.9081e-16)
(0.0325748 2.52454 -6.39512e-17)
(0.247467 4.15042 3.95281e-17)
(-0.306711 4.97722 -2.37578e-17)
(1.23292 0.824978 -1.62533e-16)
(-3.14489 0.121281 -4.15405e-17)
(0.660319 6.05526 -8.0371e-17)
(0.109409 4.68241 -1.08566e-16)
(0.0145742 3.6787 2.22943e-16)
(-0.0915374 5.70758 8.02056e-17)
(0.0167479 3.8196 4.96108e-17)
(1.16525 -0.663739 6.65201e-18)
(0.0986012 6.82205 -5.37167e-17)
(0.00814223 3.65206 -2.37658e-17)
(-0.119872 4.64673 0)
(8.79691 0.537358 -2.99538e-17)
(1.84189 3.18813 -1.21676e-16)
(-0.594154 0.0777515 -4.74389e-16)
(8.86547 0.275506 6.6903e-17)
(1.23841 3.40403 -3.83743e-16)
(2.6571 0.152257 0)
(0.432559 3.44927 0)
(-0.0636279 1.80027 0)
(1.55305 0.34558 -2.60436e-16)
(-0.380496 -0.593638 -1.52765e-16)
(-0.357407 -2.98013 -1.01151e-16)
(-0.166669 -0.0713918 -1.60173e-19)
(-0.419275 -0.292671 0)
(-1.17873 4.65733 1.07857e-16)
(0.607204 -0.107727 1.56788e-16)
(0.0126674 3.87039 0)
(-0.232665 4.77768 0)
(3.32636 0.709501 -2.39397e-16)
(0.424018 2.82609 -2.32285e-19)
(9.35111 0.450006 -2.09355e-20)
(10.8226 0.583178 5.95695e-18)
(0.513494 3.11009 1.99885e-16)
(3.22709 0.00878851 0)
(-0.653386 0.0356411 0)
(0.0185446 1.72138 -2.62811e-16)
(0.713266 -0.670392 2.15158e-16)
(4.65567 2.29713 4.45373e-17)
(1.44711 4.48662 0)
(0.042613 2.26796 6.58525e-17)
(2.96752 0.226715 1.72483e-16)
(0.208069 -0.504919 1.75008e-16)
(-0.479397 -0.340729 3.65879e-16)
(-0.73654 -0.103189 2.29951e-16)
(1.27807 1.76346 2.25233e-17)
(1.28923 9.61783 -6.49155e-17)
(0.650544 3.45991 2.44999e-16)
(3.39403 -0.289687 0)
(4.30906 -0.16206 8.85483e-17)
(0.788054 1.31217 -1.73367e-16)
(-0.103004 -0.134113 2.10603e-16)
(-0.00994048 -0.598315 0)
(-3.50026 1.51517 -3.3996e-16)
(1.87995 1.76563 0)
(0.853776 -0.604121 0)
(1.03572 1.27385 4.49865e-16)
(-0.0718043 -0.0302833 2.39774e-16)
(2.01365 0.0582756 1.74028e-17)
(-0.520909 0.208717 3.01663e-16)
(7.77577 0.262777 2.24837e-16)
(3.88773 0.568038 -1.99141e-18)
(0.496836 0.253607 5.56108e-16)
(7.52355 -0.226207 -1.608e-16)
(2.36229 0.642043 2.46074e-16)
(0.503085 3.51882 0)
(-0.531584 0.113117 2.27827e-16)
(4.91629 -0.331558 0)
(4.54443 0.105185 0)
(-0.888341 -0.103965 -3.13036e-16)
(0.173465 -0.121204 4.84238e-16)
(0.595783 -0.172721 -3.93679e-16)
(1.67289 -0.352281 -1.42137e-16)
(-1.91546 -0.110035 3.56336e-16)
(-1.15509 0.0114466 -4.01938e-16)
(-0.916961 -0.0695576 0)
(-0.801879 -0.205832 -1.60547e-16)
(0.248039 -0.364243 -3.86854e-16)
(1.49181 -0.108395 1.90286e-16)
(-0.400373 -0.111344 1.46904e-18)
(-0.779752 -0.187768 -4.47921e-18)
(-0.265623 -0.13521 0)
(-1.06331 -0.254253 9.30341e-19)
(-1.66849 0.0371735 0)
(-1.18822 -0.0572004 -1.19688e-16)
(-1.44291 -0.0182148 0)
(-2.15583 -0.346493 9.34672e-17)
(-1.36644 0.0846 4.2237e-16)
(-2.95171 -0.187768 0)
(3.07216 -0.0338048 -1.79656e-16)
(-0.657642 -0.207366 -2.86204e-16)
(1.43763 -0.317928 -8.62671e-17)
(4.32859 -0.449981 7.62437e-18)
(0.0292555 -0.0722946 -6.58333e-18)
(-2.02068 -0.294673 0)
(-0.0379802 -0.0365736 0)
(0.608088 -0.0652787 1.38197e-16)
(-0.292141 -0.0964318 0)
(-0.134138 -0.575768 7.06125e-17)
(-0.877949 0.235163 -1.6049e-16)
(-0.356489 -0.0727572 -1.10379e-16)
(-0.235167 0.0469928 1.36574e-16)
(-0.893419 -0.0219715 3.71032e-16)
(4.40991 -0.353176 -3.34995e-16)
(-2.16919 -0.0661011 3.86875e-16)
(0.199438 -0.118949 7.30439e-16)
(-0.187999 -0.00067615 7.11148e-16)
(-0.762639 -0.069223 -1.09608e-16)
(-0.673198 -0.172854 -5.73466e-16)
(-0.991897 0.0779437 -2.44796e-17)
(0.276165 -0.073052 -1.97767e-16)
(2.46698 -0.350156 -2.51097e-16)
(6.83053 -0.0143312 1.12437e-16)
(-3.48522 -0.169797 -1.88611e-17)
(2.50485 -0.0991612 0)
(-0.06324 -0.00219218 0)
(-1.17729 -0.0124382 1.10899e-17)
(4.83727 0.0631292 -5.51299e-17)
(0.21122 -0.109385 0)
(0.245796 -0.0491624 1.29088e-17)
(1.0584 1.10954 1.42475e-19)
(6.26191 0.619722 -6.61033e-18)
(2.75104 7.16308 1.36727e-16)
(-0.73052 -1.33625 1.11338e-16)
(9.718 -0.00742424 0)
(-1.20411 -0.235453 -1.20106e-16)
(-1.02206 -0.273258 1.93769e-16)
(0.750612 -0.184311 0)
(-0.126617 -1.03997 8.49794e-16)
(-3.7872 -0.448716 -1.35652e-16)
(2.42384 2.36589 9.4283e-17)
(3.6331 -0.797785 1.53348e-16)
(1.53587 6.22189 -1.46833e-16)
(9.6377 -0.00601623 0)
(-0.725892 -0.325014 2.89767e-16)
(0.00158332 4.25842 0)
(-0.0689971 2.97962 4.16828e-17)
(5.21182 0.0765779 1.258e-16)
(11.9973 0.737977 2.00671e-18)
(0.207592 0.13587 -8.02768e-17)
(1.62069 -0.213095 -1.03743e-16)
(3.74296 0.00388562 0)
(3.59255 0.346245 -2.1123e-16)
(-1.92458 -0.152399 0)
(-2.62904 -0.348746 -5.98959e-17)
(-1.44416 0.50126 -1.01749e-16)
(-0.155908 0.0927932 1.76953e-16)
(1.60465 0.437449 2.00567e-16)
(9.52339 0.14166 6.76033e-18)
(7.99855 0.561487 2.32962e-18)
(6.69307 0.637944 2.80859e-17)
(-1.25531 0.0166194 -1.78039e-16)
(-1.2576 0.346083 -4.26008e-16)
(0.121246 1.88895 0)
(1.10771 2.25111 1.14359e-15)
(1.15119 3.32391 2.60591e-16)
(-0.158152 0.418399 -3.14012e-16)
(-0.497687 0.464913 3.23525e-16)
(-0.070739 -0.0217248 3.53811e-16)
(2.91217 -0.727774 -1.0845e-16)
(4.21258 0.443046 8.57819e-18)
(-0.123925 6.32373 0)
(0.0206913 2.45886 0)
(-0.0944317 3.76898 0)
(1.05771 -0.138824 2.77551e-17)
(3.41105 -0.25635 -7.5202e-17)
(-0.0673411 -0.176397 2.32011e-19)
(7.50661 0.944546 -5.31208e-17)
(5.47182 1.30435 -1.39418e-17)
(8.94433 0.359837 -1.34505e-16)
(9.20229 0.511134 1.50514e-16)
(0.692966 0.813586 3.08986e-16)
(-0.17894 -0.578732 0)
(5.7574 -0.00310445 -1.08143e-16)
(-1.15152 -0.167948 1.05392e-16)
(-0.932678 -0.188835 -1.12664e-16)
(0.699624 -0.0302968 0)
(-2.23972 -0.071577 0)
(0.558256 0.0664232 -7.00847e-19)
(0.143449 0.453713 2.16662e-16)
(3.121 0.875872 0)
(-1.41342 -0.18904 -6.33107e-16)
(0.397995 -0.263166 -1.9603e-16)
(4.65562 0.199281 0)
(0.0418098 -0.062779 -3.69252e-16)
(0.764654 -0.187344 -5.81137e-16)
(2.76129 -0.0565747 -2.54312e-16)
(9.50304 0.0852525 3.55257e-17)
(3.87767 -0.0474044 2.19104e-16)
(3.51308 1.78383 -1.25728e-16)
(-3.52657 0.559865 -6.75871e-17)
(1.13834 0.70021 -1.77616e-16)
(-1.32759 -0.153647 -2.82247e-16)
(0.170926 -0.00323719 4.20082e-16)
(1.22586 4.94421 2.24066e-16)
(-1.57785 -0.699237 1.42542e-16)
(0.261349 2.58698 -3.53287e-16)
(-2.32437 0.89611 7.38722e-17)
(0.0553078 3.54498 1.66966e-16)
(0.131331 3.93507 1.61327e-17)
(0.0996187 3.27052 0)
(-0.178736 5.72673 5.00483e-17)
(0.640522 2.89287 0)
(-2.09652 -0.405781 -1.57855e-17)
(-1.95821 -0.859275 -1.24064e-16)
(-1.03044 0.22944 2.39777e-18)
(3.38615 0.776013 0)
(8.07775 1.47462 0)
(1.92746 6.56619 6.43973e-18)
(-2.35479 -0.578154 6.29513e-17)
(0.00429336 1.93292 -1.5381e-19)
(-2.04254 0.593031 -3.01012e-16)
(0.685292 -0.0466303 -1.84186e-16)
(0.0711032 1.87419 9.06002e-17)
(-0.356496 6.38722 0)
(0.128847 0.800037 -8.04655e-16)
(0.752099 1.20972 0)
(-2.84252 -2.00709 -1.23389e-16)
(3.1981 0.32423 1.56172e-18)
(0.958237 0.664118 -2.51402e-16)
(0.587853 2.10264 3.84212e-16)
(0.616801 -0.143152 4.50363e-16)
(4.8687 0.234112 0)
(0.0469589 -0.0688554 -7.85021e-16)
(-0.138052 -0.199077 -3.11825e-16)
(1.85725 5.68403 -1.58831e-16)
(0.626513 -0.0690095 -8.85068e-17)
(10.6205 0.116562 0)
(10.0319 0.312733 -1.76455e-17)
(1.81714 0.356116 -9.11231e-17)
(0.219036 2.62659 -3.82026e-16)
(-0.610325 -0.866042 -2.83745e-16)
(-0.796073 0.254046 -7.57554e-17)
(-0.895169 0.83748 5.28345e-16)
(-3.63556 0.910551 -1.67339e-16)
(0.284382 2.38548 -1.62405e-16)
(4.01774 0.704666 -9.53721e-19)
(-0.262857 -0.460381 0)
(-0.919054 -0.249834 0)
(-1.60378 -1.0413 0)
(-0.920592 -0.0856421 7.68188e-17)
(-0.839945 -0.0210405 -3.9669e-16)
(3.36099 -0.420841 3.13324e-16)
(3.14724 -0.319385 -8.60002e-18)
(6.93961 -0.0930235 2.8386e-16)
(-0.381598 -0.0546495 1.06679e-16)
(-0.109161 -0.0367844 5.90904e-16)
(-1.49067 0.278626 0)
(0.0648734 -0.255938 -2.43868e-16)
(0.478663 0.00743791 0)
(-0.570915 -0.144317 0)
(-0.0797511 0.245729 -3.27979e-16)
(-0.553699 -0.0893058 0)
(1.88691 -0.256669 3.9744e-16)
(0.0957649 -0.501822 5.02061e-16)
(5.68822 -0.146313 0)
(-2.23267 0.0107963 0)
(3.44804 0.0347316 3.27842e-16)
(0.0531187 -0.0370401 4.65092e-16)
(0.719065 0.113063 3.49974e-16)
(-1.31009 -0.502158 -2.26734e-17)
(1.64829 0.122643 -1.40791e-16)
(2.1543 0.0945928 7.91591e-17)
(-0.683772 -0.0566881 8.63628e-17)
(0.385417 0.150848 2.41122e-16)
(0.393381 -0.112453 -2.63361e-17)
(-2.37908 -0.127939 1.51995e-16)
(-0.108692 -0.0172604 0)
(-0.749618 -0.0761136 0)
(1.71115 -0.206062 1.59739e-16)
(2.39808 0.0105357 2.20986e-16)
(-3.65517 -0.074573 6.54251e-17)
(-0.95698 0.120246 0)
(1.27844 0.869311 -2.96804e-16)
(1.31395 -0.0366578 5.42353e-16)
(4.55246 -0.0290182 3.52243e-17)
(-4.06051 0.0662721 -2.89035e-17)
(-1.15656 -0.0723182 -3.1581e-16)
(3.98427 0.0972212 3.37695e-16)
(1.05971 -0.213668 -4.57538e-17)
(0.0191772 0.0124994 0)
(4.81364 -0.200792 3.01182e-16)
(-0.0869836 -0.0051431 -1.19744e-16)
(1.21359 1.94683 -1.11058e-16)
(0.791919 -0.0215522 0)
(3.84817 0.108433 -7.96512e-17)
(0.21912 0.597627 3.1761e-16)
(2.01678 0.347233 8.65341e-17)
(-0.41008 -0.769524 2.0367e-16)
(-1.02348 -0.410968 0)
(5.08428 0.286325 7.17491e-17)
(-0.369408 -0.0661264 0)
(1.0117 0.184905 1.37275e-17)
(-0.572569 5.45578 9.40699e-17)
(0.989965 1.70349 0)
(10.8122 0.0895121 0)
(-1.36747 -0.289001 1.56566e-16)
(-1.49079 -0.468826 -6.23026e-16)
(-1.29146 -0.354705 -3.20637e-16)
(-1.17351 1.70437 -5.19528e-17)
(-2.26966 0.128406 2.46437e-16)
(-1.00926 -0.447907 -1.13278e-15)
(-0.282672 0.00884374 0)
(-0.272345 -0.233198 -8.50335e-16)
(-1.3551 0.0848929 -1.05592e-19)
(-0.0751436 1.01586 -2.41547e-18)
(0.362029 -0.105546 1.8661e-16)
(-1.65441 0.0417582 9.15344e-17)
(-2.74094 -0.29341 -8.55752e-17)
(-1.05961 0.226853 1.09499e-16)
(0.932149 -2.81867 0)
(-0.790725 -0.234068 0)
(-4.10386 -0.271865 -2.51219e-16)
(1.99576 -0.218894 1.27801e-16)
(0.343484 -0.71059 -4.92225e-16)
(10.2873 0.0776581 3.36496e-17)
(-0.0952499 0.0412959 2.25073e-16)
(-0.403556 0.0549002 0)
(5.67341 1.04196 4.35127e-17)
(1.80835 -1.75064 6.25483e-19)
(-0.146286 2.0877 1.75317e-16)
(0.241742 1.73709 -3.20046e-17)
(-0.105676 7.11496 -5.28769e-17)
(-0.0118233 3.57127 3.73407e-17)
(0.0207247 4.40108 0)
(0.598114 0.473127 1.75356e-16)
(-0.888993 0.250514 2.78041e-16)
(0.357238 -0.00280667 3.09712e-17)
(4.89333 0.0490304 6.92219e-17)
(-0.000768715 -0.0377849 0)
(0.460946 2.15204 2.50811e-16)
(-0.772882 -0.316445 0)
(-0.0167691 7.04508 3.61e-17)
(-0.172177 4.645 -8.54882e-17)
(-0.0135718 3.62038 5.076e-17)
(1.84717 -0.115591 -1.4983e-17)
(1.48059 2.16561 -3.21818e-17)
(-0.989191 -0.120927 0)
(-1.55156 -0.142783 0)
(-1.31813 -0.155488 -1.8879e-16)
(0.582261 -0.16212 -2.04034e-16)
(0.0804518 2.19589 -1.17829e-17)
(0.119409 2.00748 4.84849e-17)
(4.85319 0.153414 2.79115e-16)
(10.0425 0.172227 1.25245e-17)
(0.432639 0.763337 -4.71422e-16)
(1.15646 -3.14012 -2.0119e-17)
(3.44703 -0.640846 2.36048e-16)
(2.51793 0.752908 0)
(0.753133 -0.299239 1.77904e-16)
(-1.06623 0.00200748 -1.07857e-17)
(-1.05835 -0.256424 -1.08934e-16)
(-1.41929 -0.157435 2.13229e-16)
(-1.24393 -0.249936 2.2742e-16)
(9.97593 0.0921583 -2.45251e-16)
(-0.512738 -0.03998 0)
(-0.23507 -0.0583901 8.93627e-17)
(-3.51597 -0.177103 -1.72052e-18)
(-0.148007 5.14138 -8.47911e-17)
(-0.00619803 3.86293 -3.2856e-20)
(-0.0428895 -0.0791695 0)
(1.99392 -2.58394 1.49098e-16)
(0.404528 0.43666 -9.14209e-17)
(0.608968 -0.114106 -2.18065e-16)
(0.0505933 2.29559 -5.29982e-17)
(-2.55934 1.00221 4.47468e-17)
(0.17298 1.85922 -4.62481e-16)
(0.00723645 3.87977 -4.22059e-17)
(0.682163 -0.0178625 -5.65352e-16)
(0.421962 6.40617 -2.06921e-18)
(1.33837 -0.263622 -2.68105e-16)
(0.153124 3.59968 -4.99383e-17)
(-0.284352 6.20977 1.13783e-16)
(0.0224426 1.46656 -1.02509e-16)
(0.071467 2.53179 -1.73838e-16)
(-0.578138 1.05872 1.69987e-16)
(0.0688841 -0.0558268 -4.53807e-16)
(8.43355 0.569597 9.01113e-17)
(-0.00413567 -0.537268 -3.08262e-16)
(10.827 0.502527 -2.10182e-18)
(3.14434 1.67977 7.85531e-17)
(0.918523 -0.592719 -3.97689e-16)
(-1.01628 -2.73564 -4.63852e-17)
(0.614078 -0.00988308 4.02208e-17)
(7.13682 0.654796 -5.58592e-18)
(1.20528 0.915493 -6.50213e-17)
(3.66327 -0.0787114 2.11924e-17)
(3.00247 0.0517746 -1.52578e-16)
(-1.04999 -1.43308 1.12329e-15)
(8.1362 1.4347 -3.58699e-18)
(0.224726 2.71736 2.23873e-16)
(-2.11402 -0.414263 1.81592e-16)
(0.0282316 2.48368 4.32887e-17)
(-1.47787 1.15637 2.44389e-16)
(0.0996393 1.36891 0)
(4.3251 -0.0986341 -1.16888e-16)
(4.02552 -0.087849 8.76298e-18)
(1.901 0.306933 1.73038e-16)
(3.63682 -0.985546 3.08343e-20)
(9.77827 0.0353018 0)
(-4.60205 -0.949117 1.5514e-18)
(0.605334 0.0120369 -4.81334e-17)
(0.130908 1.43317 3.21436e-19)
(0.0739915 2.35088 1.57384e-16)
(0.139017 1.40331 -2.24073e-16)
(0.131219 1.73136 7.76638e-16)
(4.3537 0.538748 8.28144e-18)
(1.83828 -0.849332 -2.69187e-19)
(-0.219459 -0.303955 2.65614e-16)
(-1.23642 0.246459 0)
(0.890971 1.90238 0)
(0.0132012 -0.0816463 -3.95241e-17)
(6.16877 0.914103 -4.93243e-20)
(4.7535 1.13003 2.99025e-17)
(8.38299 0.82077 -7.61907e-18)
(10.4394 0.554314 3.16155e-18)
(-0.935596 -0.321869 0)
(0.497791 1.38384 0)
(0.210847 2.37715 1.71936e-16)
(-0.155445 1.25795 2.08973e-16)
(9.03341 0.472262 -4.2648e-16)
(1.77717 0.510812 0)
(0.897852 -0.122022 0)
(0.456138 -0.946344 2.87921e-16)
(0.818596 0.567499 1.54257e-18)
(-0.500764 4.84275 -1.09593e-16)
(0.670407 -0.021993 2.02833e-16)
(0.652743 -0.0353306 -9.99087e-17)
(0.178386 4.02981 -4.28103e-17)
(-0.228236 4.07085 -2.22258e-17)
(0.671407 -0.0260739 -2.69143e-16)
(9.90067 0.171482 -6.48497e-17)
(10.3085 0.3129 3.53191e-18)
(-0.234847 1.7453 1.34301e-16)
(0.456272 2.17272 -3.42017e-17)
(3.62219 1.04543 -1.31195e-17)
(0.52959 2.17686 -2.79744e-16)
(-0.124743 -0.521618 1.10093e-15)
(-0.0825805 2.10716 5.78303e-18)
(-1.58541 -0.649307 0)
(5.98644 3.5352 5.8872e-17)
(0.0834201 2.13472 9.46041e-17)
(-0.0291764 1.84093 -4.84915e-20)
(-0.572157 2.05297 1.78911e-16)
(0.593927 0.00099686 0)
(10.8449 0.29819 0)
(0.681658 1.8909 -5.82272e-17)
(3.89242 0.0265936 0)
(0.63157 0.0757465 8.62372e-17)
(10.0652 0.0656207 -1.02203e-16)
(4.89615 -0.0301186 7.24527e-17)
(-0.275045 -0.514677 1.35202e-16)
(6.91291 0.0841718 9.18937e-17)
(0.197337 2.04303 7.17755e-17)
(-0.514519 -2.80228 1.64873e-16)
(0.0890031 2.02534 1.76861e-16)
(1.27369 4.33078 -1.40172e-16)
(-1.00781 -0.795865 -7.57123e-17)
(-0.377048 -0.306151 0)
(9.70335 0.854253 0)
(1.26128 1.45106 -3.76914e-16)
(0.609814 -0.0466084 -2.14721e-16)
(-0.00372611 1.8051 6.00873e-16)
(1.29369 3.03566 -4.41257e-17)
(1.33455 0.284664 0)
(2.64692 -0.0842571 -3.55657e-16)
(-1.99953 -1.80185 -1.41146e-16)
(-0.103811 1.89085 1.43818e-16)
(0.427749 -0.416921 0)
(0.450881 2.06011 0)
(-0.0604326 1.84983 0)
(0.133662 1.96864 -1.50854e-16)
(0.514138 0.819011 1.0768e-17)
(10.7333 2.58945 -2.66263e-18)
(-0.779953 0.163507 0)
(4.61255 1.35833 0)
(2.47762 0.984263 -7.68885e-17)
(1.48246 4.13029 1.02312e-16)
(-2.74861 -0.337851 0)
(0.650255 -0.368341 4.1308e-16)
(2.76807 0.48435 3.35033e-18)
(-0.0910991 1.17968 -1.5861e-16)
(0.758544 -0.0839987 0)
(7.97929 0.574432 -6.19287e-17)
(-0.558345 0.123781 -1.71161e-16)
(-0.176377 4.11057 7.05028e-17)
(0.0872421 2.16281 0)
(0.43159 0.549871 -1.1147e-17)
(9.91059 0.262091 -1.95501e-17)
(3.80531 1.38367 -5.076e-18)
(-1.94058 0.691414 -1.76636e-16)
(0.190694 2.33892 -2.49547e-16)
(-2.5694 -0.80629 -4.66235e-16)
(-0.332169 4.11005 6.86691e-19)
(0.368115 4.00234 6.82751e-17)
(1.83075 3.51168 0)
(10.48 -0.134131 2.2248e-17)
(1.56574 0.00313513 1.62234e-16)
(8.89342 0.748849 -1.14241e-16)
(0.550924 -0.227116 1.84497e-16)
(-0.06639 3.7981 0)
(-0.241676 4.33755 -6.96187e-17)
(0.051224 6.3246 1.7194e-16)
(0.836708 -0.118464 -7.70112e-18)
(-0.0381258 2.34428 4.7601e-17)
(1.01651 0.642617 6.46505e-18)
(-0.503575 4.56296 -4.12109e-17)
(0.190132 3.7199 -4.31415e-17)
(1.27451 9.85843 4.41066e-17)
(0.822174 0.109439 1.93813e-17)
(10.1468 0.159921 0)
(0.400834 -0.0346635 5.2264e-16)
(3.06553 -0.406923 -7.2119e-17)
(-1.1434 -0.460283 -3.126e-16)
(7.45221 0.548994 1.63355e-17)
(0.00989936 3.72144 -6.79797e-17)
(-0.451854 5.18103 2.5596e-16)
(0.686527 -0.0329925 -2.88765e-21)
(-1.3559 -0.148948 -1.045e-16)
(1.14199 5.1127 0)
(0.236373 0.0637329 0)
(-0.00826775 -0.0150688 -2.27267e-17)
(1.57451 1.26901 0)
(3.63631 2.49622 -7.34062e-17)
(5.18338 1.72216 0)
(1.33455 3.48191 -2.50009e-16)
(2.69118 -1.76725 4.87788e-17)
(0.130686 -0.0562304 4.81141e-16)
(-0.109655 -0.19753 5.85997e-17)
(6.5548 0.772793 -1.42078e-17)
(2.50267 0.0342224 -2.65518e-16)
(8.42967 0.231862 -2.59413e-16)
(0.892925 0.0750202 0)
(0.189087 1.59473 -7.8351e-17)
(5.43914 2.70302 1.3664e-16)
(3.31997 1.72574 -6.58243e-17)
(1.41085 0.687957 -4.05701e-16)
(0.304622 1.71233 5.40796e-16)
(-0.116916 2.05504 2.99005e-17)
(0.346215 1.4456 -4.02484e-16)
(1.89959 0.57797 -1.09372e-18)
(0.712751 3.01533 -2.31769e-16)
(0.524739 -0.112246 2.01741e-16)
(-0.547988 1.31937 8.59184e-17)
(0.127274 2.44426 0)
(0.0306679 0.521635 -7.89399e-17)
(-0.191971 1.59023 -6.98019e-17)
(0.489788 1.95653 2.74082e-16)
(4.26565 -0.0785811 -6.69619e-17)
(2.26206 7.51397 -4.05336e-17)
(10.6697 0.421916 -7.1248e-17)
(3.73467 0.0202494 7.34853e-17)
(0.201512 2.11403 -7.68398e-17)
(-1.12075 -0.50977 -1.3988e-16)
(9.18634 0.378414 3.27086e-16)
(3.17614 -0.344675 -2.90101e-17)
(-0.0766739 4.43359 4.5012e-18)
(4.33198 -0.115356 2.36836e-16)
(-0.639357 5.37465 -2.01133e-16)
(0.00225743 2.99844 1.23997e-16)
(7.28083 0.256392 0)
(0.355372 0.541313 -1.25206e-16)
(0.185007 0.298908 2.9153e-17)
(-0.085296 0.97607 0)
(-1.68807 -0.930657 -1.71809e-16)
(0.570831 1.52668 5.85318e-17)
(0.656347 -0.427447 3.23193e-16)
(0.315722 -0.104341 3.3509e-16)
(3.53816 0.215636 -3.98451e-17)
(10.1579 0.684716 -1.12599e-18)
(0.51135 0.587514 -2.17476e-16)
(-0.0902243 0.0848355 3.4875e-16)
(0.405865 2.75759 -2.5768e-16)
(0.593095 0.287121 1.20541e-16)
(4.11083 -0.148219 0)
(0.138181 1.35717 -1.09705e-17)
(-2.14205 1.6547 -2.62983e-16)
(-0.00923141 2.42189 4.05278e-21)
(0.0245912 3.23564 4.06055e-17)
(-0.181416 5.81129 -3.93945e-18)
(-0.0478772 3.50748 -1.6461e-16)
(0.47113 3.90178 4.07678e-17)
(2.00829 5.60114 -1.28955e-16)
(6.55038 0.456439 6.9983e-17)
(0.223291 -2.85726 0)
(11.2456 1.0697 0)
(-2.46757 0.041897 3.64412e-16)
(0.500476 0.358729 6.06239e-16)
(-0.00535457 3.72081 2.11351e-16)
(-0.327427 5.67679 -1.73062e-16)
(-0.344301 -0.590636 1.37116e-16)
(1.4156 3.74249 -5.90041e-17)
(-1.73369 -0.296265 4.62495e-17)
(0.0841399 1.33212 2.15784e-17)
(0.831707 1.40464 -8.76279e-19)
(1.7978 2.37083 -4.89701e-17)
(-0.17003 -0.152802 -1.15626e-17)
(1.82215 1.93279 -6.31576e-17)
(3.65201 -0.0508029 -3.84482e-16)
(-0.548066 -0.0537309 1.0547e-17)
(0.809973 2.04656 1.37442e-16)
(1.35963 0.74918 0)
(0.66502 -0.0145187 0)
(-0.58319 0.543176 0)
(-0.431217 6.70631 2.61888e-16)
(1.73194 6.79682 2.84609e-16)
(0.123834 3.77057 3.60185e-16)
(3.69158 0.372038 2.67704e-17)
(6.50141 3.30224 -3.32649e-17)
(1.64155 0.735345 0)
(-0.00245542 1.57058 8.50407e-17)
(0.228229 0.779164 3.57576e-17)
(10.5693 0.0545977 -7.3877e-18)
(-0.357206 0.238623 -1.0699e-16)
(-0.932984 -0.0296523 3.80682e-18)
(0.563629 -0.0114478 -1.72756e-16)
(9.14676 0.418247 -1.93861e-17)
(0.237342 0.163618 0)
(1.91482 0.0129133 -4.59592e-16)
(2.86864 0.842802 2.51361e-16)
(4.11925 -0.0958392 0)
(0.50013 1.18846 6.99211e-17)
(0.925502 3.85766 -2.71135e-16)
(8.7706 0.284409 0)
(-0.424994 6.00832 -5.39935e-16)
(0.239041 3.43342 -2.03182e-16)
(-0.944092 -0.0396176 0)
(0.870896 0.697742 0)
(11.4116 0.27869 4.2995e-17)
(10.4182 0.371435 3.30394e-17)
(10.1587 1.26496 1.98295e-18)
(4.87591 2.18867 2.96118e-19)
(-3.41732 5.83605 0)
(1.49157 1.76043 2.25978e-16)
(4.00047 6.25144 -3.10994e-17)
(4.66809 -0.0383437 0)
(0.848722 2.34876 -3.82627e-16)
(5.11667 1.19886 3.11765e-17)
(-0.493066 -3.04872 -1.00695e-16)
(9.51166 0.844918 -5.01947e-17)
(10.9007 0.042333 7.70775e-17)
(1.22471 3.24939 -1.82984e-16)
(9.94045 0.433167 -1.53046e-17)
(0.13133 3.69553 2.50683e-16)
(1.16504 7.32093 4.77675e-17)
(-0.217527 6.13517 -1.32286e-16)
(7.23975 3.56629 0)
(3.56006 0.533694 1.0424e-16)
(2.70334 -0.527491 -1.47802e-16)
(3.16886 0.230752 3.02125e-17)
(-0.356594 -0.369839 1.35956e-16)
(0.0352033 4.68403 1.71584e-20)
(0.0481097 3.69313 -3.46165e-20)
(0.436359 6.46261 7.38402e-17)
(0.761071 0.846107 0)
(0.164093 0.633607 0)
(2.09009 -1.48508 7.74124e-17)
(-2.88167 -0.660994 1.34153e-16)
(0.00816321 3.49752 -1.52368e-16)
(-0.148031 3.75628 -4.44503e-18)
(0.198631 3.98233 0)
(2.85783 -1.29322 -3.08178e-17)
(10.1194 0.104189 8.47059e-17)
(-0.158413 1.12128 0)
(-1.86187 -1.07647 -3.83892e-16)
(1.5516 2.65429 5.59067e-17)
(0.675311 -0.020753 2.66945e-16)
(0.0638507 3.86069 9.58977e-17)
(-0.385347 4.86491 2.12364e-16)
(9.59108 0.956303 0)
(-0.13325 5.88011 -4.77612e-17)
(0.0543902 3.7846 -4.81368e-17)
(9.59882 1.07386 -9.3675e-17)
(-3.21264 -0.920663 -5.72578e-21)
(7.51669 1.03642 8.73585e-18)
(-0.164312 3.95027 -2.53129e-20)
(0.00742641 3.25634 0)
(-0.236939 5.86896 3.38368e-18)
(-0.274099 3.52874 -1.42209e-16)
(0.805342 3.55139 -5.10729e-17)
(2.8974 4.80681 1.39876e-16)
(-0.188596 -3.45636 3.23655e-17)
(-0.0545888 3.75848 3.53101e-16)
(-0.150542 4.37072 0)
(-0.0296055 6.79356 -1.25315e-16)
(1.73459 0.263955 3.52781e-17)
(0.447665 1.05318 -1.44463e-16)
(3.58115 0.0548627 6.06867e-17)
(0.364608 0.370871 4.48788e-18)
(-0.0236552 2.10727 1.07666e-16)
(-1.49407 -0.301165 0)
(1.90427 2.60384 1.7162e-17)
(-0.00344526 2.05071 -1.98997e-17)
(2.08 0.180445 -1.21721e-16)
(10.123 0.93764 -7.51115e-19)
(0.957801 1.19906 -3.59374e-17)
(-0.0912045 1.75861 -2.03141e-16)
(0.171583 2.42539 -1.41895e-16)
(-0.289923 4.03246 -3.50071e-16)
(0.499777 4.08171 0)
(1.53402 0.979048 2.80145e-16)
(-0.432206 4.28903 1.31486e-16)
(0.380321 3.73564 3.23786e-17)
(-0.0429188 -0.0505553 -9.72596e-17)
(2.43995 4.31235 -1.57922e-16)
(0.997513 -0.113924 5.79778e-16)
(-1.36713 -1.11489 6.02552e-16)
(-0.0742267 -0.211589 -3.28165e-16)
(0.543323 3.6574 3.43003e-16)
(0.0829532 2.31671 -3.06782e-16)
(-0.50272 -0.817349 -1.79846e-16)
(0.210444 1.86352 -1.10666e-16)
(1.97732 8.51311 0)
(9.83476 0.108433 0)
(1.66168 0.532627 -2.9424e-16)
(0.33716 4.82641 1.20003e-16)
(0.338617 0.0754397 -8.11038e-17)
(-0.163318 1.28937 0)
(2.75932 0.862655 8.93503e-17)
(2.0931 -0.0261017 -2.71412e-20)
(0.689235 1.99553 -5.87542e-16)
(3.85957 0.141191 2.1771e-16)
(-0.580074 6.53162 1.07983e-16)
(0.154643 3.54455 -4.5693e-16)
(-3.52002 0.994465 3.00712e-16)
(-1.40197 -0.926543 -1.63447e-16)
(9.7611 0.873715 -1.31474e-17)
(0.93178 5.05259 1.65719e-16)
(-0.0199197 -0.189526 2.11086e-16)
(0.65157 0.298948 0)
(-0.530159 -0.46898 6.18433e-17)
(1.72631 2.43148 -7.78111e-16)
(0.215743 1.82052 -2.22992e-17)
(-0.0698924 1.95182 2.51238e-16)
(1.22521 0.707105 3.01321e-17)
(8.65144 0.49285 -1.10934e-16)
(9.68654 0.344829 -3.02929e-19)
(0.576263 -0.0722816 1.96487e-16)
(11.1004 0.0523284 0)
(2.1456 1.04766 -4.09955e-18)
(3.69236 -0.104016 2.03925e-18)
(3.89943 0.0458462 -1.26751e-17)
(-0.169921 4.37639 5.2647e-17)
(-0.0303168 3.84305 6.14744e-17)
(0.147193 6.36471 1.66336e-17)
(10.5549 0.0366261 1.40077e-17)
(0.764306 2.14169 8.49443e-20)
(0.317465 3.2709 -8.19727e-17)
(3.72737 -0.124212 -5.02017e-21)
(0.398786 2.74798 0)
(10.2519 1.67582 -4.75268e-18)
(-1.31889 0.0712582 0)
(0.531894 0.6989 9.49807e-17)
(0.152429 0.10308 9.42206e-17)
(0.0670922 1.50348 4.42429e-18)
(0.520001 -0.112745 2.49374e-16)
(-0.0832565 0.184916 3.93252e-16)
(9.36851 0.585546 -1.75443e-17)
(0.651082 -0.0307927 2.6905e-16)
(-3.84461 1.95328 2.20956e-16)
(9.58789 1.04933 9.61362e-17)
(9.76322 0.284077 4.0478e-17)
(6.35752 1.64571 3.58337e-17)
(0.0173565 3.62737 -6.65849e-17)
(-0.461006 5.43464 3.24735e-17)
(0.0228666 1.21939 1.67325e-16)
(-0.872168 3.39663 0)
(3.51941 0.805064 4.40762e-17)
(5.95105 2.96749 7.33163e-17)
(10.2857 0.127505 -2.0445e-17)
(1.80826 0.876215 9.70876e-17)
(0.657118 -0.0352538 2.59616e-16)
(0.244274 0.455753 0)
(8.76541 1.56762 0)
(1.21292 1.5024 0)
(-1.40312 -2.15808 2.88396e-16)
(3.91647 -0.0196073 6.68726e-17)
(-0.421562 5.23342 2.55887e-16)
(0.317712 2.96764 4.20618e-17)
(2.28416 5.7568 -6.85582e-17)
(-0.408823 0.0958116 0)
(1.01856 2.71953 6.99165e-17)
(0.496433 3.35496 -2.0867e-16)
(-0.140707 -0.113392 -8.85748e-16)
(11.2779 0.111199 9.41312e-17)
(5.01917 1.24431 0)
(-0.0706176 2.07583 1.61852e-16)
(0.656202 3.88141 0)
(1.82695 1.05042 1.41294e-16)
(0.732751 1.59682 -2.10096e-17)
(1.29384 8.92754 6.17088e-17)
(9.97714 1.02849 -1.30828e-17)
(9.85439 0.72358 1.00014e-16)
(-0.460699 0.0548839 0)
(0.883405 1.70161 -6.96551e-17)
(0.776912 -0.43218 0)
(9.42247 0.528872 0)
(1.09017 0.0061428 -1.36191e-16)
(0.690057 1.75675 2.03805e-17)
(-2.65323 4.89981 -1.27689e-16)
(2.22339 0.962919 -1.11347e-16)
(-0.529316 -2.54753 1.44557e-16)
(10.3032 0.0997895 -5.60745e-20)
(6.57179 3.37812 -6.3514e-17)
(-3.86576 1.43695 -5.13855e-18)
(0.000120124 3.48006 8.968e-17)
(-0.260351 5.91738 -6.57797e-17)
(2.16701 1.95822 -1.13615e-16)
(0.928654 7.33726 -1.9593e-16)
(3.4247 0.671098 -1.47398e-17)
(0.0499289 1.61189 -3.32208e-16)
(0.0983624 2.40319 -1.68737e-16)
(2.1117 0.130658 6.31001e-17)
(0.728046 -0.104336 2.22112e-16)
(0.571621 0.348675 -3.02955e-16)
(0.31772 1.91621 -4.6676e-16)
(-0.157354 1.90744 -3.33272e-16)
(7.92575 4.16088 2.45322e-18)
(0.603782 1.50488 5.41783e-16)
(10.1052 0.0401063 -6.1832e-17)
(0.807275 -0.164432 0)
(-3.3302 4.79839 -1.6213e-19)
(2.44162 -2.86102 -9.07502e-17)
(1.29674 0.57915 0)
(10.0558 0.428055 3.87092e-17)
(-1.17777 -0.326438 2.75273e-16)
(0.656161 -0.830285 -2.74312e-16)
(8.68872 1.22091 0)
(0.185571 4.1641 -6.05111e-20)
(-0.186005 3.8644 0)
(10.0681 0.0884703 0)
(0.963228 -0.180692 -5.19137e-17)
(9.24742 0.960905 -6.61683e-17)
(10.3246 4.27482 -1.51571e-16)
(1.42726 3.90787 2.81439e-17)
(7.39256 1.72612 -1.06185e-16)
(-0.153264 2.81295 -9.08808e-17)
(-0.0636373 1.96726 -1.18588e-20)
(-0.0203693 2.14972 -9.94509e-17)
(-0.0943916 1.09194 0)
(-0.274454 4.70359 9.77398e-17)
(-0.282793 -0.188217 0)
(-1.36363 -2.14283 0)
(-0.0589111 -0.598055 0)
(0.762656 -1.64888 -1.60647e-16)
(-0.119338 1.22331 0)
(0.134324 1.38002 1.17221e-16)
(2.85409 2.55789 -2.75556e-16)
(0.712371 1.9841 0)
(0.319734 3.29238 2.90786e-16)
(-0.0844953 7.18986 -2.28741e-17)
(-0.134769 4.56038 1.14083e-16)
(-0.00812961 3.49512 -6.87889e-17)
(2.18229 1.32632 2.66783e-16)
(9.50345 0.936422 -2.63032e-17)
(0.269755 1.87232 1.95421e-17)
(-0.140092 2.0117 -6.94624e-17)
(3.76896 0.302492 0)
(0.70758 -0.0742766 -4.01178e-21)
(6.12445 1.01877 0)
(2.08174 -0.167225 6.18631e-21)
(3.86804 0.0904624 -4.3714e-16)
(10.0825 0.050719 3.39901e-17)
(0.366355 3.21128 1.93926e-16)
(-2.09602 2.23957 -2.87079e-16)
(0.051238 2.43488 0)
(0.182504 1.64889 8.5034e-16)
(5.84864 1.46563 -4.43819e-17)
(11.5469 0.499492 0)
(9.80826 0.201733 2.42977e-17)
(1.28354 -2.94159 1.11697e-17)
(9.27589 0.234621 0)
(4.38111 3.26803 1.04402e-17)