/*--------------------------------*- C++ -*----------------------------------*\
| =========                 |                                                 |
| \\      /  F ield         | OpenFOAM: The Open Source CFD Toolbox           |
|  \\    /   O peration     | Version:  v1912                                 |
|   \\  /    A nd           | Website:  www.openfoam.com                      |
|    \\/     M anipulation  |                                                 |
\*---------------------------------------------------------------------------*/
FoamFile
{
    version     2.0;
    format      ascii;
    class       volScalarField;
    location    "0.73";
    object      epsilon;
}
// * * * * * * * * * * * * * * * * * * * * * * * * * * * * * * * * * * * * * //

dimensions      [0 2 -3 0 0 0 0];


internalField   nonuniform List<scalar> 
1466
(
2.59242
37.6814
6.60331
100.063
5.00415
21.1806
2.9824
36.1566
9.38896
48.7399
61.9531
44.611
5.84473
4.85698
25.6609
86.5465
20.3313
97.4042
106.805
66.6792
113.468
70.939
79.7508
54.2669
7.39517
8.43579
45.7608
87.9436
5.00226
52.2781
75.6542
10.6926
6.74257
88.3304
124.872
46.2459
88.2009
24.0884
84.0669
3.80189
3.63792
64.1357
81.4476
4.36687
3.54801
8.5475
77.5642
4.62586
48.4401
4.72678
15.9849
48.2444
27.5633
4.51534
8.46545
6.83979
4.57874
65.0362
6.56602
57.9454
17.717
2.7486
3.10999
29.3083
83.4296
30.1954
156.37
53.7954
34.7728
7.75458
53.2283
143.132
81.1745
7.00096
13.5396
80.4671
2.68446
3.0957
30.1596
72.4259
60.2318
81.5055
7.14897
79.4891
99.8549
149.425
79.5474
75.8926
67.597
43.6261
11.3891
48.4353
138.003
5.2203
16.1263
7.03687
34.9057
71.2045
8.66317
5.6009
21.9738
10.6963
4.0232
76.2249
94.4996
51.9097
36.0473
5.08917
82.9828
3.04819
13.9597
99.1057
2.9648
70.8492
58.0114
19.7799
52.7828
43.0217
2.90541
2.95599
93.7025
2.30786
3.39084
5.57288
3.95573
61.433
45.1027
77.21
50.0446
32.8199
77.4379
56.5874
78.5729
52.7328
13.297
4.03599
4.33875
12.0618
3.00995
3.25506
5.4502
96.49
69.7218
72.8115
80.0163
169.957
10.7278
17.5189
50.6589
96.1884
13.1926
33.2759
40.0333
8.16516
39.3157
68.1416
76.7137
77.14
11.4343
48.746
10.1315
59.5172
129.83
82.2939
99.797
93.1313
59.6408
86.2743
94.6235
42.1695
107.029
8.54111
3.85678
36.2124
29.3478
7.59397
44.2879
62.1547
12.0717
69.6014
8.93205
27.4398
134.891
3.5991
78.3165
152.454
103.402
46.7286
36.6026
44.9816
119.335
22.6739
123.697
177.589
44.7964
16.5122
7.60149
163.241
106.368
192.553
80.0068
41.3624
48.5115
31.3881
40.5883
88.1512
131.141
29.4516
11.4243
61.6027
93.7048
86.8481
126.244
97.6
118.505
79.4673
152.068
101.287
53.4033
55.0324
82.3573
21.1765
83.2135
20.3022
88.0041
78.7848
59.4482
4.48383
12.295
20.2385
39.7851
83.3633
191.478
155.764
14.2066
68.1888
65.1304
79.7657
21.0237
115.796
49.9935
71.3081
40.7372
205.582
17.2893
54.6173
10.2393
7.00534
71.9978
36.0199
138.446
91.2011
26.5446
61.7942
7.99833
15.7351
76.1964
12.3947
115.494
125.391
89.0061
77.0006
52.383
20.2884
68.1545
3.97049
39.3246
44.1187
101.019
12.1647
158.018
137.704
54.9602
12.213
12.3673
24.4403
16.0834
62.3467
103.08
56.1577
18.7244
74.6552
83.1227
65.6842
76.7307
2.72904
55.6071
51.697
14.9408
20.9394
23.9519
2.30178
7.49447
22.509
48.8603
37.6075
224.444
3.88668
57.5287
17.6546
5.07987
33.7849
5.37571
8.38994
79.7695
22.5674
9.38171
6.56507
40.7982
118.022
32.5237
106.215
57.2742
35.0765
51.0031
45.1325
116.97
34.5342
7.21864
28.4925
35.5236
169.798
115.194
15.8644
80.9847
17.6755
3.15801
35.8567
13.486
29.8966
72.871
19.0488
8.59503
38.1233
99.1797
16.6693
109.586
19.3547
14.9356
3.32626
4.63489
32.5588
14.2294
73.9862
44.1248
6.21117
63.5681
44.9359
40.546
98.5452
32.6771
13.5202
66.2776
125.547
88.6484
119.162
80.7482
20.863
8.31919
44.0924
96.2015
104.417
74.6697
41.9702
12.0348
189.6
28.8681
27.8061
72.3102
41.8245
37.316
123.671
115.054
33.0796
11.1769
93.196
55.2453
118.315
3.58269
61.2004
46.9287
45.0256
55.6943
63.3687
57.1893
51.6155
10.9497
8.89092
4.89899
4.84098
30.3959
47.4429
32.3639
47.264
14.8561
8.29134
3.62468
116.246
13.6697
13.6509
2.22216
2.16621
72.3116
2.6839
50.2957
111.086
87.9146
30.0124
138.713
120.895
25.7166
100.901
126.935
119.267
76.0798
3.55202
3.18021
52.4257
33.3929
4.73319
86.9766
89.5152
4.91858
133.595
4.04564
3.21099
59.9467
108.576
3.62685
3.3265
55.0978
9.62478
100.695
228.377
31.6942
9.45785
7.43171
9.27409
5.80636
49.0248
5.65949
41.1336
54.6008
15.8434
27.1617
2.76401
26.4661
32.7713
2.30779
62.4944
32.7242
2.19024
34.9314
11.2792
36.7022
39.8681
6.50478
31.1131
37.4044
28.7915
5.05356
29.1857
8.69023
35.465
54.6496
2.50851
46.9881
27.1843
23.2781
42.3139
25.4664
18.7704
53.2116
3.35139
27.756
2.78538
7.50315
60.4112
135.877
69.3942
38.3578
89.5191
90.5042
122.789
98.3319
24.4505
4.38061
9.95842
137.774
80.4376
111.04
85.4507
14.9453
51.209
32.6996
61.0963
86.8357
61.474
44.4673
47.2557
70.4073
85.1381
56.9144
87.1224
15.7006
68.815
71.1695
32.9437
5.08953
75.4081
26.0286
82.9865
34.5531
178.278
87.7452
45.3004
31.7344
10.1117
20.3595
27.0559
74.5098
22.6354
146.298
29.3762
69.1308
34.9641
26.7792
70.7985
38.6362
110.676
18.6173
207.542
129.076
58.7958
69.9933
29.1464
36.2363
80.3927
34.5992
103.38
22.8887
94.0145
26.0194
28.457
42.2486
32.7148
45.6801
25.1136
131.702
29.9479
104.793
6.7788
16.1601
65.8541
189.963
80.4606
76.8437
36.1948
61.8252
18.4118
102.095
108.257
22.5448
41.4383
15.6793
21.5874
55.3002
141.857
83.8069
97.0928
84.7571
138.664
26.773
52.5445
24.5013
111.392
13.2782
91.6801
73.3202
81.4454
52.7724
96.1103
84.7717
60.2849
46.4517
39.5231
98.6805
9.02213
63.027
24.1288
77.0304
27.7768
61.7829
81.4348
136.664
76.6826
71.4114
59.5994
35.9751
73.5157
44.9068
14.811
15.9146
31.9026
209.652
70.7168
27.535
3.07169
39.6133
76.993
19.3529
129.714
23.9399
38.7749
111.756
34.0101
53.9289
29.4753
25.8901
104.047
31.1535
4.00124
23.6104
20.7895
39.9157
77.826
228.249
69.5044
85.4231
94.3398
85.8931
23.9916
26.695
17.2815
89.9088
12.4664
99.22
84.2377
48.5434
97.35
137.281
84.5616
61.6005
21.9408
96.9802
15.0051
70.7822
104.858
62.3638
30.5314
88.9013
11.4011
34.8507
4.54023
134.675
91.5855
9.66677
170.549
14.0328
6.20711
152.689
93.4059
6.74849
14.9463
115.427
30.5501
110.501
36.7294
58.109
7.67637
8.52855
17.3135
74.1151
8.06928
54.2616
5.37058
36.031
5.55527
5.12983
19.9435
93.3969
7.81209
9.4326
154.147
18.6464
127.183
26.6132
8.31191
51.7428
11.8638
130.615
19.352
16.7207
65.6685
20.0405
7.71903
54.5768
94.7133
28.7803
57.1751
106.326
23.4026
9.7154
13.707
68.6965
55.4948
27.9948
7.38299
7.76862
58.2598
20.1327
134.082
2.68659
71.5551
138.05
97.0957
52.0942
69.6447
86.8993
58.3046
69.2765
111.827
156.725
54.0652
198.139
99.2264
96.396
30.8402
19.7009
7.01446
81.5168
109.268
78.3321
3.72188
136.477
77.8369
119.421
91.5833
2.61917
124.685
91.1677
56.9843
89.4909
3.75736
3.526
3.97112
33.845
18.2161
23.8024
50.0111
94.1687
78.9564
9.34898
5.15854
122.809
117.609
163.986
96.346
14.6295
105.187
93.8423
7.83036
27.0123
45.5917
161.764
47.5978
79.6928
123.681
73.769
142.335
26.6125
11.7163
2.46617
2.51022
63.0763
116.513
42.0052
16.8238
36.8529
121.716
34.989
9.53544
90.8289
47.8632
105.663
3.99092
39.6525
92.4545
67.4998
40.5237
37.4284
113.761
103.129
8.07567
32.6594
16.7942
116.656
59.3686
7.60787
18.7749
7.28714
70.061
92.6454
8.33627
41.4034
3.07784
11.445
14.2815
66.8928
95.0636
123.823
62.3148
74.8996
46.6332
32.1517
8.19111
91.4345
85.9177
12.4235
99.2188
104.306
79.2332
23.2886
62.2105
3.07712
4.27721
93.282
13.1977
18.4983
73.3852
72.831
94.1767
16.2792
135.593
6.56584
27.698
15.0318
14.4004
9.94931
12.6945
19.0132
101.458
98.7337
3.34594
98.8156
86.746
35.2796
86.7733
38.2615
69.8668
109.526
62.0678
107.24
50.7709
20.8552
24.8907
69.1889
22.1602
67.6026
104.279
147.311
93.2064
10.3684
22.819
8.26914
51.1991
116.121
268.361
31.5833
65.6119
27.621
7.84907
60.9696
11.4789
145.626
25.4946
99.9019
90.6878
101.682
84.7068
125.264
115.499
121.702
122.384
167.343
161.824
180.483
171.762
169.246
170.292
168.554
148.662
203.907
130.956
148
227.6
240.345
151.461
214.523
169.548
164.778
155.986
81.2371
97.2127
6.17774
7.62963
67.492
19.3146
11.751
12.3575
5.5466
24.9896
118.667
73.4611
100.474
20.5193
32.4584
12.5429
49.2531
18.6465
61.8759
25.4029
127.792
34.5599
49.195
135.851
83.6237
146.04
2.77857
3.28072
8.33308
9.14599
7.83087
37.4583
53.1332
60.2137
84.1578
5.31822
3.32788
4.18609
8.64971
13.4754
23.942
93.7487
2.95666
2.99729
31.1758
95.6483
42.4719
16.1613
49.9913
48.2129
68.9706
87.695
98.2473
81.3158
7.76313
59.3339
108.31
49.7523
134.756
34.4247
143.01
37.0117
73.4301
127.789
2.68357
54.3612
30.3978
70.1411
3.19906
100.482
78.1348
99.9544
28.3929
30.2774
27.7992
83.9067
21.1516
11.8599
2.18569
78.3018
128.835
96.8032
20.9857
143.869
103.456
27.6413
133.33
64.4516
9.73228
4.1804
34.948
60.3241
126.187
212.365
63.5597
73.0171
4.20639
13.5629
36.8864
64.5015
93.9964
13.4702
61.8177
3.32478
3.07044
3.35857
36.9057
7.91135
45.0958
80.8325
14.7522
8.42801
141.899
11.0901
90.039
20.1247
58.421
120.18
101.499
147.783
90.1392
108.688
89.2352
97.4703
64.0553
84.569
57.3173
2.56547
2.98144
125.671
31.9904
10.2587
31.7722
72.7995
34.4888
10.6155
79.2336
7.62332
34.4545
41.3856
3.82539
3.49581
40.0925
10.5967
20.3899
12.283
36.3949
128.781
2.5147
4.70829
9.60495
89.2491
40.6137
11.108
27.4646
114.792
13.9634
24.5347
22.6047
7.73719
30.675
42.5351
5.94835
95.1149
83.0219
2.17001
4.8134
2.29977
71.6449
28.733
10.4891
13.0728
11.8799
4.05128
7.15501
11.9137
12.3309
3.64504
6.83539
8.27287
137.034
11.6039
12.059
11.7116
12.0665
42.4182
46.392
10.5538
10.8784
12.0587
12.4343
66.7924
107.324
66.4472
28.6597
19.7104
103.073
115.55
32.1588
110.612
71.6902
27.4191
3.5123
2.97058
4.46988
120.239
63.9688
138.881
33.9808
8.26452
135.069
45.2081
49.195
50.1952
121.702
97.9202
127.549
18.4653
87.9126
30.4794
110.4
81.4465
138.49
7.13523
13.3706
14.154
63.8675
46.0831
64.6506
73.7623
56.4805
2.52424
34.3982
14.1711
39.67
95.2994
78.9909
131.064
99.7836
7.78966
4.15073
29.9635
51.6566
50.8995
22.9803
23.9557
7.16992
44.384
95.4164
49.7315
58.7367
89.1892
8.03563
5.55251
21.9244
67.1048
37.8034
102.69
22.7667
89.9729
126.72
79.275
90.2022
145.063
38.171
110.212
102.423
2.86273
3.2773
16.8618
48.3638
5.07787
4.47596
88.3566
67.8566
89.4383
120.469
126.371
148.853
38.8522
29.1662
77.9818
78.0081
108.42
98.0224
6.68975
18.6576
59.2053
75.6994
10.5663
109.916
32.6616
3.79617
54.4018
47.9347
20.982
17.8977
9.42243
56.5485
8.29124
18.7572
42.1579
37.9738
22.7824
244.913
6.79914
19.9166
23.097
21.1519
6.90874
40.4843
2.70378
3.55554
6.40759
54.87
66.7586
123.812
96.6146
84.4958
6.10911
70.0328
6.98494
92.1451
61.7536
5.19209
49.4669
49.5082
92.3731
91.9004
65.9298
69.1833
98.4908
5.47394
10.6514
118.886
16.4123
5.11872
32.9134
5.57111
104.129
15.4235
126.908
8.78657
125.551
49.0176
3.60455
115.204
41.4831
7.33247
83.294
76.3947
37.2039
76.6457
41.7066
120.551
48.749
77.9643
10.3414
45.4155
29.8726
114.71
38.0372
131.607
159.401
72.3474
150.386
176.648
165.128
7.31695
30.7976
56.2305
10.2157
110.883
17.6042
69.6796
92.9106
5.82742
118.539
50.5412
6.41348
35.4048
32.0581
5.89998
39.5277
13.273
32.3063
9.75747
215.609
105.753
80.4771
92.2867
14.7446
7.17586
110.647
70.3966
68.4114
66.2474
69.169
73.6975
150.197
58.9081
44.3268
120.913
6.65859
56.6579
118.468
94.5024
16.8267
5.52354
11.969
2.66624
2.93547
4.08301
21.7404
72.1575
9.06007
10.877
58.4532
5.09303
77.3618
98.2338
96.5134
4.31842
90.6454
34.7599
6.90344
3.71398
4.26636
8.06275
209.088
9.81421
85.8015
32.0336
11.0815
5.1592
2.58442
111.509
6.5414
10.1173
73.8542
10.6875
112.174
91.8323
120.928
60.0649
42.8253
35.244
24.7957
57.181
14.4749
33.2802
90.5031
3.15079
60.504
78.5306
29.3861
66.6246
52.2961
110.707
22.1354
50.4008
10.1346
52.8346
118.169
47.0242
7.29006
7.00161
13.2683
13.3494
101.009
79.3694
38.1851
55.867
135.824
26.2204
115.794
54.0508
66.7899
58.4657
4.99335
72.1166
106.378
5.74626
33.2995
100.375
17.3868
132.62
32.3141
75.1206
122.851
72.2264
109.106
104.619
96.06
97.8565
7.46737
4.67651
9.37841
5.2856
26.4192
9.34096
77.3413
33.0666
74.6833
51.9276
108.016
74.0958
121.031
9.6516
107.778
107.158
3.27079
6.4623
129.546
52.8767
6.37771
7.86124
71.6018
35.8997
171.827
31.501
22.1002
9.27944
10.4651
68.0429
75.1393
68.6148
12.2696
192.822
77.2296
48.5538
150.24
8.04255
10.4452
93.7828
77.9619
12.2441
10.8106
38.2689
12.6641
85.0708
132.635
29.8198
13.7223
48.2295
166.428
70.2621
64.1629
35.1186
77.4606
10.5481
7.88551
7.12013
3.93547
6.9214
3.81604
78.3637
5.49224
4.24921
124.532
9.00034
70.7483
29.6577
23.4788
)
;

boundaryField
{
    frontAndBack
    {
        type            empty;
    }
    wallOuter
    {
        lowReCorrection 0;
        type            epsilonWallFunction;
        value           nonuniform List<scalar> 
108
(
97.4042
143.132
81.1745
5.37571
6.21117
18.6464
26.6132
8.31191
11.8638
20.0405
7.71903
28.7803
23.4026
9.7154
7.76862
7.01446
119.421
33.845
18.2161
16.8238
11.445
123.823
14.4004
35.2796
90.6878
101.682
84.7068
125.264
115.499
121.702
122.384
167.343
161.824
180.483
171.762
169.246
170.292
168.554
148.662
203.907
130.956
148
227.6
240.345
151.461
214.523
169.548
164.778
155.986
81.2371
7.62963
32.4584
146.04
9.14599
95.6483
143.01
37.0117
143.869
61.8177
8.42801
101.499
97.4703
64.0553
41.3856
40.0925
12.283
40.6137
30.675
42.5351
83.0219
2.29977
2.29977
10.4891
11.8799
11.9137
12.3309
137.034
11.6039
12.059
11.7116
12.0665
42.4182
46.392
10.5538
10.8784
12.0587
12.4343
66.7924
110.612
71.6902
8.26452
50.1952
81.4465
138.49
49.7315
58.7367
126.72
79.275
66.7586
10.2157
110.647
66.2474
10.877
34.7599
9.81421
7.00161
13.2683
135.824
)
;
    }
    inlet
    {
        type            fixedValue;
        value           nonuniform 0();
    }
    outlet
    {
        type            zeroGradient;
    }
    wallInner
    {
        lowReCorrection 0;
        type            epsilonWallFunction;
        value           nonuniform List<scalar> 
126
(
24.0884
84.0669
3.80189
3.63792
64.1357
81.4476
4.36687
3.54801
8.5475
77.5642
4.62586
48.4401
4.72678
15.9849
48.2444
27.5633
4.51534
8.46545
6.83979
4.57874
65.0362
6.56602
57.9454
30.1596
7.03687
34.9057
71.2045
8.66317
5.6009
21.9738
10.6963
4.0232
76.2249
94.4996
51.9097
36.0473
5.08917
82.9828
3.04819
70.8492
58.0114
5.57288
3.95573
77.4379
56.5874
4.03599
4.33875
12.0618
5.4502
129.83
29.3478
7.60149
115.494
125.391
89.0061
3.97049
39.3246
158.018
137.704
54.9602
2.30178
22.509
37.6075
224.444
35.5236
169.798
115.194
20.863
72.3102
115.054
118.315
116.246
13.6509
108.576
100.695
228.377
9.45785
9.27409
41.1336
34.9314
39.8681
37.4044
178.278
207.542
189.963
228.249
170.549
198.139
51.1991
268.361
147.783
91.8323
57.181
192.822
48.5538
150.24
8.04255
10.4452
93.7828
12.2441
10.8106
38.2689
12.6641
85.0708
132.635
29.8198
13.7223
48.2295
166.428
70.2621
64.1629
35.1186
77.4606
10.5481
7.88551
7.12013
3.93547
6.9214
3.81604
78.3637
5.49224
4.24921
124.532
9.00034
70.7483
29.6577
)
;
    }
    procBoundary1to0
    {
        type            processor;
        value           nonuniform List<scalar> 
29
(
2.96787
2.96787
3.05146
2.86019
45.3289
40.1551
127.599
13.6033
74.7365
4.95792
10.6344
40.1551
3.05146
3.45715
65.447
21.5239
45.3289
56.0211
2.86019
2.83057
10.6794
6.08586
61.1547
10.8748
10.8748
61.1547
7.37052
79.4205
7.37052
)
;
    }
    procBoundary1to2
    {
        type            processor;
        value           uniform 3.58009;
    }
    procBoundary1to3
    {
        type            processor;
        value           nonuniform List<scalar> 
48
(
87.7528
80.0729
77.529
77.529
50.5392
86.9874
86.9874
22.0433
85.3089
3.4269
2.36428
3.4269
4.53102
3.1867
3.33986
4.53102
6.30174
6.30174
6.81969
6.81969
2.76616
5.09264
7.05907
15.0902
15.0902
4.51964
8.76877
8.76877
13.6306
43.0015
13.8815
13.6306
22.0433
69.573
3.59832
43.0015
39.8467
2.36428
92.5553
45.2183
2.68037
55.3637
69.573
3.59832
3.38128
63.1593
46.3104
2.68037
)
;
    }
}


// ************************************************************************* //
