/*--------------------------------*- C++ -*----------------------------------*\
| =========                 |                                                 |
| \\      /  F ield         | OpenFOAM: The Open Source CFD Toolbox           |
|  \\    /   O peration     | Version:  v1912                                 |
|   \\  /    A nd           | Website:  www.openfoam.com                      |
|    \\/     M anipulation  |                                                 |
\*---------------------------------------------------------------------------*/
FoamFile
{
    version     2.0;
    format      ascii;
    class       volVectorField;
    location    "0.63";
    object      U;
}
// * * * * * * * * * * * * * * * * * * * * * * * * * * * * * * * * * * * * * //

dimensions      [0 1 -1 0 0 0 0];


internalField   nonuniform List<vector> 
1431
(
(-0.0597121 -0.303813 -3.56312e-17)
(0.131183 -0.81208 -1.47243e-16)
(6.05946 0.882873 1.01687e-16)
(-2.94466 1.82089 -4.87037e-17)
(-0.0920574 0.232525 -1.85992e-16)
(1.56445 0.0734173 3.30199e-16)
(-1.61382 0.33968 -1.96217e-16)
(9.78886 0.631315 -2.25362e-16)
(-0.434442 4.38929 0)
(-0.353532 3.86778 -1.01449e-16)
(0.839893 2.73538 0)
(0.601567 -0.414875 7.20849e-17)
(-0.887346 0.816034 0)
(9.05759 0.508243 1.98424e-18)
(0.290973 0.73574 -2.62578e-16)
(-0.124011 3.77598 0)
(0.438145 2.22744 -3.26636e-16)
(1.4037 -0.0419865 0)
(0.763575 -0.161653 1.39583e-16)
(0.801458 2.29799 4.06707e-17)
(-0.138001 -0.15803 -2.42071e-17)
(-0.503144 2.64706 4.69672e-19)
(0.63871 0.602204 -5.46787e-17)
(8.75848 0.558573 -3.21411e-17)
(1.67958 3.18163 -1.3171e-16)
(0.612497 1.74822 -1.23518e-16)
(-1.5473 4.65242 1.22868e-16)
(9.32411 0.457557 -2.34867e-20)
(10.8516 0.590043 6.35938e-18)
(1.22817 -0.97751 -5.08446e-16)
(7.5415 0.280892 2.45501e-16)
(7.25899 -0.183837 -1.79424e-16)
(-1.82974 0.410803 -1.19958e-16)
(-1.40402 0.301003 0)
(-1.58523 0.383567 1.02432e-16)
(2.09114 8.80398 1.28406e-16)
(0.178173 0.255528 1.45973e-16)
(9.77339 -0.00489155 0)
(0.458109 0.270383 -1.90299e-16)
(9.69035 -0.0018829 0)
(4.88809 0.120593 1.39503e-16)
(0.502321 -0.0501925 -8.11822e-17)
(-1.39697 0.565096 0)
(-1.60087 0.680897 -6.60017e-17)
(-1.02121 0.726883 1.59703e-16)
(-0.0902468 0.118953 -4.98375e-16)
(1.54839 4.74428 2.25469e-16)
(7.27521 1.18152 -5.95508e-17)
(9.02355 0.540735 1.63583e-16)
(9.53336 0.0901691 3.77588e-17)
(1.44024 -0.311906 -8.78555e-17)
(-0.256439 3.65106 1.04882e-16)
(-0.435743 5.35287 4.99129e-17)
(-1.06326 0.500015 -1.69808e-17)
(-1.27937 0.727692 -1.32067e-16)
(8.04035 1.72581 0)
(-0.247888 2.16098 7.35732e-17)
(-0.337061 3.66017 -2.4614e-16)
(-0.507933 6.22633 0)
(-0.01657 -0.286755 -9.55714e-16)
(0.72008 1.9888 0)
(1.00052 2.03794 -1.46158e-16)
(1.47672 7.65259 -1.43214e-16)
(10.5991 0.120449 0)
(10.005 0.311365 -1.89118e-17)
(0.66165 -0.230988 0)
(6.5985 0.406451 0)
(1.65569 0.0224124 0)
(0.130629 -1.09927 1.41632e-16)
(10.7834 0.0914664 0)
(-0.883831 0.337175 9.49503e-17)
(-0.905939 0.372912 -1.00268e-16)
(0.411461 0.946058 0)
(1.32435 0.114283 -3.17585e-16)
(0.026452 1.74767 -2.54161e-20)
(-0.960382 0.320738 2.90279e-16)
(-0.147628 0.0475887 6.50127e-17)
(3.90123 0.720806 3.24924e-16)
(10.0129 0.175472 1.3429e-17)
(0.925321 -3.03148 -2.25215e-17)
(9.95962 0.0979055 -2.61948e-16)
(1.40556 0.224521 -2.25693e-18)
(0.485382 -0.464478 2.40962e-16)
(1.21172 0.357305 -8.84441e-17)
(-2.78463 1.40895 4.93597e-17)
(-0.0688086 0.091355 -6.84489e-16)
(-0.120502 0.0176146 -1.39703e-16)
(-0.771784 0.971294 1.82312e-16)
(8.38183 0.600632 9.67509e-17)
(0.777214 1.90277 -5.64683e-17)
(1.24251 1.04473 2.0141e-16)
(-1.1737 0.781359 2.80662e-16)
(-0.204338 -0.0746576 0)
(9.83692 0.03763 0)
(1.25767 0.146433 2.30029e-18)
(-0.103802 -0.0902108 -2.00556e-19)
(-0.0510405 1.67996 -5.57866e-20)
(10.3916 0.561429 3.39531e-18)
(-0.0393917 -0.0672618 2.76235e-16)
(8.84643 0.500376 -4.63556e-16)
(-0.00115653 -0.737877 -1.53875e-16)
(9.93763 0.174171 -6.92664e-17)
(0.614671 0.774981 0)
(-0.0349102 0.331002 1.54812e-20)
(-0.837401 2.24671 1.89417e-16)
(-0.093772 -0.232279 9.1941e-17)
(10.0401 0.0693068 -1.09406e-16)
(4.56311 -0.0415891 7.96146e-17)
(6.76065 0.0131698 9.97315e-17)
(-0.0720397 0.140227 1.03814e-16)
(-0.789518 -2.51198 1.97112e-16)
(0.360545 -0.232595 -8.63037e-17)
(9.73075 0.86315 0)
(1.08901 2.10402 -1.4691e-16)
(-0.348043 2.47326 0)
(-0.00277532 0.381532 0)
(1.36234 0.179759 0)
(0.413605 -0.00481884 5.7011e-20)
(7.90599 0.615919 -6.65693e-17)
(-1.56761 0.669969 -1.60356e-16)
(9.97227 0.268065 -2.0862e-17)
(-0.448743 5.32855 -1.41403e-16)
(-0.262096 3.38118 -4.80548e-16)
(8.75378 0.838958 -1.22988e-16)
(10.1356 0.165898 0)
(-0.406537 0.296324 -1.10566e-16)
(7.34713 0.599187 1.75955e-17)
(0.145302 1.00243 6.672e-17)
(-0.143132 -0.142119 1.22679e-16)
(10.6586 0.423541 -7.59308e-17)
(0.0525346 -0.341236 -1.58486e-16)
(4.03103 -0.156493 2.60057e-16)
(7.28073 0.276264 0)
(0.961671 1.37613 -1.68138e-16)
(-0.258031 -0.200081 -1.31069e-17)
(-1.88017 0.893432 -2.96877e-16)
(0.677399 1.22205 0)
(0.325765 0.368895 1.43042e-16)
(0.382839 0.59726 5.29357e-17)
(3.26885 -0.0758258 -4.29338e-16)
(-0.271399 4.48858 0)
(-0.470858 -0.282689 3.76608e-17)
(10.5455 0.0585511 -7.90264e-18)
(8.95409 0.388596 -2.10938e-17)
(8.596 0.161678 0)
(11.3977 0.281862 4.60352e-17)
(10.3753 0.374714 3.54728e-17)
(4.34353 -0.0686245 0)
(0.882503 1.61944 -1.1642e-16)
(9.39109 0.955521 -5.40457e-17)
(10.8821 0.0442777 8.22871e-17)
(9.9141 0.432213 -1.63894e-17)
(-0.354767 -1.32037 -1.74171e-16)
(1.0198 -0.559066 1.02307e-16)
(0.572261 0.946688 1.69007e-16)
(0.14868 1.08046 -4.53109e-17)
(10.1031 0.109848 9.04487e-17)
(1.21925 1.87225 -3.6146e-16)
(9.62187 0.971226 0)
(9.5417 1.19607 -9.9971e-17)
(1.31955 -0.164039 -4.26787e-20)
(1.05657 2.39 3.56117e-17)
(0.297721 0.388755 0)
(-0.335186 1.47303 -4.13942e-17)
(-0.0222209 0.210918 -2.99289e-16)
(-0.994088 -0.306386 -2.0068e-16)
(-0.109208 0.0947306 -1.55119e-16)
(9.89727 0.112149 0)
(1.38882 -0.696201 3.88836e-16)
(0.560887 0.75334 -1.74855e-16)
(9.68516 0.949916 -1.41109e-17)
(0.0931741 2.70715 2.70921e-17)
(8.44669 0.562039 -1.20673e-16)
(11.0742 0.0528444 0)
(10.5294 0.0402548 1.49897e-17)
(0.0768904 0.165663 0)
(-0.29397 0.281399 9.26371e-17)
(9.39129 0.600514 -1.85865e-17)
(0.920349 -1.01975 3.23467e-16)
(9.5551 1.1307 1.0267e-16)
(9.75834 0.294877 4.30437e-17)
(0.556667 0.707217 1.25345e-16)
(8.8566 1.74435 0)
(0.809705 1.69967 3.25574e-16)
(11.2626 0.114844 1.00458e-16)
(9.90294 1.13636 -1.39959e-17)
(9.8877 0.726756 1.06778e-16)
(-2.80403 4.35273 -1.38193e-16)
(0.377051 1.1794 1.90899e-16)
(10.2876 0.104955 -2.63991e-20)
(0.629976 -1.7587 -2.42233e-19)
(0.676717 2.24792 -1.24894e-16)
(-0.205725 0.022369 -4.32473e-16)
(10.084 0.044666 -6.61523e-17)
(-0.2541 2.66451 -6.2326e-21)
(10.1236 0.437995 4.13618e-17)
(10.0416 0.0916583 0)
(7.29858 2.11021 -1.10709e-16)
(0.572263 1.19979 0)
(0.535164 0.502853 0)
(0.184191 -0.762782 -2.1117e-16)
(2.84572 2.57268 -2.90936e-16)
(9.40721 1.06622 -2.8211e-17)
(3.5401 0.127176 -4.88764e-16)
(10.0599 0.0551842 3.63607e-17)
(-2.47878 2.50297 -3.12447e-16)
(-0.0692971 -0.0453577 1.20107e-15)
(9.80215 0.209985 2.58483e-17)
(0.410383 1.99641 1.4572e-17)
(9.29337 0.241924 0)
(10.1485 0.0680114 8.20692e-18)
(9.96031 0.348715 6.49782e-17)
(7.91 0.673335 1.44029e-17)
(9.87731 0.193615 2.48459e-17)
(-0.313524 0.580105 0)
(-0.208802 0.566418 3.97213e-16)
(9.50566 1.06972 0)
(0.669367 -1.86556 0)
(-0.307529 -0.750316 0)
(10.1268 0.232424 -6.49456e-17)
(9.90015 0.165248 0)
(0.136109 1.11833 1.54434e-16)
(11.143 0.0303742 -1.32152e-16)
(4.58003 1.29108 -7.64798e-17)
(10.7299 0.349971 0)
(9.40848 0.906217 0)
(9.41902 0.966805 -7.53239e-17)
(0.894848 1.57747 0)
(10.5647 0.665523 0)
(7.58565 0.21852 -7.49181e-17)
(-0.123025 0.121088 0)
(-2.35829 1.94629 3.56481e-16)
(10.6437 0.0920791 5.5917e-20)
(9.93735 0.507565 -1.94625e-16)
(9.81999 0.441772 8.95216e-17)
(9.84361 0.393955 5.04307e-17)
(10.5107 0.261779 -2.72675e-17)
(-0.0578112 -0.11793 2.64328e-16)
(9.87018 0.106909 0)
(-0.674904 -0.24068 1.9707e-16)
(9.56731 0.187564 -3.2997e-17)
(9.48894 1.16059 8.47543e-17)
(-0.380539 3.58501 -2.19572e-16)
(0.997904 4.44741 -2.99633e-16)
(-0.134758 1.24913 1.02312e-20)
(-0.386952 1.20256 6.57448e-20)
(10.5443 0.270792 -1.84004e-16)
(-2.04423 0.235022 0)
(-1.71319 0.151795 0)
(10.0191 0.925887 0)
(10.1319 0.99674 -9.69633e-17)
(-0.400667 3.94367 0)
(-0.367896 3.62811 1.0181e-16)
(6.41015 3.22438 2.16393e-17)
(1.40386 5.57107 -1.66758e-16)
(8.20941 0.0496069 -4.60878e-17)
(1.48027 -0.0284923 1.83081e-17)
(-0.647302 -0.613886 5.29987e-19)
(8.35494 0.00374075 7.40219e-20)
(8.30297 0.0174235 8.94138e-17)
(8.1721 0.0666722 8.85854e-17)
(-0.577185 1.09732 2.96851e-17)
(0.00127276 0.0647991 5.64362e-16)
(-0.288719 4.64811 -4.2783e-17)
(9.80423 0.325857 -7.88492e-17)
(10.6824 0.566238 6.97332e-18)
(8.25797 0.0119326 -8.26793e-17)
(9.9533 0.918839 0)
(8.49456 2.76359 2.86335e-17)
(-0.32056 4.04768 -1.35445e-17)
(9.84911 1.05925 0)
(9.16943 0.743278 3.13377e-16)
(10.269 0.868031 2.81249e-17)
(10.3119 0.761593 0)
(8.12864 0.0756776 -5.47831e-17)
(10.0656 0.661883 1.267e-18)
(0.962456 1.22296 -1.07964e-16)
(0.475503 -0.892066 -9.81818e-20)
(0.288297 -0.0165176 -4.3249e-17)
(-0.341142 4.02902 1.73394e-16)
(-0.505161 4.91994 0)
(-0.722882 0.099038 -4.11601e-17)
(0.0541222 -0.931031 0)
(1.22759 1.63537 2.56616e-16)
(8.31436 -0.00510227 -4.52157e-17)
(-3.36608 3.21848 6.24625e-17)
(-0.148656 0.0527738 1.36805e-16)
(9.2148 1.20506 5.31208e-17)
(10.2539 0.859683 2.11453e-19)
(9.6815 0.175303 6.88852e-17)
(11.1728 0.434017 1.57477e-16)
(9.60356 0.0107466 -6.17206e-17)
(9.46062 1.06637 0)
(0.762354 -1.61112 0)
(10.0925 1.07538 -4.49516e-17)
(9.47262 1.39089 4.83502e-18)
(-0.245833 -0.00588919 0)
(9.09458 2.08132 1.60862e-18)
(-0.509375 -0.768647 -1.85528e-16)
(9.58039 1.18584 2.88687e-17)
(9.68306 0.347296 2.94545e-17)
(9.21238 0.834217 7.56907e-17)
(0.829828 0.362177 0)
(8.12244 0.144781 0)
(1.15034 1.78691 -2.13901e-16)
(-0.309304 -0.85823 1.63875e-16)
(9.94294 0.122197 8.35792e-17)
(8.25938 0.0316166 -9.03811e-17)
(8.31368 0.00902543 -8.69941e-17)
(-0.416245 -0.283648 1.92159e-16)
(9.68867 0.238551 -1.37737e-17)
(10.8183 0.206792 5.56441e-17)
(0.675933 -0.127991 -1.87217e-17)
(-0.249657 -0.228968 -2.06229e-17)
(-0.920057 0.436969 -5.17817e-19)
(-0.185039 -0.877027 -1.61689e-16)
(-0.346931 4.0815 -4.72957e-17)
(-0.461509 0.246015 -8.39736e-17)
(9.84753 0.336181 -4.71935e-17)
(-0.327111 -1.00762 -1.50524e-16)
(-0.389688 -0.618439 -2.62121e-16)
(-0.238418 -1.05723 2.37011e-16)
(-0.180816 3.82962 -8.82049e-20)
(-0.573746 0.0941504 -6.0247e-20)
(-0.0945723 1.40212 -1.43116e-16)
(-0.31406 -0.825097 -7.93913e-17)
(9.86911 0.0741571 1.79066e-16)
(-0.163081 -0.697281 -6.92916e-17)
(7.59738 0.470844 0)
(9.79265 0.170982 -6.92705e-17)
(0.303446 -0.289459 -1.11428e-16)
(0.636587 -0.713224 0)
(-0.716777 0.113916 0)
(0.6884 -1.74408 1.77483e-16)
(10.3095 0.114795 0)
(-0.221054 2.12308 -1.25713e-16)
(1.40807 -0.610388 -5.84812e-17)
(-0.32245 -0.905567 0)
(1.60064 -0.312277 -1.67992e-17)
(-1.22522 0.326638 1.59008e-16)
(0.450393 -0.106601 0)
(9.85042 0.0890701 -8.07464e-17)
(-0.333266 -0.4917 8.04549e-17)
(10.0699 0.208773 3.43238e-17)
(6.75001 3.60767 -2.67464e-16)
(0.123939 -0.204502 1.91399e-16)
(10.5272 0.238251 1.48172e-17)
(-0.016294 -0.138892 1.81776e-16)
(-0.338072 0.100985 -8.79478e-17)
(-1.01196 0.0316748 -7.57067e-17)
(0.492549 -0.0472919 -1.29385e-16)
(-0.221095 0.0128702 -4.6766e-16)
(-0.393806 -0.19185 0)
(1.05631 0.0682448 -1.55597e-16)
(-0.222282 -0.0130827 0)
(0.587784 -0.0132608 0)
(-0.444595 0.0637615 0)
(-0.203698 -0.00616582 -4.02606e-16)
(1.05347 0.0378235 0)
(0.15268 0.225586 5.13087e-16)
(1.31431 -0.172853 -1.81258e-17)
(-0.390446 -0.05083 1.44683e-16)
(1.1277 0.0989885 2.37273e-18)
(-0.132579 -0.00651203 -9.75756e-17)
(-0.686843 0.144851 2.66899e-16)
(0.229374 -0.105728 -1.78436e-16)
(1.41989 0.0704701 0)
(-0.266974 0.0771724 0)
(0.0461639 -0.30838 -2.74832e-17)
(0.403858 0.0284567 0)
(0.00973846 -0.934565 5.37343e-16)
(-0.709911 -0.2189 1.28487e-16)
(-0.125273 -1.07307 -1.34509e-16)
(10.0296 1.12678 5.23132e-17)
(0.813181 -1.61464 0)
(-1.10921 -1.65137 1.97943e-16)
(0.348497 -0.289335 1.08382e-16)
(9.82839 0.282515 3.20163e-17)
(10.0043 0.0316863 8.38501e-17)
(1.05807 0.0723517 6.10521e-16)
(0.0874756 0.167678 2.97616e-17)
(0.429467 -0.0698344 4.11869e-17)
(-0.944366 0.127748 -2.49334e-16)
(-0.524526 -0.0411632 0)
(-0.448136 0.0012935 1.37575e-16)
(1.26978 0.107151 0)
(-0.0197279 0.0974378 0)
(-0.193531 0.0925294 2.02532e-16)
(1.05558 0.0402917 1.4798e-16)
(-0.178444 0.027063 1.76838e-16)
(-0.335579 -0.199599 0)
(2.43778 5.23207 1.8188e-16)
(9.73243 1.09012 -2.84076e-17)
(9.98773 0.000667344 0)
(-0.117505 -0.990614 4.76121e-19)
(0.301325 0.098057 -1.88939e-16)
(-0.352823 -0.725012 -1.6501e-16)
(9.96322 0.188559 0)
(-0.0300944 0.641726 0)
(10.4638 0.0797792 0)
(0.498921 0.117261 -6.28563e-17)
(0.28173 -0.402379 1.89373e-16)
(10.0246 0.205828 2.81449e-17)
(1.57466 -0.0507509 3.09605e-17)
(0.219012 -0.529163 1.26872e-17)
(10.0784 0.892445 0)
(-0.38636 0.134014 1.1686e-16)
(8.81806 0.024923 1.67795e-16)
(-0.409765 -0.0790685 -3.25282e-17)
(0.395823 -0.0966545 -1.5614e-16)
(9.73215 0.0793086 6.59477e-17)
(-0.135734 -0.585271 0)
(-0.145304 0.0297149 -3.07925e-20)
(2.20832 7.77373 -3.96684e-16)
(8.79467 0.232591 -2.23795e-17)
(1.77858 4.4585 6.7544e-17)
(0.30064 -0.44391 -1.66383e-16)
(-0.367133 4.55831 1.83483e-16)
(-0.537254 -0.243896 -2.38514e-17)
(-0.394203 -0.513273 1.48609e-19)
(-0.52736 0.25896 4.68327e-17)
(0.356984 -1.37321 1.33956e-16)
(-0.293277 0.886145 5.1191e-17)
(-0.0930233 -1.7373 -2.45608e-16)
(0.281303 -1.40447 0)
(0.313115 -0.432384 1.64899e-16)
(0.00875884 -1.55051 4.20162e-17)
(0.322019 -0.704159 1.02303e-17)
(-0.260028 0.651364 -1.20729e-16)
(0.291688 -0.773787 -3.46567e-16)
(0.979189 0.683915 0)
(-0.165583 -1.72417 -1.81502e-16)
(0.0315818 -0.410682 0)
(0.407408 -0.983293 2.29825e-16)
(-0.711948 0.298964 -9.22238e-18)
(0.331229 -0.544765 0)
(0.31495 -1.11774 -2.01009e-16)
(0.390144 -1.12202 2.4095e-18)
(0.0512671 -1.78611 5.11074e-16)
(-0.681314 0.301932 1.88786e-16)
(-0.780964 0.49382 -1.48289e-18)
(-0.179811 2.71441 -4.19783e-17)
(0.456631 -1.24229 0)
(0.448921 -1.46773 4.46104e-17)
(-0.1172 -0.78541 0)
(0.270674 -0.318693 8.68989e-18)
(0.154082 0.198732 -4.75766e-18)
(-0.0221725 -1.77631 -1.09769e-16)
(0.67616 -1.42778 0)
(0.306543 -0.529482 1.52947e-16)
(0.346141 -0.672331 -9.74042e-17)
(-0.180541 0.137947 3.98997e-16)
(0.240504 -0.107602 -1.4712e-16)
(-0.357752 0.943123 -1.33215e-16)
(0.192597 -1.33699 7.28279e-17)
(-0.396906 0.7716 -1.97389e-16)
(-0.17625 -0.0564603 -2.97081e-16)
(-0.076142 -0.442081 -6.33936e-18)
(-0.294122 0.384838 0)
(-0.659237 0.299267 0)
(2.78918 2.35596 2.87248e-16)
(0.498027 -1.56075 0)
(-0.214362 0.384487 0)
(0.200213 0.732199 -2.32106e-16)
(-0.594959 0.151804 2.07409e-16)
(-0.45192 -0.0521251 -4.68137e-16)
(-0.28532 0.0878777 -1.76998e-16)
(1.83233 3.15005 1.08963e-16)
(-0.176049 0.74083 -2.47819e-16)
(-0.571765 -0.0897535 -5.96705e-16)
(1.80947 5.3424 1.64235e-16)
(0.952946 0.085605 0)
(8.17189 0.095381 -1.55466e-17)
(1.07831 7.0313 -5.89707e-17)
(-0.55702 1.08446 3.17867e-16)
(-0.474143 -0.289113 -1.9415e-16)
(2.47797 7.45649 -2.75823e-16)
(2.23673 8.09441 2.50601e-16)
(1.07258 4.19555 1.72499e-16)
(0.060888 -1.19142 0)
(0.151094 -1.47989 -4.29269e-17)
(1.01792 0.328922 0)
(0.700287 8.48216 -4.86002e-17)
(9.99338 0.380864 -1.85465e-17)
(8.85146 0.149759 -3.24055e-17)
(-0.644351 1.2307 -1.65805e-16)
(-0.129244 1.05134 -1.49449e-16)
(-0.168862 0.751796 1.2371e-16)
(0.0221449 -0.95909 -9.65073e-17)
(0.280807 -1.02417 0)
(0.0165787 -0.740512 -1.20947e-17)
(0.154703 -1.46046 0)
(-0.447135 -0.366615 2.43544e-17)
(2.18012 6.95088 5.78685e-17)
(0.0478838 -1.28873 0)
(1.09334 0.392002 0)
(-0.621831 3.97052 0)
(0.461112 -1.85618 3.71879e-17)
(9.93137 0.151817 -1.38808e-17)
(0.353458 -1.89655 0)
(-0.211377 1.05203 -5.74604e-19)
(-1.25758 5.74804 1.35054e-17)
(0.324757 -0.76225 2.70302e-21)
(0.325192 -0.687326 0)
(0.254662 -0.979767 1.97215e-16)
(0.342023 -1.96009 0)
(-0.416397 -0.444773 8.11154e-21)
(-0.226816 0.81706 -6.6751e-17)
(-0.00647039 -1.59076 -3.96907e-17)
(-0.159806 2.63377 -8.08493e-17)
(-0.188946 2.41024 0)
(0.129832 -1.83889 3.15562e-17)
(9.70406 1.23054 0)
(-0.352524 -0.441053 4.45942e-17)
(10.5283 0.117621 -9.63872e-17)
(0.126255 -1.54541 0)
(1.56476 6.19776 -3.84457e-16)
(-0.809582 5.04589 7.77382e-18)
(0.035021 -1.53608 4.06305e-17)
(-0.227204 -0.0243133 0)
(0.619156 -2.03583 -1.10296e-20)
(0.0524634 -1.91775 -1.14083e-16)
(0.493731 -2.03694 5.58456e-17)
(-0.60598 0.00859437 -1.74214e-16)
(0.709161 0.417306 1.1528e-18)
(0.162814 -1.02781 0)
(0.198851 -0.781408 1.71308e-16)
(0.0714399 -1.34298 0)
(0.190446 -2.02171 3.69274e-17)
(0.411086 -1.5584 -9.53474e-17)
(8.82004 0.189212 4.4595e-17)
(8.07988 0.168087 -1.29336e-16)
(0.165699 -1.81409 4.66152e-17)
(0.332898 -2.07294 -1.46736e-17)
(-0.0441435 -0.486678 1.95701e-17)
(0.0932141 -1.34321 -3.70562e-17)
(0.256411 -0.299462 3.99514e-17)
(0.34706 -1.60365 0)
(0.353689 -0.550116 3.23326e-16)
(3.15958 4.12646 0)
(0.325385 -0.739979 -1.28399e-16)
(0.758533 2.54544 1.85085e-16)
(0.297627 -0.422606 1.75383e-16)
(-0.171122 1.46015 0)
(0.365414 0.0285123 4.80224e-17)
(-0.273758 1.50689 5.09096e-17)
(0.368875 -1.20203 2.44171e-17)
(9.81328 0.104751 0)
(-0.125432 0.109033 0)
(-0.30688 -0.448788 8.07614e-21)
(0.247256 -1.87866 -4.04571e-17)
(-0.205743 -0.176889 2.32428e-16)
(8.22956 -0.0458626 4.37423e-17)
(0.0629977 -0.997536 7.23367e-17)
(-0.703094 0.328532 3.34078e-17)
(0.1396 -0.678463 -6.1644e-17)
(0.189892 0.264836 -8.21746e-17)
(0.356303 -0.283771 -1.95573e-16)
(8.14783 -0.0410542 -5.11272e-19)
(9.31677 1.22212 4.72615e-17)
(0.352352 -0.579253 -3.27347e-16)
(0.123617 -1.58173 0)
(0.0283172 1.11397 0)
(0.953969 3.8884 6.89731e-16)
(-2.18788 0.446625 -1.21997e-16)
(-0.546811 -0.341052 -4.99061e-16)
(0.403001 -0.836123 0)
(9.72699 0.979837 1.34053e-16)
(1.08723 0.87124 0)
(0.256314 -1.12074 1.2781e-16)
(-0.946092 -0.115395 -5.93265e-16)
(-0.135714 1.27476 1.64324e-16)
(2.04246 2.40833 0)
(-0.214571 1.41149 8.98503e-18)
(1.64663 6.90969 0)
(1.18778 1.68553 2.14294e-16)
(0.435027 -1.18049 1.1172e-16)
(0.898163 -1.44297 1.12616e-16)
(0.146955 -1.37159 -1.26171e-16)
(8.91431 2.43138 -2.95388e-17)
(1.14681 0.262214 -4.61416e-18)
(9.81328 0.0829136 2.26867e-16)
(0.0688189 -0.830748 0)
(0.347172 -0.497035 -6.77029e-20)
(0.233476 0.157995 -2.65392e-17)
(0.275718 -1.60352 0)
(0.184632 -0.661304 3.3537e-16)
(9.9752 1.03118 0)
(1.43784 0.0105308 4.54936e-18)
(10.7829 0.468198 -3.36149e-18)
(-0.178891 1.7489 0)
(-0.248596 3.01086 -9.72705e-17)
(10.0004 0.0684114 -1.14254e-16)
(9.90698 1.27527 0)
(9.75654 1.56611 -5.27027e-18)
(0.212739 -1.56377 0)
(-0.320797 0.440737 -9.09862e-17)
(0.541484 -1.76367 -1.60717e-17)
(9.77208 0.882831 7.24086e-18)
(1.01308 -0.404581 -2.05235e-16)
(0.234907 -0.529696 -2.24146e-16)
(0.144827 -0.708275 -3.9173e-16)
(-0.350024 -0.564305 -4.28601e-17)
(0.335111 -1.24625 -5.22773e-18)
(0.313318 -0.814179 5.94236e-19)
(-0.10082 0.689563 -8.65674e-17)
(0.926962 2.32012 0)
(-0.132804 -0.652754 7.0079e-20)
(-0.303288 2.23501 4.76362e-17)
(5.90043 1.29012 -4.60394e-17)
(7.22353 2.46563 6.34174e-18)
(0.184763 -0.144749 -1.49434e-16)
(-0.413342 -0.576841 0)
(0.269151 -0.389227 -1.6008e-16)
(6.5958 1.82428 0)
(9.82083 0.767986 -1.34567e-17)
(-0.639107 6.12588 0)
(-0.209151 3.64804 4.50172e-17)
(0.239564 -0.240783 -1.06095e-16)
(-0.0739162 0.064117 3.29246e-22)
(-0.395024 -0.733683 1.02524e-16)
(-0.177348 0.18513 0)
(1.45692 0.0580521 3.11432e-16)
(0.154289 -0.725659 -7.12848e-17)
(0.621824 -1.93419 2.67191e-20)
(6.68011 1.61498 -6.37938e-17)
(-0.503715 -0.872369 8.5138e-17)
(-0.222797 0.316317 9.43155e-17)
(0.196477 -0.588542 -1.36212e-17)
(9.81755 0.0561077 0)
(-0.229657 2.05701 4.36992e-17)
(1.22387 -0.2181 -1.048e-16)
(0.496952 0.242106 -1.3291e-16)
(9.82217 0.0473912 -4.74634e-17)
(-0.546565 -0.246563 6.8343e-17)
(0.00536504 -0.527184 3.65171e-17)
(-0.293408 -0.763687 -8.36762e-17)
(9.15487 1.24354 3.76893e-17)
(9.10602 1.70781 2.09407e-17)
(1.14035 -0.0395642 2.66443e-16)
(0.299541 -1.25117 -1.75659e-17)
(-0.409171 3.95232 0)
(9.83287 0.0584256 1.87762e-16)
(0.0625445 0.209181 3.46539e-16)
(0.822014 -1.902 -1.84503e-17)
(0.274938 -0.349955 0)
(0.265872 -1.2389 2.93866e-17)
(-0.399042 5.06155 -6.40273e-17)
(-0.205335 3.61681 5.38262e-17)
(0.883562 -0.319017 3.48594e-16)
(-0.0738838 -0.221135 0)
(-0.253983 -0.524381 2.49794e-17)
(9.47967 1.84154 4.41641e-17)
(8.8303 1.0446 0)
(-0.372159 4.89623 8.8979e-17)
(0.0890259 -0.568525 -6.72309e-17)
(9.80964 0.0682226 8.43847e-17)
(9.92032 0.156362 -2.32276e-17)
(0.56592 -1.60079 -2.41988e-16)
(0.0830781 0.0139714 -4.0843e-16)
(0.350863 -0.391711 1.99311e-17)
(-0.0894942 -0.218573 1.06156e-16)
(1.3027 0.629619 -3.44407e-16)
(1.47125 0.988724 -1.34186e-18)
(9.8137 0.128349 0)
(0.61588 -0.311354 1.82135e-16)
(10.0119 0.0687809 4.02881e-17)
(-0.323712 1.58655 -5.06011e-17)
(-0.00610657 0.0270025 1.52348e-16)
(0.57075 0.377109 -5.58656e-17)
(-0.141854 0.144261 -9.61691e-17)
(9.83437 0.0842195 -2.64198e-17)
(1.451 0.34156 -1.78165e-16)
(0.343535 -0.0484182 -2.42329e-17)
(8.77278 0.287068 0)
(8.89403 0.75163 8.11337e-17)
(-0.298835 0.824625 7.0624e-17)
(-0.446731 0.914432 2.01403e-16)
(-0.665799 -0.460714 0)
(9.08979 2.06392 -3.16318e-17)
(0.524984 0.612288 -1.6622e-16)
(-0.274332 -0.289313 1.90041e-18)
(-0.235528 1.5581 -3.08222e-17)
(-0.191791 0.207525 2.29735e-17)
(0.767716 -1.73554 -1.9763e-16)
(-0.237891 -1.54141 -9.05263e-20)
(0.474753 -1.41938 3.48186e-16)
(0.300026 -0.373536 -3.93909e-17)
(0.436612 -0.0471603 0)
(-0.255736 -0.751352 1.52583e-16)
(6.97964 0.0980153 2.29783e-17)
(0.34441 -0.178688 0)
(0.313281 -0.827297 -1.72341e-17)
(0.049295 -0.0863363 -8.15399e-17)
(0.302579 -0.689699 1.08685e-16)
(-0.258061 -0.945057 -4.08425e-17)
(-0.145923 -0.026363 -8.3037e-17)
(-0.688523 -0.219282 3.3105e-16)
(9.82691 0.109134 0)
(9.05582 1.27563 -6.09019e-17)
(0.307916 -0.839298 0)
(0.0791499 -0.873942 1.668e-16)
(9.44256 1.05694 -6.72207e-17)
(-0.308496 -0.777768 7.79423e-17)
(-0.0225793 -0.269192 3.70212e-16)
(4.85368 2.84424 9.88687e-17)
(9.01115 1.35594 -3.29926e-19)
(-0.0478974 0.836512 -1.6784e-16)
(10.0081 0.0743435 -1.17622e-17)
(5.25692 0.32167 2.53401e-16)
(1.07611 -1.18043 2.512e-16)
(-0.391705 0.460217 4.19052e-18)
(-0.337258 -0.568956 -1.02497e-16)
(-0.393184 1.63699 -3.2277e-17)
(0.219231 -0.192769 -9.47028e-17)
(8.12524 0.298796 4.90527e-21)
(0.223963 -0.605794 2.99164e-16)
(-0.318206 2.819 -1.15495e-16)
(8.92846 1.26938 -9.13239e-19)
(0.0271919 0.200333 9.69841e-17)
(8.50277 0.330999 0)
(9.58537 0.108605 2.29797e-17)
(9.8237 0.107425 1.28951e-17)
(-1.31549 5.41569 1.42128e-16)
(-1.09205 -0.145903 -4.55108e-16)
(7.70079 0.29545 -2.39892e-17)
(-0.486722 2.38697 0)
(-0.00687711 1.04174 1.14551e-16)
(1.84663 0.14622 -2.76909e-16)
(0.899101 -0.243394 0)
(0.146053 -1.01563 0)
(0.817081 0.132759 1.58879e-16)
(2.34155 0.159828 2.57834e-16)
(2.75726 0.195116 0)
(-0.301566 4.29767 -1.86133e-16)
(9.5375 0.94674 -7.27726e-18)
(1.06856 1.26129 1.50691e-16)
(0.988279 -1.46536 1.1001e-16)
(0.0539255 0.46382 0)
(1.11897 0.914196 -3.28359e-16)
(0.333422 -0.352258 1.46838e-16)
(-0.336052 3.1986 1.10599e-16)
(6.0534 -0.281955 0)
(0.653721 0.557185 0)
(5.21596 0.114707 0)
(8.9289 0.352907 8.04024e-18)
(9.18862 1.60013 1.11125e-17)
(10.4261 0.763231 -1.37984e-17)
(9.25549 0.929273 7.49831e-17)
(1.12247 0.0889584 2.35198e-16)
(-0.318519 4.69329 4.19821e-17)
(9.04774 1.35999 -1.35882e-16)
(3.20921 0.207435 0)
(4.01726 0.185596 5.08229e-17)
(1.38891 1.2804 0)
(0.04923 -0.240629 -1.26881e-16)
(9.94584 0.0351745 6.10073e-18)
(10.9507 0.0557745 0)
(9.51409 0.108075 5.52607e-18)
(6.71384 0.544866 -1.69394e-16)
(1.43887 -0.120816 -3.7602e-16)
(6.99756 0.74172 1.25597e-16)
(4.67452 4.57828 0)
(3.2091 5.49672 1.75977e-18)
(9.62783 0.012052 1.05015e-16)
(0.0523174 1.68204 -1.87176e-16)
(0.372247 0.00742322 -7.02678e-18)
(2.32559 6.59074 -3.74388e-17)
(5.40634 0.171762 7.05086e-19)
(3.64388 0.204175 8.26262e-19)
(0.758714 -1.52511 2.95415e-19)
(0.890861 6.45416 0)
(-0.401867 0.335904 1.70788e-16)
(-0.378919 -0.584269 1.63165e-16)
(0.430935 -0.68036 -1.6752e-16)
(4.92963 0.109797 0)
(-0.068386 -0.234669 9.49843e-17)
(1.01247 1.80377 3.25561e-17)
(0.519185 -1.31253 -1.47191e-16)
(0.713828 -0.384607 -2.04082e-17)
(0.354558 0.437647 -1.41826e-16)
(0.294564 -0.133578 6.58862e-17)
(4.3465 0.158287 -5.2442e-17)
(-0.196228 3.78273 0)
(-0.298748 -0.490389 1.70088e-16)
(3.6793 2.68459 -4.70326e-16)
(-0.552378 0.408323 -9.39197e-17)
(-0.222803 -0.469198 -1.43726e-16)
(0.215203 -0.173062 3.96088e-21)
(5.94957 0.454583 -1.13732e-18)
(1.18415 1.37461 1.48078e-16)
(9.61081 0.846851 0)
(1.43113 0.0405026 0)
(3.34022 1.55508 -9.97976e-17)
(9.99386 -0.0118351 2.90474e-18)
(9.87159 0.2069 0)
(-0.245963 0.199878 -9.22805e-17)
(-0.592806 -0.698606 0)
(0.207482 4.40755 -1.19171e-16)
(9.89655 0.117861 2.58245e-17)
(0.459141 -0.951159 2.07552e-16)
(0.285045 0.101812 0)
(8.80623 1.21104 2.87926e-17)
(-0.604668 -0.760919 -1.19648e-16)
(-0.219092 -0.0703997 9.04264e-17)
(-0.276268 0.104263 -2.10646e-16)
(1.79962 7.93799 1.02357e-16)
(1.19914 -0.110659 -3.85377e-17)
(-0.0786173 2.36815 4.46594e-16)
(-0.162196 -0.049364 0)
(9.72186 0.139613 -8.66148e-17)
(9.865 0.0810412 -2.80053e-18)
(-0.267514 4.57687 -8.0639e-17)
(-0.0949113 -0.047124 1.04063e-16)
(2.43986 -1.82246 -1.27649e-16)
(6.14881 0.0496957 3.38173e-17)
(5.65278 0.220771 -4.68001e-17)
(4.60865 -0.295468 -2.11736e-16)
(5.24403 0.172727 0)
(5.61518 0.0571755 -1.55512e-16)
(7.25734 -0.045474 0)
(6.11857 -0.0788573 3.87148e-17)
(4.64692 0.130469 6.01155e-18)
(0.210087 -0.767257 -7.55044e-16)
(0.292043 0.0383458 -4.62367e-16)
(11.1144 0.436792 5.34398e-17)
(0.255699 0.956553 -3.24502e-17)
(0.231187 0.174936 2.2498e-17)
(-0.923415 -0.500207 6.35476e-16)
(-0.102279 -0.0985767 1.36319e-20)
(-0.0897769 -0.35606 0)
(-0.804548 0.328137 -1.97652e-16)
(0.125122 -0.243031 -4.25493e-17)
(-0.203259 -0.21562 0)
(-1.39662 0.178943 2.97973e-16)
(9.12358 0.539401 3.08143e-16)
(0.604488 -1.53996 -2.19205e-16)
(8.36354 -0.0199448 4.23477e-17)
(0.102815 -0.292828 -7.05245e-17)
(0.580064 -1.35587 -1.24724e-16)
(9.68637 0.740779 0)
(8.69443 0.915903 -4.14868e-17)
(10.3838 0.472211 0)
(5.93545 0.117264 0)
(1.07747 4.03795 1.43035e-18)
(8.72128 1.09487 9.5487e-20)
(-0.317885 -0.437868 4.13401e-17)
(-0.138825 -1.03444 -3.56955e-16)
(-0.0882411 -0.612721 3.30905e-16)
(9.74741 0.0244584 1.11311e-17)
(0.223466 -0.56862 1.34147e-16)
(0.0468038 -1.13482 2.44561e-16)
(-0.443992 -1.08215 1.46827e-16)
(-0.978719 -0.0158833 -3.30603e-16)
(3.31401 4.86834 3.69227e-17)
(0.534625 0.982305 2.1425e-16)
(-0.154646 3.06217 -5.0582e-17)
(-0.369692 4.90013 0)
(9.89282 0.196215 0)
(9.58063 0.0213148 6.05577e-17)
(9.80287 0.0596957 -8.87183e-17)
(1.31718 1.52914 -1.87376e-16)
(0.30282 -0.696306 -4.1996e-17)
(0.70366 0.384585 3.75433e-17)
(-0.118354 0.0754049 0)
(-0.132297 -0.1477 0)
(9.97705 0.261061 6.60366e-17)
(8.46942 1.785 0)
(-0.154256 -0.120238 -9.07937e-17)
(-1.14129 -0.147977 -2.70022e-16)
(8.67757 0.420856 1.63613e-17)
(1.88363 7.4432 0)
(1.13218 0.689315 2.85395e-16)
(0.236568 -0.792949 0)
(-0.695159 0.238565 1.86494e-16)
(8.60037 2.25542 -1.02956e-16)
(-0.979303 0.794149 0)
(-1.19067 1.05067 -1.23796e-16)
(0.659336 -1.01053 -7.90993e-17)
(9.80172 0.0579621 -7.96949e-17)
(-0.0106712 -0.208324 2.01245e-16)
(-0.867105 0.464645 0)
(0.334059 -0.41776 8.83677e-17)
(-0.618973 -0.17621 -8.62257e-17)
(10.546 0.100253 0)
(-0.0784891 -0.279591 0)
(0.305096 0.341604 2.46345e-16)
(-0.237447 0.722181 -1.26767e-16)
(0.461763 0.887172 0)
(6.95535 0.0748822 1.85925e-16)
(9.41671 0.122533 0)
(-1.18216 6.22821 -1.32526e-17)
(0.676773 0.492528 -1.53195e-16)
(9.75364 0.117837 6.52181e-17)
(0.52891 0.926628 -1.94804e-16)
(4.45251 1.85102 -2.87635e-16)
(-0.632466 0.35594 -1.19341e-16)
(-0.12663 -0.369307 0)
(0.914533 -1.27583 -2.36714e-16)
(0.398812 0.55653 3.43965e-17)
(1.13341 -0.675817 0)
(1.14839 -0.306269 -1.90953e-17)
(-0.0447335 -0.594178 1.756e-16)
(0.115346 -1.25186 6.55918e-17)
(1.39382 0.068256 0)
(1.69847 -0.00454191 6.6388e-19)
(11.2122 0.190726 -4.99183e-17)
(0.260255 0.137791 4.37736e-17)
(-0.483826 0.189049 5.98103e-16)
(-0.159989 -0.299443 1.05748e-16)
(1.48652 0.643847 3.34415e-16)
(9.81599 0.0848284 6.20308e-17)
(-0.398517 4.69263 0)
(1.49571 0.124597 2.22275e-18)
(-0.155779 -0.350241 -1.90429e-16)
(0.361609 -0.0530201 -3.37726e-16)
(0.280877 -0.415537 -1.11814e-16)
(9.55698 0.0365245 9.67971e-20)
(-0.141817 1.64061 0)
(-0.0340287 0.838343 5.90732e-18)
(0.695773 -1.62337 -9.57171e-17)
(9.98235 0.241825 2.93524e-17)
(0.401738 0.022836 2.64143e-16)
(9.80411 0.0363363 5.96326e-21)
(9.81232 0.140497 0)
(7.89716 0.107629 5.01868e-17)
(-0.470086 0.904664 0)
(5.83439 -0.043897 -2.07312e-16)
(-0.425623 3.8448 -1.6573e-16)
(1.80679 0.0670409 0)
(0.122166 0.437067 -8.16321e-17)
(8.54676 1.4244 -2.03802e-17)
(0.999958 2.00211 8.84804e-17)
(0.265057 2.69286 -7.44388e-18)
(0.342049 1.5497 0)
(0.336768 2.16394 7.81043e-18)
(0.17441 3.12233 1.58932e-17)
(0.244182 0.935238 3.74301e-17)
(0.0800536 0.460028 -8.6179e-17)
(0.287862 -0.895055 1.99648e-16)
(-0.392206 -0.0793821 0)
(-1.22866 -0.0180226 3.20412e-16)
(9.77692 0.0690933 1.14123e-17)
(-0.00234218 0.191354 7.11681e-21)
(-0.0971235 -0.223906 0)
(-0.492363 -0.218267 7.93031e-17)
(0.0964905 -2.5801 1.52012e-18)
(-0.135073 0.093758 -2.77783e-16)
(1.2122 0.251498 -4.58333e-18)
(0.0194317 -0.351731 -2.27402e-16)
(-0.359424 2.32462 -8.02332e-17)
(0.0285123 0.369122 -1.40749e-16)
(-0.271514 3.73633 5.13985e-17)
(0.449253 -0.985651 3.12831e-16)
(1.89858 4.90842 0)
(-0.0482607 -0.423283 -2.03068e-16)
(0.0182062 0.0191877 -1.40882e-17)
(0.968708 -0.184046 3.96352e-17)
(0.437981 -0.868103 -1.06128e-16)
(0.728907 -0.393779 -4.37702e-17)
(-0.184888 4.06597 1.30184e-16)
(-0.0233786 1.0706 7.42465e-17)
(-0.585682 0.022533 1.32115e-16)
(1.31725 0.315631 2.24429e-18)
(0.0551075 -0.723832 -2.35767e-17)
(-0.0063609 -0.287336 2.10827e-16)