/*--------------------------------*- C++ -*----------------------------------*\
| =========                 |                                                 |
| \\      /  F ield         | OpenFOAM: The Open Source CFD Toolbox           |
|  \\    /   O peration     | Version:  v1912                                 |
|   \\  /    A nd           | Website:  www.openfoam.com                      |
|    \\/     M anipulation  |                                                 |
\*---------------------------------------------------------------------------*/
FoamFile
{
    version     2.0;
    format      ascii;
    class       volVectorField;
    location    "0.78";
    object      U;
}
// * * * * * * * * * * * * * * * * * * * * * * * * * * * * * * * * * * * * * //

dimensions      [0 1 -1 0 0 0 0];


internalField   nonuniform List<vector> 
1431
(
(0.171637 2.90309 1.07864e-16)
(1.96606 1.79304 2.5747e-17)
(-0.00594674 -0.167994 0)
(0.420721 -0.117479 2.36515e-16)
(-2.05939 -0.250417 0)
(0.630535 6.4147 1.84302e-16)
(0.376247 0.0984441 5.25303e-16)
(1.46963 0.0250681 4.68515e-17)
(-0.0962081 6.75892 1.23566e-16)
(0.225851 0.0758636 4.98114e-16)
(2.90098 10.549 2.11893e-17)
(6.07374 -0.50814 0)
(-0.199967 2.09367 -1.41033e-16)
(-1.76209 0.0293182 -5.11925e-16)
(2.21695 -0.44354 0)
(0.447584 0.10012 -4.59881e-16)
(3.80114 -0.158902 -2.45351e-16)
(-2.04322 -0.376646 0)
(3.94655 -0.327184 -1.9655e-16)
(-2.1325 0.0887334 1.40083e-16)
(4.35705 9.90021 -7.16634e-19)
(-0.873138 -0.0378881 2.09996e-16)
(0.110558 4.70453 -1.46818e-16)
(11.5048 2.03474 -3.42607e-18)
(-0.0149976 6.03098 1.28197e-16)
(-0.0180236 1.0396 4.4129e-20)
(1.59256 10.3538 -2.19578e-17)
(1.3339 -1.31229 -3.72726e-16)
(-0.133686 5.1676 -4.13501e-17)
(0.222909 5.70487 3.19366e-17)
(0.0581343 6.45737 -8.70319e-17)
(-0.0451783 6.41905 3.3491e-17)
(-0.0119516 6.41667 0)
(-1.12416 0.177838 -4.18448e-16)
(0.55137 5.61181 -2.42541e-16)
(0.519111 0.172636 0)
(-0.470831 5.8643 0)
(0.222252 -0.121059 8.99342e-20)
(0.131618 -0.0567757 0)
(-0.00911894 6.24363 0)
(-0.445615 8.36205 -9.6459e-20)
(-0.592797 7.89707 1.05876e-16)
(-0.1062 1.49152 -1.86671e-16)
(0.428661 0.0241381 2.41774e-16)
(0.833281 5.15317 0)
(-0.26545 -0.918297 3.35334e-16)
(0.298722 1.15854 2.29211e-17)
(1.11591 10 -6.66948e-17)
(0.465648 0.0911396 0)
(0.0604246 -0.296906 0)
(0.570398 2.59229 0)
(0.405133 -0.0205418 0)
(0.431073 2.98183 2.50939e-16)
(2.13482 -0.102991 1.54197e-17)
(1.50876 1.10399 -1.89688e-18)
(0.140426 1.23341 4.02148e-16)
(-1.23902 0.384734 1.8849e-16)
(4.21238 -0.689915 0)
(4.2531 0.119941 0)
(0.713849 -0.273645 4.17314e-16)
(1.2751 -0.574093 -1.36004e-16)
(0.0782667 -0.0075598 4.34747e-16)
(-0.303375 -0.0692544 0)
(0.109676 -0.0644454 0)
(0.0214083 -0.0129174 1.05777e-18)
(-0.0489901 0.0697367 -2.64304e-16)
(1.74371 -0.00867098 -2.37988e-16)
(0.295094 -0.174925 -9.35127e-17)
(0.728689 -0.168602 -5.68885e-18)
(-1.15539 -0.312464 0)
(0.0341882 -0.812096 6.86553e-17)
(-1.30841 0.141798 -1.48213e-16)
(0.220806 -0.0279331 1.44106e-16)
(-1.03626 0.0921933 3.41779e-16)
(-1.84594 -0.108735 3.78499e-16)
(-0.786267 -0.513837 -5.09337e-16)
(0.6421 -0.317836 -2.30097e-17)
(-0.241096 -0.0730361 -1.92068e-16)
(0.198192 0.0141514 -3.19597e-16)
(-1.13808 -0.475393 0)
(3.77822 -0.0022004 -5.82214e-17)
(-0.304725 -0.224694 1.20369e-17)
(4.81871 1.05572 -5.8235e-18)
(1.18374 1.52776 9.4535e-17)
(11.3434 0.712197 2.09157e-18)
(0.728 -0.235785 -1.191e-16)
(0.15297 -0.151387 0)
(1.75962 0.327319 1.67241e-16)
(9.79942 0.164099 5.63292e-18)
(7.69743 0.910753 1.89757e-18)
(-0.757328 0.707551 -2.63524e-16)
(-1.49024 1.02461 2.61748e-16)
(0.246188 -0.129063 3.06391e-16)
(0.50517 0.0836207 -1.58837e-16)
(1.31101 0.737604 8.90356e-18)
(-0.0098005 4.90503 0)
(2.95756 -0.627563 -7.09801e-17)
(4.61093 2.28999 -9.29172e-18)
(0.336569 0.0298793 0)
(-1.60307 -0.22106 -6.00641e-19)
(0.131322 1.84705 1.43523e-16)
(0.159124 0.00351516 -7.73122e-16)
(3.52739 -0.0314918 0)
(-0.265239 -0.880441 -2.89167e-16)
(-0.31945 -0.118133 3.90816e-16)
(0.03898 5.88294 1.2753e-17)
(-0.0239929 5.87718 0)
(1.26186 7.42119 7.04175e-18)
(0.217967 3.0934 2.8342e-16)
(4.04054 0.0519795 0)
(0.17437 -0.415168 -6.69037e-16)
(-0.275645 2.86976 -2.6275e-16)
(-0.219485 -0.175065 4.62238e-16)
(-0.341944 7.3485 -7.85486e-17)
(1.88045 1.34902 -8.33535e-19)
(-1.61656 -0.352327 6.64543e-17)
(-1.67704 0.149213 0)
(0.327156 -0.0838946 -2.57685e-16)
(0.744416 -0.0781385 0)
(-0.0773691 -0.0817217 0)
(-0.249226 -0.344669 -2.42827e-17)
(2.50554 0.0103222 7.00353e-17)
(0.533802 0.100862 2.40742e-16)
(-1.7307 -0.210419 1.53314e-16)
(-0.922003 -0.566719 0)
(0.261554 0.00495308 1.90368e-16)
(0.0893192 -0.162388 0)
(1.3411 -0.449796 4.69895e-16)
(0.270068 -0.480894 -3.09752e-16)
(0.381559 0.185231 5.19436e-16)
(3.32176 -0.261496 3.33983e-16)
(-2.20011 0.0462456 -8.47777e-17)
(0.553696 0.259193 -1.17137e-16)
(3.04095 0.151748 8.7885e-17)
(-2.03774 0.562586 0)
(-0.459014 -0.297918 -3.53884e-16)
(-0.175314 -0.226565 1.75754e-16)
(0.410336 0.0422195 0)
(9.17108 -0.233189 3.15626e-17)
(0.301156 -0.073625 2.06052e-16)
(0.166224 -0.0732562 0)
(0.143375 6.46494 0)
(4.04018 -0.0557579 7.19422e-17)
(-0.123383 -0.329642 0)
(0.24677 3.31353 1.7857e-16)
(-0.0273195 6.43704 -6.75813e-17)
(-0.569671 -0.123018 -2.01039e-16)
(0.214232 2.31583 -2.83003e-16)
(0.4163 0.0768635 3.38898e-16)
(0.0756393 -0.364861 1.73573e-16)
(-0.413285 -0.183351 2.52733e-16)
(0.117491 -0.314988 8.14417e-17)
(-0.000533267 6.27672 1.10916e-20)
(0.901992 -0.0905149 -2.22682e-16)
(-0.104714 6.40744 -3.25161e-17)
(0.165703 -0.202102 -4.00849e-16)
(10.1733 0.347942 -2.10593e-18)
(2.83098 3.24865 5.70799e-17)
(6.32862 1.0844 -4.72345e-18)
(0.519869 -0.217511 3.02965e-17)
(8.41846 2.14482 -2.63343e-18)
(-0.26633 2.63734 1.54009e-16)
(0.937303 -0.142682 -1.97964e-16)
(0.393428 -0.27557 1.35359e-17)
(0.898541 -0.0129535 -4.93321e-17)
(-0.102065 4.29792 -1.41082e-16)
(-0.277984 5.90312 4.26831e-16)
(1.6778 0.911911 7.93257e-18)
(0.0887126 -0.202011 2.63021e-16)
(3.39042 2.00509 2.10917e-17)
(8.6238 1.2466 -5.67724e-18)
(0.167143 2.85395 0)
(0.00322806 6.26231 -3.07803e-17)
(9.20097 0.0660001 3.48909e-18)
(2.37895 2.17305 -1.00328e-17)
(10.3605 0.172416 0)
(0.414092 0.131527 0)
(0.729639 6.25385 -1.06913e-16)
(0.50253 2.98536 -2.41221e-16)
(0.665132 5.14726 -2.57574e-17)
(0.0497687 0.0711439 -5.0545e-16)
(0.300234 -0.0888164 0)
(0.800793 1.9532 6.90879e-18)
(10.0638 2.78871 -2.36731e-18)
(0.936327 6.37634 7.54891e-17)
(0.022928 4.25311 0)
(0.928486 3.57819 -1.05137e-17)
(2.93676 2.61269 -3.76644e-18)
(0.0572663 6.43122 4.81722e-17)
(10.5435 -0.201703 2.08118e-17)
(-0.0419954 6.51912 -5.40221e-17)
(-0.00601725 6.36552 -3.02425e-17)
(-0.0161681 6.46157 -4.64859e-17)
(1.05429 6.49967 0)
(0.524684 -0.0739633 0)
(3.35559 4.02679 -5.35558e-17)
(4.67288 2.94256 0)
(1.09548 5.46722 -1.56081e-16)
(1.00421 -0.0167773 3.68718e-16)
(1.91316 0.148256 0)
(1.36702 1.89147 -1.90028e-19)
(0.853842 -0.179927 -1.17795e-16)
(1.41218 8.56021 -3.65251e-17)
(0.114632 -0.0255373 1.17803e-16)
(-0.253945 2.61704 -4.70115e-17)
(-0.00435961 6.52152 3.56558e-18)
(-0.0181863 5.77157 8.69751e-17)
(0.961914 0.0973277 2.85307e-16)
(8.88737 0.502041 -1.08909e-18)
(0.883389 1.27773 -1.69792e-16)
(-1.13529 0.135937 2.92695e-16)
(0.914671 -0.110225 0)
(-0.0418738 5.93566 2.74746e-17)
(0.165324 5.85328 3.16948e-17)
(10.3836 0.965928 0)
(-1.27916 0.0277983 5.32682e-16)
(-0.0153986 6.45666 1.42323e-16)
(1.22121 5.62616 -4.04652e-17)
(0.704165 2.25419 -5.20682e-17)
(1.1856 8.37267 2.44754e-16)
(-0.179864 6.88059 2.24406e-16)
(0.866848 1.6991 0)
(3.2954 0.839622 2.15339e-16)
(0.602452 -0.267748 0)
(-0.174252 6.1674 -1.26605e-16)
(8.95176 1.1948 1.82139e-18)
(2.30985 7.09508 -2.97763e-17)
(3.971 2.12088 2.04168e-17)
(-0.0594713 6.55871 1.57975e-16)
(0.799145 8.68917 4.21887e-17)
(2.27202 0.0914939 2.72307e-17)
(0.0507321 6.45837 3.82767e-21)
(-0.0316093 5.81726 -3.54852e-18)
(-0.0221286 6.4704 6.41438e-17)
(-0.0482971 6.47478 -3.22406e-17)
(7.38438 1.65529 6.30126e-18)
(-0.0404239 6.03619 0)
(0.271536 5.73285 -3.90477e-17)
(0.0286927 6.56747 0)
(1.07239 1.30611 2.93278e-17)
(0.632771 0.201786 8.51323e-17)
(1.25671 3.45105 1.14114e-17)
(8.85596 0.807896 -7.27676e-19)
(0.102847 6.35363 0)
(0.0802047 6.30487 2.39089e-17)
(-0.62918 -0.970354 5.94861e-16)
(0.139261 6.00576 2.42434e-16)
(1.21186 8.89838 0)
(-0.249092 6.62636 -2.80338e-16)
(0.167068 -0.223929 1.98413e-16)
(0.699082 0.107893 0)
(9.91462 0.298605 -2.09655e-19)
(0.529406 -0.327266 2.93123e-18)
(0.90317 -0.0993323 -1.89238e-17)
(-0.00828709 6.49997 4.14268e-17)
(-0.55612 7.80071 -4.52776e-17)
(0.561469 -0.384623 9.99224e-22)
(9.15922 1.67428 -4.32787e-18)
(6.11713 2.65352 2.52257e-17)
(0.0171503 6.39729 -4.67463e-17)
(0.018676 2.78641 1.21664e-16)
(9.25446 -0.134108 -1.98839e-17)
(0.761904 2.14797 0)
(0.359526 0.0155525 1.02068e-16)
(-0.168346 5.49285 2.76647e-17)
(1.44831 7.24195 -5.78194e-17)
(-0.226682 6.05623 -1.24084e-16)
(1.05424 5.47207 0)
(0.961294 9.60654 6.26631e-17)
(-1.11102 0.152175 0)
(0.731541 2.21734 -5.60761e-17)
(-0.0360294 6.27803 5.67984e-17)
(1.61278 1.47809 -1.26022e-17)
(0.960563 0.826361 6.40159e-17)
(9.03226 1.75346 0)
(-0.0197589 6.28922 2.84279e-20)
(9.46724 1.25133 -5.29029e-17)
(1.18161 6.57367 2.37853e-17)
(-0.000168414 4.14173 9.91055e-21)
(-0.0370582 4.54443 -7.124e-17)
(0.127855 3.44263 0)
(-0.518126 5.38749 1.52996e-16)
(0.0092382 6.31307 8.79235e-17)
(0.531966 1.82342 2.23783e-16)
(0.959142 0.640586 0)
(5.13148 1.73263 0)
(-0.518812 7.88531 1.12649e-16)
(5.3153 2.49199 -3.03664e-17)
(11.0469 0.475976 0)
(1.92326 2.1653 -2.55836e-17)
(0.652414 0.112868 -2.37468e-16)
(-0.33139 6.79165 1.25209e-16)
(4.13661 2.76131 -2.37497e-17)
(-0.0698606 2.60115 -5.14028e-17)
(0.743825 8.26078 -1.37726e-16)
(-0.0469912 6.6037 -3.72181e-17)
(2.11839 5.07259 0)
(0.0722314 4.22626 0)
(-0.581701 1.29862 1.97506e-16)
(0.0310822 4.09881 8.32123e-18)
(0.300414 2.85651 -1.69464e-16)
(-0.661851 -0.045157 -2.21012e-16)
(1.31487 1.17445 -3.78007e-18)
(-0.218619 1.95493 6.7885e-17)
(0.262567 5.14463 -4.69969e-17)
(0.622272 -0.377166 -6.84637e-17)
(2.25343 2.65931 1.72991e-17)
(-0.039557 6.27158 -2.66052e-16)
(-0.572574 7.30955 -2.17635e-16)
(2.83481 1.86004 -1.56142e-17)
(3.80482 4.98849 1.82438e-16)
(0.30335 0.0899086 0)
(0.127273 0.0717639 -1.03976e-16)
(0.175484 0.794105 0)
(-0.125947 6.87031 -2.26893e-16)
(4.42352 3.395 0)
(1.02553 5.24684 -6.81189e-19)
(1.2042 0.865818 1.6924e-17)
(0.515675 -0.222465 -2.34872e-17)
(6.51751 5.74913 1.10498e-18)
(2.06875 3.09762 1.67301e-17)
(3.87271 3.66392 0)
(-0.636278 -0.244683 0)
(-0.0376115 2.05825 0)
(1.01766 5.74654 2.93936e-16)
(-0.194051 -0.195746 -2.59439e-16)
(-1.02529 -0.114765 0)
(-0.377147 7.27966 2.51209e-16)
(2.67768 0.489991 2.74455e-17)
(0.917375 -0.143965 8.89832e-17)
(0.279263 4.21932 1.97052e-16)
(0.639631 -0.453452 1.75133e-16)
(-0.303067 7.15975 -2.51512e-16)
(-0.503825 -0.204737 -3.35537e-16)
(0.56139 0.0544673 -2.10886e-17)
(-0.183486 1.92787 -3.06434e-17)
(-0.443803 7.45871 0)
(6.66292 1.77923 4.53786e-18)
(1.02534 6.00003 -1.41814e-16)
(0.442077 1.58157 0)
(-0.470217 -0.0477481 0)
(-0.148464 1.87286 2.44548e-17)
(3.3329 6.31249 6.94202e-17)
(-0.432926 7.6708 0)
(-0.0343286 6.62801 1.29255e-16)
(-0.0434768 6.15979 0)
(1.64098 1.80607 1.71813e-17)
(9.71791 0.803788 4.97989e-17)
(3.19788 5.37108 -1.27813e-16)
(-0.182324 2.47602 0)
(0.774855 6.05888 1.55678e-16)
(-0.112051 -0.946667 -3.52062e-16)
(0.0352923 2.13051 1.73553e-16)
(2.1474 4.11552 -5.70645e-19)
(0.102933 -1.3293 2.70502e-16)
(0.615853 1.83097 -1.61297e-16)
(7.9605 2.49155 1.64234e-18)
(-0.929418 0.693747 -7.08064e-17)
(9.96221 -0.0155161 -2.32461e-20)
(-0.495386 8.20322 -1.44718e-19)
(-0.308566 0.0191468 -4.17049e-16)
(-0.0271447 4.33732 -2.99496e-17)
(0.114049 4.20054 -6.4742e-17)
(1.09308 0.878199 4.01015e-18)
(0.729942 -0.118605 -4.14686e-17)
(7.04676 6.3241 1.36368e-17)
(-0.16139 6.91281 1.24011e-16)
(11.2739 3.95551 -4.44604e-19)
(-0.259191 7.00408 3.0516e-17)
(0.471589 6.68936 1.12212e-17)
(1.23464 8.95759 -8.32168e-17)
(-0.97787 -0.738109 -1.85875e-16)
(9.36674 0.386401 8.06914e-17)
(1.102 2.95896 0)
(-0.429531 7.75818 6.51624e-17)
(6.98346 1.30551 -1.00888e-18)
(2.482 3.7344 -1.68983e-17)
(0.529311 0.354974 -7.7043e-17)
(-0.0501436 0.760702 0)
(7.12546 1.98986 -2.01509e-18)
(-0.349542 3.24733 2.99823e-16)
(0.99398 6.23772 7.20061e-17)
(0.463689 1.31801 0)
(0.181284 -0.935517 1.516e-16)
(9.98841 5.45173 -1.10791e-17)
(0.0859841 6.63669 3.42945e-17)
(0.724975 3.95342 -4.1854e-16)
(0.0211557 6.27915 1.95504e-18)
(0.999644 5.81558 0)
(0.979931 3.13893 -2.21697e-17)
(0.755395 0.378759 1.59979e-16)
(0.532983 4.07102 -1.20949e-16)
(0.461557 4.06249 1.31772e-16)
(0.701511 -0.326606 2.32134e-16)
(6.95887 2.58995 -3.24058e-18)
(0.0911518 2.38221 -5.94568e-20)
(-0.309693 4.54096 1.82464e-19)
(-0.319171 4.79199 -8.3926e-17)
(-0.255682 7.07258 -2.52022e-16)
(0.385486 6.46997 -3.62594e-17)
(2.39045 4.8451 -6.80886e-17)
(-0.406308 7.74427 1.92209e-17)
(5.31222 3.28842 8.60995e-17)
(-0.536331 7.70323 -1.91326e-17)
(0.20586 0.695845 -7.95499e-17)
(-0.241348 4.66095 -4.87885e-20)
(0.446158 6.39116 6.69359e-17)
(0.0708154 0.166258 1.04095e-16)
(0.749889 0.437547 4.17791e-17)
(-0.19439 4.62546 1.11909e-17)
(2.8753 4.50438 0)
(0.968136 5.4457 0)
(-0.147808 4.58758 5.48974e-18)
(-0.246581 1.61383 1.17951e-16)
(0.104884 6.29114 -1.28183e-17)
(-0.756727 -0.565236 2.01885e-16)
(1.53208 4.52354 -7.47705e-20)
(0.24276 0.495426 0)
(0.821979 6.20994 -1.33842e-16)
(-0.0968746 4.53626 0)
(-0.189159 5.50746 -6.50995e-17)
(-0.206841 1.97408 -3.5508e-16)
(0.576034 2.02438 -9.01849e-17)
(1.81796 4.37306 2.87733e-17)
(-0.0250379 4.46333 1.17186e-17)
(-0.0702431 -1.31688 3.54128e-16)
(-1.02857 0.557005 2.38864e-19)
(2.28396 -0.378819 9.6781e-17)
(0.0226589 -0.28175 -2.6096e-16)
(11.0812 1.66326 2.04813e-18)
(-0.312658 3.21397 1.10683e-16)
(-0.330341 3.45169 1.75522e-16)
(-0.387199 3.96449 -5.07284e-20)
(-0.334711 3.66991 0)
(-0.444151 4.23533 -9.96736e-17)
(-0.444456 4.00438 -7.86962e-17)
(-0.374574 3.47412 -7.99052e-17)
(-0.43611 4.39708 -1.45924e-16)
(-0.414196 3.5954 2.48358e-16)
(-0.426922 4.32424 6.41829e-17)
(0.382108 -1.84045 0)
(9.49509 0.135751 5.6248e-19)
(0.109736 -1.42474 -9.76745e-17)
(0.183254 -0.999125 2.88184e-16)
(-0.354665 -0.71051 -4.16829e-16)
(0.117734 -0.514793 1.26448e-18)
(0.208493 0.30679 0)
(0.539299 0.265215 -9.83879e-17)
(2.28202 0.81134 4.44476e-17)
(0.499765 0.358446 6.30418e-17)
(0.624808 0.538566 5.84744e-17)
(-0.0475813 -0.386792 -2.69374e-16)
(0.614797 0.0820402 -1.86487e-16)
(-0.199505 -1.12929 0)
(0.643512 0.0609347 -9.86997e-17)
(0.56986 0.100296 3.16009e-16)
(0.48205 0.0408396 8.90998e-17)
(7.21455 0.136037 -2.17317e-18)
(0.193583 -0.731567 0)
(0.619639 -0.814977 2.95434e-16)
(0.348322 0.206429 -1.20636e-16)
(0.068302 -0.370127 2.51328e-16)
(7.27554 -0.101685 -2.93436e-17)
(0.584726 0.0881316 -2.9538e-16)
(0.54374 -0.675767 -1.76027e-16)
(0.0810309 -0.4705 2.84911e-16)
(-0.207618 -1.56501 3.11837e-16)
(7.24951 -0.291803 1.17445e-19)
(-0.0298675 -0.477628 -2.60715e-16)
(7.42934 -0.397619 -2.52503e-17)
(0.529797 0.0718407 -7.82329e-16)
(0.484482 0.0313046 0)
(-0.409109 -1.67318 -2.00118e-18)
(0.721476 -0.223667 0)
(9.22377 -0.167547 3.42997e-17)
(9.89539 0.0832608 1.01779e-16)
(-0.186675 -0.513359 1.4237e-16)
(-0.00768383 -0.264249 -1.36033e-16)
(-0.0491765 -0.140659 7.11659e-16)
(0.508722 0.043025 0)
(0.191917 -0.291545 0)
(-0.183675 0.180014 0)
(8.98856 -0.131894 2.35106e-17)
(0.459245 0.0900693 2.54034e-16)
(-0.946638 0.0219748 1.70179e-17)
(0.8463 -0.38932 2.33286e-16)
(-0.297585 -0.905583 0)
(-0.625378 -0.32357 0)
(0.286897 -0.825217 2.28612e-17)
(-0.142859 -0.138662 1.71621e-16)
(8.36317 -0.126072 -6.8019e-17)
(0.451833 0.0336024 2.44466e-16)
(0.170306 -0.638565 1.80854e-16)
(-0.0396523 0.121343 2.97182e-16)
(1.39487 -0.486249 -2.82716e-16)
(-0.48704 -0.157702 -1.82664e-16)
(-0.00139385 -0.490686 1.61959e-16)
(8.19258 0.104045 1.51826e-17)
(0.372727 0.0510233 -3.0788e-16)
(-0.715269 1.54675 -4.37168e-16)
(-0.215621 0.648721 1.34616e-16)
(0.0705803 0.555601 -3.63396e-16)
(-0.362598 1.26045 8.43722e-16)
(-0.162346 0.132391 -1.977e-16)
(8.41189 0.446917 -3.17619e-17)
(9.83102 0.359093 -8.23487e-17)
(-0.00816117 -1.35398 -2.95063e-16)
(0.396901 0.273101 2.35221e-16)
(0.264887 0.262813 2.11344e-16)
(-0.43147 1.27127 0)
(0.0622726 0.243653 2.19423e-16)
(0.686465 -0.921781 2.86853e-16)
(-0.214939 0.692309 0)
(0.154457 -0.435311 0)
(-0.327783 -0.139481 2.10153e-16)
(0.520542 -0.0530505 -2.22979e-16)
(-0.251311 0.545247 -6.86276e-17)
(-0.0464446 0.403078 1.22516e-16)
(-0.46271 -1.33728 1.68368e-16)
(9.52825 0.566688 -2.57358e-17)
(0.607541 2.40017 0)
(0.286287 0.600226 -3.69179e-16)
(0.0779864 1.81584 -1.74085e-16)
(0.785107 -0.261115 -9.13549e-17)
(-0.03613 0.805105 -8.80003e-17)
(0.613106 -0.414086 -1.19868e-16)
(8.74928 0.94527 5.30287e-17)
(0.00565794 6.09855 -3.38441e-19)
(0.682449 -1.69725 0)
(-0.00206454 -0.0896085 2.81552e-17)
(1.65654 2.19796 1.12319e-16)
(0.259077 1.53726 -2.17561e-16)
(-0.0744812 1.29613 0)
(-0.342077 -0.408965 0)
(-0.470925 4.90285 0)
(0.146376 -0.033819 3.72487e-16)
(0.374617 1.02544 2.48029e-18)
(0.48523 5.29701 2.56928e-17)
(-0.131133 0.879984 5.44639e-17)
(1.37113 -1.08232 2.11307e-16)
(-0.271499 3.87315 1.18586e-16)
(-0.133462 0.411575 -3.10653e-16)
(-0.331656 6.71021 -4.72492e-17)
(0.323878 1.09903 4.08507e-16)
(-0.192274 2.91522 3.4004e-16)
(0.243952 0.681477 5.85367e-17)
(0.959777 2.4692 -6.28156e-18)
(0.835737 6.99704 -4.36629e-17)
(-0.288702 4.18226 0)
(-0.503054 5.35424 0)
(0.961934 4.13734 1.81108e-16)
(-0.152629 0.247072 3.69594e-16)
(-0.367173 7.67872 0)
(0.20007 4.63217 -2.59085e-16)
(-0.140159 -0.237733 -4.24576e-16)
(-0.387466 0.878138 -6.06542e-16)
(0.624997 -0.403933 1.99015e-17)
(-0.188516 0.764424 -1.30977e-16)
(0.548792 6.13211 3.11179e-18)
(2.68768 7.37186 0)
(-0.482801 5.25513 2.8035e-17)
(9.43652 1.51346 -4.87918e-18)
(4.46697 4.54674 5.281e-17)
(-0.156309 1.93558 0)
(5.4512 8.07981 0)
(-0.117851 1.45104 7.2075e-17)
(0.614028 1.80317 0)
(0.481937 -0.298021 -1.35273e-17)
(-0.25064 1.29712 -8.25505e-17)
(-0.503945 7.49125 1.17631e-16)
(-0.0722031 3.7924 -2.52459e-17)
(4.05243 7.12493 -2.94399e-17)
(-0.410459 3.45055 -4.78585e-17)
(0.419479 0.716762 -1.07305e-16)
(-0.0311907 0.983019 9.09484e-17)
(1.03086 6.02385 3.74142e-17)
(0.65443 -0.281579 1.61286e-16)
(-0.0860167 4.02725 0)
(-0.35568 2.72643 1.01708e-17)
(-0.244154 2.95654 -2.2675e-19)
(-0.136378 3.81879 0)
(2.20756 7.50921 2.2137e-18)
(1.05506 4.3308 1.50408e-16)
(1.5703 5.13539 -9.74835e-17)
(1.93952 5.05845 1.33962e-16)
(-0.0373223 6.42359 -5.9049e-21)
(0.033007 6.50538 -1.10459e-16)
(0.416085 1.5802 -5.18676e-16)
(-0.110016 0.897657 0)
(0.478086 1.01539 1.12666e-16)
(-0.307956 1.93964 -2.4533e-17)
(-0.515817 5.14138 2.93382e-17)
(0.477676 2.38144 -1.98522e-19)
(0.773426 2.79141 -1.12167e-16)
(-0.265608 6.17448 -6.31845e-20)
(-0.376669 4.31186 0)
(-0.578488 -1.1167 -1.78624e-16)
(0.823286 4.2205 3.37656e-16)
(3.58565 2.78063 0)
(9.00498 0.269101 2.09627e-18)
(1.21643 8.42277 2.70383e-17)
(-0.13283 1.36679 6.40287e-18)
(0.0210972 5.17773 3.46718e-17)
(0.197879 1.29507 0)
(1.77008 6.49702 9.31548e-17)
(1.21968 6.02183 -1.82393e-16)
(2.64813 12.3603 4.7836e-18)
(2.51423 5.68031 4.86414e-17)
(1.0104 0.198507 -5.62075e-17)
(0.466275 -0.635842 -2.67944e-16)
(0.622922 -0.363925 8.03476e-17)
(-0.191745 1.44841 -8.3769e-17)
(0.367372 3.86223 2.19067e-16)
(-0.36384 2.67089 -1.31077e-17)
(-0.0166075 5.59491 -5.59552e-17)
(-0.414221 7.34177 1.24798e-16)
(11.1364 0.102466 -9.88529e-18)
(0.527658 -0.0843986 -4.97653e-17)
(-0.184269 0.980805 -1.00638e-16)
(0.749887 5.0561 -1.95442e-17)
(2.31676 1.61379 -1.15452e-17)
(1.71448 2.61481 -2.13844e-16)
(0.0108838 1.05641 -9.01175e-17)
(0.367668 4.50847 1.26743e-16)
(-0.203351 1.88621 7.49645e-17)
(0.927408 6.54307 -6.56014e-17)
(-0.427691 4.97903 -1.39417e-16)
(0.11412 0.693233 0)
(2.48637 6.58417 -4.85057e-17)
(0.642064 1.04291 0)
(-0.234065 2.13435 8.98797e-17)
(0.239949 1.95629 0)
(0.023554 0.0247253 5.31326e-16)
(-0.406463 3.31357 -1.43549e-16)
(-0.0230557 3.75755 3.04394e-17)
(1.49607 5.75429 7.42365e-17)
(5.01645 -0.00776061 -5.89955e-17)
(0.91456 0.603887 1.4422e-16)
(-0.0999485 4.5506 -1.50783e-16)
(1.22423 1.8177 6.78095e-17)
(-0.329187 7.20781 -1.24849e-16)
(5.01364 3.99232 -1.67887e-16)
(0.792686 0.258073 6.84051e-17)
(0.090496 5.01426 0)
(-0.302167 5.07039 -2.77671e-17)
(-0.225201 1.65796 6.12123e-17)
(1.28617 6.2802 -1.82587e-17)
(1.06013 5.65182 1.07426e-16)
(0.324866 -0.416674 1.48627e-16)
(1.86159 3.50721 1.55409e-17)
(-0.25612 1.20315 1.06814e-16)
(-0.559355 6.77262 -4.48714e-18)
(0.0214723 4.03433 1.26881e-16)
(1.93602 5.79795 -8.64599e-17)
(0.392744 -0.802869 6.32356e-17)
(1.12926 5.8601 -6.37711e-17)
(-0.00458961 5.98643 -1.40468e-16)
(1.34896 7.03327 -4.37384e-17)
(0.0802049 0.48815 0)
(9.35951 0.623609 -1.27479e-16)
(7.73238 2.37958 8.58124e-18)
(-0.371458 5.08265 9.06242e-17)
(-0.0996608 1.51762 4.57902e-16)
(-0.130436 2.53649 2.59555e-17)
(-0.18576 0.91084 0)
(1.98731 0.121321 -1.58867e-16)
(-1.10684 1.0258 5.80656e-17)
(-0.0276323 0.145697 -2.63026e-16)
(0.343801 2.47593 1.37602e-19)
(-0.335078 -0.639894 -1.59796e-17)
(0.0595297 4.38722 4.19583e-17)
(2.11001 1.08801 -7.17956e-18)
(9.53868 0.48063 0)
(-0.430899 4.31374 0)
(-0.2384 1.11082 -5.21206e-17)
(0.20005 -0.703382 2.27717e-16)
(10.1313 0.543242 0)
(-0.0088106 -0.113323 5.4391e-19)
(1.10927 5.8242 -2.5708e-16)
(1.13408 1.12778 0)
(1.35054 1.50789 0)
(0.649043 1.58725 -1.18578e-16)
(1.62739 3.77752 1.69597e-17)
(8.94133 0.422617 0)
(0.0488887 -0.206995 2.12489e-16)
(1.43659 -0.575494 -1.32432e-16)
(-0.307727 2.0091 0)
(0.0089827 4.66681 0)
(-0.104547 -1.58623 1.63854e-16)
(0.843067 0.229077 -7.76838e-18)
(0.030906 1.64883 1.32296e-16)
(-0.167323 2.88163 -2.35699e-16)
(-0.178649 6.70844 4.56851e-17)
(0.53215 0.180001 0)
(0.104058 0.0971445 0)
(-0.510392 4.6599 -1.0595e-16)
(3.52647 0.446178 -2.52983e-18)
(1.18629 2.99673 -1.91701e-16)
(-0.0321349 0.0666597 2.12347e-17)
(4.13954 6.04423 -3.01059e-18)
(2.23868 0.372964 0)
(1.31329 5.10923 0)
(-0.189877 3.81903 -5.48083e-18)
(0.289719 0.136717 0)
(-0.172784 4.77283 0)
(10.986 0.619688 -1.31032e-18)
(0.0777691 4.1122 -2.52592e-16)
(2.8486 0.410849 0)
(1.23234 2.75796 -3.08409e-18)
(0.101444 6.40746 2.1667e-17)
(-0.102119 5.60326 6.50552e-17)
(0.560171 1.51508 -1.83285e-16)
(0.663784 6.3785 -3.37349e-18)
(-0.256745 6.79617 2.66096e-17)
(-0.415347 -0.176876 6.19632e-21)
(-0.36525 6.50388 -2.58759e-16)
(-0.247537 1.42614 -3.76654e-19)
(-0.284309 2.42608 2.00967e-16)
(0.948809 0.491336 -2.91351e-16)
(-0.172784 6.2419 1.33642e-16)
(-0.49234 6.51251 0)
(0.00543256 6.56224 1.75419e-18)
(10.0408 0.2093 -7.26003e-18)
(-0.199429 3.10734 0)
(-0.668152 0.0438963 5.26707e-16)
(1.77837 0.635076 1.56528e-17)
(-0.0454684 3.17011 0)
(-0.169683 1.47215 3.11476e-16)
(1.84302 7.73986 0)
(1.81308 8.5693 2.63884e-17)
(0.0691527 -0.287132 0)
(3.75121 1.49086 1.43173e-17)
(-0.0127537 1.25253 -2.40679e-16)
(0.899439 0.472492 -1.15613e-16)
(0.627382 0.780977 -2.12114e-17)
(-0.348894 2.38213 1.97919e-16)
(-0.147416 6.67681 -4.25739e-17)
(4.23639 0.481685 8.90508e-18)
(8.4922 0.362468 0)
(0.649584 -0.329097 -2.3029e-17)
(0.00949115 4.97106 0)
(-0.0299912 6.01487 0)
(0.999869 0.746901 -1.32441e-16)
(1.35118 4.77578 0)
(-0.273268 2.50616 0)
(0.923743 5.73425 -2.96759e-17)
(1.64362 -0.0880906 0)
(-0.150884 -1.36026 1.69779e-16)
(0.110679 5.61913 5.14386e-17)
(0.46051 0.056529 2.63181e-16)
(-0.229119 0.939118 1.20528e-16)
(0.960641 1.46636 1.52314e-17)
(1.00703 0.570959 -6.01251e-17)
(0.507828 0.0665334 -4.56553e-16)
(12.5339 2.71222 0)
(0.223194 5.66116 0)
(-0.379867 7.51874 -1.25555e-16)
(0.281955 0.657612 -3.49598e-19)
(0.309315 6.36116 1.02562e-17)
(0.614921 1.00052 2.17498e-17)
(9.54856 2.23379 2.93063e-18)
(1.80948 1.25761 4.83747e-17)
(-0.483699 2.12089 -7.12421e-17)
(0.570917 0.0568705 4.40837e-16)
(-0.370947 -0.140426 -3.12071e-16)
(-0.0400272 5.88887 0)
(0.543628 0.0858584 4.99735e-16)
(0.513818 0.110006 -2.66774e-16)
(-0.054739 5.26295 -2.25939e-17)
(0.814795 0.876877 -1.6161e-17)
(-0.167748 1.11698 -3.52045e-16)
(-0.0224904 5.85646 -5.34148e-18)
(0.337065 5.93418 1.49908e-16)
(-0.236554 6.71263 6.92897e-17)
(-0.321008 7.15768 0)
(0.677326 2.79951 7.37712e-17)
(-0.162437 0.0145899 8.05523e-17)
(-0.00697963 1.55925 0)
(-0.318097 6.08478 -1.1291e-16)
(0.12977 1.60614 -5.60619e-16)
(1.32128 4.58973 0)
(-0.381036 -0.187079 -1.70795e-16)
(-0.147155 3.14908 0)
(-0.249224 -0.409039 -8.04652e-20)
(1.2283 0.280822 -3.59899e-18)
(9.24311 2.32897 1.63006e-18)
(1.35675 5.70462 0)
(0.721319 3.37889 1.4075e-16)
(0.00884819 6.25351 -9.38661e-17)
(0.885182 3.35417 0)
(0.545084 -0.470308 -1.21972e-16)
(-0.522737 1.25725 -1.3058e-16)
(-0.0199606 6.0299 -9.0028e-17)
(-0.338455 5.58268 8.18006e-17)
(-0.00984102 5.84471 2.01988e-16)
(-0.117858 0.0414337 -4.38323e-17)
(0.757589 -0.280536 0)
(0.104775 5.90257 0)
(0.599703 -0.368039 3.70745e-17)
(-0.262775 2.56347 1.1844e-16)
(-0.00478423 6.25186 -3.27657e-17)
(0.487167 -0.0547442 1.23476e-16)
(0.0832201 0.39886 -2.51343e-16)
(-0.262211 2.74311 0)
(-0.316081 2.69212 7.73925e-17)
(9.94477 7.83799 -1.27202e-18)
(0.00472305 5.74172 2.7598e-17)
(0.165431 6.58837 -1.10719e-17)
(-0.0563251 1.50424 -7.71672e-17)
(1.1613 6.07294 1.46901e-16)
(4.73936 2.24122 2.29028e-18)
(0.162071 0.0476232 -1.75346e-16)
(1.15372 2.04263 0)
(10.2034 0.703205 2.25141e-18)
(-0.567738 6.99153 4.32939e-17)
(7.09125 0.418912 1.09222e-18)
(-0.296865 1.87409 -9.35676e-17)
(-0.266579 -1.59285 -1.47493e-16)
(-0.514613 5.10212 -1.96278e-16)
(-0.0968189 6.13966 5.81561e-19)
(0.889092 0.10381 4.03181e-16)
(1.08789 5.19625 -1.18946e-16)
(0.0471356 2.99408 -2.68601e-16)
(-0.407557 4.09418 2.51484e-19)
(1.70083 0.331884 1.35631e-17)
(0.0331499 4.98031 -5.09584e-17)
(-0.508548 7.59459 2.26092e-17)
(0.20877 6.47107 -2.09432e-18)
(-1.07481 -1.04681 0)
(0.356085 -0.0505097 0)
(-0.475837 4.71383 -5.43982e-17)
(5.00831 0.50901 1.9609e-18)
(8.08535 0.246383 -1.41602e-17)
(0.0110638 6.1563 1.32906e-16)
(1.42358 3.24924 -2.26122e-17)
(2.64154 -0.120685 6.29273e-17)
(3.68394 0.313128 9.02329e-18)
(-0.462641 4.71859 3.99286e-17)
(-0.235583 3.78917 -8.6604e-17)
(0.522404 1.30458 3.81521e-16)
(-0.233202 3.00684 -8.08107e-17)
(0.140197 -0.0330594 0)
(0.0250315 -0.246871 -1.2581e-16)
(-0.0225778 4.20103 -9.5213e-17)
(0.227883 3.97115 0)
(8.04195 1.48326 -7.68201e-18)
(-0.361806 -0.213135 9.72572e-17)
(4.98183 0.274127 0)
(0.0659395 1.62897 0)
(6.21269 3.70293 -2.25618e-17)
(-0.227007 7.05424 1.38073e-17)
(0.305091 6.52975 -5.85036e-18)
(-0.203832 1.44892 0)
(0.563613 1.36971 6.67438e-17)
(1.693 -0.192154 7.09833e-16)
(0.108887 -0.15178 -6.87377e-16)
(0.55659 0.292374 -5.25887e-17)
(1.83827 2.13423 6.63664e-17)
(0.558493 -0.61762 2.37868e-16)
(-0.175327 -0.219899 0)
(0.606704 1.64274 -6.3427e-17)
(1.41102 3.96614 -1.38363e-18)
(1.40808 4.24691 6.95576e-17)
(0.866918 2.6441 -2.32789e-17)
(-0.296878 2.50469 0)
(-0.0908935 6.19944 6.76448e-17)
(-0.33071 2.40381 6.55417e-17)
(0.433398 0.0694906 0)
(9.83323 0.511382 1.15174e-16)
(0.0190696 5.94044 0)
(-0.418086 3.908 0)
(3.81075 5.37443 -2.52966e-18)
(-0.383663 6.33153 1.36991e-16)
(0.168183 4.40956 1.36016e-16)
(2.72683 -0.0135632 -2.04984e-16)
(0.350531 -1.0203 2.18281e-16)
(0.322958 0.0642419 2.85444e-16)
(-0.231846 5.01393 0)
(0.0261999 6.50395 -1.16193e-20)
(-0.0883501 4.46639 -1.66066e-16)
(6.89379 -0.515191 -6.37324e-17)
(0.859573 -0.183819 6.28169e-17)
(-0.216879 6.32897 2.50194e-16)
(-0.255257 0.383654 -1.15807e-16)
(2.61084 2.76543 1.32315e-17)
(5.66662 -0.53754 3.87338e-17)
(3.00059 0.0290085 -5.86532e-17)
(0.138444 8.78237 8.45297e-17)
(0.0744267 4.8665 3.56831e-19)
(0.07357 4.79731 8.81137e-17)
(0.0160801 4.638 8.0294e-19)
(0.0494049 4.70953 0)
(0.123 9.55086 -7.47043e-17)
(0.0665058 4.85701 -1.68234e-16)
(-0.00521307 4.62871 -8.26895e-19)
(-0.0248153 4.84504 -2.18109e-17)
(-0.0336053 4.65141 0)
(0.0419834 4.74177 4.71193e-17)
(0.158246 8.20648 0)
(0.236436 10.3273 0)
(0.0572547 4.93382 -6.23998e-17)
(0.29691 7.06825 -4.20938e-18)
(0.228213 7.66441 -3.93232e-18)
(0.0560169 5.03851 1.98881e-17)
(0.0444649 4.76503 8.79971e-17)
(0.0249433 4.71018 0)
(0.031567 5.05159 -2.75535e-17)
(0.023878 4.68739 0)
(0.0314399 4.73007 0)
(-0.00132148 5.01207 2.05263e-17)
(0.0401269 4.78877 0)
(-0.312476 2.09936 7.11456e-17)
(5.28032 5.44908 -4.67936e-17)
(0.0516651 -0.365995 2.81043e-16)
(-0.182837 0.328062 0)
(1.25095 5.62338 -9.96327e-17)
(-1.24562 -0.169679 9.82306e-17)
(-0.361311 0.55693 5.25952e-16)
(7.07003 1.33301 -1.59068e-17)
(-0.237109 6.92949 -1.73836e-17)
(0.656575 6.97898 0)
(-0.964377 0.124531 4.93155e-16)
(1.74307 -0.133721 2.70807e-16)
(0.544546 0.586396 0)
(4.92036 -0.262665 3.01056e-17)
(0.338668 -0.697617 -2.54852e-16)
(0.0552056 0.283376 -1.84085e-16)
(6.03171 4.5549 7.89747e-17)
(1.48322 3.80114 -4.72661e-17)
(-0.363483 2.6434 6.73699e-17)
(0.958558 0.841804 -4.99717e-17)
(0.109605 -0.0950453 -1.22412e-16)
(6.98777 0.797039 -2.71154e-19)
(-2.11217 0.571281 -2.56239e-16)
(0.0393574 4.86258 0)
(0.74479 5.74903 2.6083e-16)
(1.11719 3.62789 9.1088e-20)
(0.811313 -0.0168938 7.14558e-17)
(0.154547 0.447954 0)
(10.1972 -0.0897279 2.71471e-17)
(-0.0309013 2.29912 -1.32259e-16)
(1.71132 0.0219299 3.74693e-18)
(-0.258493 1.96237 1.06743e-16)
(-0.355043 7.57407 0)
(-0.0988013 1.98881 7.20313e-18)
(-0.218219 2.36452 -5.16435e-17)
(8.56407 3.4855 2.00922e-17)
(0.069824 -0.549326 3.04677e-16)
(0.31715 -0.0106212 -3.28766e-16)
(-0.666996 -1.05132 1.91606e-16)
(0.430798 -0.185081 -7.6507e-17)
(-0.0871278 3.1875 2.63363e-17)
(-0.0981931 5.48413 1.97926e-21)
(0.162162 5.44481 -1.8747e-17)
(-0.28752 0.464477 0)
(0.605557 3.17442 2.12156e-19)
(-0.176358 0.362345 5.43788e-17)
(1.70909 0.22755 1.12281e-16)
(0.706465 -1.05497 0)
(-0.317561 0.408343 -3.38903e-16)
(0.0336801 1.09222 0)
(10.1425 0.503853 2.063e-18)
(-0.306708 3.56339 0)
(0.536223 3.56808 -4.9325e-17)
(-0.116663 2.05991 1.388e-16)
(-0.735539 -1.69689 2.48771e-16)
(1.66161 -0.22143 0)
(0.72014 0.0913325 -3.74016e-17)
(0.0333072 4.80126 3.67846e-19)