/*--------------------------------*- C++ -*----------------------------------*\
| =========                 |                                                 |
| \\      /  F ield         | OpenFOAM: The Open Source CFD Toolbox           |
|  \\    /   O peration     | Version:  v1912                                 |
|   \\  /    A nd           | Website:  www.openfoam.com                      |
|    \\/     M anipulation  |                                                 |
\*---------------------------------------------------------------------------*/
FoamFile
{
    version     2.0;
    format      ascii;
    class       volScalarField;
    location    "0.41";
    object      epsilon;
}
// * * * * * * * * * * * * * * * * * * * * * * * * * * * * * * * * * * * * * //

dimensions      [0 2 -3 0 0 0 0];


internalField   nonuniform List<scalar> 
1431
(
1.78828
3.24971
100.58
79.2136
1.21741
42.3922
10.6664
4.40683
35.0733
16.1056
1.62637
20.3052
5.8377
58.5796
45.5384
25.1755
60.2953
3.74935
17.4981
1.5408
0.968206
8.3527
50.7972
64.8893
54.1867
1.53282
63.4431
52.9784
21.6495
6.75564
46.9394
11.9846
30.9537
17.9853
16.5773
48.8371
1.68151
10.0935
26.0074
9.67716
141.736
3.77876
14.443
15.1835
34.1177
1.22547
41.0749
4.86964
17.45
16.1649
4.05687
16.1643
42.7457
17.049
13.2892
4.74273
21.4967
46.408
56.0859
0.785259
51.5251
1.15234
53.5514
9.8638
35.0514
5.31524
84.2997
55.8947
3.92504
12.5606
10.9982
15.1238
2.71542
33.03
14.8392
28.7901
1.2062
62.3153
5.78991
98.9168
8.14396
4.55559
7.93212
67.6098
122.635
1.1704
1.48802
18.6578
72.2976
1.35944
1.65763
29.702
1.34232
9.98197
5.5751
0.937519
13.2412
8.68997
1.18556
29.355
4.00018
5.50162
1.21027
1.57218
23.2804
5.11691
6.63724
153.531
60.3994
1.14747
121.41
5.62079
5.42773
1.07645
19.893
1.61098
3.18872
13.6562
81.4118
27.7259
8.77678
50.9484
21.2906
52.3952
9.35102
7.47006
93.0508
14.5399
1.42073
26.5538
4.53326
122.336
47.8719
1.14733
1.19969
48.7356
1.42949
6.05411
1.22421
134.105
13.0288
0.665094
9.86975
17.7812
19.8276
16.2923
8.77144
152.932
1.26177
14.1298
28.4251
38.3857
4.97061
11.235
1.42745
10.7452
9.02152
1.07663
5.03316
8.32849
4.46958
1.34385
1.23883
12.961
1.70073
181.418
1.05722
9.45118
5.08466
1.29926
32.7686
17.32
46.552
17.5205
9.36873
2.11948
9.55002
25.2186
7.52999
5.96919
10.7593
39.3187
5.01695
1.25422
14.1988
16.2312
6.26868
53.8507
1.59292
10.126
8.88917
91.098
0.971192
7.39118
39.3998
7.95515
6.32457
7.22635
1.60802
1.38723
3.6318
73.3824
11.8935
158.28
6.97846
83.3463
1.1217
10.0515
7.54624
22.8113
7.99587
5.38182
72.7695
9.72308
22.8968
49.6969
4.70958
8.13942
14.0543
10.0113
9.2398
79.7492
21.6327
158.168
11.0831
28.7133
25.4021
1.16779
18.6325
47.0405
1.4236
36.421
11.0722
4.52528
4.40142
4.83449
10.0993
1.44557
8.22091
4.43214
10.413
9.8951
17.757
77.7377
8.54276
8.06599
10.387
13.2585
19.4203
26.6462
8.80753
24.3513
12.2529
19.7684
50.3511
35.4427
6.07241
4.62628
29.9824
33.1217
37.3478
9.2937
1.42026
14.104
4.50432
18.061
27.9819
7.4126
16.2703
14.0174
6.8079
21.9359
8.68877
8.63194
39.6406
8.48396
1.16948
10.0033
5.26487
18.7473
50.2345
4.57548
4.31109
1.15477
30.8659
51.5901
1.30856
4.31956
22.6243
9.26696
17.8643
11.321
4.49217
6.58005
10.2331
5.45927
1.11945
7.3787
4.10489
7.14767
11.1545
25.6936
12.6694
6.20139
1.02723
3.83341
8.635
34.0473
31.5224
2.45449
10.0046
13.1299
54.4907
0.657135
7.94748
3.66432
18.4069
4.50797
4.41395
3.25575
3.96028
2.17278
18.6467
4.21692
11.0062
4.12983
7.41481
4.18647
75.07
9.36598
12.143
8.78053
5.43589
8.3461
8.87819
11.6202
5.13542
1.87151
4.33943
8.02457
2.14833
7.61397
4.68841
18.2134
49.2807
2.68539
11.3999
13.3524
0.303915
2.38137
8.70861
14.9016
17.7071
7.32989
5.2701
7.6304
15.2361
3.05217
5.1702
11.7246
5.07681
6.3791
7.72307
0.394472
0.229756
12.191
6.84213
10.418
21.704
30.5331
3.31422
5.28805
2.83788
12.9228
6.62266
66.4793
8.11693
11.5088
13.9064
4.06162
13.4479
10.7925
0.544627
16.3527
7.59834
7.5217
11.6077
3.53247
6.42913
0.35619
14.021
62.7526
20.5765
13.9165
3.60335
7.71049
2.01362
10.7444
10.6752
9.15665
10.6339
5.59709
10.2617
4.44485
8.4063
12.0676
4.78799
7.63381
2.34639
17.5363
41.4754
13.0867
8.12897
61.5789
18.7136
43.3305
4.03318
18.487
6.68809
2.30856
4.34771
5.59086
8.53693
4.95314
6.22264
4.4769
4.10478
5.90183
44.4867
2.96885
54.9151
5.62248
5.32284
8.21889
4.77125
3.57179
6.47866
6.69744
4.78609
24.1625
10.3511
66.0243
7.65654
7.2998
4.74841
10.4449
10.7824
5.76018
26.1961
7.6917
8.69511
6.4203
10.4524
7.42017
5.27914
5.66586
4.90593
5.34747
5.31548
5.02096
52.7332
14.0572
29.1142
27.5983
5.28393
5.21906
1.89844
77.9213
27.1987
6.17392
74.8178
5.5121
5.85902
46.715
34.167
6.23502
62.8158
62.4555
94.7193
12.9513
6.16486
5.39224
49.4562
4.77972
10.054
18.035
31.0334
10.5863
4.86642
16.8826
8.98551
12.193
7.02245
69.7275
12.2332
4.97105
101.429
7.66354
11.374
7.26971
34.992
136.588
4.84195
2.96911
2.87153
10.7367
6.39592
9.89565
5.84942
48.5413
40.1618
8.33318
6.16469
16.8826
11.3593
5.49527
82.3098
117.858
5.99304
5.02921
11.3322
5.79383
8.66005
2.50105
5.03227
5.95396
3.14201
4.52464
7.39934
6.6719
10.4143
6.57461
5.08374
8.55547
6.00205
4.89756
4.0484
6.06678
10.5569
46.4979
2.8262
65.3455
4.01454
14.92
8.79803
12.4526
5.66289
5.35019
7.61556
7.85205
6.31094
1.13599
30.7042
5.37958
5.79666
6.17944
6.29606
8.13927
31.4421
4.39416
10.1743
3.92554
16.8663
77.7417
39.1224
3.61516
9.32375
4.95311
51.5618
2.92842
11.981
11.0897
55.1714
11.7164
70.5935
1.13326
7.0571
6.42197
3.46552
17.9994
4.33567
5.63739
5.04982
3.72687
6.30946
5.05911
3.16806
11.2043
4.146
17.9931
17.9956
40.1479
13.7262
9.94924
8.76764
3.94085
0.344138
8.00415
5.10399
7.0706
3.52972
2.88685
6.96691
4.95917
4.16045
10.6559
1.47399
8.84934
12.0471
85.9283
54.706
10.1362
2.48078
5.8727
70.8137
5.10573
67.8356
17.4767
4.51425
8.52533
6.27169
4.86936
3.39537
6.79271
8.18849
8.94285
6.34343
0.338149
8.15358
5.92363
11.1071
3.83503
2.16176
6.36471
4.07768
6.7175
7.30038
4.78787
24.3748
3.39702
4.03973
14.1742
6.83395
10.0319
8.53293
3.6381
3.18231
32.689
11.8369
4.0403
8.87263
4.47118
7.9415
30.4941
24.921
7.4192
7.24287
11.8091
8.6935
9.68562
3.97394
0.486685
2.39515
1.97089
8.70084
3.96485
13.6886
12.6162
9.1206
36.1886
0.410489
7.65337
2.82091
8.28903
10.9738
11.2263
40.5385
21.0496
5.95553
20.9694
41.4829
1.46312
11.7488
8.00788
7.83431
5.37395
5.90462
3.4305
18.1364
2.29928
60.8975
5.34555
2.88738
1.47973
8.72164
6.6743
0.406723
13.3395
8.114
5.08091
3.43651
8.06434
4.16175
6.07343
0.971627
29.3287
27.7703
10.5956
13.9406
160.93
6.5502
0.533765
5.91873
12.0087
5.22448
25.1306
3.16809
32.3921
5.42847
1.2327
23.8824
9.66063
5.31776
77.2429
8.97889
26.2327
10.1276
8.31707
29.5174
4.07893
3.09347
3.58241
28.1813
28.0924
63.8991
4.22914
1.35598
10.5507
11.2044
1.82267
3.67667
14.0985
12.76
1.569
40.0293
22.2146
5.24938
20.1148
40.7642
10.3995
16.4866
4.29775
28.6468
31.3402
1.59577
3.02986
13.0558
29.2114
18.1029
108.126
65.825
47.4006
36.2091
37.0713
9.7335
35.9505
6.67452
40.4905
42.6075
29.7482
8.30708
73.5669
0.309846
6.97336
2.7634
37.6255
0.611961
47.1773
9.2706
8.17999
15.3402
5.26857
33.1101
19.7172
3.45106
157.014
0.347757
6.13622
6.15978
127.708
1.26341
4.29354
79.5945
36.0097
13.9621
10.3442
0.342168
7.74852
73.6292
5.83111
9.99007
6.85217
5.94236
6.79767
0.36866
4.78684
42.2914
5.29885
36.2165
1.38422
8.56987
6.06558
30.8821
0.517121
94.008
31.1636
37.0755
40.4003
46.6076
35.085
27.8247
31.8831
35.2101
2.77729
6.06699
17.2521
8.13686
6.48293
6.75698
0.467486
18.9333
0.413958
7.61502
0.374505
8.22812
27.5099
9.4327
29.7752
9.54929
9.09293
4.34983
8.09997
8.55638
34.7067
88.9686
6.74868
5.51734
3.52526
3.93746
6.18518
2.90502
3.19294
4.50717
4.54529
41.0941
1.11602
12.8794
38.2522
11.0482
12.1434
5.66742
1.30511
9.83875
5.39647
4.90674
1.5842
5.16138
4.83174
0.381294
10.0614
11.0862
39.4242
1.9632
3.18333
1.57064
7.0077
18.0397
16.4348
6.53828
6.788
0.859774
7.44235
4.73889
2.84818
10.4158
1.77898
1.42611
54.7398
44.4053
10.5948
20.3352
84.9561
28.7694
7.94467
1.35812
61.7723
0.790164
5.46423
6.69492
9.34485
4.86276
3.91212
4.41062
4.17446
58.5529
50.9785
25.5963
1.44266
1.90345
10.8833
2.36031
5.5527
73.0618
4.72509
4.2033
12.1235
14.1726
13.0689
11.8522
6.95695
7.7618
5.57029
2.2237
6.01426
5.08098
42.306
5.99917
34.6178
16.7298
35.2526
5.86159
4.30346
1.29086
1.99428
1.96547
1.74229
4.80975
2.1911
2.44754
2.73254
0.368592
10.6378
6.90692
2.79844
1.72
1.12831
119.566
1.16351
5.52393
3.49243
13.5399
2.10511
30.3281
9.73199
107.081
9.40677
3.0557
5.22188
10.235
4.68661
26.7973
9.27409
6.54044
5.10036
3.04195
3.23226
3.07893
82.5123
2.07373
31.9422
10.7322
4.14152
3.50703
31.6408
14.8426
4.30614
6.35409
3.34484
3.20773
9.20467
3.33075
18.8151
9.59434
61.0907
21.8506
54.1044
0.938238
66.2108
3.34774
40.4099
1.88825
6.99081
7.95758
3.05323
11.6771
7.28444
14.9274
43.6282
151.012
1.14288
40.4112
99.0674
23.1654
41.7327
19.0975
4.5605
57.314
78.1646
13.0681
1.44553
7.54396
9.02804
5.77315
8.63891
53.4705
77.8297
44.7924
17.6556
5.60112
10.933
5.45435
46.8073
6.34776
34.2117
44.0115
6.75217
4.59475
4.15083
18.676
149.435
9.62071
7.2219
3.64517
97.7213
5.3507
13.3233
72.3511
10.7703
6.23942
6.06533
41.3596
1.32189
0.361181
10.9063
6.93582
6.73747
64.0133
10.9127
4.26766
22.8211
6.54492
30.6964
12.2731
30.5518
15.8236
12.8282
2.87246
18.1758
6.20698
4.95072
6.44864
70.9251
12.9994
43.8145
5.1782
1.39026
15.701
11.1288
11.4875
11.5488
3.02338
4.59286
32.9004
37.9846
6.54453
6.54452
0.831465
70.4093
14.1984
14.146
2.04708
10.0034
5.84806
3.69567
7.06562
1.80094
31.6447
53.0716
22.8038
17.4311
2.52715
17.9326
6.20584
4.94103
43.4902
3.65536
5.64438
12.0839
1.48301
64.3082
87.3467
2.68552
17.076
94.6542
2.75812
14.4289
6.51304
0.400843
7.91429
44.963
9.09611
44.2587
6.2524
56.9274
8.17004
75.9425
2.93853
8.54228
18.2349
6.89929
7.59756
3.92578
15.3562
2.29869
127.091
3.37498
6.06031
4.25178
22.0941
13.7308
14.497
8.16101
1.79994
12.5016
7.14367
1.23247
4.60878
28.0896
7.45137
0.300261
8.85939
3.8144
24.3495
17.5391
1.18619
4.80959
62.6744
0.819405
64.9103
7.38165
56.6518
0.323804
11.2286
16.5267
5.37476
5.19043
63.2386
48.0616
44.5208
8.93809
115.734
2.24601
2.28367
6.5877
13.9022
57.9577
107.514
0.299199
10.3037
3.25884
12.1228
24.7771
44.5741
120.219
39.3192
14.3838
4.72503
6.37842
7.81667
4.49665
103.658
48.8985
4.40806
1.31781
3.92859
44.0172
77.2358
6.06161
28.3725
1.15514
5.31512
66.0569
30.6415
2.38758
80.6739
12.324
74.2682
4.48387
14.4434
11.0369
11.1949
23.4717
53.3724
4.95935
46.3581
46.6758
12.7015
6.22469
10.9228
13.2121
14.2308
46.7428
12.2883
1.33637
4.28072
2.77712
85.7222
5.45315
4.72283
74.428
5.4258
12.0051
35.161
1.44345
66.1395
4.59543
2.2556
8.3593
19.9156
12.6242
37.174
119.54
1.1646
111.284
2.27563
10.971
59.8029
1.07892
7.4071
1.3121
5.63426
94.633
43.3152
41.0574
18.6571
4.82968
0.863093
6.92089
35.1444
8.82466
1.6379
15.7329
4.64344
5.17378
128.796
11.1351
70.1114
30.9392
11.0543
4.54144
6.0837
5.46006
68.014
27.8122
18.4206
12.3959
10.1055
51.8436
5.49085
80.575
3.55736
9.75753
3.29095
7.65338
2.05545
5.65526
15.3105
1.41821
34.719
40.938
11.263
4.06425
5.69697
14.0253
4.29723
96.2441
9.67325
13.3475
11.6105
5.57505
90.426
46.9222
29.4173
9.82084
1.77708
13.1001
4.35533
44.7258
7.48724
0.599645
10.9331
6.04262
52.98
6.21969
11.4901
8.76597
6.36551
12.5852
3.87604
14.5635
11.8824
20.2677
1.45283
3.44078
3.41878
1.07396
5.01898
5.89077
2.69154
5.5436
1.25862
3.0188
6.53691
14.2712
6.20491
78.5751
52.0477
13.3646
4.61321
1.28055
6.58285
3.57051
1.26633
7.78784
5.40025
5.94972
85.1621
5.90073
29.181
1.44045
6.9759
2.7599
6.20891
153.248
2.17111
5.57434
7.49253
5.05863
10.855
8.70927
5.17624
35.8552
7.53008
2.74552
4.38535
7.24041
3.60449
30.214
1.68997
3.1273
6.11841
7.32912
7.17467
7.00988
61.6994
6.22271
1.67639
5.01867
10.0391
20.16
37.3101
1.80085
14.0662
8.02445
3.24104
2.43976
13.7557
8.38752
6.56665
15.8615
5.75149
50.4642
7.57464
152.005
6.08175
44.3027
86.7813
12.1016
2.58336
1.59228
18.1499
1.47077
56.9078
3.81024
10.9888
6.63142
45.9088
6.43049
2.03112
12.1524
1.80613
12.6075
8.27282
56.547
4.19914
50.4965
41.5795
34.1652
41.6219
4.84364
6.30169
4.26888
8.70252
13.5322
11.9125
11.6348
10.2178
16.1972
17.4118
15.2609
17.8104
23.8701
5.06188
45.6082
17.788
12.1666
63.4181
148.932
15.6288
27.3802
72.2851
)
;

boundaryField
{
    frontAndBack
    {
        type            empty;
    }
    wallOuter
    {
        lowReCorrection 0;
        type            epsilonWallFunction;
        value           nonuniform List<scalar> 
90
(
25.1755
25.1306
23.8824
26.2327
29.5174
28.1813
28.0924
40.0293
22.2146
28.6468
31.3402
42.6075
29.7482
37.6255
33.1101
79.5945
31.1636
37.0755
40.4003
46.6076
35.085
27.8247
31.8831
35.2101
34.7067
58.5529
50.9785
34.6178
35.2526
1.99428
1.96547
1.74229
4.80975
2.1911
2.44754
2.79844
3.49243
2.10511
30.3281
3.0557
3.23226
3.07893
82.5123
2.07373
3.34484
3.20773
3.34774
40.4099
1.88825
43.6282
53.4705
18.676
30.6964
43.8145
32.9004
2.04708
1.80094
31.6447
53.0716
17.9326
43.4902
3.65536
2.68552
94.6542
44.963
56.9274
75.9425
2.29869
127.091
3.37498
44.5208
2.24601
107.514
3.25884
120.219
103.658
28.3725
30.6415
2.38758
74.2682
35.161
111.284
2.27563
30.9392
11.263
3.0188
153.248
2.17111
35.8552
20.16
)
;
    }
    inlet
    {
        type            fixedValue;
        value           uniform 14.855;
    }
    outlet
    {
        type            zeroGradient;
    }
    wallInner
    {
        lowReCorrection 0;
        type            epsilonWallFunction;
        value           nonuniform List<scalar> 
138
(
20.3052
17.4981
30.9537
17.9853
16.5773
3.77876
84.2997
55.8947
10.9982
15.1238
28.7901
47.8719
11.235
1.42745
2.11948
9.55002
1.60802
1.38723
3.6318
73.3824
158.168
35.4427
6.07241
29.9824
33.1217
37.3478
27.9819
39.6406
30.8659
34.0473
31.5224
2.14833
2.68539
13.3524
0.303915
2.38137
8.70861
14.9016
17.7071
7.32989
5.2701
7.6304
15.2361
3.05217
5.1702
11.7246
5.07681
6.3791
7.72307
0.394472
0.229756
12.191
6.84213
10.418
4.06162
13.4479
10.7925
0.544627
16.3527
7.59834
7.5217
11.6077
3.53247
6.42913
0.35619
14.021
10.6339
13.0867
43.3305
5.32284
66.0243
4.74841
26.1961
14.0572
46.715
12.9513
49.4562
16.8826
8.98551
12.193
12.2332
101.429
136.588
48.5413
40.1618
117.858
8.79803
1.13599
30.7042
31.4421
11.981
7.0706
2.16176
3.96485
1.46312
0.406723
13.3395
4.07893
3.58241
12.76
65.825
6.67452
2.7634
5.26857
36.0097
0.36866
18.9333
29.7752
9.54929
4.54529
10.8833
42.306
0.368592
10.6378
1.12831
31.6408
54.1044
0.938238
40.4112
99.0674
6.20698
0.831465
70.4093
2.75812
8.16101
7.14367
62.6744
0.819405
6.37842
7.81667
1.44345
11.6348
45.6082
17.788
12.1666
148.932
15.6288
72.2851
)
;
    }
    procBoundary0to1
    {
        type            processor;
        value           nonuniform List<scalar> 
29
(
11.68
8.79831
25.8814
25.8814
44.4028
44.4028
120.001
41.1795
86.1199
27.3526
28.6309
54.9921
25.1389
19.1764
63.6657
24.1693
58.208
69.4174
30.3517
7.85305
10.4961
5.95608
61.1517
10.1769
10.2704
69.4174
8.0441
63.7443
10.1769
)
;
    }
    procBoundary0to2
    {
        type            processor;
        value           nonuniform List<scalar> 
42
(
9.56753
5.98822
1.62344
1.55916
1.81848
9.56753
1.62344
1.11066
1.84813
2.27816
2.39508
4.05738
2.39508
4.79714
5.14515
8.91434
5.14515
2.17106
2.11673
9.31828
9.31828
2.17106
1.63793
14.6996
14.6996
0.959822
11.8117
0.584263
10.2146
5.18775
5.18775
0.406457
0.367738
0.417235
0.511878
1.62344
4.22822
2.04833
10.2146
1.11066
0.772344
0.625963
)
;
    }
}


// ************************************************************************* //
