/*--------------------------------*- C++ -*----------------------------------*\
| =========                 |                                                 |
| \\      /  F ield         | OpenFOAM: The Open Source CFD Toolbox           |
|  \\    /   O peration     | Version:  v1912                                 |
|   \\  /    A nd           | Website:  www.openfoam.com                      |
|    \\/     M anipulation  |                                                 |
\*---------------------------------------------------------------------------*/
FoamFile
{
    version     2.0;
    format      ascii;
    class       volScalarField;
    location    "0.41";
    object      k;
}
// * * * * * * * * * * * * * * * * * * * * * * * * * * * * * * * * * * * * * //

dimensions      [0 2 -2 0 0 0 0];


internalField   nonuniform List<scalar> 
1431
(
0.185073
0.306245
1.62441
1.23498
0.111891
1.05565
0.644033
0.196412
1.28718
1.03518
0.124021
0.484727
0.298732
0.927979
1.45543
0.434785
1.72431
0.337297
0.304215
0.131201
0.088592
0.610575
1.5007
1.01163
0.944219
0.140831
1.04601
0.852201
0.490816
0.362126
0.86001
0.310364
0.818617
0.452758
0.412765
1.07345
0.170386
0.310497
0.908328
0.3039
1.90005
0.147094
0.510593
0.679129
1.1816
0.156297
1.08103
0.209709
0.411534
0.395455
0.308414
0.996567
1.38497
0.639779
0.749131
0.20175
1.03927
1.25513
0.798556
0.0706398
1.45042
0.11086
1.21747
0.293072
0.593622
0.346081
1.49507
0.948551
0.388051
0.323816
0.335422
0.389921
0.192304
0.949045
0.407636
0.61422
0.120581
1.44877
0.224905
1.57107
0.270118
0.379151
0.316139
1.52273
1.81386
0.116887
0.145922
0.421382
1.1061
0.155557
0.198983
0.532622
0.13659
0.309353
0.414251
0.100442
0.369196
0.2656
0.126514
0.593717
0.394315
0.222279
0.178318
0.132338
0.538754
0.334548
0.240903
2.21738
1.15141
0.10744
1.89825
0.313256
0.213722
0.146465
0.483704
0.131227
0.2981
0.74241
1.21655
0.937904
0.28967
1.47743
1.1419
0.887483
0.29392
0.474372
1.35112
0.430183
0.171002
0.489235
0.223346
1.92343
0.732229
0.170553
0.123894
0.702422
0.136148
0.37008
0.168595
2.00312
0.814836
0.0690687
0.290684
0.427343
0.484218
0.374835
0.267689
2.25112
0.127496
0.353779
0.509118
0.638574
0.390343
0.262799
0.0708026
0.344728
0.283835
0.155687
0.205907
0.256583
0.368442
0.14259
0.17931
0.363966
0.154714
2.58385
0.109418
0.301277
0.319373
0.18513
0.622389
0.415223
0.829846
0.387222
0.283548
0.0993193
0.251301
0.495016
0.368617
0.217886
0.31692
1.41324
0.205042
0.16493
0.349397
0.381845
0.229335
0.868006
0.147529
0.300008
0.743379
2.15701
0.105364
0.254942
1.43454
0.27367
0.235097
0.259658
0.0808974
0.0706791
0.137773
0.735134
0.314996
1.98751
0.247038
1.37479
0.115187
0.305315
0.300805
0.472261
0.265006
0.216646
1.13941
0.29978
0.73358
0.867607
0.199273
0.665618
0.517584
0.304565
0.292017
1.44833
0.432558
1.95561
0.318783
0.527574
0.520242
0.168805
0.414478
0.895731
0.138824
0.680686
0.303363
0.200367
0.196773
0.205385
0.287781
0.189201
0.274927
0.331699
0.312551
0.282376
0.920627
1.82644
0.29921
0.294878
0.309531
0.563296
0.586252
0.53579
0.26644
1.05536
0.849271
0.505675
1.25266
0.654004
0.207362
0.353153
0.610943
0.634749
0.667858
0.318648
0.142129
0.836515
0.199031
0.403271
0.563472
0.248009
0.423859
0.864363
0.237406
0.475448
0.265195
0.264334
0.684818
0.268719
0.169872
0.603535
0.381242
1.13201
1.60532
0.341175
0.294438
0.16399
0.590911
0.885167
0.129648
0.190614
0.476836
0.292982
0.39276
0.330894
0.193574
0.542687
0.288679
0.212687
0.120675
0.250745
0.316052
0.237145
0.323768
0.532987
0.4175
0.226075
0.130111
0.292766
0.282039
0.64304
0.621473
0.200822
0.30505
0.33819
1.35688
0.0818314
0.315946
0.289552
1.08972
0.320976
0.197673
0.31309
0.285455
0.234858
0.863993
0.295438
0.887868
0.383347
0.257941
0.398169
1.19662
0.29415
0.637178
0.349812
0.405766
0.708676
0.278621
0.785297
0.289236
0.2136
0.280744
0.419956
0.0938616
0.263896
0.429469
0.434384
1.01916
0.108484
0.32344
0.333688
0.0274415
0.113935
0.293959
0.324714
0.40978
0.236538
0.169476
0.269819
0.354083
0.116337
0.185887
0.259744
0.185991
0.225078
0.244117
0.0317801
0.0258228
0.314958
0.223749
0.285526
0.755281
1.00991
0.289861
0.394199
0.289079
0.33045
0.520114
1.10886
0.550032
0.328245
0.362165
0.165415
0.30361
0.299781
0.048321
0.381978
0.260695
0.238769
0.309549
0.127061
0.216888
0.0297878
0.349819
1.42692
0.448424
0.362259
0.350661
0.288793
0.21347
0.315665
0.870947
0.280433
0.267218
0.428446
0.308141
0.317093
0.476168
0.324801
0.339097
0.247652
0.186834
0.808607
0.619333
0.28953
0.476118
1.24039
0.452719
0.708014
0.383533
0.939785
0.428624
0.208981
0.304868
0.508657
0.68069
0.372002
0.442715
0.407616
0.337382
0.525167
1.72151
0.302815
1.75473
0.362235
0.169805
0.714809
0.357086
0.354033
0.597713
0.581733
0.336877
0.981083
0.659185
0.888401
0.667379
0.617595
0.167267
0.880561
0.900185
0.306225
0.508318
0.672691
0.755768
0.557694
0.879192
0.601692
0.488279
0.488237
0.455459
0.4929
0.475109
0.37595
1.36296
0.314088
1.00849
0.894199
0.387945
0.369426
0.159345
1.61834
0.851033
0.426684
1.48583
0.395114
0.219623
0.751443
0.945271
0.397354
1.40056
1.4066
2.14126
0.298124
0.449247
0.400012
0.777303
0.206427
0.302019
0.857033
0.922309
0.829941
0.467376
0.376678
0.251378
0.29222
0.39451
1.63656
0.291479
0.388181
1.20529
0.575588
0.32527
0.48727
0.909072
1.5289
0.428717
0.304008
0.287653
0.465688
0.373093
0.772876
0.437997
0.749257
0.656863
0.374991
0.225786
0.622476
0.316336
0.430023
1.88003
1.35946
0.442989
0.344764
0.553256
0.344574
0.579498
0.181786
0.370153
0.55411
0.286115
0.431974
0.413455
0.533536
0.304744
0.233092
0.340466
0.497303
0.542183
0.459519
0.363424
0.444514
0.883944
1.10845
0.284185
1.71281
0.379975
0.850702
0.24916
0.938369
0.47752
0.217745
0.640944
0.39712
0.402584
0.0815747
0.604009
0.508145
0.431818
0.396774
0.470001
0.559703
0.599987
0.192615
0.855634
0.312237
0.851628
1.95161
1.04282
0.234758
0.803822
0.202243
1.31691
0.276566
0.321733
0.90341
1.31304
0.92254
1.59869
0.150885
0.642642
0.451847
0.301187
0.448339
0.361477
0.223782
0.346312
0.363212
0.302307
0.360834
0.303348
0.312927
0.342601
0.399157
0.946619
1.18558
0.359678
0.293105
0.273452
0.304755
0.0549481
0.661887
0.205101
0.207958
0.332572
0.275633
0.369626
0.395159
0.359445
0.854572
0.140586
0.406196
0.946715
1.42884
1.03762
0.859724
0.228855
0.539156
1.25366
0.205802
1.53399
0.825085
0.409737
0.708482
0.331266
0.289589
0.30781
0.30038
0.649386
0.304407
0.320764
0.0572038
0.713979
0.230309
0.902833
0.313085
0.116659
0.238834
0.289483
0.596955
0.35965
0.197799
0.542182
0.280191
0.322527
0.993545
0.247634
0.85083
0.629725
0.331554
0.276892
1.21882
0.822442
0.296153
0.515205
0.286683
0.259696
0.616858
1.07429
0.653094
0.257067
0.332229
0.733266
0.810837
0.37275
0.07023
0.227148
0.215329
0.282943
0.143802
0.359183
0.922833
0.760133
1.15275
0.0639222
0.264485
0.265389
0.554389
0.311088
0.307243
0.896778
0.843259
0.306284
0.493594
1.44625
0.0975043
0.347265
0.438063
0.630945
0.409487
0.487378
0.321491
0.862988
0.241462
1.11666
0.43987
0.274581
0.195527
0.761306
0.320533
0.0327219
0.34536
0.272735
0.202311
0.303859
0.356132
0.188084
0.292554
0.0992255
0.669122
0.586367
0.882925
0.362983
2.05148
0.39415
0.0649341
0.334495
0.871605
0.473917
0.421201
0.32011
1.26719
0.208134
0.172843
0.413521
0.300537
0.21816
1.79096
0.454374
0.427181
0.73936
0.666371
0.473391
0.162281
0.307457
0.155689
0.468654
0.473607
1.77658
0.189897
0.158883
0.64288
0.917255
0.184485
0.344593
0.862954
0.31196
0.181653
0.590659
0.404681
0.209036
0.438462
0.732803
0.360447
0.897182
0.190011
0.484951
0.514622
0.186081
0.191037
0.350126
0.523159
0.41937
1.51688
0.948204
0.794483
0.848702
0.913636
0.304206
1.21871
0.192417
0.939196
0.612631
0.499012
0.602682
1.76071
0.0525336
0.370201
0.122457
0.569575
0.0836844
1.28775
0.785355
0.320756
0.474368
0.186869
0.531665
0.95061
0.264233
2.644
0.0527149
0.351083
0.257627
1.7242
0.171902
0.192016
0.878091
0.612381
0.362668
0.309727
0.0566875
0.387401
1.91976
0.229123
0.842943
0.494376
0.21715
0.329038
0.0314541
0.290175
1.02132
0.407268
1.16281
0.135923
0.281119
0.233943
1.18613
0.072647
1.40263
0.537232
0.526677
0.517651
0.528135
0.502929
0.508818
0.509338
0.54995
0.24326
0.245729
0.38598
0.343388
0.477532
0.352415
0.0681381
0.439562
0.0504572
0.405824
0.0572585
0.394609
0.565053
0.794778
0.607719
0.273984
0.778845
0.194121
0.255409
0.264074
0.505968
1.51738
0.23134
0.337338
0.29562
0.258764
0.2377
0.306469
0.295428
0.354936
0.165008
0.909167
0.127443
0.85342
1.31442
0.320705
0.342249
0.225479
0.168762
0.405259
0.376294
0.318009
0.154782
0.214945
0.202198
0.0576125
0.489234
0.309378
0.959949
0.218239
0.315044
0.118095
0.245859
0.663879
0.801242
0.446759
0.24853
0.1047
0.398485
0.283149
0.203695
0.29404
0.180043
0.141623
1.36552
1.37746
0.287866
0.445475
1.74341
0.910165
0.270104
0.178392
1.49578
0.0759317
0.336951
0.422454
0.331927
0.31981
0.306582
0.426618
0.407257
0.785799
0.730234
0.490648
0.194373
0.149049
0.258726
0.248141
0.223172
2.0047
0.36101
0.404096
0.703064
0.643368
0.354448
0.345843
0.28235
0.674349
0.220493
0.180668
0.233438
0.211956
0.704984
0.28519
0.529801
1.10778
0.518588
0.47264
0.189504
0.128398
0.0789257
0.0771869
0.0708478
0.143807
0.0826269
0.0867595
0.238496
0.0325713
0.287723
0.250905
0.0907784
0.170722
0.0680395
1.88509
0.113743
0.424596
0.102659
1.00384
0.0867279
0.496867
0.822678
2.22106
0.420864
0.0928079
0.375605
0.860273
0.318911
1.1151
0.745492
0.418135
0.407072
0.25284
0.0990459
0.0947745
0.94221
0.0787004
0.980599
0.895079
0.396273
0.259898
0.583086
0.932649
0.395024
0.240208
0.100291
0.0988306
0.319637
0.332774
0.404253
0.815528
1.38512
0.960854
0.685437
0.0532672
1.58127
0.109043
0.699545
0.0867481
0.253299
0.707026
0.291508
0.328152
0.366291
0.791682
0.659137
2.11527
0.105188
0.598519
1.07356
0.457098
1.06809
0.832401
0.198567
1.22349
2.01917
0.350503
0.182657
0.660604
0.686324
0.228489
0.264569
0.761147
1.65387
1.137
0.821206
0.416819
0.866264
0.452346
1.47821
0.463261
1.00574
0.724879
0.365616
0.283959
0.328904
0.356617
2.04664
0.814487
0.561184
0.325887
1.80718
0.29692
0.8469
1.54313
0.316639
0.502019
0.385102
0.781829
0.119202
0.0555432
0.499874
0.612844
0.475487
1.47173
0.848416
0.189037
0.975367
0.422203
0.461485
0.829442
1.20608
0.518831
0.668056
0.283692
0.398672
0.213405
0.203748
0.566535
1.93354
0.349691
0.625804
0.211956
0.179981
0.391274
0.310102
0.327582
0.829371
0.241592
0.201961
0.552087
0.970313
0.244735
0.477271
0.0455986
0.782423
0.353285
0.355175
0.0859874
0.314039
0.375729
0.215275
0.242325
0.0868544
0.610069
0.776694
0.449113
0.867556
0.262272
0.385006
0.3614
0.205979
0.508219
0.109119
0.288556
0.3345
0.185297
1.37027
1.39232
0.0990615
0.40665
0.993787
0.129487
0.372759
0.489773
0.0622992
0.391713
0.635544
0.345906
1.51998
0.477661
0.660721
0.408603
0.870481
0.291663
0.490996
0.468902
0.247433
0.475814
0.331297
0.367295
0.0863889
1.17291
0.109146
0.413264
0.330204
0.801102
0.778844
0.356348
0.228823
0.186393
0.717769
0.200435
0.143531
0.228945
0.567948
0.47958
0.0441168
0.442291
0.259648
1.06134
1.13358
0.170947
0.206951
0.759488
0.0527533
1.13114
0.259832
1.40038
0.0513242
0.505203
0.835642
0.339292
0.392199
1.84699
0.783759
0.502319
0.28849
1.32252
0.0779064
0.150694
0.372315
1.01914
0.991548
0.95426
0.046993
0.482446
0.107575
0.336483
0.831799
1.54786
1.07372
0.605934
0.366338
0.20335
0.200623
0.237158
0.436705
0.841225
1.35232
0.191641
0.14579
0.383533
0.63673
1.70449
0.466445
0.431902
0.103412
0.351469
1.3125
0.544352
0.0922755
2.08771
0.859423
0.870485
0.417822
0.450656
0.301343
0.654827
1.02079
1.26501
0.336946
1.57477
0.676205
0.346864
0.30476
0.884012
0.351656
0.360011
0.932987
0.890734
0.147954
0.320611
0.215751
1.63973
0.240827
0.297028
1.15329
0.38384
0.929497
0.430012
0.0727182
1.85106
0.195724
0.165158
0.262373
0.413916
0.34417
0.612572
1.76043
0.106775
1.09105
0.0816557
0.887471
0.881188
0.110558
0.500841
0.158561
0.425338
1.88022
0.889591
1.03973
0.687707
0.424578
0.102525
0.322899
1.0638
0.266772
0.152218
0.39458
0.202201
0.396579
2.22607
0.90975
1.32204
0.462469
0.853577
0.346068
0.296059
0.410127
1.74266
1.1566
0.397226
0.341039
0.633467
1.18796
0.307256
2.10623
0.353231
0.564218
0.193679
0.265853
0.132644
0.226516
0.385379
0.164167
0.569551
0.678127
0.253655
0.228273
0.227741
0.386571
0.358673
1.74924
0.80332
0.794684
0.811711
0.367928
1.6917
0.78493
1.09383
0.365216
0.186486
0.3509
0.354729
1.47814
0.383144
0.0797009
0.810605
0.229798
1.59775
0.548861
0.836557
0.764655
0.522635
0.329246
0.312551
1.02819
0.33423
0.420183
0.103616
0.344435
0.279369
0.0953036
0.435807
0.49864
0.213119
0.390315
0.122515
0.104088
0.466595
0.991389
0.449011
1.5087
0.773049
0.356472
0.419896
0.174271
0.452136
0.306649
0.1596
0.460439
0.2136
0.296824
1.42068
0.232032
0.608137
0.134933
0.237305
0.204488
0.413451
1.21061
0.076507
0.258335
0.39186
0.212511
0.350302
0.369986
0.242521
0.521693
0.379148
0.271392
0.346608
0.44581
0.310325
0.536651
0.162384
0.298428
0.344343
0.498354
0.239824
0.492182
1.47763
0.417708
0.153426
0.205177
0.355066
0.394965
0.626682
0.171657
0.416965
0.325075
0.295728
0.235994
0.729182
0.318742
0.241081
1.09301
0.2247
1.10363
0.511263
2.1308
0.234547
0.711268
1.35194
0.336716
0.144193
0.133776
0.441533
0.185632
0.93618
0.294941
0.856949
0.282237
0.778559
0.282236
0.152563
0.34713
0.178802
0.342446
0.276986
0.917032
0.388355
0.950969
0.63728
0.588179
0.650533
0.206713
0.457087
0.399636
0.630127
0.9351
0.313475
0.29298
0.654324
1.08291
0.881723
1.0156
0.842034
0.461837
0.20687
0.766726
0.382089
0.377159
0.869346
1.67123
0.415609
0.608777
0.968014
)
;

boundaryField
{
    frontAndBack
    {
        type            empty;
    }
    wallOuter
    {
        type            kqRWallFunction;
        value           nonuniform List<scalar> 
90
(
0.434785
0.421201
0.413521
0.427181
0.473391
0.468654
0.473607
0.590659
0.404681
0.484951
0.514622
0.612631
0.499012
0.569575
0.531665
0.878091
0.537232
0.526677
0.517651
0.528135
0.502929
0.508818
0.509338
0.54995
0.505968
0.785799
0.730234
0.529801
0.518588
0.0789257
0.0771869
0.0708478
0.143807
0.0826269
0.0867595
0.0907784
0.102659
0.0867279
0.496867
0.0928079
0.0990459
0.0947745
0.94221
0.0787004
0.100291
0.0988306
0.109043
0.699545
0.0867481
0.659137
0.761147
0.356617
0.461485
0.625804
0.552087
0.0859874
0.0868544
0.610069
0.776694
0.385006
0.508219
0.109119
0.0990615
0.993787
0.635544
0.660721
0.870481
0.0863889
1.17291
0.109146
0.502319
0.0779064
0.95426
0.107575
1.07372
0.841225
0.431902
0.544352
0.0922755
0.870485
0.430012
1.09105
0.0816557
0.462469
0.253655
0.104088
1.21061
0.076507
0.521693
0.394965
)
;
    }
    inlet
    {
        type            fixedValue;
        value           uniform 0.375;
    }
    outlet
    {
        type            zeroGradient;
    }
    wallInner
    {
        type            kqRWallFunction;
        value           nonuniform List<scalar> 
138
(
0.484727
0.304215
0.818617
0.452758
0.412765
0.147094
1.49507
0.948551
0.335422
0.389921
0.61422
0.732229
0.262799
0.0708026
0.0993193
0.251301
0.0808974
0.0706791
0.137773
0.735134
1.95561
0.654004
0.207362
0.610943
0.634749
0.667858
0.563472
0.684818
0.590911
0.64304
0.621473
0.0938616
0.108484
0.333688
0.0274415
0.113935
0.293959
0.324714
0.40978
0.236538
0.169476
0.269819
0.354083
0.116337
0.185887
0.259744
0.185991
0.225078
0.244117
0.0317801
0.0258228
0.314958
0.223749
0.285526
0.165415
0.30361
0.299781
0.048321
0.381978
0.260695
0.238769
0.309549
0.127061
0.216888
0.0297878
0.349819
0.267218
0.28953
0.708014
0.169805
0.888401
0.167267
0.508318
0.314088
0.751443
0.298124
0.777303
0.376678
0.251378
0.29222
0.291479
1.20529
1.5289
0.749257
0.656863
1.35946
0.24916
0.0815747
0.604009
0.599987
0.321733
0.207958
0.116659
0.143802
0.0975043
0.0327219
0.34536
0.162281
0.155689
0.31196
0.948204
0.192417
0.122457
0.186869
0.612381
0.0314541
0.439562
0.607719
0.273984
0.165008
0.258726
0.704984
0.0325713
0.287723
0.0680395
0.583086
0.685437
0.0532672
0.598519
1.07356
0.213405
0.0455986
0.782423
0.129487
0.228823
0.200435
0.759488
0.0527533
0.200623
0.237158
0.0727182
0.29298
0.766726
0.382089
0.377159
1.67123
0.415609
0.968014
)
;
    }
    procBoundary0to1
    {
        type            processor;
        value           nonuniform List<scalar> 
29
(
0.638528
0.572756
0.998609
0.998609
1.58764
1.58764
1.94428
0.87302
1.36422
0.998857
0.909485
1.09089
0.621053
0.506564
1.23052
0.574935
2.23577
2.05297
1.18429
0.521792
0.315204
0.2198
1.45957
0.288851
0.287195
2.05297
0.254561
0.80106
0.288851
)
;
    }
    procBoundary0to2
    {
        type            processor;
        value           nonuniform List<scalar> 
42
(
0.675874
0.45719
0.152056
0.136655
0.201162
0.675874
0.152056
0.123169
0.201715
0.199713
0.241395
0.36678
0.241395
0.427004
0.459643
0.664646
0.459643
0.18528
0.203832
0.60905
0.60905
0.18528
0.146279
0.800156
0.800156
0.0941422
0.736839
0.0693752
0.725223
0.432894
0.432894
0.0590668
0.0587517
0.063944
0.0712982
0.152056
0.37909
0.0897675
0.725223
0.123169
0.0940075
0.0806142
)
;
    }
}


// ************************************************************************* //
