/*--------------------------------*- C++ -*----------------------------------*\
| =========                 |                                                 |
| \\      /  F ield         | OpenFOAM: The Open Source CFD Toolbox           |
|  \\    /   O peration     | Version:  v1912                                 |
|   \\  /    A nd           | Website:  www.openfoam.com                      |
|    \\/     M anipulation  |                                                 |
\*---------------------------------------------------------------------------*/
FoamFile
{
    version     2.0;
    format      ascii;
    class       volScalarField;
    location    "0.41";
    object      k;
}
// * * * * * * * * * * * * * * * * * * * * * * * * * * * * * * * * * * * * * //

dimensions      [0 2 -2 0 0 0 0];


internalField   nonuniform List<scalar> 
1466
(
0.646543
0.888846
0.448152
2.21023
0.327938
0.770885
0.998609
1.18573
0.273505
1.09392
1.42296
1.04271
0.213716
0.272255
1.29377
2.30903
0.886576
1.09171
2.52409
1.70832
2.6726
2.46563
1.94134
1.4957
0.243312
0.71368
1.58764
2.05723
0.244212
1.3647
1.64538
0.704681
0.542857
3.29169
1.94428
1.46124
3.01436
1.00348
1.37335
0.518143
0.629362
1.16201
1.27528
0.585937
0.447049
0.87302
1.36422
0.216315
0.91501
0.223835
0.459192
0.896557
0.739334
0.268436
0.480693
0.271163
0.715384
1.26153
0.412434
1.11182
1.20664
1.25932
0.635953
1.08363
2.22743
1.17868
3.91856
1.67934
0.802987
0.407981
2.29772
1.39245
1.06035
0.2577
0.882877
1.39891
1.23262
0.624306
0.309765
1.65751
1.35772
2.06004
0.471023
1.74785
2.43032
2.97288
3.11433
1.56166
1.33684
1.16995
0.902156
1.54478
2.51714
0.611363
0.846628
0.466537
0.824574
1.25714
0.275953
0.186613
0.622564
0.338795
0.197483
1.20577
1.48287
1.45564
0.780424
0.23773
1.29971
0.668055
1.07306
1.71161
0.755938
1.15104
0.977401
1.32638
1.30723
0.870163
0.862488
0.638528
2.96569
1.31899
0.714731
0.603751
0.416287
1.31707
1.03799
1.95676
1.49712
1.2455
1.19881
1.09089
1.81183
1.4165
0.981761
0.621053
0.506564
0.7411
0.701177
0.554436
0.30745
2.27537
2.09378
1.98993
2.6259
3.69537
0.701676
1.00438
1.56315
1.81682
0.993261
1.11967
0.927804
0.602291
1.43659
2.41251
1.87992
2.7575
0.751541
1.0264
0.674046
1.37691
1.44743
2.26777
3.09102
1.8086
1.88506
2.26116
2.48803
1.1463
2.64062
0.499036
0.206247
0.843073
0.592797
0.262479
1.18084
1.61815
0.984579
2.34805
0.275289
1.13288
2.85685
0.156934
1.55344
3.08805
2.5138
1.23462
0.824303
0.555365
2.82694
1.28292
2.60648
4.08666
0.934326
1.19896
0.327012
2.32351
3.04889
4.07747
1.87448
1.40217
1.2016
1.57682
2.00031
3.00192
3.13614
0.771251
0.741872
1.64259
2.26246
2.28453
2.61589
2.44358
2.85509
2.23161
3.16378
2.61765
1.46176
1.73447
2.14914
1.35816
2.33521
1.3581
2.41877
2.31872
2.13363
0.268443
0.986985
1.32645
1.73783
1.60511
4.39868
4.13286
0.688039
2.63451
2.01815
2.14973
1.00829
2.7777
1.13527
1.60169
1.06811
4.14054
0.839861
1.2575
0.698593
0.25492
1.72861
0.94676
3.0486
2.44169
0.703963
1.49898
0.508356
0.986739
1.75925
0.355442
1.35285
1.64834
1.1588
1.72613
1.37875
1.29402
1.57218
0.162481
0.63605
1.50293
2.54646
0.37219
1.69927
1.51011
0.852676
0.742621
0.934187
1.50717
1.16893
1.64904
2.58126
1.60914
1.16376
2.40913
2.08884
1.41156
2.89538
0.22145
1.67212
1.63067
0.236783
0.570649
0.612035
0.588515
0.246495
0.153839
1.28456
0.666474
1.97863
0.361012
1.6439
1.19102
0.263468
1.58515
0.217371
0.268794
2.65558
0.529567
0.958703
0.650556
1.02932
3.6955
0.811814
2.68136
1.7741
1.2934
1.47686
1.22572
3.49595
0.927816
0.452683
1.36567
0.645584
1.70511
1.38887
1.08119
2.90288
0.496144
0.261274
0.937124
0.948522
1.40829
1.88013
0.527453
0.583356
1.06102
2.38033
0.379599
2.53167
0.992923
0.915931
1.04602
0.539047
0.840101
0.804521
1.54704
1.23627
0.220497
1.34846
1.06618
0.883768
2.26415
0.747971
0.34992
1.64387
3.14823
3.23675
3.04168
2.06346
0.372038
0.288093
1.06516
3.19443
2.69114
1.97712
2.14603
0.475727
4.55044
0.747053
0.717055
0.960359
1.17034
0.992335
3.24671
1.22061
0.941747
0.637659
2.98047
1.4952
1.23752
0.838514
1.50494
2.71199
1.99658
2.84431
2.84992
1.82901
1.94656
0.718256
0.704087
0.605102
0.393371
0.685617
1.08863
2.21072
1.03305
1.54116
0.669279
0.229554
1.24527
1.29789
0.388892
0.193885
0.184597
1.38836
0.297369
1.19836
3.57663
1.51829
0.996227
3.61512
3.41416
1.15391
1.72488
2.02434
3.59254
1.61752
0.279337
0.261584
1.30146
1.43243
1.16057
2.93675
3.10116
1.26766
1.98106
1.51202
0.565292
2.23577
1.20155
1.40043
0.572756
1.99253
0.878834
1.34548
1.94418
1.34036
0.270887
0.257497
0.289943
0.291588
1.93412
0.238326
0.287001
1.96527
0.276286
1.35163
1.16584
0.574935
1.44306
1.00546
1.88719
1.49724
0.840827
0.195893
0.315204
0.935981
0.286974
0.607375
0.944076
0.237197
1.45429
0.589137
0.599436
0.60019
1.65058
1.75712
1.01526
1.0465
0.583592
0.4247
1.1242
0.442172
0.89756
1.92522
0.239779
1.50255
1.02704
0.643787
2.49551
4.29014
2.46429
1.09687
2.36065
2.36347
4.02157
3.44081
0.655282
0.956608
0.599704
3.64292
2.1316
3.78817
1.98607
0.751066
1.00719
1.52628
1.23106
2.32054
1.70877
1.25002
2.66467
2.7756
3.4756
1.44553
2.68426
0.484983
2.80633
1.46611
1.62598
0.887786
1.67511
1.29663
3.04237
1.78648
1.71165
2.27013
2.42214
0.552004
0.296222
0.501036
0.991733
2.60424
0.470231
4.29428
0.768508
2.69706
0.593303
0.439309
1.85013
0.59912
3.76299
0.552019
1.86045
3.57391
1.12611
1.59872
0.440863
0.947037
1.59408
0.721406
2.28813
0.618589
2.91231
0.644309
1.86272
0.679712
0.900549
0.850919
0.665214
3.71285
1.61527
2.97136
0.91231
0.535963
1.62588
1.77795
1.94909
1.73558
2.49253
1.1113
0.508166
3.57774
3.62207
1.28882
1.0105
0.41537
1.78269
1.03452
4.24005
1.65103
3.4782
2.99909
4.19646
1.14204
1.47335
0.996237
3.00818
0.35093
2.98782
1.62265
1.81925
1.99842
3.43957
2.2938
2.56294
2.86521
1.66235
2.9858
0.296005
1.31988
2.06022
3.08228
0.753713
2.58864
2.31404
3.19111
2.18588
1.96496
1.35086
1.2538
2.16174
1.19606
0.423154
0.423232
0.889353
4.78711
2.79517
1.36304
0.228579
1.62223
3.42069
0.947351
2.34808
0.646208
0.950046
2.26265
0.902458
1.45445
0.764887
0.657482
2.98249
0.841312
0.345907
1.25535
0.537767
0.828693
2.41109
2.29908
2.84946
3.2656
3.00482
2.98787
0.639213
0.681425
0.453859
3.04878
0.380852
2.79117
2.4562
1.57666
2.20485
3.87799
1.64221
1.4626
1.40934
3.74592
0.425164
2.87216
3.60633
1.40671
0.799971
3.18028
0.328712
1.16948
0.493459
4.18875
3.68474
0.824476
1.97277
0.955869
0.241911
4.36076
1.73167
0.341059
0.430922
3.92758
1.12354
2.05586
1.38517
1.5589
0.707423
0.689356
0.964554
2.25847
0.375639
1.87827
0.265799
1.64753
0.473017
0.849004
0.546658
2.1199
0.69379
0.626978
4.00373
0.350683
3.28853
0.440089
0.20128
1.70255
0.243858
3.96672
0.528271
0.476451
1.24438
0.375673
0.196369
1.19173
2.88166
0.454641
2.44878
3.78877
0.416459
0.217185
0.959544
3.31546
2.93124
1.21669
0.545602
0.201408
3.12474
1.1317
3.39323
0.563731
1.65599
3.94403
2.32402
0.986057
2.98589
3.30192
1.59715
1.23052
2.9646
4.0556
1.49673
2.11574
3.70418
2.15676
0.641701
1.38544
0.235375
2.73975
2.0037
2.78343
0.273494
3.45973
2.61234
1.27694
2.68992
0.316713
3.5091
3.03476
1.77804
3.51117
0.222714
0.521792
1.18429
0.503545
0.390642
1.46355
1.14904
2.12499
1.93119
0.700325
0.25939
2.2502
2.80455
3.17808
2.25422
0.411824
2.20534
2.36166
0.484473
1.58749
1.4436
4.34576
1.20309
2.00234
2.1577
2.18958
2.98722
1.26123
0.826513
0.758299
1.41597
2.36543
2.75337
1.24969
0.316546
1.18962
1.73957
0.938833
1.02984
2.17714
0.909564
3.68544
0.264813
1.65554
2.67052
3.05832
1.1398
1.90196
3.90649
2.61097
0.625709
1.24244
0.463621
3.41441
1.45957
0.551143
0.525814
0.913712
2.32974
3.55506
0.635115
0.841623
0.222931
0.27919
0.393323
2.44381
2.29639
1.31483
1.8698
1.95042
1.41888
1.75254
0.612189
2.25897
2.09072
0.948688
2.91061
1.82328
3.07331
0.609531
1.66637
0.659391
1.52571
2.26977
0.384873
0.495758
1.89503
1.70403
2.25429
1.123
3.78846
0.829828
1.00547
0.742448
0.278521
0.824447
1.07491
1.44213
3.62797
3.50195
0.769225
3.14204
1.24009
0.51792
3.40855
1.05176
1.84021
2.94359
1.29493
2.17946
1.10168
1.85791
1.20022
1.51081
0.848998
1.62737
2.20556
3.89806
3.39293
0.305547
1.04757
0.742268
0.77196
2.16823
2.52305
1.26205
1.42782
2.26205
0.52418
2.34595
0.758141
4.46885
0.682264
3.51705
1.17135
1.19973
1.1342
1.18923
1.1914
1.23512
1.15617
1.59215
1.59095
1.70005
1.61962
1.55773
1.5198
1.55035
1.48764
1.8063
1.20786
1.35985
1.88455
1.88496
1.61152
1.75433
1.48114
1.46558
1.44964
1.09785
1.7218
0.2198
0.257263
2.65488
0.718529
0.535033
0.670125
0.272345
1.2392
3.66173
1.88944
3.74243
0.933164
0.487341
0.375834
1.75164
0.674222
2.53816
1.32845
2.173
1.3503
1.07588
4.14567
2.57411
1.40822
1.10568
0.579306
0.282816
0.224015
0.259197
0.987069
1.57355
2.44008
3.30893
0.416459
0.500938
1.35727
0.658223
0.752716
0.656381
3.51546
1.32031
0.632314
1.2647
1.13714
0.902699
0.452859
2.17281
1.39794
1.68634
2.73548
2.1937
2.89167
0.684632
1.89366
2.83784
1.28663
4.09733
0.806254
1.33086
0.53229
1.94474
3.04415
0.18552
1.49344
1.16113
2.61869
0.250239
2.64859
2.60842
2.61324
1.25295
0.78654
1.59368
2.37154
0.989867
0.859418
0.633099
2.10425
2.86087
3.51757
0.498161
1.36684
3.72513
1.0708
3.4214
1.71348
0.589583
0.251291
1.56518
1.31637
3.22157
4.86698
1.61602
2.65832
0.275886
0.577947
2.44261
2.03974
3.44803
0.382006
0.939395
1.4198
0.618863
0.22711
1.4963
0.250236
0.907325
2.60518
0.236189
0.230901
1.89477
0.33401
2.65469
1.17731
1.06004
3.56466
1.0578
1.55088
3.09036
1.91223
3.11273
1.18864
1.00838
2.0857
1.57403
0.747923
1.52337
3.01782
1.66336
0.540625
0.933981
2.34457
1.3379
0.845918
2.66851
0.251225
1.67008
0.592092
0.71036
0.461386
0.548069
0.581612
0.898981
0.330377
1.30744
3.9009
1.17033
0.642514
0.67326
2.34148
0.622399
0.517768
1.24354
3.2991
0.926142
0.63872
0.645686
0.272202
0.47213
0.570251
0.521585
3.25059
1.1162
1.14969
0.752503
0.100272
2.40319
1.6581
0.293603
0.587928
0.299698
0.796732
0.261948
0.300132
0.301619
0.99301
0.550304
0.254561
1.34088
0.277231
0.292372
0.28495
0.281473
0.657567
0.696192
0.259728
0.279931
0.300196
0.303561
0.80106
3.77523
2.30834
1.24475
1.19276
2.36122
3.70994
1.36204
1.24759
1.04254
2.10265
1.50627
0.614288
0.457142
2.86559
1.49477
3.97875
2.50032
0.21067
3.40485
1.05532
1.45941
0.713015
1.93219
1.659
3.03845
0.403232
2.36836
1.67319
1.90011
1.02424
1.30397
0.249314
0.758489
0.961436
1.47746
1.44621
1.31112
1.54437
1.67798
0.699816
0.680909
1.25286
1.29805
2.25491
3.12242
3.54696
3.7584
0.550952
0.237343
1.32095
1.6187
1.46513
1.00058
0.590287
0.782855
1.09688
3.5557
0.732569
0.800162
3.43224
0.49752
0.408879
0.792233
1.5204
1.20805
3.67937
0.5192
1.85202
1.26028
1.02939
2.26791
4.39384
0.951308
3.30741
2.76621
0.675781
1.57959
1.72292
1.08314
0.604844
0.476875
2.99016
1.47679
3.16919
3.10074
3.66454
4.49476
0.779049
1.29432
2.09416
1.734
1.72372
3.58171
0.839424
0.490482
1.7069
2.13569
0.377391
3.37615
1.72423
1.47613
1.36183
1.21112
0.506496
0.727643
0.825611
1.42358
0.524985
0.890508
1.02643
0.96342
1.28653
4.9974
0.261881
0.662632
0.968747
0.438308
0.597014
1.36164
1.07074
0.617401
0.246051
1.50256
0.794525
2.10137
3.64356
3.56411
0.455151
1.4055
0.247348
3.19733
1.25516
0.255395
1.87497
1.28021
3.01844
3.22154
1.68906
1.72007
1.36741
0.725524
0.416925
2.97598
0.580939
0.277569
1.54994
0.283401
3.30233
0.769536
1.71241
0.540998
3.16158
1.76264
0.227608
3.72197
0.901238
0.251073
3.19525
2.73576
1.23847
1.66523
0.874827
3.56628
1.10822
2.81082
0.649737
1.29887
1.40022
2.52365
1.86047
3.79782
4.40722
1.3151
1.99886
1.74343
2.79578
0.243498
1.02604
1.42678
0.242184
3.69269
0.475287
1.53982
3.36554
1.02191
3.03044
1.62574
0.246562
1.1373
1.2242
0.448882
0.804398
0.778681
0.7915
1.15591
4.87824
3.78868
2.10327
1.26009
0.393113
0.64461
1.07315
1.15225
2.14111
0.822345
1.8957
2.14522
3.39456
1.95847
1.46472
3.18456
0.250033
1.74011
3.05511
2.36397
0.770128
0.898409
0.518502
1.16779
0.585325
1.12728
1.25819
3.29694
0.295025
0.262243
1.54591
1.12544
1.56439
3.48694
2.56047
0.230427
1.71254
0.529631
0.25228
0.295317
0.46451
0.637751
4.57785
0.245996
3.44404
0.72924
1.22122
0.45941
0.243941
3.05437
0.271941
0.70432
1.41136
0.708282
2.90277
1.13098
2.03792
1.46522
1.20681
0.879183
0.868046
0.827736
0.956399
1.03448
2.96341
0.212417
1.4807
1.58875
1.18122
1.49302
1.36581
3.69084
0.840197
1.26633
0.645635
1.27217
3.29334
1.17981
0.42693
0.171623
0.275826
0.619261
2.3393
1.53804
1.70678
1.65585
1.40976
0.769363
3.41744
2.0473
1.77673
1.50681
0.998857
2.05297
3.45841
0.508263
0.971104
2.3243
0.706412
3.16419
1.09644
1.63158
2.87209
1.75153
2.513
2.39112
1.74022
2.48066
0.486245
0.851111
0.624828
0.26424
1.24655
0.598614
2.03644
1.1852
1.78688
1.46143
2.97494
1.98197
2.91686
0.652041
3.66029
3.3986
1.18367
0.398503
3.26338
1.19576
0.931186
0.909485
1.52993
1.10899
2.62427
1.29098
0.905743
0.646796
0.288851
1.60615
1.93848
1.48407
0.925845
1.83931
1.30622
0.691811
1.64268
0.272205
0.446797
1.24241
1.3331
0.387956
0.491923
0.870407
0.339182
0.85139
1.90359
0.691581
0.320604
0.925834
1.98091
1.00487
1.00211
0.639925
1.13192
0.287195
0.263943
0.267901
0.596071
0.769844
0.483467
1.80871
0.209599
0.176522
1.53437
0.394441
0.954129
0.625981
0.780009
)
;

boundaryField
{
    frontAndBack
    {
        type            empty;
    }
    wallOuter
    {
        type            kqRWallFunction;
        value           nonuniform List<scalar> 
108
(
1.09171
1.39245
1.06035
0.217371
0.220497
0.350683
0.440089
0.20128
0.243858
0.375673
0.196369
0.454641
0.416459
0.217185
0.201408
0.235375
1.27694
0.503545
0.390642
0.316546
0.27919
1.31483
0.278521
0.51792
1.17135
1.19973
1.1342
1.18923
1.1914
1.23512
1.15617
1.59215
1.59095
1.70005
1.61962
1.55773
1.5198
1.55035
1.48764
1.8063
1.20786
1.35985
1.88455
1.88496
1.61152
1.75433
1.48114
1.46558
1.44964
1.09785
0.257263
0.487341
1.40822
0.224015
1.13714
1.33086
0.53229
1.36684
0.939395
0.230901
1.0578
1.18864
1.00838
0.592092
0.548069
0.330377
0.622399
0.47213
0.570251
1.1162
0.100272
0.100272
0.293603
0.299698
0.300132
0.301619
1.34088
0.277231
0.292372
0.28495
0.281473
0.657567
0.696192
0.259728
0.279931
0.300196
0.303561
0.80106
1.24759
1.04254
0.21067
0.713015
1.02424
1.30397
0.732569
0.800162
1.26028
1.02939
0.794525
0.242184
1.07315
0.822345
0.262243
0.529631
0.245996
0.171623
0.275826
1.40976
)
;
    }
    inlet
    {
        type            fixedValue;
        value           nonuniform 0();
    }
    outlet
    {
        type            zeroGradient;
    }
    wallInner
    {
        type            kqRWallFunction;
        value           nonuniform List<scalar> 
126
(
1.00348
1.37335
0.518143
0.629362
1.16201
1.27528
0.585937
0.447049
0.87302
1.36422
0.216315
0.91501
0.223835
0.459192
0.896557
0.739334
0.268436
0.480693
0.271163
0.715384
1.26153
0.412434
1.11182
0.309765
0.466537
0.824574
1.25714
0.275953
0.186613
0.622564
0.338795
0.197483
1.20577
1.48287
1.45564
0.780424
0.23773
1.29971
0.668055
1.15104
0.977401
0.603751
0.416287
1.19881
1.09089
0.621053
0.506564
0.7411
0.30745
1.44743
0.592797
0.327012
1.35285
1.64834
1.1588
0.162481
0.63605
1.69927
1.51011
0.852676
0.588515
0.153839
0.666474
1.97863
0.645584
1.70511
1.38887
0.372038
0.960359
1.22061
1.23752
1.24527
0.388892
1.20155
1.34548
1.94418
0.270887
0.289943
0.287001
0.195893
0.286974
0.237197
1.71165
1.86045
1.77795
2.29908
1.97277
2.11574
0.77196
2.52305
1.55088
1.13098
0.827736
1.83931
0.691811
1.64268
0.272205
0.446797
1.24241
0.387956
0.491923
0.870407
0.339182
0.85139
1.90359
0.691581
0.320604
0.925834
1.98091
1.00487
1.00211
0.639925
1.13192
0.287195
0.263943
0.267901
0.596071
0.769844
0.483467
1.80871
0.209599
0.176522
1.53437
0.394441
0.954129
0.625981
)
;
    }
    procBoundary1to0
    {
        type            processor;
        value           nonuniform List<scalar> 
29
(
0.644033
0.644033
0.586252
0.981083
1.72151
1.04282
1.92343
0.948551
1.49507
0.908328
0.949045
1.04282
0.586252
0.563296
1.15141
0.484218
1.72151
1.75473
0.981083
0.659185
0.302019
0.219623
1.47173
0.287866
0.287866
1.47173
0.239824
0.870481
0.239824
)
;
    }
    procBoundary1to2
    {
        type            processor;
        value           uniform 0.383491;
    }
    procBoundary1to3
    {
        type            processor;
        value           nonuniform List<scalar> 
48
(
2.87267
2.49819
2.90912
2.90912
1.66638
2.34818
2.34818
0.520239
2.03934
0.351253
0.378739
0.351253
0.29249
0.572862
0.512237
0.29249
0.292295
0.292295
0.306585
0.306585
0.811011
0.830891
0.327999
1.04612
1.04612
0.26579
0.771571
0.771571
0.616647
1.25452
0.497199
0.616647
0.520239
1.57623
0.239087
1.25452
0.738524
0.378739
2.58756
1.33114
0.745015
1.23229
1.57623
0.239087
0.415787
0.973389
1.54011
0.745015
)
;
    }
}


// ************************************************************************* //
