/*--------------------------------*- C++ -*----------------------------------*\
| =========                 |                                                 |
| \\      /  F ield         | OpenFOAM: The Open Source CFD Toolbox           |
|  \\    /   O peration     | Version:  v1912                                 |
|   \\  /    A nd           | Website:  www.openfoam.com                      |
|    \\/     M anipulation  |                                                 |
\*---------------------------------------------------------------------------*/
FoamFile
{
    version     2.0;
    format      ascii;
    class       surfaceScalarField;
    location    "0.41";
    object      phi;
}
// * * * * * * * * * * * * * * * * * * * * * * * * * * * * * * * * * * * * * //

dimensions      [0 3 -1 0 0 0 0];
oriented        oriented;


internalField   nonuniform List<scalar> 
2776
(
-0.000850178
-0.000130182
0.00073066
0.000249701
-0.000878399
0.000950393
0.000302594
-0.000374588
-0.000591297
-0.00021415
0.000355794
0.000449653
0.000188671
-8.99643e-05
0.000975914
-0.00107462
-8.09642e-05
0.000237454
-6.39038e-06
-0.0001501
-0.000119359
-0.000451325
0.000380189
0.000190496
-0.000235374
2.91132e-05
0.000685799
-0.000191279
-0.000835118
0.000340599
0.000986034
0.000867964
-0.000871754
-0.000982243
-0.000949384
0.000751751
-0.000228273
0.000425906
-0.000346256
-0.001144
0.000519048
0.000971208
0.00042571
0.000178077
-0.000557791
-4.59959e-05
0.000868774
0.000113302
-0.00134079
0.000358717
-0.00011924
-0.000134793
0.000173068
0.000115834
-3.94735e-05
-0.00019572
0.000483179
-0.000144198
-0.000685238
-0.000326426
0.000414591
0.000263895
-0.000352059
3.08303e-05
-0.000480864
0.000450033
0.000520044
-0.000155087
7.88775e-05
-0.000443835
0.000784354
-6.35738e-05
6.45723e-05
-0.000785352
-0.000693638
3.7005e-05
-2.65349e-05
0.000683168
2.16214e-06
0.00021675
-0.000313375
9.44632e-05
0.00058096
2.26078e-05
-2.25805e-05
-0.000580987
0.000756295
4.72981e-05
-3.51036e-05
-0.00076849
0.000302013
-0.000374037
-0.00114819
0.00122021
2.22846e-05
-3.07836e-07
3.11198e-05
-5.30965e-05
-0.000237717
3.35012e-06
0.000116873
0.000648239
-0.000729498
-3.56141e-05
0.000138043
-0.000146497
0.000198085
-0.000189632
-0.000358853
0.000410757
0.000626329
-0.000678233
0.000557826
-0.000837903
-0.000108847
0.000388924
5.24377e-05
-5.54231e-06
4.69351e-06
-5.15889e-05
0.000269061
-0.000110206
-0.000234498
7.56424e-05
-0.000289247
0.000252378
-0.000700918
0.000737787
3.87996e-05
9.05566e-06
0.000377165
0.000329433
-0.000197801
6.41179e-06
-0.000505314
-0.000104499
-0.000288088
0.000359372
0.000968473
-0.000234273
-0.000734201
2.88574e-05
-0.000490165
0.000461307
-7.55922e-05
0.000558939
-0.000483346
-0.000470131
0.000535753
-6.56222e-05
-0.000469743
0.000467969
1.77459e-06
-0.000383487
-5.01919e-05
0.000433679
0.000418316
3.3866e-05
-0.000452182
0.000914446
-0.00018397
0.000927238
8.63672e-05
0.000299596
-0.000317522
1.79258e-05
-0.000273172
0.000317176
-4.40049e-05
-2.17368e-05
0.000116869
-9.51326e-05
-0.00023075
0.000148419
8.23308e-05
-0.000213002
-0.000665397
-0.00036365
-8.76756e-05
0.000290196
-5.27419e-05
0.000386404
-0.000117342
-0.00106453
0.00136654
0.000761203
-3.44205e-05
-0.000726782
-0.000944465
-0.000199536
-0.000129387
2.35884e-05
0.000105799
-0.000803845
-0.00014554
3.08098e-05
-1.22404e-05
1.32123e-05
-3.17817e-05
-0.000259962
0.000216786
-3.24164e-05
0.000427046
-0.000355764
-4.24249e-05
-0.000204713
5.0634e-05
0.0005953
-0.000441221
0.00077757
-0.000675736
-0.000185446
8.36112e-05
0.000288738
-0.000361192
7.67004e-05
-4.24721e-06
0.000243837
5.64402e-06
-4.34746e-05
-0.000206007
-0.000224844
-5.77389e-05
-0.000489015
0.000871079
-0.000874452
6.74017e-05
-6.40284e-05
0.000189246
-0.000289263
-0.000147926
0.000247943
0.000156832
-0.000141433
3.42976e-06
-1.88281e-05
5.31433e-05
-0.000541882
0.000488739
5.90973e-05
-0.0006156
0.000556503
0.00103505
-0.000442765
-0.000791095
0.000198814
1.64351e-05
-3.89456e-05
5.33204e-05
-0.000635139
-7.25407e-05
0.000309299
0.000398381
-5.35576e-05
-0.000256072
4.96677e-05
-4.48617e-05
0.000481033
-9.12566e-06
-6.17855e-05
1.91355e-05
4.265e-05
0.000109625
-0.000390819
0.000342256
-6.10622e-05
-0.000600456
3.30174e-05
-5.68934e-05
0.000624332
-0.000296218
0.000478156
0.00033711
2.19093e-05
0.000280087
1.79269e-05
-0.000319923
-0.000327761
-6.17349e-05
0.000285001
0.000104495
-0.000604711
1.39839e-05
0.000596333
-5.60637e-06
-3.83002e-05
0.000586432
-0.000574544
2.64122e-05
-0.000577171
0.00105063
-0.000762707
4.27438e-05
-1.76311e-05
0.000327677
-0.00035279
0.000770827
-0.00040281
2.90809e-05
2.27106e-05
7.62077e-05
-0.000127999
6.88351e-06
9.00079e-06
6.40027e-06
-0.000233453
6.56088e-05
-6.98732e-05
0.000303473
-0.000825517
0.000710715
-0.000151871
0.000311842
-0.000480779
0.000320808
-0.000110115
-0.000311391
0.000230227
-0.000204894
0.000811695
0.000138698
-1.72267e-05
-7.84944e-05
5.33232e-05
-5.97136e-05
0.000149439
2.32419e-05
0.000125177
2.35071e-05
0.000276089
-3.97191e-05
-0.000233452
-0.000496137
2.63936e-05
-0.000110654
-0.000724464
-4.64732e-05
-2.73256e-05
0.000369427
0.000601781
-8.89757e-05
-5.31723e-06
-2.07035e-05
1.37803e-05
0.000529002
-0.000556984
2.53075e-05
2.67416e-06
5.40778e-05
-0.000636834
0.000452574
0.00027793
0.000473821
-9.53147e-06
-7.68675e-05
2.59118e-05
6.04871e-05
0.000420187
-0.000117886
0.000138033
-0.000427825
0.000715502
5.55443e-05
-0.000244465
-4.6453e-05
-1.69464e-05
0.000241783
4.16112e-05
-0.00100004
0.000885681
2.43911e-05
-5.49488e-05
7.79759e-05
-2.59726e-05
2.94551e-06
-0.000369274
-9.38154e-05
0.00030758
0.000155509
-1.37161e-05
-0.000369771
-2.81218e-05
0.000446438
0.000403956
-0.0001928
-0.000682494
0.00017852
0.000609128
-0.000105154
-0.000207846
0.000703323
4.49521e-05
-0.00054043
-0.000348671
0.000989816
6.85581e-05
-0.000709704
-5.72067e-05
8.6075e-06
7.72609e-05
-2.86618e-05
0.000110193
0.00052391
0.000140696
0.000674696
-7.48127e-06
-1.16065e-05
4.09507e-06
1.49927e-05
-0.000414198
0.00030633
0.000229985
-9.97253e-05
5.79487e-05
-0.000131943
-8.49895e-05
0.000720996
2.17828e-05
-0.00065779
0.000716809
1.83411e-05
-1.52399e-05
-0.00071991
0.000502628
-2.4848e-05
3.1057e-05
-0.000508837
0.000212148
-0.000129441
-0.00013777
5.50636e-05
-0.00055613
-9.37914e-05
1.80363e-05
0.000631885
5.79159e-05
4.19777e-06
-9.676e-06
7.41506e-05
-3.81954e-05
-2.89647e-05
-6.9905e-06
0.000128644
-0.000109916
3.23736e-05
-5.11018e-05
0.000177453
-0.000142914
-5.45789e-06
7.12676e-06
-9.77472e-06
0.000226192
-0.000419614
0.000496015
-0.000814471
-9.48803e-05
0.000226857
9.42607e-05
-0.000112711
-9.16648e-05
-0.000172353
-4.01949e-05
-2.39647e-05
0.000236513
0.000227078
-7.59499e-05
7.58066e-05
0.000709758
-4.69496e-05
-0.000738615
0.000771297
-0.000596729
-0.00075174
3.33864e-07
2.40975e-05
6.99714e-06
-3.14285e-05
-0.000728173
0.000234045
0.000473462
2.0667e-05
-6.92426e-06
-3.71728e-06
6.85575e-05
-0.000628045
0.000194519
0.000543151
-0.000265867
0.000227567
0.000511458
-0.000792058
-0.000147765
0.000428365
-3.23272e-05
0.000109974
-0.000346837
0.00026919
8.19349e-05
-0.000365924
0.00080124
-0.000736852
7.63088e-05
0.000539152
-0.000501334
7.23752e-05
0.000658119
-0.000555941
-4.80397e-05
-5.41384e-05
0.000102315
0.00152289
-0.00119696
-0.000428247
0.000605737
-0.000828259
0.000339395
-6.95907e-06
1.36942e-05
4.24842e-05
-4.92193e-05
0.000122632
-4.57811e-05
4.00187e-05
-4.00676e-05
9.66754e-05
0.0005325
-0.000642947
0.000110446
-0.00039617
0.00028278
-0.00124842
0.00136181
-0.000441946
-2.90571e-05
0.000607317
-0.000136313
0.000219797
-0.000188698
-0.000389952
-6.57488e-06
-1.14781e-06
2.40545e-06
3.92383e-05
2.8506e-05
8.90875e-05
-0.00130871
0.00115157
-0.000245902
0.00040304
0.000380527
-0.00032557
-0.000129798
7.48414e-05
0.000146454
-0.000549679
0.000525639
-0.000122414
-0.000152566
-1.33449e-05
0.000106874
5.90361e-05
-2.49094e-05
-7.30824e-07
0.000362003
-0.000336363
0.000599437
2.96534e-05
-4.2658e-05
-0.000594635
6.42501e-06
-1.65008e-05
-0.000354336
-0.000185412
0.000211986
-0.000987415
-0.000168951
0.000281915
-3.88918e-05
2.81304e-05
-5.10241e-05
0.000688327
-0.000185736
-0.000587581
4.24341e-05
-3.28126e-05
3.59085e-06
-0.000445744
0.000351484
0.000397733
0.000298808
0.000362115
-0.000583914
-7.70096e-05
0.000114433
0.00015876
-0.00100137
3.44789e-05
-1.42932e-05
-2.67606e-05
-8.73678e-05
-0.000201896
-0.000406106
0.000330653
0.000528375
-0.000452921
-0.000248368
4.83204e-05
4.36171e-05
0.00015643
-0.000722497
0.000465176
-0.000432816
-0.00025674
0.000243813
0.000108321
-3.68832e-05
-0.000495708
0.000440579
0.000363557
-0.000308427
-0.000311771
0.000314778
3.15745e-05
-3.45808e-05
-0.000127587
-4.56616e-05
3.1815e-05
-0.000241457
-0.000432749
7.15424e-05
0.000723322
0.0004902
0.000775332
-0.000413338
-0.000852194
-6.14713e-06
1.01632e-05
1.34564e-05
-1.74725e-05
1.65602e-05
0.000778173
-1.03794e-05
4.43675e-05
0.000564674
-8.89973e-05
-2.72544e-05
-3.37566e-06
-0.000603968
0.000634598
-2.39011e-05
2.34605e-05
-0.000251874
0.000252314
0.000419755
-0.0001637
0.000349681
7.69947e-07
-0.000692192
-2.21603e-06
1.9051e-05
-0.000601598
0.00081597
-0.000233424
0.000617324
0.000114442
-0.00013233
-0.000552957
-2.2627e-05
-0.00023979
-0.000446108
0.000331562
-0.000192654
0.000740444
0.00025345
-0.000153608
0.000514459
0.000178301
-4.20713e-05
7.41667e-07
-3.55379e-05
-7.28461e-05
-1.72935e-05
5.45382e-05
-4.07627e-05
-5.81329e-05
-0.000462232
0.000332417
-0.000116659
-0.00016013
6.92534e-05
0.000207536
6.21281e-05
0.000142135
-8.59055e-06
-0.000195673
-2.58198e-06
-1.2019e-05
-8.27922e-05
4.07897e-05
-6.87705e-08
3.90474e-05
-6.33875e-05
2.77699e-05
-4.31969e-05
0.000305733
-0.000529905
0.000267369
7.71487e-05
-0.00042801
-0.000233053
-6.9164e-05
0.000412605
-0.000373408
2.99664e-05
0.000154421
9.84872e-05
-0.000136254
-0.000116655
-2.01078e-05
-0.000240177
4.1842e-05
-7.88832e-05
5.82633e-05
-2.12221e-05
6.52253e-06
0.000197749
0.000123202
-0.000105864
-0.000215087
8.45121e-05
-5.04008e-05
-0.00042493
0.000459011
-0.000304172
-0.000341176
2.5587e-05
-5.29387e-08
-1.59818e-05
-9.55231e-06
7.88255e-05
-0.000622358
-2.61581e-06
2.59609e-06
-4.77168e-05
4.77365e-05
-0.000254084
0.00089296
-0.000281677
0.00024156
-2.86937e-05
6.88113e-05
-0.000309235
0.000739189
0.000592692
0.000198703
-0.00017407
0.000810722
-0.00041913
0.000885227
-5.26329e-05
7.03614e-05
0.000481193
-0.000498921
-2.9787e-06
5.41038e-05
-5.72723e-05
6.30799e-05
1.14046e-05
-7.2063e-05
0.000634056
-0.000775201
-0.000951472
0.00117751
0.000549164
-0.000436116
0.00043274
-0.00025722
0.000371662
7.05952e-05
-4.71347e-05
-2.59175e-05
0.00039622
-2.50856e-05
0.000507128
-2.91197e-05
-6.11539e-05
0.00043767
-0.000438249
-0.000497464
0.000498042
-2.99338e-05
-0.000428199
0.000507521
-7.93221e-05
-5.54253e-05
7.03418e-05
-0.0005801
-0.00013971
-0.00128061
0.000645114
0.000203159
-0.000469026
-0.00042541
-1.0706e-05
7.88748e-05
-8.27961e-06
1.24736e-05
7.58082e-06
-9.89125e-06
-2.32145e-05
3.10829e-05
-4.16286e-05
6.43851e-05
3.23307e-05
-0.000697722
0.000244701
-0.000157994
0.000611016
-0.000586111
0.000449926
0.000167447
-0.000201674
-7.56887e-05
2.76323e-06
4.00019e-05
1.05362e-05
-5.33013e-05
-0.000304393
0.000233851
0.000166528
-9.59862e-05
0.000313541
-0.000183637
0.000431678
-0.000561582
-0.000556767
0.00050463
0.000222146
3.51185e-05
-0.000125535
-0.00013173
8.18212e-05
-0.000121006
9.65438e-05
-5.73589e-05
0.000338234
-0.000419618
2.59585e-05
-1.91449e-05
0.000317184
-1.57438e-06
2.0152e-05
5.01075e-06
0.000921523
-0.000836159
-0.000498702
0.000539811
0.000378206
-0.000739497
0.0005604
0.000170259
-0.000813971
1.75611e-05
-0.000797914
0.000413733
-1.71399e-05
-0.000168272
0.000411426
-0.000405001
6.9806e-05
-0.000107781
-5.71575e-05
-4.11964e-05
9.56147e-06
2.51524e-06
-6.23741e-05
-0.000102974
8.93511e-05
7.59965e-05
-2.80961e-05
5.6349e-05
4.83354e-05
-7.65883e-05
6.59541e-05
-1.33263e-05
-5.26278e-05
-0.000553112
0.00138059
-0.00108156
0.000557592
-0.000582354
-0.000663947
-0.000107719
-0.000195595
0.00018857
-0.000110526
-0.000100379
9.66173e-05
0.000114288
0.000114429
-0.00016942
0.000328474
-0.000273483
-0.00087727
0.00090547
0.000365943
-0.000394143
-0.000154483
0.000102096
-0.000805943
0.000858331
-0.00108991
0.000534359
0.000750067
-0.000129051
0.000435664
-0.000387683
0.000779456
0.000131187
0.000283279
-0.000152586
-0.00026188
7.61755e-05
-0.000455857
4.81476e-05
0.000331534
0.000638707
-4.09722e-05
9.58223e-06
-6.15446e-05
5.45612e-05
4.50733e-05
-3.80899e-05
0.000692612
-1.11611e-05
0.000315589
-0.000997041
-0.000147468
0.000211677
5.02193e-05
2.62227e-05
9.85687e-07
8.86261e-05
-4.0601e-05
4.41429e-07
-1.03681e-06
-0.000900578
-4.80603e-05
8.95958e-05
0.000859043
-0.00096863
0.000471263
0.000991419
-0.000494053
0.000105846
-0.000451247
0.000571928
0.000571931
-7.84214e-06
7.98957e-06
-6.69349e-05
0.000146659
0.000383492
-0.000463215
5.98481e-05
-0.00053016
0.000501142
-0.000466236
-0.000159431
0.000168574
-0.000223293
0.000754647
-0.000847135
0.000337189
-0.000208809
0.000293996
0.000352482
0.00119533
-0.00055026
0.000260557
-0.000905631
0.000441392
-7.38811e-05
-0.000253078
7.92943e-05
-2.49787e-05
-0.000131906
0.000151635
0.000168813
-0.000188542
0.000119102
-3.1062e-05
-7.76388e-05
-1.04014e-05
-0.000202708
-0.000148829
0.000261015
9.05219e-05
-0.000409049
-5.4922e-06
-0.000437654
0.000359653
0.000284923
0.000287827
-0.000446974
0.000512552
-0.000353405
0.000478969
0.00108247
-3.85462e-05
-1.01001e-05
7.60542e-05
-0.000577064
-1.97703e-05
0.000787982
-0.000677969
0.000382138
-0.000492151
-0.000150288
-0.000807276
-2.98517e-05
0.000237187
0.000494787
-0.000518788
-0.000691677
0.00152759
0.000359419
-2.46276e-05
-0.00112593
0.00129014
-0.000139575
-3.31661e-05
0.000104873
0.000106216
-0.000156528
0.000155433
0.000245406
0.000456056
-0.000372029
-7.68994e-05
-0.000473361
0.0013202
-0.00054287
-0.00146901
0.000354552
-0.00044384
6.4835e-05
6.87231e-06
0.000344172
-7.04873e-05
5.51473e-05
-4.14506e-05
0.000597319
-6.9628e-05
-0.000316622
0.000369552
1.6698e-05
-0.000117239
-1.00764e-05
-4.90986e-05
0.00027009
2.28455e-05
0.00068215
-0.000629162
-0.000521154
0.000468166
0.000681237
-0.000863561
0.000643024
-0.000460699
-0.000170367
9.34677e-05
0.000206804
0.00060299
-0.000460589
0.000315676
0.00105038
0.000306206
-3.48471e-06
0.000497882
-0.000281868
-0.000216014
0.00057945
-0.000833235
-0.000205063
0.000111849
-6.62166e-05
-0.000507623
-7.06441e-05
1.66186e-05
0.000561649
0.000216055
0.000385444
-0.000423422
0.000706127
-0.000208245
-0.000407413
-0.000110575
0.000366117
0.000479959
-0.000689059
0.000244822
-7.88019e-05
9.92775e-06
-0.000175948
-1.5473e-06
0.000291377
-5.34536e-05
-0.000236376
0.000310107
-6.68322e-05
-1.73652e-05
0.000377507
-5.00351e-05
-0.000348326
-8.25164e-05
0.000386585
4.42579e-05
-7.43142e-05
0.00044934
-0.000259108
8.0906e-05
0.000226493
0.000141941
7.65137e-05
0.000332867
4.27161e-05
0.000245475
3.53986e-06
-1.48139e-05
4.44732e-05
-3.31991e-05
-0.000184757
3.61051e-05
0.000205523
-5.68714e-05
3.50226e-06
-0.000168637
0.000146218
1.89164e-05
3.84374e-05
-0.00020393
-1.92639e-05
3.22623e-05
-2.55941e-05
-3.32735e-05
2.66052e-05
2.66455e-05
-4.1563e-05
9.51776e-05
-8.026e-05
4.77553e-05
-0.000126045
-0.000256505
0.000962632
3.08769e-05
2.39744e-05
-2.2589e-05
7.10991e-05
-4.44536e-05
2.00457e-05
-2.38177e-05
5.15273e-05
9.31435e-05
2.3446e-05
-0.000524189
0.000104686
-0.000511076
0.000930578
4.77095e-05
0.000160211
-0.00112877
-0.000212935
0.00111583
0.000225876
-6.06836e-05
1.86063e-05
6.5445e-05
-2.33676e-05
0.000572859
-0.000281917
-0.000815131
3.13775e-05
0.000145755
-0.000296652
0.000118965
0.000225267
-4.758e-05
0.000129886
-9.63961e-05
-0.000134282
0.000100793
1.38979e-05
4.24497e-05
-2.34271e-06
-5.40048e-05
-5.31974e-05
0.000730742
-0.000494432
0.000472612
-5.75793e-06
7.49598e-05
-0.00023559
-0.000314051
0.00028332
0.000266321
0.000183474
0.000141267
0.000181609
4.95744e-05
3.30676e-05
-0.000122903
2.89912e-05
1.11293e-05
-0.000280165
0.000139651
-0.000270251
0.000410765
-2.06086e-05
-2.5008e-06
-7.32867e-05
5.75917e-05
-8.39582e-05
-7.62442e-05
9.13919e-05
-0.000295313
-0.000700141
-0.000104371
-3.23105e-05
6.04376e-05
-0.000176201
2.38292e-05
0.000260108
-9.44089e-05
7.58544e-05
5.95933e-06
1.26401e-05
7.02398e-05
-5.37667e-05
-0.000149386
-3.20683e-05
0.000221741
3.89772e-05
-1.89036e-05
-7.03512e-05
5.02776e-05
-6.35499e-05
3.3198e-05
-1.12111e-05
3.32469e-05
-0.000203614
0.00109283
4.14056e-05
-0.00113424
0.000143317
-0.000162909
0.000245784
7.50413e-05
-3.94218e-06
1.76901e-05
-9.35161e-05
4.04162e-05
-9.53961e-05
5.498e-05
0.000105762
1.46726e-05
-3.7915e-06
-1.93635e-05
1.32359e-05
4.61753e-05
-4.26355e-05
5.87816e-05
0.000103534
-0.000147643
-1.24955e-05
-3.83706e-05
0.000137527
9.0537e-05
-8.47468e-05
0.000434851
9.44446e-05
-0.000475217
0.000173024
-0.000188531
0.00111323
0.000169905
-0.000234564
0.000202185
0.000340013
0.000275242
-0.000180404
0.00013958
-0.000232984
9.6061e-05
-2.65686e-06
-0.000114682
0.000253222
0.000134925
-0.000273466
0.000193342
-0.000260742
-6.76116e-05
3.61728e-05
3.14389e-05
0.00140016
-5.40994e-05
-5.92673e-05
1.37039e-05
3.07495e-05
6.88228e-05
-2.26475e-05
-0.000103503
-3.30855e-05
0.000169317
-3.27278e-05
7.64828e-05
0.000338044
-0.00013444
1.21119e-06
0.000145162
-8.99379e-05
0.000108765
-1.03962e-05
2.89503e-05
-7.12461e-06
0.000129957
-0.000156977
0.000136975
-0.000176228
0.000173267
0.000116162
-7.33743e-05
0.00021051
-0.000127742
-0.000349509
0.000361463
-9.44696e-05
-8.67498e-06
3.88365e-05
5.7331e-05
3.50731e-06
0.000121076
-0.000181915
-0.000108198
-0.000315626
8.48288e-05
-0.000114261
0.000211133
-0.000101132
0.000157739
0.000110267
-0.000172031
9.35693e-05
0.000102734
1.41536e-05
9.36221e-05
0.000226881
-0.000274631
5.21428e-05
-8.055e-05
-0.000332501
4.89603e-05
0.000364091
0.000286099
-6.61774e-05
-0.000241115
2.1194e-05
0.000129497
0.000176817
-9.9048e-05
-0.000207266
0.000130751
0.00105169
-0.000460141
-0.000956645
-8.09036e-05
0.000336494
3.05079e-05
-0.000156394
0.000219713
0.00110822
0.00024827
-7.2018e-05
4.86653e-05
0.000126087
-0.000169436
0.00015059
-5.23335e-05
2.77855e-05
0.000330754
-9.35322e-05
-0.000103319
4.04577e-05
0.000488877
-4.33739e-06
-0.000200276
7.94865e-05
-7.38413e-05
0.000355818
-0.000291819
-0.000100503
-0.000332306
3.54691e-05
0.000332942
-2.89019e-05
0.000572007
-0.000484615
-5.84903e-05
7.18793e-05
0.000394192
0.000703721
-0.000257539
-3.02128e-05
0.000233619
5.41328e-05
-6.60298e-05
0.000487795
-0.000444311
-0.000135035
0.000513316
-0.000209034
0.000119703
-4.28837e-05
-0.000177951
-0.000197823
-0.000411733
-0.000116671
0.000458775
-0.000824983
0.000934421
0.000221076
0.000125716
0.000209224
8.48743e-05
0.000405636
-0.000420039
-1.44986e-05
0.00022092
-7.14916e-05
-0.00016552
1.60918e-05
0.000281283
-0.000142474
-1.26909e-05
1.08462e-05
-0.00109294
0.00106831
0.00028005
-5.22531e-05
0.000344209
0.000115516
7.8206e-05
-0.000145624
0.000106255
0.000699488
0.00070918
0.00020112
2.60736e-05
-0.000936374
-0.000112327
0.000100866
0.000412828
0.000146846
0.000164581
0.000108685
-0.000269758
-2.96011e-05
0.000483004
-0.000450928
-2.47516e-06
-0.000835349
0.000699692
7.532e-05
-0.000126538
0.000291534
-0.000110453
-0.000289279
0.000171248
0.000114408
4.28471e-05
-7.08869e-05
6.12866e-05
0.000275271
0.000382213
-3.02069e-05
-2.50711e-05
9.56942e-05
0.00108051
1.23256e-05
1.55811e-05
6.93642e-05
4.80198e-05
-0.000341888
-0.00039446
0.000405369
3.71108e-05
-0.000879922
0.000561968
-0.000678675
3.98628e-05
-0.000877186
-0.0005396
-0.000621273
0.000894144
-9.89771e-05
5.85506e-05
0.000173642
-0.000229329
2.5507e-05
-0.000177446
0.000241292
-0.000893666
0.000460263
5.10661e-05
-0.000948651
0.000656794
-0.000588065
1.9113e-05
-3.57274e-05
0.000676168
-0.000659553
0.000226328
0.000269076
2.8602e-05
-0.000350046
5.2368e-05
2.35873e-05
7.51105e-05
-0.000210917
-6.49956e-05
6.47279e-05
-1.24316e-05
-0.000320504
3.28786e-05
6.98774e-06
0.000109018
0.000396872
-0.000578505
1.38451e-05
0.000417328
6.26126e-05
-8.51214e-05
-0.000553015
-0.000669099
0.00122799
5.16076e-05
-5.16946e-05
0.000515962
2.17054e-05
0.000582151
-0.000539246
-6.46103e-05
-5.96083e-05
9.65118e-05
-0.000937482
-3.1113e-05
1.49583e-05
0.000532117
-0.000515974
0.000173416
-0.000187786
0.000202083
-0.000187713
0.00143617
-0.000860639
0.000304061
-0.000879596
0.00043641
-1.72753e-05
-0.000468643
2.07987e-05
0.000753653
-0.000563384
-0.000349906
0.000159637
0.000244941
-0.000210597
-0.000117664
0.000629171
-0.000447197
-0.000386814
-3.76092e-05
-0.000140848
0.000227236
5.99709e-05
-0.00014636
-0.00114816
9.99546e-05
4.81708e-05
0.000800162
8.51187e-05
0.00020569
-0.00109097
0.000344344
-2.59006e-05
5.70229e-05
1.35011e-05
6.72613e-05
0.000401015
-0.000888209
0.000556511
-0.000146214
-0.000255038
0.000136924
0.000264327
-0.000427362
0.000650428
-0.000656081
0.000735896
-0.00043644
0.000493339
4.35933e-05
0.00112284
-0.00112502
-0.000127448
-0.000270936
0.0009124
-0.000904534
-0.000326505
0.000545031
-0.000433277
0.000951982
-0.000984941
0.000902992
-0.000890189
-0.000358227
-8.06571e-05
1.08743e-05
-0.000182326
0.000101894
0.000145267
-4.30992e-06
0.000181434
4.37957e-05
-0.000129605
-0.00010904
-0.000105114
0.000116404
0.000146449
-0.000117454
-0.000376892
0.000231553
-0.000129973
-0.000822809
-0.000259448
0.000662729
-0.000779082
-0.000555944
-0.000693271
0.000809406
0.000780147
-7.67019e-05
-0.000163634
0.000133529
-0.000873766
8.03351e-05
-9.41211e-05
8.57094e-05
-0.0008628
9.65863e-06
1.42945e-05
0.000849939
-0.000873892
5.01939e-05
1.99574e-05
0.000853675
-0.000873632
-0.000222324
7.1478e-05
-0.000165393
0.000661695
-0.000158537
-0.00012983
-6.27502e-05
-0.000563058
-0.000230935
0.00040487
-0.000431312
1.28638e-05
0.000800348
-0.000760753
-0.000654631
-0.000829135
0.000964592
0.000519174
3.56165e-05
-1.88787e-05
0.000895662
0.000142566
0.000222766
0.000983418
-0.00102307
0.000680671
-0.000103606
-0.00104531
0.00108992
5.90044e-05
-0.00111628
-2.20816e-05
6.85915e-05
-6.30214e-05
-0.00052894
-0.000153327
0.000547232
7.13005e-05
-0.000475225
-0.000139431
0.000497985
-0.000323046
3.85804e-05
-0.00102109
-0.00049014
0.000473153
0.000148174
-3.63626e-05
-2.05283e-05
8.46764e-05
-0.000503951
-0.000142443
-0.000208698
-0.000841895
-5.27775e-05
0.000894673
-1.45575e-06
-8.96319e-06
4.87663e-06
0.000272817
-0.00124607
-5.45806e-05
0.00102784
-0.000431234
1.08143e-05
-9.66432e-06
-7.55532e-06
0.000536027
-0.000518808
-5.80608e-05
3.77059e-05
-0.000934479
-5.21306e-05
2.07112e-05
-7.18998e-05
-4.07609e-05
-1.74824e-05
2.13602e-05
0.000663796
-0.00039428
0.000114255
0.000264823
0.000351613
0.000171863
0.000188018
5.45553e-05
0.000145395
-0.000403898
-4.589e-05
0.000146364
-0.000266518
0.000111563
-0.000107827
0.000146732
3.03479e-05
1.26723e-05
-2.02812e-06
-1.2453e-05
4.94689e-05
-4.7116e-05
-0.000483353
0.000775368
-0.000315776
2.37601e-05
0.000852422
-0.000849323
0.000595086
2.72117e-05
0.000227026
-2.96552e-05
0.000245753
-4.15442e-05
3.57155e-05
-1.73858e-05
1.33474e-05
-7.03271e-05
1.40959e-05
1.93545e-05
-3.48385e-05
1.5484e-05
-6.68312e-05
-1.7764e-07
-4.7298e-05
2.6081e-05
2.1217e-05
-6.85751e-05
6.18537e-05
6.72136e-06
-4.16637e-05
-0.00029305
-5.59091e-05
5.07902e-05
5.11892e-06
2.95169e-05
-0.00108995
0.00116087
-0.000481292
-0.00149471
-3.37291e-06
2.27274e-05
-7.55341e-05
0.000184301
0.000116197
-3.14229e-05
-7.13338e-05
2.40358e-05
8.85134e-06
0.000642743
-0.000623994
-0.000172076
2.2708e-05
5.94459e-06
3.13545e-06
-0.00030308
-0.000140644
-0.000167651
0.000260421
0.00014754
3.31746e-05
-8.05409e-05
5.00671e-06
-0.000154645
0.000189722
7.2504e-06
-0.000420839
4.7833e-05
0.000432854
-0.000431388
0.00051101
0.000710854
-7.53491e-05
-3.17427e-05
7.02029e-05
0.000642211
0.00113629
-0.000920933
0.000684897
7.13946e-05
0.000405451
-0.000311564
2.16297e-05
-2.63141e-05
-0.000103961
0.000118338
0.000108406
-0.000167271
-5.94735e-05
-0.00010969
-7.99856e-05
-0.000487801
1.17796e-05
-0.000593219
-9.67121e-05
5.12714e-05
0.000638659
0.000947137
9.76112e-05
-0.000272482
9.88284e-05
4.77127e-05
5.09413e-06
8.41122e-05
-8.05798e-06
0.000204161
-0.000502651
-0.000388421
-8.06991e-05
-2.04238e-05
0.00021732
-0.000136496
0.000127663
-4.17605e-05
-0.000110074
8.15076e-05
-3.40179e-06
-0.000363543
-0.000667789
0.000620839
0.000841838
4.98744e-05
-5.65979e-05
-9.36279e-06
-0.000652666
0.00040876
-2.79488e-05
-0.000301659
0.000272715
-0.000150123
0.000340392
-0.000161649
0.000123424
-4.94852e-05
8.77101e-05
0.000106097
0.000114871
7.50757e-05
-0.000142873
0.000118161
2.47125e-05
5.6663e-05
-6.62783e-05
9.6153e-06
2.31227e-05
-8.99317e-05
4.50366e-05
-0.000104394
0.000612623
0.000245424
-4.49187e-05
8.53302e-05
8.53287e-05
-7.75155e-05
-0.000368046
0.000313289
-3.43597e-06
-0.00107197
-1.69464e-05
6.58486e-05
0.00120359
-0.00114644
3.95201e-05
-4.09747e-05
4.84738e-05
0.000103867
-7.6038e-05
0.000126435
0.000427864
8.91593e-06
-1.46667e-05
0.000418356
-0.000289656
-0.000394069
1.27395e-05
-0.000799394
-0.000456336
-0.000263821
-0.000142723
5.71831e-05
-0.000316825
5.01071e-05
-1.29574e-05
-1.63201e-05
-2.08296e-05
-0.000361471
-4.91013e-05
-4.93309e-05
8.88267e-05
-0.000166783
-0.000337994
9.12771e-05
0.000503652
-4.44867e-05
9.64816e-06
-0.000271468
-0.00100398
-3.90655e-05
5.05512e-05
5.33625e-05
-8.60356e-05
-1.97874e-06
-0.00019421
-9.77303e-05
0.000266869
-8.19186e-05
0.000291933
-0.000330713
-5.64183e-05
-0.00017003
1.05728e-05
1.54307e-05
-7.8134e-05
-0.000162944
0.000558732
-3.92005e-05
3.14003e-05
-0.000194658
-0.000229265
-0.000763907
0.000978479
-0.000683709
0.000333853
-0.000479279
7.54115e-05
0.000821304
-6.39993e-05
0.000135044
9.75293e-05
-0.0001414
-0.00020737
0.000153175
0.00015622
-8.24627e-05
2.28596e-05
6.72877e-05
-1.54058e-05
-0.000122769
0.000700806
-0.000147584
-0.000670887
0.000224134
0.00011994
0.000115931
2.61613e-05
3.05017e-05
-0.000108356
0.0011674
6.56056e-05
-0.000161663
-0.000655049
-6.35374e-06
-0.000907543
0.000563286
-1.67698e-05
0.000156807
-2.11898e-05
0.000210932
-6.53489e-05
-0.000204053
0.000199969
3.91637e-05
1.94077e-05
1.85542e-05
0.000540875
7.30977e-05
-0.000187368
0.000334579
2.96037e-05
-7.43765e-05
5.88106e-06
-0.000272034
-5.81244e-05
0.000103227
-5.21603e-05
2.51828e-05
0.000166628
0.000382444
-0.000479581
-6.58063e-05
-0.000690953
-0.000509794
0.000436839
-4.42316e-05
7.73578e-05
0.000109397
-4.8818e-05
6.19653e-06
5.1161e-05
-0.000240682
0.000149598
-0.000271929
0.000703022
-9.4601e-07
0.000132501
-8.88775e-05
8.14834e-05
-0.00012886
6.30355e-06
-1.89598e-05
0.000739267
-0.000442252
-0.000194919
0.000441138
-0.00070197
-2.38395e-05
-0.000135564
8.34672e-05
0.000446939
-0.00117214
-0.000278777
-0.000160505
0.000230284
-0.000292184
-0.000126531
-0.000558663
0.000472192
-0.000151914
-6.71055e-05
2.57869e-05
-0.000480227
-0.000534572
-0.00123411
-3.44958e-06
-6.03698e-05
-0.000255758
-4.47157e-06
2.90791e-05
-4.14658e-05
1.68582e-05
0.000167203
-0.000141613
-2.455e-05
0.00023343
-0.000259281
-0.000161961
0.000473892
-0.000378867
0.000155444
-8.15294e-05
-0.000476725
0.00105673
-0.000952779
4.0957e-05
0.000375236
-0.000244759
-0.000137744
0.000218368
8.81898e-05
-2.42909e-05
8.39299e-06
1.47501e-05
-0.00013923
-0.00146863
-0.000890579
-0.000379577
0.000310228
5.95391e-05
-3.33014e-05
1.95025e-05
-0.000120157
-2.23207e-05
-9.43688e-06
-3.65442e-07
-0.000191742
-0.000273316
0.000109519
-7.16957e-05
-0.0006397
0.000656261
-0.000575128
0.000650704
5.55672e-06
-0.000548776
0.00049108
5.76958e-05
-0.000501044
-7.40842e-05
-9.96366e-06
-0.000681269
0.000682039
-0.000549719
0.000564463
-1.47441e-05
-0.000505351
-0.000632103
-4.91659e-05
0.000655504
0.000629537
2.59669e-05
-0.000560561
-0.000426474
0.000490219
-0.000444084
-4.6135e-05
-0.000329569
-9.69045e-05
-0.000235946
-9.36237e-05
0.000173532
-0.000125212
-6.24135e-05
0.000617275
1.22621e-05
0.000636033
-1.87578e-05
0.000657816
1.2309e-06
0.00053743
-0.000365244
8.59561e-05
-1.84391e-06
-9.5899e-05
-0.000195873
0.000104059
-0.000239149
0.000145737
0.000261481
-0.000262005
0.000209678
-0.00023506
-0.000660506
0.000158624
-2.25662e-05
7.1005e-05
0.000452703
-0.000556164
9.61383e-05
-0.000133193
0.000138956
0.000140166
9.58838e-05
2.22771e-05
-0.000832663
-3.89083e-05
-0.000149579
0.000118661
-7.24968e-05
9.10222e-05
-0.00080618
-0.000193492
-0.00147602
0.000530624
0.000266264
-0.000209828
-3.00424e-05
0.000655837
-0.000153177
0.000217437
0.000343861
-0.000465798
0.00103763
-0.00123817
8.35196e-05
6.95156e-07
-8.42147e-05
0.0012381
3.41332e-05
7.74566e-05
0.000205622
-0.000135086
1.23237e-05
3.20689e-05
0.000219935
0.000754029
-0.00075408
-0.000147532
-0.000119942
8.07397e-05
-0.000374094
0.000208825
0.000697769
0.000761322
-0.000761523
0.00013253
-1.54692e-05
-0.000287181
-1.0634e-05
0.000271465
-0.000162457
0.000174271
-0.000525095
-0.000790866
-0.000211385
-7.44536e-05
0.000174166
-7.81946e-05
0.000127294
-0.000223265
0.00023246
0.000225428
-0.000216329
8.84459e-05
-8.58781e-05
-9.37536e-05
-0.000283474
0.000728712
0.000104463
-2.3415e-06
-1.94136e-05
-1.73303e-05
3.59764e-05
0.000166387
0.000295757
-0.000424105
-5.93386e-06
-0.000135204
0.000686194
0.000572679
-0.000181486
-9.33772e-05
-0.000521003
-0.000620223
0.000615885
-0.000171062
1.05575e-05
-0.00078608
0.000571995
-0.000173598
-0.000322515
0.000185432
8.03249e-06
0.000126032
0.000355518
-0.000514769
-6.90221e-05
0.000201243
2.84005e-05
-1.94405e-05
3.94013e-05
-0.000576352
-4.94516e-05
-4.53368e-05
-7.5753e-05
0.000396639
0.000118813
0.00042085
0.000441479
-0.000131434
0.0001289
0.000492222
-0.000493864
-0.000133306
2.29884e-05
-5.2534e-06
-1.87719e-05
-0.000521871
-7.51724e-05
2.17386e-06
-0.000475111
-0.00133988
0.00110827
0.000173004
-8.22641e-05
0.000648527
0.000201079
6.86513e-05
5.58564e-05
4.95897e-05
-0.000212568
0.000296762
-4.14067e-05
1.34349e-05
4.73795e-05
9.21768e-06
-1.92038e-05
-0.000119619
5.63451e-05
-6.19684e-05
0.000122027
0.000756353
0.000493745
-0.00039258
-4.03036e-05
0.00023903
-0.000173502
-0.000337561
-0.000117524
0.000151407
-0.000245696
-1.69879e-05
-9.89889e-05
6.44584e-05
0.000247005
-0.000314192
2.7292e-06
-8.14161e-05
-4.30701e-05
7.6183e-06
3.14291e-05