/*--------------------------------*- C++ -*----------------------------------*\
| =========                 |                                                 |
| \\      /  F ield         | OpenFOAM: The Open Source CFD Toolbox           |
|  \\    /   O peration     | Version:  v1912                                 |
|   \\  /    A nd           | Website:  www.openfoam.com                      |
|    \\/     M anipulation  |                                                 |
\*---------------------------------------------------------------------------*/
FoamFile
{
    version     2.0;
    format      ascii;
    class       volVectorField;
    location    "0.13";
    object      U;
}
// * * * * * * * * * * * * * * * * * * * * * * * * * * * * * * * * * * * * * //

dimensions      [0 1 -1 0 0 0 0];


internalField   nonuniform List<vector> 
1431
(
(0.268795 1.17212 1.62748e-16)
(3.52989 0.844454 3.29783e-17)
(-0.138955 0.0570659 0)
(0.902789 -0.174189 2.13417e-16)
(-0.974802 -0.148119 0)
(1.3241 4.14966 2.59512e-16)
(3.6033 -0.484319 3.61077e-16)
(1.35589 0.236097 6.12393e-17)
(0.50288 3.43059 2.07863e-16)
(2.83583 -0.276631 3.71878e-16)
(2.63192 10.5518 2.01391e-17)
(6.71278 0.00389774 0)
(0.20313 1.86141 -2.11025e-16)
(-2.02182 0.220071 -5.18178e-16)
(2.0353 -0.346488 0)
(3.00429 -0.527703 -3.39123e-16)
(5.57279 -0.20327 -2.14206e-16)
(0.0306294 -0.0126743 0)
(6.19231 -0.27781 -1.69375e-16)
(-0.126415 -0.104036 2.24249e-16)
(3.9728 9.9264 -7.14499e-19)
(-0.83561 0.182689 2.32651e-16)
(0.510343 2.88482 -2.20139e-16)
(12.5199 2.11419 -3.75135e-18)
(0.506722 3.32359 2.05039e-16)
(0.0501036 0.657556 -2.47578e-19)
(1.50899 10.3323 -2.06177e-17)
(1.43713 -0.842 -4.16573e-16)
(-0.00298042 2.64962 -6.39489e-17)
(0.274135 4.88506 3.66396e-17)
(0.15852 4.41649 -1.13992e-16)
(-0.0646764 3.59492 5.17389e-17)
(-0.0167669 4.48738 0)
(-0.713671 0.116134 -4.59727e-16)
(1.36925 3.48858 -3.8757e-16)
(2.44215 0.240698 0)
(0.149524 3.09771 0)
(0.103377 -0.0493583 -2.56979e-19)
(0.365078 -0.228075 0)
(0.0512804 3.43584 0)
(0.132849 3.1334 1.45136e-19)
(0.108237 3.16426 2.05413e-16)
(0.0546407 1.39755 -2.82741e-16)
(1.21941 -0.582983 2.09074e-16)
(1.78651 4.67373 0)
(-0.245547 -0.222014 3.94957e-16)
(1.948 2.12589 2.06125e-17)
(1.17483 9.8916 -6.3946e-17)
(3.25894 -0.463021 0)
(0.29543 -0.447778 0)
(1.79708 1.6221 0)
(1.32999 -0.429718 0)
(1.1862 1.23585 4.57926e-16)
(1.48732 0.166454 1.89856e-17)
(3.74033 0.555759 -2.08413e-18)
(0.954297 0.333367 5.36179e-16)
(-0.731262 0.149771 2.26069e-16)
(4.28109 -0.216226 0)
(5.084 0.11459 0)
(0.250047 -0.0570125 4.94513e-16)
(1.36346 -0.425499 -1.48703e-16)
(-1.08921 -0.397157 3.90671e-16)
(-0.56873 -0.0303691 0)
(0.0298497 -0.100313 0)
(-0.139553 -0.166513 1.04722e-18)
(2.65197 -0.0605707 -1.93809e-16)
(0.460188 -0.337219 -2.9047e-16)
(1.49652 -0.316383 -8.77345e-17)
(0.0342825 -0.0408597 -6.7839e-18)
(-1.79538 -0.331813 0)
(-0.660163 -0.411269 7.34681e-17)
(-1.04759 0.234861 -1.5666e-16)
(0.310885 0.089269 1.38052e-16)
(-1.08965 0.0634369 3.64379e-16)
(-2.22301 -0.0411186 3.76469e-16)
(-0.398617 -0.159289 -6.06826e-16)
(-0.153126 -0.0226996 -2.71423e-17)
(0.626577 -0.0569177 -1.96073e-16)
(2.08372 -0.244507 -2.67837e-16)
(0.0602138 -0.00847462 0)
(5.17101 -0.0301998 -5.34643e-17)
(0.271955 0.00243853 1.33061e-17)
(5.93615 0.587283 -7.05783e-18)
(3.00347 2.57931 8.98121e-17)
(12.1377 0.747966 2.06549e-18)
(1.90746 -0.186575 -1.05076e-16)
(3.52756 0.00636587 0)
(1.69424 0.426639 2.00977e-16)
(9.32294 0.194282 7.20113e-18)
(7.65136 0.565107 2.50968e-18)
(-0.304477 0.545294 -3.12917e-16)
(-0.584855 0.536484 3.25513e-16)
(0.205747 0.0299605 3.53229e-16)
(2.61161 -0.511165 -1.1816e-16)
(3.99355 0.429568 9.0241e-18)
(-0.0508287 3.98945 0)
(2.76535 -0.15613 -8.42913e-17)
(5.30667 1.2574 -1.48061e-17)
(0.583905 -0.588274 0)
(0.613263 0.0458214 -7.13107e-19)
(0.507922 0.330039 2.17621e-16)
(-0.480756 -0.36867 -7.15088e-16)
(5.36066 0.0922875 0)
(0.158209 -0.0707272 -3.72512e-16)
(0.5782 -0.0179979 3.99791e-16)
(0.208875 3.48905 1.73737e-17)
(0.0131324 2.94007 0)
(1.84761 7.1742 6.25914e-18)
(0.592653 2.22546 3.83864e-16)
(5.51974 0.222515 0)
(0.187339 -0.0381204 -7.9345e-16)
(0.359161 2.38697 -4.00903e-16)
(-0.0640156 0.17251 6.06682e-16)
(0.105009 2.73591 -1.60571e-16)
(3.87676 0.681384 -9.98256e-19)
(-0.708578 -0.109831 8.04863e-17)
(-1.69751 0.345944 0)
(0.474718 -0.170138 -2.43825e-16)
(0.870773 -0.00514008 0)
(-0.185863 -0.0971122 0)
(-1.24095 -0.461439 -2.39108e-17)
(2.1441 -0.00448571 8.07983e-17)
(-0.176956 0.10091 2.61265e-16)
(-2.23446 -0.151461 1.5131e-16)
(-1.04647 -0.0835041 0)
(1.58383 -0.112669 1.67489e-16)
(-0.0947494 0.0832214 0)
(1.34578 -0.241965 5.53388e-16)
(-0.116989 -0.0312375 -3.84011e-16)
(3.75748 0.104055 3.57005e-16)
(4.70835 -0.322473 3.02945e-16)
(0.0324263 0.000623244 -1.22677e-16)
(3.64836 0.116485 -8.38682e-17)
(4.78206 0.268664 7.52393e-17)
(-0.230299 -0.179711 0)
(-0.806023 -0.487804 -3.52996e-16)
(0.604348 -0.0855157 1.82696e-16)
(-0.0649531 -0.522258 0)
(10.4568 0.171693 3.46346e-17)
(0.0824465 0.0706791 2.29565e-16)
(0.311946 0.0283199 0)
(0.174139 4.55639 0)
(5.41404 -0.0262945 6.63851e-17)
(0.116545 -0.0408396 0)
(0.457542 2.23811 2.51819e-16)
(-0.0496987 4.56403 -8.89213e-17)
(-1.07311 -0.226784 -1.98699e-16)
(0.699696 0.655785 -4.84984e-16)
(2.92445 -0.433826 2.58046e-16)
(0.551238 -0.243704 1.86009e-16)
(-0.82619 -0.312652 2.50311e-16)
(-0.101363 -0.0253433 9.29465e-17)
(-0.00940086 3.48498 -2.2438e-20)
(1.00045 -0.100853 -2.15891e-16)
(0.0293813 3.34851 -5.24267e-17)
(0.349353 -0.00291845 -4.475e-16)
(11.0002 0.540072 -2.14324e-18)
(3.24795 1.56067 8.12525e-17)
(6.789 0.636574 -5.98178e-18)
(3.48655 -0.0705316 2.22899e-17)
(7.95953 1.47875 -3.80185e-18)
(0.219763 2.44029 2.37968e-16)
(4.09388 -0.0982701 -1.24345e-16)
(3.80989 -0.0798726 9.24941e-18)
(-0.182046 -0.0792233 -5.19932e-17)
(0.114908 1.68133 -2.23628e-16)
(0.0164559 2.15466 7.60234e-16)
(4.13152 0.515474 8.7185e-18)
(0.136068 -0.218438 2.78573e-16)
(4.60936 1.07545 3.15024e-17)
(8.12802 0.849037 -8.14063e-18)
(0.570029 1.13903 0)
(0.246766 3.63134 -4.5501e-17)
(10.5184 0.367212 3.5752e-18)
(3.68941 1.04621 -1.34807e-17)
(10.9763 0.34619 0)
(3.68336 0.035651 0)
(1.53013 4.38553 -1.38743e-16)
(1.34742 1.4053 -3.84845e-16)
(1.41773 3.07114 -4.40904e-17)
(2.20486 -0.0984037 -3.86064e-16)
(1.02272 -0.260877 0)
(0.423445 0.8655 1.11731e-17)
(10.687 2.61534 -2.83318e-18)
(1.72671 4.10232 1.02356e-16)
(0.0313084 1.91042 0)
(0.804147 1.80244 -1.06931e-17)
(3.87469 1.35188 -5.2417e-18)
(0.432788 3.60177 7.40299e-17)
(10.3904 -0.0736212 2.32495e-17)
(-0.0601662 4.0506 -7.4179e-17)
(0.252005 3.34664 -4.5754e-17)
(0.0278133 3.38895 -7.28286e-17)
(1.2361 5.85862 0)
(0.646023 0.0124389 0)
(3.53321 2.2322 -7.69396e-17)
(5.0964 1.64073 0)
(1.48294 3.3968 -2.55193e-16)
(0.0800377 -0.0303495 4.98545e-16)
(1.06504 0.0706007 0)
(2.22061 0.690211 -1.20333e-18)
(4.03448 -0.0773293 -7.12236e-17)
(2.00065 7.92488 -3.9704e-17)
(3.52249 0.0240335 7.72988e-17)
(0.492854 1.89331 -7.84971e-17)
(0.0303423 4.05394 4.85148e-18)
(-0.0379706 2.81895 1.30034e-16)
(0.241721 -0.0949888 3.49178e-16)
(10.3158 0.695459 -1.14606e-18)
(0.602056 0.607217 -2.1785e-16)
(-0.154037 0.206172 3.80075e-16)
(3.89268 -0.14331 0)
(-0.0391259 2.96306 4.24482e-17)
(0.52255 3.48306 4.38822e-17)
(11.44 1.09565 0)
(0.567825 0.343788 6.17984e-16)
(-0.0414102 3.44239 2.24225e-16)
(1.53019 3.63364 -6.03274e-17)
(1.77709 1.85913 -6.52872e-17)
(1.61513 7.33953 2.73975e-16)
(0.0215674 3.59623 3.73992e-16)
(0.334278 0.210985 0)
(3.23859 0.967971 2.41738e-16)
(3.89692 -0.0901447 0)
(0.0917375 3.14575 -2.15322e-16)
(10.2353 1.25359 2.06874e-18)
(3.60696 6.64 -3.03677e-17)
(4.95394 1.14905 3.30632e-17)
(0.035356 3.5623 2.61886e-16)
(1.06088 7.95188 4.57381e-17)
(2.85336 0.132943 3.46999e-17)
(0.101189 4.44883 1.19286e-20)
(-0.0301798 3.25171 -4.87754e-18)
(0.114552 3.46549 1.03842e-16)
(-0.0398155 3.59869 -4.98108e-17)
(7.2307 1.03512 9.37896e-18)
(-0.0591723 3.03403 0)
(0.851538 3.14384 -5.52091e-17)
(0.0380729 4.21998 0)
(2.04692 0.376647 3.47417e-17)
(3.42043 0.0627394 6.36809e-17)
(1.7438 2.28266 1.8447e-17)
(10.2416 0.931608 -7.69373e-19)
(0.556077 3.65414 0)
(0.439531 3.34217 3.43045e-17)
(-0.381646 -0.923264 6.66959e-16)
(0.59362 3.24284 3.72595e-16)
(1.69473 8.74774 0)
(0.0636875 3.32277 -4.75378e-16)
(0.278387 -0.120371 2.11311e-16)
(0.631233 0.111889 0)
(9.66295 0.444196 -3.50438e-19)
(3.51293 -0.0949686 2.14688e-18)
(3.67717 0.0108828 -1.34951e-17)
(-0.0212759 4.02512 5.64173e-17)
(0.166695 3.23293 -8.3772e-17)
(3.54378 -0.114896 2.04961e-21)
(10.2789 1.67057 -4.99169e-18)
(6.15409 1.59899 3.81748e-17)
(-0.000430434 3.34304 -7.04716e-17)
(-0.0757799 1.13448 1.75232e-16)
(10.4724 0.198234 -2.10284e-17)
(1.15416 1.50823 0)
(3.70769 -0.00989857 7.04005e-17)
(0.181653 2.64018 4.47752e-17)
(2.23145 6.20452 -6.57157e-17)
(0.651297 3.30591 -2.13759e-16)
(0.833959 4.76296 0)
(1.15113 9.31152 6.04894e-17)
(-0.649424 -0.0063371 0)
(0.905995 1.82222 -6.96249e-17)
(-0.0640955 3.25256 9.47365e-17)
(3.40914 0.678161 -1.52723e-17)
(2.33706 0.197903 6.3136e-17)
(8.56099 1.30271 0)
(0.250522 3.78843 -4.95559e-20)
(9.19938 1.08347 -7.00841e-17)
(1.59817 4.41891 2.7134e-17)
(-0.0319841 1.46857 -2.00137e-21)
(-0.0485908 2.04872 -1.02589e-16)
(0.774059 1.83609 0)
(0.19944 3.15166 3.01e-16)
(-0.0180572 4.58464 1.17451e-16)
(2.03509 1.20945 2.80665e-16)
(3.5998 0.305802 0)
(5.84972 0.978851 0)
(0.165826 3.2142 2.00171e-16)
(5.67229 1.41198 -4.72002e-17)
(11.6619 0.505891 0)
(3.05934 0.949565 -3.43199e-17)
(-0.0482297 -0.0270485 -2.85092e-16)
(0.492572 3.27066 2.29017e-16)
(4.7622 1.45913 -4.0657e-17)
(0.618431 1.60163 -9.29566e-17)
(0.965308 7.26875 -1.5789e-16)
(0.0505832 3.55506 -6.2638e-17)
(2.77486 4.86676 0)
(0.161529 1.94992 0)
(0.440557 0.583296 2.47337e-16)
(0.0684353 1.51661 1.17702e-17)
(0.859406 1.02622 -3.16017e-16)
(0.597558 0.00508386 -2.41165e-16)
(3.30671 0.512378 -4.05103e-18)
(0.562519 1.21207 1.13291e-16)
(0.538177 2.39038 -6.44185e-17)
(3.58014 -0.127469 -4.90718e-17)
(3.03983 1.20202 2.38509e-17)
(0.11585 3.17788 -4.38532e-16)
(0.136307 3.15769 -3.8736e-16)
(4.29909 0.969165 -2.12685e-17)
(3.93207 3.15883 2.73095e-16)
(1.54289 0.124605 0)
(-1.5097 -0.285606 -8.96556e-17)
(-0.544941 -0.197904 0)
(0.554031 3.44136 -3.81104e-16)
(4.67946 1.90256 0)
(1.50226 3.122 -1.48316e-18)
(3.64589 0.425714 1.66698e-17)
(0.240873 -0.0373364 -2.73071e-17)
(5.71953 5.27847 1.29969e-18)
(2.31564 1.38683 2.56385e-17)
(4.09924 2.04034 0)
(0.306997 0.0895463 0)
(0.429301 1.15033 0)
(1.65249 3.49195 4.73582e-16)
(-0.0768486 0.0342296 -2.96883e-16)
(0.30887 0.0622848 0)
(0.373045 3.34318 4.63231e-16)
(1.8911 -0.0137153 3.13e-17)
(3.75076 -0.0602371 6.29854e-17)
(0.724339 2.4222 2.64542e-16)
(0.135069 -0.0975249 2.21606e-16)
(0.455302 3.34893 -4.56999e-16)
(-0.239808 -0.0969391 -4.08185e-16)
(3.44531 0.0076064 -1.54161e-17)
(0.429614 1.24734 -5.11052e-17)
(0.231187 3.30814 0)
(6.74625 1.08441 6.66194e-18)
(1.70773 3.67192 -2.09905e-16)
(-0.121928 -0.769681 0)
(0.537029 -0.0325984 0)
(0.336312 1.30801 3.97644e-17)
(3.53593 4.64608 1.04905e-16)
(0.13336 2.9339 0)
(0.506486 3.53576 2.15286e-16)
(-0.085946 3.39549 0)
(3.00448 0.69576 2.36275e-17)
(9.38416 0.767477 6.36434e-17)
(3.37901 3.52057 -1.9793e-16)
(0.702399 1.62852 0)
(0.877473 4.22169 2.06855e-16)
(0.57868 -0.317327 -4.09362e-16)
(0.270771 0.813544 2.89347e-16)
(2.37909 2.41217 -9.10398e-19)
(0.661009 -0.671519 3.12707e-16)
(1.94753 1.54019 -1.871e-16)
(8.99406 3.02791 1.95093e-18)
(-0.59481 0.552271 -8.77457e-17)
(10.24 0.266809 -1.9505e-19)
(0.151775 3.20934 7.17351e-20)
(0.15665 0.386741 -4.76671e-16)
(-0.0305211 1.88768 -4.3556e-17)
(0.272683 1.98174 -8.92639e-17)
(3.28042 0.355967 3.76625e-18)
(0.186621 -0.0360445 -5.1131e-17)
(7.49679 5.72215 1.8183e-17)
(0.485311 3.42397 2.13227e-16)
(11.5616 3.78553 -4.55747e-19)
(0.0228533 3.3839 5.28929e-17)
(0.63571 4.96854 1.3636e-17)
(1.30129 9.05538 -7.591e-17)
(-0.661246 -0.389762 -2.23783e-16)
(8.9165 0.290794 1.04673e-16)
(1.49809 2.01629 0)
(0.163845 3.04008 1.16326e-16)
(7.60866 1.08412 -1.17411e-18)
(2.65603 1.96138 -2.58606e-17)
(1.01553 -0.0496564 -8.60588e-17)
(0.136632 1.39314 0)
(7.41423 1.58302 -2.40057e-18)
(0.228543 2.83147 4.76699e-16)
(1.72313 3.88629 1.07676e-16)
(0.435775 0.168636 0)
(0.950694 -0.590019 1.63937e-16)
(9.59655 5.17116 -1.28403e-17)
(0.63654 3.70268 5.41906e-17)
(1.40011 1.98406 -7.8152e-16)
(0.452289 3.68169 3.29999e-18)
(1.37927 3.7279 0)
(1.7065 2.2529 -3.32938e-17)
(3.37441 0.139444 1.23588e-16)
(1.18795 1.99736 -2.35998e-16)
(1.0979 2.04326 2.3528e-16)
(3.62588 -0.125445 1.59596e-16)
(6.74986 1.64536 -4.86229e-18)
(0.342608 0.813246 1.80157e-20)
(0.596994 3.0143 3.93681e-19)
(0.519251 3.06924 -1.57978e-16)
(0.405166 3.44224 -4.39901e-16)
(1.05934 3.96341 -5.39647e-17)
(2.62449 3.00508 -1.07525e-16)
(0.170162 3.10958 3.41334e-17)
(5.39335 1.95133 1.33299e-16)
(0.171952 3.24597 -3.65383e-17)
(1.43454 0.314941 -9.23681e-17)
(0.75781 3.07498 1.46156e-21)
(1.05112 4.20632 9.05454e-17)
(-0.299391 -0.169073 1.05302e-16)
(3.60169 0.208672 3.28575e-17)
(0.806687 3.07433 1.81189e-17)
(3.03217 2.6736 0)
(1.57724 3.27306 0)
(0.840623 3.06298 8.76442e-18)
(0.0274246 1.93703 2.00841e-16)
(0.528339 3.79699 -1.95524e-17)
(0.543381 -0.0259676 2.47592e-16)
(1.88735 2.71438 4.83618e-20)
(-0.252221 -0.744369 0)
(1.5932 3.89434 -1.94589e-16)
(0.859927 3.01719 0)
(0.102198 2.53059 -1.08132e-16)
(0.104708 2.03125 -5.4877e-16)
(2.19816 1.56255 -1.11842e-16)
(2.14659 2.66323 4.6605e-17)
(0.874441 2.91823 1.93292e-17)
(-0.048544 -0.665076 4.53919e-16)
(-0.072421 -0.120415 -1.41203e-20)
(4.43327 -0.182927 8.4723e-17)
(-0.128475 0.120499 -3.50058e-16)
(12.1545 1.78226 2.25125e-18)
(0.254052 3.07234 2.0605e-16)
(0.21949 3.06104 3.0497e-16)
(0.216062 3.10056 -2.64778e-20)
(0.174911 3.02584 0)
(0.219053 3.12738 -1.92746e-16)
(0.223159 3.14515 -1.38369e-16)
(0.23796 3.10899 -1.4e-16)
(0.209785 3.16196 -2.99232e-16)
(0.212894 3.13061 4.19773e-16)
(0.214442 3.15252 1.17187e-16)
(0.27013 -0.817163 0)
(10.2849 0.544676 1.58604e-18)
(0.287744 -0.570168 -1.18034e-16)
(0.350572 -0.268215 3.336e-16)
(0.520201 -0.0654219 -4.88073e-16)
(0.371374 -0.0411399 -2.94663e-20)
(0.273636 0.131703 0)
(0.224569 0.0356328 -1.15413e-16)
(3.85366 1.56681 4.21582e-17)
(1.71308 0.821876 5.78594e-17)
(2.1573 1.04971 5.32549e-17)
(0.125412 -0.705614 -2.73115e-16)
(2.36631 -0.569279 -1.42394e-16)
(-0.0372809 -0.519328 0)
(1.82997 -0.335542 -8.22998e-17)
(2.67519 -0.665727 2.3084e-16)
(1.58238 0.475021 8.78308e-17)
(8.39433 0.343695 -2.31886e-18)
(0.214594 -0.513314 0)
(0.0113466 -0.388377 3.82769e-16)
(1.35333 0.716927 -1.13524e-16)
(0.786422 -0.698625 2.29521e-16)
(8.47956 0.199116 -3.11494e-17)
(1.75099 -0.763777 -2.41062e-16)
(0.0280656 -0.713164 -2.0891e-16)
(0.744944 -0.94614 2.68532e-16)
(0.0423784 -0.325607 4.25155e-16)
(8.43677 0.091638 9.98335e-20)
(0.356303 -0.858691 -2.54762e-16)
(8.55399 0.043932 -2.71143e-17)
(1.81134 -0.648759 -6.12135e-16)
(1.6698 -0.570284 0)
(0.0668221 -0.153775 6.37448e-20)
(2.04137 -0.10145 0)
(10.4358 0.291397 3.86138e-17)
(10.424 0.415393 1.21299e-16)
(-0.0745719 -0.850014 1.49698e-16)
(0.492996 -0.188842 -1.41934e-16)
(0.35799 0.0764573 7.61816e-16)
(2.218 -0.434608 0)
(1.11676 -0.2122 0)
(0.35856 0.179729 0)
(10.1381 0.361161 2.67769e-17)
(2.48889 0.161801 2.13412e-16)
(0.483464 0.158155 1.98481e-17)
(2.33335 -0.359848 2.15621e-16)
(0.0440155 -0.106915 0)
(0.457194 0.0773138 0)
(-0.143408 -0.0527217 2.82821e-17)
(0.508184 0.111319 2.09115e-16)
(9.54751 0.463894 -7.77112e-17)
(2.29231 -0.16013 1.99986e-16)
(-0.180852 0.0467209 2.20209e-16)
(0.418126 0.2291 4.02873e-16)
(3.26776 -0.372068 -2.57184e-16)
(0.017073 -0.112942 -2.34846e-16)
(-0.150547 0.120898 2.03909e-16)
(9.30622 0.707812 1.81871e-17)
(1.93029 0.00159929 -2.63485e-16)
(-0.0895573 1.1189 -5.52693e-16)
(0.0451237 1.10308 1.91659e-16)
(0.212189 0.356415 -5.07666e-16)
(-0.152691 0.607554 1.08286e-15)
(0.10181 0.498236 -2.24814e-16)
(9.41667 0.936553 -3.81721e-17)
(10.0806 0.627266 -1.02415e-16)
(0.0159099 -0.416385 -3.71327e-16)
(2.22547 0.250753 2.0908e-16)
(1.62274 0.11012 1.99281e-16)
(-0.053172 0.818774 0)
(0.335947 0.23925 3.01361e-16)
(2.2311 -0.529643 2.696e-16)
(0.0716252 -0.115023 0)
(-0.146603 0.118559 0)
(0.160231 0.541128 2.48973e-16)
(3.63887 0.0342042 -1.47154e-16)
(0.0833123 1.04391 -9.89865e-17)
(0.391079 0.329011 1.76741e-16)
(0.276394 -0.790556 1.98102e-16)
(10.1149 0.897277 -3.31775e-17)
(2.28546 3.26516 0)
(1.79827 0.35946 -4.10239e-16)
(0.434891 1.45841 -2.1569e-16)
(3.68079 -0.108488 -5.99712e-17)
(0.287654 0.453387 -1.26855e-16)
(3.5002 -0.152654 -8.86658e-17)
(9.64294 1.35368 6.23665e-17)
(0.0850753 3.39779 -5.41587e-19)
(0.710884 -0.922025 0)
(-0.136459 -0.150134 2.84061e-17)
(2.52101 0.952629 1.8142e-16)
(1.47799 0.726206 -3.25327e-16)
(0.262354 0.840403 0)
(0.924255 -0.396285 0)
(0.302643 3.14012 0)
(-0.105645 0.324658 5.08299e-16)
(-0.230171 -0.174519 3.33598e-18)
(0.489818 4.08164 3.1133e-17)
(0.457806 0.556044 8.0996e-17)
(1.30675 -0.71933 2.42159e-16)
(0.742977 2.70379 1.92758e-16)
(0.0140201 0.416231 -3.70092e-16)
(0.111547 2.73823 -8.1518e-17)
(1.8648 0.617073 4.91073e-16)
(0.290717 2.11969 4.55293e-16)
(-0.233728 -0.366526 7.2166e-17)
(1.07059 1.5683 -9.75914e-18)
(0.879234 5.94766 -5.10719e-17)
(0.683174 2.9002 0)
(0.247105 3.1656 0)
(1.56247 2.28235 3.38133e-16)
(0.0753535 0.397343 4.24692e-16)
(0.172607 3.16259 0)
(1.01108 2.84436 -4.25096e-16)
(-0.283218 -0.454106 -4.41663e-16)
(-0.127007 -0.360969 -7.37129e-16)
(3.44859 -0.144529 1.49902e-17)
(0.02466 1.12379 -1.87813e-16)
(0.542083 5.01939 3.98152e-18)
(2.20571 7.17314 0)
(0.216979 3.16384 5.56132e-17)
(10.0266 1.69818 -5.94519e-18)
(4.47926 2.84653 7.71702e-17)
(0.742969 1.46828 0)
(4.89961 8.05822 0)
(0.685627 1.2394 1.08327e-16)
(1.24922 1.21127 0)
(3.85476 -0.088715 -9.17894e-18)
(0.0826138 1.79368 -1.31421e-16)
(0.193791 3.2704 2.54273e-16)
(0.770824 2.41406 -4.47969e-17)
(4.41954 5.64089 -3.9643e-17)
(0.204037 3.08914 -8.15879e-17)
(2.28022 0.606696 -1.14163e-16)
(-0.0222762 -0.301695 1.15911e-16)
(1.31397 4.08857 5.18847e-17)
(3.65609 -0.123089 1.08733e-16)
(0.0108936 3.11283 0)
(0.204664 2.98352 1.57047e-17)
(0.214721 2.99835 4.63662e-19)
(0.773463 2.50085 0)
(2.31228 6.1436 2.62238e-18)
(2.36336 4.16481 1.60259e-16)
(1.85404 3.16336 -1.55467e-16)
(2.20299 3.15889 2.12097e-16)
(-0.041599 3.4114 2.05226e-20)
(0.341858 3.96536 -1.58658e-16)
(1.90085 0.954118 -7.42098e-16)
(0.390656 0.698944 0)
(0.585307 0.891498 1.34964e-16)
(0.153529 2.50403 -3.95727e-17)
(-0.0252847 2.11237 4.69017e-17)
(1.65234 1.3157 -3.17888e-19)
(1.8532 2.14071 -1.4556e-16)
(0.0998265 2.98129 -1.6882e-19)
(0.415804 3.00505 0)
(0.00295379 -0.837232 -2.16115e-16)
(1.43334 2.19454 6.38188e-16)
(4.30875 1.45785 0)
(10.4098 0.524696 2.15434e-18)
(1.15885 7.50458 3.27078e-17)
(0.399799 0.828056 1.03118e-17)
(0.942522 3.35726 5.58321e-17)
(1.27439 0.440823 0)
(2.00131 4.77893 1.33985e-16)
(1.86308 3.73857 -2.64363e-16)
(2.31388 12.3929 4.39033e-18)
(2.71403 3.8263 7.45634e-17)
(1.83131 -0.038892 -5.02082e-17)
(0.223766 -0.174862 -3.2722e-16)
(3.5737 -0.145229 5.69619e-17)
(0.989411 1.13727 -1.41448e-16)
(0.987387 1.94946 4.05947e-16)
(0.171805 2.89729 -2.25307e-17)
(0.309789 3.7543 -8.04942e-17)
(0.288468 3.31346 2.31271e-16)
(11.4354 0.124104 -9.72689e-18)
(3.46413 -0.0387353 -3.62898e-17)
(0.195345 1.65677 -1.47323e-16)
(1.46389 2.94137 -3.03738e-17)
(4.06261 0.819943 -1.47929e-17)
(2.00755 0.989738 -3.47105e-16)
(-0.166731 -0.0246246 -1.14936e-16)
(1.11987 2.59336 2.10108e-16)
(0.803814 1.35199 1.4298e-16)
(1.02274 4.90655 -8.686e-17)
(0.376029 3.11973 -2.46577e-16)
(0.205864 0.494387 0)
(2.7164 4.91931 -7.14436e-17)
(0.55537 -0.104798 0)
(0.617235 1.35318 1.67085e-16)
(1.14564 0.677793 0)
(-0.654616 0.0137549 5.11203e-16)
(0.199023 3.02639 -2.46188e-16)
(0.759744 2.29379 6.11801e-17)
(1.74986 3.82874 1.12117e-16)
(5.53469 0.499954 -7.20754e-17)
(3.32493 0.240241 1.20719e-16)
(0.346559 2.84735 -2.2158e-16)
(1.69088 0.540898 1.04324e-16)
(0.295485 3.42073 -2.177e-16)
(4.95263 2.47669 -2.53933e-16)
(3.21711 0.041509 5.25078e-17)
(0.994808 3.22653 0)
(0.0102657 2.25498 -4.2556e-17)
(0.707715 1.19964 1.16861e-16)
(1.52881 4.4809 -2.602e-17)
(1.57749 3.46743 1.6241e-16)
(1.28797 0.0338134 1.86891e-16)
(2.01283 1.89118 2.53769e-17)
(0.144116 1.80409 1.66775e-16)
(0.185574 3.16667 -8.55948e-18)
(0.142951 3.35552 1.48069e-16)
(2.16123 3.91658 -1.32041e-16)
(0.0589967 -0.212307 7.77503e-17)
(1.62303 3.60342 -9.06121e-17)
(0.448694 3.34951 -2.26608e-16)
(1.46668 5.51105 -5.78581e-17)
(-0.00136857 1.05452 0)
(8.80621 0.504375 -1.78128e-16)
(7.35548 1.55757 1.29777e-17)
(0.455367 3.1243 1.73983e-16)
(0.185113 1.15311 7.37475e-16)
(0.673446 1.66249 4.55267e-17)
(0.0132925 1.19437 0)
(4.36955 0.327256 -1.35998e-16)
(-0.172713 0.0881542 8.37963e-17)
(-0.00141949 0.490593 -3.66125e-16)
(1.18738 0.963962 7.73428e-19)
(0.652778 -0.243304 -1.79085e-17)
(0.91097 2.77865 7.11245e-17)
(4.31332 0.598606 -8.49024e-18)
(9.42149 0.4496 0)
(0.23827 3.13718 0)
(0.197263 1.78189 -7.8776e-17)
(-0.802267 -0.364792 2.43872e-16)
(10.034 0.522668 0)
(0.732845 0.12734 3.11493e-19)
(2.04898 4.32351 -3.18846e-16)
(2.75862 0.400979 0)
(2.80136 0.556128 0)
(2.45413 1.35689 -1.3787e-16)
(1.9669 2.31237 2.77323e-17)
(8.82403 0.386303 0)
(1.10741 -0.376814 1.96585e-16)
(0.10346 -0.118303 -1.72592e-16)
(0.111685 2.46651 0)
(0.481996 2.94861 0)
(-0.153524 -0.564721 2.1712e-16)
(3.48041 0.163503 -5.60792e-18)
(1.0996 0.461088 1.67493e-16)
(0.0614495 1.00903 -3.82267e-16)
(0.131326 2.84916 7.69007e-17)
(3.24326 0.145262 0)
(2.84692 0.091819 0)
(0.210817 3.14352 -2.15065e-16)
(5.17433 0.239138 -2.20614e-18)
(2.70292 3.49016 -1.9666e-16)
(2.69112 0.0547048 1.40647e-17)
(4.28427 4.49813 -3.7298e-18)
(4.39485 0.210251 0)
(1.64719 3.07658 0)
(0.777551 2.56391 -9.08829e-18)
(3.02986 0.122427 0)
(0.0475856 2.35603 0)
(10.9169 0.610159 -1.22902e-18)
(0.294991 3.62221 -2.81374e-16)
(4.76195 0.224701 0)
(1.21487 1.47173 -5.19149e-18)
(0.807252 3.67827 3.41467e-17)
(0.234415 3.59393 1.04979e-16)
(1.43085 1.09383 -2.18866e-16)
(0.932482 3.95563 -4.16433e-18)
(0.0976191 3.27667 4.63881e-17)
(-0.114581 0.040254 -9.36796e-20)
(0.0960667 2.50757 -4.83622e-16)
(0.0414203 1.83049 -3.31e-20)
(0.112881 1.74957 2.64273e-16)
(2.56839 0.0620402 -2.53476e-16)
(0.340685 3.33773 2.16036e-16)
(0.0970793 2.60041 0)
(0.0943255 4.09438 2.37651e-18)
(9.82811 0.409827 -9.67394e-18)
(0.702786 2.01012 0)
(0.704901 0.155681 5.92162e-16)
(4.3324 0.390458 1.57442e-17)
(0.318874 0.796683 0)
(0.0326398 1.64234 4.77383e-16)
(2.81242 7.82296 0)
(1.59451 8.54425 2.46033e-17)
(0.432454 -0.27063 0)
(5.1331 0.834554 2.0282e-17)
(0.217044 2.25037 -3.24137e-16)
(3.0997 0.121207 -9.28196e-17)
(2.53405 0.518414 -2.12145e-17)
(0.0939913 0.715492 3.07369e-16)
(0.154709 2.96414 -7.09094e-17)
(5.58306 0.256953 8.04136e-18)
(8.3669 0.323187 0)
(3.41015 -0.128431 -1.73911e-17)
(0.11973 3.20804 0)
(0.375889 3.56393 0)
(2.97543 0.236257 -1.17429e-16)
(2.373 3.92498 0)
(0.268693 2.97196 0)
(1.13204 3.69086 -3.91052e-17)
(3.4222 0.246919 0)
(0.163507 -0.202877 2.17413e-16)
(0.444475 3.95663 6.88409e-17)
(0.623212 -0.710971 2.45931e-16)
(0.714924 0.579172 1.80677e-16)
(1.15751 0.25444 2.17499e-17)
(3.89529 0.343071 -5.47815e-17)
(1.32998 -0.761654 -3.85883e-16)
(13.4173 2.71344 0)
(0.608913 4.20285 0)
(0.196706 3.2679 -2.34573e-16)
(0.0768211 0.110547 6.58461e-20)
(0.787955 4.09656 1.43604e-17)
(1.07575 0.440195 2.21718e-17)
(10.4301 2.19671 3.41937e-18)
(4.06136 1.50422 4.52832e-17)
(0.14502 0.689468 -1.05209e-16)
(0.670939 -0.321732 4.01923e-16)
(-0.138434 -0.25146 -3.57709e-16)
(0.0853182 2.97324 0)
(2.48986 -0.652553 3.92129e-16)
(3.07051 -0.661416 -1.91885e-16)
(0.892212 3.37442 -3.56415e-17)
(1.52328 0.119216 -1.87549e-17)
(0.0117892 1.35142 -5.20986e-16)
(0.0578903 3.35481 -7.29445e-18)
(0.868477 4.44811 1.84458e-16)
(0.149391 3.10402 1.1248e-16)
(0.206831 3.27701 0)
(1.87104 1.9611 9.70329e-17)
(2.60814 -0.0101079 5.38915e-17)
(0.0571105 0.401363 0)
(0.544299 3.23228 -1.99626e-16)
(0.143501 0.79338 -7.50843e-16)
(1.70924 2.68092 0)
(0.601306 0.0283773 -1.82349e-16)
(0.696541 1.9968 0)
(-0.287307 -0.725271 -1.11303e-18)
(3.75236 0.182144 -2.61657e-18)
(9.40238 2.13996 2.11394e-18)
(2.11033 3.75849 0)
(1.59233 1.91405 2.16942e-16)
(0.19271 3.54745 -1.37134e-16)
(1.74068 2.22932 0)
(2.57908 -0.119501 -1.10511e-16)
(-0.00840024 0.148774 -1.75637e-16)
(-0.0582369 3.02395 -1.37165e-16)
(0.516653 3.17285 1.55748e-16)
(0.0734358 2.81647 3.13184e-16)
(2.59732 0.0170853 -2.94729e-17)
(2.99294 -0.186011 0)
(0.237196 3.08102 0)
(3.03861 -0.199937 2.8914e-17)
(0.559819 1.73132 2.20438e-16)
(0.0122248 3.45515 -4.94261e-17)
(1.6018 0.267281 1.19796e-16)
(0.17142 0.049036 -2.94443e-16)
(0.274759 3.01164 0)
(0.236026 3.00682 1.23684e-16)
(9.68212 8.05253 -1.39672e-18)
(0.241353 2.72086 4.2219e-17)
(0.728229 3.81286 -1.6897e-17)
(0.360694 0.753098 -1.17891e-16)
(1.94719 3.94812 2.13206e-16)
(4.00696 1.33034 2.84153e-18)
(3.59487 0.0543582 -1.21378e-16)
(0.984137 0.542772 0)
(11.2183 0.855876 2.35846e-18)
(0.197629 3.20255 9.11025e-17)
(8.1699 0.511182 1.18768e-18)
(0.209647 2.54221 -1.46566e-16)
(-0.276156 -0.687024 -1.90046e-16)
(0.200032 3.12741 -4.10516e-16)
(0.449565 3.35813 4.97011e-19)
(0.149974 -0.000368536 5.36693e-16)
(2.00979 3.36707 -1.32964e-16)
(0.643156 1.55915 -5.14116e-16)
(0.316499 3.01767 -4.13319e-20)
(4.06993 0.197163 1.06426e-17)
(0.106405 3.02558 -6.95238e-17)
(0.183248 3.25934 4.48887e-17)
(0.277196 4.61447 -2.68158e-18)
(-0.622133 -0.449498 0)
(1.54078 -0.166947 0)
(0.209492 3.15732 -1.12251e-16)
(6.04939 0.273734 1.8356e-18)
(7.95669 0.211758 -1.37591e-17)
(0.135341 3.44478 2.09945e-16)
(1.64914 1.94204 -3.75481e-17)
(1.97543 0.062967 7.42603e-17)
(4.34901 0.74303 9.57083e-18)
(0.19514 3.09178 7.67684e-17)
(0.769474 2.60996 -1.41272e-16)
(2.18942 1.02257 4.85092e-16)
(0.686733 1.9859 -1.38827e-16)
(0.351776 0.118788 0)
(0.437291 -0.022216 -1.38811e-16)
(0.125324 1.7106 -1.42305e-16)
(0.938259 2.22579 0)
(7.69079 0.949997 -1.11663e-17)
(0.575437 0.0698408 1.09163e-16)
(5.08117 0.177542 0)
(-0.0350112 0.106096 0)
(6.07372 2.40456 -3.17677e-17)
(0.0392086 3.32791 2.39628e-17)
(0.422436 4.72063 -7.33053e-18)
(0.562667 0.886257 0)
(-0.259608 0.0138868 1.03823e-16)
(0.126848 -0.206539 9.61281e-16)
(1.25331 -0.351781 -6.11555e-16)
(3.79452 0.17649 -3.951e-17)
(2.48275 2.07715 7.52925e-17)
(-0.0808784 -0.0684126 3.01529e-16)
(0.725507 -0.156661 0)
(0.43251 0.682821 -9.27608e-17)
(1.85972 2.46873 -2.29781e-18)
(1.93023 3.1214 8.55977e-17)
(1.56348 2.01886 -3.26617e-17)
(0.128401 2.53175 0)
(0.714615 3.43698 1.12794e-16)
(0.102488 2.59868 1.24168e-16)
(2.70693 -0.242408 0)
(9.38832 0.540854 1.54024e-16)
(0.863451 3.56955 0)
(0.246549 3.06462 0)
(2.96066 4.9147 -2.8526e-18)
(0.460055 3.21968 2.57269e-16)
(0.480791 4.35764 1.49613e-16)
(4.67519 0.463454 -1.85714e-16)
(0.348582 -0.299719 2.74837e-16)
(3.57066 -0.315471 1.89949e-16)
(0.0587948 2.625 0)
(0.722175 3.58688 7.61238e-20)
(0.263435 2.69583 -2.4273e-16)
(7.79075 -0.0110494 -7.07993e-17)
(2.05911 -0.194707 5.47194e-17)
(0.215072 3.26966 3.92728e-16)
(0.41419 0.570969 -1.49955e-16)
(1.59955 1.73221 1.50887e-17)
(6.20012 -0.0850235 4.40207e-17)
(3.57816 -0.10509 -7.70806e-17)
(0.136379 8.831 8.21328e-17)
(0.000798022 2.82263 -2.78735e-20)
(0.0158103 2.77996 1.26724e-16)
(0.0189186 2.6425 1.17568e-18)
(0.0193691 2.71794 0)
(0.0828711 9.6958 -7.23171e-17)
(-0.0184872 2.79599 -2.38732e-16)
(0.0664816 3.6321 -1.00874e-18)
(0.111714 3.36383 -2.87146e-17)
(0.0853491 3.48362 0)
(0.0626238 3.7886 5.7039e-17)
(0.169932 8.13703 0)
(0.148479 10.5093 0)
(0.0505448 3.97682 -7.48438e-17)
(0.327346 6.71189 -4.51494e-18)
(0.252243 7.45135 -4.13454e-18)
(0.0346978 4.09756 2.36719e-17)
(-0.036537 2.70176 1.25557e-16)
(-0.0409383 2.62123 0)
(0.00389984 4.12704 -3.26488e-17)
(-0.0243077 2.56542 0)
(0.000250874 2.56879 0)
(-0.0345513 4.09226 2.43267e-17)
(0.023163 2.59829 0)
(0.0801956 2.43825 1.43541e-16)
(5.37092 3.8212 -6.25006e-17)
(0.508745 -0.644333 2.85998e-16)
(0.0856777 0.671454 0)
(1.70724 3.51316 -1.30929e-16)
(-1.50538 -0.0872813 1.04925e-16)
(0.680462 0.854431 5.07947e-16)
(8.20605 1.92646 -1.89261e-17)
(0.0145191 3.46126 -3.01728e-17)
(0.892649 5.39835 0)
(-0.787119 0.48674 5.54084e-16)
(1.09795 -0.177263 3.37563e-16)
(2.49936 0.59174 0)
(5.10661 -0.0406446 3.40994e-17)
(1.72701 -0.510616 -2.36773e-16)
(0.0760504 -0.116044 -2.21126e-16)
(5.96244 3.03698 1.11304e-16)
(2.53413 3.37317 -5.68558e-17)
(0.146434 2.81703 1.33148e-16)
(2.73995 1.70226 -4.41515e-17)
(3.52311 0.0162875 -8.00346e-17)
(7.87864 0.742548 -3.04586e-19)
(-0.976593 0.24785 -3.31843e-16)
(0.0416055 2.64599 0)
(1.54214 3.54798 4.22094e-16)
(1.73627 2.35904 -1.42978e-19)
(1.19355 0.0198211 6.93021e-17)
(1.14306 0.136078 0)
(10.6383 0.183259 2.99154e-17)
(-0.086907 0.784269 -1.85986e-16)
(3.51825 0.450134 3.35485e-18)
(0.0506333 2.19269 1.78612e-16)
(0.181617 3.21228 0)
(0.609063 1.3865 1.19814e-17)
(0.685291 1.52205 -9.61816e-17)
(8.74945 2.75801 2.63411e-17)
(0.689821 -0.864379 2.99739e-16)
(0.812794 -0.431789 -3.02742e-16)
(-0.378862 -0.352688 2.38464e-16)
(2.22512 -0.217758 -6.0552e-17)
(0.687046 1.96466 4.94028e-17)
(0.0203503 2.69044 7.02201e-21)
(0.192519 4.52805 -2.19039e-17)
(0.122576 0.888595 0)
(1.48229 1.65127 2.57258e-19)
(0.534271 0.351372 7.12889e-17)
(3.53376 0.834428 1.02613e-16)
(0.455943 -0.5646 0)
(0.719163 0.40202 -4.36509e-16)
(-0.0231627 -0.0243677 0)
(11.0817 0.68116 2.12505e-18)
(0.548493 2.65626 0)
(1.22629 1.62202 -9.1232e-17)
(0.129198 1.39922 1.82011e-16)
(0.108487 -0.136586 3.39184e-16)
(3.54529 0.0105102 0)
(3.30775 -0.00856317 -2.84475e-17)
(0.0762477 2.73211 5.2209e-19)
(0.139017 -0.614605 0)
(2.69316 -0.0213978 0)
(0.964031 1.39433 -3.44527e-16)
(-0.234068 2.93929 -1.3769e-17)
(7.4269 0.0267705 0)
(0.151986 0.061339 -1.49189e-16)
(4.81245 -0.26756 -1.69219e-16)
(0.0571005 -0.0712561 0)
(0.261985 2.54961 3.60144e-16)
(1.22662 -0.626003 -1.40434e-16)
(7.42318 5.36307 2.01987e-17)