/*--------------------------------*- C++ -*----------------------------------*\
| =========                 |                                                 |
| \\      /  F ield         | OpenFOAM: The Open Source CFD Toolbox           |
|  \\    /   O peration     | Version:  v1912                                 |
|   \\  /    A nd           | Website:  www.openfoam.com                      |
|    \\/     M anipulation  |                                                 |
\*---------------------------------------------------------------------------*/
FoamFile
{
    version     2.0;
    format      ascii;
    class       volScalarField;
    location    "0.08";
    object      p;
}
// * * * * * * * * * * * * * * * * * * * * * * * * * * * * * * * * * * * * * //

dimensions      [0 2 -2 0 0 0 0];


internalField   nonuniform List<scalar> 
1431
(
95.1659
85.481
94.4904
87.7846
91.9473
88.8942
90.9049
32.4526
92.6453
90.8946
40.9837
35.3057
93.7016
83.7997
92.3382
90.9045
86.3729
94.4747
85.9116
94.5366
36.8989
84.7448
92.9725
16.527
92.5771
93.8759
46.3911
92.3765
94.2817
82.7437
88.9207
93.3995
88.5671
81.6356
90.2613
90.6803
94.3313
93.7265
91.4741
92.5946
94.2151
94.262
93.9305
91.2504
86.1717
92.4007
82.724
50.6195
90.7112
93.5549
90.3601
91.384
91.0845
44.7474
85.703
91.98
91.4586
38.2797
84.2449
94.3912
92.3977
90.746
93.5304
93.653
91.4341
91.0267
94.0201
93.2212
92.5032
87.9025
37.6022
81.7519
87.2278
82.7068
85.7302
92.3736
94.3288
93.4809
91.003
94.4539
86.0859
92.3624
75.0325
84.7365
33.1827
87.9967
87.5787
91.8379
46.031
61.65
91.4845
90.6295
93.7672
91.1584
85.3923
88.2968
34.3694
77.2346
91.2215
92.1595
92.405
91.1382
85.5494
94.4252
93.554
88.5958
93.2598
49.4395
91.9047
85.3543
94.4293
93.4466
94.6744
94.1895
84.9992
92.2427
82.7141
87.5077
88.0183
93.5648
88.1706
92.2346
45.2462
87.1599
35.1543
90.8673
94.4299
91.7365
94.4306
86.8087
86.0493
94.4701
87.0223
83.8237
94.5936
92.9974
93.5999
90.4219
41.3506
93.836
91.6586
86.5816
86.1568
94.4334
94.2337
88.2635
92.9623
91.9722
90.9599
92.4005
93.2402
92.4612
92.8102
87.8892
93.3858
93.7075
40.393
84.0998
68.9206
87.6695
57.6705
93.7346
87.8127
87.6778
46.4601
94.2451
93.8305
84.6889
93.6048
81.274
56.5276
92.0461
91.2493
42.2061
84.5844
39.709
87.2126
87.8538
90.8015
90.1894
90.7871
91.4698
89.2565
20.2982
88.4211
92.8405
45.9953
83.2195
90.7741
43.2556
88.2973
91.5898
92.6183
50.4045
88.1424
81.6382
77.0327
88.6525
92.5539
94.815
87.6987
87.8714
63.2347
87.3042
93.5497
88.8033
92.8898
92.7205
42.435
94.5492
34.096
87.8713
93.3695
88.7202
35.5001
91.968
92.7971
87.6317
89.2336
68.1051
93.7159
89.391
91.1256
87.8162
93.4314
39.4913
63.5299
79.3302
93.5784
65.4949
34.0522
88.8417
88.922
92.3739
93.4831
64.2755
93.3422
89.714
88.0841
88.1098
87.3706
88.7688
41.5635
89.8389
91.2222
88.2789
90.3685
56.4141
94.0694
93.6577
90.9891
45.1623
87.7388
88.1684
88.6019
94.1599
87.7974
35.6391
71.0071
92.6299
92.749
42.2482
89.1932
87.3756
93.9257
71.8482
92.6914
50.8015
55.9845
91.539
92.6721
93.1883
86.1869
87.9673
53.6778
90.868
49.7588
80.1492
88.9397
93.3226
92.0632
94.1333
87.9318
90.5361
86.6103
74.9378
94.2649
74.6134
38.498
86.1479
92.6301
92.8426
79.1277
92.614
69.3561
93.6594
44.2738
93.0418
92.0351
88.7435
91.5165
93.5839
86.7016
93.4934
86.3203
87.8391
85.5243
92.1126
94.2932
82.8879
78.5315
90.6467
89.776
49.3325
92.4898
78.3183
89.1716
86.2318
92.4548
30.5505
86.3194
80.3558
92.3249
92.6188
89.8744
94.5935
92.2764
92.7759
50.5918
88.0194
87.6286
92.4848
92.7356
86.5309
87.4838
93.5724
93.3644
68.2342
89.6242
48.9825
93.5843
93.5633
74.8483
94.2789
92.2688
88.154
86.8414
46.5684
79.7848
92.8398
88.8691
92.3988
92.6452
85.8321
92.4211
89.1551
37.4316
34.3944
42.3347
94.2728
82.7521
93.1465
87.9463
86.9824
92.5151
38.0269
92.5643
8.4653
94.2478
82.8409
50.2367
92.0882
49.6352
89.1707
94.3982
45.0436
85.0544
88.2756
94.592
42.1767
93.7793
89.0682
88.4149
92.4253
9.61498
91.824
89.9942
92.0216
89.4648
89.3519
87.2522
90.5481
90.7046
87.8499
66.6696
92.6024
93.1313
93.1853
92.4406
90.201
83.9951
94.2218
74.1456
93.9718
91.582
92.8696
89.4212
88.2995
86.8615
92.7684
82.9473
89.8441
92.5818
94.3642
91.7098
92.3519
87.4533
88.3966
89.2387
92.371
94.2974
94.0156
90.106
86.6439
92.1867
92.2549
94.4624
86.7357
94.555
25.2494
94.3687
94.4214
94.3506
94.4369
94.2957
94.2386
94.3288
94.1053
94.2139
94.0329
92.3961
41.0646
92.4166
92.4178
92.3627
92.3896
92.373
92.4702
84.8107
79.9922
80.4362
93.4538
90.4404
94.1964
89.7532
90.7555
82.3697
45.3071
94.08
94.2714
80.663
93.4893
44.8398
90.7853
94.1635
93.3016
94.3703
43.7526
93.2224
40.3916
91.1785
91.2471
94.4001
86.0755
40.6369
41.7544
92.527
93.6109
92.3435
91.2463
86.9949
92.2799
39.7197
91.0271
92.2216
87.1487
94.4164
92.3023
94.4032
93.6673
38.8017
91.2016
94.4489
93.7265
87.2544
94.4273
94.519
38.047
91.2982
90.6061
94.4086
93.8512
93.3649
94.1389
38.7338
43.7347
92.4231
91.1046
91.4467
90.1912
93.7787
87.3649
94.3544
94.4678
93.8516
87.5364
94.6721
93.7435
88.0437
42.9227
83.9468
91.3007
90.6274
87.824
93.7778
87.8931
39.0059
92.3612
92.4012
88.0737
87.0798
91.3619
93.8397
87.6783
93.6057
94.479
88.4532
90.5367
93.6845
92.1982
93.024
94.1126
94.2109
91.1671
90.9566
88.2347
89.38
79.506
93.1143
93.7684
89.353
94.2213
93.9118
91.3772
93.508
88.243
87.8722
94.208
85.5177
48.358
93.9268
43.538
76.8404
92.7444
35.5106
92.4513
88.8139
87.7443
94.4271
93.6875
92.4669
67.246
94.1591
90.8302
92.3595
87.9613
87.8389
91.441
94.3348
94.4646
92.5938
74.6225
85.6182
86.623
85.2604
93.4155
89.3265
90.9038
91.9807
90.7571
94.4383
93.7035
90.7637
89.5135
94.3142
93.3776
88.0101
89.72
81.2197
42.4636
69.1949
93.6843
91.852
91.6562
81.9516
89.4886
19.4125
81.4914
88.0818
92.4478
87.8691
93.0002
91.0733
94.2736
91.5473
92.9143
36.8669
87.585
94.7767
90.0629
84.0657
87.3537
92.2747
90.9342
93.0606
84.8805
93.3971
90.3743
78.5112
88.8245
93.3546
91.6956
91.4973
94.0993
92.4002
85.8294
34.8809
87.1382
91.5808
88.2069
92.5324
74.8839
87.5637
91.5599
93.3994
93.3157
85.2488
89.6685
33.455
87.091
94.5577
94.1401
90.4389
83.6389
92.4491
89.9596
92.7116
80.0735
94.4002
50.2777
61.9927
93.2234
93.7772
92.6909
94.1516
85.8531
94.4755
94.6176
91.364
92.3948
92.0324
83.775
32.4041
93.9193
94.6952
88.5565
27.899
85.3989
87.3278
87.485
87.3951
89.4559
87.6959
35.7501
93.4213
94.2457
94.3586
91.8565
92.398
84.4634
86.8585
94.0958
93.9066
85.1316
86.0283
94.2356
77.564
85.7933
86.365
73.6146
81.2108
87.7816
92.7728
85.6375
93.5962
22.0384
89.4906
79.5462
89.0424
91.5609
92.0311
88.441
83.57
94.3131
94.6711
94.5271
94.3785
91.4358
87.8617
92.0799
94.4826
88.8089
43.3131
92.8523
93.574
83.6095
87.6738
94.2927
51.8659
49.0158
93.595
79.4019
94.5072
87.528
86.0226
94.3318
93.7446
75.2299
37.2564
87.8104
91.3633
92.1484
87.515
87.7343
94.4255
91.0095
84.6564
94.4081
90.7168
90.8706
93.5799
88.7719
85.9325
91.07
7.59026
89.6965
93.5701
92.5027
90.1639
87.7066
29.5909
84.3019
94.7802
89.8056
93.7618
93.2573
91.0327
90.932
92.1055
88.4559
94.3285
88.8706
88.4241
93.5491
93.0403
89.9061
87.0005
92.4905
92.8844
93.8171
88.1463
93.595
92.709
93.0572
83.5935
47.4149
89.1072
89.9231
91.5495
89.652
86.8578
94.2012
92.9889
93.0738
92.2815
86.6893
87.8804
86.9106
87.9188
93.3963
92.6901
84.0343
93.7984
94.4495
94.4151
15.7148
92.0457
91.2732
92.4658
88.9058
48.5253
87.1033
88.8723
38.2624
93.8564
45.8743
94.5088
92.3499
94.2616
92.106
92.5597
81.6283
92.5148
93.58
82.5314
91.5324
93.8033
85.7015
92.3024
91.4146
94.1213
72.5379
36.3978
91.9475
88.4586
46.0197
86.6188
94.3395
92.9559
90.6587
93.0472
93.7582
93.6742
92.2305
91.4834
60.3622
93.6077
48.5534
92.4431
69.2158
94.3101
84.5829
93.6102
88.8436
94.1829
93.3503
86.6441
93.7517
94.3786
93.5548
88.8441
88.1911
92.3709
89.351
94.0423
92.3968
94.2218
90.9965
46.11
91.8367
93.8004
47.6711
93.0264
88.217
83.8343
94.4063
90.6597
93.6379
91.9492
91.9997
37.8722
87.9024
92.6463
34.329
51.8986
41.0541
33.6365
58.6723
93.4927
93.5358
93.717
93.6175
52.2998
93.4724
89.6782
91.0494
90.3858
89.163
64.2261
45.1827
88.8649
73.209
68.8923
88.8266
93.418
93.2972
88.8402
93.1376
92.9589
88.6751
92.7882
94.2952
70.9587
93.4986
94.8168
90.8599
86.4443
81.5577
35.3858
94.1163
80.2681
81.8446
94.3349
90.4264
45.9241
87.7395
94.3932
69.8944
89.7763
94.2424
82.207
87.46
46.0499
90.9495
92.6668
89.897
89.0921
88.1282
91.7312
41.4149
92.53
83.574
94.2891
93.6949
92.6179
93.0923
53.78
92.7792
91.3995
92.3731
87.7495
92.603
94.4421
84.4321
94.9048
90.3714
93.694
81.8082
94.2612
93.6551
92.0021
39.937
93.3602
90.6578
91.9963
94.4174
86.048
87.6263
92.2816
91.9942
87.4705
91.1872
88.2069
34.5879
92.5784
86.7034
94.4406
94.5299
90.4178
24.5038
92.3578
91.6959
91.5998
32.1994
92.7356
71.9191
90.9684
90.9255
87.7435
91.6381
94.5542
91.931
88.7136
51.7856
31.1939
92.5426
92.5715
87.6349
87.866
87.8003
94.2811
85.1641
91.8264
94.3664
84.8359
94.5184
35.9652
94.2734
87.8272
93.3488
88.1458
93.4377
88.267
92.3089
90.4854
87.9877
89.6233
92.7129
90.0074
89.3465
22.8095
17.6007
90.7388
94.0282
80.4881
87.6071
92.9157
42.6193
85.5532
90.9966
88.7863
63.7342
42.4133
87.7711
80.791
93.5098
89.9745
69.4858
42.1626
94.0143
88.9824
87.5773
48.3915
87.6842
93.0582
89.4346
6.15439
94.3174
34.1347
53.2876
92.9576
94.8678
91.3209
87.5059
93.8321
87.8091
87.6852
87.8809
90.4595
94.1895
90.6778
94.6183
93.8806
58.2569
93.4991
94.3172
94.0397
47.0944
92.1479
46.1897
94.3996
93.5328
47.9525
91.8637
59.515
56.4556
53.3035
44.6309
44.3005
43.2051
50.2359
43.6119
88.5014
87.7936
87.8717
88.3058
87.8127
87.372
93.3399
83.3368
94.0286
89.9428
93.2703
86.3159
87.8353
94.4804
93.5362
90.5059
91.5039
91.3277
92.9735
85.192
87.3622
94.061
90.3456
81.1185
94.458
94.2304
90.8524
75.4453
88.1422
88.6447
43.3024
93.312
92.1314
91.6571
82.6355
93.7062
89.6233
28.7124
93.6358
92.6907
88.0838
91.8058
87.9431
87.7665
81.9925
94.3261
88.2746
86.9348
94.4401
94.4774
81.1785
94.2334
93.6206
87.8849
91.0944
16.3811
93.5704
36.5169
6.60991
86.347
42.0355
83.5976
94.3784
89.6786
40.6003
87.7335
90.765
94.4308
67.0621
93.7226
87.0578
92.0017
91.221
91.1844
93.7161
92.2518
92.3912
56.3138
34.0299
14.5226
77.3708
90.1875
88.0836
93.0958
87.9977
92.223
94.2991
86.2851
94.4326
40.3468
93.2953
91.5534
39.3304
90.8205
80.478
93.573
91.7629
94.4739
76.4315
61.505
90.6717
93.5284
87.1672
92.975
38.7201
94.0191
39.5805
91.4187
94.4671
86.7792
33.1225
72.2067
94.7572
93.3312
92.6953
87.9741
47.517
91.4294
89.5516
87.6162
86.3852
94.4721
93.5265
87.7853
88.7953
91.04
47.5365
80.2386
93.3087
94.0967
87.4915
87.8493
92.3502
87.2298
77.4061
88.3193
93.3878
39.0878
91.2678
93.6246
90.3676
90.3458
87.2665
85.9563
94.4915
91.1542
66.115
89.4291
27.1288
92.6565
86.1339
88.5897
58.4944
88.515
89.6151
89.9694
94.1596
93.0061
92.9711
92.6409
94.8919
93.9888
83.2732
88.6196
79.7165
87.8264
89.8216
48.4473
93.5591
50.0512
92.1385
93.3956
89.9004
90.5451
82.5491
94.1269
94.6291
79.5342
87.7929
89.0257
33.6526
89.5584
89.7943
93.3655
94.2235
85.9387
89.0022
92.128
62.7395
93.1702
94.3997
42.1394
81.3154
90.3942
91.5298
92.5051
85.1224
94.195
93.8336
77.3097
88.7073
91.1914
88.4181
88.8184
93.4545
44.0378
92.5831
94.4211
86.6184
92.9124
51.9176
87.0022
91.8716
92.2288
48.069
94.0305
94.2963
93.5039
35.7693
89.7088
93.2098
93.1174
94.0138
35.3595
85.7253
44.6046
88.0308
87.8953
86.6994
49.8663
87.7115
33.3732
65.3188
93.6884
94.4293
81.8614
40.4909
94.2938
13.6178
86.4548
92.649
84.4976
92.919
90.8424
61.3165
87.6587
82.4921
36.1654
51.5186
94.5722
85.1238
87.6465
43.1999
87.7805
84.5392
94.3185
49.1418
90.4873
86.8905
93.909
79.4198
83.5054
92.5844
90.6191
87.722
87.8979
52.0617
49.5583
87.9196
89.8516
91.1746
92.9208
92.2965
92.9663
80.9431
92.2053
87.4776
89.8928
89.3656
93.2839
58.0347
93.1399
87.7265
93.847
72.6475
87.9218
87.8008
92.4374
87.4122
87.9766
87.2251
89.7235
93.1814
87.8561
87.4797
54.7453
44.3493
85.4261
91.9697
87.7619
94.3475
93.5474
94.0929
93.2541
93.1202
94.1399
93.9363
91.4108
87.7443
52.9689
93.9721
77.1112
93.3509
84.2462
41.5136
89.8448
87.7034
80.1721
89.4879
94.3873
34.0136
93.9288
94.0706
94.7952
93.4531
91.7434
91.9281
90.2016
89.6099
88.2556
19.2945
49.7671
80.4464
98.6741
83.0404
85.2822
88.4085
91.7716
95.6966
91.8817
92.6161
94.9714
95.9874
94.2484
93.4156
85.6199
92.6464
94.3644
91.8801
)
;

boundaryField
{
    frontAndBack
    {
        type            empty;
    }
    wallOuter
    {
        type            zeroGradient;
    }
    inlet
    {
        type            zeroGradient;
    }
    outlet
    {
        type            fixedValue;
        value           uniform 0;
    }
    wallInner
    {
        type            zeroGradient;
    }
    procBoundary3to1
    {
        type            processor;
        value           nonuniform List<scalar> 
48
(
94.3931
94.0167
94.1303
94.3228
94.14
93.4465
94.0167
94.2232
94.4573
94.006
94.006
94.2933
94.2933
94.2485
94.1241
94.3741
94.4052
94.3813
94.4052
94.4083
94.3635
94.4289
94.4083
93.3109
93.3851
94.279
94.4351
94.4289
94.4226
94.0962
94.0962
94.2978
94.2978
94.4573
94.3617
94.1315
94.1796
93.3851
94.4545
94.2761
94.2485
94.3764
94.4574
94.4083
93.8902
94.4181
94.1196
94.3089
)
;
    }
    procBoundary3to2
    {
        type            processor;
        value           nonuniform List<scalar> 
29
(
92.3304
92.3304
88.7572
91.5228
93.8698
93.3524
87.1097
92.6926
90.6373
90.9233
93.0702
93.6669
92.0188
87.1918
88.3474
87.0425
88.9858
90.045
91.8857
88.0312
88.1968
88.9858
88.6635
90.045
88.4801
88.6116
90.045
93.6735
93.6735
)
;
    }
}


// ************************************************************************* //
