/*--------------------------------*- C++ -*----------------------------------*\
| =========                 |                                                 |
| \\      /  F ield         | OpenFOAM: The Open Source CFD Toolbox           |
|  \\    /   O peration     | Version:  v1912                                 |
|   \\  /    A nd           | Website:  www.openfoam.com                      |
|    \\/     M anipulation  |                                                 |
\*---------------------------------------------------------------------------*/
FoamFile
{
    version     2.0;
    format      ascii;
    class       volScalarField;
    location    "0.36";
    object      epsilon;
}
// * * * * * * * * * * * * * * * * * * * * * * * * * * * * * * * * * * * * * //

dimensions      [0 2 -3 0 0 0 0];


internalField   nonuniform List<scalar> 
1466
(
2.34705
2.84628
0.719178
1.61819
19.6162
13.2728
1.19771
16.8918
3.94907
6.92546
0.263979
3.86806
0.22553
1.11154
0.908692
1.9465
0.533282
2.85027
7.78169
0.80193
0.902786
2.71696
8.8955
2.57129
1.13851
0.326689
0.670283
4.34394
2.24781
7.59492
19.0084
15.325
3.87541
12.0807
2.82692
0.797743
0.459186
1.34253
10.5378
3.74522
4.05248
1.16239
4.03337
14.1968
4.84917
4.70476
0.883802
3.47985
0.692687
0.917938
0.328511
8.63816
21.8541
14.7509
4.64203
4.65027
1.65027
0.238974
0.0919147
3.86875
1.7471
6.56795
24.5346
14.1795
2.95719
0.896371
4.98888
0.859659
2.31199
3.77459
0.241066
1.67022
1.67012
1.22721
0.381438
10.2541
1.41079
2.06198
2.03686
4.09327
0.476006
1.1851
0.834684
0.441293
1.09997
0.731836
0.888714
1.5537
0.713809
3.28767
1.16681
0.726637
3.13391
2.08297
0.295796
0.788588
2.55731
0.394985
3.45216
1.13153
1.05492
5.15556
0.905519
1.81952
0.866418
4.08632
0.795956
0.820828
3.15461
1.23005
0.0777407
0.567691
2.76096
1.15819
0.265245
6.73372
1.04127
0.981846
3.44401
0.23673
0.715906
2.2512
0.631676
1.19959
0.702182
0.745111
0.862442
1.46598
2.36764
3.15644
0.164741
1.62073
1.6954
4.47219
0.347473
4.00688
1.78869
0.531683
4.7679
2.2391
6.67077
0.785038
1.45786
2.45621
4.88007
1.28934
0.68641
1.41988
3.96818
1.45503
1.53757
1.51929
3.08688
2.27326
1.01505
0.211982
1.90452
3.93222
0.357913
1.53541
5.43147
1.00126
3.09914
0.773657
4.59628
3.70233
4.76614
4.55108
0.828693
1.19635
0.605741
0.615891
1.17154
3.84255
0.709033
2.16727
3.97674
3.22798
0.981071
3.3214
1.94891
0.803512
0.229737
0.731862
1.72208
1.00269
0.822669
8.52516
0.81296
1.98055
2.42357
1.65856
0.910508
2.87489
0.824819
1.75593
4.62245
1.32335
1.01531
1.03158
4.30777
0.253848
0.830821
0.825971
1.78269
1.52462
0.8048
6.03674
0.815217
2.67498
1.95745
3.61109
0.35333
0.69287
3.48078
0.828093
0.304032
0.36525
0.894339
1.30116
2.269
2.44133
0.923537
0.858255
3.92683
0.801236
0.990434
1.74969
0.527892
4.87567
0.455415
0.932691
0.870236
0.0921028
0.86643
1.8627
0.117612
12.1038
0.138772
1.36103
4.33869
0.158389
0.605626
2.55094
3.23489
0.636757
0.175686
0.789294
0.476169
0.69715
1.02477
2.39509
0.844057
0.709757
0.78082
2.27868
0.961159
4.55636
9.20552
8.80565
0.594447
0.850443
2.96688
1.63044
13.7319
1.55021
3.84755
4.56526
0.300238
1.443
3.02057
2.01438
0.340284
0.971126
0.986378
0.135102
0.575204
0.831476
1.3731
2.36027
1.59965
0.563553
0.753342
0.733338
0.524227
0.252009
0.34863
0.474696
2.0151
1.73555
0.733868
3.80513
0.28435
7.06248
0.639999
0.295147
6.78431
5.96129
0.386534
0.954257
0.272088
3.57762
1.17589
0.361376
1.66519
0.581907
0.864317
0.12865
1.01306
12.3368
5.08803
0.296264
0.24572
3.92369
0.363276
0.265087
3.93968
0.294246
4.70556
1.27142
0.815572
4.32507
0.245713
1.1812
0.55139
0.833161
0.260688
0.999516
0.155798
0.679412
1.88953
1.08882
0.18241
1.3763
0.989562
1.1869
0.10035
0.469958
4.91684
0.441897
1.81202
0.834794
0.579011
0.375391
0.797745
0.107315
2.77788
0.698602
0.21577
3.31464
1.44903
0.449499
2.46181
0.102814
0.107175
0.23643
3.77736
1.94159
12.2119
0.29
1.46206
4.60136
3.95777
1.62284
7.73572
0.863814
0.341861
0.150171
0.722258
2.00984
0.212224
0.418247
3.4269
1.16627
1.37007
1.50143
0.726136
6.07246
0.730816
0.248473
0.372931
4.29389
0.506954
0.336512
4.81517
0.294636
0.414827
0.319391
0.153104
0.191796
0.350323
3.36405
4.04451
7.55626
1.69182
0.884286
3.67816
0.147674
0.926116
0.0997917
4.80007
0.125654
3.97752
0.33456
6.79123
0.4874
1.75799
11.6724
0.484402
0.797561
0.449084
5.29502
0.440926
6.35554
6.61599
0.926018
1.33681
1.49144
0.357955
0.673883
0.695592
0.215085
2.42715
2.65918
2.53461
3.27806
3.38687
2.92422
2.04071
2.59985
4.40335
0.463677
1.00038
7.05509
9.40401
9.89944
7.98171
14.4822
3.48556
2.37604
2.94367
0.204697
4.35063
1.12977
3.82943
7.05162
2.55146
3.46624
6.91903
1.32461
6.2099
6.69433
0.626982
0.64581
8.25285
2.30641
4.21394
5.85592
1.68205
0.98106
6.93387
0.817146
0.573142
0.520932
3.60235
2.13639
11.098
0.576939
3.56159
0.483816
7.78736
2.43307
0.389295
1.37288
18.5629
16.6657
0.771291
0.324279
10.1299
11.8879
2.38325
0.537055
13.4445
0.416549
14.1019
1.07697
0.435166
0.405949
16.5688
5.68221
11.8294
0.61075
0.489678
0.381618
10.9115
7.78919
12.0647
7.24167
2.54618
2.48561
0.652229
0.488248
9.71914
5.28592
0.33508
3.11577
7.95198
1.80194
3.16226
3.48102
2.43059
8.24955
2.3384
0.686954
0.331208
3.69573
0.493
0.474198
0.431702
0.311159
0.369511
7.20775
3.23005
5.38909
4.08019
0.188101
3.50191
2.82224
0.198335
0.313478
0.538033
3.52157
2.3706
2.84371
0.434503
4.80637
5.2214
7.55075
0.843914
0.19378
6.01096
9.31487
3.16892
8.60655
3.90844
0.297167
0.363729
5.58864
8.62744
0.630063
0.522932
1.08744
10.2839
1.71206
3.25331
4.5298
3.62086
0.475337
1.01963
2.14151
0.586278
0.228159
2.73176
4.29666
8.34937
2.81875
0.817649
1.9833
3.90204
5.42459
1.64411
1.30532
3.42261
4.9898
0.381881
3.02657
7.86264
0.243288
3.44195
2.93314
0.220644
2.56472
1.84819
3.41852
0.959712
7.67916
5.06968
0.504756
6.7198
4.8566
0.384741
1.14991
4.80453
0.596968
0.491859
0.517254
4.61257
1.51535
7.78874
3.06542
6.9721
0.672979
0.545588
0.305214
0.142085
3.44399
1.44014
0.402401
6.1699
4.79939
2.41152
6.22109
5.07396
8.75842
0.747701
0.164005
5.74299
1.11226
1.37557
0.735837
0.533633
0.817147
9.06499
1.11015
0.487904
2.44058
0.0805089
2.0826
0.833564
10.9609
2.93033
4.71736
0.408349
3.18585
4.20904
2.20132
3.9318
10.3202
0.564025
0.515553
0.840074
4.06024
1.57593
2.34744
0.12614
5.21719
0.274117
2.72777
4.87507
0.849862
2.25743
8.58122
1.74097
5.86954
0.37936
4.42967
4.2696
3.33947
0.828134
0.285123
2.00954
9.30796
5.12498
8.34827
4.57943
10.8974
2.77376
0.179313
9.81314
0.632991
0.784688
0.682062
0.0984955
0.243248
0.361573
1.15612
5.56382
10.2926
0.469766
0.199623
0.666477
0.487822
0.396182
0.376157
0.224586
0.183251
7.23894
0.299053
0.24834
2.6059
0.940182
0.745189
3.19882
0.343639
5.32776
0.838187
3.47399
0.261625
0.281867
1.26184
2.42646
0.425734
2.1637
6.05745
1.00554
2.65829
1.30826
9.88626
2.84522
0.642306
0.505905
0.415478
5.14239
0.723248
0.554219
2.15971
3.29879
5.25632
0.75377
0.633193
2.54003
0.842937
0.500527
2.10158
5.6439
0.628296
2.18716
1.64427
2.47965
5.52206
3.86165
2.81119
0.338815
0.0964499
0.0952555
5.17065
0.100862
0.0944021
1.09345
6.19349
2.40787
0.111107
0.117361
0.913811
5.50021
0.266745
3.30375
0.71839
0.990147
4.9587
0.210567
2.94381
0.410873
0.75533
2.24254
3.36494
11.5947
5.08868
0.460002
0.847075
0.743838
1.41446
0.402529
0.490331
0.699214
4.94914
3.56517
1.56351
0.242515
0.22168
3.07202
10.7132
8.31605
0.402926
0.964056
0.181295
1.57962
4.38017
1.97563
4.59767
10.2997
4.32441
0.560113
2.58074
1.29566
0.220804
0.480798
0.71901
0.527037
1.32946
1.17127
0.556234
0.72506
0.861642
1.04809
5.0491
8.22529
0.430149
3.0665
0.808524
4.41409
2.75861
0.507828
0.251906
0.565919
0.212401
2.62681
1.20895
0.458544
3.04404
11.8231
0.2823
0.64264
2.31978
0.842208
5.24546
2.49858
0.286544
1.63644
4.39101
11.0413
0.466619
1.78822
1.00214
2.5925
2.85036
2.46023
0.473871
0.304239
0.594384
0.707774
0.719997
0.45288
0.180148
0.586364
0.814843
4.42185
0.586969
0.989946
4.42237
0.23378
0.260952
4.73302
3.59638
0.120926
0.652507
4.28749
4.99733
2.57693
0.760617
5.24316
0.26479
2.78893
4.20253
0.479692
0.356885
0.43786
0.929223
0.334641
0.348411
4.28831
0.144047
4.99204
2.17099
0.599979
0.889748
2.59146
0.577358
2.36145
0.433926
0.553651
0.585849
1.92097
13.3996
0.204662
0.714395
0.976965
0.930719
10.6404
1.57111
1.09576
0.253201
0.300569
0.579775
2.44152
0.202356
2.05353
4.49163
2.23646
15.6208
0.178081
0.800158
0.557102
2.53031
0.537949
6.2909
0.128165
0.197359
1.25987
3.39716
2.88499
0.432423
0.210151
0.263082
2.2994
0.46462
0.857822
1.16539
5.08258
0.668183
1.98717
0.206063
4.14546
3.6262
0.310493
0.758261
4.67356
0.815345
1.99596
1.95537
0.564749
0.824634
2.43466
3.67245
4.6077
0.811277
0.838526
0.399066
0.336934
1.23985
0.886315
0.631798
0.186284
2.71598
0.305481
3.61493
0.885817
2.83665
0.645758
0.496112
0.481816
0.606856
0.50928
5.36647
5.87404
5.19131
5.41531
0.606219
5.67651
5.51959
0.651432
0.663087
0.715493
3.0546
0.757694
0.778408
4.62064
0.317582
4.00887
1.19054
5.20308
7.1788
0.518373
1.97065
2.55804
0.259828
3.45981
2.21
0.427698
0.72079
4.14262
2.87322
0.992026
0.426636
0.308055
3.82671
0.590024
0.887767
4.92621
1.39253
3.26026
4.48943
11.1297
5.51569
0.871477
0.292629
5.28142
1.42571
0.574701
0.21801
2.62228
5.46058
4.33345
4.74934
1.94971
0.357291
1.51337
6.24255
3.15806
5.65523
4.48538
4.59544
3.29316
0.787887
4.74916
1.27671
1.12958
4.42436
1.83281
3.01732
0.720155
2.68023
1.37627
0.814637
0.120903
5.32581
0.562613
0.924919
0.084466
5.20111
1.1285
1.97366
6.60192
8.95393
10.0151
5.55323
1.69963
0.87608
14.007
12.9491
0.889191
0.420606
5.87904
6.87866
1.37637
3.89618
5.34896
0.258777
0.155333
4.51078
9.1576
0.173321
0.648055
2.8045
0.313558
2.83863
3.03805
0.251802
2.39677
0.529299
0.987253
0.57872
0.161261
4.99203
0.186313
0.609345
8.73156
0.302617
0.228953
3.71277
7.59179
1.48573
0.443951
0.68575
0.517832
1.42671
1.5703
6.51097
4.87267
4.21158
0.0970116
8.63305
0.521
1.15578
9.71225
0.281566
5.57594
16.1797
0.561217
2.92542
3.80489
3.29111
5.85709
1.66824
0.93682
4.20992
8.39651
4.2751
0.207378
0.632382
0.87878
4.73612
0.353653
4.23214
5.17674
1.12562
1.95523
0.264135
4.14339
0.768019
1.12999
8.0094
0.480219
2.5373
0.276973
0.259929
0.564787
4.45658
5.08797
3.42512
0.35423
2.61097
0.3439
2.32445
1.81163
1.6275
1.19958
3.90227
0.485614
5.32127
0.76499
0.324182
1.28499
0.441028
1.99734
0.242914
2.87521
0.280953
8.27992
2.01735
0.13035
3.32145
0.251631
2.48045
0.149014
3.31415
0.615214
1.41137
7.30846
0.16744
3.04968
0.159565
0.226077
0.378035
0.650203
14.8702
0.418048
2.52787
1.98194
0.512045
2.31054
1.36002
1.75184
1.76456
3.97057
0.279619
4.59946
0.226612
3.18112
0.536179
0.222337
2.81449
3.86341
8.35262
1.21561
1.67744
3.48928
1.84436
0.47265
0.356543
1.42708
0.680096
4.00746
0.497917
2.28407
17.5404
13.2637
3.03384
1.63232
0.317291
0.658964
3.58302
2.14478
1.56609
4.04073
0.474377
0.242876
2.64845
3.49204
2.50722
0.508925
0.257863
1.61481
1.44768
0.519487
8.71352
4.74156
2.8192
0.36318
4.30909
0.184306
0.1428
4.12127
0.350099
0.878123
0.557522
1.69955
5.06026
0.120984
7.13319
0.0886346
0.526892
0.200409
2.42156
5.71874
1.09909
2.745
2.09946
3.50954
5.89731
4.27367
1.38403
2.48357
0.215718
0.124004
1.80794
1.4115
7.14214
4.17219
1.88602
0.707034
2.52292
0.419207
1.91877
0.878423
0.592624
0.494374
8.67234
1.42702
0.993148
3.21381
1.0875
4.32394
5.81688
2.90476
6.08883
0.515998
0.59485
0.441195
0.209244
5.08404
10.0214
0.380291
6.10672
0.935277
2.04613
0.385936
3.30013
0.931886
0.175162
3.55371
0.0867842
0.818516
2.16324
3.48525
1.91653
0.577335
3.11606
7.24081
0.906853
0.382245
3.12905
5.94726
0.389571
8.74198
4.76372
4.63229
0.0775724
1.15624
1.75209
0.356
6.31043
6.08061
8.47893
0.702609
1.07195
3.72308
3.56558
2.37317
0.579737
5.50841
10.5801
4.95392
0.899105
5.3421
5.45781
2.63707
0.246753
2.26878
3.5371
2.86171
5.69079
0.332107
2.87669
0.127746
4.02175
0.261817
4.39409
0.15175
0.393569
4.37758
3.13618
2.65324
1.91073
0.171843
1.75471
1.02922
3.33217
0.247149
4.85412
0.190493
3.45483
4.33348
1.30482
4.29297
0.384999
0.687444
1.26267
0.2228
3.81427
2.4611
4.35166
0.673026
2.57085
4.17375
0.13313
0.161628
0.681245
1.17318
1.26177
2.83248
0.69489
1.51743
0.588105
1.25093
2.28674
0.133699
0.339778
0.706044
1.18417
1.76193
1.46829
3.34082
0.633648
1.20571
2.79076
0.394895
3.95012
0.228794
0.352249
0.693628
1.96104
0.869422
0.926424
0.59632
2.50006
0.336908
0.778214
9.08537
0.298378
0.37492
3.29672
0.580517
2.01329
1.62928
0.382838
3.80928
2.27153
0.670756
0.760801
1.797
1.11901
1.45376
0.382249
4.21275
1.9778
0.890437
4.82097
0.192312
2.51512
1.85178
2.55867
1.18587
2.16047
0.466033
0.486437
0.706209
0.557094
4.30473
0.194342
5.53048
4.58062
3.75015
0.636654
1.81246
4.86018
0.169921
5.01287
1.10181
0.80337
1.96964
0.751922
3.16475
0.576956
2.8364
1.54082
0.346118
5.6928
7.72542
4.28528
18.59
0.753531
0.585349
0.698132
2.28167
3.94404
4.29559
1.92526
0.504548
0.65561
2.74682
2.32926
0.538649
1.33069
3.47837
2.40227
1.61041
1.21055
0.286733
1.22856
2.53825
4.95884
1.50544
4.27257
4.05688
0.694559
2.49304
4.18716
1.97405
0.308713
3.21072
0.217028
0.447328
4.57737
4.24693
0.812664
1.43331
4.09105
0.710451
10.2252
5.18313
4.68177
3.45512
2.46917
6.7681
4.70242
)
;

boundaryField
{
    frontAndBack
    {
        type            empty;
    }
    wallOuter
    {
        lowReCorrection 0;
        type            epsilonWallFunction;
        value           nonuniform List<scalar> 
102
(
0.22553
0.22553
8.8955
0.381438
0.265245
1.01306
1.69182
0.396182
0.0964499
0.0952555
0.100862
0.0944021
0.111107
0.117361
0.913811
5.50021
3.30375
2.94381
0.743838
1.56351
0.402926
0.560113
2.58074
0.808524
4.41409
2.5925
2.85036
0.479692
0.348411
3.6262
0.758261
0.496112
0.481816
0.606856
0.50928
5.36647
5.87404
5.19131
5.41531
0.606219
5.67651
5.51959
0.651432
0.663087
0.715493
0.757694
0.778408
1.19054
5.20308
4.14262
0.992026
3.82671
4.92621
4.33345
4.74934
1.51337
4.48538
4.59544
2.68023
1.37627
6.87866
0.258777
0.173321
0.251802
0.186313
0.68575
8.63305
3.29111
5.85709
1.12562
1.12999
8.0094
0.564787
4.45658
3.42512
1.6275
0.76499
1.99734
8.27992
1.41137
3.04968
0.418048
3.97057
4.59946
8.35262
1.42708
2.28407
4.04073
1.44768
1.4115
7.24081
0.906853
0.246753
0.332107
0.15175
1.91073
0.13313
1.51743
2.28674
0.298378
1.62928
3.80928
)
;
    }
    inlet
    {
        type            fixedValue;
        value           nonuniform 0();
    }
    outlet
    {
        type            zeroGradient;
    }
    wallInner
    {
        lowReCorrection 0;
        type            epsilonWallFunction;
        value           nonuniform List<scalar> 
138
(
0.263979
0.533282
2.24781
7.59492
8.63816
21.8541
14.7509
4.64203
6.56795
0.726637
1.05492
1.81952
0.631676
6.67077
0.785038
1.28934
0.68641
4.55108
1.98055
2.42357
1.65856
0.36525
0.605626
0.636757
0.175686
0.789294
0.476169
0.69715
13.7319
0.563553
0.753342
0.474696
1.1812
0.55139
0.833161
0.260688
0.999516
0.155798
0.679412
1.88953
1.08882
0.18241
1.3763
0.989562
1.1869
0.10035
0.469958
4.91684
0.441897
1.81202
0.834794
0.579011
0.375391
0.797745
0.107315
2.77788
0.698602
1.94159
1.62284
7.73572
0.863814
0.341861
0.150171
0.722258
2.00984
0.212224
0.418247
3.4269
1.16627
1.37007
1.50143
0.726136
0.248473
0.0997917
4.80007
0.440926
6.35554
0.215085
9.40401
2.94367
1.68205
2.13639
0.483816
0.771291
0.324279
10.9115
2.54618
2.48561
9.71914
5.38909
4.08019
0.198335
0.363729
7.86264
0.384741
1.14991
9.06499
3.18585
8.34827
0.361573
1.15612
0.24834
0.415478
1.09345
2.40787
8.31605
1.32946
0.212401
0.2823
0.286544
0.180148
4.42237
0.23378
0.929223
0.585849
0.46462
0.305481
0.317582
0.259828
3.01732
6.60192
8.95393
1.37637
2.92542
5.17674
0.324182
0.512045
1.36002
3.48928
0.658964
5.89731
5.01287
10.2252
5.18313
3.45512
2.46917
6.7681
4.70242
)
;
    }
    procBoundary2to0
    {
        type            processor;
        value           nonuniform List<scalar> 
42
(
11.3528
11.3528
3.02239
3.44045
4.37133
12.4849
1.71515
1.71515
5.17277
4.28147
3.8727
3.8727
3.68718
4.34558
5.15662
12.3476
5.63655
2.9524
5.20037
24.8
24.0278
1.57513
1.57513
24.3046
24.0278
0.686016
15.9172
0.459209
15.9172
10.3424
6.964
0.459571
0.533201
0.599124
0.60317
3.44045
5.63655
4.60321
13.5629
0.537667
0.537667
0.513186
)
;
    }
    procBoundary2to1
    {
        type            processor;
        value           uniform 23.6255;
    }
    procBoundary2to3
    {
        type            processor;
        value           nonuniform List<scalar> 
29
(
16.0284
16.2945
5.53697
4.32262
15.3543
28.032
10.5208
18.9027
4.33659
4.44133
23.5532
14.3354
11.4649
10.3655
4.56672
10.4415
3.98158
3.98158
16.2945
10.3655
5.76192
4.57709
8.07885
4.32197
4.84386
5.20816
4.33659
21.686
14.3354
)
;
    }
}


// ************************************************************************* //
