/*--------------------------------*- C++ -*----------------------------------*\
| =========                 |                                                 |
| \\      /  F ield         | OpenFOAM: The Open Source CFD Toolbox           |
|  \\    /   O peration     | Version:  v1912                                 |
|   \\  /    A nd           | Website:  www.openfoam.com                      |
|    \\/     M anipulation  |                                                 |
\*---------------------------------------------------------------------------*/
FoamFile
{
    version     2.0;
    format      ascii;
    class       surfaceScalarField;
    location    "0.36";
    object      phi;
}
// * * * * * * * * * * * * * * * * * * * * * * * * * * * * * * * * * * * * * //

dimensions      [0 3 -1 0 0 0 0];
oriented        oriented;


internalField   nonuniform List<scalar> 
2776
(
4.27987e-05
0.000201749
-2.59218e-05
-0.000218626
-3.65563e-05
6.5965e-06
-0.000166994
0.000196954
-4.52171e-05
3.7864e-05
-5.91982e-05
6.65513e-05
-3.12769e-05
1.6556e-05
0.000122513
-0.000107792
-0.000190612
-0.000231274
0.000217226
0.00020466
-0.000117955
-0.00011353
9.37861e-05
0.000137699
-1.43182e-05
1.21001e-05
-1.96527e-05
2.18708e-05
8.4383e-05
-7.4119e-05
-0.000222977
-0.000115262
0.000121935
0.000216304
-0.000199447
0.000196057
-0.000122519
0.000125908
3.31593e-05
1.76923e-05
-5.08517e-05
8.5482e-05
-8.51773e-05
0.0001176
-0.000117904
1.52782e-05
-1.52782e-05
0.000201035
-0.000101229
-9.50533e-05
-4.75244e-06
-4.72486e-05
-0.00019132
0.000156949
8.16196e-05
4.22776e-06
6.2314e-05
5.16937e-07
-6.70587e-05
-6.64212e-05
-6.83443e-06
7.32557e-05
0.000117461
3.48136e-05
6.12238e-06
-0.000158397
5.93987e-05
-4.50792e-05
-0.000106584
9.2264e-05
4.48474e-05
-6.11761e-05
0.000155243
-0.000138915
-2.81414e-05
4.15811e-05
4.13425e-05
-5.47821e-05
5.53189e-07
-2.46507e-05
2.23141e-06
2.18661e-05
0.000148775
-0.000117581
-3.1194e-05
1.49259e-05
0.000182376
-0.000167624
-2.96784e-05
6.72036e-05
0.000164587
-3.07559e-05
-2.78278e-05
-2.21694e-05
6.72794e-06
4.32692e-05
-2.62185e-05
-2.28479e-05
2.11953e-05
2.78711e-05
-4.84604e-05
3.20847e-05
-3.35809e-05
4.99565e-05
1.50367e-05
2.40602e-05
-8.6198e-05
0.000175716
-8.95185e-05
-0.00032157
0.000479523
0.000390036
-0.00018657
0.000241948
0.000109581
-0.000164958
7.57763e-05
-7.07551e-05
9.19147e-06
0.000165981
-0.000247187
-3.99618e-05
0.000121168
-0.000207618
2.66676e-05
0.000137057
4.38941e-05
0.000111192
-0.000114802
-4.36385e-05
-2.70349e-05
5.65755e-05
-7.52686e-05
4.5728e-05
3.59963e-06
0.000130118
-5.24455e-05
-8.12717e-05
-9.58662e-06
-6.62785e-05
8.5865e-05
-9.99993e-06
5.46126e-05
-2.75939e-05
-9.20959e-05
8.6265e-05
9.13128e-05
1.26142e-05
-5.58064e-06
-1.17615e-05
4.72794e-06
5.56216e-05
-7.21378e-05
-0.000206461
-0.000265331
0.000117461
0.000254219
-0.000106348
0.000173425
-0.000141913
3.2564e-05
-6.40766e-05
0.000228133
-0.000191848
-0.00019566
0.000159375
1.51845e-06
0.000149985
6.88337e-05
-0.000220337
5.68865e-05
-0.000107018
0.000167592
1.40099e-05
1.69501e-06
-3.09075e-06
5.51927e-05
-9.16545e-06
-7.41687e-05
3.50635e-05
-4.44098e-05
2.79537e-05
-1.86074e-05
3.58528e-05
8.59711e-05
5.77295e-05
-8.50514e-05
2.64915e-05
-1.47911e-05
-6.03563e-05
4.86559e-05
-0.000150675
4.13663e-05
0.000133022
-2.37134e-05
0.000122883
3.40994e-05
-6.95765e-05
-8.74059e-05
6.03249e-07
-5.26604e-06
4.2683e-06
3.9449e-07
-1.83159e-05
3.19201e-05
1.28873e-05
2.68882e-07
1.18704e-06
7.03527e-05
-7.18087e-05
7.97826e-05
3.27474e-05
-0.000161201
9.45191e-05
3.3934e-05
8.65178e-05
-0.000170413
8.93816e-05
-5.48663e-06
7.70025e-06
-0.000108744
8.62525e-05
4.87184e-05
2.42158e-05
-3.13531e-05
-6.66029e-06
-0.000161452
0.00017116
-3.04816e-06
-4.99448e-05
3.88126e-05
1.16854e-05
4.0252e-05
-3.29688e-05
-3.94121e-05
3.2129e-05
-0.000155388
0.000168119
-4.89816e-05
3.62503e-05
-9.14189e-06
7.21938e-05
-5.94523e-05
-0.000188917
5.81253e-05
0.000179775
-4.89831e-05
-9.39216e-06
2.50262e-07
-0.000146844
7.06695e-05
6.0212e-05
-0.000189932
-1.83164e-05
1.93311e-05
0.000109274
-0.000214036
0.000161648
1.92643e-05
4.08685e-05
-4.5096e-05
-2.21808e-05
3.48397e-05
-3.09748e-05
-3.31241e-05
5.76725e-05
-7.23658e-05
4.78174e-05
0.000135518
9.45708e-05
-0.000147941
-8.21479e-05
0.000145814
-1.00064e-05
-0.000147118
1.13103e-05
1.41042e-05
6.24406e-06
-6.33832e-06
7.42275e-05
-7.20874e-05
-8.39778e-06
6.25765e-06
6.18412e-05
3.08157e-05
-1.44125e-05
-7.82445e-05
3.23187e-05
3.40504e-05
7.8584e-06
0.000109197
8.26119e-05
-9.1372e-05
-0.000100437
0.000214238
1.71922e-05
-4.35032e-05
-0.000187927
-0.000152945
0.000165607
-7.68462e-06
-4.97746e-06
0.000147242
-2.49645e-05
5.40159e-05
-0.000176293
-3.10386e-05
8.01913e-05
-4.91527e-05
3.45258e-05
-3.49014e-05
-2.2848e-05
2.32236e-05
-3.56838e-05
-9.3606e-05
0.000130445
-1.15559e-06
2.5089e-05
7.13665e-05
-6.13921e-05
6.8931e-05
-4.47769e-05
-2.74253e-05
-0.000132936
3.62171e-05
0.000124144
3.69981e-06
-7.05946e-06
6.21418e-06
-2.85453e-06
7.88149e-06
0.000133851
-1.97937e-05
-0.000121939
2.22392e-05
-1.27564e-05
0.000137759
4.94604e-06
7.45637e-05
-5.21726e-05
-7.08515e-05
1.93646e-05
-1.74357e-05
-9.71665e-05
9.52377e-05
4.27205e-05
-7.01458e-05
7.74225e-05
-0.000139375
0.000120797
-5.88444e-05
0.000361133
-7.73778e-05
8.13624e-06
-8.16093e-06
4.8743e-05
1.57473e-05
0.000144607
-1.45401e-05
-0.000181015
3.66929e-06
0.000185227
0.000108415
-0.000141361
0.00011774
-8.47936e-05
3.47771e-06
-8.37536e-07
-1.22846e-06
-1.41171e-06
-1.02933e-05
2.51746e-06
-4.04259e-05
4.82017e-05
4.61343e-05
-4.88141e-05
7.89549e-06
-5.21567e-06
-1.01347e-06
0.00013265
2.63153e-05
-1.10371e-05
0.000163745
7.26831e-05
-9.58638e-05
-0.000140564
0.000170597
4.97858e-05
-9.25706e-05
-0.000127812
0.000178592
-0.000134669
0.000126674
-7.45973e-06
-0.000143732
-1.75285e-06
7.60854e-05
2.28495e-05
-0.000136008
3.70736e-05
-8.57426e-05
1.50373e-05
9.49211e-05
-3.01641e-05
-0.000133482
0.000175275
-1.16291e-05
7.07986e-05
-2.10128e-05
0.000126136
-0.000101727
8.47878e-05
8.06849e-05
-2.28937e-05
0.000156447
7.25664e-05
-1.86928e-05
8.90327e-05
-0.000142906
6.97292e-06
-8.46081e-06
2.92257e-07
1.19563e-06
-2.80093e-05
4.12337e-05
1.67008e-05
-2.99252e-05
3.02983e-05
-6.75122e-05
7.17396e-05
6.3974e-05
-5.96894e-05
-4.11422e-05
3.68576e-05
3.76952e-05
-1.24143e-05
-2.5674e-05
3.9303e-07
-3.13674e-06
2.3779e-05
-0.000210574
-4.86963e-06
1.8656e-05
-0.000115009
0.000101223
-0.00018757
0.000125896
6.93745e-05
-6.55327e-05
-2.62854e-05
4.65809e-05
4.52372e-05
-2.5395e-05
3.61483e-05
-3.2934e-05
4.62313e-06
-2.51461e-05
1.49424e-05
4.12528e-05
-8.12872e-05
6.13573e-05
-2.13229e-05
-0.000237905
0.000209201
-1.32697e-05
4.19729e-05
0.00013028
-1.50331e-05
-0.000118383
0.000129526
6.65308e-05
-2.45309e-05
0.000104722
-0.000128426
9.93379e-05
5.90948e-05
-3.00065e-05
-1.72622e-06
-4.0672e-05
8.35001e-06
3.40482e-05
-2.55415e-05
-3.89377e-05
-9.25438e-05
9.59778e-05
-3.43397e-06
-5.0708e-05
-5.57665e-05
0.000106475
7.98357e-05
1.29083e-05
-5.92263e-05
-3.35177e-05
-0.000156238
-4.51293e-05
1.37974e-05
-9.06999e-07
-0.000105866
7.73788e-06
-3.51298e-05
1.96479e-05
2.24549e-05
-1.22521e-05
0.000179269
-1.41048e-06
-3.55818e-06
-0.000123038
8.54486e-05
4.11474e-05
6.3334e-05
0.000110548
-0.000151643
5.13473e-05
-3.5095e-05
1.6687e-05
-3.29393e-05
0.000155105
-8.15145e-05
-5.45037e-05
0.000108463
2.94731e-05
-8.34329e-05
-8.22833e-05
0.000102275
6.8739e-06
-2.6866e-05
9.73943e-05
-2.50183e-05
-6.41567e-05
0.000100829
3.78919e-05
0.000182678
-1.15086e-05
-2.24774e-05
-0.000148692
0.000163609
1.2105e-05
-5.07747e-05
-3.64864e-05
-7.26007e-05
5.69145e-05
-3.23584e-05
-2.7938e-05
-7.84628e-05
8.6787e-05
-7.64944e-06
-6.74733e-07
0.000121161
-6.49846e-05
-5.61767e-05
-0.000141665
8.90769e-05
-4.35736e-06
5.69456e-05
5.48434e-06
-3.84192e-06
-2.78609e-05
3.63738e-05
1.77855e-05
7.68191e-06
-5.20318e-05
7.43883e-05
8.45928e-06
1.94455e-05
-1.96843e-05
-8.22202e-06
-0.00015847
-2.16776e-05
2.39095e-05
7.38014e-06
-5.80558e-05
0.000191858
-0.000123397
-0.000105018
3.42919e-05
-1.26701e-05
-5.81081e-05
2.18239e-05
-2.09063e-05
3.39221e-05
-5.85052e-05
1.40053e-05
-0.000146821
3.51242e-05
-0.000185883
0.000110512
-0.000113134
8.00442e-05
-1.42335e-05
-2.11082e-06
5.40396e-05
2.22547e-05
0.000144948
6.46028e-05
9.42807e-05
-1.73987e-05
9.47618e-05
0.000111422
-0.000108798
1.31226e-05
2.00154e-05
-1.61648e-05
1.45726e-05
-1.84232e-05
0.000108304
3.17927e-05
-2.8905e-05
1.47112e-05
5.97181e-05
1.41082e-05
-7.38263e-05
-0.000119979
0.000100307
1.96727e-05
2.94571e-05
8.50199e-05
-0.00012497
8.53717e-05
0.00015011
-6.85763e-05
6.82933e-05
-1.39349e-05
1.90524e-05
0.000204084
-0.000105124
8.41672e-05
-0.000108655
0.000129613
-0.00011067
0.00011396
-0.00014803
-8.00783e-05
8.67481e-05
7.28963e-07
2.1946e-05
1.54296e-05
-2.38362e-05
-1.52621e-05
6.47402e-05
-2.56418e-05
4.39492e-05
-3.8718e-05
-3.61613e-06
-0.000117626
-2.04233e-05
4.05569e-05
-5.62412e-05
1.70288e-05
-1.34273e-05
-1.9065e-06
4.22378e-05
-0.000195938
-0.00018531
0.0001894
-0.000114342
-5.89646e-05
-7.10276e-05
7.66759e-05
-2.22193e-05
1.6571e-05
-9.52854e-05
0.000108425
3.59323e-05
-1.82437e-05
-1.69597e-05
4.76924e-05
-6.96404e-06
-6.45646e-05
0.000100611
-7.82988e-05
-9.03914e-06
-1.32732e-05
3.02751e-06
-1.05e-05
-1.17416e-05
-4.69478e-05
1.95277e-05
3.91617e-05
-5.11594e-05
2.04889e-05
3.06704e-05
0.000131127
-6.21818e-05
-0.000161516
-0.000160621
2.12033e-05
0.000121101
-1.86869e-05
-5.05907e-06
5.56751e-05
-3.19292e-05
-0.000220117
3.32186e-05
0.000229697
-9.16313e-05
0.000140706
0.00010106
2.5182e-06
4.64061e-05
-2.73418e-05
-0.000158159
2.70303e-05
1.37706e-05
0.00014019
-5.28999e-05
5.33028e-05
-0.00013413
6.77589e-05
5.34816e-05
-0.00010812
-1.31208e-05
-1.69045e-05
-9.40025e-05
2.33899e-05
8.75171e-05
0.000113963
0.000121677
-0.000160016
-7.56233e-05
-3.90096e-05
5.81484e-05
2.2114e-05
4.76358e-05
-7.33149e-05
7.44596e-05
-4.87806e-05
0.000142234
-0.000158136
5.01604e-05
-3.42585e-05
1.05912e-05
1.38575e-05
-8.31352e-06
-1.61352e-05
4.16244e-05
7.53169e-05
-0.000100404
6.56445e-05
2.40096e-05
1.41817e-05
-2.76001e-05
-0.000124739
3.36789e-05
-2.20836e-05
0.000134735
-5.02255e-05
-0.000176533
0.000175234
-1.0183e-05
2.96284e-05
-1.55936e-05
-3.35591e-05
2.37213e-05
1.51937e-05
3.05773e-06
-4.0874e-05
-0.000120217
0.000103312
-2.93144e-05
1.64509e-05
1.28635e-05
0.000119759
-7.81943e-05
-0.000125618
5.40143e-06
5.56161e-05
0.000143236
7.65957e-05
6.88858e-05
-7.4482e-05
-7.09995e-05
1.2236e-05
1.8897e-05
5.90613e-05
-0.000102797
0.000170007
-7.1277e-05
5.59006e-05
-7.29911e-05
9.36861e-05
-9.63174e-05
7.23957e-05
3.4456e-05
-2.59682e-05
-8.69507e-05
1.10436e-05
5.37646e-05
-7.00547e-05
5.24651e-06
6.24825e-05
-8.80945e-07
-0.00012677
6.22417e-05
-0.000103007
0.00011489
4.40175e-05
-1.82514e-05
0.000107961
3.16798e-05
6.21062e-05
0.000151932
0.000103886
-0.000174198
0.000223519
0.000259549
7.63756e-05
4.00541e-05
-4.73959e-05
6.75811e-05
-3.54473e-05
-9.85765e-05
-4.97831e-05
8.96236e-05
5.87359e-05
-1.23233e-06
-0.000183784
-8.66677e-07
-1.72063e-05
2.78246e-05
4.75301e-05
-6.91258e-05
2.61112e-05
-4.07937e-06
3.82078e-06
8.61834e-07
-9.3374e-05
5.457e-05
-3.77863e-05
-2.21311e-05
8.4401e-05
2.5118e-05
-5.85875e-06
-3.52073e-06
-1.07732e-05
1.45862e-05
-4.1759e-05
4.84405e-05
-0.00011225
0.000105568
-4.03171e-05
1.24323e-05
3.07836e-05
-2.89875e-06
4.39769e-05
1.16544e-05
7.15603e-05
-0.000127192
2.07802e-05
-4.23144e-05
4.5302e-05
-7.55516e-05
7.2564e-05
-1.60457e-05
0.000165656
0.000102354
2.87965e-05
0.000400885
0.000171387
-0.000348752
-0.000101376
-6.26356e-05
6.59289e-05
9.80832e-05
9.47668e-05
0.000101811
-3.59439e-05
-1.94206e-05
5.32537e-05
-9.62401e-05
-5.21088e-05
9.6538e-05
5.18109e-05
3.39476e-05
-4.02991e-05
2.63669e-05
0.000171885
-0.000185823
-0.000174297
0.000188236
4.71752e-05
-9.57228e-05
6.2415e-05
-9.0152e-06
0.000111075
-3.52153e-05
3.28934e-05
-0.000108753
-8.33814e-05
-1.21379e-06
-5.84537e-06
1.49798e-05
-7.92065e-06
-0.000104981
4.75819e-05
-0.000127052
1.54244e-05
0.000125633
-4.38209e-05
-4.93064e-05
6.67882e-05
2.63392e-05
4.56763e-05
8.84085e-05
-0.000104341
-2.97439e-05
-1.55593e-05
4.0671e-06
-3.22074e-05
2.86867e-05
-8.96787e-06
-9.63087e-05
9.02307e-05
9.52242e-05
-6.37782e-05
-7.94571e-05
1.28823e-05
9.16638e-05
-4.08023e-05
5.34337e-05
-0.000151024
-8.02251e-06
0.000113917
-2.33149e-05
3.85854e-06
-2.25888e-05
-2.86656e-05
2.56861e-05
-1.24555e-05
6.3145e-05
-3.0837e-05
1.60478e-05
0.00013223
2.60556e-05
-0.00017222
8.37739e-06
4.97254e-07
-0.000112562
0.000106068
6.88616e-05
-7.4531e-05
-2.72646e-05
3.62922e-05
3.99638e-05
-2.22165e-05
0.000168926
-0.000157911
-1.10146e-05
-4.1224e-05
2.96972e-05
1.15268e-05
-0.000133344
0.000112632
2.07121e-05
-1.26458e-05
3.47274e-05
-2.20817e-05
0.000108807
-5.77317e-05
-5.1075e-05
-2.02194e-05
-1.26349e-05
3.28543e-05
4.51814e-05
4.84736e-05
-9.3655e-05
-0.000102801
8.63101e-05
1.6491e-05
0.000168552
-0.000169539
9.86447e-07
6.30531e-06
-1.89511e-05
-0.000196454
0.000116751
7.97023e-05
-6.39675e-05
2.27435e-05
0.000173129
-4.20333e-06
3.30456e-06
-5.16473e-06
1.86017e-06
-6.01514e-05
5.2224e-05
-3.46225e-05
-1.76014e-05
1.20573e-05
-0.000130661
2.78596e-05
0.000188259
-1.97072e-05
-8.59929e-05
5.62736e-05
2.97193e-05
-5.87719e-05
-2.04393e-05
7.92112e-05
-0.000166386
3.30419e-05
6.71121e-06
9.73969e-06
7.2818e-05
-3.06228e-05
-4.21952e-05
-9.69795e-05
4.37789e-05
5.32006e-05
-5.76291e-06
0.000107483
9.3545e-06
-5.30703e-05
-2.98616e-05
4.06175e-05
-2.16212e-05
2.10976e-05
7.51284e-05
9.46813e-06
-1.61675e-05
-7.36022e-06
8.64851e-06
-7.31348e-06
5.49879e-06
-6.83382e-06
6.9467e-06
-2.87473e-05
2.28721e-05
-1.04277e-05
-3.44158e-05
-6.8956e-06
6.11581e-05
4.70342e-05
2.8418e-05
7.23066e-05
-5.54227e-05
-2.24695e-05
-7.85241e-05
-2.83653e-05
-0.000172075
-2.43783e-05
1.82089e-05
7.26915e-05
-9.09003e-05
-5.75792e-05
-2.40445e-05
-1.39141e-05
9.12798e-05
-5.78427e-05
1.87685e-05
2.09882e-05
2.27907e-05
6.23075e-06
-3.68536e-05
3.59054e-06
8.91825e-05
2.7569e-05
2.23427e-05
2.66391e-05
4.71327e-06
-0.000314251
-6.41376e-05
5.83747e-05
3.83388e-06
-0.000163712
-8.98941e-06
-4.66504e-05
-0.000109454
7.01278e-05
8.59765e-05
-5.89842e-05
-4.09123e-05
-0.000172845
7.00828e-05
5.25934e-05
1.65504e-05
-4.83636e-05
-4.68508e-05
7.36296e-05
4.27218e-05
-2.20154e-05
-4.27901e-05
1.45616e-05
1.06015e-06
0.000125385
-0.000141007
0.000131516
-0.000126279
9.32551e-06
8.78593e-07
5.96998e-05
-9.16506e-05
3.10722e-05
2.76218e-05
-0.000143475
-4.23052e-05
-0.000179676
0.000212246
-0.000245355
0.000212785
-2.383e-05
-7.9855e-05
7.94728e-05
2.27671e-05
-0.000117251
0.000122106
2.84816e-05
4.297e-07
-5.70886e-05
5.29161e-05
-1.75427e-06
5.05883e-06
7.45335e-05
-2.23096e-05
2.36564e-05
-7.45041e-06
-3.01201e-05
-7.07147e-05
-8.87822e-05
1.60218e-05
6.23264e-05
4.06265e-05
5.77264e-05
6.84828e-05
-3.14424e-05
-7.79676e-05
-5.02595e-05
8.64682e-05
2.89445e-05
-6.90062e-06
-2.37701e-05
-5.53171e-05
-7.56214e-06
7.39228e-05
9.68848e-05
3.21179e-05
-8.09395e-05
-4.80631e-05
-9.66399e-05
-4.8992e-05
8.29438e-05
6.26882e-05
-9.71941e-05
9.87838e-05
-8.70143e-05
0.000176688
-0.000160388
-9.93528e-05
6.37021e-05
0.000125918
0.000135556
-0.000153594
-0.00010788
1.13281e-05
-1.76073e-05
-0.0001096
0.000115879
-3.49489e-05
2.71101e-05
3.67834e-05
-9.36005e-05
-7.34551e-05
0.00010769
5.93653e-05
1.18249e-06
-2.14226e-05
0.000151756
-0.000120419
0.00013293
-5.11398e-05
-9.99588e-05
5.74981e-05
-9.26713e-05
9.37314e-05
-1.79919e-05
-4.14977e-05
3.48388e-05
4.86087e-05
2.22253e-05
1.16475e-05
-8.24815e-05
-6.99644e-06
3.76133e-05
-2.58645e-05
3.96677e-05
-2.07997e-05
5.98161e-05
-7.56155e-05
-5.49557e-05
4.05437e-05
1.28567e-05
-2.70737e-05
-8.09459e-06
-6.07792e-06
2.70292e-05
5.08267e-05
0.000118924
-5.10551e-05
-8.15863e-05
6.4605e-05
-7.04789e-05
-2.90751e-05
3.77522e-05
-5.64483e-05
-6.80438e-05
8.67399e-05
6.18254e-05
-2.78778e-05
-0.000140396
-4.15742e-05
0.000219722
-5.34137e-05
8.73416e-05
9.19898e-05
-0.000117811
2.39208e-05
5.4853e-06
-4.01502e-05
1.07441e-05
2.12994e-05
0.000122392
-6.0339e-05
-8.33526e-05
1.91498e-05
-5.75332e-05
3.83833e-05
1.67269e-05
8.72353e-05
-2.53774e-05
-4.42104e-05
1.31395e-05
4.50401e-06
6.36242e-05
1.48305e-05
-8.29587e-05
-2.33647e-05
6.85848e-05
-0.000112686
5.49713e-05
4.3015e-06
2.74261e-05
8.30588e-05
-4.26631e-05
-6.78218e-05
-1.16577e-05
1.98123e-05
1.92716e-05
0.000143073
-0.000288641
0.000179278
-3.37099e-05
-5.64426e-05
-9.17104e-05
7.46978e-05
0.000319354
-0.000173842
-2.43869e-06
-5.40672e-06
1.61769e-05
-0.000123457
5.79323e-05
1.76659e-05
-7.10942e-05
-8.88365e-05
-4.91936e-05
8.09485e-05
5.70815e-05
-1.6802e-05
5.29536e-05
5.119e-05
-4.80251e-05
2.23293e-05
3.11811e-05
-1.08232e-05
-5.72747e-06
4.89296e-06
2.85601e-05
1.33611e-05
-4.73279e-05
-2.23484e-05
-4.07135e-05
6.30618e-05
-8.21714e-05
-4.61342e-05
7.18631e-05
2.54116e-05
1.27577e-05
7.30415e-05
-3.51767e-05
2.67402e-05
-3.34439e-05
5.67958e-05
-0.000112188
-3.97394e-05
-0.000103111
1.18117e-05
-1.80392e-05
2.83612e-05
-9.31193e-06
-1.90493e-05
-5.72374e-07
-3.01898e-05
-0.000109634
-5.26232e-05
-0.000110682
5.09457e-05
0.000124191
3.13944e-05
4.74422e-05
-7.88366e-05
-5.68045e-05
1.24411e-05
1.10329e-05
-4.58254e-05
7.64744e-06
0.000400527
-3.88148e-05
-2.30476e-05
8.34684e-06
3.84358e-05
0.000231108
-0.000210145
-2.59715e-05
0.000146072
-0.000129687
0.000124686
-5.12334e-06
-0.000125467
0.000156753
-0.000175077
-0.000124652
6.92688e-05
0.00037412
4.43599e-05
-0.000380044
2.79534e-05
3.20052e-05
-2.90916e-05
1.32465e-06
3.5566e-05
-3.64735e-05
-6.62118e-05
6.71192e-05
-2.38678e-05
-9.4384e-05
2.08019e-05
-1.77026e-05
0.000162025
0.000229798
6.56238e-05
-3.81805e-05
4.12068e-05
3.32532e-05
7.31862e-05
-7.08734e-05
0.000129363
-0.000216377
0.000136158
7.7248e-05
8.4637e-06
3.01399e-05
2.60672e-05
-3.25352e-06
4.68937e-05
-1.85324e-05
-1.06395e-05
-3.72039e-05
9.05504e-05
2.95973e-05
9.88663e-06
-7.41069e-05
-1.67193e-05
3.84627e-05
6.30665e-05
2.95612e-05
-5.93744e-05
9.86931e-05
-8.25513e-05
-0.000104924
-0.0001038
5.54702e-05
-7.75842e-05
3.69445e-05
-0.00012018
-2.0264e-05
9.54583e-05
4.49859e-05
4.31385e-05
-3.36347e-05
7.94196e-05
3.72739e-05
0.000167233
0.000130949
-3.4388e-06
9.21963e-05
-4.05975e-05
-8.3121e-05
2.64719e-05
-8.92193e-05
-1.53672e-05
8.05133e-05
6.63664e-05
-2.95561e-05
1.26217e-06
-3.7909e-05
-0.000111243
-0.00011817
-3.10297e-05
-0.000113658
0.000122001
0.000175114
-0.000161559
1.73249e-06
9.93705e-06
-3.0202e-05
3.71169e-05
2.47085e-05
6.02657e-05
-2.31488e-05
-8.24281e-05
-8.38599e-05
2.52814e-05
-2.69462e-05
-1.80617e-05
-3.42966e-05
9.0181e-07
5.74095e-05
4.75521e-06
1.29615e-05
-5.92933e-06
7.9436e-05
2.59401e-05
-8.16971e-05
6.49047e-05
4.39028e-05
1.94223e-05
-9.70843e-05
1.93397e-06
1.01442e-05
-7.20636e-05
0.000100145
-9.89331e-05
-1.87546e-05
-6.49961e-05
6.05505e-05
-8.41285e-05
-9.24155e-06
-4.70226e-05
7.06399e-05
-9.4939e-05
7.54891e-05
-2.309e-05
-3.03963e-05
4.96845e-05
7.16741e-05
6.60739e-05
-0.000107851
9.20935e-05
-0.000210053
0.000245457
0.000177592
-0.000212996
0.000119052
-4.51833e-06
9.36418e-05
1.42689e-06
-1.52552e-05
-6.26812e-05
3.8295e-06
-3.20686e-05
0.000153169
-0.000159818
-8.68314e-05
7.15197e-05
1.60854e-05
6.99964e-05
-6.98891e-05
-1.61927e-05
2.80668e-05
-3.00648e-05
-1.1088e-05
8.08567e-06
-2.72513e-06
-1.68425e-06
0.000108152
-5.22513e-05
-5.19238e-05
5.6874e-05
4.32775e-05
-5.2044e-05
-7.61168e-05
-6.15169e-05
4.92985e-05
-2.36918e-05
3.59103e-05
2.08038e-05
0.00011177
-9.96805e-05
2.8156e-05
2.31344e-05
0.00024056
-0.000244587
-0.000206026
1.41379e-05
3.17504e-05
-2.07367e-05
-0.000139202
9.54742e-05
5.04634e-05
-2.6835e-05
-7.98697e-05
9.23583e-05
-1.26194e-06
-0.000171271
0.000237052
6.95357e-07
-7.45555e-06
0.000165416
-0.000158655
7.09412e-06
5.05462e-05
-2.92223e-05
0.000102498
-3.0404e-05
-0.000120241
5.24061e-05
-7.40779e-05
-4.96777e-05
5.25425e-05
-3.63826e-05
-3.62903e-05
5.1416e-05
8.03325e-05
-7.1767e-05
5.40725e-05
1.76945e-05
2.55349e-05
4.42782e-05
1.44964e-05
6.47549e-05
-4.17539e-05
0.000107962
1.08947e-05
9.14927e-05
-6.99574e-05
-3.243e-05
2.31339e-05
-4.36381e-05
9.71802e-05
-3.11802e-05
4.10069e-05
2.69567e-05
-2.5363e-06
-0.000187411
-0.000198296
-0.000183553
-0.000182589
-0.000159958
0.000146887
2.59683e-05
3.35786e-05
-2.60254e-05
-3.35215e-05
0.000199392
-0.000182657
0.000195511
6.87793e-05
3.42719e-05
-6.78913e-05
-3.51599e-05
-3.28375e-05
-2.29291e-05
0.000139634
-4.36558e-05
-0.000171352
3.42957e-06
-2.92821e-05
6.33892e-05
-1.8843e-05
-0.000117416
-2.88567e-05
1.4215e-05
-9.1224e-05
0.000107351
-9.70784e-05
1.2845e-05
-0.000236189
0.000160698
-0.000213149
3.26541e-05
9.20773e-05
-3.10896e-05
-3.83982e-05
-4.63993e-05
2.21164e-05
-3.61333e-05
5.44178e-06
1.89499e-05
2.29311e-05
1.22784e-05
-0.000140663
9.4853e-05
-5.27663e-05
4.31949e-05
-1.7501e-05
5.7221e-05
-4.51083e-05
4.19063e-05
-0.000179323
-0.000310462
8.00145e-05
3.80601e-05
0.000192388
-6.12447e-05
0.000163597
-0.000142453
3.91217e-05
0.000140239
-3.70034e-05
6.40883e-05
-2.64885e-05
1.34525e-05
-9.14926e-06
-5.51704e-06
3.28154e-05
-2.9414e-05
2.21335e-05
-0.000180454
-0.000194101
-4.23457e-05
3.88035e-05
-1.92913e-05
-5.32754e-05
-2.98487e-06
5.50277e-05
-8.58999e-05
7.65485e-05
-5.80394e-05
2.84067e-05
-1.41882e-05
-8.38466e-05
9.4754e-05
-0.000103907
-7.57741e-06
0.000111485
4.82899e-05
3.19615e-05
-2.69978e-05
5.06655e-05
3.80986e-05
-5.51855e-05
8.3016e-05
6.96602e-05
-3.52795e-06
-3.07822e-07
3.96409e-05
-5.05253e-05
-7.1607e-05
6.78047e-05
-7.31205e-05
-0.000126772
0.000169702
6.34275e-05
-9.75485e-05
-0.000241173
-1.24001e-06
-6.7127e-06
1.13823e-05
0.000152602
-3.14404e-05
-0.000120771
-5.46516e-05
2.7329e-05
-6.74334e-05
5.60912e-05
6.08781e-05
-6.57574e-06
-6.60585e-05
3.66893e-05
-9.35256e-06
1.44377e-05
-0.000162047
-2.06963e-05
7.06295e-06
-5.24634e-05
-3.79522e-05
3.37269e-05
-2.27054e-05
-4.41733e-05
-0.000100491
-2.80465e-05
8.10363e-06
1.87028e-05
-4.24838e-05
5.70275e-05
5.80203e-05
-0.000149879
-0.00024487
0.00026866
0.00012609
-6.2689e-05
9.75302e-06
1.76073e-05
-1.90687e-05
4.11024e-05
-0.00018984
0.000153042
2.53887e-05
6.54728e-06
2.63143e-05
3.62074e-05
-0.000116224
8.37853e-05
-9.21248e-05
-0.000143126
-0.000105545
-9.40034e-05
-0.000148936
-6.07538e-05
-1.24352e-05
-3.12856e-05
-3.47358e-06
-1.43387e-06
1.16699e-05
5.2078e-05
0.00015897
-8.42525e-05
-4.98347e-05
-0.000188654
-0.000114488
-0.000111234
-0.000100954
9.21665e-05
-6.9455e-05
7.82423e-05
5.40849e-05
1.14547e-05
-6.26625e-05
-2.87712e-06
-0.000103826
6.38871e-06
6.18651e-05
-5.94602e-05
-3.01986e-05
4.57908e-05
-4.7564e-05
-2.88866e-05
3.06598e-05
-9.5147e-07
-1.12822e-05
6.53848e-06
5.69518e-06
3.00643e-05
-5.8094e-05
-3.1403e-06
-1.82776e-05
8.9432e-05
-6.27375e-05
6.55545e-05
3.73013e-05
-6.47572e-05
-0.000109497
1.63957e-05
-5.87294e-05
5.7736e-05
-5.30971e-06
-6.49611e-05
1.22314e-05
-1.02992e-05
3.47593e-06
2.06687e-05
1.23953e-05
-9.98728e-06
1.53759e-05
-4.17774e-05
-0.000211294
4.17275e-05
6.89272e-05
6.37839e-05
-8.23224e-05
1.85385e-05
7.67516e-05
0.000160244
5.92024e-06
-5.82565e-05
-4.48422e-05
1.71726e-05
6.34478e-07
0.000104865
-3.5393e-05
0.000111862
-7.96253e-05
6.05315e-05
-6.79908e-05
-3.47758e-06
-3.4821e-05
-2.72228e-05
2.31766e-05
6.63727e-05
6.60711e-05
-1.97185e-05
9.78159e-05
5.09183e-05
5.57744e-05
2.22831e-05
1.42804e-07
-2.66369e-05
1.28055e-05
2.20612e-05
-0.000206032
-2.63366e-05
-7.38305e-06
0.00028117
8.52692e-05
-5.74291e-05
5.36691e-05
3.10426e-05
2.5231e-05
-0.000198478
9.50737e-06
0.000208023
-5.12516e-05
3.56765e-05
-3.97214e-05
0.000132794
-2.11098e-05
0.00013441
-5.66897e-05
2.30756e-06
-7.89638e-06
2.67841e-05
-3.98673e-05
6.01392e-05
5.68589e-05
-7.71308e-05
5.67691e-05
4.33043e-05
-6.80166e-06
-1.79616e-05
-0.000246427
8.89375e-05
1.25356e-05
-3.95324e-05
-1.66865e-05
-0.000144615
9.21111e-07
0.000118152
-9.29809e-05
-0.000119691
1.10712e-05
-1.22446e-05
1.17338e-06
1.01197e-05
-0.000102856
0.000163071
-0.000151535
9.13196e-05
-1.30821e-05
9.95371e-06
1.66009e-07
2.1843e-06
-6.23357e-05
-0.000225716
-1.94737e-05
4.64272e-07
-1.35464e-05
9.67798e-06
2.75721e-07
-6.57399e-05
4.58485e-05
1.98914e-05
-0.0001549
8.10244e-05
7.38756e-05
-8.70213e-05
2.31098e-05
0.000110946
4.82741e-06
1.27799e-05
2.9175e-05
-3.3602e-05
-2.80981e-05
3.25251e-05
-1.78192e-05
-1.67103e-05
-8.55711e-05
5.19004e-05
-4.01488e-05
-6.14292e-05
-8.45498e-06
2.26439e-05
-1.41889e-05
3.5664e-05
4.14005e-05
-0.000105647
-1.85087e-06
0.000121713
-1.68284e-05
-0.000118262
1.30232e-05
-9.02194e-05
4.86548e-07
-4.80377e-05
5.92013e-05
-3.50169e-05
6.25411e-05
-2.30472e-05
-3.63065e-05
-9.77203e-06
-1.49544e-06
8.34937e-06
-6.85393e-06
-5.16193e-05
-6.29056e-05
8.30846e-05
-9.81684e-06
8.67826e-05
-7.17817e-05
-4.45214e-05
8.18093e-05
-7.08951e-05
-5.60648e-05
4.12377e-05
-3.72322e-05
-9.95042e-06
-9.89782e-05
-1.11704e-05
9.59255e-05
1.42231e-05
0.000124971
-0.000108912
6.65192e-05
-8.25783e-05
-4.62128e-06
-2.99774e-05
-7.63342e-05
3.1255e-05
-4.04151e-06
7.7437e-05
3.82706e-05
7.97407e-05
-6.39264e-05
-3.30667e-05
-6.10619e-05
1.90026e-05
-3.75741e-05
0.000138925
5.59106e-05
-0.000117588
8.97168e-05
4.61191e-06
1.05567e-05
1.34085e-05
1.3542e-05
-1.30037e-05
-8.1408e-05
8.35478e-05
-3.56613e-05
-5.34022e-05
0.000134085
-2.4061e-05
-0.000110024
0.000115324
-7.58409e-05
6.30811e-06
3.45623e-05
-3.95546e-05
-4.43142e-05
-4.71618e-06
7.33517e-05
1.9773e-05
3.3034e-05
6.55523e-05
0.00012571
6.82885e-05
-1.58599e-05
-1.28221e-05
3.66113e-05
2.44357e-05
6.65903e-05
-6.02493e-05
4.51434e-05
-7.72485e-05
-2.85892e-05
-7.28974e-05
-1.53123e-05
-8.7136e-06
1.39926e-06
6.38174e-05
2.01121e-05
4.36718e-05
-5.58615e-05
-1.92725e-05
-0.000135691
-3.33181e-05
0.00011192
7.80654e-05
-4.97031e-05
-3.82664e-08
-2.57349e-05
-6.47745e-06
-7.98029e-06
1.41144e-05
1.69282e-05
9.71986e-05
-7.25951e-05
-4.31583e-05
5.98919e-05
-0.00015083
-1.97778e-06
0.000109917
-0.000159875
-2.80876e-06
-9.34928e-05
9.09568e-05
-0.000104943
0.000165119
-0.00016969
-5.79535e-05
3.02937e-05
-9.65255e-05
-2.36386e-05
4.7173e-05
9.81695e-05
-7.7366e-06
-0.000118079
0.000118774
-0.000115917
-2.16118e-06
8.42334e-07
-6.46815e-06
0.000210138
-0.000204512
9.54514e-05
2.95428e-06
2.64364e-05
-3.84368e-05
-6.29334e-05
7.49338e-05
4.70846e-05
7.78795e-05
-9.25314e-05
-3.24327e-05
1.42283e-05
-5.61079e-05
-4.03567e-05
-6.51609e-05
-1.79973e-05
-8.36751e-05
-2.79025e-06
0.000119507
-4.30372e-05
-1.89505e-06
-9.44414e-05
-3.46889e-07
9.475e-05
-5.32214e-06
7.51868e-05
-6.53303e-07
-4.17507e-05
3.99964e-05
0.000105579
-7.95735e-05
4.30893e-07
-0.000141807
3.22687e-05
5.37151e-05
-2.20099e-05
-2.04495e-05
9.33331e-06
-0.000107787
7.03684e-05
2.24146e-06
-7.27489e-06
1.79157e-05
-0.000110968
8.25231e-05
-7.25088e-05
-3.86921e-05
0.000106974
2.44481e-05
-1.91791e-05
1.94294e-05
8.55531e-06
-0.000115424
-4.65172e-05
-1.12145e-05
-6.04223e-05
-1.37466e-05
1.20492e-05
6.98373e-06
-1.58807e-05
-1.15525e-05
-0.000150606
-4.14663e-05
-1.58649e-05
8.46851e-05
8.38432e-05
1.86215e-05
-0.00011367
-4.19228e-05
-0.000160434
1.05102e-05
-9.95098e-06
8.59758e-06
-8.05678e-05
6.79921e-05
-6.92795e-05
4.80612e-05
-5.89583e-05
-7.2778e-05
-2.73694e-05
7.99628e-05
5.67391e-05
0.000208813
-0.000338539
8.0459e-05
3.4005e-05
-8.91136e-05
6.58783e-05
-0.000103605
8.87056e-05
8.14555e-06
9.74414e-06
-1.31125e-05
-7.30389e-05
6.33549e-05
6.90493e-05
0.000106289
-1.21157e-05
7.47687e-05
3.03616e-05
-3.24166e-05
2.83012e-05
9.02286e-05
0.000174757
-2.18046e-05
4.87972e-05
4.34696e-05
3.33614e-05
6.81835e-05
3.47607e-05
-3.67433e-05
-6.62008e-05
-2.17423e-05
2.8823e-05
-5.14054e-05
-6.12901e-05
-9.65769e-06
3.16629e-05
-2.76264e-05
-1.34264e-05
-9.0242e-06
4.88175e-05
9.35082e-06
-1.49934e-05
2.85737e-05
1.74891e-05
3.51309e-05
1.4886e-05
1.88039e-05
-2.76522e-05
4.0933e-05
-0.000199437
-1.15728e-05
4.38118e-06
1.16275e-05
9.18727e-05
-0.000100604
7.93961e-05
-5.93597e-05
-4.91314e-05
-1.72898e-05
-4.99443e-05
0.00015997
-0.000156115
5.82403e-05
2.60491e-05
2.54089e-05
-0.000102505
-2.75902e-05
-2.27995e-05
5.78378e-05
-3.32978e-05
-0.000135407
7.27489e-05
6.26576e-05
0.000116751
1.3154e-06
-5.35405e-06
4.03864e-06
-9.21541e-05
-1.0992e-06
1.1575e-06
-1.72054e-05
-3.77905e-05
-4.78015e-05
-0.000111984
6.02303e-05
-1.95229e-05
7.55047e-05
-6.86134e-05
9.36955e-05
2.67211e-05
-6.14837e-05
1.10002e-05
-9.40812e-06
-2.04299e-05
2.69824e-05
1.34558e-05
-5.97135e-05
-5.75372e-05
-5.78404e-05
2.34638e-05
-3.2441e-05
0.000283446
-2.9359e-05
7.08425e-05
-7.62246e-05
2.90385e-05
-4.58836e-05
4.0235e-05
-5.0663e-06
3.93883e-06
1.12746e-06
-8.06506e-06
2.99876e-06
1.31579e-05
-1.82742e-05
5.11633e-06
5.09285e-06
-0.000121202
0.000142585
-2.1383e-05
-9.53339e-05
-2.58678e-05
0.000149181
0.000142807
6.3745e-06
5.12588e-06
0.000145128
-2.32123e-06
0.000159039
-1.39112e-05
6.44211e-06
-1.31623e-06
6.95904e-06
5.52518e-06
-1.09313e-05
-0.000190258
2.11983e-06
3.40535e-06
3.43523e-06
4.10068e-05
0.000119744
-7.44854e-05
0.000135734
-0.000151537
4.02745e-05
2.30698e-05
-6.33443e-05
0.000173965
-0.000219461
-0.000140418
4.56281e-05
-0.000120923
3.15684e-05
-2.60697e-05
-1.69264e-05
2.87708e-05
5.59145e-05
-1.58418e-05
-4.15831e-05
-3.96047e-06
-3.37987e-05
1.03863e-05
-1.15464e-05
0.000169816
-0.000182758
1.29418e-05
-7.66544e-05
-8.2261e-05
5.01248e-06
5.50001e-05
-6.8201e-05
0.000143119
2.75388e-05
-0.000104729
0.000156622
1.31946e-05
9.92626e-05
6.69694e-06
-0.000115002
-2.9757e-05
0.000185344
-1.13786e-05
-9.01946e-05
-1.30857e-05
6.09346e-05
-0.000169844
5.71785e-05
2.27503e-05
-3.53752e-05
1.63365e-05
-1.54476e-05
-6.35717e-05
0.000100944
-0.000110032
0.000101388
-4.91989e-05
0.000146277
-0.000157713
0.000102716
6.08085e-06
-0.00010799
2.47715e-05
-0.000159096
0.000170542
7.98976e-05
-2.4218e-05
-0.000192229
9.47129e-06
0.000193276
-7.93269e-06
-6.86883e-05
-4.37864e-05
8.04403e-05
-6.38843e-05
0.00015874
1.5944e-05
9.01128e-05
-0.000194119
1.88954e-06
-3.08176e-05
8.18157e-06
-1.1457e-05
9.34838e-05
8.51023e-05
-0.000169303
-0.000321902
-0.000109121
-2.41402e-05
-0.000127871
9.48748e-06
-0.000112533
9.07283e-05
-3.95416e-05
0.000119982
1.57981e-05
-2.51494e-05
1.86846e-05