/*--------------------------------*- C++ -*----------------------------------*\
| =========                 |                                                 |
| \\      /  F ield         | OpenFOAM: The Open Source CFD Toolbox           |
|  \\    /   O peration     | Version:  v1912                                 |
|   \\  /    A nd           | Website:  www.openfoam.com                      |
|    \\/     M anipulation  |                                                 |
\*---------------------------------------------------------------------------*/
FoamFile
{
    version     2.0;
    format      ascii;
    class       volScalarField;
    location    "0.09";
    object      nut;
}
// * * * * * * * * * * * * * * * * * * * * * * * * * * * * * * * * * * * * * //

dimensions      [0 2 -1 0 0 0 0];


internalField   nonuniform List<scalar> 
1431
(
0.00112869
0.000949095
0.000604551
0.000813785
0.00100957
0.000956706
0.000777956
0.00349876
0.000833954
0.00059661
0.00222412
0.00308477
0.00125067
0.00135726
0.000845336
0.000734291
0.000906658
0.000686542
0.000820546
0.000756335
0.00273386
0.00159851
0.000878619
0.00221921
0.00082428
0.00112934
0.00206193
0.000824353
0.000332953
0.000461343
0.000961306
0.000746613
0.000898992
0.000925267
0.00101294
0.000732256
0.000883934
0.000662796
0.000614604
0.00078201
0.000759707
0.000800745
0.00135678
0.000965703
0.000642974
0.0007762
0.000875031
0.00196589
0.000921521
0.000922936
0.00111885
0.000884593
0.00127267
0.00445491
0.000866958
0.000781626
0.000571132
0.00387398
0.000892752
0.000479582
0.00076431
0.00071198
0.000512413
0.00054416
0.000434419
0.000490671
0.000587648
0.00063719
0.000449874
0.000570044
0.00251718
0.000891561
0.000575778
0.000697761
0.00092335
0.00041951
0.000431291
0.000500689
0.000661061
0.000475255
0.000900456
0.000458304
0.00104557
0.000806495
0.00143897
0.000971266
0.000506067
0.000991813
0.00186518
0.00153684
0.000719259
0.000923407
0.000746739
0.000812958
0.000750098
0.000390562
0.00409683
0.00139843
0.00101572
0.000512588
0.000970538
0.00100981
0.000939095
0.000680732
0.000558584
0.00138234
0.000906683
0.0016221
0.000878428
0.00093215
0.000589341
0.00110087
0.0010595
0.000785989
0.000907883
0.000623684
0.000995992
0.000658355
0.000559017
0.000441141
0.000482295
0.000803239
0.00127096
0.00070947
0.00168496
0.000531832
0.000501865
0.00108615
0.000803127
0.000610484
0.000686845
0.000385637
0.00075438
0.000705218
0.000871885
0.00108931
0.000799045
0.00120647
0.00195725
0.000425662
0.000543753
0.00101583
0.000767645
0.00036327
0.00102867
0.000853442
0.000591734
0.00123034
0.000707283
0.000542939
0.00103113
0.00053191
0.000780884
0.000588236
0.000987748
0.000863913
0.00173309
0.00145951
0.00130626
0.000867439
0.00230062
0.00106593
0.000615257
0.000668949
0.00173239
0.000916806
0.000807677
0.000793965
0.000874082
0.00110893
0.00211227
0.00148943
0.000885879
0.00191888
0.00103383
0.00172912
0.000722529
0.000877638
0.00126213
0.00106567
0.000494962
0.000764119
0.00144209
0.00341973
0.000901256
0.000558904
0.000761256
0.00122799
0.0013467
0.00167306
0.00130768
0.00125977
0.000994969
0.00194749
0.000580174
0.00166409
0.00164841
0.00101158
0.000557924
0.000891865
0.000910748
0.0006553
0.00210034
0.000529752
0.00124147
0.00137504
0.00108298
0.000566369
0.00201739
0.00115729
0.00122744
0.000530998
0.000917215
0.00137483
0.00179588
0.00072718
0.000922485
0.00105188
0.000829216
0.00212349
0.000857097
0.000910858
0.000906515
0.000671979
0.00102895
0.00230614
0.00193693
0.0012115
0.000761818
0.00183039
0.00228883
0.000954642
0.00147403
0.000974153
0.000759741
0.00190625
0.000939454
0.00155451
0.00123929
0.000795622
0.000866814
0.0013206
0.00212642
0.00153983
0.00138463
0.00114592
0.00166361
0.00195739
0.000900254
0.000866226
0.00103615
0.00210387
0.000875141
0.000972415
0.00135082
0.000813371
0.000884417
0.00259507
0.00192147
0.00097569
0.00106727
0.00191206
0.00105017
0.000696062
0.00114927
0.00226896
0.000893706
0.00256789
0.00195605
0.000414059
0.00102405
0.000933251
0.000909256
0.000792752
0.00230845
0.000835171
0.00225723
0.00196221
0.000552773
0.000629285
0.00128108
0.000891902
0.000851751
0.00099861
0.000809366
0.0013509
0.000804463
0.00166531
0.00139702
0.000973314
0.000347434
0.000871936
0.00143129
0.00123958
0.00166724
0.0006882
0.000886442
0.000626376
0.00122047
0.000576899
0.00139212
0.000406071
0.000883501
0.0013734
0.00172679
0.000895129
0.00117087
0.00117605
0.000827312
0.00102793
0.00175317
0.000465329
0.000604262
0.000882384
0.000856578
0.00176487
0.00102203
0.000835124
0.000880755
0.00588985
0.00140994
0.00172333
0.000512823
0.00122054
0.000961756
0.000455219
0.000396499
0.000833411
0.00510085
0.00091935
0.000640492
0.000825138
0.000832865
0.00154888
0.000863128
0.00134001
0.000865137
0.00174571
0.000958747
0.000671704
0.000417157
0.00130048
0.00159388
0.00079108
0.000859056
0.00146734
0.00090574
0.00221695
0.00161695
0.00130826
0.000990738
0.000857575
0.00141022
0.00155938
0.000864013
0.000596144
0.00172819
0.00106681
0.00191044
0.00078085
0.00147292
0.000554183
0.00060384
0.000867338
0.000828153
0.0013774
0.000812814
0.00402601
0.000653841
0.00122379
0.00195261
0.00116549
0.0018426
0.00132407
0.00080687
0.00391279
0.00158625
0.000471848
0.0014172
0.0044581
0.00100355
0.000939197
0.000743259
0.00076562
0.0057015
0.000877688
0.00140598
0.00088725
0.000959352
0.00116509
0.00086819
0.00132819
0.00131764
0.000906168
0.00209803
0.00146382
0.000953958
0.000935176
0.000794722
0.000929562
0.00153095
0.000822121
0.00190284
0.000823108
0.000805061
0.000976232
0.000940323
0.000449508
0.000784979
0.00099157
0.00164032
0.000974841
0.00101049
0.0012584
0.000892964
0.000784113
0.00138669
0.000374495
0.000967523
0.0010381
0.00104899
0.00116327
0.00094725
0.00145704
0.00107115
0.00109184
0.000978996
0.00110229
0.000989553
0.00200155
0.000944404
0.000938656
0.000924253
0.000930613
0.000920999
0.000924353
0.00093541
0.000923138
0.000944319
0.000931156
0.000923703
0.00197836
0.000892422
0.000880173
0.000852265
0.000876721
0.000928625
0.000912522
0.000939211
0.00110467
0.0010021
0.001022
0.00103716
0.00101767
0.00104081
0.000974663
0.00116962
0.00303633
0.00101936
0.00088319
0.00117167
0.000924743
0.00292918
0.00103527
0.000962167
0.000982466
0.000912682
0.00287287
0.0010383
0.00283081
0.000949123
0.000935223
0.000865657
0.00130778
0.001983
0.001979
0.00102201
0.0008762
0.000882857
0.000859121
0.0014761
0.000928744
0.00201601
0.000793835
0.000854869
0.00133116
0.00086826
0.000818766
0.000868169
0.000827889
0.00208709
0.000835793
0.000870062
0.000899183
0.00117618
0.000886705
0.000886876
0.00211923
0.000836221
0.000862562
0.00118138
0.000950059
0.000917811
0.000429959
0.00205524
0.00199323
0.000896625
0.000837597
0.000816037
0.00090302
0.000906798
0.00130239
0.000989346
0.000919349
0.000416717
0.00101862
0.00134039
0.000939529
0.00137176
0.00196526
0.000781511
0.000851821
0.000896073
0.000914086
0.00104896
0.000953907
0.00196281
0.000780043
0.000903563
0.000378746
0.000972013
0.00092935
0.00120408
0.00146812
0.00093421
0.00113624
0.00102391
0.000567898
0.00108163
0.000899702
0.00105799
0.000495673
0.000907014
0.000904602
0.000856145
0.00101365
0.00136544
0.000562914
0.000995454
0.000908617
0.0013454
0.00041324
0.000836294
0.0010939
0.000984814
0.00126046
0.000940516
0.00111729
0.000558552
0.00316517
0.000906247
0.00193921
0.00185803
0.00101971
0.00433686
0.000693206
0.000734578
0.000669687
0.00132406
0.000842251
0.00117174
0.00173123
0.000959583
0.000885599
0.000374688
0.00100137
0.000981507
0.000543847
0.000997321
0.000957143
0.00115257
0.00147735
0.000680771
0.00131266
0.0014116
0.000950037
0.0014027
0.000961591
0.000390737
0.000934331
0.00115273
0.000500267
0.00109366
0.00103054
0.000986415
0.000944516
0.00137775
0.00135743
0.00134272
0.00195395
0.000631949
0.00123228
0.000986631
0.000839844
0.00121897
0.000895968
0.00115465
0.00144753
0.000727273
0.000870603
0.000967714
0.000803397
0.0013153
0.00101609
0.0008735
0.000874792
0.00132204
0.000862784
0.00140067
0.00107235
0.000955494
0.00118416
0.000435153
0.00111784
0.00115786
0.00107186
0.000934448
0.0009692
0.00140865
0.00060788
0.00140984
0.000963084
0.000469432
0.00097873
0.00119063
0.00114545
0.00315175
0.000866672
0.000816531
0.000870068
0.000790562
0.00193935
0.000898216
0.00102212
0.000531814
0.0012927
0.00108573
0.00094899
0.00174218
0.00153727
0.00136964
0.000864346
0.000522575
0.0012804
0.000854532
0.000924807
0.000860488
0.00121052
0.00137031
0.00209006
0.00223577
0.000924278
0.00123286
0.001234
0.00112875
0.00122636
0.00119595
0.00130687
0.00112721
0.000776424
0.00111018
0.000846285
0.000842125
0.000942436
0.00139559
0.000897985
0.000852073
0.00137721
0.000730512
0.000837317
0.00086784
0.000690204
0.00145227
0.000831941
0.000688695
0.000646558
0.00115034
0.000832891
0.000949967
0.000335108
0.00151054
0.0011189
0.000899236
0.000332718
0.000314569
0.000909116
0.000366914
0.000754741
0.000299244
0.0018013
0.000340289
0.00123835
0.00112336
0.000326628
0.00057088
0.00087433
0.000514634
0.000350633
0.0014149
0.00089935
0.0008866
0.000461394
0.00176967
0.000842045
0.000674014
0.000858384
0.00129449
0.00082476
0.000837259
0.000777687
0.000919865
0.00138168
0.00209609
0.00128751
0.000558096
0.000676306
0.00156452
0.00122222
0.00158739
0.00223593
0.000891781
0.00105385
0.00120175
0.00087746
0.00153457
0.00127905
0.00089472
0.000391711
0.000813227
0.000928006
0.00038703
0.000896843
0.000854752
0.000706164
0.000984822
0.000946559
0.00109619
0.000861609
0.000874612
0.00112273
0.00103152
0.000773849
0.000713847
0.00103236
0.00255637
0.00087677
0.000855367
0.00100815
0.000918491
0.000352359
0.0029581
0.00158963
0.00149266
0.0010926
0.00103587
0.000917669
0.000856944
0.000866173
0.000958382
0.000673002
0.00119243
0.00143683
0.000873791
0.000888375
0.000875727
0.00109067
0.000317603
0.00122508
0.000896752
0.0010029
0.00135013
0.000658927
0.0012722
0.00106019
0.000337908
0.00209833
0.000848413
0.00130943
0.000889681
0.00118862
0.0013841
0.00112008
0.000938644
0.000911058
0.00124237
0.000294445
0.000963164
0.00160904
0.000994419
0.00128991
0.00079183
0.00122816
0.00103869
0.000965329
0.000983014
0.00512118
0.00144472
0.000891365
0.000883131
0.000816521
0.00610414
0.000526029
0.000979037
0.00175951
0.000869564
0.00321649
0.00114716
0.0010376
0.000897312
0.00080016
0.00075913
0.00209497
0.00134237
0.000958181
0.000338437
0.000383209
0.00083316
0.00104758
0.00105463
0.00081851
0.000909399
0.000421545
0.000766703
0.000864683
0.00145597
0.00466948
0.000951167
0.000907026
0.00109132
0.000942095
0.00128101
0.000878321
0.000875965
0.00147851
0.00119549
0.00203312
0.000728793
0.00491028
0.00107678
0.00213498
0.000705011
0.00112602
0.00126392
0.00139371
0.000597182
0.000644862
0.0006508
0.000982779
0.000767885
0.000754013
0.00112487
0.00135285
0.00087818
0.00107705
0.00108266
0.00089319
0.0010868
0.000685894
0.00220651
0.000916865
0.000963183
0.0050107
0.00090153
0.000472006
0.00100123
0.000878255
0.000859928
0.000656865
0.000888406
0.000787745
0.0027614
0.000947836
0.000755254
0.00239205
0.00548739
0.00366422
0.00301039
0.000577335
0.000346488
0.000328738
0.000284235
0.000302677
0.000665466
0.000346331
0.000319078
0.000366019
0.000334596
0.000350896
0.000492231
0.000727896
0.000399785
0.000444951
0.000454795
0.000424231
0.000331573
0.000318334
0.000425562
0.000309124
0.000315565
0.0004138
0.000330912
0.00114684
0.00205898
0.000936252
0.0014655
0.000898566
0.00166951
0.00102045
0.00202155
0.000612781
0.00131506
0.00154817
0.000933198
0.000767245
0.00443298
0.00130836
0.000911513
0.00215272
0.000753096
0.00103105
0.000867057
0.000516421
0.00350153
0.000944611
0.000342325
0.0010002
0.00124998
0.000406501
0.000739105
0.00182844
0.00117503
0.00105024
0.00118086
0.000847234
0.00101741
0.00139353
0.00207695
0.00102307
0.00086981
0.000923223
0.00106421
0.00125759
0.000361143
0.000450464
0.00152405
0.00129032
0.000934348
0.00101292
0.000983012
0.000803843
0.000327756
0.00173901
0.0010389
0.00141281
0.000741837
0.000855326
0.00113767
0.00090514
0.000327761
0.00116495
0.000356765
0.00142757
0.00156141
0.000669261
0.000842697
0.00101374
0.000827753
0.00113627
0.00109034
0.00604078
0.000938029
0.00165328
0.000692945
0.00406372
0.000918562
0.00155958
0.00095328
0.000689711
0.000917867
0.00116705
0.000767098
0.00116124
0.00151396
0.00376794
0.00187339
0.000335672
0.000923611
0.00106323
0.00157098
0.00150026
0.000876831
0.00162651
0.00102421
0.00103309
0.00187127
0.000992498
0.000792853
0.000845729
0.000946343
0.00105485
0.00126866
0.000940507
0.00125364
0.000696146
0.00107511
0.00143131
0.00134978
0.00071671
0.00121554
0.00127707
0.00153903
0.00326158
0.000695211
0.000302854
0.000453041
0.000670397
0.000913429
0.00432507
0.000438891
0.000903124
0.000937628
0.00224793
0.00193594
0.000901032
0.000970186
0.000762257
0.00105161
0.000452349
0.00164294
0.000866849
0.0013195
0.000350857
0.00110574
0.000345534
0.000888797
0.00123932
0.000983737
0.000884128
0.00329678
0.00221961
0.000873988
0.0012399
0.000957924
0.000678266
0.000805098
0.000475983
0.00091016
0.000670563
0.00116575
0.000879226
0.000909033
0.00112514
0.000886815
0.0023281
0.000711309
0.000705187
0.00101666
0.000686528
0.000903038
0.000798694
0.000898656
0.000988947
0.00064595
0.000351375
0.000505374
0.000497894
0.000505173
0.000822638
0.000758716
0.000752758
0.00057295
0.000789478
0.000365243
0.000317865
0.000286906
0.000334411
0.000254546
0.000292466
0.00125714
0.000898749
0.000904337
0.00130582
0.000879656
0.000425149
0.000916711
0.00102448
0.000979991
0.00102441
0.00141452
0.000860442
0.000918653
0.000613828
0.000360979
0.00108931
0.00102718
0.000781303
0.000976635
0.000794744
0.00093604
0.00195657
0.000682043
0.00131842
0.00613228
0.00093322
0.000957934
0.00104821
0.000905846
0.000882203
0.000844516
0.00148062
0.000825561
0.000874508
0.000627123
0.00113831
0.000980757
0.000373981
0.00104042
0.000966793
0.000730596
0.00109215
0.000858355
0.000783032
0.000972335
0.000862397
0.000716061
0.00143379
0.00102092
0.00186858
0.000908466
0.00142051
0.00176746
0.000682494
0.00171781
0.000969218
0.000891508
0.000945904
0.00166283
0.000486924
0.00102587
0.00119979
0.00132572
0.000886426
0.000394051
0.00161751
0.00110764
0.000813856
0.000872046
0.000726244
0.00123708
0.00157791
0.001217
0.00164461
0.00117305
0.00124697
0.00102113
0.000736339
0.000649391
0.00104117
0.000879036
0.000969517
0.000770893
0.00258065
0.00116521
0.00076893
0.00145625
0.00142205
0.00151065
0.000903847
0.000643961
0.0012273
0.00229978
0.00193737
0.000968557
0.000899982
0.00079732
0.000955532
0.00137086
0.000887546
0.000605134
0.00083294
0.000893775
0.00105026
0.00273231
0.00117738
0.000949008
0.000897953
0.000843863
0.00104638
0.00462379
0.00112826
0.000814557
0.00140446
0.000961031
0.000816388
0.000881507
0.00101248
0.000775262
0.00182053
0.00185982
0.00140748
0.000986626
0.00134485
0.00156949
0.000995922
0.00104082
0.000351781
0.000938481
0.000907261
0.000919197
0.0017141
0.000999181
0.0011751
0.00141907
0.000767952
0.00104455
0.000838518
0.000749545
0.000915046
0.000482933
0.0012679
0.00528772
0.00118526
0.000572203
0.00133254
0.00204649
0.00119659
0.00128422
0.000667967
0.0011376
0.00071258
0.000556184
0.000877278
0.00100179
0.000993203
0.000937284
0.00122166
0.00122754
0.0010019
0.000991233
0.00372774
0.000861379
0.0037091
0.000867458
0.00120485
0.000988325
0.00113678
0.000973957
0.000988356
0.000909251
0.00136636
0.00100866
0.0013228
0.00391976
0.00108583
0.00119265
0.000873307
0.000810162
0.00151542
0.00119645
0.00128412
0.000500265
0.000907966
0.000912448
0.00186769
0.00118377
0.00124435
0.000936493
0.00126597
0.00173121
0.00122876
0.000281544
0.000436712
0.00119201
0.000986755
0.000923618
0.00138615
0.00096893
0.00437618
0.00132006
0.000860172
0.00121814
0.000942031
0.0018982
0.00145651
0.00168483
0.000951036
0.00489137
0.000930756
0.000846877
0.000876663
0.00497834
0.000960613
0.00092097
0.00097017
0.000982393
0.00120634
0.000592312
0.00370598
0.000707236
0.000926486
0.000529801
0.00572172
0.000335338
0.0035705
0.00143116
0.000856335
0.00129198
0.00189196
0.00425935
0.000894314
0.000914629
0.000553207
0.000923618
0.000642735
0.000934756
0.00110367
0.00194036
0.000495346
0.000726324
0.000496684
0.00563052
0.000308901
0.000503341
0.000349795
0.00165885
0.0009241
0.000959672
0.000917669
0.00501945
0.00102543
0.00050849
0.0008539
0.000852631
0.00081501
0.00134595
0.00105156
0.00100632
0.000898148
0.00162882
0.0052434
0.0009109
0.000951785
0.00114009
0.00095652
0.00124934
0.000756444
0.00143938
0.000881696
0.0010448
0.000769619
0.000942789
0.000739197
0.00160345
0.000738441
0.000439418
0.000676904
0.00162384
0.00101295
0.000933279
0.000878907
0.00158619
0.000995371
0.00101315
0.001157
0.000924929
0.000464246
0.000372475
0.00161666
0.00186953
0.000581609
0.000671895
0.00100141
0.000861737
0.000873739
0.000751676
0.000874774
0.000871383
0.000777054
0.000729539
0.000851982
0.0010518
0.00212957
0.000613527
0.0013546
0.00109593
0.000715665
0.00195247
0.00103496
0.0010125
0.00139294
0.000599952
0.000479921
0.00189523
0.000478257
0.000692222
0.000408625
0.00038388
0.000394894
0.00044922
0.000431371
0.000488158
0.000370783
0.00102204
0.00163177
0.0008215
0.000706636
0.00049922
0.000529442
0.000371344
0.000509439
0.000541568
0.000377485
0.000381116
0.000744323
0.000572248
0.000394262
0.000438289
0.000713636
0.000766235
0.000461919
0.000477266
)
;

boundaryField
{
    frontAndBack
    {
        type            empty;
    }
    wallOuter
    {
        type            nutkWallFunction;
        Cmu             0.09;
        kappa           0.41;
        E               9.8;
        value           nonuniform List<scalar> 
96
(
4.02617e-05
5.63788e-05
4.70768e-05
9.78405e-05
9.88386e-05
9.67859e-05
4.0944e-05
4.0574e-05
3.81149e-05
4.55912e-05
3.60748e-05
4.18584e-05
3.97307e-05
0.000101187
4.33324e-05
4.89519e-05
9.4812e-05
4.75134e-05
3.83786e-05
4.13744e-05
3.54118e-05
4.15155e-05
4.71078e-05
5.28688e-05
8.97255e-05
6.97947e-05
4.18036e-05
3.94713e-05
3.37287e-05
3.6113e-05
8.00134e-05
4.18951e-05
3.84468e-05
4.47346e-05
4.05878e-05
4.22799e-05
5.98488e-05
8.71935e-05
4.82497e-05
5.43229e-05
5.54717e-05
5.12127e-05
4.0112e-05
3.85158e-05
5.13514e-05
3.74186e-05
3.8329e-05
4.99134e-05
4.0397e-05
4.19419e-05
4.39932e-05
5.49517e-05
4.01144e-05
4.3219e-05
7.88681e-05
4.1128e-05
9.46867e-05
3.62607e-05
5.5398e-05
5.34048e-05
5.67988e-05
4.24131e-05
4.16564e-05
0.000112669
8.32623e-05
9.57043e-05
7.87974e-05
4.31311e-05
6.30449e-05
6.19215e-05
6.25962e-05
9.81822e-05
9.06058e-05
8.96893e-05
7.04377e-05
9.36375e-05
4.44032e-05
3.80902e-05
3.40913e-05
4.04449e-05
2.99962e-05
3.4901e-05
5.15783e-05
4.38166e-05
4.50691e-05
4.7623e-05
7.22299e-05
4.27147e-05
6.05706e-05
6.25899e-05
3.34045e-05
5.33898e-05
4.0336e-05
0.000105422
5.90107e-05
4.22354e-05
)
;
    }
    inlet
    {
        type            calculated;
        value           nonuniform 0();
    }
    outlet
    {
        type            calculated;
        value           nonuniform List<scalar> 9(0.00402601 0.0057015 0.00115465 0.00255637 0.00512118 0.00326158 0.000983737 0.00186858 0.00176746);
    }
    wallInner
    {
        type            nutkWallFunction;
        Cmu             0.09;
        kappa           0.41;
        E               9.8;
        value           nonuniform List<scalar> 
126
(
0.000107457
5.89568e-05
8.99174e-05
8.4881e-05
6.37668e-05
6.78175e-05
5.28962e-05
5.87461e-05
7.06234e-05
7.59896e-05
5.6464e-05
6.67371e-05
0.000270135
0.000105586
7.04544e-05
8.37748e-05
0.000106458
5.19989e-05
5.39122e-05
6.1808e-05
7.97468e-05
5.97407e-05
0.00010561
5.67526e-05
6.42562e-05
7.65993e-05
0.000118127
7.9838e-05
6.8243e-05
5.48788e-05
5.8322e-05
9.71924e-05
0.000145501
8.14608e-05
0.000186301
6.50701e-05
6.30104e-05
7.94922e-05
4.84315e-05
5.32521e-05
6.67606e-05
9.23108e-05
4.53019e-05
7.11135e-05
6.57217e-05
6.65713e-05
7.18641e-05
0.000185792
5.94114e-05
6.71066e-05
8.99411e-05
7.02846e-05
0.000143539
5.10328e-05
6.67913e-05
7.53503e-05
4.34621e-05
0.000103213
7.5139e-05
7.0175e-05
5.07535e-05
5.74073e-05
7.1831e-05
9.94435e-05
5.72162e-05
4.93407e-05
7.84702e-05
8.03939e-05
5.19996e-05
0.000124844
6.63374e-05
7.37759e-05
5.50757e-05
4.58054e-05
5.27422e-05
5.1317e-05
4.54904e-05
6.98539e-05
6.15694e-05
6.91112e-05
5.02522e-05
6.87086e-05
4.62881e-05
6.77465e-05
4.90284e-05
6.28785e-05
7.6918e-05
5.27354e-05
5.69281e-05
6.6685e-05
6.51508e-05
7.12042e-05
6.41408e-05
4.3487e-05
5.86932e-05
8.12959e-05
4.07989e-05
0.000138463
3.77989e-05
5.86129e-05
7.36417e-05
5.83347e-05
6.00068e-05
5.10565e-05
4.81337e-05
4.89043e-05
5.3416e-05
4.52195e-05
0.00012042
0.000181046
9.55928e-05
8.66723e-05
6.10291e-05
4.54371e-05
6.39618e-05
6.74658e-05
4.63834e-05
4.59669e-05
9.02379e-05
7.0983e-05
4.85533e-05
5.32057e-05
8.69872e-05
9.48037e-05
5.54304e-05
5.86561e-05
)
;
    }
    procBoundary3to1
    {
        type            processor;
        value           nonuniform List<scalar> 
48
(
0.000879631
0.000751753
0.000748122
0.000852977
0.00103453
0.000835442
0.000751753
0.0014027
0.000935205
0.00103537
0.00103537
0.000969783
0.000969783
0.00090159
0.00100904
0.000890275
0.000868593
0.00087252
0.000868593
0.000878607
0.000875648
0.000883323
0.000878607
0.000893336
0.000998779
0.000951839
0.000931499
0.000883323
0.00102557
0.0010228
0.0010228
0.00128737
0.00128737
0.000935205
0.000900922
0.0011107
0.00126527
0.000998779
0.000899113
0.000762325
0.00090159
0.00106219
0.00100201
0.000878607
0.0010401
0.000377957
0.000903746
0.000887931
)
;
    }
    procBoundary3to2
    {
        type            processor;
        value           nonuniform List<scalar> 
29
(
0.00107187
0.00107187
0.000515895
0.000583669
0.000541747
0.00059668
0.00053805
0.000937266
0.00103871
0.000817585
0.000870611
0.000693841
0.000863976
0.00103633
0.000997422
0.000994466
0.00102323
0.00102689
0.000961233
0.00104774
0.00106185
0.00102323
0.00037564
0.00102689
0.000798802
0.00136765
0.00102689
0.0010161
0.0010161
)
;
    }
}


// ************************************************************************* //
