/*--------------------------------*- C++ -*----------------------------------*\
| =========                 |                                                 |
| \\      /  F ield         | OpenFOAM: The Open Source CFD Toolbox           |
|  \\    /   O peration     | Version:  v1912                                 |
|   \\  /    A nd           | Website:  www.openfoam.com                      |
|    \\/     M anipulation  |                                                 |
\*---------------------------------------------------------------------------*/
FoamFile
{
    version     2.0;
    format      ascii;
    class       volScalarField;
    location    "0.09";
    object      p;
}
// * * * * * * * * * * * * * * * * * * * * * * * * * * * * * * * * * * * * * //

dimensions      [0 2 -2 0 0 0 0];


internalField   nonuniform List<scalar> 
1431
(
95.547
86.588
95.1454
88.8049
93.0054
90.2231
91.8762
34.4375
93.7673
91.9215
40.4651
36.0623
94.9325
83.3066
93.3535
91.9405
87.1499
95.1056
86.8661
95.1248
36.7615
84.071
94.0146
16.981
93.6727
95.068
45.749
93.5223
95.1065
83.7262
89.7922
94.4061
89.5407
82.9243
91.6099
91.7525
95.1408
94.7989
92.7148
93.8582
94.9345
95.0286
95.1642
92.4052
87.6135
93.5907
84.4914
50.0778
91.6012
94.5836
91.4007
92.5852
92.3384
43.572
86.7998
93.2091
92.6924
38.4294
84.0934
95.0131
93.5123
91.693
94.5274
94.7159
92.6374
91.9777
94.5663
94.0771
93.7235
88.658
37.7574
82.4277
88.1835
83.9876
85.3955
93.5294
94.9825
94.4643
92.0677
95.09
86.489
93.5741
75.9917
86.3013
33.3805
89.0908
88.6896
92.5958
47.1348
62.9154
92.7921
91.98
94.8468
92.2681
86.4697
89.2509
35.291
78.2773
92.3449
93.4268
93.6148
92.1738
85.1965
95.0661
94.5481
89.3087
94.3617
48.1711
92.9415
84.8739
95.0582
94.6348
95.2804
94.8395
86.0774
93.3342
82.4389
88.4928
89.0954
94.5989
89.1533
93.0758
44.1065
87.4088
36.3342
91.9275
95.0878
92.5291
95.1064
87.9067
86.7343
95.0976
88.1491
84.6614
95.1692
93.9181
94.6101
91.2602
41.2615
94.92
92.9281
87.6605
86.2485
95.07
95.2078
89.2781
93.9116
93.2665
92.0247
93.5696
94.1926
93.6698
94.0035
89.0555
94.3483
94.7614
40.2638
85.3178
70.0093
88.7976
59.2211
94.9599
88.8629
88.7816
45.4444
94.743
94.455
85.7478
94.6492
82.3099
57.993
93.4167
92.5093
41.9687
85.6705
39.4909
88.3407
89.2272
91.9409
91.5226
91.7518
92.7179
90.203
21.0818
89.793
94.0366
44.7098
84.273
91.8966
43.8513
89.3522
92.9357
93.9111
49.0319
89.1712
83.1426
78.1687
89.9704
93.7717
95.1709
88.865
88.9359
63.1902
88.4204
94.5612
89.6944
94.1274
93.9459
42.412
94.9263
36.2448
88.9182
94.4003
89.4084
35.7746
93.2081
94.0122
89.0322
90.1316
68.3858
94.5773
90.4063
92.5348
88.8999
94.3931
39.9686
63.3743
80.374
94.4656
65.704
36.1758
89.7294
89.823
93.7009
94.4443
65.553
94.4014
90.5714
89.135
89.2565
88.5162
89.835
41.765
90.7788
92.4664
89.5169
91.4198
55.9132
94.8177
94.7087
91.7527
46.308
88.8521
89.2176
89.5886
95.0768
88.8955
36.3692
72.32
93.8926
94.0658
42.0949
90.0849
88.5048
94.6691
72.2819
93.8175
49.6002
55.6902
92.7015
93.5683
94.2927
87.3096
89.1466
55.2896
92.0222
51.396
81.1203
89.8488
94.3845
93.4179
95.075
88.9721
91.5726
87.7351
75.9486
95.0948
75.7493
38.5763
87.3025
93.8334
93.9765
80.2683
93.7393
69.7292
94.5064
42.9271
94.2495
93.3288
89.5182
92.8738
94.5658
87.8389
94.4203
87.53
88.9221
86.676
93.5113
95.0901
83.9042
80.3836
91.699
90.5661
47.8778
93.6354
79.4884
90.4242
87.3445
93.7149
31.3299
87.5821
81.6128
93.5575
93.7062
91.2183
95.2251
93.5281
93.9295
49.5906
89.065
88.1116
93.7148
93.8697
86.2378
88.6284
94.5773
94.447
69.4297
90.9623
47.5963
94.5756
94.6765
76.8604
95.0031
93.4314
89.2401
87.9959
48.0909
81.658
93.8259
90.3731
93.6379
93.811
87.2483
93.644
90.0132
39.5979
36.4985
42.6941
95.0387
82.0117
94.2293
88.5756
88.1257
93.7512
40.3143
93.6869
8.92937
95.0146
83.8534
49.3434
93.1342
50.9506
90.1763
95.1918
45.4432
86.4196
89.4636
95.1499
43.0058
94.9374
90.4168
89.2239
93.6327
10.1727
93.0298
91.0889
93.2256
90.8575
90.291
88.3984
91.7959
92.0563
88.9175
68.0905
93.8478
94.2318
94.3173
93.6083
91.4746
85.6246
95.1621
75.4738
94.9762
92.797
93.9344
90.6756
89.349
87.9907
93.8447
84.5647
91.1486
93.6905
95.4398
92.943
93.5946
88.7606
89.2867
90.591
93.5295
94.9814
95.2362
91.0733
88.032
93.4057
93.3469
95.0815
87.9659
95.2205
25.7278
95.1997
95.2232
95.1887
95.243
95.1665
95.1693
95.2031
95.0894
95.1809
95.0613
93.588
42.0506
93.6385
93.6595
93.6144
93.6499
93.6732
93.7562
85.951
80.6198
81.6912
94.4466
91.2229
94.844
90.4114
91.6505
81.5862
44.8455
94.6842
94.9482
80.4286
94.4804
44.3189
91.7014
94.8157
94.24
95.0322
43.269
94.1595
39.8978
92.2948
92.4013
95.0656
85.688
40.7148
42.555
93.3583
94.6341
93.6246
92.404
87.0498
93.574
40.0811
92.1552
93.502
87.5798
95.0813
93.5679
95.1009
94.679
39.4954
92.3692
95.1483
94.7568
88.2471
95.085
95.1942
39.081
92.4918
91.9703
95.3888
94.9604
93.9902
95.2223
40.1747
45.0242
93.6325
92.2545
92.6542
91.4092
94.845
88.6694
95.0331
95.1918
94.9564
88.5123
95.4569
94.773
89.3223
44.2914
85.5885
92.4786
91.7773
88.8747
94.8368
88.9748
40.5877
93.6503
93.5792
89.4012
88.266
92.5555
94.9149
89.0069
94.7185
95.1693
89.4035
92.0944
94.6748
93.2314
94.0345
95.293
95.2419
92.3255
92.2396
89.4379
90.3454
81.195
94.1688
94.8355
90.4497
95.3402
94.981
92.747
94.5181
89.5695
88.9765
95.337
87.1145
48.148
94.9513
45.37
78.5248
93.7252
35.9667
93.4593
89.6472
88.8369
95.4419
94.7389
93.6406
69.3907
95.1847
91.9341
93.3922
89.4156
88.881
92.996
95.2925
95.2456
93.7037
76.5028
87.1674
88.0547
86.8095
94.433
90.1351
92.0138
93.0702
91.6712
95.3901
95.1776
91.8642
90.4616
94.9563
94.5193
89.139
90.801
82.3633
42.2819
71.1266
94.6731
93.0923
92.8636
83.631
90.8477
19.0781
83.2844
89.3276
93.6872
88.9301
93.9318
92.5107
95.2976
92.8881
94.0496
36.799
88.7237
95.3561
91.3451
85.1208
88.5975
93.3896
92.3246
93.9959
86.4386
94.5262
91.343
80.3743
89.917
94.2559
92.9281
92.6196
95.1763
93.6198
87.3382
36.778
88.2847
92.8441
89.3471
93.7326
76.3959
88.7292
92.84
94.7917
94.2201
86.7884
90.9962
35.6979
88.3643
95.4428
95.0594
91.9776
85.2894
93.6694
91.3317
93.8214
81.747
95.0491
51.7192
63.467
94.3506
94.9641
93.7399
95.3257
87.0806
95.0496
95.2203
92.6152
93.6262
93.3203
84.8128
32.5604
95.0009
95.4207
89.604
28.0835
84.7118
88.8019
88.6364
88.5577
90.3751
88.9351
35.8784
94.3967
94.8916
95.3708
93.0012
93.5802
85.5105
88.1968
94.827
95.0289
86.1967
87.1125
95.1424
78.5038
87.3437
87.4538
75.71
82.1819
89.1126
93.8279
86.7151
94.704
22.2335
90.7627
80.4973
90.1124
92.7852
93.2747
89.2886
84.6747
95.0166
95.286
95.1223
95.449
92.7514
89.0681
93.3106
95.274
89.6141
44.2443
93.857
94.5337
84.6342
88.9713
95.441
50.8886
48.3265
94.627
80.3926
95.1238
88.7005
87.3449
94.9396
94.8209
76.1751
37.3241
88.9359
92.5807
93.3251
88.6847
89.205
95.2201
92.4638
83.8308
95.0614
92.0272
91.8389
94.5155
89.8841
87.0263
92.1321
7.85326
90.8955
94.6386
93.8138
91.42
88.6596
30.4822
85.4627
95.2492
90.4681
94.3807
94.3872
92.1021
91.9236
93.2927
89.5955
95.4406
89.6697
89.543
94.5968
94.1387
90.8775
88.1034
93.5543
94.0129
94.297
89.3827
94.5939
93.7746
93.9732
84.6168
49.2771
90.5059
90.9719
92.8575
90.578
88.1876
94.8266
94.1836
94.2069
93.6471
87.7833
89.0128
88.0763
88.9885
94.3419
93.9254
83.1621
94.3068
95.2335
95.2853
16.2024
93.4377
92.5165
93.484
90.2927
49.0227
88.2195
89.988
38.3901
94.8819
45.5933
95.3565
93.4889
95.1429
93.2722
93.782
82.6907
93.7723
94.7184
83.5278
92.7934
94.8473
86.785
93.4116
92.641
95.0827
73.5179
36.36
93.2559
89.5983
44.9417
87.6905
95.1713
93.9744
91.7194
94.0079
94.8208
94.7087
93.6565
92.8934
61.7348
94.608
47.7586
93.6167
70.8399
95.0883
85.6444
94.5258
89.7872
94.7954
94.2992
87.7511
95.2823
95.0514
94.5593
89.7247
89.3633
93.8247
90.2804
95.1915
93.5403
95.3122
92.0842
47.4456
93.0427
94.9224
48.0831
94.1609
89.3087
83.3249
95.0488
91.5338
94.6578
93.1362
93.2284
38.0501
89.0446
93.8196
36.5524
51.8377
40.6305
35.91
58.6214
94.416
94.4156
94.5099
94.4483
51.9936
94.4419
90.7463
92.2399
91.5375
90.1233
64.4125
44.6837
89.7793
73.8256
69.2958
89.755
94.4258
94.3375
89.7987
94.2216
94.0983
89.6436
93.9806
95.3483
72.9583
94.5064
95.3683
92.2653
86.047
83.3851
37.666
94.8844
81.1872
81.4399
94.7392
91.4806
44.9479
88.923
95.0652
71.7413
91.209
95.3097
83.7031
88.5748
46.0583
92.1961
93.896
91.2531
90.1027
89.4328
92.9689
41.4977
93.9013
82.7619
95.3914
94.7855
93.6451
94.027
55.7309
93.6344
92.5906
93.5331
88.7672
93.7375
95.2622
85.4471
95.5183
91.4557
94.6768
81.9744
94.8672
94.5957
93.3196
39.9332
94.4609
91.8651
93.1804
95.0744
85.6607
88.795
93.571
92.9767
88.5793
92.549
89.3492
34.4721
93.8041
87.2146
95.0874
95.2749
91.2057
25.7651
93.5012
93.0047
92.8692
33.8825
93.8398
73.0186
91.982
92.0149
88.8886
92.5908
95.2056
93.2612
89.7525
51.1632
31.5974
93.8013
93.688
88.627
89.0754
88.593
95.0212
86.2965
92.566
94.9787
86.0715
95.2562
35.4223
95.108
88.9922
94.323
89.1572
94.2943
89.4841
93.5619
91.85
89.1976
90.642
93.8954
91.1841
90.379
23.0906
17.7495
91.6565
94.8332
81.401
88.7231
94.028
41.8974
86.5797
92.2547
89.7148
65.465
42.9853
88.9593
82.6409
94.4182
91.235
70.532
42.2704
94.9923
90.1071
88.6827
50.7858
88.7757
94.1849
90.447
6.25199
95.1418
35.5271
55.0883
94.089
95.4323
92.6157
88.6303
94.9284
88.9009
88.8441
88.9571
91.7661
95.098
91.9426
95.2672
94.9017
59.9757
94.4931
94.9789
95.1533
48.1745
93.3143
47.0508
95.2142
94.7111
49.1863
93.1613
60.7922
57.7823
54.645
45.3291
44.8729
43.6556
51.5508
43.999
89.5902
88.8692
88.9405
89.3901
88.86
88.3807
94.267
84.882
95.0156
90.7942
94.3759
87.3343
88.8753
95.2253
94.5577
91.3281
92.9432
92.5247
94.1241
86.258
88.4748
94.4801
91.5531
82.095
95.2599
94.9446
92.148
76.1315
89.3372
89.7667
44.2744
94.3691
93.4151
92.4964
83.6455
94.7407
90.5442
28.9679
94.6504
93.8235
89.138
92.6927
89.043
88.7198
81.5444
94.9709
89.3356
87.6669
95.0918
95.1487
82.176
95.1175
94.6073
88.6279
92.2602
16.2153
94.6013
36.6593
6.74175
87.4525
42.8066
83.5836
94.9916
91.04
42.5995
88.8318
92.1395
95.1211
67.0664
94.7782
88.0407
93.3748
92.0637
92.3195
94.7649
93.4709
93.6329
58.5254
35.9203
14.7658
78.3507
91.2028
89.2575
94.2322
89.2283
93.5405
94.9914
86.4262
95.0782
40.2207
94.2679
92.7915
41.3795
92.1305
80.6279
94.6689
93.0313
95.0295
77.0907
61.503
92.0153
94.5404
88.3078
94.0554
38.7245
94.9977
39.788
92.5897
95.105
87.7566
35.4089
73.2144
95.3362
94.4421
93.8252
88.9973
46.5849
92.4985
90.9532
88.4271
87.1642
95.1087
94.6066
88.7886
89.8308
92.1892
48.8077
81.1882
94.454
95.2775
87.778
88.8765
93.6817
88.3421
78.3565
89.3378
94.5071
38.9703
92.6298
94.7355
91.5044
91.4143
88.2312
86.7241
95.1197
92.4149
67.2411
90.5686
28.192
93.9808
87.2239
89.7928
60.4653
89.7773
90.3169
90.9479
95.3071
94.1019
93.9278
93.8436
95.6801
95.5161
84.6648
89.7725
81.3246
88.8695
91.1564
47.0871
94.6238
48.6928
93.3194
94.3087
91.2132
91.9261
83.3104
94.6655
95.3417
80.5087
88.8212
90.1933
35.8629
90.7674
90.955
94.3406
94.8844
87.0652
90.2105
93.481
63.9472
94.2949
95.2088
42.333
83.0258
91.6003
92.7827
93.6887
86.3879
94.8187
94.6192
78.0925
89.8668
91.9474
89.5088
89.5879
94.4462
43.1208
93.7762
95.079
86.6852
93.9925
51.097
88.0997
93.1417
93.3079
46.8921
95.1945
94.9712
94.4994
36.941
91.0475
94.3393
94.0003
94.6216
35.3137
86.8061
43.3082
89.2636
89.0811
87.7998
49.719
88.7933
35.7404
66.4951
94.6853
94.9403
82.9167
40.1029
95.1514
13.7685
87.5507
93.9004
85.5448
94.1346
91.9859
63.3296
88.763
83.4903
36.1737
50.7739
95.1175
85.7924
88.7458
43.5477
88.9841
85.1382
94.839
47.9783
91.3078
87.9911
95.0363
80.3819
84.5348
93.9807
91.6207
88.7179
89.1063
53.4381
48.9995
89.1268
91.1534
92.2042
93.7115
93.6786
94.1091
81.2068
93.3692
88.4528
90.8949
90.278
94.3317
59.3817
94.232
88.7841
94.6654
73.2275
88.9468
88.9865
93.5825
87.6215
89.0333
88.2653
90.645
94.281
88.9379
88.5043
56.1383
45.2149
86.5871
93.2234
88.7888
95.0337
94.5561
94.8617
94.1876
93.9699
94.7793
94.4881
92.5381
88.7444
54.4794
94.7578
77.8672
94.3812
85.6235
42.1883
91.1131
88.7012
81.6966
90.9275
94.7382
36.0598
95.0494
95.2088
95.3876
94.3986
93.0373
93.2243
91.236
90.6108
89.5538
22.0993
48.5443
81.2318
100.375
83.9626
86.2485
89.526
92.9599
96.7695
93.0407
93.7647
95.4327
96.5052
94.8814
94.3807
86.2691
93.4289
94.8998
92.9505
)
;

boundaryField
{
    frontAndBack
    {
        type            empty;
    }
    wallOuter
    {
        type            zeroGradient;
    }
    inlet
    {
        type            zeroGradient;
    }
    outlet
    {
        type            fixedValue;
        value           uniform 0;
    }
    wallInner
    {
        type            zeroGradient;
    }
    procBoundary3to1
    {
        type            processor;
        value           nonuniform List<scalar> 
48
(
95.206
94.7451
94.9046
95.1246
94.912
94.2075
94.7451
95.0264
95.2737
94.6693
94.6693
94.9576
94.9576
94.9352
94.7864
95.0459
95.0775
95.0521
95.0775
95.0813
95.0875
95.1663
95.0813
94.102
94.1059
95.0187
95.2049
95.1663
95.2007
94.864
94.864
95.0771
95.0771
95.2737
95.07
94.9612
94.9644
94.1059
95.28
95.0701
94.9352
95.2068
95.319
95.0813
94.4983
95.2182
94.903
95.0186
)
;
    }
    procBoundary3to2
    {
        type            processor;
        value           nonuniform List<scalar> 
29
(
93.2108
93.2108
89.3775
92.5312
94.2836
94.0792
88.0458
93.3514
91.4533
91.8188
93.8168
94.0849
92.9167
88.1337
89.4054
87.992
89.4887
90.7655
92.6692
89.0592
89.2362
89.4887
89.7541
90.7655
89.5533
89.103
90.7655
94.1808
94.1808
)
;
    }
}


// ************************************************************************* //
