/*--------------------------------*- C++ -*----------------------------------*\
| =========                 |                                                 |
| \\      /  F ield         | OpenFOAM: The Open Source CFD Toolbox           |
|  \\    /   O peration     | Version:  v1912                                 |
|   \\  /    A nd           | Website:  www.openfoam.com                      |
|    \\/     M anipulation  |                                                 |
\*---------------------------------------------------------------------------*/
FoamFile
{
    version     2.0;
    format      ascii;
    class       volScalarField;
    location    "0.45";
    object      epsilon;
}
// * * * * * * * * * * * * * * * * * * * * * * * * * * * * * * * * * * * * * //

dimensions      [0 2 -3 0 0 0 0];


internalField   nonuniform List<scalar> 
1466
(
0.814485
1.03974
0.541357
1.42722
2.73202
13.245
0.618658
6.5949
1.6055
7.11255
0.201851
6.13661
0.29588
0.696322
0.634207
1.29727
2.10931
1.70515
1.85545
0.645517
1.05148
1.30262
3.07854
0.854644
0.670465
0.562053
0.949769
2.76292
1.44123
7.64215
5.72923
11.9289
1.45483
3.59908
1.00236
0.664339
0.548549
1.41977
14.0462
1.46753
6.1733
1.96194
1.64886
3.82488
4.39985
2.41661
0.888419
1.93203
1.79977
1.03027
0.367385
9.87452
4.35252
13.9134
2.13963
4.70248
1.05597
0.885409
1.19611
3.83819
1.07862
5.84179
5.00358
10.0641
1.23189
0.879414
5.19519
1.07136
0.940497
1.27397
0.273916
1.10915
1.47843
0.997757
0.419853
4.9968
1.03615
1.12858
1.10769
3.22145
0.625656
0.988895
0.663098
1.61965
1.0292
0.902538
0.560243
1.35962
0.668047
1.06731
1.16671
1.50194
1.79177
1.21146
0.33986
1.25267
0.837593
1.73551
1.09829
1.18247
0.735575
3.6829
0.541271
0.689288
0.652811
2.18929
1.04791
0.655972
0.897668
0.657375
0.676769
0.531997
1.48262
1.47009
0.334641
3.51759
0.720681
0.671136
1.12725
0.667249
1.05629
0.965029
0.412671
1.08037
0.608595
1.05972
0.57804
0.618478
1.73652
0.722446
1.11718
1.08824
0.474458
5.46069
0.404157
2.46023
2.17208
0.578938
3.43764
1.69305
9.61706
1.4419
1.54602
1.50758
4.03373
0.983103
0.65159
0.549994
5.51832
1.37161
1.5801
0.921307
1.00117
0.881881
0.960293
0.323518
1.0064
3.04308
0.651792
0.511399
3.74606
1.03166
1.08701
1.15431
3.37911
1.98923
0.7408
2.19234
0.741149
0.974634
1.23799
0.788158
0.714609
4.25542
0.687679
0.999996
3.1138
2.49238
0.611069
2.03163
1.02
0.654002
1.32195
0.683317
1.10861
0.666049
0.729107
5.03247
0.707997
0.673745
1.46283
1.35492
0.923114
1.23776
0.637659
1.01997
2.97159
0.689861
0.588459
0.602286
1.30424
0.410032
0.648989
0.755838
1.01705
2.29792
0.696041
3.20672
0.610752
1.49109
1.02405
1.59622
0.752339
1.17277
1.13873
0.733894
0.186446
0.307848
0.669503
1.03686
0.322598
1.01494
0.762968
1.01783
3.12494
0.982508
0.6077
1.19463
0.728615
1.0491
0.855096
1.44726
0.720132
0.559817
0.655501
0.978818
0.546516
7.64789
0.672531
0.747739
1.2568
0.807597
1.47456
2.48522
2.88636
0.869821
0.192699
1.32541
0.488943
1.03478
0.901363
0.973721
1.96921
1.13231
0.611153
1.03454
0.601174
0.604202
5.67499
5.27078
1.09363
1.31563
1.09722
0.469607
19.6782
0.932363
2.27129
1.13029
0.439052
1.04933
1.07155
0.979237
0.568116
0.599006
1.40059
1.28177
0.664882
0.590698
0.584337
2.6041
0.81428
0.682771
1.17539
0.609751
0.462351
0.236405
0.589537
1.34949
0.712672
1.36588
0.916625
3.09424
0.625232
5.81466
1.87802
0.737043
5.06422
3.17638
0.739519
0.525579
1.02507
2.04173
0.661768
0.617992
0.890566
0.510183
0.442424
0.950468
0.909134
11.7725
1.20722
0.338473
0.369757
6.5104
1.5884
0.448088
1.16369
0.48664
3.65931
0.882626
0.77538
3.16351
1.27147
0.938792
0.749777
0.753171
0.379087
0.816873
0.175239
0.819824
1.27543
0.920759
0.253052
1.11746
0.935265
0.972239
0.244675
0.352692
2.52318
0.546737
1.24509
0.731885
0.520133
0.47039
0.69571
0.10195
2.22877
0.645034
0.870361
0.650411
2.43518
0.949125
2.93773
1.00232
0.902339
0.40981
1.29172
0.905192
13.7448
0.873026
0.974966
4.14879
2.43868
1.1368
2.20092
0.715312
0.455984
0.184964
0.636198
1.84926
0.197697
0.469557
2.26458
0.969174
1.29503
1.12273
0.666946
3.40256
1.13439
1.13266
0.345459
4.56628
0.887957
0.4017
2.81049
0.714275
1.23919
0.392379
0.430525
0.643225
0.655803
0.632469
2.45716
2.99448
1.31851
0.569033
2.33729
0.254139
0.693619
0.13887
1.71093
0.155687
1.92271
0.761112
5.84444
0.434175
1.60125
7.72153
0.473288
0.995046
0.482407
1.6097
1.56766
4.45909
2.15335
1.19219
1.54583
0.728713
0.597018
0.832878
0.817938
0.690492
1.24748
1.20671
1.11086
0.918312
1.28558
1.38548
0.889403
0.732563
1.20022
0.510569
1.55105
3.32818
7.15139
3.49122
2.007
5.42504
0.983052
1.14778
3.6802
0.662262
2.85161
1.01064
0.819807
1.46782
1.41254
1.41271
2.90088
0.59723
3.03023
1.54851
1.6398
1.10257
1.73886
1.36439
1.62732
1.34851
0.797792
0.620245
1.1789
1.46672
1.20399
0.662397
2.65777
0.725415
3.14686
0.482534
1.37181
3.30718
2.88611
0.967069
0.643672
1.52216
14.7104
4.98142
0.793312
1.82972
1.99644
17.367
1.42651
0.447582
17.6173
0.415035
2.51068
1.25765
0.440148
0.477786
21.0347
3.17287
1.99799
0.865626
0.514903
0.467914
1.60843
1.61293
21.0287
1.41195
1.74085
2.61174
0.634955
0.468331
1.93689
2.08001
0.391964
1.54798
4.25784
0.732936
0.55799
0.726886
0.9078
1.67784
0.783939
0.747441
1.61423
0.652113
0.508964
0.496462
0.897477
0.71296
0.96126
2.5576
1.5271
3.25847
3.96826
0.679237
2.08906
0.879786
0.844396
0.348062
0.447131
1.97716
0.601907
0.559187
1.00991
1.12416
4.90903
2.31964
0.993761
0.787318
1.69163
2.26168
1.68099
1.97193
0.602147
1.62288
0.433192
2.87569
2.4687
0.451739
0.492428
0.735773
2.51973
1.67905
1.75886
1.66165
1.21023
0.515612
1.43881
1.52335
0.453312
0.942875
1.71338
2.8964
5.03594
2.93781
0.701651
1.12211
0.546551
2.93377
1.01407
1.22103
0.52476
4.80058
0.260689
0.538321
2.19059
0.275314
0.564354
0.503955
0.969911
1.41635
1.37759
1.81383
0.822079
4.26849
1.67646
0.523813
2.90755
0.753879
0.416274
0.86297
4.53615
0.362407
0.3381
0.517403
4.9209
1.67868
2.9029
1.62265
2.8269
0.37618
0.509229
0.212463
0.361021
1.04906
1.31242
0.367851
1.82632
2.82213
1.84964
4.23676
0.767069
5.54637
0.475368
0.200138
2.61246
0.812746
0.387831
0.390474
0.485294
0.64093
3.01972
2.18927
0.488954
0.664432
0.774462
1.10763
0.721456
3.20795
1.03069
2.88689
0.294104
1.70554
3.84536
2.07854
2.94963
2.61326
0.29363
0.508424
0.79661
0.577099
0.984554
1.3568
0.1526
4.6707
0.217952
1.18586
3.10033
0.837614
1.32993
3.08801
2.28944
1.09029
0.58016
1.27107
1.23367
1.51188
0.822747
0.263498
1.37361
2.7343
4.96391
2.21798
1.02903
2.86483
0.704053
0.661688
3.10488
1.76998
0.768464
0.593081
0.287698
0.201244
0.54272
0.885782
1.23551
2.85962
0.465542
0.725219
0.401832
0.464604
0.369745
0.237418
1.38061
0.230548
2.12461
0.333912
0.263272
1.28011
0.908854
0.704439
0.996274
0.603012
3.35158
0.580166
3.46318
0.81522
1.34773
1.51579
0.585788
0.241526
2.85554
0.869753
1.21284
1.02111
1.62952
3.29679
0.533678
0.316365
0.489026
0.338519
2.38479
0.359328
0.51322
1.26857
3.61772
2.83751
0.638511
1.08053
1.3237
1.34214
0.543502
1.70309
2.19076
0.867357
1.35542
0.865025
0.411901
3.11554
0.589744
0.960254
0.727793
0.557334
0.304011
1.44395
0.930178
0.160943
0.523713
2.991
1.45176
1.39693
0.125937
0.742042
1.66489
1.14839
2.10699
0.321697
0.203561
4.33816
0.210797
3.4429
0.434384
1.34689
1.67008
0.998465
8.24011
0.902815
0.233604
0.53009
3.16733
0.642661
1.43433
0.446961
0.510207
0.842357
0.806723
3.30505
0.192402
0.245617
1.0659
12.5848
1.91148
0.287564
1.8561
0.796179
0.932905
3.93718
1.21255
1.34605
16.5538
0.578903
0.593398
1.7776
1.78891
1.34258
0.485216
1.31474
0.218483
1.04904
0.887943
0.452751
0.444811
0.674902
0.878557
1.15624
5.18484
0.40391
1.11804
0.721072
1.32024
1.44381
0.516191
0.279012
0.218014
0.197281
1.76744
0.846901
0.461475
1.09351
12.3313
0.208513
0.958249
1.81964
0.728551
1.3795
0.918224
0.322285
0.764741
1.15384
19.6107
0.459256
1.06151
1.45132
1.78
1.87791
0.766124
0.804948
0.732016
0.597421
0.550522
0.940745
0.456715
0.192684
0.523053
0.727344
1.15429
1.42769
0.60054
1.37056
0.161702
0.758509
5.22713
0.608016
0.17148
1.26224
4.32904
4.88761
0.734784
1.32463
0.806299
0.969608
1.60713
1.01353
0.508593
0.414161
0.642702
0.800493
0.273709
2.8795
1.36615
0.1407
3.43566
0.911876
0.531539
0.467538
0.907107
0.847115
1.29186
0.445418
0.462946
2.0247
1.45742
2.88718
0.232331
0.747038
0.814367
1.35969
10.7768
0.894716
0.847345
0.274359
0.250755
0.469345
0.847654
0.234048
0.794138
1.28553
0.920395
2.64515
0.871981
0.733956
0.400959
1.55268
0.52202
4.16006
0.284878
0.529133
1.23268
2.3722
1.01531
0.4237
0.816971
0.964505
1.14879
0.923549
0.7492
0.782282
5.283
0.342018
1.1457
0.215463
0.756842
2.24094
0.907318
0.585595
6.09648
0.785936
1.42602
1.09054
0.798372
0.602342
0.619262
2.64076
1.42472
0.709761
0.975503
0.687125
0.817846
0.707762
0.69029
1.26368
1.27803
0.610145
0.227235
2.86245
0.765226
0.880038
0.819072
0.384903
0.337368
0.388063
0.321419
1.88179
2.02527
1.80002
1.84896
0.450706
1.91951
1.8555
0.517955
0.589185
0.62003
0.988147
0.629433
0.632315
6.46916
0.36573
5.8508
1.08657
1.73333
3.46055
0.683678
1.28241
0.880319
0.175955
1.78511
1.00731
0.440453
0.820447
1.56009
1.39435
0.880879
0.55492
0.767708
1.56001
0.517745
0.517008
1.62864
1.04158
1.66217
1.09368
6.95571
1.40515
0.932912
0.288095
7.29227
1.52275
0.479659
0.697453
0.82092
8.23471
1.54228
1.56989
1.71558
0.442607
1.21796
2.99593
1.0206
3.4719
1.53745
1.53732
1.03912
0.929148
5.62639
0.830271
0.88985
4.36836
1.09285
2.14304
0.954155
1.54646
1.33013
1.20012
0.238642
2.48389
0.49471
0.613232
0.564455
1.11758
0.763302
1.30182
8.32041
2.45031
2.42701
3.56778
0.907573
1.81004
2.11942
14.5644
0.851263
0.211367
1.51047
3.21742
1.00029
1.00149
4.1421
0.146256
0.579155
1.65753
10.1541
0.148289
0.499254
1.33747
1.5254
1.37427
0.894463
0.312977
1.11186
0.473816
0.765652
0.708815
0.182955
1.55183
2.43126
0.762911
3.64084
0.344818
0.806176
2.0614
3.95161
1.43455
0.473137
0.507629
0.438747
1.33899
0.968766
3.67005
2.59273
5.96874
0.374628
2.78583
0.467396
1.08695
4.92109
0.964153
3.22691
4.6943
0.313531
0.851486
1.4519
1.99672
3.43514
1.55578
0.331041
5.90385
4.08473
5.56941
0.208538
0.627623
0.585229
1.33612
0.93962
2.97845
2.43069
1.00631
0.960233
0.543106
6.0965
0.583283
1.05116
3.26063
0.916479
0.518972
0.731188
0.177315
0.413263
3.47449
2.44842
1.54158
0.861154
1.23329
0.74831
0.979632
1.34941
1.16272
0.889704
1.35848
0.630363
2.42692
0.800485
0.375687
1.09817
0.45159
1.51292
0.338987
1.75514
0.359128
2.36701
0.974273
0.177212
1.32445
0.384326
0.868917
0.246583
1.46289
0.987158
0.82291
3.16238
0.240829
1.54392
1.46879
0.975871
1.749
0.708588
3.2776
0.327287
0.814604
1.20058
0.557534
0.778243
1.01646
1.18036
1.08351
2.3829
0.743765
2.79074
0.265954
1.39529
0.50091
0.227755
0.499071
1.90747
2.60206
1.27786
0.445497
2.34577
1.18497
0.491852
0.427297
0.749865
0.497477
2.2544
0.489718
1.49019
3.85211
14.0101
0.85397
0.969932
0.747422
0.648548
2.5333
0.965365
0.944902
2.56105
0.364924
0.724675
0.906106
0.539813
0.875143
0.540742
0.560466
1.00307
0.966909
0.508823
5.46192
0.730118
0.54656
0.352151
0.962383
0.295776
0.309801
3.47274
0.650202
0.641222
0.896436
1.34959
2.75445
0.183408
3.44424
1.02455
0.476147
0.221708
0.756935
3.03718
0.746112
1.12586
0.996373
1.24063
2.49214
1.75138
0.785783
0.83375
0.634262
0.145238
1.41538
0.749459
3.9275
1.24079
1.16624
0.521171
1.48515
0.436518
0.697535
0.663055
1.28386
0.589534
3.42274
1.13948
1.00379
1.26068
0.968674
2.65131
2.73111
0.580844
3.51439
0.441788
0.570705
0.366254
0.828468
1.48392
6.52453
0.567566
3.7542
0.992168
1.26537
0.736669
1.86655
1.20919
0.186971
1.53363
0.460187
0.570224
2.19261
1.04343
1.1408
0.688476
1.46429
2.38302
0.623492
1.21167
0.522809
6.23034
0.172232
5.27949
1.31077
1.34063
0.925781
0.914754
0.919367
0.422143
2.12774
1.49945
5.8925
0.595396
0.525646
1.11093
1.4413
0.763301
0.521601
2.43312
7.20349
1.07385
0.76324
1.7044
1.50271
1.07974
0.281352
1.06943
1.48835
0.515415
3.601
0.216775
1.56862
0.187469
0.972902
1.01807
3.13464
0.154148
0.553197
5.87961
1.1409
1.26357
1.35862
0.19617
1.14219
0.568891
1.3317
0.363446
2.02098
0.36051
1.22381
1.00322
0.840765
6.33376
1.00148
0.23155
0.641433
0.706994
2.70157
1.0652
2.39023
0.551103
1.64725
0.899484
1.9212
0.772052
0.58698
0.698344
1.1495
0.828206
0.839887
0.969738
0.517024
1.0215
1.63885
0.323749
0.41768
0.609481
0.599702
1.00827
0.92222
0.736118
0.551338
0.839932
1.00348
0.818708
1.30488
0.255349
1.53492
0.535725
1.71083
0.678705
0.707471
0.295091
0.785812
0.400237
1.10451
3.42174
0.282663
0.479309
1.28305
0.460362
1.41225
1.3327
2.07831
2.28812
0.808534
0.536818
0.463677
1.32529
0.624434
2.10018
0.75831
1.04058
1.324
0.830547
2.91298
0.439193
2.25785
1.13625
1.15563
0.606111
0.778629
0.670382
0.232628
0.513859
0.52343
1.1384
0.148192
5.98935
2.64654
2.82916
0.475968
1.48638
1.22575
0.114236
1.87476
1.15844
1.95667
1.33667
0.632843
0.947704
0.711594
1.01431
1.08515
0.748128
1.44584
4.67355
0.902566
9.37513
0.533981
0.635777
0.609765
1.37967
1.02071
1.03748
1.24122
0.420554
0.468965
0.964927
0.768056
0.597776
0.89405
1.235
0.75906
1.00933
0.951847
1.38364
0.859378
0.922224
2.27457
0.879503
1.0376
1.05408
0.605486
1.37465
2.4439
1.09426
0.724391
2.19121
0.110961
0.995992
1.61651
1.86234
0.659895
2.05127
1.57662
0.742269
15.9649
4.73679
4.30397
2.44953
1.04993
1.7444
9.28964
)
;

boundaryField
{
    frontAndBack
    {
        type            empty;
    }
    wallOuter
    {
        lowReCorrection 0;
        type            epsilonWallFunction;
        value           nonuniform List<scalar> 
102
(
0.29588
0.29588
3.07854
0.419853
0.334641
0.909134
1.31851
0.369745
0.557334
0.304011
0.930178
0.160943
1.39693
0.125937
0.742042
1.66489
2.10699
3.4429
3.16733
3.30505
0.287564
0.593398
1.7776
0.721072
1.32024
1.78
1.87791
0.508593
2.8795
2.24094
0.585595
0.384903
0.337368
0.388063
0.321419
1.88179
2.02527
1.80002
1.84896
0.450706
1.91951
1.8555
0.517955
0.589185
0.62003
0.629433
0.632315
1.08657
1.73333
1.56009
0.880879
1.56001
1.62864
1.54228
1.56989
1.21796
1.53745
1.53732
1.54646
1.33013
3.21742
0.146256
0.148289
0.312977
2.43126
0.507629
2.78583
1.99672
3.43514
1.00631
1.05116
3.26063
0.413263
3.47449
1.54158
1.16272
0.800485
1.51292
2.36701
0.82291
1.54392
0.327287
2.3829
2.79074
2.60206
0.749865
1.49019
2.56105
0.966909
0.749459
2.38302
0.623492
0.281352
0.216775
0.154148
1.35862
1.9212
0.969738
1.63885
0.282663
1.3327
2.28812
)
;
    }
    inlet
    {
        type            fixedValue;
        value           nonuniform 0();
    }
    outlet
    {
        type            zeroGradient;
    }
    wallInner
    {
        lowReCorrection 0;
        type            epsilonWallFunction;
        value           nonuniform List<scalar> 
138
(
0.201851
2.10931
1.44123
7.64215
9.87452
4.35252
13.9134
2.13963
5.84179
1.50194
0.735575
0.689288
0.412671
9.61706
1.4419
0.983103
0.65159
2.19234
0.673745
1.46283
1.35492
0.307848
1.47456
0.869821
0.192699
1.32541
0.488943
1.03478
19.6782
0.682771
1.17539
1.34949
0.938792
0.749777
0.753171
0.379087
0.816873
0.175239
0.819824
1.27543
0.920759
0.253052
1.11746
0.935265
0.972239
0.244675
0.352692
2.52318
0.546737
1.24509
0.731885
0.520133
0.47039
0.69571
0.10195
2.22877
0.645034
0.905192
1.1368
2.20092
0.715312
0.455984
0.184964
0.636198
1.84926
0.197697
0.469557
2.26458
0.969174
1.29503
1.12273
0.666946
1.13266
0.13887
1.71093
1.56766
4.45909
0.690492
7.15139
3.6802
0.797792
0.725415
3.30718
0.793312
1.82972
1.60843
1.74085
2.61174
1.93689
3.25847
3.96826
0.844396
0.433192
2.19059
0.416274
0.86297
3.01972
1.70554
2.21798
0.54272
0.885782
0.263272
0.338519
0.523713
1.45176
1.91148
1.04904
0.197281
0.208513
0.322285
0.192684
1.37056
0.161702
0.800493
2.0247
0.923549
0.227235
0.36573
0.175955
2.14304
8.32041
2.45031
1.00029
0.851486
2.43069
0.375687
0.557534
1.01646
2.34577
0.648548
2.49214
1.87476
15.9649
4.73679
2.44953
1.04993
1.7444
9.28964
)
;
    }
    procBoundary2to0
    {
        type            processor;
        value           nonuniform List<scalar> 
42
(
8.78032
8.78032
1.15802
0.97589
1.33827
17.9926
1.34017
1.34017
1.20789
1.51345
2.66093
2.66093
1.80531
3.13151
3.24992
20.0141
2.9668
1.581
1.32303
12.568
17.1796
1.39008
1.39008
24.0147
17.1796
0.981468
24.7134
0.441851
24.7134
6.92392
3.76736
0.274556
0.274334
0.33415
0.438024
0.97589
2.9668
1.34356
22.7121
1.15666
1.15666
0.605626
)
;
    }
    procBoundary2to1
    {
        type            processor;
        value           uniform 10.2059;
    }
    procBoundary2to3
    {
        type            processor;
        value           nonuniform List<scalar> 
29
(
8.43263
6.47149
2.37673
1.89316
7.24094
6.3267
9.79478
6.86091
1.36194
1.36311
6.91094
7.5392
11.8997
4.17287
2.44191
5.15346
1.35946
1.35946
6.47149
4.17287
2.9176
1.50279
1.99237
1.31159
2.17427
1.77575
1.36194
7.38218
7.5392
)
;
    }
}


// ************************************************************************* //
