/*--------------------------------*- C++ -*----------------------------------*\
| =========                 |                                                 |
| \\      /  F ield         | OpenFOAM: The Open Source CFD Toolbox           |
|  \\    /   O peration     | Version:  v1912                                 |
|   \\  /    A nd           | Website:  www.openfoam.com                      |
|    \\/     M anipulation  |                                                 |
\*---------------------------------------------------------------------------*/
FoamFile
{
    version     2.0;
    format      ascii;
    class       volScalarField;
    location    "0.45";
    object      k;
}
// * * * * * * * * * * * * * * * * * * * * * * * * * * * * * * * * * * * * * //

dimensions      [0 2 -2 0 0 0 0];


internalField   nonuniform List<scalar> 
1466
(
0.0763835
0.094288
0.0685594
0.107813
0.191491
0.527881
0.0636807
0.401579
0.231322
0.332494
0.0213663
0.374944
0.0222354
0.0641379
0.0812972
0.102074
0.0757061
0.142898
0.159156
0.0624622
0.131689
0.143582
0.111168
0.0807917
0.0654541
0.076151
0.122847
0.261817
0.0814312
0.244798
0.331883
0.700769
0.156342
0.278979
0.110685
0.0879128
0.0601471
0.0935224
0.915827
0.145309
0.413641
0.225956
0.229547
0.294146
0.390815
0.263029
0.0814658
0.120747
0.220527
0.124553
0.0528362
0.300626
0.168739
0.37535
0.109167
0.314698
0.0747425
0.122119
0.140199
0.295611
0.0846306
0.212957
0.271778
0.521022
0.126248
0.0846469
0.324279
0.136502
0.0727445
0.114053
0.0376792
0.0924741
0.0901259
0.091689
0.0277486
0.44006
0.0927984
0.100895
0.0952315
0.256097
0.0557901
0.0840567
0.0885391
0.210251
0.0800463
0.101583
0.056259
0.145524
0.0729779
0.108284
0.0997601
0.0817147
0.220079
0.0873555
0.0514028
0.135909
0.0848244
0.18071
0.104358
0.100911
0.0569412
0.313954
0.0717496
0.0494054
0.080425
0.261461
0.134961
0.0880275
0.094654
0.0707872
0.0897761
0.0579785
0.153015
0.099393
0.0254876
0.260731
0.0491681
0.0566896
0.110428
0.116341
0.124159
0.0981613
0.0348911
0.118506
0.0696947
0.160151
0.0748065
0.0515439
0.228875
0.120513
0.164541
0.0942662
0.0662539
0.328568
0.0539419
0.225913
0.233135
0.0662677
0.332669
0.0886312
0.307404
0.0783167
0.219143
0.212914
0.372623
0.0572327
0.044487
0.0617303
0.269223
0.0898926
0.219444
0.102307
0.105711
0.096689
0.0908413
0.0538471
0.0855913
0.31604
0.0790808
0.0622671
0.326844
0.0935999
0.110302
0.130875
0.291262
0.213912
0.130009
0.0918875
0.073573
0.125325
0.127553
0.0900586
0.0848091
0.230513
0.0895648
0.107238
0.2751
0.24706
0.0767497
0.225782
0.0979091
0.088679
0.185092
0.0735779
0.120431
0.0585235
0.101652
0.343041
0.0958888
0.0444065
0.0671742
0.0632735
0.0881328
0.126741
0.0798205
0.0886409
0.293338
0.0779109
0.0677461
0.0633818
0.159445
0.0598763
0.0850218
0.0750504
0.106555
0.250275
0.0970285
0.289486
0.0786271
0.12251
0.104876
0.179746
0.0840759
0.0976276
0.109108
0.101149
0.0375336
0.0266733
0.061629
0.0932721
0.0496016
0.106338
0.0751299
0.0878217
0.205827
0.0875623
0.0608069
0.106144
0.0821537
0.169432
0.0874144
0.155713
0.0733181
0.0959704
0.0859328
0.100375
0.0956274
0.365224
0.11206
0.0747815
0.196707
0.128031
0.0832383
0.246233
0.265693
0.05418
0.02236
0.0731381
0.0365612
0.0610541
0.0828447
0.169701
0.236429
0.128126
0.0676013
0.176987
0.0681762
0.113709
0.430386
0.422956
0.0965716
0.100475
0.174787
0.0613064
0.489024
0.0957249
0.272211
0.148288
0.0609443
0.0920455
0.169933
0.0968672
0.0694805
0.0686778
0.100839
0.170339
0.0798064
0.0670485
0.0583106
0.258188
0.0866255
0.0459569
0.0670275
0.0673721
0.0645049
0.0402327
0.0867789
0.0848537
0.109968
0.0871159
0.0854048
0.273632
0.105595
0.407769
0.233221
0.0952371
0.320364
0.279638
0.0892702
0.049261
0.0878408
0.231458
0.0723288
0.105582
0.09614
0.0739147
0.0635065
0.146514
0.0461757
0.851345
0.185309
0.0514548
0.0593287
0.276243
0.20968
0.0597588
0.142102
0.0652173
0.358722
0.0931708
0.0807289
0.23513
0.181127
0.05426
0.0468949
0.0503823
0.0325186
0.0552981
0.020277
0.0587037
0.0667937
0.0539122
0.0256381
0.0708851
0.053522
0.0548782
0.0200232
0.0355596
0.0934659
0.0435888
0.0770227
0.0542566
0.038268
0.0365878
0.0541168
0.0145524
0.103959
0.0457451
0.0797804
0.106782
0.264265
0.0922291
0.2804
0.148626
0.139901
0.0581379
0.148379
0.0568787
0.959223
0.112547
0.135552
0.268989
0.217958
0.0729792
0.0954546
0.0566131
0.0360289
0.0211202
0.0513256
0.104263
0.0224785
0.0369972
0.104639
0.0545134
0.0655612
0.0600277
0.0453417
0.366937
0.0957573
0.0630492
0.0488955
0.211571
0.147745
0.0569477
0.171362
0.101257
0.115743
0.058094
0.0757956
0.0755263
0.0987007
0.121076
0.191518
0.326085
0.0585977
0.0703432
0.207003
0.0388985
0.0775109
0.0150352
0.0791594
0.0325147
0.172712
0.0834245
0.463433
0.0671704
0.22898
0.615504
0.0785601
0.106873
0.0652433
0.138881
0.0752583
0.148753
0.288088
0.181929
0.229663
0.136217
0.0895164
0.132996
0.147679
0.0512126
0.154329
0.135039
0.142271
0.129392
0.136629
0.154878
0.113034
0.102732
0.150236
0.0655659
0.229247
0.364204
0.240421
0.383754
0.26925
0.350735
0.109674
0.144032
0.133169
0.0772379
0.292143
0.108655
0.108707
0.21372
0.181567
0.187177
0.303434
0.11359
0.295605
0.228216
0.12612
0.184051
0.235708
0.118306
0.21278
0.200928
0.0479528
0.105721
0.174168
0.221904
0.194697
0.123889
0.273733
0.0465572
0.362693
0.0632205
0.149679
0.122195
0.335029
0.105055
0.111722
0.123428
0.787157
0.321063
0.0490585
0.0853138
0.188063
1.01036
0.143065
0.0629748
0.929973
0.0726354
0.226279
0.126707
0.075792
0.0557849
0.985747
0.319654
0.212827
0.0917691
0.0872869
0.0528651
0.0894596
0.182259
1.14745
0.193145
0.0828579
0.107838
0.078454
0.0797057
0.0930105
0.154416
0.04731
0.17065
0.404947
0.101352
0.108825
0.0989672
0.133847
0.204127
0.118139
0.106824
0.124406
0.102853
0.0656765
0.0853352
0.157001
0.129948
0.163673
0.319886
0.165917
0.141942
0.14286
0.0802922
0.228407
0.0985859
0.0581109
0.0460079
0.0699726
0.207563
0.100295
0.105434
0.11318
0.14771
0.372297
0.286869
0.114372
0.077677
0.216444
0.290073
0.209788
0.257026
0.0977639
0.132794
0.0348535
0.31708
0.312344
0.0642746
0.0809839
0.0800633
0.313417
0.234205
0.211963
0.220373
0.14636
0.0634868
0.221751
0.183295
0.0642689
0.105395
0.223554
0.294021
0.450252
0.27529
0.0803147
0.109832
0.100173
0.298518
0.0809735
0.157479
0.101091
0.400471
0.0400575
0.107267
0.117712
0.038892
0.100586
0.0999472
0.134366
0.119203
0.213829
0.187499
0.0789667
0.394508
0.217616
0.0812599
0.301677
0.130632
0.0334473
0.0537371
0.416769
0.0604487
0.0536956
0.0838663
0.273046
0.224769
0.335701
0.194941
0.292501
0.0591823
0.0798337
0.0426673
0.0527578
0.160693
0.210588
0.0571395
0.259323
0.25792
0.231516
0.230875
0.131723
0.441831
0.058851
0.0334877
0.317012
0.0746137
0.0652951
0.0615484
0.0718773
0.0853348
0.119746
0.254459
0.0714633
0.127821
0.118204
0.1114
0.100685
0.360806
0.168854
0.26548
0.0543788
0.0805363
0.239851
0.243291
0.221124
0.323183
0.0521904
0.0777971
0.11226
0.0873697
0.0747116
0.161301
0.0324868
0.347627
0.0447949
0.165219
0.260231
0.117652
0.119205
0.328838
0.257032
0.168601
0.0829196
0.168403
0.192583
0.158301
0.114587
0.0486918
0.108363
0.333072
0.392346
0.11794
0.167636
0.343637
0.133556
0.090163
0.346043
0.22531
0.105664
0.0699924
0.0463833
0.0395222
0.038867
0.0533006
0.156482
0.342144
0.0649957
0.091857
0.0648311
0.0673008
0.0278019
0.0480518
0.187267
0.0408109
0.23676
0.0569001
0.0252782
0.133871
0.0873518
0.0947067
0.116946
0.0819524
0.354422
0.0730572
0.294113
0.0913149
0.186673
0.219143
0.103557
0.0476279
0.281579
0.131288
0.18169
0.107179
0.233931
0.358232
0.0999317
0.0561082
0.0714464
0.0288261
0.209769
0.0587029
0.0769567
0.102764
0.30351
0.280467
0.0835523
0.139096
0.189851
0.212339
0.089079
0.231607
0.291411
0.0844994
0.203903
0.0874615
0.0708708
0.297123
0.113661
0.105309
0.108836
0.035363
0.0246797
0.217798
0.048388
0.0173919
0.0437845
0.308531
0.0756068
0.0625857
0.0134468
0.0381866
0.0653686
0.138238
0.072575
0.0545146
0.0301532
0.326291
0.0360448
0.112363
0.0513058
0.190838
0.227602
0.0960399
0.626958
0.14855
0.0394736
0.0640122
0.105873
0.0750813
0.195742
0.056382
0.0619736
0.142487
0.102059
0.109224
0.0363408
0.0387741
0.168524
0.648446
0.0897618
0.0265231
0.233846
0.100412
0.0982793
0.308721
0.114504
0.163772
1.06094
0.0951995
0.0349723
0.0697321
0.230859
0.18723
0.0691694
0.136741
0.0398317
0.0551274
0.079612
0.0639027
0.0621148
0.0727341
0.0802718
0.152632
0.422008
0.0611234
0.147157
0.0451635
0.0673245
0.193806
0.0781367
0.0448102
0.0393194
0.0206682
0.210947
0.0767856
0.0614106
0.172607
0.898815
0.021389
0.114227
0.216395
0.0732718
0.186901
0.0718523
0.0290259
0.0762381
0.174082
1.19999
0.0631937
0.183019
0.215088
0.0684818
0.0716252
0.0760185
0.0835311
0.0863283
0.0636354
0.0718249
0.145342
0.0582071
0.0229723
0.0666099
0.0740795
0.15709
0.1969
0.0568984
0.0750818
0.017902
0.0882529
0.447914
0.110431
0.0313154
0.197536
0.322654
0.33838
0.13888
0.203307
0.129206
0.134979
0.210814
0.154011
0.0309331
0.0511945
0.108596
0.0519211
0.0373174
0.0999673
0.200327
0.0271339
0.369009
0.099764
0.0786904
0.0677285
0.0724631
0.0986285
0.20121
0.0510089
0.0727524
0.0910337
0.185328
0.256382
0.035053
0.0812377
0.0779215
0.148958
0.811941
0.159714
0.0783967
0.0465387
0.0460239
0.0670943
0.0748246
0.0338798
0.0850006
0.16749
0.164242
0.212157
0.127774
0.0831932
0.0499002
0.109242
0.0821111
0.25052
0.045812
0.0757018
0.155232
0.213606
0.106038
0.074833
0.0974111
0.118868
0.188
0.0506432
0.0907903
0.0885254
0.353095
0.058352
0.107333
0.0312703
0.133729
0.0770708
0.130834
0.0331858
0.363154
0.0801154
0.149506
0.112137
0.0992398
0.0671271
0.108234
0.280595
0.198921
0.0716814
0.132884
0.0816535
0.121601
0.0859346
0.071697
0.140961
0.180126
0.12055
0.0219665
0.284806
0.100795
0.154448
0.105234
0.0255921
0.0228913
0.0227832
0.0213891
0.0706224
0.0692866
0.0694171
0.0676908
0.0288132
0.0665928
0.0666479
0.0318428
0.0345434
0.0353301
0.103073
0.0350216
0.0348424
0.462154
0.03211
0.339841
0.0502594
0.0666306
0.370583
0.11422
0.113865
0.0735057
0.0192367
0.220989
0.0755263
0.0577523
0.110911
0.0659705
0.178488
0.0490058
0.0559615
0.133609
0.0662153
0.0793764
0.072233
0.0664312
0.094834
0.211019
0.154114
0.583198
0.203991
0.127443
0.0490319
0.313383
0.152615
0.0608993
0.117898
0.0872072
0.270863
0.0658527
0.0662099
0.20027
0.048913
0.0550628
0.282639
0.148149
0.250305
0.0658447
0.0659252
0.146254
0.12604
0.372463
0.0734012
0.0844952
0.264122
0.0997535
0.0926536
0.123338
0.0654077
0.069022
0.176668
0.0470312
0.231125
0.077667
0.0798972
0.0920592
0.154698
0.0766104
0.0934203
0.208968
0.102848
0.241005
0.32511
0.096694
0.209747
0.153519
0.830389
0.115608
0.0423685
0.22599
0.117823
0.0477425
0.158198
0.221005
0.0138268
0.0941471
0.145111
0.718621
0.0136564
0.0616524
0.149642
0.19023
0.177981
0.0877101
0.0241289
0.182976
0.0757966
0.0919549
0.0603645
0.0323692
0.214228
0.0899221
0.12527
0.390694
0.0490141
0.0609124
0.166311
0.252742
0.110546
0.050524
0.0305748
0.061229
0.139185
0.0773404
0.277258
0.249656
0.431383
0.0673473
0.108819
0.070068
0.118172
0.345225
0.0933949
0.309803
0.322889
0.056561
0.0465425
0.128961
0.0822185
0.119257
0.188814
0.0537108
0.453258
0.270045
0.458234
0.0379452
0.082073
0.0883217
0.157967
0.10103
0.274724
0.0915779
0.0540126
0.0807673
0.08004
0.299382
0.0752749
0.0611115
0.112917
0.103423
0.0990771
0.0988793
0.028615
0.0270456
0.113742
0.22914
0.0663699
0.113903
0.184685
0.0835668
0.10173
0.164323
0.0567435
0.0642814
0.0944405
0.0691201
0.217499
0.0418655
0.0320252
0.186337
0.0574756
0.0614709
0.0323132
0.110529
0.0529767
0.0945123
0.120986
0.0274923
0.105528
0.0564641
0.156878
0.0303139
0.110039
0.160517
0.0438743
0.335783
0.038191
0.0661975
0.16205
0.110011
0.166431
0.0944895
0.262949
0.0236103
0.0786676
0.197476
0.0384574
0.0775113
0.0503944
0.0781266
0.097914
0.0815905
0.132382
0.0858496
0.0335069
0.116974
0.0599526
0.0416646
0.100807
0.259742
0.103666
0.207404
0.0614977
0.10586
0.0933518
0.0523583
0.0445323
0.0374405
0.0716155
0.282735
0.0548789
0.0637936
0.275196
0.795839
0.0905801
0.0761226
0.112579
0.043993
0.247873
0.0972476
0.0727444
0.0752721
0.0494776
0.113514
0.0835047
0.104489
0.0909429
0.0904764
0.0717186
0.0897419
0.0507648
0.0652639
0.419378
0.12549
0.110213
0.045482
0.134398
0.051988
0.0506255
0.303029
0.0793309
0.0687868
0.111944
0.0843879
0.260647
0.0336672
0.251529
0.14516
0.0665606
0.0375255
0.0757039
0.250727
0.0846168
0.177025
0.174404
0.174009
0.102115
0.133302
0.0759331
0.0882498
0.0812883
0.0294903
0.103193
0.0390939
0.343834
0.173351
0.097288
0.0599001
0.15838
0.044917
0.0812522
0.0557876
0.201632
0.0596477
0.281137
0.0853485
0.0664007
0.125334
0.0906783
0.30333
0.271455
0.115118
0.282947
0.0621881
0.0815248
0.0568835
0.0963026
0.147605
0.541446
0.0806551
0.39109
0.171448
0.115405
0.0769649
0.192146
0.198841
0.0369328
0.124082
0.0662677
0.0752098
0.229901
0.161129
0.109928
0.0871642
0.160455
0.0666107
0.0271174
0.0841307
0.104797
0.370701
0.0247595
0.445254
0.186695
0.206387
0.115394
0.0793609
0.0977927
0.0537128
0.128049
0.107265
0.409649
0.0746577
0.0623867
0.165933
0.17296
0.0763151
0.0659704
0.225621
0.559242
0.164646
0.0686932
0.249302
0.216948
0.176523
0.0221553
0.180301
0.13301
0.099918
0.381219
0.0176175
0.140053
0.036184
0.142283
0.130194
0.337538
0.0114581
0.0792388
0.401754
0.0974397
0.125827
0.0610344
0.0383801
0.192526
0.0721073
0.138211
0.0497976
0.277024
0.0485186
0.133245
0.14736
0.091682
0.316949
0.166873
0.0424396
0.0774652
0.0691726
0.262998
0.111431
0.296148
0.0571712
0.157921
0.129421
0.0770876
0.122112
0.0761244
0.0830018
0.0992711
0.0880032
0.115929
0.0442897
0.0700187
0.109941
0.0652134
0.0618293
0.058041
0.0775695
0.0733552
0.175171
0.0699824
0.135157
0.0721243
0.0944919
0.0987332
0.139038
0.139255
0.038375
0.196858
0.0577578
0.163971
0.0605288
0.070808
0.0374424
0.0771384
0.0548235
0.173588
0.363927
0.0219182
0.0559879
0.142381
0.0611577
0.146039
0.0566259
0.148853
0.0820011
0.148925
0.0669446
0.0548946
0.0840484
0.0748749
0.201017
0.08986
0.104648
0.108854
0.0799696
0.271692
0.0667036
0.209714
0.084908
0.12094
0.0730843
0.0842199
0.0779274
0.0240133
0.0624319
0.0705203
0.158524
0.0271007
0.42608
0.258089
0.296067
0.0578963
0.15384
0.151629
0.0192715
0.0951569
0.10067
0.193065
0.10799
0.0657581
0.0992263
0.0793703
0.089755
0.0973894
0.0949311
0.124795
0.380284
0.142028
0.595907
0.0630069
0.0850527
0.0687869
0.088338
0.151747
0.142299
0.105818
0.0620164
0.0686685
0.0864674
0.0773521
0.0746635
0.0668363
0.0967387
0.0758949
0.104384
0.061091
0.145588
0.0829687
0.0922456
0.186943
0.0863545
0.151874
0.157833
0.0663609
0.115342
0.212055
0.103582
0.0714726
0.208579
0.0171717
0.164353
0.239481
0.261474
0.0664272
0.220715
0.233087
0.0638422
0.379954
0.193925
0.282019
0.103761
0.0583928
0.101181
0.282186
)
;

boundaryField
{
    frontAndBack
    {
        type            empty;
    }
    wallOuter
    {
        type            kqRWallFunction;
        value           nonuniform List<scalar> 
102
(
0.0222354
0.0222354
0.111168
0.0277486
0.0254876
0.0461757
0.0585977
0.0278019
0.035363
0.0246797
0.048388
0.0173919
0.0625857
0.0134468
0.0381866
0.0653686
0.072575
0.112363
0.105873
0.109224
0.0265231
0.0349723
0.0697321
0.0451635
0.0673245
0.0684818
0.0716252
0.0309331
0.0999673
0.0770708
0.0331858
0.0255921
0.0228913
0.0227832
0.0213891
0.0706224
0.0692866
0.0694171
0.0676908
0.0288132
0.0665928
0.0666479
0.0318428
0.0345434
0.0353301
0.0350216
0.0348424
0.0502594
0.0666306
0.0659705
0.0490058
0.0662153
0.0664312
0.0658527
0.0662099
0.0550628
0.0658447
0.0659252
0.0654077
0.069022
0.117823
0.0138268
0.0136564
0.0241289
0.0899221
0.0305748
0.108819
0.0822185
0.119257
0.0540126
0.0611115
0.112917
0.0270456
0.113742
0.0663699
0.0567435
0.0418655
0.0614709
0.0945123
0.0438743
0.0661975
0.0236103
0.0815905
0.0858496
0.103666
0.0374405
0.0637936
0.0752721
0.0507648
0.0390939
0.0666107
0.0271174
0.0221553
0.0176175
0.0114581
0.0610344
0.0770876
0.0442897
0.0652134
0.0219182
0.0566259
0.0820011
)
;
    }
    inlet
    {
        type            fixedValue;
        value           nonuniform 0();
    }
    outlet
    {
        type            zeroGradient;
    }
    wallInner
    {
        type            kqRWallFunction;
        value           nonuniform List<scalar> 
138
(
0.0213663
0.0757061
0.0814312
0.244798
0.300626
0.168739
0.37535
0.109167
0.212957
0.0817147
0.0569412
0.0494054
0.0348911
0.307404
0.0783167
0.0572327
0.044487
0.0918875
0.0444065
0.0671742
0.0632735
0.0266733
0.0832383
0.05418
0.02236
0.0731381
0.0365612
0.0610541
0.489024
0.0459569
0.0670275
0.0848537
0.05426
0.0468949
0.0503823
0.0325186
0.0552981
0.020277
0.0587037
0.0667937
0.0539122
0.0256381
0.0708851
0.053522
0.0548782
0.0200232
0.0355596
0.0934659
0.0435888
0.0770227
0.0542566
0.038268
0.0365878
0.0541168
0.0145524
0.103959
0.0457451
0.0568787
0.0729792
0.0954546
0.0566131
0.0360289
0.0211202
0.0513256
0.104263
0.0224785
0.0369972
0.104639
0.0545134
0.0655612
0.0600277
0.0453417
0.0630492
0.0150352
0.0791594
0.0752583
0.148753
0.0512126
0.240421
0.133169
0.0479528
0.0465572
0.122195
0.0490585
0.0853138
0.0894596
0.0828579
0.107838
0.0930105
0.141942
0.14286
0.0581109
0.0348535
0.117712
0.0334473
0.0537371
0.119746
0.0805363
0.11794
0.038867
0.0533006
0.0252782
0.0288261
0.0437845
0.0756068
0.0897618
0.0551274
0.0206682
0.021389
0.0290259
0.0229723
0.0750818
0.017902
0.0519211
0.0910337
0.0506432
0.0219665
0.03211
0.0192367
0.0926536
0.208968
0.102848
0.0477425
0.0465425
0.0915779
0.0320252
0.0384574
0.0503944
0.10586
0.043993
0.102115
0.0951569
0.379954
0.193925
0.103761
0.0583928
0.101181
0.282186
)
;
    }
    procBoundary2to0
    {
        type            processor;
        value           nonuniform List<scalar> 
42
(
0.687113
0.687113
0.121403
0.0961961
0.172597
1.18028
0.142449
0.142449
0.160851
0.15494
0.299505
0.299505
0.218038
0.346329
0.356681
1.24535
0.316495
0.148295
0.158723
0.679194
0.815848
0.132465
0.132465
0.999594
0.815848
0.0964281
1.2586
0.0592735
1.2586
0.583782
0.371836
0.0490075
0.05182
0.0586849
0.0693944
0.0961961
0.316495
0.0646792
1.32881
0.134816
0.134816
0.0863932
)
;
    }
    procBoundary2to1
    {
        type            processor;
        value           uniform 0.607628;
    }
    procBoundary2to3
    {
        type            processor;
        value           nonuniform List<scalar> 
29
(
0.470108
0.383019
0.121216
0.092578
0.281772
0.238064
0.323579
0.352957
0.14977
0.145935
0.318702
0.44367
0.35905
0.404582
0.23102
0.431189
0.13538
0.13538
0.383019
0.404582
0.294242
0.137845
0.0821712
0.14721
0.165915
0.136682
0.14977
0.505106
0.44367
)
;
    }
}


// ************************************************************************* //
