/*--------------------------------*- C++ -*----------------------------------*\
| =========                 |                                                 |
| \\      /  F ield         | OpenFOAM: The Open Source CFD Toolbox           |
|  \\    /   O peration     | Version:  v1912                                 |
|   \\  /    A nd           | Website:  www.openfoam.com                      |
|    \\/     M anipulation  |                                                 |
\*---------------------------------------------------------------------------*/
FoamFile
{
    version     2.0;
    format      ascii;
    class       volScalarField;
    location    "0.45";
    object      p;
}
// * * * * * * * * * * * * * * * * * * * * * * * * * * * * * * * * * * * * * //

dimensions      [0 2 -2 0 0 0 0];


internalField   nonuniform List<scalar> 
1466
(
86.2263
86.6395
85.5664
86.3631
85.0156
85.8575
84.3011
85.2619
86.067
85.7878
86.2754
85.4491
86.9698
86.7711
86.3636
86.7644
86.2333
86.4998
85.0919
86.7363
86.037
84.2254
85.77
86.3208
86.8137
86.117
86.0869
85.8357
83.9688
85.9926
85.2027
85.217
83.8969
85.8676
86.2304
86.2695
86.4599
86.8531
86.2833
83.9162
85.2485
86.5572
86.0664
85.5039
85.3786
86.1374
86.697
86.4441
86.6472
86.2693
85.5734
86.1391
84.9819
85.8425
84.0918
86.3671
86.5997
85.5619
86.5632
86.4494
86.7173
86.122
84.9873
85.4469
86.9273
86.6789
86.1481
85.8901
86.4454
84.2943
86.1723
86.3539
86.9667
86.4334
86.9282
85.7215
86.3925
86.4125
84.084
86.0676
86.1152
86.4236
86.0992
86.7086
86.8852
86.729
86.7956
87.1085
86.5963
86.1298
86.4686
86.733
85.5781
86.3471
85.688
86.4581
86.289
86.4174
86.1903
86.516
84.198
85.762
85.6499
86.2611
86.2299
86.272
85.8406
86.0649
86.2078
86.787
86.6587
86.0567
86.5238
86.8815
86.9506
86.3091
86.6645
86.7724
86.1533
85.3208
85.978
86.3025
86.5301
86.8998
86.6573
85.7667
86.8639
86.1789
85.6719
85.8077
86.8159
86.3536
86.1195
85.8299
86.0717
85.703
86.4228
86.7074
85.6415
86.2727
85.3884
86.4486
85.584
85.0256
85.506
86.8764
86.8007
86.1636
85.033
86.9507
85.7723
86.8857
86.1306
86.3729
86.4903
86.2473
86.3498
86.8608
85.8239
86.1201
85.604
86.6085
87.158
86.1824
85.9719
85.4787
85.6186
86.3099
86.7281
86.0075
86.904
86.8043
86.868
84.4349
86.0497
86.6044
86.2175
86.1276
86.5495
85.8062
86.4511
86.0953
86.8238
86.6711
86.8443
86.736
85.9375
86.2589
86.0983
86.2114
85.9227
86.9657
86.6655
87.0152
86.3327
86.4146
85.8901
86.8072
86.6839
86.7191
86.4276
86.0044
86.1076
86.7256
86.879
86.6756
85.9711
86.2039
86.4494
87.0549
86.963
86.6488
85.9163
86.6932
86.1817
85.9822
85.935
86.5063
86.7716
86.4224
86.2015
86.1873
86.781
86.7423
84.5448
86.7572
86.6907
86.8713
86.0659
85.8442
86.7121
87.1991
86.4899
86.7602
86.2032
86.9048
86.8146
85.6268
86.8593
86.8531
85.9541
86.8819
86.9887
86.278
86.4135
86.1589
86.1087
86.2146
86.4307
86.0691
86.4637
84.8508
86.7299
87.149
86.5211
84.7438
86.6294
85.5007
86.2902
86.0047
86.7229
86.799
84.7766
86.0918
86.4752
86.4268
86.1912
86.182
86.0531
86.3685
84.6014
86.4287
86.766
86.6315
86.8407
86.5864
86.9929
86.6239
86.1908
86.5724
86.8843
86.2998
86.0826
86.8725
85.8478
86.7847
85.8736
87.1398
86.2107
86.3525
86.7137
86.388
85.5949
85.3693
86.7703
86.0025
86.2968
86.5865
85.8911
86.6335
86.0995
86.7732
86.9082
85.6191
86.7295
86.0668
86.8918
86.7789
86.9291
86.8454
85.9411
85.8118
86.0197
84.4742
86.7679
86.0251
86.2977
86.075
85.8021
86.9057
86.6394
85.4982
86.7626
86.0211
86.954
85.6839
86.3048
85.9047
86.3171
86.0942
87.2429
85.5962
86.3279
85.8062
87.0154
85.8109
85.9839
86.0434
86.6465
86.1218
87.2844
85.6648
85.9729
86.0521
85.6058
86.1267
87.0566
85.958
85.9071
86.201
86.7387
86.7599
86.6995
86.6778
86.7293
85.9672
86.4948
86.2253
86.6666
85.9472
86.204
85.9128
85.3154
85.8183
84.1157
85.6827
86.2114
86.3229
85.8235
87.2402
86.1337
85.9961
86.8017
85.647
85.858
87.1262
85.8196
86.9406
86.7249
85.4271
86.7503
83.7225
85.3879
85.9795
84.175
85.7877
87.0148
86.0712
86.8807
85.8525
85.8014
85.287
84.7752
86.3032
86.9643
86.5829
85.0477
86.1391
86.4051
85.9804
86.6692
86.2841
84.8625
86.8107
85.2758
85.63
85.0603
86.3201
85.3568
87.0304
86.0236
84.7149
85.1496
83.2241
86.0867
85.5471
84.9448
85.1135
85.8026
85.6598
85.07
85.8846
84.2329
84.1454
84.2579
84.3052
83.8787
84.1049
84.2081
84.2942
86.0912
86.0299
85.0832
86.6173
86.2773
86.5817
86.1105
85.1468
85.67
86.0603
86.3687
85.9067
86.6299
85.3424
85.8028
86.1205
86.0844
86.0404
86.7669
85.2456
86.7699
86.0902
85.2028
84.9351
86.128
85.479
86.1195
86.1519
85.2738
85.3291
86.1564
85.011
84.9755
85.2074
86.375
86.071
86.4108
85.8837
86.2809
84.6807
86.3851
85.4751
85.2956
85.2694
84.6646
85.2174
85.2244
85.0492
85.2946
85.9143
86.6081
85.6409
85.3186
85.4432
85.4604
86.9397
85.3847
85.7659
84.8336
86.0402
85.6498
86.9566
85.2778
86.0022
84.6097
85.4722
85.743
86.1537
86.1919
86.2542
86.9777
85.3284
84.3666
84.521
86.1341
84.9141
85.8324
85.4264
85.301
85.5908
86.015
85.6963
85.9242
85.3352
85.1873
85.7472
86.9375
85.2723
85.0789
85.2288
85.1348
86.1275
86.1922
86.3866
86.383
85.8911
86.2384
86.1612
85.8283
86.145
85.5966
85.2294
85.429
85.3676
85.288
86.1768
85.689
86.2387
86.5369
85.9049
86.177
86.1333
86.1564
86.1526
85.5789
85.266
85.9018
86.2096
86.1242
86.9095
85.4092
86.2664
86.2056
85.3305
85.332
86.1777
86.2264
86.0299
84.8904
86.1703
86.1539
86.3992
85.4076
86.2342
85.5671
86.4634
86.4489
86.8837
85.5195
86.2988
86.3397
86.17
85.473
85.3981
86.1155
85.3158
85.2037
86.1739
85.6657
85.4613
86.6918
86.9697
84.8094
85.0197
86.6877
86.9698
85.9344
85.3917
86.4402
85.3797
86.8842
86.5277
85.5613
85.5905
86.8684
85.367
85.5785
85.9907
86.1931
85.1111
86.608
86.8475
85.5885
85.8058
86.153
84.5833
84.7685
86.1051
86.0556
86.3388
85.8939
86.4412
85.4258
86.2004
86.8915
86.1925
86.156
86.819
86.2216
86.8943
86.0827
86.2104
85.4248
86.6802
85.6317
85.1563
86.6901
86.9844
85.9917
86.3968
84.9157
86.2967
85.5471
86.1078
85.0869
86.18
85.0126
86.18
86.8173
85.5779
85.8767
86.2082
86.4504
86.013
86.2876
85.9336
85.6365
86.2248
86.3731
85.8475
87.0765
86.5099
86.476
86.1693
85.7788
85.0449
85.9183
84.7764
85.8974
85.5789
86.7951
86.185
85.5013
85.3664
85.7458
86.2802
85.1408
86.9137
86.353
86.7119
86.0243
86.2802
86.7453
85.7652
86.9238
86.2401
85.3797
86.2305
85.9259
85.949
86.9149
86.1131
86.9041
85.6962
86.6495
86.2884
85.9443
86.0865
86.0066
87.2205
86.5367
86.2114
85.8042
85.7421
86.7135
86.551
86.6115
86.8687
86.741
85.4382
85.7866
85.8222
86.6638
86.1898
85.6579
86.1641
85.1848
86.5545
85.6175
86.827
85.8653
86.0852
86.0162
86.8334
85.8439
86.4421
86.6508
86.3905
86.4078
86.1367
84.8855
84.858
85.2786
85.4909
86.0939
86.7381
84.8897
86.8756
86.2027
85.5683
85.3893
86.1717
85.8509
86.7044
86.7395
86.038
86.664
86.7706
85.9676
86.9059
85.944
86.6192
86.7867
86.6241
87.0823
86.0321
87.1315
85.936
86.1949
86.2129
86.0079
86.0398
86.5646
86.0819
85.2442
86.196
86.5025
85.7889
86.068
86.6514
86.3243
86.0849
86.5907
86.9656
86.4492
85.5551
84.3983
86.1893
85.9521
85.8003
84.6092
86.4311
85.0144
86.8641
86.5192
86.8485
86.8855
86.4478
86.9843
85.4053
86.208
86.1956
86.9382
87.0398
86.2552
86.7412
85.5121
86.7357
86.2586
86.8456
86.379
86.234
86.9795
86.8032
86.4876
85.2717
86.2318
86.1595
84.3272
86.6052
87.1753
85.0044
85.3737
85.7427
86.0385
86.0891
86.2134
86.5541
85.7626
84.6583
86.3572
86.1625
85.8768
86.2309
86.7388
85.6842
86.4409
85.9055
86.3201
85.7083
86.2833
86.1586
84.7505
85.3146
86.4127
86.3585
86.2397
86.7694
86.7658
85.6961
86.565
85.7236
86.1897
86.3034
85.4616
86.2755
84.665
86.3371
86.6949
86.7374
85.9657
86.7682
85.3848
85.6727
86.775
85.1602
86.5893
86.4307
85.0771
85.2271
86.1828
86.4081
85.1835
86.2081
86.9357
86.0104
85.5916
86.0938
86.146
86.4336
85.8937
86.7751
86.9205
86.4409
85.8433
86.8686
86.3977
85.9161
84.7753
86.1835
85.4129
87.007
86.2174
85.6714
85.947
86.717
86.4394
87.2551
86.2968
84.9791
86.3755
85.6198
86.2483
85.8388
86.2898
86.0774
86.3231
84.8493
84.9197
85.1645
86.8388
86.6355
86.6323
87.0851
85.3595
86.3884
86.1812
86.1693
86.1
85.8812
86.1585
85.373
86.0778
85.3867
84.6915
86.24
86.4258
86.2211
86.1801
85.8025
86.8935
86.1524
85.306
86.6052
86.1209
86.8679
85.0305
86.5559
87.1956
86.9424
87.1808
86.4027
85.8202
86.8556
86.2064
86.7482
85.8047
85.8616
85.9499
85.9295
86.4188
87.2407
86.7
85.1947
86.6007
86.3156
86.1765
85.025
86.0095
86.7058
86.7005
86.6794
86.694
86.7887
86.8558
86.7071
86.6029
86.7165
86.4878
86.3847
86.7342
86.7598
86.788
86.1739
86.8158
86.8439
85.2997
86.1521
85.7443
86.85
86.3183
86.8746
85.5754
86.8981
86.3449
86.1169
86.2288
86.3745
85.5497
85.9907
86.2192
84.8785
86.5507
86.0637
85.3851
86.2245
85.6183
86.9138
86.2869
86.8106
86.2383
85.4945
86.2095
86.0023
85.8452
85.5106
85.345
87.1237
85.5779
85.4053
86.2801
84.0813
86.2233
86.2675
86.1713
86.1532
86.3525
86.6684
85.9673
86.4316
86.2352
86.2501
84.3442
85.8565
85.9217
86.8327
86.7932
86.4347
86.9006
86.4267
85.8738
86.3417
86.4199
85.8772
86.7991
85.7815
85.4767
86.9976
86.7243
85.3082
86.3969
86.3209
86.2448
84.9933
85.8679
85.5273
84.0398
86.4235
84.9622
86.1443
85.9675
85.933
86.0638
85.6989
86.6959
85.1274
86.359
86.7649
86.9159
85.0083
86.452
86.7738
85.9455
86.3827
86.4988
84.7491
86.2342
86.9153
84.6251
85.4091
87.0524
85.9949
86.2126
86.0502
86.5127
85.5847
86.7414
86.193
85.8862
86.6687
86.4041
86.3985
86.0805
86.8862
85.5437
86.9367
86.3617
86.2946
85.6503
85.4167
86.7711
85.9032
85.431
87.0963
86.2975
86.5829
85.5151
85.6877
85.6627
85.8336
83.744
86.7915
85.7722
86.1664
86.0501
85.3312
86.3286
85.2301
85.8241
86.4107
86.2196
84.5562
86.9448
86.2947
86.4992
86.5066
85.4482
86.2294
84.9282
86.0657
86.4612
85.7074
86.9103
85.6277
86.0957
86.7524
86.8989
85.8939
85.6274
86.2515
86.1722
84.7754
86.8386
86.2677
86.0511
86.4467
86.6565
86.9493
86.2756
85.6461
86.9243
85.8515
84.8304
86.0171
86.6001
85.9975
86.6443
86.2558
86.365
85.8974
85.9515
86.6284
86.8085
84.9592
85.9552
86.5664
85.3894
86.3841
86.8479
86.1846
86.2958
86.4961
86.7335
86.1078
86.1953
85.4863
86.9033
86.2869
84.6737
86.2183
86.1962
86.7696
86.7621
86.899
87.0608
85.3112
87.1665
85.944
86.7777
85.5401
85.6687
85.4353
86.1237
86.1059
84.7568
86.0912
86.5192
86.7346
85.9184
86.155
86.3164
85.6185
86.1823
85.7078
86.3827
85.2795
85.7021
86.2223
86.7067
85.3369
86.1958
86.0152
86.3582
86.7064
86.4692
86.8753
85.556
86.3754
85.5231
86.3747
85.2956
86.8466
86.8908
86.4343
86.5795
86.4071
85.7168
85.3127
86.8766
84.4698
86.8361
86.2178
86.3887
86.8345
86.3585
87.2085
86.9345
86.4524
86.2087
86.377
86.6252
86.0331
86.2361
86.22
86.3379
86.2054
84.6755
84.8319
84.6344
86.6465
83.8563
86.268
86.3165
86.8896
86.2443
86.3383
86.3403
86.7513
85.9519
86.4355
85.964
86.5837
86.8997
86.189
86.724
85.0462
85.8773
86.1669
86.4334
85.9922
83.9658
86.4539
86.1537
86.5342
85.2636
86.4612
86.2553
87.0653
85.4946
86.9205
85.2003
86.2362
85.6657
86.805
84.9456
86.9105
85.9285
86.7777
84.8106
86.2895
84.1085
86.7078
85.8669
86.162
84.559
86.9031
86.2233
84.0986
86.9701
86.6542
86.3181
85.3992
85.3124
86.7511
86.8751
86.01
85.9975
86.6128
86.6821
86.8449
85.7695
85.0765
84.6365
86.2788
86.0643
86.8939
84.5606
84.6852
86.1971
86.285
85.6749
86.6772
85.9004
85.7834
86.0692
86.1172
84.6365
86.8976
84.6655
86.3916
85.5835
86.8569
86.7942
86.4727
86.2542
84.3828
85.7716
86.9295
86.7814
85.7395
85.6494
86.798
86.3516
86.4212
86.8039
84.7023
85.7928
86.6433
85.9511
86.1075
85.9904
86.4713
84.4487
86.2955
84.9086
85.2035
86.0334
84.1723
85.8732
86.7115
86.2713
86.1295
85.9945
86.7458
84.3803
86.5713
86.842
85.6515
86.9955
86.4338
86.2482
86.184
86.3202
85.4999
87.2036
86.5
86.8349
86.1525
85.8508
86.9102
84.8882
86.702
85.1976
85.5351
87.1179
85.6041
85.4179
83.6007
86.1924
86.5827
85.8462
86.9625
86.7798
85.6444
86.7546
86.2619
85.8698
85.4525
86.6881
86.8986
86.0189
86.4006
85.7211
86.6859
86.7255
85.63
86.9222
85.0126
86.2521
86.9272
86.9056
86.6872
86.1772
86.8782
84.4936
86.8548
86.7019
85.698
86.8864
86.0317
86.3643
86.7736
85.9434
85.7856
86.8229
86.8111
86.3739
87.0864
84.4872
86.7736
85.2836
86.1802
86.235
85.7868
86.8186
84.4081
86.7678
84.2588
86.5667
86.3104
86.8231
86.7786
86.1928
86.7703
86.5133
86.8731
86.1675
84.5577
86.5922
85.8446
84.9012
86.3266
87.1252
86.7487
86.4578
84.5162
84.5595
86.8815
86.2302
87.0197
86.4404
86.1909
86.4381
86.6896
86.8991
86.2052
86.5914
86.8514
85.6993
86.1517
86.438
86.3128
86.9112
84.4384
84.5023
85.683
86.8492
85.7661
86.6675
85.9454
86.862
86.7743
85.2703
86.0662
86.1182
86.8239
86.312
86.0548
85.8537
86.7969
86.5777
86.4621
84.5722
84.3333
84.3122
84.9539
)
;

boundaryField
{
    frontAndBack
    {
        type            empty;
    }
    wallOuter
    {
        type            zeroGradient;
    }
    inlet
    {
        type            zeroGradient;
    }
    outlet
    {
        type            fixedValue;
        value           nonuniform 0();
    }
    wallInner
    {
        type            zeroGradient;
    }
    procBoundary2to0
    {
        type            processor;
        value           nonuniform List<scalar> 
42
(
87.0386
87.0386
87.251
87.2084
86.4455
87.0446
87.2525
87.2525
86.1747
86.3301
86.9145
86.9145
86.7035
86.9929
87.0435
86.7522
87.0462
86.6432
86.1194
84.1134
83.7707
86.8433
86.8433
84.5966
83.7707
87.0254
85.7386
86.9675
85.7386
87.1612
87.1183
86.8817
86.8352
86.8546
86.9473
87.2084
87.0462
87.1894
86.1811
87.2248
87.2248
87.0893
)
;
    }
    procBoundary2to1
    {
        type            processor;
        value           uniform 84.5709;
    }
    procBoundary2to3
    {
        type            processor;
        value           nonuniform List<scalar> 
29
(
84.961
84.7863
83.6901
83.8617
85.3475
84.6284
86.7348
84.7234
83.6414
83.6332
84.7455
85.223
85.5205
86.0155
86.5109
86.4233
83.4855
83.4855
84.7863
86.0155
86.333
83.4449
86.6426
83.4144
86.6399
83.5719
83.6414
84.9863
85.223
)
;
    }
}


// ************************************************************************* //
