/*--------------------------------*- C++ -*----------------------------------*\
| =========                 |                                                 |
| \\      /  F ield         | OpenFOAM: The Open Source CFD Toolbox           |
|  \\    /   O peration     | Version:  v1912                                 |
|   \\  /    A nd           | Website:  www.openfoam.com                      |
|    \\/     M anipulation  |                                                 |
\*---------------------------------------------------------------------------*/
FoamFile
{
    version     2.0;
    format      ascii;
    class       volScalarField;
    location    "0.54";
    object      k;
}
// * * * * * * * * * * * * * * * * * * * * * * * * * * * * * * * * * * * * * //

dimensions      [0 2 -2 0 0 0 0];


internalField   nonuniform List<scalar> 
1431
(
2.46819
2.40261
0.260311
0.32143
0.348574
1.80634
0.0804306
6.10038
2.04012
0.069216
2.31575
6.84246
1.48619
0.257154
0.942734
0.0768055
0.762001
0.308703
0.635564
0.402819
3.72705
0.45954
1.92122
8.79583
1.9622
0.545056
1.83022
0.714526
0.755725
0.626704
0.796651
0.946465
0.738252
0.163602
1.94503
0.208051
3.84789
0.143453
0.121258
0.822029
2.4661
3.02311
1.17239
0.0961735
1.56049
0.430402
0.943527
1.65475
0.0825144
0.141496
1.10566
0.111965
1.2616
7.32109
2.43736
0.585424
0.281198
7.75941
0.999366
0.753241
0.781449
0.0553311
0.102431
0.126786
0.0801004
0.0563121
0.612831
0.0757599
0.178482
0.298602
4.18092
0.178246
0.222754
0.134168
0.23655
0.356959
0.349189
0.0895534
0.0709146
0.39667
0.813249
0.230561
5.22397
1.22934
3.55584
0.502818
1.01775
1.17715
4.87916
6.01761
1.03974
0.411036
0.163546
0.0837425
2.59759
0.617332
7.12138
5.18755
0.0927434
0.330227
0.894274
0.082468
0.980854
0.62165
0.117908
1.18188
1.25569
2.16567
1.68016
0.992217
0.691109
1.79078
0.222659
2.18848
2.76824
0.351206
0.217206
0.24351
0.232125
0.106978
0.414066
1.13546
2.71295
0.248331
3.05304
0.0831945
0.27937
0.877915
0.374768
1.66813
0.669556
0.216585
1.54026
0.549665
0.589628
0.114985
0.158689
0.0643968
5.2841
0.143947
0.10911
0.762552
0.893493
0.552753
2.15393
0.719823
0.108399
1.05036
0.0797701
0.524659
0.10638
0.222295
0.876833
0.212082
1.23286
0.175281
4.36311
2.70294
5.86562
0.999419
5.82098
1.77835
0.558843
1.02199
3.14975
2.17843
2.02261
2.96217
0.141912
4.22322
6.33342
1.17574
0.790673
5.51702
2.74069
4.15675
1.4094
1.64711
1.27005
1.85855
0.0608199
0.136097
0.995206
12.4615
1.6418
1.08259
1.5435
3.19081
0.974411
3.98375
0.915569
1.00601
0.990214
2.5907
0.261789
2.98068
4.70442
1.70795
0.16355
1.38204
1.50567
0.685752
2.07459
1.23107
1.40209
0.96388
1.11499
0.147902
6.46195
1.20961
2.08006
0.471594
1.23513
1.18456
5.4662
0.509783
1.04421
1.73383
0.903
1.95379
1.17205
1.05077
1.47312
0.868249
1.30112
8.13256
2.36203
4.74657
1.06209
1.37921
4.99785
0.779748
1.25157
0.933267
0.986796
6.61943
1.21007
1.21813
0.873074
1.18415
1.19987
1.50253
7.175
1.08695
1.01394
1.00756
1.1653
2.02866
1.2414
0.161929
0.677881
4.79499
0.955117
0.458678
0.944518
2.81407
0.913416
9.35606
5.96441
1.03155
0.730138
5.24103
0.941921
1.28377
1.42286
2.41382
2.26279
3.50481
1.61388
0.222783
1.8719
1.15205
2.1376
0.992846
5.40293
0.765012
5.12105
1.57338
0.809901
0.945335
1.41876
3.44485
0.718355
0.77751
1.87103
5.8011
2.83607
5.60677
3.46512
2.05856
0.135671
2.40597
4.38201
0.949643
1.125
1.01613
1.85262
1.23622
0.517398
0.880301
1.23177
0.139379
1.86174
0.788962
1.65488
0.864211
2.32582
1.01562
3.29416
3.65321
3.11342
0.107074
0.0478309
1.33593
2.11979
4.16228
1.725
2.12675
0.149548
12.1726
1.98783
3.59281
0.225537
0.665608
1.80562
0.207146
0.243616
2.39433
8.37369
0.527848
1.10043
0.247901
2.31514
0.629358
1.12342
0.846682
2.54574
6.4904
1.80015
1.25688
0.117909
0.917752
2.52866
2.29851
1.99435
1.13443
1.88193
5.14743
2.60438
0.907806
1.53285
0.323083
0.775203
1.99936
0.55419
0.671763
3.41289
1.70548
4.47986
2.68246
0.590642
0.981424
0.976974
1.59548
0.193534
2.06069
2.11106
13.4378
1.04574
0.808519
2.22509
0.503025
5.43587
1.35636
2.31939
10.67
2.26187
0.665388
0.419393
11.9928
2.05855
1.76142
0.570026
0.630945
14.4483
1.94868
1.556
1.96143
1.66124
1.35032
1.29034
1.59827
1.58178
0.802531
6.18995
0.95154
2.18139
2.30513
2.16114
1.94638
2.16009
2.30471
5.04581
2.77331
0.326386
2.03929
1.78302
0.281056
1.68357
1.9741
2.48216
1.81954
1.92115
0.949026
1.90153
0.226205
1.73329
0.299509
1.90157
1.87248
1.40026
1.44043
0.828678
1.83695
1.82953
0.625356
0.322517
0.810336
0.307808
7.35582
2.94057
3.37667
3.46142
3.72877
3.43478
3.06234
2.95102
2.96633
2.66892
2.8078
0.608563
4.88963
0.464424
0.251629
0.177352
0.145174
0.125858
0.137268
1.1916
0.674755
0.684799
0.122976
0.0742788
0.447801
0.0773662
0.0759376
0.810715
8.16165
0.46327
0.668312
0.709115
0.128415
7.71289
0.0707547
0.749879
0.121861
0.535914
7.40288
0.120311
7.05158
0.0839572
0.0942645
0.494655
1.10463
5.23721
4.74419
0.120547
0.167323
0.137239
0.0954549
0.940304
0.124611
5.24011
0.168304
0.153413
1.01435
0.353969
0.139262
0.483635
0.183748
5.38645
0.130332
0.408446
0.191388
0.991169
0.267742
0.332937
5.24037
0.166597
1.14035
0.222363
0.231545
0.718553
0.101958
4.90163
4.71138
0.431985
0.227769
0.219021
0.667925
0.196538
0.844326
0.19363
0.348948
0.129776
0.458969
0.200514
0.205383
0.975923
4.73289
1.49284
0.312552
1.2893
0.724729
0.260773
0.791144
4.36421
0.80915
0.638902
0.278864
1.76337
0.781109
0.540685
1.77939
2.68925
0.284604
0.626562
1.74552
0.269958
0.79542
1.85191
0.289978
2.31067
0.534701
1.6815
0.673246
1.17716
1.54065
2.02311
3.0588
1.56114
0.147132
2.2795
1.82784
0.114051
1.78198
0.808864
0.314221
1.61517
4.83039
3.14559
4.06911
3.75165
0.591031
7.61585
0.427602
0.711967
0.946677
0.590579
2.73867
1.59721
2.42292
2.41855
0.378443
0.258412
1.65429
0.70505
1.87633
2.00461
3.24034
1.63645
1.93859
1.66637
1.81458
1.94814
1.13207
1.00444
0.709205
0.302831
1.00146
1.1849
2.23998
1.05419
1.15804
1.33729
2.32059
0.681266
1.60907
3.86347
5.92572
1.5801
0.485427
1.99885
0.621373
1.87112
1.66056
1.4785
2.23667
0.393553
0.216021
0.756708
0.450987
1.54909
1.85208
1.93066
2.461
3.51644
1.05498
0.498404
1.83624
3.16792
1.73548
0.224112
1.7648
0.58581
1.5348
2.54584
0.535351
2.16426
0.88347
0.846161
0.992301
0.0638843
2.20937
1.57129
1.81635
6.18455
1.41493
1.95717
1.34005
2.17694
4.41843
0.950352
1.96403
2.00455
0.540401
1.71503
1.71512
3.51454
1.81035
0.532492
3.35454
1.67682
1.97357
0.342349
1.6792
1.96214
1.61858
0.299501
5.82146
6.21991
2.43864
0.877975
0.91641
0.506079
0.952648
0.554996
0.239907
1.14606
0.381741
1.77526
3.37618
2.36875
2.63637
0.517569
0.74888
2.42949
0.716292
1.55343
1.34531
1.61776
0.626392
1.69699
2.38747
0.108955
0.507814
1.21253
1.87378
0.57639
1.43907
2.49992
1.07171
2.2171
1.2975
1.04569
3.44814
2.56657
1.59138
0.939155
2.94041
2.05379
1.73987
1.69328
1.16682
1.84577
2.55939
1.51623
2.30497
1.38994
2.06242
2.02314
0.550027
1.37656
1.22839
0.202829
2.22566
0.720469
1.78798
0.785086
2.02514
2.39848
0.973762
4.6974
1.32646
0.230425
3.10065
2.00199
1.11316
2.15536
2.89556
0.159993
4.84611
1.09702
1.01696
2.58413
1.05383
2.15414
2.845
2.41913
0.815457
0.63141
2.02227
1.15455
1.6654
2.2537
1.56663
1.19916
0.604861
1.84357
0.0731519
0.312743
1.10452
2.28378
0.0795562
10.1788
1.76341
2.36397
0.197136
1.80105
0.327185
10.7397
2.25295
1.21517
0.0727711
0.38545
1.28297
0.0791619
0.0787294
2.03693
0.916377
0.798081
1.21746
1.64218
2.12863
2.21799
1.16212
0.850392
0.499443
2.39844
0.85308
1.6744
0.15477
1.29719
0.117498
1.6229
3.96298
1.57681
1.387
0.819072
1.38176
1.39645
0.405985
1.11678
2.46079
1.08486
0.876544
0.656793
1.276
0.681718
1.30312
0.851472
0.871394
0.54693
2.71469
2.16418
10.1024
1.07369
1.93282
0.446087
1.59929
12.2739
1.35574
1.27209
4.9595
3.17301
8.73751
1.22617
0.578568
3.65148
2.01149
0.172852
2.48133
1.20897
2.37443
1.83144
0.638845
2.74385
0.759131
0.520253
0.143407
3.20492
3.07251
2.47801
0.846462
1.54877
7.39587
1.24242
3.80627
1.76264
0.57595
1.36539
0.186379
0.175185
0.999158
1.617
6.53794
0.178705
9.46203
0.588408
5.25844
1.10464
0.784097
0.483945
0.838497
0.552708
0.0866402
1.82958
1.78503
0.404206
0.138137
0.773105
1.62453
1.8186
1.15388
1.65886
2.14914
1.54375
0.104293
5.01272
2.09018
2.39223
9.10081
2.5327
1.38865
1.24059
0.659222
0.0803007
1.76281
2.08565
1.95828
6.75373
0.492055
1.98698
2.28213
9.70427
8.20784
5.71897
0.901657
0.718245
0.723937
0.701983
0.710853
0.998201
0.702755
0.609923
0.623692
0.615099
0.627974
0.778699
1.07693
0.638921
0.669202
0.699945
0.636756
0.687194
0.671761
0.631102
0.657464
0.653685
0.62483
0.651841
1.28557
3.86674
0.135753
0.22816
1.59523
0.400685
0.36828
4.43182
1.00142
0.82211
0.373414
0.931042
0.340545
8.68719
0.822943
0.221232
4.59849
1.64463
1.77185
0.867102
1.12256
9.55565
0.28925
0.64347
1.92655
1.48584
0.30665
0.262245
4.26979
0.60015
1.15045
1.26997
2.29317
0.61442
0.902648
3.24001
0.11781
0.111692
0.541874
0.537917
1.29386
0.783201
0.622342
0.217457
1.3192
0.220521
1.09107
0.550015
0.272216
0.205382
4.59664
1.93823
1.44933
1.6443
0.55093
1.20298
0.898945
0.626198
0.661505
0.669194
1.36218
1.25343
2.50498
0.156909
0.948084
0.452681
1.31925
0.0691545
13.5475
2.08172
1.13978
0.152116
6.52241
2.17774
6.20459
0.0752369
0.135515
0.82498
0.490412
0.26281
1.6509
1.27391
5.70333
6.26795
0.632825
2.13668
0.483944
1.33759
0.60019
1.28592
1.23481
1.03697
1.38629
2.05222
2.46344
1.18002
3.4291
0.636503
0.114127
0.557074
1.71305
1.2365
0.204332
1.83012
1.62445
1.4628
0.323497
1.70119
1.50173
4.30501
5.4368
0.0746438
0.727449
0.629318
1.09717
2.28358
8.45602
0.619104
1.84584
0.759966
5.24007
4.57585
0.73052
0.456384
1.02623
1.81734
3.26731
3.65922
3.26078
1.58119
0.612869
1.82782
0.513386
2.64886
1.219
3.28029
3.81218
6.69816
4.23717
2.51909
0.187105
2.05323
1.18246
0.17672
0.736423
0.852124
0.780808
1.7641
3.54421
1.92942
1.33583
3.28089
5.20076
0.120955
0.447033
1.95252
3.25859
2.11687
3.34291
4.00019
2.08655
3.35114
0.637935
3.3824
3.27042
3.27455
3.1922
3.01555
2.84346
3.38077
2.7
0.182845
0.415928
0.369731
0.236665
0.303173
0.38239
1.3748
1.1569
3.21731
1.23172
2.77181
0.620025
0.611486
2.2714
0.12542
0.0828267
1.3861
0.114059
1.05765
2.40671
0.732707
0.776592
0.365235
3.90894
3.1086
1.16665
2.05086
1.47903
0.664829
1.58726
12.8973
1.08695
0.208944
1.29291
3.83935
0.182866
0.876469
3.83265
0.171935
2.28502
0.421985
0.750443
0.676199
0.610185
1.08807
0.516991
0.378597
0.952449
0.351319
0.313573
4.3435
3.48608
0.20358
0.448554
0.977502
2.4615
0.124297
3.48411
6.21769
2.03089
4.21083
1.1432
0.70418
1.52362
2.87549
0.828995
1.93569
1.40231
2.07771
3.19325
0.617384
1.00359
0.544587
0.104557
3.10692
0.623357
1.44104
2.42382
2.36384
5.1566
5.33707
0.92059
1.51388
0.964325
0.215029
0.174472
0.63262
0.939319
0.544763
6.64627
1.63937
0.179454
2.50148
1.41702
0.431246
2.99639
0.187468
1.43698
3.36085
1.5515
2.03085
0.147325
1.60741
2.10853
3.50176
3.36935
2.54637
0.1037
0.282126
0.810343
5.34774
5.60199
2.40217
2.86542
2.22426
0.479239
8.97591
0.337024
1.44128
0.886466
0.787711
0.311388
3.04012
0.595186
0.91134
1.2729
5.15453
0.265127
2.11332
0.861517
0.56835
0.629162
0.176947
0.802431
4.79542
0.68168
2.74862
3.86211
1.98769
1.57771
1.50275
0.746591
0.426564
0.687399
0.328731
2.05085
3.39356
1.66293
14.8601
1.0584
1.90129
1.64741
3.17885
1.70293
0.0601911
0.542503
0.591298
1.79292
0.339067
2.09555
2.56908
1.94933
0.34743
1.44303
0.388049
0.670112
1.9048
5.39028
2.88866
4.69473
1.97107
0.399534
1.87628
1.78577
1.09957
0.588014
0.158901
0.410751
0.639688
1.61652
4.87213
1.7478
1.71561
0.119918
0.630234
1.11888
1.68575
0.463906
3.4164
2.67521
3.78525
4.35513
0.23231
1.66696
2.06658
1.31099
3.29908
1.32499
0.702938
0.6376
1.12073
0.979004
1.1985
0.983956
1.18139
8.60878
1.04549
0.453609
1.14833
2.15129
2.02301
1.08428
1.15237
0.711607
7.80207
0.330317
0.576133
0.13872
13.3155
1.9024
2.58627
0.116642
0.764189
3.44167
2.13372
5.46995
0.267669
0.469287
1.53787
11.2138
0.464694
5.72876
6.01126
0.201047
1.46196
3.43332
6.44528
3.73239
2.84814
1.70433
0.234856
2.73358
0.875296
0.353779
3.11859
0.924916
3.49543
2.49921
9.12277
0.348758
0.548152
0.56183
3.80729
0.691489
1.14895
0.799532
8.04368
0.0844596
1.48906
0.200854
4.34721
1.45927
1.02196
0.42001
0.518934
0.523079
5.45215
10.1751
0.455236
1.96736
0.442924
0.113301
0.508076
0.882286
0.28793
2.12093
0.501845
0.749725
0.804178
0.9127
5.89486
0.889786
0.600626
1.02868
1.08839
0.554345
0.640538
2.16138
0.396998
0.510923
0.776182
0.874085
1.05392
0.652764
0.453071
5.67888
4.66871
1.48002
0.378692
0.5263
0.536839
0.152546
1.10521
0.111133
0.104569
0.6526
0.69958
0.286262
0.553097
6.11458
0.993598
0.839116
1.77709
1.71874
4.60077
1.79733
0.55648
0.26016
1.23764
1.07415
2.94336
0.144494
0.206617
0.162198
0.218392
0.103112
0.23579
0.168923
0.332042
0.158912
1.63459
3.1676
0.842891
1.48415
0.233482
1.29282
0.414086
0.714486
1.60547
0.325681
0.317489
0.827343
1.70212
0.444707
0.0824312
1.0798
1.38868
0.882323
0.288096
)
;

boundaryField
{
    frontAndBack
    {
        type            empty;
    }
    wallOuter
    {
        type            kqRWallFunction;
        value           nonuniform List<scalar> 
96
(
0.755725
0.626704
0.617332
2.36875
2.42949
2.38747
1.43907
1.2975
1.04569
2.56657
0.939155
2.05379
1.16682
2.55939
2.30497
2.845
2.41913
0.63141
0.850392
1.6229
0.876544
1.83144
0.638845
3.07251
2.47801
0.901657
0.718245
0.723937
0.701983
0.710853
0.998201
0.702755
0.609923
0.623692
0.615099
0.627974
0.778699
1.07693
0.638921
0.669202
0.699945
0.636756
0.687194
0.671761
0.631102
0.657464
0.653685
0.62483
0.651841
0.64347
0.783201
0.622342
0.626198
0.669194
2.50498
0.632825
1.18002
0.727449
0.629318
0.619104
3.26731
0.612869
0.513386
3.28029
3.25859
3.34291
3.35114
0.637935
3.3824
3.27042
3.27455
3.1922
3.01555
2.84346
3.38077
2.7
0.182845
0.415928
0.369731
0.236665
0.303173
0.38239
0.620025
0.732707
0.610185
0.617384
2.54637
0.802431
3.39356
3.4164
0.702938
0.6376
0.464694
2.84814
2.49921
0.56183
)
;
    }
    inlet
    {
        type            fixedValue;
        value           nonuniform 0();
    }
    outlet
    {
        type            zeroGradient;
    }
    wallInner
    {
        type            kqRWallFunction;
        value           nonuniform List<scalar> 
126
(
0.999366
0.753241
0.781449
0.0553311
0.102431
0.126786
0.0801004
0.0563121
0.612831
0.0757599
0.178482
0.298602
4.18092
0.178246
0.222754
0.134168
0.23655
0.356959
0.349189
0.0895534
0.0709146
0.39667
0.813249
0.230561
0.330227
0.351206
0.217206
0.24351
0.232125
0.106978
0.414066
1.13546
2.71295
0.248331
3.05304
0.0831945
0.27937
0.669556
0.216585
0.143947
0.10911
0.893493
0.552753
0.108399
0.524659
0.222295
0.212082
3.14975
0.0608199
1.08259
1.5435
0.261789
2.08006
0.222783
0.809901
0.945335
0.135671
1.85262
1.23622
0.880301
0.139379
0.107074
0.0478309
1.33593
0.207146
0.243616
1.10043
1.25688
0.117909
1.70548
0.981424
0.976974
0.281056
0.299509
0.101958
0.129776
0.278864
1.74552
0.289978
1.54065
0.147132
1.61517
0.258412
1.87633
0.302831
2.23998
1.5801
0.224112
0.0638843
2.00455
1.67682
1.84577
1.51623
0.327185
1.38865
1.76281
0.205382
2.36384
0.348758
0.548152
1.23764
1.07415
0.144494
0.162198
0.218392
0.103112
0.168923
0.158912
1.63459
3.1676
0.842891
1.48415
0.233482
0.414086
0.714486
1.60547
0.325681
0.317489
0.827343
1.70212
0.444707
0.0824312
1.0798
1.38868
0.882323
0.288096
)
;
    }
    procBoundary3to1
    {
        type            processor;
        value           nonuniform List<scalar> 
48
(
3.84161
2.19045
2.50365
3.47018
1.39858
1.95482
2.19045
0.460631
3.63617
0.390178
0.390178
0.467815
0.467815
0.714627
0.823017
0.463618
0.381762
0.473726
0.381762
0.268537
0.548615
0.407497
0.268537
1.08823
0.361216
0.184106
0.331743
0.407497
0.293701
0.419433
0.419433
0.293981
0.293981
3.63617
0.197752
1.26617
1.00395
0.361216
4.0358
1.1772
0.714627
2.11899
2.9986
0.268537
0.806215
0.808971
1.34796
0.656568
)
;
    }
    procBoundary3to2
    {
        type            processor;
        value           nonuniform List<scalar> 
29
(
0.11919
0.11919
0.0600629
0.06213
0.729537
0.0748536
0.190322
0.11284
0.088878
0.0766815
0.0994066
0.769714
0.121391
0.397583
0.406717
0.367554
0.0854648
0.0876581
0.123716
0.404313
0.432507
0.0854648
0.136122
0.0876581
0.341724
0.0680711
0.0876581
0.776968
0.776968
)
;
    }
}


// ************************************************************************* //
