/*--------------------------------*- C++ -*----------------------------------*\
| =========                 |                                                 |
| \\      /  F ield         | OpenFOAM: The Open Source CFD Toolbox           |
|  \\    /   O peration     | Version:  v1912                                 |
|   \\  /    A nd           | Website:  www.openfoam.com                      |
|    \\/     M anipulation  |                                                 |
\*---------------------------------------------------------------------------*/
FoamFile
{
    version     2.0;
    format      ascii;
    class       volScalarField;
    location    "0.54";
    object      p;
}
// * * * * * * * * * * * * * * * * * * * * * * * * * * * * * * * * * * * * * //

dimensions      [0 2 -2 0 0 0 0];


internalField   nonuniform List<scalar> 
1431
(
104.109
97.1649
100.34
96.2272
93.6863
94.0185
97.0802
36.8785
98.8876
96.9939
45.8361
42.2945
100.299
87.2139
94.6596
96.8849
89.0404
102.145
91.305
101.12
41.4782
86.9667
100.155
22.4886
98.9562
100.492
51.5437
96.035
101.498
88.424
91.0142
99.2859
91.4407
87.9226
95.7096
96.2477
101.21
99.7288
97.0005
98.2605
100.903
101.08
100.656
96.7988
90.6253
98.5264
88.4972
55.616
97.1153
99.5263
95.6348
96.8642
96.3345
51.1051
97.75
97.4872
95.443
46.0907
87.1086
97.0117
96.8479
97.099
99.574
99.6132
96.9612
97.2011
97.7143
99.4659
98.9404
89.5571
44.8038
87.6074
97.1978
88.0926
87.4505
98.4154
99.4423
99.3188
96.9574
101.825
88.2916
98.458
94.2799
89.0417
42.477
95.4665
95.7081
94.6876
52.3284
75.6171
96.4972
95.1374
99.8061
96.7705
98.3993
91.5743
42.5419
93.4866
96.8523
97.7217
97.4377
97.0239
87.2531
99.333
99.2852
89.8539
98.8786
54.8748
97.3269
86.4614
98.5573
99.8615
100.862
100.377
97.9569
95.5835
87.3413
96.6758
95.6945
99.5609
91.5923
94.6216
52.406
88.1221
41.7324
96.7452
99.9686
92.2684
100.24
96.7889
89.8814
101.766
96.3974
91.009
101.475
99.5307
99.2267
97.1413
48.9622
100.1
97.1993
90.5836
87.655
100.746
103.828
91.4489
99.5567
97.2106
96.8241
98.1242
99.5679
99.6078
98.4963
95.4003
98.7069
99.5112
49.9172
95.3851
86.3035
95.4795
67.0601
100.356
96.3695
95.5976
53.3918
101.218
99.5203
98.7268
99.5666
96.8124
66.0843
97.2202
95.7623
50.8917
96.976
48.616
96.0682
92.4471
96.2106
95.5934
97.0896
97.0157
95.2501
26.3131
93.5574
97.6402
49.187
96.2585
94.9838
50.5678
91.3723
96.4177
98.2737
57.9036
96.0032
92.7355
91.7983
94.0439
98.6473
100.566
96.1844
96.1964
67.6611
96.0207
99.1213
91.1204
99.125
99.1348
52.0324
99.9193
36.4726
96.537
99.1808
90.0612
44.9123
97.81
98.5819
93.1551
94.9851
72.3728
99.5401
95.4396
95.5322
95.7604
98.725
48.7387
68.7849
95.542
99.2281
70.0684
35.0966
91.1308
91.1133
97.905
99.2829
77.9137
99.3714
92.2612
91.9536
95.8603
95.8067
94.905
51.041
92.8582
95.845
90.8578
93.8782
61.3576
100.285
99.5235
92.1957
50.4341
95.494
96.9815
91.2465
101.225
95.5638
44.2859
85.7529
98.3157
98.9244
51.1055
95.0688
95.8371
99.5292
77.1084
98.3397
59.5453
60.7482
94.7148
98.831
99.2074
97.1283
95.7092
59.6394
95.1067
54.2153
87.4119
91.0111
99.4932
97.077
101.062
91.5392
95.8113
97.0441
92.2354
101.231
90.2354
48.2915
96.4305
98.8308
98.9456
93.9623
97.2625
73.9861
99.4761
48.2608
97.8792
97.6641
90.0035
96.7565
98.6744
96.8746
98.4344
93.239
95.6813
96.2877
97.4598
101.428
97.6205
89.0929
96.4042
97.1757
57.4404
98.2893
92.2384
94.6079
97.4177
97.5669
34.513
95.4609
93.308
98.2882
97.2829
95.3853
100.556
97.9466
98.7526
57.3023
96.6414
87.3751
98.5761
98.8063
87.2599
95.6402
99.0924
99.5965
83.4925
94.9534
55.1528
99.1165
99.6358
82.9964
100.778
97.7625
92.5813
96.6852
52.5333
88.8015
97.3462
94.0075
98.1023
97.3568
93.8654
97.8468
94.8734
39.8468
36.6195
49.4005
101.174
86.723
98.633
87.8068
96.5796
98.211
42.6096
98.6598
12.9655
101.095
88.9807
56.7779
92.973
57.6229
95.1402
101.488
53.1876
94.4383
95.4426
101.708
49.9512
100.389
94.1323
94.6562
98.3219
13.9026
97.5878
95.438
97.5704
94.5916
95.0847
96.0358
95.8302
96.0417
95.8396
80.4168
97.5236
99.0122
99.567
98.3832
95.5322
91.9992
101.338
88.0713
100.851
97.2171
98.3147
94.8027
94.848
96.6836
97.9044
92.3247
95.3299
97.5811
100.651
97.4285
98.1212
93.7954
94.3705
94.2354
97.3531
101.5
100.628
95.4497
93.6616
97.1732
92.9677
100.679
92.1568
100.955
32.9408
101.376
101.598
101.462
101.447
101.064
100.985
101.114
101.015
101.076
100.769
95.9166
46.2746
97.713
97.7464
97.5912
97.2715
97.1283
97.4911
88.5182
86.9925
87.4066
99.5135
97.1258
94.05
97.1502
97.0663
86.7447
53.4938
94.4026
98.8618
86.627
99.4681
52.787
97.0283
97.9159
99.5003
95.4794
51.8515
99.5149
48.1031
96.7966
96.7919
99.1306
87.0069
47.6631
47.4672
99.5057
99.3499
97.0138
96.7871
87.3934
97.0241
46.7513
96.5503
97.1754
87.5491
100.694
97.2211
100.192
98.872
44.886
96.7616
100.512
99.0021
88.893
100.777
100.715
42.6617
96.867
95.4597
100.101
99.9773
97.2676
100.004
42.999
48.5249
98.1289
96.5832
97.0369
93.6806
99.4825
91.6131
100.328
100.814
99.6837
96.9896
100.422
99.0317
91.2163
46.0033
88.9647
96.8237
94.6639
96.0536
99.4832
95.6393
41.5797
97.8634
95.5117
95.1368
96.5002
96.9102
99.8658
93.4879
100.251
101.239
94.9145
95.4184
98.6652
93.1273
98.2493
100.171
100.84
96.7143
95.8165
95.1714
95.2435
83.6355
98.6672
100.229
94.9607
100.037
100.67
96.6252
99.5297
92.4292
95.4949
100.05
89.3888
55.3388
100.538
45.3054
88.7397
97.1417
40.1697
96.6825
94.8467
95.6506
100.419
100.4
97.2702
74.8599
100.858
96.2891
96.4967
93.0577
96.0074
95.4532
100.83
101.645
97.3638
80.3148
90.1987
92.8268
92.1881
99.2578
91.8743
96.3535
96.0065
93.8411
100.692
99.1578
96.0086
95.0493
100.926
99.7844
89.6046
95.2023
95.1209
51.7366
73.9622
98.9823
96.9813
97.11
87.7365
94.5185
21.0621
89.1203
95.415
98.0205
95.807
97.0459
96.5078
100.756
96.4001
98.4804
45.6886
95.5266
101.523
95.3661
97.9349
95.7999
97.0123
96.3431
97.3548
89.4262
99.8531
92.6421
85.3516
95.4339
97.9716
97.3083
96.9643
100.708
97.2588
91.7085
38.3482
96.2815
96.8544
95.7041
98.1202
87.8175
95.5761
96.5167
98.8842
97.568
90.4525
95.153
36.9023
94.8868
100.615
100.52
94.765
90.2054
98.6255
95.5232
99.2775
84.9302
101.566
58.228
73.9736
99.4433
100.095
97.2446
100.264
94.2055
100.991
101.249
96.7688
98.6156
97.1016
98.8545
41.6835
100.698
101.065
90.3379
36.5066
86.8855
91.8835
96.1599
96.4033
95.0361
94.5639
45.3435
99.4465
98.8088
100.633
97.4292
96.6654
100.461
95.0924
100.973
100.411
99.8725
98.5438
101.109
98.7205
89.6677
97.9174
83.3072
100.882
93.5776
97.5814
99.2103
99.8798
29.5054
94.9236
100.146
95.2964
97.0098
96.9055
94.547
90.8485
101.275
100.722
101.939
100.466
96.5798
95.4993
97.6578
101.141
90.7782
49.2494
97.4826
98.3436
99.8928
94.2866
100.804
56.7099
56.0894
99.4682
96.9184
101.866
95.7108
95.6666
101.305
100.32
96.4608
46.8626
95.3948
96.1415
97.3433
95.9226
91.9062
101.601
96.8884
86.5502
97.0164
95.9055
97.0302
98.0172
95.6232
97.975
96.8781
11.4147
94.9769
100.147
97.8018
95.4767
93.9248
37.3774
94.866
102.271
97.1513
94.9515
98.731
96.8131
96.9877
97.2783
95.5748
100.687
90.6764
93.8969
100.058
98.5889
95.3651
96.7539
97.2513
98.8433
98.3239
94.0714
99.0483
97.3233
99.5354
100.887
49.1417
93.5042
95.3371
96.2036
95.15
94.4118
100.595
99.1825
98.9954
97.5596
97.3204
95.321
92.1878
95.6559
98.5264
98.3469
86.6896
95.8497
101.46
101.232
19.1013
97.504
96.7829
96.9226
93.2107
56.2937
96.3095
95.5939
47.8581
100.519
54.2637
100.989
94.4798
101.482
97.8365
98.2873
91.2204
97.3314
100.163
101.072
96.1918
100.5
90.4412
94.938
96.9942
100.928
93.2833
45.4295
97.023
95.0533
52.8564
89.4176
101.283
97.9712
96.0822
97.7993
99.5223
99.2563
97.7404
96.7535
72.054
98.8642
55.6497
97.5195
82.0648
101.23
90.1179
98.3717
95.217
98.3905
99.4462
97.1124
100.127
99.9066
99.3551
95.0001
94.4812
97.856
95.1032
100.601
98.0958
100.709
96.7318
52.3425
97.1885
100.354
54.7092
99.1497
94.4084
86.7443
95.623
97.1629
100.565
97.4511
96.8508
45.5119
95.2579
97.8714
36.9186
60.0851
48.2498
36.0401
63.1233
99.3305
99.1847
99.5291
99.2911
56.6651
99.6102
92.6793
95.7276
94.2983
91.4981
68.8298
49.4165
90.9852
78.4764
73.6791
91.3736
99.6296
99.2663
92.0069
98.8178
98.4981
92.1057
98.3151
100.649
81.2743
99.4828
101.278
96.4246
87.3488
88.2009
38.3836
100.752
86.6389
86.7498
96.861
95.9391
52.8338
89.5314
100.484
81.7065
93.6853
100.771
87.9281
95.8063
54.3459
94.5539
98.3088
95.3285
94.8962
95.4125
97.3715
49.6684
98.1884
86.8264
100.753
100.286
97.1472
97.6095
58.4422
99.496
96.8554
97.0392
96.1614
97.2687
101.778
89.6478
101.003
95.7779
98.4657
87.1187
94.4209
98.2556
97.273
49.6597
99.3924
96.0212
96.1939
99.1489
86.9845
95.4543
97.635
92.0175
95.9741
96.4567
91.097
42.684
98.1945
87.6646
101.503
101.382
97.1164
32.3512
97.5419
97.1722
97.2124
39.401
98.2774
88.4105
96.9192
96.5398
95.3527
91.8658
100.571
96.8849
91.1961
60.1655
39.9534
98.1847
97.7763
96.5178
92.7524
88.3706
101.27
91.2895
93.2262
101.304
93.9388
101.709
39.5645
101.634
95.2411
99.5185
89.8798
100.383
91.3124
97.7236
95.9791
95.3442
95.1685
98.8788
95.4109
94.9487
30.2072
19.9842
97.1501
100.675
86.3732
95.6086
98.8072
49.3657
90.0635
96.5193
91.4289
75.2707
48.2997
95.419
87.9419
99.1292
95.5023
89.2143
50.5517
100.806
94.7288
95.8718
54.8408
95.9043
99.062
95.4067
8.88087
101.77
39.5596
60.2542
99.0762
100.867
96.6424
95.6782
99.9927
95.8532
95.3764
95.9419
95.9197
101.344
96.0176
101.732
100.455
68.5733
99.4059
99.4311
100.561
54.5508
97.6158
53.3808
101.907
100.063
55.9478
96.763
73.8201
68.8456
64.0362
51.659
51.7493
51.0267
59.4221
52.1671
97.1175
96.1868
96.2476
96.8762
96.7016
96.6695
98.1841
88.7152
100.66
93.1957
99.4903
90.0621
96.3211
101.835
99.5414
97.1469
96.8249
96.8582
98.7822
99.1361
96.119
97.1454
93.163
99.4819
101.761
100.955
96.1742
81.8673
95.492
94.5654
50.4734
99.2646
97.3299
95.4658
98.704
99.1249
95.153
37.282
99.0888
98.5742
96.8224
91.8198
95.4709
90.9158
86.5752
94.3343
97.1443
87.9078
101.287
100.404
98.0685
101.274
98.5832
88.9138
96.535
18.0125
99.5663
46.1238
9.48316
97.5215
48.3752
87.4075
95.2182
93.3959
42.3066
95.7242
96.1752
100.839
75.2705
100.256
90.3607
97.768
91.7504
96.757
100.161
97.5541
97.1458
63.1977
38.7875
20.0034
95.0464
93.7527
95.8151
99.6079
95.3204
97.1943
99.3636
87.6378
100.919
47.9581
98.5181
97.1822
42.2743
96.1083
86.8952
100.259
97.375
100.9
84.7965
66.088
96.0394
99.4543
92.2742
99.9749
48.316
100.663
47.9227
96.8602
100.92
89.5815
36.7103
90.7562
102.186
99.7308
98.8026
96.8618
54.5065
92.9809
92.9299
88.2097
88.2244
101.629
100.101
96.3387
90.835
95.8065
54.3513
87.5181
99.6694
100.837
87.8431
96.2742
97.3457
96.355
96.8238
90.6814
99.8733
47.1696
96.5192
99.8072
95.8003
94.0445
97.0156
89.0457
101.443
96.517
84.3658
94.9626
33.0837
98.3818
98.0245
94.3068
63.8738
94.1633
97.1632
95.5623
100.688
98.8421
97.0253
98.8003
102.991
101.508
88.6441
95.5304
87.6308
95.8556
95.0563
55.1703
100.066
58.0998
97.874
97.6028
95.2926
96.2348
87.5464
95.1854
100.522
87.2062
96.0494
94.6968
36.5431
94.8928
95.1971
99.4645
98.4425
90.9333
94.6284
97.4517
79.1308
99.4173
101.581
49.9986
88.2102
95.7519
96.8186
97.1985
94.3287
100.989
99.9598
83.034
91.2987
93.2619
89.4991
90.7053
99.133
50.7842
97.2994
100.333
87.1217
98.4942
57.5427
91.4143
98.3249
93.0477
54.8335
100.735
99.2501
99.4479
43.0366
95.3623
99.4927
99.4956
97.2276
43.1002
98.5859
50.8217
95.3363
95.1635
97.1249
57.3224
96.0273
36.2311
81.1573
98.5808
101.137
91.7997
47.3951
101.183
18.9445
97.5155
98.4768
99.6089
99.452
93.0407
67.5633
95.6738
99.901
44.0803
59.0868
101.435
90.2093
95.8397
51.1579
95.3206
88.0448
95.8436
55.7199
97.1812
96.6
100.242
98.5115
88.1822
98.3474
92.1614
96.7269
95.3273
61.2153
56.7272
95.2108
94.8293
92.1521
99.5059
97.596
98.7364
87.0218
97.5575
96.8132
93.0966
92.0002
99.2107
70.0406
99.04
96.3416
99.9435
77.9857
96.5532
95.2546
98.0723
87.9952
95.7177
91.0202
92.8339
99.2253
96.0779
96.6034
64.9685
50.9236
90.4273
97.4828
95.9609
99.6866
99.4162
100.642
99.4646
99.4734
97.8597
97.3042
93.9424
96.5209
61.0293
100.402
83.1986
98.9122
88.9843
47.7295
95.5187
96.5378
87.8668
92.9354
97.8653
36.8259
100.313
100.683
100.65
98.1695
97.309
97.3694
95.9541
95.2944
95.3755
29.3294
56.6799
88.9209
110.839
88.076
90.1773
90.4229
99.3034
109.845
95.6591
98.6916
103.449
110.032
98.9156
99.4676
89.0471
97.0575
96.6626
94.0208
)
;

boundaryField
{
    frontAndBack
    {
        type            empty;
    }
    wallOuter
    {
        type            zeroGradient;
    }
    inlet
    {
        type            zeroGradient;
    }
    outlet
    {
        type            fixedValue;
        value           uniform 0;
    }
    wallInner
    {
        type            zeroGradient;
    }
    procBoundary3to1
    {
        type            processor;
        value           nonuniform List<scalar> 
48
(
101.534
100.645
100.905
100.981
101.138
98.5233
100.645
101.731
101.633
94.6771
94.6771
94.9403
94.9403
98.7953
97.6194
97.0289
100.478
98.4453
100.478
100.744
100.175
100.617
100.744
98.9729
96.1563
100.517
100.979
100.617
101.158
100.662
100.662
101.497
101.497
101.633
100.623
101.301
101.805
96.1563
101.741
101.024
98.7953
101.782
101.657
100.744
96.6628
101.296
100.754
99.6406
)
;
    }
    procBoundary3to2
    {
        type            processor;
        value           nonuniform List<scalar> 
29
(
99.4779
99.4779
97.2056
97.2985
97.9749
99.6043
97.699
99.5605
97.2377
97.2405
99.5193
97.058
99.5496
97.3848
97.2266
97.3889
97.1459
97.1724
99.5369
97.1874
97.133
97.1459
97.2587
97.1724
97.2977
97.1245
97.1724
96.4475
96.4475
)
;
    }
}


// ************************************************************************* //
