/*--------------------------------*- C++ -*----------------------------------*\
| =========                 |                                                 |
| \\      /  F ield         | OpenFOAM: The Open Source CFD Toolbox           |
|  \\    /   O peration     | Version:  v1912                                 |
|   \\  /    A nd           | Website:  www.openfoam.com                      |
|    \\/     M anipulation  |                                                 |
\*---------------------------------------------------------------------------*/
FoamFile
{
    version     2.0;
    format      ascii;
    class       volScalarField;
    location    "0.36";
    object      epsilon;
}
// * * * * * * * * * * * * * * * * * * * * * * * * * * * * * * * * * * * * * //

dimensions      [0 2 -3 0 0 0 0];


internalField   nonuniform List<scalar> 
1431
(
2.97766
4.17698
105.111
78.9218
2.85087
44.1192
28.8
4.40446
24.6945
16.5345
3.55355
25.5358
8.19529
57.4964
39.3502
20.1456
57.4217
3.07814
31.0556
3.39265
1.39824
11.3528
50.14
63.4459
53.2886
3.411
62.9473
52.179
21.6164
14.2124
44.0737
12.1915
32.2439
21.8785
40.4512
53.2998
3.53842
10.1145
27.8495
9.67958
137.035
3.96474
24.1121
32.1079
36.2047
1.44818
43.5919
4.86602
16.5039
16.1086
5.28406
17.2384
33.9007
28.6702
27.5253
4.74871
35.4975
46.0145
55.2026
1.30025
53.1427
2.52292
60.1368
9.86235
34.8999
4.23226
89.1517
59.3377
5.44636
12.5512
15.0087
43.6315
2.98284
34.5943
14.8906
30.181
1.96716
64.3055
5.78466
96.3799
8.14261
6.31493
4.62961
67.449
123.389
2.85599
2.49546
21.5141
70.3917
3.01108
1.72914
32.4362
2.28061
10.0234
6.67164
1.81861
18.6913
8.61795
1.13734
27.6153
5.56293
5.51065
1.83166
3.65312
25.0479
7.56541
6.63341
149.617
57.4139
2.12384
118.922
4.31631
5.46034
2.11299
21.5254
3.66175
2.87083
13.7941
78.9159
29.6677
8.83547
44.8916
32.6019
49.4093
9.35081
11.7054
89.8152
12.8291
2.00737
26.5572
2.91005
121.177
47.2637
1.75844
2.56474
50.4536
2.66975
6.72581
1.49872
132.62
10.0319
0.627733
9.86532
16.8225
18.8841
16.2926
8.74266
149.532
2.7508
13.2774
28.4122
38.1499
5.52163
7.53474
3.02956
16.115
9.02049
1.67243
5.05858
7.94475
3.47417
2.84856
1.79644
16.1761
3.02239
181.378
2.2026
9.50211
7.45519
2.34072
31.1605
19.0813
43.7617
17.5072
9.36416
2.16689
10.2188
25.0737
16.2723
5.79792
10.7583
37.8062
5.06096
2.67668
14.1984
15.3549
6.31857
53.0243
3.54952
10.1253
12.0909
94.7816
1.5408
7.38847
28.1612
8.01812
6.32069
7.34062
3.90939
3.20187
4.67673
72.4232
11.2128
154.066
6.97466
83.8534
2.73322
10.0513
4.32568
22.6986
7.99356
5.37499
68.8163
9.72306
40.391
51.1643
4.72669
12.1281
14.3541
10.0115
9.23966
78.6929
21.6216
165.781
11.0838
28.5108
23.8108
2.16264
18.1695
44.1701
3.46608
37.6776
11.0627
4.52958
4.39832
4.82873
10.0676
2.15264
8.22024
5.61354
10.4081
9.37343
14.5583
85.9303
14.1236
12.4415
10.3873
29.9344
21.5578
25.4714
8.53339
17.9327
12.4849
21.3747
55.5351
35.2407
6.95767
5.54568
30.0005
33.0419
37.071
13.8664
1.71515
11.8309
4.50091
17.7278
28.1507
7.53017
17.4264
11.9486
6.91294
20.6533
8.49951
8.49488
39.2787
8.57169
1.57298
18.7244
10.3609
25.7691
36.9555
5.85735
4.50841
1.54949
31.0177
51.1702
3.30174
4.30498
21.7551
9.26561
17.8654
11.3025
4.4393
13.4159
9.8347
5.52324
1.49006
7.55468
5.22402
6.87343
11.1513
23.9461
7.27914
6.00477
1.68077
5.22622
8.63456
33.9102
31.4944
4.28147
10.0034
13.13
52.9321
0.528956
8.6154
5.03539
18.4184
6.60529
4.41297
3.8727
5.6654
3.68718
14.4908
6.26671
9.78043
4.34558
7.41315
4.5488
70.6482
9.36565
12.1848
10.6754
6.67453
13.8393
8.87634
11.0948
6.14545
4.37133
5.13458
12.3137
3.65852
7.61316
5.15662
18.1908
53.9079
4.14437
11.4008
17.4613
0.417795
1.1993
11.6466
10.4712
18.4553
5.97708
9.39764
9.64568
12.0313
5.31471
3.68199
17.4419
5.71431
10.0883
7.3096
0.525226
0.316033
16.023
7.98492
15.8745
22.0575
29.0228
4.34649
6.17874
3.69343
12.3125
14.312
66.83
8.45056
11.5082
13.9065
3.45194
10.1377
14.1607
0.298272
14.7226
11.7998
8.0969
18.3802
6.93256
4.66514
0.499842
18.1434
64.7424
19.3566
13.9165
3.98488
5.1057
5.17277
10.7447
12.9956
9.151
15.2256
5.90535
10.262
5.96243
8.73021
12.3027
6.96196
7.65148
2.9524
17.6095
41.4609
13.6669
11.9633
62.3967
17.7797
46.1928
4.46505
15.202
11.408
5.20037
6.43102
11.6628
13.6128
5.82098
16.1068
5.06601
4.90035
5.88784
46.868
4.1119
56.6736
7.11192
5.61066
8.62266
6.09887
4.61762
11.2584
6.46777
5.40083
28.0265
24.8
52.7222
7.76308
6.84318
3.86073
11.9606
10.8532
5.10388
26.1414
8.42049
9.35137
11.6342
10.8884
11.1976
11.8217
8.828
8.30628
10.4016
8.91391
6.38536
56.5573
31.1161
32.3998
35.5267
6.71888
6.97509
1.57513
79.7685
31.7003
9.6538
73.9626
4.92772
5.68383
49.5681
37.6398
9.25942
65.4836
68.7744
103.01
34.9969
16.3673
5.67279
52.5442
4.78691
9.62807
24.3046
36.1958
15.8436
10.3505
13.68
6.51174
32.5142
11.2409
76.2018
33.9299
6.16981
107.001
6.7908
11.3742
5.77579
37.247
142.124
4.56742
4.16083
3.85522
8.73845
9.14046
15.9341
16.0669
35.1447
25.9947
6.30593
6.25291
17.1757
11.359
13.9945
91.9329
122.404
16.5749
7.5053
11.1763
5.21285
8.31982
2.85726
6.87067
11.3812
3.27111
10.4644
5.75024
5.72116
9.93409
6.3575
4.9557
6.91784
11.8064
11.6397
3.92766
4.87533
12.1743
49.088
3.90468
69.3101
4.33229
15.9172
5.96812
16.5089
5.01213
5.34632
13.6465
11.3115
5.11961
1.91382
30.7912
11.2143
7.49116
6.44368
5.8295
8.49613
31.5575
4.39903
11.1241
4.74494
13.1327
81.5358
40.819
8.34611
12.9399
4.88341
50.981
3.85689
15.1946
11.2372
56.9731
13.4424
79.925
1.52168
11.5035
13.5032
4.32351
19.204
6.35944
5.63393
5.26585
5.10028
9.45622
4.44157
3.32242
11.4504
5.69494
17.7536
26.2724
40.6357
13.7263
10.1861
8.98481
4.3954
0.459571
8.13621
5.03143
4.37926
3.7578
3.05316
9.19915
4.25776
3.87865
14.2755
2.88186
11.2917
11.4161
90.8633
59.435
11.701
6.28676
6.16546
75.9402
5.05182
69.9387
12.3161
4.39948
14.2664
7.83158
7.68249
2.56975
8.88839
9.89001
9.03403
8.1626
0.533201
12.3592
5.92119
9.74314
2.83971
2.25932
6.36246
5.98548
12.5029
8.94325
4.71019
25.6129
2.56026
3.89129
11.2035
6.83196
11.8133
10.826
3.85428
3.79616
24.5991
12.3476
2.94899
14.5061
6.46984
8.1387
31.3647
19.6658
12.5474
7.24193
11.8091
9.77733
13.2695
5.29367
0.412921
2.02152
1.85345
8.70042
3.12277
13.6887
18.4936
13.8305
34.7217
0.599124
7.65265
2.25446
9.17877
10.4302
10.6192
41.1777
32.7237
8.58819
22.2381
39.9828
2.15674
15.0715
10.085
14.5368
5.80784
12.7043
4.14597
18.5822
5.49285
58.0618
6.67601
3.59861
2.41801
12.6089
8.35226
0.459186
17.8871
8.11339
4.95741
3.58398
10.2932
4.13
7.97686
2.15235
31.0054
28.8563
11.215
13.9413
154.666
12.9651
0.459209
7.57297
17.1631
5.40778
25.1289
3.68438
22.1467
5.25387
1.6324
23.881
9.6549
5.31689
80.425
14.2772
26.2311
12.4772
8.85565
29.5349
4.70543
4.4298
3.34554
28.3788
28.3597
65.1585
4.20246
1.59476
15.383
11.7698
1.78178
4.82885
12.4229
12.9437
1.73141
40.0496
22.2137
5.30401
19.4742
38.5795
7.54503
14.0004
4.29121
28.9204
31.556
1.68171
2.27009
13.0558
29.1706
18.0317
104.003
62.8033
46.6334
38.5244
39.0419
9.72353
36.5856
7.90779
41.9422
42.5809
29.9998
15.9684
80.4061
0.464404
9.8668
2.99715
37.6966
0.451311
47.7089
10.3464
9.42992
8.13903
3.78167
33.2805
16.38
8.62764
160.426
0.418968
8.94307
3.86123
122.603
1.54441
4.27525
79.8156
38.6158
13.9622
10.3442
0.529155
10.7364
77.0984
5.83934
13.471
7.24028
5.70375
8.82415
0.360346
7.57087
45.667
4.27676
36.7212
2.14232
8.56841
6.06939
25.6651
0.60317
91.962
31.1466
37.0597
40.4129
46.5862
35.0701
27.8137
31.8731
35.3317
2.9319
7.47509
17.2555
4.10933
6.56316
10.1116
0.519391
22.2137
0.407941
12.4242
0.304491
10.56
27.8153
12.1367
29.8292
12.6265
13.5205
4.33964
7.67287
8.51172
34.6981
88.0259
6.42871
7.27718
4.65916
5.08964
6.18037
3.17571
4.08804
5.15362
4.36795
42.8266
1.54964
13.5629
31.1767
11.0482
12.1175
5.66468
1.56148
12.2516
6.09822
7.59645
2.46447
5.17033
4.85735
0.394962
14.6646
10.5118
41.4786
1.95642
4.25592
0.924967
7.15958
34.7144
29.004
15.1551
6.78656
0.537667
9.72494
3.39809
4.7397
10.3988
2.92229
1.67651
62.0908
48.6785
10.7203
20.2456
88.7067
36.8444
7.9431
2.76043
65.4195
0.496621
8.13492
13.5586
12.3737
8.73672
6.81967
7.68316
8.16194
59.4256
50.601
25.531
2.51236
1.37144
19.754
2.08409
5.5508
60.3956
6.78331
5.68111
12.2762
14.4353
13.0353
16.2204
12.168
13.4429
5.56424
1.95444
6.01189
5.0773
41.8458
10.4175
34.6028
18.6495
34.7489
5.18834
4.24806
2.89578
4.36444
5.59068
5.05779
3.67131
6.08081
6.72149
2.85315
0.294073
12.3074
6.90516
7.40098
2.75983
2.19773
116.591
1.96328
5.90694
7.6638
15.5113
4.60321
27.0282
10.97
110.274
12.0679
7.70297
4.09946
12.4524
3.44975
23.4005
9.90854
10.619
6.37089
3.45162
6.86629
7.40974
80.6959
4.13436
32.1547
10.2478
4.95926
4.47217
32.245
10.506
5.63655
6.35194
7.27408
7.39878
6.64921
4.08224
18.6845
12.4782
63.4834
17.9509
53.7112
1.60303
71.0015
5.48895
39.6638
4.06644
6.98586
12.4407
4.03896
11.6781
11.3286
11.0292
43.5313
147.872
2.22239
25.2747
107.006
23.1192
47.7811
30.8462
4.55116
55.4533
77.9469
13.0682
1.61631
8.52553
11.9897
5.77076
8.53872
53.7336
80.9011
46.8826
12.6953
5.66893
8.41235
6.33915
42.3186
8.43638
37.5319
43.5984
11.6266
6.96052
7.97903
12.2062
144.723
10.123
10.3424
4.30778
101.352
8.71376
9.27506
74.4709
10.7702
12.8434
7.8895
42.0869
3.1928
0.488345
17.0583
12.5606
10.0346
65.6113
8.73678
4.23984
19.1103
11.3216
30.6946
10.3146
29.1825
20.0252
29.869
2.43426
18.0021
12.118
4.76423
12.1013
68.9747
12.9994
42.6794
5.08638
1.58369
13.8588
11.1276
11.4875
8.85227
2.3091
4.5927
30.9667
40.4012
6.5396
14.8018
1.41186
69.1805
14.2003
14.1473
4.42092
27.3125
12.5394
6.78837
6.74861
3.88045
30.6699
52.4681
22.7198
14.5383
4.54147
17.9325
12.5639
4.78387
43.4818
6.24096
8.79642
12.0847
2.1731
68.2279
90.6246
4.24761
17.8256
91.2878
2.60674
14.3853
7.51858
0.561721
11.2364
44.895
13.9933
37.2044
13.3651
56.9956
9.07379
76.2955
3.9364
14.5594
19.9552
7.02499
10.9479
6.37976
15.3593
3.8127
122.549
5.70336
13.8832
8.94248
35.1872
24.0278
14.4996
13.9492
3.22154
9.12065
7.78853
2.73699
5.53883
28.6048
9.03066
0.411562
13.8297
2.7429
16.5534
23.8718
1.54555
4.80974
61.7529
1.53464
65.3242
7.38
61.2688
0.50336
16.2201
14.3899
8.75091
7.12633
49.3423
47.4841
44.0784
8.93208
113.943
3.95615
1.88151
11.2668
12.9776
54.5573
107.028
0.458139
15.2483
5.23665
12.123
29.6536
33.6207
116.009
39.3147
14.3846
4.70956
9.04533
9.08294
8.76758
103.212
52.2963
4.31856
1.73403
4.39976
44.0168
81.942
5.29266
28.371
0.686016
7.02932
71.445
30.6223
3.86598
75.9491
10.8366
71.6572
6.47061
6.84494
11.0045
10.5262
29.5712
55.0803
10.4673
36.6967
46.5673
12.6987
9.66549
9.27747
13.2124
14.2318
51.3467
8.76431
2.94547
8.85961
6.06833
89.3527
6.74151
7.49351
75.1865
8.98964
9.40862
35.1598
1.24987
65.2242
4.46357
3.21323
7.93607
19.904
12.6243
37.1241
117.136
2.51893
107.351
3.88301
10.5317
58.853
2.50595
11.1115
1.51663
5.12657
93.9139
46.4335
57.2135
37.8151
6.964
0.712083
8.54006
33.522
8.89925
2.88452
18.7351
4.63997
4.62412
129.977
10.4028
70.557
30.936
9.50011
3.3246
8.76436
6.03388
72.1725
25.2658
18.4073
12.3958
10.3188
56.3406
8.79009
71.1693
4.53895
17.3599
4.33661
7.64756
3.92626
5.6518
15.4781
3.08082
34.7077
40.6324
5.87703
4.83685
5.76581
14.4868
4.86717
97.2287
9.84505
11.3761
12.712
5.18292
93.7248
49.3487
25.4494
9.97691
3.35892
13.1002
3.7957
38.0261
10.1826
0.513186
10.5265
6.03808
49.2398
6.65014
15.3585
9.54173
9.46881
12.5844
4.84305
20.0376
11.881
20.179
1.55422
4.22886
4.41494
1.23114
5.78354
5.75322
2.63372
12.019
1.42021
4.77353
8.47592
20.4898
7.21553
83.3017
51.5283
13.3618
6.56933
1.53773
7.17319
4.39342
1.57466
12.2532
5.38013
8.40136
83.1962
5.89603
31.3669
3.40795
6.9874
3.11367
13.0966
147.717
4.03136
9.99101
18.4344
5.05875
8.41083
9.76417
8.5377
35.8407
19.9503
3.03199
7.44929
11.2479
3.30176
30.123
3.66547
3.95251
5.47812
10.4739
7.19558
9.35524
64.8929
13.1509
3.68441
4.98191
8.96044
20.1595
37.2477
3.6314
7.3683
16.7796
3.97417
2.35293
13.7775
9.85584
6.65303
19.8538
4.79277
54.1857
11.2518
147.527
6.08126
44.1912
88.8784
12.1016
2.66666
3.44045
19.759
2.855
56.0303
8.26426
10.1544
10.1863
45.2873
8.81747
4.04488
7.0364
3.59395
12.6081
8.26678
55.2559
7.17829
51.7296
41.5552
34.1094
41.5813
4.84008
6.97467
5.22293
8.02182
15.9353
11.879
11.7766
8.05575
22.0221
12.7713
16.2894
17.2678
23.8296
5.03587
48.4318
18.1003
11.1824
66.3043
156.801
43.3812
30.3932
67.4573
)
;

boundaryField
{
    frontAndBack
    {
        type            empty;
    }
    wallOuter
    {
        lowReCorrection 0;
        type            epsilonWallFunction;
        value           nonuniform List<scalar> 
90
(
20.1456
25.1289
23.881
26.2311
29.5349
28.3788
28.3597
40.0496
22.2137
28.9204
31.556
42.5809
29.9998
37.6966
33.2805
79.8156
31.1466
37.0597
40.4129
46.5862
35.0701
27.8137
31.8731
35.3317
34.6981
59.4256
50.601
34.6028
34.7489
4.36444
5.59068
5.05779
3.67131
6.08081
6.72149
7.40098
7.6638
4.60321
27.0282
7.70297
6.86629
7.40974
80.6959
4.13436
7.27408
7.39878
5.48895
39.6638
4.06644
43.5313
53.7336
12.2062
30.6946
42.6794
30.9667
4.42092
3.88045
30.6699
52.4681
17.9325
43.4818
6.24096
4.24761
91.2878
44.895
56.9956
76.2955
3.8127
122.549
5.70336
44.0784
3.95615
107.028
5.23665
116.009
103.212
28.371
30.6223
3.86598
71.6572
35.1598
107.351
3.88301
30.936
5.87703
4.77353
147.717
4.03136
35.8407
20.1595
)
;
    }
    inlet
    {
        type            fixedValue;
        value           uniform 14.855;
    }
    outlet
    {
        type            zeroGradient;
    }
    wallInner
    {
        lowReCorrection 0;
        type            epsilonWallFunction;
        value           nonuniform List<scalar> 
138
(
25.5358
31.0556
32.2439
21.8785
40.4512
3.96474
89.1517
59.3377
15.0087
43.6315
30.181
47.2637
7.53474
3.02956
2.16689
10.2188
3.90939
3.20187
4.67673
72.4232
165.781
35.2407
6.95767
30.0005
33.0419
37.071
28.1507
39.2787
31.0177
33.9102
31.4944
3.65852
4.14437
17.4613
0.417795
1.1993
11.6466
10.4712
18.4553
5.97708
9.39764
9.64568
12.0313
5.31471
3.68199
17.4419
5.71431
10.0883
7.3096
0.525226
0.316033
16.023
7.98492
15.8745
3.45194
10.1377
14.1607
0.298272
14.7226
11.7998
8.0969
18.3802
6.93256
4.66514
0.499842
18.1434
15.2256
13.6669
46.1928
5.61066
52.7222
3.86073
26.1414
31.1161
49.5681
34.9969
52.5442
13.68
6.51174
32.5142
33.9299
107.001
142.124
35.1447
25.9947
122.404
5.96812
1.91382
30.7912
31.5575
15.1946
4.37926
2.25932
3.12277
2.15674
0.459186
17.8871
4.70543
3.34554
12.9437
62.8033
7.90779
2.99715
3.78167
38.6158
0.360346
22.2137
29.8292
12.6265
4.36795
19.754
41.8458
0.294073
12.3074
2.19773
32.245
53.7112
1.60303
25.2747
107.006
12.118
1.41186
69.1805
2.60674
13.9492
7.78853
61.7529
1.53464
9.04533
9.08294
1.24987
11.7766
48.4318
18.1003
11.1824
156.801
43.3812
67.4573
)
;
    }
    procBoundary0to1
    {
        type            processor;
        value           nonuniform List<scalar> 
29
(
28.1405
30.1452
37.5356
37.5356
47.0863
47.0863
119.336
40.8021
90.9909
25.1015
28.8597
57.6269
24.2194
37.3979
60.7697
23.0795
61.0458
70.0537
28.1317
23.6255
10.092
5.85872
62.6408
10.2785
10.3742
70.0537
8.09685
63.981
10.2785
)
;
    }
    procBoundary0to2
    {
        type            processor;
        value           nonuniform List<scalar> 
42
(
12.3368
8.74198
2.6059
3.09914
4.30777
12.3368
2.6059
0.930719
4.56526
3.56159
3.57762
4.39409
3.57762
4.99204
6.07246
12.2119
6.07246
2.38325
4.40335
18.5629
18.5629
2.38325
1.07697
16.5688
16.5688
0.61075
12.0647
0.493
11.0413
7.67916
7.67916
0.491859
0.564025
0.642306
0.666477
2.6059
6.19349
4.41409
11.0413
0.930719
0.557522
0.59485
)
;
    }
}


// ************************************************************************* //
