/*--------------------------------*- C++ -*----------------------------------*\
| =========                 |                                                 |
| \\      /  F ield         | OpenFOAM: The Open Source CFD Toolbox           |
|  \\    /   O peration     | Version:  v1912                                 |
|   \\  /    A nd           | Website:  www.openfoam.com                      |
|    \\/     M anipulation  |                                                 |
\*---------------------------------------------------------------------------*/
FoamFile
{
    version     2.0;
    format      ascii;
    class       volScalarField;
    location    "0.79";
    object      nut;
}
// * * * * * * * * * * * * * * * * * * * * * * * * * * * * * * * * * * * * * //

dimensions      [0 2 -1 0 0 0 0];


internalField   nonuniform List<scalar> 
1466
(
0.000939698
0.00204008
0.00134091
0.00410393
0.00147919
0.00242484
0.00213992
0.00194126
0.000742737
0.00233558
0.00302023
0.00233646
0.000729728
0.00127464
0.00574502
0.00628725
0.00179238
0.00101813
0.0050097
0.00344864
0.00547628
0.00813603
0.00395242
0.00319869
0.000753498
0.0041026
0.00516771
0.00412793
0.000708741
0.00358187
0.00354032
0.0039172
0.00166106
0.0106785
0.00291278
0.00188047
0.0117184
0.00173639
0.00214434
0.000717441
0.00074314
0.00197883
0.0019229
0.000649315
0.000599865
0.00123032
0.0018974
0.000654935
0.00154817
0.000718674
0.00111956
0.00165997
0.00172115
0.000906794
0.000878413
0.00100913
0.00089237
0.00210621
0.000838772
0.00201764
0.00573729
0.0023248
0.00155189
0.00354086
0.00572059
0.00227522
0.0083687
0.00370198
0.0020066
0.000924085
0.00756939
0.00113791
0.000956767
0.000904948
0.00383116
0.00247171
0.00222389
0.00140058
0.00116278
0.00365081
0.00292149
0.00521163
0.00122249
0.00322723
0.00528144
0.00534296
0.00850094
0.00308187
0.00251736
0.00279302
0.00504409
0.00463771
0.00426353
0.00108423
0.00196999
0.00113565
0.00187406
0.00179967
0.000821869
0.00082282
0.00150685
0.000916283
0.000602966
0.00171946
0.00225096
0.00204118
0.00149101
0.000721205
0.00189873
0.000925372
0.00570537
0.00291098
0.00126863
0.0017741
0.00156363
0.00645814
0.00304471
0.00168862
0.00170733
0.00135291
0.00674721
0.00205523
0.00190971
0.000702167
0.000649794
0.00168393
0.00254614
0.00406417
0.0033753
0.00444458
0.00175586
0.00196512
0.00348007
0.00293637
0.00525709
0.00067987
0.000658737
0.00125166
0.00107435
0.000979991
0.000900464
0.0046676
0.00495816
0.00450624
0.00841854
0.00724568
0.0039582
0.00532972
0.00445883
0.0031125
0.00535377
0.00345059
0.0023196
0.00167926
0.00487733
0.0081376
0.00381116
0.00663766
0.00452937
0.00213494
0.00394894
0.0032721
0.00147945
0.00491129
0.00777565
0.00337183
0.00447425
0.00484284
0.00538193
0.0031974
0.00562451
0.00282918
0.000764191
0.00213096
0.00104108
0.000864307
0.00326736
0.00407023
0.00548751
0.00612501
0.000834954
0.00397154
0.00538935
0.000583374
0.00299564
0.00563701
0.00549535
0.00275876
0.00199257
0.00143157
0.0058994
0.0050762
0.00405998
0.00822171
0.00192706
0.0062003
0.000661565
0.00327829
0.00691939
0.00780715
0.00320137
0.00443245
0.0030531
0.00625858
0.00759192
0.00804409
0.00644644
0.00219855
0.0045131
0.00342751
0.00459898
0.00490418
0.00460036
0.00522238
0.00597439
0.00496259
0.00590317
0.00590937
0.00344145
0.00408541
0.00457255
0.00637726
0.00513386
0.00660273
0.00528747
0.0057162
0.00699707
0.00100535
0.00551885
0.00634209
0.00559961
0.00303554
0.00882144
0.0101953
0.00304042
0.00806529
0.00480959
0.00475537
0.00459854
0.00582939
0.00232
0.00351154
0.00292623
0.00764248
0.00395307
0.00301868
0.00384947
0.000892731
0.00389757
0.00267136
0.00598384
0.00621721
0.00205657
0.00341815
0.00305558
0.00560647
0.00331398
0.00104144
0.00136197
0.00196147
0.00125965
0.00321655
0.00280811
0.00615315
0.00354001
0.000518704
0.000942105
0.00475188
0.00535865
0.00120124
0.00168946
0.00144211
0.00108414
0.00429349
0.00509925
0.00683835
0.00608151
0.00424372
0.00549578
0.00429512
0.00601908
0.00666951
0.00507698
0.00306855
0.0095083
0.00114357
0.00469362
0.00479534
0.000853537
0.00169537
0.00168889
0.0007186
0.000780854
0.000725148
0.00331512
0.00103298
0.00160126
0.00132406
0.00442001
0.0060448
0.00129203
0.00670378
0.000478176
0.000853372
0.00619006
0.0101878
0.00472109
0.00134877
0.00284005
0.00902484
0.0021769
0.00555211
0.00401529
0.00455496
0.00423635
0.00347512
0.0098477
0.00275583
0.00114801
0.00586644
0.000954528
0.0015196
0.00152183
0.00577535
0.00685597
0.00150803
0.00125563
0.00274485
0.0054725
0.00519948
0.00390846
0.00159091
0.00177907
0.00294784
0.00552167
0.000841924
0.00568101
0.00481565
0.00597434
0.00209576
0.0030011
0.00232681
0.00169292
0.00358874
0.00348602
0.000432713
0.00290972
0.00284069
0.0020535
0.00505031
0.00170721
0.000896191
0.00359377
0.00760891
0.0107545
0.00746121
0.00297871
0.000639372
0.00101734
0.0028544
0.00987046
0.00666616
0.00506811
0.00836143
0.00112077
0.00947315
0.00207514
0.00198878
0.00120546
0.00325311
0.0028343
0.0081445
0.00143548
0.00276089
0.00173652
0.0127581
0.00389575
0.00143392
0.00132082
0.00360953
0.010276
0.010426
0.010778
0.0112415
0.0116136
0.0110249
0.00172346
0.00170421
0.0013232
0.00111758
0.00606078
0.0126176
0.00864606
0.0122455
0.00708342
0.0029193
0.0011358
0.00147484
0.006385
0.000566319
0.00119227
0.00110746
0.00276597
0.00106317
0.00292961
0.0114712
0.0027076
0.00306194
0.00962016
0.00966716
0.00487774
0.00301846
0.00315975
0.0107946
0.00333374
0.00113682
0.00118461
0.00306196
0.00574282
0.00207373
0.00975754
0.0105343
0.0026627
0.00291498
0.00298298
0.00193056
0.00794861
0.00147017
0.00288897
0.00210228
0.00673013
0.00474732
0.00168959
0.00171033
0.00489658
0.000497287
0.00124349
0.000747437
0.001326
0.00703466
0.001483
0.000821627
0.00663923
0.00135575
0.0056331
0.0017489
0.00127534
0.00526202
0.00148621
0.00541215
0.00548652
0.00121174
0.000749916
0.000864982
0.00978343
0.00081756
0.00147451
0.00158846
0.000772723
0.00587208
0.00146341
0.00603951
0.00131196
0.00214813
0.00535613
0.0013838
0.0112508
0.005535
0.0049739
0.010529
0.00492648
0.00168439
0.00651475
0.00122927
0.00626667
0.00157941
0.00424771
0.00835603
0.0117324
0.00689162
0.00315552
0.00361599
0.00477499
0.0112665
0.00989877
0.00195244
0.00201873
0.00593899
0.00912692
0.00545434
0.0108025
0.00394868
0.00176839
0.0119776
0.00556321
0.0136507
0.0136772
0.0122492
0.00367671
0.00960693
0.011679
0.0114933
0.00240934
0.00771504
0.00121662
0.00964488
0.00335417
0.00619976
0.0018163
0.0141549
0.00579695
0.00904392
0.00727578
0.0016528
0.0139917
0.00908795
0.00867161
0.000852841
0.00129395
0.00187041
0.0122363
0.00602442
0.011181
0.0022554
0.00848311
0.00960025
0.00724948
0.0046425
0.010401
0.01087
0.00158919
0.00170999
0.00939939
0.013226
0.013416
0.00790305
0.00246577
0.0035227
0.00936356
0.0040232
0.00184688
0.00818371
0.00126569
0.00773378
0.0111514
0.00250951
0.011783
0.00180325
0.00929828
0.00655294
0.00836763
0.00297867
0.00856862
0.0128726
0.00169387
0.0143249
0.0143855
0.00929729
0.00196069
0.00148875
0.0106621
0.0110972
0.00596666
0.00278303
0.00114973
0.00766388
0.0126579
0.0111706
0.00362364
0.0117818
0.00710731
0.011152
0.00458989
0.00410336
0.00319875
0.00651923
0.000919712
0.0125907
0.0138437
0.0040607
0.00587045
0.0117256
0.0134916
0.00910516
0.0100286
0.00540248
0.00667202
0.0010158
0.013982
0.00837411
0.00836181
0.00211997
0.00973443
0.0131587
0.00666292
0.00500411
0.00458437
0.00304318
0.00344713
0.00572763
0.00347847
0.00127366
0.00114412
0.00258285
0.00959034
0.0100382
0.00594518
0.0013903
0.00616888
0.0112047
0.0037038
0.00386661
0.0018706
0.00230624
0.00355692
0.0026219
0.00390702
0.00220261
0.00180209
0.00657484
0.00241073
0.00116297
0.00596563
0.00141954
0.00180813
0.0127258
0.00185238
0.0104041
0.0110899
0.0127356
0.00838837
0.00184932
0.00188169
0.00121374
0.012302
0.00123143
0.00641241
0.00627657
0.00478928
0.00414666
0.00961574
0.0033163
0.00322642
0.00665193
0.0109787
0.00125786
0.0102174
0.0107387
0.00307178
0.00227571
0.0119631
0.000965362
0.00397218
0.00146299
0.0118318
0.0109365
0.00393704
0.00166602
0.00556171
0.00091096
0.0111603
0.00316401
0.00135816
0.00132349
0.0112943
0.00393569
0.00292239
0.00486266
0.00403775
0.00217685
0.00134479
0.0050316
0.00623974
0.00110206
0.00578704
0.00120087
0.0068841
0.0024788
0.00132869
0.00161525
0.00415956
0.00175238
0.00300794
0.00956083
0.000628306
0.00822452
0.000709821
0.000464715
0.00440086
0.000489103
0.0111625
0.00156264
0.00146312
0.00250039
0.000681263
0.000468636
0.00271427
0.00845342
0.00070581
0.00860844
0.0101352
0.000718391
0.000469656
0.00543136
0.0108566
0.0100287
0.00491661
0.00266119
0.000482615
0.0104588
0.00498059
0.00714055
0.000816827
0.00339408
0.00977397
0.00425204
0.00184533
0.00994903
0.0109456
0.00403283
0.0022293
0.00809096
0.00936288
0.00306049
0.00172076
0.0106866
0.00405228
0.00873783
0.00779618
0.000450032
0.00841861
0.00266702
0.0094466
0.00125298
0.00824748
0.00714047
0.00111658
0.00676607
0.00105221
0.00888498
0.0122461
0.00530064
0.0115034
0.000863188
0.00218303
0.00275814
0.00074559
0.000510255
0.00647155
0.00278048
0.00409873
0.00468857
0.00370364
0.00106747
0.00347573
0.00641071
0.00557582
0.00434393
0.00124613
0.00391441
0.00508623
0.0024774
0.0070061
0.00443045
0.010732
0.00312923
0.00424294
0.00373916
0.00617159
0.00558513
0.00545869
0.00451364
0.00125627
0.0020981
0.00852736
0.00561605
0.00385375
0.000574492
0.009769
0.00254047
0.0101112
0.00537766
0.00449937
0.0016851
0.0114768
0.00117682
0.00643745
0.0132767
0.0101274
0.00326714
0.00975125
0.0114344
0.0056553
0.00361816
0.00432876
0.00138118
0.00843575
0.00318782
0.00169674
0.00884466
0.00448077
0.00734353
0.0103449
0.00174428
0.00169501
0.00104901
0.000403168
0.00114056
0.00854929
0.00455521
0.00115217
0.0051817
0.00412538
0.00324426
0.00729419
0.00186982
0.00541253
0.0043331
0.00513286
0.00718125
0.00311023
0.0100105
0.00250514
0.00419164
0.00147498
0.00234212
0.00504014
0.00119776
0.00143694
0.00395434
0.00378417
0.00524334
0.00565254
0.0106768
0.00124363
0.00343755
0.00332793
0.000526723
0.00475897
0.00563845
0.00674582
0.0102279
0.010647
0.00127201
0.00984157
0.00191938
0.000757818
0.00975499
0.00283411
0.00450987
0.00797999
0.00274908
0.00384355
0.0134834
0.00828567
0.0053102
0.00308169
0.00271938
0.00372754
0.00401358
0.00968903
0.01137
0.000902998
0.00765401
0.00439635
0.00114188
0.00361256
0.00198048
0.00473173
0.0142613
0.00890922
0.00241538
0.00826992
0.00464127
0.0120516
0.00758362
0.0106914
0.00109262
0.00104182
0.00107942
0.000892414
0.000921899
0.00101057
0.000836148
0.00129839
0.00130727
0.00133313
0.00130383
0.00123324
0.00117047
0.0012079
0.00124769
0.00132341
0.000927098
0.00104581
0.00127596
0.0011876
0.00131616
0.00112599
0.00111943
0.0011276
0.00116255
0.00103926
0.00300685
0.000729427
0.000517696
0.00942469
0.00226355
0.00213568
0.00375616
0.00140339
0.00539611
0.00920333
0.00391739
0.0107503
0.00373266
0.000726218
0.00121278
0.00587035
0.00588399
0.0094169
0.00603341
0.00335714
0.00450837
0.00255191
0.0110613
0.0076339
0.00117146
0.00202551
0.00190416
0.000924519
0.000486898
0.000853808
0.00237811
0.00445401
0.0090152
0.00861435
0.000962429
0.00209156
0.00295834
0.0018876
0.00406812
0.00152659
0.00915878
0.00252576
0.00169535
0.0048185
0.0011279
0.00204864
0.00138239
0.00744259
0.00385334
0.00393607
0.00827156
0.00295274
0.0086905
0.00387486
0.00575696
0.00764852
0.00357081
0.0108169
0.00161993
0.00106099
0.000763205
0.00390453
0.00615351
0.00102684
0.00394072
0.00886787
0.00935755
0.00113177
0.00603605
0.008276
0.0058678
0.00453421
0.00193826
0.00682681
0.00509606
0.00206823
0.00475651
0.000991197
0.0044275
0.00536876
0.0116891
0.00121581
0.00111787
0.0103299
0.00361956
0.00759305
0.00336993
0.00257908
0.00140408
0.00640945
0.00316883
0.00679746
0.00978488
0.00394189
0.00901683
0.00102678
0.00214014
0.00968945
0.00524663
0.0108928
0.00115171
0.00105677
0.00277271
0.00189675
0.00132695
0.00554508
0.000738587
0.00140997
0.00737425
0.00115572
0.000382327
0.00230524
0.000894607
0.00763248
0.00606774
0.00199473
0.00874934
0.000915124
0.00149233
0.010315
0.00330743
0.00742179
0.00121231
0.00107333
0.00432046
0.00337222
0.00115362
0.00238807
0.00627297
0.00654486
0.00279669
0.00237168
0.00719225
0.00484016
0.00447523
0.00742299
0.000802651
0.00621508
0.000832884
0.00192509
0.00154322
0.000746546
0.00170213
0.00265219
0.000605147
0.00240812
0.0100984
0.00183454
0.00297197
0.00356481
0.00453266
0.000935178
0.0016874
0.00519649
0.00766842
0.00547824
0.00145667
0.00177803
0.000926757
0.00071805
0.000755377
0.00290595
0.00783875
0.00103318
0.00161447
0.00227123
0.000248351
0.00643817
0.00891805
0.000557641
0.00236307
0.000582363
0.00128994
0.000945255
0.000566366
0.000588313
0.00205795
0.00436057
0.000726512
0.0011054
0.000466276
0.00050962
0.000490664
0.000466411
0.000997034
0.00101872
0.000542571
0.000602817
0.00062086
0.000603664
0.000917296
0.0114056
0.00730991
0.00500582
0.00618868
0.00522085
0.0100616
0.00477855
0.00117894
0.00103734
0.00900367
0.00275862
0.00172497
0.00151456
0.00604147
0.00351939
0.00980972
0.00943734
0.00048705
0.00717215
0.0024763
0.00401391
0.000659844
0.00294036
0.00275645
0.0064371
0.00176889
0.00538971
0.00677152
0.0033499
0.000879184
0.001033
0.000876185
0.00192194
0.00551952
0.0031476
0.00432295
0.00268835
0.00307482
0.00476965
0.00113138
0.0119725
0.00684269
0.00399177
0.00541943
0.00802247
0.00976683
0.0108606
0.0017348
0.00138731
0.00525373
0.0042586
0.00410188
0.0041246
0.00674806
0.00375947
0.00294597
0.0115503
0.00104623
0.00105305
0.00895751
0.0029549
0.00120281
0.00238174
0.00329296
0.00395921
0.00966334
0.00120613
0.0035674
0.00105348
0.000915186
0.00528728
0.0119983
0.00250233
0.00988662
0.00699247
0.001501
0.00252771
0.00766554
0.0130306
0.0019817
0.00197771
0.00994988
0.0032186
0.00936804
0.008205
0.0107107
0.0120957
0.00159879
0.00452348
0.00436126
0.00382763
0.00246957
0.00933485
0.00440098
0.00736881
0.00423936
0.00575708
0.00181974
0.0103632
0.00693146
0.00224367
0.00326795
0.00310239
0.00127159
0.00291125
0.00484941
0.00356974
0.00308979
0.00378923
0.00263204
0.0025695
0.00631189
0.00943453
0.00095212
0.00199157
0.00391482
0.00199577
0.00335095
0.00442647
0.0021008
0.00226096
0.000910073
0.00395298
0.000903291
0.00291355
0.0105919
0.0107697
0.00147252
0.0029288
0.000884006
0.00907394
0.00247831
0.00146613
0.00663514
0.00317292
0.00976118
0.00931773
0.00401831
0.00365445
0.00155234
0.00292577
0.0039535
0.00768512
0.00178322
0.00136837
0.00660055
0.00128861
0.0104299
0.00313602
0.00223911
0.00302966
0.00638946
0.00573024
0.000909716
0.00902033
0.0018857
0.000858736
0.0100158
0.00644702
0.00337355
0.00293424
0.00194384
0.010614
0.00241489
0.00663539
0.00335113
0.00313952
0.00519966
0.00498116
0.00705666
0.0110268
0.0110525
0.00235175
0.00209814
0.00175223
0.00416848
0.000773117
0.00312118
0.00344675
0.000498335
0.0105733
0.00379357
0.00336324
0.0101816
0.00175444
0.00638536
0.00370226
0.000924727
0.00329975
0.00448704
0.00206132
0.0016997
0.00176286
0.0105096
0.0059268
0.0101235
0.0102995
0.00502671
0.0018913
0.00264789
0.00172919
0.000862732
0.00148408
0.00571178
0.000983171
0.00436057
0.0050174
0.0068967
0.00616307
0.00366812
0.00860531
0.000903602
0.00385534
0.0065427
0.00559791
0.00180549
0.00303803
0.00706836
0.0021011
0.0015271
0.00188281
0.00618971
0.0104408
0.000998023
0.000403936
0.003741
0.00256259
0.00305604
0.0100858
0.00689526
0.000673008
0.00318785
0.000510087
0.000886858
0.0013277
0.00162194
0.00321546
0.00930316
0.000406895
0.0104236
0.0112081
0.00631831
0.001532
0.0010772
0.00772013
0.000969293
0.00387866
0.00242699
0.00390938
0.0076352
0.00131666
0.00355112
0.00327244
0.00316652
0.00204072
0.00298872
0.00114053
0.0055278
0.00306147
0.00682684
0.000938318
0.00359061
0.00309714
0.00378469
0.00310094
0.00327641
0.00897917
0.00276897
0.00322019
0.0026331
0.00313912
0.00836064
0.00271118
0.00151009
0.000245259
0.000389395
0.00283579
0.00493015
0.00291453
0.00595694
0.00464316
0.00113183
0.00208601
0.0101061
0.00622224
0.00465216
0.00362103
0.00229439
0.00581487
0.0112092
0.00167528
0.0026936
0.0046895
0.00249638
0.00617007
0.00266624
0.00289683
0.00558404
0.00338576
0.00503913
0.00475979
0.00310894
0.00520718
0.00447401
0.0027541
0.00308571
0.00143729
0.00521557
0.00342539
0.00523849
0.0041912
0.0035269
0.00315709
0.00677768
0.00410253
0.00622722
0.00322131
0.00895403
0.0107556
0.00184894
0.00106593
0.00688871
0.00256186
0.00162367
0.00155771
0.0030811
0.00326206
0.00408775
0.00487876
0.00312929
0.00328708
0.000741117
0.00374099
0.00404575
0.00309193
0.00514223
0.00171708
0.00214817
0.000920109
0.00168763
0.000882407
0.000564859
0.00162324
0.00223901
0.000673787
0.00052049
0.00124898
0.000760661
0.00143316
0.00186185
0.0011115
0.000749733
0.00169812
0.00238858
0.00151308
0.00135276
0.00098467
0.0017497
0.000728969
0.000837484
0.000962884
0.000663301
0.000855611
0.000630455
0.00226433
0.000563174
0.000526656
0.00182623
0.00076266
0.00131073
0.00118038
0.00233289
)
;

boundaryField
{
    frontAndBack
    {
        type            empty;
    }
    wallOuter
    {
        type            nutkWallFunction;
        Cmu             0.09;
        kappa           0.41;
        E               9.8;
        value           nonuniform List<scalar> 
108
(
0.000120527
0.000133816
0.000113587
5.78499e-05
5.22839e-05
7.59254e-05
8.54884e-05
5.6276e-05
5.92657e-05
8.21555e-05
5.67434e-05
8.50225e-05
8.64847e-05
5.68902e-05
5.84381e-05
5.4413e-05
0.000131553
8.96427e-05
6.17336e-05
6.95432e-05
4.86258e-05
0.000135493
6.38202e-05
9.10565e-05
0.000128798
0.000123168
0.000127318
0.000106422
0.000109726
0.000119744
9.99982e-05
0.00015155
0.000152367
0.000155174
0.000152135
0.000144435
0.000137541
0.000141635
0.000145873
0.000154114
0.000110346
0.000123685
0.000148943
0.000139261
0.000153286
0.000132462
0.000131905
0.00013281
0.000136668
0.000122836
6.26411e-05
8.73968e-05
0.00013765
5.89487e-05
0.000132721
0.000125412
9.1678e-05
0.00013173
0.000124799
4.60321e-05
0.000108956
0.000142009
0.000126555
9.96755e-05
8.97507e-05
7.30776e-05
0.000111294
8.64474e-05
9.07673e-05
0.00012211
2.88627e-05
2.88627e-05
6.74189e-05
7.04128e-05
6.84965e-05
7.11291e-05
0.000130335
5.63928e-05
6.16676e-05
5.93592e-05
5.64144e-05
0.000118248
0.000120672
6.56666e-05
7.28507e-05
7.49873e-05
7.2952e-05
0.00010926
0.000138343
0.000122569
5.8971e-05
7.95179e-05
0.000104809
0.000122174
0.000123742
0.000124499
0.000124459
0.000108878
0.000107673
6.03344e-05
0.000103026
0.000116682
4.87221e-05
6.17122e-05
4.90918e-05
2.84484e-05
4.68892e-05
0.00013311
)
;
    }
    inlet
    {
        type            calculated;
        value           nonuniform 0();
    }
    outlet
    {
        type            calculated;
        value           nonuniform 0();
    }
    wallInner
    {
        type            nutkWallFunction;
        Cmu             0.09;
        kappa           0.41;
        E               9.8;
        value           nonuniform List<scalar> 
126
(
0.000197554
0.000241165
8.73708e-05
8.97912e-05
0.000224035
0.000218316
7.87468e-05
7.33056e-05
0.000142065
0.000215294
7.92532e-05
0.00017837
8.67655e-05
0.000131782
0.00019045
0.000196726
0.000107942
0.00010414
0.00011958
0.000104269
0.00023713
0.000100253
0.000228018
0.000137512
0.000132817
0.000212989
0.000205076
9.83895e-05
9.90787e-05
0.000173913
0.000109059
7.31231e-05
0.000196588
0.000252441
0.000229775
0.000172236
8.69163e-05
0.000215651
0.000107689
0.000202621
0.000180169
8.50236e-05
7.94879e-05
0.00020059
0.000222536
8.24133e-05
8.04822e-05
0.000145161
0.00010773
0.000171064
0.000123102
7.94812e-05
0.000158422
0.000222126
0.000147196
6.30095e-05
0.000112044
0.000193453
0.000167071
0.000127863
8.43677e-05
8.81842e-05
0.000122208
0.000184118
0.000113374
0.000175391
0.000175617
7.72573e-05
0.000141533
0.000166535
0.000166367
0.000170773
6.95174e-05
0.000170271
0.000193812
0.000195763
6.09394e-05
9.05053e-05
9.96839e-05
9.24644e-05
9.95468e-05
9.45905e-05
0.000189667
0.000195726
0.000194021
0.000210643
0.000190864
0.000196717
0.000134977
0.000224098
0.000172798
0.00015363
0.000134253
0.000196469
0.000109576
0.00019364
0.000105305
6.96643e-05
0.000186803
8.26562e-05
6.35669e-05
0.000145885
9.16172e-05
0.000166606
0.000211564
0.000130847
9.00207e-05
0.000194456
0.000266203
0.000174836
0.000157317
0.000116776
0.000200028
8.76813e-05
0.000100181
0.000114401
8.04283e-05
0.000100421
7.70417e-05
0.000252962
6.82293e-05
6.37926e-05
0.000207995
9.1157e-05
0.000152944
0.000138549
)
;
    }
    procBoundary1to0
    {
        type            processor;
        value           nonuniform List<scalar> 
29
(
0.0016268
0.0016268
0.000943479
0.00239227
0.00612898
0.0025214
0.00279442
0.0011127
0.00232219
0.00194465
0.00155092
0.0025214
0.000943479
0.000825354
0.00204953
0.00109368
0.00612898
0.00532044
0.00239227
0.00179128
0.000823878
0.000738695
0.00303497
0.000708207
0.000708207
0.00303497
0.000721504
0.00090886
0.000721504
)
;
    }
    procBoundary1to2
    {
        type            processor;
        value           uniform 0.00174271;
    }
    procBoundary1to3
    {
        type            processor;
        value           nonuniform List<scalar> 
48
(
0.0121852
0.005949
0.00820547
0.00820547
0.00376651
0.00417197
0.00417197
0.0100786
0.0144564
0.00108347
0.00102663
0.00108347
0.00116758
0.0013913
0.0017026
0.00116758
0.00119651
0.00119651
0.00139009
0.00139009
0.00106877
0.00163461
0.00158101
0.001527
0.001527
0.00130544
0.0037078
0.0037078
0.00705163
0.00279084
0.001482
0.00705163
0.0100786
0.0144413
0.00150104
0.00279084
0.0128338
0.00102663
0.0136109
0.00293288
0.00102622
0.0139437
0.0144413
0.00150104
0.0017834
0.00100198
0.00357973
0.00102622
)
;
    }
}


// ************************************************************************* //
