# vtk DataFile Version 2.0
track0
ASCII
DATASET POLYDATA
POINTS 27 double
0 0.210526 1e-06
2.46415e-19 0.631579 1e-06
3.1502e-05 0.631664 1e-06
5.21502e-05 0.631753 1e-06
7.27603e-05 0.631842 1e-06
9.33539e-05 0.631931 1e-06
0.000114355 0.632022 1e-06
0.000186717 0.632372 1e-06
0.000259396 0.632722 1e-06
0.000331986 0.633072 1e-06
0.000404526 0.633421 1e-06
0.000470702 0.633772 1e-06
0.000497959 0.634127 1e-06
0.000525236 0.634482 1e-06
0.000552512 0.634837 1e-06
0.000579787 0.635191 1e-06
0.00057204 0.635553 1e-06
0.000511548 0.635926 1e-06
0.000451044 0.636299 1e-06
0.000390539 0.636672 1e-06
0.000330032 0.637045 1e-06
0.000269518 0.637418 1e-06
0.000215614 0.637714 1e-06
0.000161595 0.638011 1e-06
0.000107538 0.638307 1e-06
5.34027e-05 0.638603 1e-06
0 0.638894 1e-06
LINES 2 29
1 0
26 1 2 3 4 5 6 7 8 9 10 11 12 13 14 15 16 17 18 19 20 21 22 23 24 25 26
POINT_DATA 27
 FIELD attributes 1
p 1 27 float
1.41686e+08
1.39442e+08 1.39442e+08 1.39442e+08 1.39442e+08 1.39441e+08 1.39441e+08 1.39442e+08 1.39443e+08 1.39444e+08 1.39446e+08 1.39449e+08 1.39449e+08 1.3945e+08 1.3945e+08 1.3945e+08 1.3945e+08 1.39439e+08 1.39428e+08 1.39418e+08 1.39407e+08 1.39394e+08 1.39384e+08 1.39375e+08 1.39366e+08 1.39357e+08 1.39347e+08
