/*--------------------------------*- C++ -*----------------------------------*\
| =========                 |                                                 |
| \\      /  F ield         | OpenFOAM: The Open Source CFD Toolbox           |
|  \\    /   O peration     | Version:  v1912                                 |
|   \\  /    A nd           | Website:  www.openfoam.com                      |
|    \\/     M anipulation  |                                                 |
\*---------------------------------------------------------------------------*/
FoamFile
{
    version     2.0;
    format      ascii;
    class       volScalarField;
    location    "0.46";
    object      k;
}
// * * * * * * * * * * * * * * * * * * * * * * * * * * * * * * * * * * * * * //

dimensions      [0 2 -2 0 0 0 0];


internalField   nonuniform List<scalar> 
5794
(
0.144523
0.0715371
0.24103
2.94003
2.75959
0.0940132
0.632289
0.202395
1.54192
0.385191
0.888162
0.187345
0.517312
1.60004
0.131221
0.0652704
5.2588
1.89478
0.148242
0.101815
1.15512
0.0840682
0.851413
0.165084
0.611261
1.4834
4.81336
1.2624
2.09429
0.0635451
0.355025
0.198694
0.763187
0.342047
0.690506
0.927089
0.196576
0.568945
1.14805
1.83477
1.44905
0.210244
0.275135
0.125181
0.241636
1.0734
0.242487
0.326086
0.317471
0.330456
0.0217096
1.39658
0.252479
0.386987
0.0220636
1.03321
0.178266
0.440953
0.218396
2.33756
0.944157
0.0627301
0.312629
0.324164
1.27855
0.0802465
1.51882
0.452807
1.98614
0.09853
2.32511
1.7031
4.89659
0.304781
1.91776
0.726075
0.221215
1.17738
0.0865297
0.0764854
0.108692
0.133749
0.76393
0.886417
0.256787
0.942627
0.614081
1.03525
0.142298
1.21155
2.4421
0.930411
1.64108
2.5034
1.16573
2.39614
1.87122
1.45787
0.870543
1.03316
0.939191
0.12399
0.247254
1.82046
0.765051
3.10413
0.0617532
0.683348
1.56668
0.0807808
0.352704
0.245224
1.00872
0.131255
1.01154
1.93397
0.130986
2.58575
0.86415
0.493086
3.07161
0.0996529
0.284744
0.991155
0.284426
1.38861
1.63393
0.0794599
1.60654
0.691333
0.214265
0.645888
0.579438
1.06264
3.4587
0.137279
1.99386
0.0636636
0.0734133
0.476097
0.272754
1.74801
0.325051
1.82976
0.115647
5.22095
1.38993
0.922166
2.70032
1.01314
0.310822
0.262656
3.23296
0.147045
5.42433
0.600357
0.994953
0.720747
1.32702
0.278528
0.149537
0.329805
0.355212
0.615082
1.14231
1.24651
0.646309
0.281435
0.355318
0.18096
0.073554
0.815602
0.444603
0.38116
0.20306
0.725161
0.0881142
0.339017
0.189111
1.29902
0.168785
0.190064
0.190191
0.924884
0.299061
3.0523
0.137355
0.45335
0.308242
0.100235
0.898224
0.17872
0.735104
0.241551
0.572646
0.149389
0.160078
0.323645
0.275176
0.272933
0.635954
1.22308
0.247535
0.44005
0.296249
1.08142
0.319127
1.15795
4.8831
1.0071
0.102618
0.311067
1.26598
0.422154
0.283045
0.785019
0.858407
0.853623
1.07501
2.11329
0.304503
1.12498
3.72612
1.67781
1.98195
2.31031
0.133315
0.559685
0.894752
0.144684
0.419989
0.812874
0.250782
1.15291
1.05473
3.7656
5.00611
0.854075
0.450927
0.165844
0.105305
2.22511
1.02265
1.00152
0.281273
0.331437
0.400326
2.79304
1.34446
1.02049
0.639557
0.0876455
5.1602
0.0609611
0.211409
4.89158
0.26191
0.433991
0.839551
0.228901
1.48814
1.21491
0.383464
0.0912986
0.261857
0.559881
1.48499
1.66647
0.211087
1.32991
0.424965
0.376837
1.04789
2.02759
0.396689
0.134883
0.417007
0.259594
0.236093
0.53116
0.374873
1.68671
1.49296
0.209562
1.56725
2.3874
1.27541
1.54192
2.81423
3.22102
0.601669
0.756185
0.247474
0.376135
0.202671
1.60516
1.32282
0.247819
1.19406
0.0809477
0.112899
0.796549
0.08111
1.37674
0.0759677
1.5694
0.23121
1.8502
1.29455
0.519348
0.555713
1.11907
1.11801
0.123127
0.29289
0.595632
0.867434
1.52622
1.52615
2.38092
0.39401
0.670739
2.33381
3.04049
0.0515683
0.850027
0.260295
0.143493
0.544626
0.822473
1.20228
0.277411
0.249222
0.615034
0.167032
0.334316
0.333612
0.351441
0.28853
0.335174
0.147411
0.438777
1.42059
0.772084
0.102509
0.174611
1.21883
0.221859
1.441
0.804981
1.39248
1.90555
0.783075
0.177798
0.210294
2.27175
0.395601
1.27139
0.624471
0.155935
1.02925
0.632053
1.77156
0.903296
0.254146
1.77637
1.12645
0.959373
0.184972
0.368402
0.351224
0.072164
1.66654
0.123646
1.28938
1.28914
0.859116
0.258038
0.656449
0.144661
0.331708
0.34164
0.323644
0.858309
0.618223
0.401347
2.81271
1.37242
0.333705
0.727738
0.282226
1.25718
0.0814814
0.486298
0.318187
0.30124
0.181627
0.367597
0.161051
0.825769
0.224448
0.605424
3.46887
0.306641
0.211259
1.08945
0.311796
0.125253
0.0834016
1.86116
1.49188
0.847853
1.22035
0.60676
1.1601
0.399199
0.243128
2.25385
1.08169
1.7432
0.852726
1.38501
0.954741
0.349422
0.609181
0.311518
0.297857
0.137099
0.0673316
0.123463
1.41116
0.224719
1.65687
1.53022
0.41487
0.105691
0.216665
0.762233
0.692733
0.471826
0.368383
0.269964
0.431042
0.187467
0.310537
2.13619
1.08004
0.038612
0.481895
1.49845
0.332456
0.0858518
1.67987
0.0917866
2.06087
0.0870935
1.91644
2.49901
1.51489
3.48041
0.103967
0.0875844
0.364556
0.440512
1.13442
0.690119
2.82628
2.95143
0.991669
0.0988409
0.0268909
5.14256
1.5394
0.958897
0.388417
1.74164
4.56661
1.42057
0.173571
0.0879652
0.478115
0.096341
0.266615
0.854359
0.959516
1.11285
0.309741
0.302967
1.88202
0.103051
0.0968132
2.49674
2.2224
3.16898
0.292507
0.440342
0.082699
0.292321
0.055094
0.980267
4.26563
5.05159
0.266646
0.657006
1.80179
0.0819376
0.128406
0.632656
1.41307
0.0875091
2.36245
0.221269
0.338147
0.0736304
0.0986732
0.953861
1.78049
0.0497404
0.222329
3.46504
0.15129
0.0719773
3.06395
2.7939
0.744972
0.103899
0.136962
1.00949
0.0956973
0.0851604
0.484495
0.084218
2.78234
0.217809
1.48641
0.275716
0.240736
2.30325
0.664496
1.23542
0.10069
1.81906
0.079659
1.62056
0.235791
0.0506565
0.213791
1.85155
0.137407
0.084154
1.86616
0.179975
0.0853741
0.102399
0.0996125
0.297442
0.437216
0.0839668
0.0975213
1.79332
7.04111
0.0536762
1.41804
0.326193
1.56942
0.302693
0.067677
0.698309
0.0495441
0.0788126
1.25334
0.909402
1.38465
1.29965
1.44573
0.28968
3.38113
1.45736
0.244241
1.49766
2.17197
1.06538
2.99964
2.95317
1.74077
0.939302
0.13629
1.87826
0.899103
2.16527
0.086781
0.0893316
0.0680349
2.37087
1.14748
1.12484
0.0986986
0.293834
0.0580016
0.352395
0.144266
1.39825
1.17594
2.48416
0.0977047
0.489605
1.8154
0.324823
0.0253514
0.254562
2.94784
4.36974
1.61617
0.279966
0.161325
0.268789
0.895189
0.586264
0.265613
1.76592
0.0482129
1.21073
1.62793
0.942769
0.05576
0.105413
0.119888
2.08059
2.27145
0.126949
0.167645
0.0939423
0.0344219
0.125262
0.0687489
0.387968
1.26045
0.488711
1.22951
1.44978
0.196816
0.285813
1.12092
0.966407
1.97931
2.6955
1.35228
0.737258
0.162535
0.0725766
0.0499983
0.128944
0.219768
0.171186
0.164649
1.57459
3.88355
1.68621
1.67924
0.113337
0.179573
0.184586
0.088731
0.662769
0.0891278
1.51833
2.90865
2.46733
1.30025
1.19459
0.876564
0.220563
3.24251
0.536902
0.740747
1.26518
2.65044
0.295138
1.59574
0.152103
0.063311
1.22951
0.345737
0.0536628
1.74909
2.05902
2.40642
0.248574
0.244281
0.0609159
1.10031
3.82603
1.14967
1.45335
0.298177
0.920542
1.15779
0.0853544
0.0602499
0.290509
0.296184
0.371108
0.0808317
0.452623
1.77141
2.30572
1.17283
0.596039
0.209199
2.95728
0.515325
3.8444
1.59806
1.70486
1.3783
0.374553
0.267926
4.73829
1.23255
1.54288
1.94266
1.5704
2.33239
0.20615
4.64878
0.129168
0.372379
0.508587
2.91204
0.64186
1.31068
0.931907
2.93075
0.801583
0.34794
0.451971
4.08181
0.732847
0.912757
1.58558
2.18673
0.0560675
0.0448326
0.409929
0.0618879
2.2476
1.24998
2.50962
0.243021
0.283662
0.0612669
0.120067
0.274306
0.0861873
1.10711
2.3024
0.206028
2.67174
1.2159
0.264499
0.306793
5.48115
2.16067
1.48564
2.96801
2.56364
1.33733
1.41494
0.11674
1.73178
0.870224
2.0538
1.73214
0.213534
1.33416
0.0985001
0.101402
0.145781
2.11477
0.0970222
1.32263
4.24104
0.300065
0.114113
0.0879091
2.25171
1.15966
1.31461
2.31607
1.12108
0.0569677
2.2466
2.13163
0.607191
0.228454
1.26856
0.0799017
2.42527
0.101139
1.28786
0.3015
0.947151
0.303676
0.0868217
0.0620228
0.330402
1.29257
1.67488
1.63994
4.1346
1.54071
0.259369
0.126651
0.651197
3.87274
0.451535
0.568282
0.687301
2.55949
0.0917971
0.105042
0.377352
0.88476
3.61685
0.133025
0.386989
0.310106
0.839764
0.213172
0.93306
1.99786
2.0652
0.283375
0.222029
2.65435
0.721061
0.117053
5.39038
0.116369
0.0830688
0.217671
0.0724858
0.987831
0.116845
0.49731
0.126554
0.27091
0.221319
0.316804
5.02858
1.23706
2.60803
0.936115
1.16594
1.62006
1.09746
3.3813
1.36565
0.0876737
0.0819508
0.205244
1.78907
0.109077
1.31295
3.9355
1.73684
1.35711
0.821044
0.231407
2.01576
0.0858977
0.34916
1.30406
0.109454
2.27508
0.2985
0.278175
1.03603
0.399232
0.229357
0.117557
2.03464
0.682178
0.259944
0.0750544
0.239588
0.838413
1.72015
0.0839195
0.299821
0.978062
0.604513
1.40903
2.85932
2.01814
2.28895
2.50107
0.116902
0.0946391
1.44243
0.0870098
0.205064
0.0726514
0.125577
0.732076
0.0573835
0.254771
0.100321
1.93234
1.30914
0.331533
0.273493
0.503218
0.976909
4.20058
0.919157
1.66873
0.234913
0.095345
3.96024
0.362685
0.960374
0.259584
1.29124
0.986395
1.16157
0.0437722
1.55186
1.11743
0.0692343
0.0871322
0.227283
0.0696361
0.0620398
0.737765
1.8952
2.6291
1.65835
0.858018
1.34861
1.42558
0.329376
0.0867474
0.124896
2.09885
0.0781824
5.33392
1.26303
2.05415
0.246887
2.71844
1.28778
0.0830605
0.0958771
5.01538
2.36588
0.305257
0.355395
0.473906
1.53339
0.255319
2.51002
0.0745706
0.189
0.141812
0.0656559
0.0614725
0.154582
0.0588266
0.0835725
0.0739539
0.102286
0.264834
2.10712
0.216473
0.270925
0.0954917
1.20663
0.29975
0.747002
0.26992
0.791004
0.0781104
0.631293
0.199484
0.51989
0.116264
0.491175
1.47931
0.099651
0.304493
0.175873
0.0845387
0.291963
1.3912
0.432178
4.24778
1.85828
0.0953474
0.318714
0.530511
1.54526
0.551835
0.84288
1.2479
2.37852
0.104021
0.115442
0.100178
0.037045
0.422808
0.384954
1.69093
1.63899
1.46546
0.0261295
0.764229
1.44861
1.07317
0.822105
0.964468
0.0609499
0.0924343
0.0877993
0.631286
0.303224
1.81093
0.200516
0.0427396
0.196831
0.205295
0.288062
0.402936
0.100094
0.160216
2.21073
1.09192
0.730497
0.0742456
0.274813
1.21984
0.087671
0.607474
0.202673
0.319748
0.905957
0.0881971
1.45835
0.0592169
0.312213
1.13088
0.103712
2.74434
0.293247
0.0836782
0.15295
1.4475
0.0841175
1.6649
0.232966
0.161709
0.0722844
0.240372
0.108235
0.0850402
0.309462
0.0957492
0.108435
0.290052
0.511582
0.581265
1.59919
0.55711
0.271761
2.45333
1.18767
0.126724
0.0721139
1.65425
0.178152
1.28373
3.07985
0.145982
0.48256
0.0857224
3.81544
0.259353
1.59343
0.291097
2.67447
1.15939
0.0557656
0.658876
0.158401
0.0214168
0.360547
0.519251
0.615226
0.63938
0.075627
0.672848
0.0367054
0.0630858
0.265172
0.0808581
0.139675
1.16541
0.174868
1.14535
0.110817
1.06394
0.253138
0.136733
0.0668677
0.198989
1.90644
0.409167
0.178733
0.567115
0.247239
0.406737
3.86484
1.68292
0.0665103
0.107432
1.22111
0.439737
2.38218
0.23675
2.03666
2.02251
1.45302
0.50331
2.60348
0.268709
0.266733
0.397635
0.143138
0.335275
0.0956611
7.465
0.689919
0.0990131
0.172897
1.66104
1.61905
0.268794
0.0603326
0.134889
0.564967
0.432479
0.092455
2.47099
0.311002
1.45028
0.253151
1.95438
0.140423
0.0620071
0.322688
0.263612
0.129414
0.595066
0.0858982
0.846055
0.0909448
3.43107
0.227463
0.403769
0.191195
0.492678
0.292848
0.39248
0.331791
0.194577
0.165137
0.43925
1.32855
0.29654
0.212497
0.0939286
0.137601
0.593338
1.5587
0.646007
0.218658
0.58166
0.24901
0.308244
0.254857
0.242731
0.469758
0.128796
0.323485
0.569077
0.066626
2.15178
0.0671926
5.0079
0.098036
0.174998
0.302275
0.0830924
0.0663577
1.25456
0.236194
0.232445
0.0570484
0.102416
0.647085
1.94375
1.32364
0.282218
0.0825455
0.167646
0.519286
1.63634
1.16346
0.252863
0.281932
0.046899
2.0666
0.243141
0.34047
1.57305
0.203454
0.278022
0.647789
1.19943
0.0693384
1.06541
2.75451
0.625908
0.400972
1.26323
0.705028
0.0656617
2.33774
5.52696
1.55198
1.20796
0.147086
0.0649027
1.0479
0.304916
0.345444
0.0405252
0.338003
1.35117
0.0912151
0.0870467
0.123983
0.0855117
0.0852398
0.27263
0.231322
1.05029
0.0861622
0.26782
1.33251
3.60745
1.93316
0.297045
0.84974
0.19774
2.38648
0.107521
1.8675
2.54827
1.0422
1.7848
0.292613
2.34087
1.28963
3.96887
0.237081
0.380537
0.255719
2.27107
0.0952486
0.215835
1.09304
0.310591
0.262175
0.969906
0.277239
0.334056
1.37204
0.0938597
0.0477241
0.25781
0.327361
0.0918607
0.22815
1.27526
0.29409
1.49329
1.25704
1.58759
0.0696498
3.34577
0.107973
0.961582
0.594315
0.589013
0.23272
0.0919101
1.47794
0.0733443
0.258775
0.0622378
2.32255
0.158387
0.227574
1.57566
2.59794
0.373074
1.39246
3.19568
0.572674
0.278447
0.0449909
0.963314
0.17021
1.12339
2.69304
0.2278
0.0512913
0.366516
1.35475
0.622899
1.65205
1.19433
1.31686
1.18337
1.91232
0.0588358
0.168917
1.05784
0.281215
2.86211
0.224512
0.0601859
0.13409
0.512075
0.0637208
0.221262
0.290665
0.154869
0.358937
0.128051
0.302295
0.0900594
0.263826
0.339339
0.971231
0.930767
0.0802425
1.60809
1.38269
1.94878
0.435398
0.253837
0.952072
0.202662
0.0535065
0.0470805
0.177217
7.74754
0.323396
1.26773
0.810174
1.76417
1.45015
0.546794
0.256614
0.0229905
0.0491505
0.10922
0.0327469
0.229158
0.237148
0.0540182
0.281266
0.0203613
0.0567231
0.199483
0.113136
0.0655153
0.0536929
0.0256552
0.215381
0.251505
0.0666798
0.09562
0.194097
0.0531755
0.0543306
0.0208542
0.0336775
0.219437
0.139779
0.089921
0.0433122
0.0754535
0.162916
0.19332
0.0542472
0.0281397
0.036997
0.0265636
0.0369048
0.240877
0.0528898
0.0141674
0.101248
0.0460164
0.172238
0.214374
0.213699
0.662686
4.27845
0.0835843
0.109452
1.04262
2.30616
2.0661
0.292698
0.092327
0.380065
0.316053
0.719477
2.3637
6.44873
2.57151
2.45926
0.995007
0.15781
0.150325
0.0585587
0.142109
0.0580696
1.08629
0.113614
0.238501
0.38509
0.147877
0.974549
1.14733
0.272158
0.41747
1.01146
7.14358
0.294336
1.10155
0.326451
0.342529
1.6364
0.407299
1.09241
1.55149
0.87159
1.42399
0.488483
0.823908
0.265377
0.328153
0.36216
8.70914
0.22839
0.193842
0.0681583
1.77147
1.98645
0.0910744
1.59039
1.90047
0.0553666
0.036364
0.231585
0.231125
0.0718023
0.266921
0.0211403
0.0513957
0.102469
0.0231348
0.192643
0.18314
0.0376095
0.241056
0.101284
0.0894909
0.200255
0.0541424
0.0621857
0.0590681
0.0255289
0.274443
0.0441066
1.18927
1.40586
0.207545
0.472608
0.347258
0.362258
1.482
0.0879499
1.39345
2.03489
1.48674
1.09729
1.99879
0.314824
0.0649792
1.98143
0.939944
0.49971
5.03881
2.19961
1.64448
0.0456266
1.9259
0.740777
0.210265
1.98569
0.353046
1.51537
0.147444
0.218812
0.0567449
2.00639
0.16603
1.68656
2.20835
0.103512
3.03778
0.114888
3.06213
0.153624
0.0600473
0.0865204
2.31658
0.0824037
0.104801
0.124674
0.191591
2.92952
0.315642
1.94266
0.368424
0.310696
0.917502
4.36716
0.0567983
0.280273
0.296037
2.58831
1.09035
0.237338
0.0689652
0.556098
0.37597
1.91703
0.308097
0.212987
0.0388614
0.23835
0.431255
0.0758452
1.63027
0.60374
0.0156737
0.0763623
3.0551
2.58879
0.323064
1.8678
1.90586
0.032142
1.90769
2.50711
1.62735
1.90989
0.784551
0.179425
2.20268
0.0835119
0.309392
0.423672
1.83069
0.25046
0.316074
0.598583
2.03644
0.698404
0.14193
0.0682303
0.216147
0.749281
1.60249
1.9189
4.33547
1.6947
0.619134
1.12444
0.27752
0.776708
0.748221
0.922269
1.54687
2.1539
1.14394
1.93737
1.00271
3.10433
1.24532
0.347436
1.22701
0.935668
0.480419
0.69672
0.239309
3.21596
0.687676
0.296197
1.47991
0.306407
1.26062
0.37256
1.04966
4.16416
0.317814
1.38824
0.687508
0.0794438
0.103401
0.298449
1.46676
0.150366
0.0660438
0.279213
1.89388
2.1786
3.19406
2.20933
2.32776
3.25153
2.41132
0.141884
2.36051
2.15408
3.18429
1.97797
1.98759
2.10883
2.19755
1.92747
2.11829
0.742289
0.75485
0.197905
3.51087
0.693972
0.191631
0.18057
0.549789
0.0773924
0.130231
0.640639
1.26808
0.250502
0.177109
0.219302
2.39257
1.32138
1.89698
1.01686
0.230049
0.350092
0.139883
0.429105
0.742892
0.386191
1.26668
0.334325
0.33817
0.146447
0.353781
0.0959063
1.51346
0.133525
0.684516
0.155417
0.0534883
0.528507
0.260699
0.153244
0.254282
0.145198
0.142629
1.4092
0.125526
0.865552
0.377012
0.441972
1.18089
3.50953
0.133286
1.54061
0.965061
0.39213
3.53303
0.427442
0.139088
3.39274
1.15596
1.76058
0.123466
0.572393
1.98533
3.5511
1.57516
0.124365
0.126881
0.143238
0.40158
0.455826
5.12405
0.143101
0.675933
0.398636
0.107366
0.387056
0.420475
0.390095
1.24602
1.43306
1.33054
4.90234
2.9154
0.155697
3.05954
0.099715
0.496027
1.3756
0.402046
1.97009
0.486435
4.76865
1.52731
0.506358
0.392181
2.20594
4.61271
0.265414
1.22719
1.69752
0.263795
1.32942
0.610325
0.32707
0.279251
1.98816
0.381401
1.76623
3.51503
3.40665
0.364006
1.14054
0.15359
1.28486
0.663713
0.343396
0.506211
1.97608
0.141151
0.336862
0.0652689
1.32492
0.464822
0.286261
0.553665
0.360168
0.557764
0.219229
0.340775
0.245709
0.368452
0.158609
0.357647
0.225197
0.295453
0.896934
0.721879
0.406177
1.099
0.605804
0.561122
0.11596
0.132632
0.191561
0.357652
0.128348
0.846382
0.0854661
0.24623
0.363457
1.91989
0.275497
0.277917
0.191458
0.89287
0.115142
0.10816
0.318279
0.179764
0.162598
0.167977
0.381168
0.653747
0.293313
3.60432
0.120868
0.292728
0.202113
0.13276
0.708309
0.567086
0.262645
0.188379
0.191582
0.132743
0.197203
0.192255
0.845624
0.647981
0.0479989
0.41412
0.110708
0.140285
0.215685
0.195632
0.485024
0.42542
0.473796
0.590164
0.130103
0.256282
0.043976
0.463709
0.300568
0.331937
0.0630615
0.348694
0.1408
0.123991
0.323853
0.249949
1.95698
0.253908
0.251644
0.307576
0.113112
0.116103
1.33296
1.29157
1.54852
0.285084
0.135235
0.240565
0.845532
0.26227
0.888094
0.0523832
0.462419
0.0891724
3.74333
0.613642
0.163638
1.13591
0.696369
0.470026
0.349483
0.135689
0.0638966
1.42145
1.32435
0.301773
1.01767
0.410955
0.308269
0.127407
0.0739921
1.88257
0.2641
0.24626
1.47149
1.60206
1.0633
0.341019
0.187664
3.69184
0.329687
0.193761
0.640012
0.979897
0.262513
0.411564
1.29446
0.437538
0.651648
0.881948
0.358745
0.335845
0.121172
0.0771558
1.04384
0.211831
0.266274
1.42824
1.51096
0.0545906
3.52925
3.50073
0.309493
0.225781
0.718524
0.200639
0.553504
1.03764
0.550135
0.391387
0.655672
0.638062
0.383868
1.50633
0.452926
1.74036
0.197781
0.731771
1.28166
0.352409
0.316889
0.341756
0.267208
1.07876
0.453374
0.399102
1.08339
0.187918
0.676174
0.405846
0.427112
0.85636
0.395443
0.29831
0.0900286
0.0887619
0.585527
1.92974
0.195586
1.47113
1.36353
1.29733
1.94933
1.24543
0.355654
0.207884
0.341285
0.0526437
3.52353
0.336565
0.7566
2.40859
0.206547
0.315383
4.00351
0.0915894
0.159979
1.01907
1.26086
0.726287
0.895125
1.20779
2.16115
0.550144
1.49572
1.07538
0.397744
0.155943
0.42748
0.306876
0.239897
0.216066
0.0784835
0.102365
0.414331
0.279128
0.0758828
0.0800201
2.20855
2.36226
0.573637
0.0967636
3.78079
3.1337
0.680897
0.154882
1.50134
1.17047
0.357557
0.207827
0.0479277
3.23286
0.349271
0.177851
0.334645
3.4587
2.03891
1.17776
0.511734
3.43788
1.86871
1.00197
0.220963
0.773254
0.54096
0.32526
0.106547
0.118771
0.103742
0.124057
1.14823
1.44921
0.455725
0.182023
0.797344
1.6454
2.29822
2.65859
1.88623
1.26813
0.114003
1.28007
0.111265
0.129175
1.48251
2.86955
3.05302
3.7653
1.30354
0.756673
0.446811
0.270275
0.271351
0.38692
0.104757
0.272715
0.0637167
0.0859579
0.162367
0.134651
0.166688
1.5212
2.66098
0.400378
2.179
0.286983
0.843351
0.150513
0.337798
0.940755
0.137078
0.822572
0.134286
0.340848
0.225313
2.83751
0.594387
0.316154
0.0866513
1.4992
0.210891
0.0838643
0.338474
1.59232
1.67553
1.13793
0.374883
1.34703
1.33086
0.338354
0.293879
0.0603307
0.0463488
0.439537
0.366016
2.10144
0.480099
0.144755
0.070508
1.28365
0.328011
0.513013
2.80348
0.216425
1.71062
0.105701
0.112911
0.244763
1.7999
1.71295
0.480629
0.117594
0.121277
2.62861
2.5299
0.391292
0.369217
0.391633
0.256062
0.559804
0.502513
0.111822
0.318304
0.239609
0.0822869
0.374278
0.1876
0.435066
0.309287
0.245517
0.529502
0.191638
0.39049
0.532253
0.425428
0.217675
0.976131
0.37573
0.44153
0.825823
1.80743
0.102632
2.84951
0.278803
0.473342
1.05529
0.274927
4.06253
0.796406
1.59565
0.135098
2.41732
0.321663
1.34765
0.204133
0.0351446
2.53768
0.303338
1.03518
0.47545
0.54803
0.424383
0.217675
1.78352
0.961501
1.83851
1.25041
0.270583
0.665693
0.3076
0.0622134
0.0808181
1.95328
1.44385
0.637047
0.405173
0.0780176
3.58109
0.455643
1.8822
3.41664
1.86276
2.43093
1.97103
0.055248
0.608341
0.467815
0.274974
1.51953
1.93142
0.21825
0.44074
0.933669
0.236761
1.63304
0.378539
0.790379
2.26469
1.97606
0.356473
0.434176
0.615396
2.22253
0.493349
0.639589
1.52787
2.8662
0.559801
0.212274
0.213867
1.93308
0.83915
0.672236
0.892679
1.12961
0.604383
0.192957
0.666003
0.474933
3.4434
0.792124
0.338855
0.136766
0.0625639
1.57899
1.54558
1.18021
2.70244
1.8057
2.98568
0.216303
1.16129
0.370935
1.87048
0.164683
1.78991
1.03571
0.186664
0.0644059
0.754999
0.116882
0.212577
2.32347
2.44023
2.15775
2.79311
3.03781
1.08728
0.289386
0.519012
3.45814
3.17351
1.11335
4.70944
0.203467
0.387997
0.876281
3.43515
1.62085
1.26718
1.29343
0.280869
0.31782
1.04482
0.716754
0.259105
0.576384
0.0789114
0.984672
0.105415
2.50682
0.106945
1.263
0.292564
1.01007
0.43943
1.94496
1.31119
1.43762
0.0782127
4.03944
0.158534
0.109467
0.395972
0.0405169
0.122499
1.69437
1.852
3.66681
0.594244
2.94236
4.02189
0.355155
1.11754
0.117799
0.313812
0.111829
0.0396366
1.8019
1.49241
0.105901
0.108442
1.8021
0.8426
0.430808
0.53892
0.3309
0.866092
0.223698
2.82856
0.310978
1.44575
0.153397
0.384996
0.354021
3.22493
0.29669
2.02425
1.73484
0.220439
0.386933
1.78036
0.259679
0.113126
3.61835
0.206689
0.199696
1.89123
0.310677
2.61231
0.283983
1.42872
2.57514
0.077628
0.411442
0.403287
2.00608
3.2954
0.20033
1.393
1.12854
1.82821
0.359665
0.290676
0.271116
0.345223
0.0475713
0.0800777
1.58678
1.52479
0.29338
0.126029
2.81571
0.307829
1.69382
2.37033
0.569577
0.206353
1.68254
3.20415
0.349972
0.0343997
0.0526851
1.86993
0.756229
2.00288
0.284022
0.224708
2.40307
2.59321
0.359633
1.38808
3.00325
2.12864
1.06862
1.89817
0.0578263
1.25129
0.605177
0.289072
0.052029
0.0832885
1.023
0.283915
0.409727
1.30965
0.227889
0.89285
0.387809
0.311577
0.911042
2.49632
0.186367
1.06603
0.203323
1.64809
1.96645
1.89527
0.283932
0.319808
0.0573464
0.079395
1.22895
0.434367
1.06928
1.36569
0.427723
0.890323
4.53369
1.65196
1.93657
0.0418699
2.63911
0.0525387
0.154446
0.973848
1.34824
0.854838
0.20677
0.191156
0.326223
1.62956
0.0591527
0.174615
1.97578
3.76112
0.22709
0.565406
0.258296
3.87512
3.63266
1.42285
0.235163
0.854772
1.18616
2.2243
0.753549
1.96721
0.206659
1.07526
0.658848
1.41274
0.221985
1.00929
0.120814
0.456339
0.0570176
0.468022
0.736406
0.27454
0.93543
0.0342028
0.292574
2.18106
0.934804
0.0737138
0.232694
1.51058
1.52839
1.47569
0.787501
0.0731837
0.26885
0.0600738
0.0712494
0.230744
0.515315
1.05705
0.0834331
0.692666
1.96367
0.111067
0.284576
0.610901
0.305072
2.80281
0.250429
0.0508351
0.070128
0.13933
0.849429
0.164247
0.520778
0.127826
0.475684
0.105925
0.0987927
0.333184
0.704321
0.230224
1.24092
0.54028
0.169971
0.870655
0.265674
1.01654
0.245317
0.0528689
0.0736444
0.129793
0.247231
1.95164
0.262312
1.38017
1.95614
0.886738
2.24264
0.224314
0.238733
0.250048
2.50028
0.587992
0.282477
0.293151
0.0508526
0.0767896
0.199566
0.110712
2.65953
2.1833
1.07613
0.0685189
0.0721262
0.146321
0.0325032
0.525672
0.376154
2.66036
0.455263
1.86777
3.05258
0.0437964
0.220118
0.355529
3.23896
0.177161
2.61394
0.260168
1.20042
0.116456
0.24752
0.113883
0.313674
0.871672
0.665427
0.716739
0.488308
0.287421
0.155235
0.0888446
0.164413
0.389979
3.41473
2.31838
0.501772
1.9636
0.457562
1.0544
0.309277
1.62099
0.174417
1.36479
0.155023
1.52971
2.11385
3.28456
0.39519
0.113769
0.225319
0.0478461
0.104813
0.369833
0.41178
0.2074
0.298096
2.57053
0.399898
0.111338
1.68232
0.257599
0.607971
1.51319
1.19308
1.54768
0.150437
0.309535
0.64532
0.257001
0.33221
0.141241
0.623132
1.55242
0.0994543
0.322759
0.828264
0.25143
0.325026
0.10514
0.0871949
0.0713046
0.0547913
0.14121
0.039064
0.192549
0.184939
0.282886
0.275439
0.0400181
0.0523536
1.68942
1.88054
0.359152
1.03171
0.146622
0.785245
0.308665
2.22634
1.56676
1.63446
4.70339
1.67557
1.97953
2.10938
3.61249
1.12403
0.0580372
0.0641592
0.100759
0.0638197
0.0668726
0.264444
1.96353
1.67948
0.0264212
0.0467542
0.223425
0.532929
0.325145
2.05327
0.194703
0.0404401
1.37138
0.320959
0.797559
0.945632
0.216512
0.234166
1.37035
0.475682
3.97002
0.0571521
0.433851
3.7386
1.1594
1.41827
1.98131
0.0253335
0.0752291
0.283319
0.12864
0.0852235
0.329829
0.0944084
0.479651
0.446284
0.400456
0.116394
0.0891098
0.33715
2.22953
2.63963
0.0721734
0.333797
0.0952285
0.357544
0.787564
0.193259
0.943754
1.44469
0.210175
1.19221
0.416042
1.52585
3.561
2.8598
1.34397
0.815679
0.208308
0.299277
2.31478
0.525916
0.106925
0.0462835
3.42587
0.322968
2.8263
0.102896
0.177639
0.344165
1.65711
1.75045
0.100325
0.148906
1.1816
0.186017
0.680142
0.220228
0.336557
0.736812
3.94041
0.106328
1.49815
0.252133
0.0547743
0.0706405
0.0318769
0.274046
0.0273278
1.92505
0.188621
1.49636
3.94057
0.984726
0.387832
4.56531
0.272685
0.205024
1.88508
0.340788
0.941542
4.95629
0.245584
4.10597
0.269058
0.0569526
0.0763962
2.06712
0.188759
0.22606
0.0926598
0.0981639
0.352116
0.961397
1.77745
0.646374
0.487551
0.44543
3.57134
1.10191
0.573278
0.933214
0.277677
0.362904
1.94286
1.44813
2.13782
0.544637
0.083276
0.136401
0.187665
1.36666
0.301259
1.53455
0.993971
0.520524
0.39301
0.778096
1.71822
0.210767
0.0574992
0.267721
0.0889229
0.216396
0.994433
0.26065
0.524823
0.292653
0.739098
1.95625
3.57176
0.421264
1.69233
0.949474
0.0855549
0.197879
0.0837156
2.03338
0.0705326
0.489388
0.251376
0.282421
0.113396
1.85695
1.93305
0.211936
0.320566
0.531961
1.87164
0.156337
0.100509
0.116019
0.413552
1.70305
0.261654
0.366883
1.64229
1.65102
1.77138
0.30022
0.218148
2.09946
1.70346
1.43846
0.294564
0.448736
0.0403505
2.19818
0.0293198
0.427289
1.72322
0.941217
0.201699
0.855667
0.371973
0.271562
0.837204
0.0530856
0.475721
0.119472
0.0207986
0.0402679
0.56963
2.0491
0.938889
0.300609
0.271694
0.0699245
0.169404
0.0664836
0.0155252
0.0368998
0.0619149
0.467423
1.94176
0.470753
0.783393
0.196183
1.50233
1.69881
0.605761
0.137672
0.0695932
0.190471
3.89317
1.68172
1.14011
0.129233
0.0521597
2.29741
0.462298
0.346121
0.923442
1.36247
0.0306521
3.17317
1.1065
0.4373
0.197433
2.48786
2.48218
0.361734
1.4382
0.0363158
0.152883
1.37617
0.997263
0.106278
0.0516567
0.199472
0.214321
0.0921113
2.17696
0.344404
0.239219
2.07121
0.696715
0.133681
1.26198
1.7981
0.312199
3.76173
0.0396388
0.553472
0.063084
0.495356
1.26363
0.101522
0.371673
1.81202
0.193589
1.23035
0.0701465
0.1814
0.590679
2.03256
1.19162
2.57706
0.404694
1.74742
0.218006
0.453067
2.42969
0.209051
3.88318
0.450093
1.4611
0.412804
0.21261
2.27939
0.771396
2.09293
0.287898
0.0558397
0.0613539
1.27503
0.126918
0.190548
0.101595
0.481675
0.512027
0.104175
0.0362943
0.149519
0.939691
3.69871
0.170505
0.0387684
0.350123
1.83187
0.523297
0.420671
0.16363
1.5761
0.747179
0.0818411
0.853334
3.19314
0.0247266
0.798789
1.19494
2.0334
0.810386
0.875555
0.788826
0.257325
0.111554
0.0946121
0.34803
0.109834
0.199395
0.304859
3.53569
1.46154
1.05765
3.19318
0.974811
1.52508
0.341569
0.60725
1.06786
0.145966
1.20246
0.161961
1.53462
3.68865
2.40126
0.654621
1.83869
0.0819872
0.913616
0.613187
1.1449
0.0343123
0.0672075
2.30445
0.495923
0.444278
1.98173
2.53748
0.245174
0.97066
0.997677
3.09092
3.51712
3.03449
0.197579
1.58749
0.0454478
0.288283
0.0678743
1.5746
1.62323
1.31845
0.137466
0.0431076
2.94277
0.102845
0.054073
0.556473
3.24398
0.568975
1.48131
3.9098
1.42401
0.114254
0.080441
1.24147
0.86698
2.01384
1.56507
1.85699
0.689256
0.525238
3.84706
2.07171
0.0631698
0.0616648
0.237469
0.0712817
0.083669
0.329087
4.78026
0.54303
0.168819
1.76883
0.651026
0.222976
2.42567
1.92795
2.56589
0.37934
0.529715
0.138661
1.19069
0.441739
1.29939
3.40069
2.20026
1.06588
2.20178
2.68418
1.7636
0.211495
0.0602811
2.48693
2.53864
0.138561
0.766272
0.0437122
0.0637043
0.728123
1.20062
1.98986
1.5117
0.195765
2.44148
0.046777
0.271703
0.0770729
0.207905
0.0446978
1.80096
1.79675
1.43769
0.379872
3.24437
0.0389178
0.136691
3.25458
1.61839
1.77165
0.434546
0.497592
3.76215
1.8881
0.182788
0.266616
0.655898
1.15462
0.19243
0.585681
0.881716
0.505669
0.592051
1.74378
2.47306
0.368467
1.45082
0.0204712
0.185608
1.19829
0.193149
0.36267
5.6923
0.309705
2.04743
1.82408
0.0746913
0.0504357
0.0604531
0.28507
2.25626
1.77405
1.78691
0.167556
1.027
0.229164
0.76704
0.674156
0.572214
0.222322
0.327852
0.229683
0.253929
0.0361223
0.0213258
0.117218
2.12968
1.69501
0.221816
0.854596
6.11255
2.70527
2.77153
1.27539
0.12614
0.968586
0.458377
0.205656
1.57163
3.01267
0.270704
0.149802
0.0723424
1.96249
1.45515
2.14838
0.3155
0.16817
1.07291
0.436052
0.0672288
0.139067
0.0292523
0.0778573
0.280999
2.12046
0.671
0.234013
2.32168
1.26601
1.71487
2.12707
0.517628
2.13592
0.156785
1.34018
1.38118
1.8455
1.54621
0.0696047
0.0630394
1.44833
0.187543
0.905743
0.206003
1.37241
0.537392
0.526817
0.0659427
0.517722
0.0688777
0.528223
0.503037
0.508858
0.509347
1.03782
2.09288
1.24741
0.0730114
1.96113
0.548681
0.0849433
0.497294
0.0872446
0.193876
0.191189
0.385723
1.66562
0.386843
0.406398
1.68509
0.0611688
0.587396
0.0715107
0.146102
4.05961
3.00005
0.26607
0.0691622
0.0584514
0.298254
0.0233478
0.0469243
0.295728
0.0655073
0.0738349
0.302769
0.0756811
1.23337
0.154872
0.213103
0.567272
1.63659
0.67765
0.612016
0.252248
0.683401
1.96161
1.89224
0.995928
0.0554977
2.00794
2.14304
2.16693
1.34289
0.374196
0.0726351
0.0176148
0.0923384
1.36064
2.79549
1.24872
0.194398
0.793327
0.264887
0.408953
0.324826
1.63624
2.12068
0.105282
2.33993
0.0373502
0.264596
2.62184
1.28216
0.933586
0.505979
0.672009
1.52634
1.27368
1.07961
0.536858
0.193931
0.370237
0.379983
0.238278
0.312192
0.149709
1.44693
1.11592
1.74557
0.954642
1.41889
0.19734
0.114277
0.26042
2.04476
1.04679
0.766864
0.26142
3.44512
0.394149
0.389434
1.6583
0.151538
0.207806
0.796345
2.97119
3.2219
1.11912
1.66398
2.18315
1.4671
0.188052
0.159066
0.0299814
0.237582
0.249177
6.38488
3.56479
0.286626
2.52307
1.25367
0.393126
0.0509913
0.723089
0.111154
0.132218
0.0507785
1.72908
0.942788
0.882184
1.57277
1.23441
0.0376556
0.1035
0.0974231
0.184568
1.4474
1.43392
7.3904
0.488488
0.320685
0.0310046
0.352876
3.16774
1.45807
0.656304
1.39674
0.100911
0.34322
0.225409
0.133464
1.95602
3.02703
0.078353
0.296059
0.0656718
0.389194
1.33362
0.317842
2.69675
0.275673
5.42945
0.865462
2.23164
3.67941
0.0680626
0.150676
0.200276
0.705868
0.100939