/*--------------------------------*- C++ -*----------------------------------*\
| =========                 |                                                 |
| \\      /  F ield         | OpenFOAM: The Open Source CFD Toolbox           |
|  \\    /   O peration     | Version:  v1912                                 |
|   \\  /    A nd           | Website:  www.openfoam.com                      |
|    \\/     M anipulation  |                                                 |
\*---------------------------------------------------------------------------*/
FoamFile
{
    version     2.0;
    format      ascii;
    class       volScalarField;
    location    "0.76";
    object      k;
}
// * * * * * * * * * * * * * * * * * * * * * * * * * * * * * * * * * * * * * //

dimensions      [0 2 -2 0 0 0 0];


internalField   nonuniform List<scalar> 
5794
(
0.0343753
0.0580124
0.488786
2.23695
1.90748
0.0622081
0.17098
0.205618
1.50868
0.105505
0.921762
0.342926
0.319426
1.84335
0.158647
0.0519578
6.12875
1.96712
0.120183
0.0410019
0.948987
0.0355242
0.553609
0.193434
0.267031
2.39955
6.22463
3.06971
2.11131
0.130687
0.292011
0.599343
0.759501
0.165374
0.213486
0.257427
0.196729
0.620201
0.911969
2.45027
1.2401
0.418975
0.278241
0.312447
0.132654
1.12555
0.796141
0.423554
0.0743846
0.0771676
0.310568
1.44169
0.0795189
0.112774
0.00985085
1.07799
0.775648
0.58021
0.217166
4.02096
0.931731
0.0627114
0.262057
1.03592
1.28486
0.0607111
1.47939
0.4311
1.757
0.0850643
2.44571
1.58605
7.23138
0.156692
1.84928
2.15565
0.287691
1.83264
0.282836
0.0550929
0.0436766
0.0391166
1.27287
0.659564
0.470075
0.81183
0.469196
1.05261
0.263556
0.853439
2.44688
0.701597
1.60219
2.63446
1.01616
2.52484
1.87761
1.39478
0.64556
1.01735
0.881395
0.340056
0.248355
2.51817
0.161486
3.41001
0.0496816
0.621013
1.62111
0.261018
0.0706489
0.0496751
0.870315
0.0988952
0.856486
2.01229
0.202072
2.27179
0.854525
0.499577
2.63573
0.0526968
0.196111
2.70746
0.0911465
1.44255
1.50152
0.0845139
1.7233
0.685027
0.424344
0.350445
1.08023
1.62264
3.21006
0.171001
2.00942
0.0666587
0.281056
0.091378
0.0943797
2.14079
0.082598
2.50904
0.39753
6.61909
1.0032
0.891952
1.3201
1.46647
0.314569
0.101279
3.35386
0.276801
6.77045
0.955044
0.709792
0.327421
1.41439
0.490989
0.0593853
0.160914
0.0686093
0.160994
1.19051
1.32209
0.160922
0.143066
0.047391
0.0366048
0.0848409
0.832281
0.135645
0.142578
0.112379
0.381002
0.0669141
0.199464
0.111411
1.28443
0.208084
0.589963
0.174598
0.917511
0.191978
3.52276
0.383987
0.448701
0.0729793
0.263873
0.940267
0.546947
0.730097
0.205841
0.293224
0.354448
0.12107
0.0322354
0.08828
0.276646
0.226846
1.23574
0.330494
0.237375
0.804508
1.14126
0.152339
1.06761
4.20211
0.983105
0.270289
0.313375
0.266242
0.216206
0.176486
0.252148
0.370298
1.24999
1.07419
2.29543
0.306292
0.891494
3.82643
1.50373
1.94991
3.38481
0.246714
0.160441
0.173227
0.196747
0.136607
0.14842
0.1372
1.18644
0.837363
4.47963
5.18739
0.874624
0.285262
0.0494501
0.0337009
2.12527
0.934809
0.668517
0.365175
0.182941
0.113727
1.21449
1.34896
0.941361
0.475197
0.0556649
6.43317
0.0381089
0.211044
4.66073
0.264583
0.422166
0.764185
0.0882238
1.48032
0.25528
0.20505
0.0452216
0.606703
0.448906
2.04946
1.7179
0.0742453
1.39676
0.992966
0.297736
0.528143
2.16498
0.397726
0.183768
0.110844
0.10192
0.0807552
0.315952
0.0497175
1.69363
0.962998
0.251576
1.73968
2.42394
0.933156
1.2301
2.98214
2.71784
0.206285
0.174714
0.180998
0.106016
0.203499
2.14775
0.784486
0.159217
1.14737
0.0544814
0.0366817
0.763488
0.0461146
1.13439
0.210463
1.61508
0.0700584
1.37049
1.37395
0.967919
0.300392
1.16165
1.08949
0.100698
0.292264
0.593258
0.800915
3.31331
1.58078
2.53935
1.02921
0.222112
2.10759
1.7926
0.0693842
0.609451
0.164358
0.345768
0.30364
0.851511
1.19702
0.28109
0.229589
0.610197
0.489753
0.0868198
0.107353
0.05277
0.0652453
0.332047
0.150355
0.226548
1.39656
0.459041
0.0974703
0.157738
1.21273
0.693087
1.54031
0.750442
1.12143
3.18353
0.776895
0.547006
0.191906
2.62523
0.0682843
1.32165
0.184619
0.0962324
0.944521
0.593214
1.78805
0.222427
0.177936
0.369651
1.18466
1.00603
0.709769
0.486074
0.14031
0.0405034
0.340465
0.144751
1.19631
1.3386
0.899749
0.694733
0.765767
0.0673592
0.614948
0.132436
0.322709
0.226845
0.194741
0.142278
2.65797
0.231457
0.27037
0.184847
0.164397
1.07745
0.0715865
0.0666487
0.108149
0.1156
0.100456
0.191982
0.11037
0.476273
0.171816
0.238952
4.91313
0.0797128
0.0374677
1.12433
0.231877
0.0518136
0.0415839
1.87344
1.37958
0.60778
1.27901
0.620485
1.23003
0.865706
0.20249
1.81944
1.11474
1.7487
0.626609
1.31924
0.884903
0.138661
0.163137
0.165037
0.101075
0.0901139
0.0436068
0.0474312
1.39277
0.224005
2.32789
1.29192
0.116163
0.157058
0.290196
0.43533
0.179455
0.174257
0.102703
0.26944
0.230269
0.253071
0.112968
2.24302
0.921758
0.165887
0.134017
1.19154
0.113546
0.0457409
1.27176
0.0469264
1.96895
0.0392232
1.91556
2.72895
1.20259
3.70338
0.048823
0.0576958
0.255512
0.14266
1.11457
0.68994
4.10546
3.16306
1.02233
0.248895
0.030341
4.95758
1.59214
0.212985
0.101108
1.82025
6.00135
3.38375
0.155632
0.0564055
0.499309
0.0567422
0.0643738
0.173677
0.888898
1.12887
0.312515
0.154147
2.78707
0.0518799
0.0447768
2.11832
2.01416
1.63996
0.209583
0.0854083
0.120907
0.140119
0.0859102
1.00993
3.53904
5.86351
0.264929
0.399042
2.69884
0.0571144
0.0474874
0.612267
1.46686
0.0552811
2.4764
0.061089
0.730462
0.0404631
0.0873248
0.760042
1.80578
0.04126
0.223009
4.98471
0.0454669
0.0521607
2.498
2.35264
0.762424
0.036603
0.21651
1.07362
0.0437092
0.0384762
0.436655
0.0447895
3.9576
0.128574
0.295175
0.109779
0.240094
2.29071
0.67014
1.21477
0.0437769
1.49968
0.0411546
1.6716
0.185471
0.0622593
0.215193
2.47179
0.081458
0.0364275
2.64367
0.0838153
0.0861564
0.212576
0.0426168
0.070498
0.408063
0.0376172
0.042008
1.41871
9.92187
0.104908
1.46841
0.10867
1.68117
0.142562
0.0362558
0.904117
0.0272322
0.0531955
1.22881
0.938641
1.46532
1.17656
1.54529
0.292816
3.16185
1.48624
0.240985
0.940119
2.12709
0.777055
2.94693
3.82438
1.87125
0.904721
0.078144
1.73314
0.659938
2.16201
0.0546871
0.0609626
0.0736968
2.38838
0.831201
1.2204
0.0477303
0.293553
0.056521
0.176234
0.0495285
1.36855
0.868244
2.59419
0.0459039
0.520513
2.63076
0.103605
0.0110863
0.789676
3.70681
4.67344
2.25329
0.102653
0.194512
0.17703
0.919898
0.584034
0.269392
0.962812
0.0455907
1.2661
1.68021
0.860914
0.0538196
0.0361877
0.180735
1.61591
2.18603
0.0717013
0.0488889
0.0463519
0.0312106
0.0493349
0.0526724
0.0767846
2.02584
0.486958
0.242388
3.14398
0.167972
0.286387
1.10184
0.707694
1.98874
2.84883
0.984237
0.737395
0.117974
0.0394276
0.0295311
0.265142
0.129716
0.151646
0.176274
1.61563
5.64536
0.827542
1.92843
0.585853
0.0500768
0.0558881
0.0627164
0.737702
0.0527146
1.17756
3.09428
2.51518
0.958443
1.19986
0.894498
0.224759
4.88183
0.823542
0.663774
0.951118
2.80375
0.146536
2.29753
0.074889
0.029302
1.13656
0.127465
0.10527
1.50009
2.06354
2.37828
0.134843
0.0903783
0.0402292
1.57629
4.03771
1.85901
1.18736
0.0948625
0.977835
1.07081
0.0274324
0.0700924
0.289763
0.0595466
0.238174
0.0417205
0.441591
1.37652
2.43296
1.45758
0.115274
0.135879
2.87179
0.508487
4.0918
1.27399
1.70101
1.43421
0.373581
0.266923
6.80367
1.28103
1.46186
1.85869
2.34737
2.32668
0.130922
4.08269
0.252293
0.359907
0.506419
2.81851
0.638439
1.14393
1.24782
3.07359
0.843879
0.0995052
0.253389
4.62085
0.760349
0.684868
1.53599
2.1957
0.0418854
0.0389986
0.0717723
0.162755
2.18461
0.904711
2.54815
0.0888689
0.283079
0.0302697
0.219509
0.113043
0.0397065
0.836931
2.38674
0.207222
2.81196
1.05927
0.257667
0.151438
5.9932
2.10026
1.11763
3.16327
2.58474
0.991183
1.43301
0.29658
1.59122
0.63922
2.05252
1.02005
0.127276
0.268274
0.0620792
0.0372082
0.101864
2.313
0.0497689
1.23014
6.14108
0.223945
0.041601
0.053918
2.18711
0.852708
1.2258
2.28353
0.810737
0.370178
2.24323
2.15749
1.37144
0.224281
0.938034
0.0447634
1.86612
0.0518826
1.99079
0.304513
0.870702
0.707966
0.0608967
0.028519
0.10692
1.19912
1.58013
1.6763
4.34354
1.24986
0.0970784
0.274534
0.629143
4.18651
0.0772179
0.502097
0.695017
2.48258
0.0419627
0.0408075
0.389399
0.853503
4.83355
0.0799435
0.385686
0.108342
0.184465
0.078781
0.683578
1.87591
2.0599
0.282654
0.123953
2.34553
0.154379
0.471598
7.66946
0.0330741
0.0164545
0.0831384
0.0477733
1.0406
0.448707
0.498257
0.0808685
0.10046
0.217763
0.316465
5.78342
0.909552
2.74665
0.873271
1.13326
1.67025
1.14839
4.83053
1.12919
0.0838143
0.0510501
0.207222
1.42844
0.238771
0.264567
4.18213
1.38378
2.31721
0.874327
0.0930984
2.61858
0.33397
0.348338
1.34964
0.0583786
3.64579
0.105288
0.130163
1.56364
0.385749
0.231314
0.242769
1.44475
0.664297
0.262715
0.066479
0.13164
0.765739
1.77256
0.257617
0.299198
1.03034
0.164848
1.05699
3.03951
1.75912
2.50317
1.43421
0.0493477
0.0422077
0.564581
0.0675532
0.0585658
0.0461242
0.0529726
0.774396
0.0543982
0.254154
0.0690557
2.63229
1.53577
0.733708
0.276651
0.524073
0.993975
5.71219
0.728504
1.67782
0.234254
0.0595919
5.42523
0.377169
1.19963
0.262059
1.32891
0.728062
0.985216
0.0280227
1.65737
1.12011
0.167204
0.121046
0.0858876
0.0374713
0.0497817
0.728791
2.95769
3.42839
1.66426
0.623135
1.2863
1.64251
0.31891
0.0416361
0.045072
0.644528
0.0621469
4.98113
1.18235
2.0306
0.246268
2.3973
1.01072
0.0483841
0.0530606
5.26156
3.3182
0.305096
0.273272
0.474078
1.63416
0.0893141
1.99383
0.078728
0.150193
0.157727
0.0635932
0.0608634
0.285138
0.104356
0.0542325
0.0450828
0.0772956
0.264222
2.39377
0.215708
0.0794118
0.0698808
1.167
0.299665
0.451674
0.126329
0.576124
0.0553252
0.642288
0.200447
0.0978843
0.0872758
0.440406
1.53375
0.0906621
0.304258
0.396575
0.0882185
0.291793
1.16094
0.430529
4.17964
1.80968
0.0463526
0.318487
0.531576
2.83154
0.530781
0.936457
1.13328
2.46132
0.0379225
0.247894
0.0651909
0.02904
0.414807
0.400427
1.91851
1.72788
1.3413
0.0187699
0.78051
1.49238
0.798423
0.816418
0.935949
0.0544309
0.0444965
0.0500194
0.626964
0.302372
2.56136
0.201017
0.72105
0.196757
0.204766
0.287016
0.282206
0.0486604
0.0531769
1.0394
2.72589
0.766175
0.0606125
0.27444
1.19985
0.0546841
0.127222
0.0782623
0.19087
0.840502
0.0591125
1.36887
0.0540913
0.311153
1.04632
0.0933529
2.56699
0.284604
0.0394553
0.411697
2.43025
0.0408783
1.52274
0.0893762
0.0423215
0.0560034
0.099703
0.0444022
0.0569362
0.30923
0.089483
0.0431892
0.127941
0.16448
0.168169
1.70894
0.539754
0.266412
2.5175
0.86332
0.045114
0.07863
2.52186
0.399604
1.21769
2.80744
0.0535568
0.499688
0.0484441
2.96923
0.0970502
1.64421
0.0997363
4.07291
1.09765
0.0236943
0.663963
0.0842079
0.116983
0.193864
0.0613099
0.621957
0.645496
0.0385847
0.677227
0.0189006
0.0295299
0.125951
0.0588432
0.0430798
1.66449
0.274071
1.12318
0.0634481
1.26109
0.0679076
0.0427981
0.0522766
0.198711
2.11651
0.403212
0.237155
0.574889
0.250588
0.42293
4.52595
2.3148
0.0551393
0.493184
1.97878
0.819751
0.938517
0.239912
2.34907
2.15797
1.49465
0.487009
2.84281
0.264872
0.263844
0.0945849
0.184912
0.1879
0.0454573
11.0958
0.693413
0.0467024
0.260056
1.71024
1.66708
0.272058
0.0284699
0.231941
0.317188
0.110175
0.0676407
2.55903
0.122693
1.25594
0.457447
2.22134
0.145587
0.0960258
0.191275
0.326807
0.250316
0.602872
0.0484619
0.757257
0.0467364
4.15925
0.357436
0.243907
0.191099
0.479007
0.292452
0.391525
0.333517
0.193167
0.184429
0.102691
2.45461
0.289348
0.214803
0.0421554
0.0479474
0.624192
2.08032
0.666103
0.328207
0.136242
0.253441
0.244212
0.253869
0.237511
0.313818
0.410434
0.32263
0.545747
0.0406186
2.14517
0.0549873
6.63322
0.0457574
0.0699861
0.0713843
0.0427765
0.0503052
1.33762
0.0747264
0.228706
0.0361141
0.18618
0.657951
2.003
1.00255
0.0906448
0.0859333
0.284725
0.239321
1.68711
1.09348
0.304865
0.281585
0.0183909
2.14848
0.267075
1.22945
1.59078
0.168999
0.280656
0.653441
0.252547
0.0345891
2.73176
2.31456
0.632278
1.55281
0.665577
0.303415
0.0321567
2.13911
5.82455
2.00337
1.19775
0.09195
0.105092
1.12973
0.304524
0.103412
0.0426107
0.337377
1.02733
0.121923
0.0542278
0.690927
0.0739399
0.0394082
0.122821
0.345003
2.75566
0.060026
0.499703
1.29718
3.44799
3.51897
0.19093
0.882361
0.197838
2.14698
0.107167
1.97443
2.56847
0.765633
1.6119
0.628816
1.58303
1.33704
5.2512
0.277108
0.0952819
0.0671575
3.5738
0.146034
0.470209
1.35424
0.705923
0.228861
1.40663
1.10187
0.731184
2.87677
0.110917
0.0472503
0.257353
0.751562
0.0574809
0.512219
1.23045
0.293922
1.55196
1.31831
1.78815
0.052319
3.56735
0.104293
1.02416
0.528016
0.296684
0.216485
0.0830326
2.42785
0.0707647
0.0739035
0.0463838
2.84639
0.0472838
0.372466
1.0644
3.97174
0.164527
1.62795
4.37352
0.136123
0.277837
0.0199492
1.19083
0.489911
2.2636
2.34207
0.110153
0.0507438
1.13619
1.36726
0.615805
1.69964
1.05745
1.39931
0.889162
0.695071
0.133875
0.308715
1.01238
0.0881676
2.46351
0.0579291
0.0736462
0.114133
0.541181
0.239098
0.118779
0.0811352
0.238398
0.210118
0.0864738
0.0975202
0.0497442
0.263595
0.838918
1.04111
0.908865
0.0707686
2.94781
1.31805
1.97904
0.437844
0.130315
0.947493
0.0634025
0.0414188
0.0239617
0.031969
10.9004
0.323245
1.15839
0.621207
1.78636
2.218
0.576778
0.0486631
0.0466601
0.0466362
0.0966686
0.0570635
0.0482671
0.0385894
0.0589771
0.0588558
0.145685
0.0427236
0.103879
0.0654321
0.0367292
0.0426738
0.079802
0.0705046
0.045366
0.0296575
0.0402161
0.0979084
0.030173
0.0423096
0.0275942
0.170414
0.0947646
0.0755391
0.0277883
0.0480892
0.0398513
0.0824673
0.102108
0.0461711
0.0163233
0.027104
0.0647744
0.0286644
0.0442698
0.053911
0.0814435
0.0346412
0.0393416
0.0911729
0.104744
0.424078
0.418733
4.88836
0.0619368
0.769363
1.1141
2.4587
2.07532
0.0798712
0.0445343
0.393906
0.0941315
0.644056
2.11821
8.70139
2.99449
2.62513
0.748183
0.0561735
0.0493563
0.0765879
0.224189
0.0312934
0.961877
0.13853
0.432043
0.158657
0.61765
1.02152
0.52735
0.566193
1.93636
0.955536
9.69155
0.141833
0.259535
0.395822
0.332431
3.57015
0.0887728
0.936258
1.85491
0.913437
0.69628
0.52418
0.545238
0.403173
0.327889
0.362148
12.2906
0.114314
0.093038
0.0240476
1.94659
2.63801
0.0344445
1.71067
1.93268
0.0588863
0.0397577
0.0365324
0.0415281
0.0789952
0.051536
0.11031
0.0433197
0.0373553
0.059951
0.106266
0.097593
0.0349127
0.106401
0.0321777
0.051783
0.102756
0.0423737
0.0352474
0.0344211
0.0275365
0.0524009
0.037539
1.30409
1.36338
0.17281
0.455205
0.933138
0.362254
1.99159
0.0425097
1.43107
2.17073
0.307428
1.18521
2.76909
0.650468
0.0322446
2.79541
0.956026
0.106003
6.07466
2.34691
2.5296
0.0411647
3.23964
0.785856
0.0680343
3.22422
0.365843
1.62968
0.0966277
0.106751
0.068154
1.98087
0.05765
2.02857
3.06233
0.119805
3.2434
0.0643692
3.24662
0.177757
0.116306
0.0434941
2.06169
0.0709283
0.0921752
0.465315
0.072316
3.12945
0.315573
1.65254
0.384624
0.991293
0.945929
5.23799
0.0276245
0.27954
0.304873
2.28461
1.17711
0.0745604
0.057937
0.905867
0.478192
3.07299
0.307961
0.0876578
0.183319
0.128192
0.493477
0.0516913
1.79909
0.23257
0.0218215
0.0361047
3.24268
2.76962
0.328023
0.44559
2.04309
0.208527
3.08188
3.36378
2.23875
3.09055
3.00862
0.0781399
1.97519
0.0427744
0.169447
0.103952
1.8871
0.250715
0.215163
0.372654
2.60136
0.250371
0.0847035
0.109162
0.14371
0.605251
2.03116
3.09589
4.48177
1.47148
0.617704
3.14501
0.240019
0.811905
0.779786
0.987304
1.63562
2.71131
1.22587
3.10368
1.07975
3.32916
1.34151
0.105087
1.18606
1.00411
0.471449
0.475256
0.436503
3.58343
0.693445
0.443016
1.54846
1.23922
1.36002
0.827808
0.207111
6.21416
0.550524
2.06269
0.812343
0.101714
0.0621971
0.149063
1.56247
0.116163
0.107048
0.213073
3.5027
3.53386
2.30442
2.24829
3.61894
2.56415
3.63103
0.07706
3.66239
3.61772
2.78579
2.66047
3.59329
2.46959
3.60505
3.6498
3.62946
0.483422
0.432613
0.412552
4.9008
0.262468
0.345041
0.212841
0.241325
0.0294713
0.036502
1.38461
2.50082
0.834797
0.122877
0.143994
1.76955
2.45001
1.07675
0.468912
0.191657
0.21769
0.163444
0.362485
1.10454
0.237158
1.36762
0.266515
0.618813
0.300301
0.341381
0.0797541
0.974078
0.101343
0.266619
0.222873
0.0399383
0.979159
0.171302
0.187451
0.162712
0.187934
0.205238
1.48843
0.183935
1.26937
0.976254
0.189731
1.27755
3.73933
0.193513
1.62292
1.00788
0.94151
3.82264
0.122963
0.157486
3.57694
1.18266
1.83689
0.189441
0.220626
2.10402
3.75684
1.67468
0.158593
0.183656
0.154697
1.19039
0.217892
6.98616
0.198219
0.234715
0.213513
0.177452
1.06069
0.102843
0.208609
1.32996
1.46154
0.370994
6.68859
3.0527
0.138519
3.22148
0.176545
0.238567
0.419978
0.128535
2.07318
0.247445
6.45872
0.378551
0.24431
0.141173
2.29231
6.19611
0.108472
1.31872
1.75293
0.739553
0.338974
0.257288
0.0974964
0.293839
2.03109
1.49864
1.80563
4.9439
4.71877
0.198653
0.678169
0.205856
1.37983
0.562923
0.171079
0.0654176
2.07606
0.0911079
0.193382
0.0931227
1.31547
0.21286
0.73527
0.437561
0.31712
0.580883
0.133353
0.920451
0.551228
0.205761
0.171584
1.00752
0.883359
0.180339
0.267673
0.21788
0.0992475
1.18758
0.441684
0.357106
0.53184
0.617653
0.090328
0.271329
0.407706
0.637328
0.0572858
0.285944
1.46034
1.95992
0.767489
0.296911
0.213068
0.929592
0.338605
0.560509
0.158153
0.853082
0.656517
0.643533
0.0745206
0.901555
1.13378
5.0295
0.317445
1.15982
0.775104
0.304159
0.697839
0.943847
0.579167
0.15459
0.921423
0.509103
0.65789
0.76764
0.864383
1.12958
0.246947
0.434017
0.305402
0.881146
0.120041
0.121056
1.10293
0.907557
0.790129
0.111801
0.23517
0.79446
0.43005
1.02416
0.301854
1.02923
0.0958946
0.185487
0.0750503
0.108494
1.44654
0.310733
2.00833
0.476298
0.229864
0.954197
0.43919
0.237799
1.30759
1.29117
0.250867
0.173718
0.415306
0.340618
0.22686
0.192473
0.295443
0.168681
0.361236
0.133371
5.22213
0.608789
0.219649
0.317487
0.434556
0.0938663
0.170174
0.0729847
0.102204
1.38794
0.207766
0.311801
0.222867
0.73905
0.149648
0.0736151
0.108237
1.93987
1.38486
0.33134
1.41682
1.60746
0.174961
0.510486
0.489621
5.21703
0.327483
0.194134
0.24802
1.92279
0.564459
0.147124
0.761851
2.22738
0.336857
0.748881
1.42605
0.155019
0.0640239
0.101358
0.521539
0.520898
1.0315
1.3753
1.46891
0.0905966
5.07777
4.85835
0.135741
0.222791
0.284206
0.371789
1.33311
0.202357
0.325486
0.406442
0.488316
0.366044
0.930347
0.947511
1.55485
1.80682
0.246175
0.729134
0.186863
0.589435
1.08957
0.101567
0.0944892
2.34526
1.23039
1.06932
2.15661
0.169909
0.270097
1.12782
2.19848
0.608614
1.15129
0.138091
0.0689166
0.110805
1.6537
1.96847
0.210267
1.39583
1.30344
1.24928
1.79202
0.2104
0.591765
0.126325
0.344542
0.11286
4.94142
0.131571
0.74984
2.3553
0.207197
0.311161
4.20324
0.0814143
0.197035
0.263071
0.368814
0.503419
1.0265
1.42269
2.28268
0.770268
0.896295
1.15625
0.0909653
0.917139
0.621461
0.053448
0.0546213
0.232846
0.40824
0.407896
1.67069
0.137612
0.0583209
0.0961513
1.91343
2.16881
0.135928
0.0450908
3.91532
3.27147
0.72393
0.0595014
1.43127
0.288095
0.786234
0.160367
0.140469
4.85029
0.124983
0.0929358
0.101014
3.7216
2.20011
1.06806
0.194123
3.63798
1.93863
0.843807
0.427789
0.558566
0.248436
0.325232
0.369607
0.445737
0.468295
0.634414
2.52373
1.4001
0.195356
0.157034
0.608309
2.95828
1.91056
3.56824
2.82493
1.73188
0.616217
1.34656
0.282615
0.226661
1.38582
2.25356
2.98615
3.27143
1.24747
2.30326
1.01046
0.876004
0.671039
0.088046
0.56682
0.130103
0.0609736
0.097282
0.16132
0.170788
0.121457
2.39682
2.74092
0.46405
3.41957
0.871083
1.06919
0.765869
0.395181
1.01916
0.427383
0.887157
0.29687
0.117516
0.228164
2.72361
0.529592
0.315549
0.0810225
1.62122
0.791285
0.736675
0.455105
1.51217
1.59631
0.295632
0.988573
0.735496
1.23154
0.361024
0.146861
0.0378442
0.140827
0.080317
0.1492
3.36494
0.102452
0.0966241
0.105544
1.29982
0.153933
0.518535
2.86805
0.102349
1.7906
0.395322
0.413851
0.376938
1.66478
1.80499
1.72868
0.255398
0.862876
3.62825
2.14437
0.11691
0.507056
0.121141
0.948314
1.66539
0.355571
0.0947797
0.312499
0.235182
0.0698664
0.226999
0.905391
0.105805
0.307891
0.963966
0.756385
0.673515
0.465515
0.537531
1.47753
0.960454
0.770392
0.523018
0.366416
0.598277
3.2563
0.489089
3.13627
1.20438
1.15654
0.972553
0.936772
4.26277
0.853381
1.3718
0.171683
2.21483
0.501769
0.528537
0.0392509
0.0233702
2.53465
0.847772
1.197
0.614453
1.8462
1.38653
0.217288
1.91171
1.28162
1.31546
0.816327
0.930424
0.911667
0.125172
0.0567158
0.0909092
1.76615
1.62623
2.02231
0.207841
0.0479627
3.65281
0.554156
1.9795
3.65675
3.25826
3.34376
2.51589
0.0425153
0.61562
0.572164
1.00296
2.84912
3.1495
0.14362
1.517
0.993794
1.0404
1.76591
0.178809
1.81402
2.01637
2.94489
0.440466
0.116008
1.8301
2.13893
0.583225
0.681532
1.7434
2.9336
0.609341
0.117254
0.700403
1.5653
2.19384
0.16056
0.952216
2.35348
0.611851
0.19354
0.70742
2.25361
3.69014
0.684543
0.34479
0.0716376
0.0741705
1.48288
1.65132
2.22491
3.10007
1.66147
5.03689
0.132264
0.441516
1.19896
2.99228
0.659332
1.88535
1.06351
0.220832
0.091302
0.425933
0.0710604
0.129464
3.50966
3.41664
3.42638
1.94291
4.73043
1.15981
0.775693
0.549559
3.47872
4.60716
2.5596
7.80584
0.201573
0.10302
2.12948
3.64205
1.02563
1.22688
1.02962
0.647471
0.118055
1.12648
0.142185
0.0542928
2.79117
0.0738462
1.1408
0.0929671
2.2433
0.500531
1.09882
0.90093
1.16691
0.444576
1.35949
2.6976
1.3722
0.0489773
4.20028
0.557958
0.516608
0.110698
0.0297426
0.195747
1.82901
3.15676
3.52913
0.340261
2.57358
4.15252
0.0904261
1.17378
0.484155
0.466245
0.188398
0.175589
3.46346
1.54968
0.558499
0.531956
3.66159
0.764174
0.447984
0.996437
0.117452
0.912652
0.223299
2.84514
0.386305
2.0133
0.0801763
0.100794
0.367292
3.53042
0.81478
3.27776
1.91354
0.173956
0.378259
1.82969
0.412075
0.086055
3.50392
0.144982
0.087009
1.6473
0.316174
3.49815
0.106961
3.44813
2.47277
0.0525056
1.19975
0.398871
3.41074
2.27943
0.155587
0.706272
1.12479
3.17926
0.359632
0.296206
0.276354
0.378805
0.055743
0.0810192
2.68431
1.51538
1.0423
0.453404
2.71256
0.316928
3.04813
1.50509
0.207845
0.204465
1.57025
2.65806
0.0508944
0.0200374
0.0396629
2.60781
0.806222
2.80299
0.453659
0.414545
2.58437
3.38602
0.101774
1.08813
3.18564
2.07201
0.786751
1.91292
0.045442
1.5852
1.29663
0.121408
0.0566038
0.0870317
0.711064
0.132429
0.638206
1.42071
0.116874
3.14675
1.02317
0.932655
0.978996
1.99629
0.30415
1.15548
0.100414
2.12623
2.16582
2.00849
1.11914
0.110214
0.0563568
0.0834725
1.31384
0.455616
1.36735
1.33928
0.44847
0.953512
4.73969
1.35002
3.39313
0.032887
2.80401
0.234401
0.220875
0.981663
1.35363
0.674269
0.144835
0.208826
1.30659
1.65254
0.113667
0.20718
2.61019
3.0782
0.772948
1.12537
0.891439
3.74774
5.26992
1.83281
0.124816
0.872105
1.17863
2.35049
2.26864
2.88677
0.205185
1.5313
0.702423
1.29547
0.486295
1.13784
0.434506
0.744694
0.0377339
1.48333
0.860608
0.10632
0.994778
0.219408
0.791414
2.10444
0.991252
0.0684182
0.222371
2.46248
1.79643
1.53121
0.845078
0.622692
0.15774
0.055439
0.0642574
0.0767972
0.105521
1.50203
0.0766957
0.71549
3.11809
0.271494
0.0825867
0.150142
0.307186
2.76365
0.0965767
0.0542526
0.0684115
0.379421
0.90998
0.225478
0.225796
0.0511683
0.115199
0.0903879
0.0846416
1.05511
0.574088
0.229882
1.25652
0.57118
0.291779
2.26401
0.826722
1.3753
0.148921
0.049759
0.0156744
0.0408618
0.115536
2.80985
0.116755
3.47962
1.88136
0.890074
2.15261
0.0984837
0.238348
0.244361
3.35812
0.704972
1.00328
0.109847
0.056579
0.0764284
0.198021
0.0885749
3.25935
2.1889
0.236149
0.827799
0.0427382
0.605014
0.262755
0.542935
0.118443
2.83072
2.28891
2.6312
3.23815
0.0429815
0.154685
0.645804
3.60508
0.727072
2.81174
0.6372
1.55118
0.0901928
0.247103
0.0785413
1.09209
0.821614
0.698061
0.742429
0.0880123
0.102462
0.823173
0.108225
0.28695
1.41201
2.35976
2.19334
0.841155
2.84397
0.481444
2.58372
0.628994
2.02626
0.263946
0.961195
0.103952
1.85613
3.30409
3.45828
0.410223
0.0884433
0.154544
0.0461671
0.0882306
0.10955
0.443879
0.298067
0.980577
2.66801
0.114329
0.242155
2.96824
0.262469
0.61774
1.00035
2.78519
2.08935
0.310362
1.02822
0.642409
0.256775
0.332161
0.415883
0.247769
2.12297
0.055601
1.05237
0.761738
0.0734147
0.955967
0.0811721
0.0706657
0.0417917
0.0323342
0.046672
0.0364757
0.175854
0.197623
0.282721
0.0330918
0.018513
0.0401598
3.66273
3.13706
0.35907
1.22277
0.427944
0.803322
1.02766
2.42992
1.61436
2.45007
6.06623
0.433754
1.75712
2.0755
3.83483
0.851018
0.0583459
0.0585598
0.08454
0.0648294
0.0571471
0.264314
1.49172
1.76373
0.0300125
0.0371533
0.165792
1.08198
0.31795
1.96019
0.0629592
0.16233
1.48929
0.312091
0.556362
0.377051
0.142136
0.0752343
1.27908
0.49366
3.42344
0.126262
0.456108
5.01847
0.238355
1.21859
2.91387
0.0224542
0.0463247
0.205646
0.0415009
0.0545213
0.0998768
0.0693749
0.090986
0.244968
0.228071
0.555572
0.0681366
0.811364
1.74134
2.83145
0.0551135
0.10644
0.0534476
1.30998
0.668319
0.331804
2.45983
2.15793
0.0717482
1.17031
1.1259
2.04636
3.54997
3.33199
1.46124
0.874801
0.138672
0.975464
2.55685
2.70271
0.590192
0.0315916
3.39545
0.0979339
2.90821
0.874754
0.126999
0.347578
1.42606
2.72292
0.0502781
0.0657883
1.24031
0.362517
0.270902
0.143694
1.07067
0.493112
4.1987
0.561447
1.87989
0.0962176
0.0607023
0.0664759
0.0177697
0.05396
0.0179495
1.89576
0.0723721
2.0769
3.32429
0.604713
1.51498
5.3608
0.272535
0.20251
1.80217
1.00691
0.935018
6.17653
0.249795
4.34697
0.094293
0.0568518
0.0746657
3.1666
0.188012
0.0811092
0.0559578
0.0454661
0.114067
2.57219
1.81076
0.66689
0.298604
0.466087
3.7965
1.1604
0.587796
1.02211
0.951746
0.362718
1.89851
2.85642
2.09844
2.33893
0.0595583
0.44957
0.122869
1.41551
0.0915438
1.61736
1.62448
0.707525
1.30411
0.399965
2.35028
0.129046
0.0623931
0.113972
0.0953595
0.136662
1.2536
0.76692
1.41207
0.216156
0.348312
3.10339
2.14971
0.421455
2.27383
0.987561
0.0600528
0.135756
0.088807
3.64276
0.729646
2.5473
0.518789
0.0927782
0.490565
2.824
2.26456
0.208423
0.31534
1.03989
1.87565
0.0662989
0.0357845
0.100653
0.413646
2.32462
0.270231
1.30245
1.66365
1.55649
0.845411
0.299186
0.218119
1.24801
1.59768
1.07003
0.0829885
0.392268
0.0214749
2.52149
0.0164148
0.427619
2.28873
1.31763
0.562295
1.9965
0.0725023
0.166812
0.304989
0.0276562
0.478353
0.0648186
0.0131692
0.236968
0.594583
2.0298
3.21421
1.12287
0.536614
0.0188708
0.0509205
0.0341529
0.0110213
0.0322617
0.0284171
0.472159
1.67084
0.476493
0.408159
0.426177
0.675676
1.58199
0.563137
0.127421
0.0413395
0.1899
4.057
2.40071
1.16713
0.182158
0.0277257
2.13985
0.0851094
0.36075
0.93542
0.50745
0.568367
3.39858
0.276052
0.457118
0.207798
3.60945
1.90235
0.118103
1.57719
0.031532
0.179323
1.4929
0.210332
0.0565018
0.0362988
0.106696
0.136481
0.0404941
4.10664
1.195
0.254125
1.34743
0.9749
0.454333
2.22926
2.48889
0.316653
4.01521
0.0283262
0.575803
0.0544511
0.517991
1.34696
0.0537088
0.388976
3.20191
0.201307
0.377136
0.0258412
0.0609175
0.592631
1.56877
1.28018
2.96626
0.404731
2.42611
0.0829314
0.473744
2.33294
0.211269
3.45493
0.439485
1.26465
0.43148
0.225573
1.61887
0.743659
2.01307
0.0585131
0.0343297
0.0492401
1.76948
0.362878
0.190724
0.176147
0.487617
0.51719
0.0559792
0.0316048
0.225915
0.912552
2.86882
0.176079
0.0335069
0.350117
2.21739
0.521421
0.421302
0.159598
1.54134
0.427042
0.204183
0.670694
2.49311
0.0292216
0.793698
1.24252
1.95346
0.788031
0.828937
0.430709
0.0902243
0.0672856
0.0694258
0.114556
0.0694909
0.205068
0.30633
2.60019
0.745329
1.04039
3.27391
0.961557
1.29262
0.625195
0.144805
1.04069
0.233046
0.590589
0.189357
1.64297
3.88027
2.19714
2.87718
1.39863
0.819195
0.886726
0.614254
0.276347
0.0147056
0.0364649
2.12376
0.501611
0.0960555
1.88972
2.29917
0.103755
1.03212
0.730931
2.78218
4.70364
3.2462
0.0534838
1.51858
0.0530066
0.100221
0.0664442
1.62413
3.10986
1.30347
0.0804451
0.501972
3.1495
0.249477
0.0449556
0.689033
1.77685
0.571808
1.58794
4.05046
1.36947
0.0631293
0.0451658
1.01587
2.83676
1.9705
2.13856
2.99845
0.348592
0.0699933
3.4127
2.03811
0.0581472
0.0413932
0.0606677
0.0560435
0.0501513
0.110017
3.80275
1.65174
0.0467788
1.27978
2.31685
0.187333
2.75255
1.81635
2.8602
0.229629
0.53418
0.440641
1.43993
0.729957
0.282905
3.54577
3.16323
1.16758
2.09518
2.20564
2.31163
0.327207
0.0902132
2.41857
2.4935
0.201613
0.185488
0.03421
0.0262108
0.535344
1.22509
1.96142
0.467713
0.111184
2.63307
0.0612218
0.102974
0.0780481
0.132525
0.0395045
1.58618
1.75812
3.29034
0.176086
3.50682
0.0269661
0.23356
3.48065
1.78134
1.82983
1.37487
0.286041
3.3539
1.82224
0.113164
0.181334
0.273087
0.358184
0.192097
1.79668
0.896732
0.527348
0.61076
1.21914
0.875176
0.32192
1.30199
0.0242846
0.112583
1.23845
0.68516
0.362676
8.2728
0.309646
2.02475
1.76019
0.0448431
0.0488005
0.0568775
0.0952686
2.01734
1.64334
2.02491
0.236796
0.781915
0.229795
0.410311
0.621758
1.46482
0.217697
0.24534
0.315656
0.0871723
0.0288195
0.014063
0.0595034
2.1761
1.80988
0.252866
0.32475
8.68342
2.90073
3.13554
1.25099
0.148072
0.948095
0.177954
0.692246
1.27093
3.19173
0.122757
0.147696
0.0550788
2.85844
0.744766
2.11836
0.144203
0.175157
1.10505
0.446663
0.0454791
0.0448581
0.0213413
0.0511298
0.280637
2.1456
2.54539
0.23446
2.30904
0.920342
1.64232
2.0462
0.448816
2.02089
0.226711
0.709831
1.50536
2.12936
1.4567
0.065542
0.051005
1.50242
0.207842
0.15198
0.130794
1.18988
0.537743
0.527559
0.0361438
0.518735
0.0384018
0.528224
0.503209
0.508785
0.509191
1.87538
2.68186
0.671638
0.0862291
2.53134
0.552359
0.0603269
0.0861106
0.0857157
0.380856
0.200449
0.384872
3.08616
0.15284
0.160183
0.876957
0.0720424
1.63498
0.0594483
0.109973
4.37984
4.87492
0.0834981
0.0596913
0.0443764
0.0681377
0.197673
0.066865
0.0819138
0.0701705
0.0848425
0.0829284
0.034819
1.28456
0.254037
0.0923166
0.577065
1.66731
0.222381
0.61905
0.0678043
0.252997
2.4765
1.94317
0.796666
0.0517899
2.31336
2.26226
2.25427
2.32026
0.480201
0.198636
0.0191298
0.0792919
1.00167
2.97915
1.27549
0.194305
0.756073
0.257695
0.106086
0.177913
0.25168
2.93756
0.54631
2.43812
0.0288963
0.263342
2.70516
0.922069
0.173612
0.505857
0.182081
1.51214
1.34104
0.87673
0.146921
0.108376
0.125901
0.130706
0.232444
0.327724
0.38135
3.08669
1.94086
1.84606
1.92452
0.724687
0.116668
0.833921
0.119687
2.136
0.889645
0.935648
0.354083
3.66237
0.230862
1.31359
1.68643
0.0816881
0.120349
0.295994
3.63987
2.76258
1.20922
3.2987
1.98539
3.39207
0.366575
0.781017
0.0308503
0.237079
0.477707
9.92856
3.79557
0.445354
2.5549
0.919833
0.24918
0.112317
0.54711
0.0974167
0.11974
0.0591573
1.94003
1.99695
0.873103
1.65446
1.25392
0.0339412
0.168882
0.0505155
0.202107
0.809366
1.52866
10.0836
0.504019
0.320634
0.0305965
0.811962
3.3188
1.45048
0.380671
0.277843
0.0572059