/*--------------------------------*- C++ -*----------------------------------*\
| =========                 |                                                 |
| \\      /  F ield         | OpenFOAM: The Open Source CFD Toolbox           |
|  \\    /   O peration     | Version:  v1912                                 |
|   \\  /    A nd           | Website:  www.openfoam.com                      |
|    \\/     M anipulation  |                                                 |
\*---------------------------------------------------------------------------*/
FoamFile
{
    version     2.0;
    format      ascii;
    class       volScalarField;
    location    "0.76";
    object      p;
}
// * * * * * * * * * * * * * * * * * * * * * * * * * * * * * * * * * * * * * //

dimensions      [0 2 -2 0 0 0 0];


internalField   nonuniform List<scalar> 
5794
(
91.5162
93.2066
89.8244
92.0599
92.6231
91.7405
88.9786
90.3767
88.4073
93.9065
123.964
88.3844
86.7897
91.115
94.5771
93.0222
38.0597
91.984
94.6556
93.471
91.5672
91.4686
87.6638
92.6347
89.61
44.7815
43.8824
92.9269
90.4911
94.0117
91.0829
85.968
104.213
92.7122
88.7231
87.584
97.1179
89.3239
87.0274
90.9109
90.456
92.7378
115.181
89.6404
94.6863
105.528
87.4663
89.8289
93.784
89.8535
92.9469
82.4038
89.4647
93.8064
93.8966
107.792
89.252
88.6316
115.347
39.9305
102.777
93.6551
90.5149
85.8006
103.773
93.5705
89.596
89.8012
91.8282
93.7016
81.5874
89.9321
19.696
90.1711
91.5316
92.9121
91.5898
50.7826
90.0057
93.3556
91.1589
93.1896
90.2785
88.1475
90.4005
91.3437
85.741
109.621
92.3319
89.0186
112.764
88.5624
89.6059
91.3917
91.8062
81.3099
108.528
90.4321
88.8073
103.688
79.7475
86.67
115.351
92.957
95.0577
89.9053
93.6624
125.221
80.7428
90.5294
93.015
94.7517
73.4379
93.447
91.3254
89.7659
94.2934
90.3562
101.92
91.1165
90.1922
93.8002
90.3129
92.8499
94.7017
121.976
88.732
92.1322
84.2929
123.773
91.6877
89.8444
87.2573
54.9976
90.1938
94.5128
115.296
93.7065
93.0503
93.0561
90.5222
94.336
94.7982
94.5524
93.0322
51.4585
90.8924
113.27
93.159
95.1069
119.995
93.8754
90.2376
90.0248
46.9498
86.4232
88.9354
90.8087
105.067
90.628
94.5274
89.9225
93.0602
87.9214
80.7218
82.3823
88.5956
90.6345
93.0667
94.7099
94.3143
82.002
87.7928
89.5452
92.6985
87.7233
94.4819
89.3455
92.8903
84.6536
91.4184
87.9041
89.3297
106.123
89.3431
45.7543
86.4003
105.065
93.8324
86.7769
123.7
86.2573
104.23
91.4772
90.2284
91.8479
90.3143
93.1074
94.7719
113.581
88.3437
81.5943
90.889
90.0632
87.0154
105.16
91.488
125.5
85.8465
87.7344
91.5106
96.1912
87.8967
89.7521
92.4668
88.9213
87.5921
87.8794
124.35
96.8844
96.2825
85.0945
111.419
89.8075
110.15
39.226
90.0212
93.8245
93.5432
94.3855
87.9258
89.9055
92.3442
81.3713
88.6689
51.6154
69.3973
117.895
87.125
91.1605
93.0875
125.58
91.1685
90.6496
89.4131
92.9954
94.7884
93.2762
109.563
90.8401
88.7926
93.4669
43.5772
93.3684
118.338
85.9347
114.278
114.267
125.546
94.6537
115.75
88.1358
90.2533
93.5848
88.5874
90.6453
95.0536
121.42
94.6105
104.592
86.4604
91.185
90.9516
80.7613
97.6047
94.4206
93.7799
90.2981
93.9168
86.2399
93.1448
103.901
90.7
92.5683
90.3704
90.1456
88.3602
92.286
87.001
90.2704
87.6308
89.086
92.3707
93.7764
111.263
54.2656
90.6753
92.6245
88.5643
93.5524
93.2545
79.9801
91.1465
90.0423
89.4774
119.836
93.912
90.2307
103.88
85.9012
91.2904
104.478
90.7217
93.4636
97.0302
99.0519
125.169
92.8972
80.636
91.5549
89.8736
89.0763
90.1332
92.8432
93.0016
84.4513
89.9438
89.9185
88.4373
124.213
82.5223
116.476
91.2346
104.617
86.1219
93.8895
93.9124
93.0872
93.8046
105.316
92.7341
89.563
87.0049
87.4966
94.4412
89.0748
108.244
89.1222
83.1008
88.9306
86.2952
53.2506
104.714
86.8937
90.347
42.3706
94.8474
83.5712
88.6797
90.4306
125.407
87.5081
116.306
88.6343
90.4399
93.4295
81.5274
106.322
88.0521
89.3432
93.9879
93.5728
93.4203
94.0465
125.112
80.6856
108.042
88.7715
90.0385
93.9282
90.537
94.0114
97.4336
87.6585
88.9573
92.8925
90.1592
88.5388
90.2039
88.9605
90.4676
88.3514
93.6653
93.1134
87.9029
89.8217
92.5831
89.256
94.5153
87.9585
92.6398
89.2015
48.6301
92.9877
94.7974
119.231
89.2704
91.7171
93.6134
109.178
89.9077
87.8566
123.103
82.1769
104.847
86.6396
91.2269
93.3257
80.9409
108.741
88.7342
90.4399
124.75
93.955
87.7017
89.2894
92.9049
93.4517
93.2315
91.3076
82.1191
97.439
95.0117
74.4119
94.7811
94.2605
91.3456
89.8957
87.7521
89.3507
92.9639
97.0559
90.2064
92.1872
90.1249
89.5318
91.2858
93.0363
89.2593
90.2015
93.8359
93.4174
82.3076
91.3773
90.3253
93.6387
107.016
84.5432
91.4027
91.9441
91.5691
93.5212
89.4988
93.026
104.628
123.629
47.5465
90.4224
123.422
90.4106
93.6727
78.3838
123.072
93.5263
93.7651
106.208
62.6475
92.6811
90.7573
93.5121
89.8995
91.5269
93.8333
93.6095
125.121
123.475
95.9219
90.2762
52.7778
91.2572
93.28
90.9798
89.9247
93.0597
89.296
93.0636
94.264
94.0238
93.0299
118.624
89.9986
61.9651
99.2243
83.935
94.8231
93.5307
91.6425
113.236
123.121
93.5604
80.5282
93.9128
90.4612
93.7149
93.5604
90.4389
89.4762
93.7631
96.0794
49.2416
91.6681
93.5482
91.9283
90.8901
123.363
93.0933
91.5767
95.0885
93.5059
91.5765
90.0663
93.5535
47.0106
94.0452
93.4119
89.4214
97.1635
113.495
123.452
115.158
91.3349
76.5664
93.337
89.9535
89.874
92.9919
97.6421
94.6064
93.4731
91.5189
93.2869
93.963
94.613
90.124
92.7246
94.8324
89.7504
91.6169
93.5441
93.9307
23.0421
94.2111
120.612
93.8542
90.7123
90.1831
93.0304
89.7065
91.2514
93.5417
105.531
82.4213
81.6722
92.0531
49.378
94.5558
90.5461
89.4509
92.7075
90.4149
90.2428
90.351
122.922
50.0508
83.7692
108.383
93.4761
90.3305
88.7355
108.117
93.561
92.9306
93.7348
88.8122
90.5945
100.577
93.8808
96.7662
93.6977
89.2091
91.056
106.363
91.2821
89.6086
93.6086
123.063
56.588
93.9669
93.8882
91.8228
87.3116
84.6809
91.6083
89.1933
91.2161
88.8587
118.204
123.925
112.446
90.1848
93.5319
123.034
122.365
125.34
93.6356
93.0397
94.0664
93.4465
126.254
93.43
91.3723
93.1485
93.3455
91.6454
93.5534
93.8578
66.663
96.9119
93.4315
93.2114
89.7435
115.82
124.563
88.7015
114.438
89.6714
91.6425
103.745
94.0275
93.8698
92.1045
91.4609
94.0419
89.2742
91.4866
118.988
48.886
89.71
37.3668
93.6297
93.9358
93.8238
91.4377
90.9344
93.4828
91.9448
89.2005
90.2829
88.5358
104.091
117.983
89.2502
41.1386
89.0323
91.3903
91.2405
89.2655
89.7726
90.5976
91.1973
93.088
125.751
93.9106
93.0243
93.9188
114.001
93.1985
94.0341
93.9282
93.7719
91.4261
99.1334
71.2204
91.4433
93.7636
94.0777
125.31
93.4914
91.4521
96.1694
93.788
86.5695
93.4977
114.361
93.9959
116.987
92.7918
93.7971
94.0546
124.63
115.577
92.8541
91.4815
87.1572
123.04
95.0415
98.6938
44.5675
121.181
89.5695
125.432
67.507
113.932
94.093
88.2655
89.2983
112.772
97.7373
124.652
100.165
91.3184
69.16
96.9891
119.542
93.774
89.2533
35.8069
123.185
88.6684
90.0055
110.071
93.7221
91.406
89.2368
89.3167
90.4641
88.7015
106.139
89.1701
97.0636
92.8514
90.7641
93.952
93.6713
91.263
89.5457
98.4199
92.7528
91.7325
107.632
90.0951
71.1497
90.6712
91.7715
89.9812
90.5328
89.3213
111.029
89.4983
90.3638
89.0498
109.086
93.7958
94.0349
93.4462
93.8839
93.11
91.5372
92.8333
91.5153
125.136
47.3289
89.5438
91.6219
93.5391
90.7028
89.5167
125.363
89.3337
90.5884
92.9267
119.202
107.671
88.3139
88.8779
89.7111
93.3303
72.818
91.31
60.547
95.3222
125.267
90.8716
94.0286
92.9771
93.8287
124.722
126.024
117.929
103.933
91.6386
90.4302
91.6026
106.248
95.9608
93.0433
87.1493
105.349
124.908
93.5794
91.6702
89.3075
112.128
50.198
93.4346
97.9329
93.8823
93.5992
93.7853
88.7225
90.3998
107.46
96.6751
94.0464
90.8659
93.6871
93.2761
39.9103
90.0104
93.0632
89.2093
93.668
123.126
93.1107
98.6508
93.6083
90.6985
104.267
97.1166
78.2617
91.1965
89.1454
91.4439
89.0025
121.095
121.513
49.8833
89.9801
93.6214
93.8716
104.447
93.906
90.7261
93.4306
101.146
91.4749
75.4104
123.069
93.9949
92.8316
93.0448
96.4562
120.404
91.6267
57.6217
93.9019
94.0313
60.1096
107.303
96.1177
89.4166
90.6139
124.086
113.83
93.6118
94.0352
87.2444
121.92
91.0443
97.0344
121.458
90.4954
91.544
89.9692
89.9394
97.2784
93.1057
91.2578
93.2248
93.8539
93.5167
93.9855
93.5905
91.6493
118.93
93.5662
96.8546
93.5433
90.4429
89.6079
92.0349
94.2601
123.164
123.391
57.6956
90.3202
90.0073
97.172
93.503
53.5017
103.568
84.7648
116.78
90.7258
88.677
91.8017
90.894
89.4287
104.905
89.3968
89.3339
89.3041
91.3579
93.7821
116.789
94.5342
91.0605
109.391
88.6526
90.4934
94.5588
111.205
93.5822
91.7206
93.3934
93.517
84.1538
124.779
108.852
97.0847
90.5884
76.7354
93.3843
91.3339
82.6176
45.5797
97.5139
89.2737
101.016
94.0002
93.7663
92.3961
93.7787
89.0038
91.3099
93.5945
93.5791
90.9998
93.9743
93.5517
93.656
93.8774
96.8528
92.3514
97.7218
93.9334
93.5306
109.073
97.4143
90.7441
92.4782
88.2589
93.4548
124.096
99.3409
90.1138
93.9336
89.8058
123.005
93.8972
97.112
91.0091
94.0317
97.1047
70.0016
96.3359
87.027
101.779
93.6793
97.7907
91.9387
94.3881
110.124
72.7512
91.0192
100.538
92.9212
91.102
93.5352
93.0091
102.002
105.756
48.1409
78.7828
92.701
93.3683
91.1362
90.5168
88.1692
103.44
113.594
93.6745
91.509
93.5018
90.6607
97.3205
94.7279
95.5079
92.5767
96.7947
97.4453
98.4619
93.2104
93.1469
91.5185
93.3544
93.2716
123.156
93.7082
97.0111
90.2577
93.585
93.7671
94.0249
89.0948
125.05
93.5978
125.438
93.4614
98.9042
125.201
93.7915
91.9427
109.494
93.463
92.9461
91.1874
93.7673
89.8135
89.2671
91.6699
93.5074
89.4198
93.8574
93.5559
96.3617
93.8868
93.8779
92.6666
89.2223
87.6803
96.3832
105.134
102.987
89.0441
90.9362
93.9271
93.7903
91.1694
92.7707
90.4463
90.3976
93.9686
117.064
93.6305
91.3781
93.9296
122.876
93.9167
83.6996
90.6924
93.4564
97.9497
90.5662
93.0738
89.0958
94.9342
96.7907
97.3011
93.4723
97.7945
93.3906
93.4704
89.6046
93.5384
91.6402
91.2995
94.0795
124.197
94.4113
55.8557
93.9417
91.6821
93.5112
97.0233
92.1998
101.104
94.1068
92.2062
95.9719
103.079
85.4895
92.2563
93.4029
93.5392
91.1473
91.4068
93.3228
97.1653
93.9062
93.9456
119.576
113.192
92.0902
101.964
100.971
93.7853
90.5929
87.8376
93.7188
31.5451
97.3914
93.6563
94.0758
123.061
123.331
94.1417
93.0438
91.3812
90.204
89.9482
93.6176
91.7231
89.6911
90.4328
92.8391
90.5179
90.9572
93.8506
89.088
90.046
91.1912
94.1625
93.4799
89.1628
91.466
87.0862
89.8414
91.3641
102.9
103.955
98.2081
94.9586
97.0016
102.775
94.1235
90.6819
94.5571
104.484
99.6201
93.1684
91.2635
115.439
92.8963
117.48
90.2434
89.1532
102.394
89.2208
115.862
105.867
90.999
89.3275
97.2528
111.776
93.8232
91.4167
93.3104
55.5075
93.6431
93.9112
89.1706
91.6178
93.5546
98.1761
93.8009
116.098
92.6477
89.7137
100.647
90.6183
87.3607
93.9251
93.8537
91.1952
88.8811
122.851
124.43
89.4343
97.1784
93.4228
91.8547
89.5671
86.155
103.972
125.758
114.996
97.6546
93.4544
93.4693
93.1333
90.5194
97.0164
89.7519
88.885
89.311
93.8699
91.8623
75.9106
92.3858
54.278
90.9442
93.4952
114.218
98.0148
93.1591
93.8519
96.5207
90.0551
94.1051
93.7001
92.8577
91.6127
93.5186
89.5
89.617
92.9032
93.6256
92.8023
90.7157
89.118
78.598
89.3035
118.548
96.3968
89.9019
94.0775
91.7049
109.178
89.518
90.2097
90.6775
93.1502
124.577
51.5231
89.4026
93.7666
93.9939
84.2176
94.077
90.9413
91.8325
92.3385
89.195
91.0766
90.6661
90.4946
93.9228
94.0848
93.4103
96.9524
90.3722
94.0291
90.8727
110.644
97.7169
124.322
123.75
91.2077
93.8653
91.8818
94.0869
125.101
90.0573
88.5939
90.9495
93.7422
94.7135
93.4489
89.3984
91.5544
90.3306
93.8925
91.121
94.0457
41.2873
89.0394
36.5363
49.1701
90.6304
96.7877
93.8918
90.4368
93.0421
91.2371
90.3379
90.7023
92.9843
85.6561
103.684
102.879
90.3663
91.7126
86.9218
87.2471
93.4498
93.9835
90.9785
124.433
93.9147
90.358
93.9441
93.8692
91.004
112.753
93.0489
90.5506
89.5134
90.9251
88.3627
89.283
93.7622
93.8913
97.0494
90.3536
130.028
124.02
93.5469
40.3953
124.717
91.6393
89.8868
94.0276
101.883
94.0287
93.4568
91.5293
89.4165
10.9173
97.7524
90.955
86.1832
109.963
55.6726
114.119
89.4041
91.4163
93.4292
91.1111
93.0542
89.5072
89.7677
93.4746
89.8716
93.0236
93.0295
90.2972
89.4844
91.3242
93.3289
93.0682
89.5432
89.7568
93.0583
89.4276
90.2824
91.4978
93.3979
93.7889
93.0515
89.194
90.6714
91.1022
93.0268
91.1886
89.4972
90.3575
93.3494
91.549
93.4591
91.3007
93.0051
89.4032
93.3918
93.0331
91.0737
93.5627
90.4736
89.4555
88.0323
86.3765
55.5324
94.0163
92.7271
101.695
92.3848
93.3612
93.9806
93.7746
94.3567
93.9628
90.1283
90.7487
49.003
90.2463
90.5021
90.0835
93.8858
93.8732
93.9715
91.0246
91.2257
90.8307
94.0965
89.6548
89.03
92.9495
123.26
94.3495
90.7648
89.8043
88.8713
45.2505
94.0089
88.9164
90.0987
105.89
92.3661
90.313
89.8198
91.6979
119.268
93.7815
89.9535
89.9138
91.4913
96.5172
95.7797
11.657
94.0438
90.3409
93.0644
92.532
93.702
93.9855
139.431
91.6498
93.3994
93.0293
89.7756
89.4348
91.1911
89.8003
93.0544
93.4474
91.0953
93.0172
89.502
90.4055
93.6603
89.3555
91.0694
89.4512
90.2526
93.346
93.0663
91.4294
91.4918
89.4318
93.449
100.103
88.7508
125.617
108.79
90.3761
96.5168
91.9824
93.7175
119.119
93.4719
93.4598
129.092
93.8578
90.5278
94.0005
93.9171
117.44
93.8146
73.0795
91.8323
94.9269
93.8265
93.0342
97.9672
93.9742
93.2974
97.8307
93.5387
94.0901
89.8113
93.0038
91.3327
94.0048
92.1198
88.2271
94.1011
91.3065
93.7475
91.4612
90.9602
93.8131
93.918
90.8088
93.9841
94.0107
93.8635
94.0488
92.4172
97.4614
90.5088
86.7201
91.3054
90.8523
81.0998
93.9138
97.1105
106.618
91.0848
121.938
89.1222
93.4935
95.1034
90.0598
93.5279
97.3775
94.0539
93.066
90.4264
90.153
93.5409
91.1802
93.7218
93.8495
91.1722
90.8138
93.8071
93.8938
93.4132
95.8864
93.0302
93.5528
87.8031
93.0158
93.6836
92.0232
94.0625
89.3469
93.841
89.3782
93.7598
92.0543
115.86
91.1527
89.4503
91.1835
93.4691
90.9645
93.3852
94.11
89.9445
91.7483
93.8531
112.715
90.504
94.2555
92.6334
89.9277
118.463
117.82
91.2708
94.4143
90.663
99.3134
93.9919
107.523
94.3102
141.927
89.752
86.4339
104.33
114.973
86.3739
88.2296
89.773
130.018
88.0182
108.233
89.9871
131.808
89.9041
88.9765
29.3511
89.8837
91.1369
91.2565
93.2743
91.1169
89.4207
95.2293
90.944
93.6477
89.2214
90.3712
90.1415
88.8606
88.8348
90.3846
88.8775
89.7246
94.0524
90.2833
90.937
88.9466
89.0299
90.5489
88.8976
91.5716
91.4415
91.694
89.0473
88.5171
90.1239
47.0189
88.9051
90.926
90.6979
88.2303
94.0029
93.9541
89.5294
89.7916
92.2917
94.0598
94.11
88.9305
89.6889
88.8089
88.5126
90.699
87.5868
90.444
90.9567
90.3482
89.2382
120.462
90.9264
89.8378
94.0673
89.3901
94.0175
88.7915
94.0412
88.0368
94.0833
93.9568
90.6049
87.5431
90.3814
87.8027
90.5467
94.2699
107.612
94.2605
87.6368
86.0719
88.4897
105.349
80.904
94.2357
107.259
105.49
86.4608
81.9303
93.0068
94.4898
80.5878
103.798
109.836
94.1909
88.7076
107.422
80.5898
106.413
94.4197
94.3462
94.5489
85.8605
89.4984
51.4241
94.3087
88.2944
89.3005
94.2061
85.7467
93.0454
89.3558
105.297
103.905
87.7965
51.4703
80.1621
94.5723
80.3286
94.1274
88.7863
87.534
92.9627
107.052
89.9477
51.1564
87.6348
88.7072
92.9374
80.2973
48.2293
94.7071
146.298
80.9659
89.6809
87.559
88.5086
94.7622
89.4746
103.866
86.0609
81.2089
47.9577
47.9273
89.1355
88.6998
90.1329
90.777
90.8158
92.6623
93.0773
84.9609
90.9391
89.1476
93.6893
123.903
88.2105
89.6814
90.9008
87.8409
90.6202
94.1046
91.0344
92.5618
89.3081
90.2845
90.8969
92.3229
92.509
87.5513
88.6322
94.8118
92.6567
90.5813
90.3812
93.8325
93.6733
88.8557
88.5119
91.7086
91.0561
93.9784
88.8202
86.2985
104.035
91.2288
87.6508
90.3403
91.0843
94.1153
93.8878
88.9379
92.5102
93.5067
93.412
88.5054
91.012
90.4785
47.3586
94.0658
90.3249
92.7194
94.224
90.9625
90.4444
89.0913
94.1037
92.2261
93.8847
93.3178
92.8777
91.1326
90.2687
94.5184
90.8355
94.0657
92.4242
94.1042
94.1013
90.176
90.3228
90.5167
95.0089
94.0744
91.5343
92.6287
90.2593
90.5048
91.1553
93.5326
89.2578
90.9367
94.1456
86.5038
88.1444
104.115
88.2338
90.4868
91.3465
94.0756
94.0698
124.169
84.0113
88.3624
90.2898
94.261
90.0036
89.0049
92.3844
87.6328
94.3566
93.0974
94.3116
46.0538
115.956
92.1916
90.1822
88.0353
94.9409
89.3556
90.9484
93.3846
124.4
88.6141
90.1857
89.6357
93.0752
89.4005
90.9938
93.3033
105.097
87.4831
87.5861
124.625
85.006
88.8523
90.047
88.9851
44.412
115.819
92.1164
87.8432
89.5264
89.0823
94.9933
89.6845
91.3152
84.2525
86.1819
93.0032
89.3973
91.0221
93.2741
88.7966
89.0314
91.7731
124.468
85.682
93.02
44.6981
48.9069
89.9635
115.81
89.2317
91.2507
89.2168
89.8428
95.044
95.016
88.0712
84.8486
93.0206
89.8027
89.4817
107.369
87.8353
113.289
88.7913
89.9604
91.4004
93.7673
93.7579
89.001
89.0245
88.9272
88.8755
92.068
87.9664
88.9297
90.8071
84.9992
93.0539
89.3837
91.0992
93.2177
88.9506
107.21
88.159
124.652
88.7466
88.4617
89.8613
88.8327
89.9137
90.642
90.7862
93.0276
47.2911
89.9077
99.5627
90.9624
95.379
115.77
95.3158
93.973
92.1596
90.0953
90.3311
88.0555
90.6119
87.6198
94.5464
95.0408
88.8104
99.8306
93.8216
92.1862
90.6204
88.7269
88.722
90.4439
92.3519
92.0332
93.028
89.3951
91.2216
93.2465
89.0969
90.6277
93.7607
93.9864
94.4096
95.0158
118.803
94.0314
93.1387
88.8771
89.8225
90.6519
93.0322
43.759
89.8616
94.061
93.7611
95.1855
96.4897
88.5465
89.9122
95.6424
89.8549
91.1449
90.0443
87.1525
93.6319
97.542
94.0668
94.0116
94.0222
93.7089
89.168
89.9499
89.6142
92.1468
88.0189
89.7094
93.0994
89.9909
89.1205
95.0923
93.7579
125.367
94.0777
94.1822
84.1538
88.724
89.1648
89.0343
85.9365
93.2609
90.3961
89.6039
89.6444
88.8175
93.8929
89.3724
91.2275
93.227
94.0874
94.0733
94.0877
90.7537
109.321
88.6177
92.1803
92.0357
90.4805
92.132
90.6158
91.7054
92.7123
91.4678
92.8257
88.7409
98.2005
89.5468
90.0045
97.1161
94.0004
118.104
91.8274
92.4021
90.5116
124.78
90.6628
88.9653
89.7757
93.8453
84.9353
90.717
89.4382
93.9855
93.033
89.0336
89.1377
89.776
89.5523
91.0059
93.3541
123.583
89.736
90.8094
93.7944
94.0586
92.6418
94.0447
94.0368
90.0331
89.3886
93.2331
93.1283
94.1098
92.2371
89.8634
89.0965
93.8329
90.6578
89.1092
91.6388
89.0414
90.1434
93.5012
115.76
116.614
94.0033
89.3803
91.9755
89.2225
116.05
91.9471
90.5838
93.3639
90.7512
117.048
90.1855
91.9292
85.9009
88.5131
89.8722
91.0966
93.3445
93.998
89.1335
92.3381
88.8782
95.2767
89.5734
93.9185
124.374
89.6241
94.1129
89.9348
89.9661
90.4722
89.7911
92.9825
92.2471
91.8518
90.599
90.3107
88.8906
88.8578
96.9599
90.4585
95.1019
89.8771
93.9854
91.9692
90.5365
89.3844
91.3576
93.2755
93.7118
81.9535
89.0233
89.4403
93.5662
93.1263
88.5817
81.9482
93.0336
93.1956
91.5521
93.0664
89.5865
96.339
90.7249
91.6369
89.5965
89.561
94.0822
88.9183
101.595
92.0835
127.477
89.1215
89.2347
90.7112
93.9292
90.1308
93.0469
89.9608
90.0293
89.8738
118.921
89.7249
108.71
89.3851
94.0624
93.1776
88.9928
89.2061
93.6946
105.534
89.4453
95.3366
100.719
106.251
91.691
93.3844
91.0659
89.4616
90.9775
93.7225
124.901
87.6712
90.0151
86.0774
90.9556
53.2388
94.1165
88.913
89.7395
89.3437
93.5352
89.3307
81.4854
91.1195
93.6765
91.0563
94.0434
94.0647
89.7723
91.4522
89.6092
89.0231
47.0746
90.8444
92.0297
110.458
91.8279
82.588
94.043
37.7146
102.088
93.7574
94.1844
92.7475
93.9598
124.327
90.3094
89.5849
94.027
132.096
93.7098
89.4889
91.3606
93.5079
90.8248
93.8663
91.8432
93.9804
91.3924
91.4952
90.7244
117.056
88.8488
89.3859
88.9785
93.5987
92.5535
93.0281
93.9486
93.792
92.8803
90.433
136.237
94.1722
89.733
91.0348
89.7111
91.3571
90.4675
123.132
93.9737
89.5204
93.9331
93.0337
70.4467
123.703
93.9005
93.9098
91.6725
95.0509
98.8378
94.5591
89.8494
90.0162
97.0239
88.9009
90.0781
90.4764
94.0474
93.801
99.9903
89.6097
89.7189
89.6947
85.6339
89.4342
89.6695
92.9233
90.042
93.8738
89.8758
94.1244
94.0651
91.0478
95.3172
89.7176
90.1878
91.0832
89.8419
93.544
90.2236
100.241
89.8633
88.8791
92.3864
90.5905
88.6634
93.9746
94.7981
95.8432
96.8811
89.5419
91.4133
93.284
77.4787
91.1256
91.0318
93.7125
89.1226
112.194
89.7336
88.8316
90.237
101.054
88.5631
89.7485
89.333
91.5561
93.586
90.064
110.689
89.0106
90.0558
90.0071
89.4728
89.5549
93.759
91.9157
90.6407
89.9454
89.2614
109.404
93.0203
94.9396
94.379
89.3643
91.3774
93.2675
88.2079
93.9843
90.028
94.5007
94.0291
91.1639
90.1251
91.7071
90.7333
87.784
89.36
91.8636
94.0698
94.538
94.6775
93.7253
90.5999
89.385
91.471
93.3336
132.216
107.349
90.7604
90.5332
100.127
108.294
107.944
91.4415
92.7609
93.0013
90.4908
93.0558
94.104
94.6982
123.97
90.9635
94.1279
87.9015
87.9133
105.779
93.7444
91.0273
93.3763
88.9998
92.5551
90.78
91.3521
88.7162
49.3203
71.794
94.0329
89.0635
92.4403
88.21
93.2092
93.6749
100.084
94.9124
115.575
90.3285
92.8531
90.8414
93.3881
91.8078
93.872
90.4753
90.6461
89.3706
98.3337
93.034
92.1959
90.4248
123.136
93.7162
89.3249
84.8818
91.9518
123.264
124.198
92.8033
90.1993
91.5921
93.4576
89.3898
89.9565
20.7499
93.4947
118.557
85.3284
94.0348
94.0193
93.9788
122.406
87.6113
89.3965
91.5309
93.3675
94.0646
114.311
90.8748
88.4597
93.8759
93.7981
93.9178
93.4881
91.1103
90.8623
96.8856
123.575
102.758
94.0416
93.8879
91.6821
90.9265
90.002
93
93.0725
90.3577
94.0136
94.3935
94.0341
91.5263
91.4131
116.984
91.0161
94.0365
96.8776
89.2279
44.3237
90.6837
91.699
89.3722
91.5028
93.3411
104.396
93.5054
89.3673
88.8293
93.4783
92.4169
93.5803
93.538
92.9955
93.4724
93.8636
90.7042
90.0808
93.2455
92.1453
92.9905
89.9296
89.8122
89.8109
92.9751
95.3221
92.4878
90.7038
93.5245
96.9233
93.9617
90.889
90.9185
116.899
118.66
89.5944
94.0375
92.7009
94.1095
93.9823
89.9195
92.2782
92.681
94.6961
93.9445
100.256
93.7378
89.6724
90.9951
92.6293
90.7338
94.0571
87.1836
92.4667
89.538
110.127
93.5185
89.8755
92.9831
93.7244
89.8172
87.295
89.5041
91.6412
89.9225
93.8086
93.9132
81.8068
99.2603
94.1406
94.2615
93.6648
91.1422
92.7845
91.2883
90.778
97.1964
96.9195
93.9748
90.5237
95.1545
93.9674
91.208
90.8716
94.0378
89.5281
93.4724
91.7008
93.5213
93.8553
94.656
92.9676
90.2821
90.5896
97.4786
89.4111
91.5072
93.5084
91.864
94.378
93.3998
90.4629
93.7772
90.7574
91.372
91.9055
123.712
88.9423
40.5598
93.4668
90.5124
90.1826
91.6556
89.9297
91.6008
93.4472
94.0114
91.6325
93.4752
97.108
93.4158
114.946
93.7208
93.0095
90.2193
89.5923
115.633
90.9883
93.8974
93.0385
93.0348
114.958
88.0675
90.5084
92.2209
89.4168
125.264
95.838
89.1867
93.8908
105.861
81.2082
93.5306
89.6323
93.4269
92.8917
89.5564
89.4817
91.6446
93.5415
89.7253
93.3961
90.2308
89.1997
90.9348
93.6728
94.0204
90.9375
88.8599
91.0686
93.3241
93.9424
93.8775
89.7024
89.8987
91.0879
93.6216
87.8807
94.0345
113.954
89.5149
92.6043
89.9673
35.3952
91.6581
120.532
94.0732
89.7013
91.7412
90.9362
93.8335
93.032
89.6038
94.0089
90.1586
92.3974
94.042
116.406
90.8665
87.0465
93.1675
91.593
125.663
91.3766
89.2027
94.0998
90.8066
90.9853
95.0688
93.8548
92.8565
89.387
91.5803
93.4212
91.6121
89.5201
93.4667
91.8848
93.779
82.6469
89.0742
88.8733
89.6993
55.946
97.2152
105.952
90.6757
89.8847
123.752
67.6649
110.047
95.0203
89.3901
91.5451
93.4048
92.6542
101.141
89.4013
91.2393
93.3439
93.9912
92.9566
117.632
128.413
88.3648
109.658
95.7785
122.973
93.1367
90.8937
91.2506
91.7431
87.4212
94.2043
108.85
92.0262
93.3314
93.0007
94.0922
123.576
90.4384
110.605
91.4833
89.0737
89.7449
88.977
94.8914
94.1165
91.2624
89.3584
93.2374
94.0614
90.306
92.4085
90.715
91.4102
90.0263
94.2128
92.6421
97.8489
38.8016
123.174
93.6771
94.108
93.8486
92.0979
92.6412
90.4444
89.8791
93.7925
93.7615
90.7527
91.5231
108.046
89.8901
87.7315
107.343
91.4314
93.1083
94.0125
97.6846
33.6582
89.8868
85.8865
103.749
89.6821
93.5759
98.6389
96.7899
93.494
89.3483
94.2324
89.4854
125.496
93.8723
91.8691
93.8586
98.2782
42.589
90.2438
92.9403
91.1342
93.0598
89.7528
87.9173
93.8944
107.146
90.7495
93.8519
92.9188
115.175
92.1347
91.5274
90.2618
90.9125
93.0768
90.2744
93.9244
93.8517
93.589
91.6527
106.584
90.583
105.955
88.9447
90.5955
93.7869
90.0978
125.062
94.0645
93.982
100.164
111.039
92.0632
89.2391
90.32
93.0683
90.3103
89.4541
122.398
91.0621
93.7595
92.7293
90.9421
93.6129
121.712
122.954
90.7757
90.0155
93.8935
93.9526
92.9114
90.3249
88.3189
93.5467
93.9451
93.3378
94.0271
94.0845
92.379
78.2768
89.5802
122.785
92.7906
90.8471
93.2352
91.1198
91.078
117.151
93.8764
92.9646
115.383
93.3309
112.241
106.157
93.9954
122.232
93.8077
123.015
93.6903
93.0815
90.624
99.4407
90.9514
103.672
87.9151
98.3479
26.9136
94.0468
121.361
90.2297
101.857
89.3918
102.927
90.7835
122.012
122.879
91.6926
107.305
93.2933
89.2975
91.6001
93.5285
90.9849
93.03
103.461
94.0083
105.277
103.695
93.9759
92.9644
90.73
124.252
88.9218
89.6084
92.938
96.9938
92.9785
97.2364
97.6118
94.1283
107.127
90.9614
92.471
89.4922
88.9908
93.7756
105.447
123.337
91.3075
110.238
101.863
88.4814
94.044
94.051
93.8714
93.9193
93.9247
123.068
96.6929
88.928
93.8253
89.091
110.836
87.8028
91.0579
90.1216
89.253
89.8107
92.3931
90.8758
89.7155
94.7511
90.9087
91.2877
91.7225
90.59
92.5039
108.702
99.0006
93.7768
93.8872
93.9474
90.5324
104.515
89.9232
90.9008
89.9888
94.0353
91.5046
88.5929
89.5991
49.1275
92.9875
93.907
97.4916
91.452
89.3766
93.3433
122.748
93.8407
115.63
93.5355
92.8144
81.419
90.2445
93.8021
93.3699
93.1334
100.869
91.3495
110.446
89.6517
91.6962
93.5499
89.9024
92.5558
90.029
56.0634
54.5591
90.8107
93.0604
89.6509
90.8895
93.4823
91.5917
89.3618
93.6592
91.5348
89.1987
89.2434
88.8395
89.7705
88.8131
89.807
125.459
90.3917
90.7851
87.1419
90.3085
102.866
93.2741
91.706
92.0283
93.5591
112.073
92.4738
89.7543
91.1926
87.6576
44.4132
91.2348
93.7516
105.613
123.851
94.2404
93.62
93.6121
91.6077
90.7635
90.4932
91.2731
93.5968
94.0805
91.1081
91.3245
89.363
93.2843
89.8089
92.9628
89.9429
107.846
90.6153
88.446
95.1442
93.0219
91.1423
90.1372
93.4989
103.713
85.8111
90.7407
89.296
91.3174
94.5886
89.6697
88.4194
87.5286
99.2332
93.2439
110.202
120.133
140.114
93.9545
93.3785
125.705
89.0472
92.8055
94.6459
119.957
93.3727
96.327
9.68681
97.3462
91.5022
90.8578
93.5587
91.5413
93.4167
89.4096
91.7398
92.1247
86.2355
94.0911
90.9988
96.4609
91.0766
125.153
89.599
110.278
88.1315
90.6326
89.4239
91.6625
93.4773
93.4517
86.8136
91.4702
89.3441
93.1292
33.1449
112.506
91.7529
91.5621
94.4523
93.4157
88.0796
93.2374
92.4903
86.1133
94.7085
94.6113
93.6767
93.6566
94.1528
89.8976
90.1067
92.322
89.0589
116.516
93.1941
91.3298
92.9322
91.2041
97.7276
104.658
92.3553
96.5696
90.3425
88.5733
90.3791
91.7389
88.4989
91.4806
92.5399
90.8467
90.3834
94.1173
125.312
91.6447
93.4957
124.706
94.1154
93.4616
94.0884
79.5093
98.4366
98.2036
93.5972
95.6225
93.5828
95.7628
95.8977
99.1607
97.3089
94.6727
92.6831
89.15
92.9343
91.7048
102.014
93.7649
93.134
93.8825
89.9923
89.511
97.9408
94.0831
92.9034
89.2156
93.7002
93.0234
89.7224
93.2635
94.0323
95.9564
50.3728
89.4464
91.6476
93.5045
89.9316
92.9798
91.2377
89.4009
93.283
91.7065
89.5793
93.5105
121.63
94.0516
94.0393
91.3373
91.2814
90.8013
96.6962
89.1117
91.0177
93.8089
89.0269
90.4376
93.4433
93.6229
113.158
110.154
91.5337
88.4914
91.0434
93.9162
93.9378
91.5077
89.5132
123.757
98.416
88.6933
114.146
93.7625
90.2115
88.3148
92.4304
93.6737
80.122
93.8542
98.8767
88.6083
90.7113
93.495
95.6424
93.6751
85.2366
127.34
89.2716
93.7969
94.0962
93.965
93.9328
112.375
122.542
94.022
93.2139
88.8274
107.746
89.8352
88.7736
94.094
92.578
89.3656
89.4852
91.2782
88.7966
89.5829
93.7994
90.1064
85.7834
103.719
94.0442
94.0774
88.23
90.1723
89.1658
99.8613
90.1714
88.8085
90.9608
89.6589
92.8517
93.6332
96.9653
89.9741
17.2736
95.599
89.6009
89.3408
91.074
89.2307
93.0254
88.5421
94.0877
91.0992
93.5797
92.4579
94.4536
120.933
90.9158
123.578
92.7806
89.5666
93.9977
92.4998
90.6903
89.7599
51.8034
115.775
97.1545
93.8558
90.5148
90.29
82.2858
84.7907
93.4277
91.5402
97.2209
96.8691
90.933
93.6293
44.3996
93.3962
89.4015
91.5143
89.8165
88.8292
89.804
91.423
89.4334
51.4397
90.8285
90.2542
90.1194
93.1796
91.3718
89.2663
87.8442
93.4738
95.6212
107.638
93.652
90.8473
90.9486
90.9554
88.4452
88.1185
94.1095
125.676
116.377
94.6595
80.1655
90.8663
91.6499
89.5082
93.4911
92.4621
115.503
93.4101
98.0816
90.5362
90.5884
89.4718
91.4106
97.7536
89.7378
110.335
90.1616
87.6394
91.1236
93.2539
125.34
93.8344
89.5071
88.1719
94.9232
91.1459
84.5816
43.5035
106.284
90.1483
93.0817
87.816
89.7379
92.1798
89.2027
90.947
92.9069
93.6016
93.5288
91.6747
124.798
91.4138
91.7402
92.7136
94.0844
52.3034
89.9723
88.4525
108.271
90.0788
93.7492
94.9849
97.1277
89.578
93.5255
91.6913
89.4355
92.9747
89.8371
88.4801
122.735
92.8719
93.6201
93.4639
90.9852
89.3595
87.8169
92.978
93.0658
88.7187
91.0198
94.309
97.4316
91.4755
93.1902
114.441
66.4799
93.152
53.4668
92.8563
89.5192
83.3701
82.0134
91.5157
94.9751
75.348
94.0431
116.488
90.7232
87.2422
110.647
121.788
114.47
93.4131
94.084
94.0537
90.9235
88.7513
81.125
87.9342
89.5877
93.0395
105.039
104.618
98.8851
87.9093
92.3317
87.9035
97.3543
94.0378
93.5458
93.4234
93.3689
91.334
122.669
88.6217
88.687
88.8358
95.9354
88.8821
90.8693
87.2457
93.9499
91.2007
89.3783
93.257
90.4716
88.425
93.1074
90.6636
92.5289
85.4244
89.1572
90.1376
90.0011
93.9683
105.829
93.0324
90.4221
90.6055
93.0223
111.361
119.686
93.0891
93.8986
113.599
90.256
99.0392
93.167
91.6265
91.0415
93.2607
91.5378
94.0238
94.079
92.1146
94.1291
93.7392
124.26
94.2867
93.4912
93.7229
93.5813
90.5432
93.8966
84.902
90.4285
93.0438
96.7904
118.635
90.6503
88.7971
89.7427
88.7784
92.3027
90.3473
93.2238
91.9479
94.8724
93.8525
90.3062
93.0525
51.4355
89.8651
123.264
93.8338
93.3905
91.9556
121.261
90.1265
51.4814
97.5144
93.6901
94.0262
93.7966
93.7687
93.5408
91.661
89.3762
93.9092
89.2145
91.6988
93.4926
90.8629
93.7844
97.5758
123.955
92.3193
90.4933
90.8456
93.0067
93.683
89.7104
104.304
86.079
90.4361
96.9469
90.7079
95.6848
90
96.9745
116.03
93.503
94.464
94.0578
88.815
125.391
87.667
94.0186
86.8616
88.6407
92.5531
93.0652
92.9006
123.845
98.7625
93.5185
91.6872
89.3345
97.3411
93.8928
89.7258
88.7645
94.0356
93.4081
90.6811
46.5527
92.6145
90.5815
107.968
125.198
90.2913
93.7466
93.4671
123.271
91.1367
95.7772
90.5529
37.1189
56.755
94.0025
48.8412
93.4712
36.34
88.8273
108.09
89.4608
90.303
93.6411
93.6354
93.6123
93.6285
91.7758
91.7357
91.8093
91.8523
93.6537
91.941
62.6064
91.5362
91.1524
90.5437
90.7981
56.3278
91.914
90.0994
89.199
90.6922
89.9796
88.7263
68.0167
49.1083
88.5278
76.9208
72.5438
88.7967
91.9677
89.6035
90.2173
89.8411
89.5192
89.2306
92.101
90.6458
90.9255
93.6721
89.8628
88.9298
90.7282
89.1133
91.0305
93.4197
110.013
111.269
91.6887
95.0573
92.3638
89.1663
91.3689
97.2502
109.719
114.011
103.024
100.184
117.957
121.976