/*--------------------------------*- C++ -*----------------------------------*\
| =========                 |                                                 |
| \\      /  F ield         | OpenFOAM: The Open Source CFD Toolbox           |
|  \\    /   O peration     | Version:  v1912                                 |
|   \\  /    A nd           | Website:  www.openfoam.com                      |
|    \\/     M anipulation  |                                                 |
\*---------------------------------------------------------------------------*/
FoamFile
{
    version     2.0;
    format      ascii;
    class       volScalarField;
    location    "0.85";
    object      k;
}
// * * * * * * * * * * * * * * * * * * * * * * * * * * * * * * * * * * * * * //

dimensions      [0 2 -2 0 0 0 0];


internalField   nonuniform List<scalar> 
1466
(
0.316158
0.910896
0.363321
2.08468
0.283738
0.76575
0.233442
0.959537
0.277869
1.10845
1.41571
1.05969
0.21725
0.24502
1.29162
2.37961
0.711977
1.06615
2.48151
1.59939
2.59555
2.45446
1.90413
1.39901
0.248028
0.634665
1.59385
1.98431
0.20866
1.41925
1.64989
0.692784
0.409701
3.39457
2.00631
1.11745
3.47366
0.784544
1.39413
0.1164
0.146903
1.15925
1.26487
0.158281
0.107667
0.539953
1.29514
0.15982
0.919539
0.178268
0.453983
0.925542
0.735251
0.206789
0.36331
0.27611
0.383155
1.22874
0.24649
1.12332
1.0968
0.263244
0.164593
1.07986
2.22255
0.925379
3.8397
1.54322
0.864861
0.325089
2.17866
1.36876
0.956121
0.263849
0.784119
1.47887
0.259086
0.158086
0.517646
1.70384
1.37774
2.08039
0.362236
1.7164
2.40171
2.95675
2.91571
1.60469
1.35391
1.1632
0.820061
1.55221
2.46491
0.211645
0.645418
0.366205
0.842938
1.20091
0.280621
0.207666
0.61623
0.336513
0.14422
1.21283
1.46063
1.17854
0.780636
0.179657
1.29153
0.336768
0.97008
1.78327
0.366136
1.14339
0.989682
1.23231
1.30949
0.883576
0.200518
0.143527
2.68293
0.286715
0.147196
0.182296
0.112556
1.09656
1.10959
1.9024
1.39549
1.26734
1.21098
1.09587
1.77427
1.32448
0.911538
0.145252
0.117125
0.533386
0.160342
0.124159
0.215512
2.20963
1.97856
1.94403
2.55378
3.65456
0.696292
1.02047
1.58097
1.82178
0.912591
1.12709
0.996803
0.433409
1.45567
2.4161
1.78843
2.48265
0.76411
1.05434
0.674221
1.44932
1.46283
2.12265
3.00438
1.76325
1.75684
2.20012
2.36919
1.18592
2.55511
0.515395
0.168159
0.908481
0.588922
0.268526
1.23875
1.66093
0.884349
2.23734
0.285576
1.11536
2.79584
0.140694
1.60579
3.05379
2.49096
1.21273
0.885848
0.755429
2.75881
1.16758
2.32973
3.98222
0.960027
1.10077
0.270012
2.41226
2.93546
4.03806
1.6485
1.42265
1.26041
1.48684
1.9037
2.8826
3.0348
0.823557
0.758999
1.53624
2.22534
2.18664
2.58334
2.35403
2.7707
2.10025
3.11317
2.56743
1.4451
1.61425
2.08796
1.26733
2.1876
1.25954
2.27551
2.27392
2.14723
0.199106
0.893378
1.23656
1.61903
1.66736
4.29484
3.98463
0.700026
2.53749
1.89347
2.09455
1.03114
2.70127
1.15511
1.65582
1.12414
4.14342
0.86389
1.33166
0.674358
0.261822
1.75985
1.00476
2.99188
2.4124
0.754178
1.35548
0.523459
0.996482
1.66466
0.371885
1.31761
1.63893
1.1322
1.68881
1.29067
1.21633
1.59831
0.139327
0.641799
1.52218
2.44426
0.393958
1.72507
1.48245
0.828467
0.761955
0.863749
1.4051
1.07581
1.66662
2.48844
1.63161
1.13973
2.00846
2.0984
1.48102
2.5648
0.191491
1.69589
1.65265
0.252972
0.610071
0.656705
0.269441
0.253621
0.308402
1.30648
0.661729
1.99215
0.259832
1.67194
1.1232
0.224646
1.59147
0.174733
0.279348
2.4607
1.09483
0.440842
0.428119
1.09328
3.51977
0.867265
2.60789
1.64336
1.32105
1.52602
1.28773
3.39775
0.992536
0.268608
1.37225
0.625971
1.69005
1.39674
1.03478
2.57638
0.528629
0.217576
1.0068
0.922426
1.35043
1.80346
0.563343
0.469389
1.08814
2.38984
0.389355
2.553
1.01447
0.633714
0.246161
0.203797
0.893379
0.633333
1.6567
1.26255
0.178535
1.41842
1.14484
0.948029
2.28737
0.773005
0.361717
1.56959
3.12803
3.05917
3.01615
1.74508
0.376759
0.30157
1.13785
3.08822
2.67815
1.99132
2.10096
0.30485
4.47314
0.79575
0.765332
0.940296
1.19888
1.04721
3.20363
1.30195
0.978493
0.518436
3.5953
1.5168
1.31977
0.244351
1.52631
2.38849
2.11393
2.63903
2.83607
2.43077
2.29587
0.572857
0.538143
0.37675
0.230872
0.972514
1.9715
1.88794
1.88729
1.08589
0.407024
0.222806
1.32709
0.943744
0.210869
0.185016
0.166584
1.46048
0.25782
1.24048
3.60618
1.59604
1.00574
3.6355
3.47211
1.18296
1.81536
2.08267
3.63795
1.65491
0.268933
0.248148
1.31418
1.45931
0.527366
2.97642
3.13258
0.547814
2.05092
0.419417
0.203201
2.24582
1.28022
0.342643
0.207985
2.01919
0.620108
1.3022
2.04798
1.32746
0.171351
0.299668
0.220272
0.236657
1.95084
0.30827
0.389514
1.99022
0.422932
1.32643
0.393455
0.608062
1.41033
0.332903
1.91262
1.44691
0.282224
0.235863
0.327207
1.37914
0.352776
0.400132
0.743391
0.295359
1.4044
0.377903
0.874698
0.424004
1.13594
1.77523
0.264732
1.87551
0.728415
0.472733
1.72844
0.579045
0.655871
1.9493
0.175404
1.43192
0.241387
0.284704
2.30358
3.9401
2.02039
1.12844
2.02391
2.21778
3.69799
2.99712
0.703653
0.217521
0.422057
3.56615
2.13789
3.31773
1.91255
0.605073
2.01959
1.36565
2.4599
3.40123
2.53264
1.31373
2.43275
3.0038
3.43594
1.20823
2.71455
0.430103
2.82076
1.56879
1.55147
0.228616
3.00519
1.30185
2.66247
1.74818
1.77931
3.43467
2.30365
1.0493
0.307463
0.53414
0.80766
3.08782
0.541347
4.07742
0.826124
2.40827
1.22949
0.732339
1.83642
1.40352
3.49632
0.418362
1.95274
3.49032
2.32896
2.78209
0.876124
0.972379
1.70872
1.22855
2.15074
0.662443
2.92125
0.586264
1.64745
1.58201
0.929518
1.75727
0.692799
3.53422
1.52639
2.78873
0.266084
0.764473
2.6502
1.85952
3.22464
3.07426
2.08943
1.13019
0.537598
3.38653
3.44296
1.2504
1.08804
0.441536
1.39327
2.17518
4.05463
1.77042
3.67494
2.67924
4.04477
1.16316
1.52416
0.811296
2.81889
0.36316
3.55124
2.90824
1.79232
1.64893
3.65102
3.32086
2.53674
2.44902
1.41296
2.72069
0.313152
2.57981
1.58052
2.8722
0.786512
2.3861
3.22417
3.14581
2.07206
1.93425
1.37729
0.999352
2.06763
1.27351
0.447186
0.442019
0.927674
4.70121
2.63451
1.36086
0.171091
1.64157
3.26018
0.820707
2.28621
0.684128
0.975421
2.12086
0.962923
1.50659
0.81867
0.704625
2.75313
0.884002
0.222184
1.26072
0.561546
0.886112
3.13958
2.16791
2.63541
3.02218
3.62696
2.4749
0.683018
0.730075
0.474878
3.5054
0.40379
2.6004
2.32445
1.59932
2.06197
3.69497
1.73559
1.43499
1.31602
3.63312
0.44811
2.60254
3.5742
1.4129
0.848605
3.4796
0.345613
1.21525
0.331449
3.95671
3.54367
0.328588
1.81389
0.94465
0.248538
4.13382
1.80225
0.240035
0.457225
3.46735
1.14818
1.87431
1.40415
1.58626
0.214848
0.466572
0.983045
1.95592
0.285311
1.87698
0.233505
1.66381
0.40261
0.480307
0.583271
2.00622
0.519619
0.576411
4.02532
0.357253
3.2671
0.452009
0.206301
1.35314
0.250691
3.80381
0.565545
0.507904
1.31502
0.384472
0.200926
1.24685
2.64441
0.468374
2.35035
3.63376
0.426686
0.222964
0.928172
3.05817
2.68759
1.23426
0.364206
0.205567
2.78477
1.02901
3.281
0.247099
1.58674
3.76173
2.16348
1.01031
2.94267
2.98422
1.61385
1.30341
3.0251
4.0458
1.38375
1.9676
3.61157
2.02327
1.05326
1.11939
0.193374
2.44473
1.84424
2.617
0.253858
3.51083
2.54279
1.21298
2.52911
0.21948
3.3457
3.5523
1.81411
3.51959
0.198185
0.211534
0.38312
0.521626
0.333286
1.33859
1.22214
2.00494
1.85357
0.636247
0.256766
2.13061
2.8558
3.1654
2.10418
0.441459
2.17406
2.2976
0.36273
1.49698
1.48104
4.15623
1.26173
1.91976
2.24159
2.22152
2.91737
1.27225
0.683409
0.133472
0.340354
2.38701
2.67185
1.30915
0.323993
1.54885
1.81679
1.42882
0.681667
2.10518
0.801082
3.42022
0.251257
1.68311
3.58645
2.94892
1.17787
1.86949
3.47611
2.5354
0.46817
1.25118
0.496758
3.23056
1.46157
0.424214
0.920881
0.411885
2.27366
3.45221
0.49746
0.865287
0.18848
0.234395
0.41902
2.45945
2.1466
1.25284
1.80767
1.88634
1.32226
1.66323
0.495932
2.26515
2.01116
0.872587
2.72827
1.8735
3.08387
0.776852
1.69447
0.190587
0.499693
2.28478
0.410695
0.532405
1.82508
1.74202
2.27177
0.94359
3.82333
0.495802
1.01735
0.755399
0.28646
0.628406
0.816287
1.17328
3.55941
3.38889
0.39246
2.97965
1.31572
0.536929
3.26223
1.0792
1.76821
2.81135
1.3628
2.08803
2.21231
1.40507
1.21335
1.5353
0.831199
1.64793
2.10658
3.78928
3.56426
0.3193
0.966508
0.65274
0.690546
2.10846
2.40894
1.28078
2.71298
1.76054
0.469833
2.21753
0.773496
4.12604
0.819231
3.45662
1.06923
1.10099
1.03054
1.11658
1.09953
1.16755
1.07392
1.53903
1.56105
1.66577
1.56482
1.50759
1.47246
1.49635
1.46111
1.76587
1.16675
1.31124
1.83502
1.82368
1.5316
1.6823
1.43618
1.42064
1.40366
0.993537
1.79364
0.223381
0.216255
2.41473
0.561938
0.537594
0.307338
0.246216
1.23494
3.5422
1.8069
3.64292
0.93402
0.504195
0.401773
1.77282
0.548815
2.37035
1.32089
2.13545
1.3323
1.14136
4.02252
2.53436
1.36333
0.244435
0.167531
0.290306
0.225286
0.269729
1.02358
1.60112
2.28193
3.01714
0.283658
0.213917
0.4273
0.525026
0.775208
0.646224
3.2598
0.280373
0.170345
1.28525
1.11294
0.970118
0.486509
2.08934
1.41507
1.72647
2.74988
1.84877
2.4593
0.595713
1.92995
2.93244
1.35955
3.9845
0.796795
1.285
0.551983
1.81742
2.99892
0.167874
1.52274
1.2989
2.50073
0.225857
2.58943
2.58089
2.54582
1.21996
0.800803
1.50187
2.17023
0.755934
0.812123
0.278391
1.98779
2.81938
3.66484
0.527177
1.32213
3.62195
1.06292
3.38364
1.58631
0.547239
0.193275
1.57633
1.40467
3.11755
4.79198
1.65603
2.55584
0.223982
0.577742
2.06514
1.62215
3.06994
0.408178
0.872519
0.311275
0.186974
0.181994
1.51288
0.254277
0.83431
2.58654
0.349543
0.195325
1.87776
0.336223
2.60329
1.17739
1.10632
3.39735
1.03029
1.46969
3.10899
1.97371
2.80465
1.16524
0.911572
2.04915
1.47259
0.146629
0.375949
2.9251
1.5754
0.558859
0.756853
2.25323
1.35672
0.748943
2.18305
0.258916
1.59025
0.611618
0.22908
0.153736
0.568316
0.472111
0.802074
0.298189
1.03326
3.77284
0.267291
0.190576
0.633376
2.15984
0.642468
0.18896
1.25788
3.20185
0.930411
0.635603
0.498313
0.279881
0.487522
0.589985
0.449486
2.97051
1.01679
0.30642
0.15599
0.081766
1.91389
1.53522
0.265289
0.441711
0.282637
0.434268
0.270989
0.280472
0.28849
0.223438
0.289964
0.258158
1.28706
0.254397
0.269549
0.262463
0.258647
0.678531
0.718061
0.256106
0.274114
0.292641
0.293098
0.81946
3.38129
2.16948
1.26037
1.1811
2.43289
3.64666
1.33105
1.22432
0.944183
1.70604
0.377532
0.185912
0.3356
2.80664
1.56153
3.80111
2.03236
0.213739
3.28849
1.09087
1.4777
0.630328
1.99024
1.72578
2.9868
0.577567
2.33023
1.56052
2.00826
0.921115
1.28255
0.260191
0.590062
0.945813
1.49264
1.46936
1.37709
1.58115
1.70808
0.324049
1.58325
0.884235
1.32057
2.21405
2.81913
3.60893
3.65335
0.411562
0.200216
1.32978
1.58663
1.46194
1.02385
0.928116
0.429823
1.16342
3.63288
0.753916
0.822692
3.15751
0.513617
0.321644
0.774453
1.54374
1.2611
3.48389
0.547722
1.89194
1.23889
0.929193
2.30079
4.12458
1.00827
3.15604
2.69902
0.175187
0.375326
1.22071
2.0675
0.241263
0.178247
2.88578
1.54287
2.6856
3.07321
3.64821
4.18521
0.824853
1.24284
1.94883
1.73934
1.69955
3.35177
0.427492
0.842223
1.41373
1.93343
0.452753
3.26793
1.63718
0.494197
1.38599
1.24394
0.538163
0.751208
0.731884
1.47727
0.537463
0.899627
1.08841
1.01847
1.2805
5.00257
0.267143
0.504793
0.993803
0.245257
0.519574
1.3958
0.247315
0.169661
0.252559
1.52512
0.813377
1.99389
3.55454
3.39711
0.361943
1.48023
0.258409
2.67272
1.17961
0.205395
1.89456
1.30128
2.94364
2.71483
1.71147
1.68448
1.3068
0.273255
0.409557
2.97504
0.576966
0.225761
1.5565
0.298074
3.24384
0.628445
1.73363
0.548925
3.06023
1.7734
0.167918
3.50081
0.778873
0.261546
3.23554
2.42113
1.20436
1.57191
0.93778
3.50397
1.12556
2.4868
0.519469
1.07204
1.34765
2.49237
1.77849
3.81156
4.18773
1.26083
1.88444
1.82441
2.69542
0.249462
1.0321
1.44469
0.241194
3.65623
0.32232
1.60005
3.37037
0.576681
2.93882
1.4967
0.254132
1.18715
1.25089
0.379384
0.856112
0.557122
1.42671
0.741008
4.90703
3.65688
1.97776
1.34195
0.419841
0.269644
1.04062
1.08143
2.10318
0.844824
1.85946
2.03768
3.35462
1.98994
1.35223
3.26822
0.256655
1.60658
2.97703
2.42334
0.624015
0.251281
0.571461
0.253173
0.156281
0.50097
1.24224
3.10698
0.311426
0.228709
1.35358
0.546025
1.61258
3.45323
2.6488
0.186274
1.7818
0.460426
0.259003
0.261908
0.332934
0.553265
4.61675
0.217621
3.35587
1.47765
0.795078
0.351072
0.214071
2.94906
0.268001
0.674129
1.41297
0.692333
2.82112
1.12081
2.15215
1.47689
1.22327
0.73822
0.89627
0.837485
0.953606
1.05657
2.66716
0.189945
1.53543
1.62075
1.13856
1.5123
1.37803
3.44221
0.832638
1.30311
0.562026
1.33549
3.15537
1.03654
0.361434
0.142602
0.251163
0.640242
2.34059
1.59401
1.63509
1.62184
1.34132
0.777219
3.30298
1.98092
1.83021
1.53546
0.506515
2.12091
3.47077
0.374778
1.03015
2.25908
0.705221
3.083
1.0091
1.54469
2.81502
1.6445
2.44141
2.32337
1.81237
2.37945
0.328176
0.239263
0.583727
0.231791
1.24647
0.602669
1.89456
1.22147
1.74296
1.36641
2.90824
1.84326
2.86112
0.606698
3.40457
3.37617
0.450601
0.321297
3.14592
1.08914
0.560413
0.57932
1.56051
1.12838
2.77629
1.30358
0.889127
0.600939
0.293158
1.66452
1.8514
1.3889
0.863857
1.89286
1.30322
0.701669
1.58096
0.27883
0.15235
1.21899
1.28861
0.172757
0.183678
0.764459
0.299285
1.07179
1.67873
0.627174
0.3457
0.941585
2.08136
1.05476
0.996411
0.629386
1.18847
0.29186
0.269595
0.274229
0.147073
0.436573
0.111375
1.49158
0.18498
0.159476
1.56659
0.320194
0.991139
0.627072
0.781778
)
;

boundaryField
{
    frontAndBack
    {
        type            empty;
    }
    wallOuter
    {
        type            kqRWallFunction;
        value           nonuniform List<scalar> 
108
(
1.06615
1.36876
0.956121
0.174733
0.178535
0.357253
0.452009
0.206301
0.250691
0.384472
0.200926
0.468374
0.426686
0.222964
0.205567
0.193374
1.21298
0.521626
0.333286
0.323993
0.234395
1.25284
0.28646
0.536929
1.06923
1.10099
1.03054
1.11658
1.09953
1.16755
1.07392
1.53903
1.56105
1.66577
1.56482
1.50759
1.47246
1.49635
1.46111
1.76587
1.16675
1.31124
1.83502
1.82368
1.5316
1.6823
1.43618
1.42064
1.40366
0.993537
0.216255
0.504195
1.36333
0.225286
1.11294
1.285
0.551983
1.32213
0.872519
0.195325
1.03029
1.16524
0.911572
0.611618
0.568316
0.298189
0.642468
0.487522
0.589985
1.01679
0.081766
0.081766
0.265289
0.282637
0.280472
0.28849
1.28706
0.254397
0.269549
0.262463
0.258647
0.678531
0.718061
0.256106
0.274114
0.292641
0.293098
0.81946
1.22432
0.944183
0.213739
0.630328
0.921115
1.28255
0.753916
0.822692
1.23889
0.929193
0.813377
0.241194
1.04062
0.844824
0.228709
0.460426
0.217621
0.142602
0.251163
1.34132
)
;
    }
    inlet
    {
        type            fixedValue;
        value           nonuniform 0();
    }
    outlet
    {
        type            zeroGradient;
    }
    wallInner
    {
        type            kqRWallFunction;
        value           nonuniform List<scalar> 
126
(
0.784544
1.39413
0.1164
0.146903
1.15925
1.26487
0.158281
0.107667
0.539953
1.29514
0.15982
0.919539
0.178268
0.453983
0.925542
0.735251
0.206789
0.36331
0.27611
0.383155
1.22874
0.24649
1.12332
0.517646
0.366205
0.842938
1.20091
0.280621
0.207666
0.61623
0.336513
0.14422
1.21283
1.46063
1.17854
0.780636
0.179657
1.29153
0.336768
1.14339
0.989682
0.182296
0.112556
1.21098
1.09587
0.145252
0.117125
0.533386
0.215512
1.46283
0.588922
0.270012
1.31761
1.63893
1.1322
0.139327
0.641799
1.72507
1.48245
0.828467
0.269441
0.308402
0.661729
1.99215
0.625971
1.69005
1.39674
0.376759
0.940296
1.30195
1.31977
1.32709
0.210869
1.28022
1.3022
2.04798
0.171351
0.220272
0.389514
0.235863
0.352776
0.295359
1.77931
1.95274
1.85952
2.16791
1.81389
1.9676
0.690546
2.40894
1.46969
1.12081
0.837485
1.89286
0.701669
1.58096
0.27883
0.15235
1.21899
0.172757
0.183678
0.764459
0.299285
1.07179
1.67873
0.627174
0.3457
0.941585
2.08136
1.05476
0.996411
0.629386
1.18847
0.29186
0.269595
0.274229
0.147073
0.436573
0.111375
1.49158
0.18498
0.159476
1.56659
0.320194
0.991139
0.627072
)
;
    }
    procBoundary1to0
    {
        type            processor;
        value           nonuniform List<scalar> 
29
(
0.163087
0.163087
0.146535
0.252098
1.72348
1.04868
1.98658
0.61473
1.41409
0.464636
0.635419
1.04868
0.146535
0.115987
1.21616
0.50863
1.72348
1.78888
0.252098
0.162746
0.311446
0.223157
1.45352
0.292289
0.292289
1.45352
0.242987
0.889532
0.242987
)
;
    }
    procBoundary1to2
    {
        type            processor;
        value           uniform 0.244152;
    }
    procBoundary1to3
    {
        type            processor;
        value           nonuniform List<scalar> 
48
(
3.48749
2.38526
2.84119
2.84119
1.52558
2.08707
2.08707
1.03459
3.36489
0.320792
0.254008
0.320792
0.28831
0.195723
0.215588
0.28831
0.252229
0.252229
0.251778
0.251778
0.13749
0.14015
0.254889
0.677404
0.677404
0.189021
0.254805
0.254805
0.562983
1.16256
0.429283
0.562983
1.03459
2.8764
0.173602
1.16256
1.81277
0.254008
3.59449
1.23917
0.155866
2.40357
2.8764
0.173602
0.227664
0.878686
1.41642
0.155866
)
;
    }
}


// ************************************************************************* //
