/*--------------------------------*- C++ -*----------------------------------*\
| =========                 |                                                 |
| \\      /  F ield         | OpenFOAM: The Open Source CFD Toolbox           |
|  \\    /   O peration     | Version:  v1912                                 |
|   \\  /    A nd           | Website:  www.openfoam.com                      |
|    \\/     M anipulation  |                                                 |
\*---------------------------------------------------------------------------*/
FoamFile
{
    version     2.0;
    format      ascii;
    class       volScalarField;
    location    "0.29";
    object      epsilon;
}
// * * * * * * * * * * * * * * * * * * * * * * * * * * * * * * * * * * * * * //

dimensions      [0 2 -3 0 0 0 0];


internalField   nonuniform List<scalar> 
1466
(
7.4827
38.1369
4.99592
84.1454
14.1102
21.1946
9.8859
39.2064
9.39469
52.5699
76.4932
52.9383
5.48348
11.8859
28.5968
90.7211
11.4423
77.8547
115.89
65.5824
125.491
93.5911
82.8717
51.36
7.12255
9.50098
60.5768
87.6398
1.4799
51.8375
88.0787
15.8188
8.31687
53.4258
119.515
17.2541
51.1039
14.4687
79.3673
8.84986
15.7416
78.0962
103.723
23.725
6.26748
9.60027
117.472
9.62867
60.2212
8.57675
10.9393
48.5717
26.8697
13.4091
7.56799
6.78179
7.58451
86.4263
7.04605
60.9054
25.0535
10.185
15.8861
30.9777
81.4868
48.2606
168.985
60.399
29.1657
5.72209
67.5615
145.266
70.0689
6.68318
22.5954
68.7965
11.8965
12.2271
21.6691
74.2058
60.4411
93.3108
7.91402
82.0688
114.961
128.171
66.864
77.7596
66.1654
45.066
13.3997
61.2478
138.539
11.3975
26.9452
5.18239
35.5804
104.102
8.64228
9.69079
17.641
5.67888
6.63025
92.9205
124.07
58.3529
41.1904
12.5039
99.1118
6.83964
19.0006
92.5367
8.14058
87.714
65.43
28.0254
64.7009
52.0276
9.46414
20.7161
83.959
11.0864
16.6731
26.1681
5.69911
71.6785
39.8014
73.2816
50.1454
35.4499
78.0562
68.2352
81.1387
49.231
20.9732
11.6298
22.5007
5.30495
10.2589
14.6178
8.66423
98.3163
75.7885
75.4509
116.83
167.088
15.0243
17.4641
54.6236
92.3902
17.0238
34.0324
34.4638
20.7535
42.5148
88.5513
75.9983
85.3224
13.7138
51.41
13.4886
56.0641
64.0035
89.2297
112.109
127.331
63.3814
87.3739
106.829
39.8828
119.094
8.36384
7.63424
30.5718
35.7627
7.35647
43.5741
63.6766
16.1308
89.2878
7.88853
30.4802
161.838
6.75004
77.9635
152.87
117.543
47.2571
30.8091
34.0627
127.324
34.3303
158.204
221.563
47.2651
22.0195
5.48243
145.035
135.01
191.161
108.727
44.5869
46.4413
64.0081
49.28
109.713
156.338
27.0271
11.912
59.8182
99.2237
101.243
122.812
106.385
135.917
85.8209
157.939
114.734
53.0421
56.7849
82.4789
30.3993
90.8268
26.8653
98.17
80.5384
79.5383
7.26987
15.3949
30.3352
55.8374
80.6606
236.454
185.825
11.0486
79.9899
70.3949
82.6737
21.7718
129.478
33.6033
71.6079
39.2916
179.486
18.0161
50.2425
15.8647
6.6028
76.1865
34.292
144.137
85.427
24.3573
94.9353
8.26289
16.9809
74.2525
11.8099
100.895
95.8916
89.1606
79.5063
48.8681
29.7097
75.596
7.98743
42.7646
47.8365
109.003
11.0081
85.07
120.275
52.5447
12.2958
16.486
31.7302
21.1709
68.109
117.464
59.7287
25.4424
141.257
95.122
62.1594
122.032
3.32451
59.4756
55.7838
12.0317
18.9369
20.5807
10.1967
6.69086
18.4567
53.1174
32.8918
195.428
3.9936
60.6798
26.6958
8.56777
42.4821
6.74896
7.53858
105.578
17.3453
17.6484
4.28047
40.9564
105.603
28.8838
102.253
62.2159
37.194
53.1525
44.9227
156.405
33.3787
3.43363
32.3298
33.4315
147.641
55.4809
23.5182
72.0757
16.4031
3.90389
34.6303
20.0695
37.3355
65.5541
17.416
5.69763
39.9432
115.727
16.905
127.852
19.2502
15.0671
16.5649
12.1673
30.0234
7.01681
71.2512
39.8771
7.34477
59.3956
43.8519
34.2326
113.154
33.702
13.3782
52.2535
155.058
123.64
146.537
54.337
22.1041
7.61881
43.6762
129.15
122.549
80.049
70.219
7.2353
220.512
26.2055
24.8917
90.2095
42.9722
37.5228
147.237
109.964
33.3948
6.95076
39.9228
69.7202
113.244
11.5387
67.9234
30.2481
19.977
30.8428
31.0938
21.0843
20.4911
5.75604
4.9743
3.43935
2.7268
16.5959
20.1488
74.9903
18.8192
53.959
27.4268
2.85533
111.563
65.0183
14.2542
3.41972
3.78444
74.2309
6.30172
48.6084
142.384
92.0489
25.4719
158.922
134.763
22.511
105.613
130.674
142.156
72.849
11.0058
9.52845
51.9379
34.2501
6.46618
109.281
116.779
7.09282
142.75
8.11775
52.121
80.7902
104.113
9.22151
55.0071
62.7133
42.6034
134.157
195.767
33.421
25.224
3.58896
31.9007
11.5269
64.3659
4.75794
25.1519
67.1395
9.41815
31.2758
7.98662
21.975
36.5008
8.84893
78.6532
38.564
10.0141
19.1039
9.68445
16.5926
20.7752
12.2419
51.817
17.5727
35.238
4.44158
16.0912
10.9411
14.9537
73.8122
11.3108
17.4686
15.4926
14.2106
16.9219
15.2358
31.2597
68.8567
6.96281
36.7982
13.1903
13.235
106.587
204.369
155.679
38.2493
62.4724
119.511
187.292
183.293
22.5794
14.5724
13.3116
164.778
82.4003
195.561
84.2392
8.62834
18.2413
73.0589
22.5637
34.2763
21.6165
45.0204
72.0538
32.152
49.5056
84.673
108.148
12.5722
80.3801
69.9076
41.422
13.4864
28.1106
26.3695
159.707
64.3141
153.734
33.7016
74.3797
15.1372
8.72894
17.0798
27.2096
30.7588
13.7122
188.493
27.9903
130.948
15.5224
14.4771
88.9137
15.9524
165.31
66.0127
178.16
168.07
20.879
24.4544
14.7659
38.4275
78.1628
15.8173
121.265
21.4746
117.415
21.7767
74.7387
16.6193
34.1416
17.6115
25.4316
134.256
40.3211
150.814
15.2589
15.1818
22.7791
162.814
31.1978
29.2165
69.7154
68.4561
17.5867
143.564
147.741
29.5701
39.9852
13.2356
73.9211
19.3708
175.256
80.8612
48.1921
72.1515
162.348
28.6338
53.9945
65.4606
101.871
13.1202
39.9339
26.3072
99.0665
122.941
47.5189
32.3233
80.9058
53.9532
92.669
89.9172
7.95561
24.3619
62.0981
74.784
28.2112
91.4346
31.0185
131.568
83.0565
71.0316
49.2668
87.4024
59.152
44.7395
13.8817
15.6353
32.6394
256.089
101.023
28.2236
7.64109
52.2835
50.0734
55.673
128.552
23.3176
41.2302
114.368
32.5096
54.5578
28.4674
22.4242
95.5013
31.525
3.29481
23.9874
20.6338
33.1391
30.352
237.707
101.256
120.936
41.3855
178.354
21.6218
23.2492
16.9814
40.9878
11.1407
87.7543
67.1864
52.5564
98.9251
139.627
81.4847
48.7786
29.4412
65.9877
14.2884
106.211
112.141
49.456
30.2041
43.2522
9.86269
36.0113
4.32127
179.184
67.7354
15.1267
165.18
19.2773
5.92962
199.317
89.0404
22.2416
13.6697
192.152
32.4693
117.665
39.458
67.2101
13.27
6.26725
17.1895
128.32
9.82361
75.0769
8.99169
42.8318
8.25206
6.38647
17.7976
122.747
4.93205
9.60164
186.063
19.1095
159.59
26.5809
8.24495
121.403
12.7542
174.354
16.9439
14.9831
66.8088
20.2129
7.15826
54.0813
143.129
28.4397
89.725
78.9728
23.5582
10.2664
20.5701
51.6024
71.315
29.079
23.805
7.09963
53.0311
59.9279
144.243
10.4056
56.3843
139.376
126.869
55.7246
80.7204
127.998
62.7549
57.799
121.031
175.191
58.0505
202.414
59.4126
107.21
15.1038
18.0751
7.5507
130.038
92.9476
114.405
14.4009
154.094
84.0846
111.362
73.4539
1.78196
125.815
44.8591
56.4361
50.5373
4.84808
59.4151
9.37508
32.5636
26.8491
69.0202
45.1431
113.968
103.994
10.2155
5.40118
124.716
98.9908
135.392
89.5854
12.2959
105.164
108.759
35.9619
34.8993
48.4484
199.097
45.8407
80.3493
115.432
87.4057
168.877
26.8734
50.0204
20.8104
9.40747
83.9738
137.134
43.2422
17.3713
16.47
124.279
17.2772
52.1949
91.7364
83.9894
147.895
11.8708
43.1901
42.9463
77.9422
39.0279
19.3423
178.017
117.429
32.142
33.1761
14.3811
106.125
70.7594
7.92106
15.8927
19.5108
93.1549
55.0276
5.19356
43.6213
5.34263
15.6186
12.033
87.0745
81.4301
116.12
51.6455
70.0927
46.3282
39.7471
5.81612
108.219
87.6096
18.7954
80.981
95.1581
83.6462
15.7915
65.4854
43.0475
6.97286
92.7206
11.3397
15.6664
67.1038
76.0107
109.275
57.4667
155.556
7.66282
25.0565
11.9104
15.1628
40.0837
52.9225
68.6352
87.8867
126.409
7.28673
147.079
85.875
33.7431
55.9303
38.7059
92.9864
148.493
57.6789
90.0542
23.2787
29.362
24.879
73.9432
26.5403
67.1369
89.5407
174.636
48.4061
9.06328
15.2159
10.7849
88.7342
98.0304
277.218
32.3728
26.1406
51.9875
7.81647
87.346
12.6885
211.514
14.3371
116.006
79.7371
90.3593
73.9161
115.672
104.021
112.931
111.898
171.131
168.497
190.878
174.3
170.973
170.391
167.087
152.987
220.473
116.115
138.599
254.771
281.87
191.251
263.443
168.211
161.943
151.812
70.4373
91.4392
5.79746
7.34309
102.292
57.3564
8.93864
13.1863
11.1016
28.9665
108.546
65.9063
62.3574
19.3928
31.4727
10.8292
66.9286
13.5771
90.5335
27.3489
109.356
36.816
49.2267
150.428
116.867
141.19
15.887
10.8094
8.07849
9.43004
7.03958
24.0672
49.9993
88.3531
62.3424
1.6964
56.6561
8.74225
7.36271
13.6041
29.3485
66.3781
9.0236
23.8372
32.663
78.9677
35.2455
13.7709
58.1404
47.6455
71.4577
108.686
131.102
143.011
11.8205
60.8689
104.862
48.7835
141.685
40.2195
136.711
35.2532
84.2009
119.33
5.22549
58.284
15.8797
101.416
7.44768
114.146
105.48
113.49
33.0851
31.0727
37.2225
108.665
35.0894
18.6638
10.1437
90.3552
120.053
49.7142
17.837
138.38
83.8126
29.6401
132.864
72.8281
12.0775
8.17546
46.7044
59.8052
130.207
256.789
65.3957
100.65
8.38022
10.6335
28.5418
138.583
143.825
11.3042
80.5876
8.81155
38.1709
8.17132
48.6052
7.80334
41.0979
97.9693
8.87558
8.10412
125.815
8.9101
129.436
22.2037
58.2269
113.56
79.6731
203.913
118.492
108.229
74.581
83.42
55.2033
88.3754
55.0143
24.68
8.09399
147.728
41.9824
10.3781
70.0004
104.527
36.801
16.2315
159.042
7.01912
43.5829
39.6118
21.2212
6.88183
38.085
12.1874
34.827
12.3057
55.2233
127.589
13.1432
13.8831
14.4859
125.982
38.8198
12.0768
28.0438
135.239
16.8133
28.4739
66.0258
7.46658
30.0161
40.5842
7.39247
79.8337
123.855
10.3842
18.2421
2.01759
159.74
18.2716
11.1286
66.1702
17.2438
6.37337
6.76574
17.1132
17.525
15.9191
12.6329
8.23662
129.463
13.5764
16.7344
12.8009
15.4586
40.3712
43.9252
12.9673
13.9697
15.732
17.1277
64.5855
162.015
96.5846
29.8446
24.6142
100.489
109.634
36.1867
97.8591
61.9957
26.5494
7.77255
38.1898
6.42057
120.339
61.91
139.437
55.4345
7.89123
147.761
45.4425
52.7654
79.2183
117.957
91.574
123.583
10.5235
90.335
40.4406
111.317
70.0351
137.672
6.43539
21.2858
20.0369
69.5127
43.8741
60.3479
76.7082
64.3616
8.70954
20.2267
19.7595
42.2648
116.39
65.2286
140.077
64.5474
15.6245
8.0093
37.7865
53.9543
44.5204
20.4137
16.2756
43.0577
44.2586
51.4477
47.3932
55.8029
63.2801
7.90117
4.31184
26.8225
65.5573
39.1233
75.2244
19.4073
60.9839
119.912
68.2089
87.5758
197.475
35.2175
160.616
95.3918
29.7544
7.73911
37.9191
21.6179
20.2635
8.65467
130.624
65.405
160.57
143.193
159.282
208.112
32.8849
36.4976
81.8606
91.3251
91.5252
70.5869
27.9904
15.9121
114.84
119.334
7.3952
162.235
41.545
7.05584
55.9984
45.3615
17.7433
18.7162
11.9113
56.0341
9.16137
16.1564
38.683
35.5172
25.3496
242.825
6.6447
61.9136
24.5019
14.0983
7.58802
43.1757
14.7023
11.4039
6.11841
67.9771
64.2663
153.206
56.6313
70.1184
5.4704
70.3918
6.3068
183.409
86.8577
7.08929
68.1999
56.3632
135.788
170.211
70.3796
67.6854
89.4892
27.0987
14.4069
136.269
13.4918
9.44329
44.1597
5.13526
150.934
59.8289
106.862
10.3513
155.508
66.8448
7.39597
100.443
74.2325
6.60969
60.3573
79.9356
43.5015
73.9827
34.7173
161.595
57.0657
74.5858
49.6011
96.0947
36.5989
126.98
46.0613
159.645
204.151
96.9876
162.234
153.74
177.449
6.88224
31.7534
55.9568
11.4814
110.97
12.9636
68.6338
89.2091
6.25699
115.94
55.0911
6.08696
23.4565
33.1132
9.62398
33.1891
30.3505
17.9541
35.8776
251.168
81.1417
117.444
90.3395
17.3216
40.1464
90.1678
65.6426
75.4494
62.8246
70.0801
80.179
144.87
64.6663
31.8926
121.157
6.34629
62.9271
115.707
91.5675
18.2248
16.6775
14.0087
14.3058
11.1976
6.57884
26.3826
71.9813
7.9977
10.7756
99.8353
7.64548
78.1299
89.7104
95.3961
6.34565
86.8567
52.3547
6.54896
13.1623
11.2812
12.9458
203.522
9.32394
82.2532
18.7903
24.2869
6.09202
4.09872
105.799
6.78245
15.536
55.1013
16.1458
142.306
111.292
111.207
65.7123
45.9492
68.3243
25.639
68.3347
18.539
34.9875
79.6303
2.22551
60.0506
74.2006
36.5046
71.9399
56.9345
93.9172
24.7235
45.1017
16.8168
50.3047
115.844
83.6485
11.8596
8.35244
15.5439
13.9029
104.081
77.8589
46.3656
47.8953
153.997
27.2107
162.762
61.3306
71.5357
66.2082
8.43445
74.9516
142.182
9.98137
21.3134
102.906
14.4715
157.47
51.5091
72.59
138.75
71.6469
116.922
109.291
90.831
102.819
12.8102
18.2524
13.1985
9.62662
31.8731
11.99
111.779
34.2668
75.1405
50.2186
118.502
76.306
118.036
12.3319
89.6606
149.033
7.10602
4.73535
143.678
81.6329
6.54099
7.37801
75.5396
36.4976
159.715
32.0487
25.8845
12.6212
10.4914
67.6258
69.1062
95.8731
19.5724
171.069
92.072
51.106
201.682
7.82189
37.3444
118.572
101.399
12.655
16.0422
17.2242
10.8264
67.015
166.037
26.6941
8.65962
49.4301
142.538
67.6078
63.8378
44.0966
76.7396
10.5943
7.693
6.9085
19.9554
9.40193
6.38277
97.6476
1.7779
1.79648
113.798
6.74277
70.8601
33.9904
25.0534
)
;

boundaryField
{
    frontAndBack
    {
        type            empty;
    }
    wallOuter
    {
        lowReCorrection 0;
        type            epsilonWallFunction;
        value           nonuniform List<scalar> 
108
(
77.8547
145.266
70.0689
6.74896
7.34477
19.1095
26.5809
8.24495
12.7542
20.2129
7.15826
28.4397
23.5582
10.2664
7.09963
7.5507
111.362
32.5636
26.8491
17.3713
15.6186
116.12
15.1628
33.7431
79.7371
90.3593
73.9161
115.672
104.021
112.931
111.898
171.131
168.497
190.878
174.3
170.973
170.391
167.087
152.987
220.473
116.115
138.599
254.771
281.87
191.251
263.443
168.211
161.943
151.812
70.4373
7.34309
31.4727
141.19
9.43004
78.9677
136.711
35.2532
138.38
80.5876
8.10412
79.6731
83.42
55.2033
39.6118
38.085
12.3057
38.8198
30.0161
40.5842
123.855
2.01759
2.01759
11.1286
17.2438
17.1132
17.525
129.463
13.5764
16.7344
12.8009
15.4586
40.3712
43.9252
12.9673
13.9697
15.732
17.1277
64.5855
97.8591
61.9957
7.89123
79.2183
70.0351
137.672
47.3932
55.8029
119.912
68.2089
64.2663
11.4814
90.1678
62.8246
10.7756
52.3547
9.32394
8.35244
15.5439
153.997
)
;
    }
    inlet
    {
        type            fixedValue;
        value           nonuniform 0();
    }
    outlet
    {
        type            zeroGradient;
    }
    wallInner
    {
        lowReCorrection 0;
        type            epsilonWallFunction;
        value           nonuniform List<scalar> 
126
(
14.4687
79.3673
8.84986
15.7416
78.0962
103.723
23.725
6.26748
9.60027
117.472
9.62867
60.2212
8.57675
10.9393
48.5717
26.8697
13.4091
7.56799
6.78179
7.58451
86.4263
7.04605
60.9054
21.6691
5.18239
35.5804
104.102
8.64228
9.69079
17.641
5.67888
6.63025
92.9205
124.07
58.3529
41.1904
12.5039
99.1118
6.83964
87.714
65.43
26.1681
5.69911
78.0562
68.2352
11.6298
22.5007
5.30495
8.66423
64.0035
35.7627
5.48243
100.895
95.8916
89.1606
7.98743
42.7646
85.07
120.275
52.5447
10.1967
18.4567
32.8918
195.428
33.4315
147.641
55.4809
22.1041
90.2095
109.964
113.244
111.563
14.2542
104.113
134.157
195.767
25.224
31.9007
25.1519
19.1039
20.7752
17.5727
153.734
178.16
162.814
237.707
165.18
202.414
88.7342
277.218
203.913
111.292
68.3347
171.069
51.106
201.682
7.82189
37.3444
118.572
12.655
16.0422
17.2242
10.8264
67.015
166.037
26.6941
8.65962
49.4301
142.538
67.6078
63.8378
44.0966
76.7396
10.5943
7.693
6.9085
19.9554
9.40193
6.38277
97.6476
1.7779
1.79648
113.798
6.74277
70.8601
33.9904
)
;
    }
    procBoundary1to0
    {
        type            processor;
        value           nonuniform List<scalar> 
29
(
37.1545
37.1545
8.91653
10.2353
64.5119
49.1684
120.715
13.9639
116.634
9.74082
8.86182
49.1684
8.91653
30.5043
54.2582
17.8988
64.5119
66.6457
10.2353
51.7215
9.18579
5.53083
75.5422
10.9753
10.9753
75.5422
7.29639
76.9906
7.29639
)
;
    }
    procBoundary1to2
    {
        type            processor;
        value           uniform 44.1526;
    }
    procBoundary1to3
    {
        type            processor;
        value           nonuniform List<scalar> 
48
(
50.5431
111.935
84.2329
84.2329
56.8626
69.6818
69.6818
17.0994
35.8477
8.5589
3.1752
8.5589
12.1002
39.9333
45.7173
12.1002
9.90335
9.90335
7.19696
7.19696
26.2679
22.2692
7.36801
2.16089
2.16089
6.42589
18.074
18.074
15.6935
41.9485
10.3734
15.6935
17.0994
28.2067
6.62963
41.9485
22.2599
3.1752
42.1558
44.5665
36.3813
25.487
28.2067
6.62963
45.8255
54.2287
49.6156
36.3813
)
;
    }
}


// ************************************************************************* //
