/*--------------------------------*- C++ -*----------------------------------*\
| =========                 |                                                 |
| \\      /  F ield         | OpenFOAM: The Open Source CFD Toolbox           |
|  \\    /   O peration     | Version:  v1912                                 |
|   \\  /    A nd           | Website:  www.openfoam.com                      |
|    \\/     M anipulation  |                                                 |
\*---------------------------------------------------------------------------*/
FoamFile
{
    version     2.0;
    format      ascii;
    class       volScalarField;
    location    "0.29";
    object      p;
}
// * * * * * * * * * * * * * * * * * * * * * * * * * * * * * * * * * * * * * //

dimensions      [0 2 -2 0 0 0 0];


internalField   nonuniform List<scalar> 
1466
(
78.9013
120.576
82.8549
84.5181
85.7054
99.975
78.7682
83.971
111.609
98.9682
78.0731
101.78
111.78
81.6227
98.201
77.3744
84.1866
108.566
107.688
84.6884
86.2989
76.889
103.101
86.1921
111.863
120.153
76.0692
83.5589
87.2574
119.062
79.6663
120.24
83.3584
80.6408
111.841
87.2292
81.6477
84.68
101.316
75.6591
79.888
76.1018
77.6152
80.6718
73.9509
80.0737
81.5538
82.4162
100.114
81.6775
102.184
120.543
98.6909
84.9241
84.6138
110.064
79.4165
77.2119
83.739
99.2469
120.362
79.6656
75.325
120.734
92.3004
79.5447
109.83
85.6591
114.559
80.8416
121.085
104.908
86.6433
110.773
120.61
112.409
79.8754
74.5715
81.8
118.426
99.548
76.2379
80.4068
98.4866
85.8314
79.5886
82.5255
116.734
99.147
101.824
120.176
75.9837
87.0101
75.3567
81.1665
83.9959
120.727
78.3146
112.935
87.9133
101.472
102.259
83.9548
104.227
78.1369
82.6558
98.1234
82.7252
79.3578
79.0199
120.227
112.867
79.1346
76.8902
100.046
120.246
76.0173
102.714
79.3306
76.7688
83.0968
79.0886
73.2989
80.5863
73.399
81.6308
116.004
106.353
85.6727
120.279
99.6998
76.2662
103.654
86.2762
120.582
79.2547
76.7338
84.506
79.469
76.3583
82.9658
83.2792
85.996
101.059
79.3505
87.6584
120.172
120.427
120.189
102.969
120.335
120.049
115.356
79.5683
120.335
75.9862
83.4136
85.1225
120.274
91.083
120.109
117.544
75.9734
84.4551
118.985
78.4849
86.168
102.518
82.1907
96.9804
83.2689
120.262
81.411
114.892
119.318
108.886
120.147
119.457
120.179
122.452
112.376
120.651
83.6595
82.8342
115.793
81.3195
85.7021
98.419
114.62
82.3532
83.0116
120.751
89.5895
97.8237
90.1344
120.095
81.2821
114.026
121.271
89.1847
81.6236
120.185
118.127
84.4159
120.49
120.753
94.914
116.416
120.329
85.3977
104.626
86.211
100.128
83.1149
88.7107
85.6521
82.5077
85.2331
105.541
86.2699
104.404
120.565
85.2434
120.121
83.0861
114.616
102.2
84.8943
120.125
120.335
121.337
114.631
103.601
92.1568
102.843
120.485
86.1514
101.511
120.348
82.8051
82.5459
118.073
118.516
99.2662
120.258
117.277
120.403
110.308
118.942
118.448
83.8145
93.3308
115.764
83.9594
120.309
120.254
84.2839
99.8958
86.4319
81.4998
99.2708
104.964
86.3492
120.628
89.6425
81.9694
120.215
120.182
99.2227
102.21
72.099
86.2007
98.0995
120.352
120.55
120.252
120.129
91.2995
82.3009
119.976
120.499
88.7524
88.7894
116.429
86.1953
79.5998
120.249
120.547
82.8449
112.119
114.123
77.8308
112.322
82.1512
93.4675
95.6889
86.1828
80.52
119.988
120.423
78.3959
97.1814
121.428
111.532
87.0048
75.0949
76.5143
81.6548
110.853
83.2621
115.301
105.19
86.1623
121.758
121.56
120.932
86.964
122.235
80.3044
98.9055
97.7542
86.2071
79.152
120.629
82.2721
109.306
80.2914
127.207
120.348
120.041
109.572
110.744
82.563
97.411
87.6531
90.4532
86.3514
120.453
74.4221
79.1996
73.0844
116.161
84.2092
136.635
97.0725
121.126
115.934
126.047
114.076
87.6264
93.9152
94.0885
89.311
86.7756
86.5796
87.3209
87.2175
82.5693
103.04
118.751
86.3995
88.3215
90.6685
85.8778
81.7165
112.59
115.246
114.529
87.3252
94.8599
104.096
88.792
139.187
100.49
82.5032
75.6405
101.956
128.669
76.2013
90.5115
77.9291
74.4829
76.7881
75.6509
73.0644
73.7454
83.0926
82.3289
80.8849
79.4679
71.442
72.463
85.6849
71.679
84.128
81.2912
79.452
117.194
83.5182
81.1428
80.2379
80.3722
104.711
87.18
102.759
76.4643
104.267
103.055
77.6932
76.1696
100.09
106.929
104.801
76.1653
103.539
86.6084
87.5164
102.704
99.5691
79.2154
75.6563
75.8088
79.1937
104.221
79.2779
76.5372
75.6188
143.83
79.2039
77.1297
97.4481
81.7418
86.8568
83.0644
120.394
81.2463
80.1538
81.1132
77.6654
96.8633
80.7288
71.7076
96.7036
81.1586
120.524
78.8543
112.45
120.681
78.2926
97.6299
120.63
77.2948
71.9702
112.295
71.2581
71.5188
78.3786
80.0038
71.6202
120.593
81.6022
71.263
79.1318
87.2469
100.663
77.2193
72.0275
71.334
72.2939
72.5227
71.7158
79.004
100.719
83.7671
120.606
77.3877
73.5075
87.5888
93.2501
92.3399
95.4778
87.1542
88.0671
92.621
93.0744
115.623
76.6589
73.9453
90.036
91.4725
93.1319
83.6282
83.2418
71.6584
85.1142
72.7134
75.6678
72.5165
122.574
84.4842
74.7232
76.601
79.8128
104.726
84.8125
85.8418
114.805
120.541
75.7425
74.4852
120.358
92.0167
84.9772
88.8407
77.0631
85.6729
71.3445
112.455
113.626
83.1726
73.8702
72.5138
91.7684
121.364
89.9117
71.9325
72.137
86.423
71.5156
91.1328
80.1417
79.2631
87.6917
71.9533
72.6046
71.7212
97.3341
124.297
71.1624
87.1087
115.714
104.192
85.5313
85.8439
71.2448
101.567
71.2751
102.388
90.8477
120.36
80.61
75.8879
74.8251
72.3306
85.7019
77.2149
75.6556
84.5496
86.8119
106.868
89.1944
87.5487
120.57
129.164
113.565
85.2863
71.6008
90.0311
133.266
76.4449
81.1291
88.3241
120.344
120.931
84.8906
84.013
96.3294
74.9224
73.3291
80.4517
90.6233
77.2194
74.3159
85.8244
81.8791
87.712
82.6105
108.643
73.8581
84.8339
84.1935
107.043
84.0169
73.6284
84.7675
85.2039
103.588
92.2693
88.5565
92.0512
129.496
103.752
96.3112
104.621
108.387
85.954
120.616
81.4514
98.2748
77.7028
82.3014
82.6248
112.191
94.0497
87.0498
120.168
120.448
121.088
115.22
81.7175
110.883
79.6859
120.403
98.8397
113.529
73.4595
82.6809
85.5535
86.8507
76.9186
92.6958
113.637
115.332
96.3853
74.8035
106.653
85.3901
88.7996
120.925
83.3303
88.728
112.387
89.2238
120.089
78.3546
102.163
85.3428
86.3152
88.6283
117.291
75.2471
112.876
122.928
80.8953
90.1502
79.3232
74.9979
85.9724
120.246
106.496
92.9042
114.339
80.6574
106.155
92.5191
120.072
80.6642
120.809
105.814
74.7386
83.0222
120.307
85.8775
86.0757
102.212
79.5788
97.6409
120.805
79.3715
111.842
87.325
82.67
120.46
108.625
119.442
86.7584
118.733
120.093
91.2141
119.86
88.5946
111.943
108.834
103.006
119.271
120.178
100.759
82.0392
118.365
86.1994
79.8558
119.047
119.985
120.464
79.0313
82.9822
120.555
80.8593
120.232
80.5352
82.8075
111.198
76.6626
90.1107
87.6259
86.8313
87.524
85.4521
87.5442
119.807
112.198
77.1703
107.555
85.8029
84.6012
77.7776
84.7403
72.3742
76.3312
120.751
84.2587
87.0889
81.3119
86.095
109.736
119.321
84.7498
87.684
87.2655
92.8468
78.7966
98.5627
76.3646
87.7546
77.1108
79.3909
117.052
120.983
84.571
116.774
86.2124
80.9166
120.331
81.3976
80.4908
109.984
79.3123
82.8106
113.038
99.0438
86.0175
79.9501
120.083
121.918
92.9126
118.613
82.6264
109.985
105.481
83.4676
120.664
80.895
73.6697
79.1628
75.4898
81.9032
124.594
119.588
73.0336
104.461
71.6742
82.938
83.2212
80.9269
88.4708
82.3146
98.4751
78.9584
84.3618
95.8213
75.1251
91.5706
82.7764
80.3332
120.241
112.336
86.5479
78.3642
81.4584
73.4496
78.4634
86.1999
79.1859
82.8655
89.77
81.0984
121.124
112.964
75.559
84.467
83.3787
95.4257
108.505
86.0298
120.169
83.5145
86.0641
82.7509
120.436
88.0319
105.171
85.8229
81.9898
119.821
75.1396
79.1096
81.9928
110.981
113.065
109.693
118.816
86.8968
82.046
76.8021
79.646
102.614
101.756
119.724
81.0726
82.0727
84.1052
82.6437
87.5883
79.3181
80.0636
102.592
116.565
80.6879
121.124
86.3607
79.9006
115.391
82.7846
75.2729
80.732
120.373
118.266
119.31
100.432
85.526
91.1207
78.5742
112.547
73.8557
120.363
79.5645
80.5869
82.3719
120.751
75.3423
83.4429
120.281
85.9589
120.321
93.0879
72.7381
86.6986
85.5532
84.3478
86.6203
84.3015
83.7281
85.1726
83.6487
89.2655
104.894
106.203
92.1666
87.2287
85.7861
95.3499
104.782
109.405
102.497
99.0836
114.115
118.78
122.902
121.809
84.6457
83.7359
83.3003
86.9616
113.448
112.138
120.513
83.3505
82.0195
102.622
73.8272
80.2253
97.5814
84.5239
108.04
77.7522
99.4318
117.515
109.465
98.0985
73.1617
85.6825
120.356
81.2635
120.703
101.699
87.2406
77.92
83.6198
79.9326
73.463
98.9526
120.244
111.352
81.9273
99.8368
83.2475
81.378
87.2506
77.095
79.2436
83.8379
120.301
117.457
79.3192
79.4667
76.1328
120.827
108.815
114.118
111.418
120.243
101.743
119.408
76.1218
85.2293
87.9045
120.54
98.1621
77.0682
130.501
86.6257
104.01
83.4446
116.017
86.0484
102.799
81.4048
97.7554
73.4303
81.0044
87.748
84.2458
77.2702
83.4446
120.376
120.784
120.153
87.7658
80.4055
120.574
77.6013
86.5808
101.777
76.2074
112.961
83.9135
81.9609
121.212
104.74
85.8873
120.43
78.5528
97.0602
106.659
111.184
111.992
119.507
85.9442
88.0767
102.056
78.794
90.7304
88.7315
112.924
122.225
79.3692
76.8138
82.9077
99.3788
111.256
86.2325
103.025
81.6362
120.464
81.4828
83.051
78.2683
120.276
120.77
84.8313
107.41
88.1644
76.2418
105.65
80.6138
107.905
86.7931
103.385
86.014
74.2469
79.3228
92.1345
120.141
120.191
86.1023
80.6086
121.125
120.482
90.6804
111.738
119.908
114.724
79.8785
73.2672
115.463
81.696
120.898
120.417
79.9049
86.2301
78.5219
73.1598
120.486
85.5614
114.624
74.1973
120.405
119.212
120.213
119.576
80.0255
99.7079
117.957
114.999
120.523
81.3346
122.801
78.2487
73.3694
121.371
92.3687
75.6942
120.429
79.5769
120.383
79.3488
103.756
120.431
120.314
78.1213
73.3345
113.213
82.7495
120.545
120.465
120.49
120.532
114.342
113.986
120.25
120.206
120.202
120.241
111.71
90.1158
86.2476
120.645
120.34
85.0607
85.284
120.847
106.295
85.8649
79.5081
79.2663
75.8647
79.453
83.445
118.145
86.9249
82.1822
120.249
108.647
121.037
119.89
121.407
112.133
113.08
84.3859
81.3832
109.845
120.609
110.845
86.0227
104.948
110.867
81.7457
120.442
119.021
100.267
114.707
117.263
97.0429
78.5657
75.3866
77.616
119.986
80.3657
83.165
76.4506
77.9426
80.6403
80.6331
97.8404
114.49
97.5013
101.527
71.8686
82.4434
100.894
76.4404
113.511
113.108
80.1181
120.302
80.6905
119.08
102.154
124.95
79.3527
112.083
96.3701
105.268
85.6563
82.4512
91.26
116.75
79.335
93.9266
74.9997
79.3523
82.8329
73.633
80.7951
73.1788
79.7256
116.963
89.8459
78.7213
78.2638
92.328
111.811
119.626
84.6923
76.3568
83.0538
79.0144
81.0848
72.5309
88.6737
83.7164
81.5239
79.0731
120.06
78.9944
98.9992
103.138
113.504
119.981
120.209
119.012
120.283
100.39
116.696
117.157
120.305
106.132
110.725
80.3894
120.173
72.9309
120.31
122.368
79.238
73.1978
108.174
98.358
112.3
88.12
78.2438
80.6559
81.4909
108.727
109.684
92
83.4482
78.2875
96.8594
96.8815
78.7025
91.483
119.705
100.911
86.8038
79.9783
72.6313
78.2482
102.48
77.7908
97.1935
81.206
78.5718
80.3494
90.011
120.249
120.103
102.217
85.5356
82.7241
81.8942
111.282
83.4854
85.4012
116.453
84.6697
113.806
78.0338
97.7969
83.777
79.7913
89.3487
120.096
82.569
119.997
77.1887
93.2035
82.6397
87.8222
89.1553
86.9101
111.941
120.425
102.75
120.245
86.0931
73.0568
117.534
84.7931
79.3116
108.757
85.2859
104.478
82.0562
120.709
121.032
112.985
78.9236
72.4248
82.784
111.359
80.8283
82.8399
105.865
72.1326
82.2487
105.438
86.1471
102.175
112.796
101.32
85.6084
85.7083
97.1849
83.0214
76.4136
108.675
85.5776
107.065
83.4337
82.4392
77.1625
73.6922
80.0108
73.8668
79.0787
120.447
81.9407
108.059
120.368
86.0662
79.3672
116.204
84.2778
76.3242
121.367
114.727
121.139
108.954
87.8182
79.018
120.719
111.035
120.383
83.5146
73.5946
80.3882
80.3069
87.3195
94.2283
82.1977
120.488
83.3497
120.343
80.5332
78.2243
110.255
119.419
119.676
83.6408
119.864
100.532
120.365
119.774
83.282
87.343
118.943
103.426
117.96
118.654
119.55
82.1623
120.024
100.256
120.776
118.088
93.9558
86.9687
121.099
121.276
120.454
120.092
82.4681
115.371
119.392
97.1121
123.333
120.714
79.2398
119.486
77.465
77.9345
79.7456
76.6396
77.2535
80.1719
81.6735
83.7769
100.691
117.214
121.403
85.0483
112.644
84.9052
85.1425
84.5947
113.974
102.071
73.1376
78.6847
120.578
79.5451
97.3563
120.243
82.0421
121.026
105.595
86.1059
115.849
85.4062
84.5801
120.59
81.2817
77.9619
78.9369
81.4981
105.385
84.634
79.5093
80.0345
117.782
120.629
120.551
120.342
119.711
120.6
112.391
118.819
105.802
81.9407
120.551
109.464
79.8727
120.569
79.6047
102.881
81.7386
79.7125
79.9198
72.6757
75.1712
86.8342
85.9381
85.2166
97.7295
79.6134
83.1858
102.549
135.456
99.1521
103.168
114.487
123.506
112.565
110.49
109.146
80.2563
79.8021
74.7967
82.0551
88.1171
87.6045
104.496
82.5422
120.489
119.478
120.374
)
;

boundaryField
{
    frontAndBack
    {
        type            empty;
    }
    wallOuter
    {
        type            zeroGradient;
    }
    inlet
    {
        type            zeroGradient;
    }
    outlet
    {
        type            fixedValue;
        value           nonuniform 0();
    }
    wallInner
    {
        type            zeroGradient;
    }
    procBoundary1to0
    {
        type            processor;
        value           nonuniform List<scalar> 
29
(
76.7821
76.7821
77.9961
79.3092
76.3147
76.8147
110.852
81.4762
86.0859
80.6189
80.8548
76.8147
77.9961
76.7771
111.617
112.027
76.3147
76.8343
79.3092
76.514
112.162
112.176
78.9666
110.761
110.761
78.9666
112.862
110.977
112.862
)
;
    }
    procBoundary1to2
    {
        type            processor;
        value           uniform 77.0127;
    }
    procBoundary1to3
    {
        type            processor;
        value           nonuniform List<scalar> 
48
(
83.548
88.2519
86.5077
86.5077
86.2012
88.0737
88.0737
76.6297
79.2703
86.8334
87.1429
86.8334
84.732
74.7934
76.6076
84.732
78.6988
78.6988
77.652
77.652
73.7634
73.545
79.7952
87.4017
87.4017
83.0207
74.0699
74.0699
74.8146
85.2977
84.4164
74.8146
76.6297
77.2988
80.465
85.2977
78.2488
87.1429
80.9814
86.6779
74.7801
77.6941
77.2988
80.465
76.9456
87.4705
86.298
74.7801
)
;
    }
}


// ************************************************************************* //
