/*--------------------------------*- C++ -*----------------------------------*\
| =========                 |                                                 |
| \\      /  F ield         | OpenFOAM: The Open Source CFD Toolbox           |
|  \\    /   O peration     | Version:  v1912                                 |
|   \\  /    A nd           | Website:  www.openfoam.com                      |
|    \\/     M anipulation  |                                                 |
\*---------------------------------------------------------------------------*/
FoamFile
{
    version     2.0;
    format      ascii;
    class       surfaceScalarField;
    location    "0.29";
    object      phi;
}
// * * * * * * * * * * * * * * * * * * * * * * * * * * * * * * * * * * * * * //

dimensions      [0 3 -1 0 0 0 0];
oriented        oriented;


internalField   nonuniform List<scalar> 
2776
(
-0.000468735
-3.56331e-05
0.000335248
0.00016912
-0.000878226
0.000954457
0.000298158
-0.000374388
-0.000137251
-0.000186906
7.17834e-05
0.000252374
0.000148293
-5.95915e-05
0.00109367
-0.00118238
-1.34925e-05
0.000563872
-0.000248498
-0.000301882
-0.000114931
-0.000611436
0.000443049
0.000283318
0.000198254
0.000105404
0.000242848
-5.76735e-06
-0.000479028
0.000241947
0.00101411
0.000890826
-0.000895214
-0.00100973
-0.0011236
0.000931898
-0.000308259
0.000499965
-0.000414241
-0.0012476
0.000571944
0.0010899
0.000551066
0.000208118
-0.000708872
-5.0312e-05
0.000881241
0.000113909
-0.00136179
0.000366639
-0.000116238
-0.000227787
0.000330532
0.000208017
7.93946e-06
-0.000330888
0.000555813
-0.000195819
-0.000774235
-0.000171063
5.66192e-06
0.000224478
-5.90773e-05
2.44582e-05
-0.000403942
0.000379484
0.000543347
-0.000167953
8.66049e-05
-0.000462
0.00078249
-4.06901e-05
5.27743e-05
-0.000794574
-0.000727712
1.74472e-05
-1.56784e-05
0.000725943
5.57501e-08
0.0002249
-0.0003254
0.000100444
0.000606028
3.22658e-05
-3.16998e-05
-0.000606594
0.000736784
5.37024e-05
-3.36046e-05
-0.000756882
0.000310836
-0.000381257
-0.00117629
0.00124671
5.38096e-05
-2.18471e-05
7.16465e-05
-0.000103609
-0.000232405
1.49189e-05
0.000131029
0.000707676
-0.000795209
-4.34957e-05
2.13217e-05
-7.11128e-05
0.000120736
-7.09446e-05
-0.000370835
0.000425343
0.000642552
-0.00069706
0.000605813
-0.000967169
-0.00010851
0.000469866
6.17882e-05
-1.90192e-06
2.09191e-06
-6.19782e-05
-0.000119557
0.000353118
-8.46623e-05
-0.000148899
-0.000668987
0.000677482
-0.000827922
0.000819427
4.62774e-05
8.11889e-06
0.000412997
9.18669e-05
-3.69208e-05
-3.36245e-05
-0.00060589
0.000181051
-0.000875933
7.17855e-05
0.00104444
-0.000268195
-0.000776249
1.38043e-05
-0.000118399
0.000104595
-8.49124e-06
-0.00023126
0.000239751
-0.000484283
0.000551219
-6.69363e-05
-0.000499581
0.000484227
1.53538e-05
0.000390843
-8.8138e-05
-0.000302705
0.000121808
-8.10034e-06
-0.000113708
0.000615977
-0.000113252
0.00097539
7.51171e-05
0.000319032
-0.000454752
0.00013572
-0.000479651
0.000508283
-2.86316e-05
-0.000378364
0.000408936
-3.05726e-05
-0.000225515
0.000103021
0.000122494
-0.00021299
-0.000665237
-0.000530971
-8.04648e-05
0.000537169
2.67027e-05
-1.69439e-05
-0.000102613
-0.00109529
0.00140613
0.000452784
-1.28437e-06
-0.000451499
-0.0010089
-0.000238709
6.22321e-05
-0.000214215
0.000151983
-0.000924129
-0.000199475
4.68943e-05
1.75852e-05
-1.66834e-05
-4.77961e-05
0.000238305
-0.000208538
-3.82577e-05
5.41447e-05
-2.85083e-05
-1.18321e-05
-0.000212156
5.73072e-05
0.000596874
-0.000442025
0.00086077
-0.000746635
-0.000211817
9.76821e-05
0.000236765
-0.000286509
0.000139994
-9.02505e-05
0.000139113
0.000132988
-8.33778e-05
-0.000188724
-0.000204747
-6.10002e-05
-0.000469032
0.000904226
-0.000909195
6.74216e-05
-6.24529e-05
0.000160693
-0.000264376
-0.000181373
0.000285056
0.000137149
-0.000134014
4.67388e-05
-4.98739e-05
6.77444e-05
-0.000558593
0.000490849
5.45551e-05
-0.00054279
0.000488235
0.00106061
-0.00045372
-0.000811856
0.000204961
5.22957e-05
-9.15038e-05
8.61023e-05
-0.000676185
-8.11421e-05
0.000331872
0.000425455
-0.000109175
0.000284526
6.29535e-05
-4.36721e-06
4.93992e-05
9.11267e-06
-0.000296049
0.000233818
6.22307e-05
0.000115479
-0.000410159
0.000359019
-6.43391e-05
-0.00064601
6.03498e-05
-0.000115113
0.000700774
-0.00036631
0.000556336
0.000381918
3.75518e-05
0.000152448
-6.32341e-05
-0.000126765
-0.00029304
-6.00697e-05
0.000247155
0.000105954
-0.000559112
2.05737e-05
0.000557499
-1.89603e-05
-8.33059e-05
0.000595519
-0.000583844
7.16311e-05
-0.000930631
0.00110649
-0.000844846
4.65498e-05
-1.91913e-05
0.000346701
-0.00037406
0.000863779
-0.000465346
5.20923e-05
-3.0358e-05
7.26776e-05
-9.44118e-05
3.10202e-05
-6.44676e-07
2.34342e-05
-0.000236226
6.88495e-05
-6.50285e-05
0.000266577
-0.000875539
0.000757255
-4.95003e-05
0.000153407
-0.000212715
0.000108809
6.18368e-05
-0.000274619
0.000207015
-0.000154195
0.000821037
0.00013342
-3.35053e-05
-8.11768e-05
-0.000111044
-0.000137453
0.000217534
2.47792e-05
7.82419e-05
6.26317e-05
0.0002564
-4.14669e-05
-0.000438184
-0.000542307
4.27259e-05
9.43183e-06
-0.000488459
-2.26878e-05
8.24174e-05
0.000394316
0.000695586
-1.59516e-05
2.72537e-05
-2.48243e-05
1.51558e-05
0.000571077
-0.000604458
2.65424e-05
6.83799e-06
0.000110487
-0.000405531
0.000259411
0.000327259
0.000604638
-1.71837e-05
-7.27174e-05
1.04409e-05
7.94602e-05
0.000433256
-0.000118263
0.000191762
-0.000554326
0.000913631
1.14169e-05
0.000140857
4.59806e-05
-6.58705e-05
2.46698e-05
2.67902e-05
-0.0011073
0.00100177
4.59395e-05
-0.000405929
4.98503e-05
0.000119676
0.000236402
0.000202266
-2.16947e-05
-0.000118591
-6.19802e-05
-0.000116592
0.000507435
4.77715e-06
0.000117031
0.000398628
-0.000200383
-0.000709958
0.000186916
0.000634796
-0.000111754
-0.000160529
0.000690617
2.2198e-05
-0.000552286
-0.000331328
0.000950618
5.96156e-05
-0.000678906
-6.00141e-05
5.45025e-06
7.84925e-05
-2.39286e-05
0.000131823
0.000541949
0.000143069
0.00064827
6.44885e-06
-3.78266e-05
-1.94055e-06
3.33183e-05
0.000120138
0.000121697
0.000134018
2.97348e-05
2.79678e-05
-2.52454e-05
-9.48973e-05
0.000783747
2.34629e-05
-0.000712313
0.000708685
2.70737e-05
-2.23864e-05
-0.000713372
0.00050193
-2.31682e-05
2.93262e-05
-0.000508088
0.000222609
-0.00018187
-0.000121536
8.07968e-05
-0.00059825
-0.000145308
7.19899e-05
0.000671568
6.62438e-05
1.8825e-07
-4.64388e-06
8.4233e-05
-4.24074e-05
-2.4174e-05
-1.76516e-05
0.000134852
-0.000115472
3.08478e-05
-5.02276e-05
0.000173346
-0.000129178
7.92457e-06
3.83631e-05
-2.45267e-05
0.000223401
-0.000423356
0.000498113
-0.000845726
-0.000101374
0.000237142
0.000117324
-0.000133406
7.79187e-05
-0.00017363
-4.13744e-05
-2.00189e-05
0.000235023
0.000229561
-7.15977e-05
0.000110594
0.000748971
-6.74122e-05
-0.000792152
0.000572451
-0.000737754
-0.000765328
1.65774e-05
2.50178e-05
5.42232e-07
-4.21374e-05
-0.000754964
0.000240555
0.000492805
2.16043e-05
2.17369e-06
-1.1997e-05
7.60672e-05
-0.000654785
0.000203553
0.00056671
-0.000161545
7.82391e-05
0.000544345
-0.00080069
-0.00018216
0.000438504
-7.62411e-06
9.12242e-05
-0.000373223
0.000289623
0.000107047
-0.000426745
0.000783745
-0.00072614
8.54648e-05
0.000533145
-0.000502129
0.000100808
0.000688025
-0.000575667
-7.71918e-05
-3.5166e-05
0.000124135
0.00163148
-0.00128403
-0.000471585
0.000647695
-0.000877556
0.00036089
-3.86025e-06
1.19248e-05
3.54683e-05
-4.35328e-05
0.000282845
-3.21231e-06
0.000129303
-4.4544e-05
0.000103044
0.000569931
-0.000684296
0.000114365
-0.000407191
0.000289452
-0.00128587
0.00140361
-0.000451546
-2.56376e-05
0.000620687
-0.000143504
0.000227897
-0.000195381
-0.000403351
7.91104e-07
3.62049e-06
2.28421e-05
4.1946e-06
5.27468e-05
8.02078e-05
-0.00132401
0.00116749
-0.000254611
0.000411131
0.000380726
-0.000326534
-0.000137368
8.3176e-05
0.000151967
-0.000519025
0.000480759
-0.000113702
-0.000295897
2.37382e-05
0.000161522
0.000110636
-2.43286e-05
-1.79253e-06
0.000384836
-0.000358715
0.00060652
5.95277e-06
-1.69535e-05
-0.000548237
3.55657e-05
-4.64408e-05
-0.000337981
-0.00017488
0.000219822
-0.00103077
-0.000170592
0.000292165
-8.92933e-05
1.13438e-05
-0.000218099
0.000732408
-0.000196205
-0.0006311
7.1649e-05
-6.04787e-05
-2.78536e-05
-0.000434411
0.000305768
0.00039522
0.000244732
0.00038186
-0.000586451
-4.01409e-05
0.000117075
0.000163852
-0.00103589
1.65341e-05
3.99117e-06
-1.97342e-05
-0.000108675
-0.000155701
-0.000408476
0.000338875
0.000547158
-0.000477557
-0.000246153
6.70565e-05
2.78817e-05
0.000151214
-0.000805161
0.000451643
-0.000395278
-0.000228214
0.000189081
0.000108534
-3.36963e-05
-0.000511195
0.0004554
0.000376381
-0.000320586
-0.000426726
0.000405751
5.06031e-05
-2.96277e-05
-0.000123878
-6.8235e-05
5.80993e-05
-0.000249582
-0.000413355
8.71624e-05
0.000708052
0.000498694
0.000798055
-0.000419972
-0.000876777
-1.31448e-05
8.73517e-06
2.11408e-05
-1.67312e-05
1.01341e-05
0.000771624
7.31459e-07
4.7095e-05
0.000589683
-9.34305e-05
-3.62468e-05
5.68459e-06
-0.000567965
0.000598527
-3.20662e-05
2.22345e-05
-0.000218647
0.000228479
0.000462823
-0.000184872
0.000369744
1.80246e-05
-0.000710268
-3.54693e-05
6.52402e-05
-0.000613563
0.000818732
-0.000270409
0.000631835
0.000105291
-0.000130606
-0.000533251
5.02541e-05
-0.000225912
-0.000473673
0.000361604
-0.000188041
0.000729869
0.000241917
-0.000174656
0.000544642
0.000163159
-4.14506e-05
-1.36968e-05
-1.757e-05
-2.84665e-05
-4.07513e-05
3.71845e-05
-4.54747e-05
-2.07133e-06
-0.000500173
0.000365485
-0.000104712
-0.000325642
6.6367e-05
0.000363987
0.000113993
0.000144495
-3.35719e-05
-0.000224915
1.75418e-05
-3.53977e-05
-8.88596e-05
6.41219e-05
-1.6713e-05
3.37391e-05
-4.41794e-05
5.71791e-05
-4.75376e-05
0.000326454
-0.000564571
0.000285654
-1.05339e-06
-0.000412517
-0.000172881
-8.69388e-05
0.000412863
-0.000375208
4.92833e-05
0.000201135
0.000115272
-0.000180651
-0.000135756
-4.8822e-05
-0.000250634
4.24307e-05
-7.96562e-05
5.74552e-05
-2.02296e-05
6.81987e-06
0.00016804
0.000118999
-0.000140259
-0.00014678
8.96821e-05
-5.35222e-05
-0.000446319
0.000472491
-0.000429859
-0.000376355
2.11826e-05
2.77963e-06
-1.11023e-05
-1.286e-05
8.37957e-05
-0.000648898
8.75495e-07
2.28604e-06
-6.30995e-05
5.9938e-05
-0.000260873
0.000914297
-0.000295336
0.000252826
-2.9444e-05
7.19531e-05
-0.000311236
0.000758089
0.00059884
0.000215134
-0.000182138
0.000897966
-0.000424606
0.000911424
-0.000134601
0.000157992
0.000609434
-0.000632825
-6.05733e-06
5.16145e-05
-5.87019e-05
8.47323e-05
1.60781e-05
-9.08757e-05
0.000657687
-0.000798512
-0.000980978
0.00121642
0.000563073
-0.000377157
0.000382842
-8.41919e-05
0.000189482
9.18039e-05
-6.95693e-05
-4.03377e-05
0.00040763
-2.30107e-05
0.00048324
-3.23844e-05
-5.00263e-05
0.000454732
-0.000460392
-0.000517725
0.000523385
-1.30515e-05
-0.00044534
0.000530818
-8.54782e-05
-5.96458e-05
8.2474e-05
-0.00053597
-0.000142501
-0.00131596
0.000659954
0.000277509
-0.000439054
-0.000360549
-1.6608e-05
9.71436e-05
-5.33973e-06
1.61918e-05
5.52526e-06
-1.29819e-05
-6.1404e-05
8.60704e-05
-5.71703e-05
4.65587e-05
2.7338e-05
-0.000751278
0.000263446
-0.000178317
0.000666149
-0.000588084
0.00047524
0.000172793
-0.000211058
-7.72062e-05
-2.59108e-06
5.07151e-05
7.15184e-06
-5.52759e-05
-0.000343011
0.000249271
0.000176589
-8.28494e-05
0.000340951
-0.000205234
0.000460116
-0.000595834
-0.000585099
0.000530275
0.000276406
1.25978e-05
-9.72493e-05
-0.000191755
-6.35815e-05
4.36518e-05
0.000168369
-0.000148439
0.00034416
-0.000431538
2.77321e-05
-1.71295e-05
0.000319915
-0.000192766
6.25549e-05
-8.40035e-05
0.000948837
-0.000860057
-0.000508751
0.000557044
0.000390385
-0.000760514
0.00022308
0.000112168
-0.000824025
4.10517e-05
-0.000848471
0.000438144
-3.70739e-05
-0.000137806
0.000339975
-0.00030441
0.000234
-5.94372e-05
-0.000205135
-4.61092e-05
2.59582e-05
-1.22334e-05
-8.69013e-06
-0.000141343
2.58364e-05
0.000124197
-3.56728e-06
0.000103625
1.73847e-05
-0.000117442
8.09854e-05
-2.37763e-05
-5.72092e-05
-0.00056487
0.00140475
-0.00110075
0.000278712
-0.000477097
-0.000657235
0.000229716
-0.000203106
-0.000329454
-0.000213144
4.85206e-05
-0.000222014
0.000386637
-0.000122817
8.94569e-05
0.000252299
-0.000218938
-0.000914025
0.000948118
0.000373216
-0.00040731
-0.000161912
9.30285e-05
-0.00088177
0.000950654
-0.00112432
0.000552614
0.000775262
-6.61827e-05
0.000450296
-0.00036181
0.000760351
0.000131863
0.000276498
-0.000151076
-0.000257285
8.39101e-05
-0.000462628
4.57531e-05
0.000332964
0.000650814
-4.70229e-05
1.68961e-05
-3.48925e-05
8.23364e-05
4.49705e-05
-9.24144e-05
0.000710574
-2.49074e-05
0.000333275
-0.00101894
-7.03839e-05
0.000112236
-0.000164669
8.97e-05
4.49721e-05
7.33453e-05
-3.27505e-05
2.14944e-08
-1.33802e-05
-0.00103703
-0.000178333
0.000237134
0.000978231
-0.00100002
0.000477712
0.00102816
-0.00050585
0.000167206
-0.000454928
0.000594268
0.000571234
-9.74351e-06
8.02792e-06
-5.85519e-05
0.000131955
0.000410114
-0.000483517
5.63379e-05
-0.00047865
0.000446771
-0.000475791
-0.000204416
-3.32098e-05
5.07203e-05
0.000812808
-0.000903416
0.000354054
-0.000222672
0.000298495
0.000378908
0.00123372
-0.000569024
0.000270427
-0.000935125
0.000454483
-7.65901e-05
-0.000260818
8.18395e-05
-2.3217e-05
-0.000331536
3.07079e-05
0.000318712
-1.78847e-05
-0.0001823
-0.000289414
0.000248365
0.00022335
-2.50797e-05
8.88914e-05
-2.79179e-05
-3.58939e-05
-0.00041713
-8.36378e-06
-0.000451283
0.000258877
-0.000119197
0.000290022
-0.000450298
0.000531489
-0.000371212
0.000488939
0.00117185
-2.93106e-05
-2.03946e-05
0.00010138
-0.000606905
-2.27379e-05
0.000818678
-0.000703909
0.000386764
-0.000501533
-0.000151026
-0.000844218
-3.55236e-05
0.000234647
0.000514237
-0.000539157
-0.000713314
0.0015753
0.000371734
-2.29392e-05
-0.00117752
0.00135548
-0.000155022
-2.29173e-05
0.000151658
0.000157216
-0.000226537
0.000138232
4.9815e-05
0.000156155
-0.000114103
-7.93391e-05
-0.000489685
0.00135316
-0.000557691
-0.00150878
0.000360301
-0.000455648
9.78153e-05
3.0925e-05
0.000363
-8.12012e-05
5.91973e-05
-5.04391e-05
0.000657391
-6.04162e-05
-0.000377178
0.000422447
1.51466e-05
0.000186153
-0.000193982
-8.07171e-05
0.000179257
4.05736e-05
0.000702274
-0.000644085
-0.000538192
0.000480003
0.000701439
-0.000885298
0.000661175
-0.000477316
-0.000176785
9.74459e-05
0.000219346
0.00065266
-0.000478314
0.000323792
0.00110264
0.000312163
3.9812e-07
0.000515139
-0.000297807
-0.000217332
0.000626003
-0.000884971
-0.000283402
0.000171213
-9.2227e-05
-0.000675812
-0.000318358
0.000272391
0.000721779
0.00023257
0.000517027
-0.000541478
0.000725028
-0.000209889
-0.000250321
-8.70654e-05
0.000287886
0.000508387
-0.000725313
0.00057588
-0.000124942
0.000115034
-0.000565971
-8.54356e-05
0.000504569
8.19476e-05
-0.000501081
0.000595924
-0.00010548
6.14741e-05
0.00063032
-9.587e-05
-0.000523633
3.14308e-05
0.000531537
-3.93342e-05
4.241e-05
0.00035112
-2.78568e-06
1.56394e-05
0.000205084
0.000130397
2.57994e-05
0.000242139
8.9606e-06
0.000129075
3.00712e-05
-4.96018e-05
-0.000125575
0.000145106
-0.000328516
-0.000193943
0.000349403
0.000173056
7.12865e-05
-0.00018997
0.000243369
-0.000124685
-0.000130869
-0.000310416
0.000112768
-7.95725e-05
0.000152149
0.000252092
-0.000324668
1.30243e-05
-7.56166e-05
5.97163e-05
2.87604e-06
1.19489e-05
4.06635e-05
-0.000259191
0.000984218
-7.37228e-05
4.05364e-05
-4.63861e-05
6.6476e-06
6.37668e-06
-0.000143934
0.0001347
2.11828e-05
0.000128028
-0.000103593
-0.000539068
9.86392e-05
-0.00051599
0.000956419
7.83903e-05
9.23833e-05
-0.00118473
-0.000219135
0.0011757
0.000228173
-9.73765e-05
5.17151e-05
3.98656e-05
5.79584e-06
0.000574854
-0.000291707
-0.000822215
4.83945e-05
0.000122382
-0.000348085
0.000131378
0.000294927
-7.82197e-05
0.000178554
-0.000151039
-0.000164394
0.000136879
1.46139e-05
9.38452e-05
1.557e-05
-0.000124029
-6.37048e-05
0.000737198
-0.0004693
0.000453989
-3.55441e-05
0.000116722
-0.00022798
-0.000309509
0.000291024
0.000246465
0.000184002
0.000229311
0.000133225
0.000129167
-2.28805e-06
-0.000103309
3.57371e-05
6.85767e-05
-0.000281337
0.000185241
-0.000244579
0.000340675
1.19229e-05
-2.21175e-05
-0.000140845
4.50911e-05
-6.87123e-05
-3.14249e-05
6.03137e-05
-0.000310226
-0.000688329
-0.000244351
-5.29859e-05
0.000265913
0.000221865
4.65219e-05
-0.000166516
-6.9243e-05
0.000110281
-7.78491e-06
-0.000159539
5.28013e-05
0.000212142
0.000122966
-6.84141e-05
-0.000101938
2.34209e-05
-8.63021e-05
-4.00414e-05
0.000102923
-1.06728e-05
8.05235e-07
-6.57491e-05
2.80391e-05
-0.000204824
0.00113937
2.97399e-05
-0.00116911
0.000145938
-0.000177068
0.000254531
4.65668e-05
-3.99192e-05
-0.000116386
-7.61993e-06
5.32782e-05
-0.00013963
8.63523e-05
6.17906e-05
7.42638e-05
-5.44102e-05
8.1752e-05
-6.34379e-05
-3.90769e-05
6.91481e-05
0.000122903
0.000123318
-0.000171958
0.000236934
-0.000182323
0.000151684
9.27929e-05
-9.85388e-05
0.000363675
0.000190562
-0.000443749
0.000179567
-0.000202302
0.00114719
0.000169833
-0.000231882
0.000213733
0.000205663
0.000350116
-0.000192104
0.000151457
-0.000279532
0.000164538
-3.64638e-05
-0.000133642
0.000253279
0.000150824
-0.000270461
0.000173691
-0.000218349
3.2141e-05
3.04972e-05
-6.26383e-05
0.00141449
-5.3154e-05
-0.000206327
-6.88507e-05
0.000225575
-2.78045e-05
-1.12723e-05
-1.97284e-05
-1.59932e-06
2.1834e-05
-5.0624e-07
1.07322e-05
0.000264806
-0.000123091
4.33648e-06
0.000146948
-0.000110758
0.000309183
-0.000151706
-0.000114346
-2.25016e-05
7.68861e-05
-8.58823e-05
5.58249e-05
-2.21833e-05
0.000188256
0.000159786
-0.000115472
0.000266059
-0.000179433
-0.000393048
0.000400226
2.42532e-05
-0.000113048
3.03785e-06
0.000107794
-6.49948e-05
3.03669e-05
-7.31662e-05
2.42517e-05
-0.00037489
2.52439e-05
-6.28186e-05
0.000138105
-0.000188657
0.0002722
0.000148656
-0.000269935
0.00012288
0.000273046
-0.000186054
0.000179068
-0.000186927
8.49943e-05
-0.000125493
-0.000130137
-0.000396083
7.96818e-05
0.000446538
0.000238879
-6.5377e-05
-0.000175893
2.39132e-06
0.000160416
0.000199075
-8.38577e-05
-0.000275633
0.000146184
0.00113248
-0.000147499
-0.000636059
-9.95114e-05
0.000314942
2.3449e-05
-0.000106436
0.000201475
0.00114518
0.000243956
6.75503e-05
-0.000103011
0.000308506
-4.97979e-06
-0.000239774
-5.69403e-05
3.62886e-05
0.000332815
-0.000105178
-3.13002e-05
3.00421e-05
0.000533344
-1.05405e-05
-6.17096e-05
-4.4283e-05
3.92193e-05
0.000405289
-0.000399641
-0.000157222
-0.000419144
-0.0002042
0.000429401
0.000260361
0.000842391
-0.000644624
-0.000458127
-2.9448e-05
0.000516702
0.000709816
-0.000309044
-0.000169507
0.000353306
0.000125245
-0.000156695
0.00074768
-0.000671612
-0.000197616
0.000712534
-0.00019329
0.000165148
-0.000124588
-0.000229217
-0.000191755
-0.000491389
-0.000114772
0.000545745
-0.000851333
0.000965359
0.000220149
0.000156011
0.000225992
0.000129444
0.00053404
-0.000542903
0.000269224
0.000229006
-8.28704e-05
-0.000167767
2.16315e-05
0.000305224
-0.00020326
-1.03733e-05
3.89465e-05
-0.00115169
0.00112875
0.000626964
0.000179294
3.61326e-05
0.00018469
-7.91563e-06
-0.000184527
0.000195481
0.000704371
0.000728616
0.000208571
2.32006e-05
-0.000960388
3.25876e-05
0.000150282
0.000601686
0.000116546
0.000106598
-5.54201e-05
-0.000116172
-3.43782e-05
0.000481929
-0.000442361
-5.19012e-06
-0.000848652
0.000726999
0.000108838
-0.000199697
0.000276369
-1.50811e-07
-0.000251967
0.000159434
-2.24698e-05
4.25151e-05
-7.60582e-05
6.15822e-05
0.000292707
0.000389402
-4.44034e-05
-7.43699e-05
0.000172051
0.00113435
5.02826e-06
3.50227e-05
2.20082e-05
-0.000142179
-0.000407834
-0.000506596
0.000517886
-0.000153469
-0.00092604
0.000585956
-0.000700921
-3.33474e-05
-0.000537206
-0.000246353
-0.000634395
0.000930923
-0.000242549
8.20551e-05
0.00015692
-0.00020418
-1.78811e-05
-0.000156942
0.000298579
-0.000943976
0.000478704
-8.06877e-05
-0.000990268
0.000676742
-0.000612513
1.95576e-05
-3.15734e-05
0.000720299
-0.000708284
0.0002667
0.00029392
-3.1435e-05
-0.000394421
0.000131936
0.00016771
-0.000154862
-9.85948e-05
8.32323e-05
-7.31268e-05
-1.73427e-05
-0.000358313
0.000355022
-0.000126871
0.000200733
0.000410388
-0.000596503
2.37338e-05
0.00044535
0.000103002
-0.000160394
-0.000559939
-0.000680947
0.00125854
0.000180375
-4.61076e-05
0.00052522
0.000192312
0.00074082
-0.000704306
-0.000228825
-0.000176879
0.000216345
-0.0010765
-3.17312e-05
7.42322e-06
0.000549528
-0.00052678
0.000284706
-0.000273439
0.000312379
-0.000323646
0.00154146
-0.000917092
0.00031515
-0.000939521
0.000451822
0.0001625
-0.000646001
-0.000229217
0.00086675
-0.000688918
-0.000398075
0.000220242
0.000314633
-0.000318818
-0.000349333
0.000771794
-0.00060145
-0.000470937
-3.08249e-05
-0.000127064
0.000522341
0.000106232
-0.000501509
-0.00124927
8.28968e-05
5.90671e-05
0.000817916
8.5123e-05
0.000211751
-0.00111479
0.000428268
0.000270357
0.000282962
-0.000227273
-0.000146312
0.000775704
-0.000930936
0.000572916
-0.000208454
-0.000264439
0.000140988
0.000331905
-0.000592419
0.000708223
-0.00070773
0.000731601
-0.000443695
0.000495564
3.51469e-05
0.00117335
-0.00117875
-0.000168263
-0.000423994
0.000983614
-0.000980041
-0.000342555
0.000542577
-0.000444928
0.00098477
-0.00101563
0.00093534
-0.000938227
-0.000307724
-4.09803e-05
-6.38119e-05
-0.00022381
0.000146871
0.000174754
2.59198e-06
0.000188272
3.81418e-05
-0.000215496
-0.000271817
-9.60263e-05
0.000187835
0.000180392
-0.000148015
-0.000619467
0.000343171
-0.000188014
-0.000864907
-0.000238845
0.000676729
-0.000814442
-0.000277578
-0.000373731
0.000843788
0.00080557
-8.15127e-05
-0.000167013
0.000130282
-0.000915171
-7.88019e-05
-8.68328e-05
8.86947e-05
-0.000896707
6.19911e-06
1.82969e-05
0.000889
-0.000913496
-6.386e-05
0.000108679
0.000721712
-0.00083039
-0.000275048
0.000121829
-0.000245364
0.000763047
-0.000499395
-0.000149983
-3.90528e-05
-0.000574913
-0.000234958
0.000417788
-0.000615207
-9.46541e-05
0.000818916
-0.000781721
-0.000686148
-0.000884976
0.00102504
0.000546085
3.34455e-05
-1.22436e-05
0.000962412
0.000139984
0.000225684
0.00107196
-0.00114016
0.000722014
-0.000112039
-0.00107737
0.00112681
6.26022e-05
-0.00116613
-2.87313e-05
6.65841e-05
-5.89803e-05
-0.000702505
-0.000201316
0.000706205
0.000123187
-0.000517487
-0.000140295
0.00054301
-0.000494062
-4.59851e-06
-0.00103725
-0.000482366
0.000464943
0.000149286
6.06272e-05
-1.77744e-05
-6.5642e-06
-0.00068505
-0.00016547
-0.000115305
-0.000622978
3.37162e-05
0.000589262
5.20208e-06
-8.63527e-06
1.53126e-06
0.000281377
-0.00127951
-5.68815e-05
0.00105501
-0.000420862
1.9503e-06
-6.76082e-06
-9.93943e-06
0.000572716
-0.000556016
-8.33366e-05
-9.72703e-06
-0.000961311
3.58022e-05
9.58775e-06
-7.66901e-05
-4.55252e-05
-1.35645e-05
2.53934e-05
0.000687151
-0.000411614
0.000112646
0.000262362
0.000496502
0.000212287
0.000167546
6.05729e-05
0.000109955
-0.000458094
5.1285e-06
0.000125324
-0.000248901
9.00044e-05
-0.000236972
0.000337764
-3.44251e-05
-1.81422e-05
2.52621e-05
-2.87063e-05
8.3523e-05
-7.52113e-05
-0.000333372
0.000530778
-0.000198133
7.27786e-07
0.00087627
-0.000849444
0.000620124
0.00011874
0.00011058
-0.000111826
0.000165204
-9.01854e-05
5.95564e-05
-3.0775e-05
6.75193e-05
-0.00011791
-7.41969e-05
1.95289e-05
-3.56181e-05
1.60892e-05
-6.45783e-05
1.89132e-05
-4.97105e-05
2.76538e-05
2.20567e-05
-5.70173e-05
5.48264e-05
2.19093e-06
-4.13241e-05
-0.000402572
-5.30316e-05
5.05872e-05
2.44434e-06
8.30336e-05
-0.0011144
0.00121178
-0.000499423
-0.00153458
-4.11359e-06
2.36425e-05
-6.08776e-05
0.000187993
7.1794e-05
3.41333e-05
-7.49136e-05
2.52031e-05
2.62039e-05
0.000771565
-0.000754345
-0.000218535
2.35402e-05
1.79482e-06
-2.57017e-06
-0.000565166
-0.000159781
-0.000188228
0.000414471
0.000146884
-6.35396e-05
-6.57778e-05
4.90022e-06
-0.000167768
0.000210339
0.000103204
-0.000358865
3.60939e-05
0.000379109
-0.000130246
0.000140611
0.000749968
-8.06345e-05
-3.08842e-05
7.31725e-05
0.000679725
0.0010499
-0.000755026
0.0007071
7.50217e-05
0.000470653
-0.000342727
5.67639e-05
-5.72286e-05
-0.000175538
0.000122569
0.000115226
-0.000176191
-6.16032e-05
-0.000158582
-4.20417e-05
-0.00044318
9.87336e-05
-0.000740868
-0.000215991
0.000164109
0.000792751
0.000992363
-5.97999e-05
-0.000214636
0.000470399
5.77869e-05
-0.000497478
0.000119708
-1.83282e-05
0.000200699
-0.000233713
-0.000176938
-7.26661e-05
-5.94473e-05
0.000203907
-0.000136175
6.36044e-05
-7.05956e-05
-0.000142856
9.5541e-05
-3.10591e-05
-0.000390986
-0.000688962
0.00062155
0.000902797
3.16505e-05
-3.66788e-06
-4.71455e-06
-0.000708759
0.000834639
-0.000105971
-0.000340394
0.000331252
-0.000234959
0.00045343
-9.10358e-05
2.55776e-05
9.89484e-06
5.55634e-05
-0.000235025
0.000214233
-4.74654e-05
-0.000150944
0.0001245
2.64438e-05
6.31041e-05
-8.91566e-05
2.60525e-05
9.23433e-05
-9.56153e-05
0.000176635
-0.000191447
0.000711093
0.000347104
-9.1278e-05
9.93911e-05
0.000176749
-0.000148112
-0.000371047
0.000453719
-2.78127e-05
-0.00122542
-9.11511e-05
0.000176409
0.00123325
-0.00117351
4.33043e-05
-9.91357e-05
4.50053e-05
0.000102265
-8.11554e-05
0.000133836
0.000424813
2.89549e-05
-2.99771e-05
0.000413886
-0.000300323
-0.000405101
1.89932e-07
-0.000869534
-0.00044871
-0.000269274
-0.000116391
6.12051e-05
-0.000315805
-7.10612e-06
6.86759e-05
-5.68246e-05
-4.7452e-06
0.000213123
-7.68733e-06
-0.000334991
0.000119624
-0.000156389
-0.000319296
9.21019e-05
0.000501097
-4.53074e-05
9.68932e-06
-0.000352742
-0.00101441
7.94909e-05
0.000258853
-0.00019798
0.000113585
-4.64223e-06
-0.000306544
-0.000188271
0.000420445
-0.000134589
0.00040767
-0.000363367
9.63676e-05
-0.000482414
0.000112117
9.30055e-06
-8.56154e-05
-0.000126376
0.00056645
-0.000140216
-2.24596e-05
-0.00019138
-0.000229384
-0.000780642
0.00100401
-0.000729377
0.000352907
-0.000508506
7.8753e-05
0.000914572
-0.000197637
0.00018201
-1.75832e-05
-0.000257176
0.000291529
-0.000237459
-0.000200158
-0.000466015
0.000444159
6.57612e-05
9.1381e-07
-0.000142733
0.000825437
-0.000356635
-0.000818135
0.000189783
0.000123032
0.000283458
3.5506e-05
2.75982e-05
-0.000107014
0.00119496
1.33106e-06
-0.000133078
-0.000688772
2.78489e-06
-0.00098754
0.000526084
-3.69494e-05
0.000201483
-2.55564e-05
0.000215633
-7.87839e-05
8.6308e-05
0.000202365
3.35545e-05
3.15308e-05
1.83981e-05
0.000552192
7.77067e-05
-0.000188852
0.000391869
8.92274e-05
-0.000115681
-6.28394e-05
-0.000283871
0.000125345
-2.07481e-05
-0.000122543
8.6523e-05
0.000221262
0.000360038
-0.000442364
-4.40493e-05
-0.000709881
-0.000518929
0.000448168
-5.03212e-05
9.77546e-05
0.00011473
-5.10461e-05
9.59473e-05
1.5042e-07
-0.00029959
0.000192723
-0.000168167
0.000450771
-3.41658e-05
0.00014715
-0.000144838
0.000135686
-0.000171499
5.27983e-06
-7.07346e-05
0.000872257
-0.000512893
-0.000266335
0.000478977
-0.000459603
3.81197e-05
-0.000148787
4.46861e-05
0.000473687
-0.00119802
-0.000290072
-0.000170136
0.000555523
-0.000574931
-0.000126979
-0.000552877
0.000466866
-0.000176082
-2.7828e-05
-2.40883e-05
-0.00056178
-0.000563812
-0.00133832
-0.000365032
0.000364163
-0.000371976
0.000142295
0.000476972
-0.00024262
-0.000376648
0.000174199
-0.0001378
-2.59215e-05
0.000245797
-0.000273398
-0.000165165
0.00049896
-0.000392347
0.000129659
-0.000112737
-0.000482269
0.00112351
-0.00101556
5.52891e-05
0.000383271
-0.000253028
5.41731e-05
0.000325154
-6.06143e-05
-5.78075e-05
2.46246e-05
3.68034e-05
-0.000220192
-0.00157909
-0.000921541
-0.000372428
0.000306654
0.000298386
-5.28673e-05
3.32358e-05
-0.000136066
-5.09341e-05
1.09184e-05
-9.36496e-06
-0.000116897
-0.000201277
-6.87793e-05
-6.93348e-05
-0.000573905
0.000584039
-0.000521131
0.000576395
7.64445e-06
-0.000530674
0.000459301
7.13733e-05
-0.000458298
-6.28326e-05
1.00291e-06
-0.000694944
0.000712968
-0.000577877
0.000590293
-1.24155e-05
-0.000530782
-0.000625169
-6.97748e-05
0.00069729
0.000677191
2.00983e-05
-0.000538006
-0.000444177
0.000455532
-0.000398643
-5.68892e-05
-0.000335424
-0.000108753
-0.000229154
-0.00010627
0.000154064
-8.70077e-05
-7.50896e-05
0.000668106
9.0855e-06
0.000690433
-2.23272e-05
0.000713896
-3.68448e-07
0.000577645
-0.000372885
0.000130166
-1.04582e-05
-0.000169096
-0.000364524
0.000209975
-0.000256325
0.000145348
0.000189857
-4.01953e-05
0.000383071
-0.000393968
-0.000720895
0.000154275
-8.76448e-06
4.86493e-05
0.000406886
-0.000702007
0.00018602
-0.000224881
0.000203374
0.000153289
0.000100835
2.36653e-05
-0.000854179
-6.00416e-05
4.27524e-05
0.000151793
-8.30641e-05
9.42679e-05
-0.000867196
-0.000189507
-0.00153247
0.000553366
0.00028034
-0.000218129
-1.94843e-05
0.000709254
0.00024927
-0.000316012
1.6694e-05
-3.36116e-05
0.00106998
-0.00127829
7.18351e-05
6.0867e-06
-7.79218e-05
0.00126118
3.65489e-05
6.97995e-05
0.000197632
-0.000142158
7.29168e-05
1.84448e-06
0.000257144
0.000855455
-0.000886019
-0.000326072
-2.41573e-05
2.26825e-05
-0.000397995
0.00022505
0.000742875
0.000903094
-0.00090274
-0.000205137
2.63332e-05
2.86257e-05
-2.91662e-05
0.00026485
-0.000161077
0.000172725
-0.000454263
-0.000827778
-0.00022498
-9.38889e-05
0.00016105
-0.00011709
0.000155914
-0.000199873
0.000243854
0.00023513
-0.000226157
0.000113264
-0.000143828
-4.06771e-05
-0.000232265
0.00057871
0.000111905
-5.43886e-05
-4.84629e-05
-3.80509e-05
8.98922e-05
0.000201319
0.000364341
-0.000538079
9.34464e-06
-0.000145551
0.000680344
0.000602688
-0.000189618
-6.77656e-05
-0.000543714
-0.000665758
0.000655218
-0.000182097
1.19613e-05
-0.000741758
0.000531822
-0.000151874
-0.000299658
0.000167238
6.62373e-05
0.000203603
0.000415216
-0.00059119
-0.000132284
0.000214743
6.20807e-05
6.12123e-05
-1.90229e-05
-0.000584568
2.28505e-05
-2.97063e-05
-2.01896e-05
0.00040096
0.00013059
0.000425209
0.000453135
-0.00012693
0.00014741
0.0003451
-0.000462731
-2.84219e-05
3.01844e-05
-1.1815e-05
-3.17496e-05
-0.000236427
-5.77668e-05
2.96285e-05
-0.000634852
-0.00137035
0.00113404
0.000171355
-8.05472e-05
0.000781449
0.000194096
7.62435e-05
0.000163046
-3.78494e-05
-0.000184349
0.000272991
-7.26635e-05
1.71104e-05
8.70838e-05
-0.000138854
0.0001451
-0.000221742
3.56245e-05
-2.68129e-05
0.000179023
0.0007932
0.000495951
-0.000341828
-9.23739e-05
0.000248273
-0.000180631
-0.000351513
-5.53185e-05
5.48635e-06
-0.000278669
7.26299e-05
-0.000532369
7.77135e-05
0.00029663
-0.000392068
1.77239e-05
-0.000198221
-4.10072e-05
-4.59469e-05
7.9686e-05
-0.0004266
0.000217415
0.000402492