/*--------------------------------*- C++ -*----------------------------------*\
| =========                 |                                                 |
| \\      /  F ield         | OpenFOAM: The Open Source CFD Toolbox           |
|  \\    /   O peration     | Version:  v1912                                 |
|   \\  /    A nd           | Website:  www.openfoam.com                      |
|    \\/     M anipulation  |                                                 |
\*---------------------------------------------------------------------------*/
FoamFile
{
    version     2.0;
    format      ascii;
    class       volScalarField;
    location    "0.79";
    object      epsilon;
}
// * * * * * * * * * * * * * * * * * * * * * * * * * * * * * * * * * * * * * //

dimensions      [0 2 -3 0 0 0 0];


internalField   nonuniform List<scalar> 
1431
(
108.9
30.3783
2.76692
0.729313
6.24653
37.0586
0.888905
352.772
51.0974
0.834415
119.984
268.485
52.9197
13.8644
20.8236
0.726951
26.7135
13.2158
24.4221
18.3115
254.812
17.2085
51.9047
303.415
54.2262
33.9375
78.3709
11.7
68.6607
28.7632
22.9116
36.8964
20.5591
8.21393
45.1701
2.40787
87.4274
0.507832
0.30773
29.4084
81.2823
81.2071
45.9566
0.513212
53.7267
6.50153
27.4196
64.5932
0.917964
0.452015
34.2364
0.443455
41.7075
304.883
18.8816
27.1308
7.03297
297.46
44.5549
10.0114
13.9621
0.542009
0.816899
0.469233
0.365919
0.957813
4.80783
1.49576
4.01536
24.2668
301.741
11.1808
0.698306
7.20507
17.5097
9.708
2.19428
0.460367
0.963312
9.02741
32.2508
3.68048
131.067
32.5528
156.753
0.825596
1.16813
21.0282
175.611
188.897
28.5474
7.39562
1.70251
0.58596
17.1466
31.4852
307.031
101.792
0.532319
15.9382
36.5098
0.507722
31.5912
7.12936
1.92348
33.8427
47.4964
123.359
42.1331
35.5754
6.86088
59.7521
12.808
84.0269
27.8715
7.49634
15.2208
0.817017
1.37628
0.623794
31.5951
31.592
374.02
20.8109
241.063
0.76572
1.26869
11.8636
2.28002
2.73655
32.0668
19.003
2.1688
25.8694
29.8584
0.963976
1.54884
0.733386
158.541
1.5626
0.436732
18.0738
43.2264
5.64833
57.3992
20.5057
1.40168
39.5309
0.664112
6.7188
0.812812
4.90698
32.0365
1.45455
40.5103
1.47017
149.857
57.2907
169.208
0.946547
174.728
61.1874
0.421337
0.899821
250.845
98.255
91.1168
25.7368
0.442187
68.5008
173.901
46.3381
24.6829
162.566
42.4498
148.521
1.61326
42.2571
40.5325
46.16
1.2649
0.446071
23.3321
473.265
39.2415
96.5458
138.846
57.5627
23.663
178.072
18.0317
26.7122
27.6071
164.74
1.24366
71.3933
100.382
36.7857
3.15943
60.7722
25.7938
0.429735
84.1941
1.63847
53.9984
19.7006
39.1399
3.47632
191.01
30.4027
175.863
0.470244
44.0464
35.4547
174.44
28.0684
30.873
37.2361
24.5336
73.2243
41.3183
22.6832
71.8415
0.591598
43.7006
248.648
108.174
83.8942
42.8396
43.9489
303.485
21.8968
31.4704
26.3506
38.2624
169.49
40.0599
34.3917
17.6389
16.2478
1.34189
37.5675
214.271
26.802
25.2182
40.225
30.7497
87.3326
43.5285
0.438226
8.41657
148.465
0.81482
0.370209
18.6847
67.6687
0.677975
300.925
146.937
29.6782
42.1748
156.711
23.5163
1.36541
48.5165
96.7899
55.8734
256.829
60.7347
7.57899
44.5969
36.1426
21.5795
8.70396
169.766
24.5361
162.167
38.859
49.7578
59.7396
51.9249
80.8122
20.3987
26.7051
7.16404
122.177
71.8541
123.188
172.634
32.3449
3.23141
56.5084
84.887
48.6767
29.0036
45.3432
175.982
111.563
25.3653
57.134
43.3766
15.8834
14.7255
42.9913
44.4172
0.552514
43.877
28.7516
81.4321
53.8227
84.7145
0.794656
0.661261
102.107
49.448
95.6831
38.3245
12.1285
1.73785
777.703
43.3789
84.4356
8.01503
43.6273
37.0082
7.36046
11.9896
58.2163
299.723
0.36333
80.8709
3.2516
56.2482
21.0758
1.15061
42.9916
57.2939
159.03
37.043
98.1092
5.27946
44.0384
73.7252
78.5658
47.9899
23.1832
24.8274
157.236
69.2381
48.8105
39.9554
3.22229
42.7531
48.8542
6.05015
19.3532
175.296
128.847
141.265
75.868
19.78
78.3537
67.6777
8.9504
2.55389
147.305
55.7175
584.434
46.4433
17.8354
108.289
6.83045
185.939
33.5072
72.7954
358.412
52.8271
10.72
23.3838
438.248
67.5899
36.866
17.1445
7.81517
775.146
42.8719
43.6799
48.2857
33.5914
34.9783
2.08395
47.3733
48.154
0.452559
163.976
43.4886
63.8858
65.2686
60.0788
39.0247
53.8652
67.606
121.928
63.948
15.274
60.1564
38.2614
13.5214
3.85517
59.4133
61.9181
38.2713
58.7549
50.6291
45.9197
5.83402
42.6763
17.7958
37.2245
58.1701
53.9194
54.694
26.2855
45.362
57.7288
8.40769
9.44514
34.3387
8.48195
240.623
68.4056
71.8333
76.8343
77.185
78.5986
75.0939
71.6443
76.98
73.0068
76.186
7.94337
155.444
4.81249
2.42598
3.64048
2.02346
1.85447
1.74471
31.361
17.4135
17.7972
0.707185
0.841481
4.86769
0.872912
0.812747
21.433
262.096
6.25844
2.3818
18.7377
0.651516
250.716
0.747188
2.40292
0.939912
5.07037
243.686
0.959533
235.775
0.58463
0.518715
5.95073
30.3271
159.523
146.012
1.23768
0.672386
1.9962
0.509283
28.0097
2.83049
164.371
1.16662
6.71198
29.0161
5.41874
4.54109
1.94658
5.65897
180.258
0.560258
3.02505
9.03211
32.6871
5.14318
6.188
187.851
1.93587
26.1615
41.8418
19.0868
20.3018
66.6813
182.636
150.901
5.07258
5.69203
6.59603
11.1966
11.0454
39.8861
3.46819
5.61506
78.8294
0.406734
38.2634
14.3516
45.3503
159.74
44.0387
12.5377
26.8798
0.389554
22.2461
0.539246
177.454
29.0227
9.14817
12.9222
30.9534
28.7267
34.6783
87.2801
72.5486
9.02409
16.4871
162.677
23.4287
14.3182
60.7498
72.4592
87.9311
21.1373
47.0223
17.051
28.4568
146.313
62.503
75.3938
40.8628
64.8048
63.534
53.6308
0.692382
78.3807
0.644727
43.2988
146.793
346.048
77.3363
163.196
102.21
44.8686
579.666
47.2399
18.8453
0.734916
44.9439
59.7577
56.8268
92.3553
71.4324
13.0566
77.5492
33.7851
0.412217
149.468
61.727
65.8184
57.5856
67.6841
51.6256
42.8499
47.3602
35.112
23.9498
25.8481
109.557
16.9821
51.2669
232.697
34.3058
32.0345
47.3642
67.7996
28.4428
43.0425
72.7157
174.49
173.534
33.249
55.0149
26.4928
43.6969
36.5647
105.614
56.3991
1.58503
2.2811
0.459051
41.8343
48.7145
61.9407
64.3684
58.5287
207.511
1.05625
30.5626
45.2861
39.7161
36.2242
61.3653
50.5162
43.5862
42.4374
69.0803
7.28944
57.1258
17.6418
45.1091
35.7728
0.507938
69.8676
56.3123
40.2005
308.882
4.42518
67.1136
23.9246
63.0019
115.583
1.23445
54.7536
176.006
40.069
36.6738
35.2129
233.092
42.8726
41.8147
76.4343
124.094
46.3636
4.59585
34.9962
51.029
48.5346
15.949
170.653
172.924
65.7132
41.0016
48.9184
45.5676
52.261
19.5819
13.5935
39.0816
4.14781
57.0472
37.1062
273.722
74.9873
37.011
29.1874
282.222
22.6153
45.0729
12.5389
19.1553
18.7846
41.6868
278.109
0.605494
3.01426
53.3383
55.0158
7.47292
47.494
97.7404
44.2794
83.7087
30.0507
11.4418
80.5681
233.763
45.0268
7.12616
99.4536
141.229
40.3988
58.4093
18.6482
137.931
296.782
104.104
185.551
32.584
44.3121
58.5804
18.785
30.1797
45.8245
15.6561
91.3596
47.6604
60.882
3.19731
69.2033
91.2961
20.8912
145.855
54.2405
22.5252
37.4487
65.8719
49.0836
116.64
172.374
0.374643
82.4658
31.6593
2.39652
133.54
41.4495
79.0167
285.908
286.903
0.758699
35.1813
51.5789
6.00705
49.2601
58.7985
36.7187
30.5603
6.29088
60.8541
0.686283
26.1574
20.0276
10.8627
0.634938
381.452
56.6675
57.839
6.28201
40.815
26.9846
374.045
141.162
42.9366
0.857461
3.15388
50.0901
0.635539
0.77794
55.3963
12.7586
46.15
32.7558
53.899
71.4865
62.8994
33.9327
3.52617
41.4026
58.6568
24.5313
41.11
3.03779
53.8802
0.986822
71.3932
161.302
37.9157
40.1544
25.681
37.2925
78.2097
12.6407
38.158
62.9509
33.0523
4.97024
0.771991
30.4283
0.592764
52.3942
30.3049
23.9971
8.02864
60.452
61.2099
736.594
31.722
40.8271
44.7546
39.4043
525.977
1.95064
26.103
161.044
69.6179
280.363
48.6321
7.42771
84.4172
61.445
2.57898
84.4695
50.2432
70.4179
102.175
36.545
61.2037
17.576
7.29974
0.856002
78.0677
329.727
311.135
27.2763
37.3425
289.162
46.6756
84.9735
59.4737
20.2665
54.4167
5.03285
1.84625
38.5654
52.2182
174.359
6.19738
332.622
37.9661
150.203
46.9535
17.6096
33.982
19.6033
3.78685
0.979802
4.01067
52.0603
2.19032
0.746676
18.8097
40.6368
49.7831
29.7797
61.4911
51.0301
59.5484
0.55146
153.266
49.4916
72.13
601.699
60.6329
97.9831
33.9962
8.21092
1.03185
106.916
45.8313
80.5871
239.985
0.867942
75.6979
187.323
513.436
297.069
376.013
63.9411
53.0768
58.2247
66.2369
62.3849
71.9098
50.0425
38.9825
36.0615
38.0688
38.1181
51.3937
79.8109
34.6879
37.3583
41.7324
32.09
49.3467
48.6687
30.9481
47.7837
46.4052
30.7803
44.0877
55.5499
133.693
0.528096
20.0914
36.628
16.0662
13.8755
224.611
47.1038
18.0721
14.492
26.2934
9.11439
317.858
29.3503
2.45352
147.06
46.6768
62.3065
22.5728
1.39689
309.75
5.93822
41.3566
42.116
38.2077
3.23823
13.2455
139.464
34.9934
28.8112
55.0103
60.3296
44.5702
47.7164
163.502
1.25537
0.434187
7.98619
0.541027
53.3684
67.7501
28.4299
28.1269
40.2751
15.5367
26.4332
8.12801
21.2692
53.8174
153.198
62.9109
44.9017
76.2322
6.70504
31.3423
1.01847
40.7598
7.96997
1.6489
45.146
27.1047
353.195
2.44784
28.2555
9.1981
44.4832
0.800928
844.879
56.0113
33.5803
1.53126
325.753
57.6155
142.754
0.695611
0.610218
0.860511
5.72377
8.13749
55.2513
29.9978
394.047
199.847
40.7612
56.7854
0.50132
37.5872
21.9263
49.0855
26.1542
16.3496
50.6991
59.5822
53.023
92.3873
81.2347
0.837794
0.7938
24.6508
53.8018
55.4871
7.14104
47.9228
37.1652
40.3537
15.8179
45.0388
39.3411
168.625
440.473
1.02076
69.6656
30.1597
1.06497
60.3989
323.63
28.4536
43.4236
21.0365
168.294
146.696
1.20953
14.4367
40.1887
43.9354
369.5
164.096
72.945
40.218
1.24791
129.295
0.647489
59.5014
27.5714
376.297
86.6722
295.585
167.977
58.343
20.9196
49.739
1.22091
5.7566
0.574418
0.939662
0.485864
47.3349
82.4788
39.3781
39.6243
75.329
172.27
0.377618
2.53955
66.6451
384.852
50.116
367.351
87.7913
66.1553
410.37
39.8057
418.977
421.932
439.71
339.926
345.202
324.495
443.262
293.267
0.689263
0.543198
0.693151
0.649808
0.709633
0.71081
53.6005
37.0047
78.5
46.0433
60.0167
29.2987
0.363425
46.4473
0.596524
0.928043
48.4291
0.474364
31.5112
17.041
2.06825
14.8568
5.08051
68.8945
60.3767
43.5301
44.4204
37.1685
5.05285
40.1398
671.778
33.0748
10.2449
24.1055
50.6769
4.74662
25.827
158.273
3.52474
53.8354
0.406487
9.19259
0.686864
31.928
26.2432
6.50479
0.407493
29.1674
7.39416
3.60586
65.7373
80.4327
10.5865
19.2587
33.1956
181.685
0.563413
162.649
235.92
6.60668
183.21
33.3711
11.6004
42.51
162.867
0.728941
48.9974
57.9409
112.381
72.0758
31.2451
40.3881
5.84046
0.514887
67.3609
33.6307
54.114
150.882
194.222
196.009
101.481
22.7444
30.3975
55.2987
1.22185
5.95972
1.92571
28.5171
8.24623
223.501
58.941
3.84792
156.032
45.4579
14.8674
71.2023
8.61857
50.1506
157.906
55.2867
46.6772
0.353686
55.5188
56.7375
186.743
78.4096
353.662
0.455815
8.01426
29.3536
289.313
151.937
99.5605
64.5903
53.2116
0.384877
322.058
5.7428
39.0857
27.497
26.3418
10.5275
66.6442
0.428119
48.0613
38.9524
179.804
10.3031
65.3026
41.5238
20.657
0.393058
5.74371
2.63103
109.055
26.5041
67.9981
148.55
52.0235
56.6208
44.3499
25.2168
0.473721
26.3282
14.7282
43.6995
395.757
41.9858
658.723
39.3425
6.92615
40.5382
169.104
39.5886
0.78476
16.4863
42.4451
99.2442
39.7863
73.6588
115.935
58.2139
12.9284
31.6225
11.4836
0.512928
41.0901
215.952
62.0354
240.465
45.2385
32.3268
40.3118
47.9749
27.5844
9.3823
35.2142
12.6721
0.458345
40.5517
424.179
41.8212
43.8465
0.882467
2.82334
22.7877
40.2522
25.1322
409.052
62.4878
81.2232
139.491
8.49172
46.3412
49.3398
53.2108
149.505
50.8169
69.1323
33.0203
51.8592
14.7667
70.854
22.2637
37.6485
322.105
48.9562
7.18733
30.8054
60.4565
89.9826
21.649
46.7516
10.9935
286.381
28.7995
2.20614
0.374044
555.141
38.2349
65.0853
1.19549
2.52632
244.373
10.9121
282.906
1.16338
0.882922
3.30028
415.762
0.534268
380.757
181.625
9.55049
52.9846
179.286
284.193
84.3687
329.797
4.55725
8.31813
25.7625
49.9282
5.32109
167.051
0.937415
52.1106
451.491
366.897
33.0562
31.5878
0.887466
170.888
0.957422
37.3879
16.9003
281.102
1.02047
2.47989
15.0718
87.9954
57.6324
38.8396
4.95492
0.409069
0.989075
197.309
357.154
0.905433
40.2204
5.75441
1.40755
29.0425
33.7467
12.5647
47.9331
0.422637
25.724
24.0718
35.8697
192.334
35.0433
0.494674
46.0091
26.5676
0.38756
0.888212
50.7292
16.6886
0.733479
18.8818
22.1996
31.7351
0.497934
0.543286
194.175
174.669
66.606
25.0103
0.628122
2.00807
0.422051
42.3075
1.3017
1.65611
3.09639
3.836
6.79626
0.439285
171.402
48.3242
18.8049
60.6757
60.3786
159.299
42.1577
0.41592
9.12442
94.3822
45.3
190.44
10.2407
20.7569
37.6777
52.7738
4.28341
28.4416
3.69805
9.23598
2.12455
169.12
236.573
62.8565
102.69
10.5805
78.5195
31.9919
50.4907
98.7424
11.3637
17.1586
46.8393
123.804
3.71009
0.439994
63.087
49.9302
22.2217
9.09054
)
;

boundaryField
{
    frontAndBack
    {
        type            empty;
    }
    wallOuter
    {
        lowReCorrection 0;
        type            epsilonWallFunction;
        value           nonuniform List<scalar> 
96
(
68.6607
28.7632
31.4852
273.722
282.222
278.109
47.494
30.0507
11.4418
233.763
7.12616
141.229
18.6482
296.782
185.551
285.908
286.903
35.1813
3.52617
71.3932
4.97024
102.175
36.545
329.727
311.135
63.9411
53.0768
58.2247
66.2369
62.3849
71.9098
50.0425
38.9825
36.0615
38.0688
38.1181
51.3937
79.8109
34.6879
37.3583
41.7324
32.09
49.3467
48.6687
30.9481
47.7837
46.4052
30.7803
44.0877
41.3566
67.7501
28.4299
40.7598
1.6489
353.195
40.7612
92.3873
69.6656
30.1597
28.4536
369.5
1.24791
0.647489
376.297
384.852
367.351
410.37
39.8057
418.977
421.932
439.71
339.926
345.202
324.495
443.262
293.267
0.689263
0.543198
0.693151
0.649808
0.709633
0.71081
29.2987
2.06825
31.928
31.2451
353.662
2.63103
395.757
409.052
69.1323
33.0203
0.534268
329.797
451.491
0.887466
)
;
    }
    inlet
    {
        type            fixedValue;
        value           nonuniform 0();
    }
    outlet
    {
        type            zeroGradient;
    }
    wallInner
    {
        lowReCorrection 0;
        type            epsilonWallFunction;
        value           nonuniform List<scalar> 
126
(
44.5549
10.0114
13.9621
0.542009
0.816899
0.469233
0.365919
0.957813
4.80783
1.49576
4.01536
24.2668
301.741
11.1808
0.698306
7.20507
17.5097
9.708
2.19428
0.460367
0.963312
9.02741
32.2508
3.68048
15.9382
7.49634
15.2208
0.817017
1.37628
0.623794
31.5951
31.592
374.02
20.8109
241.063
0.76572
1.26869
32.0668
19.003
1.5626
0.436732
43.2264
5.64833
1.40168
6.7188
4.90698
1.45455
250.845
1.2649
96.5458
138.846
1.24366
175.863
7.57899
49.7578
59.7396
3.23141
175.982
111.563
57.134
15.8834
0.794656
0.661261
102.107
7.36046
11.9896
80.8709
98.1092
5.27946
128.847
78.3537
67.6777
13.5214
17.7958
66.6813
78.8294
12.9222
162.677
72.4592
146.313
64.8048
146.793
77.5492
149.468
109.557
232.697
173.534
61.3653
0.507938
176.006
124.094
137.931
104.104
26.9846
97.9831
106.916
53.8174
194.222
33.0562
31.5878
94.3822
45.3
10.2407
37.6777
52.7738
4.28341
3.69805
2.12455
169.12
236.573
62.8565
102.69
10.5805
31.9919
50.4907
98.7424
11.3637
17.1586
46.8393
123.804
3.71009
0.439994
63.087
49.9302
22.2217
9.09054
)
;
    }
    procBoundary3to1
    {
        type            processor;
        value           nonuniform List<scalar> 
48
(
88.8186
90.4963
82.2047
87.0512
56.852
96.9511
90.4963
16.7804
72.223
3.36318
3.36318
4.09034
4.09034
2.26908
2.19616
4.19442
4.93765
5.01037
4.93765
3.57569
1.7533
3.04342
3.57569
45.4079
2.77731
2.84224
4.97994
3.04342
6.38195
15.0639
15.0639
11.286
11.286
72.223
2.45402
56.2442
26.7609
2.77731
88.4304
48.3575
2.26908
41.792
55.8094
3.57569
2.29498
68.4212
53.359
1.78154
)
;
    }
    procBoundary3to2
    {
        type            processor;
        value           nonuniform List<scalar> 
29
(
1.12601
1.12601
1.12692
1.32626
7.6549
2.75551
0.691152
1.53257
1.09968
1.17148
2.10177
5.23936
1.18607
0.413525
0.378067
0.447242
0.911677
0.937392
1.20773
0.40278
0.388266
0.911677
0.752769
0.937392
0.413216
0.901501
0.937392
2.84012
2.84012
)
;
    }
}


// ************************************************************************* //
