/*--------------------------------*- C++ -*----------------------------------*\
| =========                 |                                                 |
| \\      /  F ield         | OpenFOAM: The Open Source CFD Toolbox           |
|  \\    /   O peration     | Version:  v1912                                 |
|   \\  /    A nd           | Website:  www.openfoam.com                      |
|    \\/     M anipulation  |                                                 |
\*---------------------------------------------------------------------------*/
FoamFile
{
    version     2.0;
    format      ascii;
    class       volScalarField;
    location    "0.88";
    object      epsilon;
}
// * * * * * * * * * * * * * * * * * * * * * * * * * * * * * * * * * * * * * //

dimensions      [0 2 -3 0 0 0 0];


internalField   nonuniform List<scalar> 
5794
(
0.348338
0.365338
4.13558
115.007
41.2025
0.854175
9.05298
1.69246
93.762
0.276377
36.6001
4.97072
8.96412
38.8531
0.466632
1.06532
364.664
53.1503
0.437377
0.198424
60.919
0.736755
28.0608
1.47812
14.4129
108.921
270.758
41.4082
95.331
0.531944
5.12563
12.0756
21.6013
0.618837
1.62437
2.76918
4.42708
24.5508
41.8244
94.6064
24.2488
7.49222
9.35418
12.7644
0.417145
47.3272
23.7674
10.7247
0.228033
1.64238
7.87265
60.0004
0.659243
0.299466
0.0861078
43.2475
20.6323
15.9781
5.82953
229.282
59.301
0.320829
4.43941
14.7957
25.8984
0.34808
51.8131
27.333
56.9191
0.296386
81.1257
59.6069
310.576
2.01896
57.4273
24.9358
3.70238
71.4675
11.2513
3.09293
0.541391
0.16405
12.794
24.9473
12.629
69.9471
32.6147
100.366
1.71109
32.8344
110.529
24.7311
66.0441
111.027
36.6514
66.0491
82.4156
54.3333
22.3782
65.9001
50.5888
7.54658
7.3521
45.0055
7.49101
88.5268
0.226085
8.8723
44.0613
10.0476
0.54652
0.26896
54.6061
0.587153
29.5945
85.8191
0.559943
81.5935
53.4843
22.1052
84.5012
0.679469
5.59582
34.8321
0.302861
50.8958
60.8655
1.06923
70.0801
11.0252
4.77009
8.87458
26.6788
58.8937
94.5229
0.469891
124.068
0.326227
3.27756
0.402709
1.0516
33.4691
0.341775
38.5002
3.28902
302.89
57.0965
50.0113
28.085
24.5725
12.2526
0.22651
90.9469
5.79585
298.186
41.9159
31.1296
15.9912
81.6531
15.6224
0.335941
1.73123
0.531993
2.83478
60.9829
74.647
3.83834
1.81967
0.485742
0.286466
0.524697
31.0618
2.43026
1.70601
0.9167
20.4654
0.509658
8.31858
0.937506
79.5857
2.87125
20.8736
3.43641
48.86
4.10648
311.442
10.1214
16.4847
0.254972
6.70083
46.5123
15.1182
28.0973
4.15059
13.4121
6.7004
4.00372
1.44306
0.46061
6.80247
14.0896
64.5338
6.97803
6.40166
28.9528
56.3117
4.34384
18.9465
156.013
45.8951
9.316
10.2609
3.26942
1.80105
0.805678
4.97356
9.87039
33.6581
29.4835
78.0489
9.82274
32.2269
158.285
57.1323
147.577
162.466
7.90607
0.310642
0.291158
0.519657
1.55521
1.28491
0.509902
33.1884
25.8503
191.329
213.776
33.7015
10.263
0.739822
0.185956
56.3392
36.6952
36.7274
6.57989
1.18222
0.383151
25.1659
147.891
85.246
35.7952
0.370397
309.641
0.188593
4.95255
121.116
6.93217
18.409
14.7282
0.306803
79.6611
3.30765
1.84304
0.300599
21.3898
15.3708
32.579
71.607
0.297992
58.4524
29.3717
6.75189
15.9031
75.2943
16.3528
0.526999
0.280773
1.10995
0.122771
9.51137
3.60386
81.8904
24.8457
6.47478
70.1475
97.9929
38.651
49.8777
146.241
86.3773
2.04812
1.28731
0.575776
0.236382
4.8299
116.902
27.7934
4.97104
53.8999
0.357544
0.188381
54.0171
0.751042
41.833
4.04632
75.1219
0.124235
49.6737
65.5935
33.4905
10.2846
43.3769
48.7058
0.593962
9.82768
35.1115
12.0133
48.6779
46.5327
128.429
4.42884
5.36784
83.1589
38.5611
1.06751
18.0002
1.96044
5.50348
10.6001
34.1395
72.1551
8.62614
5.05066
22.5573
13.4583
0.315822
0.462443
0.512208
0.269699
11.0766
1.71269
13.2332
77.5017
29.54
0.565273
3.03855
76.5663
27.2948
85.0122
37.4397
60.0401
385.532
36.5557
17.9006
3.94234
253.806
0.458747
79.0515
10.5259
2.1948
14.8798
14.3579
98.186
8.73993
2.77569
2.41271
66.1333
56.36
27.609
15.7659
0.320466
0.392258
2.35195
2.16674
21.0589
50.4808
41.5591
21.5588
27.4921
0.149261
2.04037
0.311608
12.5098
2.61969
1.52108
0.57629
95.151
4.43324
1.5825
4.60845
1.75863
63.0617
0.216785
3.02544
1.60413
1.24375
0.712462
1.86933
0.388144
22.0284
1.20708
8.99335
165.179
1.28477
0.728935
43.7115
9.8997
0.920496
0.222392
79.9034
51.1443
20.33
32.5366
28.5792
75.2268
39.565
4.36116
65.896
54.9122
81.2291
22.4526
53.0541
14.1851
0.33328
2.98333
1.88842
0.815732
0.551243
0.207444
0.364932
60.1413
5.76453
35.357
79.5785
0.404544
0.548
7.26243
19.7408
2.53783
1.52766
0.535085
8.1181
5.01814
3.54976
1.2239
94.2291
32.1103
2.38226
0.49002
53.9971
0.526511
0.248545
87.3661
0.575738
70.2193
0.28811
75.2737
70.4504
42.1471
165.182
0.673831
0.322184
15.3007
1.45005
73.7041
11.0222
157.276
68.9925
17.5669
7.66687
0.375586
195.395
50.4732
0.250947
0.253914
95.5467
191.142
48.9235
3.47807
0.302527
37.8684
0.657751
0.311742
0.248944
14.0012
33.0348
10.157
1.51406
252.938
0.404817
0.231419
99.0872
90.3301
35.7985
9.38602
0.408677
0.470677
0.309157
2.07927
38.735
84.6014
192.381
8.69216
9.36629
40.9006
0.307683
0.723245
31.1309
39.1569
0.38621
64.1037
0.130732
2.53037
0.240135
0.533988
25.5933
75.1362
0.222873
5.54727
169.064
1.17873
0.219924
54.3424
79.9005
11.6201
0.277987
6.54738
46.8644
0.25853
0.915507
21.7477
0.625573
156.463
0.270096
0.777057
0.942724
6.61179
160.235
10.3761
65.0022
0.503491
95.8783
0.204114
46.2413
2.98519
0.945912
5.5008
37.9738
0.49671
1.02162
45.2515
0.192753
0.610245
4.66984
0.730929
0.627373
19.1786
0.960828
0.255495
28.9544
473.076
0.617238
57.9891
0.20036
42.8349
1.84786
0.764516
19.4678
0.870551
0.370622
83.36
26.9923
129.708
97.0606
137.76
8.93556
71.068
63.4646
7.44728
27.5985
81.8151
26.4126
104.008
190.332
82.6568
54.7349
0.489872
61.1479
20.754
89.659
0.388025
0.726173
0.34806
93.3356
29.5671
39.8464
0.138157
9.33481
0.249511
0.658641
0.210281
95.734
29.847
104.141
0.287523
8.45653
151.654
0.405637
0.0967256
9.93353
83.0862
118.499
37.7726
2.03853
2.308
3.22518
35.0281
29.9557
7.51621
76.2431
0.307248
42.6107
61.2068
12.843
0.27692
0.351618
2.12968
33.5957
73.6202
0.478124
0.408832
0.176249
0.226249
1.40108
0.204557
0.284108
77.0122
26.4134
0.421563
43.4568
3.72435
8.81226
27.9909
22.629
126.805
130.2
42.5064
48.337
0.241996
0.235724
0.849857
5.93756
0.27034
3.01057
2.65283
77.4011
196.407
39.4698
189.494
4.36772
0.154402
0.369004
0.626431
62.518
0.293714
46.7161
148.059
101.323
40.159
47.8689
35.5828
2.347
181.284
36.799
26.597
32.9931
115.794
2.89899
38.2657
1.66132
0.272053
24.346
0.3391
1.30306
29.1078
138.685
119.755
0.286675
0.131497
0.210402
40.1829
173.892
67.029
42.1109
0.245056
43.0118
17.5407
0.189894
0.881017
9.82939
0.294646
9.99171
0.608911
18.8983
28.1129
159.765
71.6926
0.250342
0.27422
111.991
21.3414
187.18
45.3846
76.0376
41.1164
16.2202
8.75523
252.793
47.0761
29.6997
42.8167
100.975
159.443
0.334616
101.866
3.42631
14.7986
28.2449
92.7144
38.4941
42.3711
41.286
129.03
28.0023
0.241045
1.67592
308.93
11.4848
23.67
61.2533
96.8138
0.401507
0.742131
0.321637
3.4094
87.1262
36.7272
129.827
1.48287
8.98982
0.454987
4.39313
0.352812
0.261752
28.1109
95.1896
5.09701
115.936
37.8958
8.53633
1.83823
191.051
79.1552
42.9661
147.102
99.9238
38.7845
54.541
8.23866
56.4927
20.175
85.5335
23.792
0.262715
1.0485
0.426615
0.238952
3.86124
41.8579
0.921858
22.5195
219.078
11.431
0.819097
0.306712
83.0404
30.2724
21.5633
87.4365
28.2302
3.08098
81.0769
58.9711
37.8464
3.60359
34.6241
0.254441
132.271
0.435246
80.4345
9.62184
13.001
2.27398
0.464124
0.352927
0.216699
21.5537
42.2438
82.3617
188.396
44.6574
1.07752
7.10253
33.8035
140.854
0.688736
9.55445
14.4109
71.5829
0.246091
0.900793
18.1807
49.1724
158.985
0.498708
17.4407
0.179602
0.234814
0.253896
21.5241
66.1829
82.7748
9.33118
0.269823
70.6589
0.23217
4.12843
303.986
0.605359
0.169222
3.36695
0.195829
20.8023
3.49796
25.4769
0.479823
1.21528
6.03404
10.7435
167.095
32.1229
112.323
42.1702
51.4121
70.3296
39.1639
163.484
31.7874
0.528178
0.316276
5.11299
29.1614
6.01706
0.394889
200.736
50.6436
88.84
16.9736
0.321147
55.2909
3.70044
14.1405
53.0837
0.856288
230.477
0.157508
0.296246
55.3908
16.7871
6.3689
5.83875
53.8772
10.6383
6.92141
0.33588
0.275826
49.4463
71.5219
9.52496
10.0886
34.3198
1.09473
38.7731
134.103
74.5529
84.7062
31.524
0.353204
0.192829
15.9173
0.47397
0.223715
0.205795
1.29111
25.1157
0.293286
7.36393
0.494492
100.873
50.6981
11.1966
8.09861
8.08651
15.9221
183.588
25.6538
74.745
6.29896
0.424637
174.167
11.9575
38.9058
7.35832
114.694
54.9288
61.3444
1.44515
123.1
91.4059
2.81152
1.36433
0.685558
1.0626
0.454726
72.7231
45.8644
78.1717
79.5863
22.4373
52.6555
26.9992
12.3747
0.235054
0.929596
12.4114
0.433479
143.576
21.4726
163.783
6.95328
74.5004
63.9893
0.299264
0.489873
143.319
179.101
10.0443
8.8754
22.9947
65.2035
0.248013
42.419
0.380171
3.40271
2.25709
0.313406
0.30838
0.295907
0.808788
0.383064
0.20356
0.493331
7.96668
57.5947
5.35685
0.142306
0.493507
76.3314
9.71925
26.4673
1.30846
32.5649
0.325297
39.3246
4.76606
0.950209
0.761964
11.2024
43.9326
0.551869
9.99673
0.623765
0.744682
9.23154
63.4977
21.5093
102.403
145.165
0.310576
11.0606
29.006
40.1512
26.6574
28.8024
44.2082
100.874
0.487169
5.49966
0.470426
0.409527
18.8248
11.682
170.916
157.865
112.002
0.116786
23.4744
137.171
62.9261
56.8757
50.4905
0.245399
0.736618
0.293653
39.356
11.0306
39.2607
4.55901
4.8885
4.40867
4.82089
10.0822
14.9312
0.248375
0.746857
23.568
33.0392
12.1538
0.220364
8.20324
49.035
0.367604
0.23815
0.278308
0.790368
13.1784
0.405176
25.9357
0.305538
10.364
17.0763
0.474582
54.4527
10.2188
0.29944
5.54768
76.6139
0.238347
65.6932
1.73037
0.930495
0.253534
2.33772
0.156967
0.370504
10.3682
0.509682
0.14365
0.654481
1.51625
2.32182
59.0882
27.3246
8.9095
100.984
31.5668
0.158262
0.377048
89.1235
6.58079
20.2503
84.9359
0.215563
19.5842
0.632106
67.8542
0.151487
55.8283
0.143958
93.937
45.1944
0.346366
36.1307
0.720125
5.89112
0.910883
2.42879
30.6655
33.8318
0.567037
38.02
0.170697
0.436468
5.0907
0.29705
0.811435
45.558
1.43824
19.3338
0.315562
96.1358
0.149375
0.969141
0.222671
4.501
51.1003
18.188
1.1718
28.6971
7.54277
16.2726
111.844
39.1267
0.315256
3.4162
52.0085
12.4526
19.5927
6.92953
56.7954
78.4359
64.4308
23.1107
63.738
8.74638
8.66398
0.236614
1.56723
2.87323
0.305402
733.658
40.2853
0.291804
1.13117
55.2769
51.4077
8.65777
0.294341
6.22946
22.4926
1.39266
0.491162
52.1906
2.03697
28.085
8.3984
91.7267
0.215338
0.700309
0.696042
4.44864
5.06188
31.6594
0.28222
46.1236
0.642467
98.6031
6.75164
8.76079
4.35323
23.0725
9.25138
17.7897
11.4909
4.50083
0.638079
1.0395
35.9921
10.4185
5.55515
0.159078
0.33524
19.9048
38.6407
23.1039
1.50422
8.77992
7.50868
1.3066
7.43223
7.27591
12.2656
12.2273
11.1117
27.1244
0.202748
60.0481
0.31867
291.951
0.280582
0.130347
0.285635
0.93129
0.223035
46.4904
0.260217
6.42196
0.682581
3.83242
38.1036
223.546
88.983
0.13916
0.440579
2.37633
4.42407
57.0389
18.6721
1.77873
8.61753
0.251305
58.1473
3.55102
17.8321
33.6814
5.78315
8.24908
34.7462
0.403285
0.509407
32.8271
83.481
32.2155
11.3519
6.21841
11.0678
0.222164
58.9885
181.162
38.9414
100.174
0.301659
0.571996
38.2144
9.98755
7.0406
0.176995
13.0841
40.3276
1.19716
0.625178
3.89902
0.768135
0.287728
2.77503
2.07243
33.3156
0.425339
9.39104
31.3803
122.199
76.0818
0.880338
31.2853
4.428
77.7156
1.45905
49.9158
109.857
27.4392
59.6414
1.48318
34.5513
34.6567
169.369
1.42954
0.256298
0.222997
75.2573
1.17746
0.807454
41.9474
12.6863
0.917048
20.9418
8.9293
2.14889
38.88
0.857261
0.287486
7.39506
2.46622
0.242364
1.01216
79.1915
9.35922
49.7978
43.3297
41.2605
0.293517
106.358
1.16385
32.5452
10.9677
5.40018
3.46617
0.489491
36.3153
0.369393
0.31007
0.176667
55.5808
0.136495
5.35536
25.6773
177.182
0.575997
137.021
150.159
1.08631
8.84595
0.322984
16.3745
5.52905
60.2477
77.6226
1.25949
0.880083
17.2581
28.651
36.8843
169.321
79.2206
115.074
74.4176
16.0833
1.02146
0.369574
16.5818
0.339837
84.1543
0.153708
0.504318
0.198777
16.7799
3.92019
1.26774
0.350989
1.86688
3.30463
0.751261
0.244295
0.370272
7.6055
2.93184
33.6317
13.9589
0.505218
144.127
31.2818
57.8943
18.3787
0.303492
46.0719
0.292378
0.601262
0.263636
0.59514
577.768
11.3843
45.6621
19.8776
75.0383
99.9409
18.0786
0.234712
0.19244
0.73807
0.740413
1.90123
1.315
2.43528
0.891715
1.64711
3.13528
2.01778
0.851655
1.04962
0.465433
0.532155
2.09597
1.86093
1.90405
0.973575
0.769868
1.10933
0.343306
0.604554
0.125355
7.13826
1.29918
0.711503
0.409475
2.70655
0.43393
0.996731
0.785468
0.435252
0.431367
0.504549
0.251321
1.53743
0.316266
0.715413
4.53625
0.404089
0.339259
0.730187
1.23992
6.45774
10.7329
204.965
0.194469
4.17512
36.268
93.6798
38.193
0.211815
0.291662
16.1397
0.20018
18.004
72.2051
354.402
61.9523
103.959
25.3738
0.13769
0.142368
0.617567
0.287765
0.657842
18.388
1.41172
3.26378
0.644177
3.59884
19.2182
16.932
1.25176
15.6014
9.07754
430.925
0.328466
3.74024
1.55711
13.2628
55.7719
0.979988
58.3982
39.3545
31.1135
26.7741
8.28792
20.8462
7.53815
11.4953
13.9057
749.037
0.274494
1.25622
0.630885
44.6641
42.4648
0.339601
69.5728
50.8429
0.78084
1.72951
2.84465
0.786464
0.477393
1.74674
2.52803
0.364549
0.370595
3.54828
1.13649
0.748699
0.23774
1.20026
0.380668
0.93592
0.963145
0.576205
1.80311
0.421849
0.278792
0.27078
0.638775
41.4701
63.783
6.67013
21.4439
3.55782
13.9162
34.973
0.241672
62.3244
38.282
3.59679
41.9658
44.898
1.788
0.286862
45.1914
39.5209
0.246902
183.863
93.7933
37.6749
0.187808
56.8766
31.4841
0.312216
59.0385
13.1011
63.0752
0.867513
3.65636
1.03206
62.24
0.262473
40.7368
59.4465
1.54345
116.788
0.525016
78.5943
0.275207
0.857741
0.169781
67.2188
0.190202
0.224936
2.32748
0.266723
110.56
10.7395
88.9718
19.9531
6.05458
6.34719
140.107
0.524255
9.12044
8.0729
67.1133
41.2215
0.874855
0.305553
14.8051
6.73738
54.5501
10.2527
0.264297
3.30927
1.29017
8.22134
0.355529
40.0538
27.9158
0.114753
0.294583
87.4802
97.3345
12.2614
6.47536
70.5856
2.03984
53.6665
70.2493
39.3537
52.926
35.9857
0.283689
45.2725
0.244912
0.879023
0.257004
48.1856
7.82738
6.44081
7.19212
45.8281
38.0345
0.319527
0.513451
0.361169
14.492
38.9395
52.3803
189.859
54.6973
41.3792
41.799
11.5097
27.655
26.6802
65.6031
27.6789
50.068
39.8723
52.0109
35.0912
113.869
106.754
2.28996
62.5468
31.3655
20.0083
13.3902
9.11622
91.23
42.6775
7.62118
53.0924
27.478
109.791
2.80349
4.96111
247.54
6.87905
63.6347
14.5177
0.478493
0.226743
0.645016
58.3164
0.271616
0.695813
0.882005
60.5336
65.7087
51.049
40.8102
71.0965
58.8981
72.0012
0.336251
72.5207
67.7064
65.0432
48.0066
63.4122
45.1729
69.7052
63.4601
67.9631
16.6068
14.6411
7.73512
163.187
8.82189
3.8865
2.44151
4.07819
0.390112
0.511061
14.5446
29.1754
5.5403
0.313232
0.486836
35.9266
27.6545
16.1721
4.99866
3.71169
4.01534
2.05585
1.48018
6.1049
1.59294
107.907
1.27334
8.38582
2.10214
2.23728
0.274125
12.9844
0.31196
9.02591
1.86721
0.292485
14.13
2.62374
1.35092
2.20378
1.38274
0.522058
69.7916
0.494056
31.4701
15.5602
5.76826
47.7331
101.777
0.501329
84.9879
29.5917
16.0992
124.17
0.450125
0.44374
111.861
25.6299
98.4895
0.516543
8.28169
123.448
110.022
73.9981
0.454519
0.488987
0.435476
19.1
6.10096
261.702
0.509937
10.4719
3.45844
0.512123
16.7114
0.471458
5.09052
50.6688
33.1178
11.3935
251.11
81.239
0.403493
83.4295
0.55307
3.28249
10.2782
0.572775
129.777
6.97716
244.793
6.06801
2.31985
0.548754
56.7574
237.583
0.341537
100.8
43.3662
9.93515
4.29437
2.11997
0.32407
4.77319
54.068
26.3779
53.5513
166.221
154.33
1.75984
7.49964
7.66259
89.7081
4.22097
0.665551
1.77067
220.55
0.215547
0.700723
0.577016
32.2104
6.41645
10.6352
1.64739
6.66792
5.07804
0.517661
3.77005
33.6375
1.13698
1.50366
3.99854
5.10232
0.624176
2.76987
1.47512
0.380347
131.592
2.99239
2.24874
4.66914
3.91928
1.06418
6.07144
7.30232
3.56837
0.214683
3.86617
23.6974
48.2712
3.95953
6.15952
1.89681
8.20727
3.8698
4.1028
1.39082
4.81129
4.08036
4.29548
1.56432
10.2553
5.61904
171.212
2.45696
6.59365
5.05987
4.93503
5.61263
4.20284
16.6835
1.40141
4.78472
6.00128
4.40471
4.69167
7.48206
6.28111
14.3996
1.68783
2.6906
4.61612
0.734421
1.1513
5.74951
3.71834
3.09318
3.74697
2.13947
4.44888
14.3634
4.73031
5.14727
4.29592
0.494199
0.730308
0.242149
6.41245
24.4595
4.25804
53.2885
12.1605
3.75534
4.08613
4.62205
2.36828
27.9283
50.2885
8.01471
2.19993
6.53107
4.00889
2.36158
0.763647
4.6081
9.67778
4.67745
7.51182
186.502
26.1498
1.02322
10.6639
12.9059
1.3897
0.748619
0.270561
0.462509
33.7602
6.8882
1.81282
4.86976
5.64632
0.754049
0.283192
0.461185
60.5383
26.9919
3.85573
34.0418
80.2899
6.18829
1.78211
6.85781
193.444
11.1729
0.706825
4.2953
18.4865
13.9092
3.98638
33.6317
24.2315
9.34345
30.538
12.4712
0.688682
0.235046
0.420048
24.084
10.3882
37.5806
29.9713
79.2491
1.41979
188.369
159.647
1.45913
6.08455
8.24613
3.87984
12.0322
5.22406
8.95839
8.08069
13.1508
11.5217
6.1505
49.4917
31.9844
52.7563
2.41653
45.6698
5.33636
1.77909
42.6155
0.251066
0.246949
30.4424
9.36595
5.35047
27.891
0.601492
6.75432
6.86882
20.6709
21.9271
8.66677
0.669582
0.240271
0.476296
39.9445
52.1612
2.29977
29.187
62.4516
57.0953
79.4622
4.44705
1.92488
1.53317
1.49187
1.6416
168
1.30873
48.08
55.1789
4.82055
10.63
118.685
0.623075
0.941309
10.678
13.3758
16.2945
6.0797
47.5583
52.8777
13.326
34.3957
36.4557
0.254731
4.613
2.35257
0.644443
0.538422
2.2382
10.9096
8.70132
15.0615
0.551088
0.200521
0.46133
97.7483
88.7534
0.243289
0.389117
108.445
80.7886
23.0347
0.279932
62.8708
3.74466
2.93754
1.43031
1.88076
183.032
1.18334
0.295387
0.251234
126
75.6628
94.1933
1.13916
91.3253
83.2758
29.2198
9.34574
18.0966
22.4378
11.3717
3.41665
2.73159
3.93221
4.08043
32.9039
28.3718
1.07437
0.716585
23.6233
41.909
39.6849
77.5299
49.4608
26.6348
3.98754
42.6507
2.88144
3.7947
127.705
53.6683
70.213
91.3591
54.1409
25.6369
15.7467
13.9851
7.69364
1.04734
3.88905
0.551841
0.197604
0.46799
1.63021
1.87552
1.3908
83.934
85.4834
14.068
66.394
5.69636
6.10465
5.19742
1.98481
98.4786
25.9785
80.3407
21.8837
1.18939
6.27578
72.1497
13.9391
11.3192
0.186814
66.6839
4.76293
5.5525
2.18052
34.6221
69.82
4.39728
4.14064
24.6993
111.277
1.68162
0.918991
0.23616
1.6807
1.06563
1.03679
59.5352
0.923235
0.383147
0.508524
26.3244
1.51082
1.94987
69.1593
0.266601
162.492
3.11693
2.82731
3.61164
35.5681
172.264
16.3304
3.13246
4.68384
77.3414
50.3934
0.220736
2.02656
0.893883
4.32438
12.4752
2.22074
0.567815
10.9716
6.78829
0.184995
1.15393
4.5446
0.872379
10.0057
4.84658
3.00588
4.23376
1.86639
19.909
33.6234
4.57636
30.6128
16.6078
2.30183
3.51164
52.0549
3.58669
71.2578
46.3057
6.05835
41.7103
15.6408
133.905
27.5223
53.5932
3.05477
87.0718
6.14716
18.2355
2.34777
1.34169
59.7906
6.61139
9.56611
5.88283
15.8416
7.99567
5.34176
64.8499
20.9342
56.4742
22.5632
5.23676
4.17088
0.45232
0.187377
0.443839
33.5954
142.739
18.6776
1.07471
0.362218
100.067
9.56801
200.555
117.641
54.5582
71.9333
41.289
0.605531
31.4542
2.18816
4.51032
39.0193
54.3103
0.310632
9.82828
34.6155
38.9494
75.3517
0.603216
15.538
63.2008
50.1374
6.22972
0.493381
50.7588
100.398
9.08357
21.5637
83.5574
93.4096
24.7286
0.274448
4.4762
30.1149
21.8014
0.239744
31.1082
25.1397
32.2347
4.4405
24.0237
26.7157
121.566
4.96848
2.13098
0.190157
0.402355
31.7118
145.655
72.5246
85.4231
67.9796
313.097
0.718457
4.35805
6.57439
51.504
3.94245
183.602
39.1798
0.680258
0.774614
1.94949
0.253708
0.282833
67.1382
73.3776
61.136
41.5475
169.693
58.3527
7.37231
17.5455
95.4164
114.798
35.1515
530.908
4.95759
0.251369
37.2317
96.4236
25.9552
23.4182
41.9486
7.20228
0.310485
38.721
0.24359
0.488613
29.748
0.520703
10.3195
0.543383
63.0196
3.31691
47.3017
7.03014
9.89032
15.3149
22.7702
35.8341
60.9309
0.50139
132.339
3.36598
3.17889
0.232093
0.419597
3.59858
78.6594
49.0244
101.653
1.56932
88.3066
131.698
0.958921
26.5361
2.76972
3.93267
2.15711
2.11967
90.5192
51.2729
3.67719
3.14511
60.6395
15.778
18.0263
62.8357
1.07979
17.7686
5.62746
109.833
5.03374
34.7162
0.338427
0.252955
12.8703
90.2281
12.6395
57.2666
72.5749
2.58998
2.40718
40.641
3.94686
0.733421
100.668
0.489468
0.27475
163.989
11.3885
75.1963
1.15479
50.4826
61.5433
0.344725
7.70325
18.0772
59.175
53.5781
2.56943
23.3919
48.6362
49.3875
13.7242
10.1149
8.91473
2.41064
0.204918
0.422286
65.0242
31.8045
6.64015
2.50513
99.2971
8.72603
44.794
27.4493
1.24062
5.10945
58.5714
85.0976
0.342216
0.143089
0.48189
45.0729
26.3868
50.9102
4.96846
3.37858
53.2432
72.7703
0.244166
36.7193
133.168
76.4201
26.9937
73.2974
0.874468
25.253
87.3317
0.429154
0.189787
0.447894
20.6548
0.34765
6.55919
57.1352
0.264314
37.6032
16.9063
5.8383
6.07097
254.799
8.18872
25.8768
0.28266
32.5415
68.0152
34.2865
6.30405
0.372138
0.191582
0.410999
42.4378
14.1789
16.1732
81.2093
15.3555
30.158
207.37
48.7253
59.7542
0.501739
62.4799
2.95853
0.715062
51.9725
27.9985
3.56425
0.681694
1.90174
24.0124
38.9989
0.867986
0.414548
42.4798
84.2797
5.44187
16.9207
8.65958
88.6042
180.442
165.201
0.270333
15.086
67.0039
121.862
24.5235
52.344
5.10563
24.4085
22.6602
65.8781
14.1555
37.0275
2.96698
12.3598
0.200169
32.1956
4.0072
0.325946
37.211
2.33264
6.30263
111.409
32.1618
0.289653
1.24653
44.0007
39.4531
52.5931
27.6413
4.00165
2.21972
0.209403
0.360249
0.272412
0.972329
97.2672
0.525044
24.9357
59.9433
3.68531
0.300735
3.4651
9.11491
103.555
0.266894
0.244331
0.389849
2.3096
29.3705
2.07184
3.62526
0.148168
0.248604
0.579416
0.571885
4.67406
2.23281
5.91466
23.9748
20.0014
1.39201
31.8616
7.98597
17.8405
2.1217
0.834431
0.288445
0.522003
0.318923
45.1967
0.289355
49.7456
69.8784
39.1766
59.5287
0.280335
6.35235
1.05636
216.269
2.82324
4.8838
0.337608
0.211935
0.412741
4.83302
0.570647
71.2319
226.461
0.286449
4.60611
0.421794
3.80657
2.51727
24.5068
0.212316
60.4222
20.3222
44.5941
74.4176
0.684261
2.42727
6.92099
92.7392
3.98988
65.8385
8.50103
29.1618
0.547309
6.8185
0.648471
5.64865
4.87078
22.8737
25.6501
1.03636
0.315967
4.52383
0.919468
1.42968
32.226
51.9569
44.1951
50.8641
47.771
16.7047
33.5494
6.80317
76.2317
5.11186
21.6035
0.327698
42.6274
63.2616
89.8143
11.9795
0.496574
2.33009
0.744848
0.374981
1.98373
7.37754
1.52968
5.33928
95.6553
0.226784
2.52515
57.9107
8.07725
30.7231
23.0388
35.0451
72.1232
3.98709
4.48925
2.54039
7.23534
11.8066
2.00383
1.41777
32.4381
0.277667
5.3076
3.76708
0.318742
17.2868
0.433411
0.552439
0.329818
0.189564
0.331213
0.544959
2.99258
3.68255
8.69476
0.455083
0.182058
0.558106
58.0221
48.8661
13.6836
9.29241
2.59487
3.79282
4.97328
78.4455
48.2376
41.4583
311.665
8.98259
73.7971
90.344
128.347
29.0492
0.292126
0.357985
0.196552
0.277278
0.349925
7.65068
31.124
82.2647
0.337917
0.610871
2.60962
23.9231
11.533
64.8719
0.12653
1.68458
58.771
11.7309
25.0064
20.2386
0.775795
0.236148
23.311
21.0333
106.007
1.12514
14.3991
131.144
1.61512
36.3334
51.9834
0.824879
0.919289
10.2049
0.900402
0.293462
2.62062
0.369743
0.988561
1.68845
1.48171
4.21259
0.372552
3.30148
195.663
60.3798
0.30763
0.193456
0.311061
28.8258
14.6963
0.536218
30.2583
37.1614
0.345844
65.0752
23.3724
36.7345
105.635
231.66
59.7988
28.7058
0.310325
16.6316
49.9027
27.1134
3.9163
0.50024
90.6937
0.283766
78.542
4.53571
0.266382
11.1697
137.925
48.3484
0.278356
2.39189
33.7173
3.23246
6.50047
0.376327
4.67066
2.00265
119.483
3.55354
37.1938
0.284409
0.241182
0.378364
0.61883
0.32021
0.347147
53.8323
0.291908
47.4298
101.175
5.13215
10.0292
187.335
8.10963
5.14298
175.917
17.1042
14.4127
191.898
6.1115
138.101
0.31488
0.202964
0.385383
60.6088
4.17507
0.253284
0.499518
0.250174
0.272427
31.0336
92.3221
29.5113
4.3592
14.287
95.7978
30.1355
27.9864
8.61759
7.57796
13.9286
107.877
39.5824
167.637
29.8414
0.320214
3.16418
0.347801
36.58
0.926964
55.9234
44.9675
17.6898
6.77185
4.57088
35.6884
0.976704
0.208423
0.447529
0.445568
0.283855
9.30399
5.94984
27.9368
4.69752
13.3661
51.383
49.1831
25.1494
284.013
17.2702
0.423444
0.384709
0.447547
65.8776
4.26786
23.9901
5.37852
0.257252
2.77997
107.213
57.5729
5.51553
6.752
28.3007
54.5524
1.35169
0.216102
0.213046
23.8914
293.349
4.08451
19.3693
35.8572
50.7509
20.6708
9.61753
5.32774
28.2867
72.5451
23.6981
0.249271
5.98503
0.088472
47.0372
0.0760203
26.2661
288.511
12.1511
5.43033
47.3374
0.470987
4.87246
13.9185
0.115385
29.9211
0.695181
0.0770609
10.0957
19.0814
84.726
39.1594
5.71882
1.28637
0.464082
0.540461
0.154957
0.113435
0.348611
1.70967
28.384
61.021
28.2135
13.2554
6.80344
70.5519
60.6936
9.99645
1.86611
0.995125
4.24339
151.833
97.7572
43.606
3.19164
0.415601
82.4808
1.1973
18.2693
7.60068
45.981
5.74593
118.009
14.78
25.9131
8.2182
75.7253
287.733
0.201879
38.0475
0.444618
3.10856
49.865
6.61505
0.545833
0.15244
0.250844
0.307538
1.05195
102.992
25.1216
11.5468
184.314
15.0767
5.14038
61.2592
41.8324
13.0313
117.453
0.378533
18.5398
0.276198
15.97
62.6424
0.408913
19.525
49.9061
7.72683
27.8488
0.339834
1.02995
40.1788
154.979
51.9646
76.4975
22.218
309.286
0.333736
27.989
55.6904
5.34839
114.855
20.4098
116.117
22.8097
9.50527
234.571
42.3144
38.2527
0.259394
0.203535
0.303251
52.4584
3.14573
4.33908
0.612167
28.7441
31.4516
0.479215
0.441208
4.32623
14.2222
76.5206
3.34318
0.618506
13.0553
45.9015
29.1365
18.2831
0.490108
111.79
21.2257
2.88115
54.412
63.0657
0.29388
47.3903
27.923
63.3205
34.0916
34.4394
4.49236
0.325124
0.32395
0.422262
0.194156
0.564971
7.85218
9.87008
65.9838
28.3776
17.5108
135.871
32.9051
46.2803
3.08081
6.93213
38.3329
1.47042
15.7598
6.73652
68.1592
130.698
89.8495
32.585
72.5378
4.38674
39.3374
42.7485
7.76334
0.187698
0.787813
95.4649
29.8472
1.10631
72.5745
90.3604
0.285095
49.653
23.8579
76.1122
156.1
73.9071
0.134154
65.0958
0.222511
0.317629
0.390739
58.0968
44.5185
68.6405
0.48327
4.68184
102.001
7.83806
0.390909
16.7751
50.8438
37.7743
71.3041
156.754
55.9313
0.664728
0.332209
38.9366
35.8926
200.592
110.262
156.621
1.95954
0.873727
107.345
88.5336
0.341261
0.15579
0.272185
0.24575
1.51771
0.711014
100.842
13.1969
2.09481
17.605
24.2996
7.51949
65.9096
113.157
66.832
5.04207
33.2365
3.02914
43.0475
13.7585
5.51039
133.769
129.641
40.3727
77.1211
343.744
297.797
0.839794
1.06052
148.986
81.0274
0.518352
0.242469
0.294611
1.16029
39.2725
118.3
54.836
12.3664
0.31172
85.9945
0.222707
0.480524
0.414394
3.77218
0.741997
56.6311
132.64
49.5186
4.23141
114.106
0.339406
5.92929
91.8094
39.183
55.5504
27.8441
7.69271
95.596
66.1768
0.369254
4.18372
2.24456
5.26685
4.30829
18.9501
81.5925
32.884
35.9974
26.3243
16.6717
19.6707
23.2171
0.792285
0.352251
48.5468
4.09764
13.9624
386.451
10.3416
85.9402
61.9464
0.327756
0.278798
0.36678
0.253718
58.4248
65.1388
67.7942
0.884954
16.4833
5.87676
1.99241
9.88989
37.1105
6.06847
5.47642
4.99972
0.245881
0.836717
0.197806
0.432993
117.555
42.6556
1.27626
57.2898
375.321
113.88
136.996
42.8811
0.441602
40.3308
5.44395
3.92589
52.3444
160.698
0.377613
0.429212
0.199991
52.8505
19.5174
90.4562
1.67665
1.4755
43.8519
14.1467
0.207557
0.340379
0.956461
1.26996
8.55741
108.155
32.0991
6.10672
92.9656
37.8249
59.6249
69.5028
4.69339
62.2302
2.51297
18.1554
54.216
34.4673
28.6298
0.343832
0.335816
44.8108
1.23775
1.25926
0.396455
79.0533
31.1974
37.1451
0.830267
40.4933
0.904702
46.615
35.1068
27.8209
31.8702
34.7566
57.8144
28.1904
0.956105
43.1679
35.3499
0.422111
4.54125
0.476463
3.15084
3.89474
17.1865
44.6089
0.560333
1.89227
101.344
1.38794
43.2286
0.268251
0.257633
145.554
169.087
0.234998
0.430005
0.337357
1.64681
4.08732
0.289551
0.75394
0.47914
0.763096
0.468173
0.329957
46.0683
0.887942
0.279321
28.2356
42.1345
1.29475
30.4785
0.689363
1.42385
39.3763
77.9329
26.4805
0.301377
38.9363
121.081
71.5954
70.0655
11.5389
0.577307
0.209916
0.423806
41.1121
136.848
26.737
4.36645
8.74946
8.39148
0.246121
1.77794
5.57514
60.202
4.12289
59.8042
0.207705
8.54675
113.969
36.4708
2.8746
34.6959
0.268841
92.6945
40.402
35.0858
0.256821
0.782692
0.268517
0.271455
6.93671
16.4313
2.02568
42.0839
24.5744
117.062
19.0819
8.70853
0.562964
4.40131
0.609946
88.6854
30.3928
34.6826
2.26894
92.1009
5.28964
21.0735
39.2692
0.268991
0.2966
11.4701
87.4575
75.0915
38.4122
52.669
34.7844
50.9699
2.35243
4.25657
0.403228
6.17816
4.79056
688.407
95.5185
3.49582
101.806
35.2287
1.50131
1.46063
5.26501
0.888401
1.00526
0.917549
42.6258
36.2584
40.3029
43.5583
32.5093
0.542067
3.06131
0.333211
3.78002
21.0959
59.3741
506.939
16.1697
11.0457
0.21902
2.65122
111.821
60.2117
9.01848
0.641381
0.891109
12.3168
5.66185
4.55686
32.3289
167.869
0.385534
0.363297
0.190415
9.28601
5.36479
1.6535
72.1859
1.08162
279.132
36.0749
63.4093
100.862
0.221897
0.34651
7.12608
12.2399
0.368437
5.20563
4.923
39.6761
81.647
64.7583
1.86998
2.89608
81.4579
0.437643
12.321
13.9102
43.2102
63.2946
90.6192
0.596909
0.344805
0.371249
61.4543
11.6159
138.678
37.7779
1.78097
40.5631
122.355
64.4443
57.4092
6.48089
77.4611
47.6461
19.8442
0.374699
0.456852
33.97
0.709976
6.46608
11.5662
1.70717
72.7202
388.954
323.434
7.13494
85.7123
3.73614
1.67934
1.40751
0.553681
83.8167
28.116
0.518946
0.518384
0.279881
0.824956
13.3425
15.403
94.097
42.9644
1.8193
285.714
1.22962
46.4064
101.672
81.4761
50.7153
21.9911
6.78325
83.4771
0.309899
0.660069
0.261799
0.793617
2.91507
21.6683
61.7281
3.52964
44.3782
0.578457
0.405026
3.05595
9.69854
3.02523
2.29615
92.786
41.3065
47.7337
10.3807
0.353629
0.295278
12.7384
194.526
6.00998
326.307
0.466314
2.8595
50.1867
41.1743
0.945835
33.075
166.878
1.16156
17.8482
46.2382
19.875
75.7758
72.194
10.8534
25.1105
1.71468
25.1739
89.1442
13.359
123.198
16.6186
6.42895
0.660928
26.8978
15.3259
20.5055
79.6065
1.13778
19.847
7.93512
0.339306
0.542517
5.28055
0.1838
7.13491
14.0072
7.33566
10.5175
17.7977
55.1783
109.368
95.633
58.5073
0.741601
0.286447
0.711015
0.436396
3.10875
9.79438
2.10678
1.056
11.484
82.8952
0.375309
0.884395
0.932541
25.785
81.5551
2.70534
2.81287
2.11699
2.88568
59.6787
34.285
3.29064
0.292298
53.0988
95.0529
25.5831
0.323385
6.35272
0.324989
0.456074
2.48327
0.209627
2.5188
44.4716
0.525783
0.79648
37.0006
55.084
0.586637
33.8618
0.410305
61.9192
0.276707
90.8049
2.63869
0.542746
5.55767
60.8807
93.1164
102.495
34.2878
23.9838
48.1181
1.34479
51.5712
45.8847
0.488998
0.541641
3.19373
2.85465
164.987
16.1138
24.9808
2.09706
49.8361
61.8027
68.743
13.0176
558.49
13.2456
1.1202
0.231396
0.247792
0.286324
0.258082
0.989379
9.49454
0.546111
0.413938
0.750785
0.257053
1.14738
4.07879
5.54524
22.6782
60.0927
109.172
1.5982
4.39183
0.199694
2.752