/*--------------------------------*- C++ -*----------------------------------*\
| =========                 |                                                 |
| \\      /  F ield         | OpenFOAM: The Open Source CFD Toolbox           |
|  \\    /   O peration     | Version:  v1912                                 |
|   \\  /    A nd           | Website:  www.openfoam.com                      |
|    \\/     M anipulation  |                                                 |
\*---------------------------------------------------------------------------*/
FoamFile
{
    version     2.0;
    format      ascii;
    class       volScalarField;
    location    "0.88";
    object      k;
}
// * * * * * * * * * * * * * * * * * * * * * * * * * * * * * * * * * * * * * //

dimensions      [0 2 -2 0 0 0 0];


internalField   nonuniform List<scalar> 
5794
(
0.0442702
0.0551529
0.438128
2.51711
2.71918
0.0959366
0.346203
0.114912
1.53662
0.047055
0.909593
0.266318
0.374088
1.82276
0.0943816
0.150807
6.40121
2.01255
0.0786819
0.0315526
1.00518
0.0623991
0.719512
0.118356
0.417579
2.10706
6.39385
2.44671
2.0632
0.0715188
0.288931
0.533683
0.762763
0.0887254
0.158295
0.238394
0.196657
0.671096
0.948615
2.82066
1.30773
0.447549
0.277879
0.40818
0.0884966
1.10403
0.695881
0.354605
0.0390443
0.093104
0.242977
1.40956
0.070297
0.077908
0.00980097
1.05378
0.635154
0.508794
0.217659
3.51163
0.934659
0.0398906
0.247654
0.903516
1.2866
0.0559089
1.73388
0.457716
1.86189
0.0338684
2.36388
1.77215
7.33156
0.144128
1.91443
1.59969
0.107897
1.60918
0.363286
0.0969325
0.04726
0.0253795
1.01216
0.706888
0.465701
0.839216
0.518848
1.06808
0.177321
1.07195
2.48462
0.762257
1.59006
2.58676
1.03355
2.43652
1.90669
1.39098
0.705609
1.02111
0.895425
0.318516
0.248318
2.43679
0.580476
3.50513
0.0334946
0.639281
1.58557
0.320342
0.0743297
0.0494887
0.91208
0.105763
0.878898
1.97433
0.0956794
2.3948
0.856775
0.497938
2.86242
0.0411969
0.219814
2.08106
0.0680449
1.42058
1.54662
0.121373
1.63383
0.693239
0.282837
0.424928
0.959463
1.41952
3.41945
0.0995314
2.00942
0.0422163
0.38719
0.0647117
0.113469
2.27262
0.0767758
2.44713
0.431684
6.52878
1.1182
0.901516
2.00201
1.4479
0.314463
0.0603299
3.49597
0.226932
6.8444
0.884879
0.779521
0.461706
1.39128
0.504785
0.0374324
0.111284
0.0470204
0.155542
1.14966
1.24875
0.174845
0.105655
0.0478448
0.0269641
0.0420533
0.820238
0.120033
0.0930535
0.0612595
0.55149
0.0385059
0.298143
0.0695322
1.29695
0.144239
0.517783
0.155212
0.914258
0.18021
3.58509
0.35478
0.452757
0.0283594
0.248423
0.92409
0.484115
0.731893
0.202116
0.378636
0.241692
0.176555
0.0916666
0.0473143
0.276131
0.405296
1.22696
0.273034
0.247718
0.718145
1.11957
0.185742
1.10444
4.84083
1.00557
0.28073
0.312768
0.281153
0.160825
0.0990741
0.283003
0.468039
1.17241
1.07992
2.19908
0.305807
0.90836
3.83726
1.5374
1.96044
3.5229
0.240755
0.0644395
0.0385991
0.104277
0.117015
0.0966962
0.0707924
1.16196
0.907582
4.77934
5.70317
0.869234
0.335646
0.0670348
0.0297657
2.18891
0.978618
0.778679
0.303671
0.163875
0.0844797
1.74846
1.37056
0.949857
0.528654
0.0613584
6.56155
0.0326239
0.211277
5.53286
0.264141
0.425785
0.790111
0.0647075
1.48633
0.276702
0.158131
0.047868
0.515552
0.464678
1.95003
1.70374
0.0539251
1.37326
0.893417
0.287385
0.735948
2.06172
0.397346
0.0886568
0.0749579
0.113261
0.0334749
0.373936
0.185827
1.71838
1.12349
0.326312
2.05156
2.39424
1.04707
1.31175
2.94559
2.92889
0.184391
0.119255
0.0915087
0.0698888
0.203508
1.97803
0.868831
0.236415
1.29414
0.0630825
0.0241047
0.771279
0.0539713
1.22955
0.19239
1.60416
0.0310589
1.53759
1.35053
0.886204
0.368325
1.16269
1.1147
0.107952
0.292399
0.593801
0.82563
2.75113
1.54337
2.43612
0.411107
0.251785
2.18527
2.54321
0.189551
0.636432
0.147404
0.253024
0.379957
0.84168
1.20158
0.280605
0.215537
0.614111
0.443087
0.0351427
0.0411545
0.0433996
0.0271225
0.335992
0.0928572
0.352194
1.41684
0.62474
0.0450095
0.14
1.20575
0.605297
1.43903
0.830369
1.16463
3.28176
0.776524
0.481831
0.174695
2.70389
0.0428513
1.28476
0.364779
0.129662
0.977013
0.621306
1.78756
0.406186
0.163777
0.284321
1.13121
0.985382
0.611734
0.420658
0.0819
0.0432124
0.290749
0.314034
1.2403
1.30051
0.878495
0.577375
0.717851
0.031256
0.291847
0.0791965
0.322914
0.207147
0.137652
0.083333
2.65112
0.322245
0.141568
0.200002
0.104249
1.09264
0.0280874
0.24429
0.0938183
0.0763559
0.0536326
0.126597
0.0760536
0.645078
0.102338
0.330048
5.15771
0.0789117
0.0597074
1.11383
0.380276
0.0946908
0.0415867
1.90665
1.388
0.679157
1.26321
0.611365
1.20759
0.785325
0.172066
1.99579
1.08956
1.77698
0.687391
1.31688
0.91743
0.0851423
0.150756
0.110541
0.0618131
0.0995885
0.0344234
0.0451884
1.40861
0.224139
2.21803
1.34208
0.0784825
0.0779222
0.273741
0.535026
0.168294
0.117426
0.0747382
0.269551
0.226309
0.180967
0.116059
2.19986
0.943769
0.310098
0.0473848
1.2961
0.0467506
0.0395795
1.38566
0.0573088
1.9684
0.0404573
1.94726
2.5139
1.27963
3.63956
0.0700747
0.0553921
0.358517
0.204845
1.11935
0.696271
4.30113
3.93256
1.01804
0.291358
0.0258674
5.55337
1.57753
0.0512154
0.0656259
1.82104
6.56577
2.7602
0.207667
0.0503709
0.651608
0.0692216
0.0496266
0.0428778
0.918731
1.12627
0.311808
0.12708
2.78417
0.0489307
0.0400504
2.26618
2.07911
2.26426
0.359415
0.0700858
0.0716543
0.0839543
0.21049
1.00121
4.40431
6.39317
0.265286
0.435414
2.52642
0.0563926
0.0749865
0.618515
1.45212
0.0626837
2.40063
0.0304474
0.369673
0.0410882
0.102319
0.802158
1.77828
0.0397949
0.222804
5.19985
0.107135
0.0465412
3.3291
2.48104
0.762639
0.0607774
0.29269
1.04884
0.0429633
0.0777571
0.517103
0.0452508
4.15537
0.0822949
0.123395
0.0937906
0.24022
2.29841
0.673523
1.22341
0.0514095
1.5637
0.0296736
1.67138
0.202185
0.173661
0.214849
2.45067
0.0880168
0.102396
2.54962
0.0401516
0.0450832
0.212725
0.121428
0.109357
0.489831
0.079044
0.0424111
1.996
9.7669
0.0510907
1.45238
0.0596985
1.66024
0.132316
0.100871
1.11338
0.0587834
0.0603696
1.23482
0.917732
1.45757
1.2012
1.51372
0.292044
4.01507
1.7386
0.342558
1.09573
2.11105
0.866252
3.01255
4.03441
1.73452
0.913937
0.0891573
1.74775
0.742615
2.20526
0.0632621
0.117884
0.0478324
2.35743
0.925927
1.17914
0.025517
0.293614
0.0394876
0.108939
0.0430799
1.37597
0.95104
2.54138
0.0496909
0.512945
2.3567
0.0377488
0.0111829
0.790599
4.3824
5.54041
2.20795
0.138151
0.131765
0.169514
0.912923
0.589365
0.268697
1.26184
0.0296077
1.2403
1.66109
0.890836
0.0329779
0.0759096
0.333542
2.31752
2.2467
0.083125
0.0517632
0.0330188
0.0233064
0.123079
0.0441402
0.0493496
1.76176
0.487369
0.0562871
2.59645
0.228405
0.286503
1.11659
0.796465
1.99033
2.78155
1.08917
0.73679
0.0720686
0.0413767
0.0849179
0.252038
0.0819358
0.139379
0.127214
1.60643
5.8119
1.119
2.09582
0.385783
0.0364809
0.0467182
0.0669328
0.880687
0.0470846
1.26901
3.04044
2.48426
1.06934
1.21406
0.890318
0.151369
5.06716
0.761666
0.651967
1.03263
2.7451
0.212903
2.25477
0.130784
0.0489013
1.17558
0.0863833
0.221346
2.04968
2.06618
2.28877
0.0831168
0.0380082
0.0414121
1.72795
3.97035
1.6059
1.24375
0.0692714
0.955272
1.1081
0.0309996
0.0880538
0.289927
0.0299611
0.278994
0.0437986
0.445236
1.93361
2.40946
1.38412
0.0444149
0.0821365
2.94556
0.511424
4.02113
1.35395
1.61158
1.41889
0.373805
0.267127
6.89179
1.26263
1.45159
1.91218
2.09901
2.33296
0.0980059
4.96424
0.193436
0.3634
0.506929
2.89319
0.639224
1.16547
1.11839
3.02773
0.825583
0.069593
0.183193
4.67385
0.756614
0.745442
1.52729
2.22782
0.0316897
0.0489493
0.024023
0.129213
2.1773
1.02467
2.58503
0.113403
0.283206
0.0953499
0.200838
0.0877261
0.0405293
0.90613
2.34123
0.206928
2.7619
1.07841
0.259326
0.13836
6.64814
2.08934
1.21775
3.09828
2.56102
1.10183
1.44585
0.340836
1.60591
0.717003
2.09303
1.70932
0.0791039
0.157675
0.0617745
0.0497653
0.21929
2.73374
0.100547
1.27497
6.27454
0.357869
0.0787932
0.0531736
2.17627
0.950995
1.26731
2.26364
0.90718
0.416457
2.2775
2.13392
1.23377
0.190973
1.04378
0.0408424
2.02209
0.0502188
1.75518
0.30376
0.899637
0.226994
0.103385
0.0789805
0.0637018
1.24398
1.62759
1.6693
4.28299
1.31603
0.113677
0.275766
0.63467
3.92045
0.10627
0.487556
0.698796
2.54642
0.0434664
0.079892
0.499647
0.862564
5.16867
0.0872389
0.38598
0.053927
0.0502186
0.0665763
0.770084
1.88365
2.09894
0.28281
0.0815881
2.57783
0.052025
0.33295
7.69058
0.0430695
0.0169705
0.125819
0.0356759
1.02726
0.443812
0.497803
0.087629
0.124652
0.21854
0.316532
6.54606
0.997954
2.68694
0.884822
1.16745
1.65655
1.12588
5.06193
1.32749
0.101143
0.0497789
0.206976
2.03264
0.246597
0.0671419
4.12522
1.47479
1.9936
0.860017
0.0803834
2.58266
0.406597
0.348525
1.3353
0.0982544
3.17962
0.0472488
0.0815984
1.3656
0.389185
0.23084
0.189688
1.64752
0.675889
0.262196
0.0530555
0.0816587
0.791
1.75818
0.291281
0.299336
1.00649
0.130781
1.15184
2.97756
1.89141
2.38455
2.21112
0.0456212
0.0361124
1.18535
0.077212
0.0510093
0.0422576
0.119922
0.755866
0.0351984
0.254279
0.0793391
3.01855
1.31977
0.771507
0.275886
0.521551
0.994957
6.20472
0.770941
1.65507
0.234381
0.0694582
5.86129
0.372135
1.11763
0.262281
1.31353
0.802606
1.02595
0.0754771
1.63285
1.13239
0.120635
0.0705053
0.0449071
0.0548488
0.0305143
0.730623
2.74116
3.36112
1.69154
0.686718
1.28315
1.90767
0.32172
0.0437054
0.0856956
1.05474
0.0718571
5.76496
1.22257
2.03789
0.246391
2.61637
1.10099
0.0469487
0.053672
6.09397
3.44653
0.305128
0.359329
0.473822
1.58584
0.0685728
2.79166
0.0539256
0.138352
0.107633
0.0459095
0.0417647
0.0572956
0.140733
0.0624202
0.038138
0.0669678
0.264349
2.44985
0.215849
0.0365916
0.0795432
1.17807
0.299682
0.511298
0.0901036
0.626204
0.0536024
0.641296
0.200208
0.113923
0.0802081
0.491217
1.51864
0.0711411
0.304311
0.0811414
0.138877
0.291829
1.22319
0.430912
5.083
1.85154
0.0623647
0.318539
0.531057
2.51313
0.53662
0.886215
1.13771
2.44242
0.0966738
0.228653
0.0759445
0.0852106
0.416639
0.394856
1.84282
1.71787
1.36641
0.0139925
0.728447
1.47903
0.877258
0.829556
0.945569
0.0333143
0.0675366
0.0476152
0.720609
0.302554
2.44834
0.200865
0.538004
0.196739
0.204852
0.287235
0.391514
0.0456137
0.0795288
1.75271
2.19491
0.759014
0.032684
0.274519
1.2396
0.0668294
0.0556605
0.0707186
0.12919
0.869481
0.0758313
1.4132
0.0393062
0.311365
1.08304
0.0556978
3.34701
0.286809
0.0487284
0.371919
2.63644
0.0505279
1.58648
0.120892
0.0888933
0.052053
0.135519
0.0289456
0.0598958
0.309282
0.0667095
0.0299661
0.0736643
0.109218
0.149304
1.65149
0.543989
0.26762
2.47674
0.957948
0.0367956
0.0492709
2.82819
0.410619
1.21128
3.04756
0.0489022
0.501504
0.046935
3.80261
0.0440608
1.62918
0.0417818
4.51441
1.13593
0.0292466
0.662276
0.0501408
0.220212
0.130318
0.123095
0.620002
0.643619
0.0412809
0.67568
0.0181382
0.0341942
0.204467
0.0549095
0.0802468
1.85476
0.254826
1.14133
0.0318662
1.16771
0.0366142
0.0905052
0.0493975
0.19874
2.15333
0.404557
0.225443
0.57287
0.250135
0.42354
5.33586
2.27353
0.0455416
0.320515
2.07027
0.862564
1.51335
0.239468
1.92815
2.0772
1.48393
0.491778
2.48711
0.265711
0.264462
0.0513352
0.132661
0.19396
0.0635915
10.1965
0.692051
0.0563664
0.209005
1.69395
1.65062
0.271276
0.0655262
0.289498
0.520535
0.140993
0.0640824
3.24768
0.176371
1.3848
0.48182
2.59643
0.0511675
0.123266
0.129029
0.35919
0.232376
0.600802
0.0451866
0.791902
0.0616112
4.91977
0.239348
0.295539
0.191083
0.482262
0.292526
0.391746
0.333036
0.193423
0.150034
0.118539
2.19677
0.291034
0.214457
0.0309569
0.0449253
0.611591
2.01577
0.659607
0.0921129
0.303473
0.253254
0.168987
0.254371
0.23872
0.348789
0.299653
0.322804
0.552395
0.044204
2.25303
0.0459719
6.29879
0.0518319
0.0320647
0.0471364
0.0824619
0.0478684
1.29614
0.064187
0.229842
0.11572
0.181575
0.661755
1.99215
1.09664
0.0381708
0.0591689
0.176199
0.26653
1.67035
1.12857
0.222978
0.281659
0.0235833
2.23
0.215295
1.04507
1.58418
0.176961
0.280127
0.651646
0.0771228
0.0381838
2.16286
2.46943
0.630374
1.01584
0.464726
0.449167
0.0350374
2.31452
6.53124
1.94263
1.20215
0.0632549
0.102322
1.09038
0.3046
0.240596
0.033459
0.337519
1.18435
0.20891
0.0503455
0.513027
0.0813695
0.0466742
0.115382
0.259227
2.14741
0.0818492
0.50891
1.44967
3.48961
3.56681
0.147101
0.870422
0.197781
2.24252
0.253568
2.00723
2.61339
0.866793
1.63554
0.195916
2.37404
1.31933
5.65542
0.193239
0.0604818
0.051798
3.86259
0.18148
0.118281
1.56205
0.738123
0.15385
1.2024
0.835849
0.293324
2.45755
0.15804
0.0320067
0.257444
0.356158
0.053588
0.127613
1.24321
0.293955
1.52602
1.28905
1.70524
0.0430946
3.34303
0.218889
0.993771
0.658407
0.266117
0.19059
0.0661758
2.22407
0.073886
0.0693686
0.0384878
3.33458
0.0297554
0.267683
1.74009
4.10371
0.11234
1.69417
4.64358
0.127258
0.277966
0.0233182
1.10012
0.419597
2.3575
2.52344
0.120988
0.143194
1.00444
1.36739
0.627155
1.68785
1.08584
1.39302
0.97379
1.28293
0.16203
0.0708105
1.03853
0.0775906
2.56172
0.0368363
0.0949947
0.0449362
0.529351
0.345842
0.119658
0.0606351
0.15273
0.219953
0.0467316
0.0711678
0.0528366
0.263639
0.404897
1.00761
0.924059
0.0906056
2.94592
1.35555
2.03683
0.437102
0.0849144
0.966327
0.0642185
0.0403885
0.0233831
0.0399152
10.5946
0.323279
1.16674
0.676219
1.80761
1.97389
0.564463
0.0225175
0.0205195
0.0498885
0.0513081
0.0949918
0.084473
0.0986589
0.0588517
0.0867173
0.138246
0.108172
0.056534
0.0584934
0.0341365
0.0372485
0.10472
0.106252
0.0905557
0.0659449
0.0470173
0.0664461
0.0274244
0.0399585
0.0125893
0.266534
0.0601623
0.0502031
0.028036
0.126926
0.0382072
0.0659189
0.0534919
0.0381087
0.0345497
0.0377825
0.0270326
0.0805738
0.02803
0.0553167
0.183576
0.0334236
0.0295171
0.0505329
0.0694404
0.348184
0.477003
5.25706
0.0470957
0.54054
1.08096
2.3657
2.56405
0.0506881
0.0629119
0.388618
0.0499576
0.752618
2.22585
8.54108
3.62962
2.52926
0.881004
0.0300766
0.028956
0.115629
0.051061
0.046637
1.0647
0.210593
0.360399
0.110178
0.484497
1.01095
0.993122
0.179106
1.28298
0.631577
9.40649
0.0872244
0.27333
0.174649
0.334904
2.99716
0.11346
1.02258
1.8177
0.895627
1.33028
0.646391
0.634572
0.32464
0.327942
0.36215
11.6183
0.0805434
0.0756903
0.0503708
1.96445
2.63009
0.0277079
1.65613
1.96664
0.0602401
0.0874297
0.109667
0.0532984
0.0427356
0.0883832
0.120434
0.0351581
0.0357627
0.153118
0.0737399
0.0515858
0.0231605
0.0685543
0.0320653
0.0531753
0.0611979
0.0384458
0.0831642
0.031255
0.0259237
0.0250989
0.0442682
1.25404
1.40428
0.18074
0.45982
0.471701
0.362255
1.91648
0.0481422
1.4217
2.55417
0.390622
1.14387
2.6889
0.25832
0.024949
2.69259
0.95283
0.0597292
6.78022
2.26687
2.3481
0.0373789
2.93429
0.769885
0.066352
2.96364
0.361461
1.55164
0.184685
0.245618
0.160781
2.05193
0.0549633
2.02028
3.40438
0.241166
3.09082
0.0580637
2.99348
0.0619182
0.140693
0.0390633
2.1783
0.049582
0.063969
0.293181
0.0672723
2.9792
0.315588
1.73893
0.374663
0.699164
0.618912
6.02324
0.0318639
0.279697
0.302145
2.52693
1.13581
0.0506186
0.0481398
1.07245
0.578034
2.82394
0.307991
0.0750205
0.313028
0.119187
0.588163
0.0580211
1.78793
0.514876
0.0132198
0.0246434
3.03451
2.64686
0.328093
0.631799
1.97219
0.274987
2.82533
3.86677
2.17795
2.8318
2.22834
0.0718274
2.08466
0.0550572
0.140035
0.0694539
1.90728
0.250968
0.254135
0.295132
2.84175
0.6279
0.0606504
0.0943839
0.103879
0.748861
1.99726
2.8428
4.46465
1.52162
0.618034
2.46189
0.265949
0.798001
0.76783
0.925039
1.96667
3.06358
1.19073
2.86001
1.04361
3.16169
1.3006
0.191969
1.22402
0.973666
0.474763
0.518726
0.411774
3.61777
0.701853
0.352169
1.50593
0.960728
1.31808
0.299256
0.290128
6.35451
0.634099
2.28055
0.893961
0.0917604
0.0453826
0.102762
1.5136
0.0622521
0.119322
0.151443
3.06688
3.19112
2.46073
2.14467
3.32764
2.69841
3.34437
0.0655741
3.37255
3.25884
2.88377
2.43279
3.1608
2.3118
3.29124
3.17426
3.27499
0.575638
0.546079
0.356795
5.21347
0.402197
0.224737
0.159773
0.232939
0.0295207
0.0356288
0.91565
1.9057
0.634681
0.0891425
0.128596
1.91328
1.8201
1.16294
0.449616
0.200886
0.22657
0.14637
0.189328
0.688551
0.172071
1.32504
0.144022
0.712987
0.328162
0.248665
0.073104
0.988981
0.0854677
0.24811
0.311821
0.0286702
0.910203
0.194471
0.125392
0.16961
0.124285
0.110478
1.4559
0.111141
1.18342
0.878849
0.285719
1.23414
3.57848
0.11517
1.59221
1.0049
0.838845
3.59889
0.0678405
0.0986859
3.45141
1.17961
1.81104
0.118099
0.352344
2.07974
3.61392
1.6521
0.0999348
0.107279
0.0968895
1.06416
0.295764
7.01345
0.110445
0.401327
0.218174
0.110617
0.957644
0.0602031
0.272462
1.31225
1.45432
0.561564
6.75062
2.95908
0.0902412
3.11248
0.109874
0.237954
0.570451
0.070403
2.04752
0.314848
6.54984
0.449028
0.212075
0.0733923
2.23397
6.31952
0.0780389
1.27917
1.71492
0.778297
0.359469
0.209949
0.0751407
0.24188
2.01022
1.29079
1.78295
5.20485
5.02282
0.152295
0.660917
0.216662
1.27774
0.381565
0.088319
0.181672
2.04205
0.0529405
0.134418
0.102985
1.32765
0.192252
0.826434
0.232551
0.303466
0.431937
0.133275
0.420736
0.67438
0.136547
0.136682
0.505395
0.618251
0.0942954
0.255077
0.158739
0.0854889
1.40148
0.291391
0.231747
0.520072
0.448019
0.0613626
0.217519
0.209184
0.38155
0.0566996
0.224607
1.22973
1.94169
0.337454
0.329784
0.152769
0.658118
0.451292
0.472141
0.122122
0.589151
0.425299
0.421084
0.0791176
0.733395
0.677733
5.30545
0.35722
0.74259
0.578099
0.438314
0.483154
0.541993
0.360263
0.262959
0.60316
0.558605
0.44351
0.547895
0.610091
0.709346
0.328838
0.220917
0.379713
0.584918
0.169843
0.231268
0.678261
0.506703
0.42699
0.401488
0.336197
0.383162
0.343399
0.597999
0.262211
0.545474
0.0886198
0.135849
0.0559402
0.188855
1.20522
0.239463
1.98015
0.422667
0.218433
0.482931
0.50721
0.355413
1.32773
1.29581
0.460071
0.150056
0.531186
0.135672
0.191742
0.106537
0.319167
0.255735
0.456033
0.215984
5.49673
0.611485
0.136862
0.476721
0.512264
0.204921
0.130873
0.0564393
0.0833763
1.412
0.390265
0.137369
0.255126
0.592243
0.118169
0.0540542
0.0882004
1.901
1.11228
0.242277
1.45033
1.6234
0.330269
0.160176
0.207205
5.48852
0.328525
0.113286
0.262044
1.31129
0.325213
0.432848
0.892484
1.41985
0.411466
0.734174
0.975393
0.112873
0.0478441
0.0826363
0.683824
0.26793
0.625937
1.40768
1.51529
0.223461
5.36202
5.19453
0.121819
0.223738
0.403954
0.238382
0.816714
0.227966
0.789745
0.700805
0.49031
0.433996
0.623891
1.12853
1.21409
1.76148
0.177008
0.741163
0.316778
0.187882
0.629912
0.0693116
0.0710267
1.83147
0.66858
0.410221
1.69216
0.100382
0.298711
0.516813
1.32889
0.652485
0.818502
0.0930217
0.0436046
0.0942857
1.39298
1.93434
0.165769
1.43705
1.35036
1.27886
1.87136
0.287175
0.221482
0.0726243
0.165464
0.252063
5.27781
0.115426
0.763838
2.24648
0.207007
0.312681
3.83953
0.0469399
0.127904
0.334623
0.529525
0.553798
0.648613
1.3863
1.93194
1.04191
1.05879
1.12129
0.0624976
0.582165
0.321134
0.0428972
0.0386732
0.0947324
0.28246
0.240895
1.20151
0.0905803
0.0415953
0.0942244
2.01478
2.21635
0.0627461
0.0312095
3.60511
2.89416
0.704939
0.0540935
1.4727
0.256183
0.350333
0.0704149
0.28208
5.13812
0.110001
0.0811825
0.0715457
3.51564
2.11639
1.14857
0.130553
3.2051
1.90267
0.867584
0.395185
0.601938
0.442078
0.325238
0.433671
0.355712
0.466902
0.412385
1.97067
1.3228
0.126354
0.096022
0.654512
2.407
2.6486
3.40083
2.52277
1.77069
0.421843
1.3145
0.393952
0.366325
1.464
2.45509
3.04057
3.47949
1.18068
1.75713
0.998792
0.981244
0.6491
0.0823043
0.431494
0.0812011
0.0389163
0.0960197
0.288972
0.312935
0.261118
2.19497
2.69532
0.424372
3.18132
0.656123
0.669747
0.464794
0.186045
1.19482
0.571441
1.03587
0.452399
0.0976945
0.227749
2.78956
0.609834
0.315685
0.0519114
1.56608
0.430048
0.500597
0.20917
1.55697
1.63391
0.2719
0.462543
1.24462
1.30973
0.172821
0.130462
0.0245094
0.271154
0.0817554
0.112251
2.97609
0.093965
0.061904
0.0942285
1.30063
0.132787
0.275688
2.57459
0.0798119
1.756
0.405291
0.373924
0.399824
1.72108
1.7736
1.30909
0.394293
0.551997
3.42875
2.30374
0.0649037
0.251549
0.0950993
0.520898
0.976034
0.231761
0.105984
0.314409
0.236485
0.0463649
0.142729
0.537613
0.0894519
0.308648
0.614111
0.41071
0.445467
0.235826
0.536852
1.71106
0.582025
0.798743
0.548109
0.242913
0.362129
2.86105
0.42664
3.11401
0.820954
0.474426
1.0124
1.05269
4.00095
0.826852
1.46326
0.316887
2.30531
0.587196
0.643506
0.104139
0.0742792
2.33694
0.700304
0.838042
0.48709
1.15693
0.65573
0.217346
1.81374
1.49549
1.50162
1.15809
0.638256
0.526847
0.0830938
0.0421399
0.0923278
2.31565
1.56882
1.33224
0.130838
0.0530786
3.41483
0.382179
1.94703
3.4384
2.90134
3.25051
2.60185
0.0545997
0.6136
0.301413
0.580588
2.27583
2.75759
0.0918644
0.79979
0.966525
0.672343
1.70659
0.121005
1.1584
2.12917
2.78572
0.505092
0.0766421
2.20314
2.14325
0.71242
0.663138
1.7592
2.9063
0.581112
0.0833835
0.487419
1.64947
1.51245
0.0594468
0.924457
1.68922
0.609821
0.193385
0.690617
1.50944
3.47718
0.453911
0.240315
0.0462779
0.0741787
1.5336
1.61103
2.62595
2.72704
1.76447
4.41049
0.168219
0.296918
0.67947
2.63145
0.439407
1.85402
1.04334
0.090942
0.0954817
0.240027
0.0638168
0.0855556
3.20286
3.29726
3.04451
2.13736
5.0484
1.12236
0.712233
0.53759
3.31695
5.18258
2.18278
6.95207
0.201939
0.0705331
1.81008
3.37406
1.71541
1.25313
1.12089
0.608078
0.0779474
1.08813
0.04274
0.0383086
1.94923
0.0911906
0.823123
0.0695025
2.48349
0.391781
1.15864
0.730759
0.828908
0.443629
1.43153
2.12342
1.40483
0.0517741
3.98358
0.461308
0.369846
0.0689773
0.0924144
0.179777
1.76902
2.83901
3.7058
0.196248
2.66158
3.97921
0.109819
1.15907
0.344218
0.383694
0.117093
0.313832
3.34853
1.52463
0.397651
0.354298
3.12112
1.21993
0.448688
0.898739
0.105545
0.771367
0.223361
2.78365
0.43212
1.91882
0.0768069
0.0683533
0.362913
3.5772
0.925431
2.8806
1.76748
0.162823
0.257368
1.57938
0.439804
0.0788606
3.67976
0.129328
0.0781937
1.76351
0.316141
3.32267
0.113872
2.81371
2.49911
0.0582442
0.80135
0.399858
3.01333
2.51609
0.157989
0.768377
1.26777
2.83436
0.35964
0.296058
0.276134
0.263299
0.0422367
0.0862009
2.50664
1.35921
0.732143
0.287051
2.68718
0.314099
2.52899
1.64887
0.142784
0.20484
1.61252
2.88764
0.0271003
0.0163649
0.0367093
2.71963
0.783777
3.01147
0.511117
0.403022
2.32498
3.23091
0.0715406
1.16304
3.13336
2.06147
0.876654
1.93591
0.134029
1.77522
1.13858
0.0737457
0.0413468
0.0929457
0.769777
0.0897664
0.536478
1.36848
0.0781186
2.35534
1.06523
0.678604
0.626337
2.2197
0.345567
0.951022
0.0840122
2.19407
2.03927
2.35626
0.72267
0.0778948
0.0442114
0.0858542
1.27342
0.447662
1.09433
1.3706
0.441654
0.923618
4.68809
1.42197
3.04067
0.098051
2.5756
0.362049
0.155056
0.997485
1.36017
0.401188
0.162343
0.160895
1.07177
1.62984
0.128596
0.0782694
2.62007
3.30872
0.606707
1.0487
0.789245
4.63991
5.46262
1.74543
0.0804373
0.785639
1.20198
2.25913
1.75424
2.74694
0.20547
1.55597
0.683469
1.423
0.53826
1.31787
0.29332
0.800606
0.0338962
1.65069
0.500918
0.0641825
0.969768
0.346148
0.668186
2.11279
0.964396
0.0379891
0.172272
2.36297
1.74651
1.5075
0.818533
0.508529
0.152283
0.0402875
0.0725681
0.0674537
0.107365
1.35393
0.089291
0.707639
3.26581
0.137829
0.0688367
0.292022
0.307672
2.71854
0.0633501
0.0489193
0.0776716
0.333106
0.881146
0.151715
0.225045
0.02903
0.0660501
0.0738807
0.0944048
0.604113
0.314673
0.229936
1.25934
0.560475
0.237918
1.88355
0.752305
1.12865
0.148269
0.147817
0.0251512
0.0452302
0.0851876
2.68324
0.0801491
2.80571
1.92838
0.89114
2.28186
0.0779071
0.238415
0.162804
3.49037
0.386946
0.621374
0.0701073
0.0459066
0.0850967
0.198333
0.0937478
3.15424
2.14515
0.0568624
0.561449
0.0455672
0.463024
0.309819
0.544826
0.0615858
2.56899
1.5424
2.55419
2.94746
0.131306
0.159026
0.56843
3.64707
0.508985
2.36765
0.652247
1.51443
0.0902001
0.247181
0.0751521
0.682064
0.507836
0.68492
0.733086
0.0940049
0.0779854
0.561766
0.176996
0.208826
1.67192
3.15723
2.87359
0.779128
2.71562
0.474357
2.15765
0.571598
2.36101
0.291715
1.12053
0.0815991
1.74171
3.07636
3.53562
0.404887
0.0831386
0.157758
0.144232
0.0402353
0.176411
0.38828
0.215278
0.653347
2.56397
0.0672798
0.129042
2.9195
0.262241
0.621655
1.51069
2.28747
2.39074
0.267899
0.586412
0.354629
0.256816
0.332172
0.290794
0.16396
2.07216
0.0610017
0.659715
0.449785
0.0713842
1.12561
0.0740524
0.0677814
0.0545797
0.0263114
0.0299616
0.112239
0.178396
0.210447
0.282752
0.0332907
0.018705
0.039352
3.06736
2.84407
0.359089
0.845839
0.263547
0.470518
0.63347
2.29088
1.59737
2.43209
6.23537
0.799103
1.8661
2.04208
3.63738
0.978213
0.052322
0.0686851
0.0560164
0.0461692
0.0686932
0.264335
2.16648
1.72973
0.0263836
0.110395
0.16657
1.31931
0.320196
2.04475
0.0300702
0.237158
1.42165
0.314604
0.606204
0.469579
0.0871384
0.0621349
1.32398
0.494809
3.6598
0.148288
0.448254
5.70461
0.209715
1.44341
2.77054
0.0549829
0.0723076
0.350851
0.0843649
0.0525207
0.206879
0.0644339
0.115743
0.17881
0.151879
0.496226
0.0897164
0.321158
1.96105
2.53052
0.049863
0.0507504
0.0674229
1.56186
0.822078
0.0917634
2.0116
2.04929
0.075182
1.1789
1.35594
1.98128
3.52782
3.29924
1.40234
0.847157
0.0907112
1.08234
3.12769
1.84435
0.395056
0.0913988
3.51404
0.0671965
3.09972
0.575515
0.0788441
0.346951
1.53507
2.76558
0.0535524
0.156307
1.21429
0.218254
0.350416
0.106303
0.601751
0.269206
3.87399
0.378579
1.81701
0.0681019
0.0473435
0.0761803
0.0441434
0.0288064
0.0297251
1.94867
0.0605611
1.92689
3.57254
0.333918
0.937647
5.78086
0.272562
0.203053
1.79675
1.08886
0.944874
6.82402
0.248777
4.05456
0.0731613
0.0441549
0.0790532
2.96711
0.188127
0.0654447
0.0561728
0.040903
0.0667641
1.98133
1.80514
0.669701
0.246475
0.458136
3.35417
1.14418
0.590675
0.718008
0.760905
0.362759
1.85454
2.4875
2.10978
1.64027
0.0557388
0.442313
0.0998793
1.40118
0.104757
1.57366
1.37438
0.63711
0.67675
0.243853
2.2911
0.207276
0.0383452
0.0685574
0.0911797
0.0853223
0.861771
0.638712
1.4857
0.217531
0.482765
2.87087
2.83674
0.421409
2.33559
0.980094
0.0839943
0.108793
0.0583518
3.24751
0.539824
1.71628
0.542968
0.0666484
0.307291
3.2278
1.88879
0.209219
0.2756
0.975789
1.8683
0.112577
0.0402665
0.0626566
0.413624
2.39091
0.225369
1.12441
1.65688
1.57901
1.54795
0.299386
0.218087
2.01601
1.70613
1.65514
0.0600038
0.406342
0.00994565
2.97521
0.00935809
0.42754
2.3503
0.998902
0.472627
2.07545
0.0517241
0.222856
0.506108
0.0116446
0.477668
0.0499068
0.0102371
0.319007
0.585043
1.98965
2.42206
0.684393
0.183193
0.0361317
0.0440996
0.0140643
0.0122141
0.0231646
0.0679388
0.470965
1.7906
0.475074
0.534171
0.342407
0.893503
1.71013
0.580132
0.212965
0.0441844
0.18998
4.00373
2.21648
1.15729
0.171302
0.0701981
2.20909
0.0976167
0.356331
0.645038
0.673627
0.465995
3.22841
0.306913
0.451217
0.205379
3.40126
2.23335
0.0573943
1.28901
0.097887
0.175527
1.49181
0.173794
0.0329017
0.0287928
0.0733344
0.0915133
0.126793
4.21585
1.43157
0.249609
1.64863
0.99429
0.366074
2.32155
2.53946
0.316407
3.73465
0.0848931
0.567604
0.0420562
0.509279
1.31148
0.0269215
0.383567
2.83213
0.200154
0.479156
0.048448
0.0872602
0.59213
1.77946
1.2419
2.57912
0.404722
2.49939
0.0784762
0.467678
2.30582
0.210968
3.6347
0.441958
1.3573
0.42582
0.221929
1.93754
0.750811
2.57311
0.0458248
0.0299451
0.0596432
1.99736
0.262206
0.190668
0.109016
0.486163
0.515932
0.0300919
0.0958835
0.226226
0.930532
3.11124
0.198804
0.111413
0.350118
2.22953
0.521862
0.420993
0.126253
1.55025
0.68717
0.119596
0.838281
2.71686
0.0272418
0.794258
1.23086
2.01248
0.808049
0.857948
0.38684
0.078531
0.0701673
0.0591677
0.0533685
0.0698353
0.20492
0.30592
2.84316
1.4452
0.997873
3.28206
0.981956
1.33812
0.205224
0.287119
1.18923
0.162102
0.726935
0.194386
1.56918
3.70534
2.27289
2.06795
1.57974
0.559961
0.911077
0.613965
0.638272
0.0163404
0.040707
2.15612
0.500226
0.122103
1.95483
2.40318
0.0784983
1.00497
0.820486
2.93451
5.01927
2.89942
0.0302927
1.55799
0.0422548
0.057712
0.0730948
1.61078
2.68718
1.31093
0.0871506
0.477549
2.99878
0.245898
0.028405
0.682513
2.30337
0.571098
1.6005
4.03306
1.37826
0.0734568
0.0581874
1.10127
2.14002
1.94775
1.96084
2.6401
0.214344
0.108636
3.63289
2.00488
0.0687028
0.031458
0.0608653
0.0365353
0.122064
0.0732716
4.59259
0.981369
0.101094
1.16838
1.73424
0.195623
2.37473
1.83672
2.56286
0.272076
0.533086
0.290988
1.68019
0.795619
0.519151
3.48664
2.89952
1.14959
2.14114
2.54437
2.37446
0.107059
0.100364
2.47676
2.55003
0.107266
0.0574333
0.0249961
0.063096
0.593715
1.20621
2.01606
0.999774
0.0915386
2.49177
0.0378111
0.0640903
0.0797191
0.242362
0.127019
1.64377
1.76842
2.7339
0.239015
3.29131
0.0740357
0.285596
3.57347
1.71923
1.80721
1.22496
0.328887
3.55797
1.8582
0.0778138
0.211817
0.214013
0.392833
0.192128
1.42624
0.892676
0.521257
0.613162
1.83496
1.28223
0.336906
1.31975
0.0533058
0.0782455
1.22609
0.457869
0.362674
8.28354
0.309658
1.98765
1.7877
0.0490926
0.0506146
0.0652322
0.0575437
2.1586
1.74057
1.8192
0.179932
0.893018
0.229598
0.233775
0.640616
1.77679
0.218797
0.264546
0.226803
0.0630602
0.0548436
0.0208738
0.0736051
2.10559
1.8084
0.183497
0.827385
8.61582
2.83389
2.94192
1.26461
0.0938564
0.973788
0.275908
0.473861
1.34743
3.15335
0.0855741
0.0942171
0.0323758
2.72554
1.35331
2.08287
0.13276
0.128265
1.24162
0.443555
0.0346024
0.043008
0.0606009
0.110193
0.280702
2.17558
1.85251
0.234305
2.28906
1.03819
1.66144
2.08589
0.346782
2.09797
0.189328
0.811203
1.80891
2.34599
1.50513
0.0532794
0.062271
1.48
0.239102
0.0589052
0.108734
1.23326
0.537617
0.527334
0.0415033
0.518445
0.0443001
0.528193
0.503138
0.508775
0.509204
1.69245
2.65769
0.853705
0.122012
2.68897
0.55145
0.0851097
0.284922
0.0821595
0.375737
0.186764
0.385071
2.70369
0.0806479
0.126737
1.13278
0.194377
1.97867
0.0474381
0.0744318
4.08414
5.23284
0.0610024
0.0610486
0.0551855
0.088899
0.175063
0.0368081
0.068849
0.0726523
0.0850835
0.0584564
0.047893
1.26376
0.159552
0.0754937
0.574536
1.64835
0.151567
0.617053
0.0473432
0.165767
2.54662
1.90916
0.838946
0.0363501
2.56049
2.23835
2.20356
2.0211
0.423375
0.0416713
0.021914
0.0825893
1.09959
2.90027
1.27053
0.194286
0.663561
0.259601
0.0718562
0.140123
0.389464
2.84324
0.354284
2.37393
0.026112
0.263598
2.66085
1.02974
0.0980827
0.505865
0.0636715
1.5393
1.30913
0.965541
0.06531
0.176214
0.0680138
0.0706768
0.233906
0.322986
0.304735
2.55843
1.52263
1.81353
1.36133
0.751692
0.139827
0.563465
0.0781526
2.09502
0.911923
0.772188
0.268381
3.3379
0.269156
1.15759
1.67663
0.0706506
0.0887581
0.444101
3.59477
2.9554
1.17097
2.82742
1.91372
2.80319
0.299324
0.535959
0.0266604
0.237142
0.511156
9.04926
3.36732
0.36569
2.52787
1.02576
0.176752
0.24327
0.466613
0.182374
0.0598558
0.0570725
1.95168
1.75015
0.890425
1.63896