/*--------------------------------*- C++ -*----------------------------------*\
| =========                 |                                                 |
| \\      /  F ield         | OpenFOAM: The Open Source CFD Toolbox           |
|  \\    /   O peration     | Version:  v1912                                 |
|   \\  /    A nd           | Website:  www.openfoam.com                      |
|    \\/     M anipulation  |                                                 |
\*---------------------------------------------------------------------------*/
FoamFile
{
    version     2.0;
    format      ascii;
    class       surfaceScalarField;
    location    "0.97";
    object      phi;
}
// * * * * * * * * * * * * * * * * * * * * * * * * * * * * * * * * * * * * * //

dimensions      [0 3 -1 0 0 0 0];
oriented        oriented;


internalField   nonuniform List<scalar> 
2708
(
-0.000519167
1.5713e-05
0.000206435
0.000297019
0.000166819
0.000219265
-0.000170465
-0.000215619
-0.000297712
-8.66435e-06
0.000188042
0.000118334
1.14273e-05
-1.21413e-05
-2.68741e-07
9.82762e-07
-0.000398925
-0.000210625
0.000304884
0.000304667
0.000795975
-0.00101786
0.000486826
-0.000264941
2.94087e-05
-3.23579e-05
3.07214e-05
-2.77723e-05
-0.000133259
0.000198121
-1.65913e-05
-4.82707e-05
-0.000664631
0.000686559
0.000716632
-0.00073856
2.42402e-05
3.16675e-05
-2.64989e-05
0.000944518
-0.000977016
0.000293555
-0.000261058
0.000279613
-0.000349425
0.000733941
-0.00066413
-0.000197542
0.000257535
-0.000256627
0.000196634
-0.00011381
-0.00038109
0.000354941
0.00013996
0.000374555
-0.000537929
-0.000119346
0.00028272
4.10373e-05
2.71807e-05
-4.39777e-05
-0.000737939
0.000565658
-0.000164982
0.000337262
0.000154403
-0.000264562
0.000173321
-6.31626e-05
0.000310333
0.000141223
-0.000413133
-3.84234e-05
-0.000141735
-5.91652e-05
0.00019235
8.55032e-06
-0.000406077
0.000798564
0.000552031
7.44693e-05
-4.2503e-05
-0.000145777
-0.000714971
-0.000392658
0.000574607
0.000533022
-0.000277681
-0.00124391
0.001287
0.000234588
-0.000773232
-0.00060637
-9.94667e-05
2.79968e-05
0.000193192
-0.000121722
-0.000951569
-0.00016367
0.000138224
-0.000241027
0.000101106
0.000272579
-0.000132658
5.60355e-05
-0.00049529
0.000439255
-1.6811e-05
-0.000559187
0.000575998
0.000680328
5.33305e-05
-5.35979e-05
-0.00068006
-0.000628026
5.23056e-05
-2.49203e-05
0.000600641
0.00064957
4.98162e-05
-2.77999e-05
-0.000671587
-0.000248479
0.000182191
7.64438e-05
-1.01557e-05
0.000727338
0.000335631
-0.000748171
-0.000314797
-2.33042e-05
3.49053e-05
-1.99453e-05
8.34419e-06
0.000249854
0.00076447
-0.000157768
-8.40264e-05
5.4814e-05
8.28015e-05
-5.35891e-05
-5.12767e-05
7.57485e-05
2.43804e-05
-4.88523e-05
9.7711e-05
0.000552372
-0.000629024
-2.10595e-05
-0.000538283
0.000499955
0.000891766
0.000970639
-0.000153313
-0.000143695
-3.78286e-05
-2.38964e-05
1.98626e-05
4.18624e-05
-0.000473418
0.00070557
-0.000542638
0.000310486
0.000130572
1.85664e-05
-0.000163566
1.44281e-05
0.000156414
-9.45642e-05
-7.13274e-05
9.47805e-06
-0.000903402
0.000108417
-0.000156585
3.03618e-05
-3.16238e-05
-3.10959e-05
5.93401e-05
-2.69076e-07
-6.39858e-05
4.91472e-06
6.5132e-05
-0.000333302
0.00036714
-9.89706e-05
6.03701e-05
-5.013e-05
-2.98928e-05
1.96527e-05
0.000435229
-0.000220334
-0.00022
5.10494e-06
4.75867e-06
0.00030756
-0.000155191
-0.000157128
9.76802e-05
0.000169062
-0.000133026
-0.000133716
-9.73566e-05
0.000223385
7.77065e-07
-0.000126805
0.000125244
-0.000205041
-8.71554e-05
0.000166953
-0.000420742
-0.00038359
0.00048516
0.000319172
0.000779004
-0.000174809
-0.000604195
0.000228149
5.78748e-05
-0.000286024
0.000133529
5.9012e-05
-1.63271e-05
-4.26849e-05
1.01618e-05
1.61791e-05
-2.63409e-05
-3.97643e-05
-4.42622e-05
-2.79086e-05
-2.33681e-05
1.38143e-05
1.20546e-05
0.000485332
-8.94824e-05
0.000106321
4.58194e-06
-9.23835e-05
0.000143666
-5.12824e-05
-0.000150189
0.000225036
-7.48468e-05
-0.000164881
0.000145153
1.97273e-05
-0.000259481
1.10025e-05
-1.1972e-05
4.67744e-06
4.67361e-05
0.000135455
-0.000291088
-9.00025e-05
0.000224573
-9.40007e-05
0.00031247
2.96313e-05
-0.000342101
8.49354e-06
2.11535e-05
-2.9647e-05
1.31743e-05
1.84932e-05
1.92123e-05
0.000135191
-0.000632583
-0.000105356
-1.16502e-05
-5.31308e-05
6.4781e-05
-0.000161495
8.16758e-05
0.000501397
-0.000421578
-0.00019596
0.000160581
0.000191792
-7.95077e-05
5.45551e-05
0.00119974
-0.00117478
8.50639e-06
1.54422e-05
-1.16069e-05
-1.23417e-05
3.1552e-05
1.28341e-05
-5.52519e-06
-3.88608e-05
0.000189152
-0.000210849
2.33459e-05
-1.64923e-06
2.76754e-05
2.48282e-05
-0.00100322
0.000950719
-0.000119777
4.60242e-05
-0.000744425
0.000818178
-4.62711e-06
0.00023713
-0.000107259
0.000221824
-0.000221909
-4.54167e-06
6.84055e-06
-3.37658e-05
8.17392e-05
-2.31902e-05
3.92085e-05
-5.07642e-05
3.47459e-05
0.000139811
-0.000103273
6.11422e-05
3.74977e-05
-0.000491525
0.000454027
-0.000306009
-0.000281379
-0.000389258
0.000455283
0.000215355
-4.10087e-05
-3.59477e-05
3.91278e-05
-0.000173112
0.00016624
6.87234e-06
0.000302489
-0.000202424
-0.000197421
4.90316e-05
-3.10283e-05
-0.000479773
2.16884e-05
-3.82958e-05
0.000496381
-9.89181e-05
-6.58978e-05
0.000139817
2.49983e-05
-1.93218e-05
2.91933e-07
2.75234e-05
-0.000613908
-8.65972e-07
0.000624779
-1.00044e-05
3.93792e-06
0.00062487
-0.000606848
-2.19605e-05
-0.000115023
0.000689276
-0.000741963
0.00016771
0.000520056
-0.000330101
-0.000582613
0.000610894
-0.000311664
4.66855e-05
8.25452e-05
-0.000365994
0.000189741
0.000433788
2.02165e-05
7.06226e-05
-0.00011901
2.81707e-05
-0.000679382
0.000609801
0.000569536
0.000117356
0.000218524
-0.000174353
9.54593e-05
-5.44714e-07
-1.98596e-06
1.04923e-05
-2.96024e-05
-5.60946e-05
-9.40943e-05
-8.15613e-05
-0.000456368
0.000134068
-0.00012931
-6.60518e-05
-6.6214e-05
0.000211367
-7.84828e-06
2.10226e-05
1.47577e-05
-8.17842e-05
-0.00020426
0.000166698
0.00010431
-0.000283738
0.000170763
-2.03629e-05
3.08083e-05
2.49698e-06
-1.29424e-05
0.000219667
0.000345992
-3.7413e-05
-0.000227149
-4.72859e-05
-2.47659e-05
5.16889e-05
6.82055e-05
-0.000307568
0.000549696
-0.000139357
0.000218598
-0.000220976
2.68232e-05
-6.95365e-06
-3.82096e-05
3.37181e-05
-2.97652e-05
-2.30031e-05
1.90502e-05
5.49723e-05
-2.02665e-05
-5.10329e-05
0.00115761
0.000122198
-0.00112019
-0.000159621
8.9642e-05
1.47183e-05
6.10303e-05
0.000642974
3.07508e-05
7.85668e-05
-0.000752292
-0.000183358
0.000384457
0.000373509
0.000112908
0.000574159
-4.70945e-05
-0.000249152
0.000264352
0.000287289
3.63403e-05
0.000121878
-3.7869e-05
-7.38171e-05
-8.15342e-05
0.000621233
2.11758e-05
-0.000560874
-1.48756e-05
1.28897e-05
-0.000551186
-1.23198e-05
-6.56255e-05
0.000629131
-6.22838e-05
6.62509e-05
-3.7733e-05
-0.00116654
-0.000120896
0.00112698
0.000160458
0.000462308
0.000320973
-0.000279144
-0.000504137
-0.000156008
8.24099e-05
-0.000598791
0.000672389
-5.1147e-05
4.7987e-05
2.23455e-05
-1.91855e-05
0.00103339
-0.000895814
0.000209553
-0.000347127
-0.000300887
-0.000219583
0.000263843
5.77053e-05
-5.54949e-05
-2.66329e-05
2.44225e-05
1.74311e-05
-5.44689e-05
5.12863e-05
-1.42485e-05
-6.10608e-05
0.000195129
-0.000834477
0.000361314
-4.60038e-05
0.00018153
7.56375e-05
3.3869e-05
-1.8791e-05
0.000379766
-0.000356227
-0.000171138
0.000147599
-0.000132381
-0.000919718
5.86835e-05
0.000993415
-0.000269206
-0.000316242
0.000336295
3.69913e-05
0.000651115
-2.59402e-05
-0.000662166
0.000254647
-0.00145118
3.44489e-05
0.00116208
0.000322877
-0.000310336
0.000206724
0.000304948
-0.00121684
1.61988e-06
-3.69163e-05
-1.19895e-05
0.000999742
-0.000677185
9.38608e-05
0.000391526
-5.01581e-05
0.00057143
-0.000123014
-0.000424339
-2.40768e-05
-1.26846e-05
2.01318e-05
6.46187e-05
0.000214726
-0.000234772
8.0639e-05
-6.05928e-05
0.00114734
-0.0011213
-0.000303719
0.000560229
-7.06715e-05
0.000510185
-0.000458763
0.000462701
-0.000355989
0.000240966
0.000219696
0.000565489
-0.000813034
0.000360588
-0.000108712
0.000561157
-2.19166e-05
-5.58737e-05
-0.00106983
0.00114762
0.000650098
-0.000704222
0.000167032
0.000676752
-0.000575587
-1.59372e-05
-8.52282e-05
0.000585274
-0.000823225
0.000335662
0.000615316
-6.90974e-05
0.000143057
-1.64894e-06
0.000166553
0.000796919
-0.000642498
-0.000294517
-0.000348501
0.000361638
0.000675639
-0.000635745
-0.000167663
0.00012777
0.000107536
-1.92627e-05
5.53923e-05
-0.00019927
0.000152768
0.000300542
-0.00025404
0.000192776
-0.000207019
0.000127891
-0.000113648
-1.15704e-05
5.67e-05
1.25757e-05
-0.000661267
-0.000388967
0.000798709
0.000251526
1.06992e-05
1.78539e-05
-2.4077e-05
-4.47612e-06
-1.57103e-05
0.000282154
-0.000330503
6.40594e-05
1.12796e-05
0.000696215
-0.000693721
-1.3774e-05
0.000166954
-0.00063837
0.000638309
-0.000166893
-0.000120212
-2.5756e-06
9.34534e-05
2.93339e-05
0.00105628
-0.00107814
-6.15959e-05
8.34552e-05
-0.000195447
1.18904e-05
0.000144442
4.47402e-06
-0.000148916
-1.26115e-05
1.89525e-05
-6.18359e-05
0.000643664
4.87357e-05
-6.75295e-05
-0.000541863
-4.29785e-05
-2.90667e-05
-9.96041e-05
-0.0011338
0.0011539
-8.86706e-05
-1.54564e-05
-6.89853e-05
0.000668812
-0.000193785
-0.000556561
-8.6073e-06
0.000677807
6.43948e-06
0.000258322
-2.19865e-05
3.67943e-05
-0.00027313
0.000227355
-0.000597172
-0.00029145
0.000458382
0.000330159
-0.000641284
-0.000147257
-6.90621e-05
0.000196957
8.6831e-05
0.000282289
-0.000265442
0.000457892
-0.000474739
7.31207e-06
5.69605e-05
-7.26803e-06
-5.70045e-05
-0.000645091
0.000552287
-0.00104514
0.00107356
-0.000128028
-0.000639583
0.00074692
-0.000496305
-0.00017756
0.000168067
-0.000440337
3.95961e-05
0.0007309
-0.000504808
5.81061e-05
0.000674056
-3.89714e-05
-0.000169022
0.000285806
-7.78127e-05
-1.35991e-05
1.34164e-05
0.00068051
7.29051e-07
-0.000622729
0.000633279
0.000390465
-0.000134335
0.000329144
-1.30524e-05
-0.000649319
3.43459e-05
-0.000750429
-0.000224024
0.000829942
0.00014451
0.000648087
0.000137351
-0.000141774
-1.31187e-05
-0.000381912
-0.000146833
-0.00013336
0.000431284
0.000352174
-8.27653e-05
6.85117e-05
0.000201344
-0.000187091
-4.35821e-05
5.02962e-05
-5.09421e-06
-0.000131863
0.000345582
0.000143757
-0.000357476
0.000102803
-9.16633e-05
-0.000359953
0.000539716
-0.000192882
-9.92905e-05
-0.000139856
-8.36241e-05
9.31051e-05
0.000130375
-0.000381276
0.00020108
-0.000264819
0.000862448
0.000308939
-0.000550438
-0.000399785
-8.20039e-05
-6.71907e-05
3.35726e-05
-4.81661e-05
-0.000353153
0.00119534
-0.000814507
-5.33704e-05
1.96545e-05
5.19457e-05
4.4153e-06
-9.22169e-06
4.18096e-05
-0.00113307
4.1825e-05
0.000899047
0.000192195
-5.3641e-05
1.39745e-05
-1.3704e-05
-0.000192713
0.00110304
0.00016323
-0.000596282
0.00075679
-0.000444021
0.000283514
1.25404e-05
0.000277104
0.000155814
-8.67554e-05
-0.000346162
9.22395e-05
-0.000385807
-4.79102e-05
7.14604e-05
1.3066e-05
-3.92831e-05
3.11735e-05
-0.000367325
-0.000665184
-0.000571571
0.000416589
-0.000480949
-0.000579579
0.000643938
-6.17103e-05
0.000175477
0.00050155
0.000109959
-0.000812281
-6.95426e-05
-0.000135499
0.000230555
0.000106142
0.000625435
0.000193165
-0.000170513
-0.000150236
-0.000153255
-6.16375e-05
0.000113985
-0.000135113
0.00120845
-0.000307442
-4.6569e-05
0.000588972
0.00147168
-0.000181075
-8.21577e-05
-0.00072624
-8.38177e-05
-1.91124e-05
0.00082917
-0.00042747
0.000428199
-0.000511437
0.000648788
-0.000323314
0.000379191
-0.000325083
-0.000267977
0.000288867
-0.000527183
0.000506293
-9.62124e-07
0.000441762
0.000292529
-0.000162496
-8.45727e-05
-4.54611e-05
0.000101619
-8.45875e-05
-7.27579e-05
5.57259e-05
-0.000263999
0.00055379
-0.000451286
-0.000961592
0.000148713
-0.000320188
-0.000404999
6.77122e-05
-8.62468e-05
0.0011499
-0.00113137
0.000167972
-0.000117129
-0.000266462
-1.26753e-05
-0.000611858
0.000546287
-0.000639628
0.000705199
-1.22077e-05
-0.000459869
2.36935e-05
-0.000273632
-3.29944e-05
0.000282933
1.93827e-05
-0.00081564
3.69179e-05
-0.000624512
0.000259862
-0.000615851
6.68807e-05
-0.000525644
1.55174e-05
-0.00015445
5.02623e-05
-0.000421879
-5.59125e-06
0.000267707
0.00027509
-0.000278445
4.64243e-05
-4.36427e-05
-2.78158e-06
0.000109088
-0.000127242
-0.000132081
-0.000234632
0.000275273
-2.41782e-05
-1.64626e-05
-0.000269554
-0.000568695
0.000137397
0.000700851
-5.29983e-05
6.66944e-06
-0.000421507
-0.000649741
0.000464619
0.000378455
0.000842038
-0.000288764
0.000152233
-0.000718286
0.000783864
0.000100974
3.18341e-07
-8.16661e-06
-3.31012e-06
-0.000171869
0.000110159
0.000712665
-0.000677822
0.000651716
-0.000577449
0.000216741
-0.000402529
-0.000500113
0.000266898
7.69911e-05
2.39108e-05
-8.64949e-05
0.000116089
-5.35045e-05
-0.000642436
0.00058913
0.000768114
-0.000714808
0.00024682
-0.000289927
-0.0003784
0.000153952
6.55178e-05
-8.23482e-05
4.82581e-05
-1.90407e-05
0.000252884
-2.32023e-06
-0.00022687
-0.000602353
0.000317794
0.000453533
-0.000168974
0.000114815
7.32274e-05
8.38917e-05
0.000753634
-0.000683399
-0.000693435
0.0006232
0.000339894
-0.000355211
9.20733e-05
-7.67554e-05
6.56542e-05
-1.54836e-06
-1.21601e-05
0.000422745
-0.000465723
8.75748e-05
-7.28384e-05
-6.60189e-05
0.000753098
-0.00067111
-0.000693846
-3.07671e-05
2.60702e-05
5.61634e-05
-5.14665e-05
-4.41016e-05
1.35854e-05
-0.000238933
-1.14099e-05
-0.000720062
0.000530551
0.000622142
-0.000432631
-0.000245846
-0.000660591
-0.000740111
0.000419008
-0.00028125
2.71026e-05
-1.88462e-05
-0.000224764
4.67751e-06
-0.00017103
0.000302376
-0.000741164
0.000609819
-0.000308629
0.00105598
-0.000137553
-0.000623855
0.000462679
0.000873841
-0.000839303
0.00054836
0.000722227
-9.76771e-05
-0.000172707
0.000752043
-0.0005219
0.00124154
-0.000196734
-0.000692581
2.17009e-05
0.000264858
-3.62916e-05
-0.000250267
7.28092e-05
-2.91262e-05
0.000799368
-0.000843051
1.41656e-05
0.000166192
-4.8708e-05
-0.00013165
0.000343315
-1.57233e-05
-7.4708e-05
0.000492742
0.000212275
-0.000489714
-0.000215302
-0.000211066
0.000232438
-7.20597e-06
0.000188046
-0.000140961
-1.81468e-05
-2.8938e-05
0.000344226
-2.25003e-05
0.000969446
-0.00129117
5.31692e-05
-9.21406e-05
0.000113271
-0.00130561
0.00117042
1.29232e-06
-2.23921e-06
7.54161e-05
-9.177e-05
-0.000120059
9.22229e-05
-0.000738817
0.00112432
0.000132979
-0.00051848
-0.000690109
0.000669975
-0.000575025
0.000444045
0.000117888
-0.000659015
0.000597163
-3.93263e-05
-0.000682192
0.000704707
0.00085296
-0.000873573
-0.000143563
-0.000106575
3.95123e-05
-0.000574431
9.52384e-05
0.00110493
-0.00062574
-0.000324323
-0.000106467
0.000298927
0.000928165
0.000276531
0.000893725
-0.000877433
-0.00014432
0.000235424
-9.7935e-05
5.67725e-05
-4.13853e-05
8.25478e-05
0.000111406
-8.02712e-05
-2.02332e-05
-1.09012e-05
-0.000231032
0.000932043
0.000306918
-0.000232164
-0.000375641
-0.000676103
0.000496221
-1.78141e-05
0.000134454
2.46735e-05
-0.000141314
1.19183e-05
-0.00095802
-0.000730482
6.62904e-05
0.000725669
-6.85185e-05
-0.000723441
0.000432554
0.000194645
-0.000196779
-0.00043042
0.000661376
-7.61713e-06
-0.000449893
-0.000203866
0.000818747
-0.000944476
-4.19338e-05
-0.000360453
-0.000115689
0.000151819
6.44916e-05
-3.89613e-05
-0.00039925
7.95125e-05
1.71153e-05
0.000302622
-0.000522925
9.4793e-05
2.88822e-05
-5.28605e-05
-1.42572e-06
1.2879e-06
0.000842568
-0.000331624
-0.000175351
-0.000638756
0.000464994
-0.00014776
0.000321522
-0.000374581
-8.58124e-05
-0.000178362
-0.000690678
0.000773203
0.000221098
-0.000766695
-0.000232592
0.00077819
0.000603809
-0.00060195
0.000210417
6.95767e-05
0.000900414
-0.000593522
0.000550162
-1.3003e-06
0.000803745
9.66019e-05
-9.82242e-06
8.13269e-05
1.5905e-05
-8.74095e-05
0.000474791
-8.20553e-05
-4.65463e-05
-0.000346189
-0.000833292
3.65292e-05
-6.63162e-05
4.84671e-05
1.78492e-05
-5.62704e-05
3.52014e-05
0.00049523
-1.06538e-05
-9.78527e-06
0.000700792
-0.000438026
5.50273e-05
0.000472252
7.50538e-06
1.54727e-05
-0.000154706
6.1279e-05
-6.41166e-05
0.000157543
1.8446e-06
0.000725822
7.28351e-05
5.49505e-05
-7.95275e-05
0.000492903
0.000120781
-0.000476892
-0.000136792
-8.41303e-05
0.000268904
-0.00101568
0.000453536
-4.04867e-06
2.27643e-05
-0.00011103
0.000603134
0.0002071
-0.000172594
-0.000200303
9.14743e-05
0.000266187
0.000179179
-0.00017599
-2.65052e-05
3.77179e-05
0.000442323
7.74372e-05
-7.14823e-05
-0.000149518
-8.92751e-05
-8.49975e-05
0.000115107
0.000195968
0.000257733
-0.000312478
-0.000121979
1.80638e-05
0.000124132
-0.000221926
-0.00117965
0.000157661
-0.00015209
0.000310083
3.48234e-05
-0.000192817
0.000319375
-0.000287592
0.000164752
-0.000196534
0.000433363
-0.000266079
0.000148012
-4.93065e-05
0.000262032
0.000168753
0.000259954
4.65677e-06
-0.000361749
0.000392036
-0.000267838
0.00023755
0.000117087
-0.000117187
0.000394282
-0.00026626
-1.08351e-05
0.000354391
-7.95422e-05
-1.44806e-05
-5.90593e-05
0.000467822
7.5095e-07
-0.000300549
0.000168203
0.000131596
0.00103377
0.000521067
-0.000288115
-0.00126672
-1.19963e-05
0.000245185
-1.36292e-05
0.000167825
8.89297e-05
-6.48025e-05
-1.11943e-05
-6.21123e-05
-5.81996e-06
2.85402e-05
3.9392e-05
7.87822e-05
-2.48058e-05
0.000203607
-0.000185327
-0.000246593
0.000228314
-5.20375e-05
4.16475e-05
5.90236e-05
-4.86335e-05
-7.39348e-05
-7.5904e-05
9.78013e-05
-6.35973e-05
-2.1526e-05
3.72208e-05
4.79025e-05
-4.1027e-05
4.17769e-05
2.39298e-05
-2.46797e-05
-6.44553e-05
-0.00013595
1.62146e-05
2.93542e-05
4.27845e-05
-4.11697e-05
4.23581e-05
1.03924e-07
-0.000957146
3.69478e-05
0.000895708
2.44904e-05
2.09704e-05
-2.77522e-05
-5.76736e-05
-9.44369e-05
-0.000129318
0.000147903
2.61056e-05
-2.56278e-05
-3.52327e-05
8.26267e-05
-6.65555e-05
1.91614e-05
-0.00102861
0.000105913
2.89244e-05
-5.00909e-05
5.05208e-05
1.82588e-05
-0.000102007
5.20188e-05
-2.34269e-05
-6.38246e-05
-0.000281603
-0.000171089
-0.00114049
0.000204117
4.02963e-05
-5.18749e-05
-0.000316378
-0.000701911
4.94897e-05
-4.75889e-05
-2.57972e-05
1.92223e-05
-0.000214832
-0.000133958
5.07742e-05
-1.28974e-05
-7.326e-05
3.53831e-05
-0.00128071
0.000273793
0.000816109
-0.000640447
0.000858108
2.04786e-05
-3.0707e-05
2.35238e-05
5.27134e-05
-4.25191e-05
-5.60859e-07
-1.64534e-05
5.33674e-05
5.06345e-06
-8.50267e-07
2.08574e-05
2.55905e-05
2.38886e-06
-0.000903146
0.000438543
-3.05689e-05
2.2344e-05
-1.50792e-05
9.59325e-05
-6.34697e-05
2.9853e-05
0.000104232
-0.000134935
-0.00013584
-5.00703e-05
1.46765e-05
0.000157632
-0.000227143
-1.07231e-05
8.12052e-06
-1.07553e-05
1.33578e-05
-0.000731504
4.72099e-05
-1.53128e-05
-6.2466e-05
8.7865e-05
-0.000141896
-9.83107e-06
2.74423e-05
-3.67802e-05
1.9169e-05
0.000132949
-0.000195643
4.42806e-05
1.84134e-05
4.20583e-06
1.83506e-05
-6.50719e-05
0.00011682
-0.000150934
-0.00119488
0.000175266
5.35196e-05
2.3259e-05
-2.95687e-05
0.000115052
0.000317405
-0.000210634
1.64453e-06
-9.33549e-05
9.92832e-05
-7.57281e-06
-1.21181e-05
0.000143257
-0.000103142
0.000353612
9.63961e-05
-3.60507e-05
3.76952e-05
-0.000333698
-0.000859896
-1.28977e-06
-0.00115606
-0.000463814
9.83537e-05
-1.67354e-05
-2.37745e-05
9.96381e-05
5.8822e-05
-4.53855e-05
0.000202111
7.28024e-05
-0.000159861
5.28774e-05
-7.48266e-05
0.000179411
4.07081e-05
-2.41509e-05
-2.28006e-07
-1.6852e-05
5.26848e-06
-4.13192e-05
3.81523e-05
2.25238e-05
-6.06146e-06
-8.2025e-05
1.74584e-05
6.28612e-05
-0.000112636
0.00015219
-0.000737717
-0.000235494
0.000344573
-0.000203643
0.000116374
-0.000326147
0.000198156
-9.8766e-06
-5.45544e-05
3.47088e-05
0.000126006
4.41035e-05
-4.31529e-05
5.71879e-06
-0.00140042
-0.000197192
0.000415552
2.48569e-06
-3.51766e-05
2.36518e-05
2.48152e-05
-0.000171363
0.000125338
-0.000178505
-0.000135832
0.000188999
0.000180925
-0.000165062
-4.08864e-05
1.43787e-05
-8.61278e-05
0.000459852
-0.000414741
-0.000550967
0.000505856
4.61628e-06
0.000118742
3.35612e-05
0.000704097
-0.000631288
8.55047e-06
0.000130534
-1.30785e-05
-5.93532e-05
0.000209416
-0.000407886
0.000493236
-0.000167405
-4.67277e-05
-2.19244e-05
6.86521e-05
2.08128e-05
0.000784354
-0.00073559
9.20885e-05
0.000149624
-0.000490194
0.000481453
4.44591e-05
-0.000285958
0.00026013
-0.000770172
0.000893807
-0.000123635
0.000190274
-0.000133167
-0.000559637
1.74074e-05
-0.000218651
0.00076088
-0.000336291
0.000325537
-0.000291699
0.000302454
-9.0325e-06
5.589e-05
0.000843223
0.000409032
-0.000429955
0.000489129
-0.000468206
-2.19171e-05
-1.92188e-05
1.4795e-05
0.000112141
-0.000236651
4.47276e-05
1.33504e-05
-1.69422e-05
0.000107193
-6.60743e-05
-0.000767379
0.000615937
-0.000254635
-0.000128459
-0.000445659
-0.00128909
-0.00029241
0.000754945
0.000182871
-2.37266e-06
-0.000188829
0.000212903
-0.000534367
0.000690495
-1.35343e-05
-0.000158018
0.00016918
0.000190733
-1.12124e-05
-1.82269e-05
-0.000153837
0.000155122
0.000206529
-0.000666551
2.32878e-05
0.000436733
-0.000383109
0.000350092
6.51154e-06
-0.000860332
0.00039119
0.000771517
-4.42796e-05
0.000339612
9.90791e-05
9.26475e-05
-0.000115784
0.000110301
5.4826e-06
0.000781013
4.34847e-05
-4.54862e-05
-7.87515e-06
6.18852e-05
0.000519754
-0.000581639
7.38767e-06
0.000285993
-0.000372923
0.000129613
-0.000269192
-0.000401971
1.48136e-05
0.000258677
-0.00025823
-0.000860779
-0.000483812
0.00070815
-0.000459832
0.000597202
9.94284e-05
-0.00057585
0.000174431
0.000626293
-0.000641517
0.000774463
-0.000263814
0.00011173
-0.000124601
-0.000129318
-7.03227e-05
0.00014699
0.000121489
0.000216335
-0.000227175
0.000604465
-0.000583652
-0.000324013
-0.000458706
0.000165313
0.000330187
-0.000578467
-0.000228219
0.000256248
-0.000440338
0.000288308
-0.000284491
0.000436521
-0.000137695
9.30221e-05
0.000196863
0.000275522
0.000399041
-0.000242009
0.00115248
0.000178065
0.00049326
-0.000522155
6.66124e-05
6.07844e-05
0.000779316
-0.00077524
-0.000162961
0.000158885
0.000701909
0.000204112
-0.000487013
-0.00115733
0.00107489
0.000220078
-0.000702243
-1.63276e-05
5.56656e-05
-2.7388e-05
-1.195e-05
4.14823e-05
-1.09385e-06
4.69499e-06
-0.000114723
-4.799e-05
-0.000356954
0.000215222
-0.000381193
2.66192e-06
0.000239051
-0.000622117
0.000685846
0.000746522
-0.000721812
0.000631653
-0.000656363
0.00014268
0.00108227
-0.000920006
-1.74272e-05
2.13126e-05
0.000137266
3.48526e-06
-2.93453e-05
0.000677565
-0.000128228
2.20936e-05
0.000136484
-0.000276051
-0.000185239
1.0852e-05
9.94492e-05
-0.00046488
0.000541157
-0.000433231
-0.000127592
-5.65422e-05
-9.22346e-05
0.000825528
-0.000380128
-0.000493416
0.000433207
-6.4711e-05
0.000147961
-0.00016025
0.000119344
0.000233056
-7.71275e-05
0.000212241
2.1123e-05
0.000107619
-7.85825e-05
0.000310575
0.000108938
0.000238977
2.17753e-06
8.64617e-05
0.000690773
0.000662967
-0.000797515
-8.35487e-05
-0.000439286
-0.000675345
0.000624437
-0.000211737
7.32294e-05
0.000767771
-0.000704648
0.000378164
4.80461e-05
-4.00369e-05
-1.31034e-05
-4.23499e-05
4.69697e-05
0.00048864
-3.62194e-05
0.000640684
-0.000122971
-0.000646213
5.78438e-05
-0.000173697
-0.000393496
-0.000200207
-0.000148251
-1.31587e-05
0.000852266
-9.59422e-05
-0.000564129
0.000516986
2.76765e-06
0.000509229
0.0006258
-3.79493e-05
-0.000137689
-0.000958642
-0.00027727
0.000340195
-0.000426468
-2.34284e-05
1.46539e-05
-3.46291e-05
0.000119898
0.000225513
0.000100426
-7.49785e-05
-0.000149376
3.72895e-05
0.000259615
0.000508911
8.35823e-05
0.000234431
0.000980912
-0.000926357
0.000592848
-1.70469e-05
-1.2696e-05
2.69063e-05
7.88948e-05
0.00106836
-8.74508e-05
-2.93301e-05
0.000731943
0.000176898
-9.56127e-05
0.000131919
-0.000181406
-0.000161967
-0.00040752
-0.000858059
-6.82988e-05
-5.42508e-05
5.93181e-05
1.22164e-05
-1.72837e-05
-0.000249342
0.000370684
-0.000112606
-8.73534e-06
3.42133e-05
0.000184784
-0.00070753
-3.02763e-05
0.000181744
-4.83927e-05
8.41552e-05
-3.57625e-05
-0.00028959
8.14876e-05
0.000222481
0.000218077
0.000272008
0.000804024
-2.00369e-05
-2.83558e-05
1.3425e-05
-1.01986e-06
-1.24051e-05
-0.000275861
-0.00028644
0.000355183
-6.87433e-05
-0.00011979
0.000268403
1.68533e-05
-3.42836e-06
0.00110198
0.000224718
-0.000171262
-5.34562e-05
-4.07267e-05
-0.000528684
3.13293e-05
-0.000425795
-2.10567e-05
-6.48658e-05
0.00070555
-9.92866e-05
0.00116765
5.19605e-06
0.00051179
-6.17223e-05
0.00013767
-0.000109527
0.000270783
8.07971e-05
-7.0192e-05
-0.000681264
0.000670659
-0.000433761
-0.000195973
-2.75413e-05
-0.000698076
-6.74905e-05
-0.000667353
0.000171394
0.000613846
-6.94947e-05
6.52998e-05
0.000793296
-0.00041279
5.60917e-05
-4.09498e-05
-7.67794e-05
-0.000598252
-0.000500137
4.10784e-05
3.54148e-06
-0.000710861
-2.55428e-05
0.000580431
0.000330509
-0.000335472
-4.03848e-05
2.11506e-05
-2.44085e-05
4.2068e-05
-0.000142624
0.000184138
-0.000447003
-0.000138558
-0.000119254
8.52179e-05
-5.87491e-05
-0.000331282
0.000376739
0.00012261
0.000174713
-4.05214e-05
6.51764e-05
8.91376e-05
-5.5006e-05
4.73561e-05
0.000268022
-8.25438e-06
-4.16903e-05
0.0008581
-0.000118941
0.000436859
-0.000790346
2.00694e-05
4.43127e-05
-0.000516564
0.000490624
-0.000420975
3.87288e-05
0.000549631
-0.000233711
0.000277599
-9.06468e-06
-0.00106581
0.000180828
-1.07888e-05
-0.000264467
0.00023696
-0.000182816
4.10305e-05
0.000715677
-2.7063e-05
5.28683e-05
-7.51999e-06
1.56188e-05
0.000122436
-7.4282e-05
8.41483e-05
-7.40732e-05
4.77917e-05
-3.06682e-05
0.0003191
-4.39984e-05
0.000764871
0.000283608
-0.00079714
6.43271e-05
8.70574e-05
-7.26023e-05
-0.000768501
-0.00010879
-0.000111672
-0.000240178
0.000180005
0.000134646
-9.19028e-05
0.000284946
4.64276e-05
8.05497e-06
4.71274e-05
-4.93808e-05
2.95282e-05
4.18393e-05
-0.00054123
-6.1434e-05
4.26189e-05
-8.24703e-05
0.000883871
0.00102575
0.000115954
0.000834493
-0.000127447
3.58812e-05
-1.3842e-05
7.53272e-06
6.30931e-06
-0.000175349
0.000183881
-0.000680639
0.000606139
0.000620787
0.000112161
-0.000105028
-0.000412591
-2.37067e-06
0.000321895
2.25654e-05
0.000126223
-0.0012523
-0.00074115
0.000983991
-0.000415881
0.000483079
2.24934e-05
-0.000700597
-0.000422311
0.000227171
-0.000206721
-0.000426257
-0.000404498
9.04186e-05
3.01129e-06
1.93343e-05
3.19791e-05
-3.1244e-05
-0.000401523
0.000157461
-0.000324633
2.95004e-05
-2.78322e-05
4.05058e-06
0.000212556
4.54192e-05
4.7494e-06
4.92353e-05
9.42883e-05
-0.000261776
2.1763e-05
0.000115764
-0.000689708
-0.000233712
0.000613103
6.97417e-05
0.000736724
-6.86535e-07
-0.00027756
0.000650321
-0.000603793
-6.6594e-06
1.25238e-05
-0.000237434
0.000109846
-0.00112419
9.31833e-05
-6.43372e-05
-0.000704766
0.000164014
0.000605089
-4.35923e-05
0.000877705
-0.00021857
0.000178756
0.000235811
-0.000507015
0.00013494
-0.00058433
0.000531099
-3.05863e-05
-0.000202313
-0.000296352
0.000386642
-4.50384e-05
-0.000494071
7.28575e-05
0.000645919
1.27944e-05
-1.5739e-05
-0.000102171
-5.77073e-05
4.82704e-05
0.000260158
0.000516178
-7.93188e-05
-0.000678981
-0.000111366
4.4099e-05
0.000321286
-0.000105744
0.000352243
0.000447177
3.87188e-05
-0.000136094
-0.000438217
0.000308232
5.67873e-05
0.000165348
7.37531e-05
-0.000352437
6.8893e-07
-9.26455e-06
3.79242e-05
-2.29438e-05
0.00042798
-0.000576498
-8.51941e-05
0.000323343
1.46489e-05
-2.77426e-05
-0.000609485
-3.76048e-05
0.000603497
-2.96602e-05
0.000197818
-0.000912852
0.00101899
-5.9397e-05
0.000112279
2.09324e-05
-5.72052e-05
0.000154083
-0.000176384
-0.000114847
0.000350836
5.13963e-06
4.69307e-05
4.98629e-05
1.61468e-05
-0.000277579
0.000180763
-0.000173061
0.000269877
-0.000326379
5.73991e-05
-3.09413e-05
3.54616e-05
-0.000400554
-0.000427407
-0.000505494
0.000655322
-0.000181201
-0.000251267
-8.62219e-05
0.000637532
4.61088e-05
-0.000597419
-0.000128253
-0.000152883
0.000142911
0.000138225
3.47062e-05
2.26567e-05
-3.6783e-05
-0.000617704
0.000589351
-0.000197534
-0.000399393
0.000480964
-0.000548413
-0.000517472
0.00042932
0.000134752
-6.69459e-05
-0.00037947
0.000146879
-0.00024715
2.84022e-05
-1.98351e-05
0.000821504
-5.8905e-05
-0.000690878
-0.000662953
-0.000348089
0.000788894
1.99008e-05
-0.000533109
-2.28309e-05
7.51325e-05
-0.000361706
-0.000315248
0.000529558
-0.000360776
0.000240475
0.000800729
-0.000687427
-0.000113301
-0.000474261
0.000490217
-1.59551e-05
-0.000434665
0.000397747
-0.00037649
-2.1257e-05
0.000910688
0.000477164
-0.000395457
0.000399062
-3.60473e-06
0.000444055
4.85976e-05
0.000457428
-5.83666e-05
-0.000629321
0.0010191
0.000510759
0.000609938
-0.00058279
-2.7148e-05
0.000524175
0.000452244
0.000432356
1.98878e-05
0.000519325
4.85026e-06
0.000424709
7.64727e-06
0.00044262
-1.79113e-05
0.000463796
-7.58593e-06
0.000920316
0.000364539
-2.88502e-06
6.22779e-05
-3.58896e-05
-0.000179616
3.54875e-05
-6.36881e-06
-0.000100446
0.000806095
-0.000129059
-5.19271e-05
0.000142373
0.000506717
-6.25622e-07
0.00068622
9.09039e-05
0.000124472
-0.000173286
0.000309314
1.67406e-05
5.48447e-05
7.27081e-05
0.000631114
-0.000630945
-2.8897e-05
0.000385628
0.00031254
-9.86812e-05
-4.30048e-06
1.17754e-05
-9.13914e-05
-6.71267e-05
-0.000241938
0.000468545
0.000873228
-0.000354017
0.00014836
-3.28977e-05
-2.92783e-05
-5.73541e-05
-0.000122004
0.000860123
-0.00112393
9.64542e-05
0.000244977
-0.000129612
0.000885328
2.52002e-05
0.000236945
-0.00114747
-1.46926e-05
-6.78893e-05
-3.68827e-05
-1.25636e-05
3.07936e-06
9.21551e-06
0.000295412
-0.000538254
-1.62618e-05
-0.000123325
7.29359e-05
-2.31532e-05
0.000170452
9.52299e-05
-0.000206659
0.00016016
-9.17404e-05
-9.61714e-05
4.81698e-05
6.9789e-05
-0.0004479
-0.000107963
0.000408102
-0.00037021
0.000399564
-0.00034139
-0.000113958
-0.000187103
1.3302e-05
1.98925e-05
0.000143808
-3.90594e-05
1.26079e-05
-0.000447486
0.000449971
7.39481e-05
-0.000120709
-2.47216e-05
-7.90329e-06
3.60281e-06
0.000270312
-0.00066703
-5.2413e-06
-0.000536301
0.000107558
0.000290192
-0.000410917
-4.42561e-05
-2.43196e-05
2.69145e-05
0.000170727
-0.000244682
-7.41415e-05
-0.000564833
3.90764e-05
-0.000162785
0.000676597
2.63934e-05
5.29436e-05
-0.000174102
0.000660841
-0.000290798
0.000176713
2.50237e-05
4.16344e-05
-1.74087e-05
0.000130869
-0.000147201
-0.000246127
8.05864e-06
-0.000114791
0.000137485
-9.44018e-06
-3.66814e-06
-0.000300166
9.33622e-05
-9.3748e-05
9.34078e-05
-0.000617884
-9.66693e-05
0.000196062
4.90299e-05
9.93139e-05
-0.000231477
-0.000207163
0.000729012
2.61475e-05
3.08553e-05
0.000164354
-2.35848e-05
-4.22829e-05
-0.000185179
0.000458017
-0.000395301
-0.000141516
0.000452449
-0.000154971
5.17993e-05
0.000122666
-8.10114e-05
-0.000166106
0.000463908
-0.000494581
0.00019869
-0.00124977