/*--------------------------------*- C++ -*----------------------------------*\
| =========                 |                                                 |
| \\      /  F ield         | OpenFOAM: The Open Source CFD Toolbox           |
|  \\    /   O peration     | Version:  v1912                                 |
|   \\  /    A nd           | Website:  www.openfoam.com                      |
|    \\/     M anipulation  |                                                 |
\*---------------------------------------------------------------------------*/
FoamFile
{
    version     2.0;
    format      ascii;
    class       volScalarField;
    location    "0.19";
    object      epsilon;
}
// * * * * * * * * * * * * * * * * * * * * * * * * * * * * * * * * * * * * * //

dimensions      [0 2 -3 0 0 0 0];


internalField   nonuniform List<scalar> 
5794
(
6.72945
1.47729
4.87683
1.9644
4.57316
1.45773
49.4714
17.3895
120.727
10.3783
59.544
0.951888
0.41371
0.865632
3.8473
0.861525
159.827
1.04716
3.79724
1.96888
70.6334
2.37524
8.16029
1.87751
0.985552
148.983
102.214
3.23102
10.4063
5.8084
0.329816
7.58692
1.97477
1.42199
0.752719
7.1934
4.4528
1.88706
1.17903
17.873
2.76191
7.57192
9.66252
5.54085
4.05794
2.63379
8.06764
0.474948
5.29674
49.8187
0.725587
51.3629
13.4563
3.27821
0.129217
1.45038
11.8924
3.03059
5.92094
319.741
58.5687
1.1805
0.292042
11.5557
5.38465
0.512576
10.8729
13.0817
1.51976
2.15564
43.7204
11.8734
65.536
14.6809
1.35383
4.26049
2.52883
96.2887
5.18187
0.324769
3.04728
1.84604
3.67771
4.09708
1.46146
4.22155
6.54282
25.1192
2.11203
5.05381
12.7007
3.40424
22.2457
25.8157
2.70003
24.0046
11.423
13.9262
3.25844
65.0081
55.0373
3.06339
7.5741
1.42676
2.54745
8.40929
1.44596
1.63414
19.7755
5.1327
0.400931
4.18739
61.7987
0.288088
2.24083
32.036
2.89808
4.74164
52.8981
22.4796
5.61412
4.98653
0.632575
4.25757
9.57768
71.0052
2.25056
1.42087
39.2323
9.78828
1.26699
0.956023
6.32457
81.7722
6.60192
4.56511
123.659
1.07821
0.357692
1.43405
12.3877
4.35646
9.52789
3.76207
0.784524
149.4
0.642063
48.8421
2.3174
4.4457
12.8239
2.72119
8.34522
1.0857
134.886
6.34191
1.58751
0.603618
69.1776
1.7367
6.05594
0.669891
1.37717
2.26068
9.4716
12.6068
3.67446
1.33798
0.596568
6.38797
4.82892
4.50363
1.53476
1.5918
1.86612
11.6329
4.60546
0.809607
1.67631
103.327
0.559055
16.0505
0.305034
0.445175
0.648656
82.8412
4.48409
0.905501
3.45166
2.65027
79.3577
9.26999
0.553349
0.314996
0.603859
1.66316
4.20733
0.732901
3.04962
7.03487
29.1149
60.177
0.309128
8.2424
7.79549
5.27783
1.06274
1.66637
3.02408
90.2943
5.04602
10.6601
8.02736
1.5086
1.39758
0.911774
9.24444
4.8382
34.3403
63.1823
10.1944
0.506756
42.1811
5.9985
147.277
20.2466
3.58037
10.3626
2.73661
3.6361
2.26757
1.29735
1.29001
35.5806
1.4879
8.3421
5.97035
36.9636
0.489119
6.32605
1.75477
3.85441
58.7387
2.9926
1.46155
0.505256
4.52719
1.64614
19.3073
7.18444
5.86423
0.481212
152.086
0.470231
5.06138
6.46094
7.23129
18.0371
1.96671
9.49143
78.4726
8.72396
2.22266
0.222909
22.8729
0.53456
2.8585
73.8249
6.653
28.7987
7.7452
0.282429
3.17297
43.3355
17.0403
3.40883
3.43187
15.0394
1.33834
0.418755
0.465583
17.4941
2.81627
6.60801
5.13612
13.3211
10.3491
4.79303
39.5234
5.82195
6.63035
1.03795
1.21754
3.87938
4.93585
108.575
1.75564
4.89345
2.52876
0.227752
2.49607
58.1792
2.32855
71.1382
3.6962
74.5688
1.14501
1.75194
49.0232
6.35638
0.35894
26.7165
100.296
0.261659
9.8054
34.966
1.80412
2.44829
9.48541
1.31185
41.0533
33.4253
3.80259
2.67417
0.700126
0.999717
13.573
1.17292
0.452991
49.7998
86.1745
8.90034
0.496421
0.8427
6.87884
5.84483
4.10447
0.982038
2.58263
0.893604
2.26245
0.878365
107.32
9.71172
4.10916
0.352833
0.486106
22.3317
10.5675
2.50704
0.70758
105.48
0.466185
12.3695
0.303961
57.9438
3.10609
49.1878
35.8328
8.19015
1.50473
1.39623
97.4233
43.2406
14.224
1.85048
11.1112
1.16347
11.179
0.807738
1.61947
0.279775
1.61627
2.19582
5.52359
8.61286
2.67688
12.4528
5.39545
0.408003
9.02648
1.73207
12.467
6.27066
0.715967
1.44916
60.8953
22.3981
11.1694
4.8699
1.73978
1.70371
2.37154
0.732129
1.14089
1.79897
1.45894
3.59999
7.30765
9.46879
1.62375
0.856695
26.509
0.39697
2.55426
49.37
12.9835
1.29981
2.051
23.3202
7.33194
3.66073
30.2863
6.61623
21.4886
8.42501
0.311057
2.20856
7.04891
11.4849
3.38435
11.9898
6.58381
1.51389
1.77735
0.879492
1.87824
0.325472
1.64179
3.42016
76.4147
5.74978
3.16693
89.1396
3.27582
3.34802
1.63628
3.90922
3.53151
0.729747
1.45451
8.10298
0.60522
0.829639
17.4823
28.0332
2.41161
0.229711
3.93725
93.9366
4.47757
1.56749
104.767
2.54002
11.5911
0.220115
14.8529
20.6363
3.59751
39.2494
2.11445
1.43725
20.5904
0.443542
72.6461
10.8812
16.3552
8.59605
26.2123
4.95383
0.336733
4.59244
56.6601
1.88234
8.66135
86.1329
21.1916
3.02821
11.8012
1.48139
32.4378
2.19625
3.07304
1.95233
2.51518
46.1563
10.5586
14.5158
75.0952
2.5075
1.52171
1.9958
2.68065
1.71526
20.7082
1.01797
4.50172
1.50248
0.25339
43.7686
4.29999
12.7062
8.61409
0.703017
2.23042
1.59854
2.00162
30.4177
38.9414
0.388304
23.4919
0.941794
9.32005
0.212554
0.234567
2.32248
36.8588
0.210881
5.64781
23.5768
1.48249
1.2601
5.7175
5.15692
14.7006
1.92037
6.70988
48.002
1.77113
1.86655
23.9164
0.375278
15.4815
1.44678
1.52626
4.97263
6.59627
159.671
11.2641
63.8303
3.00777
106.597
1.79239
1.1141
7.85386
0.572119
5.60452
3.9765
0.260986
1.53552
1.95747
0.822459
4.41167
4.22821
1.93607
8.2528
21.1814
1.74396
1.96676
4.98278
163.234
3.95435
66.2378
3.06004
1.08516
15.2577
0.774807
12.5079
1.87521
0.275501
82.1446
29.4511
41.4338
10.4451
59.4238
9.2765
6.96448
7.0283
7.54011
1.79382
24.5388
4.81629
9.69376
13.2803
14.8
53.2018
0.372103
8.37909
4.68269
21.7235
0.34082
1.3684
0.897348
25.0463
4.36238
55.8023
0.263618
9.32562
0.299395
5.2107
8.82654
94.3948
3.06035
23.781
0.217995
8.49907
211.044
4.53951
0.17014
5.70228
8.60501
9.56287
2.29055
10.5143
0.3685
0.63417
39.2475
11.3708
7.91641
2.00004
1.64612
63.0598
78.9362
1.56981
1.36124
1.99614
2.49042
7.36253
4.56657
0.326653
5.54386
1.30237
0.650464
1.40628
1.26136
2.75834
102.736
26.3231
2.33618
2.45355
5.49537
9.02865
26.0936
5.47281
126.598
31.5513
5.124
52.0663
0.880222
0.60969
1.70723
6.24383
1.58935
2.32775
0.546924
77.0956
31.5654
1.39039
45.9578
3.77288
0.531828
3.71426
2.27222
51.7068
1.55329
4.48322
39.4763
15.5047
10.706
9.32392
38.0231
3.62412
22.0909
28.3056
1.69683
3.05172
26.1519
7.35199
2.60159
8.30554
1.24535
2.22613
1.63353
0.288803
2.59801
139.11
0.738211
1.30655
1.60442
0.215039
4.45281
43.7595
99.7829
3.17603
3.46265
44.463
2.17547
2.2824
1.9306
9.79904
3.45825
0.589983
0.402411
18.5371
5.10079
220.398
6.75922
2.30922
1.55649
7.18004
21.0862
42.9618
3.91928
0.673827
42.3402
16.1737
8.71457
50.9365
63.3213
13.7905
3.09152
102.697
158.559
1.01886
4.91989
3.63696
14.3052
28.1103
6.34224
38.2763
3.37582
58.7586
31.8174
45.6012
3.68175
3.85596
91.5157
15.5658
3.30596
18.9178
12.2776
2.17905
2.08081
5.81008
3.95239
9.6407
10.9457
59.8587
15.6623
8.97098
1.62306
5.11875
1.23446
0.215089
2.78645
26.7882
5.18053
27.1584
2.8644
8.23399
15.3652
10.3669
19.2619
4.1187
38.0738
17.5666
10.4993
10.868
4.64673
7.90709
4.3332
19.8756
6.59027
1.46505
2.0364
0.775543
1.81087
6.92764
2.66619
1.32288
8.68353
38.9831
17.3893
1.83597
1.50245
21.6348
8.15335
2.05315
24.3408
5.12797
0.504116
12.047
0.7998
25.4225
3.87883
9.50067
1.53184
151.663
2.68522
94.0677
9.9981
1.92585
14.2451
0.337065
1.57366
3.32514
9.24762
2.80081
81.9942
48.6588
3.43041
13.2738
5.22971
32.7284
45.5483
0.690612
1.23239
6.55447
5.6318
2.15583
1.44569
21.6148
48.0492
19.4535
0.287572
17.3737
2.68748
1.99211
2.75534
5.06207
9.77837
18.4125
9.30308
1.18951
4.24875
2.11745
3.39762
73.001
8.1391
2.36905
2.91341
1.67217
22.2045
1.5425
26.6712
0.234511
10.3501
5.88073
10.7376
12.7017
3.27693
23.9367
6.7246
35.0877
72.2778
59.6556
23.5766
33.2002
0.229055
0.744701
5.28132
3.35336
4.44476
1.57102
44.5395
4.75831
125.923
15.9187
0.91751
0.923868
0.557614
14.103
60.5072
1.26459
351.659
2.3641
1.6614
80.0514
16.1701
6.52068
1.00903
2.10339
7.19656
7.26268
0.602342
1.52748
51.9766
75.5139
5.0809
10.0661
54.92
19.183
3.65095
33.6422
64.3934
66.4339
3.73679
2.79363
1.33507
6.30153
0.283388
0.673673
1.52663
1.33113
42.064
1.23322
7.34801
0.355953
20.1788
14.1723
5.58352
8.3976
8.93872
21.3591
23.2724
2.39117
35.5005
6.28406
0.439519
23.212
14.4586
44.1669
7.91593
24.6362
10.7683
5.99285
1.93463
36.8188
21.4841
3.84215
2.84884
3.98454
3.00095
2.87602
77.9515
2.03576
6.7962
11.429
3.5008
10.9219
4.5751
11.9367
2.08163
1.35426
1.97579
0.256
5.14102
13.1914
164.429
6.93725
4.90267
77.5996
1.49485
2.62998
8.91955
20.979
10.0411
5.88701
23.9994
61.8609
3.23085
7.04082
0.827715
0.82679
0.371249
0.738125
0.830121
6.31172
0.239447
0.303359
1.73748
0.905699
7.94928
0.988607
5.34213
1.55094
0.316331
74.7551
9.71755
1.459
2.18201
2.12643
0.537385
33.325
4.82949
31.2345
0.743141
32.4935
43.4865
0.824535
9.98838
16.7137
0.246677
9.22721
74.1374
21.4147
8.03793
158.771
0.218689
11.047
30.4439
1.93571
25.762
32.7398
3.78657
26.0257
2.002
4.49504
0.398447
0.546623
18.4103
16.0004
88.2231
40.0978
11.7307
0.454792
3.00341
29.2297
12.0068
10.9878
49.277
1.37728
2.21632
1.42689
37.2461
10.9941
3.17328
4.60973
20.653
4.42269
4.81549
10.0348
0.407588
1.30493
6.44339
3.40664
2.96245
15.8024
1.48599
8.19345
25.1201
0.223453
2.25961
0.759507
5.06988
3.44757
0.225777
1.91034
0.830745
10.3564
3.11123
1.55299
7.85072
9.84392
0.491018
5.22075
5.02802
0.218249
123.244
22.1802
1.69707
1.31683
18.5407
0.298558
0.445863
10.357
0.997801
0.297213
1.54316
0.899508
2.66838
53.2238
26.4533
8.65157
23.6944
4.09721
0.334174
1.06992
9.29885
6.51406
3.27409
6.64945
0.396821
24.9891
0.354179
3.90997
1.85022
67.6775
2.05054
9.22925
81.9663
0.569057
38.494
23.4483
0.313072
4.43989
2.72471
32.246
35.8182
0.438533
40.6287
0.535606
0.524424
16.7218
1.47352
1.944
3.24894
0.91059
18.2621
5.70964
141.332
1.25428
1.37129
1.22191
4.50541
0.87731
17.8801
0.82515
29.6737
7.99614
20.7613
10.2774
2.21444
0.643888
2.59398
2.37469
4.61312
2.12849
7.31963
9.73652
65.2903
66.6449
22.5368
8.83087
8.56493
8.52905
9.31082
0.878628
2.31001
0.21983
683.939
43.1775
0.216953
1.03071
65.1868
58.8629
8.92908
1.46243
8.17886
1.44541
61.2501
0.44633
8.07395
25.9134
2.39514
8.34415
28.2671
2.34266
0.244837
5.24499
14.4161
7.93803
32.8351
1.47353
49.8017
2.34931
9.60946
16.6151
0.760396
4.36189
22.3726
9.24644
17.7417
11.9575
4.45453
1.16646
13.7748
1.54211
10.0742
5.78056
1.29871
3.64182
31.502
1.4088
27.3873
24.5412
60.5451
8.24124
4.56361
7.53565
7.04437
0.627868
21.2175
11.1007
26.1432
0.219492
1.32562
0.623873
156.665
0.215564
0.491901
5.10135
1.27501
1.45002
46.5772
2.57725
6.42094
1.64277
4.24498
8.41158
43.6406
17.1872
1.80487
0.941313
1.09189
1.333
69.5968
11.338
5.04575
8.60782
0.577411
1.11131
0.264957
17.1932
3.44306
0.339008
8.66352
36.904
1.83033
0.479004
3.10814
5.28222
33.9867
44.0271
30.0314
7.06945
0.478822
2.09598
8.83815
1.25752
65.8065
1.13113
0.344301
58.4686
9.98142
0.442146
0.219255
13.0556
82.4556
0.639163
0.330698
11.1338
1.88154
2.06289
4.66293
5.17709
3.18553
0.224364
8.55659
5.8406
134.038
9.15647
4.58697
40.6369
4.4518
4.26619
1.76832
0.956195
44.5796
7.34751
6.75838
13.1201
5.84349
43.9061
19.4233
5.66875
11.2284
1.17271
6.77048
0.257379
17.6397
4.7492
6.13546
4.92924
2.68655
4.45992
10.3468
2.36935
0.295052
0.924637
7.38427
9.92907
0.394668
16.7896
77.4767
9.3564
62.272
62.5924
1.9185
0.819914
38.6701
1.43476
53.0716
22.0659
8.87473
1.46479
0.62236
1.65865
0.735397
7.68392
0.628045
4.32625
0.436238
1.43024
2.19378
33.048
4.59551
33.8904
17.7283
16.9284
8.82623
0.477736
4.00289
6.17598
9.4505
5.24334
10.6621
0.448448
13.7486
14.7786
5.94692
35.2824
8.2987
40.5347
14.3755
3.19429
0.2396
6.02666
12.2982
1.98799
8.12715
0.890898
0.242836
4.22163
26.0044
0.350587
12.1115
10.1381
0.63513
1.22122
2.99191
3.19124
0.640343
7.60148
9.45905
55.8551
11.5104
0.234452
23.4052
13.3384
1.20066
18.4462
1.07025
69.2275
0.699359
1.94549
1.27541
4.59395
276.444
11.375
4.87537
5.95302
21.1221
123.458
28.6537
1.62738
0.401749
0.706181
0.476948
0.284161
0.921115
1.95439
0.341349
7.53395
0.315631
0.444807
25.6945
9.11456
0.337951
1.17545
0.268635
1.18775
1.70564
1.24738
6.95291
22.672
0.986036
1.85002
0.355994
0.500602
8.46194
20.9642
21.0685
0.246779
0.3678
8.19524
26.279
0.625243
0.448159
0.724535
0.377847
0.381952
1.0839
0.523432
0.245605
4.78344
0.368107
25.2162
6.88583
1.1875
0.773245
8.4714
0.467393
14.5515
40.5536
78.3266
3.24543
1.5428
0.221465
15.9606
1.78955
44.2923
3.82989
137.305
7.17118
92.2339
40.3417
0.43192
0.400601
0.237406
9.809
2.19397
4.43177
0.36669
4.50017
4.3623
7.3178
24.0535
2.50124
14.8437
32.9521
31.717
189.501
1.29977
20.1575
21.0381
12.7865
2.94998
21.5881
109.691
1.00272
48.6518
3.69533
16.2732
6.04627
1.55936
11.4896
13.9053
533.552
0.948442
18.5358
1.32228
0.812927
3.0198
3.16858
126.859
1.07366
0.404628
0.317844
1.88709
0.854941
0.377382
2.5707
0.269468
0.425343
1.08654
0.231471
6.50371
26.1992
0.324838
6.72419
10.2936
8.39232
24.5186
1.61124
1.22887
0.563961
0.428314
2.36786
0.75786
56.6931
111.272
0.369432
20.6795
8.68424
13.9161
1.62954
0.214115
64.4077
2.49976
2.39094
69.7359
2.71942
10.5179
0.437178
2.52813
41.364
2.40253
15.5857
84.3241
1.9861
0.217004
1.43393
33.4737
1.39055
1.44924
13.7436
126.776
1.9188
3.30449
0.336828
1.37981
0.996724
0.794014
4.04952
0.810865
84.9931
0.284761
14.1565
1.65382
0.245609
0.260687
3.51879
0.411504
0.522013
1.74851
0.716428
72.8582
10.7369
1.04137
16.9854
6.13413
5.17673
12.1608
0.669269
9.09151
9.9768
3.56191
66.015
6.26984
0.618824
7.65486
14.9362
1.31669
10.2478
0.763821
0.256197
13.2756
20.9543
0.256868
0.835712
1.94359
0.298628
23.4019
27.7428
65.4169
13.5657
1.80111
57.8259
0.23458
1.32688
6.1734
1.69593
1.3568
6.8078
0.708443
24.4816
0.223409
4.79702
3.45017
0.987848
8.0533
1.49717
12.6009
2.45838
1.50561
0.996418
0.495708
1.35286
27.545
0.941882
1.43274
45.417
5.24303
41.2897
4.04496
37.8165
40.627
37.0333
25.8544
3.41125
2.84024
43.6606
1.55908
51.4654
57.2169
219.861
12.1878
78.4016
40.7574
19.693
1.72612
1.46108
10.0933
51.6738
3.20433
1.54151
28.0895
219.632
36.3705
27.0801
42.4857
9.46846
2.68167
4.39536
0.933246
0.589476
7.35507
55.4168
1.14107
0.273656
4.66633
13.9066
14.6282
57.3399
67.1762
12.141
77.393
14.7023
0.844367
10.6481
8.73719
87.4171
65.5335
10.8143
75.1385
6.02538
7.06859
4.77187
4.84937
3.18249
1.78003
28.2873
3.91176
1.57378
1.46923
4.60176
0.416901
3.42253
91.5027
32.2267
8.42747
1.4
1.32882
26.6144
36.8158
25.4235
35.3097
1.32123
5.70684
1.17873
4.36378
4.7352
16.1356
209.287
5.6366
8.156
1.32085
15.8744
0.47479
25.3078
0.859709
32.5324
1.4669
0.393193
19.0165
8.30996
0.654786
2.80726
0.58811
2.30904
92.0491
4.7342
4.45207
8.07184
0.721141
66.1518
47.7938
2.53063
112.677
21.4697
6.51858
42.2207
1.74074
8.15192
60.1735
25.0538
122.229
3.40956
0.776336
161.337
56.1246
103.169
9.34277
5.12749
6.59069
12.8787
0.645109
84.5514
3.35582
0.836208
3.22689
5.66642
9.50441
1.48627
0.632975
64.4186
28.4976
21.1277
80.8248
59.018
8.35956
50.6317
5.4717
2.02153
19.1189
1.38739
166.427
0.558309
79.3973
16.3264
1.37937
1.51162
52.9451
79.4836
7.64803
212.359
60.6851
6.43633
11.3159
0.766668
8.49396
0.275038
7.13743
22.7869
60.6987
28.4586
23.4851
20.0521
31.5239
20.1285
23.6914
18.2428
1.66721
0.867416
289.169
2.04507
5.62319
0.270137
39.4732
25.3187
5.31732
4.06964
10.945
18.5285
1.84298
11.241
7.22438
30.049
0.881024
8.91842
9.19173
1.36677
8.35694
0.868934
6.43049
3.97617
19.2813
20.2617
2.78097
3.22086
35.3848
12.8706
36.8179
5.03944
0.332823
0.285695
25.873
3.12409
16.4531
12.5077
0.694762
4.90779
2.72502
2.71473
44.5898
10.2022
4.56493
5.68275
126.729
19.1684
5.95262
30.8224
1.65334
5.28422
9.47844
2.12321
18.016
5.84206
138.437
1.37252
10.5253
2.85399
6.77564
9.98609
11.4236
4.41388
2.25384
4.93441
2.1251
11.8243
1.86658
1.64598
4.74173
6.9397
6.6114
3.1626
1.84661
18.1642
19.0843
5.42726
0.630907
8.55006
0.331663
6.2354
2.10386
0.798644
24.5279
0.386564
2.9406
16.4046
0.877067
11.035
2.83788
2.2785
31.0743
84.4218
28.3465
11.7733
2.68162
18.3869
0.985605
1.7528
8.31625
1.06844
0.436028
0.822709
38.3606
25.9759
1.19204
1.86613
5.26272
4.44697
7.23628
1.73465
0.4548
32.2372
27.1774
18.4622
1.21906
0.819444
8.24478
0.794319
0.697409
1.50314
27.6059
1.00411
23.4475
66.2869
28.4244
29.7173
190.608
44.1794
11.1881
1.07951
6.53327
55.1195
152.005
5.89493
2.41808
15.4806
0.467425
0.576733
3.02925
8.64996
1.06817
0.816506
0.740681
171.045
32.3704
25.3027
70.2557
0.520557
43.6005
25.6658
19.2578
6.09827
2.16395
1.65524
114.38
1.24102
4.34274
6.95425
1.47998
0.446706
1.67947
0.75901
40.4305
1.27448
2.88749
56.1561
29.4304
33.056
55.7303
5.46803
2.99163
59.7385
140.542
101.49
66.4195
1.20237
6.05995
150.28
20.2021
0.504782
1.38856
11.289
0.463177
0.889382
40.3694
0.920218
3.14088
21.2683
119.891
133.031
85.1277
25.762
44.7986
14.958
7.57466
0.315993
29.9909
20.7957
60.6353
16.467
4.89041
10.5584
20.7843
2.8719
1.26858
1.4304
2.13556
4.85114
7.26558
5.83362
9.43045
6.40346
1.89058
43.4571
2.49174
12.5082
5.48737
90.197
59.9632
16.4799
26.1805
31.8979
2.64267
7.34215
0.354482
0.891443
1.74541
4.30969
3.23124
3.11291
20.9737
13.4693
39.0933
0.889723
103.586
27.3475
47.3948
15.3005
0.248454
43.3714
22.348
0.712674
3.05427
50.383
61.1118
43.5572
25.0221
12.7749
36.2125
2.21025
1.44377
3.17609
1.89076
11.3705
2.52765
1.47396
2.53479
3.72081
48.3394
12.363
25.8986
1.63088
5.28476
27.5167
7.83483
13.0539
47.6438
6.77097
2.83154
59.4304
2.58153
1.8634
76.1132
41.0633
71.0766
75.5039
0.67154
3.57594
18.3794
8.68331
9.46775
53.2354
2.38384
11.7763
0.333338
0.86239
1.74113
2.15807
2.04076
65.1913
1.753
9.94144
2.23562
7.52047
5.99227
21.8265
8.72811
6.26153
8.30631
7.81323
8.26842
48.531
6.59136
32.2281
35.894
11.2948
0.642722
113.79
19.8126
22.689
9.93796
18.5627
96.086
26.5128
41.9608
2.55559
59.9333
8.02636
4.88128
0.502667
0.249521
57.8568
38.3455
19.3712
32.0046
0.555827
0.472187
36.1717
19.9823
4.3507
14.429
0.893195
6.56607
2.0727
1.67612
10.5157
16.8336
186.63
2.26549
2.61716
16.1638
13.2249
34.3184
3.26044
6.37328
35.9691
12.1947
76.177
20.5581
0.244659
10.8425
6.77559
0.595895
30.895
14.3691
34.2502
10.0784
9.31826
5.64323
6.14458
5.45651
20.6626
17.4334
10.9732
2.92706
1.6153
20.8127
11.1103
1.67172
2.1419
43.0883
11.2531
64.7937
63.7753
14.7884
34.3704
46.0734
87.5449
1.77008
3.48851
11.4678
2.24933
2.06083
0.483444
15.4893
6.64011
8.27204
18.7457
65.569
73.9363
5.3421
40.2237
6.17374
2.35748
2.42101
8.1603
5.92217
7.41974
0.419107
0.814294
4.10249
8.34828
59.9225
28.13
0.286386
21.5754
12.6784
258.442
47.725
1.5135
3.16095
2.79188
2.87423
32.8483
4.66757
9.45997
32.0865
26.2897
1.70584
80.6659
38.307
19.5253
132.026
5.02853
65.5577
3.10128
1.73063
17.2545
1.62462
16.5786
3.39512
15.1602
35.3975
34.0137
2.19176
13.7944
1.12565
8.37304
18.7478
51.1026
3.07104
37.257
42.9992
33.54
4.4792
29.8874
11.7046
58.8764
16.4492
25.1119
4.07267
0.269067
14.6815
7.0017
16.3963
26.0288
25.5651
434.779
1.30564
27.6491
46.2473
34.4366
4.47634
223.234
7.07495
0.600243
0.242716
6.89812
0.611327
1.41301
15.5246
4.36442
18.6811
33.2634
33.9615
61.0511
6.82709
25.1447
22.4076
11.1605
1.90617
644.562
4.88972
3.23828
1.7319
17.5488
2.99617
22.0037
71.7473
17.6187
1.7799
65.6242
2.12201
2.74526
11.3571
0.243187
6.563
1.04969
2.64719
1.8794
77.0624
6.07008
8.79494
16.109
18.7742
38.8608
139.466
0.401426
36.0211
4.52131
1.77548
3.82542
0.900675
6.6664
140.47
1.94068
9.62541
5.12235
7.00182
40.1658
16.307
25.9827
1.66585
19.2637
2.12466
0.231697
17.3739
66.2322
2.17836
1.9626
5.74299
3.96126
23.0595
1.26722
23.6773
8.76536
5.62707
148.398
15.2528
2.01165
0.652713
3.44243
13.5746
12.1369
6.47703
21.6615
28.7437
2.18894
23.1257
10.1729
10.7208
0.656584
8.31427
0.939396
0.759632
3.76939
12.6457
14.9741
16.521
8.96347
22.2876
0.23599
4.25219
17.8492
16.8994
44.2895
3.54564
2.04894
3.95394
1.85903
13.7233
11.2334
9.87564
25.2343
0.423097
0.711651
10.5073
11.1837
5.63408
1.90526
111.266
10.5955
24.4193
24.0013
23.8719
5.03642
3.41094
5.46683
3.39425
1.59683
1.95943
2.86698
34.7658
3.16063
11.664
8.5341
7.32893
18.7203
3.33213
3.03291
32.7474
16.1808
6.60401
11.7209
0.6842
5.95487
2.3157
11.9851
0.414389
0.769154
1.45464
1.14731
18.4787
87.0788
1.47552
10.7718
17.7349
6.73906
7.43139
4.89298
4.51948
7.91432
0.861248
5.29048
65.2905
2.74894
5.53771
7.71291
0.563242
0.715551
69.8544
19.5825
8.80201
121.789
17.5992
39.9202
52.8313
3.96708
1.76056
0.522413
12.4684
0.266488
1.40195
78.2904
37.4731
3.19263
0.954442
1.03896
27.1353
0.659421
0.243415
0.876535
2.87298
98.9809
8.28869
19.7061
5.47249
7.56191
26.719
13.0208
1.61201
10.1569
101.33
1.76039
3.27951
1.17564
5.05203
6.04535
33.5698
33.812
8.22982
9.09581
2.35308
5.04423
0.666001
18.3481
6.07756
14.3091
39.1681
0.233809
7.48597
1.99
52.6041
1.45191
3.49409
4.15039
1.2605
70.2828
44.6806
11.2704
14.2687
0.584124
0.538834
9.67838
29.2061
128.566
0.257666
30.4777
4.96642
3.84223
1.52538
6.26932
9.71524
152.223
14.4136
0.546405
0.576711
1.27868
41.3457
1.46235
2.63375
0.30639
3.40424
0.893202
0.286402
7.26092
3.68333
5.91396
36.5102
23.9904
1.04465
1.96195
5.95799
5.50925
15.308
0.73256
1.94297
9.96824
0.903928
2.33055
1.68508
7.19257
1.57381
39.5117
1.65673
0.795947
6.34846
5.16239
22.4656
5.07321
8.33472
11.7336
0.542108
0.632912
4.77412
0.319659
26.7843
2.652
1.80827
16.5953
0.312178
3.49311
0.255624
30.8517
2.7898
8.7864
25.5718
2.15192
8.95739
0.635699
13.8474
20.1246
9.21011
10.0308
8.91296
8.00302
11.0912
0.355663
6.81174
0.788136
6.18881
2.94468
35.3282
32.8845
51.9857
1.70726
11.509
0.526856
1.2921
17.3279
3.24501
7.69787
0.926072
1.90841
19.0214
2.22999
21.4105
3.92113
5.63683
3.19823
0.790124
2.76531
1.69122
16.6713
16.3541
0.387789
13.2596
0.662199
2.01738
26.0911
1.13644
5.44847
7.37191
122.903
3.61402
2.36571
6.5526
8.91241
36.9198
3.02896
2.74349
3.317
4.30119
7.81079
4.59534
7.23193
11.8054
1.31395
19.0855
4.49087
0.254368
6.66518
3.83415
1.21117
8.09741
0.409662
1.13764
0.973972
0.229891
7.41683
0.553168
12.6496
12.5886
8.69226
3.16725
1.43817
1.95559
4.77232
2.02775
13.6815
6.21603
1.84069
5.63627
7.05325
71.2016
54.6214
3.11441
124.225
2.80671
2.31182
5.18535
62.0079
46.5049
0.616362
0.474936
0.857947
0.671182
0.446119
7.6503
6.59471
103.657
0.32194
0.5661
13.7331
9.03437
11.3494
1.6091
0.647319
0.232195
110.542
11.4314
4.37033
1.45637
1.90483
14.0542
3.88383
26.8433
77.3643
0.232764
19.0658
12.5052
3.48304
25.9118
1.33396
0.556992
3.9253
19.3092
1.76068
1.48765
5.57217
0.425722
24.2255
6.39976
6.14231
2.74588
0.399007
12.1535
4.08463
8.69904
0.521645
1.95913
0.228224
16.9564
27.3114
2.27964
2.43178
2.79824
0.775356
63.9794
9.64809
1.53501
42.6534
64.2039
99.1996
43.4658
1.73178
18.6001
5.46916
15.0192
2.54647
0.525923
26.6065
1.75995
5.70875
13.635
1.2907
11.6937
3.71677
3.82738
1.33404
6.29342
52.5488
1.48332
1.39121
1.78344
7.02053
3.7625
22.0292
2.14317
1.30008
11.6348
0.602691
0.476421
0.430366
3.00529
0.663938
1.19362
2.91954
4.50474
106.476
29.2031
43.2054
11.1773
8.10819
5.04106
3.21354
18.3716
16.52
17.8611
6.65658
34.8439
8.46609
0.614935
0.584365
1.42755
4.15524
12.33
2.43519
1.69915
1.86319
3.42957
91.72
35.1222
18.5893
20.624
11.9811
27.6619
34.3807
3.03789
5.641
13.925
6.44326
2.12969
166.59
8.89697
0.45469
1.48584
0.766776
39.5001
14.8981
3.23234
35.9096
6.44692
41.0347
28.1781
4.09003
1.30561
0.338085
13.4271
0.819845
1.63099
3.98469
8.04319
19.1706
1.58742
8.93313
1.75971
1.87747
25.1606
30.6018
24.117
0.223581
0.834497
1.05671
3.67485
17.6374
19.7357
6.72119
3.32208
2.05939
25.0825
12.3441
5.37176
3.52599
14.117
0.667462
6.76626
1.69984
0.665145
23.8967
32.1433
0.278683
17.3666
7.63401
1.62501
5.32044
9.61752
5.36002
5.56893
20.6136
2.00638
13.6533
1.33112
0.397518
3.1952
0.356417
26.2863
29.6918
3.17357
7.88373
20.211
1.49022
3.26915
22.6414
0.451917
30.6104
18.4574
0.313233
1.06135
27.6425
2.42751
8.43806
5.5141
17.0408
1.68922
15.3944
0.536449
0.352875
1.5207
2.42652
29.0105
1.81449
28.793
1.76929
1.76238
3.37743
15.7276
2.23773
0.304824
0.9282
4.23079
9.34689
81.066
8.71896
8.72766
0.579298
3.18555
73.4774
22.8165
3.04008
3.31762
14.4929
72.3164
3.4482
34.3679
6.83018
8.78172
4.51907
2.35316
7.68545
0.572159
10.8793
4.58449
3.63535
2.6948
0.428917
1.22044
1.39293
1.81059
14.7853
14.1976
7.14155
3.91379
4.14944
4.53333
3.27542
2.7465
13.5148
26.4208
0.873169
25.3879
0.639571
23.6625
91.2169
1.5588
27.7724
1.77025
6.93365
3.33652
0.998272
10.2535
40.3888
3.4906
74.1876
19.1378
22.22
33.9016
1.08601
35.7238
17.9887
5.54551
73.9395
19.8615
3.61968
31.5356
6.78843
4.18354
41.0158
5.10701
6.11397
0.881337
1.25918
2.69801
3.01373
4.36898
6.54486
29.279
31.9046
2.1051
0.574842
11.3806
10.6954
90.7574
7.12925
0.507202
13.055
0.763166
29.0184
19.0546
1.06841
110.414
1.99703
2.60858
7.3909
46.5701
0.296828
50.5825
33.9179
1.56131
47.3855
48.6005
27.2945
1.48216
0.30343
0.895416
2.11251
0.758004
7.00667
10.2341
64.7611
2.84085
11.333
46.4432
21.4442
4.03024
39.1733
76.1649
3.83646
1.75299
3.66465
3.18485
165.328
64.5524
3.10652
8.69689
3.21947
15.4841
49.576
42.8766
6.23049
0.260362
0.816104
3.94906
30.3412
49.1197
1.85733
3.46725
1.55663
53.072
5.81227
50.9884
18.6647
8.24024
0.676651
63.4275
0.412028
10.5089
0.656809
67.9622
2.33788
67.5515
0.24429
6.52078
40.864
9.69332
2.33044
0.476952
1.82368
38.059
38.5606
23.2533
8.9866
1.74624
1.63606
65.7651
5.30525
3.4205
89.035
220.307
17.1014
1.02635
10.0868
5.84315
0.838865
0.648333
8.10403
1.53337
1.61059
5.3676
2.8772
62.8388
2.46695
32.7237
27.3136
0.449246
12.4344
0.991672
16.1262
0.444571
33.6403
2.13297
4.16909
5.60245
4.05868
5.79379
103.957
9.04861
2.77634
4.97462
29.013
0.893128
0.2298
113.131
8.639
2.27062
2.91866
1.35193
1.93493
4.08071
13.22
1.25372
4.59104
0.845896
74.2091
0.347298
8.37264
0.736521
4.10586
0.521439
2.84596
131.398
14.4296
0.615449
56.1907
0.804882
9.69211
8.28362
1.47976
26.6602
13.9723
0.423122
37.2792
1.46194
8.97258
0.610864
0.78015
11.5925
4.30754
2.0426
85.7477
38.4802
42.1683
5.66819
1.63642
2.12153
13.8659
0.531552
9.64282
54.9179
6.13958
13.9625
115.46
10.3405
4.26572
1.34329
0.25058
0.500743
0.552083
12.4404
2.32597
23.6759
23.8115
1.14464
4.51673
5.98582
12.7568
1.80568
13.7366
5.88118
12.8508
1.37053
14.1653
0.454123
0.58423
0.378345
2.9235
0.858436
4.04636
2.57723
110.924
10.682
82.6617
10.2853
7.05797
61.151
0.708597
6.75354
4.93087
40.7757
5.86286
5.13422
1.52253
1.07467
5.48834
3.09211
16.4454
2.4742
4.4267
16.2135
1.6372
4.25003
0.573811
1.47812
8.55438
36.1037
6.85753
6.21177
11.3706
10.7545
1.30835
2.3113
15.6114
1.92621
3.53567
3.75374
3.65729
3.36777
3.6209
0.699169
0.467006
54.3286
0.836969
3.60145
1.89261
88.2633
31.2371
37.2339
0.507224
40.6222
0.585801
46.6233
35.128
27.8209
31.8626
1.7535
0.979056
0.953406
1.33697
2.47555
35.6983
0.223256
0.413489
0.241826
7.77183
1.96488
17.145
2.29871
1.61964
4.32585
3.47676
0.901404
15.7662
0.487255
0.80163
41.5279
30.7241
13.7992
0.62331
0.504325
24.9856
0.355405
0.326031
2.14287
0.600839
1.26095
4.29565
1.13249
65.7771
1.66167
1.34854
29.3041
1.27253
16.1599
31.9409
4.64665
14.0122
3.33248
37.6568
2.34969
0.956859
2.5847
166.548
2.19087
63.0653
7.04081
27.729
0.302533
0.239477
4.26266
33.0064
37.5957
4.37807
12.0631
8.12898
3.53554
6.90293
20.0905
1.15503
3.19942
29.8645
0.233079
8.49258
24.2952
5.0014
3.74857
34.6887
6.25345
67.6314
55.8178
11.3671
6.7778
2.12555
1.89299
1.90571
6.70784
14.775
1.19359
2.47895
61.9126
164.837
46.6778
38.7757
2.04634
13.501
11.8777
29.4176
2.30692
11.0462
4.36647
12.874
0.377641
16.4014
16.769
1.03225
1.08289
0.734954
10.8873
51.3352
50.3702
16.621
52.5777
11.2838
5.29758
12.024
0.334062
6.20177
8.94845
704.857
10.8393
4.41482
21.7101
6.18371
3.74603
0.307028
20.2848
1.20492
0.582453
0.310912
0.773054
1.56459
49.911
1.29961
46.3534
0.863042
4.96501
1.15286
4.91938
3.00535
3.63945
332.427
19.787
11.0447
0.243656
10.4091
71.5802
62.7954
0.635426
2.2163
1.2755
12.8185
5.66689
9.80949
6.16125
19.2065
0.787773
7.23269
0.716239
50.0544
33.3143
16.6368
3.58458
3.68989
94.159
14.0042
24.2351
7.8721
1.63792
5.23397
1.5067
1.73024
0.437765
5.29402
5.05603
41.6039
8.49322
1.61732
0.431243
0.994989
95.4183
0.753827
1.0775
14.9485
1.98249
20.2064
4.40056
0.568363
6.59413
0.560723
2.18794
11.3874
3.65773
51.4412
12.9008
4.0311
14.5549
3.01376
57.7976
4.76964
22.5484
6.25552
3.59249
0.374027
0.556449
3.20764
0.443393
1.26981
0.833062
8.71552
7.19343
5.51989
29.3388
7.77877
79.8245
7.34691
5.59481
1.21327
1.11166
36.7861
2.40758
0.494176
0.23032
1.43501
1.84028
4.16423
4.64229
77.4428
4.05337
1.11382
146.976
40.958
5.55274
144.292
10.7893
1.70776
3.71023
6.78324
45.504
1.56137
1.82176
13.7929
0.641335
9.1808
24.9029
75.7236
2.07233
2.33168
0.339685
0.64492
3.60515
23.3099
0.645044
0.54648
23.8796
7.48305
1.99905
10.338
6.442
1.5428
15.2339
11.9219
0.388502
179.1
0.53656
6.42073
83.1933
64.9625
1.40056
2.04534
18.5958
1.36367
20.9409
5.43453
4.2273
21.7012
75.0476
11.2064
3.00755
0.99213
4.24954
81.0114
13.4326
46.7243
18.4069
1.65773
1.67619
31.1273
10.7891
21.3764
26.2506
1.62817
6.56175
7.93389
0.447238
0.235089
1.72908
0.534466
4.4747
9.10074
19.0366
22.3098
15.7083
4.84809
109.385
24.9845
105.027
0.780768
0.352758
6.35918
0.710125
8.74785
33.5924
0.911876
11.6972
6.97478
26.4987
11.3148
21.258
23.3431
4.04361
137.666
0.261843
7.77748
7.83288
0.331234
64.3152
39.4363
2.7135
2.41262
56.262
6.49382
25.4797
1.35245
5.74011
0.469267
0.640888
1.06884
0.841693
2.56781
2.39483
0.699859
0.283003
62.0126
2.84496
0.245568
2.84653
0.344653
10.7179
2.06859
29.7564
13.4392
0.574133
5.58324
62.6326
24.7137
25.4543
25.7618
29.6368
4.00506
14.0534
0.847117
5.65141
2.93703
1.19613
7.82234
0.226586
18.2746
14.2034
37.4117
1.6425
0.860682
3.11094
68.8078
29.2596
610.763
13.7866
0.798013
1.11394
0.633465
3.74137
1.37983
1.64936
25.1205
0.898001
17.4723
1.25968
1.24472
13.8909
3.06707
5.5305
14.1205
1.1167
4.06806
14.8341
10.0442
1.55813
8.70087
66.5618
7.78287
0.64719
6.01938
185.422
48.1271
7.27767
5.07613
10.5534
0.358912
3.66308
0.318239
39.1359
1.59438
13.4523
0.87338
58.0347
1.86167
2.79884
0.942025
0.771108
44.7633
46.1038
1.31112
1.54451
16.8164
34.6942
0.604602
21.9364
29.6249
1.4463
0.40275
2.68728
80.1461
8.40911
7.03776
36.8917
2.14876
9.05299
9.2752
0.261821