/*--------------------------------*- C++ -*----------------------------------*\
| =========                 |                                                 |
| \\      /  F ield         | OpenFOAM: The Open Source CFD Toolbox           |
|  \\    /   O peration     | Version:  v1912                                 |
|   \\  /    A nd           | Website:  www.openfoam.com                      |
|    \\/     M anipulation  |                                                 |
\*---------------------------------------------------------------------------*/
FoamFile
{
    version     2.0;
    format      ascii;
    class       volScalarField;
    location    "0.91";
    object      k;
}
// * * * * * * * * * * * * * * * * * * * * * * * * * * * * * * * * * * * * * //

dimensions      [0 2 -2 0 0 0 0];


internalField   nonuniform List<scalar> 
1466
(
0.0496704
0.116132
0.159926
0.0298156
0.111324
0.438928
0.0673334
0.0791381
0.450543
0.0344137
0.213463
0.0718067
0.0101835
0.0353728
0.0529176
0.0274118
0.0934142
0.0253472
0.172012
0.0308363
0.101735
0.0791699
0.0363848
0.144481
0.0375211
0.363587
0.399698
0.0522162
0.0391459
0.053692
0.0923584
0.299526
0.0889505
0.0610818
0.0277275
0.0572324
0.032937
0.0483282
0.760634
0.0744826
0.0690102
0.0298704
0.361314
0.0815254
0.0624596
0.286302
0.0657029
0.0252486
0.0285338
0.104692
0.198621
0.0228929
0.088395
0.373132
0.0392121
0.0727352
0.0422189
0.308656
0.0276648
0.0713133
0.0260173
0.0464416
0.0959372
0.349453
0.119556
0.0421213
0.0753951
0.0959086
0.0316042
0.0640266
0.301386
0.0375227
0.0406241
0.0579111
0.025496
0.0597315
0.0523608
0.0376756
0.0637727
0.0758083
0.208058
0.060438
0.0636195
0.0286114
0.0414559
0.102935
0.0403549
0.136603
0.0481507
0.0700379
0.0454038
0.0449437
0.0763935
0.0262516
0.182175
0.0863982
0.122076
0.0345152
0.140531
0.0450604
0.0477062
0.0514921
0.11049
0.0728689
0.0638624
0.377464
0.0864668
0.0660983
0.136427
0.0420891
0.0244618
0.0350476
0.0424416
0.0504996
0.011695
0.791653
0.0264878
0.0291109
0.0877613
0.320593
0.080986
0.0287402
0.0212555
0.153759
0.0450893
0.072063
0.038957
0.103429
0.0765785
0.391106
0.0367358
0.0467117
0.0578715
0.0776068
0.225788
0.0756417
0.033068
0.0427018
0.0624364
0.0328017
0.0259442
0.0438086
0.0812764
0.0981799
0.06257
0.0329685
0.0558388
0.110946
0.0804119
0.040859
0.07466
0.0562914
0.0561485
0.121714
0.0553112
0.397916
0.0380499
0.161628
0.122026
0.091851
0.0555885
0.0456061
0.0975689
0.0848873
0.0460175
0.0754191
0.37722
0.0166878
0.0349246
0.404547
0.0874815
0.102947
0.0453397
0.0746535
0.376601
0.122152
0.0403078
0.0747497
0.0484517
0.0750294
0.0350901
0.07877
0.049439
0.0420797
0.151594
0.0309995
0.0784033
0.784902
0.0655611
0.0925724
0.0678508
0.0290146
0.0447957
0.106561
0.074196
0.0429491
0.0620313
0.0473456
0.0410106
0.0371839
0.0479574
0.150205
0.065963
0.0372736
0.059193
0.0332378
0.0802079
0.0958696
0.0493316
0.0718241
0.0624262
0.057303
0.15361
0.0652292
0.111597
0.0729974
0.0979861
0.0133985
0.029712
0.0473662
0.482722
0.043403
0.0292968
0.0698852
0.066723
0.0785442
0.0350103
0.0476586
0.0495671
0.392186
0.0539534
0.112791
0.0558992
0.0275327
0.0587069
0.0581574
0.0299308
0.0652187
0.0385512
0.0434259
0.419276
0.0495086
0.0460519
0.0378272
0.0361233
0.0302881
0.208508
0.0415913
0.0183934
0.0351048
0.0587064
0.233954
0.034283
0.112372
0.0528027
0.210049
0.0409339
0.362673
0.874722
0.0457167
0.0676659
0.0579391
0.192191
0.077007
0.544686
0.0594173
0.483742
0.0465494
0.13067
0.0438234
0.142436
0.0308433
0.047603
0.0413467
0.0530633
0.0290125
0.0967662
0.0509728
0.136466
0.0337278
0.0515329
0.0244554
0.0388135
0.0345581
0.101324
0.0345562
0.223443
0.0486154
0.468396
0.0498405
0.0862263
0.519204
0.260524
0.054773
0.0487355
0.190208
0.751443
0.80923
0.173779
0.0284116
0.0512709
0.0866232
0.0378319
0.232704
0.0585921
0.0732831
0.0381526
0.029123
0.0235369
1.12244
0.42856
0.149888
0.167539
0.0735659
0.0356822
0.106261
0.041634
0.320503
0.0644777
0.050015
0.0918797
0.0768198
0.0618642
0.0395318
0.0237522
0.0490332
0.093091
0.0578524
0.135203
0.111512
0.0320463
0.0344977
0.102766
0.0715396
0.0268242
0.0381973
0.0122807
0.251495
0.0280398
0.126489
0.0362513
0.0340085
0.0383641
0.0808134
0.0542709
0.1753
0.0327543
0.0254001
0.0444652
0.496924
0.0465006
0.0684027
0.0447546
0.0284845
0.0273614
0.129605
0.0431299
0.0581449
1.0923
0.220019
0.441603
0.0779829
0.0743171
0.0555522
0.0259496
0.0594281
0.0861855
0.119075
0.0312528
0.0348984
0.148683
0.0191348
0.0318443
0.0361048
0.0887876
0.0293348
0.0439592
0.398639
0.0495188
0.0236442
0.0388407
0.0642077
0.201402
0.165261
0.0537528
0.249949
0.0556285
0.144274
0.0422456
0.0531828
0.0687567
0.296664
0.0642436
0.645409
0.0310564
0.0436287
0.0709951
0.293036
0.0612539
0.0169781
0.0242648
0.273619
0.0683349
0.0605783
0.063485
0.0904381
0.108308
0.91495
0.0829833
0.0401057
0.120872
0.0613212
0.0285961
0.0350132
0.607294
0.0991947
0.137701
0.30593
0.0849512
0.0980349
0.29387
0.0321602
0.0947665
0.099037
0.101965
0.106653
0.0939916
0.0957248
0.100451
0.101577
0.0489059
0.107368
0.1472
0.341295
0.69001
0.420432
0.582884
0.0856179
0.47815
0.413416
0.174375
0.0676159
0.270181
0.432261
0.43376
0.558404
0.414331
0.419166
0.609071
0.336143
0.691909
0.561514
0.432136
0.255164
0.559258
0.525703
0.443921
0.529695
0.323896
0.357633
0.544721
0.182699
0.233075
0.317897
0.317191
0.298613
0.465659
0.0882772
0.0507155
0.192559
0.406657
0.479147
0.33708
0.518836
0.197233
0.0991136
0.257711
0.220074
0.12977
0.490352
0.0491794
0.0781464
0.267197
0.0815588
0.102795
0.0421572
0.0726536
0.228929
0.231661
0.0645832
0.0906766
0.0373015
0.0842336
0.254789
0.0407596
0.126116
0.541048
0.532843
0.244629
0.205631
0.0380843
0.0878973
0.0266863
0.0519434
0.281645
0.0774523
0.0650317
0.408415
0.340835
0.434916
0.400419
0.0909653
0.401693
0.374196
0.362713
0.406103
0.0365549
0.0888214
0.278486
0.300725
0.259529
0.620827
0.408742
0.587202
0.472269
0.0512975
0.366655
0.448087
0.0238414
0.273274
0.0913997
0.0751824
0.380327
0.353261
0.380823
0.499249
0.056524
0.451435
0.10455
0.0436451
0.47875
0.562377
0.437988
0.525622
0.400613
0.314073
0.0767478
0.669375
0.593385
0.0399549
0.089267
0.0550018
0.514655
0.093867
0.0785308
0.480233
0.0440383
0.0796534
0.17682
0.416852
0.0952691
0.0602673
0.0810122
0.697144
0.0641795
0.0714066
0.0910482
0.0604939
0.375052
0.693746
0.0500877
0.420011
0.362124
0.0611522
0.108744
0.337804
0.105972
0.31
0.384936
0.356892
0.0719293
0.0703559
0.134524
0.0746529
0.0601635
0.772446
0.20585
0.0829466
0.679802
0.299232
0.0169024
0.0383209
0.0647066
0.145306
0.0404567
0.0891946
0.0804954
0.0727874
0.632649
0.0805332
0.664486
0.0429657
0.0851118
0.110967
0.344338
0.144302
0.166451
0.128878
0.589859
0.768291
0.0745147
0.547292
0.333087
0.81646
0.0308923
0.33902
0.646063
0.0328546
0.459879
0.0386737
0.0726019
0.0888853
0.125867
0.0640298
0.0765972
0.313418
0.0280571
0.0650343
0.09258
0.527261
0.21626
0.733394
0.159728
0.0262053
0.0774865
0.0742993
0.0723083
0.560954
0.0448205
0.0839388
0.0905632
0.511011
0.0445253
0.419681
0.303812
0.0531622
0.144766
0.472765
0.667628
0.0852409
0.0676087
0.614086
0.0724385
0.530513
0.195696
0.18804
0.334925
0.076792
0.076936
0.157344
0.0319134
0.597841
0.0591375
0.113986
0.322817
0.513652
0.275128
0.0634168
0.59217
0.0674115
0.0676166
0.0541941
0.0255943
0.126971
0.0194468
0.0396319
0.260027
0.567791
0.0685296
0.0530314
0.0444567
0.0686876
0.0256903
0.123035
0.02799
0.237937
0.0832826
0.149224
0.065256
0.106229
0.05479
0.0585794
0.448586
0.106599
0.247859
0.045142
0.0445385
0.0723242
0.0709745
0.0967739
0.387161
0.103326
0.0613819
0.529718
0.0816117
0.0555246
0.115632
0.521404
0.374762
0.0455823
0.0760626
0.0314995
0.055126
0.0430253
0.0789124
0.0392831
0.059825
0.723384
0.0506824
0.406897
0.0984378
0.210242
0.085442
0.0821067
0.621827
0.0895292
0.109955
0.0508754
0.489339
0.0597519
0.331123
0.0423691
0.062296
0.00897207
0.00879638
0.487663
0.0102574
0.0101853
0.299722
0.63026
0.0392131
0.0121631
0.0124203
0.0226045
0.0790307
0.213313
0.0406566
0.0809826
0.394302
0.0494432
0.114019
0.027925
0.0282077
0.0685738
0.0901938
0.147721
1.01225
0.390665
0.098542
0.0383386
0.0223997
0.0557299
0.0736001
0.0293789
0.0617692
0.31806
0.103239
0.0252717
0.110275
0.124115
0.119642
0.716015
0.11205
0.0264979
0.0735073
0.0688785
0.0522736
0.0461981
0.063379
0.170614
0.746622
0.513081
0.0168964
0.0381958
0.0733085
0.0291401
0.0721727
0.0864826
0.435356
0.0251094
0.058806
0.0691474
0.0317677
0.0362325
0.147854
0.308761
0.811555
0.0989558
0.0916732
0.0252194
0.0735042
0.0893275
0.0775481
0.13659
0.0863029
0.0658904
0.440557
0.0507985
0.0651516
0.167796
0.91827
0.0233476
0.0728059
0.44524
0.030404
0.153844
0.0314131
0.0684629
0.131415
0.250394
0.831669
0.0619421
0.22606
0.122472
0.0406871
0.0424757
0.141581
0.0906608
0.0785784
0.199741
0.0434598
0.0800087
0.054531
0.174974
0.0723143
0.0485825
0.148451
0.0707556
0.0322077
0.0329402
0.0315105
0.0800106
0.064953
0.382744
0.0250663
0.191062
0.0599608
0.0618167
0.284188
0.157309
0.522589
0.0662612
0.0856998
0.502174
0.0270243
0.247706
0.201178
0.0558792
0.120007
0.0195658
0.287097
0.0255373
0.268981
0.123611
0.0770584
0.043145
0.0316024
0.0613093
0.120925
0.0482817
0.0816724
0.0422555
0.444241
0.0787466
0.113118
0.101395
0.0584748
0.103768
0.838968
0.281906
0.0597148
0.163211
0.411565
0.100206
0.038926
0.108152
0.119917
0.165373
0.265154
0.116962
0.0696512
0.102387
0.0294821
0.0619339
0.080357
0.716359
0.368082
0.386264
0.407663
0.0498604
0.0695182
0.0842125
0.0547325
0.336509
0.132965
0.0429016
0.104764
0.0587326
0.0644822
0.0982934
0.0581788
0.262514
0.26501
0.0451456
0.0623388
0.0166363
0.0630003
0.0526605
0.11781
0.0638782
0.086374
0.0581109
0.386696
0.119061
0.501043
0.0324631
0.0881056
0.146754
0.0609706
0.388906
0.0593171
0.0976654
0.0274328
0.313432
0.0126363
0.622816
0.103728
0.24349
0.0610111
0.0169414
0.0187109
0.0214658
0.0204204
0.0798253
0.076162
0.0827317
0.085196
0.0150624
0.0837424
0.0833272
0.0133028
0.0124302
0.0130158
0.0868053
0.0143523
0.0160318
0.0670407
0.0184061
0.0754479
0.0316189
0.0845021
0.416242
0.165862
0.0545733
0.0343134
0.0746435
0.462782
0.0287555
0.202217
0.0655373
0.0496241
0.0873467
0.02352
0.243373
0.257112
0.0431276
0.0797548
0.0443717
0.0853123
0.03523
0.47296
0.25816
0.841447
0.458724
0.0965323
0.176748
0.038723
0.0485098
0.0509227
0.299181
0.15682
0.0546214
0.0574664
0.0827175
0.422252
0.270068
0.015698
0.746901
0.407839
0.600366
0.0659292
0.0762862
0.102657
0.0772268
0.0659881
0.0379448
0.030631
0.477218
0.0530788
0.0266027
0.0741986
0.0269191
0.0196839
0.068789
0.0278666
0.0561946
0.0798216
0.0434715
0.0290159
0.219036
0.0523487
0.0258432
0.355169
0.0906109
0.0760789
0.0583332
0.0895383
0.0346535
0.122736
0.515764
0.101641
0.0890318
0.531482
0.0346876
0.023844
0.223764
0.621478
0.0238292
0.0542474
0.203987
0.899801
0.0209498
0.0659096
0.0460957
0.0312114
0.0901177
0.131743
0.011142
0.158648
0.0785436
0.0434712
0.191764
0.318638
0.456549
0.0168786
0.129721
0.400088
0.251606
0.0574367
0.140249
0.667627
0.0343963
0.0504569
0.0161502
0.058879
0.044453
0.047344
0.81922
0.0551677
0.0656257
0.0275853
0.0366721
0.0696384
0.0464268
0.834519
0.0661496
0.0598304
0.0653585
0.123625
0.356741
0.0882208
0.048306
0.0333279
0.420916
0.0680353
0.0651569
0.753445
0.0654686
0.127395
0.0476686
0.437424
0.0886059
0.075406
0.703324
0.0208271
0.0216731
0.47416
0.409221
0.069779
0.0927875
0.0209443
0.0349148
0.0901151
0.372928
0.1736
0.0288785
0.0145385
0.030448
0.054757
0.0378555
0.400883
0.103694
0.0872185
0.0308729
0.411749
0.02162
0.0334003
0.0961745
0.039894
0.0539401
0.0292096
0.0727159
0.246272
0.0585176
0.0364303
0.0183968
0.0317567
0.206323
0.0347587
0.420445
0.0424819
0.0289237
0.0418633
0.257687
0.0281728
0.0302415
0.165122
0.0188437
0.529123
0.339536
0.032167
0.0309226
0.0699828
0.150501
0.0551048
0.0984718
0.01235
0.150278
0.162511
0.0493054
0.060368
0.0224157
0.0406012
0.0472188
0.0470738
0.280808
0.0486297
0.0691906
0.0384414
0.0658148
0.145272
0.35112
0.527063
0.0358387
0.203044
0.0660797
0.0250069
0.0256242
0.0541401
0.232749
0.0157523
0.0841625
0.598651
0.0595343
0.0245293
0.103437
0.38397
0.162147
0.0277245
0.342925
0.0535205
0.0478733
0.0272154
0.0299316
0.0445888
0.0253117
0.28467
0.136209
0.371539
0.140424
0.0851355
0.0522705
0.0469061
0.0202514
0.0379823
0.923088
0.380838
0.32388
0.0225108
0.120386
0.0365402
0.38852
0.394831
0.091882
0.0614906
0.0733093
0.0390604
0.770221
0.364897
0.71488
0.0285961
0.112863
0.281504
0.120238
0.747405
0.0574062
0.111553
0.246272
0.097747
0.0174173
0.0669533
0.155026
0.149359
0.0609758
0.33659
0.025878
0.0172988
0.825513
0.417565
0.0424089
0.0447803
0.0450674
0.0218382
0.0464845
0.0304993
0.214393
0.220276
0.062044
0.0595148
0.113947
0.093019
0.0573524
0.669341
0.73241
0.310196
0.840511
0.063435
0.0520367
0.179798
0.0725198
0.2649
0.864329
0.131481
0.264597
0.271014
0.0580249
0.126423
0.0691675
0.231833
0.341927
0.0609392
0.0253039
0.0894403
0.0417355
0.12574
0.0571664
0.0495839
0.0859113
0.0713535
0.0218467
0.0501672
0.343891
0.0494196
0.0307147
0.887891
0.430585
0.452707
0.0253485
0.0532133
0.0591519
0.222725
0.195382
0.11357
0.818743
0.0688156
0.036923
0.107279
0.0843527
0.0848527
0.0597469
0.0561409
1.00043
0.413159
0.123159
0.573508
0.502319
0.136193
0.0103817
0.181496
0.0162896
0.369541
0.28503
0.0251912
0.0232932
0.366724
0.108536
0.266846
0.170741
0.0149659
0.162067
0.0660338
0.106561
0.021973
0.0228113
0.0303297
0.196342
0.0839395
0.0409982
0.101874
0.611574
0.0751335
0.0371465
0.115918
0.0590049
0.064315
0.237698
0.0765442
0.084823
0.0836751
0.181327
0.0244797
0.642358
0.0349541
0.0436636
0.11229
0.0143565
0.0593827
0.0665644
0.0459602
0.0470889
0.163525
0.418729
0.0148159
0.064448
0.0483136
0.0385867
0.0316744
0.183434
0.0682644
0.0425878
0.261396
0.0316295
0.261163
0.0639778
0.0477321
0.480279
0.232122
0.0921786
0.298252
0.0299109
0.0413264
0.0467069
0.0321415
0.11575
0.0343343
0.151161
0.20292
0.127999
0.511239
0.0107949
0.0505687
0.0398326
0.0645833
0.0469993
0.0340844
0.184674
0.0477037
0.286717
0.0676626
0.0299718
0.0400086
0.0463847
0.0421996
0.0936823
0.109131
0.043824
0.0398903
0.0546053
0.0473699
0.0467298
0.0523627
0.117724
0.0681353
0.430825
0.100569
0.0280136
0.0639722
0.0336748
0.0992144
0.0282041
0.063424
0.0615714
0.670883
0.0478582
0.0459874
0.0885418
0.0246405
0.042006
0.0459395
0.0383077
0.0376824
0.0333774
0.109218
0.100289
0.124839
0.0418622
0.115981
0.0702747
0.899917
0.401749
0.284399
0.0629559
0.0518841
0.0373379
0.0536761
0.12721
0.132315
0.0473672
0.067149
0.0367671
0.129196
0.0716035
0.0419751
0.0327704
0.0972353
0.101042
0.157964
0.0282086
0.284217
0.137293
0.1319
0.0537492
0.0438197
0.105166
0.113647
0.176173
0.0681761
0.0511564
0.0623697
0.0978682
0.0995575
0.0238569
0.213386
0.529697
0.569513
0.0339346
0.0384859
0.486412
0.179513
0.612875
0.0446878
0.171314
0.139411
0.054289
0.051772
0.0346492
)
;

boundaryField
{
    frontAndBack
    {
        type            empty;
    }
    wallOuter
    {
        type            kqRWallFunction;
        value           nonuniform List<scalar> 
102
(
0.0101835
0.0101835
0.0363848
0.025496
0.011695
0.0235369
0.0310564
0.0256903
0.00897207
0.00879638
0.0102574
0.0101853
0.0121631
0.0124203
0.0226045
0.0790307
0.0406566
0.027925
0.0223997
0.0252717
0.0264979
0.0168964
0.0381958
0.0252194
0.0735042
0.0406871
0.0424757
0.0270243
0.0195658
0.0451456
0.0166363
0.0169414
0.0187109
0.0214658
0.0204204
0.0798253
0.076162
0.0827317
0.085196
0.0150624
0.0837424
0.0833272
0.0133028
0.0124302
0.0130158
0.0143523
0.0160318
0.0316189
0.0845021
0.0496241
0.02352
0.0431276
0.0853123
0.0574664
0.0827175
0.015698
0.0659292
0.0762862
0.0269191
0.0196839
0.0346876
0.0238292
0.0209498
0.011142
0.0168786
0.0161502
0.0366721
0.048306
0.0333279
0.0216731
0.0209443
0.0349148
0.0145385
0.030448
0.0378555
0.02162
0.0292096
0.0364303
0.0347587
0.0188437
0.032167
0.01235
0.0470738
0.0486297
0.0358387
0.0157523
0.0245293
0.0445888
0.0202514
0.0172988
0.0713535
0.0218467
0.0103817
0.0251912
0.0149659
0.0228113
0.0143565
0.0148159
0.0385867
0.0107949
0.0340844
0.0477037
)
;
    }
    inlet
    {
        type            fixedValue;
        value           nonuniform 0();
    }
    outlet
    {
        type            zeroGradient;
    }
    wallInner
    {
        type            kqRWallFunction;
        value           nonuniform List<scalar> 
138
(
0.213463
0.0934142
0.0391459
0.053692
0.0228929
0.088395
0.373132
0.0392121
0.0464416
0.0449437
0.0477062
0.0728689
0.0212555
0.0259442
0.0438086
0.0329685
0.0558388
0.0166878
0.0925724
0.0678508
0.0290146
0.0133985
0.0460519
0.0302881
0.208508
0.0415913
0.0183934
0.0351048
0.544686
0.0244554
0.0388135
0.0486154
0.0395318
0.0237522
0.0490332
0.093091
0.0578524
0.135203
0.111512
0.0320463
0.0344977
0.102766
0.0715396
0.0268242
0.0381973
0.0122807
0.251495
0.0280398
0.126489
0.0362513
0.0340085
0.0383641
0.0808134
0.0542709
0.1753
0.0327543
0.0254001
0.0581449
0.0555522
0.0259496
0.0594281
0.0861855
0.119075
0.0312528
0.0348984
0.148683
0.0191348
0.0318443
0.0361048
0.0887876
0.0293348
0.0439592
0.0236442
0.0169781
0.0242648
0.0285961
0.0350132
0.0321602
0.69001
0.174375
0.323896
0.298613
0.192559
0.257711
0.220074
0.0407596
0.244629
0.205631
0.0266863
0.587202
0.472269
0.0238414
0.0767478
0.105972
0.0169024
0.0383209
0.125867
0.0262053
0.113986
0.0194468
0.0396319
0.065256
0.0314995
0.299722
0.0392131
0.11205
0.0251094
0.0658904
0.0233476
0.0684629
0.174974
0.0329402
0.0315105
0.0558792
0.0422555
0.0429016
0.0126363
0.0184061
0.0746435
0.0266027
0.355169
0.0906109
0.023844
0.356741
0.0208271
0.0727159
0.0493054
0.0224157
0.0250069
0.0535205
0.0174173
0.042006
0.612875
0.0446878
0.139411
0.054289
0.051772
0.0346492
)
;
    }
    procBoundary2to0
    {
        type            processor;
        value           nonuniform List<scalar> 
42
(
1.02186
1.02186
0.0985877
0.0938777
0.0572363
1.24198
0.101527
0.101527
0.0543773
0.055616
0.140192
0.140192
0.0847363
0.229245
0.339962
1.15011
0.529596
0.0522746
0.0559576
0.159265
0.134183
0.045816
0.045816
0.337653
0.134183
0.0375737
0.654639
0.0379459
0.654639
0.893423
0.659078
0.0432097
0.0486904
0.0507736
0.052135
0.0938777
0.529596
0.0671199
0.948149
0.0857562
0.0857562
0.0596454
)
;
    }
    procBoundary2to1
    {
        type            processor;
        value           uniform 0.222586;
    }
    procBoundary2to3
    {
        type            processor;
        value           nonuniform List<scalar> 
29
(
0.0746134
0.0801307
0.0298115
0.0323006
0.319392
0.0677177
0.0247712
0.0846855
0.089607
0.0824128
0.0840969
0.304811
0.056327
0.0633182
0.0610651
0.0503324
0.0889642
0.0889642
0.0801307
0.0633182
0.0646212
0.0841491
0.0334311
0.0899961
0.0515128
0.0673216
0.089607
0.273318
0.304811
)
;
    }
}


// ************************************************************************* //
