/*--------------------------------*- C++ -*----------------------------------*\
| =========                 |                                                 |
| \\      /  F ield         | OpenFOAM: The Open Source CFD Toolbox           |
|  \\    /   O peration     | Version:  v1912                                 |
|   \\  /    A nd           | Website:  www.openfoam.com                      |
|    \\/     M anipulation  |                                                 |
\*---------------------------------------------------------------------------*/
FoamFile
{
    version     2.0;
    format      ascii;
    class       volScalarField;
    location    "0.91";
    object      p;
}
// * * * * * * * * * * * * * * * * * * * * * * * * * * * * * * * * * * * * * //

dimensions      [0 2 -2 0 0 0 0];


internalField   nonuniform List<scalar> 
1466
(
93.0786
91.073
92.8301
93.3043
92.3114
89.8303
93.299
92.2276
92.4176
93.627
92.3186
93.5873
93.4477
93.3578
93.2034
93.3795
92.9696
93.1065
92.3058
93.3344
93.0973
93.2868
93.665
91.5231
93.3745
92.5368
92.4212
93.5842
93.258
92.2624
92.1305
89.2328
93.2517
92.1888
93.0886
93.1703
93.241
93.22
92.36
93.2397
93.5978
93.5115
92.5554
92.1212
93.6171
92.4642
93.2355
93.13
93.518
93.1557
92.7567
93.6312
92.3676
89.8321
93.2575
93.5606
93.1349
93.4888
93.4969
93.5538
93.3743
92.2375
92.2373
89.4182
91.0676
93.3489
93.5659
93.0574
93.1147
93.3136
92.6075
93.2488
93.2618
93.3488
93.2658
93.6315
93.3183
93.1438
93.2628
93.5437
92.712
93.3597
93.08
93.5256
93.3317
93.2773
93.3662
91.0513
93.343
92.9526
93.373
93.2289
93.5204
93.1931
92.7549
93.1804
90.9451
93.5148
92.4234
93.3886
93.2819
93.5795
92.8958
90.4617
93.077
92.2964
93.0409
93.0516
92.5999
93.3824
93.497
93.4469
91.3356
93.27
93.4375
91.5261
93.2951
93.3385
92.8531
93.4716
93.0709
93.0632
93.2387
91.0956
93.3143
93.5217
93.3965
91.6284
93.5205
93.0042
93.5109
93.267
93.0405
93.5696
92.6948
93.5324
93.5177
93.3837
93.6405
93.2162
93.6146
93.1703
93.5183
93.476
93.6295
93.3588
91.1443
92.6423
93.5679
93.2934
93.5203
93.4084
93.0126
90.9186
93.382
92.3368
93.175
91.4734
93.5157
92.811
93.596
93.3883
91.2703
93.1195
93.561
93.5216
93.0275
93.0318
93.3385
92.4466
93.2967
93.3187
93.3934
93.5544
92.4745
91.0065
93.5408
93.5371
93.2855
93.5281
93.113
93.0621
93.514
93.3334
91.0743
93.3488
93.026
91.843
93.1026
89.8398
90.5621
93.2642
93.3586
91.2085
93.1211
93.2138
93.6484
93.4025
93.3405
93.3486
91.3254
93.468
93.0507
93.3413
93.4006
93.5328
93.0291
92.3291
93.2384
93.5281
93.4793
91.4
93.4893
93.3577
92.6848
93.0518
92.8854
93.2455
93.3378
93.3283
91.7597
93.0485
93.357
93.2841
93.5358
93.3053
93.3304
93.3937
93.121
92.7525
93.3861
91.1092
93.3622
93.4897
93.1321
93.4205
93.4938
92.2428
93.4929
93.3906
92.568
93.4932
93.2847
93.5323
93.5319
93.1368
92.6129
93.1244
93.2256
93.1041
93.3792
93.3012
93.5357
91.0632
93.3306
93.3261
93.3087
93.142
91.6883
93.6383
93.3731
93.3324
93.3003
92.915
91.3602
93.2286
92.2441
91.2614
93.4514
93.2952
93.3494
93.0855
93.4157
93.3021
93.3147
93.5005
91.1025
93.3184
92.3767
93.5288
93.4278
93.1828
93.0989
93.4036
93.3498
93.4457
93.5046
93.3241
91.911
93.2917
93.3365
92.1177
93.4958
93.6216
93.5374
93.4715
92.0117
91.4406
93.4982
93.2927
93.4968
91.4286
93.4028
93.5004
93.3762
93.1284
91.0996
93.5112
93.4314
91.5916
92.5303
92.7657
93.4463
93.5683
93.5284
93.4791
91.31
92.5086
93.6432
93.4202
93.2591
93.5389
93.526
93.1545
91.2442
93.2161
92.6886
93.3348
92.5413
92.7482
91.4721
93.1367
92.6411
92.8805
91.3353
93.1038
93.4709
92.505
91.445
92.7037
91.4814
93.2139
93.2183
92.7629
93.236
92.6307
91.4346
93.3899
93.5064
91.7211
93.5467
93.3954
93.549
93.4982
93.5081
93.4965
91.3627
90.5609
91.6955
93.4778
92.0731
93.5515
93.5252
92.9263
93.5443
93.2808
92.7289
92.5878
93.3075
91.4595
92.6568
93.4365
91.4045
93.0981
92.8496
91.414
93.2042
91.538
93.3467
93.5071
93.4149
93.5661
93.501
92.7384
93.5403
93.5
93.3413
93.4062
93.4741
93.5235
93.5215
93.2078
93.5173
91.2734
93.4505
93.2915
93.5134
92.5806
93.1176
93.5018
91.4823
92.5706
93.4972
93.4234
93.6193
93.2942
93.4876
91.8465
93.1215
91.3905
93.3836
93.4891
93.4931
93.5829
91.3675
93.5143
93.4668
93.3599
93.5183
93.5192
93.4018
93.5312
93.2947
93.2777
93.2965
93.3018
93.2539
93.2744
93.2862
93.296
91.2305
93.4273
93.4799
91.3643
91.9481
91.3467
91.3772
92.137
93.2498
92.8912
91.4486
93.5217
91.4267
93.5961
93.2706
91.4635
92.613
92.5315
91.4138
93.4083
91.4446
91.5838
93.7406
93.4183
91.3748
93.3435
92.2868
91.7006
94.1268
93.4558
91.4644
93.4669
93.44
93.431
91.3637
91.4645
91.2811
93.3886
91.2456
93.6017
91.311
93.5622
93.4589
93.7948
89.318
92.1071
93.8919
93.7699
92.2392
90.5554
91.2941
93.307
89.6327
93.2196
92.1434
91.3523
93.1719
92.7289
89.8296
93.6475
92.2003
91.3684
93.0942
92.6931
93.4801
92.2932
90.5104
91.3932
91.3889
91.4037
91.364
93.0553
93.5172
93.5188
92.6548
93.4746
93.6431
93.5124
93.3316
93.4736
92.913
92.2591
93.0591
93.5001
93.6441
93.2858
91.35
93.0464
93.4331
93.4527
93.4569
91.317
91.3737
92.0005
92.3872
93.5176
91.3291
91.5227
93.5203
92.6557
93.2612
93.5112
93.4534
93.4002
93.5563
91.4389
93.5812
91.2776
93.2184
93.5131
91.3306
91.2918
92.3467
91.3064
93.4261
93.5588
92.7899
91.3364
91.2832
91.3156
93.0274
93.082
91.2715
93.5065
93.5107
92.02
91.2744
93.4523
93.4473
92.6117
93.2765
93.5044
93.5124
91.4223
93.6308
93.5459
93.1995
93.397
93.376
91.327
93.1534
92.2206
93.3053
93.6066
92.7036
93.2871
93.2446
92.6178
93.3013
93.2591
93.5058
93.4933
93.4505
93.4939
93.1828
91.5746
92.4052
93.0424
91.3347
93.1642
91.1477
93.3085
93.6334
92.8659
91.2988
93.0215
93.5592
93.5236
91.2848
93.4951
91.3664
91.2398
93.0263
92.8733
92.5761
93.3297
93.425
93.3407
91.4798
91.4124
93.5255
92.3135
93.099
91.9351
93.3983
92.5879
91.3937
93.3566
91.9778
91.0316
93.1263
93.1374
93.1472
93.5379
93.0525
93.3391
93.5014
93.4762
93.0632
91.2941
93.2754
91.3921
92.8301
93.0154
93.5462
93.5318
93.5303
91.2679
91.2163
93.0267
93.0258
91.5713
93.1196
92.7432
92.5041
93.5677
92.8363
91.9225
91.7462
93.0187
93.5227
91.3383
93.5376
91.5966
93.5127
93.256
92.6446
93.4535
93.042
92.8104
93.3819
91.2469
93.5944
93.2027
92.8165
91.252
93.2395
93.4656
91.284
93.528
93.0922
93.2757
93.4891
92.8321
91.1715
93.2315
93.1544
91.24
93.1018
93.5153
90.9916
93.1439
93.3037
92.8724
93.5069
92.6148
92.2455
93.3608
92.766
91.2821
93.3851
93.1589
92.96
93.5257
91.4197
93.2721
93.5485
93.4288
93.5126
93.5102
93.1898
92.911
93.5497
91.5023
93.5175
93.0396
93.4949
91.3314
93.2233
91.1015
93.0683
93.2388
93.6567
91.1375
93.06
93.1842
93.5571
91.3787
93.2241
92.3394
93.4581
93.4323
93.0664
93.5153
91.4454
93.3613
93.4628
93.4035
91.7388
93.6408
93.1972
93.0572
93.5203
93.4898
93.4832
92.0385
93.4945
93.4792
92.2837
91.5034
92.9739
93.4976
93.4795
93.3937
91.3228
93.4183
93.5533
92.9776
91.8501
93.5556
92.7553
93.6026
93.2707
93.5212
93.5016
91.9905
91.6398
93.0124
92.8123
93.3057
93.5526
93.0377
93.5197
91.0841
93.2886
92.9667
93.3066
93.578
92.823
92.788
93.3728
92.654
92.3149
93.3422
93.5297
93.499
93.3956
93.55
93.4627
92.4716
91.7834
91.5844
93.4338
93.4929
93.5271
93.5214
93.088
93.2422
92.1092
93.3205
93.3362
93.2009
91.0326
93.2945
91.1257
92.9432
92.1551
93.2132
93.316
93.4064
91.3411
93.4723
93.1048
92.7844
92.8969
92.6509
92.3249
93.139
93.1066
93.3196
91.8201
93.2408
93.053
92.1989
93.3462
92.416
93.0908
92.8034
90.6227
92.6301
91.4613
93.1801
93.3556
93.5013
93.1619
93.1642
92.487
93.3955
93.4295
92.778
93.275
93.5212
93.2238
92.3865
93.1748
93.2685
93.305
93.5219
93.33
91.5321
93.5305
93.4506
93.6217
93.1623
93.4859
93.4807
93.5609
93.5635
93.2658
93.49
91.5709
93.5141
93.4966
91.748
93.2358
92.691
93.506
93.358
92.5948
93.5307
92.5385
93.4815
91.5239
90.8654
93.0701
91.1943
93.0785
93.0707
93.4292
93.2492
93.1666
93.3148
92.1006
92.1265
92.7663
93.3177
93.3516
91.0591
92.4875
93.3454
93.3364
92.7781
92.2154
93.3146
93.0743
92.701
91.0148
93.2884
93.3117
92.2088
93.4978
93.2754
93.2994
93.5318
93.1331
91.8043
92.5324
92.4894
92.3539
93.5986
93.0018
93.1729
93.5106
93.5161
93.4062
93.2404
93.2057
93.1158
93.5677
92.9322
93.3973
92.6274
93.1801
93.3175
93.5165
93.3927
93.6007
93.3738
91.1266
93.441
91.0506
93.2972
93.1207
91.474
91.8388
93.3405
93.0251
93.5103
93.5184
92.4542
93.3282
91.021
93.5157
93.3044
93.288
91.7979
93.1422
93.2494
93.1055
93.3872
93.3789
93.3695
93.3705
91.3082
91.3682
91.2111
91.208
93.3913
91.3354
91.5162
93.3895
93.3846
93.3817
92.9237
93.3828
93.3878
93.6079
93.2305
93.5817
93.1781
91.7388
91.4548
93.5106
93.4002
93.0743
92.338
92.1298
93.1548
92.7694
93.094
93.056
93.4653
93.403
92.702
93.4842
93.1097
93.0431
91.2848
92.0129
93.3722
92.0019
92.7556
92.2149
92.2697
93.0362
92.7847
93.6128
91.4173
93.2424
93.4698
91.5152
93.578
92.9564
92.3213
92.4424
92.6563
93.3005
91.4333
92.8171
92.0198
92.8046
92.5957
93.3144
93.0448
93.5762
93.368
93.3645
92.4817
93.3994
93.1718
93.0569
93.1057
93.3373
93.5212
93.4803
93.6494
93.0527
91.3562
93.5014
93.1873
93.1032
93.2365
92.4739
93.288
92.1943
93.6109
93.2736
93.5127
92.2995
90.8315
93.0761
92.9391
91.8005
93.654
93.3126
93.2168
91.9401
93.4272
93.4791
92.4328
93.8123
93.422
93.4165
91.2789
93.508
93.4391
91.2382
93.4181
93.3644
93.078
91.3949
92.7569
92.5915
92.1847
93.514
93.5137
91.4063
92.6629
93.5292
91.5276
91.8609
93.3412
93.2238
93.3968
93.25
91.3634
93.1281
91.4694
93.614
93.5954
93.4916
93.6652
93.1479
91.4127
91.6931
93.4662
93.6263
92.1745
92.8937
92.2232
93.2462
93.4155
93.6405
92.2892
93.0139
93.6052
91.6917
93.6112
92.7891
93.2289
92.1309
93.3723
93.3869
91.5632
93.1215
93.3922
93.2851
92.3883
93.5754
93.3134
93.3696
93.6638
93.344
93.1701
93.3894
93.418
93.4003
93.6243
93.6368
93.1273
92.4518
93.4306
93.4191
93.0558
92.4871
93.1018
93.3754
91.3435
93.1859
93.646
93.2069
92.806
93.3718
93.1605
93.1505
93.4602
91.4105
92.6678
93.6835
92.6341
93.498
91.4603
93.4369
93.2765
93.4767
91.4095
93.5018
93.1527
91.4774
92.5917
93.1207
93.502
93.4861
93.2383
93.1625
92.1031
93.4025
91.7954
93.3947
93.1927
93.0801
93.3162
93.1633
93.4016
93.5402
93.4769
93.5852
93.5179
91.5185
93.1562
92.7926
93.2337
91.9341
93.6728
93.4067
92.9848
93.1606
93.379
93.1803
92.6645
93.2245
93.2513
91.7312
93.1526
93.096
92.1418
89.6878
92.3525
93.3671
93.4816
93.3394
93.5615
93.07
93.3637
93.2369
93.396
93.4904
91.3522
93.126
91.1819
93.1133
93.4379
93.3933
93.1214
93.2794
91.5751
93.0016
93.2556
93.4013
93.3147
93.4521
92.4737
92.4491
93.4079
93.292
90.9604
93.2287
91.4012
92.5349
91.6949
93.5037
93.3373
92.6361
92.7149
91.5426
93.0861
93.3986
93.3278
93.3861
93.0976
93.2391
90.6924
91.3289
93.4454
92.5451
93.2686
93.1861
91.5672
92.6612
93.2298
93.4097
91.3237
93.4149
93.0715
93.3312
93.4711
92.742
92.2526
93.33
92.8125
93.2588
93.3706
91.463
91.3695
93.2223
91.485
93.2329
90.9402
92.7987
93.4515
92.8308
92.7145
93.5196
91.4479
93.384
93.4032
93.5068
91.4816
93.4116
92.3947
93.2719
93.4952
93.3024
93.5449
93.349
93.3999
93.1744
93.2725
91.2766
93.3841
93.4137
93.193
93.61
93.3993
91.5578
92.488
92.3231
93.4964
93.1686
93.4279
92.7246
92.7991
93.299
92.7707
93.1449
91.1635
93.3637
93.4095
92.9933
93.2521
93.6468
91.5648
92.7345
92.8278
91.6591
91.9032
93.3774
93.4063
93.3459
93.0871
93.2053
91.4647
93.4216
93.0856
92.4738
93.3177
93.4695
91.4821
93.4528
93.5166
93.5848
91.1218
93.0669
93.0937
93.4637
93.376
92.9363
91.4378
93.5051
91.5879
93.4915
91.382
93.3245
93.1623
93.584
93.4734
92.9626
93.2859
93.5253
91.5233
93.0616
91.5508
93.4183
91.3637
93.3089
93.5031
93.5113
93.068
91.3419
93.3535
91.9251
92.2472
93.2619
93.1219
91.4568
93.1575
93.4738
92.706
93.0906
91.2555
93.339
93.3651
93.2129
93.0828
91.4113
93.0712
93.495
93.2389
92.6184
93.5024
93.3601
91.3931
93.3243
92.8631
93.3831
92.1532
92.7267
93.5078
91.4274
93.4029
93.4677
91.3346
93.3447
91.3158
93.156
93.3157
93.4788
93.3117
93.2152
91.0938
93.1943
93.3467
93.5546
93.37
93.3099
93.396
93.3483
93.6026
93.4465
93.5765
93.186
91.1044
92.9914
92.6519
93.3858
93.3935
93.2696
91.0202
93.3511
93.4615
93.6119
93.6557
91.6094
93.3477
91.3539
93.337
93.4701
93.2924
93.395
93.5331
93.3881
93.3319
92.7929
93.3484
91.1421
93.3954
93.219
93.3996
91.5357
92.8634
89.0269
93.2657
90.9768
93.319
93.2408
93.3297
93.3144
93.3999
93.2044
90.969
91.2378
93.056
93.2383
93.3675
91.2071
92.8825
90.8971
93.3017
93.4781
90.7427
91.1058
93.6639
93.4041
93.3326
93.3429
92.8158
93.4385
93.6173
93.3499
93.516
91.5628
93.4297
93.4777
91.8887
91.7754
93.3089
93.5268
92.1278
92.7931
95.5942
92.286
92.4025
92.1745
93.313
93.3192
93.5736
)
;

boundaryField
{
    frontAndBack
    {
        type            empty;
    }
    wallOuter
    {
        type            zeroGradient;
    }
    inlet
    {
        type            zeroGradient;
    }
    outlet
    {
        type            fixedValue;
        value           nonuniform 0();
    }
    wallInner
    {
        type            zeroGradient;
    }
    procBoundary2to0
    {
        type            processor;
        value           nonuniform List<scalar> 
42
(
91.615
91.615
91.436
91.4382
91.3022
91.6133
91.239
91.239
91.2355
91.2375
91.4754
91.4754
91.3802
91.5216
91.5522
91.7152
91.534
91.2846
91.2148
89.0556
89.5807
91.3255
91.3255
89.9499
89.5807
91.3899
90.4981
91.3669
90.4981
91.6274
91.5838
91.313
91.2245
91.1013
90.9979
91.4382
91.534
91.5615
91.0728
91.0552
91.0552
90.9716
)
;
    }
    procBoundary2to1
    {
        type            processor;
        value           uniform 88.8979;
    }
    procBoundary2to3
    {
        type            processor;
        value           nonuniform List<scalar> 
29
(
92.3365
92.1714
93.2206
93.2272
89.4646
92.3631
93.6517
92.1966
93.2361
93.2255
92.3098
89.2348
92.3832
93.6471
93.666
93.649
93.2332
93.2332
92.1714
93.6471
93.6599
93.2292
93.6946
93.2262
93.6714
93.2241
93.2361
88.839
89.2348
)
;
    }
}


// ************************************************************************* //
