/*--------------------------------*- C++ -*----------------------------------*\
| =========                 |                                                 |
| \\      /  F ield         | OpenFOAM: The Open Source CFD Toolbox           |
|  \\    /   O peration     | Version:  v1912                                 |
|   \\  /    A nd           | Website:  www.openfoam.com                      |
|    \\/     M anipulation  |                                                 |
\*---------------------------------------------------------------------------*/
FoamFile
{
    version     2.0;
    format      ascii;
    class       surfaceScalarField;
    location    "0.91";
    object      phi;
}
// * * * * * * * * * * * * * * * * * * * * * * * * * * * * * * * * * * * * * //

dimensions      [0 3 -1 0 0 0 0];
oriented        oriented;


internalField   nonuniform List<scalar> 
2776
(
-2.39859e-05
-6.1478e-06
1.21442e-05
1.79894e-05
1.89384e-05
7.7197e-07
0.000185218
-0.000204929
9.91167e-05
2.59283e-06
1.64024e-05
-0.000118112
7.32086e-07
1.06325e-06
2.74035e-06
-4.53569e-06
0.00010821
0.000107584
-6.77022e-05
-0.000148092
0.000340766
0.000217645
-0.000390199
-0.000168212
1.58773e-05
-1.38115e-05
1.22701e-05
-1.43359e-05
5.73307e-05
-1.11905e-05
-1.30988e-05
0.000255918
-0.000288805
4.59861e-05
-4.48126e-06
-4.8243e-06
7.50643e-06
1.79915e-06
2.94993e-05
-8.10019e-06
-2.13991e-05
4.54379e-05
-4.66726e-05
-1.73209e-06
2.96684e-06
1.10025e-05
-1.10025e-05
9.70682e-05
-4.31996e-05
-4.81037e-05
-5.76487e-06
-3.22247e-05
-8.92959e-05
7.25636e-05
4.8957e-05
1.72146e-05
4.58076e-05
-8.61186e-06
-5.44104e-05
3.14318e-06
1.83376e-05
-2.14808e-05
-2.70766e-05
-8.42082e-06
2.17249e-06
3.3325e-05
2.64863e-05
1.45986e-05
7.88929e-05
-0.000119978
1.11207e-05
-3.72443e-05
6.95323e-05
-4.34086e-05
-2.76718e-05
2.99818e-05
6.40156e-06
-8.71149e-06
-2.08338e-05
-9.17403e-06
3.12817e-05
-1.2738e-06
5.01447e-05
-4.11303e-05
-9.01439e-06
2.00106e-06
-0.000157622
0.000155566
5.52186e-08
3.22489e-05
8.0906e-05
-1.60867e-05
-0.00011676
-5.09475e-06
0.000118127
3.72708e-06
-0.000110638
8.28544e-05
-3.35795e-05
6.13635e-05
-9.67531e-06
9.58245e-06
-2.73818e-05
2.74746e-05
-2.23164e-05
2.08745e-06
7.00114e-05
-6.81617e-05
-1.84967e-06
-1.36416e-05
-4.82961e-06
-6.75388e-05
0.00011885
-0.000122727
-0.000157146
0.000161023
9.93572e-06
-9.59123e-06
-3.35299e-05
-1.05194e-05
9.86624e-06
-6.01044e-05
6.07576e-05
4.39875e-05
-1.31003e-05
-3.70662e-05
6.17898e-06
4.52659e-05
-4.5684e-05
-3.18066e-05
-1.38066e-05
2.26009e-05
-3.48413e-05
2.6047e-05
1.82184e-05
8.46512e-05
-5.24491e-05
-5.04204e-05
-6.8081e-06
0.000239799
-0.000308536
7.55458e-05
-3.8843e-06
-1.37794e-05
4.42048e-06
4.29681e-05
-1.95073e-06
-3.81893e-05
4.39082e-05
2.58305e-05
-3.15494e-05
-0.000260357
0.000157252
9.00062e-05
-2.87588e-05
1.94142e-05
9.86241e-06
-5.17801e-07
5.20921e-05
-4.68746e-05
1.77347e-06
-6.99088e-06
2.74229e-05
-4.71899e-05
0.000127745
-0.000107978
1.87539e-05
6.80531e-05
1.06485e-05
-9.74556e-05
-1.73836e-05
4.09576e-05
-5.06506e-05
-3.5784e-05
3.13397e-05
-3.3745e-05
9.87848e-06
-2.31913e-05
-1.4359e-05
2.30988e-05
-2.90027e-05
9.30163e-05
-8.71124e-05
4.72757e-06
1.26154e-05
-3.30496e-05
-9.0212e-06
-3.66714e-05
4.17314e-05
1.20232e-05
-1.70832e-05
-9.62702e-05
9.28653e-06
9.17371e-05
-4.75337e-06
-8.86451e-05
5.95388e-06
5.4077e-05
2.86142e-05
2.02187e-06
7.17651e-06
-8.21659e-06
-9.81799e-07
1.26814e-05
-3.05621e-05
-1.87907e-05
7.44379e-06
-7.96654e-06
5.75757e-05
-5.70529e-05
5.9492e-05
-6.80574e-05
0.000236857
-0.000130386
-3.84137e-05
1.24094e-05
-5.52078e-05
3.18854e-05
1.0913e-05
4.66658e-05
6.90047e-06
-1.18349e-05
3.07995e-05
7.76222e-07
-1.59395e-06
1.81965e-06
-8.20289e-06
8.63816e-06
-2.25492e-06
-6.85022e-06
1.58456e-05
-2.98292e-05
3.76745e-05
-4.4463e-05
0.000123542
-0.000116753
1.46358e-05
-6.10323e-06
-5.98721e-06
-2.54533e-06
3.6727e-07
8.16611e-05
-6.38099e-05
5.16881e-06
-2.56684e-05
8.65857e-06
1.1841e-05
5.7959e-05
-5.75917e-05
2.23091e-06
-2.907e-05
-1.15194e-05
2.11142e-05
8.95732e-06
-2.49027e-05
-1.38101e-05
1.92345e-05
-2.2808e-05
-2.67304e-05
-2.66015e-05
3.10156e-05
7.86027e-06
-2.06656e-05
2.54867e-05
-7.21058e-06
1.57602e-05
0.000129737
-0.000138287
2.89493e-05
-1.6952e-05
-3.00351e-05
1.80378e-05
7.01714e-05
-1.6296e-05
-6.90606e-05
1.51852e-05
2.52627e-05
-3.33812e-05
-2.76656e-05
0.000100525
-9.12557e-05
-2.12446e-05
1.19751e-05
9.68254e-06
-9.40952e-06
1.68371e-05
-1.71101e-05
3.2102e-05
5.63612e-05
1.20619e-05
-0.000162552
-9.56441e-05
7.52298e-05
0.000182966
4.71514e-05
3.58925e-05
-4.5385e-05
-3.76589e-05
6.22104e-05
-4.95407e-05
-6.0711e-05
4.80413e-05
1.48742e-05
4.54224e-06
-1.09356e-05
-8.48079e-06
-5.8001e-06
7.48599e-05
-6.90598e-05
-9.5241e-06
1.11387e-05
-1.00756e-06
-6.07007e-07
4.20881e-06
-6.72181e-06
7.85875e-06
-5.34576e-06
1.83598e-05
7.62375e-05
-7.14985e-05
5.37315e-05
-4.96532e-05
-2.67316e-05
0.000205741
1.2985e-05
-0.000191994
2.06534e-06
-2.63704e-06
-6.99741e-06
7.5691e-06
6.44415e-05
-0.000104261
-9.23207e-05
0.00013214
-1.08981e-05
4.87267e-06
2.08996e-05
-1.08532e-05
3.97865e-05
-4.31947e-05
-6.26711e-06
-9.72211e-06
4.27725e-05
6.62737e-05
-9.93241e-05
-8.90472e-05
6.23156e-05
2.16499e-05
-7.1476e-05
6.62033e-05
-1.63772e-05
-3.41181e-05
-0.000198816
-5.84997e-06
7.1413e-06
2.95082e-05
-4.80464e-06
7.15451e-05
3.43097e-06
0.000121474
3.9641e-05
-9.66737e-05
4.70648e-05
-7.41859e-05
6.45185e-05
-3.73975e-05
6.49886e-06
-2.11892e-06
-1.4732e-05
1.0352e-05
-1.35732e-05
1.96004e-05
1.82596e-06
-7.85316e-06
2.40044e-05
-5.27139e-05
-5.38155e-05
8.2525e-05
1.70185e-05
8.63866e-05
1.94119e-05
-8.40938e-06
-0.000121374
-0.000160312
5.31511e-05
0.000228535
6.74959e-05
3.13751e-05
-5.19821e-05
-4.68889e-05
8.96975e-05
-7.48984e-05
5.26968e-05
-7.16252e-05
8.03473e-05
5.34883e-05
-5.09859e-05
1.68192e-05
7.57272e-05
-4.15604e-05
-5.59763e-05
6.61769e-07
5.60907e-05
9.71906e-06
5.79302e-06
-8.38635e-06
-7.12574e-06
3.57121e-05
-4.337e-06
-0.000121368
4.53779e-05
-8.65617e-05
4.62106e-05
-3.81906e-05
3.91314e-05
-9.25476e-06
3.29609e-06
-1.29904e-05
1.8949e-05
4.49086e-07
-1.96939e-06
-1.40715e-06
2.92745e-06
0.000163011
-0.000111624
0.000125582
-0.000176968
-6.99254e-06
4.68693e-06
-7.21849e-06
-2.12064e-05
0.00021831
-4.81322e-06
-0.000192291
1.00716e-05
-5.45626e-05
-7.47052e-06
5.19614e-05
-8.22188e-06
-3.16921e-06
3.25052e-05
3.7276e-05
-4.8031e-05
4.19828e-05
-3.12278e-05
-1.56036e-06
-5.72238e-06
5.39486e-05
-1.57307e-05
-6.16254e-05
1.08539e-05
6.65022e-05
5.28158e-06
-1.38453e-05
1.6424e-05
3.17028e-05
1.54247e-05
-3.21934e-06
3.60693e-05
-7.76807e-05
7.79278e-05
-3.63164e-05
-6.68257e-05
5.63894e-05
1.81203e-06
8.62423e-06
-1.72738e-05
-2.0807e-05
2.98589e-05
-7.25648e-06
2.43219e-06
-4.15684e-06
7.90168e-05
1.56723e-05
-1.38893e-05
-1.22637e-05
1.04807e-05
-2.57793e-05
1.55565e-05
1.70703e-05
-6.84748e-06
-1.26901e-05
-2.04353e-06
-2.92925e-05
2.46081e-06
2.68317e-05
4.23156e-05
-2.1904e-05
-2.04116e-05
-7.23134e-05
8.33095e-05
8.77253e-05
-9.87215e-05
-7.30168e-07
2.97871e-05
-3.06173e-05
7.42392e-06
1.04614e-05
-1.78164e-06
-1.84058e-05
1.1071e-05
7.78397e-06
4.38261e-05
-4.07783e-05
-5.25886e-05
-1.68108e-05
0.000158738
-0.000120085
-2.18424e-05
-7.91659e-06
1.27793e-05
-1.57608e-05
-2.21967e-05
-3.7912e-05
1.49879e-05
4.51209e-05
-3.54134e-06
-6.05999e-06
-2.09758e-05
4.80873e-05
4.31381e-05
-7.02496e-05
1.26733e-05
-2.26096e-05
-1.16988e-05
2.16351e-05
-5.97305e-05
-8.4208e-05
-6.77368e-06
4.05917e-05
5.96842e-06
4.80707e-05
1.00852e-05
-2.77043e-05
-3.04517e-05
-0.000257622
-3.28555e-05
8.69815e-05
-5.29622e-05
-3.95907e-06
1.37266e-05
1.1847e-05
4.57326e-06
0.000124364
-9.15885e-05
-8.83723e-05
5.55971e-05
-4.51343e-06
1.5508e-05
-1.09946e-05
-5.9924e-05
4.08816e-05
-1.70319e-06
2.07456e-05
-5.71475e-05
6.45576e-05
-0.000118048
7.29721e-07
4.43786e-05
-3.54258e-05
-1.20607e-05
8.28414e-06
-5.63297e-06
7.74309e-06
-6.448e-06
-3.26448e-06
2.65182e-06
1.42118e-05
-1.75938e-05
0.000117312
-0.000151217
-0.000247962
0.000168127
9.87736e-05
-1.15518e-05
-4.75965e-05
6.18605e-06
4.33054e-06
-9.62799e-06
-1.53682e-05
-3.57373e-05
1.41194e-05
-6.76779e-05
-1.05223e-05
1.26333e-05
5.40937e-05
-5.09808e-05
1.8537e-05
-3.80621e-05
5.0714e-05
-2.5802e-06
1.9587e-05
3.9033e-05
-6.6673e-05
-0.000122752
-3.47913e-06
4.9977e-05
4.85709e-05
-4.64954e-05
-6.88023e-06
8.40427e-05
-0.000254355
-7.32526e-05
0.000243565
4.54072e-05
2.58808e-05
-2.6022e-05
7.39633e-05
-2.03677e-05
-9.76804e-06
3.01357e-05
-3.77647e-05
2.65969e-05
1.11678e-05
2.87554e-05
-0.00011641
-4.62352e-05
5.82245e-05
4.21043e-05
1.40984e-05
-3.00397e-06
-1.0187e-06
3.74334e-06
5.36648e-05
-5.80348e-05
4.83616e-05
-4.98029e-05
5.94761e-05
-5.82773e-05
4.73073e-05
-7.50398e-05
-3.54262e-05
3.62801e-05
1.7947e-05
-4.75339e-05
-3.25559e-05
-2.05657e-05
3.9306e-05
-2.6362e-05
7.62176e-06
7.15874e-06
-7.08972e-06
5.33749e-06
-4.30098e-05
-2.22517e-05
1.72317e-05
-2.78945e-05
-4.68318e-05
4.89538e-05
2.92177e-05
4.74892e-06
3.62153e-05
-4.61487e-05
-3.72565e-05
-4.53877e-05
-3.60337e-05
-4.04138e-05
4.01087e-05
-9.40226e-06
9.70739e-06
-4.55897e-05
5.35374e-05
9.58569e-05
-5.04428e-05
-2.74672e-05
-5.63905e-05
2.48981e-05
1.09267e-05
5.93536e-05
-4.52301e-05
-1.12429e-05
-2.8807e-06
5.9396e-05
-1.73842e-05
-7.61082e-05
3.11659e-05
7.74469e-05
-3.25047e-05
-1.35524e-05
5.66846e-06
7.88391e-06
5.46105e-05
-4.84542e-05
-5.81384e-05
8.54035e-06
2.23972e-06
-1.82275e-06
4.80307e-05
-8.45272e-06
-3.74322e-05
-2.14578e-06
2.94532e-05
-4.04852e-05
-1.29539e-05
-4.8579e-05
7.69142e-05
4.31971e-05
1.32247e-05
1.16314e-05
7.93792e-06
4.97231e-06
-1.02584e-05
1.53228e-05
5.39727e-05
-2.60985e-05
2.38699e-05
-6.66609e-05
3.0182e-05
3.41483e-05
-5.39568e-05
-1.03735e-05
-1.70804e-05
-5.278e-05
2.41793e-05
4.56811e-05
-0.000243233
3.17011e-05
-4.65539e-05
0.000258086
-3.06313e-05
5.53594e-05
1.13412e-05
-0.000103493
0.000154183
-0.000102786
5.20958e-05
2.75969e-05
-4.08096e-05
4.51478e-05
-3.19351e-05
-9.80572e-06
6.16407e-05
-5.79478e-06
-4.60402e-05
2.93839e-05
3.37288e-05
-5.35743e-05
3.70771e-05
9.27602e-06
6.35754e-05
-8.26572e-05
5.20917e-05
1.10373e-05
-5.63238e-05
6.86345e-05
-2.31547e-05
-3.31395e-05
4.58237e-05
-2.6802e-05
-2.22832e-07
-6.35581e-05
-5.50173e-06
2.0463e-05
-3.11959e-07
-4.94391e-05
1.72674e-05
-6.21722e-05
4.50918e-05
-0.000148317
0.000137783
1.05339e-05
7.96785e-05
-2.7359e-05
-7.42734e-05
1.21012e-05
2.46268e-05
-3.59409e-06
2.07955e-05
1.03259e-05
-2.34035e-05
-7.71789e-06
-4.80917e-05
2.65227e-05
-9.40621e-05
6.57992e-05
4.43346e-05
-6.21228e-05
1.71368e-05
-1.61152e-05
1.9774e-05
-4.89867e-05
2.69895e-05
-1.78243e-05
5.94222e-05
8.27659e-05
-0.000252809
0.000130432
0.000277084
-0.000154707
3.54738e-05
-6.7515e-06
-7.83666e-05
4.84594e-05
-1.51041e-05
1.47155e-05
1.75254e-05
-7.13934e-05
-4.90481e-05
-0.000275325
-0.000114874
7.88308e-05
6.13691e-05
-9.1243e-05
-0.000436122
0.000113198
-2.59536e-05
-4.66781e-05
-6.42268e-06
7.28387e-06
3.84448e-05
1.9214e-05
-2.74017e-05
2.20731e-05
-1.38853e-05
3.40775e-06
9.94551e-06
-7.19925e-07
-1.90137e-05
1.76455e-05
5.67276e-05
-3.39367e-05
8.81996e-06
1.4425e-05
-2.40655e-05
1.16623e-05
-6.36868e-06
-2.31485e-05
-0.000116219
2.53452e-05
4.84444e-05
1.77329e-05
5.40515e-06
-2.79854e-06
-1.04527e-05
1.18441e-05
3.91076e-05
-4.3882e-05
-4.01111e-05
4.48855e-05
-6.18971e-05
1.77255e-05
5.86419e-05
-1.44703e-05
-2.0801e-05
-2.03273e-06
-4.41763e-05
6.701e-05
-6.28284e-05
-4.62338e-05
4.79057e-05
4.35895e-05
-4.52614e-05
-6.07438e-05
1.85673e-05
3.78721e-05
4.85776e-06
-7.56882e-06
-0.000299768
-0.000128785
5.49902e-05
2.8647e-05
-1.29423e-05
-7.06949e-05
-4.19624e-06
-2.30746e-05
-1.77356e-05
4.61433e-05
2.23062e-05
3.6064e-05
7.40694e-05
-8.13663e-05
-2.87671e-05
4.61204e-05
-0.000269163
0.000307086
-6.92925e-05
8.41996e-05
9.51061e-05
-0.000110013
-4.69344e-05
2.66079e-05
3.07828e-05
1.45018e-06
-1.78669e-05
9.85861e-06
-9.5353e-06
1.75436e-05
-3.68066e-05
-7.03788e-06
-3.92254e-06
7.95857e-06
3.00185e-06
4.67676e-05
-1.25785e-05
-6.4366e-05
1.04619e-05
6.80235e-05
-3.39914e-05
8.04893e-06
3.27855e-06
2.26639e-05
-1.41582e-05
2.13574e-05
-2.08433e-05
1.36442e-05
4.60272e-06
5.15022e-05
-2.33271e-05
2.05285e-05
0.000152814
0.000191451
5.59188e-05
-0.00025628
0.000232063
-5.73548e-05
1.08323e-05
6.48823e-05
5.58038e-05
-8.09638e-06
-5.83735e-06
1.45508e-05
2.10736e-05
-1.38658e-05
-2.87004e-05
2.69805e-05
-4.70277e-06
5.99892e-05
-6.52054e-05
-2.07374e-05
-3.93526e-05
0.00015157
3.624e-05
1.14884e-05
-4.87471e-05
5.27079e-06
-4.65251e-06
-4.1015e-05
2.6548e-05
-8.61133e-06
7.11921e-06
1.79161e-05
2.03852e-05
1.35295e-06
-2.43184e-05
5.63385e-05
-4.58122e-05
-1.05263e-05
-3.08191e-05
4.08137e-05
-9.99461e-06
-0.000102367
9.49727e-05
7.39435e-06
-2.21952e-05
2.76221e-05
-5.42691e-06
7.96061e-05
-5.02853e-05
-2.93208e-05
7.87477e-06
-9.60695e-06
1.73218e-06
-0.00010649
-7.17513e-06
0.000113666
2.22738e-05
-2.10512e-06
-2.01687e-05
5.61719e-05
-5.91873e-05
3.01541e-06
-1.67893e-05
-5.40593e-06
7.58242e-05
-7.08617e-05
-4.96243e-06
-1.56823e-05
-1.51368e-05
6.04377e-05
-4.09915e-06
-1.97457e-05
1.6454e-05
3.29169e-06
-0.000187669
5.54637e-05
-6.35871e-05
8.12335e-06
-0.000113701
6.37874e-05
-4.15136e-05
5.52783e-05
8.93621e-07
-8.2657e-05
6.37862e-05
1.88708e-05
-3.44454e-05
-8.3511e-06
4.27965e-05
-0.000121833
1.94659e-05
0.000125103
1.26793e-05
-8.09795e-05
8.45311e-05
-3.55156e-06
-2.04997e-05
3.2777e-07
2.01719e-05
5.10689e-06
-1.69172e-05
-6.0566e-06
3.10053e-05
-4.7389e-05
-2.985e-05
4.85952e-05
2.40707e-05
5.10307e-05
-4.21565e-06
5.23531e-05
2.54598e-05
-2.0203e-05
-2.26168e-05
4.08154e-05
2.00439e-06
4.60405e-05
3.81945e-06
-2.30094e-05
4.19479e-05
0.00026029
0.000302819
-4.14094e-05
-4.19897e-05
4.9578e-05
-6.67103e-05
6.5038e-05
2.88986e-05
7.31455e-06
1.16516e-05
3.91336e-05
3.66906e-05
-4.71288e-06
-2.31874e-07
4.94476e-06
-4.22269e-05
-6.82332e-06
-8.9145e-06
3.47786e-05
-1.71921e-05
1.14023e-05
-1.19011e-05
1.22288e-05
9.83898e-05
-1.38587e-05
1.25036e-06
-7.29829e-05
2.12113e-06
-1.77874e-05
1.23157e-05
-4.20994e-05
-1.72453e-05
2.11458e-05
-1.60389e-05
-2.98306e-06
-1.50521e-07
8.52499e-06
1.43735e-05
3.95941e-05
-2.99749e-05
-2.39926e-05
-5.08477e-05
-1.48582e-05
3.07453e-06
-5.69387e-05
-3.76427e-05
-2.82091e-05
3.02337e-06
4.89334e-05
1.41542e-05
1.93823e-05
-1.29586e-05
-6.27475e-05
-4.36666e-06
2.98757e-06
-1.76659e-05
1.9045e-05
-1.97592e-05
1.7694e-05
-2.30148e-06
-3.21271e-05
4.76309e-06
1.13807e-05
1.59833e-05
-8.23432e-06
6.68345e-06
6.52319e-06
8.85324e-06
-8.64413e-05
0.000108344
-3.07555e-05
-1.80563e-05
-4.32486e-05
4.51682e-05
-1.03268e-05
8.98984e-06
-6.89733e-06
-2.22213e-05
0.000184325
-1.89937e-05
3.89618e-05
-1.88321e-05
-9.13626e-07
4.11001e-05
1.43636e-05
-3.46953e-05
5.16998e-05
-2.59189e-05
1.14027e-05
2.89884e-06
-7.61809e-06
2.72199e-05
4.14563e-05
4.6291e-05
-1.49462e-07
-5.03377e-05
-3.2722e-05
1.79685e-05
5.38611e-05
-1.06558e-05
-1.75644e-05
2.44096e-06
-0.000191642
-0.000281741
0.000220574
-1.07519e-06
1.99407e-05
7.57719e-06
-2.64427e-05
3.62923e-06
-4.54446e-05
-1.87894e-05
6.06048e-05
-2.76424e-05
3.26938e-05
1.34518e-05
-6.13034e-06
4.08128e-06
3.10044e-05
8.29312e-06
6.15503e-05
-0.000104444
8.03826e-05
-3.74887e-05
-3.12759e-06
8.76419e-06
1.71593e-05
-2.27959e-05
-1.52798e-05
-1.97975e-05
2.44215e-05
5.58746e-05
-1.02537e-05
-7.07719e-05
2.5151e-05
-4.55892e-06
8.54352e-06
-2.37438e-05
1.96511e-05
-2.73376e-05
-1.47135e-05
4.92081e-05
2.138e-05
1.79346e-05
-1.4947e-05
-1.17147e-05
3.95588e-05
-3.70182e-05
-4.05275e-05
1.64799e-05
-2.21402e-05
4.61879e-05
-1.61012e-05
-3.61411e-05
3.43494e-05
-3.09628e-05
-1.94877e-05
-4.55618e-05
-1.57007e-05
5.16713e-05
1.0477e-05
-2.22514e-05
3.44606e-05
-1.89067e-05
2.29678e-05
-2.63125e-05
-4.18307e-05
-5.28875e-06
3.42474e-05
-2.3445e-05
-2.38203e-05
1.74305e-05
-8.89001e-06
4.41313e-05
-4.12265e-05
-2.7977e-05
2.50723e-05
0.000324553
-0.000278433
-3.00595e-06
2.87602e-05
1.83771e-05
0.000108555
2.62376e-05
-7.32427e-05
-3.9933e-05
-0.000174264
0.0001052
3.56201e-05
3.34444e-05
0.000145625
-0.000116675
-0.000169327
0.000140377
1.49019e-05
-7.38128e-05
5.8911e-05
2.87103e-06
-1.19934e-05
-5.09029e-05
-1.75819e-05
2.72583e-05
5.64653e-05
-5.71867e-05
-6.58098e-05
6.65311e-05
8.45123e-05
-0.000113151
-1.05384e-05
2.22374e-05
9.68563e-05
-0.000160954
6.2703e-05
-7.77859e-05
0.000176037
-0.000102791
4.84616e-05
-0.000106625
-1.98357e-05
7.10092e-05
-3.64455e-05
-1.47279e-05
2.30543e-05
7.32188e-05
-0.000106527
-8.4627e-05
5.62927e-05
8.49855e-06
0.000152621
-0.000175482
1.23223e-05
-4.18386e-05
3.73846e-05
6.09193e-05
3.24445e-05
-2.08054e-05
-3.37398e-05
2.21006e-05
4.36359e-05
2.0231e-05
-3.76292e-05
7.00904e-06
6.71625e-05
3.1028e-05
0.00014539
-3.37171e-05
-0.000214465
1.25229e-05
0.000132536
7.56268e-06
-4.4446e-05
1.65407e-05
2.79053e-05
7.1783e-05
3.7513e-05
-8.62416e-05
2.04516e-05
4.54217e-05
7.86381e-06
-4.64886e-06
-2.70353e-05
-2.0347e-05
2.26541e-05
3.01374e-05
-2.72974e-06
6.1235e-05
2.19573e-05
-5.79583e-05
7.28536e-05
-4.62867e-06
-6.82249e-05
-2.63929e-05
1.15383e-05
1.18486e-05
3.07277e-05
-3.65914e-05
-3.46909e-05
1.50526e-05
-8.05282e-05
-1.81027e-05
9.86309e-05
-3.24126e-05
7.92755e-05
-0.000100842
1.80673e-05
-1.77597e-05
-1.25302e-05
-3.22324e-05
5.39254e-05
-2.66028e-05
2.07078e-05
-8.02908e-05
8.60694e-05
3.67563e-05
-0.000248396
0.000204831
4.06035e-05
4.7292e-05
-4.92863e-05
-0.000117717
0.000136714
-6.5947e-06
7.18552e-05
-3.94545e-05
1.21383e-05
4.8024e-05
-5.0744e-05
8.76423e-05
4.10426e-05
-4.87125e-05
-0.000100935
0.000101125
-2.49025e-05
2.47123e-05
5.64344e-05
-2.57595e-05
4.67655e-06
2.65713e-06
-1.12286e-05
-3.0883e-05
-2.23082e-05
3.59725e-05
2.50108e-05
-9.95474e-05
1.92867e-05
-2.06743e-05
-8.41215e-06
2.18639e-05
-3.12593e-05
-4.63744e-05
0.000104962
1.70111e-05
-4.63492e-06
7.85474e-06
7.77846e-05
-4.93099e-06
3.97175e-06
-5.38757e-05
-9.98202e-06
4.50683e-05
1.27733e-05
7.43597e-06
-1.26321e-05
-3.46738e-06
2.00304e-05
-9.26103e-05
-2.69674e-05
-1.40762e-05
1.83538e-05
-1.37873e-06
-4.30625e-05
-7.80108e-05
7.52639e-05
-6.30628e-05
7.31979e-05
-7.07417e-05
-5.8175e-05
5.57188e-05
-9.43406e-05
0.000232953
1.31008e-05
-0.000183351
-3.69314e-05
-5.55648e-06
0.000147165
-3.08869e-05
4.47804e-05
6.79965e-05
-3.99328e-05
7.42492e-05
0.000107514
-7.35007e-05
-1.95108e-05
3.74188e-05
1.1327e-05
-1.864e-05
4.70427e-05
5.94142e-05
-1.74074e-05
4.41031e-05
3.18485e-05
-9.78303e-05
-3.84624e-05
5.82215e-05
-5.44214e-05
-8.73118e-06
0.000211528
0.000113025
6.71299e-05
0.000144398
1.37428e-05
1.07662e-05
-5.46408e-06
4.23496e-06
-1.10193e-05
1.89566e-06
7.86986e-05
1.1472e-05
-7.01403e-05
-5.17441e-05
5.11298e-05
5.44754e-05
-1.18186e-05
8.80628e-06
-5.63132e-05
-9.29913e-05
-8.96421e-05
7.13787e-05
2.54138e-05
-1.9422e-05
-5.2394e-05
4.89245e-05
-2.79767e-06
-2.81333e-05
-4.43958e-08
1.07763e-05
-1.71306e-05
-1.27873e-06
-1.14506e-05
1.16576e-05
-1.76365e-05
-3.16503e-05
8.37891e-05
-1.61846e-05
-4.428e-06
-7.98175e-05
-2.7237e-05
8.33836e-05
5.36288e-05
-2.30152e-05
-0.000129434
1.86304e-05
0.000133819
-5.90306e-05
-4.75451e-05
-1.96539e-06
3.95285e-05
2.70112e-07
1.03126e-05
-3.14671e-06
-5.55251e-06
8.58935e-05
-8.74307e-05
2.28784e-06
-6.76023e-06
-1.25379e-05
-1.15279e-05
8.46505e-06
1.56007e-05
-1.23477e-05
5.10241e-06
2.07343e-06
0.000132259
-0.000168049
-7.27336e-05
2.23942e-06
2.53502e-05
-2.18147e-05
1.77151e-05
-2.96488e-05
-0.000101094
0.000107804
-2.24255e-05
-4.29182e-05
4.54161e-05
1.99277e-05
-5.78443e-06
-1.37267e-05
9.97587e-06
-1.17272e-05
-1.2275e-06
-0.000164103
-1.2566e-05
0.000153654
-8.29098e-06
-2.29326e-05
-1.72575e-05
-5.18917e-05
2.15253e-05
2.23373e-05
-1.20591e-05
-3.81726e-05
-7.768e-05
-9.17796e-05
-6.38021e-06
-0.0001142
5.58443e-06
-1.15683e-05
9.66053e-05
-9.06214e-05
5.04615e-05
-8.8514e-05
8.76305e-05
-7.57138e-05
-7.27079e-05
-4.60065e-05
5.29117e-06
-6.15931e-06
-0.000100905
-5.50096e-05
5.71933e-05
-6.011e-05
2.84111e-05
-2.64761e-05
-1.91093e-05
3.60834e-05
-1.69741e-05
-8.28651e-05
2.79293e-05
-9.93133e-05
-6.59669e-05
-7.32905e-05
-6.25334e-05
2.0688e-06
-6.09731e-06
-8.26845e-07
4.85535e-06
1.40861e-05
-2.61378e-05
5.21604e-05
-1.50005e-05
1.3467e-05
2.59549e-05
-1.27044e-05
-9.16802e-05
3.65936e-05
9.81054e-05
-2.10632e-05
7.0721e-05
7.80872e-05
2.72677e-06
7.0509e-05
-6.71057e-05
-6.13002e-06
-4.42242e-05
3.63272e-05
-7.85443e-05
-2.51182e-05
1.44288e-05
-2.0757e-07
1.0897e-05
-4.0401e-05
1.8497e-05
2.89161e-05
-2.64553e-05
-5.52261e-05
1.20241e-05
7.73705e-05
-1.66253e-05
4.04157e-05
5.18181e-06
6.79558e-06
-2.25523e-06
5.92107e-06
2.91437e-05
1.1171e-05
-1.50691e-05
5.80116e-05
-4.80569e-05
6.10545e-05
-4.34865e-05
4.03136e-06
3.74897e-05
-1.37288e-05
1.58315e-05
8.20985e-06
3.08166e-06
-6.04421e-05
-1.87477e-05
3.69799e-06
9.2208e-05
-2.13683e-05
2.02128e-05
2.03695e-05
2.58153e-05
-2.31007e-05
-6.14076e-05
5.31362e-05
-0.000110587
1.5488e-05
0.000174583
2.97571e-06
-9.5419e-05
-8.214e-05
9.60221e-07
5.89712e-05
0.000278629
-0.000270471
-8.40256e-05
4.10832e-05
0.000124303
-0.000248226
6.70771e-06
-1.04798e-05
-3.26576e-06
3.6497e-05
-4.34645e-05
-7.58977e-05
0.000163644
-6.82877e-05
-3.08645e-05
1.05765e-05
-1.34514e-05
3.99159e-05
1.71251e-05
-1.26156e-05
-8.43014e-06
6.88745e-06
-4.35083e-05
-2.42901e-05
3.3807e-05
-3.06219e-05
2.08345e-05
-4.60711e-05
-9.38307e-06
5.54541e-05
1.22619e-05
-2.39081e-05
3.39524e-05
1.86166e-05
7.45175e-05
-2.26251e-05
-4.71671e-05
3.2114e-05
-3.40903e-05
1.79724e-05
2.50214e-05
-2.21666e-05
-2.46207e-05
1.25358e-05
9.69357e-06
2.29944e-05
-2.11497e-05
1.3674e-05
-1.84522e-05
4.09992e-06
8.78794e-05
2.38405e-05
-9.96958e-05
-2.0048e-05
1.55345e-05
5.50409e-06
-4.44571e-06
-9.96224e-06
-5.37565e-06
-2.39868e-05
-1.37808e-05
4.53035e-05
-2.23842e-05
2.51246e-06
-1.56364e-05
-1.22383e-05
-9.7619e-05
-4.20373e-06
0.000150446
-0.000116756
0.000106687
-2.47118e-05
-1.95905e-05
-5.64541e-05
1.01048e-07
-5.4234e-05
0.000108969
3.31442e-05
-8.07507e-05
7.76646e-05
-4.21753e-05
0.000242276
-6.71374e-06
-5.80437e-06
-0.000229758
-2.15674e-05
-7.697e-06
1.03869e-05
-6.11545e-06
2.07499e-05
5.22284e-05
-3.84411e-05
-1.51165e-05
2.14141e-05
8.7965e-05
-2.09103e-05
4.0986e-05
3.36655e-06
-8.80183e-06
0.000177052
-5.29394e-05
-1.0948e-06
2.35299e-05
-2.10581e-05
-1.78935e-05
-8.86828e-05
5.82893e-05
-6.78242e-06
1.93013e-05
3.32887e-05
-3.52626e-05
-3.85563e-06
-9.98768e-06
0.00017103
-4.05315e-05
1.4782e-05
1.97073e-05
2.44685e-05
-3.9501e-05
-4.67478e-06
6.71055e-06
3.19496e-05
-3.19582e-05
-6.70193e-06
4.44674e-05
-1.00663e-05
6.54345e-06
-1.99666e-05
-2.71136e-05
7.28696e-05
-8.49392e-05
-1.86101e-05
3.06798e-05
-4.07204e-06
-3.65867e-05
1.77091e-05
2.29497e-05
9.50051e-05
1.70457e-05
4.12773e-07
-1.68961e-05
1.93761e-05
-1.43304e-05
3.58671e-05
7.68036e-05
-3.81533e-05
1.45061e-05
-5.01858e-06
1.20191e-05
-1.5064e-05
-5.1821e-05
-4.89625e-05
5.72752e-05
6.53829e-05
3.78101e-05
-6.5108e-05
-2.26301e-05
2.97005e-05
4.4415e-05
1.8788e-06
-2.17794e-05
2.74845e-06
-7.22524e-05
9.87313e-05
-8.08838e-05
-1.78475e-05
-0.000167161
2.02154e-05
1.71907e-05
-1.85209e-05
-3.32523e-05
9.79091e-05
8.59813e-05
-2.74435e-05
1.6373e-05
6.00369e-05
-5.59404e-05
1.95191e-05
-3.57782e-05
5.5077e-05
2.26212e-05
-1.29707e-05
2.38153e-05
1.63753e-05
2.28488e-06
-1.09982e-05
-1.7663e-05
2.94542e-05
-0.000159654
-4.2433e-05
6.14954e-05
4.07657e-05
1.26699e-05
-4.35923e-06
4.24413e-05
3.0838e-05
-1.16618e-05
-3.08306e-05
-0.000109221
3.44596e-05
2.93496e-05
4.20314e-05
2.17548e-05
-5.86115e-05
2.24007e-06
6.01148e-05
3.00608e-05
2.08911e-05
1.48149e-05
-2.35245e-05
4.74348e-05
-7.48973e-05
-3.50354e-05
-9.9666e-05
7.84136e-05
-1.23271e-05
-1.61059e-05
-1.0577e-05
5.37323e-06
2.13096e-05
9.53939e-06
-1.65341e-05
8.97087e-06
-6.47496e-05
1.55676e-05
2.88663e-05
2.2543e-06
1.29176e-05
-1.98784e-05
-4.52976e-05
-1.97867e-06
3.45862e-05
2.70875e-05
1.5526e-05
-1.63257e-06
-6.00999e-07
2.23357e-06
-5.70461e-06
0.000262012
2.34017e-05
-5.30074e-05
-0.000232406
-2.71992e-06
-1.68074e-05
1.11028e-05
-4.83844e-05
-0.000139285
7.29331e-06
1.90856e-05
1.95324e-06
-4.67316e-06
-1.40886e-05
-2.71872e-06
-4.26898e-05
2.13828e-05
2.13071e-05
0.000162883
-8.49327e-05
-7.79503e-05
7.73296e-05
-4.59124e-05
-7.3407e-05
6.12973e-06
4.25716e-06
-5.73396e-05
3.51009e-05
5.61301e-05
-3.38914e-05
-4.08714e-05
-5.69267e-05
6.65869e-06
-3.56791e-05
3.68271e-05
-0.000102053
-5.37961e-06
1.11042e-05
-5.72456e-06
1.1417e-05
1.68524e-05
9.09333e-06
2.30101e-06
-1.36496e-05
1.68142e-05
0.000179795
7.79267e-05
0.000206984
-0.000138336
0.000149245
1.72523e-05
-9.04919e-05
-4.87257e-05
-1.4099e-05
-1.64141e-05
-3.42363e-06
5.24812e-07
3.0182e-06
-3.54302e-06
3.01353e-05
2.882e-05
-4.34208e-05
7.95942e-06
-3.60574e-06
-2.49259e-05
3.70542e-05
1.31449e-06
-5.09182e-05
-1.36809e-06
-1.92775e-05
-1.34407e-05
-4.8548e-06
-7.70191e-05
1.44129e-05
9.06045e-05
-2.79982e-05
-2.58664e-05
2.35055e-05
2.3897e-05
-2.15362e-05
9.86867e-05
-0.000134213
0.000102579
-8.79802e-05
7.7358e-05
-6.13608e-07
1.18364e-05
1.52824e-06
-6.65413e-06
-1.17994e-05
1.54177e-05
1.19265e-05
-2.26945e-05
-5.46149e-05
-4.40898e-05
5.23302e-05
-0.000389357
0.000185782
-1.94468e-05
9.526e-06
-4.65478e-06
4.2552e-06
-9.12384e-05
9.63476e-05
-1.12392e-05
-9.05578e-06
3.5495e-05
-8.83672e-06
-2.66582e-05
7.87189e-05
3.71362e-05
-4.29855e-05
3.28601e-05
1.54474e-05
-4.02586e-05
-5.87175e-06
1.62601e-05
1.0969e-05
2.81985e-05
-3.66913e-05
-7.0282e-05
3.24105e-05
2.80487e-05
-0.000166966
2.21063e-05
1.38696e-05
-5.40393e-05
-2.76846e-06
-4.10999e-05
-3.26046e-05
1.76643e-05
-8.30337e-05
7.66084e-07
-2.49789e-05
1.2842e-05
-4.26722e-05
-2.90576e-05
0.000127789
6.93015e-05
-8.66066e-05
-7.88028e-05
-2.63968e-06
6.24488e-05
9.8714e-05
-2.49915e-05
1.90822e-05
-2.57351e-05
-0.000302751
0.000323829
1.68275e-05
2.5204e-05
5.56459e-05
6.70048e-05
-9.92658e-05
0.000101562
-7.29118e-05
-1.29114e-05
1.05497e-05
-6.98576e-06
2.19063e-06
-6.64709e-05
-9.94853e-05
0.000124622
-0.000115154
8.51723e-05
-4.58065e-05
7.36475e-05
-2.22295e-05
-2.18979e-05
2.80122e-05
-2.42754e-05
-5.04943e-06
-7.5656e-05
8.12405e-05
-7.02572e-05
-5.39884e-06
2.13921e-05
-4.62372e-05
-0.000108697
0.000133542
2.28569e-05
1.79367e-06
-1.66154e-05
2.82362e-05
3.54725e-06
-1.51681e-05
5.1784e-05
-0.000105499
6.73144e-05
-1.35995e-05
3.40686e-07
-2.7299e-05
-3.46163e-05
-9.61294e-05
-1.96669e-05
-7.8817e-05
-5.16052e-06
0.000103443
-7.4957e-05
-4.39696e-06
-6.54276e-06
1.49684e-05
1.06566e-05
8.328e-07
1.84081e-05
2.2692e-05
-6.28511e-06
-1.2547e-05
-9.47742e-06
-4.11872e-06
-3.01925e-06
-5.74191e-05
4.21529e-05
-0.00019204
0.000128681
-5.1958e-05
2.6474e-05
3.38416e-05
-2.06923e-05
-1.77982e-05
5.29728e-05
5.65556e-05
-3.4047e-05
2.84709e-05
2.52834e-05
6.76196e-07
-1.1049e-05
-2.26356e-05
-6.44203e-05
6.82862e-06
8.22546e-05
4.02308e-05
-2.35502e-05
-2.6735e-05
-0.000108206
4.91795e-05
5.08354e-06
2.3246e-05
-3.80632e-05
-3.71408e-05
-3.45359e-05
-4.40142e-05
-1.4038e-05
-7.51856e-05
1.18674e-05
1.23022e-05
-1.49788e-05
2.41963e-05
-4.5625e-06
-6.25406e-06
3.8308e-06
1.4967e-05
2.10171e-05
1.78555e-05
-9.27458e-05
5.77111e-05
-5.27631e-05
-8.3765e-05
2.6193e-06
-4.0262e-05
7.7959e-05
2.83708e-05
9.0964e-07
0.000100436
-2.76793e-05
-2.0945e-05
1.37421e-05
-5.02139e-05
5.81019e-06
-5.84805e-05
0.000236895
0.000272717
3.46437e-05
2.17134e-05
-3.12061e-05
1.15531e-05
-3.1137e-05
8.23956e-05
-6.06434e-05
2.93908e-05
-5.12206e-05
4.43621e-05
5.95832e-07
8.12818e-06
-1.48718e-05
-1.38295e-05
1.43492e-05
-4.93236e-06
1.93174e-05
1.18064e-05
-2.61914e-05
-3.33801e-05
5.17472e-05
1.1344e-08
-1.15072e-05
-3.54691e-06
1.56048e-05
-3.04831e-05
0.000192026
0.000184908
-6.98492e-05
-9.71268e-05
6.80095e-05
3.28152e-05
-0.000120827
2.74274e-05
-0.000106352
6.92056e-06
-1.79324e-05
2.05942e-05
5.81555e-05
3.23271e-05
7.02219e-05
-5.27727e-06
-4.45034e-05
-2.38651e-05
2.13413e-05
2.35408e-05
-7.06218e-06
1.02054e-05
-7.11244e-06
8.57244e-05
-8.21076e-05
5.74919e-05
-5.5035e-05
-4.47377e-05
-4.79525e-05
-1.33748e-05
0.000152541
1.16246e-05
4.03545e-06
-7.88012e-05
4.37175e-05
3.50837e-05
-1.40252e-05
4.42315e-06
-7.61666e-06
3.19351e-06
3.09814e-06
-3.73773e-05
3.86997e-05
6.91117e-05
-2.43579e-05
2.10455e-05
-2.72733e-05
1.29683e-06
-3.61463e-05
7.17566e-05
-7.8342e-05
8.96227e-05
0.000111974
-2.45864e-05
-4.10584e-06
3.55014e-06
3.11601e-05
-2.71619e-05
-3.5178e-06
-0.000135044
-5.33982e-05
6.2727e-05
-5.28029e-05
0.000258535
-2.38274e-05
-6.36993e-07
6.15129e-06
-1.35012e-07
2.69337e-05
-2.75184e-05
2.4764e-05
-4.15673e-05
3.74022e-05
4.16503e-06
-4.0742e-05
-8.25262e-07
3.63669e-05
-2.88838e-05
-7.48316e-06
-4.37507e-06
0.000141708
-0.00016142
1.97123e-05
0.000107954
3.37532e-05
-0.000160648
-0.000146498
-1.415e-05
2.94357e-05
-0.000141563
-4.9346e-06
-0.000144327
2.76362e-06
1.96895e-05
9.74616e-06
1.10777e-05
4.29525e-06
3.62815e-05
7.53623e-05
-7.71019e-07
5.06627e-06
3.65213e-06
-4.44475e-06
3.06969e-05
1.6716e-05
-2.9397e-06
1.02157e-05
6.97154e-05
3.27885e-06
-7.29943e-05
-0.000142326
-2.25304e-05
4.2051e-05
-3.67659e-05
3.25746e-05
-9.84536e-06
1.75015e-05
-1.01074e-05
1.7713e-05
2.25764e-05
5.75239e-06
2.94675e-05
-4.14364e-06
0.000123906
-2.61345e-06
2.43357e-06
-3.77409e-05
5.53698e-05
-1.76289e-05
2.16588e-05
-2.4966e-05
-7.63859e-06
-0.00012223
0.000117316
-7.07736e-05
1.02186e-05
4.76127e-05
-2.19197e-05
-1.58212e-05
1.72559e-05
2.82139e-06
-6.40933e-06
2.89203e-05
-0.000131773
-1.05531e-05
-4.77613e-05
-1.58722e-05
3.2769e-05
3.97144e-05
0.000209243
0.000159263
0.000158668
-3.18733e-06
-2.68034e-05
1.55645e-05
-1.97228e-05
-1.49439e-05
-7.05669e-05
6.83187e-05
4.33305e-05
-2.06343e-05
1.20824e-05
2.87668e-05
5.29142e-05
1.56263e-05
0.000176486
-0.000179128
3.05254e-06
1.97914e-05
7.46507e-05
-1.92809e-05
-0.000114979
-1.67942e-05
9.26105e-05
-2.56562e-05
9.03358e-06
-7.97033e-06
-6.10567e-05
-0.000139702
-0.00024751
9.35866e-05
-1.89359e-05
-8.27255e-06
-3.0637e-05
-1.69568e-05
5.46532e-05
3.87414e-05
-8.28838e-05
0.000232728
-5.06895e-05
-1.33497e-05
3.58357e-05
-5.97676e-06
-5.02214e-06
1.31503e-05
-6.51751e-06
1.55511e-05
5.7765e-05
-6.14828e-05
3.01917e-05