# vtk DataFile Version 2.0
track0
ASCII
DATASET POLYDATA
POINTS 12511 double
1.66533e-17 0.5 -5.37764e-17
0.391304 0.5 0
0.393043 0.493977 -5.55112e-17
0.395102 0.488056 -5.55112e-17
0.397464 0.482249 -5.55112e-17
0.4 0.476833 -1.11022e-16
0.40815 0.461466 -8.32667e-17
0.418586 0.44755 -1.11022e-16
0.431059 0.435426 -5.55112e-17
0.445252 0.425371 -6.245e-17
0.495442 0.4 -1.66533e-16
0.496354 0.399999 -2.22045e-16
0.496454 0.4 -1.66533e-16
0.497163 0.400005 -1.66533e-16
0.497873 0.400015 -2.22045e-16
0.498582 0.400028 -1.66533e-16
0.499291 0.400046 -1.66533e-16
0.5 0.400068 -5.62701e-17
0.52 0.400796 0
0.539549 0.405081 -6.93889e-17
0.558003 0.412827 0
0.574797 0.423711 1.11022e-16
0.6 0.446884 1.66533e-16
0.606353 0.457508 1.52656e-16
0.611731 0.468656 1.38778e-16
0.616158 0.480215 1.11022e-16
0.619667 0.492085 1.249e-16
0.621396 0.5 1.11022e-16
0.624814 0.52 1.11022e-16
0.626048 0.540252 1.38778e-16
0.624994 0.560515 1.38778e-16
0.621586 0.580517 1.97758e-16
0.615829 0.6 1.66533e-16
0.612663 0.607326 1.11022e-16
0.609112 0.614473 9.71445e-17
0.605169 0.621412 1.66533e-16
0.600829 0.62811 2.22045e-16
0.6 0.629234 2.22045e-16
0.589325 0.643387 1.249e-16
0.576812 0.655945 1.11022e-16
0.562678 0.666645 1.38778e-16
0.54723 0.675342 1.11022e-16
0.5 0.694892 1.11022e-16
0.485212 0.695914 5.55112e-17
0.470389 0.695793 8.32667e-17
0.455615 0.694588 1.17961e-16
0.44097 0.692296 1.66533e-16
0.4 0.682709 2.22045e-16
0.38 0.673024 2.22045e-16
0.361393 0.660876 2.35922e-16
0.344491 0.64645 2.32453e-16
0.329616 0.629942 2.15973e-16
0.309409 0.6 3.05311e-16
0.307527 0.594997 2.84495e-16
0.305813 0.589934 3.33067e-16
0.304251 0.584821 3.33067e-16
0.302836 0.579666 2.77556e-16
0.3 0.568069 2.77556e-16
0.297562 0.554455 2.77556e-16
0.296118 0.5407 2.77556e-16
0.295643 0.526878 2.498e-16
0.29611 0.513056 2.22045e-16
0.297415 0.5 2.22045e-16
0.297932 0.496773 2.22045e-16
0.298489 0.493553 2.22045e-16
0.299089 0.49034 2.77556e-16
0.299731 0.487135 2.77556e-16
0.3 0.485877 2.22045e-16
0.303769 0.468701 2.498e-16
0.308821 0.451859 2.77556e-16
0.315158 0.435457 2.77556e-16
0.322764 0.419603 2.77556e-16
0.334172 0.4 2.77556e-16
0.347337 0.382161 2.22045e-16
0.362279 0.36578 2.08167e-16
0.378825 0.351022 3.33067e-16
0.396778 0.338011 2.35922e-16
0.4 0.336165 1.66533e-16
0.41319 0.328932 1.94289e-16
0.426904 0.322749 2.498e-16
0.441038 0.317598 2.22045e-16
0.455487 0.31341 1.66533e-16
0.5 0.303724 1.94289e-16
0.52 0.303571 1.11022e-16
0.539923 0.30533 1.249e-16
0.559581 0.309014 1.66533e-16
0.57878 0.314623 1.11022e-16
0.6 0.323177 1.38778e-16
0.62 0.334679 1.94289e-16
0.638238 0.34881 1.52656e-16
0.654531 0.365146 1.66533e-16
0.668596 0.383435 1.66533e-16
0.67828 0.4 2.22045e-16
0.682624 0.409424 1.66533e-16
0.68655 0.419029 2.22045e-16
0.690083 0.428786 2.77556e-16
0.693247 0.438668 2.498e-16
0.7 0.462704 2.77556e-16
0.701454 0.470163 3.05311e-16
0.70274 0.477654 3.33067e-16
0.703861 0.48517 2.77556e-16
0.704821 0.492709 2.77556e-16
0.705597 0.5 2.77556e-16
0.707382 0.52 2.22045e-16
0.708167 0.540064 2.22045e-16
0.707876 0.560142 1.66533e-16
0.706489 0.580173 1.66533e-16
0.703997 0.6 1.66533e-16
0.703198 0.604373 2.08167e-16
0.702345 0.608737 2.08167e-16
0.70143 0.613087 2.08167e-16
0.700449 0.617423 1.66533e-16
0.7 0.619274 2.22045e-16
0.695971 0.635419 2.22045e-16
0.690964 0.651288 2.77556e-16
0.684915 0.666791 2.77556e-16
0.67777 0.681819 3.33067e-16
0.667318 0.7 4.44089e-16
0.653855 0.718403 3.88578e-16
0.637973 0.734766 4.30211e-16
0.619942 0.748725 4.996e-16
0.600334 0.760363 4.16334e-16
0.6 0.760509 3.88578e-16
0.581866 0.768407 3.88578e-16
0.56301 0.774383 3.88578e-16
0.543726 0.778781 4.44089e-16
0.524194 0.781902 3.81639e-16
0.5 0.784225 3.33067e-16
0.48 0.784475 3.88578e-16
0.460023 0.783486 3.747e-16
0.440116 0.781543 4.16334e-16
0.420327 0.778637 3.88578e-16
0.4 0.774613 3.88578e-16
0.38 0.769183 3.88578e-16
0.36038 0.76251 3.46945e-16
0.341205 0.754647 3.33067e-16
0.322563 0.745593 3.88578e-16
0.3 0.732083 4.44089e-16
0.291819 0.725666 3.88578e-16
0.283913 0.718914 3.88578e-16
0.276295 0.711838 3.88578e-16
0.269028 0.704401 3.88578e-16
0.265149 0.7 4.71845e-16
0.252119 0.684298 4.71845e-16
0.240879 0.667269 4.996e-16
0.231464 0.649167 4.71845e-16
0.2237 0.630297 5.13478e-16
0.214066 0.6 6.10623e-16
0.211253 0.584114 6.10623e-16
0.20942 0.568086 5.82867e-16
0.20833 0.55199 5.55112e-16
0.207973 0.535862 5.55112e-16
0.208782 0.5 5.41234e-16
0.211279 0.48 4.996e-16
0.214862 0.460166 4.71845e-16
0.219387 0.440525 4.16334e-16
0.224872 0.421131 3.88578e-16
0.232053 0.4 3.88578e-16
0.24051 0.38 3.88578e-16
0.25019 0.360562 4.365e-16
0.26104 0.341753 4.30211e-16
0.273128 0.323714 4.44089e-16
0.291765 0.3 3.88578e-16
0.293412 0.298343 3.88578e-16
0.29507 0.296697 3.33067e-16
0.29674 0.295063 3.88578e-16
0.298422 0.29344 3.88578e-16
0.3 0.291941 4.44089e-16
0.319639 0.273553 4.16334e-16
0.341099 0.257328 4.16334e-16
0.364113 0.243394 4.30211e-16
0.388341 0.231698 4.16334e-16
0.4 0.227371 4.44089e-16
0.417058 0.221897 4.3715e-16
0.434436 0.217542 4.16334e-16
0.452017 0.214096 3.88578e-16
0.469744 0.211507 3.88578e-16
0.5 0.208552 3.46945e-16
0.52 0.208354 3.33067e-16
0.539978 0.209313 2.77556e-16
0.559874 0.211356 2.77556e-16
0.579627 0.214499 2.22045e-16
0.6 0.218922 3.05311e-16
0.62 0.225082 3.88578e-16
0.639425 0.232868 3.60822e-16
0.658162 0.242188 3.19189e-16
0.676086 0.252991 2.77556e-16
0.7 0.271658 2.498e-16
0.705089 0.277326 2.77556e-16
0.709975 0.283171 3.33067e-16
0.714659 0.289178 2.498e-16
0.719129 0.295347 2.77556e-16
0.722231 0.3 3.33067e-16
0.734775 0.32 3.88578e-16
0.745219 0.341173 4.02456e-16
0.753899 0.363128 3.81639e-16
0.761017 0.385638 3.60822e-16
0.764556 0.4 4.44089e-16
0.768697 0.42 4.44089e-16
0.772014 0.440153 4.02456e-16
0.774715 0.460398 4.16334e-16
0.776946 0.4807 4.44089e-16
0.778588 0.5 4.44089e-16
0.779619 0.52 4.44089e-16
0.780004 0.540023 5.27356e-16
0.780009 0.560049 4.996e-16
0.779631 0.580072 4.996e-16
0.77886 0.6 5.55112e-16
0.777396 0.62 5.55112e-16
0.775153 0.639928 6.10623e-16
0.772307 0.659778 6.38378e-16
0.768831 0.679528 6.66134e-16
0.764351 0.7 7.77156e-16
0.758737 0.72 7.21645e-16
0.751732 0.739557 7.91034e-16
0.743217 0.758504 7.87564e-16
0.733068 0.776629 7.35523e-16
0.716627 0.8 6.66134e-16
0.713301 0.803347 6.10623e-16
0.709879 0.806595 6.10623e-16
0.706361 0.809739 6.66134e-16
0.702767 0.812796 6.245e-16
0.7 0.815055 6.10623e-16
0.68 0.830873 5.27356e-16
0.657782 0.843385 4.996e-16
0.634027 0.852653 5.16948e-16
0.609542 0.859771 4.57967e-16
0.6 0.861877 4.44089e-16
0.58 0.865757 3.88578e-16
0.559771 0.868176 4.16334e-16
0.539449 0.869611 4.02456e-16
0.519096 0.870514 3.60822e-16
0.5 0.870789 4.996e-16
0.48 0.870395 4.44089e-16
0.460033 0.86918 4.44089e-16
0.440108 0.867404 4.57967e-16
0.420221 0.865243 5.27356e-16
0.4 0.86244 5.55112e-16
0.38 0.858835 6.10623e-16
0.360115 0.85464 5.55112e-16
0.340353 0.849901 5.41234e-16
0.320763 0.844495 5.27356e-16
0.3 0.837532 4.57967e-16
0.281945 0.830026 3.88578e-16
0.26414 0.821946 4.44089e-16
0.246766 0.812975 4.30211e-16
0.230091 0.802763 3.88578e-16
0.226301 0.8 3.88578e-16
0.221041 0.795998 3.33067e-16
0.215905 0.791839 2.77556e-16
0.210897 0.787525 2.22045e-16
0.206028 0.783056 2.77556e-16
0.2 0.777104 3.33067e-16
0.185809 0.761683 3.33067e-16
0.173231 0.744922 2.70617e-16
0.16232 0.72703 2.22045e-16
0.152897 0.708311 1.11022e-16
0.149388 0.7 1.11022e-16
0.141616 0.68 1.11022e-16
0.135857 0.65933 9.71445e-17
0.131668 0.638286 1.11022e-16
0.128313 0.617093 5.55112e-17
0.126365 0.6 0
0.124873 0.58 1.38778e-17
0.124563 0.559947 1.38778e-17
0.124876 0.539894 0
0.125679 0.519854 2.77556e-17
0.127021 0.5 0
0.129153 0.48 0
0.132073 0.4601 -2.77556e-17
0.135578 0.440294 -2.77556e-17
0.139524 0.420572 4.16334e-17
0.144422 0.4 5.55112e-17
0.150229 0.38 1.95156e-17
0.156638 0.360185 -2.77556e-17
0.163615 0.340562 2.77556e-17
0.171496 0.321285 0
0.1816 0.3 0
0.18528 0.293509 0
0.189028 0.287057 -5.55112e-17
0.192853 0.28065 -5.55112e-17
0.196801 0.274319 -1.11022e-16
0.2 0.26941 -1.38778e-16
0.209368 0.255528 -1.59595e-16
0.219509 0.242201 -2.77556e-16
0.230418 0.229494 -2.22045e-16
0.242071 0.217466 -3.05311e-16
0.261409 0.2 -2.35922e-16
0.269127 0.194427 -2.22045e-16
0.27701 0.189091 -1.66533e-16
0.285049 0.18399 -1.11022e-16
0.293228 0.17912 -1.66533e-16
0.3 0.175293 -2.22045e-16
0.32 0.16448 -2.498e-16
0.340857 0.155429 -2.35922e-16
0.362349 0.148012 -2.42861e-16
0.384234 0.141851 -2.22045e-16
0.4 0.138192 -1.66533e-16
0.42 0.134263 -2.22045e-16
0.440191 0.131482 -2.22045e-16
0.46048 0.129529 -1.94289e-16
0.480811 0.128091 -2.22045e-16
0.5 0.12735 -1.66533e-16
0.52 0.127388 -2.22045e-16
0.539982 0.128243 -1.66533e-16
0.55993 0.12968 -1.11022e-16
0.579838 0.131597 -1.11022e-16
0.6 0.134341 -1.11022e-16
0.62 0.138317 -1.38778e-16
0.639817 0.143123 -1.59595e-16
0.659429 0.148707 -1.31839e-16
0.678721 0.155312 -1.11022e-16
0.7 0.164927 -1.38778e-16
0.711453 0.171941 -1.38778e-16
0.722582 0.179461 -1.80411e-16
0.733337 0.187505 -1.94289e-16
0.743362 0.196442 -1.11022e-16
0.74672 0.2 -9.02056e-17
0.757376 0.212013 -1.11022e-16
0.766921 0.224927 -5.55112e-17
0.775446 0.238536 0
0.782885 0.252768 -1.66533e-16
0.8 0.29236 -2.22045e-16
0.800401 0.293888 -2.22045e-16
0.800796 0.295417 -1.66533e-16
0.801186 0.296948 -2.22045e-16
0.80157 0.29848 -2.29851e-16
0.801946 0.3 -2.22045e-16
0.80684 0.32 -2.22045e-16
0.810893 0.340187 -1.66533e-16
0.814228 0.360505 -1.80411e-16
0.816954 0.380914 -1.66533e-16
0.819012 0.4 -1.66533e-16
0.82098 0.42 -2.22045e-16
0.822754 0.440018 -2.498e-16
0.824152 0.460066 -2.63678e-16
0.825184 0.480136 -2.84495e-16
0.825931 0.5 -2.77556e-16
0.826608 0.52 -3.60822e-16
0.827186 0.540003 -4.16334e-16
0.827508 0.560012 -4.16334e-16
0.827485 0.580023 -4.44089e-16
0.827201 0.6 -3.88578e-16
0.826786 0.62 -4.44089e-16
0.826232 0.639997 -4.44089e-16
0.825357 0.659982 -4.996e-16
0.824037 0.679942 -5.55112e-16
0.822251 0.7 -5.55112e-16
0.820089 0.72 -4.996e-16
0.817542 0.739955 -5.27356e-16
0.814282 0.759805 -5.13478e-16
[...]
POINT_DATA 12511
 FIELD attributes 1
U 3 12511 float
2.47734e-19 	-4.41176e-18 	-2.35232e-36
0.00267249 	-0.0092554 	0 0.00320116 	-0.00920632 	0 0.00366845 	-0.00902107 	5.46255e-23 0.00411736 	-0.00879247 	1.1795e-22 0.0045335 	-0.00854736 	1.79592e-22 0.0058825 	-0.00784452 	2.35531e-22 0.007147 	-0.00694726 	2.62513e-22 0.00829608 	-0.00587693 	2.59811e-22 0.00907297 	-0.00458641 	3.19679e-22 0.010941 	-8.06133e-06 	4.76765e-22 0.0109433 	7.31532e-05 	4.73932e-22 0.0109435 	8.21093e-05 	4.73601e-22 0.0109448 	0.000145271 	4.71318e-22 0.0109459 	0.000208413 	4.68984e-22 0.0109467 	0.000271531 	4.666e-22 0.0109473 	0.000334624 	4.64165e-22 0.0109465 	0.000398481 	4.62202e-22 0.0107014 	0.00234608 	3.66332e-22 0.0102176 	0.00428866 	2.56093e-22 0.00950928 	0.00616298 	1.34918e-22 0.00860379 	0.00791083 	6.89797e-24 0.00643499 	0.0107601 	0 0.00561096 	0.0116328 	0 0.00475089 	0.0124021 	0 0.00386342 	0.0130693 	0 0.00295206 	0.0135162 	1.65502e-22 0.00234605 	0.0137262 	3.01303e-22 0.000873359 	0.014332 	6.77964e-23 -0.000755546 	0.01452 	0 -0.00244942 	0.0143738 	0 -0.00411082 	0.0139135 	2.56569e-24 -0.00560236 	0.0129644 	1.93171e-23 -0.00624998 	0.0125767 	6.51335e-24 -0.00687824 	0.0121056 	0 -0.00748456 	0.0115496 	0 -0.00807846 	0.0109555 	0 -0.00817976 	0.010845 	0 -0.00959275 	0.00962752 	0 -0.0109339 	0.00827726 	0 -0.0121398 	0.0068349 	0 -0.0130406 	0.00539788 	0 -0.0152088 	0.00105061 	0 -0.015337 	-0.000125012 	-2.52551e-22 -0.0152978 	-0.00124736 	-5.99499e-22 -0.0151807 	-0.00237652 	-9.19724e-22 -0.0149855 	-0.00350642 	-1.21122e-21 -0.0139399 	-0.00675023 	-1.95183e-21 -0.013073 	-0.00853506 	-1.25131e-21 -0.0119914 	-0.0102354 	-5.2553e-22 -0.0105569 	-0.0117159 	-9.4626e-23 -0.0087627 	-0.0129841 	-1.57207e-23 -0.00553171 	-0.0147073 	0 -0.00507314 	-0.0149812 	0 -0.00463686 	-0.015182 	0 -0.00421267 	-0.0153374 	0 -0.00378606 	-0.0154842 	0 -0.00282864 	-0.015793 	0 -0.00169516 	-0.0161466 	0 -0.000563424 	-0.0164216 	0 0.000560951 	-0.0166192 	0 0.00167291 	-0.016741 	0 0.00267403 	-0.0166879 	-3.70774e-23 0.00289394 	-0.0167112 	3.62296e-24 0.00310564 	-0.0166388 	1.5436e-23 0.00331678 	-0.0165632 	2.73567e-23 0.0035273 	-0.0164844 	3.93835e-23 0.00360997 	-0.0164521 	4.41614e-23 0.00482572 	-0.0160868 	8.6082e-23 0.00604736 	-0.0156523 	1.22948e-22 0.00726786 	-0.0151494 	1.5442e-22 0.00845617 	-0.0145311 	2.04717e-22 0.0097673 	-0.0132346 	4.70733e-22 0.0112109 	-0.01229 	7.83801e-22 0.0125772 	-0.0112181 	1.08446e-21 0.0133661 	-0.00968752 	1.27186e-21 0.013997 	-0.00801706 	1.42996e-21 0.0140843 	-0.00772326 	1.45314e-21 0.0148648 	-0.00670261 	1.67343e-21 0.0155171 	-0.00565515 	1.80412e-21 0.0158055 	-0.00458051 	1.62204e-21 0.0160662 	-0.00349599 	1.4463e-21 0.0166645 	-0.000127827 	8.83673e-22 0.0164966 	0.00145673 	6.87836e-22 0.0161711 	0.00303077 	4.92703e-22 0.0157828 	0.00461065 	2.82627e-22 0.0153343 	0.00618116 	5.93771e-23 0.014261 	0.00820208 	0 0.0134338 	0.0104082 	0 0.0124759 	0.0125096 	0 0.0111238 	0.0144643 	3.40158e-22 0.00949697 	0.016244 	8.99464e-22 0.00809659 	0.0175645 	1.35323e-21 0.00747314 	0.0182844 	1.26542e-21 0.00684786 	0.0189131 	1.2458e-21 0.00622114 	0.0194302 	1.32535e-21 0.00559638 	0.0199188 	1.39294e-21 0.0040997 	0.0210267 	1.52775e-21 0.00366467 	0.0213546 	1.54393e-21 0.0032304 	0.0216642 	1.55535e-21 0.00279709 	0.021956 	1.56216e-21 0.0023649 	0.0222304 	1.56447e-21 0.00198897 	0.0222811 	1.47625e-21 0.000884155 	0.0225812 	1.43462e-21 -0.000327987 	0.0225544 	1.20674e-21 -0.00155091 	0.0224043 	9.37286e-22 -0.00278117 	0.0221292 	6.26364e-22 -0.00394124 	0.0215609 	1.35593e-22 -0.00418889 	0.0214481 	-3.4241e-23 -0.00446488 	0.0212082 	-2.9723e-23 -0.00474223 	0.0209622 	-2.25902e-23 -0.00502094 	0.02071 	-1.27785e-23 -0.00514087 	0.0205992 	-7.40032e-24 -0.00622749 	0.0197373 	-9.86009e-23 -0.00733961 	0.0188126 	-1.83768e-22 -0.00847472 	0.0178236 	-2.62021e-22 -0.00961996 	0.0167343 	-3.27457e-22 -0.011028 	0.0150742 	-3.69933e-22 -0.0129332 	0.0133246 	-1.94814e-22 -0.0147829 	0.011445 	-1.76242e-23 -0.0159133 	0.00944457 	0 -0.0168804 	0.00739116 	0 -0.0168942 	0.00735807 	0 -0.0183373 	0.00581188 	0 -0.0193467 	0.00441234 	0 -0.0198931 	0.00317832 	0 -0.0204202 	0.00196047 	0 -0.0204565 	0.000256046 	0 -0.020988 	-0.00103896 	-1.68224e-22 -0.0208367 	-0.00203404 	-8.82011e-22 -0.0206717 	-0.00303573 	-1.55728e-21 -0.0204545 	-0.00404859 	-2.2164e-21 -0.0193465 	-0.00525311 	-3.40389e-21 -0.0192637 	-0.00655202 	-5.8799e-21 -0.0190145 	-0.00779667 	-8.09578e-21 -0.0181322 	-0.00880702 	-8.97383e-21 -0.0164393 	-0.00984336 	-7.50186e-21 -0.0142851 	-0.0112039 	-5.65479e-21 -0.0138641 	-0.0118404 	-6.10746e-21 -0.0134344 	-0.0124785 	-6.53078e-21 -0.0126869 	-0.0129833 	-5.95299e-21 -0.0118571 	-0.0134551 	-5.10745e-21 -0.0113852 	-0.0137201 	-4.60967e-21 -0.0100115 	-0.0151663 	-3.10934e-21 -0.00865277 	-0.0166367 	-1.50067e-21 -0.00724956 	-0.0176212 	-1.35409e-21 -0.0058553 	-0.018414 	-1.729e-21 -0.00339476 	-0.0191689 	-2.71289e-21 -0.00227409 	-0.0198864 	-2.36663e-21 -0.00135924 	-0.0200639 	-2.17463e-21 -0.000447199 	-0.0202381 	-1.94738e-21 0.000460163 	-0.0204087 	-1.68586e-21 0.00255342 	-0.0204539 	-1.30813e-21 0.00369949 	-0.0204785 	-1.00074e-21 0.00463076 	-0.0201007 	-6.93295e-22 0.00558085 	-0.0197307 	-3.73138e-22 0.00653694 	-0.0192357 	-8.25861e-23 0.00754087 	-0.0178333 	-1.84182e-23 0.00874991 	-0.0175713 	-4.82137e-24 0.00996232 	-0.0172705 	1.5508e-23 0.0109553 	-0.0163483 	2.14412e-22 0.0117235 	-0.0149171 	5.24446e-22 0.0127446 	-0.0128243 	9.7204e-22 0.0128518 	-0.0127539 	9.91681e-22 0.0129592 	-0.0126836 	1.01145e-21 0.0130411 	-0.0125792 	1.03043e-21 0.013098 	-0.0124419 	1.04866e-21 0.0131514 	-0.0123141 	1.06577e-21 0.0144937 	-0.0109576 	1.62828e-21 0.0159412 	-0.00965229 	2.24328e-21 0.0166991 	-0.00806133 	2.19325e-21 0.0169696 	-0.00629774 	1.66753e-21 0.0170804 	-0.00548124 	1.42198e-21 0.017957 	-0.00449932 	1.45838e-21 0.0183016 	-0.00358802 	1.29552e-21 0.0185124 	-0.0027035 	1.08802e-21 0.0187396 	-0.00183042 	8.94721e-22 0.0188287 	-0.000186214 	4.77002e-22 0.0188734 	0.000906281 	3.13416e-22 0.0186241 	0.00191188 	2.21826e-22 0.0183923 	0.00292651 	1.25854e-22 0.0181792 	0.00394728 	2.56981e-23 0.0172859 	0.00532415 	0 0.0170312 	0.00682583 	0 0.0164928 	0.00820388 	5.43581e-23 0.0158045 	0.00952562 	1.38795e-22 0.0142613 	0.0111321 	7.20921e-22 0.012138 	0.0135196 	1.53982e-21 0.011832 	0.0141554 	1.79869e-21 0.0115322 	0.0147888 	2.05119e-21 0.0111554 	0.0153959 	2.22568e-21 0.0106382 	0.0159575 	2.26629e-21 0.0102655 	0.0163663 	2.29122e-21 0.00923466 	0.0187228 	2.9924e-21 0.00832766 	0.0210618 	3.67469e-21 0.00715409 	0.0226253 	3.72637e-21 0.00582064 	0.0236246 	3.32051e-21 0.00500976 	0.0241914 	3.04119e-21 0.00423754 	0.0257506 	3.20594e-21 0.00358005 	0.0268319 	3.16707e-21 0.00302092 	0.0274951 	2.94997e-21 0.00238165 	0.0279887 	2.70274e-21 0.00143619 	0.0278608 	2.36349e-21 0.000549435 	0.0285817 	2.64412e-21 7.18498e-06 	0.0284121 	2.21568e-21 -0.000532264 	0.0282135 	1.78248e-21 -0.00108266 	0.0279849 	1.34653e-21 -0.00197508 	0.0269757 	3.89539e-22 -0.00301355 	0.0267821 	-6.11331e-22 -0.00371132 	0.0258839 	-1.01271e-21 -0.00437549 	0.0248597 	-1.33597e-21 -0.00514118 	0.0234954 	-1.22452e-21 -0.00607284 	0.0216326 	-5.49528e-22 -0.00733345 	0.0204748 	-3.29717e-22 -0.00865209 	0.0192521 	-1.14779e-22 -0.00986061 	0.0176087 	1.7189e-22 -0.0108478 	0.0154205 	5.75135e-22 -0.0123783 	0.0124597 	1.06637e-21 -0.0127362 	0.0120832 	1.19475e-21 -0.0130985 	0.0117098 	1.31761e-21 -0.0133306 	0.0113384 	1.27652e-21 -0.013436 	0.0109689 	1.07729e-21 -0.0135179 	0.0106911 	9.23906e-22 -0.0155312 	0.00874681 	5.54344e-22 -0.0178137 	0.00694929 	1.43799e-22 -0.0183927 	0.00534753 	0 -0.0180334 	0.0039796 	0 -0.0179049 	0.00347342 	0 -0.0196677 	0.00235188 	0 -0.0208338 	0.00147118 	0 -0.0210043 	0.000932372 	0 -0.0205222 	0.000295515 	0 -0.0195096 	-0.000385104 	0 -0.0208143 	-0.0012666 	0 -0.0214243 	-0.00190955 	-1.27982e-22 -0.0213434 	-0.002319 	-3.81931e-22 -0.0202628 	-0.00280856 	-1.17638e-21 -0.0186372 	-0.00335928 	-2.28561e-21 -0.0193606 	-0.00408467 	-3.5778e-21 -0.0200996 	-0.00482016 	-4.87695e-21 -0.0195777 	-0.00540278 	-5.48302e-21 -0.0177568 	-0.00595403 	-5.50308e-21 -0.0158667 	-0.00659673 	-5.58388e-21 -0.0159912 	-0.00725703 	-5.83252e-21 -0.0154111 	-0.00795677 	-5.67529e-21 -0.014215 	-0.00870614 	-5.17505e-21 -0.0130355 	-0.00950326 	-4.72229e-21 -0.0127586 	-0.00970591 	-4.62691e-21 -0.0124433 	-0.0100759 	-4.77886e-21 -0.012135 	-0.0104545 	-4.94925e-21 -0.0117928 	-0.0108236 	-5.00891e-21 -0.0112556 	-0.0111133 	-4.4523e-21 -0.0105789 	-0.0114961 	-3.76562e-21 -0.00949888 	-0.0126577 	-2.7399e-21 -0.00845546 	-0.013865 	-1.8479e-21 -0.00738535 	-0.0146718 	-1.87219e-21 -0.0062428 	-0.0147859 	-3.29764e-21 -0.00577097 	-0.0148509 	-3.93402e-21 -0.00461253 	-0.0165546 	-5.07575e-21 -0.00359556 	-0.0180606 	-6.13703e-21 -0.0029048 	-0.0183487 	-6.67531e-21 -0.00206211 	-0.0180957 	-6.46592e-21 -0.00131406 	-0.0176208 	-5.89799e-21 -0.000295782 	-0.019102 	-6.24075e-21 0.000304487 	-0.019463 	-5.74784e-21 0.00078224 	-0.0195244 	-5.01432e-21 0.00130074 	-0.0192536 	-4.10411e-21 0.00192205 	-0.0180272 	-2.72263e-21 0.00278586 	-0.0189866 	-1.75822e-21 0.00343874 	-0.0194288 	-9.34203e-22 0.00386161 	-0.0193015 	-2.66246e-22 0.00428963 	-0.0180167 	-2.2387e-22 0.00476123 	-0.0163978 	-3.43277e-22 0.00542697 	-0.0167785 	-4.74495e-22 0.00610967 	-0.0171845 	-6.02511e-22 0.00672338 	-0.0164454 	-5.33887e-22 0.00720904 	-0.0151867 	-3.78772e-22 0.00772868 	-0.0136324 	-1.70708e-22 0.00791552 	-0.0136274 	-1.27655e-22 0.00809815 	-0.0135624 	-8.65095e-23 0.00825273 	-0.013234 	-5.39364e-23 0.00841333 	-0.012911 	-2.10917e-23 0.00854426 	-0.0126619 	4.90754e-24 0.00913574 	-0.0120064 	1.29048e-22 0.00978243 	-0.0113934 	2.58744e-22 0.01047 	-0.0108079 	3.93266e-22 0.0108597 	-0.00980846 	5.20402e-22 0.0115543 	-0.00834248 	7.25856e-22 0.0119046 	-0.00805836 	7.67644e-22 0.0122662 	-0.00778328 	8.11905e-22 0.0126128 	-0.00750996 	8.55272e-22 0.0126756 	-0.00716267 	8.63756e-22 0.0127349 	-0.00688531 	8.72328e-22 0.01385 	-0.00601033 	8.43696e-22 0.0150917 	-0.00520785 	8.30611e-22 0.0154799 	-0.00435838 	7.73147e-22 0.0151889 	-0.00352509 	6.7296e-22 0.0150106 	-0.00294823 	6.09071e-22 0.0161602 	-0.00222608 	2.73561e-22 0.0169192 	-0.00162899 	5.76346e-23 0.01702 	-0.00120362 	2.03293e-23 0.0167223 	-0.000645296 	3.89418e-23 0.0159941 	3.0119e-05 	1.19644e-22 0.0168644 	0.000721478 	3.23192e-23 0.0171282 	0.00123362 	0 0.0170456 	0.00164125 	0 0.0163618 	0.00222743 	0 0.0151048 	0.00300265 	0 0.0154635 	0.00374988 	0 0.015853 	0.0045138 	0 0.0153273 	0.00524795 	6.74391e-23 0.0137741 	0.00622359 	2.82113e-22 0.0121332 	0.00743105 	5.38207e-22 0.0119779 	0.00809371 	5.01413e-22 0.0117618 	0.00879674 	5.08007e-22 0.0108594 	0.00968052 	8.2155e-22 0.0100014 	0.0105992 	1.15147e-21 0.00970752 	0.0109441 	1.27673e-21 0.00910796 	0.0123218 	1.86123e-21 0.00860705 	0.0137399 	2.47123e-21 0.00789158 	0.0150986 	2.8384e-21 0.00710168 	0.0164278 	3.07668e-21 0.00525086 	0.0200299 	3.77205e-21 0.00521018 	0.0201659 	3.81267e-21 0.00516994 	0.0203017 	3.85322e-21 0.00513014 	0.0204375 	3.89369e-21 0.00509086 	0.020572 	3.93319e-21 0.00505601 	0.0206626 	3.93932e-21 0.00446924 	0.0222588 	4.00779e-21 0.00389361 	0.0237247 	4.03566e-21 0.00336017 	0.0251554 	4.05212e-21 0.00286279 	0.0265551 	4.05895e-21 0.00265611 	0.0269946 	3.63706e-21 0.00254527 	0.0287133 	3.65278e-21 0.00205378 	0.0294583 	3.44861e-21 0.00154964 	0.0301217 	3.22919e-21 0.00114512 	0.0304612 	2.87404e-21 0.00101248 	0.0299172 	2.13668e-21 0.000892307 	0.0308742 	1.99288e-21 0.000500469 	0.0310962 	1.65775e-21 -3.49492e-05 	0.0309212 	1.22386e-21 -0.000431561 	0.0302784 	8.13197e-22 -0.000598582 	0.028899 	4.39966e-22 -0.000802241 	0.0289603 	2.71439e-22 -0.00124045 	0.0283209 	8.01298e-23 -0.00180701 	0.0273167 	-1.22648e-22 -0.00232083 	0.0260704 	-2.86767e-22 -0.00259686 	0.0240199 	-3.12896e-22 -0.0029572 	0.023171 	-3.28771e-22 -0.00352853 	0.0214849 	1.65535e-22 -0.0041511 	0.0197689 	6.68241e-22 -0.00483482 	0.0180232 	1.1779e-21 -0.00556683 	0.0159559 	1.73778e-21 -0.00567121 	0.0157411 	1.8587e-21 -0.00575114 	0.0154866 	1.87164e-21 -0.00582207 	0.0152158 	1.8393e-21 -0.00589505 	0.0149452 	1.8061e-21 -0.00595096 	0.014744 	1.78071e-21 -0.00668766 	0.0129705 	2.05106e-21 -0.00759931 	0.0112348 	2.38209e-21 -0.00872393 	0.00956954 	2.78678e-21 -0.00947672 	0.00801546 	2.55444e-21 -0.0104379 	0.00524859 	1.20734e-21 -0.0108273 	0.00484771 	1.06068e-21 -0.0112332 	0.00446868 	9.20919e-22 -0.0116539 	0.00411093 	7.87928e-22 -0.0114833 	0.00397823 	7.63195e-22 -0.0110149 	0.0039808 	7.98464e-22 -0.0126911 	0.00292631 	5.46902e-22 -0.0134889 	0.00210114 	3.11302e-22 -0.0142954 	0.0013593 	8.69242e-23 -0.0133737 	0.00118013 	0 -0.011663 	0.0013118 	0 -0.0137641 	0.000705436 	0 -0.0156018 	0.000132537 	0 -0.0158931 	-0.000380343 	0 -0.0142724 	-0.000437044 	0 -0.0122341 	-0.000384751 	0 -0.0142724 	-0.000674087 	0 -0.0156233 	-0.000996713 	-9.53605e-23 -0.0154565 	-0.00138794 	-3.92605e-22 -0.0143707 	-0.00164111 	-6.96512e-22 -0.012571 	-0.00179139 	-1.01009e-21 -0.0142394 	-0.00185153 	-7.70117e-22 -0.0142006 	-0.00211871 	-9.79765e-22 -0.013726 	-0.00245899 	-1.33102e-21 -0.0133011 	-0.0028196 	-1.70422e-21 -0.0122474 	-0.00321457 	-2.26926e-21 -0.0127669 	-0.0031938 	-2.10269e-21 -0.0125053 	-0.00334329 	-2.05645e-21 -0.0122231 	-0.00350733 	-2.02116e-21 -0.0119537 	-0.00367959 	-1.99243e-21 -0.011746 	-0.00382634 	-1.97476e-21 -0.0114555 	-0.00410367 	-2.02383e-21 -0.0111959 	-0.00440044 	-2.09322e-21 -0.010969 	-0.00471734 	-2.18386e-21 -0.010526 	-0.00506051 	-2.14624e-21 -0.00941157 	-0.00549128 	-1.73549e-21 -0.00892134 	-0.00620158 	-1.06301e-21 -0.00850509 	-0.00700615 	-4.76195e-22 -0.00761136 	-0.00761839 	-2.0905e-22 -0.00643692 	-0.0081391 	-2.09599e-22 -0.00522363 	-0.00886999 	-3.69293e-22 -0.00506411 	-0.00915565 	-1.70019e-22 -0.00490534 	-0.00941651 	-2.81081e-23 -0.00472093 	-0.00949458 	-2.26672e-22 -0.00454099 	-0.00957809 	-4.24024e-22 -0.00427946 	-0.00971059 	-7.16302e-22 -0.00366528 	-0.0102306 	-1.04778e-21 -0.00310908 	-0.010823 	-1.43907e-21 -0.00260775 	-0.0114782 	-1.88274e-21 -0.0023458 	-0.0114161 	-2.37083e-21 -0.00239259 	-0.0104022 	-2.77357e-21 -0.00166989 	-0.0119991 	-4.99922e-21 -0.0010268 	-0.0132057 	-6.6032e-21 -0.000461158 	-0.0137385 	-7.33894e-21 -0.000377172 	-0.0125801 	-6.15863e-21 -0.000447467 	-0.0109685 	-4.47892e-21 -6.88363e-06 	-0.01276 	-5.87196e-21 0.00043734 	-0.0142805 	-6.8522e-21 0.000910557 	-0.0143542 	-6.0912e-21 0.00107887 	-0.0131411 	-4.30198e-21 0.00114768 	-0.0115199 	-2.16946e-21 0.0013287 	-0.0130551 	-1.59327e-21 0.00160097 	-0.0135883 	-1.07511e-21 0.00195868 	-0.0132782 	-6.18345e-22 0.00230945 	-0.0128562 	-2.72292e-22 0.00257957 	-0.0116589 	-3.85985e-22 0.00259571 	-0.0124385 	-7.06829e-22 0.00282551 	-0.0120032 	-6.73694e-22 0.00307418 	-0.0116086 	-6.3437e-22 0.00334321 	-0.0112584 	-5.88346e-22 0.0035216 	-0.0110731 	-5.55701e-22 0.00360705 	-0.0110221 	-5.63968e-22 0.00369427 	-0.0109747 	-5.7234e-22 0.00378327 	-0.0109308 	-5.80817e-22 0.00386956 	-0.0108284 	-5.79114e-22 0.00394482 	-0.0105111 	-5.41671e-22 0.00429561 	-0.0102151 	-4.22513e-22 0.00465477 	-0.00983955 	-2.9526e-22 0.00506378 	-0.00953497 	-1.66415e-22 0.00544894 	-0.00867215 	-5.69535e-23 0.00597057 	-0.00737103 	6.61403e-23 0.00621672 	-0.00720675 	8.13071e-23 0.00648586 	-0.00706374 	9.77361e-23 0.00667839 	-0.00672041 	1.1607e-22 0.00686908 	-0.00633663 	1.3617e-22 0.00701483 	-0.0061044 	1.50494e-22 0.00755829 	-0.00561037 	2.01589e-22 0.00817923 	-0.00517195 	2.57514e-22 0.00852138 	-0.00469089 	2.73563e-22 0.00874444 	-0.00420782 	2.709e-22 0.00939709 	-0.00318692 	2.73792e-22 0.0094825 	-0.0031356 	2.75797e-22 0.00956935 	-0.00308531 	2.77912e-22 0.00965762 	-0.00303605 	2.80134e-22 0.00969437 	-0.00300142 	2.83472e-22 0.0095735 	-0.00300872 	2.89795e-22 0.010086 	-0.00247345 	2.27543e-22 0.0104838 	-0.00200944 	1.81525e-22 0.0109515 	-0.00158139 	1.40596e-22 0.0111151 	-0.00128031 	1.19125e-22 0.0100746 	-0.00134615 	1.52071e-22 0.0113286 	-0.000942238 	1.0594e-22 0.0120232 	-0.00054022 	6.16237e-23 0.0122397 	-0.000139318 	1.87676e-23 0.0115998 	5.17688e-05 	0 0.010304 	7.82941e-05 	0 0.0116751 	0.000281875 	0 0.012312 	0.000579567 	0 0.012157 	0.000980477 	0 0.0115518 	0.00131254 	0 0.010289 	0.00154866 	0 0.0115035 	0.00159653 	0 0.0111118 	0.0020054 	0 0.0106082 	0.00248183 	0 0.0101744 	0.0029937 	0 0.00959243 	0.00357409 	0 0.00971277 	0.00358066 	0 0.00967589 	0.00364404 	0 0.00955308 	0.00374042 	0 0.00943245 	0.00383884 	0 0.00932766 	0.00392779 	0 0.00873438 	0.00462369 	0 0.00826712 	0.00541327 	0 0.0079363 	0.00629472 	0 0.00706777 	0.00740939 	2.82375e-22 0.00515717 	0.00968319 	1.0942e-21 0.00494775 	0.0103183 	1.159e-21 0.00476618 	0.0109638 	1.23272e-21 0.00460931 	0.0116175 	1.31415e-21 0.00434901 	0.0122832 	1.5478e-21 0.00410853 	0.0128432 	1.80084e-21 0.00361703 	0.0150431 	2.60872e-21 0.00314555 	0.016941 	3.20829e-21 0.00272695 	0.0187204 	3.72645e-21 0.0024085 	0.020085 	3.92626e-21 0.00217966 	0.0211361 	3.99579e-21 0.00207693 	0.0233098 	4.24363e-21 0.00199682 	0.0254827 	4.49135e-21 0.00163652 	0.0267204 	4.43353e-21 0.00149248 	0.0270687 	3.94646e-21 0.00135597 	0.0274115 	3.46524e-21 0.00129372 	0.0291146 	3.48738e-21 0.00123646 	0.0308165 	3.51019e-21 0.00104296 	0.0313917 	3.18057e-21 0.000910209 	0.0308422 	2.4393e-21 0.000778471 	0.0302926 	1.7009e-21 0.00065994 	0.0312469 	1.56016e-21 0.000542321 	0.0321999 	1.42112e-21 0.000419195 	0.0319887 	1.16948e-21 0.000268462 	0.0306153 	7.95295e-22 0.00011523 	0.0292417 	4.21469e-22 -7.35411e-05 	0.0293101 	2.52556e-22 -0.000266208 	0.0293767 	8.37437e-23 -0.000422587 	0.0283935 	3.76948e-24 -0.000601021 	0.026366 	-6.51401e-24 -0.000789827 	0.0243362 	-1.8483e-23 -0.0010514 	0.0235046 	-1.82668e-23 -0.00132886 	0.0226706 	-2.06607e-23 -0.00162482 	0.0210644 	2.88548e-22 -0.00185266 	0.0186687 	8.28985e-22 -0.00212116 	0.016254 	1.37706e-21 -0.00251942 	0.0146746 	2.24456e-21 -0.00296437 	0.0130637 	3.02108e-21 -0.00327087 	0.0111158 	2.8741e-21 -0.00364847 	0.00904195 	2.41642e-21 -0.00421754 	0.00661507 	1.60522e-21 -0.00451499 	0.0060414 	1.48316e-21 -0.00481207 	0.00551289 	1.37855e-21 -0.00462674 	0.00528056 	1.3665e-21 -0.00444219 	0.00504905 	1.35478e-21 -0.00437678 	0.00496696 	1.35074e-21 -0.00491561 	0.00349476 	8.42541e-22 -0.00598294 	0.00213731 	3.40447e-22 -0.00689334 	0.00125076 	-2.57834e-36 -0.00603869 	0.00126403 	6.78103e-23 -0.00408112 	0.00147493 	2.95839e-22 -0.0055663 	0.000540643 	7.29537e-23 -0.0061231 	0.00023758 	0 -0.00593511 	0.000230286 	0 -0.00574713 	0.000222992 	0 -0.00367887 	0.000413783 	0 -0.00566555 	-0.000166713 	0 -0.00584132 	-0.000171885 	0 -0.00601709 	-0.000177057 	0 -0.00606059 	-0.000178795 	0 -0.00401888 	-0.00012639 	0 -0.00605722 	-0.000415726 	0 -0.00664393 	-0.000472863 	0 -0.00704666 	-0.000501526 	0 -0.00677596 	-0.00055875 	-8.61644e-23 -0.00486471 	-0.000693229 	-3.90881e-22 -0.0065331 	-0.000753363 	-1.50911e-22 -0.00770378 	-0.000803856 	0 -0.00819176 	-0.000854775 	0 -0.00702543 	-0.00111729 	-4.50213e-22 -0.00559877 	-0.00146951 	-1.03737e-21 -0.00677917 	-0.00142232 	-6.58918e-22 -0.00782599 	-0.00133584 	-2.48644e-22 -0.00759047 	-0.00153622 	-1.6361e-22 -0.00648648 	-0.00203717 	-4.47844e-22 -0.00563464 	-0.00259692 	-7.40814e-22 -0.00619432 	-0.00261256 	-6.41245e-22 -0.00626163 	-0.00270796 	-5.32897e-22 -0.00571186 	-0.0029595 	-4.26965e-22 -0.00523548 	-0.00327176 	-3.39958e-22 -0.00492085 	-0.0035794 	-2.87636e-22 -0.00479745 	-0.00378874 	-1.88264e-22 -0.00468894 	-0.00401208 	-8.83488e-23 -0.00456619 	-0.00423407 	0 -0.0042423 	-0.00435889 	0 -0.00382501 	-0.00455283 	0 -0.00326791 	-0.00499103 	0 -0.00282829 	-0.00556523 	0 -0.00255116 	-0.00589398 	0 -0.00249854 	-0.00510536 	0 -0.00245266 	-0.00470504 	0 -0.00150579 	