/*--------------------------------*- C++ -*----------------------------------*\
| =========                 |                                                 |
| \\      /  F ield         | OpenFOAM: The Open Source CFD Toolbox           |
|  \\    /   O peration     | Version:  v1912                                 |
|   \\  /    A nd           | Website:  www.openfoam.com                      |
|    \\/     M anipulation  |                                                 |
\*---------------------------------------------------------------------------*/
FoamFile
{
    version     2.0;
    format      ascii;
    class       volScalarField;
    location    "0.18";
    object      epsilon;
}
// * * * * * * * * * * * * * * * * * * * * * * * * * * * * * * * * * * * * * //

dimensions      [0 2 -3 0 0 0 0];


internalField   nonuniform List<scalar> 
1466
(
28.7198
56.573
0.36955
3.57305
0.351161
0.725464
3.67991
0.590156
9.73106
0.517994
36.4021
3.0364
5.97983
0.323418
1.36473
37.3683
1.7713
22.8266
12.1069
10.4343
21.9862
17.7987
11.0409
6.62821
7.71179
1.42027
11.579
26.5066
0.57849
80.0141
20.228
7.97817
0.588824
8.33549
122.62
0.694777
8.83513
0.793925
25.181
0.571952
1.44485
6.63366
5.89889
2.41206
0.824511
7.04531
81.6404
0.307785
0.441338
0.556116
0.771197
75.8688
0.45575
0.333287
0.569462
7.16658
15.653
42.0281
4.0887
0.772851
1.5236
4.49746
0.676484
28.6886
54.3911
0.486665
42.5865
4.29687
42.4707
0.555981
3.16415
18.8297
4.51125
7.52326
1.92346
80.2097
5.32231
1.00929
14.3693
79.785
6.13971
31.763
0.436665
15.7885
7.81249
34.7697
7.27255
75.2354
14.6369
25.4692
1.28484
7.50972
1.03822
28.5157
0.500686
0.43017
42.9022
65.2826
8.9991
0.509601
0.609862
0.846426
0.340486
0.510203
4.23189
0.560925
0.425751
0.31432
28.0996
19.4172
1.25807
97.8448
24.2807
7.04169
0.807749
2.86596
6.73041
5.55527
3.15729
0.686926
27.9417
15.0772
5.87979
3.79193
1.2824
0.672165
57.145
21.8652
4.01217
29.5014
3.31084
6.32353
11.117
5.89233
3.9391
1.56327
0.972083
1.79199
2.1183
0.570859
0.50165
25.9102
5.36957
14.029
7.40966
31.6789
9.16902
24.4223
54.5205
80.6252
1.55256
42.353
50.979
0.420611
39.8886
17.0691
20.6098
7.85316
12.3634
60.3738
9.54795
76.2526
49.0488
13.5302
8.09159
5.16134
3.90765
20.2844
16.2484
59.8216
17.9908
8.53411
0.580237
45.6994
6.50927
8.28955
70.9091
86.7352
1.24518
4.00053
9.51512
20.0331
21.1863
2.53044
77.5227
32.0963
9.11732
8.11781
42.7742
19.1843
19.432
2.14941
0.823291
32.1355
54.1344
1.32038
0.667314
219.837
6.16925
36.0548
0.683826
39.7855
75.8078
19.627
2.07523
5.25143
25.5332
56.1522
13.9332
8.81781
11.7992
5.72068
59.2005
19.7476
22.5876
9.69348
28.4575
10.4426
9.48153
3.81127
18.4836
4.45814
11.4943
1.27187
14.3544
10.6828
0.917145
2.12043
1.34287
5.32019
2.5591
82.1826
37.4739
33.0221
6.59975
4.12186
4.48859
17.2866
21.9193
17.8056
30.0055
77.4855
69.0305
41.9782
15.7947
69.8159
5.9877
7.64313
82.4504
63.9313
24.711
55.0762
51.4277
6.04301
8.5307
17.2725
18.3447
17.463
14.9883
32.9203
20.7682
11.0902
5.5723
7.70682
78.9626
0.683307
22.6839
43.0531
22.1946
20.2649
52.8043
17.952
9.43524
14.9317
1.96669
1.35351
1.7522
56.7531
16.6503
68.5637
12.7772
6.44447
69.2645
70.8705
6.60803
1.93424
66.2892
60.1164
9.58142
39.9023
33.2583
36.3677
7.77541
12.5202
55.2422
6.74656
27.7968
0.968423
71.4495
6.92292
0.273129
0.756457
0.310262
9.31224
5.77226
20.6039
31.3006
3.77065
65.057
147.058
51.0561
42.3827
3.75006
46.3392
66.893
69.2361
32.304
60.4064
5.40717
3.94131
5.07676
22.0169
42.1139
8.79568
6.40198
32.2745
1.14011
63.1669
8.51353
7.97376
18.5543
35.9108
0.419616
47.1135
86.6499
17.409
108.057
24.4183
35.9384
22.2944
17.9318
60.1416
2.98748
145.842
57.8831
0.372732
68.4194
78.5642
45.7259
102.4
43.3818
15.5298
194.534
77.7387
12.7284
62.7406
1.31387
18.9139
12.0696
73.8564
28.4708
56.8762
54.7682
36.0912
7.56371
44.8519
51.3848
47.2312
31.242
49.1054
57.722
43.8435
246.34
46.6611
0.695825
14.0308
2.57392
243.292
22.1548
67.9965
65.586
64.6817
76.2991
70.7011
50.0271
61.2194
2.23418
1.40467
2.0538
2.95898
51.6451
25.1257
39.3748
29.5693
28.3638
39.2955
4.57886
229.519
25.2252
44.0134
8.06891
3.41938
108.152
0.717527
72.5348
32.2464
131.302
19.3559
34.0986
41.3703
11.9257
150.494
186.758
37.5918
107.241
0.694856
0.640353
68.6942
9.85701
10.2843
39.7074
33.6542
9.17844
190.385
7.89586
0.624059
26.9929
239.399
5.62496
0.805319
1.27497
27.0136
32.0705
353.883
32.9819
36.083
7.51847
20.5485
0.270153
0.606689
10.1033
66.624
0.625448
10.7831
23.7745
15.5709
27.0153
24.1997
17.0033
0.946886
16.2378
19.8627
119.105
11.5879
39.3806
77.9678
0.441021
0.533718
95.6467
17.3558
1.11926
66.9607
0.468042
0.879554
1.85203
20.5034
48.0822
86.254
83.2866
56.0989
99.9023
0.52166
1.14862
1.67006
12.8193
20.4802
19.4517
19.4705
21.0064
16.9954
48.1924
2.25146
4.68984
20.7249
19.2305
47.2054
23.8925
19.3696
37.3186
54.1089
18.35
27.313
1.32614
39.9556
17.7642
23.916
16.3796
39.6324
64.725
50.4817
52.8552
54.7967
0.625208
2.2237
5.98586
43.2117
127.139
11.4617
23.4039
19.3281
31.9851
19.3376
25.8168
168.479
14.4159
47.1604
58.5581
10.4829
22.584
1.16142
38.169
63.2459
32.6562
53.2924
18.8401
56.7503
65.9978
47.2178
50.0137
21.1974
17.8654
298.766
36.6324
28.0145
26.6193
65.6331
48.653
148.982
48.5287
4.5347
42.3469
2.58544
8.62409
29.8633
42.2863
44.9588
35.2037
38.5577
54.5003
7.77982
10.2857
27.5317
19.6785
32.108
234.293
14.109
17.2094
43.9724
70.65
31.5128
24.5339
17.2642
15.237
74.32
17.7999
27.2405
33.2757
38.2628
160.098
12.1887
5.83928
45.0975
25.7023
71.6784
16.0512
181.703
15.5466
16.2931
22.4908
13.2566
18.0764
10.8402
19.6673
32.0124
50.0403
17.9554
66.3885
12.9864
20.5343
34.7616
6.45204
42.6931
7.6451
23.4536
25.1659
7.85318
11.0258
112.034
15.3314
64.9872
77.6042
24.5416
21.8867
45.8182
44.546
12.0487
32.3074
0.536957
0.700045
80.7775
16.0864
0.990529
40.7691
51.5094
2.96755
60.4889
77.0294
51.7641
37.696
130.08
47.8046
1.70716
30.8855
31.1988
42.1602
28.9942
3.38991
8.45862
9.2792
12.1214
15.2443
45.0102
41.5909
24.6478
19.5128
20.8178
188.137
75.4326
56.4803
4.96177
59.6055
134.666
158.122
1.90246
51.1711
24.1456
7.25809
50.5956
133.011
50.4247
24.7281
12.7472
56.7195
0.917321
21.7424
85.8712
29.5836
4.59354
12.0608
7.2228
29.88
92.2986
26.1683
26.0363
16.9006
24.4956
1.09623
40.7282
5.22142
27.2696
4.92615
23.1969
6.02179
2.02388
0.722094
0.308993
1.63322
1.32426
11.4012
35.5982
5.38246
0.840682
1.63225
12.1686
17.3423
72.3485
36.4795
7.27345
13.4971
7.42325
24.1112
32.8631
30.4177
102.747
24.9665
7.24207
82.298
7.68947
38.7494
23.3769
43.5195
31.749
7.30412
8.02094
92.5645
54.4591
35.2199
28.5618
7.15515
79.0415
17.0567
38.0963
49.1938
234.078
65.311
6.31948
60.4438
63.3614
8.36544
70.3158
69.1897
34.5862
26.4917
6.74594
4.10996
10.2882
5.39721
59.1854
36.9572
0.480452
6.64462
1.44735
7.39959
0.493626
8.68662
6.51005
8.60622
87.6577
0.583337
50.4043
10.3552
7.75374
29.63
0.578904
0.94623
5.95758
41.4754
2.03486
21.7994
63.3288
5.68767
10.3394
1.40622
15.4282
1.05926
13.6701
36.9905
3.30072
19.3973
35.0762
6.69615
19.2274
1.79674
57.38
31.3372
77.121
23.2801
188.899
3.15107
23.1497
35.0231
15.4499
2.93915
12.0583
18.0319
16.7574
60.1979
11.0403
59.0988
181.781
32.1203
33.6476
26.2423
11.4668
14.0412
0.458004
4.1557
11.2152
61.4415
55.0629
57.3165
14.9422
14.6484
20.2026
44.3124
24.5863
95.1062
51.6933
0.380136
25.1836
31.4461
26.13
8.70452
0.827216
48.8514
0.842761
1.0839
16.8768
15.0224
2.45187
9.68355
55.4005
20.5804
3.57486
1.75642
0.480747
87.5091
25.1146
2.5575
107.217
135.03
54.7759
19.0007
81.4497
0.973262
10.7593
15.9911
18.658
25.3771
19.3757
81.7063
94.2397
17.8742
33.0541
9.99175
27.3346
7.12512
8.18298
17.7831
21.6262
21.4832
136.675
31.318
18.1095
10.3822
150.37
42.1191
8.15435
63.8789
15.6375
13.7612
66.2571
7.5318
17.6454
37.2803
36.5239
71.2227
8.45781
37.4286
198.691
34.7174
9.59508
11.3253
42.7947
1.46017
10.8323
18.7028
2.6373
44.8731
17.412
39.9634
1.91537
11.2216
13.936
21.315
55.8968
41.1042
5.98339
7.1153
5.24501
7.80788
8.26136
8.09201
7.92862
20.5855
16.9173
16.4858
21.7389
20.1997
19.6592
23.9505
17.4641
15.8858
25.9553
25.1555
14.491
12.0878
5.76245
8.70561
18.9228
17.432
15.6611
4.69865
96.2152
6.30465
0.647568
7.07857
14.4945
2.08069
35.1989
0.282902
0.613966
150.36
18.2619
13.5361
2.04455
40.956
19.9358
0.939594
45.47
8.88799
25.5678
42.05
29.9106
81.5493
52.7049
15.4352
14.2208
10.0008
3.60978
9.66028
7.17289
8.85365
27.0307
21.6974
6.68863
7.51561
0.573205
0.707871
7.14161
0.549334
14.3593
5.48076
7.49324
4.85856
0.579248
42.3756
21.1622
46.7786
25.5154
2.88033
41.4611
85.0136
47.2883
0.758783
7.62434
1.4414
3.31894
40.7039
115.934
60.5082
5.95484
13.0175
43.1791
5.46351
72.5561
1.76953
0.975984
54.1491
6.54641
0.56558
11.7648
19.6558
12.8384
15.3207
35.7208
3.21022
6.40718
0.459939
5.987
35.6136
5.22178
76.5424
14.2444
22.2755
13.5494
120.938
24.6957
47.8747
6.06436
1.99245
0.310522
0.479279
104.241
41.3171
46.7425
86.0739
25.3689
0.482093
2.40521
45.95
9.06449
10.3879
16.7266
4.03775
5.23039
0.628299
0.348084
0.491844
8.20742
10.1915
4.14132
9.83845
1.12826
21.1865
17.4326
12.604
24.5095
110.004
142.664
24.6663
10.217
31.3798
165.391
5.26036
20.1363
3.40175
11.4303
7.60578
1.57755
9.93153
23.7876
5.55138
8.77092
12.5708
5.72813
41.6651
1.53932
7.86124
8.21869
4.46056
45.5699
8.37318
4.00568
45.8549
0.541261
2.46698
1.40534
0.58333
76.4279
18.0412
12.6274
4.14737
6.72436
44.2677
41.0281
37.755
8.54162
14.9138
8.42098
15.0332
9.05965
39.9818
47.5464
1.54463
12.8094
4.26017
17.7919
9.36461
0.184854
11.699
43.3996
1.8687
15.8425
4.43947
13.4125
9.13192
3.66721
5.33286
22.2282
25.9828
8.55592
11.5816
2.43202
2.92322
1.89249
2.91305
45.6597
49.215
6.4165
6.71528
6.66027
6.0249
69.51
12.7711
8.62754
37.1199
18.0422
17.9837
106.711
20.6011
21.1181
3.85896
39.9264
8.44766
0.710883
0.401055
21.0037
81.7402
72.7582
42.1595
7.13673
33.7763
80.6848
54.4884
3.76109
119.15
96.8682
22.8187
14.4654
12.0388
1.84052
170.744
4.4376
20.4068
8.75524
0.745485
11.5224
69.0873
27.0522
67.4499
73.6443
0.685751
29.1663
17.5894
35.6148
37.1564
16.8968
7.66392
34.1533
24.8372
0.476235
0.279942
0.393403
8.55819
55.0573
18.1193
40.6549
45.2314
72.9972
18.1814
52.3893
61.0902
7.34574
8.62437
0.410181
6.33432
57.2375
59.3971
18.1827
23.6694
30.964
20.9923
4.34164
15.5325
21.6539
62.6923
15.0816
52.5465
0.972344
8.83942
32.8935
21.2959
13.7165
18.0242
8.72271
73.1397
8.96515
23.6458
32.2556
21.5842
39.5902
5.90503
12.7963
24.7031
31.8399
8.83078
40.0907
31.1414
6.44582
6.81187
15.4779
13.7413
2.87758
12.2619
2.32054
68.3503
22.8333
11.6623
1.34287
84.3246
8.63927
5.54022
64.1864
64.7296
23.0563
36.7597
7.18713
13.8476
18.6669
90.6988
1.59422
51.6684
14.3351
5.93504
7.28796
1.46161
68.8616
4.2921
9.22336
109.378
0.348723
106.247
8.77652
13.5345
6.51446
0.365269
0.597381
0.770697
13.7079
10.3893
81.1091
30.8731
14.1547
27.1951
37.163
27.1855
4.39792
0.272372
0.450428
15.399
19.9493
14.6914
178.101
8.38749
7.85516
0.512308
0.608033
106.463
11.3025
8.49121
7.05358
7.21428
5.85955
16.8049
44.9108
24.7831
1.5946
7.09245
16.9689
9.95991
10.9031
19.9214
2.65921
32.8168
29.9139
7.28947
2.63389
137.661
1.4206
7.73082
36.0629
65.2214
6.72249
63.267
56.6209
75.119
85.7215
9.6355
44.0324
3.42216
7.83402
21.1317
47.686
1.12918
41.0726
0.441716
26.6751
32.6968
22.7773
81.8838
5.40818
170.381
54.8083
26.4827
25.9022
11.168
13.7044
68.3159
11.5168
6.48219
28.1862
1.35234
23.6824
37.14
7.45802
3.97275
46.1865
16.9203
0.896707
27.3822
22.5596
7.4537
1.89214
11.9804
17.3837
96.8138
12.4692
1.11319
5.7186
7.60341
76.4952
115.929
44.3032
0.310121
89.1819
2.69593
7.61667
0.516309
0.390436
1.5954
32.3122
1.39089
111.967
22.2611
32.6646
0.360571
0.602743
49.7613
13.2649
5.15394
31.2014
7.37079
17.7805
21.409
191.178
66.9819
46.6993
11.2865
17.0154
2.80293
15.2174
28.8062
12.5438
0.537226
84.175
86.9692
4.68352
70.2852
59.7585
59.1705
15.4734
80.6751
1.72982
76.8955
48.5011
7.51942
1.01402
0.402122
1.7144
9.57637
17.5567
78.6358
3.82467
52.6591
6.10447
27.9083
20.0124
4.64206
41.2419
45.9433
6.12025
45.4594
28.1885
0.375921
22.8579
25.0779
2.09159
10.2506
3.12208
15.9381
11.9058
12.679
22.2077
23.4562
94.9331
22.4832
31.1206
25.2981
3.99274
0.269791
0.402147
8.13708
8.37188
51.7493
13.3231
4.75593
11.2101
11.8429
21.5936
2.48809
31.3019
25.091
14.202
0.447026
28.8249
6.57051
7.92032
6.28026
72.3381
54.9832
266.137
43.1998
11.7842
3.12607
10.8536
86.3878
18.657
7.0347
4.46153
196.826
16.351
41.4567
5.22023
9.2289
20.1702
10.2806
8.50582
15.8095
83.906
0.897136
3.07122
23.3787
1.37497
1.63102
12.69
14.4011
249.204
113.387
2.03276
5.6784
149.324
10.8963
8.50054
7.98831
1.67211
12.7556
0.627361
0.721863
0.75964
0.753371
82.9503
0.601253
123.608
11.0197
21.272
)
;

boundaryField
{
    frontAndBack
    {
        type            empty;
    }
    wallOuter
    {
        lowReCorrection 0;
        type            epsilonWallFunction;
        value           nonuniform List<scalar> 
108
(
22.8266
18.8297
4.51125
0.310262
0.372732
17.3423
36.4795
7.27345
7.42325
24.9665
7.24207
38.7494
31.749
7.30412
7.15515
0.480452
8.60622
41.4754
2.03486
11.0403
1.0839
9.68355
8.18298
42.1191
5.98339
7.1153
5.24501
7.80788
8.26136
8.09201
7.92862
20.5855
16.9173
16.4858
21.7389
20.1997
19.6592
23.9505
17.4641
15.8858
25.9553
25.1555
14.491
12.0878
5.76245
8.70561
18.9228
17.432
15.6611
4.69865
0.647568
40.956
14.2208
7.17289
21.1622
13.0175
43.1791
13.5494
4.03775
1.12826
24.6663
20.1363
3.40175
45.5699
45.8549
1.40534
44.2677
39.9818
47.5464
4.26017
0.184854
0.184854
1.8687
4.43947
3.66721
5.33286
11.5816
2.43202
2.92322
1.89249
2.91305
45.6597
49.215
6.4165
6.71528
6.66027
6.0249
69.51
21.1181
3.85896
7.13673
3.76109
4.4376
20.4068
52.3893
61.0902
20.9923
4.34164
68.8616
6.72249
25.9022
68.3159
1.11319
2.69593
1.39089
0.402122
1.7144
6.10447
)
;
    }
    inlet
    {
        type            fixedValue;
        value           nonuniform 0();
    }
    outlet
    {
        type            zeroGradient;
    }
    wallInner
    {
        lowReCorrection 0;
        type            epsilonWallFunction;
        value           nonuniform List<scalar> 
126
(
0.793925
25.181
0.571952
1.44485
6.63366
5.89889
2.41206
0.824511
7.04531
81.6404
0.307785
0.441338
0.556116
0.771197
75.8688
0.45575
0.333287
0.569462
7.16658
15.653
42.0281
4.0887
0.772851
14.3693
0.43017
42.9022
65.2826
8.9991
0.509601
0.609862
0.846426
0.340486
0.510203
4.23189
0.560925
0.425751
0.31432
28.0996
19.4172
7.04169
0.807749
3.79193
1.2824
3.31084
6.32353
1.56327
0.972083
1.79199
0.50165
49.0488
6.50927
0.667314
14.9883
32.9203
20.7682
0.683307
22.6839
52.8043
17.952
9.43524
36.3677
12.5202
6.74656
27.7968
5.07676
22.0169
42.1139
18.9139
31.242
246.34
243.292
229.519
44.0134
239.399
32.0705
353.883
36.083
20.5485
66.624
119.105
77.9678
95.6467
168.479
298.766
234.293
3.38991
4.59354
4.10996
10.8323
2.6373
10.217
21.409
2.80293
196.826
41.4567
5.22023
9.2289
20.1702
10.2806
15.8095
83.906
0.897136
3.07122
23.3787
1.37497
1.63102
12.69
14.4011
249.204
113.387
2.03276
5.6784
149.324
10.8963
8.50054
7.98831
1.67211
12.7556
0.627361
0.721863
0.75964
0.753371
82.9503
0.601253
123.608
11.0197
)
;
    }
    procBoundary1to0
    {
        type            processor;
        value           nonuniform List<scalar> 
29
(
0.984401
0.984401
1.76742
4.42207
31.1142
5.44073
125.783
6.43899
85.0947
5.177
5.50487
5.44073
1.76742
1.11476
65.048
21.7188
31.1142
49.7519
4.42207
1.22684
10.7726
6.15886
57.1093
11.2194
11.2194
57.1093
7.58794
82.6372
7.58794
)
;
    }
    procBoundary1to2
    {
        type            processor;
        value           uniform 0.912881;
    }
    procBoundary1to3
    {
        type            processor;
        value           nonuniform List<scalar> 
48
(
7.18013
4.6195
5.73419
5.73419
4.02611
2.95894
2.95894
17.9067
12.0385
0.809646
0.680621
0.809646
0.643451
0.902171
0.670389
0.643451
0.297241
0.297241
0.288886
0.288886
4.39219
7.76601
0.512231
0.706143
0.706143
1.49914
14.603
14.603
17.1357
6.76657
4.3001
17.1357
17.9067
14.3121
0.658318
6.76657
13.5577
0.680621
9.32364
3.28216
1.5457
14.0305
14.3121
0.658318
0.669682
3.35745
3.04178
1.5457
)
;
    }
}


// ************************************************************************* //
