/*--------------------------------*- C++ -*----------------------------------*\
| =========                 |                                                 |
| \\      /  F ield         | OpenFOAM: The Open Source CFD Toolbox           |
|  \\    /   O peration     | Version:  v1912                                 |
|   \\  /    A nd           | Website:  www.openfoam.com                      |
|    \\/     M anipulation  |                                                 |
\*---------------------------------------------------------------------------*/
FoamFile
{
    version     2.0;
    format      ascii;
    class       volScalarField;
    location    "0.63";
    object      p;
}
// * * * * * * * * * * * * * * * * * * * * * * * * * * * * * * * * * * * * * //

dimensions      [0 2 -2 0 0 0 0];


internalField   nonuniform List<scalar> 
5794
(
96.1535
97.7833
94.4295
98.8389
94.7438
97.6113
93.041
96.8825
92.869
95.5296
127.859
92.2851
92.5883
94.7908
97.7328
97.9776
35.428
98.7373
97.7011
97.5789
96.1305
96.9645
92.237
99.518
93.7833
45.29
41.3533
100.419
95.0137
96.9117
96.1923
88.0349
108.549
99.0396
92.9141
91.7599
101.611
93.7549
92.461
94.4113
95.8586
99.3805
119.517
95.648
97.6968
109.825
89.2352
98.6317
96.6922
94.4706
98.4042
86.6418
93.3664
96.9648
97.7904
111.984
91.1805
96.9889
119.702
40.7718
107.523
97.6726
96.2277
87.6574
108.135
97.505
94.2763
94.2676
99.2666
97.8102
85.7846
94.563
21.1259
95.5386
98.4383
100.54
97.3872
51.0282
95.9166
98.1644
96.5944
97.3553
96.088
93.7494
94.2107
98.5296
88.4318
113.714
99.4907
93.2398
116.862
91.0805
96.6443
95.8338
99.1003
85.5031
112.75
97.5434
91.294
108.425
84.4004
89.1467
119.641
96.2872
97.5123
97.0643
97.7238
128.969
84.9693
95.954
100.206
97.738
78.1557
96.8953
98.2052
94.6466
97.6433
97.2244
106.664
95.7304
97.1921
96.5617
96.7713
100.45
97.7097
126.002
91.904
97.7951
88.4969
127.677
96.963
94.7055
90.0695
55.1485
96.8658
97.7156
119.592
97.6855
98.6528
99.8997
94.9191
96.4402
97.7533
97.0741
98.687
50.2119
97.5234
117.65
95.2114
97.8045
124.346
96.8781
97.2225
95.3618
45.1007
88.6876
94.1879
94.9944
109.368
95.4569
97.6249
94.2961
99.7759
92.0438
84.9231
86.6299
93.0476
96.6331
100.072
97.7097
97.4485
86.2544
92.5663
94.2081
98.5701
91.8971
97.7768
93.4119
99.5111
88.9811
99.3221
89.8718
97.9588
110.394
93.8803
43.8241
88.8207
109.353
96.2942
89.2242
127.591
88.1197
108.573
97.5875
95.2811
96.1445
95.669
99.7875
97.7401
117.885
92.2353
85.784
98.2463
94.9962
88.8787
109.467
97.4198
129.208
90.4887
92.1584
96.0141
100.668
91.9083
94.1855
99.3763
92.8742
91.8493
90.8353
128.214
101.226
100.778
90.4495
115.514
97.1941
114.667
40.5765
94.5763
94.9795
94.7785
97.6994
92.9814
94.7279
97.7651
85.6427
94.6007
50.9304
72.4464
122.125
92.8653
96.2967
97.6306
129.283
95.8008
96.1369
95.0971
100.313
97.7247
95.6264
113.748
97.8811
91.4478
97.4766
41.457
97.3582
123.116
90.0504
118.58
118.601
129.256
97.6884
119.976
92.2295
95.2662
97.2434
93.4823
97.5739
97.7654
125.449
97.6995
108.913
88.4212
96.5637
95.7322
84.9178
102.144
97.759
96.8886
94.6411
97.0658
91.7269
99.9056
108.289
95.7409
99.4797
94.1479
97.5699
89.7227
99.4896
91.5328
96.7721
92.0398
93.3645
98.6169
96.7276
116.126
53.9555
95.905
98.7087
94.192
97.1376
97.3511
84.6756
96.6504
94.6116
95.2773
123.928
97.1149
96.9383
108.217
87.8755
96.0043
108.752
95.3077
96.9756
101.577
103.717
128.929
100.206
84.8485
95.7732
97.1002
93.3162
97.0127
95.2643
98.14
89.9437
95.3249
93.4813
94.0356
128.087
86.7595
120.806
95.7847
108.928
88.4034
95.8762
95.1216
99.9125
96.657
109.598
99.5519
93.7827
91.4175
92.0504
97.8494
97.3118
112.43
91.6051
87.3726
94.1682
91.6526
51.6094
109.042
88.6448
98.2545
40.4884
97.6798
87.8285
92.6886
96.5821
129.122
91.9287
120.595
92.6066
96.6575
94.8329
85.7402
110.577
89.8978
98.2584
97.1987
97.1883
94.679
98.4583
128.883
84.8899
112.18
90.7445
97.9089
97.1343
95.5878
97.2726
101.995
91.7935
93.1762
99.4109
94.7848
92.7545
96.5738
93.6987
97.2265
94.0108
97.766
99.9908
92.9828
94.7414
97.9033
94.4654
97.6386
92.123
99.44
93.2356
47.7276
100.326
97.7287
123.396
93.7193
97.5013
97.7389
113.355
97.2228
90.5761
127.063
86.4272
109.163
88.6467
97.4327
102
85.1628
112.954
91.2915
97.5719
128.573
97.133
92.0438
93.5876
99.4288
96.879
97.4314
96.6269
86.3965
101.983
97.7581
79.0662
97.7085
97.5298
96.7955
94.9747
91.8846
93.6231
99.5504
101.599
94.7617
98.9502
94.7685
94.1887
98.4643
98.5063
94.083
94.6812
94.8409
97.4957
86.9543
96.8586
97.478
97.3705
111.296
88.8416
98.7364
96.3727
97.0422
97.4617
93.8323
100.228
109.342
127.543
48.1353
92.9001
127.361
95.8815
97.3831
82.6237
127.034
94.7011
96.4525
110.49
64.5196
100.242
96.0386
97.4544
94.3393
96.9884
95.6531
94.8329
128.897
127.389
100.371
95.2135
52.1648
96.6818
97.3654
97.7717
96.7677
95.7976
93.5035
99.9938
97.4514
97.3217
98.3957
122.811
93.6212
63.6294
103.843
89.3708
97.8125
97.4503
97.1248
117.608
127.082
97.284
84.7131
97.1609
95.5879
97.3803
97.2462
95.874
95.2893
97.3701
100.523
49.3371
97.4098
97.7613
94.3985
97.2574
127.3
97.9054
95.931
99.5234
97.5982
97.0858
94.6761
97.2505
47.0199
97.4413
94.6267
93.8796
101.705
117.791
127.379
119.495
96.7774
81.2553
97.4589
93.5275
95.2307
98.1761
102.151
97.0191
97.0746
97.7617
96.1557
97.0228
97.7397
95.4656
98.1091
97.7506
94.2256
97.1593
97.6707
94.7422
24.7802
97.5629
124.687
96.8908
94.3757
95.7901
97.821
94.3438
97.6717
97.0548
110.208
86.7015
86.2903
99.2324
48.3517
98.9098
93.4718
93.4818
99.0228
95.3319
96.3938
94.9371
126.703
49.2622
88.0346
112.967
96.9374
97.5046
91.1967
112.356
97.1661
98.0672
97.6831
94.262
96.66
104.787
97.2365
101.314
97.7169
93.7814
96.8634
110.997
98.286
94.4296
97.2899
127.024
56.7297
95.3784
97.7831
98.0084
90.1008
88.5309
93.7584
93.7692
99.0295
93.4544
122.421
127.748
116.776
96.8893
97.4596
127.039
126.36
129.063
97.6101
97.9923
98.4485
94.6097
129.954
96.9079
96.3487
97.6256
97.0681
97.4817
97.8723
95.4524
67.6007
101.464
94.7105
100.073
95.0234
120.097
128.405
90.9966
118.809
94.1918
99.0546
108.255
97.7395
97.7272
97.9819
95.7894
97.5599
93.7843
99.0908
123.132
50.1029
96.6914
35.2697
99.1868
97.276
95.8362
96.9359
95.6529
97.452
99.289
93.6842
97.7473
89.8808
108.465
122.225
94.9686
42.8578
93.9231
97.6413
98.5484
93.8653
95.0226
92.5457
96.1993
97.7743
129.454
97.0715
98.3535
95.1498
118.371
96.8482
97.3411
97.0143
97.364
94.9847
103.404
72.5937
98.7306
96.5316
98.482
129.04
97.4315
96.9213
100.717
96.953
92.3411
97.1129
118.716
94.8145
121.158
97.0553
95.0789
97.7358
128.38
119.91
97.261
98.7538
92.1948
127.003
99.5915
103.281
46.5872
125.269
93.4461
129.137
68.649
118.245
97.1233
92.2007
95.5361
117.329
102.29
128.387
104.843
98.6239
70.19
101.305
123.693
96.6448
93.9946
33.862
127.135
91.0852
97.106
114.251
98.5563
97.3743
92.8438
94.378
97.5199
90.9621
110.446
93.3407
101.608
98.0616
95.5412
97.111
97.3759
97.9507
94.6036
102.946
97.1536
99.022
112.295
95.4135
74.5872
97.4861
99.2097
94.4493
97.4161
92.1517
115.186
95.6128
97.5501
91.7375
113.29
94.6328
97.6443
94.5345
97.7309
97.8207
96.0175
94.1393
97.6785
128.924
48.9878
93.8727
97.1667
97.5992
97.0814
92.8337
129.082
95.1708
95.9706
98.5779
123.101
111.904
90.7066
96.4785
93.8371
97.4276
77.5256
96.737
60.8642
99.7312
129.007
96.7703
98.0448
97.9752
96.8454
128.534
129.72
122.139
108.091
98.8993
94.7856
95.9206
110.907
100.196
100.107
91.9292
109.62
128.627
97.7148
97.3283
93.4908
116.555
49.1993
96.9577
102.494
96.9258
94.8024
96.1512
91.0934
97.5169
111.722
101.225
97.323
97.9044
94.92
99.4805
42.1265
96.4935
97.8538
93.8265
97.7492
127.085
98.7114
103.209
97.3728
95.184
108.917
101.675
82.2688
98.3744
93.841
98.9854
93.5681
125.141
125.588
49.6422
94.5854
97.3536
97.7382
109.226
94.8297
95.7909
94.6387
105.361
98.7714
77.3218
127.031
97.1465
98.889
98.6988
101.005
124.514
97.6
58.1233
96.9735
97.4057
60.4394
111.944
100.601
94.5606
97.9056
127.965
118.146
97.5874
97.4357
91.8669
125.934
95.9345
101.58
125.521
94.1777
99.0229
94.4339
94.6003
101.498
94.8684
96.6095
97.4185
94.5648
96.9722
97.3413
97.7495
97.5283
123.086
97.4606
101.396
97.0882
94.1876
93.6887
97.8733
98.5224
127.116
127.327
57.9997
95.1242
96.0928
101.714
97.3737
52.922
107.909
87.4816
121.766
97.808
90.8038
99.3403
97.7604
93.8892
109.259
95.9061
95.8804
94.6249
97.4445
97.9107
121.359
97.708
98.575
113.58
91.3739
97.6167
96.927
115.811
97.7553
97.4155
94.8682
97.0115
88.5888
128.601
113.418
101.626
97.642
81.4323
97.46
96.8113
86.7595
46.452
102.067
94.1733
105.553
98.4888
96.4399
94.2866
97.7094
93.5627
99.1082
97.6292
97.6173
96.8947
97.9572
97.0844
97.7718
97.7317
101.395
99.0008
102.26
97.1202
96.9985
113.606
101.966
95.72
97.8554
93.8334
97.5353
127.955
103.917
93.976
97.8283
93.9606
126.969
97.7834
101.663
96.8416
98.0511
101.653
74.6925
100.891
90.7619
106.745
97.3546
102.343
96.5211
97.9403
114.68
74.2321
98.3501
104.777
98.0703
95.7956
97.2282
97.7175
106.709
110.05
46.9965
83.4565
99.7589
97.2923
97.7128
97.7991
89.8512
107.832
117.915
97.7199
96.9915
97.5469
95.1982
101.878
97.4261
99.9155
98.6469
101.267
101.96
103.046
100.055
97.7422
96.1301
94.7964
99.8661
127.112
97.8098
101.555
93.2216
97.2234
95.0558
97.1665
94.1454
128.84
97.2788
129.147
97.5182
103.452
128.954
97.8274
94.0203
114.138
97.2774
99.5912
94.404
97.3521
94.4028
93.218
97.2795
97.6695
93.4046
97.267
97.4038
100.912
97.736
97.2657
98.8417
93.6718
92.1505
100.889
109.824
107.66
94.1567
97.611
97.3009
97.7137
94.4611
99.5432
96.0437
97.4583
97.354
122.325
97.4165
94.6069
96.9724
126.847
97.0143
86.4587
95.3172
97.259
102.481
95.1553
98.6503
94.0558
97.5451
101.286
101.82
97.038
102.332
97.3446
97.1387
93.7751
97.5757
97.194
94.6061
98.6008
128.072
97.5261
56.0051
97.1784
97.3464
97.8315
101.526
98.549
105.802
98.3371
96.5049
100.445
108.111
89.0732
94.5231
97.5392
99.3921
94.288
97.3067
95.0499
101.67
98.0658
98.5159
123.694
117.642
96.4797
106.628
105.622
96.4411
98.1039
92.5528
97.383
33.1577
101.927
97.3675
98.4406
127.024
127.283
98.4849
97.8842
95.8895
94.7833
94.3308
97.5137
93.5524
94.1487
95.6722
99.0641
94.2187
96.8741
97.7715
94.0299
94.1481
95.6155
98.5465
97.5359
93.6701
96.9708
90.3206
94.7054
97.476
107.574
108.663
102.753
99.5091
101.518
107.425
97.3905
94.6063
97.8006
109.153
104.262
97.4784
96.5303
119.682
95.7343
121.725
96.9838
93.2792
107.235
94.2513
120.199
110.527
97.5029
94.0926
101.812
116.307
97.336
98.0589
97.431
55.9139
97.333
97.1198
93.4859
97.3876
98.128
102.631
95.9055
120.504
98.0894
95.0845
105.095
98.5668
87.0844
97.0647
97.7337
98.8995
93.4606
126.823
128.274
94.3454
101.724
97.3283
98.514
97.0485
87.8029
108.33
129.487
119.278
102.18
94.567
97.0482
100.179
97.365
101.526
96.9485
92.8782
94.029
97.7296
98.294
79.9318
95.4715
54.0247
96.7251
97.3973
118.415
102.566
99.9949
97.3145
101.07
94.4827
98.2422
97.5718
98.6976
97.0244
97.3866
93.8016
94.4184
100.244
97.3157
98.8757
95.4549
93.5397
80.8756
93.9899
122.737
100.854
96.77
98.333
98.1035
113.379
92.3313
97.4432
96.418
94.6864
128.46
50.958
94.4778
96.6723
97.293
86.5916
98.1672
96.7526
94.7482
98.0864
94.2371
94.3017
97.0251
96.1549
98.4064
98.145
97.1965
101.493
95.8012
97.5976
96.6818
115.117
102.266
128.23
127.698
93.2826
97.8156
96.5119
98.2641
128.994
94.5486
93.1599
97.4376
97.6736
97.7867
97.504
93.3438
97.1843
92.1658
97.2369
96.2057
95.484
38.9749
93.7818
35.2684
48.1518
94.3364
101.332
97.7602
96.3118
99.4898
94.3188
97.2835
95.2666
98.2244
87.6353
108.041
107.288
98.1533
99.0952
91.4488
87.6316
94.6667
97.9935
96.8731
128.286
97.0571
95.9037
97.2319
97.8137
96.9164
117.001
98.7122
95.0152
93.3574
98.6492
93.0197
95.1785
96.3965
97.7414
101.591
95.9573
133.838
127.91
97.1659
40.6989
128.514
98.318
94.503
97.2588
107.036
97.4003
97.6271
97.2494
93.8712
11.9661
102.306
98.242
89.0329
114.033
55.9184
118.371
94.2505
97.119
97.4915
96.9213
98.4107
93.9972
94.7803
97.4356
94.3423
98.4964
98.342
95.3576
94.0149
97.1257
97.5544
98.4346
94.0315
94.5202
98.0292
93.9642
95.6933
97.2489
97.5874
97.8274
98.7444
93.6403
95.2922
96.8836
98.4138
96.9781
94.0066
95.278
97.5156
97.1412
97.4559
97.0565
98.3432
94.1685
97.4592
98.5515
96.8418
97.6213
95.129
93.9791
91.2082
92.1324
55.7581
97.6037
98.6963
106.077
96.9535
94.516
97.2234
97.3748
98.6576
97.1535
94.5132
97.513
51.0502
92.354
94.9703
94.5947
97.2018
97.2181
97.9538
96.901
97.6133
96.3849
98.2644
94.3557
93.8199
98.6838
127.211
94.9859
96.4574
97.175
93.103
47.671
97.2442
93.3306
97.0615
110.549
99.9806
94.3532
93.676
94.8637
123.407
94.3466
94.5016
95.0191
96.7701
101.081
100.349
12.8297
97.2394
95.9461
97.9099
98.1126
95.8526
97.0704
143.073
97.99
97.4269
98.3838
94.9816
94.0761
96.9727
94.3557
98.4602
97.5426
96.8704
98.4748
94.0005
95.1952
97.6944
93.9448
96.864
94.0079
95.4766
97.5755
98.2233
97.212
97.1371
94.2787
97.4848
104.235
93.2898
129.347
113.397
96.158
101.082
94.4316
97.3579
123.257
94.7724
94.5366
133.039
96.4609
96.0767
97.6426
96.6687
121.683
95.216
76.9226
96.3443
98.0302
97.3473
99.6467
102.386
97.0812
100.066
102.117
98.1166
98.183
95.1391
98.3168
97.7942
97.1256
96.1955
90.2229
98.3353
95.8862
97.5815
96.0394
96.8885
97.7493
97.3108
97.4925
97.7832
97.8299
99.1727
97.1617
97.0494
102.017
97.321
91.1398
97.7461
94.565
84.8196
97.7733
101.664
110.931
98.0622
126.028
93.4734
97.5789
97.7868
94.5196
99.2285
101.93
97.1624
98.6245
94.9023
94.5592
97.0739
95.4568
94.1157
97.8483
96.9158
95.3865
98.4231
98.2303
94.7262
100.393
98.4754
98.8275
90.1244
95.5334
98.4624
99.698
97.0887
93.2123
97.3557
93.9069
96.6701
97.9544
120.267
97.5442
94.1463
92.8037
94.1193
96.6941
97.3356
97.4166
94.5082
94.9947
98.161
116.727
97.8952
98.8162
100.269
93.8434
122.661
122.052
95.664
96.5037
92.3298
103.72
97.9125
111.768
98.9192
145.618
94.1786
90.7922
108.643
119.331
92.1376
91.3224
96.1609
135.431
96.1467
112.429
91.9577
135.842
97.0713
93.2159
31.133
94.4436
94.2549
96.7992
97.4309
96.8552
93.9537
99.7259
96.8121
97.5414
94.1256
97.8711
97.5024
93.4499
93.8335
97.8312
93.7286
96.8377
97.0239
97.7619
98.5545
94.0771
94.5994
98.1198
94.1768
99.1845
99.097
99.317
94.199
93.6437
93.6852
45.2117
93.6025
96.3277
97.6307
92.8547
97.5887
96.9476
95.8976
96.3894
98.5556
97.9008
97.5206
92.8161
96.1119
92.5989
92.4596
97.4967
92.2483
97.6096
94.9569
95.1693
93.8396
124.668
95.2527
94.4186
98.5399
94.0599
97.9531
92.5992
97.9508
92.0358
98.4414
97.7044
94.0468
92.2816
97.7383
92.5552
98.123
97.5525
111.81
97.5277
90.4397
88.4986
93.2279
109.417
85.0912
97.4836
111.489
109.745
89.0721
86.1252
99.7261
97.6758
84.7794
108.133
114.064
97.4246
92.7443
111.67
84.7678
110.691
97.5995
97.609
97.7007
87.9179
93.3493
51.8924
97.6094
93.0433
93.3534
97.4828
87.9456
99.7341
93.7122
109.568
108.245
91.6703
51.3903
84.3557
97.6867
84.5119
97.3875
92.6069
91.4981
99.6121
111.286
93.7772
50.6089
91.5559
92.6696
99.5606
84.5213
46.9841
97.7147
149.732
85.2152
94.2369
91.5917
92.5406
97.7269
96.1853
108.222
87.7479
85.4694
46.5672
46.4016
93.5987
92.5776
93.8554
95.2262
94.1401
99.2554
100.009
88.9253
96.8023
93.961
97.5744
127.796
92.1869
94.2872
94.6911
92.4168
94.2007
97.8124
97.1935
98.568
93.9109
97.5068
97.1158
98.5326
99.0397
91.737
92.7016
97.727
94.5931
94.1047
94.05
98.5749
98.6986
93.2794
92.4617
97.9385
94.3849
97.9012
97.0848
87.8692
108.39
97.297
92.3173
97.496
94.2637
98.4964
98.6057
93.4832
98.6781
98.9413
99.0903
92.2708
94.2942
96.6276
45.6836
98.5042
96.3868
98.8633
98.5037
94.1999
95.1865
95.2666
98.2911
98.4623
98.5633
99.1122
98.9044
94.3175
95.3867
98.348
94.8919
98.4735
98.5869
97.9654
98.1813
95.4744
95.2879
95.1654
97.6579
98.4474
97.818
98.8763
95.3798
97.3901
97.4662
97.4289
93.9176
96.7167
98.4339
88.0084
97.1298
108.464
92.8303
97.3686
97.6559
98.5274
98.4497
128.045
88.3674
92.3823
96.1838
98.5081
94.218
93.0788
99.1122
91.9229
98.4329
100.171
98.4679
43.9297
120.266
99.3591
94.6928
92.8587
97.6996
93.8724
96.6737
97.3428
128.262
92.7635
96.6917
93.9047
100.368
93.8463
96.7006
97.3152
109.413
89.0385
96.7315
128.462
89.3664
93.0512
96.9172
94.534
41.7734
120.131
99.0187
92.422
95.8193
95.1099
97.7305
95.5097
98.7384
89.5919
91.6555
100.594
93.8886
96.7364
97.3447
95.5284
94.9246
99.141
128.318
90.0336
98.2843
42.046
47.4219
95.3129
120.186
94.0262
96.8653
95.3397
94.274
97.6674
97.7737
93.6733
90.2006
100.493
96.8703
91.3981
111.604
95.741
118.835
93.0075
96.8883
98.6372
96.1689
96.2498
94.6966
94.9484
94.1991
94.296
98.8565
92.8496
94.5865
98.1921
90.3498
100.451
93.9062
96.8322
97.3653
91.0173
111.457
95.9882
128.485
93.2513
92.9288
94.4632
93.0234
96.9284
95.3082
95.1194
98.3592
45.1638
95.1241
104.706
94.7543
99.7636
120.134
99.2188
96.8871
99.331
94.7771
94.8953
93.0211
94.749
90.449
98.2931
97.7293
94.7507
104.195
95.4125
98.4598
94.9529
92.6213
93.0728
94.5393
98.7261
98.425
100.548
93.999
96.9723
97.4801
96.2995
97.3997
95.0563
97.0086
98.2013
98.8313
122.929
97.1154
97.8118
93.0412
96.9567
95.0704
98.4178
40.8735
94.8411
96.964
96.3032
99.6934
100.929
93.2728
93.909
99.6188
94.9138
97.8066
93.3424
92.8711
94.0363
102.1
98.4894
98.6749
98.5314
98.9651
95.1141
93.8199
93.8155
99.1446
93.1282
96.2532
94.6201
96.6826
94.9463
97.7246
98.7932
129.246
98.4674
98.4985
88.6414
92.7548
94.6139
94.2869
91.3315
100.681
94.0554
94.1393
94.1824
93.1957
98.6635
93.9492
96.9704
97.4562
98.3688
98.4151
98.3099
93.0993
113.499
96.0609
99.6332
98.3632
94.9359
98.5187
95.0229
94.923
98.4473
95.4707
98.345
93.3385
102.763
93.4504
94.3652
101.664
97.7135
122.285
98.2071
98.7008
95.3071
128.598
95.2622
93.0953
97.0153
94.3309
89.4317
95.0196
93.8711
97.6654
98.4022
93.2037
93.7278
96.4681
93.7428
96.7454
97.3201
127.505
94.7561
94.7099
97.5141
97.1833
94.1422
98.5121
98.5759
94.3681
93.2568
98.0588
100.331
98.4854
98.537
96.7291
93.0285
96.911
94.9792
93.6329
98.0106
94.9077
93.9895
97.1031
120.148
121.051
97.6254
93.8404
98.3453
93.6115
120.426
98.2649
94.9395
98.9821
94.8783
121.314
94.0217
98.2746
91.6199
92.0018
93.9357
94.3656
99.2445
98.5739
94.8365
99.8018
93.918
100.16
94.045
97.7286
128.366
94.1955
98.4828
96.424
94.4806
95.192
95.0987
98.263
95.9766
98.226
94.7911
94.0575
94.427
94.1571
101.483
94.8804
97.741
95.8344
94.5991
98.2807
94.9379
94.0195
97.086
97.5398
94.7072
82.837
94.8245
93.8124
97.1502
96.8807
92.5514
86.1331
97.6893
99.5157
99.0169
94.8289
94.6911
100.796
94.8003
98.0155
95.9604
95.8576
97.6483
94.5302
105.972
99.52
131.527
93.8122
95.3245
97.3218
97.2736
94.5209
99.8007
94.0187
96.8317
94.4633
123.041
92.0743
112.919
96.7203
97.2705
99.0175
92.8414
95.2424
94.9119
109.852
95.6926
99.7647
105.353
110.553
99.1819
97.2378
94.2724
94.066
96.8413
97.6422
128.701
88.3296
94.0661
90.2939
95.6175
54.1656
97.7945
92.9552
96.9587
95.4222
98.8052
93.8124
85.7275
97.079
97.7287
94.4947
97.6068
97.4302
96.8049
98.9517
96.454
92.9821
44.7371
95.1788
98.3443
114.72
95.6083
85.773
98.1722
39.0562
106.745
96.4961
97.4874
97.3804
94.8711
128.189
94.8205
94.0743
97.3542
135.938
94.9453
94.0202
98.9334
97.0424
94.4746
97.7434
98.5945
98.6501
95.9833
97.9257
94.6228
121.377
92.6521
95.5578
93.4811
97.3547
96.3647
98.6791
98.7567
96.8019
97.9908
95.1913
140.058
98.015
95.8169
94.6694
94.9618
95.211
94.5697
127.092
98.8211
94.108
99.1377
98.4704
72.7818
127.639
98.729
98.8984
99.3512
97.5324
103.694
97.055
94.5563
93.8946
101.552
93.2189
94.4138
92.5176
97.5727
95.4086
104.292
95.7793
94.2775
96.1874
89.8138
94.2537
93.9356
96.6235
94.4326
97.7905
96.1707
97.2914
97.0785
97.3297
99.7981
96.165
94.6464
98.7356
93.7051
97.1188
96.0681
104.923
97.1014
93.1104
99.1658
95.5704
93.9157
98.2042
99.3727
100.404
101.516
93.9684
97.115
97.5145
79.139
94.9095
97.4654
99.3666
93.7821
116.537
96.4731
92.6672
94.017
105.684
91.5897
96.5535
93.0916
97.2858
98.1376
91.8067
114.92
90.8067
94.4796
94.4203
93.8827
95.7859
96.5222
99.2259
95.0905
97.1418
91.7968
113.614
97.8041
97.4504
96.5035
93.9639
97.0882
97.5265
93.8966
97.1753
93.9965
98.3422
97.5855
98.7967
94.0166
98.096
94.6077
94.2546
95.128
95.6139
97.0677
96.9252
98.5667
95.1645
96.9288
93.9683
97.1439
97.5512
135.902
111.67
94.7161
94.9432
104.502
112.568
112.016
98.7506
99.9514
97.6795
95.0225
98.6076
97.5269
99.4359
127.872
94.3426
97.5621
96.4318
89.6509
110.074
97.7342
96.9693
95.3971
93.9826
98.8244
94.123
97.7325
92.0974
49.9823
72.9395
97.5235
93.0126
97.0168
93.1898
100.366
97.7031
104.689
97.658
119.733
94.8002
98.3464
95.4274
99.4974
97.4259
97.7821
94.0718
94.7363
93.9308
102.747
98.5159
98.5092
97.0327
127.148
97.7617
94.2651
86.5713
95.1504
127.232
128.216
98.6596
95.3856
97.1689
97.4319
93.0116
93.9205
21.0131
96.9505
122.801
87.3702
99.5392
97.3702
94.6784
127.314
92.2727
93.7761
97.1596
97.5244
98.6749
118.5
98.2015
93.11
97.2101
95.2179
97.7791
96.8965
97.4652
94.5026
101.415
127.502
107.112
98.7517
98.5378
98.0421
94.6661
95.1625
97.7903
97.8783
96.4746
97.1952
97.1463
97.4834
99.2157
97.4939
121.279
97.4939
97.1946
101.412
94.3247
44.1544
94.7509
98.0591
93.9039
97.1453
97.5402
109.068
96.9158
95.3643
93.7588
94.6214
98.5903
97.2062
98.6781
98.5031
98.0413
96.9536
95.1999
97.5243
95.8965
96.7007
97.7017
94.8904
93.9976
96.4174
98.7491
99.2295
98.5579
95.1226
97.0064
101.461
97.8269
97.2688
94.3764
121.118
122.9
93.646
97.433
98.7502
98.1998
98.954
93.9977
95.0913
94.1559
97.285
96.9582
104.64
98.7761
94.0537
94.3397
99.5765
95.9254
96.9086
88.6661
99.7256
95.4851
114.422
97.1649
94.981
97.8003
97.8248
94.1332
92.489
94.4838
97.9882
94.4501
96.8602
99.3217
83.7438
103.996
98.4656
94.9822
99.4408
94.3968
99.6386
97.6874
94.6131
101.736
101.481
98.9992
94.1305
97.9134
97.3815
97.6079
94.5337
97.4519
94.1233
97.3428
97.1373
97.343
97.2873
97.7274
97.7028
94.9857
95.5948
102.024
93.5728
97.2522
97.7864
99.5553
97.9449
97.9834
94.9684
99.4183
94.592
97.8112
95.9135
127.65
90.7301
37.2996
94.5582
96.4668
95.0923
95.5591
94.472
97.1644
97.4723
97.6444
97.1651
97.393
101.651
94.4365
118.965
97.3681
97.6798
95.1908
94.1905
120.026
97.2273
97.1437
98.4387
97.3076
119.432
93.3794
95.3232
98.5787
92.7836
129.006
100.546
94.2664
97.9669
110.19
84.6746
94.4873
94.2924
97.2071
98.0249
94.8755
93.6645
97.2339
97.6733
94.4054
97.4604
94.1733
93.9123
94.9865
98.6273
97.9969
96.9631
95.1601
95.5236
97.5113
97.0911
97.3701
93.9985
94.4888
96.9961
99.2638
89.5914
97.4886
118.29
94.0732
95.1315
93.8974
35.0875
95.6641
124.619
97.8066
94.0214
93.3457
98.4659
98.8442
97.6763
95.3366
97.2904
97.4337
98.5609
97.8058
120.746
96.4867
88.8665
97.8302
96.029
129.463
98.3706
93.8192
97.7047
97.1061
94.5145
99.5904
98.8261
95.7784
93.6393
97.1588
97.4872
97.1409
94.1984
97.4299
98.935
96.4587
84.1182
93.938
92.9736
96.9767
56.2869
101.76
110.644
96.0081
94.0031
127.66
70.7685
114.338
98.8842
93.672
97.1598
97.5063
99.6624
105.776
93.0852
96.7557
97.3957
97.2093
100.473
121.831
133.598
92.3558
113.962
99.9275
126.939
97.6257
94.4116
97.6931
96.3403
93.0772
98.0805
113.361
99.5849
97.5008
98.6689
96.9008
127.516
94.7188
114.701
93.9078
96.7008
97.052
93.139
97.5189
98.0353
97.0056
93.9597
97.4425
97.6042
95.0767
98.6969
94.138
97.5806
94.8131
97.7886
95.7799
102.405
39.8953
127.124
97.3666
97.0469
97.726
99.7009
98.6488
97.9394
94.426
96.641
99.2771
94.3125
95.6845
112.753
97.0464
90.1253
111.591
96.1405
97.7392
97.7337
102.242
34.8126
95.742
87.6404
108.109
93.0955
94.5646
103.179
101.294
94.6678
93.851
95.9868
93.2609
129.221
97.2967
93.3532
97.3078
102.833
43.5397
95.7005
99.3077
94.1935
99.6994
94.0325
91.774
97.2649
111.711
95.4552
97.307
98.8013
119.424
97.6678
99.1969
96.2529
96.5819
97.8629
96.262
97.2138
97.3097
97.7001
97.3455
111.169
97.0568
110.574
94.0385
94.3591
97.1364
94.6338
128.843
98.3036
97.8584
104.768
115.147
94.7926
96.6516
94.9668
97.7167
96.6347
93.5934
126.385
94.4536
96.6967
98.5871
95.4084
95.7714
125.723
126.919
98.333
94.8312
96.9954
97.6745
97.8736
94.9016
91.3792
95.404
96.8734
97.3001
97.6175
97.4148
98.0653
80.8056
94.0453
126.756
97.1992
96.7219
99.5708
94.2716
92.897
121.557
98.4999
97.8897
119.694
97.3175
116.514
110.364
96.9644
126.225
98.5442
126.977
96.218
97.8052
96.3778
104.189
96.9248
107.843
92.1433
102.907
28.0096
97.556
125.386
94.0652
106.567
94.3683
107.638
95.861
126.013
126.847
96.3497
111.931
94.4107
93.1778
97.2895
97.9689
93.8204
99.6232
108.166
97.0673
109.932
108.416
96.9184
97.7731
95.5008
128.118
93.6456
94.7658
97.9509
101.558
97.706
101.819
102.151
97.0157
111.719
95.7773
99.5064
93.1855
93.1618
97.3466
110.001
127.287
97.7418
115.723
107.144
92.4265
97.5027
97.4865
97.7651
97.0381
97.776
127.027
101.2
93.4007
94.7059
92.982
114.865
90.8604
98.3743
97.1411
93.5476
93.6362
99.5601
95.6274
94.452
99.5506
94.884
98.0315
99.3477
96.2417
98.6149
114.237
103.732
94.4974
97.7688
97.8074
96.9669
109.207
94.0845
96.95
96.6386
97.5443
95.8281
90.7279
93.6314
47.9993
97.4966
97.2018
102.405
97.1504
94.0317
97.5087
126.723
98.4993
119.903
97.2286
98.5874
85.6
93.8455
97.7581
100.034
96.6037
105.619
94.0419
114.585
96.9709
97.1322
97.3624
94.4246
100.207
95.1694
55.9349
55.0961
94.1963
99.9849
95.3661
96.0637
97.5526
97.2101
92.812
98.0162
97.463
93.953
93.4241
94.102
95.122
93.0002
97.1103
129.19
94.6874
97.063
91.4218
94.5326
107.606
99.4952
94.2052
97.5483
94.4549
116.123
95.2914
97.1853
97.3547
92.5202
45.0996
97.1772
97.9356
110.864
127.603
97.4413
94.7828
97.7187
97.2878
96.0924
96.2732
97.7955
94.4716
96.9877
95.2258
97.0717
94.0169
97.4593
95.1337
98.0851
93.3319
112.409
98.1802
94.6566
98.9963
97.8094
95.8699
96.9662
96.5722
108.061
87.7153
94.9141
94.7798
96.8034
97.6802
95.4272
92.3747
91.6002
103.801
100.006
114.707
124.211
145.065
94.7539
95.3791
129.417
92.9016
98.0312
97.6932
124.1
98.8642
100.89
10.5303
101.901
96.8876
95.6724
97.1374
97.1699
97.5017
93.9537
98.1594
96.871
90.4059
97.9505
96.17
100.93
94.4576
128.923
94.0511
114.978
92.8439
98.1952
93.4608
97.1283
97.4177
96.9562
92.2546
96.1654
94.3959
93.5186
35.3404
116.512
94.5673
98.8267
97.5991
98.2189
93.5402
98.779
99.5853
90.6507
97.7063
97.706
97.761
98.0545
94.82
94.4346
95.3909
99.4639
93.6761
120.835
97.5057
96.5414
98.0543
97.6424
102.27
109.014
99.9824
101.058
97.4902
90.5601
94.4673
97.7507
92.4426
97.3672
99.5981
95.6947
94.0691
95.8528
129.039
97.1613
97.395
128.6
98.2706
94.8946
97.8896
84.1361
103.037
102.815
97.3513
100.257
97.3941
100.329
100.457
103.716
101.863
97.5174
99.2311
96.0799
98.0026
93.3851
106.761
97.3995
100.001
97.5455
94.3186
94.4209
102.494
98.1821
99.4856
94.0008
97.4406
98.2102
94.009
97.4399
97.8521
100.039
48.5978
93.277
97.1532
97.3934
94.425
98.4847
96.9845
94.0206
97.3992
97.1017
93.6985
97.3876
125.707
97.9136
97.5876
95.5596
94.5133
94.2558
101.173
93.3222
94.4847
95.7423
94.5481
96.3895
97.384
95.1471
117.394
114.289
94.0049
96.0259
96.3361
97.8856
97.4905
99.02
93.9876
127.679
102.957
92.5905
118.744
96.6579
95.9887
92.3751
99.2089
99.2798
84.3211
97.2937
103.474
93.4693
97.7734
95.1137
100.195
94.7828
89.51
131.132
92.132
95.0943
98.0894
97.1409
97.0826
117.04
126.523
98.8329
99.7261
93.9767
111.97
96.2983
92.6204
97.9881
98.6613
93.9287
94.2269
98.3342
92.7958
94.4052
98.3988
94.7766
87.6747
108.073
97.6097
97.1891
94.2974
97.136
93.2825
104.162
97.6005
93.5354
98.5821
94.443
98.7652
97.3782
101.488
94.457
18.3788
99.9213
94.2995
94.535
97.6285
94.1452
98.3498
92.4608
98.2036
96.9927
97.5288
97.4506
97.4208
126.496
94.2883
127.492
98.0548
94.8692
97.0188
99.4155
95.7524
93.9464
54.0785
120.075
101.713
97.2967
96.2868
94.5025
86.5409
90.4712
94.7476
97.6348
101.745
101.392
95.5003
94.6036
45.8487
97.5394
93.8421
97.1774
96.7957
92.7718
95.0772
98.5625
93.9327
52.4805
98.4206
94.7353
96.2877
97.587
96.4486
92.3259
93.3545
97.1018
100.037
112.474
98.0016
98.3358
97.3512
98.6818
93.1113
91.0485
97.0094
129.395
120.647
97.9384
84.3524
95.2461
97.1403
93.6628
97.4018
99.9172
119.888
97.5071
103.242
96.1738
96.3263
95.0861
98.2728
101.625
94.352
114.455
97.4681
90.4365
96.8601
97.3388
129.054
97.689
92.6253
93.7223
97.7521
98.7347
89.3506
43.7733
111.227
94.5387
98.725
92.569
94.2571
98.2533
94.5237
97.1794
97.92
97.29
97.5657
97.2283
128.607
96.4463
95.993
94.0057
98.5318
51.6414
94.2074
91.3943
112.558
97.3976
99.0522
97.3664
101.664
93.5537
97.3914
97.1689
92.939
98.013
95.0889
93.2014
126.713
98.6
98.9523
97.3915
96.7772
93.5655
91.6779
100.375
100.145
93.6307
98.0193
97.3859
101.993
96.2498
97.7216
118.739
69.1147
100.059
54.0842
97.9807
94.619
87.6733
86.3078
97.6975
97.7931
78.8273
98.5834
120.768
98.0061
90.1149
114.725
125.801
118.875
100.122
98.6386
94.7119
95.3292
92.6267
85.2997
91.8058
93.7507
99.6144
109.317
108.919
103.42
92.2757
99.3945
92.5254
101.896
97.4857
97.1794
94.9417
97.2325
95.9555
126.646
92.5098
92.542
92.6608
101.091
93.2942
94.697
91.6834
97.8347
96.9489
93.9545
97.3918
96.139
92.3099
99.8924
94.872
98.1062
89.6821
93.076
94.3792
94.3058
94.6296
110.058
98.5952
95.2747
95.3095
98.6357
115.768
123.787
98.6885
96.8695
117.913
96.624
103.646
97.9067
95.9798
96.7627
97.2983
97.4575
97.6096
98.4783
93.5797
97.096
98.071
128.155
98.5434
97.0367
94.8696
97.3218
94.9601
97.0332
89.1131
95.722
97.7037
101.303
122.808
94.5511
93.6277
96.7707
92.6995
99.9862
94.9572
98.7385
99.6672
97.6851
97.761
95.4804
98.5271
50.8247
94.4594
127.211
99.259
97.9159
99.5972
125.288
94.5549
53.1131
102.044
97.596
97.6225
97.8422
96.9212
97.7004
97.3164
93.4933
97.7531
92.88
97.2981
97.66
94.498
99.0165
102.117
127.78
99.1402
94.9984
96.6779
98.8782
97.7932
94.5644
108.623
88.2704
93.9798
101.475
95.4956
100.07
96.5023
101.492
120.336
96.9508
97.7289
98.0962
93.3945
129.115
91.6257
97.6656
92.0334
93.1416
98.1101
98.7558
98.1057
127.757
103.282
97.5756
97.261
92.9816
101.918
97.1771
96.6624
92.6933
98.8234
97.2756
96.2153
44.5396
98.807
95.3729
112.503
128.955
94.7592
94.7878
96.9291
127.215
96.7934
99.8372
94.0978
35.6622
58.2835
98.9114
47.2838
97.2887
34.6246
93.8135
112.855
95.8136
94.1785
97.7468
97.7284
97.7026
97.7122
97.5517
97.4726
97.6198
97.6761
97.7687
97.7253
63.098
98.8199
98.4849
97.9626
98.1815
56.5023
99.1672
97.1659
92.9227
95.6175
94.3719
91.7619
68.9292
49.1662
91.1417
78.6665
73.8762
91.3378
99.2434
95.1932
95.8983
95.6082
94.794
96.3069
97.7691
95.9921
97.9182
97.791
96.1575
95.8524
96.7122
95.7439
95.9623
97.8176
114.193
115.413
99.0075
99.411
96.8061
91.8258
95.8588
101.558
113.903
118.076
107.221