/*--------------------------------*- C++ -*----------------------------------*\
| =========                 |                                                 |
| \\      /  F ield         | OpenFOAM: The Open Source CFD Toolbox           |
|  \\    /   O peration     | Version:  v1912                                 |
|   \\  /    A nd           | Website:  www.openfoam.com                      |
|    \\/     M anipulation  |                                                 |
\*---------------------------------------------------------------------------*/
FoamFile
{
    version     2.0;
    format      ascii;
    class       volScalarField;
    location    "0.47";
    object      epsilon;
}
// * * * * * * * * * * * * * * * * * * * * * * * * * * * * * * * * * * * * * //

dimensions      [0 2 -3 0 0 0 0];


internalField   nonuniform List<scalar> 
1466
(
20.2664
35.184
15.1636
88.9951
7.82366
21.6248
20.4773
53.1512
9.20733
44.4489
58.9098
41.0771
5.86705
7.3851
25.546
78.914
33.616
95.1204
107.394
64.8574
102.977
64.263
79.8865
54.8123
7.30335
9.78547
43.2806
80.0396
8.3349
49.5698
68.1683
10.9693
18.4958
92.2116
122.135
73.122
80.4782
43.5194
75.4602
8.50352
22.6828
60.0168
73.8002
28.2837
7.03847
29.1066
79.0553
4.46545
49.4375
9.25766
16.463
44.588
28.2018
5.19755
25.6604
6.70185
26.5506
63.7452
14.3047
52.7887
20.1452
25.8556
6.30954
28.8963
72.2464
39.2208
148.457
62.3846
33.3155
16.0186
57.0248
142.984
92.1517
6.86406
16.5117
80.2297
25.0199
4.96885
8.19545
69.4963
54.1884
73.2147
16.0613
78.8458
94.5722
133.978
91.3946
72.7301
60.5556
40.3885
12.8314
45.736
116.305
17.5298
24.4623
18.7152
32.936
71.5717
8.49767
7.17066
22.5408
10.9942
4.04172
77.2272
84.3001
75.806
36.8829
5.00666
77.3097
22.7646
15.8472
96.8948
21.6667
65.2081
53.4095
21.8437
49.6771
39.3804
20.7238
12.5282
96.7549
28.7205
3.3679
33.4133
6.92438
69.9583
42.8613
76.5251
54.0523
30.7378
70.0188
54.1011
78.7384
54.0955
14.8608
24.5335
9.90563
32.5126
20.3609
9.1032
13.8268
87.5945
71.2924
72.7839
68.7769
150.966
10.8726
16.7274
48.4989
87.8983
14.8238
32.1184
38.0828
15.5159
37.4433
62.4811
71.4046
84.8411
11.2517
44.1568
10.206
56.5296
119.301
80.4656
102.013
82.4788
64.4459
86.4562
89.7977
37.1538
96.9855
7.87816
6.13433
34.5393
29.6392
7.41065
41.4775
59.6219
13.7396
74.5891
8.82762
27.6972
119.836
3.99931
75.1829
135.357
97.3877
46.4108
35.2408
20.6703
106.57
26.0427
118.865
160.319
40.626
18.2911
15.828
149.612
112.074
171.135
74.9153
39.2081
45.867
31.726
43.0807
92.5548
119.736
27.1666
10.9163
60.7178
93.8387
88.4189
122.428
89.1364
107.481
78.4511
134.35
97.1226
52.6514
59.8113
82.4865
23.2549
82.39
22.2589
85.7446
78.5601
57.864
4.29701
13.776
22.3281
43.888
80.3369
174.384
134.115
13.989
71.1204
68.442
80.0154
19.4598
103.876
48.8874
68.3198
38.0862
183.78
15.6903
51.836
10.7833
6.85472
69.2862
33.2773
122.731
78.0908
24.2806
48.6441
7.72322
15.3575
71.4009
11.5643
110.235
112.396
88.7615
77.1347
53.6936
22.0308
61.3332
5.67568
38.3125
42.0901
94.5858
11.3571
146.3
131.526
55.6684
11.4044
13.96
26.6619
17.8391
55.4436
95.4935
53.9172
19.1876
57.0438
73.8975
62.8702
64.3408
6.26711
53.6473
49.897
4.50403
19.2794
22.7227
22.7087
7.49102
3.72116
43.7241
36.7028
215.106
11.8164
55.3121
19.1879
4.49525
32.947
7.03704
8.1969
88.8843
5.06005
28.0199
21.7343
36.2417
122.184
30.6144
104.358
64.6675
33.531
48.4671
42.1212
103.206
31.3822
15.4925
28.0027
36.2533
162.837
104.915
16.743
88.3353
16.1361
6.91574
32.254
14.0021
31.5496
71.4559
17.4499
16.5459
34.0847
88.3326
15.6099
98.1755
18.0216
25.6715
25.4708
4.02509
30.2668
30.5898
66.1715
38.2168
8.1053
60.9159
39.8563
39.2138
88.384
29.6872
12.6638
59.1183
110.621
78.0448
104.924
98.3138
19.4271
7.88708
39.1092
85.4799
91.9335
65.9753
48.253
16.78
177.948
26.9234
26.032
64.5692
37.2491
33.1975
107.922
100.681
29.4976
18.5725
78.2269
50.3924
103.343
22.8581
54.8605
78.2599
52.0174
79.7722
77.6754
42.8306
47.5529
23.8017
23.0675
19.6801
13.3346
13.366
26.8941
49.021
28.4169
35.1094
18.326
6.85054
101.467
25.2539
45.2788
4.16347
4.04034
67.0372
10.4338
45.0278
98.6334
81.2858
27.3142
120.158
108.531
24.5011
94.9957
114.64
106.848
68.2727
12.4454
9.55307
45.8331
31.7132
30.7236
79.1954
81.2374
31.0156
122.313
32.1158
8.63015
55.5249
95.3523
27.4983
11.358
51.698
17.9921
89.2371
211.393
31.6655
26.5247
7.36426
13.5033
4.60523
46.4066
4.60386
9.58596
50.9108
5.00851
27.6557
34.5687
26.5323
33.5021
29.3098
57.8312
34.0878
24.2087
5.723
11.322
20.2459
9.77748
17.1068
34.9504
7.153
30.009
19.4293
10.5217
18.4569
65.9662
50.7319
28.577
21.6569
8.02161
10.5645
22.827
7.55977
28.3966
51.1824
2.61492
29.5463
26.4891
3.32543
58.9495
120.91
56.7386
34.0481
103.138
88.4997
111.531
85.2021
22.1722
24.5212
3.49467
119.601
70.3475
95.1605
77.6033
24.4029
22.578
31.0399
33.9208
58.6761
39.507
41.3733
65.3922
73.4278
99.4428
55.7027
82.6178
11.8577
72.9079
63.0194
34.996
25.0967
43.1529
25.6363
73.8202
37.5014
163.966
57.3575
56.2587
10.7657
10.1143
19.8833
38.4971
66.6104
13.1986
132.57
26.3525
64.2059
11.3331
10.4642
63.0498
12.6478
103.365
11.3657
191.705
112.906
31.0683
39.5886
9.02679
32.6231
71.2246
15.4931
97.716
20.6725
89.8081
21.7781
37.2647
16.8601
29.3688
23.6197
22.7468
115.84
32.3213
82.3133
25.501
3.97254
38.4534
174.958
48.188
44.2423
60.9497
55.7134
16.7611
98.459
95.2783
23.398
36.8916
15.2679
35.8766
26.0968
130.962
74.4964
97.4256
92.2432
129.953
24.9677
49.9456
19.2689
106.752
12.421
78.9338
41.6179
70.1849
44.3825
95.597
57.7994
63.3959
78.7827
35.1344
99.6724
8.54933
34.3761
47.6063
91.8091
25.0092
53.6544
57.6866
121.998
75.8604
70.7089
53.8841
27.4397
62.7057
40.6723
13.6574
14.6711
28.5348
192.966
62.2334
27.3871
2.33753
38.4679
98.2444
16.2741
112.326
21.5904
35.0375
110.394
31.0863
51.2556
26.3602
24.5034
102.165
27.8745
11.8936
23.2714
18.9662
39.31
60.3085
228.047
60.8563
74.8849
79.1376
69.7251
22.215
25.1682
15.8697
81.551
11.6815
91.6007
72.7355
46.8418
82.3414
122.783
79.787
55.1361
23.94
113.356
13.7932
61.1353
104.883
56.1304
27.3024
87.3672
11.126
32.5411
17.3198
118.042
111.054
23.6703
185.242
14.2409
6.01084
135.982
90.3699
14.6739
13.8399
98.9598
28.3005
108.043
35.1373
52.8954
18.7961
25.3412
16.3114
56.5392
7.70676
53.7766
5.58002
34.8556
7.07489
23.9703
18.5828
76.982
22.8585
10.813
143.236
17.4455
112.221
24.7195
7.71209
39.884
10.8026
114.651
18.1115
15.5152
59.6641
18.5903
7.31501
49.261
74.0709
26.7078
58.8931
119.39
21.7491
8.88066
14.2655
95.2355
77.0826
26.5781
14.2366
7.50038
88.3613
18.5846
127.756
18.89
63.7381
125.421
95.7619
47.1261
80.317
74.9597
55.9765
69.6813
98.8131
146.723
56.6923
206.663
110.249
80.0685
12.2638
43.343
9.04267
64.9225
117.661
65.24
9.72833
127.312
79.2884
114.575
80.3587
8.01056
108.09
80.2681
51.93
100.336
6.40644
12.5009
23.7935
31.5112
22.2785
26.153
47.4955
77.8775
65.2894
10.7983
6.81543
112.642
105.138
147.337
83.3983
13.9864
102.756
91.5781
9.61241
29.0975
43.515
139.583
44.8662
73.5909
113.433
68.7426
125.313
25.9161
11.4194
3.52042
34.1846
58.4817
107.205
39.0982
15.5759
25.0635
110.609
21.0512
23.9849
82.6203
32.8728
92.2441
11.205
37.7522
69.1066
82.7263
35.7928
53.1727
97.9734
97.711
10.6701
31.6383
15.8926
106.754
59.5008
15.2902
5.35013
26.5033
61.9705
103.427
19.0351
37.571
5.3306
14.1698
13.8334
61.8086
84.9797
117.802
52.6545
74.0929
50.5689
34.2784
17.9878
81.6983
78.5079
14.1924
88.6481
94.2899
84.0069
16.0487
59.8752
5.82753
39.422
88.2827
12.5316
17.592
72.3336
70.011
84.3769
16.7134
119.269
24.8105
24.4139
15.0932
13.1617
13.4558
18.1777
24.6951
112.326
97.5164
21.8717
80.0927
77.0769
32.9094
98.8488
35.5847
62.6765
87.2244
59.5804
95.5632
21.5312
53.8364
23.9532
66.3522
22.5223
60.2281
95.5209
127.317
94.3861
10.1676
26.5444
9.7649
36.962
104.284
258.568
30.3955
34.8496
57.8279
9.29255
53.7052
11.1406
128.024
14.0027
99.6248
97.9575
107.563
93.0376
123.638
119.613
118.186
124.06
153.83
162.64
182.143
158.44
155.232
155.877
156.701
148.947
207.038
124.582
139.376
233.378
250.024
162.868
227.125
154.961
150.674
142.936
90.7076
94.5786
6.20992
9.63549
56.7843
12.708
12.065
17.5749
5.57188
24.997
119.935
71.5593
112.665
20.6777
30.1659
11.7891
46.0749
15.5256
54.2385
25.4907
116.173
34.7293
43.8787
128.844
73.1934
133.92
24.0906
4.23889
8.03628
9.10775
7.6231
38.5249
47.5294
52.8937
98.2876
17.009
10.587
27.7361
21.0001
12.2697
24.2724
106.953
27.3606
7.96519
29.9625
93.8138
41.3613
15.2067
52.2903
42.49
66.2141
79.5128
114.736
65.6856
9.53359
54.4509
97.7674
44.9821
128.526
34.7779
131.964
34.5979
79.4999
122.203
3.60089
49.6311
26.5463
60.152
7.1212
96.689
69.7371
95.8494
29.2345
28.7489
30.1207
78.4182
30.7988
12.8271
18.8407
83.04
124.328
99.8463
20.6525
132.198
116.339
27.4527
126.114
69.6545
11.3314
2.9713
33.9573
53.4659
121.219
197.091
60.9959
64.2856
6.59772
13.9183
71.6492
48.3331
80.191
12.9772
67.0391
28.2167
9.62117
2.82528
36.8636
7.79222
41.2875
78.006
4.91714
10.5778
132.438
11.2528
77.7581
20.0078
52.8934
115.144
98.6058
131.494
81.5552
98.4762
97.0164
95.9232
77.9163
84.6318
57.034
4.29543
36.3004
114.104
34.3998
9.27406
21.7597
63.375
33.0914
12.7052
61.4235
7.4902
36.7095
39.1408
25.7401
5.25654
37.5616
15.1888
24.9579
14.5481
45.1242
122.899
26.5219
3.38746
10.5534
90.5538
38.5486
17.322
26.5682
118.192
13.8149
24.4719
12.0825
7.44712
28.4802
40.1111
7.31457
103.04
96.7473
30.8798
3.12933
2.9232
55.0446
50.1136
12.5105
8.8416
12.7083
22.3681
6.85405
13.0342
12.8822
24.2923
3.70569
8.15665
128.191
13.4469
13.6454
13.5874
13.8247
40.4637
44.5383
10.75
11.1295
12.3201
12.8318
64.4211
92.7961
58.5847
27.486
19.914
98.4984
115.696
32.9128
109.148
85.5417
61.8201
33.4872
7.1985
12.8733
107.509
60.9001
127.619
65.5735
8.11498
127.553
41.5137
46.8004
59.5493
118.748
95.9166
114.11
9.46432
87.4983
33.3623
105.406
94.0013
137.923
6.87866
20.8987
14.4114
61.2719
41.0819
62.199
70.6769
51.948
20.3623
9.32695
39.7764
37.2329
79.8231
92.4295
115.927
113.749
13.6318
3.3992
30.0273
51.484
43.2738
21.3947
12.4713
22.0645
39.412
102.195
47.825
56.72
103.004
7.58828
14.1582
22.379
59.972
35.2233
115.143
22.5216
82.889
125.702
92.7301
86.035
126.689
35.8675
88.8804
87.3498
5.71062
35.9244
44.9126
23.5746
31.8196
4.93876
74.2818
64.9253
72.987
100.832
108.613
130.103
38.6234
30.6611
76.4682
69.8717
96.0717
110.544
24.7077
7.15823
44.1454
58.6231
9.14112
90.8536
34.9532
41.6665
49.2627
42.7578
20.5369
16.1288
10.902
53.8331
8.14522
18.81
39.7663
35.6121
22.8665
218.368
6.66491
11.4094
21.1205
14.3551
8.26354
38.6236
24.2544
3.76664
6.22262
50.1951
64.6422
118.777
107.06
106.176
13.754
65.3773
6.71246
74.8369
49.4093
3.14308
46.4915
45.2841
78.2137
75.2921
63.52
67.0432
94.8864
23.4567
5.75501
100.887
16.0065
4.09377
32.1271
7.21847
88.2865
11.6605
114.699
8.74403
131.118
48.8041
3.59257
122.526
27.5062
7.10793
90.9115
82.8283
38.0635
71.9974
40.8137
101.403
44.6941
84.9781
9.30682
33.8591
31.3465
103.603
40.2203
114.927
139.5
59.2526
152.975
161.955
145.154
7.2164
29.7805
49.6931
10.2916
110.837
15.2929
66.6963
98.7863
28.5322
114.54
59.6203
6.18237
38.1259
30.5412
7.64806
39.0343
22.0584
15.3662
30.5699
201.033
119.213
70.6122
81.2971
8.23646
24.7523
106.581
68.0974
66.6705
64.2373
68.785
73.6843
133.72
54.4111
49.0675
107.819
6.47981
64.7037
114.652
88.9682
23.5906
23.9053
3.89751
24.137
4.38624
33.1843
22.0693
93.8101
8.62655
13.3203
44.7525
27.2036
74.1851
105.455
88.5811
5.66376
87.5555
41.705
6.73769
8.60095
12.0299
10.078
191.033
11.7626
102.041
11.5051
35.9803
13.1622
6.96191
95.031
7.34933
10.7973
68.2204
11.032
91.7495
83.6221
114.237
57.6165
40.3794
23.1186
22.3606
52.4292
14.4638
30.8295
95.1406
6.01734
57.7034
70.5485
30.6357
63.9259
49.9052
120.131
21.9967
45.5202
12.7092
50.077
101.411
35.4642
9.38022
8.69788
15.9997
11.984
93.3968
76.2901
40.2263
47.0374
144.435
25.1825
94.8931
55.7844
63.4652
57.6543
23.3268
67.3838
93.6329
13.5495
34.8212
91.1179
17.7324
136.439
38.3148
70.3589
124.641
69.1873
99.0553
94.9787
93.2182
92.3575
4.16594
22.2405
10.4589
4.55039
26.4596
9.38872
61.338
31.1591
74.6864
54.1481
109.173
72.8766
108.444
10.9796
118.476
92.4456
34.941
15.4429
121.32
40.9824
24.4645
23.9321
68.6238
33.9242
164.327
30.5515
22.3441
10.5042
10.2767
65.0124
72.6752
55.8932
13.616
174.505
69.6861
46.6962
134.033
7.79096
53.6509
79.2496
65.1184
8.62267
22.9821
50.034
9.88755
51.8033
144.718
36.5849
12.8618
44.4244
155.582
61.9566
64.5781
36.0619
69.5614
10.3508
7.71011
6.92524
24.6134
32.6985
7.3051
104.599
8.10442
6.47145
111.83
20.2094
64.6356
29.4063
22.8636
)
;

boundaryField
{
    frontAndBack
    {
        type            empty;
    }
    wallOuter
    {
        lowReCorrection 0;
        type            epsilonWallFunction;
        value           nonuniform List<scalar> 
108
(
95.1204
142.984
92.1517
7.03704
8.1053
17.4455
24.7195
7.71209
10.8026
18.5903
7.31501
26.7078
21.7491
8.88066
7.50038
9.04267
114.575
31.5112
22.2785
15.5759
14.1698
117.802
13.1617
32.9094
97.9575
107.563
93.0376
123.638
119.613
118.186
124.06
153.83
162.64
182.143
158.44
155.232
155.877
156.701
148.947
207.038
124.582
139.376
233.378
250.024
162.868
227.125
154.961
150.674
142.936
90.7076
9.63549
30.1659
133.92
9.10775
93.8138
131.964
34.5979
132.198
67.0391
10.5778
98.6058
95.9232
77.9163
39.1408
37.5616
14.5481
38.5486
28.4802
40.1111
96.7473
2.9232
2.9232
12.5105
12.7083
13.0342
12.8822
128.191
13.4469
13.6454
13.5874
13.8247
40.4637
44.5383
10.75
11.1295
12.3201
12.8318
64.4211
109.148
85.5417
8.11498
59.5493
94.0013
137.923
47.825
56.72
125.702
92.7301
64.6422
10.2916
106.581
64.2373
13.3203
41.705
11.7626
8.69788
15.9997
144.435
)
;
    }
    inlet
    {
        type            fixedValue;
        value           nonuniform 0();
    }
    outlet
    {
        type            zeroGradient;
    }
    wallInner
    {
        lowReCorrection 0;
        type            epsilonWallFunction;
        value           nonuniform List<scalar> 
126
(
43.5194
75.4602
8.50352
22.6828
60.0168
73.8002
28.2837
7.03847
29.1066
79.0553
4.46545
49.4375
9.25766
16.463
44.588
28.2018
5.19755
25.6604
6.70185
26.5506
63.7452
14.3047
52.7887
8.19545
18.7152
32.936
71.5717
8.49767
7.17066
22.5408
10.9942
4.04172
77.2272
84.3001
75.806
36.8829
5.00666
77.3097
22.7646
65.2081
53.4095
33.4133
6.92438
70.0188
54.1011
24.5335
9.90563
32.5126
13.8268
119.301
29.6392
15.828
110.235
112.396
88.7615
5.67568
38.3125
146.3
131.526
55.6684
22.7087
3.72116
36.7028
215.106
36.2533
162.837
104.915
19.4271
64.5692
100.681
103.343
101.467
45.2788
95.3523
89.2371
211.393
26.5247
13.5033
9.58596
5.723
9.77748
7.153
163.966
191.705
174.958
228.047
185.242
206.663
36.962
258.568
131.494
83.6221
52.4292
174.505
46.6962
134.033
7.79096
53.6509
79.2496
8.62267
22.9821
50.034
9.88755
51.8033
144.718
36.5849
12.8618
44.4244
155.582
61.9566
64.5781
36.0619
69.5614
10.3508
7.71011
6.92524
24.6134
32.6985
7.3051
104.599
8.10442
6.47145
111.83
20.2094
64.6356
29.4063
)
;
    }
    procBoundary1to0
    {
        type            processor;
        value           nonuniform List<scalar> 
29
(
14.1556
14.1556
18.3452
17.6555
42.5727
38.6728
125.246
37.8954
77.1056
20.2379
26.5578
38.6728
18.3452
10.01
66.369
21.7832
42.5727
52.2224
17.6555
14.7473
10.8595
6.20234
61.8694
10.6665
10.6665
61.8694
7.30414
76.4552
7.30414
)
;
    }
    procBoundary1to2
    {
        type            processor;
        value           uniform 12.7738;
    }
    procBoundary1to3
    {
        type            processor;
        value           nonuniform List<scalar> 
48
(
74.6207
83.5221
87.8485
87.8485
61.4754
91.8473
91.8473
4.29235
50.194
15.8571
9.20007
15.8571
15.0871
6.77801
8.58957
15.0871
6.64142
6.64142
4.31613
4.31613
3.34653
3.13536
3.32905
37.9018
37.9018
2.45247
3.20221
3.20221
3.50028
41.7582
9.02415
3.50028
4.29235
36.8429
2.37563
41.7582
9.6897
9.20007
65.8196
49.3659
4.59044
22.6666
36.8429
2.37563
10.5137
78.496
56.0447
4.59044
)
;
    }
}


// ************************************************************************* //
