/*--------------------------------*- C++ -*----------------------------------*\
| =========                 |                                                 |
| \\      /  F ield         | OpenFOAM: The Open Source CFD Toolbox           |
|  \\    /   O peration     | Version:  v1912                                 |
|   \\  /    A nd           | Website:  www.openfoam.com                      |
|    \\/     M anipulation  |                                                 |
\*---------------------------------------------------------------------------*/
FoamFile
{
    version     2.0;
    format      ascii;
    class       volVectorField;
    location    "0.75";
    object      U;
}
// * * * * * * * * * * * * * * * * * * * * * * * * * * * * * * * * * * * * * //

dimensions      [0 1 -1 0 0 0 0];


internalField   nonuniform List<vector> 
1431
(
(0.107198 2.74698 1.10752e-16)
(1.94066 1.79797 2.65582e-17)
(-0.137436 -0.191037 0)
(0.657813 -0.175263 2.27711e-16)
(-2.24265 -0.181467 0)
(0.706537 6.31372 1.86395e-16)
(0.51272 0.131493 5.1882e-16)
(1.36384 0.0387814 4.69976e-17)
(-0.0146579 6.61017 1.26564e-16)
(0.358733 0.100356 4.94274e-16)
(2.86934 10.5938 2.10976e-17)
(6.00002 -0.509498 0)
(-0.228462 2.02995 -1.43177e-16)
(-1.78181 0.0342949 -5.16481e-16)
(2.3918 -0.422399 0)
(0.600507 0.134212 -4.55461e-16)
(3.9635 -0.149233 -2.43593e-16)
(-2.0111 -0.431157 0)
(4.15891 -0.309879 -1.94376e-16)
(-2.22344 0.0502342 1.40268e-16)
(4.3159 9.93846 -7.16291e-19)
(-0.87999 -0.0232016 2.12095e-16)
(0.174153 4.58658 -1.50273e-16)
(11.5358 2.02558 -3.44681e-18)
(0.0537363 5.87237 1.31484e-16)
(-0.0530928 0.969824 4.18649e-20)
(1.57666 10.406 -2.18357e-17)
(1.62178 -1.36136 -3.64066e-16)
(-0.139125 5.006 -4.25502e-17)
(0.225809 5.72624 3.22582e-17)
(0.0722386 6.39627 -8.84271e-17)
(-0.0377186 6.20609 3.46991e-17)
(-0.010494 6.37158 0)
(-1.11002 0.174976 -4.23936e-16)
(0.628046 5.46571 -2.47093e-16)
(0.740627 0.242515 0)
(-0.562829 5.96281 0)
(0.125021 -0.110717 5.01247e-20)
(0.194403 -0.0303819 0)
(0.0101343 6.05568 0)
(-0.522741 8.30535 -9.43215e-20)
(-0.67768 7.96848 1.06923e-16)
(-0.142854 1.422 -1.89073e-16)
(0.542414 0.0489205 2.39382e-16)
(0.914876 5.25781 0)
(-0.498 -0.991692 3.30082e-16)
(0.361925 1.22464 2.27553e-17)
(1.11316 10.0543 -6.63191e-17)
(0.603263 0.134845 0)
(0.0699328 -0.274573 0)
(0.693481 2.54482 0)
(0.514295 0.0248084 0)
(0.526902 2.9128 2.56241e-16)
(2.02309 -0.114765 1.53691e-17)
(1.45382 1.09661 -1.9492e-18)
(0.188825 1.15018 4.17783e-16)
(-1.16254 0.426586 1.92126e-16)
(4.09907 -0.690294 0)
(4.37407 0.124447 0)
(0.929391 -0.220236 4.17053e-16)
(1.46335 -0.587407 -1.35212e-16)
(0.171149 -0.0035895 4.34878e-16)
(-0.375573 -0.0512858 0)
(0.0228748 -0.0716771 0)
(0.0737545 -0.00938774 1.06043e-18)
(0.0339162 0.064319 -2.66512e-16)
(1.70371 0.00589144 -2.40791e-16)
(0.384188 -0.159307 -9.38771e-17)
(0.660578 -0.231028 -5.81038e-18)
(-1.20332 -0.311681 0)
(-0.0993682 -0.783029 6.81346e-17)
(-1.30401 0.148015 -1.49982e-16)
(0.333652 -0.0684695 1.42798e-16)
(-1.05225 0.0746233 3.45757e-16)
(-1.87563 -0.108375 3.81852e-16)
(-1.08237 -0.563188 -4.99847e-16)
(0.543752 -0.329718 -2.3377e-17)
(-0.166406 -0.0542521 -1.96946e-16)
(0.341664 0.0314482 -3.18418e-16)
(-1.05246 -0.498207 0)
(3.92373 0.00297193 -5.81666e-17)
(-0.335047 -0.196488 1.22641e-17)
(4.76358 1.07389 -5.91994e-18)
(1.28432 1.63416 9.38859e-17)
(11.4297 0.707965 2.08753e-18)
(0.959865 -0.199537 -1.16069e-16)
(-0.0342681 -0.113293 0)
(1.83839 0.375272 1.66851e-16)
(9.87965 0.175593 5.60628e-18)
(7.70394 0.934044 1.91322e-18)
(-0.722215 0.701189 -2.68542e-16)
(-1.52568 1.10743 2.61903e-16)
(0.17126 -0.137853 3.18999e-16)
(0.660891 0.11972 -1.56905e-16)
(1.23353 0.732178 9.11673e-18)
(-0.0144863 4.92964 0)
(2.81316 -0.623401 -7.13039e-17)
(4.58614 2.32724 -9.49652e-18)
(0.444353 0.0440166 0)
(-1.42766 -0.18996 -6.19002e-19)
(0.186035 1.78869 1.47247e-16)
(0.256837 0.00839574 -7.6987e-16)
(3.65577 -0.0198523 0)
(-0.0776148 -0.900474 -2.92558e-16)
(-0.234004 -0.112279 4.06788e-16)
(0.0576126 5.79499 1.30032e-17)
(-0.028121 5.76147 0)
(1.29176 7.44692 6.94896e-18)
(0.264325 3.02804 2.89044e-16)
(4.17425 0.0613965 0)
(0.359331 -0.415066 -6.65845e-16)
(-0.294798 2.81912 -2.66896e-16)
(-0.392943 -0.237708 4.5069e-16)
(-0.416801 7.18522 -8.0886e-17)
(1.8273 1.34939 -8.57196e-19)
(-1.86143 -0.355868 6.56539e-17)
(-1.68556 0.155684 0)
(0.513412 -0.116099 -2.53479e-16)
(1.05577 -0.0891725 0)
(-0.157123 -0.0785878 0)
(-0.307744 -0.360495 -2.43791e-17)
(2.61805 0.0339815 6.99495e-17)
(0.387841 0.111687 2.41836e-16)
(-1.77378 -0.206457 1.54498e-16)
(-1.05824 -0.567811 0)
(0.426586 0.021201 1.89259e-16)
(-0.0292356 -0.160087 0)
(1.47746 -0.371213 4.63772e-16)
(0.114612 -0.481 -3.16949e-16)
(0.300843 0.198316 5.18834e-16)
(3.4922 -0.258676 3.32492e-16)
(-2.22696 0.0132594 -8.56639e-17)
(0.492761 0.27843 -1.16567e-16)
(3.24102 0.159992 8.66282e-17)
(-2.13407 0.571981 0)
(-0.477873 -0.305684 -3.55276e-16)
(-0.0608076 -0.156951 1.86203e-16)
(0.544552 0.0633294 0)
(9.25333 -0.241066 3.13564e-17)
(0.197382 -0.0575082 2.11983e-16)
(0.16765 -0.0335027 0)
(0.143921 6.42538 0)
(4.17804 -0.0506283 7.19148e-17)
(-0.0999993 -0.386184 0)
(0.309395 3.24514 1.82284e-16)
(-0.0296684 6.40018 -6.86526e-17)
(-0.65693 -0.129213 -2.01386e-16)
(0.286754 2.25695 -2.90383e-16)
(0.581952 0.106491 3.36109e-16)
(0.172334 -0.39528 1.7396e-16)
(-0.48297 -0.174338 2.5269e-16)
(-0.101436 -0.300333 8.30354e-17)
(0.0130729 6.07429 4.0752e-21)
(1.17449 -0.0816859 -2.17642e-16)
(-0.118962 6.25843 -3.35476e-17)
(0.14835 -0.178272 -4.16361e-16)
(10.2705 0.338509 -2.09847e-18)
(2.84463 3.28042 5.82121e-17)
(6.30307 1.1067 -4.78407e-18)
(0.445699 -0.113131 2.98601e-17)
(8.47318 2.20709 -2.65783e-18)
(-0.302574 2.58744 1.56226e-16)
(0.792453 -0.171403 -2.0548e-16)
(0.226348 -0.216274 1.3544e-17)
(0.768525 -0.0318157 -4.95239e-17)
(-0.161178 4.07681 -1.45291e-16)
(-0.343241 5.67948 4.40905e-16)
(1.59977 0.910265 8.13872e-18)
(0.0504738 -0.173845 2.67058e-16)
(3.35151 2.03219 2.15886e-17)
(8.67175 1.28341 -5.71817e-18)
(0.240701 2.79429 0)
(0.0358487 6.12451 -3.16807e-17)
(9.27881 0.0501943 3.47005e-18)
(2.36021 2.1904 -1.02926e-17)
(10.4668 0.165198 0)
(0.33986 0.164778 0)
(0.806087 6.22665 -1.07809e-16)
(0.60455 2.91975 -2.488e-16)
(0.740108 5.01257 -2.61133e-17)
(0.1469 0.084688 -5.04068e-16)
(0.381287 -0.0247085 0)
(0.869798 1.96653 7.18223e-18)
(10.0514 2.77299 -2.38926e-18)
(1.00778 6.30612 7.60579e-17)
(0.0080848 4.19387 0)
(0.946176 3.52365 -1.04841e-17)
(2.92468 2.64225 -3.84584e-18)
(0.103485 6.31145 4.94474e-17)
(10.6463 -0.200959 2.06467e-17)
(-0.0418009 6.43542 -5.50271e-17)
(0.0334164 6.2249 -3.10899e-17)
(0.0090993 6.30238 -4.79644e-17)
(1.05551 6.50057 0)
(0.813276 -0.1136 0)
(3.36889 4.06344 -5.44708e-17)
(4.66335 2.98689 0)
(1.12017 5.39706 -1.57765e-16)
(0.969214 -0.0833757 3.75309e-16)
(1.77431 0.171855 0)
(1.3826 1.88337 -2.21384e-19)
(0.632765 -0.254257 -1.20676e-16)
(1.45057 8.55387 -3.6634e-17)
(-0.00724672 0.0101868 1.16751e-16)
(-0.242948 2.56018 -4.76984e-17)
(0.00465367 6.43453 3.63272e-18)
(0.000582303 5.65865 8.92149e-17)
(0.967971 0.105792 2.89036e-16)
(8.9372 0.476733 -1.08939e-18)
(0.78464 1.26497 -1.73227e-16)
(-1.19315 0.163665 2.89426e-16)
(0.828503 -0.105508 0)
(-0.0368136 5.8218 2.82439e-17)
(0.204091 5.76798 3.23171e-17)
(10.4489 0.951858 0)
(-1.14404 0.00959383 5.51741e-16)
(0.000894142 6.2887 1.46781e-16)
(1.2382 5.58087 -4.06993e-17)
(0.847079 2.28201 -5.37039e-17)
(1.21515 8.35527 2.45754e-16)
(-0.197024 6.71761 2.31269e-16)
(0.900647 1.66774 0)
(3.33261 0.873352 2.16698e-16)
(0.345226 -0.346661 0)
(-0.206815 6.04025 -1.30413e-16)
(8.97171 1.16422 1.83226e-18)
(2.40548 7.07139 -2.97855e-17)
(3.93713 2.15281 2.09078e-17)
(-0.0705064 6.36085 1.63665e-16)
(0.820573 8.72292 4.22457e-17)
(2.16421 0.0846703 2.75365e-17)
(0.0597667 6.4029 4.96182e-21)
(-0.0292914 5.71218 -3.62127e-18)
(0.0072471 6.30522 6.62417e-17)
(-0.0464905 6.26691 -3.33648e-17)
(7.3958 1.69533 6.37624e-18)
(-0.0308879 5.9171 0)
(0.329225 5.63422 -3.98535e-17)
(0.0294136 6.49582 0)
(1.08967 1.26594 3.05392e-17)
(0.591244 0.244853 8.34408e-17)
(1.329 3.45452 1.16839e-17)
(8.89074 0.778914 -7.28277e-19)
(0.152307 6.24973 0)
(0.128459 6.17413 2.448e-17)
(-0.674363 -0.978181 5.97319e-16)
(0.194891 5.89707 2.48251e-16)
(1.23385 8.92077 0)
(-0.280084 6.50375 -2.87727e-16)
(0.137197 -0.185051 2.03067e-16)
(0.808272 0.212181 0)
(10.015 0.316764 -2.19988e-19)
(0.440157 -0.23447 2.9015e-18)
(0.889932 -0.146551 -1.90843e-17)
(-0.00401009 6.41355 4.22129e-17)
(-0.620579 7.84176 -4.58338e-17)
(0.442398 -0.350964 9.20347e-21)
(9.16411 1.64469 -4.35615e-18)
(6.11539 2.70226 2.56156e-17)
(0.0383936 6.2417 -4.80741e-17)
(0.0269378 2.746 1.24254e-16)
(9.33804 -0.145958 -1.97674e-17)
(0.875616 2.18646 0)
(0.270013 0.0702652 9.98357e-17)
(-0.218896 5.40858 2.8321e-17)
(1.49246 7.18369 -5.82994e-17)
(-0.164795 5.9719 -1.26452e-16)
(1.02706 5.4695 0)
(0.972183 9.6555 6.22783e-17)
(-1.06761 0.207069 0)
(0.780977 2.20007 -5.67809e-17)
(-0.0235079 6.1356 5.86225e-17)
(1.58269 1.4707 -1.30253e-17)
(1.0036 0.80219 6.56513e-17)
(9.1086 1.81204 0)
(0.0127847 6.16872 2.24456e-20)
(9.55632 1.29932 -5.29385e-17)
(1.2072 6.47225 2.40745e-17)
(0.00441958 3.96954 1.25729e-20)
(-0.0365368 4.49091 -7.28749e-17)
(0.20077 3.36622 0)
(-0.596618 5.46168 1.54345e-16)
(0.00534626 6.28778 8.93216e-17)
(0.674502 1.76681 2.33759e-16)
(0.909898 0.637349 0)
(5.09839 1.76342 0)
(-0.595979 7.92555 1.1442e-16)
(5.30218 2.5348 -3.09272e-17)
(11.1445 0.4707 0)
(1.92174 2.17442 -2.65028e-17)
(0.647625 0.0801324 -2.40735e-16)
(-0.274615 6.71774 1.27712e-16)
(4.12185 2.80062 -2.43664e-17)
(-0.0186622 2.56552 -5.27123e-17)
(0.763523 8.28017 -1.38463e-16)
(-0.059242 6.40257 -3.84883e-17)
(2.2048 5.10202 0)
(0.0376835 4.15798 0)
(-0.513912 1.24557 2.02466e-16)
(0.0411045 3.94567 8.54357e-18)
(0.385269 2.79076 -1.73588e-16)
(-0.461204 0.0144247 -2.30317e-16)
(1.28664 1.16016 -3.89015e-18)
(-0.178839 1.90833 6.92122e-17)
(0.261458 4.99217 -4.81722e-17)
(0.459505 -0.431487 -6.81504e-17)
(2.26344 2.68258 1.77313e-17)
(-0.00576429 6.12902 -2.74469e-16)
(-0.663459 7.41489 -2.20051e-16)
(2.79175 1.88108 -1.60027e-17)
(3.81297 5.02832 1.85106e-16)
(0.546432 0.113151 0)
(0.243711 0.0820793 -1.03844e-16)
(0.142628 0.723515 0)
(-0.042141 6.73623 -2.31972e-16)
(4.42145 3.44126 0)
(1.06687 5.15795 -7.88292e-19)
(1.15159 0.85672 1.73112e-17)
(0.51514 -0.280382 -2.36708e-17)
(6.47442 5.77179 1.10922e-18)
(2.10067 3.12197 1.71161e-17)
(3.8771 3.70736 0)
(-0.561907 -0.210498 0)
(0.00602677 2.03878 0)
(1.06372 5.62157 2.9675e-16)
(-0.308512 -0.200958 -2.57637e-16)
(-0.914802 -0.0901114 0)
(-0.330035 7.17948 2.56843e-16)
(2.58331 0.429734 2.73939e-17)
(0.863159 -0.197268 8.99277e-17)
(0.324082 4.12701 2.00895e-16)
(0.607903 -0.558821 1.75073e-16)
(-0.240808 7.04718 -2.5727e-16)
(-0.50417 -0.185913 -3.38922e-16)
(0.507922 0.119148 -2.04583e-17)
(-0.167045 1.86807 -3.11869e-17)
(-0.43216 7.40234 0)
(6.65787 1.81703 4.60399e-18)
(1.08076 5.87516 -1.43155e-16)
(0.425071 1.46015 0)
(-0.313752 -0.0855151 0)
(-0.152861 1.80887 2.48078e-17)
(3.32996 6.34115 7.0052e-17)
(-0.511212 7.53612 0)
(0.0517841 6.48616 1.32057e-16)
(-0.056476 6.04612 0)
(1.63306 1.80156 1.78936e-17)
(9.81407 0.837712 4.98543e-17)
(3.20838 5.3977 -1.29402e-16)
(-0.132436 2.45223 0)
(0.76135 6.07651 1.56497e-16)
(0.0172986 -0.949482 -3.59933e-16)
(0.0853647 2.09821 1.77499e-16)
(2.18444 4.13142 -5.81015e-19)
(0.369534 -1.47942 2.70847e-16)
(0.808629 1.86589 -1.67798e-16)
(7.9201 2.53523 1.63967e-18)
(-0.967694 0.69323 -7.0038e-17)
(10.0714 -0.0110998 -2.76742e-20)
(-0.577066 8.20746 -1.55991e-19)
(-0.300491 0.0324943 -4.21472e-16)
(-0.0328025 4.29287 -3.06167e-17)
(0.136328 4.08004 -6.61636e-17)
(1.0709 0.869374 4.09444e-18)
(0.714106 -0.191083 -4.15739e-17)
(7.03058 6.41825 1.3716e-17)
(-0.0892247 6.75489 1.27165e-16)
(11.2667 3.96045 -4.51851e-19)
(-0.275316 6.8591 3.12558e-17)
(0.483917 6.65618 1.1378e-17)
(1.22076 8.99572 -8.2573e-17)
(-1.02314 -0.614715 -1.85513e-16)
(9.42519 0.403272 8.05852e-17)
(1.18553 2.97487 0)
(-0.499752 7.64215 6.67641e-17)
(6.94511 1.25674 -1.01409e-18)
(2.51001 3.76102 -1.72211e-17)
(0.575232 0.225045 -8.01028e-17)
(-0.176006 0.669503 0)
(7.07633 1.94558 -2.02602e-18)
(-0.392741 3.21706 3.03841e-16)
(1.0587 6.13195 7.28148e-17)
(0.581764 1.29087 0)
(0.457142 -1.04148 1.50168e-16)
(9.96918 5.4743 -1.11867e-17)
(0.170061 6.49628 3.47198e-17)
(0.815103 3.87729 -4.27428e-16)
(0.104011 6.15037 1.9934e-18)
(1.00564 5.74731 0)
(1.07306 3.13917 -2.27015e-17)
(0.725193 0.403869 1.58509e-16)
(0.621807 3.97298 -1.23199e-16)
(0.547472 3.96183 1.3399e-16)
(0.509392 -0.440861 2.31607e-16)
(6.97204 2.644 -3.28482e-18)
(0.152615 2.33886 -7.67142e-20)
(-0.291725 4.5004 2.10589e-19)
(-0.306918 4.76196 -8.52044e-17)
(-0.194832 6.90635 -2.58625e-16)
(0.463354 6.33672 -3.66942e-17)
(2.41593 4.85769 -6.90418e-17)
(-0.459351 7.63658 1.96311e-17)
(5.31243 3.34025 8.76368e-17)
(-0.582767 7.72429 -1.93811e-17)
(0.291507 0.622631 -8.32409e-17)
(-0.197154 4.59532 -4.74567e-20)
(0.522354 6.31011 6.75346e-17)
(-0.0256913 0.0267716 1.07448e-16)
(0.699647 0.444995 4.19022e-17)
(-0.144301 4.55158 1.13931e-17)
(2.89632 4.53093 0)
(1.01589 5.32727 0)
(-0.0927121 4.50468 5.5721e-18)
(-0.302267 1.53669 1.18718e-16)
(0.180476 6.17146 -1.29613e-17)
(-0.607404 -0.50411 2.10851e-16)
(1.57752 4.50955 -6.69161e-20)
(0.220237 0.263069 0)
(0.894286 6.07761 -1.35236e-16)
(-0.0372753 4.44519 0)
(-0.228037 5.47323 -6.60247e-17)
(-0.248522 1.91067 -3.59552e-16)
(0.724536 1.99343 -9.52824e-17)
(1.85995 4.37481 2.92529e-17)
(0.0386297 4.36639 1.18559e-17)
(0.0124007 -1.23092 3.57309e-16)
(-1.08546 0.515835 2.32418e-19)
(2.41481 -0.346476 9.63009e-17)
(-0.12678 -0.332096 -2.56867e-16)
(11.1223 1.65172 2.06143e-18)
(-0.407402 3.21668 1.10718e-16)
(-0.422549 3.47144 1.75819e-16)
(-0.479578 4.00059 -3.91343e-20)
(-0.421801 3.70354 0)
(-0.536123 4.27808 -9.9963e-17)
(-0.530747 4.0283 -7.94104e-17)
(-0.46663 3.48223 -8.01843e-17)
(-0.507904 4.42907 -1.47195e-16)
(-0.493803 3.59831 2.50952e-16)
(-0.49185 4.34767 6.48143e-17)
(0.531247 -1.92733 0)
(9.58133 0.148616 5.94929e-19)
(0.286832 -1.61761 -9.71649e-17)
(0.245538 -1.06272 2.90342e-16)
(-0.243936 -0.677117 -4.28507e-16)
(0.146739 -0.534124 9.81846e-19)
(0.193925 0.262248 0)
(0.519611 0.213848 -1.00151e-16)
(2.39491 0.870356 4.43418e-17)
(0.533686 0.373119 6.34346e-17)
(0.672733 0.556976 5.87152e-17)
(-0.0299919 -0.380063 -2.71443e-16)
(0.780089 0.129379 -1.83587e-16)
(-0.237025 -0.930162 0)
(0.822043 0.109372 -9.72123e-17)
(0.72518 0.144228 3.1141e-16)
(0.514945 0.0545558 8.97498e-17)
(7.21268 0.103372 -2.17019e-18)
(0.13138 -0.486565 0)
(0.511695 -0.869813 3.0015e-16)
(0.375217 0.223091 -1.21486e-16)
(0.121746 -0.360146 2.522e-16)
(7.27926 -0.12706 -2.92056e-17)
(0.738109 0.124781 -2.91885e-16)
(0.445644 -0.731729 -1.76043e-16)
(0.133233 -0.471407 2.84499e-16)
(-0.194708 -1.55701 3.16287e-16)
(7.25199 -0.309443 1.17223e-19)
(0.0130122 -0.470176 -2.61633e-16)
(7.43519 -0.408284 -2.51216e-17)
(0.663233 0.101915 -7.75519e-16)
(0.609702 0.0651837 0)
(-0.369139 -1.78202 -1.82773e-18)
(0.762064 -0.20706 0)
(9.3065 -0.168718 3.40494e-17)
(10.0053 0.0931099 1.01092e-16)
(-0.159678 -0.515576 1.43622e-16)
(0.0416148 -0.219241 -1.3958e-16)
(-0.0433833 -0.167119 7.18478e-16)
(0.650356 0.0868738 0)
(0.212402 -0.27099 0)
(-0.168455 0.159262 0)
(9.05561 -0.128577 2.32899e-17)
(0.649532 0.171617 2.54397e-16)
(-0.824698 0.0206726 1.75536e-17)
(0.897627 -0.364919 2.33113e-16)
(-0.318653 -1.09189 0)
(-0.533028 -0.321656 0)
(0.154849 -0.832181 2.32454e-17)
(-0.0750068 -0.119278 1.88232e-16)
(8.39128 -0.119522 -6.77405e-17)
(0.611902 0.103275 2.42257e-16)
(0.0398394 -0.650251 1.82105e-16)
(-0.0149857 0.0827817 3.18104e-16)
(1.46212 -0.450967 -2.82517e-16)
(-0.540489 -0.291386 -1.82467e-16)
(-0.133578 -0.508781 1.60151e-16)
(8.20598 0.121264 1.50879e-17)
(0.516108 0.112006 -3.11697e-16)
(-0.723282 1.55972 -4.41882e-16)
(-0.291688 0.510218 1.36151e-16)
(0.0395132 0.488078 -3.7214e-16)
(-0.386429 1.30715 8.51822e-16)
(-0.20878 -0.0127019 -1.97103e-16)
(8.43699 0.475933 -3.16762e-17)
(9.93355 0.380186 -8.19844e-17)
(0.00854875 -1.52772 -2.92766e-16)
(0.568422 0.277516 2.4304e-16)
(0.386307 0.246001 2.20104e-16)
(-0.427786 1.36294 0)
(0.0483171 0.187056 2.2997e-16)
(0.738049 -0.885076 2.87485e-16)
(-0.245464 0.653628 0)
(0.0282928 -0.469843 0)
(-0.421943 -0.353155 2.04512e-16)
(0.503797 -0.127809 -2.25064e-16)
(-0.364771 0.391914 -6.93127e-17)
(-0.0233696 0.340926 1.28472e-16)
(-0.477104 -1.32014 1.69721e-16)
(9.60975 0.596698 -2.56029e-17)
(0.699257 2.52834 0)
(0.412257 0.543095 -3.92348e-16)
(0.108203 1.83179 -1.75857e-16)
(0.610479 -0.380401 -9.13472e-17)
(-0.0365571 0.736201 -9.0265e-17)
(0.582987 -0.446798 -1.17911e-16)
(8.78028 0.991735 5.27468e-17)
(0.0245395 5.92226 -3.4981e-19)
(0.931465 -1.75837 0)
(-0.00961477 -0.210998 2.84643e-17)
(1.66962 2.20537 1.1676e-16)
(0.350465 1.46011 -2.27201e-16)
(-0.0764092 1.22598 0)
(-0.32954 -0.455253 0)
(-0.50563 4.92219 0)
(0.0284399 -0.103296 3.69027e-16)
(0.379953 0.942472 2.59692e-18)
(0.441987 5.40498 2.5543e-17)
(-0.0807234 0.820432 5.62738e-17)
(1.54531 -1.04479 2.07486e-16)
(-0.237699 3.81689 1.20162e-16)
(-0.149695 0.348583 -3.16567e-16)
(-0.363326 6.49054 -4.86629e-17)
(0.443422 1.02624 4.29346e-16)
(-0.171187 2.82914 3.47497e-16)
(0.161704 0.541262 6.18502e-17)
(1.04755 2.49502 -6.48288e-18)
(0.813049 7.09095 -4.36635e-17)
(-0.263718 4.1314 0)
(-0.553807 5.4014 0)
(1.038 4.08496 1.84408e-16)
(-0.181344 0.149102 3.76814e-16)
(-0.400146 7.56507 0)
(0.276475 4.51335 -2.64121e-16)
(-0.171702 -0.239316 -4.26651e-16)
(-0.422632 0.762017 -6.16159e-16)
(0.621905 -0.349094 1.95727e-17)
(-0.243569 0.649903 -1.32391e-16)
(0.518997 6.24303 3.08591e-18)
(2.64523 7.39862 0)
(-0.543641 5.30919 2.82733e-17)
(9.50378 1.56973 -4.8755e-18)
(4.4726 4.59717 5.36993e-17)
(-0.107225 1.93491 0)
(5.41157 8.11948 0)
(-0.0754955 1.47265 7.38044e-17)
(0.767895 1.85254 0)
(0.266511 -0.302997 -1.35892e-17)
(-0.323842 1.19379 -8.29558e-17)
(-0.51741 7.48703 1.19997e-16)
(-0.0135284 3.71716 -2.56793e-17)
(4.04245 7.16723 -2.96114e-17)
(-0.482255 3.44181 -4.84164e-17)
(0.577492 0.685185 -1.13143e-16)
(-0.00176794 1.00451 9.26792e-17)
(1.03013 5.98931 3.75888e-17)
(0.564868 -0.44716 1.59436e-16)
(-0.0387929 3.98193 0)
(-0.440472 2.68991 1.0252e-17)
(-0.332015 2.96085 -3.59521e-19)
(-0.0822886 3.74849 0)
(2.19925 7.54238 2.23377e-18)
(1.15553 4.46154 1.49535e-16)
(1.60121 5.11479 -9.841e-17)
(1.96804 5.05516 1.3552e-16)
(-0.0335331 6.26303 -7.26496e-21)
(0.0673576 6.4113 -1.12938e-16)
(0.538193 1.51273 -5.47602e-16)
(-0.0567747 0.948821 0)
(0.542891 1.08221 1.12166e-16)
(-0.390635 1.86423 -2.45708e-17)
(-0.532458 4.90982 3.02932e-17)
(0.592249 2.31963 -2.79899e-19)
(0.892377 2.78692 -1.14549e-16)
(-0.306671 6.09297 -3.83019e-20)
(-0.388551 4.29243 0)
(-0.597015 -1.09194 -1.80215e-16)
(0.903794 4.14703 3.43868e-16)
(3.57258 2.81641 0)
(9.06914 0.248424 2.09173e-18)
(1.19646 8.4979 2.71324e-17)
(-0.104117 1.3082 6.5519e-18)
(0.0914477 5.05811 3.50267e-17)
(0.26897 1.20693 0)
(1.76923 6.49959 9.35817e-17)
(1.27031 5.94753 -1.83769e-16)
(2.62555 12.4362 4.74756e-18)
(2.52615 5.69151 4.91028e-17)
(1.15755 0.22351 -5.53916e-17)
(0.487666 -0.717946 -2.66098e-16)
(0.553682 -0.484915 7.90687e-17)
(-0.122054 1.46127 -8.55389e-17)
(0.45075 3.76785 2.24086e-16)
(-0.439077 2.62883 -1.31785e-17)
(0.0489433 5.49555 -5.6868e-17)
(-0.383878 7.25679 1.27586e-16)
(11.2383 0.0971091 -9.80323e-18)
(0.463782 0.00369464 -4.85346e-17)
(-0.313833 0.875603 -1.00695e-16)
(0.821717 4.92798 -1.97095e-17)
(2.268 1.6244 -1.18534e-17)
(1.74813 2.6314 -2.20724e-16)
(0.0360244 1.02887 -9.18835e-17)
(0.448091 4.38931 1.29238e-16)
(-0.143108 1.88084 7.68453e-17)
(0.924762 6.57296 -6.58648e-17)
(-0.441132 4.97997 -1.41367e-16)
(0.169926 0.815713 0)
(2.48321 6.59985 -4.8854e-17)
(0.637531 0.937755 0)
(-0.186767 2.10305 9.16799e-17)
(0.322092 1.88316 0)
(0.0906932 0.0264458 5.31365e-16)
(-0.471026 3.29487 -1.45173e-16)
(0.0403235 3.67787 3.10396e-17)
(1.51124 5.73132 7.4648e-17)
(4.89943 0.000829854 -5.89048e-17)
(0.893191 0.610768 1.45136e-16)
(-0.060156 4.37212 -1.55267e-16)
(1.24834 1.79796 7.10333e-17)
(-0.280079 7.03543 -1.281e-16)
(5.01807 4.04778 -1.70767e-16)
(0.790978 0.304336 6.67613e-17)
(0.163778 4.89248 0)
(-0.306335 4.81316 -2.86934e-17)
(-0.158179 1.64828 6.24046e-17)
(1.2867 6.26869 -1.83328e-17)
(1.09015 5.55293 1.08717e-16)
(0.180008 -0.481425 1.50385e-16)
(1.90783 3.52625 1.58958e-17)
(-0.346844 1.08921 1.07082e-16)
(-0.635508 6.87079 -4.5424e-18)
(0.053846 4.03807 1.28228e-16)
(1.94984 5.79281 -8.71285e-17)
(0.354281 -0.961271 6.26891e-17)
(1.15735 5.76852 -6.4322e-17)
(0.0744835 5.84803 -1.43874e-16)
(1.34768 7.06436 -4.39042e-17)
(-0.0370616 0.399785 0)
(9.42613 0.648229 -1.27698e-16)
(7.7658 2.43888 8.68627e-18)
(-0.366115 5.06743 9.19803e-17)
(-0.121451 1.44697 4.65732e-16)
(-0.0818835 2.50896 2.65741e-17)
(-0.230251 0.818259 0)
(2.15652 0.139482 -1.57369e-16)
(-1.16939 1.02492 5.81069e-17)
(-0.170217 0.0575943 -2.6019e-16)
(0.437538 2.40823 2.25429e-19)
(-0.2253 -0.619198 -1.64567e-17)
(0.127021 4.28444 4.25478e-17)
(2.03418 1.09299 -7.36197e-18)
(9.57313 0.479629 0)
(-0.486758 4.32874 0)
(-0.350354 0.995127 -5.22748e-17)
(0.133942 -0.713106 2.31999e-16)
(10.165 0.543693 0)
(0.00879615 -0.0958081 5.21736e-19)
(1.19095 5.86795 -2.58114e-16)
(1.14018 1.10522 0)
(1.34727 1.48905 0)
(0.869552 1.58629 -1.25956e-16)
(1.68159 3.78544 1.73235e-17)
(8.97815 0.42041 0)
(0.143601 -0.210583 2.12312e-16)
(1.36654 -0.612849 -1.33304e-16)
(-0.379832 1.93886 0)
(0.0559333 4.52288 0)
(-0.121511 -1.63415 1.63215e-16)
(0.727261 0.232089 -7.95556e-18)
(0.0363368 1.50998 1.35243e-16)
(-0.20437 2.89441 -2.38122e-16)
(-0.195777 6.48196 4.70194e-17)
(0.417652 0.18338 0)
(-0.0123344 0.103563 0)
(-0.597726 4.71273 -1.06699e-16)
(3.43469 0.453769 -2.57289e-18)
(1.28701 3.14317 -1.89859e-16)
(-0.152959 0.0728267 2.08625e-17)
(4.13322 6.09158 -3.01268e-18)
(2.12925 0.37877 0)
(1.34717 5.06979 0)
(-0.1411 3.75419 -5.58681e-18)
(0.175564 0.141597 0)
(-0.170818 4.50261 0)
(11.0205 0.621742 -1.31014e-18)
(0.112193 4.16385 -2.54049e-16)
(2.747 0.417559 0)
(1.30222 2.77724 -3.18196e-18)
(0.18267 6.26678 2.19055e-17)
(-0.0229487 5.49382 6.6578e-17)
(0.783589 1.57433 -1.89092e-16)
(0.680295 6.2782 -3.42878e-18)
(-0.289415 6.70038 2.7146e-17)
(-0.563878 -0.176946 2.96143e-20)
(-0.430707 6.2783 -2.66129e-16)
(-0.309398 1.33652 -4.35385e-19)
(-0.259426 2.31254 2.06408e-16)
(1.01787 0.516638 -2.9072e-16)
(-0.123571 6.02923 1.3766e-16)
(-0.541259 6.29357 0)
(0.0192833 6.47506 1.78726e-18)
(10.1461 0.224889 -7.22852e-18)
(-0.151398 3.06144 0)
(-0.484991 0.0174787 5.59978e-16)
(1.68099 0.636165 1.60324e-17)
(-0.0666762 2.99791 0)
(-0.212149 1.40046 3.1475e-16)
(1.90842 7.77286 0)
(1.78171 8.60083 2.62142e-17)
(0.104671 -0.24681 0)
(3.69471 1.51314 1.46382e-17)
(-0.112527 1.18362 -2.40189e-16)
(0.910564 0.499644 -1.14721e-16)
(0.703178 0.708319 -2.13247e-17)
(-0.398341 2.39483 1.98417e-16)
(-0.152204 6.45017 -4.37617e-17)
(4.15719 0.490302 9.0415e-18)
(8.53201 0.359396 0)
(0.650632 -0.225953 -2.26461e-17)
(0.0222917 4.89705 0)
(0.0527942 5.88663 0)
(1.01504 0.746541 -1.34359e-16)
(1.43312 4.88813 0)
(-0.369515 2.47246 0)
(0.908536 5.7248 -2.97887e-17)
(1.71652 -0.0733477 0)
(-0.0550344 -1.40325 1.71997e-16)
(0.163195 5.5497 5.20095e-17)
(0.591815 0.0796468 2.61055e-16)
(-0.135988 0.899501 1.24385e-16)
(0.979875 1.41448 1.59427e-17)
(0.932571 0.566135 -6.13055e-17)
(0.640395 0.091615 -4.52068e-16)
(12.5578 2.71075 0)
(0.274975 5.62624 0)
(-0.375404 7.41816 -1.2838e-16)
(0.274144 0.649313 -3.43585e-19)
(0.380118 6.26652 1.03469e-17)
(0.83271 0.989762 2.19402e-17)
(9.54198 2.20863 2.9496e-18)
(1.96579 1.2466 4.83368e-17)
(-0.557773 2.1282 -7.15078e-17)
(0.739792 0.0962244 4.34833e-16)
(-0.37056 0.0567046 -3.12564e-16)
(-0.0607567 5.76787 0)
(0.693725 0.1216 4.95952e-16)
(0.665949 0.148217 -2.63392e-16)
(0.0137234 5.15034 -2.28162e-17)
(0.847724 0.801836 -1.68076e-17)
(-0.209135 1.03795 -3.55495e-16)
(-0.0140475 5.75824 -5.44806e-18)
(0.396441 5.92038 1.50695e-16)
(-0.219794 6.49431 7.11428e-17)
(-0.29021 6.99123 0)
(0.798236 2.7712 7.59883e-17)
(-0.294438 0.0209615 7.82469e-17)
(0.025042 1.54848 0)
(-0.272436 6.03193 -1.15042e-16)
(0.0778066 1.58806 -5.68877e-16)
(1.36998 4.55919 0)
(-0.189788 -0.0854047 -1.82065e-16)
(-0.0959303 3.09982 0)
(-0.23078 -0.407275 -1.79985e-19)
(1.11193 0.28423 -3.68649e-18)
(9.31219 2.40359 1.62686e-18)
(1.41948 5.71177 0)
(0.825803 3.32704 1.44271e-16)
(0.0372954 6.10264 -9.66223e-17)
(0.982126 3.32997 0)
(0.641294 -0.46466 -1.21328e-16)
(-0.564101 1.26358 -1.30715e-16)
(-0.00556951 5.90966 -9.25034e-17)
(-0.313668 5.55561 8.31253e-17)
(0.0202571 5.71985 2.07852e-16)
(-0.246164 0.0477073 -4.26641e-17)
(0.858141 -0.192861 0)
(0.102312 5.77135 0)
(0.705005 -0.394808 3.60753e-17)
(-0.235966 2.51167 1.20281e-16)
(0.0117516 6.05856 -3.38037e-17)
(0.520702 -0.0414514 1.24131e-16)
(0.126561 0.521114 -2.4956e-16)
(-0.35893 2.72801 0)
(-0.407152 2.65886 7.74495e-17)
(9.91853 7.87926 -1.27581e-18)
(0.0443047 5.61343 2.82959e-17)
(0.246847 6.45183 -1.11893e-17)
(-0.0265566 1.51286 -7.91369e-17)
(1.23067 6.04126 1.48261e-16)
(4.66096 2.19706 2.30061e-18)
(0.0569686 0.0731735 -1.74745e-16)
(1.19425 2.03376 0)
(10.2796 0.68957 2.25228e-18)
(-0.61413 7.05564 4.38563e-17)
(7.07909 0.379342 1.09463e-18)
(-0.392047 1.79677 -9.35371e-17)
(-0.250053 -1.57518 -1.483e-16)
(-0.603346 5.17563 -1.97128e-16)
(-0.0376095 5.95426 6.17553e-19)
(0.872419 0.0649412 4.0845e-16)
(1.12356 5.04909 -1.20069e-16)
(0.112668 2.93525 -2.75139e-16)
(-0.438956 4.08426 2.8462e-19)
(1.58608 0.336615 1.38542e-17)
(0.0429379 4.88054 -5.21607e-17)
(-0.538255 7.60037 2.30037e-17)
(0.211985 6.43299 -2.12868e-18)
(-1.20632 -0.972269 0)
(0.470393 0.0250387 0)
(-0.553644 4.76175 -5.48832e-17)
(4.94279 0.518576 1.98744e-18)
(8.12936 0.242526 -1.4075e-17)
(0.0345747 5.99531 1.37013e-16)
(1.48786 3.2642 -2.32156e-17)
(2.5385 -0.150348 6.27459e-17)
(3.78335 0.344177 9.13802e-18)
(-0.555939 4.78656 4.01109e-17)
(-0.194134 3.7292 -8.82209e-17)
(0.673832 1.25082 4.04498e-16)
(-0.190305 2.96138 -8.23527e-17)
(0.111551 -0.0687107 0)
(0.0532313 -0.191654 -1.31975e-16)
(0.00598172 4.10679 -9.7618e-17)
(0.306235 3.87376 0)
(8.07141 1.52339 -7.76047e-18)
(-0.211297 -0.160212 1.06638e-16)
(4.91694 0.226159 0)
(0.10168 1.59514 0)
(6.22391 3.7627 -2.28608e-17)
(-0.243711 6.92977 1.41058e-17)
(0.311743 6.49198 -5.94176e-18)
(-0.147628 1.4109 0)
(0.569522 1.32002 7.01056e-17)
(1.64557 -0.198972 7.20668e-16)
(0.209285 -0.153919 -6.86801e-16)
(0.48411 0.299574 -5.28291e-17)
(1.8819 2.23013 6.64967e-17)
(0.397119 -0.628962 2.42188e-16)
(-0.0726238 -0.187771 0)
(0.691261 1.65982 -6.59998e-17)
(1.47028 3.95986 -1.41082e-18)
(1.43391 4.32443 6.96482e-17)
(0.975239 2.66507 -2.39108e-17)
(-0.34664 2.45434 0)
(-0.0163101 6.0804 6.85181e-17)
(-0.391671 2.35073 6.60464e-17)
(0.614883 0.10475 0)
(9.9308 0.536433 1.14958e-16)
(0.094259 5.8064 0)
(-0.46824 3.90354 0)
(3.75941 5.39229 -2.52955e-18)
(-0.351269 6.30137 1.39359e-16)
(0.204843 4.52647 1.36591e-16)
(2.83873 0.00428372 -2.04566e-16)
(0.502026 -1.04427 2.19125e-16)
(0.431088 0.10263 2.81603e-16)
(-0.217915 4.74531 0)
(0.10927 6.36799 -8.80862e-21)
(-0.0602956 4.25372 -1.71469e-16)
(6.86275 -0.520223 -6.35769e-17)
(1.05928 -0.120338 6.12897e-17)
(-0.178922 6.08991 2.57872e-16)
(-0.347161 0.409224 -1.14783e-16)
(2.54091 2.74678 1.31885e-17)
(5.60336 -0.543351 3.86733e-17)
(2.86155 0.0270789 -5.94706e-17)
(0.139769 8.87862 8.41493e-17)
(0.0751782 4.65374 3.64692e-19)
(0.0727381 4.58963 9.15446e-17)
(0.0124457 4.4461 8.32477e-19)
(0.0466352 4.5077 0)
(0.121309 9.65358 -7.43864e-17)
(0.0700767 4.64468 -1.7471e-16)
(0.0011836 4.63136 -8.36384e-19)
(-0.0108773 4.80058 -2.22313e-17)
(-0.0223909 4.63594 0)
(0.0445831 4.75193 4.76087e-17)
(0.160967 8.29327 0)
(0.22988 10.4291 0)
(0.0580428 4.94909 -6.30083e-17)
(0.301331 7.12754 -4.22816e-18)
(0.232337 7.73801 -3.94207e-18)
(0.0555743 5.05945 2.00708e-17)
(0.0512478 4.56131 9.13809e-17)
(0.033768 4.51746 0)
(0.0300412 5.07637 -2.78048e-17)
(0.0325666 4.50663 0)
(0.0389873 4.55716 0)
(-0.00434083 5.03806 2.07089e-17)
(0.046608 4.62427 0)
(-0.377295 2.03541 7.12696e-17)
(5.28183 5.50441 -4.7356e-17)
(0.0873897 -0.350371 2.845e-16)
(-0.340652 0.220051 0)
(1.27469 5.60235 -1.00578e-16)
(-1.26695 -0.155949 9.9038e-17)
(-0.334682 0.556189 5.28706e-16)
(6.99173 1.36191 -1.59477e-17)
(-0.251557 6.76184 -1.78593e-17)
(0.673677 6.95384 0)
(-0.969036 0.137867 4.98599e-16)
(1.62341 -0.00890778 2.75817e-16)
(0.75575 0.608929 0)
(4.85572 -0.292391 3.00076e-17)
(0.37242 -0.66206 -2.55439e-16)
(0.0417801 0.158156 -1.88898e-16)
(6.04843 4.61503 7.98643e-17)
(1.56492 3.92744 -4.7176e-17)
(-0.430939 2.59951 6.76699e-17)
(1.03739 0.888947 -4.98628e-17)
(-0.0367594 -0.0523988 -1.21377e-16)
(6.96283 0.75135 -2.72153e-19)
(-2.17344 0.669863 -2.57663e-16)
(0.0461879 4.70599 0)
(0.816466 5.6055 2.65743e-16)
(1.1946 3.61446 7.41633e-20)
(0.987154 -0.035015 7.06854e-17)
(0.212651 0.38764 0)
(10.3053 -0.0946146 2.69589e-17)
(-0.0202052 2.26063 -1.34957e-16)
(1.78926 0.0365826 3.7486e-18)
(-0.311185 1.89709 1.07751e-16)
(-0.368802 7.45845 0)
(-0.0566449 1.98173 7.38524e-18)
(-0.166995 2.339 -5.27492e-17)
(8.61041 3.58586 2.01949e-17)
(0.12696 -0.537117 3.05395e-16)
(0.415321 0.0183953 -3.27152e-16)
(-0.849113 -1.04374 1.87905e-16)
(0.545897 -0.306745 -7.39079e-17)
(-0.0320732 3.13245 2.69565e-17)
(-0.104381 5.33217 -1.15987e-21)
(0.162684 5.46048 -1.89527e-17)
(-0.443296 0.328114 0)
(0.711457 3.11397 2.42231e-19)
(-0.0977968 0.30411 5.69468e-17)
(1.79403 0.247059 1.12375e-16)
(0.687112 -0.850547 0)
(-0.194092 0.365714 -3.52949e-16)
(0.0584769 1.01684 0)
(10.2296 0.492157 2.05723e-18)
(-0.303234 3.51686 0)
(0.63111 3.48774 -5.06728e-17)
(-0.105488 1.92988 1.43244e-16)
(-0.616944 -1.73747 2.52919e-16)
(1.73699 -0.207845 0)
(0.709913 0.159057 -3.60628e-17)
(0.0406144 4.67671 3.78169e-19)
(0.257956 -0.930056 0)