/*--------------------------------*- C++ -*----------------------------------*\
| =========                 |                                                 |
| \\      /  F ield         | OpenFOAM: The Open Source CFD Toolbox           |
|  \\    /   O peration     | Version:  v1912                                 |
|   \\  /    A nd           | Website:  www.openfoam.com                      |
|    \\/     M anipulation  |                                                 |
\*---------------------------------------------------------------------------*/
FoamFile
{
    version     2.0;
    format      ascii;
    class       volScalarField;
    location    "0.26";
    object      epsilon;
}
// * * * * * * * * * * * * * * * * * * * * * * * * * * * * * * * * * * * * * //

dimensions      [0 2 -3 0 0 0 0];


internalField   nonuniform List<scalar> 
1466
(
0.840822
4.25594
0.470993
0.994153
3.63027
44.7435
2.91073
1.29212
5.25787
6.86701
0.965854
4.83821
0.110609
1.63036
0.885374
2.6537
0.253587
1.41956
5.7283
1.22178
0.382901
3.47156
9.01316
2.95493
1.57353
0.359329
0.7289
3.48694
3.44991
1.91756
1.41027
35.5801
5.28523
1.16628
1.4597
0.643221
0.400879
0.295984
44.3413
4.39541
4.80907
0.634685
4.64312
1.27724
7.52357
2.50656
0.276689
1.95939
0.467825
0.303181
0.48301
7.77287
3.00855
48.7337
4.70179
2.77851
0.645049
1.10046
0.163749
2.49139
2.35273
1.60864
2.41743
37.9012
5.19464
1.16089
2.94471
0.472089
0.723395
4.80361
0.155176
0.90345
0.29936
0.97613
0.270205
15.5912
1.04722
1.12274
3.3058
2.31266
0.365707
1.15322
0.695992
0.358421
0.191828
0.204338
0.168137
5.88154
0.851369
1.29529
0.953228
0.346862
1.88223
0.867263
0.469954
0.278687
2.69033
0.331075
1.72693
1.05658
2.63089
4.96744
0.49273
3.39789
0.497806
2.67289
0.54313
0.630378
1.39272
1.49078
0.132654
0.316178
2.69702
0.243281
0.15656
6.21246
1.6455
1.54746
1.38306
3.22473
0.44034
0.795172
0.888254
4.9746
0.90203
0.660019
0.858428
2.72055
1.71354
5.95761
0.202915
1.1045
1.49136
3.30619
0.266325
2.03444
0.985886
0.142138
7.46329
1.78986
5.67894
0.400699
1.33922
1.87493
7.58383
1.71739
3.42919
2.11032
2.48916
0.236888
1.33252
1.53638
1.26707
3.29131
0.92169
0.430419
0.901026
3.25715
0.177729
1.87768
5.78117
1.18289
6.96131
0.348688
3.94152
1.83391
6.85841
2.06722
1.19615
2.12392
0.196354
0.180439
1.29789
1.78697
0.651068
4.00177
3.00405
2.14503
1.03709
2.00107
0.934188
0.46582
0.251126
0.970297
4.93134
1.56383
0.560418
7.09946
0.596384
3.12261
7.20838
2.21518
1.14834
5.85416
0.395264
0.961128
7.25153
1.48828
1.13803
1.29702
2.78155
0.182775
0.563568
1.13889
1.98815
1.06645
0.522801
1.55545
0.739577
2.00504
1.91081
3.58994
0.16013
0.162948
1.52755
0.578603
0.578648
0.424416
1.41053
0.829562
6.83354
0.798122
1.4545
0.23753
1.46941
0.209118
1.30154
2.50252
0.509044
7.49915
0.138813
4.69511
0.987982
0.138683
0.772819
2.1183
0.140032
1.50129
0.150373
1.74569
6.48555
0.166293
0.304199
1.38344
2.23905
0.617255
0.266646
0.475417
0.501504
0.622611
1.02618
5.49788
0.646057
3.23769
0.948825
4.78278
1.01229
6.95595
12.2212
14.905
0.151373
0.183342
5.84932
1.7126
48.9085
1.13205
3.44084
1.86214
0.246986
0.856417
4.10565
0.86498
0.131993
0.985201
0.203503
0.18575
2.76583
1.08664
2.40077
1.59973
1.82955
0.564476
0.56993
0.530537
0.58239
0.128576
0.32895
0.265447
8.53307
1.59192
0.179865
2.67466
0.842667
15.6055
0.548785
0.158267
5.99306
6.85934
0.167925
1.28359
0.196748
3.70144
1.34188
0.713654
1.51377
0.614499
0.348861
0.173244
0.496602
19.8533
8.04051
0.408166
0.17369
2.99069
0.357188
0.234035
2.31281
0.44791
5.2489
1.0891
0.236533
1.91935
0.258723
1.53616
0.723171
0.683827
0.200546
0.462887
0.210556
0.59609
0.564095
1.3118
0.187302
0.893275
0.557716
1.5296
0.179071
0.656504
8.27457
0.329679
1.42351
0.856553
0.574667
0.320811
0.623586
0.146458
4.66734
0.340208
0.200505
5.30167
1.07402
0.140989
1.73467
0.169075
0.161972
0.18258
3.08766
4.57941
23.7828
0.195011
10.7839
2.34387
1.66066
0.949234
5.06198
0.641579
0.234138
0.187146
0.592389
2.76676
0.169128
0.200592
5.75193
1.4813
0.990425
0.38371
0.641992
3.55609
0.156757
0.209667
0.133388
2.17237
1.21778
0.333301
1.86031
0.353984
0.214942
0.245439
0.135515
0.287684
0.366063
7.58776
1.45235
3.43932
0.934866
0.892952
1.4364
0.219731
0.443645
0.136747
8.6429
0.149696
1.56793
0.134441
6.13114
0.767394
1.99571
21.7998
0.691817
1.87462
0.383933
2.1586
0.239159
4.99448
4.49013
1.01774
2.25427
7.68465
0.287576
0.527625
5.99893
0.267785
3.23915
4.46511
3.81738
5.08779
6.31594
4.08831
3.46
4.72871
1.1156
0.363683
2.07516
2.9739
4.30301
2.52599
3.79098
1.26158
9.42614
10.3451
16.9876
0.238165
4.51079
4.43723
12.2629
3.83271
7.01707
5.75155
4.54052
8.55112
6.2974
5.02835
1.91461
4.33784
3.22121
6.10858
5.65788
4.69825
2.05236
7.7165
3.46887
2.28349
3.27237
6.16594
5.11025
13.2771
2.56826
0.515343
0.937084
0.585878
3.08851
7.19788
5.52247
3.61891
37.5395
1.88511
0.995691
0.765125
3.98092
39.6439
1.17907
0.653028
34.6688
0.770181
2.18773
1.57806
0.676253
0.50511
34.512
5.32052
2.89645
1.50101
0.687796
0.352794
5.58
4.83807
35.2782
3.32231
14.3115
15.2812
1.20489
0.561977
5.48356
1.98179
0.220121
1.63032
5.83501
8.21355
9.25574
11.218
6.7086
4.32556
9.43001
5.31439
1.31538
11.3927
0.942539
0.542241
4.23676
3.91868
2.91534
4.02773
5.58397
2.98289
2.34395
0.338047
5.39183
5.98114
0.340089
0.207439
0.846144
1.56119
10.3581
10.6146
2.76745
3.79911
6.07193
3.3748
0.243704
0.26676
3.59178
2.98778
6.31447
3.09218
11.9312
0.873708
0.403731
4.69998
3.36812
0.632753
0.532251
0.607038
2.83963
1.82128
1.73917
5.32471
1.5922
0.335941
2.72505
8.71412
0.223175
0.246694
1.84287
5.47856
6.16027
2.08435
0.283998
2.31989
11.0958
4.54471
0.99138
9.39073
9.49227
7.31794
1.42845
7.51075
12.7775
0.160187
10.5413
7.37104
0.271648
1.86385
2.36949
1.4901
0.338172
9.60124
4.40246
0.517122
3.88082
9.41748
1.25295
1.49711
5.32161
0.38138
0.524554
0.501638
2.28893
1.42206
3.58717
1.58549
4.40463
0.414769
0.502234
0.382944
0.211966
5.14239
2.82139
0.2362
5.30897
5.01351
1.78449
2.43898
6.93118
14.7561
0.909406
0.149318
5.05447
1.75145
10.4016
0.327321
0.509548
0.354525
22.6435
0.963728
0.480244
8.30152
0.137949
2.07203
0.435565
2.61764
6.49103
5.64366
0.375497
1.47201
1.7602
1.82547
1.50282
2.76899
0.3593
0.476827
0.496667
3.96964
0.747923
11.3255
0.165275
5.05306
0.351253
6.99098
4.2464
0.530108
1.891
3.35449
1.55081
4.01588
0.274272
10.0815
5.51595
1.93247
0.538634
0.358796
2.75316
3.08834
6.83246
18.0702
5.98603
2.60577
6.6421
0.137617
2.85353
0.512451
0.543997
0.897415
0.134327
0.360266
0.895503
1.50849
15.0041
2.65894
0.467178
0.380279
0.314189
0.479779
0.246214
0.35191
0.234534
0.149553
2.90555
0.171901
0.301996
9.80666
0.925096
0.567663
8.82603
0.218195
3.00642
0.764728
2.43404
0.135256
0.281034
1.51884
8.95865
0.382345
1.64372
3.53558
0.958353
0.854533
1.93287
2.83581
9.13201
0.300518
0.465624
0.489649
6.6128
0.34376
0.500601
1.26791
2.30458
4.56739
0.628428
1.95162
1.98796
3.28905
0.595409
1.73588
5.77863
0.161057
2.12388
1.98323
6.23876
6.74341
7.42473
1.30842
0.497457
0.219755
0.205633
7.48763
0.236827
0.187449
1.32961
6.09498
1.22953
0.263042
0.218539
1.26149
9.42073
0.184082
2.03101
0.498166
14.1491
3.98977
0.514719
1.98147
0.377586
0.995581
1.87688
1.996
17.346
7.36651
1.332
0.855624
0.747471
0.879854
0.489516
0.880424
0.903138
6.04949
7.63126
1.21374
0.586759
0.331249
3.38014
48.4838
8.18637
0.212751
0.947086
0.151645
1.8134
3.15795
1.66954
5.74866
38.2035
3.91661
0.246897
1.5846
1.36076
0.250964
0.54457
0.228878
11.6448
1.89687
1.28884
0.656571
0.443715
1.14919
4.63266
10.1598
17.5312
0.173458
3.843
1.0519
8.39735
1.73124
0.636326
0.376228
1.16101
0.28667
7.27735
0.470026
0.492941
5.25537
29.2083
0.400342
0.525641
8.21829
1.31412
5.47753
0.7097
0.341228
3.48994
5.30837
32.9099
0.502513
4.84776
1.6644
1.04088
1.30723
1.85371
0.147519
0.160154
0.600649
0.609082
0.542383
0.531821
0.253049
0.785815
1.00524
7.97595
0.819143
1.39105
10.2984
0.152797
0.146166
5.45084
6.08845
0.141242
2.03703
2.88564
3.37872
6.4081
1.81457
3.83774
0.430249
1.75155
4.83467
0.277995
0.312924
0.644766
0.314527
1.31135
0.507059
4.83697
0.151404
3.32324
3.561
0.602022
0.408351
0.724298
0.546464
2.45904
0.543597
0.836569
0.324714
9.64634
1.4306
0.314031
0.189668
1.05232
5.12001
35.2393
6.75685
1.18749
0.40755
5.62294
0.593035
0.791039
0.401614
3.06267
8.99343
6.58739
3.14663
0.184093
0.21592
0.56272
1.81032
0.749855
4.58454
0.186697
0.279214
5.31226
2.47563
0.939724
0.853495
0.319834
1.88137
2.92544
0.206213
0.262355
0.796461
3.99239
0.418922
2.43979
0.150742
9.94941
1.91146
0.587697
0.897814
5.91585
0.886922
7.62488
2.01265
1.95195
0.976899
6.36852
3.46913
4.90705
1.22025
0.527163
0.17151
0.609194
1.29973
1.01226
2.8075
0.22126
6.88639
0.360783
3.74529
0.326859
6.72776
0.522992
0.751721
0.772476
1.02379
0.848488
4.87562
6.62076
3.85431
3.42605
0.803567
3.15465
2.96133
0.884316
0.963841
1.03028
1.05943
1.04596
1.00625
4.66881
0.385932
4.87765
0.368265
2.70013
3.06791
0.618724
2.63708
0.750004
0.471305
5.95759
0.771479
0.509088
0.51158
1.74568
1.75942
1.19528
0.387168
1.61106
1.67039
0.610652
0.46891
2.42614
2.11917
6.15566
5.6395
27.4533
8.23453
0.48185
0.395352
13.9041
2.32627
0.747097
1.83423
2.2407
4.16943
1.81482
2.21483
10.415
0.223466
1.33261
6.39
5.85011
3.07384
1.91314
2.03079
3.9223
0.533167
5.28617
1.89212
1.78172
1.86794
2.38633
2.00449
0.559306
1.53644
1.21259
0.866479
0.127042
6.54925
0.635268
0.717562
0.13238
14.1784
0.531402
0.917619
2.14764
14.0249
1.82755
6.3285
2.87127
0.496007
5.37104
45.4827
0.407041
0.507034
6.63864
5.5919
2.12209
9.98889
3.1221
0.268747
0.14307
7.36378
40.5467
0.257229
0.468365
1.31316
0.279828
2.02409
2.32542
0.177124
3.64636
0.627278
1.4159
0.562053
0.14857
6.00584
0.376827
0.584122
2.65934
0.188125
0.198328
8.05676
4.11597
1.02383
0.493965
0.725277
0.674114
1.68057
0.86413
5.57897
4.17182
6.53805
0.127298
9.5244
0.775036
2.35297
7.02603
0.188825
6.64125
1.28301
0.374208
3.63605
5.44016
1.7927
4.65045
10.8891
0.78928
6.71268
6.01543
5.80767
0.360612
0.493893
9.68187
3.33217
0.180656
5.31216
2.92398
1.24572
4.03839
0.54994
3.79365
0.325325
1.12919
7.23324
0.173267
6.72277
0.154442
0.15569
0.505083
3.13426
4.69434
1.58968
0.429718
2.30213
0.141341
0.767625
8.77721
1.34276
1.63181
7.08488
0.445628
5.22614
0.309463
0.397332
5.17336
0.477867
0.608631
0.180114
5.46094
0.169257
9.96273
5.20773
0.137853
4.67614
0.128372
5.99142
0.162062
4.34832
1.21888
1.33857
4.40268
0.156533
1.55027
0.21793
0.195672
0.184746
0.485463
1.85925
0.341704
2.53352
3.28142
0.208515
0.916874
1.99502
0.546828
2.19808
2.47767
2.34023
3.04515
0.140706
5.54305
0.668274
0.361842
6.64786
4.46329
9.65913
3.50431
1.57702
2.03849
2.49959
0.51232
0.201194
1.42258
0.759288
4.99379
0.56778
1.49713
1.91817
37.8315
1.62004
2.18833
3.37533
0.236364
2.57101
0.827348
2.1153
2.05449
0.553161
0.856081
3.39764
6.38301
2.93775
0.746555
0.131546
2.23493
1.29595
0.402558
10.5597
7.24931
6.70331
0.320957
7.26928
0.127628
0.220027
1.66858
0.150645
1.00207
1.13956
0.365412
5.58296
0.164846
5.29648
0.159083
0.370689
0.155676
1.59322
5.92016
0.695082
2.76024
5.84783
2.78565
3.08138
5.22027
3.79195
2.58889
0.133057
0.15249
0.973007
1.39529
8.90395
6.49837
1.14558
0.463303
1.95105
0.243252
1.53067
1.34099
2.4781
0.560909
1.14376
1.35528
0.811164
5.66844
0.928526
5.55738
5.00698
6.71392
7.20506
0.646642
0.480646
0.402151
0.139817
8.8653
33.1889
0.284884
2.67103
5.62104
2.56711
0.149311
3.66873
4.21788
0.338085
4.29228
0.131336
0.519515
1.32667
4.11483
2.27608
0.458471
3.54435
10.2702
1.49334
0.238379
6.64249
16.8044
0.181374
11.8432
6.82115
7.48301
0.142153
0.402268
1.68382
0.462301
14.2022
11.6298
25.0745
0.840003
0.463594
3.3906
2.27525
1.19307
0.775748
6.1898
14.4292
7.39567
0.661291
7.01971
5.75526
3.47417
0.192215
4.07248
1.75448
6.45356
2.84728
0.279294
1.36204
0.184829
4.78461
0.341655
3.32124
0.313141
0.282496
6.12116
5.08574
1.1872
1.4276
0.127508
4.00733
0.537755
3.54213
0.154435
6.50379
0.176847
2.95564
5.26241
0.931511
3.50503
2.17699
0.940925
2.20631
0.187002
4.45832
1.06397
5.56662
0.412015
2.87827
6.56831
0.304079
0.177051
0.804691
0.454734
0.896012
1.9063
4.89135
1.38346
0.825173
1.0853
0.792693
0.130525
0.218183
0.799519
0.486422
6.13652
1.989
8.21951
0.816986
0.509432
6.16723
1.2787
8.47274
0.163136
0.293526
0.582329
2.6393
1.2374
0.576499
0.157352
2.16495
0.4168
1.13315
3.54331
0.242911
0.228117
2.43301
0.612078
1.44669
0.466321
0.224353
2.18235
7.255
0.857922
0.491407
0.431289
1.21929
0.947175
0.16077
9.09963
2.66447
1.17372
4.12401
0.131484
1.69592
1.15472
4.57095
0.659518
3.38783
0.156575
0.188451
0.856756
0.832783
3.58114
0.145628
5.95425
6.83696
4.90204
0.585787
1.86435
4.75695
0.184526
5.58266
1.16918
0.526261
2.69514
1.09211
1.20882
0.169986
4.01473
2.28256
0.156567
3.42336
9.81055
6.72285
39.4452
0.874471
0.839476
0.955162
1.40515
5.29943
7.40951
2.5164
0.588372
0.44923
3.79708
1.03989
0.403995
1.8221
5.97089
1.37407
4.76793
1.64767
0.4728
4.28231
3.35613
6.59144
1.77249
3.99405
4.11318
0.5502
1.71538
3.33516
1.45118
0.15116
4.04578
0.216048
1.85132
7.39493
5.97126
1.11791
0.714741
6.3177
0.661024
43.4451
1.36485
1.25517
13.91
3.60634
4.59152
3.77164
)
;

boundaryField
{
    frontAndBack
    {
        type            empty;
    }
    wallOuter
    {
        lowReCorrection 0;
        type            epsilonWallFunction;
        value           nonuniform List<scalar> 
102
(
0.110609
0.110609
9.01316
0.270205
0.15656
0.496602
0.934866
0.246214
0.219755
0.205633
0.236827
0.187449
0.263042
0.218539
1.26149
9.42073
2.03101
1.98147
0.747471
1.21374
0.212751
0.246897
1.5846
1.0519
8.39735
1.04088
1.30723
0.277995
0.507059
1.91146
0.897814
0.751721
0.772476
1.02379
0.848488
4.87562
6.62076
3.85431
3.42605
0.803567
3.15465
2.96133
0.884316
0.963841
1.03028
1.04596
1.00625
0.368265
2.70013
1.74568
1.19528
1.67039
2.42614
1.81482
2.21483
1.33261
1.91314
2.03079
1.53644
1.21259
5.5919
0.268747
0.257229
0.177124
0.376827
0.725277
9.5244
1.7927
4.65045
1.24572
1.12919
7.23324
0.505083
3.13426
1.58968
1.34276
0.309463
0.608631
9.96273
1.33857
1.55027
0.341704
2.47767
3.04515
9.65913
1.42258
1.49713
2.05449
1.29595
1.39529
10.2702
1.49334
0.192215
0.279294
0.313141
1.4276
0.304079
1.38346
0.792693
0.242911
0.466321
2.18235
)
;
    }
    inlet
    {
        type            fixedValue;
        value           nonuniform 0();
    }
    outlet
    {
        type            zeroGradient;
    }
    wallInner
    {
        lowReCorrection 0;
        type            epsilonWallFunction;
        value           nonuniform List<scalar> 
138
(
0.965854
0.253587
3.44991
1.91756
7.77287
3.00855
48.7337
4.70179
1.60864
0.346862
2.63089
3.39789
0.888254
5.67894
0.400699
1.71739
3.42919
2.06722
3.12261
7.20838
2.21518
0.424416
0.304199
0.617255
0.266646
0.475417
0.501504
0.622611
48.9085
0.564476
0.56993
0.265447
1.53616
0.723171
0.683827
0.200546
0.462887
0.210556
0.59609
0.564095
1.3118
0.187302
0.893275
0.557716
1.5296
0.179071
0.656504
8.27457
0.329679
1.42351
0.856553
0.574667
0.320811
0.623586
0.146458
4.66734
0.340208
4.57941
0.949234
5.06198
0.641579
0.234138
0.187146
0.592389
2.76676
0.169128
0.200592
5.75193
1.4813
0.990425
0.38371
0.641992
0.209667
0.136747
8.6429
0.239159
4.99448
0.267785
4.30301
16.9876
2.05236
13.2771
0.585878
0.995691
0.765125
5.58
14.3115
15.2812
5.48356
2.98289
2.34395
0.340089
0.403731
12.7775
1.25295
1.49711
22.6435
1.47201
18.0702
0.895503
1.50849
0.301996
0.489649
1.32961
1.22953
8.18637
1.89687
0.28667
0.400342
0.341228
0.253049
10.2984
0.152797
0.314527
0.324714
0.206213
0.360783
0.385932
0.471305
2.00449
2.14764
14.0249
2.12209
3.63605
2.92398
0.397332
0.208515
1.99502
2.03849
0.236364
3.08138
5.58266
43.4451
1.36485
13.91
3.60634
4.59152
3.77164
)
;
    }
    procBoundary2to0
    {
        type            processor;
        value           nonuniform List<scalar> 
42
(
16.8375
16.8375
11.5571
8.60221
2.63662
23.8871
8.62851
8.62851
1.39848
0.823633
3.9116
3.9116
3.43355
3.92492
3.95153
27.0773
4.75296
1.13945
0.743257
46.1623
43.2168
1.33501
1.33501
37.0102
43.2168
1.16738
33.2944
0.708007
33.2944
13.8984
7.51921
0.432817
0.324504
0.287813
0.305968
8.60221
4.75296
10.8678
31.1092
2.40454
2.40454
0.419227
)
;
    }
    procBoundary2to1
    {
        type            processor;
        value           uniform 43.9691;
    }
    procBoundary2to3
    {
        type            processor;
        value           nonuniform List<scalar> 
29
(
1.25344
1.27838
5.93394
4.93134
42.726
1.53573
9.85883
1.29222
7.63246
6.69441
1.73772
35.9628
1.80283
10.8159
6.3657
16.9335
7.44975
7.44975
1.27838
10.8159
5.19903
6.37011
10.1542
9.40856
6.65805
5.97814
7.63246
41.361
35.9628
)
;
    }
}


// ************************************************************************* //
