/*--------------------------------*- C++ -*----------------------------------*\
| =========                 |                                                 |
| \\      /  F ield         | OpenFOAM: The Open Source CFD Toolbox           |
|  \\    /   O peration     | Version:  v1912                                 |
|   \\  /    A nd           | Website:  www.openfoam.com                      |
|    \\/     M anipulation  |                                                 |
\*---------------------------------------------------------------------------*/
FoamFile
{
    version     2.0;
    format      ascii;
    class       volScalarField;
    location    "0.48";
    object      k;
}
// * * * * * * * * * * * * * * * * * * * * * * * * * * * * * * * * * * * * * //

dimensions      [0 2 -2 0 0 0 0];


internalField   nonuniform List<scalar> 
1431
(
0.127888
0.227232
1.52063
1.11877
0.0842512
0.752632
0.813829
0.196645
1.92198
1.54269
0.163529
0.295318
0.226797
0.950253
1.512
0.450839
1.67645
0.27387
0.20661
0.104078
0.116344
1.00844
1.01058
1.0413
0.934428
0.079446
0.989918
0.86864
0.494269
0.2519
0.947026
0.3113
0.812356
0.455605
0.393202
0.98977
0.0837884
0.311391
0.851061
0.304828
2.0134
0.127651
0.422853
0.817852
1.14443
0.162598
1.00352
0.211964
0.442932
0.397211
0.236267
1.57435
1.51931
0.609083
0.800954
0.202989
1.20003
1.18396
0.794097
0.0895167
1.34707
0.0862631
1.09138
0.292789
0.596378
0.237745
1.40097
0.68561
0.325094
0.32354
0.327523
0.324194
0.376054
0.770371
0.284553
0.603781
0.127454
1.39894
0.22461
1.50301
0.269878
0.283304
0.43943
1.48009
1.61818
0.0938555
0.0953824
0.341482
1.14516
0.0936126
0.156383
0.456247
0.0912506
0.310007
0.272969
0.109929
0.269418
0.267003
0.120157
0.648219
0.345749
0.222372
0.123919
0.078157
0.462649
0.259262
0.240638
2.3369
1.27088
0.10487
1.77533
0.215697
0.213871
0.0964122
0.417201
0.0753264
0.285941
0.669808
1.26735
0.901225
0.289807
1.39725
1.45783
0.959124
0.293787
0.3275
1.41626
0.247432
0.161819
0.488428
0.181576
2.00275
0.739116
0.117225
0.088831
0.646483
0.279395
0.276493
0.142171
2.08146
1.24555
0.0583407
0.290407
0.463001
0.528887
0.374399
0.267983
2.36427
0.189889
0.379571
0.508291
0.643082
0.487858
0.381643
0.0654533
0.219902
0.283566
0.109876
0.20612
0.267441
0.273744
0.162876
0.132996
0.277574
0.10197
2.34923
0.105805
0.301707
0.236849
0.108664
0.662018
0.36222
0.906301
0.386848
0.283275
0.117819
0.199273
0.498189
0.253847
0.222563
0.316742
1.31943
0.205369
0.0988321
0.34903
0.405791
0.229438
0.823842
0.0723022
0.299718
0.565425
1.95768
0.123399
0.254673
2.04679
0.273546
0.234808
0.259613
0.0982924
0.130814
0.250071
0.738231
0.334852
2.07943
0.246797
1.24792
0.0997083
0.305226
0.326234
0.474518
0.264736
0.216367
1.23253
0.299734
0.657969
0.755334
0.199601
0.481912
0.472496
0.304454
0.291933
1.36148
0.431962
1.83277
0.318677
0.531609
0.563999
0.103817
0.425857
0.992589
0.0889122
0.61068
0.303134
0.200593
0.196846
0.205232
0.288136
0.145877
0.274751
0.337231
0.312031
0.297334
1.71047
1.61503
0.213018
0.220934
0.309424
0.502128
0.590486
0.565048
0.27371
1.84651
1.45917
0.476227
1.13244
0.660871
0.142937
0.389652
0.617035
0.641316
0.674862
0.242115
0.13114
1.30692
0.198955
0.411319
0.568671
0.247064
0.401781
1.45875
0.236615
0.514254
0.269987
0.267594
0.691942
0.268941
0.125827
0.395784
0.289339
1.49385
1.92974
0.328424
0.243669
0.122996
0.596815
0.827809
0.0901074
0.191412
0.498533
0.292776
0.392327
0.332233
0.194917
0.412164
0.299448
0.212506
0.142449
0.248552
0.335167
0.244785
0.323336
0.583121
0.261758
0.234877
0.0946596
0.257489
0.281873
0.649756
0.627772
0.134821
0.304845
0.337902
1.33118
0.0805203
0.250995
0.227163
1.38904
0.29532
0.197767
0.281267
0.23939
0.212688
1.14742
0.26631
1.07609
0.311682
0.257735
0.307002
1.30586
0.294059
0.56543
0.227557
0.374016
0.536133
0.278349
1.39332
0.20704
0.165934
0.199966
0.245753
0.179084
0.263787
0.312035
0.435852
0.93159
0.212151
0.323372
0.228094
0.0213595
0.102839
0.207355
0.209329
0.248178
0.186157
0.096177
0.195555
0.222191
0.112589
0.19139
0.207911
0.124561
0.143816
0.177806
0.0273667
0.0333749
0.213616
0.156864
0.197999
0.691903
0.976268
0.234185
0.399446
0.262745
0.34704
0.379563
1.07897
0.451321
0.328104
0.362158
0.199221
0.207572
0.206458
0.0752122
0.235811
0.173912
0.167887
0.227199
0.0792092
0.190752
0.0241601
0.240677
1.40004
0.481829
0.362257
0.296656
0.198392
0.144938
0.31563
0.934151
0.280177
0.223041
0.345746
0.308074
0.213441
0.403002
0.322545
0.301299
0.251693
0.131641
0.711841
0.619008
0.269944
0.316555
1.22296
0.492161
0.682293
0.287721
1.5647
0.259479
0.138412
0.281992
0.427671
0.83547
0.396383
0.325389
0.309115
0.366658
0.555576
1.68739
0.259197
1.76151
0.359516
0.143741
0.654354
0.335481
0.267198
0.559629
0.56054
0.378065
0.863632
0.786821
1.11919
0.594111
0.551733
0.199333
0.833014
0.908658
0.315843
0.355031
0.674002
0.703976
0.64711
0.850498
0.766805
0.41913
0.59419
0.490616
0.530415
0.563242
0.339991
1.27164
0.229967
0.835733
0.618688
0.333625
0.287131
0.11966
1.59549
0.577199
0.302856
1.51604
0.287528
0.228203
0.726448
0.543333
0.269104
1.35427
1.26883
1.88517
0.197207
0.333287
0.31895
0.751006
0.206618
0.320986
0.948987
0.633036
0.926737
0.457996
0.29328
0.239136
0.207025
0.246374
1.46563
0.198456
0.328619
1.16543
0.499767
0.325255
0.454592
0.725865
1.46528
0.475155
0.269647
0.276729
0.372373
0.240871
0.901032
0.329801
0.981467
0.872344
0.334938
0.225237
0.57259
0.316054
0.328222
1.61706
1.31853
0.331136
0.279892
0.415786
0.372995
0.458906
0.13505
0.311651
0.530955
0.22219
0.376275
0.391618
0.502357
0.323814
0.242026
0.384743
0.4256
0.580392
0.398221
0.467425
0.449208
0.805994
1.03685
0.285227
1.55378
0.291917
1.4001
0.183423
1.05747
0.488842
0.217625
0.72846
0.275885
0.411614
0.0499823
0.610161
0.494139
0.363782
0.331705
0.682326
0.454119
0.606222
0.193108
0.777031
0.353228
1.29137
1.75316
1.03053
0.174944
0.735694
0.203881
1.27686
0.294906
0.229564
1.02273
1.2429
1.03508
1.39306
0.118034
0.589141
0.331976
0.328711
0.425622
0.307031
0.223642
0.28921
0.280562
0.201266
0.399018
0.236896
0.309997
0.257505
0.404791
1.34623
1.1292
0.359659
0.289955
0.270444
0.360306
0.0451232
0.546114
0.206779
0.341434
0.259125
0.200991
0.258713
0.425706
0.411352
0.929654
0.235478
0.281457
1.11845
1.34464
0.954168
0.850079
0.165025
0.609563
1.16454
0.206941
1.37174
1.04584
0.522169
0.77644
0.251631
0.225793
0.234621
0.205259
0.482846
0.305339
0.223396
0.0491406
0.711272
0.230171
1.09531
0.211708
0.129337
0.238672
0.255784
0.626603
0.263576
0.200208
0.520534
0.19253
0.371093
1.28837
0.247453
0.87754
0.455719
0.420793
0.326291
1.63949
1.56232
0.199654
0.334913
0.193197
0.257019
0.604973
1.64014
0.668358
0.256963
0.332201
0.591709
0.835296
0.31854
0.0910788
0.170934
0.164387
0.282856
0.289747
0.359136
1.0664
0.806014
1.10088
0.0573921
0.26442
0.193909
0.533124
0.330723
0.326242
0.719419
0.831226
0.201648
0.470257
1.37613
0.0635457
0.258696
0.30144
0.441219
0.452487
0.392573
0.380494
0.745837
0.186758
1.2237
0.420725
0.315296
0.130297
0.730068
0.224428
0.0318777
0.240169
0.272658
0.206007
0.358965
0.235825
0.188992
0.20056
0.0991828
0.640515
0.569066
0.958864
0.362867
2.17057
0.279791
0.0553389
0.241409
1.05736
0.586567
0.421298
0.225714
2.02213
0.213315
0.146706
0.413569
0.300047
0.218137
1.66903
0.243532
0.427346
1.11744
1.03145
0.477212
0.105533
0.260158
0.167164
0.467394
0.470001
1.66323
0.190672
0.123248
0.421701
0.938547
0.141024
0.35731
1.54533
0.312669
0.170978
0.590794
0.404701
0.209122
0.454368
0.786025
0.251388
1.39089
0.190759
0.480698
0.511237
0.136353
0.158008
0.350122
0.523297
0.421192
1.59878
0.771573
0.800122
0.798391
0.86295
0.305194
0.999415
0.15102
0.905766
0.613482
0.494975
0.408204
1.54242
0.0434966
0.263569
0.0955739
0.568875
0.116651
1.21985
0.657968
0.210904
0.283687
0.153248
0.529145
1.22806
0.199005
2.44546
0.0455346
0.245935
0.188934
1.82457
0.126433
0.192578
0.884009
0.586843
0.362671
0.309693
0.0493612
0.251315
1.72161
0.229202
0.738706
0.609615
0.224207
0.222425
0.0364319
0.212912
0.954128
0.283456
1.06901
0.140378
0.280934
0.234055
1.30595
0.0709956
1.35197
0.53748
0.526911
0.5178
0.528262
0.503089
0.508872
0.509344
0.548349
0.172264
0.174472
0.385583
0.352432
0.636587
0.227661
0.0713426
0.263232
0.0481625
0.26724
0.0742241
0.267028
0.568443
0.638093
0.613827
0.230569
0.652055
0.194502
0.268443
0.264759
0.505978
1.52799
0.240831
0.23326
0.268854
0.169912
0.237507
0.223651
0.29731
0.438581
0.120998
0.874316
0.0976282
1.62025
1.35321
0.320675
0.34368
0.225363
0.124717
0.255557
0.301657
0.269237
0.147172
0.215065
0.202946
0.0627219
0.305672
0.328493
0.913264
0.195278
0.248374
0.116727
0.244297
0.479028
0.788699
0.304011
0.248429
0.141311
0.236796
0.198959
0.142832
0.293999
0.136637
0.114361
1.23755
1.30924
0.289968
0.44739
1.60535
0.726345
0.26994
0.0989015
1.39426
0.0787462
0.239878
0.309733
0.210637
0.238779
0.247063
0.422878
0.352923
0.781493
0.7493
0.49164
0.117658
0.122621
0.173379
0.198986
0.22312
2.06369
0.233487
0.36091
0.618654
0.577636
0.355951
0.259724
0.209638
0.538137
0.220206
0.148957
0.233341
0.211844
0.712142
0.217367
0.53001
1.37687
0.53397
0.749531
0.191573
0.130869
0.15883
0.0542866
0.0723607
0.264066
0.0407973
0.0355448
0.179808
0.040762
0.215159
0.250781
0.0352006
0.144175
0.0501786
1.79854
0.117999
0.303103
0.0558858
1.15941
0.0569054
0.490492
0.712427
2.04951
0.291506
0.0362907
0.256028
0.752296
0.2132
1.2352
1.03387
0.242885
0.301319
0.167421
0.0511187
0.0393661
0.869557
0.0651036
0.920213
0.950204
0.319686
0.170739
0.584581
1.25349
0.303596
0.240102
0.0456199
0.0416273
0.21544
0.240348
0.40706
0.681224
1.22245
1.02815
0.66402
0.0506415
1.46659
0.0792607
0.650225
0.0650353
0.253061
0.624115
0.245619
0.328124
0.265594
1.31072
0.661026
1.97457
0.0973442
0.78649
1.00585
0.457593
0.523985
0.79449
0.198703
0.823532
1.89705
0.350472
0.134456
0.787468
0.949166
0.228406
0.266763
0.769339
1.49893
1.06513
1.08777
0.284231
1.18721
0.358845
1.13961
0.359235
0.944668
0.733392
0.225886
0.200325
0.274703
0.405363
2.16835
0.90799
0.823196
0.354601
1.72018
0.253869
1.22388
1.47023
0.31656
0.390561
0.288387
0.698367
0.0807162
0.0529175
0.310666
0.512384
0.322335
1.44641
1.23043
0.190351
1.13925
0.248473
0.461354
1.35858
1.1083
0.50621
0.725116
0.254181
0.402606
0.136746
0.209637
0.481161
1.88154
0.349596
0.617091
0.217074
0.14594
0.345829
0.309809
0.327514
1.27357
0.178702
0.202032
0.529585
0.906624
0.244525
0.33558
0.0706102
0.785371
0.353214
0.355146
0.0590018
0.204805
0.261489
0.153519
0.253331
0.0620947
0.574123
0.801069
0.450675
1.2183
0.220786
0.385006
0.251203
0.211787
0.508076
0.0727753
0.210584
0.334501
0.155343
1.2771
1.34204
0.0905142
0.347824
0.955721
0.111677
0.374386
0.414178
0.0581075
0.255444
0.636979
0.259126
1.73319
0.37087
0.670647
0.281844
0.875892
0.267082
0.368448
0.437418
0.24671
0.411697
0.274841
0.367034
0.0806032
1.11881
0.0748443
0.284452
0.256109
0.583596
0.88141
0.356195
0.153558
0.113924
1.29432
0.162182
0.107719
0.1536
0.563042
0.472244
0.0360627
0.284452
0.186891
1.9091
1.43762
0.131192
0.206984
0.752223
0.0636478
1.12505
0.25969
1.30511
0.0447701
0.315812
1.12165
0.254174
0.255533
1.92493
0.795661
0.514478
0.288067
1.33185
0.071005
0.127358
0.257693
1.23911
1.08671
0.968928
0.0381914
0.31495
0.0845911
0.336475
0.66844
2.02626
1.01275
0.604885
0.366331
0.205195
0.136459
0.180527
0.426098
0.851505
1.26995
0.194673
0.158917
0.307392
0.635771
1.57188
0.719587
0.432159
0.0937247
0.257109
1.20699
0.544566
0.0860551
2.0715
1.3875
0.843314
0.407204
0.283723
0.301692
0.787456
1.0052
1.16071
0.244659
1.90947
0.678378
0.346527
0.231116
1.11972
0.351667
0.359999
0.851025
1.25127
0.113209
0.252766
0.151828
1.59191
0.162982
0.251215
1.14953
0.295241
1.19428
0.430381
0.103463
1.77247
0.19997
0.30045
0.275948
0.413399
0.344141
0.612689
1.6272
0.0901116
1.04363
0.0756125
0.997073
0.852156
0.0941306
0.338299
0.158595
0.293824
1.85158
0.841863
0.536349
0.794065
0.448572
0.10305
0.236765
1.04049
0.269623
0.098352
0.312924
0.202114
0.293686
2.17183
1.02353
1.29574
0.462427
1.2166
0.235982
0.207223
0.486537
1.55886
1.28602
0.396805
0.340947
0.534801
1.1158
0.23324
2.13122
0.260279
0.359569
0.140168
0.265545
0.256522
0.2264
0.386444
0.0876989
0.568564
0.684282
0.346302
0.151418
0.230381
0.386684
0.42263
1.70216
0.993251
1.54732
1.29885
0.2726
1.59283
0.762343
1.30401
0.26308
0.101605
0.350886
0.297898
1.59183
0.219434
0.0939096
1.26211
0.229502
1.55869
0.767001
1.10991
0.779352
0.688477
0.328925
0.325469
1.19369
0.33402
0.421952
0.126029
0.291915
0.195615
0.123549
0.337395
0.764081
0.252856
0.283341
0.148127
0.0892143
0.409826
1.2075
0.454961
1.4095
0.780806
0.356204
0.419082
0.131317
0.425976
0.33029
0.166696
0.285609
0.213762
0.250058
1.36146
0.231849
0.524794
0.0841347
0.240908
0.139414
0.296202
1.14852
0.0673492
0.164731
0.277269
0.212506
0.230756
0.259913
0.180682
0.521898
0.266505
0.188186
0.29723
0.265545
0.295273
0.538256
0.0787289
0.304501
0.245436
0.376302
0.243716
0.355739
1.41095
0.30038
0.0707113
0.205846
0.25342
0.39497
0.627742
0.0853328
0.30882
0.20755
0.201116
0.249617
0.709395
0.206353
0.243777
1.29846
0.32216
1.02229
0.335041
2.25413
0.234618
0.713385
1.32297
0.336641
0.118141
0.0792354
0.386381
0.100432
0.929607
0.228103
1.15669
0.209176
0.781662
0.200998
0.0842874
0.34723
0.0942088
0.342458
0.276625
0.92413
0.311
0.933331
0.637016
0.588792
0.650463
0.206612
0.504339
0.309328
1.1347
1.28048
0.313823
0.294221
1.22943
1.32989
1.72835
1.42455
0.820594
0.462125
0.207258
0.738728
0.381917
0.284116
0.810777
1.5697
0.272761
0.599116
0.887973
)
;

boundaryField
{
    frontAndBack
    {
        type            empty;
    }
    wallOuter
    {
        type            kqRWallFunction;
        value           nonuniform List<scalar> 
90
(
0.450839
0.421298
0.413569
0.427346
0.477212
0.467394
0.470001
0.590794
0.404701
0.480698
0.511237
0.613482
0.494975
0.568875
0.529145
0.884009
0.53748
0.526911
0.5178
0.528262
0.503089
0.508872
0.509344
0.548349
0.505978
0.781493
0.7493
0.53001
0.53397
0.15883
0.0542866
0.0723607
0.264066
0.0407973
0.0355448
0.0352006
0.0558858
0.0569054
0.490492
0.0362907
0.0511187
0.0393661
0.869557
0.0651036
0.0456199
0.0416273
0.0792607
0.650225
0.0650353
0.661026
0.769339
0.405363
0.461354
0.617091
0.529585
0.0590018
0.0620947
0.574123
0.801069
0.385006
0.508076
0.0727753
0.0905142
0.955721
0.636979
0.670647
0.875892
0.0806032
1.11881
0.0748443
0.514478
0.071005
0.968928
0.0845911
1.01275
0.851505
0.432159
0.544566
0.0860551
0.843314
0.430381
1.04363
0.0756125
0.462427
0.346302
0.0892143
1.14852
0.0673492
0.521898
0.39497
)
;
    }
    inlet
    {
        type            fixedValue;
        value           uniform 0.375;
    }
    outlet
    {
        type            zeroGradient;
    }
    wallInner
    {
        type            kqRWallFunction;
        value           nonuniform List<scalar> 
138
(
0.295318
0.20661
0.812356
0.455605
0.393202
0.127651
1.40097
0.68561
0.327523
0.324194
0.603781
0.739116
0.381643
0.0654533
0.117819
0.199273
0.0982924
0.130814
0.250071
0.738231
1.83277
0.660871
0.142937
0.617035
0.641316
0.674862
0.568671
0.691942
0.596815
0.649756
0.627772
0.179084
0.212151
0.228094
0.0213595
0.102839
0.207355
0.209329
0.248178
0.186157
0.096177
0.195555
0.222191
0.112589
0.19139
0.207911
0.124561
0.143816
0.177806
0.0273667
0.0333749
0.213616
0.156864
0.197999
0.199221
0.207572
0.206458
0.0752122
0.235811
0.173912
0.167887
0.227199
0.0792092
0.190752
0.0241601
0.240677
0.223041
0.269944
0.682293
0.143741
1.11919
0.199333
0.355031
0.229967
0.726448
0.197207
0.751006
0.29328
0.239136
0.207025
0.198456
1.16543
1.46528
0.981467
0.872344
1.31853
0.183423
0.0499823
0.610161
0.606222
0.229564
0.341434
0.129337
0.289747
0.0635457
0.0318777
0.240169
0.105533
0.167164
0.312669
0.771573
0.15102
0.0955739
0.153248
0.586843
0.0364319
0.263232
0.613827
0.230569
0.120998
0.173379
0.712142
0.040762
0.215159
0.0501786
0.584581
0.66402
0.0506415
0.78649
1.00585
0.136746
0.0706102
0.785371
0.111677
0.153558
0.162182
0.752223
0.0636478
0.136459
0.180527
0.103463
0.294221
0.738728
0.381917
0.284116
1.5697
0.272761
0.887973
)
;
    }
    procBoundary0to1
    {
        type            processor;
        value           nonuniform List<scalar> 
29
(
0.762667
0.716423
0.915252
0.915252
1.55757
1.55757
2.01508
0.65414
1.28112
1.02
0.796752
1.07519
0.614264
0.398932
1.35617
0.630859
2.19274
2.08408
1.13666
0.738048
0.336018
0.226632
1.45182
0.291814
0.289255
2.08408
0.258049
0.808575
0.291814
)
;
    }
    procBoundary0to2
    {
        type            processor;
        value           nonuniform List<scalar> 
42
(
1.21548
0.603891
0.117893
0.0959369
0.148887
1.21548
0.117893
0.151782
0.129749
0.126888
0.22296
0.306733
0.22296
0.325553
0.316457
1.34918
0.316457
0.124224
0.12774
0.913256
0.913256
0.124224
0.112049
1.03932
1.03932
0.087858
1.39626
0.0604482
1.57775
0.504489
0.504489
0.0488578
0.0483583
0.0526333
0.0633024
0.117893
0.304704
0.0583557
1.57775
0.151782
0.128698
0.0894055
)
;
    }
}


// ************************************************************************* //
