/*--------------------------------*- C++ -*----------------------------------*\
| =========                 |                                                 |
| \\      /  F ield         | OpenFOAM: The Open Source CFD Toolbox           |
|  \\    /   O peration     | Version:  v1912                                 |
|   \\  /    A nd           | Website:  www.openfoam.com                      |
|    \\/     M anipulation  |                                                 |
\*---------------------------------------------------------------------------*/
FoamFile
{
    version     2.0;
    format      ascii;
    class       volScalarField;
    location    "0.66";
    object      k;
}
// * * * * * * * * * * * * * * * * * * * * * * * * * * * * * * * * * * * * * //

dimensions      [0 2 -2 0 0 0 0];


internalField   nonuniform List<scalar> 
1431
(
0.0525329
0.468115
1.46944
0.939679
0.05445
0.360857
0.367681
0.196819
1.92251
1.00993
0.241894
0.122144
0.104429
0.946163
1.15979
0.419612
1.34438
0.119416
0.280954
0.232397
0.0350439
1.42747
0.508883
1.03662
0.883923
0.233161
0.870419
0.865172
0.499741
0.110228
0.952891
0.313224
0.814089
0.225433
0.231301
0.924499
0.198939
0.313468
0.451504
0.30646
2.02447
0.194536
0.224315
0.235308
1.16249
0.0916597
0.853492
0.211346
0.44397
0.398116
0.103332
0.853139
1.33293
0.331022
0.30499
0.203257
0.706899
1.07604
0.765355
0.033194
1.00844
0.187108
1.01222
0.292255
0.595132
0.113596
1.36832
0.303115
0.843577
0.32277
0.181763
0.186052
0.280036
0.372806
0.199173
0.608651
0.0472543
1.36062
0.22399
1.29883
0.269432
0.103173
0.238161
1.03722
1.27124
0.0615642
0.0590363
0.236582
1.14002
0.220182
0.170314
0.404721
0.05687
0.312467
0.0847785
0.0511796
0.177113
0.265889
0.0693118
0.650002
1.0516
0.222973
0.194414
0.0505806
0.393397
0.17922
0.240087
2.37187
1.30705
0.0467934
1.50731
0.115186
0.215096
0.1934
0.358429
0.0468728
0.141176
0.615122
1.26206
0.922369
0.292561
1.23272
0.853535
0.951348
0.293549
0.239046
1.41143
0.135444
0.0568362
0.48696
0.0880866
2.04405
0.739043
0.209454
0.053417
0.630997
0.27792
0.113122
0.168422
2.11454
1.18354
0.0406125
0.289784
0.467733
0.545123
0.373584
0.267241
2.40261
0.261193
0.376582
0.506512
0.641403
0.313253
0.170463
0.154968
0.108237
0.283071
0.187623
0.20716
0.264328
0.108053
0.224687
0.152315
0.188602
0.0614934
1.86756
0.0558165
0.304368
0.103687
0.224537
0.654379
0.325409
0.905204
0.385788
0.282669
0.079717
0.0878477
0.498821
0.132559
0.220603
0.316463
0.84317
0.206595
0.225337
0.348339
0.400728
0.23115
0.755908
0.241466
0.29919
0.42037
1.54706
0.0472778
0.254146
2.18081
0.276278
0.234237
0.259567
0.178314
0.171413
0.146429
0.730279
0.331445
2.0903
0.246271
1.00881
0.0614494
0.305094
0.240307
0.474574
0.264215
0.215705
1.2286
0.299664
0.3562
0.528622
0.200442
0.233071
0.297624
0.304256
0.291791
1.16393
0.43061
1.75614
0.318485
0.532232
0.558985
0.223646
0.421993
1.00661
0.0596976
0.563996
0.302432
0.201061
0.196802
0.204779
0.287377
0.0714947
0.274435
0.33217
0.311152
0.293882
2.15548
1.39571
0.101623
0.111039
0.309227
0.267683
0.269321
0.558258
0.270825
2.06837
1.07008
0.473548
1.00678
0.665358
0.0673607
0.298877
0.623154
0.646815
0.678669
0.130168
0.0751075
1.23474
0.198718
0.408327
0.57592
0.24912
0.403004
1.75363
0.238595
0.513066
0.267836
0.265902
0.694913
0.271813
0.192101
0.149055
0.119065
0.965447
1.73904
0.341052
0.228088
0.18191
0.604084
0.745018
0.0608901
0.191433
0.492678
0.292449
0.391526
0.333816
0.193999
0.219102
0.295939
0.214027
0.0450821
0.250131
0.357478
0.242169
0.322627
0.578422
0.170753
0.234358
0.168105
0.410736
0.28158
0.654795
0.633539
0.0835312
0.304521
0.337373
0.758006
0.0570747
0.127076
0.422872
0.967216
0.302997
0.197868
0.666671
0.418979
0.475325
1.07578
0.403453
2.03643
0.827807
0.257347
0.946999
1.30399
0.29392
0.314692
0.106243
0.2685
0.347829
0.277829
2.37029
0.0956978
0.319751
0.09219
0.105848
0.159689
0.263592
1.05373
0.437907
0.866063
0.0698386
0.323244
0.0855454
0.0522061
0.0937544
0.0901098
0.047697
0.0813703
0.073757
0.0586077
0.0869108
0.0579076
0.042379
0.0986948
0.12192
0.0685581
0.0864727
0.0668018
0.0194727
0.0694776
0.0846906
0.0654849
0.126183
0.42651
0.577802
0.456655
0.255665
0.581006
0.342688
0.164386
0.769536
0.310752
0.327887
0.362147
0.115965
0.0373269
0.0857241
0.0811259
0.0695407
0.11752
0.0644164
0.132543
0.0426008
0.0846284
0.032969
0.0913113
1.30861
0.476417
0.362254
0.722796
0.0844332
0.189277
0.315572
1.66087
0.279563
0.0897699
0.284774
0.307959
0.08895
0.296086
0.323732
0.267749
0.252749
0.0793461
0.391442
0.617865
0.185092
0.108965
1.1285
0.50211
0.662917
0.375944
1.62311
0.193951
0.109283
0.354234
0.580406
1.71706
0.330724
0.455812
0.436434
0.445073
1.17804
1.72444
0.654267
1.77756
0.240833
0.168184
0.955487
0.324606
0.57305
0.762003
0.878565
0.353385
0.414765
0.392882
0.903509
0.783023
0.661013
0.115894
1.25133
1.61021
0.2251
0.140086
1.26026
1.13206
1.52762
1.46002
1.68115
0.677879
1.6033
1.40568
1.30026
1.55824
0.295345
1.25956
0.396276
0.438077
0.356076
0.263845
0.229343
0.0755497
1.57362
0.329801
0.219562
1.41472
0.1122
0.228677
0.696447
0.287381
0.195593
1.23646
1.17626
1.63043
0.245464
0.502875
0.122019
0.715884
0.207209
0.326217
0.3018
0.358281
1.70267
1.04887
0.125257
0.111196
0.329605
0.168252
1.34304
0.282047
0.127397
1.0185
0.431832
0.325231
0.414483
0.444955
1.30636
1.11695
0.735749
0.668118
0.180023
0.171215
1.72339
0.578712
0.759263
0.644742
0.197335
0.227067
0.355497
0.315543
0.617126
1.48339
1.16953
0.544153
0.229107
0.179744
0.280177
0.249827
0.0888126
0.137592
0.886416
0.294589
0.812639
0.261748
0.626125
0.32673
0.24056
0.411146
0.251103
1.29128
0.755812
1.29937
0.601974
1.17664
0.886777
0.803034
1.23618
0.323892
0.426432
0.0428076
1.84022
0.849416
0.217298
1.53385
0.147857
0.409367
0.0486171
0.616877
0.983793
0.275802
0.293777
1.41646
0.35774
0.613168
0.193637
1.205
0.486636
1.72869
1.49154
1.04141
0.192187
0.922942
0.202645
0.911597
0.685386
0.0867169
1.85953
0.996867
1.84815
1.27792
0.161857
0.691842
0.13977
0.552589
0.427169
0.124923
0.223303
0.276195
0.637486
0.201432
0.578836
0.309166
0.311566
0.103645
0.402487
0.589538
1.03533
0.359632
0.291781
0.272328
0.547114
0.0643172
0.472914
0.205535
0.133402
0.302754
0.354054
0.149079
0.812066
1.04697
1.66951
0.241691
0.12883
1.91607
1.24017
0.903991
1.32043
0.187284
1.35926
1.08741
0.205939
1.18637
0.937906
1.40336
1.49065
0.129922
0.327811
0.116491
0.09738
0.252013
0.304559
0.114977
0.0574716
1.07093
0.229879
1.97077
0.103306
0.120227
0.238344
0.42289
1.23617
0.129537
0.199361
0.519982
0.104136
0.765209
1.40542
0.247099
1.49338
0.192134
1.1727
0.705868
1.46385
0.860608
0.101534
0.120416
0.441702
0.25881
0.597841
1.51675
1.15066
0.256772
0.33216
0.557342
1.40479
0.732722
0.0604471
0.122173
0.138572
0.282719
0.103719
0.359069
1.82575
1.42981
0.69317
0.0528755
0.264313
0.116902
0.780151
0.331884
0.324594
0.458734
0.350631
0.094985
0.471249
0.90822
0.0558986
0.171053
0.0895292
0.180797
0.310055
0.450667
1.03843
0.428463
0.309845
1.25074
0.837169
0.879281
0.0870129
0.995248
0.110251
0.0182175
0.0918
0.272534
0.20463
0.963906
0.108717
0.188512
0.0992384
0.0525596
0.637833
0.565789
1.74766
0.362716
2.17731
0.114416
0.0713181
0.147344
1.81951
1.46579
0.421457
0.407313
2.34051
0.21144
0.112941
0.413648
0.299189
0.21812
1.46922
0.109614
0.427623
1.62867
2.11694
0.481684
0.0675574
0.534323
0.10536
0.471611
0.47409
1.41813
0.190323
0.143851
0.148316
1.65964
0.132028
0.912587
2.20056
0.315429
0.186734
0.592392
0.404732
0.210551
0.449504
0.777866
0.142451
1.30383
0.190934
0.48461
0.51461
0.145391
0.084307
0.350117
0.521918
0.421721
1.59557
0.392827
0.795514
0.730406
0.764651
0.306552
0.765183
0.114675
0.835022
0.614534
0.49865
0.142877
1.42355
0.0616525
0.134501
0.248215
0.570989
0.0662203
0.902875
0.73341
0.102636
0.221032
0.0545353
0.532149
1.11889
0.28959
2.3314
0.0694379
0.14592
0.0985325
1.825
0.176975
0.192396
0.906496
0.585646
0.362676
0.309646
0.0537875
0.12588
1.48487
0.22976
0.909133
1.06204
0.221867
0.109039
0.0249942
0.402367
0.883873
0.101055
0.951862
0.0489508
0.280635
0.234462
1.12567
0.0544955
1.19365
0.537754
0.527471
0.518552
0.52825
0.503209
0.508794
0.509198
0.550932
0.338313
0.167018
0.384871
0.235237
1.22402
0.110475
0.0519379
0.0977128
0.0719123
0.146487
0.0579308
0.117473
0.577613
0.557732
0.62027
0.0857328
0.612483
0.194493
0.265888
0.26388
0.505861
1.47076
0.238179
0.169607
0.425563
0.427596
0.237089
0.353918
0.49302
0.331898
0.1095
0.825633
0.150433
0.756975
1.19372
0.320633
0.345113
0.225101
0.160047
0.109176
0.14043
0.234568
0.052281
0.215683
0.203751
0.0437861
0.129528
0.328033
0.833196
0.176513
0.553013
0.0897136
0.245511
0.27264
0.262552
0.119945
0.248242
0.0735993
0.0939559
0.100619
0.0994927
0.293265
0.0539613
0.119608
1.3285
1.3463
0.293286
0.447536
1.41545
0.408628
0.269669
0.251131
1.3395
0.0794253
0.161021
0.139987
0.101088
0.109806
0.112778
1.17748
0.849632
0.806601
0.7704
0.490507
0.149646
0.0821298
0.235579
0.139522
0.223008
1.83772
0.0850788
1.23252
0.551622
0.335632
0.357232
0.165547
0.0884558
0.340845
0.219567
0.103717
0.233138
0.211543
0.713978
0.0926235
0.53027
1.34328
0.538642
1.73482
0.190911
0.230902
0.328701
0.271899
0.302433
0.352335
0.233651
0.184367
0.272339
0.0330199
0.0811688
0.250562
0.125189
0.0536936
0.0720697
1.54801
0.0481383
0.0985133
0.0314695
1.8653
0.0275991
0.445497
0.934368
1.88159
0.12188
0.0716103
0.103159
1.00696
0.102868
1.06609
2.10667
0.209363
0.100937
0.39206
0.0283881
0.0480262
0.741364
0.0306922
0.525735
1.77663
1.19058
0.421055
0.567792
1.05854
1.39182
0.23989
0.0293329
0.0371475
0.0677013
0.463172
0.405565
0.721001
1.07416
0.842269
0.611563
0.0341144
1.34315
0.031418
0.575162
0.0338438
0.252574
0.631736
0.495517
0.328068
0.137181
1.92629
0.660942
1.66322
0.0493087
0.536548
0.85184
0.456469
0.283889
0.281645
0.198466
0.385508
1.47997
0.350427
0.170547
1.71008
1.73538
0.228222
0.265399
0.790489
1.30724
0.885111
1.01548
0.0915588
1.90017
0.560222
0.717106
0.272608
0.997488
0.731071
0.153255
0.452429
0.123317
0.396665
2.18557
1.80017
1.60973
0.47085
1.39451
0.170627
1.12723
1.15876
0.316443
0.244082
0.109217
0.60601
0.0517527
0.036558
0.130767
0.384029
0.236917
1.40912
1.99358
0.190162
1.03613
0.186198
0.461069
1.69023
0.657129
0.247607
0.248581
0.144171
0.400794
0.0704026
0.207052
0.435239
1.63711
0.349467
0.576753
0.215196
0.185601
0.314621
0.309256
0.327414
1.59504
0.105593
0.202161
0.475817
0.795618
0.244086
0.122422
0.0286422
0.774869
0.353088
0.355094
0.0289578
0.212138
0.112084
0.14267
0.251086
0.0312771
0.512948
0.819386
0.449589
1.48827
0.443942
0.385007
0.109975
0.20934
0.507715
0.0274816
0.172165
0.334496
0.0627117
1.08378
1.22818
0.0317366
0.321925
0.843823
0.0584978
0.375519
0.638429
0.0490647
0.119409
0.637463
0.182306
1.50359
0.293564
0.692406
0.0741448
0.901385
0.57631
0.187683
0.436754
0.247261
0.153455
0.118511
0.366571
0.0289349
0.979684
0.0293088
0.119569
0.543676
0.332306
0.3002
0.355927
0.17091
0.0519559
2.08974
0.07918
0.209084
0.417106
0.552131
0.12474
0.0632121
0.141139
0.0966146
2.43602
1.33108
0.183229
0.20709
0.719933
0.0320658
0.947544
0.259448
1.35176
0.0424155
0.136527
1.2649
0.184913
0.0827652
1.673
0.792807
0.521768
0.287297
1.29933
0.0266348
0.0979443
0.155542
1.73157
1.08999
0.991889
0.0537202
0.138293
0.0325754
0.336462
0.380784
2.01562
0.874889
0.602871
0.36632
0.20474
0.132623
0.0795592
1.08455
0.867983
1.25499
0.19344
0.0513089
0.852549
0.633981
1.49524
1.59077
0.432596
0.0789635
0.198313
1.07353
0.544611
0.0301899
1.84424
2.20048
0.752414
1.41321
0.177787
0.300919
0.982712
0.77728
1.04546
0.113502
1.7805
0.677817
0.345975
0.0852184
2.01992
0.351685
0.359977
0.81342
1.4976
0.212219
0.117828
0.124876
1.62966
0.333904
0.266699
1.03197
0.112513
1.81256
0.431008
0.0300257
1.46894
0.198074
0.249219
0.273815
0.412177
0.344099
0.610968
1.35337
0.0499817
0.915488
0.0267476
1.94064
0.784345
0.0529024
0.264967
0.150206
0.0982368
1.30291
0.791392
0.269778
0.27159
1.55598
0.0625139
0.117264
0.599693
0.270892
0.0611364
0.214384
0.201861
0.10243
1.64776
1.91048
0.989698
0.462281
2.10262
0.0989905
0.0857831
0.240663
1.38606
1.0676
0.395667
0.340813
0.443443
1.20363
0.165848
1.91093
0.520334
0.129792
0.114929
0.264935
0.259467
0.226131
0.391814
0.248795
0.56658
0.682337
0.374802
0.440798
0.230642
0.388151
0.379878
1.27995
2.01504
2.42488
1.39022
0.12988
1.41953
0.723221
1.09474
0.11264
0.0550897
0.350865
0.116481
1.29847
0.0938126
0.0603789
2.28661
0.228906
1.09703
1.80527
1.7623
1.47346
1.6629
0.328317
0.393264
1.82156
0.333692
0.420828
0.0556591
0.646395
0.435336
0.0377513
0.503326
1.81551
0.137637
0.121167
0.0503674
0.0328014
0.201809
1.79311
0.185501
1.2093
0.778518
0.355796
1.48493
0.184424
0.216609
0.418523
0.0643398
0.240937
0.213119
0.0990161
1.18295
0.231441
0.456245
0.0551254
0.240672
0.380142
0.115706
0.996723
0.0272725
0.129205
0.212707
0.212565
0.0519741
0.100657
0.105999
0.522152
0.325052
0.383529
0.129722
0.228141
0.130119
0.537149
0.235139
0.570832
0.123857
0.233814
0.245015
0.25661
1.31603
0.477806
0.228051
0.20506
0.124764
0.394978
0.626502
0.110728
0.222954
0.112733
0.425517
0.176842
0.739991
0.0953515
0.244085
1.6754
0.280496
0.909589
0.249408
2.28034
0.234787
0.711976
1.19366
0.336532
0.359045
0.0477125
0.334811
0.194616
0.883679
0.414666
2.17807
0.0833474
0.767505
0.0896047
0.0369835
0.299903
0.0799866
0.342475
0.275938
0.915752
0.642165
0.875503
0.635563
0.587566
0.648789
0.206334
0.219126
1.29032
2.19258
1.63538
0.313004
0.297205
2.18216
1.64511
2.45473
1.35233
0.726145
0.460947
0.206621
0.7388
0.384731
0.169095
0.66193
1.45716
0.149348
0.414935
0.547422
)
;

boundaryField
{
    frontAndBack
    {
        type            empty;
    }
    wallOuter
    {
        type            kqRWallFunction;
        value           nonuniform List<scalar> 
90
(
0.419612
0.421457
0.413648
0.427623
0.481684
0.471611
0.47409
0.592392
0.404732
0.48461
0.51461
0.614534
0.49865
0.570989
0.532149
0.906496
0.537754
0.527471
0.518552
0.52825
0.503209
0.508794
0.509198
0.550932
0.505861
0.806601
0.7704
0.53027
0.538642
0.328701
0.271899
0.302433
0.352335
0.233651
0.184367
0.125189
0.0314695
0.0275991
0.445497
0.0716103
0.0283881
0.0480262
0.741364
0.0306922
0.0293329
0.0371475
0.031418
0.575162
0.0338438
0.660942
0.790489
0.396665
0.461069
0.576753
0.475817
0.0289578
0.0312771
0.512948
0.819386
0.385007
0.507715
0.0274816
0.0317366
0.843823
0.637463
0.692406
0.901385
0.0289349
0.979684
0.0293088
0.521768
0.0266348
0.991889
0.0325754
0.874889
0.867983
0.432596
0.544611
0.0301899
0.752414
0.431008
0.915488
0.0267476
0.462281
0.374802
0.0328014
0.996723
0.0272725
0.522152
0.394978
)
;
    }
    inlet
    {
        type            fixedValue;
        value           uniform 0.375;
    }
    outlet
    {
        type            zeroGradient;
    }
    wallInner
    {
        type            kqRWallFunction;
        value           nonuniform List<scalar> 
138
(
0.122144
0.280954
0.814089
0.225433
0.231301
0.194536
1.36832
0.303115
0.181763
0.186052
0.608651
0.739043
0.170463
0.154968
0.079717
0.0878477
0.178314
0.171413
0.146429
0.730279
1.75614
0.665358
0.0673607
0.623154
0.646815
0.678669
0.57592
0.694913
0.604084
0.654795
0.633539
0.159689
0.0698386
0.0855454
0.0522061
0.0937544
0.0901098
0.047697
0.0813703
0.073757
0.0586077
0.0869108
0.0579076
0.042379
0.0986948
0.12192
0.0685581
0.0864727
0.0668018
0.0194727
0.0694776
0.0846906
0.0654849
0.126183
0.115965
0.0373269
0.0857241
0.0811259
0.0695407
0.11752
0.0644164
0.132543
0.0426008
0.0846284
0.032969
0.0913113
0.0897699
0.185092
0.662917
0.168184
0.903509
0.115894
0.140086
0.396276
0.696447
0.245464
0.715884
0.125257
0.111196
0.329605
0.282047
1.0185
1.30636
0.759263
0.644742
1.16953
0.0428076
0.0486171
0.616877
0.613168
0.0867169
0.133402
0.120227
0.103719
0.0558986
0.0182175
0.0918
0.0675574
0.10536
0.315429
0.392827
0.114675
0.248215
0.0545353
0.585646
0.0249942
0.0977128
0.62027
0.0857328
0.1095
0.235579
0.713978
0.0330199
0.0811688
0.0720697
0.567792
0.611563
0.0341144
0.536548
0.85184
0.0704026
0.0286422
0.774869
0.0584978
0.17091
0.07918
0.719933
0.0320658
0.132623
0.0795592
0.0300257
0.297205
0.7388
0.384731
0.169095
1.45716
0.149348
0.547422
)
;
    }
    procBoundary0to1
    {
        type            processor;
        value           nonuniform List<scalar> 
29
(
0.324427
0.473646
0.386587
0.386587
1.59799
1.59799
2.05899
0.277283
1.26576
0.50217
0.384564
1.09124
0.260605
0.265025
1.40318
0.656413
2.26515
2.12017
0.507691
0.512131
0.345336
0.227976
1.42492
0.295111
0.293242
2.12017
0.260278
0.831768
0.295111
)
;
    }
    procBoundary0to2
    {
        type            processor;
        value           nonuniform List<scalar> 
42
(
1.1389
1.4421
0.067992
0.0561164
0.333459
1.1389
0.067992
0.0835076
0.199387
0.0749341
0.533178
0.78458
0.533178
0.930948
1.15276
0.89278
1.15276
0.0727134
0.102871
0.409592
0.409592
0.0727134
0.0714338
0.304869
0.304869
0.0760392
0.35407
0.069794
0.632151
1.5635
1.5635
0.0633993
0.0564959
0.0514174
0.051887
0.067992
1.45132
0.0284451
0.632151
0.0835076
0.0712983
0.0599085
)
;
    }
}


// ************************************************************************* //
