/*--------------------------------*- C++ -*----------------------------------*\
| =========                 |                                                 |
| \\      /  F ield         | OpenFOAM: The Open Source CFD Toolbox           |
|  \\    /   O peration     | Version:  v1912                                 |
|   \\  /    A nd           | Website:  www.openfoam.com                      |
|    \\/     M anipulation  |                                                 |
\*---------------------------------------------------------------------------*/
FoamFile
{
    version     2.0;
    format      ascii;
    class       surfaceScalarField;
    location    "0.66";
    object      phi;
}
// * * * * * * * * * * * * * * * * * * * * * * * * * * * * * * * * * * * * * //

dimensions      [0 3 -1 0 0 0 0];
oriented        oriented;


internalField   nonuniform List<scalar> 
2708
(
8.2267e-07
-4.37839e-05
-1.60006e-06
4.45613e-05
-4.07802e-05
5.79978e-05
-0.000113799
9.65816e-05
0.00129826
0.000250349
-0.00094781
-0.000600797
-0.000324338
0.000183423
7.14998e-05
6.94155e-05
-1.16347e-05
6.28428e-06
-3.6823e-06
9.03269e-06
0.000237395
0.000172233
-0.000124659
-0.000284968
0.000106478
0.000204299
0.000605008
-0.00082629
0.00100684
-0.000785559
0.000161797
0.000423106
-0.000501456
-8.34475e-05
0.000126299
0.000443938
-0.000466659
-0.000103578
0.000262446
6.95767e-05
-5.14572e-05
-0.000280566
-7.83228e-05
0.000109937
-3.16145e-05
0.000104884
-8.5971e-05
8.58619e-05
-0.000104775
0.000846166
-0.000861883
4.40164e-05
-2.82995e-05
0.000127422
-0.000109896
4.29566e-05
-6.0482e-05
5.49297e-07
-0.00034029
0.000339741
-0.000190717
0.000183282
0.000134857
-8.11992e-05
0.0002361
-0.0002025
4.75988e-05
-3.97222e-05
-3.09949e-05
7.07172e-05
0.000221002
0.00010038
-5.89366e-05
-3.54839e-05
-6.43391e-06
6.36409e-07
4.12814e-05
-0.00010865
-0.000344379
-5.67612e-05
3.37255e-05
0.000117209
-9.41734e-05
0.000815243
6.14451e-05
-3.05216e-05
0.000368714
8.09593e-05
-0.000402268
-4.74057e-05
0.000157471
-5.29013e-05
0.000116433
-0.000416665
0.000351593
-0.000145248
0.00021032
3.68937e-05
-2.07618e-05
-0.000878015
-0.00103841
8.20735e-05
0.000958751
-2.41003e-06
-0.000203939
6.90364e-05
0.000110892
2.40104e-05
-0.000430249
0.000962051
-0.0005509
1.90978e-05
0.000934351
0.00045267
-0.000617878
-0.000769143
0.000209033
0.000192684
-0.000401717
0.000143072
-0.000183433
4.03603e-05
0.00015331
-0.000224883
7.1573e-05
-0.000896387
0.000905261
0.000661959
-0.000670833
6.502e-05
-7.97141e-06
-6.22373e-05
5.18872e-06
-0.0011892
0.0011458
-5.20423e-05
9.54399e-05
4.1858e-05
-4.38336e-05
-6.62985e-05
-0.0014041
-3.49775e-05
0.000249877
-0.00034519
-0.000249472
4.04748e-05
0.000554188
3.76481e-06
-1.20568e-05
8.29201e-06
-5.66158e-05
8.04857e-05
-0.000178651
0.000154781
-8.1961e-05
0.000128909
-0.000213561
0.000166613
0.000135969
-4.33876e-05
-0.000218486
0.000125905
2.02456e-05
1.24034e-05
-3.00226e-05
-2.62635e-06
4.85188e-05
0.000687239
-0.000379161
-0.000356596
-1.99978e-05
2.89798e-05
-0.000957765
0.000948783
-0.000657119
0.00116546
-0.000875493
0.000367149
2.98953e-05
-0.00108562
0.00111203
-5.63033e-05
0.000185312
-1.1567e-05
-0.000184448
1.07038e-05
-0.000472555
0.000342099
0.000256755
-0.000630443
0.000398731
0.00039351
-8.98839e-05
8.53154e-05
-7.25276e-05
7.70961e-05
-9.95591e-05
0.000104432
-0.000143348
0.000138475
-0.000970714
0.000115088
0.000953862
-9.82361e-05
1.07955e-05
-8.53682e-05
0.000267142
-0.00019257
-5.20655e-05
-9.35294e-05
0.000485658
-0.000340063
-0.000562365
0.000514414
-1.99931e-05
4.4722e-05
-6.02128e-05
0.000321503
-0.000264641
-8.3433e-06
0.000186558
0.000171939
-0.000162441
-0.000196056
0.000448017
-0.000756211
-0.000588193
-0.000427132
0.000472537
0.00101272
-0.00105812
0.000847426
-0.000171433
-4.70691e-05
-0.000628924
5.03886e-05
-4.27049e-05
-0.000103506
9.58228e-05
0.000233605
-1.91294e-05
-1.15427e-05
0.000143291
-7.95132e-05
-5.22348e-05
-0.000625045
0.00103049
-0.000735098
0.000329658
8.64566e-05
7.13488e-05
9.7896e-05
7.48448e-06
-8.60663e-05
-1.93141e-05
-0.000157672
1.48773e-05
-1.09699e-05
0.000153765
6.36429e-05
0.00014539
-8.64512e-06
2.24063e-05
-1.99582e-05
6.19699e-06
2.72837e-05
0.000691543
-0.000468477
0.000968665
6.21893e-05
-0.00101655
-1.4302e-05
0.000136998
-0.000263384
-6.6593e-05
0.000192979
-0.000954479
0.000926995
-0.000399648
-1.05404e-06
0.000180617
-1.95793e-06
-0.000177605
7.10793e-05
-4.43581e-05
-1.97262e-05
-6.99503e-06
4.07413e-05
-0.000135349
0.000184577
-8.99694e-05
-0.000284346
-6.00963e-05
0.000201146
0.000143296
1.88457e-05
-3.21502e-05
1.18541e-05
1.45031e-06
2.67426e-05
-2.27307e-05
-1.65549e-05
1.2543e-05
-0.000101285
-6.68807e-05
0.000118177
4.99889e-05
0.000773524
8.06769e-05
-3.89585e-05
-0.00010585
0.000172046
-0.00019485
0.000128653
4.02416e-05
0.00018278
-0.000167585
-5.54368e-05
-0.000206192
0.000183174
-7.82667e-05
3.96454e-05
1.91129e-05
-3.20158e-05
0.00113304
-1.71524e-05
2.99103e-05
-8.85444e-06
2.27215e-05
-0.000201941
0.000188074
-1.91399e-05
4.6575e-05
-4.74282e-05
5.24499e-06
-0.000158482
-4.43524e-06
-6.82041e-05
-0.0010043
0.0010327
3.98085e-05
-1.93391e-05
-2.23407e-05
2.856e-05
1.31198e-05
-0.00080415
-0.000283219
6.78677e-05
-2.22058e-05
-5.72046e-05
3.0859e-05
-0.00108951
0.00108969
-3.10334e-05
-7.31214e-05
2.91562e-05
0.000110815
-6.68496e-05
5.32637e-06
5.58768e-07
-5.03045e-06
-8.54695e-07
0.000223761
2.16242e-05
5.46784e-06
-0.000250853
2.18299e-05
-1.30525e-05
4.11907e-06
-1.28965e-05
0.00104115
-0.00146573
0.000183846
0.000240734
0.000458387
8.42168e-06
1.29603e-05
-0.000479769
8.66343e-05
8.71309e-05
-0.000936817
1.08139e-06
1.0172e-05
-1.43373e-05
3.08394e-06
-1.68774e-05
0.000167935
-0.000206591
5.55327e-05
4.705e-05
-3.90974e-05
4.24359e-05
0.000846419
-0.000579659
5.09161e-05
-0.000317676
-0.0002196
0.000161506
0.000244653
-7.82484e-06
1.15834e-06
0.000230427
-1.01147e-07
-1.55699e-06
6.9845e-06
-0.000187181
-4.23232e-05
0.000148305
4.3416e-05
-1.2613e-05
-4.795e-05
1.7147e-05
0.000717611
0.000101671
-4.57571e-05
0.000162078
0.000166574
-0.00114198
0.00114425
9.67258e-05
-9.89955e-05
-0.000258898
-0.000423611
-0.000173717
-0.000288042
0.0007633
0.000181243
-0.000816235
-0.000128308
-0.000994123
-0.000637524
0.00105566
0.00057599
2.05494e-05
3.1645e-06
2.75316e-05
-5.12455e-05
0.000119095
-4.44782e-05
0.000642994
-0.000114279
5.63209e-05
7.28351e-05
1.07927e-05
2.26725e-05
-3.01451e-05
-3.32011e-06
0.00082286
-0.0010416
0.000356888
-0.000138145
1.23529e-06
-1.32053e-06
-2.96399e-05
2.97252e-05
-0.000337154
1.95397e-05
-0.000101491
-0.00075942
0.000860911
-0.000129755
-0.000138623
0.000195257
-4.47986e-05
2.54515e-05
5.89925e-05
-4.34012e-05
6.11603e-05
-0.000223951
0.000118019
3.20669e-05
-5.21898e-05
-1.83275e-05
-4.88578e-06
7.84687e-05
-5.52553e-05
-2.91074e-05
4.92479e-05
-5.3052e-05
3.29116e-05
-0.000319843
-7.57824e-05
5.84715e-05
-0.000508209
1.47788e-05
0.000466472
2.69585e-05
-4.85208e-05
-5.99026e-05
6.36249e-05
0.000899833
-2.32235e-05
-0.000766858
-0.000109751
-0.000104417
0.00111249
0.000157393
-0.00110773
9.38025e-05
0.000860466
-0.00102844
-0.000263105
0.000431084
-0.000226027
-0.000989497
0.0011912
2.43233e-05
0.000149894
-1.13503e-05
-9.70533e-05
5.84148e-05
0.000156657
-0.000921132
0.00088345
-0.000277596
0.000315278
0.00127152
7.66292e-05
-0.000315986
-0.00103216
-5.03209e-05
0.000905881
-8.13366e-06
-0.000126496
0.00017796
-2.05855e-05
-3.08783e-05
-7.33598e-06
7.84153e-05
0.000136195
3.57443e-05
-0.000123814
1.47806e-05
-0.000930814
-0.000378489
0.000354823
-0.000230125
-0.000164865
0.000265235
0.000910492
0.000118123
-0.000182196
-0.000192794
0.000903876
-0.000888359
0.000177277
0.000220802
-6.73485e-06
2.20323e-05
-0.000216492
0.000219819
-3.02581e-05
1.17846e-07
5.92965e-05
-4.20779e-05
0.000121698
-8.74448e-05
-3.87083e-06
8.46554e-06
-7.66609e-05
-3.08221e-05
9.06056e-05
-3.38222e-05
1.57637e-05
2.19226e-05
-4.18008e-05
2.31736e-05
-8.64561e-05
2.48553e-05
-7.70223e-05
-0.000944648
0.000186691
0.000877052
-5.00186e-06
0.000250548
-0.000244997
0.000369187
-0.000579728
-0.000547557
0.000758098
1.4315e-05
0.000238245
-0.000877605
-3.37577e-05
0.000919289
1.43016e-05
1.47196e-05
-1.35588e-05
-1.16079e-06
4.26896e-05
-8.60909e-05
0.00108804
-0.00126474
-0.000151306
0.000328003
0.000192222
2.52212e-06
-0.000125707
-0.000820719
-0.000356416
0.000855895
0.000321239
-8.55298e-05
0.00104772
-0.00095038
-1.18091e-05
-9.48711e-06
0.000121191
-3.26341e-05
-7.90696e-05
0.000129845
-0.000982182
0.000947726
-9.53884e-05
0.000128164
-0.000165217
-0.000182547
-0.000333906
0.00024786
0.000946513
-0.000925485
0.000913413
-0.000180721
0.000629993
-0.000604644
9.41338e-06
0.000552529
-0.000500782
-3.6174e-05
8.77955e-05
-0.000333273
-0.000909696
0.000312155
5.03647e-05
-0.00018104
0.000211998
-8.13231e-05
-0.000314534
0.000342079
-9.56255e-05
6.80808e-05
3.14959e-05
0.00101846
-0.000893644
-0.000158574
0.000291234
-3.18998e-05
-3.21373e-07
-0.000259013
-0.000155918
0.000166843
0.00113332
8.62302e-06
2.26954e-05
0.00100983
0.000126544
0.000934997
-0.00100227
-5.92701e-05
-5.36081e-05
-0.000108833
4.80677e-06
-3.68736e-05
-0.000206938
0.000277652
-7.07137e-05
-0.000203084
-0.000921352
0.000203304
-0.000315101
-7.13285e-05
4.12396e-05
-0.000198506
-0.000248761
1.62045e-05
-3.11809e-05
4.00959e-05
0.00102431
-8.63051e-05
-0.000978103
2.85362e-06
0.000178223
-0.000162181
-1.88959e-05
-7.39149e-05
0.00106046
-0.000651334
-0.000265534
0.000676712
-1.17591e-05
-0.00089098
0.000134438
0.000820441
-0.00019158
0.000978203
0.00014865
-0.000159095
-0.000967759
7.74174e-05
-8.86972e-05
-7.40884e-05
9.34265e-05
-8.29127e-05
-0.000104043
0.000208357
0.00089985
-0.000197715
0.000222957
0.000126923
-0.000299516
-8.77069e-05
0.000109782
5.48565e-06
-2.75612e-05
0.000368992
-9.1732e-05
0.000584203
-0.000861463
0.000353072
-9.51107e-05
0.000515276
0.00122878
-0.00056833
-0.000379481
0.000810723
-0.000884222
-1.8233e-05
-0.00101989
-0.000835839
0.000590995
0.000833911
-0.000902557
-0.000155075
-0.00101127
5.24299e-05
0.00100285
0.000866055
1.83334e-05
6.5409e-06
-5.76136e-06
-0.000168095
0.000183417
0.000167852
0.00101348
0.000200855
-0.000534162
0.000966348
-0.00125848
-0.000418524
-0.000924214
0.000808576
-0.000616872
0.000875059
-8.10916e-05
-0.000992824
8.44189e-05
3.27413e-05
8.74403e-06
-4.06627e-05
-0.000938304
0.000664793
-5.9763e-05
-7.36377e-05
6.7623e-05
-1.7172e-05
2.31867e-05
-0.00111133
-3.49023e-05
0.00107232
-0.000192099
0.000174623
-0.000384853
-7.38709e-05
0.000113313
0.000345411
-0.000500235
0.000633718
-0.000116644
1.89754e-05
-2.6146e-05
-9.90054e-05
3.78615e-05
-5.54997e-05
0.000757402
0.000285336
0.000210818
-0.00100166
0.000158687
-0.000975865
-9.09286e-05
0.0011759
-0.000109108
0.00011396
-7.57065e-05
0.000132502
-0.000124038
0.000795041
0.000491787
-0.00116028
0.000188219
-0.000257191
-0.00096618
0.000989687
-2.35069e-05
0.000152173
-0.000154343
2.16975e-06
-9.53473e-06
2.83702e-05
-9.24731e-05
-0.00105069
-2.43242e-05
0.00107501
-0.00100723
0.00101857
-1.13379e-05
-0.000936284
-3.61997e-05
-0.000668233
0.000136812
2.32116e-05
0.000245875
-0.000874507
-0.0010248
5.0424e-05
-0.000992765
0.00108949
0.000911185
-0.000230276
-0.000938688
-0.000120455
0.000947322
0.000111821
-0.000344722
-3.49069e-05
0.000507113
-0.000127484
0.00100231
2.7003e-05
0.000448487
-0.000981885
5.84028e-05
-5.23826e-05
9.10576e-05
-0.00102051
-3.42163e-05
-0.000902068
0.00103317
-0.000671467
-9.38896e-05
0.000135798
6.89067e-05
7.81384e-05
-0.000104027
-5.24346e-05
-1.20239e-05
9.93073e-06
-8.38486e-05
8.59417e-05
-0.000581614
-5.87616e-05
-5.83095e-05
-0.000702044
-1.80818e-05
1.47539e-05
7.09509e-05
-2.58446e-06
-2.45805e-06
-8.26644e-05
-0.000124017
0.000225385
-0.000970843
-0.000414896
-0.000844075
0.000532212
0.000726758
-0.00101192
-0.00105291
-9.21201e-05
5.46442e-05
0.00109039
0.000551817
3.21226e-05
0.00116178
-1.35824e-05
-0.00118032
-0.000689109
-0.000546505
8.47388e-05
-8.38913e-05
0.000166256
-0.000167103
0.000978173
-0.00104072
-0.000387531
0.000207556
0.0012207
1.17034e-05
2.9361e-05
-9.56852e-06
0.000196454
-0.00106969
0.00100308
1.59692e-05
9.52144e-05
-0.000120718
-0.000239378
0.000206914
-0.00134817
-2.34123e-05
7.5726e-05
-2.73726e-05
-5.56893e-05
0.000308762
0.00103263
-6.68875e-05
-0.0012745
0.000215983
4.40294e-05
9.12892e-05
-0.000119349
0.0003789
-0.000261547
-1.75435e-05
2.94635e-05
-2.68952e-05
4.10113e-05
0.000864702
-1.90197e-05
-5.76068e-05
8.11958e-05
-4.56931e-06
-3.46736e-05
-4.5863e-05
-0.000104841
6.9264e-05
-0.000113512
0.000123849
3.36924e-05
8.33998e-06
-0.000469537
-0.000120417
4.74082e-05
-6.14992e-05
5.2492e-05
-3.84011e-05
0.000306293
-0.000984632
1.88028e-05
0.000127739
7.50046e-05
0.000111499
-1.30457e-05
5.03218e-05
0.000139925
7.42956e-06
-0.000405605
0.000412954
6.81427e-05
-6.90432e-05
-1.71813e-05
-4.91717e-05
9.49899e-05
7.75784e-05
-0.000123397
-5.91168e-07
9.82537e-05
0.000405476
0.000924333
-0.000402814
-5.69037e-05
-3.04318e-05
-4.37785e-07
8.77733e-05
0.00108084
4.10574e-05
-1.958e-05
-3.7542e-05
1.60646e-05
0.000102102
-6.17575e-05
3.8467e-05
-7.88112e-05
-5.21013e-05
6.17137e-05
5.14158e-06
-1.73462e-05
0.00013053
-0.000294224
-4.27266e-05
-0.000221038
0.000189894
-0.000184186
-4.16655e-05
0.00018405
1.4885e-05
0.000119063
-1.4522e-05
-0.000181231
-0.000113214
-3.78692e-05
4.86915e-05
0.000102391
0.00117921
-0.000892903
-1.82576e-05
-6.02467e-05
0.000132944
0.000104469
-0.000253597
-0.000555616
0.000704744
-1.54281e-05
-2.1635e-05
3.70631e-05
0.000105008
-0.000916516
-7.27143e-05
1.24921e-05
1.37601e-05
-2.62522e-05
-6.72032e-05
3.37921e-05
3.34111e-05
0.000127492
-0.000113034
-1.44579e-05
5.4489e-05
-4.56498e-05
-8.83914e-06
1.34199e-05
8.71127e-06
-2.21312e-05
1.64581e-05
-9.61532e-06
-6.84276e-06
0.000167608
-0.000178144
1.05364e-05
-3.78447e-05
2.86062e-05
9.23845e-06
3.27614e-05
2.17276e-05
-4.97075e-06
1.83907e-05
-2.78854e-05
1.24573e-05
-0.000175856
0.000181851
-5.99525e-06
3.97075e-05
-2.68031e-05
-1.29044e-05
0.000137651
-6.38767e-05
2.6032e-05
0.000158753
-1.6742e-05
1.27578e-05
3.98415e-06
-0.000134744
6.75404e-05
3.23665e-05
-1.98744e-05
-0.000154192
-1.50641e-07
3.85753e-05
-1.32862e-05
-2.52892e-05
1.1157e-05
-5.77127e-05
2.48942e-05
2.16614e-05
7.57229e-06
7.42265e-05
-6.42259e-05
-7.80659e-05
0.000101512
-4.09032e-05
4.89449e-05
0.000129116
-0.000141884
0.000277634
-5.10115e-05
-7.49372e-05
2.41162e-05
0.000160603
3.95751e-05
-4.25973e-05
-1.65579e-05
1.77567e-05
-0.00033096
-0.000637177
-0.000338824
0.000387707
0.00106223
-0.000185321
9.46513e-06
-3.43907e-05
8.31059e-07
3.35596e-05
-1.32833e-05
-7.25134e-06
1.14873e-05
-2.53013e-05
4.56112e-06
6.30093e-06
-1.95871e-05
7.2081e-07
3.70682e-06
1.70501e-05
5.09808e-05
-3.72207e-05
-0.000341667
-0.000657766
0.000368571
0.000630862
0.00103932
-0.000267029
0.000116767
1.62673e-05
-1.4694e-05
3.04538e-05
-3.20271e-05
2.17072e-05
8.82032e-05
0.000915549
-0.000924876
9.233e-05
-8.30028e-05
5.69218e-06
5.22828e-05
-2.324e-05
-3.4735e-05
4.26071e-05
-2.89955e-06
-4.52659e-05
-3.05934e-05
3.83173e-05
-1.39345e-07
-0.000178921
-9.77589e-06
-5.93137e-05
2.76611e-05
4.14285e-05
0.00109513
-0.000292231
4.60201e-05
2.13854e-05
-1.99973e-05
0.000427045
-0.00108971
0.00097143
1.81784e-05
2.5633e-05
3.56627e-05
1.14847e-05
0.000157063
-0.000370588
0.000728801
-6.94516e-05
3.33606e-05
-3.38971e-05
0.000734417
0.000664709
-0.000493864
8.3894e-05
-7.91329e-05
0.00065366
-0.00035364
-0.00030002
-4.3782e-05
4.61625e-05
4.81743e-05
-5.05548e-05
-0.000608931
-0.000133031
0.000397241
-5.27237e-05
7.81453e-06
5.29714e-05
-8.06229e-06
6.38968e-05
4.71395e-05
-4.0496e-05
-7.77427e-05
0.000100644
-0.000128398
0.000105497
5.53833e-06
0.000144576
-9.40858e-05
-5.60284e-05
7.30125e-05
-7.75111e-05
-0.000194498
0.000198997
-0.000115035
-2.38616e-05
6.11541e-05
-5.56451e-05
4.97523e-05
-3.78891e-05
-0.000126252
-1.55764e-05
0.000214841
-5.49549e-05
8.32938e-05
-4.72707e-05
1.89319e-05
7.41836e-05
-5.25592e-05
-8.52795e-05
9.32642e-05
4.45745e-05
-0.00015249
-0.000209857
1.43659e-05
0.00011798
-7.2036e-05
0.000116369
4.20901e-05
-4.35805e-05
-0.000114878
6.94413e-05
4.86491e-05
-6.99587e-05
-2.93339e-05
5.67079e-05
4.25847e-05
-0.00012342
0.000169131
5.49327e-05
-0.000146516
-3.56076e-05
0.000127169
-0.000153073
-0.000125135
8.371e-05
6.31201e-05
0.000287566
-0.000280137
9.52814e-05
-0.000125429
0.000156755
-9.70809e-05
-8.24858e-06
-6.44176e-05
7.26662e-05
5.10263e-05
4.41151e-05
-6.04313e-05
-3.47101e-05
-5.2775e-06
3.72978e-05
1.90059e-05
-0.000183754
-3.43518e-05
0.000103294
7.07967e-05
-0.000174091
-6.56066e-05
9.8483e-05
9.21362e-06
-9.56272e-05
-1.35599e-05
1.43362e-05
4.28053e-06
-1.30783e-05
-5.82538e-05
1.88625e-05
3.41139e-05
7.54295e-05
4.4444e-05
2.47024e-05
-4.375e-05
4.84873e-05
-0.000133136
-2.4558e-05
3.38057e-05
6.61817e-05
1.03811e-05
1.28843e-05
-8.92917e-06
4.43123e-05
-3.32121e-05
-6.81969e-06
3.02671e-05
6.32477e-05
5.86855e-05
0.00029554
-0.000297426
0.000274936
-0.000273049
0.000122391
3.27821e-05
-0.000155174
-1.42402e-06
2.07106e-05
-6.64118e-05
-7.91252e-05
8.87758e-05
6.41261e-05
4.51417e-05
4.61345e-05
-4.08042e-05
5.87958e-05
1.42374e-05
-0.000488985
-0.000106498
0.000253816
-1.33998e-05
-0.000103463
5.04515e-05
4.45226e-05
-5.11117e-05
0.000522386
-0.000276954
0.000148312
-0.000157028
-3.86007e-05
4.73162e-05
-4.46675e-05
1.84731e-05
0.000874423
-0.000220763
9.38498e-05
3.19877e-05
-0.000139237
5.28974e-05
-5.60286e-07
-0.000837862
0.000702482
0.000658901
-0.000832055
0.000575767
-0.000463622
0.000229933
1.99997e-05
-9.39802e-05
7.39805e-05
-0.000138785
0.000149371
3.09251e-05
-3.19835e-05
-0.000150565
0.00102499
-0.0011081
-0.00115111
0.000143195
-5.67316e-05
-0.000159529
-7.75859e-05
9.23105e-05
7.79818e-05
-1.02866e-05
-6.51087e-05
-2.5865e-06
-2.45769e-05
1.1927e-05
9.9075e-05
-8.64251e-05
7.15949e-05
3.16995e-05
7.17726e-06
0.000107651
1.474e-05
2.88169e-05
4.53695e-05
-2.1215e-05
-0.000781931
0.00092182
0.000562593
1.36713e-05
5.85412e-06
0.000157003
-1.34857e-05
-0.00041616
9.3932e-05
0.000322228
0.000199569
-7.16382e-05
6.36539e-05
-0.000191585
9.46861e-05
-8.91299e-05
-0.000930432
-4.88016e-05
5.01644e-05
0.000198206
-0.000106881
6.12827e-05
0.000501681
0.00016229
-0.000663971
-3.93511e-05
9.5805e-05
2.68398e-05
-2.0553e-05
-0.00010794
7.59337e-05
-0.000129352
2.35191e-05
0.000190052
-0.000202075
4.37224e-05
4.98216e-05
3.18926e-05
3.62668e-06
-1.97307e-05
-0.000161841
0.000151103
2.54783e-05
0.000272722
1.48444e-05
4.56451e-05
0.000227077
1.34754e-05
0.000169938
-7.1451e-05
5.50469e-05
3.64838e-05
-0.000165543
0.000452737
8.55217e-05
2.59889e-05
-2.55659e-05
6.14716e-06
7.71663e-05
-0.000208445
-0.00019466
7.2353e-06
0.000215782
-0.000210254
-5.42931e-05
5.73885e-05
2.25377e-05
-0.00011089
-7.36602e-06
0.00012411
-0.000107854
3.29221e-05
7.16731e-05
-1.41235e-05
-5.26579e-05
-4.89173e-06
0.000134971
-0.00013407
-0.000210703
2.9518e-05
0.000171297
4.91115e-05
-0.00113411
-8.36323e-06
-0.000936378
-0.000329762
-0.000182114
6.42144e-05
3.10745e-06
5.31319e-05
2.78242e-05
-2.89424e-05
-4.42548e-05
5.10793e-05
2.21178e-05
0.000175999
4.54626e-05
-4.35425e-05
2.94038e-05
-0.00025796
0.000335515
0.000435932
-0.000513488
-2.34696e-05
-0.000112968
2.84972e-05
-4.17007e-05
-0.000160544
-1.81234e-05
-0.000134613
0.000148037
-2.37115e-05
0.00013693
-0.000962882
-2.29478e-05
0.000994452
-6.34422e-06
4.86916e-05
3.06038e-05
-3.39258e-05
4.56106e-05
-5.8036e-05
2.90955e-05
2.89405e-05
0.000987995
-0.00104004
1.90448e-05
7.16404e-05
3.87224e-05
2.23595e-06
-6.97245e-05
1.48141e-05
-2.43826e-05
-7.12334e-06
1.66919e-05
4.29463e-05
-1.13299e-05
-0.000331755
3.96759e-05
-8.8782e-05
6.79685e-05
0.000135327
-0.00017787
0.00011143
-9.24893e-05
-4.12678e-06
0.000557691
-0.000295671
-6.4395e-05
-1.81799e-05
5.06844e-05
3.18905e-05
-9.75069e-05
0.000100764
-6.36885e-05
-0.000861106
6.28883e-05
0.000161258
7.71362e-05
-0.000164168
3.35906e-05
-0.000186412
-8.93674e-05
-1.44503e-05
0.000103818
0.000113013
-3.49437e-05
-7.23769e-05
0.000254099
-0.0003508
1.02927e-06
-2.2629e-05
0.000268021
-0.000126804
6.73428e-05
0.000154043
-5.22554e-05
-0.000151011
-7.47638e-05
0.000153341
0.000266916
-0.00100915
0.000166036
-1.00875e-05
-0.000742257
2.01097e-05
-5.01535e-05
7.34591e-05
2.49897e-05
-1.83695e-05
6.19017e-06
-1.28104e-05
0.000175698
4.5911e-05
3.88674e-06
-8.77347e-05
0.00110403
1.80955e-05
-3.9709e-06
-0.00105449
-3.85067e-05
-0.000104901
0.0002115
-6.42217e-05
0.000349479
0.000200401
0.00025011
0.00124871
0.00110563
0.000168342
0.000205507
0.00110768
6.20433e-05
4.06842e-05
-4.68782e-05
-5.67157e-05
-9.44502e-05
-0.000194216
-0.000922316
0.000119613
6.28161e-05
1.55992e-05
-8.60203e-05
3.40408e-05
-6.0849e-05
-6.09265e-05
4.4834e-05
5.36792e-05
3.70194e-05
0.000145373
0.000103882
-1.17966e-05
-0.000199105
6.97741e-05
1.16253e-05
-5.07955e-05
-0.00020032
0.000214374
-3.66833e-05
0.000847617
-0.000171495
-0.000647212
-2.89097e-05
-0.000761503
0.000703042
0.000325377
1.14086e-05
-7.17063e-05
2.55875e-05
-4.58217e-06
2.83904e-05
3.59524e-05
1.52598e-05
-0.000248057
0.000334171
0.000155679
-0.000986937
9.97914e-05
0.000631343
-0.000637202
5.51035e-05
0.000394992
-0.00040445
-3.70136e-05
1.95986e-05
-1.01005e-05
1.16983e-06
5.8398e-05
-7.32746e-05
-5.02894e-05
6.5166e-05
-5.6825e-05
4.13188e-05
8.88967e-05
-0.000204183
-8.72136e-05
2.24557e-06
0.000110499
-1.06424e-05
-8.17473e-05
7.34031e-05
0.000841596
-9.07097e-05
8.20244e-05
6.70833e-05
2.86977e-05
-4.04544e-05
-7.63842e-05
2.94465e-05
0.00010187
-0.00100893
0.00104242
-0.000282244
-2.4765e-05
-0.000210498
-0.000109228
-3.67226e-06
0.000201797
8.72395e-05
-7.25199e-05
-0.000967949
-0.000199559
2.91481e-05
6.20761e-05
4.13335e-05
0.000791755
6.1697e-05
0.00105395
-0.00101993
7.34717e-05
-7.0544e-05
-0.000112155
0.000154923
3.63611e-05
0.000413607
-3.89441e-05
3.08302e-05
-0.000405493
-0.00030915
-1.41938e-05
3.35604e-05
-7.95797e-06
-0.000163269
5.60769e-05
-2.93802e-05
3.05542e-05
0.000538605
-2.59145e-05
-8.75009e-05
0.0001033
-3.35007e-05
3.84236e-05
-1.46783e-05
1.75642e-05
4.60972e-05
4.78375e-05
0.000203262
-0.000165276
0.00100483
-0.00125785
0.000271113
4.29864e-05
1.8614e-05
0.00072315
5.641e-05
0.000946281
0.000277144
-9.92504e-05
-0.00112417
-0.000107647
-7.98727e-06
3.4651e-05
-8.87089e-06
-1.287e-05
-8.51365e-06
4.38938e-05
-2.25101e-05
-4.13428e-05
0.000211531
-0.000234062
6.38744e-05
-0.000235866
0.000234764
0.00133598
9.79388e-05
4.11812e-05
3.46958e-05
0.00132653
0.000155794
-2.74876e-05
-7.51487e-06
0.000120314
1.60686e-05
-1.7245e-05
-0.00103304
8.03729e-05
-6.31959e-05
-2.82442e-05
3.57802e-05
2.7115e-05
-0.000985076
-0.00117177
0.000744763
-7.76761e-05
-8.42153e-05
-9.44151e-05
1.96728e-05
1.54311e-05
5.93112e-05
6.89813e-05
-1.53988e-05
-4.26372e-05
0.000144508
1.50509e-05
-3.84528e-05
2.29463e-05
-3.92279e-05
0.000128708
-5.62072e-05
0.000150735
5.77527e-05
-0.00010299
-2.84496e-05
5.84687e-05
2.60578e-05
4.69161e-05
8.488e-05
2.96007e-05
-6.26435e-05
2.55284e-05
-0.000110863
2.08236e-05
-1.83404e-05
-0.000100572
5.11953e-05
1.74568e-05
-4.69899e-06
-3.83867e-05
4.13901e-05
0.000863879
0.000134791
-8.67007e-05
-0.000815372
6.72787e-05
1.28088e-05
-4.40325e-05
0.000462481
0.000405963
0.000153238
-7.35515e-05
0.00108556
-0.000481822
-2.48584e-05
7.35662e-05
-8.79387e-05
0.000125265
-5.45139e-05
-4.88057e-05
4.95085e-05
-4.61187e-05
0.000128167
-2.84007e-05
1.78707e-05
-0.000727616
0.000678299
4.93171e-05
7.47816e-05
-7.45253e-05
-5.08112e-05
-1.12891e-05
0.000309882
-7.35849e-06
0.000895212
0.000145943
-0.000789542
6.19265e-05
5.06714e-05
0.00107629
-8.92886e-05
-0.00095155
0.00101789
-0.00031571
0.000549227
4.51621e-05
-0.000278679
-0.000128935
5.94085e-06
9.78084e-06
5.7925e-05
0.000620374
-7.9934e-05
0.000253868
9.73277e-05
-0.000271262
0.000109654
-4.5595e-05
4.41252e-05
-0.000108184
-0.000190617
4.24592e-05
0.000148158
9.59858e-05
-6.82799e-05
0.000102185
9.52106e-05
0.000106582
-1.93429e-05
-0.000235199
4.45819e-05
-0.000279678
0.000311261
-0.000357266
-0.000269705
-0.000893475
0.000253286
7.03247e-05
-5.55897e-05
-0.000227422
-2.67178e-05
4.43473e-05
4.19529e-06
1.50285e-05
2.43225e-05
0.000291577
-7.91973e-05
0.000394032
0.00054032
6.04507e-05
-0.000101214
-3.17561e-05
-0.000476951
0.000457823
1.91274e-05
8.26025e-05
-0.000872145
7.32413e-05
-0.000119904
9.06803e-05
6.448e-07
-0.000305898
0.000861697
-0.000325435
0.000364393
-0.000394915
-0.000232348
6.7778e-07
-3.16913e-05
1.75278e-05
0.000878446
-0.00019467
0.00035554
-0.000961255
0.000657653
0.000633259
-0.00106998
-4.98569e-05
0.000567671
0.000198779
-0.000165053
-0.000638355
0.000586527
0.00053214
-0.000626879
0.000346367
0.000575675
-0.000266638
-0.000291472
0.000120881
0.000262901
5.46393e-06
-1.69912e-06
-0.000638082
0.000763686
-0.000499689
2.27383e-05
-0.000188512
1.93173e-06
0.000384969
0.000534919
-6.41452e-05
4.87863e-05
-4.13568e-05
-4.26103e-05
5.79324e-05
4.98439e-05
2.48192e-05
-9.68552e-05
0.000443976
1.38472e-05
-3.86014e-05
4.00337e-05
-1.43024e-05
0.000109772
-0.000152559
-6.99657e-05
-6.1204e-05
-5.60477e-05
5.54941e-05
9.22206e-06
-3.10355e-05
1.2912e-05
-0.000423214
-0.000308387
3.95943e-05
4.46197e-05
2.20804e-05
-0.000554905
0.000116159
-0.000129584
-6.90985e-05
-4.95605e-05
-2.98929e-05
3.67911e-05
-6.33613e-05
0.000129182
6.99772e-05
-0.000919992
0.000133686
-9.32109e-05
0.000108841
-0.000169451
0.00101353
-0.000961734
3.03218e-05
-2.19899e-05
7.1968e-05
6.79889e-05
0.000207212
0.00035241
-0.00108986
3.02585e-05
-2.67122e-05
8.39338e-05
-1.24219e-06
1.94623e-05
6.1024e-06
0.000932786
0.000137048
7.61536e-05
5.82084e-05
-1.59234e-05
3.33802e-05
-5.59341e-05
-1.80723e-05
-0.000998743
0.000670913
7.06391e-05
2.71621e-05
0.000204089
-1.04486e-05
0.000119289
2.73005e-05
6.80922e-06
0.00111878
6.95451e-05
-0.00108371
-0.000567996
0.000730272
7.90321e-06
6.68714e-06
8.39711e-05
-0.000108646
0.000161672
0.000504107
-0.000728728
0.000224621
0.000436667
6.744e-05
0.000447852
-1.11853e-05
-0.000310148
0.000467211
-0.000680736
-0.000604107
-0.000505449
-9.86582e-05
6.2737e-05
-8.13541e-05
1.70922e-07
-1.30765e-05
-0.00093866
-0.000121176
-9.02077e-05
1.76923e-05
-3.31089e-05
1.59976e-05
-1.66081e-05
-3.84572e-05
-4.97998e-05
3.342e-05
8.39202e-05
-2.305e-05
3.53547e-06
6.23121e-06
-1.73023e-05
2.65224e-05
-0.000124983
-1.77268e-05
0.000437999
0.000818335
-0.000103352
-4.27736e-06
4.68844e-05
-6.60323e-05
0.000204713
-0.000165393
-0.000230827
-0.00100467
0.000148179
-3.03705e-05
0.000217269
-0.000477616
-2.78324e-05
0.000299906
-0.000152102
-0.000641667
0.000131421
3.1113e-05
-4.53391e-05
-3.79813e-05
-0.000139757
-8.5634e-05
3.46404e-05
6.85578e-05
9.83151e-05
-0.00115432
0.00104243
-5.29393e-05
0.000161182
-0.000171233
-3.91043e-05
4.91554e-05
-4.01957e-06
6.12608e-05
-2.09318e-05
-9.21027e-05
0.000153864
-6.46848e-05
7.92333e-05
-0.00119354
1.88059e-06
0.000683799
-0.000383639
3.9778e-06
-5.22114e-05
-9.82925e-05
-3.05073e-05
-1.50559e-05
3.20974e-05
-1.20182e-05
7.22129e-06
-0.00011741
0.000113049
-0.000136037
-1.72281e-05
-0.000133493
3.52711e-07
-0.00061828
-0.000385621
4.76645e-05
0.000195566
3.06835e-05
-0.00014739
8.73729e-05
6.38727e-05
-4.08592e-06
-0.000109587
0.000995676
0.00013801
2.77914e-05
0.00014753
8.58116e-05
8.84141e-05
-0.000102524
-8.99162e-05
-0.000803917
0.00112425
4.22748e-05
-7.95543e-05
-2.22846e-05
-4.64527e-05
-4.53994e-05
3.21176e-05
-4.51293e-06
0.00104069
-3.75641e-05
2.92915e-06
-9.14899e-06
0.000127369
0.000167883
-0.000112303
-0.000124273
9.76881e-05
-0.000865428
4.11571e-05
0.000628968
8.25485e-05
-3.10199e-05
-4.8636e-06
0.00108948
7.06962e-05
3.81082e-05
9.58531e-05
-0.00040111
2.81942e-05
0.000114776
-7.7379e-05
3.64702e-05
-0.000166038
0.000145811
4.34004e-05
-0.000169201
1.38673e-05
4.75399e-05
4.57049e-05
0.000141097
-7.4117e-06
-0.000164142
0.000152792
-0.000965655
0.00103169
-0.000249733
0.000183702
-2.11707e-05
6.75399e-05
1.55925e-05
-5.53147e-05
0.000219233
-0.000247641
0.000544128
-0.000476236
-0.00018103
-2.19825e-05
-9.15247e-06
2.07436e-06
-4.73214e-05
4.69587e-05
-4.9902e-05
-0.00116118
-8.67173e-05
-1.68077e-05
-0.000194001
-3.40598e-06
0.000110707
-0.00107281
0.000971568
1.73125e-05
-1.75981e-05
0.000994738
-5.63551e-05
0.000559173
-0.000482721
-7.64525e-05
0.000416193
5.75448e-06
0.0001233
1.77684e-05
-2.4007e-05
2.58372e-05
-0.000901099
0.000911005
0.000189226
-0.000141402
0.000255534
-0.000283891
2.83571e-05
-0.000218659
0.000167202
3.68745e-05
-0.000305469
2.15781e-05
0.000108265
5.53638e-05
0.00032036
-0.00106787
1.91898e-05
5.32603e-06
-4.84306e-06
5.97751e-06
0.000179486
-0.000188748
2.78505e-05
6.11018e-06
-3.39607e-05
-2.91482e-05
0.000219811
-1.2223e-05
2.35082e-06
-0.000339809
-4.81032e-07
-0.000125917
-0.000624545
0.000454609
-2.55796e-05
-2.12381e-05
8.14013e-08
1.91084e-05
-0.000172571
2.45556e-05
-2.24909e-05
0.000545255
-9.79388e-07
6.79066e-05
-5.61222e-05
8.48743e-05
-5.40534e-05
-1.16047e-05
-0.000106883
4.4475e-05
1.55928e-06
2.23265e-05
5.52402e-06
-9.14602e-06
9.22742e-06
9.51211e-05
8.83016e-05
4.43563e-06
1.84865e-06
8.71592e-06
-3.85917e-05
-9.0842e-06
-1.33361e-05
-6.86679e-05
0.000462115
-0.000453377
-9.33322e-05
-8.69763e-06
-0.000257709
1.71174e-05
5.20902e-06
2.63991e-05
-7.21726e-05
0.00105404
-1.42431e-05
-0.00101547
-0.000152011
0.000165275
0.000618079
-0.000103148
0.000377722
-0.000203999
-1.99529e-05
4.7404e-05
1.62209e-05
0.000306619
4.73926e-05
-4.44635e-05
-0.000221905
0.000317026
-8.78555e-06
1.32212e-05
0.00141015
-0.00113969
-7.50384e-05
-0.000925106
-7.4413e-05
-4.66625e-05
-1.2843e-05
0.000125911
-1.48027e-05
0.00055001
-0.000721443
-0.000101788
9.63432e-05
4.27439e-06
-6.75753e-06
0.000123929
0.000170217
-8.21329e-05
-0.000888035
-7.89037e-05
-9.62148e-05
-0.000370342
0.000393359
-0.000175633
0.000589395
0.000924579
-0.000265266
-3.77251e-05
1.32015e-06
-3.77015e-05
-0.000220233
0.000165001
0.000683643
5.68074e-06
6.26091e-05
0.000151182
-1.00844e-05
7.72871e-05
0.000166543
2.33481e-05
2.32596e-05
-0.000214664
-0.000283192
-4.69826e-05
0.000305409
-1.86676e-05
2.74255e-05
5.73947e-05
0.000111333
7.01174e-05
6.02085e-05
8.9351e-05
0.000140866
3.0829e-05
0.000902674
-0.000914376
-4.19732e-05
-2.59043e-05
1.93113e-05
7.13587e-06