/*--------------------------------*- C++ -*----------------------------------*\
| =========                 |                                                 |
| \\      /  F ield         | OpenFOAM: The Open Source CFD Toolbox           |
|  \\    /   O peration     | Version:  v1912                                 |
|   \\  /    A nd           | Website:  www.openfoam.com                      |
|    \\/     M anipulation  |                                                 |
\*---------------------------------------------------------------------------*/
FoamFile
{
    version     2.0;
    format      ascii;
    class       volVectorField;
    location    "0.66";
    object      U;
}
// * * * * * * * * * * * * * * * * * * * * * * * * * * * * * * * * * * * * * //

dimensions      [0 1 -1 0 0 0 0];


internalField   nonuniform List<vector> 
1431
(
(0.00211069 -0.473623 -3.43641e-17)
(0.0640908 -0.947933 -1.41605e-16)
(6.08118 0.905798 1.00522e-16)
(-2.94566 1.82969 -4.83375e-17)
(-0.116505 -0.0723284 -1.91891e-16)
(1.63485 0.0127274 3.26098e-16)
(-1.60364 0.380039 -1.971e-16)
(9.788 0.614601 -2.23864e-16)
(-0.310714 4.08556 0)
(-0.485033 3.73168 -1.02168e-16)
(0.720296 2.97696 0)
(0.609802 -0.352685 7.16445e-17)
(-0.809785 0.658066 0)
(9.09682 0.49545 1.96589e-18)
(0.280566 0.648687 -2.62052e-16)
(-0.147284 3.79823 0)
(0.430057 2.10069 -3.29603e-16)
(1.82155 0.284832 0)
(0.864446 -0.189931 1.35351e-16)
(0.834379 2.72473 3.81573e-17)
(-0.0346947 -0.441428 -2.30945e-17)
(-0.581025 2.63634 3.13248e-19)
(0.774344 0.504987 -5.4366e-17)
(8.80687 0.545756 -3.18262e-17)
(1.67817 3.18509 -1.30433e-16)
(0.804826 2.24638 -1.12094e-16)
(-1.55306 4.65735 1.21819e-16)
(9.35548 0.445375 -2.34215e-20)
(10.8522 0.590726 6.30695e-18)
(1.37384 -0.668262 -5.05957e-16)
(7.6316 0.283778 2.42399e-16)
(7.28754 -0.183821 -1.77836e-16)
(-1.82719 0.41046 -1.18562e-16)
(-1.22393 0.256068 0)
(-1.49416 0.411754 1.02901e-16)
(2.10496 8.75039 1.27744e-16)
(0.237767 0.29746 1.41005e-16)
(9.77078 -0.00718586 0)
(0.515723 0.20441 -1.90417e-16)
(9.6881 -0.0035006 0)
(5.00378 0.121518 1.37213e-16)
(0.0658238 -0.0598581 -8.5131e-17)
(-1.21234 0.483072 0)
(-1.50596 0.688085 -6.64352e-17)
(-1.01781 0.722244 1.57824e-16)
(-0.0325262 -0.196676 -4.9387e-16)
(1.51568 4.65203 2.26044e-16)
(7.30913 1.17742 -5.89409e-17)
(9.0415 0.536511 1.62302e-16)
(9.53179 0.0899721 3.74995e-17)
(1.44551 -0.120723 -8.979e-17)
(-0.394369 3.52146 1.06723e-16)
(-0.283038 5.15288 4.99591e-17)
(-0.892986 0.416649 -1.74219e-17)
(-1.28101 0.77559 -1.32192e-16)
(8.07429 1.7113 0)
(-0.287451 2.06623 7.39568e-17)
(-0.226873 3.72837 -2.41081e-16)
(-0.509982 6.22886 0)
(0.0293257 -0.457179 -8.93333e-16)
(0.702189 1.9163 0)
(1.18917 1.81324 -1.46696e-16)
(1.47205 7.57079 -1.42859e-16)
(10.5984 0.1199 0)
(10.0146 0.306336 -1.87579e-17)
(0.762384 -0.406872 0)
(6.62693 0.421039 0)
(1.69467 -0.0141679 0)
(0.272789 -1.0004 1.40637e-16)
(10.783 0.0894807 0)
(-0.786864 0.29706 9.52205e-17)
(-0.786076 0.363328 -1.00878e-16)
(0.139298 0.81075 0)
(1.38365 0.0597731 -3.17211e-16)
(-0.0471312 1.63057 -1.87362e-20)
(-0.960886 0.32243 2.86834e-16)
(-0.0942328 -0.218741 6.42881e-17)
(3.95665 0.744867 3.19592e-16)
(10.0116 0.169666 1.33314e-17)
(0.922386 -3.0317 -2.23392e-17)
(9.95873 0.0975731 -2.60124e-16)
(1.38528 -0.000915885 -2.30343e-18)
(0.306512 -0.262592 2.49419e-16)
(1.18507 0.330646 -8.85331e-17)
(-2.79014 1.4187 4.89922e-17)
(-0.0970429 -0.230171 -6.53349e-16)
(-0.120063 -0.238759 -1.32782e-16)
(-0.693884 0.859586 1.8416e-16)
(8.44104 0.588717 9.57316e-17)
(1.04789 2.19915 -5.24403e-17)
(1.40143 1.05477 1.9257e-16)
(-1.11982 0.725389 2.82044e-16)
(-0.223822 -0.320272 0)
(9.83384 0.0345249 0)
(1.51794 -0.126781 2.26629e-18)
(0.000113455 -0.438862 -1.90079e-19)
(-0.0866289 1.56941 -4.28005e-20)
(10.3912 0.546457 3.37359e-18)
(-0.0321584 -0.269068 2.59658e-16)
(8.90104 0.499123 -4.58986e-16)
(0.135861 -0.648534 -1.51384e-16)
(9.93373 0.169191 -6.88394e-17)
(0.706282 0.482385 0)
(-0.0287709 0.0307389 2.6695e-20)
(-0.822563 2.21677 1.88629e-16)
(-0.156937 -0.0810272 9.2587e-17)
(10.039 0.0669876 -1.08647e-16)
(4.67408 -0.0358936 7.84755e-17)
(6.86188 0.0215651 9.85107e-17)
(-0.0302846 -0.161019 1.05989e-16)
(-0.795585 -2.50917 1.95514e-16)
(0.282629 -0.407427 -8.32273e-17)
(9.73326 0.84097 0)
(1.37678 2.00743 -1.44022e-16)
(-0.338133 2.43353 0)
(0.0057126 0.0778532 0)
(1.64341 0.468762 0)
(0.386385 -0.0628167 7.94612e-20)
(7.97756 0.60606 -6.58021e-17)
(-1.56476 0.66509 -1.58457e-16)
(9.96475 0.262502 -2.074e-17)
(-0.314387 5.22357 -1.40674e-16)
(-0.355149 3.28607 -4.80405e-16)
(8.82724 0.830376 -1.21648e-16)
(10.135 0.166023 0)
(-0.239565 0.292007 -1.1283e-16)
(7.43179 0.592302 1.73742e-17)
(0.0793871 0.956341 6.73976e-17)
(-0.14629 -0.363998 1.17729e-16)
(10.658 0.423542 -7.53975e-17)
(-0.088268 -0.234269 -1.61184e-16)
(4.12869 -0.152409 2.56508e-16)
(7.27863 0.278624 0)
(1.13087 1.15264 -1.68784e-16)
(-0.324434 -0.423442 -1.24225e-17)
(-1.88362 0.879326 -2.96032e-16)
(0.378464 0.98296 0)
(0.459863 -0.0704196 1.43164e-16)
(0.438815 0.300967 5.30647e-17)
(3.36491 -0.07338 -4.22084e-16)
(-0.196996 4.25783 0)
(-0.505248 -0.424877 3.61289e-17)
(10.5448 0.0576418 -7.8472e-18)
(8.98506 0.388101 -2.09188e-17)
(8.64285 0.166749 0)
(11.3972 0.281835 4.56952e-17)
(10.3747 0.364622 3.52059e-17)
(4.45285 -0.0631951 0)
(0.693197 1.36234 -1.19634e-16)
(9.40027 0.941951 -5.36681e-17)
(10.8817 0.0439487 8.17106e-17)
(9.92631 0.425807 -1.62538e-17)
(-0.294178 -1.33942 -1.74873e-16)
(0.765034 -0.39562 1.05725e-16)
(0.717333 0.865876 1.65895e-16)
(0.0754904 0.997308 -4.59473e-17)
(10.1024 0.109637 8.98183e-17)
(1.48692 1.73485 -3.56217e-16)
(9.62664 0.947743 0)
(9.5403 1.17253 -9.93484e-17)
(1.80034 0.0177994 -1.13173e-19)
(0.950228 2.36584 3.53221e-17)
(0.369405 0.0827677 0)
(-0.294917 1.36047 -4.2167e-17)
(-0.00734531 -0.0750088 -3.06565e-16)
(-1.00037 -0.295332 -1.98827e-16)
(-0.0541396 -0.244689 -1.485e-16)
(9.89266 0.107927 0)
(1.43423 -0.395956 3.99926e-16)
(0.677084 0.612912 -1.75423e-16)
(9.72733 0.932546 -1.39861e-17)
(0.0744997 2.63214 2.7152e-17)
(8.52254 0.561334 -1.19208e-16)
(11.0739 0.0513088 0)
(10.5287 0.039055 1.48834e-17)
(0.0460571 0.0700778 0)
(-0.152612 0.265055 9.36262e-17)
(9.38988 0.602554 -1.84563e-17)
(1.15437 -0.861089 3.22527e-16)
(9.55506 1.1062 1.0198e-16)
(9.75749 0.295737 4.27419e-17)
(0.549486 0.651954 1.24237e-16)
(8.88366 1.71989 0)
(1.09886 1.83873 3.10338e-16)
(11.262 0.114753 9.97522e-17)
(9.91809 1.11493 -1.38945e-17)
(9.88766 0.705801 1.06048e-16)
(-2.80725 4.34686 -1.37238e-16)
(0.61595 1.6031 1.71871e-16)
(10.287 0.10483 -2.60002e-20)
(0.70767 -1.73393 -2.5053e-19)
(0.672819 2.14317 -1.25292e-16)
(-0.0889458 -0.327053 -4.14665e-16)
(10.083 0.0435689 -6.56867e-17)
(-0.23556 2.49845 -1.88886e-22)
(10.1131 0.426989 4.11617e-17)
(10.0405 0.0884117 0)
(7.34216 2.10209 -1.09603e-16)
(0.587976 0.88799 0)
(0.418558 0.210025 0)
(0.095491 -0.599726 -2.15403e-16)
(2.84681 2.57743 -2.89064e-16)
(9.41051 1.04836 -2.8021e-17)
(3.65013 0.128144 -4.79018e-16)
(10.0588 0.0535524 3.61078e-17)
(-2.48572 2.51149 -3.09742e-16)
(-0.044891 -0.379814 1.12262e-15)
(9.80138 0.210521 2.56688e-17)
(0.181754 1.79257 1.52073e-17)
(9.29122 0.242869 0)
(10.1475 0.0671918 8.1491e-18)
(9.95858 0.338822 6.45093e-17)
(8.00149 0.67066 1.42213e-17)
(9.87666 0.193938 2.46719e-17)
(-0.259643 0.49946 0)
(-0.114342 0.583658 3.97336e-16)
(9.5135 1.04513 0)
(0.772241 -1.8211 0)
(-0.217808 -0.770473 0)
(10.1264 0.232617 -6.44901e-17)
(9.89945 0.165454 0)
(0.133031 1.12174 1.53016e-16)
(11.1426 0.0298242 -1.3121e-16)
(4.55518 1.29895 -7.60018e-17)
(10.7296 0.350096 0)
(9.40849 0.90817 0)
(9.4572 0.953771 -7.46903e-17)
(1.13916 1.50445 0)
(10.577 0.646561 0)
(7.6777 0.22405 -7.40272e-17)
(-0.142583 -0.155818 0)
(-2.34466 1.92943 3.54862e-16)
(10.6431 0.0894456 5.96124e-20)
(9.93358 0.49245 -1.93438e-16)
(9.81741 0.429255 8.89615e-17)
(9.84183 0.382884 5.00948e-17)
(10.5099 0.253949 -2.70643e-17)
(0.0166054 -0.339301 2.52637e-16)
(9.86933 0.106866 0)
(-0.600416 -0.239501 1.99186e-16)
(9.56563 0.1884 -3.277e-17)
(9.48872 1.13932 8.4214e-17)
(-0.235379 3.23116 -2.21332e-16)
(0.997215 4.33723 -3.00526e-16)
(-0.166536 1.11625 1.87565e-20)
(-0.376763 1.0519 5.72543e-20)
(10.5439 0.270914 -1.82696e-16)
(-1.99203 0.273214 0)
(-1.4722 0.11661 0)
(10.0492 0.905988 0)
(10.1323 0.973119 -9.62127e-17)
(-0.262863 3.60693 0)
(-0.517011 3.53376 1.02328e-16)
(6.43066 3.20275 2.14587e-17)
(1.38427 5.47371 -1.66794e-16)
(8.20896 0.0499828 -4.57701e-17)
(1.22623 0.0030764 1.86981e-17)
(-0.572846 -0.603472 5.1348e-19)
(8.35297 0.00345353 7.13022e-20)
(8.30207 0.0175188 8.88033e-17)
(8.17181 0.067177 8.79764e-17)
(-0.527604 0.944441 3.03788e-17)
(0.0156989 -0.172933 5.38754e-16)
(-0.159741 4.41688 -4.29029e-17)
(9.80208 0.316526 -7.83121e-17)
(10.6918 0.549182 6.92468e-18)
(8.24351 0.0104061 -8.2264e-17)
(9.95571 0.892396 0)
(8.50541 2.722 2.84601e-17)
(-0.163299 3.65812 -1.37755e-17)
(9.8548 1.03097 0)
(9.19624 0.736576 3.10705e-16)
(10.2692 0.846121 2.79565e-17)
(10.3118 0.741743 0)
(8.12815 0.0763895 -5.44098e-17)
(10.0589 0.642556 1.16919e-18)
(1.09698 0.942375 -1.08774e-16)
(0.649227 -0.696425 -1.92193e-21)
(0.67222 0.112286 -4.12017e-17)
(-0.436888 3.88919 1.74815e-16)
(-0.405022 4.66132 0)
(-0.626972 0.108883 -4.14631e-17)
(-0.0669998 -0.886931 0)
(1.46152 1.45793 2.54576e-16)
(8.30228 -0.00674017 -4.49553e-17)
(-3.36749 3.21826 6.20403e-17)
(-0.189372 -0.246018 1.31622e-16)
(9.22486 1.18048 5.26907e-17)
(10.2758 0.838883 2.09854e-19)
(9.68012 0.175805 6.84097e-17)
(11.1723 0.434032 1.56358e-16)
(9.60176 0.0100495 -6.13012e-17)
(9.46418 1.04264 0)
(0.975067 -1.44544 0)
(10.0945 1.051 -4.46628e-17)
(9.48821 1.36311 4.80211e-18)
(-0.175083 -0.29463 0)
(9.12157 2.04891 1.5873e-18)
(-0.499046 -0.80697 -1.85517e-16)
(9.57891 1.16123 2.86859e-17)
(9.68186 0.348524 2.92496e-17)
(9.25962 0.826443 7.49795e-17)
(0.627394 0.309554 0)
(8.12585 0.145515 0)
(1.42694 1.69183 -2.08844e-16)
(-0.367542 -0.964605 1.6112e-16)
(9.94219 0.12225 8.29958e-17)
(8.25872 0.031853 -8.9762e-17)
(8.31231 0.00896856 -8.64046e-17)
(-0.362749 -0.320084 1.91664e-16)
(9.68749 0.239289 -1.36774e-17)
(10.8178 0.206811 5.52494e-17)
(0.673449 -0.119464 -1.85235e-17)
(-0.249748 -0.387527 -1.98361e-17)
(-0.753073 0.338892 -4.75538e-19)
(-0.259542 -0.9975 -1.57385e-16)
(-0.405866 3.95072 -4.70154e-17)
(-0.509414 0.354247 -8.22188e-17)
(9.84411 0.326164 -4.69023e-17)
(-0.259497 -0.983034 -1.4498e-16)
(-0.438937 -0.694415 -2.57036e-16)
(-0.195981 -1.10601 2.28878e-16)
(-0.133515 3.83481 -2.43171e-20)
(-0.592213 0.0896738 -5.32852e-20)
(0.0359579 1.19035 -1.43913e-16)
(-0.221289 -0.742872 -7.71967e-17)
(9.86807 0.073683 1.77821e-16)
(-0.043264 -0.596949 -6.80695e-17)
(7.70335 0.472202 0)
(9.79171 0.171378 -6.87885e-17)
(0.290611 -0.310943 -1.08353e-16)
(0.345434 -0.639522 0)
(-0.540713 0.1248 0)
(0.81249 -1.65526 1.78186e-16)
(10.3087 0.114185 0)
(-0.10181 1.86482 -1.26073e-16)
(1.38685 -0.406349 -5.93592e-17)
(-0.332413 -0.949433 0)
(1.41745 -0.142353 -1.73047e-17)
(-1.06533 0.211568 1.62958e-16)
(0.313165 -0.219812 0)
(9.84939 0.0889993 -8.01853e-17)
(-0.234114 -0.385979 7.89755e-17)
(10.07 0.208859 3.40481e-17)
(6.71695 3.55138 -2.65608e-16)
(-0.0983971 -0.118298 1.94203e-16)
(10.527 0.238448 1.47134e-17)
(0.0444191 -0.101341 1.81904e-16)
(-0.373574 0.109437 -8.65237e-17)
(-0.959133 0.0136159 -7.51373e-17)
(0.34861 -0.00722448 -1.31762e-16)
(0.190976 0.0074724 -4.76207e-16)
(-0.117848 -0.115772 0)
(1.37274 0.0128397 -1.48975e-16)
(-0.298472 -0.0212071 0)
(0.339985 0.0207677 0)
(0.0197598 0.0575295 0)
(-0.257319 0.0470177 -3.99185e-16)
(1.36131 0.0808541 0)
(0.239844 0.16551 5.06108e-16)
(1.18469 -0.0811873 -1.8366e-17)
(-0.408427 -0.0033783 1.43142e-16)
(1.26991 0.0164218 2.33451e-18)
(-0.109231 -0.0199403 -9.66788e-17)
(-0.727112 0.129026 2.63319e-16)
(0.222123 -0.0742565 -1.7757e-16)
(1.20817 0.0282966 0)
(-0.187106 0.100523 0)
(0.0665503 -0.278562 -2.71412e-17)
(0.404242 0.0136751 0)
(-0.0554308 -1.07787 5.19042e-16)
(-0.561324 -0.199539 1.3268e-16)
(-0.0402089 -1.05659 -1.30082e-16)
(10.0371 1.10313 5.19578e-17)
(1.0377 -1.4631 0)
(-0.939648 -1.67218 1.9465e-16)
(0.313172 -0.333333 1.03799e-16)
(9.82785 0.283325 3.17888e-17)
(10.0043 0.0317703 8.32411e-17)
(1.20883 0.161813 5.88824e-16)
(0.281642 0.0255065 2.91372e-17)
(0.349928 -0.0409116 4.14403e-17)
(-0.935094 0.0969757 -2.46066e-16)
(-0.140331 0.0123228 0)
(-0.385512 0.0519477 1.36236e-16)
(1.21672 0.0261567 0)
(0.0772366 0.0896686 0)
(-0.239744 0.0533573 1.99511e-16)
(1.44197 0.0322142 1.39911e-16)
(-0.165299 0.0359141 1.74414e-16)
(-0.201912 -0.153588 0)
(2.50454 5.2764 1.79417e-16)
(9.75766 1.07247 -2.81846e-17)
(9.98774 0.000723653 0)
(-0.00674822 -0.914841 4.36951e-19)
(0.20794 -0.189057 -1.83852e-16)
(-0.367503 -0.702457 -1.62499e-16)
(9.96288 0.18883 0)
(0.0958984 0.534298 0)
(10.4631 0.0780378 0)
(0.467203 0.0685521 -6.21409e-17)
(0.218642 -0.453668 1.81851e-16)
(10.0242 0.206066 2.79469e-17)
(1.39904 -0.0333372 3.1572e-17)
(0.144013 -0.526233 1.23685e-17)
(10.0701 0.863663 0)
(-0.445512 0.267744 1.14038e-16)
(8.84621 0.0241845 1.66313e-16)
(-0.351467 -0.1348 -3.24876e-17)
(0.388038 -0.112356 -1.53083e-16)
(9.73258 0.0788504 6.54696e-17)
(0.0102709 -0.684615 0)
(0.247072 0.118847 -2.21177e-20)
(2.24347 7.76738 -3.92832e-16)
(8.83416 0.235518 -2.21771e-17)
(1.78458 4.48467 6.68208e-17)
(0.244542 -0.533308 -1.58223e-16)
(-0.197023 4.18685 1.86057e-16)
(-0.530685 -0.0902342 -2.38508e-17)
(-0.363436 -0.50872 1.17945e-19)
(-0.561456 0.312046 4.61577e-17)
(0.460232 -1.19536 1.35526e-16)
(-0.200031 0.841577 5.06291e-17)
(-0.0629735 -1.77476 -2.4558e-16)
(0.34003 -1.10646 0)
(0.263905 -0.523596 1.57101e-16)
(0.0109925 -1.65095 4.15303e-17)
(0.321543 -0.815302 9.98852e-18)
(-0.25492 0.650034 -1.19322e-16)
(0.257019 -0.906192 -3.33146e-16)
(1.00227 0.681647 0)
(-0.0998681 -1.60738 -1.85183e-16)
(0.0497232 -0.66562 0)
(0.440526 -1.06398 2.26517e-16)
(-0.623754 0.34115 -9.222e-18)
(0.288709 -0.661053 0)
(0.444297 -1.02392 -1.99236e-16)
(0.39625 -1.21287 2.37608e-18)
(0.0649497 -1.82711 5.12062e-16)
(-0.550105 0.234912 1.93238e-16)
(-0.791667 0.543116 -1.71375e-18)
(-0.10826 2.78924 -4.12479e-17)
(0.482479 -1.31499 0)
(0.458407 -1.53331 4.42863e-17)
(-0.111983 -0.568324 0)
(0.393667 -0.372566 8.47323e-18)
(0.273433 0.0849811 -4.66095e-18)
(0.0278645 -1.64807 -1.12091e-16)
(0.612541 -1.24159 0)
(0.33737 -0.637562 1.49363e-16)
(0.400373 -0.759588 -9.51766e-17)
(-0.061004 0.147266 3.94888e-16)
(0.340646 -0.209219 -1.43902e-16)
(-0.27803 0.933292 -1.30272e-16)
(0.303808 -1.20523 7.28488e-17)
(-0.320793 0.807904 -1.89981e-16)
(-0.0541141 -0.00594123 -2.89849e-16)
(0.0573795 -0.394384 -6.21571e-18)
(-0.19159 0.419496 0)
(-0.603602 0.389485 0)
(2.85024 2.40206 2.81821e-16)
(0.616299 -1.43319 0)
(-0.114547 0.313043 0)
(0.281049 0.612501 -2.34767e-16)
(-0.571977 0.281135 2.04394e-16)
(-0.474112 0.107774 -4.59289e-16)
(-0.227347 0.0146744 -1.77449e-16)
(1.89449 3.21133 1.07046e-16)
(-0.0823617 0.638364 -2.50528e-16)
(-0.551379 0.0585934 -5.90204e-16)
(1.85844 5.38205 1.621e-16)
(1.15779 -0.357455 0)
(8.17385 0.0967554 -1.54341e-17)
(1.07737 7.05155 -5.84255e-17)
(-0.43797 0.947317 3.23708e-16)
(-0.479152 -0.12048 -1.9738e-16)
(2.52925 7.44583 -2.73308e-16)
(2.26718 8.01929 2.49586e-16)
(1.07655 4.06059 1.73299e-16)
(0.078493 -0.780314 0)
(0.221112 -1.23956 -4.37644e-17)
(1.10967 -0.258147 0)
(0.697586 8.4883 -4.81134e-17)
(9.98789 0.368899 -1.84441e-17)
(8.85495 0.152148 -3.21693e-17)
(-0.688694 1.17639 -1.68219e-16)
(0.0026184 0.915656 -1.51627e-16)
(-0.051333 0.663781 1.23441e-16)
(0.160017 -0.891636 -9.46756e-17)
(0.24434 -0.822284 0)
(0.0172541 -0.525586 -1.23546e-17)
(0.230674 -1.18119 0)
(-0.479099 -0.230721 2.42401e-17)
(2.21393 6.86314 5.76124e-17)
(0.0890059 -0.912966 0)
(1.15118 -0.0808394 0)
(-0.600691 3.88467 0)
(0.46306 -1.88146 3.72572e-17)
(9.93114 0.15208 -1.37833e-17)
(0.349437 -1.92258 0)
(-0.0710286 0.948775 -5.70625e-19)
(-1.26304 5.63615 1.3526e-17)
(0.309184 -0.877791 9.09191e-22)
(0.296196 -0.815321 0)
(0.226207 -1.11438 1.9153e-16)
(0.35305 -1.80553 0)
(-0.435705 -0.277485 9.53666e-21)
(-0.119008 0.745479 -6.63778e-17)
(0.128898 -1.47884 -3.97627e-17)
(-0.124572 2.75081 -7.95289e-17)
(-0.174701 2.54989 0)
(0.166811 -1.68108 3.19796e-17)
(9.71472 1.20212 0)
(-0.274583 -0.41327 4.44698e-17)
(10.5277 0.117585 -9.5711e-17)
(0.296347 -1.47564 0)
(1.58002 6.05305 -3.85024e-16)
(-0.800642 4.93871 7.78809e-18)
(0.131504 -1.36189 4.1023e-17)
(-0.313459 0.123114 0)
(0.602213 -1.89845 -1.65994e-20)
(0.0736315 -1.89978 -1.15555e-16)
(0.504417 -1.99664 5.63081e-17)
(-0.551007 -0.0558044 -1.73646e-16)
(0.872743 0.026868 1.1742e-18)
(0.292985 -0.952502 0)
(-0.00341488 -0.726561 1.6635e-16)
(0.18956 -1.25602 0)
(0.207248 -1.98151 3.72275e-17)
(0.40508 -1.62752 -9.48313e-17)
(8.82109 0.18978 4.42834e-17)
(8.0842 0.16733 -1.28388e-16)
(0.16789 -1.866 4.67826e-17)
(0.342976 -2.02392 -1.4801e-17)
(0.0878462 -0.451946 1.91937e-17)
(0.208309 -1.24134 -3.68784e-17)
(0.232439 -0.423507 3.87527e-17)
(0.33425 -1.67798 0)
(0.463364 -0.601265 3.16901e-16)
(3.10307 4.04091 0)
(0.29696 -0.867266 -1.252e-16)
(0.752021 2.45144 1.85415e-16)
(0.231964 -0.501687 1.66826e-16)
(-0.285822 1.31454 0)
(0.295064 -0.0941565 4.75605e-17)
(-0.1676 1.3492 5.10056e-17)
(0.357788 -1.29873 2.40794e-17)
(9.81151 0.101601 0)
(-0.0030526 0.0956972 0)
(-0.394189 -0.339457 6.59036e-21)
(0.246851 -1.91307 -4.05579e-17)
(-0.170488 -0.140407 2.30459e-16)
(8.22408 -0.0469481 4.34613e-17)
(0.195869 -0.929026 7.08521e-17)
(-0.533068 0.350967 3.36166e-17)
(0.0378467 -0.637335 -6.04816e-17)
(0.165447 0.144862 -8.11301e-17)
(0.318733 -0.332558 -1.86909e-16)
(8.13942 -0.0425048 -5.04379e-19)
(9.32762 1.19683 4.69289e-17)
(0.436477 -0.653132 -3.20856e-16)
(0.120263 -1.67692 0)
(0.0148256 0.988697 0)
(0.956313 3.73438 6.95232e-16)
(-2.18293 0.445334 -1.20583e-16)
(-0.457192 -0.347765 -4.97641e-16)
(0.531302 -0.823334 0)
(9.72716 0.956295 1.33034e-16)
(1.05629 0.827148 0)
(0.232418 -1.25073 1.25046e-16)
(-0.718004 -0.104181 -6.03572e-16)
(-0.0075768 1.1031 1.64536e-16)
(1.9824 2.32961 0)
(-0.0952491 1.24106 9.04349e-18)
(1.65778 6.80088 0)
(1.52669 1.63555 2.08194e-16)
(0.570441 -1.07846 1.10677e-16)
(1.14817 -1.25361 1.09187e-16)
(0.129948 -1.49032 -1.24089e-16)
(8.91017 2.38619 -2.93728e-17)
(1.24284 0.052823 -4.64313e-18)
(9.81162 0.0806036 2.25336e-16)
(-0.0389169 -0.738647 0)
(0.311752 -0.612617 -7.05829e-20)
(-0.114433 0.223241 -2.68141e-17)
(0.26355 -1.68635 0)
(0.034904 -0.676805 3.23645e-16)
(9.97069 0.997466 0)
(1.4303 0.00340328 4.54451e-18)
(10.7899 0.453352 -3.33842e-18)
(-0.237231 1.58254 0)
(-0.135482 3.13673 -9.62692e-17)
(10.0004 0.0685983 -1.13419e-16)
(9.90831 1.23994 0)
(9.76518 1.53018 -5.23964e-18)
(0.202182 -1.66129 0)
(-0.323693 0.443986 -8.98757e-17)
(0.565343 -1.78832 -1.60534e-17)
(9.7725 0.860607 7.1995e-18)
(0.722714 -0.324898 -2.11573e-16)
(0.127826 -0.584684 -2.1609e-16)
(0.00218229 -0.759718 -3.67183e-16)
(-0.392147 -0.414585 -4.2769e-17)
(0.315503 -1.34937 -5.15715e-18)
(0.289188 -0.932325 5.81022e-19)
(0.0226911 0.591153 -8.59026e-17)
(0.658417 2.13386 0)
(-0.267768 -0.463238 2.62085e-20)
(-0.195679 1.98489 4.81347e-17)
(5.85025 1.24697 -4.59341e-17)
(7.17319 2.40701 6.33138e-18)
(0.320177 -0.196594 -1.45427e-16)
(-0.366749 -0.571941 0)
(0.286173 -0.510791 -1.5513e-16)
(6.53807 1.77159 0)
(9.82085 0.747745 -1.33744e-17)
(-0.593355 5.96646 0)
(-0.240373 3.68276 4.45061e-17)
(0.225164 -0.366552 -1.02782e-16)
(0.052073 0.0379896 6.81658e-21)
(-0.375911 -0.545381 1.04085e-16)
(-0.376755 0.256865 0)
(1.83545 0.459832 2.92193e-16)
(0.00515003 -0.69193 -7.25595e-17)
(0.661438 -1.90594 3.61403e-20)
(6.72181 1.61624 -6.30833e-17)
(-0.450727 -0.695104 8.72266e-17)
(-0.240652 0.342012 9.26684e-17)
(0.332798 -0.567771 -1.33112e-17)
(9.81604 0.054635 0)
(-0.106248 1.80103 4.4372e-17)
(1.55279 0.182534 -1.0092e-16)
(0.38472 0.245886 -1.3325e-16)
(9.82085 0.0464437 -4.71336e-17)
(-0.567325 -0.28393 6.75498e-17)
(0.136348 -0.499657 3.5575e-17)
(-0.348265 -0.559611 -8.43753e-17)
(9.16223 1.21973 3.7426e-17)
(9.08045 1.66527 2.0864e-17)
(1.38662 0.394414 2.48551e-16)
(0.277615 -1.36139 -1.73064e-17)
(-0.390302 3.66066 0)
(9.83168 0.0577516 1.86457e-16)
(0.194825 0.140082 3.4094e-16)
(0.821849 -1.80587 -1.86816e-17)
(0.246329 -0.471784 0)
(0.243655 -1.35804 2.89246e-17)
(-0.22614 4.79104 -6.46995e-17)
(-0.397875 3.47988 5.39011e-17)
(1.05107 0.048236 3.45529e-16)
(0.28739 -0.0677026 0)
(-0.360785 -0.596671 2.43203e-17)
(9.49711 1.80627 4.38651e-17)
(8.79574 1.01205 0)
(-0.193288 4.59426 8.89582e-17)
(0.220798 -0.543689 -6.52784e-17)
(9.8085 0.0680193 8.37992e-17)
(9.92009 0.156705 -2.30632e-17)
(0.615264 -1.62417 -2.41166e-16)
(0.213009 -0.0312273 -3.95001e-16)
(0.324144 -0.498279 1.91541e-17)
(-0.104258 -0.244884 1.04166e-16)
(1.59425 0.990623 -3.22662e-16)
(1.7258 1.2127 -1.15922e-18)
(9.8127 0.128573 0)
(0.326254 -0.251427 1.88605e-16)
(10.0119 0.068982 3.99902e-17)
(-0.233439 1.44953 -5.05e-17)
(0.123006 -0.00847656 1.47796e-16)
(0.558698 0.349823 -5.56123e-17)
(-0.1536 0.172442 -9.4604e-17)
(9.83327 0.0842295 -2.62365e-17)
(1.75818 0.778214 -1.67084e-16)
(0.320963 -0.136935 -2.32601e-17)
(8.77067 0.285663 0)
(8.89112 0.742425 8.05859e-17)
(-0.178457 0.759854 7.1429e-17)
(-0.450995 0.827289 2.04507e-16)
(-0.620741 -0.508475 0)
(9.07237 2.01841 -3.14994e-17)
(0.512963 0.560399 -1.64874e-16)
(-0.331024 -0.146773 1.65335e-18)
(-0.218036 1.43671 -3.12382e-17)
(0.264227 0.200949 2.2888e-17)
(0.922272 -1.63241 -1.95129e-16)
(-0.185995 -1.55304 -1.02711e-19)
(0.568584 -1.14081 3.62371e-16)
(0.270829 -0.492224 -3.81674e-17)
(0.423263 -0.0610771 0)
(-0.207713 -0.764682 1.4893e-16)
(7.07731 0.106035 2.26905e-17)
(0.319126 -0.283069 0)
(0.284492 -0.952366 -1.68383e-17)
(0.135657 -0.25876 -7.76167e-17)
(0.436471 -0.673344 1.06646e-16)
(-0.313557 -0.755203 -4.15972e-17)
(-0.12817 -0.0385159 -8.23643e-17)
(-0.505652 -0.185697 3.37796e-16)
(9.82587 0.109244 0)
(9.06183 1.25276 -6.05017e-17)
(0.279966 -0.960712 0)
(-0.0991986 -0.688878 1.71755e-16)
(9.44767 1.03302 -6.67771e-17)
(-0.321114 -0.738135 7.80466e-17)
(0.00122179 -0.546516 3.40528e-16)
(4.8741 2.8438 9.79707e-17)
(8.98153 1.31827 -3.29028e-19)
(0.0820733 0.704153 -1.68112e-16)
(10.0082 0.0745012 -1.1671e-17)
(5.37756 0.325045 2.49568e-16)
(1.28199 -0.879212 2.45878e-16)
(-0.364123 0.413478 4.18292e-18)
(-0.341518 -0.410547 -1.0315e-16)
(-0.319958 1.53014 -3.20135e-17)
(0.220767 -0.322113 -9.16021e-17)
(8.12481 0.29886 4.91414e-21)
(0.153479 -0.719805 2.85643e-16)
(-0.278282 2.62608 -1.15589e-16)
(8.93276 1.24811 -9.07122e-19)
(0.106794 -0.0993391 9.67176e-17)
(8.50248 0.331066 0)
(9.58351 0.109102 2.28231e-17)
(9.82131 0.104592 1.28057e-17)
(-1.32492 5.26407 1.42737e-16)
(-0.927941 -0.210796 -4.62492e-16)
(7.70024 0.295497 -2.38226e-17)
(-0.501657 2.31406 0)
(0.0616286 0.854477 1.14549e-16)
(1.93026 0.148539 -2.72011e-16)
(0.95952 -0.182978 0)
(0.257188 -1.00029 0)
(0.747193 0.221382 1.5695e-16)
(2.42777 0.161927 2.53336e-16)
(2.84147 0.195804 0)
(-0.304182 4.13918 -1.88032e-16)
(9.54164 0.923949 -7.23184e-18)
(1.41826 1.35887 1.43807e-16)
(0.963493 -1.30428 1.11356e-16)
(0.183317 0.348739 0)
(1.43695 1.15483 -3.09486e-16)
(0.30744 -0.466995 1.42218e-16)
(-0.187254 2.8444 1.11731e-16)
(6.0778 -0.28204 0)
(0.678473 0.476864 0)
(5.24555 0.110448 0)
(8.92875 0.352966 7.98447e-18)
(9.21041 1.57313 1.10134e-17)
(10.4424 0.742874 -1.36992e-17)
(9.31227 0.915804 7.42499e-17)
(0.848713 -0.009648 2.42751e-16)
(-0.155788 4.46529 4.25228e-17)
(9.06226 1.33612 -1.34715e-16)
(3.28915 0.206148 0)
(4.08204 0.181034 5.01185e-17)
(1.66822 1.38343 0)
(0.0435159 -0.0110263 -1.28481e-16)
(9.94581 0.0353341 6.05747e-18)
(10.9517 0.0539039 0)
(9.51238 0.107881 5.48807e-18)
(6.81163 0.541557 -1.67082e-16)
(1.60904 -0.103646 -3.67944e-16)
(6.99672 0.745202 1.24819e-16)
(4.6529 4.5359 0)
(3.17051 5.43417 1.75434e-18)
(9.62568 0.0109602 1.04305e-16)
(0.18619 1.75571 -1.8563e-16)
(-0.0541517 -0.0188268 -7.38784e-18)
(2.30679 6.57047 -3.71898e-17)
(5.42888 0.168389 6.9842e-19)
(3.71695 0.200964 8.13952e-19)
(0.876164 -1.34254 4.16858e-19)
(0.897872 6.333 0)
(-0.448749 0.364134 1.67232e-16)
(-0.315341 -0.438315 1.65951e-16)
(0.148144 -0.682061 -1.67935e-16)
(4.96746 0.104776 0)
(-0.0835323 -0.31941 9.2359e-17)
(0.978816 1.73691 3.26974e-17)
(0.578952 -1.35011 -1.46409e-16)
(0.495901 -0.432606 -2.07545e-17)
(0.258124 0.45436 -1.42139e-16)
(0.0168787 -0.179301 6.54443e-17)
(4.40243 0.153058 -5.17738e-17)
(-0.0849228 3.80847 0)
(-0.203087 -0.491436 1.66784e-16)
(3.65613 2.6922 -4.67978e-16)
(-0.570836 0.390868 -9.2884e-17)
(-0.211201 -0.335239 -1.45024e-16)
(0.0182137 -0.305827 2.16613e-20)
(6.05782 0.454957 -1.13439e-18)
(1.37525 1.204 1.46833e-16)
(9.6134 0.825832 0)
(1.50899 0.0401383 0)
(3.3609 1.5778 -9.89671e-17)
(9.99386 -0.0117962 2.88409e-18)
(9.87107 0.207291 0)
(-0.294608 0.230758 -9.03255e-17)
(-0.472488 -0.555868 0)
(0.206521 4.23368 -1.20185e-16)
(9.89344 0.114419 2.56481e-17)
(0.575178 -0.951486 2.04252e-16)
(0.2619 -0.000847261 0)
(8.80804 1.19205 2.86052e-17)
(-0.522313 -0.68205 -1.21671e-16)
(-0.20395 -0.0785243 8.95751e-17)
(-0.44913 0.0849214 -2.03001e-16)
(1.78511 7.87788 1.01853e-16)
(1.67249 -0.169841 -3.6073e-17)
(0.0378665 2.50624 4.41262e-16)
(-0.133958 -0.263009 0)
(9.72046 0.139905 -8.60172e-17)
(9.86235 0.0785495 -2.78141e-18)
(-0.0998143 4.55583 -7.93029e-17)
(-0.103944 -0.023212 1.02974e-16)
(2.44158 -1.82362 -1.26512e-16)
(6.15409 0.048932 3.35611e-17)
(5.66009 0.219978 -4.64353e-17)
(4.61766 -0.295113 -2.09961e-16)
(5.24482 0.17258 0)
(5.61572 0.0570546 -1.54382e-16)
(7.25747 -0.0457122 0)
(6.11842 -0.0789364 3.84425e-17)
(4.69367 0.125103 5.9406e-18)
(-0.0273661 -0.752256 -7.19094e-16)
(-0.0903154 0.0269179 -4.84867e-16)
(11.114 0.436872 5.30652e-17)
(0.0920508 0.887272 -3.3278e-17)
(0.203997 0.0656474 2.21244e-17)
(-0.773334 -0.500728 6.43926e-16)
(-0.119051 -0.0855528 -1.67741e-21)
(0.0785996 -0.27122 0)
(-0.828863 0.291721 -1.95149e-16)
(0.0735638 -0.140379 -4.29373e-17)
(-0.216969 -0.259016 0)
(-1.18339 0.108594 3.05115e-16)
(9.10034 0.536321 3.06809e-16)
(0.690242 -1.52251 -2.20156e-16)
(8.36015 -0.020599 4.20661e-17)
(0.289182 -0.19199 -7.16094e-17)
(0.701338 -1.29632 -1.23593e-16)
(9.6874 0.722073 0)
(8.69015 0.903286 -4.12185e-17)
(10.3832 0.459715 0)
(5.93514 0.1172 0)
(1.10193 4.06178 1.50386e-18)
(8.72036 1.07863 9.86586e-20)
(-0.336147 -0.266831 4.17338e-17)
(-0.190329 -1.16704 -3.48035e-16)
(-0.224963 -0.721934 3.16871e-16)
(9.7455 0.0238991 1.1055e-17)
(0.130324 -0.666163 1.28342e-16)
(0.00556071 -1.2775 2.38105e-16)
(-0.403594 -1.12358 1.46801e-16)
(-0.893117 -0.0279674 -3.29746e-16)
(3.30836 4.862 3.66152e-17)
(0.898331 1.03738 2.0525e-16)
(-0.305464 2.84279 -5.12073e-17)
(-0.202305 4.85082 0)
(9.89246 0.196609 0)
(9.57893 0.0208228 6.01428e-17)
(9.80106 0.0580742 -8.81091e-17)
(1.59993 1.48746 -1.82555e-16)
(0.0310053 -0.518605 -4.43953e-17)
(0.762112 -0.212749 3.76786e-17)
(-0.249537 0.208568 0)
(-0.138912 -0.337779 0)
(9.97209 0.25412 6.56422e-17)
(8.50062 1.76488 0)
(-0.160632 -0.123479 -8.98224e-17)
(-0.917113 -0.176997 -2.74292e-16)
(8.67288 0.417316 1.62557e-17)
(1.86328 7.40026 0)
(1.24521 0.799186 2.76015e-16)
(0.186504 -0.927663 0)
(-0.659697 0.172913 1.85549e-16)
(8.63588 2.2283 -1.02078e-16)
(-0.819019 0.687002 0)
(-1.18554 1.05799 -1.24282e-16)
(0.904277 -0.728176 -7.78615e-17)
(9.8004 0.0576466 -7.91434e-17)
(-0.0165249 -0.326065 1.93783e-16)
(-0.795949 0.324121 0)
(0.304301 -0.267603 9.00429e-17)
(-0.553297 -0.22639 -8.60374e-17)
(10.5454 0.0967674 0)
(-0.059703 -0.462288 0)
(0.546277 0.502353 2.33804e-16)
(-0.212737 0.723132 -1.24904e-16)
(0.48967 0.892072 0)
(6.98197 0.0755109 1.84097e-16)
(9.41467 0.122596 0)
(-1.17925 6.07618 -1.32933e-17)
(0.740522 0.404428 -1.53866e-16)
(9.75226 0.117972 6.47676e-17)
(0.71119 0.990695 -1.88376e-16)
(4.51266 1.90267 -2.8314e-16)
(-0.611942 0.295707 -1.19501e-16)
(-0.156448 -0.221417 0)
(1.1704 -1.09471 -2.29353e-16)
(0.258469 0.505088 3.50712e-17)
(1.33149 -0.357982 0)
(1.34902 -0.1048 -1.92209e-17)
(0.0932074 -0.518543 1.72616e-16)
(0.24179 -1.16172 6.45323e-17)
(1.47558 0.0677544 0)
(1.76923 -0.00476607 6.15341e-19)
(11.2145 0.186177 -4.95546e-17)
(0.325155 -0.0478921 4.33951e-17)
(-0.435386 0.105876 5.95799e-16)
(-0.0392724 -0.31379 1.04474e-16)
(1.74248 0.966188 3.16942e-16)
(9.81387 0.0827076 6.16114e-17)
(-0.360884 4.504 0)
(1.39389 -0.0221351 2.28683e-18)
(-0.0304052 -0.266733 -1.87188e-16)
(0.335972 -0.110134 -3.29188e-16)
(0.253632 -0.418684 -1.09191e-16)
(9.55537 0.0361903 9.60458e-20)
(-0.14623 1.5213 0)
(-0.110395 0.716095 5.9373e-18)
(0.84602 -1.48492 -9.55231e-17)
(9.98099 0.234377 2.91335e-17)
(0.612894 0.303058 2.505e-16)
(9.80245 0.0355631 4.97446e-21)
(9.8104 0.136239 0)
(7.89578 0.108906 4.98459e-17)
(-0.468503 0.756062 0)
(5.83702 -0.0442433 -2.05787e-16)
(-0.444054 3.59791 -1.65245e-16)
(1.88841 0.0678212 0)
(0.11642 0.300567 -8.08561e-17)
(8.56438 1.40508 -2.02279e-17)
(1.03238 1.85666 8.79209e-17)
(0.169355 3.06173 -7.05239e-18)
(0.331781 2.15847 0)
(0.257329 2.67079 7.2498e-18)
(0.0924221 3.36014 1.53346e-17)
(0.343795 1.54314 3.36638e-17)
(0.250241 0.904349 -7.77732e-17)
(0.0176965 -0.807941 1.99743e-16)
(-0.418916 -0.0950597 0)
(-1.06827 -0.0361783 3.26459e-16)
(9.77548 0.0688889 1.13335e-17)
(0.103524 0.397316 6.92736e-21)
(-0.104479 -0.414093 0)
(-0.282751 -0.13167 7.82638e-17)
(0.0912101 -2.57692 1.5084e-18)
(-0.0944181 -0.198575 -2.72476e-16)
(1.40381 -0.201124 -4.53974e-18)
(0.060246 -0.39658 -2.22754e-16)
(-0.27209 2.09446 -8.06482e-17)
(0.0468309 0.121817 -1.46354e-16)
(-0.280563 3.74202 5.09276e-17)
(0.523059 -1.03687 3.09417e-16)
(1.92346 4.86007 0)
(-0.225462 -0.281492 -2.05705e-16)
(0.0359593 0.0797516 -1.3605e-17)
(1.28271 -0.311311 3.73385e-17)
(0.537401 -0.901004 -1.05394e-16)
(0.878394 -0.225206 -4.37324e-17)
(-0.0345939 4.11832 1.29613e-16)
(0.064867 0.878213 7.47427e-17)
(-0.529617 0.108047 1.30689e-16)
(1.35961 -0.0958271 2.30411e-18)
(-0.0785065 -0.820224 -2.25176e-17)