/*--------------------------------*- C++ -*----------------------------------*\
| =========                 |                                                 |
| \\      /  F ield         | OpenFOAM: The Open Source CFD Toolbox           |
|  \\    /   O peration     | Version:  v1912                                 |
|   \\  /    A nd           | Website:  www.openfoam.com                      |
|    \\/     M anipulation  |                                                 |
\*---------------------------------------------------------------------------*/
FoamFile
{
    version     2.0;
    format      ascii;
    class       volScalarField;
    location    "0.89";
    object      k;
}
// * * * * * * * * * * * * * * * * * * * * * * * * * * * * * * * * * * * * * //

dimensions      [0 2 -2 0 0 0 0];


internalField   nonuniform List<scalar> 
1466
(
0.352026
0.909321
0.376471
2.05613
0.291277
0.761649
0.24164
0.944401
0.277896
1.10303
1.40814
1.05242
0.217811
0.24935
1.28479
2.36035
0.704391
1.06816
2.48477
1.58744
2.58466
2.43164
1.90678
1.38858
0.248436
0.6406
1.58344
1.97181
0.22354
1.42143
1.63
0.693182
0.428828
3.42422
2.01069
1.11605
3.50167
0.776627
1.39057
0.110691
0.159458
1.14712
1.24457
0.180554
0.10599
0.552085
1.29724
0.153549
0.912658
0.181027
0.452236
0.923854
0.730711
0.200345
0.382078
0.276156
0.408736
1.22655
0.246855
1.11874
1.10638
0.289592
0.161099
1.07971
2.1922
0.903014
3.83551
1.53498
0.871026
0.338146
2.19106
1.37058
0.947744
0.264268
0.791727
1.48916
0.284612
0.159726
0.516793
1.70396
1.37223
2.05734
0.376658
1.71839
2.39251
2.94208
2.92918
1.60419
1.34972
1.16227
0.827126
1.54107
2.42726
0.261611
0.633321
0.382936
0.841381
1.20168
0.280616
0.219108
0.613283
0.335712
0.138421
1.20369
1.43347
1.15928
0.775183
0.172958
1.28319
0.369945
0.978812
1.78929
0.415764
1.12801
0.984422
1.24214
1.29814
0.87732
0.211293
0.136812
2.63985
0.335338
0.142967
0.20617
0.102854
1.09076
1.11566
1.90698
1.38546
1.262
1.20682
1.0879
1.77712
1.31456
0.918818
0.153851
0.109338
0.533669
0.172315
0.11637
0.22948
2.19742
1.96537
1.94752
2.50383
3.63534
0.69607
1.01715
1.5765
1.82042
0.920297
1.12592
1.00308
0.435685
1.45108
2.39654
1.77563
2.4775
0.762038
1.04736
0.673147
1.45383
1.4556
2.10789
3.01388
1.72708
1.74468
2.2057
2.35446
1.1774
2.53796
0.512185
0.170045
0.914768
0.589372
0.268782
1.24131
1.66145
0.892543
2.24859
0.286863
1.11661
2.77828
0.139172
1.60688
3.03666
2.48279
1.2142
0.892129
0.764792
2.74157
1.17759
2.27642
3.96732
0.954012
1.10991
0.281125
2.40864
2.94735
4.01636
1.60088
1.41777
1.26378
1.4384
1.91394
2.89515
3.02601
0.82666
0.755762
1.52472
2.22787
2.17455
2.58433
2.33802
2.75982
2.0863
3.0943
2.55953
1.44584
1.60303
2.09352
1.27666
2.17312
1.26916
2.26048
2.27799
2.13019
0.188323
0.901288
1.24559
1.62955
1.67022
4.27976
3.90181
0.698256
2.54807
1.88053
2.09932
1.02612
2.68336
1.17092
1.65709
1.1269
4.11962
0.858908
1.33695
0.67616
0.262355
1.75781
1.00754
2.97376
2.37637
0.756825
1.31063
0.520872
0.994272
1.65252
0.372332
1.31257
1.63099
1.13214
1.69169
1.28087
1.22386
1.58231
0.138261
0.641091
1.5176
2.44191
0.3953
1.7153
1.47823
0.829582
0.758051
0.870893
1.41508
1.08482
1.64711
2.47391
1.62851
1.1414
1.9065
2.07109
1.48526
2.46566
0.194942
1.69348
1.65012
0.237136
0.612386
0.660841
0.31045
0.254655
0.299116
1.2932
0.661679
1.99235
0.268255
1.67001
1.12966
0.213206
1.58185
0.177624
0.280441
2.46883
1.00023
0.479003
0.451835
1.09009
3.47799
0.871834
2.61369
1.63262
1.31901
1.52647
1.29005
3.32751
0.994787
0.265808
1.3657
0.627257
1.68738
1.39148
1.03925
2.55449
0.52984
0.220652
1.00854
0.924238
1.35646
1.80816
0.565106
0.478338
1.07898
2.3588
0.388461
2.52256
1.00985
0.632977
0.283519
0.169709
0.896774
0.633503
1.65697
1.25176
0.181397
1.42316
1.14432
0.954756
2.26104
0.769094
0.361463
1.5464
3.08032
2.97456
2.96871
1.73478
0.37411
0.302418
1.13587
3.01911
2.63787
1.96658
2.07641
0.293278
4.46153
0.799093
0.768987
0.920783
1.18842
1.043
3.14963
1.30089
0.972486
0.51804
3.6253
1.5034
1.31826
0.30385
1.50997
2.48668
2.15837
2.71912
2.90013
2.43816
2.32087
0.575076
0.54658
0.406488
0.233638
0.907079
1.89759
1.92217
1.81207
1.19527
0.470357
0.227976
1.32511
1.0086
0.264714
0.197873
0.17074
1.45488
0.291689
1.2326
3.57181
1.59142
1.0045
3.59016
3.44651
1.17852
1.80999
2.07888
3.6082
1.65126
0.303219
0.27948
1.31164
1.45282
0.569044
2.95489
3.10761
0.575306
2.04666
0.458296
0.216836
2.23099
1.27954
0.366177
0.212395
2.00783
0.678257
1.27098
2.04051
1.32729
0.202919
0.305164
0.219125
0.221771
1.93907
0.335779
0.354985
1.97756
0.423891
1.32759
0.479859
0.612776
1.41189
0.407359
1.89824
1.45066
0.34371
0.202603
0.32902
1.3025
0.320836
0.413827
0.731448
0.263669
1.40798
0.409253
0.808621
0.436037
1.12242
1.75804
0.333254
1.82647
0.659661
0.398447
1.68797
0.506538
0.650883
1.93032
0.162841
1.43784
0.30237
0.207971
2.22746
3.80955
1.90611
1.11933
2.00936
2.2142
3.57696
2.86351
0.705762
0.270078
0.335563
3.50108
2.11007
3.17198
1.90017
0.600148
1.96563
1.30824
2.40231
3.40503
2.52561
1.31537
2.46095
3.05324
3.49185
1.17284
2.69007
0.423198
2.77656
1.56616
1.5578
0.28613
2.97564
1.30002
2.54786
1.70964
1.77204
3.43208
2.30118
0.965195
0.309096
0.537923
0.795306
3.12407
0.460789
3.97785
0.827618
2.31444
1.1446
0.641254
1.80752
1.32173
3.38951
0.373028
1.94552
3.42372
2.2711
2.75798
0.786995
0.964944
1.70695
1.14908
2.13991
0.663739
2.90196
0.580012
1.64946
1.50348
0.923158
1.6812
0.690161
3.45992
1.53494
2.71153
0.309428
0.660046
2.63275
1.85255
3.20346
3.0439
2.15471
1.12025
0.537822
3.29457
3.35417
1.2534
1.0889
0.444461
1.44717
2.11862
3.96164
1.76966
3.71342
2.65357
3.95844
1.15786
1.52522
0.759179
2.77198
0.36292
3.58563
2.88046
1.7614
1.55852
3.68663
3.3275
2.48449
2.5395
1.34228
2.67562
0.314517
2.52455
1.6753
2.88833
0.783221
2.308
3.2368
3.12984
2.05853
1.93595
1.36614
0.937021
2.03088
1.27416
0.447995
0.441669
0.922717
4.68419
2.55875
1.35961
0.157904
1.62655
3.32299
0.774167
2.25079
0.683594
0.968231
2.10927
0.965423
1.50822
0.818989
0.708934
2.70689
0.880663
0.22609
1.25861
0.56031
0.893086
3.16178
2.13778
2.55004
2.92594
3.65376
2.33669
0.685866
0.734401
0.474326
3.54499
0.405401
2.5525
2.2808
1.59693
2.0352
3.61968
1.72827
1.4179
1.32579
3.66529
0.448467
2.51024
3.51117
1.39945
0.847161
3.52424
0.347485
1.21443
0.35498
3.84994
3.57885
0.339384
1.79078
0.944665
0.248892
4.03098
1.80641
0.252356
0.458625
3.32109
1.14304
1.84815
1.40034
1.57047
0.252985
0.484332
0.979102
1.8711
0.272166
1.86569
0.223687
1.65471
0.40743
0.510254
0.585883
1.98385
0.536308
0.581111
3.99745
0.356074
3.21772
0.451034
0.205086
1.27092
0.249314
3.7148
0.568534
0.509954
1.31088
0.383333
0.199879
1.2408
2.56238
0.467537
2.28973
3.63174
0.425605
0.221629
0.930937
3.12757
2.72491
1.22982
0.399403
0.204666
2.86223
0.987033
3.28163
0.296128
1.56403
3.68773
2.1523
1.00357
2.92872
2.87521
1.60985
1.31375
2.99263
4.02866
1.37666
1.94111
3.63637
1.99846
0.966991
1.18868
0.196291
2.35615
1.83335
2.54897
0.278121
3.47985
2.55126
1.20443
2.48038
0.243788
3.27505
3.57959
1.80549
3.56825
0.216123
0.216473
0.39564
0.521242
0.337896
1.31252
1.22784
1.98161
1.81061
0.641803
0.267008
2.09776
2.82772
3.14954
2.07557
0.444424
2.17517
2.28681
0.344798
1.5069
1.48001
4.06313
1.26486
1.90645
2.23736
2.19881
2.89612
1.26987
0.659145
0.144447
0.40595
2.37069
2.65835
1.30972
0.322711
1.52028
1.81291
1.35162
0.778882
2.09247
0.764602
3.31411
0.275351
1.67474
3.59976
2.95463
1.16915
1.93211
3.33568
2.52615
0.469978
1.24975
0.499776
3.17004
1.46199
0.43383
0.838954
0.477053
2.22702
3.47522
0.506624
0.860251
0.190408
0.237735
0.42179
2.44162
2.11661
1.24439
1.77801
1.8915
1.3129
1.67306
0.509664
2.23564
1.99756
0.880616
2.67597
1.86993
3.04436
0.80285
1.69266
0.217596
0.555137
2.29166
0.413047
0.535923
1.83017
1.74098
2.24423
0.919379
3.78651
0.512222
1.01457
0.75302
0.285095
0.641948
0.841614
1.18161
3.54585
3.30867
0.43771
2.90833
1.31275
0.536696
3.28176
1.07763
1.72297
2.74126
1.36767
2.06121
2.14388
1.55179
1.20978
1.53257
0.833424
1.64231
2.07575
3.71579
3.59657
0.320882
0.956791
0.659287
0.665622
2.08335
2.37453
1.27894
2.66197
1.87344
0.474134
2.15369
0.770812
3.99397
0.74206
3.38617
1.0601
1.09172
1.0216
1.10795
1.09042
1.15893
1.0652
1.53502
1.56354
1.66876
1.56125
1.50317
1.46765
1.49415
1.46322
1.76964
1.16755
1.31094
1.83997
1.83014
1.5402
1.69007
1.43098
1.41474
1.39708
0.984846
1.7989
0.223957
0.219221
2.33425
0.514612
0.536083
0.289344
0.241873
1.22737
3.49594
1.81081
3.6685
0.92993
0.503651
0.403913
1.75832
0.484934
2.29685
1.32028
2.11209
1.33267
1.13754
3.94319
2.49914
1.35647
0.273999
0.160259
0.290489
0.224717
0.270764
1.04702
1.59469
2.21254
3.01741
0.309087
0.225215
0.450155
0.543043
0.770752
0.647548
3.25676
0.309291
0.168167
1.28283
1.11494
0.97765
0.489483
2.09898
1.41049
1.72589
2.73141
1.81141
2.34134
0.602174
1.91989
2.91317
1.35889
3.91174
0.797668
1.27761
0.551897
1.80584
2.99919
0.168061
1.51396
1.27483
2.44221
0.248305
2.58195
2.55271
2.53808
1.22281
0.799516
1.51193
2.15227
0.740088
0.816682
0.324164
1.97572
2.821
3.70587
0.530635
1.31501
3.61651
1.0632
3.3778
1.57621
0.552063
0.180196
1.56414
1.40142
3.12038
4.77562
1.65603
2.49424
0.235836
0.575737
2.18178
1.52272
2.94791
0.410914
0.877922
0.338069
0.189394
0.17145
1.50009
0.254475
0.826955
2.57566
0.340514
0.19798
1.86587
0.34159
2.56063
1.17601
1.10499
3.33962
1.03225
1.42678
3.0826
1.97007
2.7751
1.16719
0.904963
2.0516
1.4616
0.165114
0.433373
2.91488
1.58456
0.555215
0.709701
2.20148
1.35355
0.756302
2.0609
0.259717
1.59919
0.611424
0.246753
0.150366
0.568385
0.470024
0.809865
0.301438
1.00996
3.70734
0.318727
0.154616
0.637158
2.15475
0.642328
0.219777
1.2552
3.21218
0.929015
0.635967
0.443244
0.280104
0.486827
0.589852
0.454399
2.9376
1.02769
0.378644
0.137735
0.0828993
1.79221
1.60332
0.268327
0.399171
0.283672
0.472318
0.271437
0.282008
0.289033
0.272372
0.229268
0.258318
1.27897
0.256947
0.271642
0.265092
0.260998
0.678537
0.718264
0.255908
0.274041
0.292632
0.293306
0.819025
3.2512
2.1038
1.25686
1.18083
2.43863
3.59538
1.33305
1.22625
0.937086
1.83315
0.424987
0.195087
0.352472
2.79096
1.5649
3.72947
2.13359
0.213002
3.28717
1.08939
1.47303
0.637897
1.99362
1.73168
2.97147
0.589863
2.33288
1.57121
2.00245
0.913121
1.28418
0.261129
0.581021
0.946416
1.48875
1.46408
1.38179
1.57986
1.6967
0.37081
1.49534
1.00182
1.31551
2.17005
2.81834
3.57809
3.68143
0.412715
0.190701
1.31924
1.58974
1.44484
1.02052
0.861628
0.507796
1.15951
3.67638
0.754006
0.822914
3.15673
0.510678
0.335551
0.776743
1.53934
1.26078
3.4788
0.55127
1.88076
1.24058
0.921602
2.31098
4.00772
1.01219
3.08386
2.65267
0.186988
0.427193
1.36315
1.99562
0.253776
0.160851
2.82737
1.54626
2.55132
3.01896
3.59902
4.05933
0.830763
1.24873
1.93449
1.71776
1.68898
3.34656
0.497077
0.773061
1.34175
1.8651
0.479373
3.20367
1.64712
0.573321
1.3793
1.23465
0.5418
0.747212
0.739091
1.47949
0.535302
0.896305
1.09293
1.02192
1.27962
4.96732
0.267331
0.453283
0.988652
0.224203
0.525045
1.3943
0.279062
0.157453
0.252931
1.51315
0.813213
1.97493
3.57894
3.4328
0.374372
1.4739
0.259317
2.53015
1.14878
0.193241
1.88115
1.29306
2.88981
2.57447
1.70868
1.68103
1.30017
0.35278
0.359126
2.92685
0.576187
0.212183
1.54574
0.316098
3.19042
0.584527
1.71989
0.547173
3.07087
1.76036
0.158595
3.46384
0.737671
0.262501
3.26429
2.40517
1.20864
1.56036
0.945072
3.44566
1.11823
2.46832
0.491047
1.01708
1.35261
2.48469
1.78811
3.76985
4.08647
1.23315
1.86312
1.8177
2.65576
0.250063
1.0312
1.44068
0.240789
3.59922
0.281079
1.60235
3.33794
0.610386
2.94316
1.48812
0.254545
1.21572
1.24917
0.384169
0.862491
0.552286
1.34918
0.872121
4.8759
3.65492
1.9183
1.33926
0.374789
0.363634
1.04229
1.07426
2.09884
0.845184
1.86177
2.02439
3.33748
1.97855
1.375
3.24364
0.257053
1.59652
2.9803
2.43409
0.615213
0.2961
0.49463
0.280956
0.157876
0.569541
1.24274
3.13985
0.312798
0.231524
1.29939
0.565111
1.61288
3.42613
2.63475
0.189322
1.78555
0.466285
0.259463
0.281829
0.34843
0.559226
4.5832
0.220135
3.36115
1.39697
0.933989
0.365892
0.240785
2.89318
0.273626
0.676758
1.41659
0.693169
2.76007
1.11144
2.14415
1.47257
1.21887
0.694832
0.892042
0.832478
0.952745
1.05229
2.62629
0.211389
1.53752
1.61695
1.1438
1.50899
1.37363
3.40962
0.833544
1.2935
0.567956
1.33931
3.09098
0.995809
0.36598
0.144572
0.254112
0.636355
2.34209
1.59596
1.6436
1.59856
1.34817
0.776511
3.23583
1.98894
1.8216
1.53329
0.515181
2.11218
3.43171
0.38845
1.05726
2.24765
0.702401
3.0912
1.01606
1.53342
2.82016
1.63229
2.43053
2.31242
1.81715
2.37908
0.276665
0.284103
0.587964
0.224184
1.23771
0.601352
1.83875
1.22015
1.74658
1.35612
2.9146
1.82944
2.84615
0.611511
3.37574
3.32972
0.535735
0.334555
3.14331
1.05416
0.581962
0.592112
1.55846
1.12683
2.77028
1.30185
0.891142
0.60578
0.293211
1.66656
1.85442
1.35234
0.870042
1.88942
1.2895
0.700593
1.54158
0.278992
0.209938
1.19998
1.26349
0.150411
0.229203
0.764663
0.292697
1.08602
1.64327
0.630367
0.349798
0.934204
2.07683
1.0527
0.992411
0.630733
1.18729
0.291808
0.269775
0.274435
0.163844
0.456211
0.108182
1.46435
0.195839
0.170393
1.56324
0.33307
0.989557
0.626896
0.781687
)
;

boundaryField
{
    frontAndBack
    {
        type            empty;
    }
    wallOuter
    {
        type            kqRWallFunction;
        value           nonuniform List<scalar> 
108
(
1.06816
1.37058
0.947744
0.177624
0.181397
0.356074
0.451034
0.205086
0.249314
0.383333
0.199879
0.467537
0.425605
0.221629
0.204666
0.196291
1.20443
0.521242
0.337896
0.322711
0.237735
1.24439
0.285095
0.536696
1.0601
1.09172
1.0216
1.10795
1.09042
1.15893
1.0652
1.53502
1.56354
1.66876
1.56125
1.50317
1.46765
1.49415
1.46322
1.76964
1.16755
1.31094
1.83997
1.83014
1.5402
1.69007
1.43098
1.41474
1.39708
0.984846
0.219221
0.503651
1.35647
0.224717
1.11494
1.27761
0.551897
1.31501
0.877922
0.19798
1.03225
1.16719
0.904963
0.611424
0.568385
0.301438
0.642328
0.486827
0.589852
1.02769
0.0828993
0.0828993
0.268327
0.283672
0.282008
0.289033
1.27897
0.256947
0.271642
0.265092
0.260998
0.678537
0.718264
0.255908
0.274041
0.292632
0.293306
0.819025
1.22625
0.937086
0.213002
0.637897
0.913121
1.28418
0.754006
0.822914
1.24058
0.921602
0.813213
0.240789
1.04229
0.845184
0.231524
0.466285
0.220135
0.144572
0.254112
1.34817
)
;
    }
    inlet
    {
        type            fixedValue;
        value           nonuniform 0();
    }
    outlet
    {
        type            zeroGradient;
    }
    wallInner
    {
        type            kqRWallFunction;
        value           nonuniform List<scalar> 
126
(
0.776627
1.39057
0.110691
0.159458
1.14712
1.24457
0.180554
0.10599
0.552085
1.29724
0.153549
0.912658
0.181027
0.452236
0.923854
0.730711
0.200345
0.382078
0.276156
0.408736
1.22655
0.246855
1.11874
0.516793
0.382936
0.841381
1.20168
0.280616
0.219108
0.613283
0.335712
0.138421
1.20369
1.43347
1.15928
0.775183
0.172958
1.28319
0.369945
1.12801
0.984422
0.20617
0.102854
1.20682
1.0879
0.153851
0.109338
0.533669
0.22948
1.4556
0.589372
0.281125
1.31257
1.63099
1.13214
0.138261
0.641091
1.7153
1.47823
0.829582
0.31045
0.299116
0.661679
1.99235
0.627257
1.68738
1.39148
0.37411
0.920783
1.30089
1.31826
1.32511
0.264714
1.27954
1.27098
2.04051
0.202919
0.219125
0.354985
0.202603
0.320836
0.263669
1.77204
1.94552
1.85255
2.13778
1.79078
1.94111
0.665622
2.37453
1.42678
1.11144
0.832478
1.88942
0.700593
1.54158
0.278992
0.209938
1.19998
0.150411
0.229203
0.764663
0.292697
1.08602
1.64327
0.630367
0.349798
0.934204
2.07683
1.0527
0.992411
0.630733
1.18729
0.291808
0.269775
0.274435
0.163844
0.456211
0.108182
1.46435
0.195839
0.170393
1.56324
0.33307
0.989557
0.626896
)
;
    }
    procBoundary1to0
    {
        type            processor;
        value           nonuniform List<scalar> 
29
(
0.157679
0.157679
0.151447
0.256642
1.71271
1.04194
1.99183
0.624982
1.41729
0.466786
0.645094
1.04194
0.151447
0.107831
1.2261
0.512462
1.71271
1.78147
0.256642
0.158478
0.313134
0.223947
1.45535
0.292256
0.292256
1.45535
0.243224
0.888855
0.243224
)
;
    }
    procBoundary1to2
    {
        type            processor;
        value           uniform 0.271746;
    }
    procBoundary1to3
    {
        type            processor;
        value           nonuniform List<scalar> 
48
(
3.51049
2.39503
2.86512
2.86512
1.51943
2.07467
2.07467
0.915112
3.34523
0.358596
0.279493
0.358596
0.32329
0.226879
0.246919
0.32329
0.239558
0.239558
0.236748
0.236748
0.156009
0.141039
0.239927
0.682317
0.682317
0.173955
0.175058
0.175058
0.436625
1.15624
0.422098
0.436625
0.915112
2.83141
0.160232
1.15624
1.7211
0.279493
3.60135
1.2303
0.185015
2.3378
2.83141
0.160232
0.257406
0.87269
1.40931
0.185015
)
;
    }
}


// ************************************************************************* //
