/*--------------------------------*- C++ -*----------------------------------*\
| =========                 |                                                 |
| \\      /  F ield         | OpenFOAM: The Open Source CFD Toolbox           |
|  \\    /   O peration     | Version:  v1912                                 |
|   \\  /    A nd           | Website:  www.openfoam.com                      |
|    \\/     M anipulation  |                                                 |
\*---------------------------------------------------------------------------*/
FoamFile
{
    version     2.0;
    format      ascii;
    class       volScalarField;
    location    "0.1";
    object      nut;
}
// * * * * * * * * * * * * * * * * * * * * * * * * * * * * * * * * * * * * * //

dimensions      [0 2 -1 0 0 0 0];


internalField   nonuniform List<scalar> 
5794
(
0.00133216
0.000749791
0.00273952
0.00108338
0.000928513
0.000749807
0.000592095
0.000578861
0.00120007
0.000860835
0.000641631
0.000988894
0.000746479
0.000954196
0.000798955
0.000868213
0.00359165
0.000812757
0.000613355
0.000676464
0.00177174
0.00115239
0.000825711
0.000853617
0.000663435
0.00232641
0.00335672
0.00130467
0.000812326
0.0010983
0.000797298
0.00127312
0.000754707
0.00109801
0.00111707
0.00106922
0.000782081
0.00083345
0.000682077
0.00204645
0.000855417
0.000902302
0.000904892
0.000713353
0.000751369
0.000629998
0.000925676
0.000664267
0.000842274
0.000709375
0.00034639
0.000600333
0.00127376
0.00118933
0.000169133
0.000804968
0.000845302
0.000734622
0.000963902
0.00283688
0.00155883
0.000563645
0.0008683
0.00171863
0.000861327
0.000834332
0.00171257
0.000636679
0.000852773
0.000569299
0.000830055
0.00162665
0.00254828
0.000768751
0.000797972
0.00112651
0.000216923
0.00218326
0.000726544
0.000187556
0.00128108
0.000771098
0.00081731
0.000753192
0.000830223
0.000326446
0.000465672
0.000293424
0.00127861
0.00102526
0.00106318
0.00102215
0.000690174
0.000779782
0.00075109
0.000995529
0.00084705
0.000704747
0.000942932
0.0017325
0.00161325
0.000937457
0.000972227
0.00107783
0.000717493
0.000881283
0.000542181
0.000490216
0.00148684
0.000803267
0.000648599
0.000662054
0.0016378
0.000833283
0.000768471
0.000679498
0.00109047
0.000738788
0.00140942
0.00101259
0.000776698
0.000353117
0.000571031
0.00138206
0.00104479
0.000885835
0.000630449
0.000845238
0.000759502
0.000631816
0.000783892
0.000683045
0.000853731
0.00210304
0.00085344
0.000940105
0.00338182
0.000642163
0.000887704
0.000952622
0.00150754
0.00104129
0.000948685
0.00117972
0.00105546
0.00480892
0.0007019
0.00334211
0.000852749
0.000766161
0.000819487
0.00108586
0.000875134
0.000564996
0.00429916
0.000882678
0.000519704
0.000473234
0.000483753
0.000779154
0.000738974
0.000520235
0.000501301
0.000518344
0.000580304
0.000453583
0.000441345
0.000419203
0.00052253
0.000435237
0.000537314
0.0010022
0.000528644
0.000497883
0.000519811
0.000519851
0.000505912
0.000589645
0.000649577
0.000706599
0.000425592
0.000632176
0.000378561
0.000374315
0.000397028
0.00253842
0.000880008
0.000442192
0.000568394
0.000699604
0.000548821
0.00095687
0.000515173
0.000500437
0.000375745
0.000409895
0.000411671
0.00049363
0.00067476
0.00119994
0.000422468
0.000537984
0.000449047
0.000418504
0.000902001
0.000473923
0.000449039
0.000830703
0.000967064
0.0014696
0.00146932
0.000858246
0.000873918
0.000926704
0.000896286
0.000956503
0.000942312
0.000779808
0.000776555
0.00148931
0.000857095
0.000993834
0.000885148
0.00106287
0.00352387
0.00157089
0.00137015
0.00106096
0.00050663
0.00105261
0.0010356
0.000838699
0.000832932
0.00133469
0.000949017
0.00182829
0.00141408
0.00139232
0.000551418
0.00123735
0.000881202
0.000931668
0.00141602
0.000720525
0.000914768
0.000728217
0.000830301
0.000723396
0.000334134
0.000306639
0.000393554
0.000870889
0.00443425
0.000705823
0.000815293
0.00129959
0.0011128
0.00192396
0.000735607
0.00112154
0.00354338
0.000843001
0.000863895
0.000742289
0.000417844
0.000488423
0.00092494
0.00106856
0.00114769
0.000686399
0.000919329
0.00065042
0.000925556
0.000795451
0.000875868
0.000838447
0.00121344
0.00117685
0.00107095
0.000919324
0.000540226
0.000805898
0.000807643
0.00074852
0.00119835
0.00108566
0.00138002
0.000954892
0.000854394
0.000798993
0.00114363
0.00100945
0.000986589
0.00118017
0.000742163
0.00175126
0.000799806
0.000663349
0.0008856
0.000830501
0.000519917
0.00107466
0.000826319
0.00171116
0.0010434
0.00140293
0.00106805
0.000856931
0.00060316
0.000917595
0.000564907
0.000878124
0.00137325
0.000833886
0.000781441
0.000935983
0.000588032
0.00116006
0.00137558
0.000971197
0.00103358
0.00133858
0.000778613
0.000887945
0.000936762
0.000971514
0.000929213
0.000613082
0.00050702
0.000579778
0.000496634
0.000976288
0.000456464
0.000508705
0.000970897
0.000660316
0.000558759
0.000425454
0.000536346
0.000425303
0.0005975
0.000532301
0.00120782
0.000506161
0.000601301
0.00036865
0.000362014
0.000511268
0.000529946
0.000773576
0.000613644
0.00135088
0.000405599
0.00075381
0.000399308
0.00169595
0.00053406
0.000493973
0.000511267
0.000475119
0.000776124
0.00103221
0.00285111
0.000767876
0.000783293
0.000599092
0.000463599
0.000385618
0.000716906
0.000363442
0.000951901
0.000551872
0.000750968
0.00102472
0.000799476
0.000963195
0.000764686
0.000717757
0.000812901
0.000797268
0.00124826
0.000929711
0.000747975
0.000912475
0.00107315
0.00112991
0.00079292
0.000912983
0.000870619
0.000468322
0.000431559
0.00072677
0.000568559
0.000780378
0.000566397
0.000483387
0.000515301
0.00173124
0.0012857
0.00080154
0.000840935
0.00066671
0.00213837
0.000404125
0.000540035
0.0012242
0.00111664
0.000966865
0.000632064
0.000713618
0.000771307
0.00106412
0.000849164
0.000656572
0.000388438
0.000761766
0.000345143
0.000994183
0.000789589
0.000740711
0.000885698
0.000668338
0.000692483
0.000995541
0.000529807
0.000558895
0.000598252
0.000833712
0.000709582
0.00132533
0.00118999
0.000777459
0.00116035
0.00236264
0.000717312
0.000921023
0.000553192
0.000437093
0.000685627
0.000919697
0.00105081
0.000804197
0.000478526
0.000505425
0.00091467
0.000761455
0.000773268
0.000842391
0.00121129
0.00230851
0.000588009
0.000660215
0.00244338
0.00119949
0.000904963
0.000628514
0.00097409
0.00147482
0.0010085
0.00105897
0.00106606
0.000625212
0.000841981
0.00086608
0.00193762
0.000649855
0.00188075
0.0013999
0.000915782
0.00114045
0.000204777
0.00119423
0.000829706
0.00089201
0.00107956
0.00100238
0.00235235
0.00112746
0.00105409
0.000611764
0.000916609
0.00106304
0.000633338
0.000679572
0.0006605
0.000799175
0.000860894
0.00071184
0.00188188
0.00127197
0.000652575
0.00091184
0.000810203
0.000761799
0.00111234
0.000898028
0.000784027
0.000918032
0.000653555
0.00127282
0.00105199
0.00205432
0.000723382
0.00103983
0.0015266
0.000566165
0.000916188
0.00270727
0.000908888
0.000825057
0.00112244
0.0010582
0.00112603
0.000705158
0.000837589
0.00089945
0.000669354
0.000707602
0.000801264
0.00211397
0.000937053
0.000726362
0.000992831
0.000760549
0.000757483
0.000759128
0.00119665
0.000896129
0.000620618
0.001089
0.00115665
0.000315981
0.00186275
0.000929903
0.000718881
0.000953758
0.000781929
0.00385752
0.000667262
0.0036805
0.00118902
0.00271865
0.000688683
0.000886453
0.000920602
0.000936439
0.000754403
0.00116896
0.000723389
0.000859836
0.001186
0.000852774
0.0005097
0.00126067
0.000770468
0.000821857
0.00110782
0.00108107
0.000591504
0.00134924
0.00409195
0.000645747
0.00104798
0.00114911
0.000910842
0.000766109
0.000973617
0.00250569
0.000599118
0.000815654
0.00218236
0.00123053
0.000475252
0.000562702
0.000800093
0.000849308
0.00116112
0.000995336
0.000694971
0.000838978
0.000823887
0.00138236
0.0012426
0.00173409
0.00128531
0.00262962
0.000835364
0.000886638
0.00140657
0.000874679
0.000821784
0.000801941
0.000832983
0.000886028
0.00123875
0.00131227
0.000727054
0.000830706
0.000728212
0.00148122
0.000707087
0.00246538
0.000962249
0.000892398
0.000779093
0.000850762
0.00209231
0.000586905
0.000200066
0.000838369
0.00168852
0.00156925
0.00112157
0.00152714
0.000535319
0.000611972
0.0013263
0.000353801
0.00101888
0.000799535
0.000334163
0.00100422
0.00084083
0.000699979
0.000445793
0.000764053
0.000985518
0.00089077
0.000760466
0.000720599
0.00146868
0.00076233
0.000336979
0.000957881
0.000837221
0.00067567
0.00229646
0.000807594
0.000525232
0.0013056
0.000887301
0.00107493
0.000800216
0.00147138
0.00356404
0.00100245
0.00103146
0.0010439
0.00102425
0.000681452
0.000550739
0.00114399
0.000946327
0.00061672
0.000545223
0.00160389
0.00227258
0.00109878
0.00122459
0.000896616
0.00103937
0.000542574
0.001062
0.00100627
0.000605403
0.000955826
0.000906043
0.00114861
0.00136288
0.000821067
0.00151458
0.00157271
0.00198558
0.000915722
0.000706777
0.000911442
0.000929845
0.000856269
0.00115878
0.00115818
0.000824032
0.000810499
0.00108274
0.000859868
0.000765572
0.00359292
0.00118748
0.000916358
0.00107936
0.000779841
0.00132999
0.000895325
0.00232642
0.000879334
0.00111275
0.000906107
0.000747572
0.000445599
0.000574986
0.000766981
0.000588234
0.000354671
0.00030721
0.00214105
0.000945619
0.00131417
0.000883864
0.000689839
0.000993612
0.000955536
0.0022341
0.00109232
0.00105463
0.00100466
0.000830408
0.000774244
0.000726179
0.00266661
0.000904779
0.00112564
0.000981037
0.00212863
0.00391941
0.000930457
0.00113437
0.00148274
0.00166236
0.000818132
0.00101051
0.00100331
0.000776211
0.00196355
0.000761262
0.00102031
0.00113454
0.00233672
0.00229327
0.000815871
0.00101716
0.000703653
0.00101159
0.00043045
0.000534483
0.000710152
0.000395638
0.00100424
0.00154614
0.00091606
0.00143127
0.000801736
0.000669757
0.00104284
0.00106079
0.000662918
0.000944754
0.000833225
0.000752424
0.000803289
0.000768431
0.00093696
0.000818265
0.00180582
0.000870369
0.000960496
0.000956416
0.00123517
0.00156368
0.000990953
0.00101989
0.00084704
0.0013281
0.000813476
0.00080461
0.000964955
0.000885785
0.00077148
0.000763275
0.00121096
0.00127128
0.000927399
0.000806757
0.00242559
0.000973725
0.0010411
0.000623418
0.000885305
0.00160314
0.000822094
0.000869054
0.0013939
0.000919557
0.00124879
0.000819267
0.00133741
0.000890052
0.00171193
0.000672932
0.00332021
0.00126264
0.00212695
0.000857919
0.000645103
0.00124664
0.00112634
0.000695559
0.00115039
0.000807374
0.000727765
0.00187962
0.000900318
0.000928973
0.00135131
0.00144545
0.00176197
0.00140739
0.000877536
0.00100476
0.000952546
0.001101
0.000594477
0.00103053
0.00101285
0.00307868
0.00219129
0.000720202
0.00076821
0.00113261
0.000903108
0.00102305
0.00145307
0.000906981
0.000935175
0.000768352
0.000918915
0.000789672
0.0009157
0.000912662
0.00304346
0.000527675
0.000480658
0.000423089
0.000695261
0.000895917
0.00118992
0.000883728
0.00074552
0.00159869
0.000724311
0.000838763
0.00186992
0.000946588
0.00092847
0.00106144
0.000881205
0.00113991
0.000982168
0.00209226
0.00208754
0.00083888
0.000690821
0.000743143
0.000961282
0.00151176
0.000694746
0.00117166
0.00118318
0.00252161
0.000881545
0.00100899
0.000903292
0.000949335
0.00077206
0.0011068
0.000934784
0.00277294
0.00111164
0.000913333
0.00210273
0.00136784
0.000753481
0.000400345
0.000989721
0.000610401
0.00109384
0.00084459
0.000921083
0.00129069
0.000963584
0.000972863
0.000798206
0.00106805
0.0026797
0.000944949
0.000947862
0.00160667
0.0014285
0.00090215
0.00142923
0.000758385
0.000820146
0.000848293
0.00103741
0.000756872
0.000952943
0.00109417
0.000482986
0.000788036
0.000855279
0.00183491
0.0015739
0.000835575
0.00083375
0.000735607
0.000853751
0.00239251
0.000865079
0.000620635
0.000780741
0.000865268
0.00235183
0.00092884
0.00212424
0.000860744
0.000482498
0.000544643
0.000637848
0.000509775
0.000553531
0.000373013
0.000708108
0.000661988
0.000767063
0.000462043
0.000353235
0.000682738
0.00138459
0.000891771
0.000680411
0.000882645
0.00065432
0.000968081
0.00135246
0.000622546
0.000984039
0.000803782
0.000840822
0.00124886
0.000818726
0.00297847
0.000782804
0.000781141
0.00216788
0.000644527
0.00121035
0.0015767
0.00150965
0.000833944
0.00110695
0.000885597
0.000950692
0.00108242
0.00093599
0.000874427
0.000308561
0.000326414
0.000858834
0.000753905
0.00110896
0.000915278
0.000819205
0.000696811
0.000783295
0.000787569
0.00086236
0.000774547
0.00105831
0.000851959
0.00315172
0.000831457
0.00068302
0.000659221
0.00100876
0.000875451
0.000305661
0.000747032
0.00282327
0.000512716
0.00247942
0.0008454
0.000820015
0.000833403
0.00121479
0.000970314
0.000829935
0.00262711
0.000776112
0.00132952
0.00125732
0.000843804
0.000825602
0.000884513
0.00126962
0.00211607
0.00177125
0.000694408
0.000637554
0.000768712
0.00135695
0.000859721
0.000838146
0.00099791
0.00099617
0.000940332
0.000537351
0.00062967
0.000291416
0.00118331
0.000524775
0.000564422
0.000359181
0.00362769
0.000503675
0.00114989
0.000656134
0.00126059
0.000744021
0.0013467
0.000797024
0.00110816
0.000788751
0.000777919
0.00073201
0.000386966
0.000781181
0.001448
0.000884411
0.00136519
0.000837969
0.000621159
0.000825981
0.00186349
0.000837605
0.000929536
0.000965505
0.0018325
0.000642289
0.00084998
0.000883543
0.000637375
0.00084024
0.000733725
0.000582865
0.00110764
0.00111586
0.000743517
0.000912745
0.00181862
0.00084443
0.0014823
0.00129838
0.000938573
0.000651318
0.00120019
0.000954175
0.000828458
0.000830125
0.000835434
0.000972465
0.000852549
0.000870432
0.000808164
0.00137132
0.00146409
0.000824826
0.000919902
0.00113956
0.00100485
0.000734392
0.00190545
0.00090874
0.000821026
0.000807584
0.00102732
0.000988482
0.000334843
0.000986927
0.00108692
0.000828461
0.00109338
0.00189317
0.00143777
0.000300048
0.00113542
0.000497186
0.000371109
0.00188516
0.000459533
0.00117129
0.001146
0.000301308
0.00112199
0.000299619
0.000298071
0.00106747
0.000596233
0.00094669
0.00132995
0.00091462
0.000818176
0.000623012
0.00100636
0.00104862
0.000939059
0.000785224
0.000787016
0.000846187
0.00092559
0.000928182
0.00106057
0.000737505
0.000799887
0.00174209
0.00113996
0.000793104
0.000913221
0.00144198
0.000803579
0.000825787
0.0007396
0.00121696
0.00108971
0.00137308
0.00215724
0.0013866
0.000770687
0.000743505
0.0010482
0.000879413
0.000887227
0.000852821
0.00663627
0.00110933
0.000826372
0.000929109
0.000845116
0.00090859
0.000761239
0.000706825
0.00115056
0.000618715
0.00143054
0.000674994
0.00135141
0.000924756
0.000915508
0.000893139
0.00218957
0.00100867
0.0008808
0.0020069
0.00191087
0.00111591
0.00106161
0.00065427
0.0014472
0.00116357
0.00172254
0.000535097
0.000495536
0.000720732
0.00125411
0.00083159
0.000775362
0.000873607
0.000703871
0.000950104
0.0021536
0.00119225
0.000921069
0.000742712
0.000767706
0.00146142
0.00103601
0.00101043
0.00109352
0.000429692
0.000576675
0.000746688
0.00206279
0.00106372
0.000812875
0.000380381
0.000267392
0.000842833
0.0024427
0.00085602
0.000806438
0.000682165
0.006117
0.000803664
0.000967634
0.00206443
0.000987656
0.00097813
0.00132042
0.000963968
0.000990902
0.000619415
0.000869604
0.000443444
0.00060528
0.000623912
0.00107439
0.000863424
0.000820107
0.000780121
0.000823403
0.000808932
0.00231049
0.000827842
0.000301936
0.000808553
0.00086548
0.00168526
0.00085859
0.000222115
0.00102298
0.00114373
0.000882556
0.000299215
0.00134465
0.000720704
0.00115376
0.00142154
0.00132934
0.000852997
0.000599251
0.000836615
0.00163388
0.000994144
0.000701653
0.000873561
0.000856213
0.00156309
0.000835329
0.000400377
0.000810303
0.000782818
0.00309402
0.000989712
0.00038764
0.00106355
0.000712025
0.000492893
0.000884143
0.00252628
0.00131676
0.000855294
0.000878015
0.00100148
0.000821463
0.00173546
0.0023697
0.000998855
0.000794716
0.000776242
0.00102118
0.00084393
0.000823605
0.00156041
0.000880278
0.00114721
0.000889741
0.00131754
0.00228339
0.00224632
0.00105937
0.00101585
0.00177627
0.00092476
0.0010774
0.00150393
0.000893567
0.00227724
0.0017105
0.000859537
0.00111466
0.00131419
0.00101618
0.000413297
0.000805273
0.00114528
0.000824173
0.00116329
0.00351652
0.000830554
0.001069
0.00108597
0.00100839
0.000493743
0.0011678
0.00102833
0.00126769
0.00285003
0.000863364
0.000851302
0.000763898
0.00139375
0.000930032
0.00167372
0.000866865
0.00161137
0.00102044
0.000859485
0.000560137
0.00183113
0.0018077
0.0010829
0.0020173
0.00255684
0.000784466
0.000201443
0.000810721
0.000906758
0.00179915
0.000757237
0.0013664
0.000853996
0.00166984
0.00090093
0.000389446
0.00056615
0.000560362
0.000467545
0.000589299
0.000875173
0.000897739
0.00103518
0.000804231
0.00117527
0.000789635
0.00104427
0.000873718
0.00104984
0.00116675
0.000790759
0.00112204
0.00122495
0.000818861
0.000825334
0.000681583
0.00114744
0.000663507
0.000821762
0.00108521
0.00141395
0.000774048
0.00085638
0.00145513
0.000854321
0.000783854
0.000934731
0.000918555
0.00110605
0.00101199
0.000335042
0.000440227
0.000756677
0.00479951
0.000826203
0.000656033
0.001278
0.000585079
0.00208726
0.00109325
0.000364575
0.000330491
0.000321923
0.00033102
0.000307516
0.000577579
0.000261421
0.000338331
0.000358246
0.000343528
0.000379699
0.000343258
0.000573045
0.000271221
0.00027547
0.000328392
0.000829632
0.000301331
0.000462739
0.000709492
0.000355082
0.000385801
0.000302641
0.000233728
0.000426551
0.000477447
0.000586827
0.000267298
0.000347926
0.000350695
0.000640572
0.000353086
0.000359621
0.000340796
0.000333787
0.000396777
0.000298995
0.000341982
0.000398611
0.000361999
0.000303487
0.000315936
0.000423609
0.000464471
0.0011878
0.000905459
0.0017697
0.000805592
0.00105101
0.00152724
0.000987457
0.00124843
0.00100699
0.000861115
0.000850689
0.00101293
0.00302623
0.000786483
0.00470717
0.00158565
0.00111526
0.00246446
0.000994571
0.000999708
0.000913588
0.00116815
0.000574392
0.000780303
0.000942695
0.0029058
0.00165668
0.00107046
0.000941029
0.000491418
0.00110438
0.00147949
0.00126087
0.0053839
0.000931054
0.000929251
0.000814083
0.00110485
0.00104459
0.00225725
0.00282145
0.000949847
0.000973983
0.000686712
0.00283333
0.000761324
0.000755887
0.000841645
0.000848841
0.00666809
0.000914749
0.000460948
0.000532253
0.000869244
0.00142339
0.000411802
0.00165343
0.000871893
0.000410536
0.000296145
0.000275533
0.000379771
0.000412182
0.00032786
0.000339983
0.000385574
0.00037588
0.00034964
0.000567723
0.000376596
0.000314782
0.000541793
0.000316541
0.000642764
0.000342749
0.000278971
0.000306469
0.000313213
0.000328633
0.000412002
0.00032189
0.00127889
0.00136179
0.000201012
0.00172006
0.0010257
0.000848691
0.00100259
0.000810702
0.00145024
0.00109041
0.000886567
0.00156452
0.00143861
0.00113659
0.000297273
0.001444
0.00168851
0.000943185
0.00207702
0.0010002
0.00146111
0.00079034
0.000993633
0.000938128
0.00108828
0.0009659
0.000867344
0.000856219
0.000962436
0.00068148
0.000791789
0.000759569
0.000990195
0.000930741
0.00165233
0.000970387
0.00115157
0.000467843
0.00157759
0.000963633
0.000870563
0.000955865
0.000797258
0.000699904
0.00101858
0.000913326
0.000951475
0.000986973
0.000834573
0.000762893
0.000571906
0.000907785
0.00166093
0.00189769
0.000205377
0.000768053
0.000983628
0.000798586
0.00157479
0.000545515
0.000875
0.000809536
0.00283984
0.00102331
0.000832526
0.000923053
0.000766107
0.000935766
0.00294441
0.000808895
0.000932007
0.000433498
0.000273523
0.000379417
0.00160822
0.00111618
0.000744954
0.000781686
0.00143288
0.000775325
0.00104316
0.00173661
0.0010543
0.00106533
0.00136257
0.000949216
0.00100265
0.000873913
0.00193845
0.00106386
0.000877949
0.000902497
0.000763588
0.000784883
0.00143125
0.000370308
0.000864435
0.000856583
0.00092591
0.00260409
0.000977032
0.00109825
0.000912564
0.00108966
0.000830953
0.00123179
0.000999592
0.000963408
0.000961196
0.000510501
0.000898036
0.00151092
0.00154794
0.00114182
0.0015419
0.00119236
0.000771406
0.000814168
0.00186194
0.00157253
0.00222837
0.000897846
0.00110944
0.00090078
0.00102357
0.000972772
0.000945649
0.00116977
0.000732188
0.000977436
0.00122288
0.0022645
0.00263474
0.00135363
0.000781812
0.000852963
0.000847265
0.00107583
0.00108484
0.000903679
0.000859547
0.0024896
0.000957723
0.000953287
0.000968184
0.000986925
0.000934058
0.000949713
0.000942281
0.000993779
0.000929614
0.000929336
0.000938273
0.000968974
0.000943479
0.000974388
0.000925723
0.000949909
0.000934972
0.00085172
0.000863373
0.000941701
0.00210797
0.000863004
0.000901833
0.000885975
0.000872287
0.000286185
0.000409854
0.0011139
0.0011961
0.00091323
0.00103845
0.00091956
0.00101381
0.00121153
0.00120613
0.00128297
0.00084535
0.000904469
0.000878205
0.00164295
0.00100395
0.00332496
0.000723932
0.00162224
0.00259946
0.000919608
0.00314893
0.00111682
0.00126798
0.0011056
0.00051952
0.000924485
0.00040272
0.00200497
0.000976272
0.000927418
0.000923645
0.000910167
0.00118924
0.00106756
0.000840286
0.000908916
0.00124738
0.00104228
0.00104634
0.00100386
0.00095912
0.00105349
0.000966923
0.00105865
0.000935453
0.0010669
0.00106118
0.00114401
0.000963037
0.00112235
0.00075767
0.00102534
0.0010121
0.00109656
0.00119365
0.00106338
0.00100675
0.00100108
0.00134639
0.000987401
0.003573
0.00104488
0.00100597
0.000874437
0.000755084
0.00138632
0.000937053
0.00101421
0.0010231
0.000915477
0.000870585
0.0034151
0.00133266
0.00108026
0.0012321
0.000770637
0.000963305
0.000912298
0.00098521
0.000984089
0.000924401
0.00330972
0.000962756
0.00103364
0.00105589
0.00145563
0.00321747
0.000997605
0.000845446
0.0014223
0.00243589
0.0010426
0.00110337
0.000989553
0.00086199
0.000868664
0.0013648
0.00126974
0.00215577
0.00210085
0.00309771
0.00142343
0.000945509
0.000638667
0.00223035
0.0010527
0.000879414
0.000739512
0.000917181
0.00221633
0.000865058
0.000830709
0.000586815
0.0024753
0.00176153
0.000897332
0.00219765
0.000917592
0.00120598
0.000587745
0.0032476
0.000882053
0.00103506
0.000945648
0.000966468
0.00111518
0.00103465
0.000886303
0.000626341
0.00231154
0.0024793
0.00125269
0.000998469
0.00106733
0.00083198
0.000520463
0.00201122
0.000843891
0.000865778
0.00157369
0.000868765
0.00135636
0.00102112
0.000926672
0.00191188
0.00111618
0.00103608
0.00314124
0.000954872
0.000897521
0.000894998
0.00117002
0.00194748
0.000918121
0.00217965
0.000948043
0.000903066
0.000921496
0.000883827
0.00207801
0.0010686
0.000348705
0.000911066
0.000996529
0.00119601
0.00089852
0.000931539
0.00191763
0.000940645
0.000411666
0.00151576
0.000991336
0.00101112
0.00090466
0.000901892
0.000923801
0.00102472
0.00113278
0.000788814
0.000949004
0.00133579
0.000411644
0.000968669
0.000843382
0.00104598
0.00085739
0.0021494
0.00087274
0.000300824
0.00137629
0.000864456
0.000871247
0.000811096
0.000806687
0.00120437
0.00120275
0.000982553
0.000834765
0.00136675
0.000887285
0.000861917
0.000975184
0.000469081
0.000961145
0.000920705
0.00100142
0.000353422
0.000810963
0.000302915
0.00226062
0.00228105
0.000874309
0.000849536
0.00106505
0.000848057
0.00168924
0.000854663
0.000854342
0.000828521
0.000951849
0.000861049
0.000873196
0.000892976
0.00125665
0.000864196
0.000861167
0.000878269
0.00124293
0.000885022
0.000836986
0.00117631
0.0010577
0.000869943
0.000570167
0.00229056
0.00129361
0.000814611
0.00100433
0.00127623
0.000386825
0.000855422
0.000855351
0.00131192
0.00102104
0.000902794
0.000929229
0.0011651
0.000853502
0.000860534
0.000917524
0.000456928
0.000417812
0.000837168
0.00166899
0.000873255
0.00220578
0.00210167
0.000880817
0.000983388
0.000842999
0.000912955
0.0011514
0.000833842
0.000838985
0.000834367
0.000901149
0.000965775
0.000898742
0.000892174
0.00147734
0.00094126
0.000987077
0.00106334
0.0010835
0.000911099
0.000400654
0.00105655
0.00110818
0.00106713
0.00127862
0.00156745
0.00106589
0.00078731
0.00097697
0.00147768
0.00145516
0.000999343
0.00092606
0.00113752
0.000886746
0.000880378
0.00160275
0.000910743
0.000951193
0.000836323
0.00189927
0.00175759
0.00148862
0.00107547
0.000922517
0.000623572
0.00154108
0.00085983
0.002079
0.000873753
0.0010605
0.00118274
0.000799273
0.00137024
0.00135011
0.000526883
0.000767848
0.000855551
0.000779435
0.000968642
0.00133022
0.000748306
0.00132445
0.000857439
0.000879742
0.00155792
0.000953283
0.00107473
0.00125317
0.00110249
0.00108385
0.000527154
0.000448166
0.00048819
0.0010181
0.00118666
0.000891004
0.000876997
0.000837349
0.000737462
0.000992369
0.000439607
0.00131192
0.0013318
0.00120287
0.000969918
0.00198162
0.00122415
0.00100813
0.000573297
0.000858487
0.00210123
0.000888667
0.000951076
0.00108528
0.0012991
0.00148752
0.000787955
0.00282921
0.00131869
0.000657538
0.000765522
0.000910387
0.00085902
0.00039529
0.000837164
0.00106478
0.000907787
0.00106571
0.000893625
0.00107473
0.00119775
0.00288899
0.000677615
0.000949318
0.00107872
0.000935616
0.000920656
0.000970083
0.000900689
0.000934188
0.00120273
0.00104208
0.000897708
0.00134766
0.000959022
0.000928565
0.000908228
0.00090864
0.00117978
0.00201044
0.00232826
0.0025136
0.00318078
0.00096274
0.0011672
0.000933235
0.000898917
0.000921029
0.000945228
0.000907401
0.00175331
0.000871255
0.00103405
0.000942655
0.000911578
0.00115653
0.00114284
0.00132048
0.00060569
0.000592032
0.000547827
0.000489725
0.00313484
0.000741861
0.000998871
0.00278952
0.000791468
0.00074702
0.00154173
0.0012609
0.00108686
0.00117104
0.000847881
0.00166745
0.00133108
0.00111525
0.00100326
0.00112294
0.00143568
0.00147247
0.000361791
0.000864692
0.00320665
0.00328267
0.000975962
0.00311095
0.000861678
0.000843675
0.000921631
0.000889722
0.00155093
0.00130724
0.000918152
0.00056081
0.00099423
0.000944969
0.00227602
0.00105911
0.000581789
0.00104322
0.00105559
0.00117618
0.000923177
0.000974944
0.00118045
0.00134247
0.00318201
0.00122735
0.00140735
0.00250347
0.000835527
0.00142378
0.000991208
0.000715899
0.00314058
0.0012098
0.00316403
0.00122251
0.000986316
0.00122908
0.000901917
0.00141263
0.00149081
0.00186991
0.00106926
0.000791621
0.000896813
0.00256718
0.0020413
0.00112592
0.00098358
0.000926885
0.000487815
0.00143525
0.00139076
0.0023101
0.00124093
0.00138086
0.00161012
0.00095034
0.000881575
0.00270511
0.000790785
0.000310661
0.000318386
0.00125199
0.000895344
0.00129874
0.00224194
0.0012346
0.00141265
0.00079318
0.000854613
0.000898543
0.000838871
0.0011227
0.00094023
0.0012085
0.00136102
0.000916127
0.000896245
0.0012701
0.000558181
0.00124361
0.00294665
0.000729892
0.00124817
0.00189784
0.000700544
0.00096557
0.0010487
0.000908577
0.00134982
0.000576243
0.00111799
0.00137422
0.0010449
0.00108543
0.000977394
0.000947569
0.00143029
0.00129417
0.000409952
0.00159509
0.00190814
0.0013431
0.000807796
0.00118687
0.00268737
0.00104025
0.00174115
0.000754039
0.002786
0.00130927
0.00145478
0.00071212
0.000940912
0.000922841
0.000907015
0.00104454
0.00124919
0.00097699
0.0014893
0.0012355
0.00107739
0.000737829
0.00127122
0.00123731
0.00112896
0.00201619
0.00296352
0.000915719
0.000849743
0.000842525
0.000551923
0.00168551
0.00145301
0.00162581
0.00338068
0.000911786
0.00140415
0.00126771
0.000973625
0.000952092
0.000646189
0.00112097
0.000803567
0.000713367
0.00210598
0.000984683
0.000933855
0.000947508
0.000906119
0.000972657
0.000996808
0.00208395
0.00104014
0.000882431
0.00123202
0.00117627
0.00197474
0.000984
0.00462022
0.000700584
0.00107677
0.000652301
0.00111456
0.000672566
0.000830922
0.00202308
0.00251287
0.000918877
0.00151692
0.000684273
0.000436581
0.00144018
0.000856286
0.00161444
0.000758586
0.000816416
0.000939635
0.0016396
0.000891616
0.00146708
0.00127587
0.00112314
0.00108397
0.00145463
0.000487731
0.00116576
0.0011083
0.000909614
0.00119925
0.000830975
0.00104077
0.00164093
0.0012619
0.000888705
0.00197796
0.000805957
0.00110016
0.00200855
0.000879863
0.000892924
0.00298737
0.000628748
0.000861172
0.00183309
0.000982914
0.000930796
0.00089275
0.000968306
0.000876438
0.000791372
0.000360438
0.000929784
0.00130927
0.000795552
0.000802461
0.00237923
0.00104543
0.00098394
0.00102188
0.00085206
0.000903081
0.00233252
0.000978411
0.0010951
0.00219363
0.00265378
0.0013125
0.0025029
0.000533695
0.000884939
0.000927969
0.000929704
0.000526302
0.000738366
0.000923365
0.00102169
0.00101129
0.00105064
0.000813537
0.000861129
0.000875647
0.000978716
0.00096801
0.000674038
0.000797935
0.000901541
0.00123515
0.000848169
0.000730985
0.000729225
0.00281712
0.00100806
0.000919883
0.00153548
0.00126538
0.000898206
0.00091549
0.000788961
0.000964972
0.00106549
0.00108061
0.00281928
0.00069927
0.000653919
0.000801622
0.000793853
0.000517844
0.000423435
0.00142484
0.00144888
0.00152769
0.00260783
0.00266015
0.00153582
0.000925153
0.00117249
0.000959485
0.00100962
0.000883923
0.00147229
0.00107706
0.00101529
0.000942612
0.000366638
0.00132133
0.000974823
0.000915143
0.000909076
0.000967103
0.00230252
0.000935423
0.000928051
0.00121092
0.00207815
0.0009097
0.00151082
0.000477402
0.00104931
0.00134268
0.000925884
0.00103194
0.00103903
0.000946678
0.000902933
0.00145101
0.000932788
0.000914115
0.00160204
0.00104249
0.00140029
0.00150719
0.000939339
0.00157074
0.00093753
0.00102564
0.00097624
0.00089907
0.00183505
0.000847379
0.000897422
0.00108738
0.000894107
0.00197639
0.000921133
0.000900105
0.00158801
0.000858953
0.000835608
0.000918796
0.00143065
0.000915781
0.000907385
0.00186996
0.000867152
0.0012547
0.00217529
0.000632752
0.000926974
0.00124397
0.0012791
0.000883845
0.00119847
0.0010281
0.000707806
0.000820599
0.00139322
0.00235801
0.000710458
0.00122372
0.000906104
0.000824262
0.000511964
0.00181794
0.00139428
0.00134758
0.00108467
0.000866339
0.000897519
0.000753943
0.00117352
0.000548213
0.00278849
0.00129232
0.000918193
0.000915804
0.00146442
0.00103688
0.000853517
0.00094878
0.000862823
0.00158268
0.00296603
0.00118173
0.000855947
0.00106316
0.00159505
0.000493625
0.000954645
0.000769709
0.00100126
0.000793547
0.00137782
0.00103224
0.000903968
0.00090344
0.00155336
0.00087359
0.000859691
0.000918994
0.00100767
0.000831488
0.00085876
0.000946823
0.00180965
0.00080294
0.000874833
0.00109311
0.000915165
0.000744037
0.000875898
0.00152676
0.000964143
0.00102607
0.000483665
0.000648157
0.000939311
0.00143789
0.000910761
0.00103659
0.000860839
0.0021514
0.000849749
0.000924018
0.000803812
0.00206257
0.00140847
0.00139361
0.000972177
0.00143487
0.000993115
0.000911698
0.000687443
0.00086079
0.000926154
0.000530212
0.000884278
0.00117359
0.000536032
0.00111394
0.000787592
0.000861622
0.00114537
0.00168078
0.00147058
0.00120449
0.00145098
0.000986964
0.00102442