/*--------------------------------*- C++ -*----------------------------------*\
| =========                 |                                                 |
| \\      /  F ield         | OpenFOAM: The Open Source CFD Toolbox           |
|  \\    /   O peration     | Version:  v1912                                 |
|   \\  /    A nd           | Website:  www.openfoam.com                      |
|    \\/     M anipulation  |                                                 |
\*---------------------------------------------------------------------------*/
FoamFile
{
    version     2.0;
    format      ascii;
    class       volScalarField;
    location    "0.74";
    object      epsilon;
}
// * * * * * * * * * * * * * * * * * * * * * * * * * * * * * * * * * * * * * //

dimensions      [0 2 -3 0 0 0 0];


internalField   nonuniform List<scalar> 
1466
(
2.68436
37.604
6.69873
99.7955
5.07492
21.2886
2.84165
37.191
9.38481
48.7896
61.9102
44.6827
5.83193
4.85858
25.7743
86.2914
20.9702
97.6769
107.124
67.0134
113.688
70.8441
79.9816
54.6099
7.38139
8.44678
45.7795
88.1748
4.92859
52.0817
75.386
10.7312
6.7354
88.6906
124.725
47.318
88.2448
24.9746
84.0096
3.52571
3.40422
64.2353
81.5344
4.0119
3.31034
9.40234
77.8609
4.43909
48.6557
4.67094
16.0764
48.1011
27.7033
4.34368
8.6447
6.83299
4.85563
65.1104
6.36177
57.9919
17.7765
2.65902
2.89446
29.3543
83.2883
31.0534
156.842
54.3871
34.4691
7.85174
53.4383
143.536
82.122
6.98235
13.5802
80.0508
2.58142
2.87419
29.3282
72.38
60.2473
81.2022
7.26534
79.7214
100.072
149.726
80.168
75.8775
67.5747
43.6419
11.4153
48.4746
137.741
4.24311
16.6171
7.1766
34.8655
71.3909
8.65774
5.6111
22.0947
10.7575
3.89019
76.5458
94.5641
53.4317
36.2183
4.88009
82.8609
3.18524
14.0034
98.862
3.05102
70.9461
58.0926
19.865
52.853
43.0839
2.76292
2.72984
94.5106
2.21678
3.28599
5.02771
3.82946
62.0406
44.7715
77.4483
50.4553
32.8889
77.4646
56.6979
78.8012
53.0992
13.3534
3.79221
4.02926
12.752
2.83261
3.01809
5.37368
96.7247
70.1712
73.0275
79.7037
170.235
10.7676
17.5631
50.7606
96.1853
13.2346
33.2857
39.7033
8.39823
39.3923
68.0731
76.9931
77.5222
11.4743
48.6667
10.1698
59.2288
130.183
82.7455
100.145
93.1701
60.1359
86.556
95.0616
42.013
107.377
8.564
3.81017
35.893
29.4146
7.57635
44.0406
62.0647
12.1068
69.8593
8.88596
27.514
135.202
3.57702
78.2288
152.745
103.586
46.8348
36.3007
43.9701
119.638
22.7508
124.915
177.906
44.7201
16.5731
7.66765
162.906
106.765
192.865
80.9161
41.447
48.2675
31.7204
40.7517
88.4863
131.392
29.1974
11.4611
61.9372
93.9766
87.3028
126.648
97.9339
118.728
79.9002
152.368
101.568
53.519
55.4989
82.622
21.2736
83.6948
20.3821
88.4774
78.9957
59.6473
4.44525
12.3289
20.3331
39.9217
83.2081
191.856
155.493
14.2641
68.4544
65.6109
80.019
21.0665
116.133
49.993
71.2051
40.4898
205.961
17.3197
54.2999
10.2736
6.9823
72.055
35.7507
138.743
91.0548
26.3022
61.221
8.02888
15.7833
76.4913
12.3306
116.005
125.651
89.3085
77.2247
52.7538
20.3828
68.0672
3.94072
39.3637
44.2039
101.252
12.0705
158.469
138.262
55.1437
12.2452
12.4119
24.5353
16.1418
62.25
103.463
56.2258
18.798
74.0286
82.9898
65.443
76.4643
2.7351
55.6536
51.7447
14.3084
20.7519
23.7405
2.34717
7.46274
21.6634
48.7704
37.6634
224.923
3.89626
57.5491
17.7366
5.02281
33.913
5.37866
8.3465
80.2189
21.655
8.57251
6.52309
40.5206
119.003
32.2554
106.565
57.8173
35.0727
50.8779
44.8794
116.793
34.2436
7.09753
28.6074
35.6402
170.366
115.472
15.9291
81.6147
17.5323
3.16046
35.5436
13.5342
30.0201
73.0907
18.8829
8.7652
38.0266
99.016
16.6339
109.438
19.3963
13.9249
2.95614
4.47502
32.2997
14.8847
73.4235
43.978
6.21462
63.3086
44.5637
40.2286
98.4212
32.6076
13.4783
66.2398
125.238
88.6313
118.896
81.9118
20.8394
8.26645
43.7587
96.178
104.225
74.562
42.5776
11.682
190.118
28.6354
27.5754
72.459
41.7338
37.0976
123.409
114.045
32.9499
11.4565
92.5243
55.3338
117.305
3.00927
61.1062
46.7766
44.1328
55.4535
62.9685
55.8865
50.5428
11.4826
9.34546
4.88421
4.784
29.0998
45.8494
32.7843
45.518
14.678
7.77282
3.6451
115.286
13.5046
12.521
2.21343
2.15999
72.0703
2.69518
50.1092
110.619
87.6198
30.0172
137.875
120.425
25.8006
100.64
126.607
118.801
75.9342
3.57259
3.16399
52.3236
33.4943
4.94534
86.758
89.2769
5.05026
133.223
3.99481
2.94289
59.8731
107.614
3.51374
3.05534
55.2485
9.29117
100.914
227.689
31.7801
8.85117
7.32048
9.05635
5.69228
49.1678
5.54131
38.8609
54.7368
15.4347
27.2629
2.79763
26.2922
32.8975
2.3092
62.6242
32.8666
2.10501
31.5276
11.2188
35.101
37.3148
6.71639
31.5973
34.4559
28.9218
5.06825
27.6374
8.98673
36.9004
54.7668
2.22266
45.2035
25.4466
21.3095
40.6865
23.5228
19.4241
53.3713
3.23951
27.8938
2.43334
7.23876
60.7968
136.032
69.1884
38.2519
90.9004
90.6996
123.057
98.3589
24.2214
3.726
9.44672
137.483
80.3098
111.019
85.6637
15.3766
49.3144
32.8754
59.3209
85.6435
59.9457
44.2313
47.9167
69.8206
85.1685
57.6868
87.365
15.6525
69.6074
70.6534
33.1037
4.28079
73.7959
26.0928
83.0988
35.0425
177.896
86.5254
45.9836
29.8835
10.0575
20.2029
27.7411
73.6268
20.8022
146.519
29.1079
69.3722
33.0567
24.8279
70.8221
36.6916
111.081
18.2163
206.972
128.779
56.9085
68.2528
27.2187
36.1474
79.7902
32.8432
103.628
22.689
94.3033
26.0804
28.8455
40.3086
32.6062
43.802
25.0158
131.831
30.0985
103.742
5.91169
15.3938
64.1634
189.483
79.1058
75.2841
36.6363
61.7665
18.2933
102.649
108.175
22.642
41.0742
15.5586
21.6815
53.3652
142.251
83.1707
97.0587
85.4769
139.198
26.8317
52.3969
24.3646
111.959
13.2365
90.9927
71.6225
80.9675
52.6586
96.1382
83.4691
60.9653
46.8014
39.5478
99.4491
8.95181
61.371
24.2239
77.7428
27.6479
61.7465
80.1406
136.922
77.095
71.5918
59.4224
35.686
73.5093
44.5964
14.7116
15.8523
31.7543
210.119
70.7343
27.6155
2.90832
39.7435
77.1744
19.3884
129.645
23.7798
38.6993
112.31
33.7286
53.7575
29.2302
25.6612
104.724
30.9758
3.97978
23.6833
20.7121
39.6221
76.6653
230.215
69.5127
85.4204
93.7891
85.6438
23.7808
26.455
17.2185
89.3132
12.3644
99.6348
84.3382
48.5809
96.9634
137.564
84.318
61.4986
22.0363
97.4913
14.9188
70.7125
105.704
62.2039
30.3177
88.4728
11.3254
34.7376
4.55622
134.573
92.1613
8.59611
172.691
14.084
6.18618
152.759
93.1998
6.43223
14.8291
115.387
30.6043
111.025
36.7894
58.2185
6.5322
8.49506
17.3544
73.4163
8.02148
54.4675
5.42808
36.1585
5.56182
5.5471
19.7699
92.79
8.16136
9.45535
154.525
18.6427
126.883
26.5591
8.33321
51.3836
11.8701
130.452
19.1752
16.5749
65.3664
20.0156
7.74662
54.3526
93.7544
28.7071
57.7097
107.17
23.3663
9.72929
13.7564
68.9956
56.1675
28.054
7.00895
7.80109
58.6259
20.3183
134.467
2.43128
71.4777
138.479
97.3767
52.0082
70.4678
86.8296
58.4179
68.8752
111.296
157.173
54.5499
200.291
99.7581
95.9364
29.0168
18.9827
7.01991
80.8666
110.254
77.8412
3.70724
136.82
78.1081
120.045
91.8151
2.54024
124.695
90.9172
57.0779
89.5399
3.65272
3.24112
3.90848
33.7211
18.2551
24.12
49.6859
93.6301
78.3467
9.36742
5.13507
123.072
117.884
164.314
96.027
14.4953
105.511
94.1779
7.68988
27.1313
45.543
161.545
47.3493
79.9641
123.41
73.9466
142.661
26.6625
11.6888
2.33144
2.47022
63.0077
116.898
41.8187
16.8225
35.385
121.251
33.6844
9.17568
91.0657
47.1802
105.605
4.0046
39.7763
91.7349
68.3016
40.3892
36.6487
113.705
103.498
7.88605
32.6766
16.6401
117.156
59.5319
7.72404
18.0252
6.66689
70.0508
93.2647
8.64047
41.3286
3.06218
11.4643
14.1651
66.8273
94.8359
124.42
62.2435
75.1322
47.0217
32.2872
8.4072
91.3155
86.178
12.4736
99.583
104.113
80.0676
22.8623
62.2389
2.85233
4.37337
93.3707
13.0818
18.328
73.6109
72.8423
94.0592
16.3251
134.876
7.20615
27.7068
15.105
14.4003
9.76455
12.5379
19.0913
102.336
99.4406
3.49881
97.9626
86.1913
35.1413
87.468
38.1514
70.1261
108.482
61.8087
106.992
49.3589
20.5732
24.9493
69.2798
22.2163
67.5952
104.359
147.023
93.4002
10.3067
21.5524
8.28344
50.447
115.92
270.142
31.5817
64.0528
27.7218
7.8586
61.031
11.5178
145.685
23.7567
100.69
91.5864
102.613
85.6001
126.087
116.475
122.409
123.335
167.685
162.284
181.002
172.112
169.593
170.646
168.911
149.082
204.505
131.27
148.336
228.295
241.122
151.987
215.251
169.909
165.163
156.394
82.1408
96.9778
6.16482
7.63823
67.2524
19.0739
11.8147
10.9801
5.47443
25.1011
119.565
73.6753
100.988
20.6185
32.3501
12.4273
49.3708
17.1736
61.9042
25.4882
127.664
34.6578
48.9032
136.503
83.395
146.442
2.58676
3.17628
8.30979
9.18769
7.78895
37.3997
53.1734
60.226
85.0116
5.27201
3.04841
4.14212
8.89648
13.5031
23.9996
94.6345
2.86341
2.77721
31.1955
95.9184
42.1316
16.0037
50.1926
48.2067
68.9466
87.4368
100.197
80.9211
7.77891
59.4511
107.908
49.4143
135.476
34.5033
143.473
36.8591
74.0241
128.201
2.66347
54.4324
29.0392
69.8691
3.1563
100.824
77.9779
100.321
28.4928
30.2587
27.932
83.7382
21.821
11.9015
2.17858
78.8477
129.255
96.7864
20.8469
144.293
104.309
27.6948
133.744
65.0131
9.77096
3.93808
35.0699
59.9089
126.572
212.875
63.503
72.9738
4.17432
13.638
36.7498
63.9683
93.8656
13.3532
61.9668
3.22187
2.82414
3.23513
37.0496
7.90387
45.3285
81.1075
14.3417
8.43806
141.773
11.0696
89.7264
20.1946
58.0963
120.904
101.778
148.306
89.9127
108.429
90.0586
97.7456
64.8715
84.8132
57.6478
2.38518
2.99241
125.903
32.1417
10.2773
31.3596
72.6773
34.5331
10.6432
78.6975
7.59327
34.6049
41.2494
3.44565
3.38859
39.9204
10.7732
20.4574
12.3287
37.3292
129.515
2.29508
4.58244
9.63947
89.4722
40.4845
9.46613
27.506
115.198
14.0092
24.5832
22.1795
7.71355
30.5841
42.3831
5.95377
96.0517
83.3534
2.09654
4.71958
2.30032
71.2168
27.997
10.5307
12.8624
11.9175
4.31298
7.12386
11.9562
12.3719
3.15697
6.49413
8.26914
137.584
11.6501
12.1061
11.76
12.112
42.2866
46.2546
10.5994
10.9232
12.1043
12.4778
66.6749
107.257
66.5426
28.711
19.7846
103.148
116.429
32.274
110.923
72.5653
27.2424
3.47829
2.74827
4.55565
120.512
63.7347
139.414
34.2441
8.30163
135.431
45.0206
49.2989
50.3504
121.6
97.692
127.807
18.1107
88.1501
30.5939
110.158
82.435
138.88
7.09337
13.7859
14.2028
64.0034
46.1155
64.4065
73.7846
56.5812
2.57082
33.162
13.553
39.7479
94.6225
79.7539
130.406
100.287
7.93883
3.96732
30.0869
51.7758
50.7662
23.0387
23.0172
6.66258
44.1088
95.4614
49.5984
58.5876
90.0737
8.06239
5.63935
21.9816
67.0506
37.6628
103.556
22.6267
90.1943
127.076
80.2311
90.207
144.965
37.9081
109.204
102.296
2.65728
3.27699
16.636
46.8895
4.54803
4.27491
87.7872
67.6522
89.1047
119.566
125.574
148.821
38.6185
29.2763
78.4191
77.7225
108.629
98.8951
6.1805
17.9387
58.627
74.965
10.342
109.04
32.8102
3.88843
54.4427
47.7715
20.8312
17.9112
9.441
56.3645
8.32478
18.847
41.8734
37.723
22.8665
245.34
6.78805
19.5743
23.1353
18.7921
6.91517
40.4551
2.48404
3.44964
6.38696
54.9564
66.6384
124.31
97.1768
85.154
6.1931
69.8138
6.9431
91.8468
61.2355
4.86361
49.596
49.5754
91.8535
91.6157
66.0123
69.3915
99.0701
4.89942
10.1803
118.083
16.4622
4.99414
33.0354
5.52414
103.502
15.3622
126.583
8.82237
126.004
49.2052
3.53506
116.256
40.8902
7.29235
83.854
76.8189
37.3065
76.9454
41.3875
119.675
48.8179
78.4926
10.2507
44.9739
29.996
114.924
38.199
130.871
159.32
71.8028
151.678
176.201
165.286
7.29569
30.8109
56.1693
10.2615
111.75
15.7534
69.5271
93.7787
6.26467
118.913
51.0841
6.38821
35.4012
32.0261
5.90875
39.2607
13.6911
31.1685
9.37381
216.146
106.592
80.5296
91.6081
14.0921
6.48775
110.933
70.8516
68.6543
66.0867
69.356
74.1164
150.459
59.039
43.9813
120.363
6.63756
57.2237
118.848
94.6296
17.2183
4.85097
11.3848
2.52866
2.75051
4.25193
21.8224
72.8742
8.99206
10.9046
57.8882
5.2527
77.3104
99.1134
96.2705
4.32357
90.4546
34.8486
6.88149
3.67788
4.34476
8.07954
209.569
9.83847
86.6764
30.8712
10.6018
5.24525
2.52465
111.403
6.52021
10.15
73.9398
10.7249
111.231
91.5783
120.589
60.2124
42.9138
34.7362
24.8081
57.2602
14.525
33.3276
91.337
3.02556
60.3346
78.4222
29.4837
66.7405
52.4222
111.78
22.1753
50.2379
10.1591
52.5746
118.109
46.5443
7.30345
7.01134
13.3383
13.3641
101.132
79.2449
38.3366
55.7539
136.252
26.2258
114.814
54.2437
66.7551
58.5683
5.17926
72.0322
105.925
5.8346
33.2044
100.596
17.4789
133.071
32.4339
75.3971
123.239
72.5517
109.323
104.832
95.8364
98.0969
7.08536
4.11342
9.41066
5.11571
26.5332
9.37805
76.6156
32.9945
74.9072
52.3128
108.352
74.513
121.29
9.68825
108.867
106.59
3.3728
6.54503
129.868
52.3732
6.9777
8.70129
71.6606
35.8458
171.484
31.521
22.1532
9.31382
10.4619
67.8775
75.3489
68.0648
12.3197
192.477
76.9612
48.5668
150.606
8.02178
9.35979
93.2347
77.4394
11.6224
8.52229
38.7034
12.6018
83.5691
134.89
30.009
13.6644
48.3078
166.042
69.8665
64.4422
35.2065
76.9552
10.5458
7.87048
7.10243
3.65853
7.43299
3.53647
80.4244
5.41532
4.17067
124.37
9.10436
70.4475
29.7076
23.5004
)
;

boundaryField
{
    frontAndBack
    {
        type            empty;
    }
    wallOuter
    {
        lowReCorrection 0;
        type            epsilonWallFunction;
        value           nonuniform List<scalar> 
108
(
97.6769
143.536
82.122
5.37866
6.21462
18.6427
26.5591
8.33321
11.8701
20.0156
7.74662
28.7071
23.3663
9.72929
7.80109
7.01991
120.045
33.7211
18.2551
16.8225
11.4643
124.42
14.4003
35.1413
91.5864
102.613
85.6001
126.087
116.475
122.409
123.335
167.685
162.284
181.002
172.112
169.593
170.646
168.911
149.082
204.505
131.27
148.336
228.295
241.122
151.987
215.251
169.909
165.163
156.394
82.1408
7.63823
32.3501
146.442
9.18769
95.9184
143.473
36.8591
144.293
61.9668
8.43806
101.778
97.7456
64.8715
41.2494
39.9204
12.3287
40.4845
30.5841
42.3831
83.3534
2.30032
2.30032
10.5307
11.9175
11.9562
12.3719
137.584
11.6501
12.1061
11.76
12.112
42.2866
46.2546
10.5994
10.9232
12.1043
12.4778
66.6749
110.923
72.5653
8.30163
50.3504
82.435
138.88
49.5984
58.5876
127.076
80.2311
66.6384
10.2615
110.933
66.0867
10.9046
34.8486
9.83847
7.01134
13.3383
136.252
)
;
    }
    inlet
    {
        type            fixedValue;
        value           nonuniform 0();
    }
    outlet
    {
        type            zeroGradient;
    }
    wallInner
    {
        lowReCorrection 0;
        type            epsilonWallFunction;
        value           nonuniform List<scalar> 
126
(
24.9746
84.0096
3.52571
3.40422
64.2353
81.5344
4.0119
3.31034
9.40234
77.8609
4.43909
48.6557
4.67094
16.0764
48.1011
27.7033
4.34368
8.6447
6.83299
4.85563
65.1104
6.36177
57.9919
29.3282
7.1766
34.8655
71.3909
8.65774
5.6111
22.0947
10.7575
3.89019
76.5458
94.5641
53.4317
36.2183
4.88009
82.8609
3.18524
70.9461
58.0926
5.02771
3.82946
77.4646
56.6979
3.79221
4.02926
12.752
5.37368
130.183
29.4146
7.66765
116.005
125.651
89.3085
3.94072
39.3637
158.469
138.262
55.1437
2.34717
21.6634
37.6634
224.923
35.6402
170.366
115.472
20.8394
72.459
114.045
117.305
115.286
12.521
107.614
100.914
227.689
8.85117
9.05635
38.8609
31.5276
37.3148
34.4559
177.896
206.972
189.483
230.215
172.691
200.291
50.447
270.142
148.306
91.5783
57.2602
192.477
48.5668
150.606
8.02178
9.35979
93.2347
11.6224
8.52229
38.7034
12.6018
83.5691
134.89
30.009
13.6644
48.3078
166.042
69.8665
64.4422
35.2065
76.9552
10.5458
7.87048
7.10243
3.65853
7.43299
3.53647
80.4244
5.41532
4.17067
124.37
9.10436
70.4475
29.7076
)
;
    }
    procBoundary1to0
    {
        type            processor;
        value           nonuniform List<scalar> 
29
(
2.73528
2.73528
2.8646
2.7177
45.3212
40.2375
127.411
15.0438
75.1116
5.21687
11.786
40.2375
2.8646
3.20092
65.0776
21.3924
45.3212
55.9535
2.7177
2.59794
10.6296
6.06893
61.3639
10.8753
10.8753
61.3639
7.36717
79.2926
7.36717
)
;
    }
    procBoundary1to2
    {
        type            processor;
        value           uniform 3.32146;
    }
    procBoundary1to3
    {
        type            processor;
        value           nonuniform List<scalar> 
48
(
87.6659
80.3636
78.1007
78.1007
51.1633
87.8663
87.8663
21.0946
83.9912
3.56541
2.35101
3.56541
4.57934
2.95757
3.0713
4.57934
6.39577
6.39577
6.56108
6.56108
2.61286
5.0305
6.66681
15.7349
15.7349
4.32815
8.42083
8.42083
12.9327
43.3381
13.7573
12.9327
21.0946
68.1094
3.28242
43.3381
38.547
2.35101
91.7338
45.6079
2.49991
53.9567
68.1094
3.28242
3.11596
63.9996
46.8334
2.49991
)
;
    }
}


// ************************************************************************* //
