/*--------------------------------*- C++ -*----------------------------------*\
| =========                 |                                                 |
| \\      /  F ield         | OpenFOAM: The Open Source CFD Toolbox           |
|  \\    /   O peration     | Version:  v1912                                 |
|   \\  /    A nd           | Website:  www.openfoam.com                      |
|    \\/     M anipulation  |                                                 |
\*---------------------------------------------------------------------------*/
FoamFile
{
    version     2.0;
    format      ascii;
    class       surfaceScalarField;
    location    "0.97";
    object      phi;
}
// * * * * * * * * * * * * * * * * * * * * * * * * * * * * * * * * * * * * * //

dimensions      [0 3 -1 0 0 0 0];
oriented        oriented;


internalField   nonuniform List<scalar> 
2776
(
-1.51191e-05
-1.77305e-05
7.53243e-06
2.53172e-05
1.46475e-05
2.32699e-06
0.000176073
-0.000193047
8.57841e-05
1.71783e-06
1.44179e-05
-0.00010192
1.91379e-06
-1.17735e-06
-2.04811e-05
1.97447e-05
0.000119068
0.000113384
-6.8895e-05
-0.000163557
0.000357579
0.000225798
-0.000406111
-0.000177267
3.19337e-05
-2.23457e-05
1.87704e-05
-2.83584e-05
4.89772e-05
-9.47861e-06
2.08218e-05
0.000269925
-0.000297277
6.53016e-06
-1.89292e-06
-9.79364e-06
9.15686e-06
2.52972e-06
5.10117e-05
-3.39001e-07
-5.06727e-05
4.0956e-05
-4.2373e-05
-6.37311e-06
7.79004e-06
1.09386e-05
-1.09386e-05
8.00267e-05
-3.08903e-05
-4.14057e-05
-7.7308e-06
-3.14369e-05
-7.04712e-05
5.7708e-05
4.42002e-05
1.47086e-05
4.22201e-05
-1.01875e-05
-4.67413e-05
-3.69776e-06
2.55933e-05
-2.18955e-05
-3.13312e-05
-1.87635e-05
5.42763e-06
4.46671e-05
4.48368e-05
8.95539e-06
8.64395e-05
-0.000140232
9.49958e-06
-2.54371e-05
5.10204e-05
-3.50829e-05
-3.31179e-05
3.27221e-05
3.34298e-06
-2.94719e-06
-3.11753e-05
-1.45596e-05
4.48524e-05
8.82488e-07
3.70748e-05
-2.90442e-05
-8.03061e-06
2.37212e-06
-0.000148044
0.000146093
-4.21377e-07
3.12106e-05
6.53642e-05
-1.65481e-05
-0.000119231
-1.16278e-05
0.000114787
1.60717e-05
-0.000113173
6.8716e-05
-2.15602e-05
6.60167e-05
-6.5576e-06
7.27056e-06
-2.12824e-05
2.05694e-05
-3.97243e-05
3.49474e-07
7.08618e-05
-7.00774e-05
-7.84426e-07
-5.83368e-06
-1.70325e-05
-7.58695e-05
0.000129066
-0.000132374
-0.000161668
0.000164976
1.47449e-05
-1.21199e-05
-4.36645e-05
-1.06392e-05
1.09851e-05
-5.71506e-05
5.68046e-05
5.96011e-05
4.33812e-06
-5.25808e-05
-1.13584e-05
3.86958e-05
-3.78149e-05
-3.23179e-05
-1.28891e-05
1.66091e-05
-2.82285e-05
2.45086e-05
1.7042e-05
8.36308e-05
-4.95009e-05
-5.11719e-05
-4.17424e-06
0.000247858
-0.000317195
7.35106e-05
-1.99746e-06
-2.34485e-05
6.48869e-06
3.85576e-05
-4.09027e-06
-3.76508e-05
4.27658e-05
3.2813e-05
-3.79279e-05
-0.000314283
0.000196306
0.000138799
-1.69324e-05
1.44967e-05
5.11753e-06
-2.68179e-06
4.35097e-05
-3.94139e-05
2.98577e-06
-7.08159e-06
1.00499e-05
-5.4381e-05
0.000191302
-0.000146971
1.46113e-05
5.9153e-05
1.02731e-05
-8.40374e-05
-2.65029e-05
4.61968e-05
-5.10251e-05
-3.50735e-05
3.52561e-05
-3.78335e-05
7.79769e-06
-3.11798e-05
-9.73578e-06
1.88957e-05
-2.40917e-05
7.78019e-05
-7.26059e-05
5.40163e-06
8.16447e-06
-3.82704e-05
-2.78664e-05
-3.15847e-05
3.77627e-05
1.62204e-05
-2.23984e-05
-8.66917e-05
2.04451e-06
8.50732e-05
-4.26014e-07
-0.000100705
-5.38771e-06
6.19129e-05
4.41796e-05
3.13995e-06
7.75565e-06
-9.30669e-06
-1.5889e-06
1.40281e-05
-2.49328e-05
-2.068e-05
1.37063e-06
-3.43584e-06
4.63414e-05
-4.42762e-05
6.02227e-05
-6.74482e-05
0.000223761
-0.000123809
-3.25043e-05
1.02332e-05
-4.72922e-05
2.64136e-05
1.06454e-05
4.36669e-05
1.37512e-05
-1.96553e-05
3.10255e-05
-2.43385e-06
4.1304e-06
1.18471e-05
1.3152e-05
-2.06938e-05
-4.30534e-06
-1.42175e-05
3.44615e-05
-5.14192e-05
4.03893e-05
-4.87236e-05
0.000112202
-0.000103867
3.46682e-05
-3.09598e-05
4.93714e-06
-8.64553e-06
-3.37232e-06
8.64083e-05
-6.5994e-05
2.54333e-06
-3.64716e-05
1.14697e-05
2.24586e-05
6.15582e-05
-6.49306e-05
-6.97593e-07
-2.93092e-05
-7.52593e-06
2.43616e-05
2.0471e-05
-4.22892e-05
-3.19889e-05
3.69585e-05
-3.14725e-05
-4.86695e-05
-3.53132e-05
4.42584e-05
8.89315e-06
-1.81739e-05
2.33088e-05
-4.27789e-06
1.4006e-05
0.000114282
-0.00012401
3.53721e-05
-1.97383e-05
-4.00599e-05
2.44261e-05
5.82253e-05
-2.11109e-05
-5.61262e-05
1.90118e-05
2.53877e-05
-3.22985e-05
-2.81626e-05
0.000102779
-9.62054e-05
-1.4002e-05
7.4285e-06
9.46854e-06
-1.79943e-05
2.61478e-05
-1.7622e-05
3.88634e-05
5.48081e-05
9.10747e-06
-0.000151009
-8.24238e-05
6.3356e-05
0.000170077
4.62606e-05
3.4143e-05
-4.30262e-05
-3.73774e-05
6.86261e-05
-5.71843e-05
-5.06687e-05
3.92269e-05
3.41344e-06
1.2514e-05
-1.95609e-05
3.63339e-06
-5.22859e-06
7.16798e-05
-6.64512e-05
-1.29429e-05
1.4467e-05
-5.83348e-07
-9.40774e-07
1.39284e-05
1.25833e-05
-2.15565e-05
-4.95513e-06
1.453e-05
6.15723e-05
-5.72066e-05
5.60398e-05
-5.34707e-05
-2.45562e-05
0.000196569
1.15488e-05
-0.000183562
4.8167e-07
5.11146e-07
-6.86692e-06
5.8741e-06
6.00922e-05
-0.000107157
-8.38832e-05
0.000130948
-1.64617e-05
9.17419e-06
1.0701e-05
-1.67358e-05
3.26879e-05
-3.68901e-05
-2.35542e-06
-6.78643e-06
3.96836e-05
5.50914e-05
-8.79885e-05
-9.00824e-05
6.55262e-05
9.49041e-06
-6.14746e-05
5.86001e-05
-6.61586e-06
-7.78357e-05
-0.000226397
-8.85821e-06
1.17495e-05
2.81342e-05
-1.24447e-05
6.03347e-05
1.03353e-05
0.000119302
3.75822e-05
-9.67916e-05
3.86192e-05
-6.18483e-05
5.39128e-05
-3.06836e-05
6.75236e-06
-1.67463e-06
-1.70872e-05
1.20095e-05
-1.71927e-05
3.03423e-05
1.95893e-05
-3.27389e-05
2.79769e-05
-4.88142e-05
-3.69616e-05
5.77988e-05
1.28718e-05
8.53702e-05
1.99019e-05
-8.96334e-06
-0.000121215
-0.000158577
5.85643e-05
0.000221228
5.03585e-05
2.71826e-05
-4.28739e-05
-3.46672e-05
7.60935e-05
-6.49685e-05
3.92335e-05
-6.51695e-05
8.56525e-05
4.81431e-05
-6.58702e-05
3.89287e-06
9.91317e-05
-3.71543e-05
-5.63114e-05
-9.02609e-07
5.47802e-05
5.51751e-06
1.57766e-05
-2.12407e-05
-5.33976e-08
2.97816e-05
-2.59902e-06
-0.000109781
3.9762e-05
-8.09906e-05
4.07711e-05
-3.20343e-05
3.75238e-05
-1.02734e-05
2.56848e-06
-1.52222e-05
2.29272e-05
-1.6975e-06
7.19706e-08
-2.50041e-06
4.12594e-06
0.000156879
-0.000111804
0.000112734
-0.000157809
-1.04271e-05
6.10967e-06
-8.62551e-06
-1.72521e-05
0.000225276
-1.53408e-05
-0.000192683
4.67716e-06
-4.79096e-05
-2.81426e-06
4.60467e-05
-2.04989e-05
4.31325e-06
4.05472e-05
1.50326e-05
-3.00191e-05
4.74547e-05
-3.24682e-05
7.94777e-06
-1.44446e-05
5.01637e-05
-1.55778e-05
-4.73178e-05
1.05703e-05
5.23253e-05
6.20248e-06
-1.46307e-05
1.73214e-05
2.92216e-05
2.31314e-05
-9.58721e-06
3.80977e-05
-7.35864e-05
7.39664e-05
-3.84777e-05
-5.55007e-05
4.69293e-05
-1.28862e-06
9.86004e-06
-1.03136e-05
-3.91873e-05
2.90021e-05
-1.22364e-05
2.44272e-06
-3.07132e-06
7.47511e-05
1.81159e-05
-1.67458e-05
-1.51904e-05
1.38202e-05
-3.12605e-05
1.80031e-05
2.1024e-05
-7.76659e-06
-7.78865e-06
-4.2023e-06
-2.86031e-05
9.76401e-06
1.88391e-05
3.8006e-05
-1.80039e-05
-2.00021e-05
-7.9604e-05
7.68313e-05
9.20608e-05
-8.9288e-05
5.68915e-06
3.32074e-05
-3.09488e-05
3.07472e-06
1.28342e-05
-5.14534e-06
-1.50634e-05
9.43441e-06
3.93147e-06
3.03198e-05
-5.14659e-05
-3.60382e-05
-1.72929e-05
0.000151415
-0.000114632
-1.94904e-05
-1.16419e-05
1.15152e-05
-1.6335e-05
1.32467e-06
-4.21889e-05
1.73332e-05
2.35311e-05
-2.17198e-05
3.65929e-06
-1.13891e-05
3.51151e-05
3.85032e-05
-6.22292e-05
1.69031e-05
-3.18099e-05
-1.4359e-05
2.92657e-05
-6.84533e-05
-7.63202e-05
-4.80187e-06
3.26124e-05
4.87738e-06
3.86914e-05
1.27082e-05
-2.97734e-05
-2.16262e-05
-0.000249126
-2.66477e-05
7.4997e-05
-4.6897e-05
2.64269e-06
7.36416e-06
1.51153e-05
5.55423e-06
0.000195142
-0.000128357
-0.000124724
5.79398e-05
2.95823e-06
1.6666e-05
-1.96243e-05
-4.76171e-05
3.14933e-05
2.56957e-06
1.35543e-05
-3.84074e-05
5.01495e-05
-0.000124915
5.44092e-07
4.89097e-05
-3.99852e-05
-1.30857e-05
7.39728e-06
-1.23059e-05
6.04261e-06
-3.29046e-06
-2.68018e-06
8.67234e-06
1.7039e-05
-2.00222e-05
0.000112151
-0.000162665
-0.000236575
0.000160497
9.07255e-05
-1.76863e-05
-4.35159e-05
1.43053e-05
3.61563e-06
-8.56027e-06
-1.32293e-05
-3.23383e-05
1.51387e-05
-5.32716e-05
-1.15984e-05
3.00421e-05
4.76996e-05
-4.45809e-05
6.37175e-06
-3.07886e-05
4.1362e-05
-5.89624e-06
1.69243e-05
3.408e-05
-6.06879e-05
-0.000116541
5.85569e-08
4.51447e-05
4.27304e-05
-4.09466e-05
-1.42285e-05
9.06849e-05
-0.000256018
-7.74972e-05
0.000242831
3.97816e-05
2.77275e-05
-2.88133e-05
6.67965e-05
-2.33529e-05
-7.87747e-06
3.12304e-05
-3.30182e-05
2.29934e-05
1.00248e-05
2.55422e-05
-0.000107789
-3.33059e-05
5.41896e-05
2.68158e-05
2.15949e-05
-8.64661e-06
-3.36327e-06
5.29708e-06
4.49955e-05
-4.92011e-05
4.13386e-05
-3.89397e-05
4.68022e-05
-4.92933e-05
3.87114e-05
-6.28681e-05
-3.11281e-05
3.21479e-05
1.77236e-05
-3.94998e-05
-2.2867e-05
-1.85065e-05
5.02676e-05
-5.11733e-05
1.94122e-05
-3.24711e-06
2.10716e-06
6.89909e-06
-3.4781e-05
-1.97353e-05
1.32617e-05
-2.22825e-05
-4.3129e-05
4.57902e-05
3.25949e-05
-5.09762e-06
4.35973e-05
-3.84269e-05
-5.95513e-05
-3.68703e-05
-3.32829e-05
-3.39787e-05
3.07264e-05
-5.01898e-06
8.27127e-06
-3.40183e-05
4.13782e-05
8.10819e-05
-4.25853e-05
-2.0773e-05
-7.47987e-05
3.44647e-05
2.18275e-05
5.57387e-05
-4.37727e-05
-3.82668e-06
-8.13939e-06
5.53271e-05
-2.22759e-05
-6.7366e-05
3.84249e-05
6.83779e-05
-3.94368e-05
-6.70019e-06
2.52951e-06
4.17068e-06
4.18946e-05
-4.15369e-05
-4.32316e-05
2.47327e-05
4.84542e-06
-9.10716e-06
4.09755e-05
1.12916e-05
-2.00957e-05
-3.21714e-05
3.87433e-05
-2.31678e-05
-3.06946e-05
-3.71502e-05
6.13584e-05
3.84665e-05
7.14894e-06
1.35376e-05
1.15381e-05
1.10208e-05
-1.38865e-05
8.11802e-06
4.76032e-05
-1.72547e-05
2.37251e-05
-5.53826e-05
2.4577e-05
3.30121e-05
-4.63221e-05
-1.1267e-05
-1.72145e-05
-4.82564e-05
2.57066e-05
3.97643e-05
-0.000268045
-1.1824e-06
-2.23097e-05
0.000291537
-2.46318e-05
5.03871e-05
1.23424e-05
-9.38268e-05
0.000137558
-8.63541e-05
4.26233e-05
2.92691e-05
-4.47961e-05
4.82855e-05
-3.27585e-05
-1.51175e-05
6.26764e-05
-3.30918e-06
-4.42497e-05
2.93092e-05
2.59861e-05
-4.382e-05
3.10956e-05
2.47472e-06
5.8973e-05
-7.65653e-05
5.28175e-05
4.41107e-06
-4.9846e-05
5.54807e-05
-2.12446e-05
-5.5759e-06
7.45636e-06
-2.25491e-05
-3.82841e-06
-6.11304e-05
-5.32081e-06
1.49839e-05
-3.44862e-06
-4.62794e-05
2.58948e-05
-5.43284e-05
3.71139e-05
-0.000131541
0.000116179
1.53629e-05
7.38485e-05
-1.95893e-05
-6.70802e-05
1.27518e-05
2.86117e-05
-4.88154e-06
2.43566e-05
-1.03676e-06
-2.5789e-05
2.46917e-06
-4.34883e-05
2.57469e-05
-8.46875e-05
5.42166e-05
4.46391e-05
-5.83963e-05
1.28209e-05
-1.15331e-05
2.30688e-05
-4.13971e-05
2.42517e-05
-4.64408e-05
0.000108191
0.000133391
-0.000257478
0.000134951
0.000277606
-0.000155079
3.14805e-05
-3.73608e-07
-7.85171e-05
4.28624e-05
-2.07922e-05
1.96093e-05
1.40038e-05
-6.19446e-05
-5.71775e-05
-0.000286959
-0.000119152
6.29135e-05
5.31806e-05
-7.18939e-05
-0.000445628
7.0515e-05
-9.35865e-06
-3.85453e-05
7.95459e-06
-8.91244e-06
5.12254e-05
2.29218e-05
-3.19954e-05
2.56683e-05
-1.65947e-05
-4.53088e-06
2.59998e-05
8.57326e-06
-1.82892e-05
1.6179e-05
5.24973e-05
-2.78863e-05
1.02143e-05
1.60388e-05
-2.77018e-05
1.48029e-05
-6.91953e-06
-1.59983e-05
-0.000103626
3.23238e-05
4.09592e-05
1.75246e-05
6.76833e-06
-3.17199e-06
-1.25593e-05
1.32309e-05
3.90765e-05
-4.73353e-05
-2.95234e-05
3.77822e-05
-5.79078e-05
1.3891e-05
5.46167e-05
-1.05999e-05
-2.18433e-05
-8.61722e-06
-5.54732e-05
8.59338e-05
-6.05863e-05
-2.61746e-05
2.7286e-05
1.98884e-05
-2.09998e-05
-8.54226e-05
3.28197e-05
3.12283e-05
1.25482e-05
-3.91069e-05
-0.000302115
-0.000104405
6.63515e-05
3.52163e-05
-1.83559e-05
-8.3212e-05
-1.57389e-06
-2.52056e-05
-1.39942e-05
3.86548e-05
1.67014e-05
6.2843e-05
9.02817e-05
-0.000101748
-5.1377e-05
5.46662e-05
-0.000273339
0.000309358
-6.16809e-05
8.21827e-05
8.93839e-05
-0.000109886
-5.25387e-05
4.0583e-05
2.59983e-05
3.84183e-06
-2.16531e-05
8.32563e-06
-7.96298e-06
2.12904e-05
-2.98266e-05
-9.56183e-06
-4.66272e-06
8.66735e-06
5.55719e-06
5.75545e-05
-1.30463e-05
-5.07248e-05
1.01303e-05
5.57331e-05
-2.09085e-05
6.55168e-06
1.38145e-06
1.29754e-05
8.79483e-06
2.71505e-05
-3.31965e-05
-2.74887e-06
7.62901e-06
4.85298e-05
-2.39429e-05
2.0771e-05
0.000154466
0.000199812
1.85697e-05
-0.000243214
0.000223462
-4.30802e-05
8.15629e-06
4.9454e-05
6.60128e-05
-2.69043e-05
8.33896e-07
1.61557e-05
1.62179e-05
-1.14357e-05
-4.06124e-05
4.36235e-05
4.94358e-06
5.06498e-05
-5.35594e-05
-6.44911e-06
-4.78249e-05
0.000148348
3.13237e-05
8.06742e-06
-4.27543e-05
4.72173e-06
-7.84661e-06
-2.99131e-05
2.6196e-05
-1.18153e-05
9.74876e-06
1.93879e-05
1.30485e-05
-1.58908e-06
-1.73557e-05
4.84308e-05
-4.39077e-05
-4.52303e-06
-4.68482e-05
4.83299e-05
-1.48167e-06
-9.33603e-05
9.60387e-05
-2.67846e-06
-8.61742e-06
1.50854e-05
-6.468e-06
5.59782e-05
-2.84828e-05
-2.74954e-05
-1.2048e-05
-1.38788e-05
2.59268e-05
-8.94716e-05
-8.48795e-06
9.79596e-05
-1.02831e-05
2.57105e-05
-1.54274e-05
2.91747e-05
-3.86556e-05
9.48089e-06
-4.6239e-07
-8.15503e-06
6.70395e-05
-6.35791e-05
-3.46042e-06
-3.86146e-05
-8.23363e-06
4.64606e-05
1.97017e-06
-2.96865e-05
2.93453e-05
3.41202e-07
-0.000179366
5.56269e-05
-5.84542e-05
2.82733e-06
-9.37495e-05
1.71917e-05
-2.74748e-05
1.55659e-05
1.36088e-05
-9.35771e-05
8.32804e-05
1.02967e-05
-2.11381e-05
-6.44117e-06
2.75792e-05
-9.78149e-05
4.45466e-06
0.000103038
1.31407e-05
-4.54715e-05
5.91037e-05
-1.36322e-05
8.49997e-06
-2.01244e-05
1.16244e-05
2.34232e-06
-2.10436e-05
-2.95182e-06
8.99438e-06
-2.94091e-05
-5.75981e-06
4.18885e-05
2.25132e-05
4.32823e-05
5.40624e-07
4.65132e-05
2.79702e-05
-2.32048e-05
-2.47554e-05
4.53184e-05
2.6418e-06
4.71006e-05
1.32644e-05
-1.48024e-05
4.21733e-05
0.000270684
0.000312931
-4.99208e-05
-6.04442e-05
2.87185e-05
-4.36616e-05
4.22291e-05
2.77139e-05
9.84171e-06
1.50223e-05
3.04129e-05
3.66266e-05
-7.20251e-06
-8.10548e-06
1.5308e-05
-4.18368e-05
-6.05265e-06
-1.25103e-05
2.40659e-05
-2.82798e-05
9.28836e-06
-3.35823e-05
1.3458e-05
7.76435e-05
-1.85398e-05
7.80499e-06
-6.47251e-05
1.14603e-06
-1.29041e-05
2.46167e-06
-3.1041e-05
-1.31903e-05
2.53391e-05
-2.29968e-05
-2.23058e-06
7.49339e-06
1.03795e-05
1.3524e-05
4.87057e-05
-3.59703e-05
-2.62593e-05
-3.71998e-05
-1.23216e-05
1.1829e-05
-7.01777e-05
-3.59485e-05
-2.81624e-05
3.5246e-06
5.61536e-05
9.46706e-07
1.06576e-05
-5.73673e-06
-5.47669e-05
-6.04506e-06
4.65467e-06
-2.34133e-05
2.48037e-05
-2.38533e-05
2.12377e-05
-3.42944e-06
-6.45299e-05
-6.92167e-06
4.26497e-05
2.88019e-05
-1.24224e-05
1.20198e-05
1.14234e-05
1.35241e-05
-8.05049e-05
0.000100845
-3.38641e-05
-1.92212e-05
-3.70358e-05
3.88769e-05
-1.45393e-05
1.31348e-05
-1.10179e-05
-1.26835e-05
0.000176394
-1.20457e-05
3.73399e-05
-2.48193e-05
-4.86722e-06
4.48459e-05
1.0781e-05
-1.19127e-05
2.91573e-05
-2.9755e-05
1.72191e-05
5.36535e-06
-1.05647e-05
2.25636e-05
3.68977e-05
4.29873e-05
2.70415e-06
-4.72654e-05
-2.93177e-05
1.76542e-05
5.07401e-05
-1.35719e-05
-2.15007e-05
3.81213e-06
-0.000195714
-0.000289797
0.000228033
-8.2688e-06
2.88476e-05
1.84771e-05
-3.90559e-05
-5.76379e-06
-4.7653e-05
-6.12729e-06
5.95441e-05
-1.43077e-05
2.3126e-05
2.17189e-05
-1.49481e-05
1.04483e-05
3.36647e-05
2.27404e-06
3.03096e-05
-9.66088e-05
8.4333e-05
-1.80338e-05
-2.80686e-06
1.02562e-05
2.05644e-05
-2.80138e-05
-1.9761e-05
-2.33423e-05
2.95314e-05
7.96443e-05
2.57456e-05
-0.000115417
1.00267e-05
-7.65837e-06
1.29531e-05
-2.9148e-05
2.3551e-05
-3.40163e-05
4.83489e-06
6.55739e-05
9.23552e-06
2.98041e-05
-2.51494e-05
-1.51028e-05
4.86502e-05
-4.81071e-05
-4.72251e-05
1.95906e-05
-2.49647e-05
5.25992e-05
-1.87402e-05
-4.35876e-05
4.0216e-05
-3.68454e-05
-2.21108e-05
-5.34577e-05
-1.81029e-05
5.94407e-05
1.47831e-05
-2.55945e-05
4.08457e-05
-2.3333e-05
3.02568e-05
-3.25183e-05
-3.5174e-05
1.39419e-05
4.61968e-05
-9.27901e-06
-2.79656e-05
2.12611e-05
-1.30565e-05
3.84859e-05
-3.44172e-05
-1.66714e-05
1.26027e-05
0.000341279
-0.000286612
3.27702e-06
2.5962e-05
9.24688e-06
9.31159e-05
3.99612e-06
-6.68025e-05
-3.73414e-05
-0.000178157
0.00010372
1.51096e-05
5.93273e-05
0.000120253
-0.000112316
-0.000137614
0.000129678
1.34473e-05
-4.86255e-05
3.51782e-05
5.03462e-06
-1.54948e-05
-3.39798e-05
-1.64044e-05
1.5967e-05
7.90516e-05
-4.43699e-05
-9.60272e-05
6.13455e-05
7.03152e-05
-0.000128219
2.04344e-05
-2.45459e-06
7.51361e-05
-0.00012759
6.43766e-05
-7.29492e-05
0.000136163
-0.00010326
5.33107e-05
-7.76413e-05
-2.26814e-05
6.19804e-05
-3.044e-05
-8.85892e-06
5.97055e-05
9.53924e-05
-0.000129352
-7.30879e-05
4.92937e-05
1.11271e-06
0.000121108
-0.000139889
3.92152e-05
-2.35478e-05
5.16631e-05
5.09363e-05
3.93883e-05
-1.48746e-05
-4.43898e-05
1.98762e-05
3.59e-05
2.12679e-06
-3.40306e-05
-1.54048e-05
7.08792e-05
4.82453e-05
0.000108856
-4.68647e-05
-0.00016525
-1.3304e-05
0.000101855
3.25571e-05
-5.44134e-05
-1.11053e-05
6.55187e-05
8.47098e-05
7.15239e-05
-9.65282e-05
6.78167e-07
3.27672e-05
1.16612e-05
-7.55127e-06
-3.20755e-05
-2.00447e-05
2.48412e-05
3.45918e-05
1.97396e-05
8.04877e-05
2.18936e-05
-4.24262e-05
5.4843e-05
9.11918e-06
-6.39622e-05
-2.59771e-05
1.2406e-05
1.68481e-05
3.97371e-05
-2.30637e-05
-3.04423e-05
3.35132e-05
-7.97036e-05
-2.89905e-05
0.000108694
-2.07549e-05
9.3366e-05
-0.000122626
3.85792e-05
-1.55376e-05
-1.90183e-05
-3.53556e-05
4.05577e-05
-3.91459e-05
3.23906e-05
-7.61979e-05
8.8644e-05
3.78533e-05
-0.000253301
0.000211273
5.51816e-05
5.1424e-05
-4.10047e-05
-0.000120229
0.000142545
-7.32795e-06
7.64062e-05
-3.61957e-05
1.94163e-05
4.917e-05
-5.11086e-05
8.14073e-05
5.29267e-05
-6.85234e-05
-8.70253e-05
8.68855e-05
-2.15891e-05
2.17289e-05
5.79572e-05
-2.4791e-05
6.35621e-06
-2.32924e-06
-1.0234e-05
-2.36325e-05
-1.97833e-05
4.08925e-05
4.08818e-05
-8.60817e-05
1.9165e-05
-2.01086e-05
-2.36123e-05
4.53312e-05
-2.82673e-05
-5.02598e-05
0.000104912
1.38586e-06
-5.39741e-06
6.13833e-06
5.43609e-05
4.82123e-07
5.7354e-06
-5.80134e-05
8.34456e-06
4.35415e-05
2.69651e-05
1.54993e-05
-2.39872e-05
-8.30426e-06
2.18396e-05
-7.94841e-05
-2.84372e-05
-1.94639e-05
2.49676e-05
-1.38394e-07
-3.9867e-05
-7.23887e-05
7.66492e-05
-0.000100288
0.00013271
-7.76022e-05
-0.000103318
4.821e-05
-0.0001247
0.00021262
1.4735e-05
-0.000162978
-3.65267e-05
-1.97463e-06
0.000139191
-3.88876e-05
7.49344e-05
7.32386e-05
-6.28413e-05
7.46318e-05
0.000105096
-9.41245e-05
-8.49582e-06
4.10838e-05
2.67738e-05
-8.32046e-06
5.90198e-05
7.60601e-05
-1.34238e-05
5.23989e-05
1.32205e-05
-9.13003e-05
-1.8529e-05
4.63181e-05
-4.63167e-05
4.80766e-07
0.00023434
0.000106939
6.08558e-05
0.000173484
1.55186e-05
1.4025e-05
-4.73993e-06
9.62731e-06
3.77792e-06
6.80734e-06
6.44928e-05
1.39297e-05
-5.65829e-05
-4.16716e-05
4.01803e-05
5.22314e-05
-1.6223e-05
1.15254e-05
-0.000100651
-9.61653e-05
-9.72924e-05
7.34386e-05
2.07096e-05
-1.55458e-05
-4.65324e-05
4.24086e-05
1.76844e-06
-2.05626e-05
9.43501e-06
9.8818e-06
-1.49138e-05
1.2823e-06
6.2775e-07
-1.72222e-06
-2.09394e-06
-3.02145e-05
5.87933e-05
-2.28869e-05
-6.49188e-06
-0.000115769
-4.73973e-05
9.30386e-05
3.57355e-05
-9.66481e-06
-0.000121197
5.99507e-06
0.000124866
-5.56759e-05
-4.76764e-05
1.99486e-05
3.60723e-05
1.48932e-05
1.59914e-05
-1.53854e-05
1.89636e-06
7.41054e-05
-7.38946e-05
1.05715e-05
-7.62836e-06
-1.52632e-05
-1.46059e-05
1.05075e-05
1.93615e-05
-1.66803e-05
6.01149e-06
-1.8337e-05
0.00010072
-0.000129248
-6.00026e-05
2.03851e-05
4.74819e-05
-1.31374e-05
2.19164e-05
-3.35975e-05
-8.34795e-05
8.20282e-05
-1.51524e-05
-3.02466e-05
2.97087e-05
1.56904e-05
-5.02434e-06
-1.77246e-05
1.4786e-05
-1.57022e-05
-1.91882e-06
-0.000155115
5.24914e-07
0.000144925
-4.40554e-06
-1.77545e-05
-1.57386e-05
-3.81186e-05
1.84785e-05
1.90229e-05
-1.11016e-05
-3.02037e-05
-0.000117535
-9.55258e-05
-1.09285e-07
-0.000107563
8.07723e-06
-1.4819e-05
8.27443e-05
-7.60026e-05
3.01913e-05
-7.05788e-05
6.91061e-05
-0.000118067
-7.70706e-05
-3.91613e-05
4.92518e-06
-5.17781e-06
-8.87561e-05
-6.22777e-05
6.17457e-05
-7.15118e-05
2.5669e-05
-5.74755e-05
-1.03042e-05
1.51621e-05
-4.85797e-06
-6.8905e-05
2.98102e-05
-0.000104822
-8.4828e-05
-8.447e-05
-0.000105109
-1.19288e-07
-1.08415e-05
4.70575e-06
6.25504e-06
1.25502e-05
-2.30609e-05
4.12371e-05
-1.73674e-05
1.6233e-05
3.06657e-05
-1.68938e-05
-7.93487e-05
4.33477e-05
8.44718e-05
-2.56986e-05
0.00011353
0.00010347
-1.31953e-05
6.84605e-05
-6.5034e-05
9.76886e-06
-4.12794e-05
3.51502e-05
-7.43757e-05
-7.78795e-05
1.26271e-05
2.01944e-05
4.5058e-05
-3.91026e-05
2.10987e-05
3.22161e-05
-2.24521e-05
-4.84485e-05
1.25092e-05
6.64884e-05
-3.23496e-07
4.27817e-05
1.05164e-05
8.30488e-06
-4.06288e-06
8.59215e-06
1.55396e-05
1.41314e-05
-1.94997e-05
5.59797e-05
-4.84435e-05
5.44441e-05
-2.87495e-05
2.30684e-05
2.56298e-05
1.23216e-06
1.88773e-05
-4.11804e-06
9.78528e-06
-5.49379e-05
-2.22133e-05
1.06352e-05
9.1468e-05
-2.61828e-05
2.4094e-05
2.50106e-05
3.04419e-05
-2.58929e-05
-6.47119e-05
5.05062e-05
-9.40772e-05
3.85212e-05
0.000167771
1.3178e-06
-9.00328e-05
-7.9056e-05
2.81613e-06
4.07479e-05
0.000304303
-0.000284195
-0.000179301
5.49804e-05
0.000130667
-0.000251735
6.85944e-06
-1.27403e-05
-3.68096e-06
3.80096e-05
-4.6779e-05
-6.01356e-05
0.000150338
-4.4001e-05
-2.87669e-05
5.69299e-06
8.06206e-06
1.46075e-05
-2.78115e-06
1.66193e-05
-2.02225e-05
1.23981e-05
-2.78265e-05
-2.40921e-05
3.10101e-05
-2.39789e-05
1.26762e-05
-2.68952e-05
-1.27154e-05
3.96106e-05
8.42804e-06
-1.84581e-05
2.67314e-05
1.55678e-06
7.13469e-05
-4.44323e-06
-8.76634e-05
2.04568e-05
-3.8706e-05
2.0703e-05
2.20957e-05
-1.51548e-05
-2.07914e-05
3.18422e-06
1.03972e-05
2.45581e-05
-2.25493e-05
2.30589e-06
-2.41349e-05
1.25465e-05
7.62367e-05
2.16175e-05
-8.5345e-05
-1.08004e-05
1.37586e-05
9.88208e-06
-1.85484e-06
-8.55835e-06
1.8726e-06
-2.15156e-05
1.52362e-06
4.55706e-05
-2.02998e-05
-5.5893e-06
-1.05563e-06
-3.19861e-06
-8.55118e-05
7.16428e-07
0.000116015
-8.65549e-05
0.000100217
-1.50844e-06
-2.4283e-05
-5.09769e-05
7.08716e-06
-4.44234e-05
9.65581e-05
2.4102e-05
-5.76438e-05
5.48097e-05
-1.81657e-05
0.000232936
1.20354e-05
-2.05556e-05
-0.000224415
-2.06526e-05
-1.38757e-05
8.79061e-06
-1.50326e-06
1.48083e-05
4.94682e-05
-3.47679e-05
-1.11813e-05
-2.88109e-06
6.47131e-05
-2.07486e-05
5.41436e-05
1.27063e-05
-2.07046e-05
0.000244609
-5.38792e-05
9.12964e-07
3.45029e-05
-2.07737e-05
-2.21547e-05
-7.43204e-05
5.15145e-05
-9.64647e-06
1.97534e-05
3.21132e-05
-3.82636e-05
-1.55457e-06
-1.17331e-05
0.000275342
-5.30432e-05
1.96169e-05
5.84409e-05
3.02826e-05
-5.671e-05
-3.20135e-05
9.03561e-07
2.84303e-05
-2.3142e-05
-6.19184e-06
4.01623e-05
-7.42816e-06
2.01854e-06
-1.96897e-05
-2.98973e-05
8.04076e-05
-8.96557e-05
-1.78598e-05
2.71079e-05
-4.83816e-06
-3.73666e-05
1.67961e-05
2.54087e-05
8.38924e-05
2.24509e-05
9.22721e-06
-1.16917e-05
-1.18517e-05
1.17635e-05
1.73492e-05
7.34544e-05
-1.94567e-05
1.79352e-05
-2.62791e-06
1.34136e-06
-6.82788e-06
-4.96627e-05
-3.26152e-05
5.44514e-05
6.4633e-05
3.0379e-05
-6.12149e-05
-2.37335e-05
3.12184e-05
2.87308e-05
-7.72844e-06
-1.86279e-05
-7.81395e-06
-8.38023e-05
7.68913e-05
-5.90207e-05
-1.78706e-05
-0.00015872
1.88653e-05
2.12616e-05
-1.76102e-05
-3.43974e-05
0.000109017
6.63254e-05
-3.51049e-05
2.286e-05
4.54004e-05
-4.41868e-05
1.76788e-05
-3.04628e-05
4.99585e-05
2.88786e-05
-8.6497e-06
2.08346e-05
1.03786e-05
-2.30193e-06
-6.71532e-06
-2.17527e-05
2.37769e-05
-0.000167487
-4.38731e-05
5.20387e-05
3.3506e-05
5.76087e-06
-4.89936e-06
4.76294e-05
2.14336e-05
-1.48455e-05
-3.13552e-05
-0.000138122
6.96491e-06
1.32571e-05
6.70118e-05
1.62687e-05
-4.6443e-05
3.07041e-06
4.86696e-05
9.81077e-06
8.04231e-06
1.887e-05
-2.87475e-05
4.07963e-05
-7.10952e-05
-3.32143e-05
-9.10416e-05
6.7804e-05
1.67727e-06
-1.91541e-05
-1.29965e-05
6.15002e-06
2.60007e-05
1.0594e-05
-1.93502e-05
2.27847e-05
-6.10449e-05
3.82273e-05
2.27043e-05
8.15039e-06
1.5082e-05
-3.03923e-06
-3.5761e-05
-1.65101e-07
2.81374e-05
6.38557e-05
1.90662e-05
-2.27469e-06
-1.56854e-07
2.43155e-06
-7.11286e-06
0.000238261
-1.97641e-05
-1.174e-05
-0.000206757
-1.83148e-06
-1.77108e-05
1.0598e-05
-3.70672e-05
-0.000142299
1.2749e-05
1.96125e-05
1.65424e-06
-3.48572e-06
-1.32521e-05
-4.45875e-06
-2.93852e-05
1.36407e-05
1.57444e-05
0.000166723
-8.66717e-05
-8.00516e-05
9.51004e-05
-6.47399e-05
-9.08046e-05
8.69886e-06
9.17477e-08
-4.62306e-05
4.02419e-05
4.2592e-05
-3.66033e-05
-4.51218e-05
-5.19261e-05
1.52545e-05
-4.16837e-05
4.03319e-05
-8.74042e-05
4.34871e-07
3.66018e-06
-4.09506e-06
6.98374e-06
1.21548e-05
1.24816e-05
1.55959e-07
-1.67004e-05
2.12548e-05
0.000172719
7.09619e-05
0.000211623
-0.000136652
0.000171191
-8.01208e-06
-8.06336e-05
-5.79643e-05
-1.57604e-05
-1.23972e-05
2.71319e-07
-3.52703e-06
5.31685e-06
-1.78982e-06
3.18752e-05
1.1464e-05
-2.95806e-05
5.21246e-06
-7.63368e-06
-2.73468e-05
4.1526e-05
5.33444e-06
-4.37848e-05
-2.86825e-05
-2.5845e-05
-1.98337e-05
-3.09216e-06
-5.96082e-05
1.29979e-05
7.18042e-05
-2.51938e-05
-3.15622e-05
2.84156e-05
2.80082e-05
-2.48616e-05
0.000104269
-0.000143369
0.000119423
-0.000110468
7.20615e-05
-3.95027e-06
6.65485e-06
-4.54924e-06
-1.20205e-06
-7.53267e-06
2.39271e-05
1.05224e-05
-1.98722e-05
-8.35123e-05
-3.57166e-05
6.89691e-05
-0.000400353
0.00018807
-4.7696e-07
9.83239e-06
-3.91647e-06
4.79553e-06
-8.37321e-05
8.95804e-05
3.92055e-06
-3.08533e-05
2.68784e-05
-5.11007e-06
-2.17683e-05
8.51283e-05
4.37119e-05
-4.84325e-05
2.41931e-05
1.28166e-05
-3.0458e-05
-1.88839e-05
1.89228e-05
2.71116e-05
2.33447e-05
-3.34502e-05
-6.75425e-05
6.62146e-06
3.65072e-05
-0.00016898
2.63077e-05
9.91901e-06
-4.79796e-05
-4.88364e-06
-5.74409e-05
-1.6677e-05
2.21588e-05
-7.38289e-05
1.28815e-05
-2.04415e-05
1.02873e-05
-5.1531e-05
-3.02562e-05
0.000107147
4.42279e-05
-6.8914e-05
-6.95341e-05
2.60728e-06
5.4881e-05
9.32616e-05
-8.12442e-06
2.12469e-05
-2.78203e-05
-0.000311641
0.000334775
1.70899e-05
4.99219e-05
5.26903e-05
4.29202e-05
-7.55812e-05
7.68889e-05
-5.51645e-05
-7.42278e-06
2.80434e-05
1.02431e-05
-1.62195e-06
-4.60228e-05
-9.47774e-05
0.000119658
-0.00018839
0.00016339
-3.18924e-05
7.27316e-05
-1.67436e-05
-2.63018e-05
3.15122e-05
-2.93516e-05
-7.24663e-06
-6.86106e-05
7.66878e-05
-6.10735e-05
-7.53708e-06
2.0371e-05
-4.31519e-05
-0.000103807
0.000126588
1.70611e-05
6.18383e-06
-1.73997e-05
2.91613e-05
6.16614e-06
-1.79277e-05
4.33865e-05
-9.22557e-05
5.94203e-05
-1.05511e-05
2.15868e-06
-2.24072e-05
-2.71027e-05
-9.44455e-05
-2.4746e-05
-7.07859e-05
-1.29345e-05
8.8175e-05
-9.25477e-05
-1.07346e-05
-1.40152e-05
1.91649e-05
1.60971e-05
9.31403e-07
2.29442e-05
2.19017e-05
-6.46373e-06
-1.83556e-05
-1.44457e-05
3.06841e-08
-2.98475e-06
-4.99466e-05
5.30706e-05
-0.000231374
0.000161051
-4.9179e-05
2.24104e-05
3.92962e-05
-2.31979e-05
-2.36496e-05
4.72765e-05
5.15483e-05
-2.26624e-05
2.77308e-05
5.33724e-05
-3.11192e-06
-1.49344e-05
1.30952e-06
-7.4902e-05
9.97139e-06
6.80799e-05
5.03299e-05
-2.12248e-05
-7.25797e-06
-9.2542e-05
5.06613e-05
5.79852e-06
1.7779e-05
-3.47757e-05
-3.21823e-05
-2.714e-05
-3.5489e-05
-1.62028e-05
-6.89566e-05
6.67739e-06
2.74637e-06
-3.44176e-05
1.10319e-05
9.50531e-06
-2.76392e-07
1.01415e-06
1.71857e-05
2.50615e-05
2.06862e-05
-0.000102561
4.63987e-05
-5.60588e-05
-6.11258e-05
3.12502e-06
-3.90736e-05
5.40683e-05
2.31981e-05
2.28377e-06
8.24663e-05
-2.85327e-05
-8.8404e-06
8.30295e-06
-5.58094e-05
6.13176e-06
-5.55884e-05
0.000240847
0.000281997
5.05857e-05
1.31259e-05
-5.36849e-05
9.5806e-06
-2.60346e-05
6.71653e-05
-3.84499e-05
8.92124e-06
-4.41036e-05
4.02141e-05
-1.1932e-05
5.01398e-06
-1.08126e-05
-1.28399e-05
1.2695e-05
-2.23401e-05
2.043e-05
2.20544e-05
-2.01443e-05
-4.2306e-05
6.2055e-05
4.64528e-06
-2.66419e-07
-1.57166e-06
9.88109e-06
-4.03646e-05
0.000202774
0.000184616
-7.80316e-05
-8.66145e-05
5.91785e-05
3.80713e-05
-0.000105278
3.47355e-05
-9.92577e-05
5.2869e-06
-1.11829e-05
1.31666e-05
6.11844e-05
2.5672e-05
6.05277e-05
-2.74122e-06
-7.46635e-05
-2.73345e-05
2.4505e-05
2.7891e-05
-1.83514e-05
1.46537e-05
3.29821e-06
7.08922e-05
-6.66993e-05
5.23582e-05
-4.49571e-05
-4.51466e-05
-3.81852e-05
-1.32632e-05
0.000140812
1.30389e-05
2.50974e-05
-6.59092e-05
3.75951e-05
2.83141e-05
-1.75197e-05
3.31898e-06
-6.78594e-06
3.46696e-06
5.21657e-06
-3.49667e-05
3.62389e-05
6.43368e-05
-2.755e-05
1.74298e-05
-2.66273e-05
1.40146e-06
-3.31705e-05
7.25241e-05
-7.01046e-05
7.53931e-05
8.48277e-05
-2.23006e-05
-5.01681e-06
2.89069e-06
4.00998e-05
-3.13267e-05
-1.08142e-06
-0.000149583
-5.3254e-05
5.13717e-05
-8.46567e-05
0.000234183
-4.03541e-05
6.23868e-06
-1.42505e-05
2.03983e-05
2.93631e-05
-2.50102e-05
2.13537e-05
-3.87822e-05
3.93222e-05
-5.40006e-07
-3.54684e-05
-3.31381e-06
3.02941e-05
-2.29195e-05
-7.37456e-06
-5.17427e-06
0.00013873
-0.000154944
1.62144e-05
0.00010848
3.02497e-05
-0.000152617
-0.000138039
-1.45782e-05
3.58863e-05
-0.000132547
-5.4914e-06
-0.000134236
1.68866e-06
2.80637e-05
7.82266e-06
1.78762e-05
8.22972e-06
3.22988e-05
7.70287e-05
1.28335e-06
6.94637e-06
4.60233e-06
-4.20518e-06
2.74779e-05
1.5285e-05
-1.02625e-05
1.80533e-05
8.0767e-05
7.76623e-07
-8.15436e-05
-0.000131864
-1.55695e-05
3.11859e-05
-2.88067e-05
4.06863e-05
-8.31026e-06
1.79538e-05
-1.04312e-05
1.78292e-05
1.7179e-05
3.09085e-06
8.91928e-06
-4.45122e-06
0.00010618
-1.04562e-06
5.11358e-07
-3.37034e-05
4.92215e-05
-1.55181e-05
2.81705e-05
-6.34061e-06
-1.03363e-05
-0.000109854
0.000103752
-8.55642e-05
1.07311e-05
5.64772e-05
-2.13385e-05
-1.23649e-05
9.50561e-06
-6.94626e-06
-2.96386e-05
2.08508e-05
-0.000121679
-1.01846e-05
-3.95749e-05
-1.7465e-05
2.8273e-05
9.89913e-05
0.000217146
0.000114373
0.000142458
-6.47571e-06
-2.25531e-05
1.85044e-05
-2.55242e-05
-3.31691e-05
-3.6128e-05
4.10174e-05
2.97148e-05
1.39698e-05
-1.96187e-05
2.29279e-05
7.08161e-05
1.45447e-05
0.000167043
-0.000170039
-2.86303e-06
2.12928e-05
6.72338e-05
-1.80124e-05
-0.000105748
-1.59308e-05
7.23621e-05
-2.60896e-05
-1.66967e-05
1.55194e-05
-6.08306e-05
-0.000125008
-0.000249332
8.53775e-05
-1.81436e-05
-1.01506e-05
-3.83207e-05
-2.03097e-05
4.91829e-05
3.08399e-05
-8.59279e-05
0.000285826
-4.09383e-05
-1.37949e-05
3.21551e-05
-3.15303e-06
3.78445e-06
1.22952e-06
-1.34914e-06
-1.53476e-05
5.87159e-05