/*--------------------------------*- C++ -*----------------------------------*\
| =========                 |                                                 |
| \\      /  F ield         | OpenFOAM: The Open Source CFD Toolbox           |
|  \\    /   O peration     | Version:  v1912                                 |
|   \\  /    A nd           | Website:  www.openfoam.com                      |
|    \\/     M anipulation  |                                                 |
\*---------------------------------------------------------------------------*/
FoamFile
{
    version     2.0;
    format      ascii;
    class       volScalarField;
    location    "0.93";
    object      epsilon;
}
// * * * * * * * * * * * * * * * * * * * * * * * * * * * * * * * * * * * * * //

dimensions      [0 2 -3 0 0 0 0];


internalField   nonuniform List<scalar> 
1466
(
9.52695
36.5449
9.22889
94.3197
5.40776
21.3816
3.2803
40.5074
9.35776
47.0992
59.7374
42.9865
5.85979
4.67425
25.6555
80.5611
24.2819
100.185
110.377
65.4035
110.448
65.2514
82.2933
53.7392
7.37526
8.98309
43.6984
85.2178
6.08493
50.9684
69.4568
11.0028
9.20558
95.2488
124.211
55.9514
91.9138
30.2066
81.3804
1.77318
3.54302
60.1556
73.1725
5.02892
1.97939
20.0292
79.593
3.1754
48.3492
4.21668
16.3417
46.4792
27.7981
3.85345
13.9995
6.80941
14.3119
64.3786
6.13063
56.0563
19.1008
4.14424
1.98309
29.3796
77.0847
31.0108
157.43
56.478
34.0942
10.6085
56.4508
147.671
83.9684
6.95743
14.9502
80.4388
4.17077
2.10538
21.9488
71.4429
58.2167
74.6218
9.7649
81.6697
97.5377
144.997
86.2623
74.9097
65.3545
43.2473
12.1225
46.0972
126.435
6.25181
17.3304
10.9934
34.0702
72.1182
8.63115
5.70841
22.3411
10.9985
2.78761
75.8032
83.0887
58.0691
36.1612
3.66563
78.5143
11.0312
15.0027
98.5056
9.18911
65.0097
56.048
21.1316
49.8994
41.2927
3.23014
1.62061
93.35
5.45336
2.0154
6.06578
1.94393
62.0856
44.0762
79.7388
50.5018
32.2816
74.9203
54.3904
81.1131
52.4403
14.2554
3.61878
1.85753
19.1777
3.17774
1.58138
5.38858
93.6064
69.525
75.129
69.2527
163.9
10.9849
17.4376
50.1274
95.3011
14.1078
32.9299
39.1234
9.20296
38.8959
63.434
74.5033
79.1472
11.5493
46.5267
10.3303
58.2147
128.479
81.0583
103.887
80.5583
60.4268
89.4746
92.5788
39.6361
103.249
8.37411
3.25518
35.4241
29.9156
7.53592
42.7528
61.1181
12.9555
73.8158
8.88703
27.8951
129.198
2.96565
77.3239
146.798
100.905
47.8129
35.9866
37.8253
114.81
24.5676
116.511
172.905
42.7002
17.6284
10.3805
159.448
112.093
185.724
73.5228
40.8173
47.2352
27.9997
42.8504
92.7515
128.44
28.2008
11.3899
60.6364
96.6644
86.4271
129.163
94.3901
115.346
78.4315
145.835
99.4199
54.4575
55.8051
85.3797
22.5626
82.2757
21.6429
86.6592
80.9516
58.4281
3.31997
13.1018
21.5956
42.4646
82.4297
187.304
137.99
14.3165
71.5539
65.4677
82.6119
20.6317
111.347
51.9359
70.2625
39.319
198.988
16.8229
53.3763
10.6502
6.95216
71.1932
34.5013
132.956
83.5177
25.2956
49.4249
8.01821
15.8181
74.0963
11.9829
114.152
122.139
91.1471
79.4706
52.0307
21.4803
64.6293
3.3926
39.2166
43.6397
100.568
11.7612
156.276
136.649
56.7863
12.0452
13.2697
26.025
17.1667
58.4992
100.23
55.5203
19.2675
54.1447
77.6043
64.6228
61.4492
2.92641
55.0246
51.1713
6.68079
20.0527
23.3457
9.64832
7.49204
12.4028
46.0883
38.0659
223.541
4.47151
56.8061
18.6831
3.45829
33.3896
5.91696
8.3101
82.869
11.1292
8.06585
11.038
38.2139
120.487
31.551
109.518
58.8899
34.5377
49.7837
43.4704
104.371
32.7301
5.29449
28.4115
36.8514
168.931
114.123
16.5757
82.9601
16.8655
3.30885
33.8134
13.9333
31.2363
74.9167
18.1956
10.7555
36.0108
92.7274
16.0822
102.935
19.0618
10.3401
4.80385
1.80391
31.3194
20.4387
69.805
41.1819
6.82015
62.5629
42.0905
39.9597
92.891
31.3059
13.0836
62.421
115.511
76.3674
109.215
87.325
19.7845
8.12256
41.2796
85.581
96.1357
69.8269
44.0997
7.04482
188.701
27.8542
26.8937
63.7493
39.5754
35.0395
112.205
107.194
31.2239
13.1694
92.6958
52.7159
110.179
5.84643
57.7905
54.4607
42.8898
61.7099
67.3901
49.2804
46.7752
16.3468
14.5005
8.95927
4.0359
14.0436
29.5001
36.7453
27.9778
19.4241
7.01921
4.14589
108.219
14.7833
14.9714
2.91765
2.26762
69.6274
5.86003
47.5364
100.806
84.8348
29.5011
122.786
110.948
25.4599
98.2577
123.185
109.072
73.7861
6.67633
5.57621
50.5169
32.902
11.4566
80.5418
82.7049
10.2786
129.529
6.72195
2.71661
56.2786
101.263
4.96776
2.4861
53.734
9.05258
86.8005
219.74
32.0595
9.93733
6.8887
6.90029
3.74644
47.9186
6.69305
15.9861
52.9445
12.4774
27.7982
9.17333
26.4762
33.6012
7.90813
60.1584
33.9142
7.04377
6.51759
11.2881
18.5013
13.5714
9.40838
29.6787
10.1301
29.8538
8.50165
11.8828
11.5165
47.2856
52.3077
6.47339
30.9202
9.21928
5.31661
28.3641
6.69855
21.3585
51.6374
2.08857
29.1075
5.51583
1.86996
52.5161
113.988
49.3476
36.2108
95.7158
87.774
104.085
76.3196
23.1907
4.8074
2.76437
123.928
74.796
86.4906
82.6919
17.6713
33.4719
26.5335
42.648
78.8093
50.5632
42.7667
54.2564
72.1704
93.3229
52.2436
84.6321
14.0182
70.295
66.7882
34.5265
5.43803
60.569
26.1827
65.3093
34.0358
171.431
78.5945
49.9044
12.4766
10.1056
20.1425
29.6949
72.9874
6.04223
130.255
27.6739
56.6108
15.8069
7.86029
63.4631
18.8125
96.1858
8.60871
199.766
115.778
39.7329
55.3455
9.72777
34.3867
75.5185
15.6366
99.0944
21.676
92.604
24.6437
29.9009
22.0951
30.9367
25.5044
23.9483
118.836
31.6703
83.3528
5.54738
6.12056
52.5525
182.839
68.2248
62.1755
43.5152
57.6264
17.5796
92.0142
93.8809
23.3379
38.8939
15.489
24.2225
36.5004
128.88
78.8774
103.035
87.0348
128.428
26.3209
51.284
16.3029
107.98
12.8543
91.8003
58.2962
71.6277
37.8457
101.903
76.5378
59.4916
56.5523
29.6313
97.4432
8.80066
45.5707
30.2462
84.9617
26.3139
51.5255
74.1872
132.142
75.7322
73.1657
56.8985
24.0427
66.8019
42.577
14.2311
15.3404
30.0523
206.062
60.6349
27.8481
1.71849
38.6118
86.4027
13.7439
119.876
22.6892
36.9567
109.912
32.3468
52.6301
27.739
25.1872
101.694
29.3216
3.61433
23.8238
19.9547
39.6533
72.7639
221.102
58.3947
71.9062
94.0757
61.6019
23.0504
25.903
16.6814
91.4777
12.0746
93.8513
76.9334
48.0288
89.1163
125.502
82.0464
58.3335
23.3643
107.058
14.4267
58.2386
103.135
59.5132
28.7296
92.4418
11.2783
33.7133
6.75187
116.027
102.3
6.1834
171.788
14.3574
6.13281
134.364
92.4873
6.06733
14.3727
91.0533
29.8952
105.939
36.3629
55.428
5.47673
13.1918
17.1338
55.3793
6.25847
54.106
4.01005
35.5759
6.10799
13.8122
19.2379
83.5897
13.2859
10.1023
150.445
18.1887
116.667
25.8634
8.1401
35.6538
11.4661
114.793
18.7142
16.0946
62.5733
19.4581
7.65045
51.8272
74.4632
27.9573
53.4484
114.626
22.7483
9.42564
14.2131
78.8153
64.0069
27.7261
5.99839
7.77745
68.5111
16.1862
135.367
7.83467
67.5151
127.845
94.1013
49.2141
75.2937
71.0845
57.7084
69.4376
101.023
155.511
55.5316
195.835
108.071
87.3028
12.9961
20.6984
7.67763
63.8278
111.492
65.4439
5.60055
132.402
80.917
117.189
84.2309
4.36824
111.584
92.9497
55.2692
97.3029
4.68795
2.57176
5.50088
32.9147
19.9984
22.2126
48.8763
84.7706
66.5904
10.0054
5.68002
115.497
112.619
159.339
89.2979
14.3151
107.697
92.3917
5.05839
28.6615
44.7158
142.249
46.2228
77.2979
120.828
70.8719
135.608
26.5946
8.34403
2.28871
6.6659
59.3111
113.223
40.4616
16.3477
25.1669
116.943
18.94
11.2254
88.075
33.0474
89.0501
5.96022
39.009
88.7069
74.9577
38.1899
37.4184
91.1503
101.236
5.79974
32.3966
16.3434
109.479
60.2191
9.03961
9.00245
7.5782
61.9782
101.372
12.1864
39.3839
2.88151
12.5426
14.0711
62.7258
89.5758
121.264
56.4794
77.3172
47.0251
33.9937
11.6805
84.6395
83.1622
13.4381
92.1236
101.413
81.78
22.2447
61.467
3.85109
10.0502
92.8338
12.8715
18.0515
75.6459
71.9368
88.1921
12.7903
122.033
16.2978
26.7647
15.2066
13.9253
7.93445
11.3191
18.0008
108.704
92.6007
10.118
81.2879
81.6218
34.3369
95.3083
36.9732
59.5828
88.831
61.1347
101.489
34.8401
28.9116
24.81
68.3607
22.6404
65.2917
99.3512
131.58
99.5429
10.2805
15.0023
8.9108
36.1732
110.441
255.556
31.1896
49.2307
35.9572
8.40569
51.8666
11.5243
122.286
9.87342
96.3937
92.2672
102.744
86.6555
123.933
115.952
119.828
122.107
163.753
167.286
186.855
168.6
165.359
166.123
166.504
153.507
211.633
131.982
147.77
237.207
251.998
160.885
226.523
165.157
160.289
151.626
83.562
96.4502
6.19776
8.31954
55.1699
10.8355
12.0099
5.73362
4.09431
24.9425
119.74
75.2197
109.508
20.6766
31.5451
12.1691
47.5201
7.02667
52.1983
25.8251
122.112
35.0541
46.2906
128.108
74.0311
141.862
4.33051
2.09956
8.23206
9.28237
7.74406
39.9173
51.3695
50.8599
91.3492
8.11131
2.79485
6.51079
13.068
13.1503
24.4785
101.151
4.36717
1.97833
30.8476
98.5109
41.982
15.6773
52.4855
46.4459
68.0327
81.0238
99.6309
61.3797
8.50347
57.5386
100.198
47.1986
128.737
35.3092
138.946
36.0574
74.6155
130.098
2.33171
52.5101
20.3454
60.1633
4.6816
98.9265
70.8113
98.3713
29.2094
29.6801
29.5372
78.9473
22.6448
12.4969
7.54369
78.9279
131.783
103.383
20.8427
139.719
111.676
27.8276
134.267
65.8621
10.6043
2.3179
34.2474
56.6104
128.221
209.641
62.6064
63.9752
4.90397
13.8246
45.3721
44.361
75.4376
13.2347
65.2631
4.6665
2.20753
2.11015
36.467
7.89049
44.1354
80.6905
9.67705
9.186
137.208
11.5059
78.3838
20.4086
55.4743
116.368
104.138
123.938
83.1173
105.735
91.8693
100.446
67.9112
87.2281
56.5404
2.60636
6.93507
122.506
33.8145
9.95554
20.544
62.6926
34.1541
11.5873
56.2783
7.57406
36.3065
40.5185
4.98991
1.90045
39.1026
10.8511
22.6248
13.4015
37.5739
123.934
5.4373
1.89305
10.1917
87.0895
39.8227
5.88795
27.3345
119.857
14.1281
24.82
10.5943
7.63517
29.802
41.5889
6.43708
98.1277
91.0293
6.97394
2.08922
2.48547
48.8732
29.5406
11.5133
6.06347
12.3757
11.7765
7.03334
12.5674
12.7272
4.66005
1.98432
8.25968
133.593
12.6351
12.9362
12.7714
13.0431
41.6795
45.7057
10.8023
11.1522
12.353
12.7706
65.9331
87.0864
55.9681
28.4536
20.1249
102.151
115.77
32.9772
114.018
75.45
35.7844
6.37001
2.50225
6.7732
116.096
62.6798
130.016
43.0821
8.34017
135.562
43.3286
48.5708
55.0155
120.973
97.3852
123.417
17.8545
90.3245
32.4967
108.271
84.7301
142.792
7.02316
14.8821
14.5038
63.1596
44.5489
63.7724
72.8174
54.4932
8.41975
20.0271
17.4426
38.9927
81.5154
85.1189
118.781
109.23
7.98638
2.56641
29.6996
52.8809
46.8173
22.586
11.4138
7.504
41.6862
102.861
49.0305
58.0143
96.6757
7.97011
8.18357
22.4674
64.94
36.4929
110.23
22.6647
88.2561
130.637
82.8348
89.8595
123.833
37.0079
90.6275
92.7654
2.75255
6.73363
23.9909
31.4603
6.32613
1.85465
75.5135
66.7699
66.8162
103.08
111.062
125.966
38.7637
30.4414
76.8032
71.1681
104.787
105.262
7.66766
8.8105
42.7271
58.7996
10.5431
92.6913
34.5541
10.9314
52.5753
45.1666
20.7848
17.2902
10.0862
55.3128
8.37399
18.9198
40.9814
36.7613
23.1994
235.497
6.76479
9.66272
22.5069
5.07203
7.40648
39.7366
4.59194
1.96375
6.33925
52.5614
66.0133
118.576
105.373
95.4172
8.16769
67.5574
6.86572
66.9888
50.7646
2.76529
47.9567
47.7028
79.3696
68.202
65.2518
69.568
97.8642
5.94832
3.69772
103.147
16.611
3.27435
32.4126
6.42103
90.0231
9.25189
121.453
8.91818
131.866
48.6436
2.5162
119.078
27.8037
7.23873
91.4637
77.3893
38.4624
74.5365
41.3181
103.649
46.9347
79.5117
6.29233
32.5887
31.0849
111.313
40.0736
117.531
139.677
60.714
147.911
170.255
153.625
7.28649
30.5111
54.2445
10.4123
110.204
5.22476
68.6047
97.0873
14.8985
121.113
52.8051
6.3208
38.4463
31.4456
6.56176
39.3235
14.3574
18.276
13.7205
211.289
114.281
68.0232
86.3246
5.3895
6.78363
112.776
69.8855
68.9371
65.5405
71.0668
73.0159
145.054
57.1008
44.6513
110.575
6.59414
58.6632
121.082
94.5218
18.0614
4.93918
4.43833
4.20809
2.18886
11.7892
22.2485
82.0749
8.85647
11.8639
44.7648
10.3385
76.3639
103.269
90.6546
4.79755
89.706
38.0677
6.84455
5.37655
6.0501
8.90676
203.158
10.6519
94.9426
18.5986
15.7484
7.33582
4.34202
100.128
6.74327
10.5896
73.9048
11.0264
93.6745
85.0904
118
59.431
42.1272
22.9414
23.963
54.9968
14.7078
32.5125
90.907
4.07682
59.3175
76.1698
30.5783
65.8602
51.6646
115.466
22.3065
47.8936
11.2573
51.5505
105.646
35.8029
8.12148
7.63215
14.7444
12.8912
99.4544
78.397
40.0878
50.8169
143.481
25.8916
96.9506
56.3589
64.5651
58.4552
9.61316
68.7549
95.6117
7.17947
35.6769
97.5356
17.6441
138.435
35.5537
72.935
127.47
70.55
106.192
101.784
95.2225
98.0914
2.359
4.63342
10.0274
3.47151
26.2792
9.51825
62.3362
32.1927
77.1708
51.8205
111.822
72.9862
117.142
10.418
113.183
94.4205
10.5304
9.20737
129.315
42.053
15.2054
17.2479
70.7088
35.0395
169.729
31.2736
22.4979
9.99818
10.4358
66.8369
76.5228
57.0183
13.0964
187.449
71.0237
48.0122
128.195
7.95653
10.7807
80.915
66.5227
3.76698
7.8443
41.6825
10.2614
75.5316
129.76
31.838
14.4887
46.4342
162.665
66.3761
65.134
36.1957
73.1151
10.5199
7.83502
7.05487
4.15016
19.0354
1.93548
83.9477
6.38041
5.11477
120.703
12.5746
67.6317
29.8898
23.3788
)
;

boundaryField
{
    frontAndBack
    {
        type            empty;
    }
    wallOuter
    {
        lowReCorrection 0;
        type            epsilonWallFunction;
        value           nonuniform List<scalar> 
108
(
100.185
147.671
83.9684
5.91696
6.82015
18.1887
25.8634
8.1401
11.4661
19.4581
7.65045
27.9573
22.7483
9.42564
7.77745
7.67763
117.189
32.9147
19.9984
16.3477
12.5426
121.264
13.9253
34.3369
92.2672
102.744
86.6555
123.933
115.952
119.828
122.107
163.753
167.286
186.855
168.6
165.359
166.123
166.504
153.507
211.633
131.982
147.77
237.207
251.998
160.885
226.523
165.157
160.289
151.626
83.562
8.31954
31.5451
141.862
9.28237
98.5109
138.946
36.0574
139.719
65.2631
9.186
104.138
100.446
67.9112
40.5185
39.1026
13.4015
39.8227
29.802
41.5889
91.0293
2.48547
2.48547
11.5133
12.3757
12.5674
12.7272
133.593
12.6351
12.9362
12.7714
13.0431
41.6795
45.7057
10.8023
11.1522
12.353
12.7706
65.9331
114.018
75.45
8.34017
55.0155
84.7301
142.792
49.0305
58.0143
130.637
82.8348
66.0133
10.4123
112.776
65.5405
11.8639
38.0677
10.6519
7.63215
14.7444
143.481
)
;
    }
    inlet
    {
        type            fixedValue;
        value           nonuniform 0();
    }
    outlet
    {
        type            zeroGradient;
    }
    wallInner
    {
        lowReCorrection 0;
        type            epsilonWallFunction;
        value           nonuniform List<scalar> 
126
(
30.2066
81.3804
1.77318
3.54302
60.1556
73.1725
5.02892
1.97939
20.0292
79.593
3.1754
48.3492
4.21668
16.3417
46.4792
27.7981
3.85345
13.9995
6.80941
14.3119
64.3786
6.13063
56.0563
21.9488
10.9934
34.0702
72.1182
8.63115
5.70841
22.3411
10.9985
2.78761
75.8032
83.0887
58.0691
36.1612
3.66563
78.5143
11.0312
65.0097
56.048
6.06578
1.94393
74.9203
54.3904
3.61878
1.85753
19.1777
5.38858
128.479
29.9156
10.3805
114.152
122.139
91.1471
3.3926
39.2166
156.276
136.649
56.7863
9.64832
12.4028
38.0659
223.541
36.8514
168.931
114.123
19.7845
63.7493
107.194
110.179
108.219
14.9714
101.263
86.8005
219.74
9.93733
6.90029
15.9861
6.51759
13.5714
10.1301
171.431
199.766
182.839
221.102
171.788
195.835
36.1732
255.556
123.938
85.0904
54.9968
187.449
48.0122
128.195
7.95653
10.7807
80.915
3.76698
7.8443
41.6825
10.2614
75.5316
129.76
31.838
14.4887
46.4342
162.665
66.3761
65.134
36.1957
73.1151
10.5199
7.83502
7.05487
4.15016
19.0354
1.93548
83.9477
6.38041
5.11477
120.703
12.5746
67.6317
29.8898
)
;
    }
    procBoundary1to0
    {
        type            processor;
        value           nonuniform List<scalar> 
29
(
1.74162
1.74162
2.76808
3.04703
43.0049
38.8582
127.056
28.8283
77.5324
9.31171
21.3863
38.8582
2.76808
1.49745
65.7894
21.6099
43.0049
53.1749
3.04703
1.58827
10.7403
6.13043
62.5401
10.8519
10.8519
62.5401
7.37289
78.3616
7.37289
)
;
    }
    procBoundary1to2
    {
        type            processor;
        value           uniform 4.87205;
    }
    procBoundary1to3
    {
        type            processor;
        value           nonuniform List<scalar> 
48
(
89.5244
81.0586
84.5321
84.5321
54.0575
88.7382
88.7382
9.32951
73.152
8.36005
5.15744
8.36005
7.93612
4.32698
4.11294
7.93612
4.63382
4.63382
4.19849
4.19849
2.83715
2.48182
3.93938
23.1343
23.1343
2.23
1.83607
1.83607
3.38136
43.4239
11.448
3.38136
9.32951
54.4103
1.70087
43.4239
24.4203
5.15744
87.1647
45.6007
3.4111
39.6734
54.4103
1.70087
4.38034
67.5415
48.7583
3.4111
)
;
    }
}


// ************************************************************************* //
