/*--------------------------------*- C++ -*----------------------------------*\
| =========                 |                                                 |
| \\      /  F ield         | OpenFOAM: The Open Source CFD Toolbox           |
|  \\    /   O peration     | Version:  v1912                                 |
|   \\  /    A nd           | Website:  www.openfoam.com                      |
|    \\/     M anipulation  |                                                 |
\*---------------------------------------------------------------------------*/
FoamFile
{
    version     2.0;
    format      ascii;
    class       volVectorField;
    location    "0.31";
    object      U;
}
// * * * * * * * * * * * * * * * * * * * * * * * * * * * * * * * * * * * * * //

dimensions      [0 1 -1 0 0 0 0];


internalField   nonuniform List<vector> 
1466
(
(0.143213 2.30027 0)
(-0.0762665 2.89458 -8.54211e-17)
(0.656634 -0.102396 -1.41721e-16)
(0.0172282 1.89129 1.21089e-16)
(-1.12006 -0.217062 -5.74043e-16)
(-3.57328 -0.271358 -2.6049e-16)
(-0.160881 -0.143296 2.9239e-16)
(-1.00216 -1.00958 3.85051e-16)
(-1.65264 -0.795578 1.26937e-16)
(-0.751808 0.208608 6.96772e-16)
(0.456699 -0.258303 -1.57226e-16)
(1.85364 2.32097 1.07348e-16)
(-0.0962912 -0.075106 9.71421e-18)
(0.683871 1.70269 -9.79208e-17)
(1.76701 0.337272 -2.10349e-18)
(0.0428527 0.964417 -8.52196e-21)
(0.681522 -0.0302502 6.44101e-17)
(0.0137342 1.88189 -1.18619e-16)
(-0.627203 -0.385808 -1.64912e-16)
(0.0762096 1.71769 0)
(0.0597632 -0.484583 1.40807e-16)
(0.672235 0.364717 -3.25311e-16)
(2.27068 0.0892669 0)
(0.0827267 2.98052 5.18988e-17)
(0.8275 1.65266 -1.47176e-16)
(0.1099 -0.210733 1.88915e-16)
(0.11277 -0.116602 2.11615e-16)
(1.3501 0.524896 2.43505e-16)
(0.0700539 -0.0753324 0)
(-1.52684 -0.381327 3.6821e-16)
(-1.25979 -0.742418 0)
(-4.26213 -0.612279 4.18893e-16)
(0.306084 0.519992 -2.96658e-16)
(-1.89764 -0.575479 -8.47664e-17)
(0.368912 1.78271 0)
(1.27182 0.324368 2.31929e-17)
(-0.675199 0.254053 -1.61977e-19)
(1.21367 -0.207503 0)
(-3.39621 -0.988169 -3.31023e-16)
(1.02773 0.293881 2.7566e-16)
(2.15952 2.0359 -1.20926e-16)
(0.50019 0.239666 -1.80567e-16)
(-1.59174 -0.887979 -3.51264e-16)
(-1.17925 -0.887794 2.03292e-18)
(2.54258 1.01449 0)
(-1.98483 -1.00578 4.24934e-19)
(1.22275 -0.370951 -1.51507e-16)
(-0.00706234 1.61311 8.54932e-17)
(0.413824 0.168561 -2.59474e-16)
(0.228672 -0.476408 -7.94299e-17)
(-0.169899 -0.335785 0)
(-0.932352 0.0826557 -2.81347e-16)
(-0.892692 -0.147042 3.93767e-16)
(-2.54901 0.0124487 2.93472e-16)
(1.21413 0.223033 3.57036e-16)
(0.310128 1.00743 -1.12011e-16)
(1.56491 -0.300294 0)
(0.589025 -0.481852 2.87909e-16)
(0.564246 0.0763193 1.40164e-17)
(0.164789 0.632188 0)
(0.0136385 1.05579 -2.17797e-18)
(-2.25836 -0.335105 8.8004e-17)
(-1.3291 -0.298614 1.23312e-16)
(-4.96155 -0.592476 -2.27891e-16)
(-0.241581 2.12262 1.49989e-16)
(0.208203 1.70703 -2.9284e-17)
(0.530847 1.41466 -3.20778e-17)
(-0.103054 -0.432897 -1.8058e-16)
(-0.0359661 1.90873 -1.08871e-17)
(0.626523 0.430973 0)
(0.239218 -0.233193 0)
(-0.0124834 2.02138 -5.00308e-17)
(0.885901 -0.0805094 -4.83518e-16)
(0.106354 1.98241 -1.69721e-16)
(0.302436 0.0925393 3.82317e-17)
(0.820391 0.248137 -1.73746e-16)
(0.0572296 1.93292 4.19095e-17)
(-0.0342684 1.96621 1.49083e-16)
(-0.20047 0.0850242 0)
(0.0541548 0.742719 0)
(0.586751 -0.348804 -3.15097e-17)
(0.206233 1.77317 1.71044e-16)
(1.76246 -0.0886274 0)
(0.36966 0.102478 1.64172e-18)
(0.831189 -0.0425133 1.7813e-16)
(0.472074 -0.355429 -8.92778e-17)
(0.789118 -0.0420456 -2.36781e-16)
(-0.45365 1.30155 1.23393e-16)
(0.340976 1.83252 -3.19181e-17)
(0.281998 2.19011 5.0493e-18)
(0.124758 2.01122 8.71373e-17)
(-0.00215931 -0.147641 0)
(-0.145073 0.435023 -6.12428e-17)
(-0.0068987 1.86773 1.62325e-16)
(-0.437723 -0.257429 0)
(0.0307498 -0.301856 -1.96047e-16)
(0.0451146 1.80923 5.17689e-16)
(0.683782 0.133104 0)
(0.0997672 1.95999 1.23618e-16)
(0.171642 1.92248 -1.37504e-16)
(-0.0703866 0.0211189 0)
(1.43494 0.811148 -7.43304e-17)
(0.777043 -0.00833147 3.62296e-16)
(-0.104572 0.893344 -1.42699e-16)
(1.6559 -0.505469 0)
(-2.43742 -1.06824 -1.884e-16)
(-0.243247 -0.310975 1.64783e-16)
(1.73395 -0.282581 -5.88508e-18)
(0.167892 2.63861 3.93361e-17)
(1.15836 1.28515 5.13952e-18)
(0.517353 0.0376395 1.91191e-17)
(0.180176 -0.259221 4.86531e-16)
(-0.867855 0.462091 -2.94877e-16)
(1.15018 -0.186274 -6.08106e-20)
(-0.0948828 -0.198274 -1.93217e-17)
(-0.0492244 -1.72415 0)
(0.306682 1.71052 -6.82356e-17)
(0.447051 1.79427 4.72717e-16)
(0.21428 2.1637 2.53503e-17)
(0.603647 -0.341996 -4.31788e-16)
(-0.396339 -0.277614 1.73785e-16)
(0.1927 2.20307 0)
(0.16264 0.692287 -7.01159e-17)
(-0.510165 1.21723 -6.46735e-17)
(0.341597 1.61865 2.55021e-16)
(-0.21926 -0.603625 -1.10674e-16)
(0.0311128 0.0746987 2.72272e-17)
(-0.0745464 0.900362 0)
(-0.158962 0.0514991 6.20146e-17)
(0.871874 1.17591 -2.55096e-16)
(0.350705 -0.0393538 1.20877e-16)
(-0.0134683 1.91996 -1.77872e-20)
(0.447437 1.31769 1.94772e-17)
(0.820366 1.86585 -4.84192e-17)
(-0.153761 -0.388952 -9.99919e-18)
(-0.0469225 0.825574 1.42662e-16)
(0.616806 0.317448 0)
(0.753354 -0.0931643 0)
(2.99789 0.590536 2.5574e-17)
(0.030572 1.23784 8.05264e-17)
(-0.670924 0.271454 -9.48298e-17)
(-0.233798 -0.172312 -1.5745e-16)
(-0.155318 -0.251477 7.11523e-17)
(-0.0428462 1.12903 -3.90195e-16)
(2.79123 0.766555 1.02463e-16)
(0.543753 0.655538 0)
(-0.692441 0.425357 0)
(0.00118281 1.22823 0)
(0.627337 2.21008 5.54519e-17)
(0.853437 -0.0542433 2.32138e-16)
(-0.171792 -0.289385 -1.41174e-16)
(0.176784 0.289186 4.05214e-18)
(0.345116 2.13875 9.58173e-17)
(0.00217424 2.18302 -1.65903e-17)
(0.190609 2.07601 -1.37196e-16)
(0.257522 -0.209348 -8.28321e-17)
(-0.0340911 2.01101 -2.88354e-16)
(-0.0242725 1.23437 1.62998e-16)
(0.00905359 -0.593209 -6.93227e-17)
(0.100185 1.41984 0)
(1.72813 0.819718 8.44961e-17)
(0.224799 1.78132 -2.02524e-17)
(-0.0693141 2.07978 2.1501e-16)
(-0.182112 -0.309495 1.7437e-16)
(1.12474 0.737106 -4.05735e-18)
(-0.118523 0.889984 -4.87945e-19)
(0.250687 0.178364 0)
(0.607271 0.581561 8.46644e-17)
(0.114244 1.50956 3.96781e-18)
(0.0769715 0.0917127 3.54027e-16)
(0.365636 -0.24508 2.47528e-16)
(0.540967 -0.315586 2.33498e-16)
(0.153854 0.183973 0)
(0.290382 2.35663 6.76673e-17)
(0.0431628 -0.163568 -7.95315e-16)
(-0.187851 2.19841 1.36016e-16)
(0.864315 0.626706 1.3923e-16)
(-0.0164615 0.351168 -2.21669e-17)
(1.68435 0.524264 -1.09762e-16)
(-0.0959102 0.399476 2.14484e-17)
(-0.00987199 2.0382 -1.57546e-16)
(1.35521 -0.570093 1.72354e-16)
(0.284957 -0.099155 -3.06616e-16)
(0.257197 1.76816 -4.27967e-16)
(-0.362699 1.70775 -2.93781e-16)
(0.629412 1.68093 4.67804e-16)
(1.336 -0.326049 0)
(0.385562 -0.601401 0)
(1.28663 0.102921 -4.42192e-17)
(-0.0542829 0.895168 0)
(-0.28974 1.22978 0)
(0.107636 1.14333 1.09331e-16)
(0.242778 1.8071 1.7653e-17)
(-0.22417 2.00629 -5.89162e-17)
(1.37433 -0.552116 3.09687e-19)
(-0.0359088 2.03565 0)
(3.18715 0.464716 -3.24141e-17)
(1.33412 0.978021 -1.06255e-17)
(1.27946 1.10545 -1.02387e-17)
(1.07256 1.38659 -4.85982e-18)
(-0.658101 1.28897 -7.80878e-17)
(0.268086 -0.225565 3.02606e-16)
(1.69716 -0.429709 -4.76823e-17)
(0.158689 1.60504 2.10937e-16)
(0.349755 0.486084 0)
(0.377567 0.254842 3.33727e-16)
(1.34565 -0.484893 1.31772e-16)
(-2.23626 -0.897142 9.72484e-17)
(1.26166 0.555358 4.07851e-17)
(0.878885 0.381716 9.03753e-18)
(1.12188 0.695463 4.3384e-17)
(-0.529468 1.33661 1.14667e-18)
(0.179757 -0.273599 -1.03925e-16)
(0.837488 -0.182195 -1.05785e-19)
(0.149987 2.07254 -5.98966e-17)
(1.313 -0.119564 2.2715e-17)
(0.0399953 0.274998 -7.94599e-17)
(-0.41513 0.10528 0)
(0.240172 1.88576 0)
(0.05429 2.07336 -3.51308e-20)
(0.228379 1.38086 1.37428e-16)
(0.288212 2.40815 0)
(0.111377 1.49856 5.02687e-17)
(1.07115 -0.310455 3.30423e-17)
(0.124572 2.43908 -3.64478e-17)
(0.895536 -0.311798 0)
(0.820026 1.29047 6.71026e-17)
(0.323596 1.05447 1.05767e-16)
(-0.747336 0.0522439 2.4893e-18)
(-0.577627 -0.173348 -3.54277e-16)
(0.716375 -0.152052 2.54424e-16)
(-0.52872 0.852492 0)
(0.345299 1.72778 -1.01076e-16)
(0.492609 0.0120411 1.28364e-19)
(1.77614 0.123884 0)
(0.68274 0.846814 0)
(0.446064 -0.034784 0)
(-1.20067 -0.616437 -4.9678e-16)
(0.406148 -0.0783756 -1.13073e-16)
(0.899113 1.4443 0)
(-1.12412 -0.470537 1.38164e-16)
(0.351188 -0.136532 3.25774e-16)
(0.2046 -0.112313 -3.80312e-17)
(0.790088 0.41721 -6.98256e-16)
(0.646767 0.525956 0)
(-0.939894 -0.0577538 -1.53377e-16)
(0.0518222 -0.0452152 -5.34311e-19)
(-0.477079 -0.18053 3.11609e-16)
(-0.738975 0.0738222 0)
(-0.855709 -0.122495 -5.16481e-18)
(0.257221 1.97366 -5.60129e-16)
(1.33683 1.65629 -7.02521e-17)
(0.318754 0.126556 -1.30696e-16)
(-0.615839 0.794716 4.17813e-16)
(0.434705 1.43689 0)
(1.08831 1.75238 1.22189e-16)
(0.961693 1.02512 -1.018e-17)
(0.738156 0.38173 -5.69281e-17)
(-0.1687 -0.880395 1.195e-16)
(-0.34573 0.291478 -1.11358e-16)
(0.743048 -0.195693 -1.16828e-19)
(0.933819 -0.178109 2.42455e-16)
(1.05608 1.71819 7.9526e-19)
(0.212572 1.5156 -2.02666e-17)
(-2.14639 -0.135624 -1.49059e-16)
(1.87377 0.176742 -2.06052e-16)
(-2.456 -1.22065 8.09334e-17)
(-0.588534 1.02751 1.35544e-19)
(0.338368 -0.270057 -6.32091e-17)
(0.0109371 2.05864 -4.50592e-17)
(0.507102 2.13947 -6.94485e-17)
(0.0620416 2.03695 4.80897e-17)
(0.652678 -0.128141 2.8426e-17)
(0.50342 0.78618 2.65799e-18)
(1.03596 -0.156991 -3.62905e-16)
(0.542755 0.110747 6.02065e-17)
(-0.610545 0.632874 1.23359e-16)
(0.496215 1.04717 0)
(-0.0628388 1.02401 -5.17446e-18)
(0.487335 0.392406 1.89209e-16)
(1.04842 1.02792 2.19418e-17)
(-0.891327 0.0138783 0)
(-0.695605 -0.163367 -5.00516e-19)
(-0.12582 -0.0156185 4.67045e-18)
(0.286887 -0.79871 -7.98286e-17)
(0.61392 -0.0537743 -9.19147e-17)
(0.40317 -0.487011 0)
(0.359265 -0.0845147 0)
(0.38808 1.6093 2.46413e-16)
(0.0890315 1.20908 1.11787e-16)
(0.789754 -0.290784 -1.97434e-16)
(-2.81693 -1.7373 -3.57116e-17)
(0.503486 -0.488706 -3.93336e-17)
(0.315822 0.263062 0)
(0.236169 -0.00317794 -1.81451e-16)
(0.380379 -0.335496 0)
(0.480567 0.113542 8.04119e-17)
(-0.572053 -1.9553 2.56603e-19)
(0.262386 -0.39207 0)
(0.271709 0.519358 -1.94896e-16)
(0.344327 -0.531068 -5.69104e-17)
(-0.867724 1.2136 3.1412e-16)
(0.12266 0.0994917 -3.82173e-17)
(0.425064 -0.51045 7.19371e-17)
(1.63889 0.442271 2.01322e-16)
(0.769832 0.326912 -3.51471e-16)
(-0.698803 -0.157508 -1.4986e-16)
(0.403499 -0.00257896 -1.29997e-16)
(-0.322623 5.29558e-05 4.73805e-18)
(-3.3515 -2.32358 1.72152e-16)
(-0.568522 0.10864 2.93947e-16)
(-0.499066 -0.146377 3.65358e-17)
(0.385527 -0.265307 -1.23594e-16)
(0.854489 2.84319 -1.61854e-16)
(0.314091 0.0268446 6.58465e-17)
(0.200585 -0.174582 -2.34189e-17)
(-0.519077 1.02758 -2.19724e-19)
(0.0314319 -0.149895 1.81837e-16)
(3.31409 0.645109 0)
(-0.0273085 0.132049 -3.59952e-17)
(0.876703 -0.405227 -2.72006e-17)
(0.0473209 1.30659 -1.43281e-16)
(0.274162 -0.175708 5.70575e-16)
(1.6131 0.00161016 -1.39846e-16)
(-0.302758 0.0191216 1.6233e-16)
(-0.994555 0.0505678 -1.07357e-16)
(0.000693016 -0.0601295 1.95867e-17)
(-0.467205 -0.0956679 0)
(0.280032 -0.0690657 0)
(0.60398 -0.165809 -1.31732e-16)
(-0.866733 -0.125982 0)
(1.60533 -0.0877894 2.96273e-16)
(0.109483 -0.0539036 1.8411e-17)
(1.12638 -0.126086 0)
(-0.400951 0.0122363 -1.09343e-17)
(1.69536 -0.0295862 0)
(-0.0299599 -0.0363308 -4.59768e-17)
(-0.0625747 -0.0748146 -1.18123e-16)
(-0.644767 0.227337 -1.3307e-17)
(0.332542 -0.117579 1.40843e-16)
(-1.33929 -0.0952643 0)
(1.36414 -0.204624 -2.30395e-16)
(-0.643644 0.136642 0)
(-0.313825 -0.0666483 0)
(-0.970243 -0.0259464 -1.15828e-16)
(0.0957117 -0.0172594 0)
(-1.24771 0.0947457 -6.75862e-17)
(0.367955 -0.185345 7.63775e-17)
(0.066611 -0.540457 9.77111e-17)
(0.25579 1.45229 -2.76737e-16)
(0.248499 0.162931 5.06487e-17)
(0.650938 -0.201389 4.92094e-16)
(0.328754 0.368145 -4.76024e-17)
(0.497175 0.0663786 -3.97017e-16)
(0.448945 0.0324833 2.30659e-16)
(0.1587 -0.167066 -4.32499e-18)
(-0.457062 1.24602 -2.93954e-16)
(-0.168285 1.01151 3.1309e-16)
(-3.41373 -2.05617 -1.06823e-18)
(0.450263 -0.39966 -1.81484e-16)
(0.424485 1.34129 0)
(0.174767 1.1796 1.49366e-16)
(-0.0528637 1.39952 1.56223e-16)
(1.21038 -0.0864628 -2.22265e-16)
(-0.0944547 2.20018 2.56221e-17)
(-0.716302 -0.113543 0)
(-0.145618 -0.0702501 -2.00154e-17)
(0.2134 -0.0504122 -1.3276e-17)
(0.942709 -0.236813 1.09315e-16)
(-1.46238 -0.0187984 0)
(0.166678 -0.0375654 1.76539e-17)
(0.0902764 -0.0680194 -8.3454e-17)
(-1.09206 0.145815 -2.1357e-16)
(1.71373 -0.0662849 0)
(0.803887 -0.0552032 -3.58706e-16)
(-0.530819 -0.0550537 0)
(-0.880235 0.113278 7.48187e-17)
(-1.63647 -0.883732 -7.11143e-18)
(0.86023 -0.132307 3.31469e-16)
(-0.0431804 -0.100373 -2.00325e-16)
(0.674269 -0.0696047 2.43389e-17)
(0.4685 2.87541 -1.72524e-17)
(0.339262 -0.471082 -6.81352e-18)
(-0.350654 -0.212291 -7.56133e-17)
(0.2411 2.84339 -1.50841e-17)
(0.484042 -0.48189 3.5031e-16)
(0.497066 -0.135955 9.19237e-17)
(0.408573 -0.345768 0)
(0.459188 -0.111886 0)
(-0.262803 -0.709546 0)
(-0.22661 -0.698952 3.07363e-16)
(1.31789 0.879675 0)
(0.00396683 2.45596 8.59564e-18)
(-0.194164 -1.5631 5.92744e-17)
(-0.260307 0.0779518 -3.82428e-17)
(1.27188 0.821862 -6.1715e-17)
(-0.0773398 1.9882 1.28157e-18)
(0.142726 -0.115371 -1.25883e-16)
(1.60489 -0.493882 -7.01393e-17)
(-0.0533894 -0.0418372 4.84122e-17)
(-0.0521842 0.445595 3.22952e-17)
(0.201648 -0.125639 -3.70784e-18)
(-0.106235 2.40009 -1.14377e-16)
(0.601314 -0.181116 -2.37012e-17)
(2.11359 0.845091 0)
(0.211895 -0.863268 2.3154e-16)
(0.00776629 0.542921 -1.20024e-16)
(-1.69934 -1.13088 -2.16618e-16)
(0.854521 -0.428565 -8.0423e-17)
(-1.09239 -0.10581 -8.68396e-17)
(0.366332 -0.563232 1.89292e-17)
(-0.250439 2.76763 -2.33533e-16)
(0.341345 -0.35286 5.01881e-17)
(0.0847288 2.39833 2.77055e-17)
(-0.776281 -0.461848 -3.81819e-17)
(-0.0389629 -0.409253 1.38593e-16)
(0.183116 0.565733 -2.94148e-17)
(1.09098 0.618538 1.66925e-19)
(-0.122683 -0.647696 0)
(-0.0561039 -0.572047 0)
(0.850739 0.227421 6.11075e-16)
(-0.186165 -0.568995 7.74534e-17)
(0.138562 0.480529 -1.50328e-16)
(-0.407011 0.29896 5.3744e-16)
(-0.126758 0.426088 -3.23444e-16)
(-0.0981357 0.480367 6.84468e-16)
(-0.257749 0.652169 -1.4966e-16)
(-0.121841 0.397045 -4.15647e-16)
(-0.306532 0.0474686 -2.96307e-16)
(-0.157712 0.0858774 -3.19488e-16)
(-0.584514 0.771782 -1.72433e-17)
(0.38129 -0.497725 -3.83715e-17)
(0.179339 0.0878401 3.7357e-17)
(0.364392 1.04011 -8.84723e-19)
(0.47541 0.363297 -1.07086e-16)
(0.106022 0.0883651 -1.74726e-16)
(-0.442205 -0.115006 2.6039e-16)
(-1.09347 -1.02695 2.12042e-16)
(0.421862 0.525881 4.00066e-16)
(0.94582 1.50299 -1.49698e-16)
(0.790598 1.59107 -3.91999e-17)
(-0.230167 -0.682686 0)
(0.74309 1.54128 2.97238e-16)
(0.234609 -0.158258 4.18631e-17)
(0.856607 1.00916 -2.03186e-16)
(-0.329358 0.378593 -2.52679e-16)
(0.761949 1.50778 0)
(0.422829 1.18971 2.6451e-16)
(-0.747818 -1.68332 0)
(0.948284 0.371846 6.03158e-17)
(-1.1496 -1.98877 1.78756e-16)
(-0.616868 0.194862 0)
(0.0286561 -0.247994 -4.7886e-17)
(0.712356 0.255728 -3.30118e-16)
(-0.117796 0.333096 -8.8344e-17)
(0.098984 0.142689 -3.1789e-16)
(0.157301 1.04725 -4.32745e-19)
(-0.266536 0.721986 0)
(0.0190273 -0.194957 0)
(0.662872 0.0386523 -1.05617e-16)
(-0.0609951 0.710053 1.81958e-16)
(0.34175 0.0575316 2.98375e-18)
(0.559732 0.0591897 2.94691e-16)
(0.749151 0.000175838 3.35916e-16)
(0.535186 1.73812 -5.38343e-17)
(0.107563 0.792253 0)
(0.233357 0.338298 1.96053e-16)
(0.432309 -0.808594 -9.77236e-18)
(-0.612788 0.604987 0)
(0.348831 -0.399043 1.02812e-16)
(0.427141 1.0916 3.10881e-17)
(0.332078 0.145043 -3.14521e-17)
(0.61685 -0.188429 -2.45893e-16)
(0.0922257 -0.0939697 6.4479e-17)
(-2.96417 -0.574468 -5.97144e-16)
(-0.99298 -0.920732 -6.13045e-16)
(-0.0564298 -0.133383 0)
(0.00963867 -0.0591325 -4.48617e-17)
(-0.40981 -0.599983 -1.12155e-16)
(-4.20726 -1.02496 1.47012e-16)
(-0.677525 0.454721 -4.48561e-17)
(0.515609 -0.995954 -4.4829e-17)
(-3.891 -0.880829 2.70599e-16)
(0.252449 -0.766112 -1.43143e-16)
(-0.723841 -0.611638 0)
(-0.904203 0.221826 1.10511e-16)
(0.548171 -0.683116 -4.69899e-16)
(0.281668 -0.559551 5.70052e-17)
(-2.85774 -0.906589 -1.38699e-16)
(3.29749 0.473567 -3.2263e-17)
(-0.752873 -0.802887 -1.42329e-16)
(-0.808141 -0.0797651 -8.14784e-17)
(0.361006 -0.475187 8.40881e-17)
(0.245302 -0.580625 -3.88739e-17)
(-0.729399 2.42061 0)
(-0.344291 -0.902473 1.43784e-16)
(-3.80228 -1.19043 -1.66497e-18)
(0.104136 0.788204 1.48186e-16)
(0.127358 0.890412 -1.15833e-17)
(0.336914 1.2026 1.01386e-17)
(-1.19397 -0.440718 1.55461e-16)
(0.735443 -0.15124 1.0608e-17)
(-0.403593 2.27619 3.68399e-17)
(-0.0076885 2.84976 -3.589e-17)
(0.212743 -0.459201 4.12518e-17)
(-0.184893 2.21103 -8.33526e-17)
(2.92635 0.47633 2.39242e-16)
(0.507526 0.083674 -1.79816e-17)
(1.54295 1.16426 -2.83319e-16)
(0.674534 0.485099 -8.90327e-18)
(1.02211 1.50992 -3.4225e-16)
(-0.789668 -1.00833 0)
(1.23894 1.587 2.14951e-16)
(0.445068 -0.219306 6.8581e-17)
(0.117607 -0.415821 -5.78258e-18)
(1.22107 1.28235 -6.57939e-17)
(-0.849405 -0.448718 2.34504e-18)
(0.278434 -0.0961021 -8.69615e-17)
(0.703447 -0.0215411 -4.81335e-16)
(0.659163 -0.216828 -1.73255e-16)
(0.588841 -0.183579 8.17684e-16)
(-0.640871 -0.923587 4.37872e-17)
(0.0706152 1.46085 1.16245e-18)
(0.329955 0.520507 2.74368e-16)
(0.449527 1.11354 0)
(-0.240949 -0.704495 2.32951e-16)
(0.207784 1.63327 0)
(0.088911 1.36942 7.82855e-17)
(-0.182765 -0.341629 7.92053e-17)
(0.0696379 -0.426921 -4.56161e-17)
(-0.177719 -0.680245 3.05369e-16)
(-0.116552 1.47457 -3.96612e-17)
(0.830381 0.390381 -5.50711e-17)
(1.19329 0.758991 1.05862e-16)
(0.262891 -0.412977 0)
(0.170575 1.18854 0)
(1.58595 1.18872 1.36407e-16)
(0.303875 1.14823 -3.03799e-17)
(0.366146 -0.417638 -4.01474e-17)
(-0.1403 -0.585376 -3.89898e-16)
(0.208107 1.17574 3.87837e-17)
(-0.0405233 0.0296539 4.81743e-17)
(0.453414 1.3692 2.11921e-16)
(0.178435 0.624134 -1.33007e-16)
(1.04648 0.821156 8.72168e-17)
(0.38823 -0.564624 -4.39277e-17)
(-0.460328 -0.0439652 0)
(-0.726557 -1.66461 0)
(-0.33023 -0.475457 0)
(-1.18198 -0.652643 8.01516e-17)
(0.730582 0.0952788 2.47483e-16)
(1.87351 -0.385666 -6.54165e-18)
(0.272985 0.420998 7.94571e-17)
(-0.0722681 0.0915469 7.9965e-17)
(-0.147331 0.946428 -1.19114e-16)
(0.037288 1.05628 0)
(-0.658521 0.752741 -1.21596e-16)
(0.272076 -0.345781 -5.2732e-17)
(0.368579 0.450025 -1.25335e-16)
(0.867999 1.6663 -5.35202e-17)
(0.216312 -0.268079 4.64899e-16)
(0.257601 -0.57118 1.1577e-17)
(-0.149425 0.462488 8.1178e-17)
(-0.9991 -1.93509 0)
(2.44859 0.634052 -3.99305e-16)
(0.0777751 0.288402 -8.9115e-17)
(0.962379 -0.49706 0)
(0.483918 0.71808 4.02205e-17)
(1.38751 1.13971 -9.056e-18)
(-0.393839 -1.88914 1.71721e-17)
(2.06008 -0.116265 0)
(0.346417 0.890282 0)
(1.64101 1.40564 7.27628e-17)
(2.26007 1.11944 1.46084e-16)
(-0.206267 0.361889 -6.7521e-17)
(1.72048 1.42051 8.83654e-17)
(0.536201 0.175686 1.25365e-16)
(0.193937 -0.314588 0)
(1.46666 1.41693 -1.01589e-16)
(1.70679 1.48597 7.23777e-17)
(0.307529 -0.41541 -9.80437e-17)
(1.19909 0.362826 7.15388e-17)
(0.178509 1.08918 0)
(-0.13094 2.03447 1.92129e-16)
(1.37972 -0.409895 0)
(-2.39673 -2.20919 8.52726e-19)
(-1.33449 -1.04654 -1.53983e-16)
(-0.25367 0.197836 8.11531e-17)
(-0.230933 -1.7988 0)
(0.829263 0.102695 9.78282e-17)
(-0.304855 0.179443 -1.93355e-17)
(1.1121 0.245344 1.45772e-16)
(3.14522 0.840381 3.22221e-16)
(0.504725 0.058955 0)
(-0.889553 -0.684114 0)
(0.257227 0.16079 -7.82906e-17)
(0.350787 1.66173 -6.56854e-17)
(-0.152224 -0.290348 -1.0842e-17)
(-0.32037 -1.27613 0)
(-0.125271 1.56415 -1.39043e-16)
(-0.46411 -1.82838 1.19054e-16)
(-1.04491 -0.601201 -1.49996e-16)
(0.646637 0.28335 -3.16685e-16)
(0.054851 0.166433 3.7372e-16)
(0.168638 -0.189427 2.08324e-16)
(0.603205 1.92663 2.05294e-16)
(0.393264 1.10274 0)
(0.35281 -0.346145 -1.47782e-16)
(-0.923871 -0.252692 1.16115e-19)
(-0.268635 -2.06313 3.30786e-16)
(-0.125348 0.0302845 -1.11542e-17)
(-1.07141 -0.343708 6.47438e-17)
(0.431261 -0.356872 2.50103e-16)
(0.0426657 -0.30976 -3.64735e-16)
(0.097226 -0.00786544 0)
(0.184445 -0.232695 -1.89438e-16)
(-1.0664 -1.26133 -7.55353e-18)
(0.341984 1.6365 -4.27179e-16)
(0.38562 1.28139 -1.39958e-19)
(-0.803102 -0.170102 -1.64204e-16)
(0.412515 0.446025 -1.67686e-16)
(1.01403 -0.579347 -1.22292e-16)
(0.341702 -1.0252 -3.24835e-19)
(0.135817 -0.0295023 0)
(-0.237158 0.388174 0)
(1.48932 1.13006 -1.17348e-16)
(0.505485 0.0480011 -1.01983e-16)
(0.775507 0.665693 -4.58407e-17)
(0.927008 -0.602187 -7.79101e-17)
(0.17153 -0.504535 -1.22786e-16)
(1.28404 1.54681 0)
(-0.483721 -2.07597 -1.40241e-17)
(0.176877 0.0922767 -2.12229e-17)
(1.1271 0.0914536 1.90617e-17)
(0.17284 1.81951 6.16097e-17)
(-0.0551391 0.00537529 2.40418e-17)
(0.0254259 1.92318 0)
(0.0724317 -0.190985 8.53192e-18)
(-0.880318 -0.637203 -7.09756e-17)
(0.212247 0.364866 7.57853e-17)
(0.870292 -0.510567 0)
(0.188622 1.24334 -1.67739e-20)
(1.78755 -0.290567 -5.02968e-17)
(0.628997 1.23861 -1.93257e-16)
(0.290546 -0.148757 3.53785e-17)
(1.21648 1.11394 0)
(0.0575821 0.150927 -3.51818e-16)
(0.372157 1.61161 -2.6961e-16)
(-1.59455 -2.0339 1.26758e-16)
(0.810364 -0.337317 0)
(0.456996 0.395924 -3.83263e-17)
(-0.16185 -1.42943 0)
(0.0375936 -0.0109529 0)
(-0.0985511 0.890102 0)
(0.316274 -0.504621 -6.80516e-17)
(0.950818 1.01646 2.00905e-16)
(-1.12953 -0.703836 8.50879e-17)
(-0.276647 2.47562 6.21587e-16)
(0.746143 -0.117559 -4.58606e-17)
(-0.172391 0.08487 -2.75059e-18)
(0.0710145 0.874499 4.80149e-21)
(-0.223856 -0.753668 -6.20361e-18)
(1.94586 1.18253 -1.44376e-16)
(0.443125 -0.427332 1.26974e-16)
(-0.607448 -0.592519 1.03397e-16)
(0.204692 -0.126763 -1.09282e-16)
(1.62482 1.36517 1.22865e-16)
(0.436786 -0.229824 -3.90729e-16)
(0.0274389 -1.09235 0)
(0.160943 -0.163626 -8.25539e-18)
(0.696814 0.0946733 3.46262e-17)
(-0.151067 0.248816 8.97823e-17)
(0.531026 0.0091588 9.49567e-17)
(-0.146203 0.179603 1.49449e-16)
(-0.243712 0.0466869 -1.90136e-16)
(1.4584 0.0638601 -6.85872e-19)
(0.572905 -0.412397 1.9486e-20)
(0.0353419 -0.709727 0)
(-0.201055 0.491305 0)
(-0.176429 -0.711415 3.81741e-17)
(-0.849865 -0.144473 3.67943e-21)
(0.103045 0.502953 1.69961e-16)
(0.361572 0.0909556 0)
(0.215117 0.127165 1.2957e-16)
(0.456355 0.103619 0)
(0.119774 -0.137162 0)
(-1.35859 -0.922015 5.75436e-17)
(0.421878 -0.264039 -1.43988e-16)
(-0.454831 0.0450693 -4.17023e-17)
(-0.284782 1.30479 -3.27439e-17)
(0.245701 2.02814 6.71618e-17)
(0.675565 0.277368 -1.11963e-17)
(0.39865 0.665557 2.68012e-16)
(-0.0781997 -0.646075 1.07595e-16)
(0.176901 0.99677 -1.64928e-16)
(0.770548 0.689852 3.22462e-17)
(0.464796 0.581106 8.55187e-17)
(0.542981 -0.227451 -1.69761e-16)
(0.221902 -0.257352 9.40998e-17)
(-0.0515137 -0.202142 -2.12891e-16)
(1.42634 1.55784 1.9782e-16)
(0.280208 0.140218 -1.6279e-16)
(0.166656 0.218364 9.18839e-17)
(0.109938 0.977784 1.77302e-19)
(-0.140062 -0.440544 1.19837e-16)
(0.275614 2.53384 -2.05322e-17)
(0.0401477 0.0991925 0)
(-0.135053 -0.841604 0)
(1.58141 1.51445 -1.97292e-16)
(-0.860733 -0.410201 7.56533e-17)
(0.172004 0.479442 -1.62412e-16)
(-0.359347 0.107888 9.85826e-18)
(2.96094 0.296428 1.69802e-17)
(-0.891847 -0.395014 0)
(0.540894 0.396564 1.62029e-16)
(-0.061092 1.94018 0)
(0.259772 0.501414 0)
(-0.266107 -1.96561 -1.00271e-16)
(0.682607 0.458208 0)
(0.134102 0.0411995 -4.24963e-16)
(-0.0310095 1.78862 3.69765e-16)
(0.551214 0.436543 8.67031e-17)
(-0.240821 -0.0450217 -8.14294e-17)
(-0.14349 0.0718898 -8.11641e-17)
(-1.16579 -0.790435 -1.58082e-16)
(0.688263 -0.269112 -2.31288e-16)
(0.0452792 1.36269 1.48089e-16)
(0.848068 1.16678 -1.12704e-17)
(0.280778 1.49183 -2.51458e-16)
(2.46215 0.553046 -8.16166e-17)
(1.10145 0.612419 5.49281e-17)
(0.368789 2.04495 0)
(-0.258298 -0.707037 -2.17322e-16)
(0.343381 0.0326146 9.22071e-18)
(0.326091 0.0355811 -3.44745e-17)
(-0.904209 0.0467839 6.2685e-20)
(0.376664 0.0349904 -9.47272e-18)
(0.325247 0.0341037 0)
(-0.205417 -0.0922063 -2.50786e-16)
(-1.50934 -1.862 0)
(1.3059 -0.0774867 3.16472e-16)
(0.421855 0.0410523 -7.61606e-17)
(0.30459 0.00386464 0)
(0.0838535 0.641693 6.66765e-16)
(-0.0302238 2.14802 1.15955e-16)
(0.537296 -0.347348 -2.79917e-16)
(0.219876 0.168554 -3.86779e-16)
(0.59806 0.224836 2.33002e-17)
(0.266099 0.879954 0)
(0.903743 0.963839 2.04903e-16)
(-0.348553 0.151337 7.52633e-17)
(1.0821 0.0756376 1.29758e-16)
(-0.445021 0.277551 1.2519e-16)
(-0.158807 -0.538453 4.49437e-17)
(-0.101424 0.492754 3.82447e-17)
(0.0749648 1.8639 -5.32492e-20)
(-1.82295 -1.5243 -1.22225e-18)
(-0.0750664 0.183857 0)
(-0.0544079 0.554052 4.24734e-17)
(0.0533932 0.502356 0)
(0.76593 0.0691208 -8.98177e-20)
(0.835547 0.40002 -5.37666e-20)
(0.154052 -0.363974 4.95321e-17)
(-0.555716 0.274907 -1.17165e-16)
(0.789151 0.550803 0)
(-0.0139413 -0.427213 -6.36074e-17)
(0.0350436 0.470372 -3.34942e-16)
(0.907396 0.0700422 -2.68963e-16)
(-0.178398 0.207461 0)
(-0.57213 0.0448534 -2.21203e-20)
(0.261884 2.22531 -1.2611e-16)
(-2.44327 -0.472065 3.33111e-16)
(-1.00178 0.217424 4.85247e-16)
(0.398307 0.0976397 -4.15751e-16)
(0.0528065 -0.238896 -2.05955e-17)
(0.429178 -0.288407 1.7303e-16)
(0.236573 0.329617 -2.84221e-17)
(0.657177 0.784601 -1.51754e-16)
(0.165094 0.294325 1.09986e-20)
(-0.161826 -1.14571 9.90402e-17)
(-3.76467 -1.32545 4.62382e-16)
(0.183476 1.22021 -1.79709e-20)
(-0.248221 -0.0590868 0)
(-0.105652 0.153154 8.05814e-17)
(-0.0664169 -0.28573 5.43817e-20)
(0.367342 0.0369236 -1.06059e-16)
(-0.681833 0.211315 -7.68866e-17)
(0.216049 -0.267858 3.97512e-17)
(0.414639 0.542012 -2.76304e-16)
(0.0318052 1.35949 9.69264e-17)
(0.100628 0.823135 -7.48652e-17)
(0.677147 0.413472 1.35969e-16)
(-0.648898 0.0413186 1.86721e-16)
(0.217138 1.40069 2.50185e-16)
(-0.776211 1.03473 -1.71617e-16)
(0.283596 -0.745141 -4.00986e-16)
(0.165501 0.00824884 2.54191e-19)
(0.370874 -0.201799 -9.80891e-20)
(0.325061 0.930662 2.57143e-16)
(0.123419 0.990609 -2.22222e-16)
(-0.0231886 2.41776 0)
(-0.0851797 1.6581 2.22904e-16)
(-0.688141 0.0112726 -8.49743e-17)
(-0.56916 -0.0476848 3.50758e-17)
(0.120751 0.696474 2.27979e-17)
(-0.39977 0.0386131 3.80881e-17)
(0.581508 1.56395 1.10226e-16)
(1.64649 -0.396841 -8.52619e-17)
(-0.619935 0.362091 7.66841e-17)
(0.809356 1.89089 2.08443e-16)
(-3.34048 -1.67355 -2.82846e-16)
(-0.209007 0.0459022 -1.97254e-17)
(-0.579247 -0.19716 -3.06609e-16)
(0.560465 1.68527 0)
(0.0808918 1.5261 -5.67823e-17)
(-0.661069 -1.12746 1.90105e-19)
(-0.00472092 1.90433 -5.16755e-17)
(-0.551945 0.0267425 -3.68282e-17)
(-0.042438 1.58106 -2.11884e-16)
(-0.638591 -1.10265 5.64776e-17)
(-3.75894 -1.68199 -1.30606e-16)
(-0.160884 0.477614 -2.54714e-18)
(0.997251 1.3862 -5.95503e-17)
(0.0730759 -0.205013 8.26245e-17)
(1.37036 -0.0758076 0)
(1.49024 -0.0512469 0)
(0.144697 2.86797 -2.83029e-18)
(0.621567 -0.254362 -3.82929e-16)
(0.582461 -0.279889 2.113e-16)
(0.750071 -0.372113 0)
(0.255106 0.528561 0)
(-0.172187 -0.596994 -1.68384e-17)
(-0.363084 0.383109 -7.81907e-17)
(0.437502 -0.0771898 1.22458e-16)
(-0.855901 -0.184925 1.30273e-16)
(-0.0916043 0.201653 9.30594e-17)
(0.677419 1.53073 -7.01929e-16)
(-0.00630366 -0.477333 0)
(0.515573 1.02814 -8.73501e-17)
(0.847335 0.636599 -5.67615e-17)
(-0.23546 -0.266025 0)
(0.53743 -0.321119 -1.5375e-16)
(2.95679 1.12454 -1.75742e-16)
(0.87939 0.934634 5.82916e-16)
(0.558026 -0.00338036 -1.03603e-16)
(0.357104 -0.224121 -2.16305e-16)
(0.411054 0.797104 0)
(0.630952 1.09416 0)
(1.68167 1.4738 1.21409e-16)
(0.222805 -0.233251 -7.13867e-17)
(0.0808391 1.09725 1.66469e-16)
(0.128518 -0.558667 0)
(-0.122083 1.01362 7.64453e-17)
(0.157921 1.30621 2.16203e-19)
(0.287974 0.0694536 0)
(-0.024328 -0.538445 0)
(0.340889 -0.528849 4.52895e-17)
(-0.174362 -0.108924 0)
(-0.303476 0.182454 2.56077e-17)
(0.65006 0.063893 1.43649e-16)
(-1.18404 -0.998111 1.30934e-16)
(0.586829 -0.00769113 3.34607e-16)
(-1.34462 -0.116402 -9.81142e-17)
(-0.0877016 2.14654 -1.46265e-16)
(0.90627 0.255909 1.609e-16)
(-0.864893 -0.293244 0)
(0.032098 1.95448 -5.75865e-17)
(-0.707595 -0.0811199 1.63505e-16)
(0.126103 1.73182 0)
(-0.390665 0.214127 -1.32935e-16)
(-0.660191 -0.384541 0)
(0.547479 -0.0723797 -2.20535e-16)
(0.499639 1.64716 0)
(-1.22877 -0.810197 -1.59697e-16)
(-0.498044 0.0924702 4.26154e-18)
(0.659676 -0.34018 1.19279e-16)
(0.283343 1.72107 5.52966e-16)
(-0.505235 0.732376 0)
(-3.04135 -1.27192 1.20991e-18)
(1.15483 0.877088 1.62851e-16)
(0.222416 1.27143 -1.42715e-16)
(-0.478688 -0.0792535 3.54757e-17)
(0.348812 0.0145299 -1.36073e-16)
(0.0126578 -0.656919 1.5169e-16)
(0.102183 2.15717 3.08281e-17)
(-0.446374 0.0894815 4.64474e-18)
(0.0410643 1.96413 -4.06292e-16)
(0.801966 1.31655 -1.26638e-16)
(1.40608 1.39652 2.16513e-16)
(-0.822253 -0.317303 2.9895e-16)
(0.333559 -0.27498 -9.56616e-17)
(0.669362 -0.400106 -7.83605e-17)
(-0.340297 0.238904 -6.64918e-17)
(0.459653 0.275725 3.4215e-16)
(-0.635174 -0.212576 1.61552e-16)
(0.287887 -0.228949 1.07792e-16)
(0.191236 -0.202741 0)
(0.188464 -0.209847 0)
(0.200592 0.442496 -1.62707e-16)
(1.31519 0.309941 2.19874e-16)
(0.25519 2.61533 -2.12794e-17)
(-0.236172 -0.605209 -2.64085e-16)
(0.00426141 -0.655929 6.85433e-18)
(0.43825 -0.520447 -7.57201e-17)
(0.298454 1.9383 4.09045e-16)
(0.434818 -0.116797 9.57461e-17)
(0.631747 -0.498286 3.89398e-17)
(1.93893 -0.116114 0)
(0.906533 1.37482 1.20327e-16)
(0.56493 0.071334 0)
(0.571074 0.947463 0)
(0.208125 -0.111296 -3.64321e-18)
(1.05849 0.53067 0)
(1.40856 0.0608272 0)
(-0.0891003 -0.657061 0)
(0.0384083 0.0495148 0)
(1.33627 1.50445 -4.49188e-16)
(0.30157 1.95547 -1.63506e-16)
(-0.327796 1.28547 -1.19036e-16)
(0.44511 0.540208 -3.54139e-18)
(-0.681329 0.538745 -4.25069e-16)
(0.451919 1.15826 -3.17514e-16)
(1.24793 1.42889 2.52352e-16)
(-0.486495 1.11313 -4.69377e-16)
(0.0609984 1.15328 2.89276e-16)
(0.0687653 1.55676 5.66644e-17)
(0.252231 -0.333812 0)
(0.120946 -0.499642 0)
(-0.218243 -0.694294 2.11218e-16)
(-0.0730427 -0.0896928 8.43063e-16)
(0.333346 1.42227 2.53509e-16)
(-0.637904 0.62485 0)
(0.414147 0.0671419 0)
(1.72353 1.40135 1.51911e-16)
(-0.423019 0.0498391 2.07309e-17)
(-2.38774 -1.91775 -1.0642e-16)
(0.575834 -0.573543 -1.12736e-16)
(1.49467 1.42545 -2.53339e-16)
(-0.359253 0.0255912 -2.71262e-18)
(-0.00754892 0.277854 3.20697e-17)
(0.00546995 0.286932 -1.10844e-17)
(0.0880262 0.389753 0)
(0.0428233 0.320309 -4.6349e-17)