/*--------------------------------*- C++ -*----------------------------------*\
| =========                 |                                                 |
| \\      /  F ield         | OpenFOAM: The Open Source CFD Toolbox           |
|  \\    /   O peration     | Version:  v1912                                 |
|   \\  /    A nd           | Website:  www.openfoam.com                      |
|    \\/     M anipulation  |                                                 |
\*---------------------------------------------------------------------------*/
FoamFile
{
    version     2.0;
    format      ascii;
    class       surfaceScalarField;
    location    "0.69";
    object      phi;
}
// * * * * * * * * * * * * * * * * * * * * * * * * * * * * * * * * * * * * * //

dimensions      [0 3 -1 0 0 0 0];
oriented        oriented;


internalField   nonuniform List<scalar> 
2708
(
2.92891e-06
-4.67846e-05
-2.68468e-06
4.65404e-05
-4.02367e-05
5.49625e-05
-0.000125086
0.00011036
0.00129462
0.000249189
-0.000942177
-0.000601632
-0.000324587
0.000183671
7.1271e-05
6.96448e-05
-6.90756e-06
3.91838e-06
-2.69673e-05
2.99565e-05
0.000259047
0.00019553
-0.000129933
-0.000324644
0.000102539
0.000188485
0.000603745
-0.000826831
0.00100737
-0.000784283
0.000170078
0.000379876
-0.000462076
-8.78783e-05
0.000113694
0.000425589
-0.000448481
-9.08018e-05
0.000273642
5.03297e-05
-4.39863e-05
-0.000279986
-6.47977e-05
0.000132246
-6.74485e-05
9.12612e-05
-7.9277e-05
6.64901e-05
-7.84743e-05
0.000849663
-0.000864661
4.25347e-05
-2.75365e-05
0.000121633
-0.000105378
3.85906e-05
-5.48453e-05
-6.55636e-07
-0.000339872
0.000340527
-0.000185426
0.000177182
0.000129878
-7.42492e-05
0.000259061
-0.000254489
6.96768e-05
-4.16646e-05
-3.00929e-05
7.17575e-05
0.000244961
8.72033e-05
-5.85219e-05
-4.60035e-05
-2.5604e-05
6.87138e-06
6.4736e-05
-9.79874e-05
-0.000321369
-3.53508e-05
3.1043e-05
0.000137956
-0.000133649
0.000819596
5.98479e-05
-2.97811e-05
0.000369011
8.08783e-05
-0.000402476
-4.74133e-05
0.000186942
-6.21236e-05
0.000120142
-0.000416756
0.00035159
-0.00014552
0.000210686
3.55724e-05
-2.00153e-05
-0.000880218
-0.00103843
8.20749e-05
0.00095878
-2.42115e-06
-0.000192977
8.95154e-05
9.52791e-05
8.1822e-06
-0.000433986
0.000971711
-0.000556865
1.91394e-05
0.000935644
0.000453243
-0.00061866
-0.000770226
0.000208966
0.000192106
-0.000401072
0.000124479
-0.000157835
3.33558e-05
0.000140606
-0.000210859
7.02535e-05
-0.000889334
0.000900956
0.000655818
-0.00066744
8.11117e-05
-9.26069e-06
-8.17621e-05
9.91111e-06
-0.00118895
0.00114553
-5.2231e-05
9.56462e-05
3.56437e-05
-4.38218e-05
-7.6231e-05
-0.00140385
-3.51219e-05
0.000250023
-0.00035335
-0.000254211
4.18327e-05
0.000565729
4.76095e-05
-1.4751e-05
-3.28585e-05
-4.75197e-05
6.81296e-05
-0.000151358
0.000130748
-7.93061e-05
0.000126394
-0.000200131
0.000153044
0.000136455
-4.39773e-05
-0.000217803
0.000125325
5.56484e-05
4.16427e-05
-6.52199e-05
-3.20713e-05
4.84218e-05
0.000676692
-0.000372684
-0.00035243
-2.04841e-05
2.97123e-05
-0.000959887
0.000950659
-0.000658126
0.0011673
-0.000875379
0.000366207
2.98919e-05
-0.00108554
0.00111193
-5.62886e-05
0.000184174
-2.63075e-05
-0.000191986
3.41202e-05
-0.000482416
0.00034303
0.00025308
-0.00060041
0.000370869
0.000399619
-6.97019e-05
6.81774e-05
-6.04285e-05
6.1953e-05
-9.15216e-05
9.78454e-05
-0.000140623
0.0001343
-0.000972534
0.000113319
0.000955938
-9.67237e-05
1.06159e-05
-8.39278e-05
0.000283458
-0.000210146
-7.45323e-05
-8.45818e-05
0.00051037
-0.000351256
-0.000562623
0.000514878
-3.17008e-05
5.81201e-05
-7.24227e-05
0.000314388
-0.000258439
-7.52693e-06
0.00016292
0.000166227
-0.000129391
-0.000199756
0.000443105
-0.000747205
-0.000585234
-0.000427178
0.000472616
0.00101266
-0.0010581
0.000848222
-0.000171367
-4.7424e-05
-0.00062943
1.13789e-05
1.37924e-06
-0.000126275
0.000113517
0.000232154
-1.43731e-05
2.15321e-06
0.000133171
-7.23629e-05
-6.29617e-05
-0.000625017
0.00103038
-0.000735189
0.000329823
7.69591e-05
6.12997e-05
8.9203e-05
-1.5672e-06
-8.10702e-05
-6.5656e-06
-0.00014896
1.16876e-05
-7.54701e-06
0.000144819
6.3597e-05
0.000145369
6.83062e-06
4.64667e-05
-5.49456e-05
1.64826e-06
2.72956e-05
0.000691872
-0.000469979
0.000968553
6.26939e-05
-0.00101647
-1.47811e-05
0.000137107
-0.000263647
-6.66994e-05
0.000193239
-0.000954452
0.000926954
-0.00039968
4.90167e-05
0.000202039
-3.51896e-05
-0.000215866
4.79748e-05
-2.06526e-05
-2.63977e-05
-9.24448e-07
3.91209e-05
-0.000132472
0.000181615
-8.82637e-05
-0.000284397
-6.04321e-05
0.000201415
0.000143414
3.76901e-05
-5.96453e-05
2.43975e-05
-2.44225e-06
5.19798e-05
-2.77816e-05
-4.22588e-05
1.80606e-05
-9.07113e-05
-6.36907e-05
0.000105172
4.92302e-05
0.000778865
7.90792e-05
-3.83479e-05
-0.000125908
0.000186031
-0.000201621
0.000141498
6.09304e-05
0.000156558
-0.000144362
-7.31263e-05
-0.000201914
0.000181215
-7.00116e-05
6.48789e-05
2.00637e-05
-3.29628e-05
0.0011327
-1.73834e-05
3.02122e-05
-1.43755e-05
2.55444e-05
-0.00025113
0.000239961
-4.09813e-05
8.04966e-05
-7.12161e-05
9.01674e-07
-0.000147188
-2.67358e-06
-6.69073e-05
-0.00100426
0.00103258
3.8587e-05
-3.81146e-05
-3.02287e-05
4.71788e-05
2.11644e-05
-0.000807043
-0.000285069
7.33631e-05
-9.05153e-06
-6.21584e-05
3.04266e-05
-0.00108923
0.00108936
-3.05556e-05
-4.5673e-05
2.99192e-06
0.000105738
-6.30572e-05
-2.37916e-05
3.86539e-06
-1.12389e-05
3.11651e-05
0.000220344
2.11874e-05
5.81737e-06
-0.000247349
2.23558e-05
-2.42418e-05
-6.94452e-06
8.83049e-06
0.00104109
-0.00146568
0.000184118
0.000240467
0.000468494
8.95262e-06
1.27279e-05
-0.000490175
8.71767e-05
8.83875e-05
-0.000949013
8.02986e-06
2.9929e-05
-4.20371e-05
4.07833e-06
-1.67954e-05
0.000168158
-0.00020693
5.55681e-05
1.89322e-05
-4.52232e-05
3.76699e-05
0.000846535
-0.000580041
4.97415e-05
-0.000316235
-0.000243022
0.000145704
0.000260238
-6.56899e-06
8.73737e-07
0.00022604
-6.72809e-07
-1.38672e-06
-2.1732e-05
-0.00019804
-2.96008e-05
0.000153392
4.1359e-05
-5.37928e-06
-4.70985e-05
1.11188e-05
0.000723971
0.000100277
-4.53832e-05
0.000161792
0.00016677
-0.0011415
0.00114358
9.63184e-05
-9.83977e-05
-0.000267493
-0.00040745
-0.000166885
-0.000304916
0.000769743
0.000180022
-0.000821407
-0.000128359
-0.000994127
-0.000637517
0.00105564
0.000576002
2.21759e-05
-6.77429e-06
1.90112e-05
-3.44129e-05
0.000118068
-4.43568e-05
0.000650259
-0.000109261
5.18095e-05
6.91392e-05
4.47396e-06
3.11473e-05
-4.37023e-05
8.08106e-06
0.000822855
-0.00104161
0.000356897
-0.000138143
-1.30641e-05
-5.04962e-06
6.80565e-06
1.1308e-05
-0.000345646
1.98742e-05
-0.000101511
-0.000759387
0.000860899
-0.000101512
-0.000140238
0.000196077
-4.58107e-05
2.3595e-05
8.70945e-05
-3.8264e-05
6.09555e-05
-0.000224606
0.000103385
1.6259e-05
-3.04412e-05
-4.9461e-05
3.07134e-05
6.02871e-05
-4.15395e-05
-4.63104e-05
6.48471e-05
-1.58446e-05
-2.69214e-06
-0.000327367
-7.82673e-05
5.99878e-05
-0.000470701
2.70238e-05
0.000435151
8.52596e-06
-6.60457e-05
-6.08314e-05
8.10664e-05
0.000899823
-2.32861e-05
-0.000766887
-0.000109651
-0.000104814
0.0011152
0.000156915
-0.00111139
9.41084e-05
0.000860467
-0.00102845
-0.000263117
0.000431104
-0.000226885
-0.000989347
0.00119107
2.51629e-05
0.000153169
-1.20415e-05
-7.40303e-05
4.00253e-05
0.00013739
-0.000921243
0.000884494
-0.00027678
0.00031353
0.00127154
7.66732e-05
-0.000316034
-0.00103218
-5.00036e-05
0.000906949
-8.72404e-06
-0.000119728
0.000171829
-1.71414e-05
-3.49594e-05
-8.92389e-06
5.68987e-05
0.000118715
4.75126e-05
-0.000111098
2.73886e-06
-0.000930799
-0.000378513
0.00035486
-0.000246834
-0.000138228
0.00028355
0.000910735
0.000116249
-0.000180449
-0.000190522
0.000903563
-0.000888163
0.000175122
0.000268451
-6.64672e-05
5.70775e-05
-0.000200701
0.000213874
-3.26229e-05
-2.57028e-05
6.13176e-05
-3.82235e-05
0.000111678
-8.0024e-05
-1.05916e-05
3.23334e-05
-7.66495e-05
-3.07033e-05
9.05575e-05
-6.22122e-05
2.92608e-05
2.16248e-05
-2.82363e-05
1.94332e-05
-7.359e-05
1.31551e-05
-7.98034e-05
-0.000947706
0.00018467
0.000881104
-5.68179e-06
0.00024462
-0.000239594
0.000370072
-0.000583075
-0.000552224
0.000765227
1.42153e-05
0.000238385
-0.000877618
-3.38688e-05
0.000919283
1.44093e-05
2.16485e-05
1.26443e-05
-3.42928e-05
3.14971e-05
-6.97611e-05
0.00108797
-0.00126468
-0.000151353
0.000328069
0.000163682
2.79777e-05
-0.000102145
-0.000821769
-0.000353587
0.000856017
0.000319338
-8.55086e-05
0.00104769
-0.000950368
-1.18165e-05
-9.16138e-06
0.000116563
-3.16153e-05
-7.57867e-05
0.000127213
-0.000983132
0.000949155
-9.32355e-05
0.000133002
-0.000160735
-0.00021529
-0.000333928
0.000247884
0.000946511
-0.000926437
0.000914945
-0.00017903
0.000629197
-0.000605493
9.45632e-06
0.000552458
-0.000500959
-5.0664e-05
0.000111698
-0.000333296
-0.000909688
0.000312184
2.31327e-05
-0.000172333
0.000215955
-6.67549e-05
-0.000308255
0.000334695
-9.23774e-05
6.59369e-05
6.17233e-05
0.00101843
-0.000893618
-0.000158677
0.000273743
-2.93546e-05
1.47276e-06
-0.000245862
-0.00015466
0.000166461
0.00113178
8.32498e-06
2.30049e-05
0.00100976
0.000125035
0.000938134
-0.00100503
-5.81388e-05
-3.40644e-05
-9.53262e-05
5.96087e-06
-2.22198e-05
-0.000207049
0.000277776
-7.0727e-05
-0.000201544
-0.000921078
0.000201378
-0.000322528
-7.3639e-05
4.2817e-05
-0.000198309
-0.000248942
2.22505e-05
-4.67726e-05
4.01003e-05
0.00102429
-8.63051e-05
-0.00097809
-3.26299e-06
0.00016325
-0.000151086
-8.90173e-06
-7.39369e-05
0.00106039
-0.000651303
-0.000265601
0.000676181
-1.22563e-05
-0.00089081
0.000133654
0.000829297
-0.000193208
0.000978197
0.000148645
-0.000159091
-0.000967751
7.66324e-05
-7.23213e-05
-8.82389e-05
9.82606e-05
-6.40852e-05
-0.000118757
0.000206123
0.000900446
-0.000195834
0.000209771
9.6945e-05
-0.000283583
-8.15235e-05
0.000104043
2.8403e-06
-2.536e-05
0.000368984
-9.17284e-05
0.000584206
-0.000861462
0.000353054
-9.53454e-05
0.000515371
0.00122879
-0.00056304
-0.000379137
0.000810723
-0.000884225
-1.82271e-05
-0.00101993
-0.000835824
0.000591075
0.000836993
-0.000904883
-0.00017472
-0.00101207
5.06729e-05
0.00100393
0.00087585
4.29579e-05
2.53693e-06
-2.54311e-05
-0.000167439
0.000182871
0.000165783
0.00101344
0.000201063
-0.000533039
0.000964654
-0.00125845
-0.000417706
-0.00092431
0.000808977
-0.000616976
0.000875452
-8.1704e-05
-0.000992698
8.50548e-05
4.03174e-05
1.63648e-05
-5.37533e-05
-0.000938292
0.000664776
-5.97804e-05
-6.49993e-05
5.68313e-05
-1.65973e-05
2.47654e-05
-0.00111128
-3.49148e-05
0.00107226
-0.000190084
0.000172569
-0.000337559
-7.86232e-05
0.000121314
0.000294869
-0.000490686
0.000625536
-0.000101009
1.97782e-05
-2.98676e-05
-8.4003e-05
3.56222e-05
-5.26281e-05
0.000757412
0.000270501
0.00017843
-0.00100385
0.000156422
-0.000975667
-8.86572e-05
0.00117585
-0.000111522
0.000122817
-8.04995e-05
0.000115544
-0.000107936
0.000795894
0.000488775
-0.00115963
0.00018546
-0.000255972
-0.000966164
0.000989662
-2.34978e-05
0.000137091
-0.000151634
1.45433e-05
-4.13967e-06
2.03005e-05
-8.11602e-05
-0.00105056
-2.42302e-05
0.00107479
-0.00100719
0.00101849
-1.13052e-05
-0.000936272
-3.09652e-05
-0.000626827
0.000157486
-1.36062e-06
0.000245171
-0.000874404
-0.00102541
4.89067e-05
-0.000991674
0.00108799
0.000910812
-0.000231873
-0.000937451
-0.000117463
0.000946519
0.000108394
-0.00029766
-1.22852e-05
0.000441133
-0.000131188
0.00100233
2.47353e-05
0.000447523
-0.00098176
5.64452e-05
-5.03523e-05
8.92994e-05
-0.00102039
-3.42149e-05
-0.000902057
0.00103138
-0.000672223
-5.90937e-05
0.000130833
3.39987e-05
0.000117529
-8.24054e-05
-9.99213e-05
8.88055e-06
-2.65878e-05
-9.54235e-05
0.000113131
-0.000562953
-5.24137e-05
-6.35014e-05
-0.000666068
-1.66003e-05
1.46891e-05
5.87425e-05
7.02058e-06
-1.33096e-05
-7.52344e-05
-9.12058e-05
0.000228189
-0.00097005
-0.000413272
-0.000845512
0.00053293
0.000725854
-0.00101343
-0.00105288
-9.21149e-05
5.46415e-05
0.00109035
0.000551813
3.20643e-05
0.00116161
-1.35027e-05
-0.00118017
-0.000687937
-0.000547104
4.25401e-05
-0.000100081
0.000187882
-0.000130341
0.000978682
-0.0010412
-0.000384904
0.000204625
0.00122148
-4.48639e-06
5.28253e-05
1.33844e-05
0.000193075
-0.00107033
0.00100446
1.66849e-05
9.68646e-05
-0.000117689
-0.000236915
0.00020477
-0.00134815
-2.28616e-05
5.33578e-05
-1.37356e-05
-4.85461e-05
0.000308444
0.00103084
-6.66416e-05
-0.00127264
0.000240725
4.31042e-05
9.90923e-05
-0.000125512
0.000378918
-0.000261567
-1.75244e-05
2.38607e-05
-2.36484e-05
3.63315e-05
0.000864698
-2.00001e-05
-5.55689e-05
7.99083e-05
-4.33936e-06
-3.23913e-05
-6.66172e-05
-8.93462e-05
5.08317e-05
-0.000123535
0.000134235
3.24041e-05
6.73264e-06
-0.000448227
-0.000121458
4.73093e-05
-6.03944e-05
6.0968e-05
-4.78828e-05
0.000305371
-0.000984511
2.48742e-05
0.000123417
7.77301e-05
0.000118227
-1.83422e-05
5.60665e-05
0.000140229
1.67474e-05
-0.000410412
0.000420689
6.71395e-05
-6.85249e-05
-1.52149e-05
-5.28271e-05
6.61552e-05
7.81966e-05
-9.15247e-05
6.56915e-06
9.10487e-05
0.000405525
0.000924284
-0.000402855
-5.03391e-05
-3.76177e-05
1.04229e-05
7.75339e-05
0.00108082
3.98838e-05
-2.39574e-05
-3.40291e-05
1.81027e-05
8.57028e-05
-3.21891e-05
7.91659e-06
-6.14303e-05
-3.69043e-05
4.35546e-05
8.03884e-06
-5.69928e-05
0.000141321
-0.000256661
-4.71487e-05
-0.000186641
0.000155166
-0.000179111
-2.77109e-05
0.000178585
1.4134e-05
0.000121137
-1.4315e-05
-0.000191103
-9.87859e-05
-2.26192e-05
3.00718e-05
9.13333e-05
0.00117916
-0.000892898
-1.03004e-05
-6.02464e-05
0.000132924
0.000107044
-0.000252815
-0.000552064
0.000697835
-2.46101e-05
4.25424e-07
2.41847e-05
0.000105006
-0.000916518
-7.27124e-05
1.64848e-05
2.38308e-06
-1.88679e-05
-6.4963e-05
3.16992e-05
3.32637e-05
0.00011761
-0.000103363
-1.42472e-05
2.67856e-05
-3.29618e-05
6.17618e-06
3.27875e-05
-6.48916e-06
-2.62984e-05
-3.26935e-05
-6.40239e-06
3.90959e-05
0.000202148
-0.000203988
1.84006e-06
-4.4053e-05
3.47198e-05
9.33322e-06
4.94077e-07
2.62915e-05
3.47741e-05
-1.98659e-06
-3.06523e-05
6.04216e-06
-0.000164488
0.000189117
-2.46293e-05
4.21278e-05
-3.15096e-05
-1.06181e-05
0.000122776
-6.34326e-05
1.93796e-05
0.000187773
-1.22088e-05
6.99711e-06
5.21169e-06
-0.000126913
6.19505e-05
2.86341e-05
-1.21492e-05
-0.000168293
1.66591e-05
3.25632e-05
-5.51214e-06
-2.70511e-05
1.22246e-05
-5.55238e-05
2.21737e-05
2.11255e-05
6.0417e-06
7.2963e-05
-6.47509e-05
-8.98293e-05
0.000114344
-3.32011e-05
5.48958e-05
0.000124588
-0.000120523
0.000253108
-9.00446e-05
-8.6426e-05
2.23804e-05
0.000168089
3.8187e-05
-3.94498e-05
-2.26946e-05
1.77519e-05
-0.000330944
-0.000637175
-0.000338825
0.000387708
0.00106223
-0.000157194
-7.29376e-06
-7.73483e-06
-1.14809e-05
1.92157e-05
-4.32774e-06
-9.30338e-06
2.08061e-06
-3.08694e-05
1.94792e-05
1.61978e-05
-2.171e-05
4.06749e-06
-1.48712e-05
1.94904e-05
3.02368e-05
-2.78537e-05
-0.00034104
-0.000657809
0.000366822
0.000632028
0.00103932
-0.000267029
0.000108327
1.96736e-05
3.91943e-06
7.99555e-06
-3.15886e-05
2.14709e-05
8.279e-05
0.000915547
-0.000924874
9.23286e-05
-8.30014e-05
1.78381e-05
3.56721e-05
-3.48245e-05
-1.86857e-05
4.45202e-05
-2.39249e-06
-5.29784e-05
-2.35984e-05
4.25477e-05
3.08691e-05
-0.000207429
-1.89075e-07
-6.30632e-05
2.14335e-05
4.18188e-05
0.00109362
-0.000294113
5.92218e-05
1.86726e-05
-3.05851e-05
0.000427372
-0.00109073
0.000971798
1.27447e-05
2.41091e-05
3.43966e-05
9.83204e-06
0.000157112
-0.000370626
0.000728886
-8.35857e-05
7.85358e-05
-6.75747e-05
0.000733451
0.000659335
-0.00049183
8.3812e-05
-8.00053e-05
0.000655466
-0.000356507
-0.000298958
-5.46172e-05
5.59538e-05
4.60747e-05
-4.74113e-05
-0.000541316
-0.000136222
0.000379879
-5.69175e-05
-4.41622e-06
5.37144e-05
7.61929e-06
5.49412e-05
4.87164e-05
-4.19713e-05
-7.23767e-05
0.000107597
-0.000104799
6.95788e-05
-1.16415e-05
0.000125381
-7.72548e-05
-3.64842e-05
7.07752e-05
-7.1483e-05
-0.00019179
0.000192497
-8.15468e-05
-2.68266e-05
3.59968e-05
-5.44879e-05
4.82436e-05
-4.8373e-05
-0.000130501
-1.96833e-05
0.000220959
-5.42511e-05
9.42063e-05
-5.7865e-05
1.79098e-05
7.36624e-05
-6.20817e-05
-9.12653e-05
9.60017e-05
5.73453e-05
-0.00015321
-0.000184113
1.01811e-05
0.000102449
-7.65651e-05
0.000120107
4.62186e-05
-4.52086e-05
-0.000121117
5.7835e-05
4.96239e-05
-8.4306e-05
-2.42037e-05
5.66511e-05
5.18586e-05
-0.000111083
0.000147395
7.12853e-05
-0.000153303
-3.65056e-05
0.000135558
-0.000146021
-0.000125766
7.99971e-05
4.327e-05
0.000317752
-0.000301005
9.73473e-05
-0.000130543
0.0001612
-0.000100358
-9.31862e-06
-3.88607e-05
4.81793e-05
6.90523e-05
4.40142e-05
-7.4027e-05
-3.90394e-05
2.17258e-06
3.51358e-05
3.17439e-05
-0.000158869
-3.45631e-05
7.38077e-05
7.14096e-05
-0.000145217
-7.32551e-05
0.000113106
6.36792e-06
-0.000103562
-1.49016e-05
1.84229e-06
-9.59206e-06
-3.8917e-06
-6.98519e-05
1.92812e-05
5.27433e-05
6.53697e-05
3.0269e-05
2.97418e-05
-4.94005e-05
6.18113e-05
-0.00011721
-2.64218e-05
3.56732e-05
5.61182e-05
1.71381e-05
8.99541e-07
-1.61954e-05
4.53503e-05
-3.69032e-05
-1.80392e-05
2.09854e-05
5.41325e-05
6.46704e-05
0.000296925
-0.000298871
0.000276312
-0.000274366
9.936e-05
4.33017e-05
-0.000142662
-9.61197e-06
9.06011e-06
-4.67292e-05
-8.62664e-05
9.76447e-05
5.3972e-05
5.93823e-05
6.22142e-05
-5.95475e-05
5.13054e-05
1.41467e-05
-0.000490658
-0.000106316
0.000255934
-2.19788e-05
-7.925e-05
5.44996e-05
3.73935e-05
-3.20968e-05
0.000519442
-0.000276649
0.0001901
-0.000201636
-1.95797e-05
3.11152e-05
-4.46263e-05
1.83662e-05
0.000874313
-0.000218847
7.78991e-05
1.7122e-05
-0.000117
5.08062e-05
-1.78289e-05
-0.000834086
0.000695719
0.000650203
-0.000824954
0.000566809
-0.000456401
0.000224287
1.93386e-05
-5.61985e-05
3.68599e-05
-0.000111609
0.000179991
5.13368e-05
-4.1227e-05
-0.000148725
0.00102304
-0.00110774
-0.0011493
0.000134841
-5.52217e-05
-0.000151503
-7.79519e-05
6.95845e-05
6.08939e-05
7.05945e-06
-4.80859e-05
-1.98675e-05
-4.08951e-05
2.84201e-05
9.29416e-05
-8.04667e-05
4.44664e-05
2.93413e-05
5.60571e-06
7.50762e-05
2.42839e-05
1.21717e-05
4.98754e-05
-8.33262e-06
-0.000774219
0.000909374
0.000560564
1.88777e-05
5.71479e-05
0.000172119
-4.92766e-05
-0.000410843
8.79849e-05
0.000322858
0.000198014
-7.23887e-05
6.3036e-05
-0.000188662
9.4686e-05
-8.91294e-05
-0.000930431
-4.52491e-05
4.59809e-05
0.000197282
-0.000105169
4.4339e-05
0.000493082
0.000160192
-0.000653274
-3.59876e-05
0.000107611
2.25826e-05
-1.59974e-05
-0.000122024
7.59396e-05
-0.000139382
3.21194e-05
0.000163582
-0.000175012
4.07718e-05
5.00242e-05
1.29536e-05
-1.33719e-05
-2.98896e-06
-0.000147274
0.000131057
4.05005e-05
0.000307238
1.05142e-05
4.64539e-05
0.000260784
1.0319e-05
0.000167251
-6.74578e-05
5.43223e-05
5.12452e-05
-0.000155217
0.000442793
8.22397e-05
3.8326e-05
-3.57829e-05
-5.09203e-06
7.8851e-05
-0.000182454
-0.000184065
3.4806e-06
0.000202681
-0.000196219
-4.76261e-05
4.88754e-05
2.28597e-05
-0.00011105
5.09627e-05
0.000117235
-0.000100121
5.0849e-05
6.73164e-05
-2.6307e-05
-4.78648e-05
6.85537e-06
0.000122876
-0.00012327
-0.000198204
2.44585e-05
0.000177143
4.70924e-05
-0.00113213
-8.07813e-06
-0.000934753
-0.000329812
-0.000181789
5.95035e-05
1.97249e-05
5.40455e-05
4.39913e-05
-2.2837e-05
-5.66739e-05
6.31638e-05
1.63472e-05
0.000182537
4.05873e-05
-5.14382e-05
2.56005e-05
-0.000253288
0.000330658
0.000428789
-0.000506159
-1.60449e-05
-0.000125189
1.921e-05
-3.64744e-05
-0.000162631
1.19388e-05
-0.000110311
0.000123853
-6.48216e-06
0.000146663
-0.000962805
-2.32193e-05
0.000994349
2.4613e-06
3.23136e-05
4.11972e-05
-2.36354e-05
3.99524e-05
-3.784e-05
2.54595e-05
1.23805e-05
0.000987433
-0.00103966
3.68122e-05
5.18638e-05
4.13147e-05
1.3451e-05
-6.91638e-05
9.85519e-06
-1.78709e-05
2.7288e-06
5.28688e-06
4.18014e-05
-1.84212e-05
-0.00032997
3.63522e-05
-9.66124e-05
7.95414e-05
0.000136482
-0.000186985
0.000100053
-8.31745e-05
-7.02371e-06
0.000544877
-0.00028751
-5.94058e-05
-1.63832e-05
4.6933e-05
2.8856e-05
-9.14995e-05
9.59046e-05
-7.84321e-05
-0.000860901
6.14414e-05
0.000158019
7.50326e-05
-0.000160089
4.40512e-05
-0.000199478
-6.26461e-05
-1.68011e-05
7.94472e-05
9.16057e-05
-8.75409e-06
-6.50136e-05
0.00024845
-0.000343719
-1.56067e-05
-3.0987e-06
0.000296536
-0.000104192
8.34124e-05
0.000135163
-7.11806e-05
-0.000118422
-0.000102182
0.00016085
0.000262523
-0.0010069
0.000169803
5.13332e-05
-0.000742295
1.99567e-05
-6.3155e-05
7.48508e-05
2.16517e-05
-4.79463e-05
3.81705e-05
-1.1876e-05
0.000182817
3.96721e-05
-9.53175e-06
-8.5939e-05
0.00110282
1.55382e-05
4.09215e-05
-0.00105495
-3.73602e-05
-9.67196e-05
0.000217546
-4.98197e-05
0.000385888
0.000174302
0.000250112
0.00124871
0.00110494
0.000165131
0.000201956
0.00110761
5.53351e-05
3.69896e-05
-4.09194e-05
-5.63723e-05
-0.000102944
-0.000186075
-0.000922244
0.000117789
3.67793e-05
2.01194e-05
-9.61934e-05
4.68167e-05
-5.97591e-05
-7.29967e-05
4.74711e-05
3.48667e-05
3.13301e-05
0.00015592
0.000116104
-2.80204e-05
-0.000180813
4.92934e-05
2.8174e-05
-3.62701e-05
-0.000167473
0.000180869
-1.64945e-05
0.000841457
-0.000167602
-0.00064333
-3.05253e-05
-0.000756406
0.000699048
0.000319881
1.29968e-05
-9.08164e-05
3.87803e-05
-4.28267e-06
2.76668e-05
4.45084e-05
1.07324e-05
-0.000243564
0.000328615
0.000153951
-0.000986896
9.15293e-05
0.000620426
-0.00062397
5.05946e-05
0.000411486
-0.000415626
-4.91124e-05
1.5021e-05
-2.79692e-05
1.0563e-05
5.12452e-05
-5.18496e-05
-4.58643e-05
4.64687e-05
-7.55144e-05
5.51949e-05
7.24508e-05
-0.000246619
-8.03201e-05
-1.57437e-05
9.66461e-05
4.80035e-06
-8.93926e-05
7.33586e-05
0.000844291
-6.62184e-05
6.10206e-05
5.6443e-05
2.64872e-05
-4.25883e-05
-7.70449e-05
4.94266e-05
9.89035e-05
-0.00100886
0.00104226
-0.000282338
-4.20352e-06
-0.000172024
-0.000147842
-3.36541e-05
0.000253947
6.0349e-05
-3.87005e-05
-0.000967893
-0.000199643
3.39706e-05
6.28885e-05
4.49149e-05
0.000791995
6.02737e-05
0.00105079
-0.00101644
8.37988e-05
-7.26901e-05
-0.000158951
0.00016638
2.92115e-05
0.000371424
-2.96873e-05
1.83144e-05
-0.000360051
-0.00030921
-3.38373e-05
4.00597e-05
6.77437e-06
-0.000174902
6.74252e-05
-2.21323e-05
2.22373e-05
0.000498192
-4.50585e-06
-9.69288e-05
0.000128066
-7.79212e-05
8.77524e-05
-1.5619e-05
9.85371e-06
5.73387e-05
5.10344e-05
0.00019967
-0.000162385
0.00100134
-0.00125411
0.000268313
7.8189e-05
3.66927e-05
0.000723111
5.63708e-05
0.000946277
0.000277145
-9.9251e-05
-0.00112417
-0.000100664
-1.92352e-05
3.13046e-05
-1.852e-05
-1.79101e-05
-6.39697e-06
4.86604e-05
-2.43533e-05
-5.95856e-05
0.000252211
-0.000274446
8.18203e-05
-0.000238021
0.000239365
0.00133595
9.79243e-05
3.72047e-05
3.46974e-05
0.00132653
0.000133825
-1.29608e-05
-7.70929e-06
0.000117139
1.4053e-05
-1.85702e-05
-0.00103302
8.03398e-05
-6.70986e-05
-3.27071e-05
3.0281e-05
3.37306e-05
-0.000983291
-0.00117034
0.000742486
-5.67279e-05
-7.53089e-05
-8.97448e-05
2.39867e-05
8.14877e-06
5.76093e-05
6.5545e-05
3.20889e-06
-4.10489e-05
0.000133092
1.42091e-05
-5.17044e-05
-1.78569e-05
-8.74684e-05
0.000127183
-5.44133e-05
0.000127621
3.13669e-05
-8.94096e-05
-2.02318e-05
6.84314e-05
1.92257e-05
4.39242e-05
8.42777e-05
3.25766e-05
-7.01941e-05
1.8967e-05
-0.000123184
2.95532e-05
-2.18587e-05
-7.19349e-05
5.06314e-05
1.23449e-05
-5.34777e-06
-3.24093e-05
4.13689e-05
0.000863873
0.000132892
-5.95046e-05
-0.000815633
5.75327e-05
1.29199e-05
-6.18855e-05
0.000463209
0.000406044
0.00015003
-4.36395e-05
0.00108556
-0.000490354
-2.53824e-05
9.41873e-05
-9.65709e-05
9.76628e-05
-4.95509e-05
-4.12255e-05
3.17807e-05
-4.27783e-05
0.000116313
-1.89728e-05
1.33058e-05
-0.000727614
0.000678297
4.93172e-05
8.71429e-05
-8.76154e-05
-4.69388e-05
-1.09641e-05
0.000286249
-1.54154e-06
0.000894904
0.00014409
-0.000789541
6.1927e-05
5.0672e-05
0.00107623
-8.95247e-05
-0.000951418
0.00101772
-0.000307943
0.000537922
4.59388e-05
-0.000275918
-0.000112443
1.74862e-05
-3.82936e-06
5.79242e-05
0.000620373
-7.45159e-05
0.000231568
8.69031e-05
-0.000243955
8.15441e-05
-4.37982e-05
4.69623e-05
-8.47081e-05
-0.000197033
4.29965e-05
0.000154036
9.5065e-05
-7.26001e-05
9.58747e-05
0.000101314
7.92414e-05
-1.88924e-05
-0.000241822
4.47893e-05
-0.000286179
0.000303901
-0.000346508
-0.000265335
-0.000893678
0.000290245
3.92712e-05
-3.29802e-05
-0.000187873
-3.56451e-06
4.91191e-05
-2.40167e-05
3.98156e-05
1.74473e-05
0.000241711
-8.30645e-05
0.000394646
0.000540998
7.59817e-05
-6.30874e-05
-5.15948e-05
-0.000478948
0.000460401
1.85464e-05
8.2603e-05
-0.000872144
7.59592e-05
-0.000119332
5.97392e-05
1.3738e-05
-0.000259233
0.000862087
-0.000331562
0.00036991
-0.000399691
-0.000236428
-2.56095e-05
-6.74507e-05
5.75956e-05
0.000878445
-0.00019467
0.000355541
-0.000961335
0.000657885
0.000633273
-0.0010699
-4.98479e-05
0.000575716
0.000231647
-0.000200604
-0.000638367
0.000581369
0.000529482
-0.000622076
0.000342411
0.000569616
-0.000266472
-0.000333985
9.9674e-05
0.000303896
4.34233e-05
4.18626e-06
-0.000636568
0.000760132
-0.000501225
2.22775e-05
-0.000157812
1.84275e-06
0.00038134
0.000526191
-6.16965e-05
4.85817e-05
-4.32575e-05
-3.45708e-05
4.52849e-05
3.57546e-05
1.14161e-06
-7.77067e-05
0.000447243
1.31585e-05
-5.15053e-05
4.72199e-05
-1.36247e-05
0.000107149
-0.000157841
-6.39399e-05
-6.27402e-05
-3.37145e-05
6.42657e-05
1.16763e-05
-1.7802e-05
2.97408e-05
-0.000427228
-0.000307184
5.42579e-05
4.34175e-05
2.4477e-05
-0.00055091
0.000114163
-0.000126294
-6.4056e-05
-4.71913e-05
-2.60504e-05
2.32603e-05
-3.10326e-05
0.000118081
4.37852e-05
-0.000920176
0.000139665
-9.78319e-05
0.000106701
-0.000169451
0.00101353
-0.000961727
3.04576e-05
-2.44641e-05
5.5254e-05
5.10515e-05
0.000202367
0.000344352
-0.00108962
3.06013e-05
-4.09082e-05
8.53745e-05
-9.07408e-06
1.63703e-05
1.01511e-05
0.000932101
0.000135372
6.49811e-05
4.89946e-05
-1.80259e-05
3.03708e-05
-6.76626e-05
-2.30667e-05
-0.000991848
0.000666444
6.94314e-05
-1.44108e-05
0.000260722
2.21398e-05
9.62414e-05
4.25785e-05
-5.98126e-07
0.00111875
6.9531e-05
-0.0010835
-0.000569415
0.000743846
7.80307e-06
4.56981e-06
8.39898e-05
-0.000108748
0.000161865
0.000504616
-0.000729202
0.000224586
0.000437258
6.73578e-05
0.000448519
-1.12609e-05
-0.000310224
0.000467336
-0.000680851
-0.000604177
-0.000505492
-9.86853e-05
6.72375e-05
-6.82856e-05
3.36523e-05
-3.81753e-05
-0.000938663
-0.000121174
-8.52576e-05
1.28804e-05
-2.34749e-05
1.73129e-05
-1.59068e-05
-2.83526e-05
-4.82684e-05
2.90001e-05
8.12188e-05
-8.78762e-06
2.03422e-06
2.42565e-06
-1.41915e-05
3.04606e-05
-0.000102279
-9.68616e-06
0.000437665
0.000816788
-8.32745e-05
9.93035e-06
3.45899e-05
-9.20628e-05
0.000200062
-0.000148907
-0.000229042
-0.00100354
0.000146725
-2.92945e-05
0.000216102
-0.000477641
-2.78513e-05
0.000300436
-0.00015223
-0.000640036
0.000129943
1.24823e-05
-4.23069e-05
-3.96206e-05
-0.000148665
-0.000105448
4.86383e-05
6.66631e-05
9.83921e-05
-0.00115421
0.00104231
-4.55248e-05
0.000172278
-0.000180186
-4.86514e-05
5.65594e-05
-1.03898e-05
6.45294e-05
-1.872e-05
-8.46429e-05
0.000196426
-5.98931e-05
7.92354e-05
-0.00119341
1.93802e-06
0.000683685
-0.000383725
-1.99682e-05
-3.16198e-05
-0.000109174
-4.19106e-05
-2.44575e-05
4.02405e-05
5.73126e-07
1.76489e-06
-0.000116769
0.000110782
-0.000134161
-1.49045e-05
-0.000101594
9.48461e-08
-0.000617179
-0.000380441
5.59877e-05
0.000176552
4.26369e-05
-0.000159769
9.29285e-05
5.75478e-05
-6.98061e-06
-9.88356e-05
0.000997782
0.000109398
2.69089e-05
0.000137279
8.69607e-05
0.000126976
-8.00955e-05
-0.000129286
-0.000803914
0.00112417
2.42324e-05
-7.34376e-05
2.53969e-05
-6.38144e-05
-4.12586e-05
2.9964e-05
-4.22774e-06
0.00104067
-4.20294e-05
1.94389e-06
-6.69911e-06
0.000188906
0.000168971
-0.000113495
-0.000126033
9.81482e-05
-0.000866374
4.11588e-05
0.000615947
8.21671e-05
-4.49593e-05
1.26712e-05
0.00108944
7.06748e-05
3.93939e-05
9.55183e-05
-0.000400226
2.24918e-05
0.000139447
-6.39584e-05
1.81512e-05
-0.000169809
0.000150409
3.88331e-05
-0.000170432
3.47431e-05
3.73595e-05
6.11464e-05
0.000147555
-7.89035e-06
-0.000170379
0.000158338
-0.00096583
0.0010322
-0.000249615
0.000183249
-2.03489e-05
5.60415e-05
1.23694e-05
-5.4034e-05
0.000228255
-0.000247776
0.000522497
-0.000460322
-0.000225959
-2.24004e-05
-2.84652e-06
9.56711e-06
-4.65617e-05
4.39811e-05
-4.98606e-05
-0.00116107
-6.94765e-05
-2.43496e-05
-0.000160842
-3.96172e-06
0.00016127
-0.00107273
0.00097148
1.7692e-05
-1.7963e-05
0.00099462
-5.56145e-05
0.000559468
-0.000482918
-7.65498e-05
0.000378111
4.60961e-08
0.000128654
1.41812e-05
-1.13075e-05
1.21474e-05
-0.000901743
0.000911673
0.00017446
-0.000132396
0.000278267
-0.000298225
1.99577e-05
-0.000251203
0.000207217
2.70638e-05
-0.000313505
1.52804e-05
0.000148695
8.65712e-05
0.000320286
-0.00106783
3.59073e-05
2.68502e-06
-4.93159e-06
4.24412e-06
0.000231662
-0.000247344
2.52117e-05
6.06542e-06
-3.12771e-05
-1.35973e-05
0.000187984
1.46574e-05
4.80652e-06
-0.000339217
-6.54487e-07
-0.00013115
-0.000619848
0.000450278
-3.90309e-05
-1.72074e-05
6.18268e-06
2.97246e-05
-0.000214667
1.43626e-05
2.71877e-05
0.000584287
-1.46105e-05
4.90059e-05
-6.15699e-05
7.64262e-05
-4.57257e-05
-3.34806e-05
-0.000110976
6.06752e-05
-9.4585e-06
2.05608e-05
4.65092e-06
-7.94861e-06
1.41313e-05
9.53503e-05
8.83205e-05
-1.65003e-05
2.04186e-05
8.42363e-06
-2.12558e-05
-2.67387e-06
-9.3036e-06
-8.21886e-05
0.000460046
-0.00042732
-8.44323e-05
-1.25402e-05
-0.000257771
1.72093e-05
3.35149e-06
2.7228e-05
-8.71408e-05
0.00105437
-1.34784e-05
-0.00101573
-0.00014481
0.000145112
0.000620124
-0.000113318
0.000403345
-0.000204338
-2.02676e-05
5.95029e-05
2.15636e-05
0.000307537
4.60596e-05
-4.41157e-05
-0.000221806
0.000317156
6.358e-07
-1.71361e-05
0.00141004
-0.00113961
-9.21758e-05
-0.000925107
-7.44123e-05
-5.32017e-05
-9.46461e-06
0.000111853
-1.03265e-05
0.000551229
-0.000722596
-0.000101969
9.64534e-05
5.60585e-06
-2.32455e-05
0.000147466
0.000178047
-8.19318e-05
-0.000888126
-6.43298e-05
-8.9533e-05
-0.000369612
0.000394306
-0.000168601
0.000589393
0.000924581
-0.000265267
-5.18904e-05
1.87615e-05
-5.61918e-05
-0.000191605
0.000146831
0.000683541
5.60165e-06
6.11026e-05
0.000157651
-1.00965e-05
7.42167e-05
0.000163254
1.55764e-05
6.20238e-06
-0.000255492
-0.00023982
-2.41033e-05
0.00025972
-2.77358e-05
3.72883e-05
4.06284e-05
0.000129619
6.91606e-05
4.73736e-05
8.97083e-05
0.000140659
2.98749e-05
0.00090442
-0.000915748
-4.21232e-05
-1.94111e-05