/*--------------------------------*- C++ -*----------------------------------*\
| =========                 |                                                 |
| \\      /  F ield         | OpenFOAM: The Open Source CFD Toolbox           |
|  \\    /   O peration     | Version:  v1912                                 |
|   \\  /    A nd           | Website:  www.openfoam.com                      |
|    \\/     M anipulation  |                                                 |
\*---------------------------------------------------------------------------*/
FoamFile
{
    version     2.0;
    format      ascii;
    class       volVectorField;
    location    "0.71";
    object      U;
}
// * * * * * * * * * * * * * * * * * * * * * * * * * * * * * * * * * * * * * //

dimensions      [0 1 -1 0 0 0 0];


internalField   nonuniform List<vector> 
1466
(
(-0.152956 0.875992 0)
(-0.00478279 -0.40905 -1.45588e-16)
(-0.823557 -0.164552 -1.63866e-16)
(0.00518352 1.30906 1.50663e-16)
(0.994974 -0.120367 -6.19606e-16)
(1.69529 0.269561 -4.19307e-16)
(0.7339 -0.130775 2.88196e-16)
(-0.226967 -0.416915 4.53617e-16)
(-0.186038 1.85946 1.39252e-16)
(0.27116 -0.116213 8.69273e-16)
(-0.369383 -0.100113 -1.72481e-16)
(0.259011 0.0158608 1.80331e-16)
(-0.0562314 -0.053009 1.09173e-17)
(0.508788 1.23452 -1.21429e-16)
(1.01687 0.196303 -2.65242e-18)
(-0.0106132 0.516579 -3.7987e-21)
(-0.501175 0.000970247 7.55735e-17)
(-0.0872386 0.836764 -1.63913e-16)
(1.00697 0.190949 -1.65191e-16)
(0.043948 1.28491 0)
(-0.0273652 0.00246055 1.64888e-16)
(0.253539 0.152106 -3.73483e-16)
(0.934696 -0.0410969 0)
(0.0575298 -0.558044 8.91117e-17)
(0.636148 1.12727 -1.79209e-16)
(-0.833223 -0.054654 1.82492e-16)
(-0.895596 -0.123348 1.88048e-16)
(0.851804 0.0811298 3.10637e-16)
(0.529173 0.112429 0)
(-0.945158 -0.184384 4.36304e-16)
(0.613263 -0.434951 0)
(0.76273 0.427675 7.89388e-16)
(0.664961 0.195373 -3.15617e-16)
(-0.881903 0.0856372 -1.10017e-16)
(-0.267938 0.597003 0)
(0.910255 0.146256 2.82586e-17)
(-0.250783 -0.111249 8.72678e-20)
(1.1457 -0.132826 0)
(0.364064 1.00537 -5.39613e-16)
(0.411341 0.124515 3.31226e-16)
(0.30811 -0.0143003 -1.91735e-16)
(0.620518 0.347576 -1.87836e-16)
(-0.109237 1.66664 -3.83577e-16)
(-0.23711 -0.305029 2.56118e-18)
(0.685106 -0.0359619 0)
(-0.271224 1.04829 -1.91312e-19)
(0.954759 -0.158072 -1.75272e-16)
(0.0150672 0.51027 1.23879e-16)
(0.589433 0.375857 -2.60323e-16)
(0.00357176 -0.0834626 -9.22086e-17)
(-0.789806 -0.075554 0)
(0.315444 -0.096415 -3.45385e-16)
(0.796013 -0.171796 4.42822e-16)
(1.7824 0.0901306 4.16111e-16)
(0.0959102 -0.0153381 4.50148e-16)
(0.251366 0.136755 -1.42034e-16)
(1.18629 0.0377155 0)
(0.0036261 0.543296 3.36293e-16)
(0.513456 0.168175 1.44639e-17)
(0.310014 0.148958 0)
(-0.00264593 0.57279 -2.65383e-18)
(-1.08875 -0.0173127 1.10324e-16)
(0.933022 -0.26247 1.40946e-16)
(1.59242 0.155776 -4.18507e-16)
(-0.048806 -0.471041 2.49247e-16)
(0.258384 1.3092 -3.53528e-17)
(0.208247 0.113282 -4.38803e-17)
(-0.041213 0.107968 -2.13889e-16)
(-0.0392096 1.14796 -1.36058e-17)
(-0.0842225 0.0902874 0)
(-0.820235 0.0670097 0)
(-0.0172967 1.20339 -6.58003e-17)
(1.14084 -0.142699 -5.0871e-16)
(-0.0123326 1.01081 -2.28355e-16)
(0.884548 -0.0833032 3.80122e-17)
(0.293974 -0.224391 -2.20767e-16)
(-0.0415064 0.866519 5.62707e-17)
(-0.0497148 0.934595 2.02766e-16)
(0.699667 0.0776345 0)
(0.172209 0.0350588 0)
(-0.807212 0.0408531 -3.53219e-17)
(-0.00955705 0.872648 2.29867e-16)
(0.955562 0.144216 0)
(0.582196 0.364862 1.56435e-18)
(1.01654 -0.31164 1.94776e-16)
(0.144821 -0.24782 -1.02533e-16)
(0.941208 -0.360243 -2.49644e-16)
(0.0424423 -0.586538 1.66672e-16)
(0.283898 1.28892 -3.85748e-17)
(-0.56862 0.43169 7.11554e-18)
(0.0728665 1.40414 1.08665e-16)
(-0.57004 -0.10048 0)
(0.024322 -0.130226 -7.28329e-17)
(0.00057597 1.26306 2.0435e-16)
(-0.727889 -0.0885876 0)
(-0.346383 -0.0417485 -2.1502e-16)
(0.0991388 -0.785305 7.12981e-16)
(0.711084 0.159347 0)
(-0.915131 -0.0814124 1.70498e-16)
(0.1334 1.43275 -1.68624e-16)
(0.413467 0.00265191 0)
(0.732197 0.0981725 -9.84184e-17)
(-0.756235 -0.248228 4.35491e-16)
(0.0610934 -0.41864 -1.76218e-16)
(1.01733 0.0651568 0)
(-0.238445 1.4721 -2.63619e-16)
(-0.0498735 0.205487 1.94287e-16)
(0.95356 0.127857 -7.49344e-18)
(-0.6222 -0.0401413 6.16435e-17)
(0.822316 0.692194 6.50927e-18)
(0.329347 0.121497 2.03068e-17)
(0.798738 -0.211364 4.75389e-16)
(0.495123 -0.140068 -3.72208e-16)
(1.08521 -0.214048 -2.36586e-19)
(-0.0508101 -0.130105 -2.19287e-17)
(-0.659451 2.65615 0)
(0.194952 1.35494 -8.11071e-17)
(0.276409 1.37207 5.7002e-16)
(-0.692819 0.290657 3.66334e-17)
(0.0252018 0.412793 -5.03129e-16)
(-0.400985 0.11187 2.01677e-16)
(-0.142849 0.956033 0)
(0.0409846 0.483407 -7.97876e-17)
(0.0593433 -0.686281 -8.61287e-17)
(0.316151 1.16958 3.0774e-16)
(0.0427592 0.157128 -1.2936e-16)
(0.0619257 0.0576505 3.10923e-17)
(-1.27556 -0.252734 0)
(0.0614238 -0.079093 7.00191e-17)
(-0.425264 0.938535 -2.83115e-16)
(0.609602 0.202537 1.19488e-16)
(-0.0591196 0.799313 -1.33318e-20)
(-0.404442 0.278523 2.48686e-17)
(0.177375 0.0833223 -7.1988e-17)
(-0.759571 0.00971578 -1.09752e-17)
(0.0523586 -0.0672576 1.77022e-16)
(0.666622 0.300791 0)
(0.852703 -0.428462 0)
(0.764985 -0.0859683 3.90135e-17)
(-0.0925938 0.279621 1.03362e-16)
(0.18625 -0.0614978 -1.15966e-16)
(-0.641932 -0.0545751 -1.69475e-16)
(0.0551101 -0.00376735 8.11913e-17)
(0.159674 -0.263617 -4.95503e-16)
(0.737716 -0.0668499 1.53901e-16)
(0.406572 0.460884 0)
(0.125722 -0.276259 0)
(-0.974173 -0.0113625 0)
(0.0245675 0.0283821 8.2929e-17)
(1.08698 -0.209261 2.49191e-16)
(0.076102 0.00145894 -1.61767e-16)
(0.142792 0.171779 4.77224e-18)
(-0.449162 0.533888 1.31847e-16)
(0.154173 -0.676019 -2.6389e-17)
(0.094746 1.33642 -1.80278e-16)
(-0.747462 -0.140556 -8.03089e-17)
(-0.0398898 1.16236 -3.74966e-16)
(-0.443636 -0.998837 1.59198e-16)
(0.307895 0.104474 -8.13126e-17)
(-0.831173 0.0987783 0)
(0.76284 0.0488569 1.16264e-16)
(0.227188 1.37194 -2.41229e-17)
(0.018795 -0.426315 3.23541e-16)
(-0.376267 0.0326928 1.97526e-16)
(0.700891 0.161583 -5.10534e-18)
(-0.0243423 -0.147189 7.04591e-20)
(0.0140656 1.16792 0)
(-0.27069 0.127288 1.02578e-16)
(0.146851 1.05208 4.83655e-18)
(-0.90895 -0.0952485 3.2633e-16)
(-0.145758 -0.194098 2.76807e-16)
(0.258624 -0.324479 2.64712e-16)
(0.150795 0.117498 0)
(-0.0526166 0.00815034 1.05951e-16)
(-0.845131 -0.0832095 -7.3024e-16)
(-0.00374717 -0.517277 2.13868e-16)
(0.661454 0.226254 1.62397e-16)
(0.235572 0.0363819 -2.5108e-17)
(1.00672 0.244133 -1.37527e-16)
(0.107893 -0.0568707 2.49749e-17)
(-0.0821991 1.04363 -2.06544e-16)
(0.872482 0.0708749 2.16553e-16)
(0.648353 0.163142 -3.00125e-16)
(0.313485 1.3468 -5.20561e-16)
(-0.0366366 -0.537664 -4.48953e-16)
(0.496245 1.30468 5.57258e-16)
(0.773367 0.128639 0)
(-0.448784 2.54778 0)
(0.813942 0.105773 -5.28991e-17)
(-0.516566 -0.456571 0)
(0.0431473 -0.674977 0)
(0.127147 0.89657 1.28982e-16)
(0.273521 1.3977 2.12347e-17)
(-0.00474055 -0.45968 -9.27959e-17)
(0.935826 -0.0136895 -4.72178e-20)
(-0.046409 1.039 0)
(0.761176 -0.120881 -5.16245e-17)
(0.842904 0.454253 -1.36124e-17)
(0.978037 0.577532 -1.2815e-17)
(0.873894 0.861123 -5.96245e-18)
(-0.357519 -1.02102 -8.77521e-17)
(0.193973 -0.2958 3.29805e-16)
(0.979513 0.102419 -6.20316e-17)
(0.209772 1.17783 2.55336e-16)
(0.252333 0.268491 0)
(0.580344 0.380862 3.44157e-16)
(0.820058 0.116706 1.65045e-16)
(-0.561667 0.537642 1.3901e-16)
(0.991505 0.246413 4.99291e-17)
(0.426712 0.163607 1.15821e-17)
(0.612139 0.306686 5.55967e-17)
(-0.374271 -1.23614 3.17148e-19)
(0.280049 -0.224113 -1.15642e-16)
(0.915997 -0.482428 -1.51826e-19)
(-0.813966 0.122122 -8.66433e-17)
(0.760463 0.113173 2.72318e-17)
(-0.784657 -0.250166 -8.45085e-17)
(-0.187615 -0.0914657 0)
(0.119086 1.4314 0)
(-0.00529658 1.18256 -1.34857e-21)
(-0.514272 -0.0637258 1.45624e-16)
(-0.256207 0.7991 0)
(0.0569008 1.00021 6.17689e-17)
(0.912456 -0.26375 3.71764e-17)
(-0.0354482 0.044022 -5.74649e-17)
(0.804316 -0.342062 0)
(0.741074 0.92974 7.93519e-17)
(0.161912 0.680272 1.29522e-16)
(-0.214422 0.13308 3.00001e-18)
(-0.0154818 1.54025 -3.4967e-16)
(0.867219 -0.505141 2.66491e-16)
(0.0762764 -0.539646 0)
(0.133215 1.04297 -1.27356e-16)
(0.419023 0.154841 1.93774e-20)
(0.987389 0.163137 0)
(0.433737 0.431481 0)
(0.491197 0.109923 0)
(-0.785456 -0.311798 -5.93637e-16)
(0.590848 0.0633828 -1.16272e-16)
(0.651033 0.881829 0)
(-0.0941571 1.74782 1.40793e-16)
(0.647513 0.0319519 3.20924e-16)
(-0.452524 -0.126092 -4.03973e-17)
(0.721849 0.233178 -7.53671e-16)
(0.610614 0.299172 0)
(-0.171608 0.066455 -1.89485e-16)
(-0.643886 0.029473 -5.57997e-19)
(-0.629015 0.00331207 3.46636e-16)
(-0.158203 -0.0659211 0)
(-0.347134 0.0857096 -5.70305e-18)
(0.0916212 1.15896 -7.37722e-16)
(0.308896 0.321891 -1.03232e-16)
(0.593506 0.368382 -1.28316e-16)
(0.0889888 -0.499528 5.27039e-16)
(0.218673 0.899378 0)
(0.533035 0.266516 1.66777e-16)
(0.928905 0.626521 -1.22296e-17)
(-0.000841155 0.933429 -6.28746e-17)
(-0.595081 2.93342 1.01249e-16)
(0.327904 -0.194092 -1.2998e-16)
(0.852149 -0.527108 -1.23468e-19)
(0.95702 -0.401364 2.62895e-16)
(0.503763 0.422769 -2.38109e-20)
(-0.684833 0.198544 -2.64352e-17)
(1.41479 0.186814 -2.06544e-16)
(0.939211 0.140385 -2.65983e-16)
(-0.290775 1.88813 9.62252e-17)
(-0.253613 -0.633597 1.68899e-19)
(0.18011 -0.311445 -6.98135e-17)
(-0.0223913 1.17495 -5.72402e-17)
(0.931042 0.115499 -9.2125e-17)
(-0.0881319 0.996968 6.32754e-17)
(0.759498 -0.392395 2.99802e-17)
(0.651164 0.547065 3.07676e-18)
(1.03379 -0.333841 -4.00773e-16)
(0.540271 0.248176 6.00608e-17)
(0.122785 -0.379142 1.56156e-16)
(0.326095 0.672808 0)
(-1.09733 -0.14811 -5.98583e-18)
(0.586235 0.354865 2.05539e-16)
(0.656146 0.498965 2.80368e-17)
(-0.0551525 0.000603112 0)
(-0.524477 0.0590984 6.58192e-20)
(-0.0674964 -0.00642871 5.33143e-18)
(-0.178896 -0.169036 -9.8233e-17)
(0.477132 -0.139628 -1.01808e-16)
(0.0736947 0.14553 0)
(-0.320086 -0.143896 0)
(-0.790656 0.176278 2.76681e-16)
(-0.119484 0.334059 1.41447e-16)
(0.736022 -0.403395 -2.14401e-16)
(-0.361257 1.89776 -4.69284e-17)
(0.14106 0.314453 -4.6642e-17)
(0.247797 -0.148209 0)
(0.615817 0.271291 -1.80572e-16)
(-0.108065 -0.138048 0)
(-0.272704 1.97565 7.13243e-17)
(-0.725764 2.04174 4.94241e-19)
(0.197415 -0.109169 0)
(0.169405 0.419031 -2.23956e-16)
(0.197379 0.150305 -6.75365e-17)
(-0.271222 -1.1963 3.46075e-16)
(0.0832904 0.110273 -4.38394e-17)
(0.196684 0.198374 8.63015e-17)
(0.852319 0.207614 2.59485e-16)
(0.316069 0.172671 -4.26648e-16)
(0.0214682 0.132102 -1.78506e-16)
(0.542342 0.230873 -1.30837e-16)
(-0.220619 0.00255813 5.39012e-18)
(-0.6288 2.92057 1.98412e-16)
(-0.2491 1.58199 2.83859e-16)
(-0.642661 -0.0779167 4.13796e-17)
(-0.112407 -0.255835 -1.41613e-16)
(0.0277983 0.0501321 -2.79351e-16)
(0.611075 0.310437 6.3575e-17)
(0.465784 -0.303593 -2.43759e-17)
(-0.100342 -0.52403 -1.31517e-20)
(-0.779694 -0.0121015 1.82017e-16)
(0.602025 -0.169452 0)
(-0.00486343 0.0862562 -4.16564e-17)
(0.711996 -0.272872 -3.04478e-17)
(-0.00260443 -0.0611558 -1.92016e-16)
(0.639145 0.106269 5.59858e-16)
(1.1112 0.00307502 -1.6747e-16)
(0.00327619 0.0523069 1.87646e-16)
(-0.62689 0.121891 -1.25082e-16)
(-0.429259 -0.0300277 2.13608e-17)
(-1.05089 0.00180152 0)
(-0.542977 0.0241086 0)
(-0.761646 -0.00202016 -1.4886e-16)
(0.525742 0.0145324 0)
(1.16799 -0.0352896 3.51628e-16)
(-0.443225 0.00251548 2.00329e-17)
(-0.629339 -0.0600179 0)
(0.161984 0.0645051 -1.25772e-17)
(1.15383 -0.0165468 0)
(0.447755 -0.100766 -4.80912e-17)
(-0.66017 -0.00342118 -1.24213e-16)
(0.409024 -0.026136 -1.55958e-17)
(-0.787421 0.0116781 1.53462e-16)
(0.62683 0.014345 0)
(1.06609 -0.0467721 -2.65096e-16)
(-0.238604 0.0312483 0)
(-0.479965 -0.0314569 0)
(-0.912205 0.10736 -1.28373e-16)
(-0.685015 0.0380964 0)
(0.669121 -0.0617068 -8.33949e-17)
(0.808694 -0.0830667 8.27076e-17)
(0.0972551 0.256641 1.09595e-16)
(-0.756571 0.326119 -2.97879e-16)
(0.568178 0.329779 5.17275e-17)
(0.785771 -0.52943 5.13363e-16)
(0.52724 0.338903 -5.15644e-17)
(0.482328 0.264442 -4.05322e-16)
(0.485664 0.247189 2.37314e-16)
(0.419562 -0.26119 -4.37612e-18)
(-0.358332 -0.94282 -3.70403e-16)
(0.130275 -0.588768 3.9012e-16)
(-0.572591 3.32706 2.76739e-19)
(-0.131093 0.0716565 -2.15874e-16)
(-0.847547 0.0625229 0)
(0.111665 0.0316996 1.95487e-16)
(-0.0661002 -0.120011 2.10678e-16)
(-0.471536 -0.05297 -2.7696e-16)
(0.0700718 0.152797 3.91488e-17)
(-1.04015 0.0549007 0)
(-0.443161 -0.0350973 -2.20879e-17)
(-0.492704 0.0374492 -1.44831e-17)
(1.02055 -0.0701831 1.25159e-16)
(0.723287 -0.0366869 0)
(-0.7374 0.0322188 1.86975e-17)
(0.632886 -0.0573801 -8.76574e-17)
(0.570638 -0.0532635 -2.59952e-16)
(1.17363 -0.0281292 0)
(-0.701965 -0.0661798 -4.31616e-16)
(0.346629 0.0509465 0)
(-0.395574 0.0893621 8.93394e-17)
(-0.24011 -0.129426 -7.93789e-18)
(0.996815 -0.497536 3.46186e-16)
(0.0225738 0.232773 -2.212e-16)
(0.646493 -0.282099 2.65412e-17)
(-0.0281223 0.0804276 -2.87867e-17)
(0.279002 0.161363 -8.10147e-18)
(-0.618301 -0.0468881 -8.55159e-17)
(0.0313805 0.123724 -2.48146e-17)
(-0.0220467 0.286615 4.23142e-16)
(-0.210578 -0.157859 1.07389e-16)
(-0.171881 -0.28657 0)
(0.594708 -0.091469 0)
(-0.0120244 0.318035 0)
(0.0289575 0.278541 3.50369e-16)
(-0.0822908 0.629799 0)
(-0.0642814 0.111709 1.39498e-17)
(-0.761153 1.40729 5.65345e-17)
(-0.169499 0.0557652 -4.35695e-17)
(1.0239 0.399318 -7.63189e-17)
(-0.0955441 -0.02301 1.95831e-18)
(-0.749653 0.0355823 -1.27938e-16)
(1.05836 0.0157108 -8.83679e-17)
(0.31063 -0.0823108 5.24046e-17)
(0.622288 0.00110786 3.75608e-17)
(-0.770712 0.0516305 -3.89296e-18)
(-0.136542 0.121184 -2.0205e-16)
(0.752408 -0.461235 -2.48726e-17)
(0.343204 -0.119093 0)
(-0.156409 -0.0774281 2.98618e-16)
(0.206122 -0.216691 -1.38145e-16)
(-0.499946 3.00491 -2.03554e-16)
(0.397621 0.0370294 -1.02404e-16)
(0.25524 0.163834 -1.07973e-16)
(-0.186199 -0.24193 2.24665e-17)
(-0.198176 0.242565 -3.81761e-16)
(0.0520788 0.145022 5.87988e-17)
(-0.020002 0.161826 4.44914e-17)
(-0.76521 1.46434 -3.49e-17)
(0.0866496 0.10897 1.54563e-16)
(0.342736 -0.174899 -3.30197e-17)
(-0.0752956 0.282053 1.44443e-19)
(0.0956608 0.280927 0)
(0.0895541 0.216031 0)
(0.123008 0.24511 7.73496e-16)
(0.0272818 0.282817 8.96772e-17)
(0.593612 0.203038 -1.52718e-16)
(1.07752 0.232892 5.19648e-16)
(0.895247 0.215847 -3.17603e-16)
(1.10336 0.225149 6.62409e-16)
(0.949914 0.215459 -1.52993e-16)
(0.802294 0.223882 -4.11734e-16)
(1.21733 0.220474 -2.71877e-16)
(1.24022 0.221885 -2.91304e-16)
(-0.106226 -0.355232 -2.19093e-17)
(0.17884 -0.272667 -4.42981e-17)
(0.30281 -0.0771881 4.02973e-17)
(-0.485723 -0.597515 -1.96184e-19)
(-0.176262 1.31599 -1.12434e-16)
(-0.527902 -0.169899 -1.50495e-16)
(-0.749356 1.10026 2.24183e-16)
(0.0379571 -0.442186 2.46006e-16)
(-0.75134 0.177413 4.31633e-16)
(-0.830942 0.373291 -1.82421e-16)
(-0.175235 -1.21952 -4.67503e-17)
(0.0916674 0.28259 0)
(-0.42002 -0.945489 3.18308e-16)
(-0.399952 0.384816 4.41801e-17)
(-0.764371 0.293085 -2.32652e-16)
(-0.760967 0.991776 -2.30567e-16)
(-0.719442 0.754431 0)
(-0.610808 0.988607 2.70238e-16)
(-0.563461 0.849562 0)
(-0.218424 0.318032 7.6854e-17)
(-0.560752 1.21994 1.84373e-16)
(-0.721183 1.33653 0)
(-0.282321 0.434283 -4.99478e-17)
(0.367275 0.144556 -3.97925e-16)
(-0.707758 0.673128 -7.25357e-17)
(-0.65371 0.090971 -3.0012e-16)
(-0.643769 1.06292 -2.59207e-19)
(-0.748703 1.06648 0)
(-0.282107 0.105342 0)
(-0.281783 0.372748 -1.24892e-16)
(-0.729142 0.632309 1.57682e-16)
(0.380847 -0.00319814 3.23771e-18)
(0.407952 0.102311 3.41364e-16)
(-0.00414145 0.31217 4.17736e-16)
(-0.371353 -0.831998 -5.92244e-17)
(-0.270423 -0.347697 0)
(-0.581757 -0.0243484 1.56903e-16)
(0.172184 -0.203429 -1.19966e-17)
(-0.0299954 -0.22843 0)
(-0.0220779 0.837793 1.1094e-16)
(-0.489813 -0.430312 3.03559e-17)
(-0.571556 0.259952 -3.31612e-17)
(-0.0995562 0.38581 -3.01541e-16)
(-0.428352 0.225497 6.58287e-17)
(-0.0760284 0.657576 -1.01498e-15)
(0.467808 -0.417097 -7.1335e-16)
(-0.14735 0.512849 0)
(-0.0765814 0.742439 -4.63687e-17)
(0.867078 0.126715 -1.1833e-16)
(0.386463 0.83195 2.73806e-16)
(-0.00123935 -0.109016 -5.64069e-17)
(0.154187 -0.121387 -5.62038e-17)
(0.237882 0.847223 5.1023e-16)
(0.00605787 -0.0136134 -1.78712e-16)
(0.551845 -0.00462539 0)
(0.1406 0.073665 1.41171e-16)
(0.265689 -0.000237354 -5.59284e-16)
(-0.834642 0.0133945 6.3441e-17)
(-0.319737 1.07033 -2.33608e-16)
(0.549367 -0.253554 -6.03759e-17)
(0.340732 0.302424 -1.76521e-16)
(-0.00956537 0.216115 -9.77093e-17)
(0.0691708 0.0760241 9.96781e-17)
(-0.845498 0.0565501 -4.2766e-17)
(-0.272606 0.239921 0)
(0.689052 0.44315 1.60611e-16)
(-0.0340738 1.07804 -8.90704e-19)
(-0.629011 0.299927 1.26588e-16)
(-0.193163 -0.657954 -1.34168e-17)
(-0.17498 -0.93025 1.16684e-17)
(0.212922 0.308824 1.98556e-16)
(0.292448 0.0974457 1.26467e-17)
(0.00419538 0.0145279 5.73658e-17)
(-0.0251883 0.172842 -6.01153e-17)
(-0.85137 0.0793207 4.399e-17)
(-0.0911032 -0.0152013 -1.55745e-16)
(0.438834 -0.249347 3.95153e-16)
(-0.467686 0.363855 -1.9917e-17)
(-0.387379 0.370346 -4.04252e-16)
(-0.631821 0.306489 -1.00435e-17)
(-0.65548 0.722162 -3.86493e-16)
(0.335072 0.691985 0)
(-0.721021 0.536701 2.53577e-16)
(-0.283205 0.427181 7.72389e-17)
(-0.167742 0.587501 -6.22541e-18)
(-0.6976 0.409816 -7.98008e-17)
(-0.0077482 0.345443 2.90237e-18)
(0.0377258 0.168552 -9.90307e-17)
(0.259893 0.224155 -5.93693e-16)
(0.140371 0.314386 -2.11254e-16)
(0.321752 0.205288 9.87993e-16)
(-0.770047 1.48486 3.95257e-17)
(-0.335255 -0.445774 1.26337e-18)
(-0.16771 1.03805 2.94945e-16)
(-0.163346 0.717973 0)
(-0.00162962 0.287851 2.68248e-16)
(-0.33552 -0.636463 0)
(-0.383132 -0.23892 8.45674e-17)
(-0.00443696 0.271874 9.01528e-17)
(-0.848138 0.075144 -4.76328e-17)
(-0.48439 -0.0385657 3.46609e-16)
(-0.0847281 -0.147407 -5.46335e-17)
(-0.472643 0.355515 -6.52758e-17)
(-0.425689 0.352118 1.3437e-16)
(-0.235173 0.497811 0)
(-0.519595 -0.00738741 0)
(0.580704 0.0843303 1.92925e-16)
(-0.487699 -0.266193 -3.07353e-17)
(0.0548345 -0.163164 -4.64351e-17)
(0.0133018 0.289788 -4.47453e-16)
(-0.485654 -0.146648 3.85454e-17)
(-0.68434 0.635954 3.67609e-17)
(-0.730589 0.829975 2.12638e-16)
(-0.600362 0.228852 -1.14426e-16)
(-0.614668 0.359361 1.05003e-16)
(-0.090398 0.666918 -5.05091e-17)
(-0.534265 -0.0376128 0)
(-0.771859 1.89556 0)
(-0.750815 1.05663 0)
(0.164726 0.389991 1.03699e-16)
(0.21398 0.137148 2.93338e-16)
(1.08839 0.0839037 -8.59001e-18)
(-0.580487 0.165467 6.59231e-17)
(0.0891022 -0.131731 8.75994e-17)
(-0.0407455 -0.202526 -1.50371e-16)
(-0.716799 0.996093 0)
(0.127167 -0.266097 -1.5542e-16)
(0.518172 -0.286586 -5.73337e-17)
(0.450539 -0.0666496 -1.43999e-16)
(-0.814391 0.543386 -6.02857e-17)
(-0.744239 -0.198854 4.93736e-16)
(0.321874 0.121736 1.32408e-17)
(0.00872222 -0.182655 9.59429e-17)
(-0.73087 2.23706 0)
(0.393643 -0.17637 -5.91834e-16)
(0.378616 0.146205 -9.79814e-17)
(0.720786 -0.14422 0)
(0.322092 0.400095 4.92754e-17)
(-0.560383 0.40456 -1.17708e-17)
(-0.775586 1.9344 1.64058e-17)
(1.07528 0.103755 0)
(-0.904284 -0.018045 0)
(-0.498911 0.457412 1.01133e-16)
(0.653811 -0.00171157 2.20822e-16)
(-1.02403 -0.146207 -7.25571e-17)
(-0.36288 0.447051 1.333e-16)
(0.103297 0.760038 1.37282e-16)
(-0.854057 0.0724576 0)
(-0.619346 0.47839 -1.25944e-16)
(-0.422315 0.540994 1.01313e-16)
(0.527315 0.000533042 -1.0658e-16)
(0.575013 0.160053 9.30211e-17)
(0.463502 -0.191046 0)
(-0.0988561 -0.0373419 3.11472e-16)
(1.04246 -0.0661105 0)
(-0.445165 1.3097 3.18829e-19)
(0.0449407 1.10927 -1.94293e-16)
(-0.354572 0.299476 8.86137e-17)
(-0.739778 1.53164 0)
(0.0912446 0.733655 1.1117e-16)
(-0.129538 -0.042833 -2.31042e-17)
(0.797698 0.16477 1.70999e-16)
(0.567825 -0.125963 5.05793e-16)
(-0.795422 -0.264621 0)
(-0.0346742 0.428239 0)
(-0.050901 0.232947 -8.82371e-17)
(0.0609733 0.0276721 -9.36482e-17)
(0.183664 0.00935155 -1.23284e-17)
(-0.76982 1.42853 0)
(-0.0565011 -0.158373 -1.97002e-16)
(-0.653027 1.21862 1.19397e-16)
(0.095348 0.385578 -1.89201e-16)
(0.105496 0.173143 -3.84664e-16)
(-0.791274 -0.356509 3.87533e-16)
(-0.809292 -0.00373995 1.99413e-16)
(1.00086 0.281697 2.6847e-16)
(0.553897 -0.101466 0)
(-0.501836 -0.248374 -1.63703e-16)
(-0.717119 1.57274 -2.07505e-19)
(-0.75921 2.37456 2.92419e-16)
(0.152483 -0.0317009 -1.2375e-17)
(-0.291487 1.55407 7.29451e-17)
(0.224141 0.906771 2.59745e-16)
(-0.405219 2.5622 -2.79034e-16)
(0.0954707 0.029585 0)
(-0.854888 0.0350404 -1.84277e-16)
(-0.743256 1.88446 -7.04504e-18)
(0.17665 1.17175 -5.24091e-16)
(-0.691282 -0.0193828 -7.32126e-20)
(0.0150827 0.104068 -1.9849e-16)
(-0.0371105 0.208225 -2.00679e-16)
(0.723867 -0.0286306 -1.46273e-16)
(0.196361 0.548265 -3.82298e-19)
(0.567636 0.21028 0)
(-0.389592 0.314235 0)
(-0.204442 0.333157 -1.60855e-16)
(0.396645 0.188024 -1.06516e-16)
(0.435041 0.310048 -5.72576e-17)
(0.65223 0.0710359 -9.49166e-17)
(-0.636095 0.411292 -9.29074e-17)
(0.25703 0.445027 0)
(-0.760745 2.33214 -1.37076e-17)
(-0.797107 -0.281905 -2.18741e-17)
(-0.1483 0.0238534 2.47963e-17)
(-0.0425026 -0.0373146 8.91147e-17)
(0.292359 0.0366353 2.57187e-17)
(-0.0741701 -0.0506686 0)
(-0.660655 0.588768 5.89278e-18)
(-0.0425409 0.393646 -8.75706e-17)
(-0.143858 0.262105 8.61948e-17)
(0.612049 0.145992 0)
(-0.588751 0.10715 2.36238e-20)
(1.15578 0.0654068 -6.42913e-17)
(-0.893786 0.197072 -2.14563e-16)
(-0.720419 -0.0159643 3.69164e-17)
(0.548105 0.141916 0)
(-0.816015 -0.348885 -3.55179e-16)
(-0.830014 0.400955 -2.97781e-16)
(-0.482613 2.29266 1.43997e-16)
(0.555646 0.167118 0)
(0.226513 0.191692 -4.74379e-17)
(-0.65539 0.991734 0)
(0.445263 0.125153 0)
(-0.773742 0.785948 0)
(0.206233 0.060048 -8.15699e-17)
(0.169271 0.590482 2.69393e-16)
(0.0699193 1.62524 9.30481e-17)
(-0.118455 0.100247 1.15794e-15)
(0.496659 0.11702 -5.26776e-17)
(-0.800071 -0.279767 -2.82808e-18)
(-0.000568355 0.476589 -4.36349e-22)
(-0.738241 0.993875 -4.8339e-18)
(0.617062 0.0368358 -2.11269e-16)
(0.0858348 0.662623 1.40431e-16)
(0.196305 1.45306 1.0894e-16)
(-0.634343 0.252355 -8.22075e-17)
(-0.0929571 0.487553 1.69973e-16)
(0.639104 -0.228396 -4.14423e-16)
(-0.702929 0.8985 0)
(0.595668 0.131125 -8.2688e-18)
(0.494159 0.0344153 4.01074e-17)
(-0.323347 0.107368 1.0496e-16)
(0.228413 0.0357786 1.0694e-16)
(-0.857557 -0.360167 1.58045e-16)
(-0.082093 0.00762592 -2.19649e-16)
(1.02036 0.0460187 -2.19311e-19)
(0.147487 0.660219 -1.0269e-19)
(-0.68894 0.692805 0)
(-0.392149 0.266767 0)
(0.0599229 0.231372 4.42294e-17)
(-0.00494911 0.0357031 2.28459e-22)
(-0.250147 0.22137 1.93022e-16)
(0.750604 -0.124228 0)
(-0.783794 -0.369272 1.35254e-16)
(0.550801 0.330112 0)
(-0.74495 0.0622206 0)
(-0.117605 0.671738 7.71395e-17)
(-0.450699 -0.240007 -1.59247e-16)
(-0.905344 -0.0831257 -4.47847e-17)
(0.0564617 -0.497955 -4.80621e-17)
(0.15006 1.35599 8.49378e-17)
(0.59122 0.0263112 -1.32874e-17)
(-0.844511 0.0811886 2.80538e-16)
(0.195394 0.251948 1.29522e-16)
(-0.466649 -0.852921 -1.62687e-16)
(0.86193 0.35185 3.83215e-17)
(0.505688 0.314016 9.83555e-17)
(0.656006 -0.435957 -1.82677e-16)
(0.615268 0.0439906 9.34428e-17)
(0.0917657 -0.0162804 -2.3496e-16)
(-0.61887 0.58484 2.39146e-16)
(-0.713793 -0.327711 -1.72118e-16)
(0.497708 0.252811 9.7482e-17)
(-0.663563 0.343463 1.4625e-19)
(0.043099 0.100001 1.35836e-16)
(-0.33205 0.705209 -2.93856e-17)
(0.187949 -0.1229 0)
(-0.592222 0.418684 0)
(-0.552241 0.544599 -2.66925e-16)
(-0.024233 0.246729 9.23046e-17)
(-0.21709 0.245146 -1.8456e-16)
(-0.165008 -0.0212388 1.15854e-17)
(0.907013 -0.0858009 2.62197e-17)
(0.0460273 0.276759 0)
(0.0150155 0.186889 1.9762e-16)
(-0.0521159 0.769214 0)
(0.434045 0.257181 0)
(-0.758609 1.98782 -9.16815e-17)
(0.734722 0.138847 0)
(-0.910732 -0.130137 -3.71757e-16)
(0.188015 -0.191135 5.95181e-16)
(0.477433 0.0287472 1.03328e-16)
(-0.295576 0.218369 -8.67761e-17)
(0.0421901 -0.112459 -9.08515e-17)
(-0.720642 1.81148 -1.50256e-16)
(0.668766 -0.465642 -2.47764e-16)
(0.296004 -0.232655 2.10913e-16)
(0.56742 0.637221 -1.41907e-17)
(-0.658568 0.0768134 -2.77892e-16)
(0.874728 -0.0478668 -1.22119e-16)
(-0.052527 0.742488 6.85076e-17)
(-0.335739 0.616433 0)
(0.0277088 0.23361 -2.49073e-16)
(0.157024 0.0392786 1.04077e-17)
(0.115334 0.0166339 -3.92896e-17)
(-0.465628 1.68606 -2.71354e-19)
(0.233488 0.058596 -1.05622e-17)
(0.11097 -0.00114199 0)
(-0.662715 -0.0305492 -2.64385e-16)
(-0.422302 0.812713 0)
(-0.268913 -0.0365015 4.0941e-16)
(0.339892 0.0722732 -8.36754e-17)
(0.114433 -0.0115458 0)
(0.0793731 0.527347 7.79268e-16)
(0.0426266 -0.425814 1.9987e-16)
(-0.339944 0.156304 -3.24768e-16)
(0.0895342 0.0867286 -4.50361e-16)
(-0.52142 -0.200057 2.7255e-17)
(-0.413533 -0.159325 0)
(0.52324 0.204615 2.63917e-16)
(-0.985647 -0.257861 7.95144e-17)
(0.9765 0.015297 1.47327e-16)
(-0.260193 -0.097463 1.48155e-16)
(0.202409 0.0638178 5.11128e-17)
(0.0690642 -0.213305 4.43721e-17)
(-0.990118 -0.324227 -2.51429e-19)
(-0.651414 3.10902 -2.16597e-19)
(-0.0799857 1.35102 0)
(-0.896865 -0.109653 4.78171e-17)
(0.221621 0.338118 0)
(0.82542 0.0477217 -2.36229e-19)
(-0.302762 -0.0153664 -8.92024e-21)
(0.536465 0.0570607 5.22453e-17)
(-0.0239604 -0.185428 -1.45328e-16)
(0.497715 0.356295 0)
(0.290275 1.16034 -6.58301e-17)
(1.21189 0.305555 -3.2002e-16)
(0.909972 0.0312616 -2.97047e-16)
(-0.896481 -0.276052 0)
(-0.797886 -0.189028 -1.38138e-20)
(0.772854 0.0271706 -1.77962e-16)
(1.13726 0.348446 5.03833e-16)
(1.04062 -0.00878933 5.19572e-16)
(0.565273 -0.14855 -4.48113e-16)
(0.499791 0.0919816 -2.14968e-17)
(0.545686 -0.177893 1.89634e-16)
(0.186669 0.205441 -3.35771e-17)
(0.504951 0.266001 -1.85183e-16)
(0.0912297 0.159425 2.29025e-21)
(0.719221 0.68934 1.10164e-16)
(-0.0199607 1.52862 7.00549e-16)
(-0.676638 0.254351 1.35718e-20)
(-0.172207 -0.0439772 0)
(-0.0794437 0.0908639 9.21524e-17)
(0.340387 0.0433048 -1.95741e-21)
(0.576264 0.316362 -9.94796e-17)
(-0.650671 0.312007 -8.59739e-17)
(-0.268421 -0.110018 4.33706e-17)
(-0.575035 -0.112273 -2.91717e-16)
(0.0450675 1.11778 1.12204e-16)
(-0.21646 0.264804 -9.2032e-17)
(0.276644 0.257531 1.6367e-16)
(-0.00789234 -0.0314307 2.25575e-16)
(0.234092 1.04093 2.99228e-16)
(0.0817673 -0.838501 -2.37805e-16)
(0.360083 0.738776 -4.31263e-16)
(-0.245982 2.00725 -2.08203e-19)
(-0.658135 -0.191501 2.2171e-19)
(0.378674 0.171645 2.91821e-16)
(0.128416 0.820197 -2.54967e-16)
(0.0961184 -0.393164 0)
(0.0512104 -0.205567 3.35338e-16)
(-0.653559 0.245382 -9.22441e-17)
(-0.702196 -0.129669 3.89945e-17)
(-0.755454 -0.0504462 2.68502e-17)
(-1.09053 -0.0783709 3.96863e-17)
(-0.800369 0.639638 1.13925e-16)
(1.1431 0.0133319 -1.08557e-16)
(-0.591478 0.294889 8.83066e-17)
(0.789976 0.354201 2.53612e-16)
(-0.379749 2.83469 -3.38632e-16)
(-0.160938 -0.0452605 -2.25835e-17)
(-0.395415 0.179405 -3.60652e-16)
(-0.855331 0.45528 0)
(0.0629077 1.02266 -6.99737e-17)
(0.434683 1.01044 -3.83129e-19)
(-0.0516987 1.11764 -6.55112e-17)
(-0.743917 -0.0754117 -4.06139e-17)
(0.193166 -0.797965 -2.92521e-16)
(0.374582 1.29328 6.30456e-17)
(-0.237118 2.25991 -1.733e-16)
(-0.370582 0.202959 -2.93679e-18)
(0.501977 0.169626 -8.29113e-17)
(0.17427 -0.00115287 9.05749e-17)
(0.931632 0.0382116 0)
(0.8488 0.0310779 0)
(-0.304099 -0.325572 -4.57599e-18)
(0.618372 -0.489662 -4.11897e-16)
(0.162415 -0.27457 2.49129e-16)
(-0.83081 -0.0332766 0)
(0.480753 0.196263 0)
(0.046866 0.20383 -1.92979e-17)
(-0.413902 0.138751 -9.16376e-17)
(-0.517612 -0.045006 1.36691e-16)
(-0.957174 0.184878 1.43316e-16)
(-0.256356 0.0713372 1.05942e-16)
(0.819718 0.518861 -8.30311e-16)
(0.375882 0.0624007 0)
(0.461585 0.825675 -1.02845e-16)
(-0.243731 -0.638746 -6.70237e-17)
(0.239004 -0.00899412 0)
(0.378623 -0.297109 -1.7401e-16)
(0.531131 -0.0905909 -2.5518e-16)
(-0.27206 0.94102 6.74655e-16)
(0.221467 -0.00259187 -1.1869e-16)
(0.325163 0.0790646 -2.43087e-16)
(0.389089 0.23657 0)
(0.364165 0.198559 0)
(-0.0894399 0.383893 1.74247e-16)
(0.264393 0.0389589 -8.01395e-17)
(-0.742307 0.497574 1.62113e-16)
(0.379315 0.0909752 0)
(0.0162306 -0.236317 9.70963e-17)
(-0.796382 0.579927 3.29529e-19)
(1.01431 -0.0567828 0)
(-0.828713 0.041332 0)
(0.252328 0.148607 5.38104e-17)
(-0.997549 -0.0369905 0)
(-1.12532 -0.150208 2.65738e-17)
(0.718272 0.0629125 1.54585e-16)
(0.12473 1.482 1.6357e-16)
(0.246343 -0.0181696 3.94559e-16)
(-0.220253 -0.554323 -9.51813e-17)
(0.0720254 -0.595288 -2.24377e-16)
(0.367898 0.122175 1.96413e-16)
(0.100542 0.255399 0)
(-0.0666856 1.07912 -7.38979e-17)
(-0.323579 0.192659 1.94389e-16)
(0.475162 -0.192136 0)
(-0.336672 0.0403529 -1.55435e-16)
(-0.699609 0.0784742 0)
(-0.172466 -0.0545256 -2.64836e-16)
(-0.87248 0.255423 0)
(-0.299448 -0.04177 -2.16168e-16)
(-0.924214 -0.213227 4.58448e-18)
(0.497578 -0.347089 1.30295e-16)
(0.0518353 0.96016 7.35808e-16)
(0.0623558 -0.541276 0)
(-0.170292 2.03313 8.80391e-19)
(0.114932 0.238011 2.20601e-16)
(-0.0928546 0.549914 -1.84916e-16)
(-0.755094 -0.170629 3.85503e-17)
(-0.682525 -0.147754 -1.30243e-16)
(-0.533277 -0.124632 1.72047e-16)
(-0.112128 0.96419 4.27705e-17)
(-1.04717 -0.191472 4.88568e-18)
(0.197195 -0.779054 -6.28191e-16)
(0.429425 0.594964 -1.6142e-16)
(0.159023 0.280348 3.29682e-16)
(0.946961 -0.126387 3.00773e-16)
(0.608138 -0.059916 -9.87755e-17)
(0.463539 -0.264868 -8.82764e-17)
(-0.228408 0.089382 -7.67677e-17)
(0.211954 0.123784 4.29527e-16)
(-0.627379 0.143433 1.80432e-16)
(-0.325098 2.05442 8.36981e-17)
(-0.846152 -0.0208646 0)
(-0.865761 -0.0855892 0)
(-0.932568 -0.0720118 -1.56939e-16)
(0.943823 0.0531446 2.73069e-16)
(-0.414649 0.567405 -3.14054e-17)
(-0.341233 0.0253101 -2.97718e-16)
(0.168482 0.191023 7.64613e-18)
(-0.0749586 0.558804 -8.83315e-17)
(0.650684 -0.0986084 5.69703e-16)
(-0.452282 -0.180559 1.0645e-16)
(0.397393 -0.16111 4.47877e-17)
(1.03288 0.131737 0)
(0.358778 0.149732 1.66765e-16)
(-0.652869 -0.294611 0)
(0.366996 0.56178 0)
(-0.758246 0.0561736 -3.80108e-18)
(0.00543391 0.64211 0)
(0.6676 0.0456216 0)
(0.200732 0.12422 0)
(0.0203214 0.0715598 0)
(0.194491 -0.0406023 -6.64877e-16)
(0.209326 1.32535 -2.0063e-16)
(0.044238 -0.527912 -1.63897e-16)
(0.275039 0.275779 -4.34318e-18)
(0.0834913 -0.410656 -5.32899e-16)
(0.138151 0.654066 -3.90722e-16)
(-0.53116 0.744112 2.89591e-16)
(-0.368512 -1.10717 -5.00866e-16)
(-0.783066 0.817655 2.99485e-16)
(0.0788416 1.08275 7.00304e-17)
(0.289629 0.210112 0)