/*--------------------------------*- C++ -*----------------------------------*\
| =========                 |                                                 |
| \\      /  F ield         | OpenFOAM: The Open Source CFD Toolbox           |
|  \\    /   O peration     | Version:  v1912                                 |
|   \\  /    A nd           | Website:  www.openfoam.com                      |
|    \\/     M anipulation  |                                                 |
\*---------------------------------------------------------------------------*/
FoamFile
{
    version     2.0;
    format      ascii;
    class       volScalarField;
    location    "0.67";
    object      k;
}
// * * * * * * * * * * * * * * * * * * * * * * * * * * * * * * * * * * * * * //

dimensions      [0 2 -2 0 0 0 0];


internalField   nonuniform List<scalar> 
5794
(
0.0497024
0.0757022
0.473743
1.947
1.73852
0.0687588
0.175348
0.168484
1.4689
0.202061
0.925683
0.431023
0.313062
2.03649
0.171129
0.029389
6.37847
2.08005
0.114177
0.0570012
0.939066
0.0531324
0.360609
0.239025
0.341828
2.65161
6.46449
3.10563
2.02598
0.201713
0.274418
0.591815
0.731097
0.235443
0.346636
0.365994
0.196796
0.778321
0.778812
1.96939
1.01224
0.696229
0.279617
0.247189
0.127475
1.11157
0.855618
0.374463
0.172379
0.111379
0.206422
1.43646
0.101471
0.155629
0.0128037
1.06006
0.826452
0.621535
0.221176
4.3452
0.943649
0.066601
0.295767
1.02646
1.23924
0.0507451
1.17572
0.420291
1.83351
0.0804379
2.43883
1.35425
7.83781
0.125319
1.90776
1.91861
0.2884
2.06235
0.235139
0.0497933
0.0342151
0.0589793
1.41286
0.568955
0.607136
0.747776
0.490458
1.03462
0.409759
0.52098
2.40845
0.653831
1.53412
2.5871
0.942007
2.50627
1.84774
1.33078
0.599435
1.03327
0.882868
0.325264
0.252443
2.46317
0.0829361
3.44676
0.059958
0.620499
1.60383
0.234691
0.0634499
0.0472152
0.86914
0.0967752
0.776961
1.95899
0.28572
2.19127
0.863313
0.499712
2.50142
0.0461659
0.230977
2.70459
0.0848814
1.49687
1.60484
0.0643898
1.72452
0.671187
0.535215
0.355476
1.24634
1.84948
3.10935
0.202741
2.05324
0.0700139
0.0893553
0.113728
0.104417
1.5084
0.0710283
1.85886
0.120198
7.05861
0.934393
0.943333
1.49879
0.793514
0.313227
0.116829
3.34639
0.323086
7.26247
1.04424
0.587232
0.388113
1.4105
0.661818
0.0780519
0.249158
0.0786016
0.245716
1.16709
1.28703
0.268127
0.219932
0.0578625
0.0449009
0.126349
0.816816
0.212303
0.220072
0.133378
0.27139
0.0934306
0.292135
0.108328
1.26514
0.323125
0.619404
0.207373
0.888234
0.201347
3.957
0.373856
0.431769
0.158883
0.252454
0.949809
0.55151
0.703337
0.244835
0.273052
0.467679
0.205058
0.0488369
0.0857009
0.278793
0.199906
1.2281
0.221684
0.27756
0.870513
1.13024
0.224854
1.05832
4.41563
0.926632
0.211084
0.313405
0.357338
0.349759
0.258671
0.422093
0.431219
1.4189
1.05962
2.24291
0.306386
0.733135
3.74828
1.40735
2.01276
3.41993
0.199399
0.32672
0.431015
0.257267
0.211638
0.224283
0.211482
1.16709
1.02369
4.5662
5.36816
0.945381
0.280519
0.0820491
0.0497174
2.09221
0.854537
0.770525
0.46
0.0720763
0.1045
1.57962
1.32631
0.876308
0.485542
0.054564
6.77879
0.0415378
0.211173
4.49084
0.269917
0.440482
0.760868
0.086413
1.56923
0.349445
0.340882
0.0483034
0.696643
0.275282
1.38827
1.74796
0.0802091
1.38204
1.06089
0.326706
0.473801
2.16587
0.397987
0.232079
0.156678
0.0966918
0.150333
0.306742
0.0494433
1.66715
0.848086
0.600948
1.35898
2.36907
0.950663
1.13367
2.9185
2.53248
0.31266
0.286674
0.256539
0.14233
0.203188
2.37441
0.709809
0.435536
1.07479
0.0551195
0.0530566
0.764627
0.0335956
1.00787
0.19175
1.63544
0.156211
1.46319
1.3654
1.04534
0.363457
1.14668
1.01599
0.0911048
0.292258
0.594806
0.796335
3.41948
1.55975
2.44687
1.01568
0.661416
2.02884
1.87763
0.0336105
0.509649
0.108089
0.444937
0.286936
0.852191
1.185
0.28261
0.247165
0.587125
0.482871
0.175865
0.17969
0.0597164
0.150359
0.320215
0.162323
0.307568
1.36762
0.300808
0.138917
0.178068
1.17663
0.756327
1.49592
0.92835
0.948985
2.867
0.750097
0.560857
0.232108
2.89393
0.0660188
1.32073
0.173992
0.159003
0.9376
0.764155
1.84942
0.277955
0.242124
0.733059
1.15665
0.993014
0.766574
0.426422
0.203344
0.0450695
0.655122
0.0931585
1.17764
1.31666
0.884935
0.725382
0.7728
0.102937
0.837115
0.230669
0.322763
0.322018
0.307702
0.210869
2.42738
0.334605
0.269343
0.334486
0.216003
0.98874
0.0787485
0.0709884
0.171144
0.17643
0.115583
0.279662
0.128107
0.362437
0.194317
0.361801
4.9915
0.0517482
0.0387109
1.20202
0.200637
0.0809921
0.0662106
1.84083
1.30601
0.590926
1.26543
0.610578
1.2208
0.938191
0.263171
1.94841
1.09569
1.72053
0.581777
1.25784
0.870707
0.179252
0.246349
0.253335
0.125497
0.094233
0.0650876
0.0445143
1.36042
0.223997
1.63198
1.29635
0.102306
0.240835
0.47856
0.331691
0.265241
0.265876
0.16499
0.269435
0.245168
0.40362
0.0957265
2.19265
0.842152
0.0618205
0.230003
1.03907
0.185973
0.0625983
1.26864
0.0603736
1.87537
0.0454943
1.88601
2.68926
1.11064
3.63159
0.058264
0.0661432
0.236658
0.084372
1.13562
0.675378
4.1538
2.56083
1.00585
0.223263
0.0305304
5.14005
1.5834
0.513965
0.223995
1.80211
5.76988
3.56651
0.181251
0.0708278
0.410319
0.056667
0.231053
0.474556
0.879942
1.12024
0.312429
0.0885394
2.92791
0.0499105
0.063892
1.89835
1.91455
1.95585
0.17846
0.104953
0.168309
0.213366
0.038315
1.08702
3.43221
5.90331
0.265716
0.349968
1.90449
0.0601708
0.067772
0.643957
1.45664
0.0574146
2.4592
0.154624
1.04121
0.0499861
0.0730503
0.688462
1.74346
0.055752
0.222968
5.14007
0.0902176
0.0500054
2.1886
2.18692
0.74691
0.0541046
0.197346
1.07047
0.0538554
0.0491659
0.395837
0.0503199
3.98335
0.194483
0.602021
0.172819
0.240091
2.36062
0.655664
1.29423
0.0454854
1.50457
0.060591
1.80848
0.108705
0.0346369
0.215093
1.84133
0.0820787
0.0918977
2.39813
0.10123
0.0983223
0.198332
0.0784002
0.0560082
0.361569
0.0451359
0.0534154
0.867656
11.0725
0.166652
1.53956
0.139464
1.8346
0.150791
0.0289515
0.644643
0.0418352
0.0605025
1.25635
0.926066
1.43043
1.0942
1.63421
0.292565
2.74027
1.24437
0.527765
0.847665
2.03662
0.754634
2.89932
3.83944
1.81548
0.943366
0.0829842
1.63581
0.684688
2.12438
0.0608179
0.100841
0.0660813
2.30538
0.786476
1.22923
0.090973
0.29355
0.0579123
0.233068
0.0610827
1.40414
0.801804
2.52245
0.0475587
0.510543
2.89591
0.184434
0.0147997
0.874919
3.0606
4.27048
2.06136
0.131083
0.307512
0.183595
0.994426
0.575754
0.273886
0.848148
0.0482809
1.32742
1.71695
0.855489
0.0575695
0.06125
0.0938401
1.22471
2.15216
0.0789896
0.0509488
0.0662159
0.0326965
0.078662
0.0525995
0.294844
2.35489
0.486962
0.529108
3.00561
0.0842859
0.298775
1.08217
0.728127
2.03725
2.79005
0.909619
0.738536
0.207329
0.0389032
0.0399614
0.218956
0.221325
0.152525
0.212011
1.64722
5.93725
0.708983
1.90746
0.439083
0.120242
0.151938
0.0528084
0.637481
0.0710839
1.08304
3.02958
2.46465
0.967973
1.1854
0.964449
0.280659
5.05849
0.918952
0.501305
0.87612
2.73768
0.120211
2.09932
0.165087
0.0346186
1.12604
0.162769
0.0358177
0.827733
2.10794
2.14204
0.185879
0.144989
0.054092
1.21343
3.96911
2.20137
1.10042
0.146911
0.976952
1.05889
0.0455944
0.0426404
0.289783
0.121234
0.238444
0.0487068
0.463758
0.91765
2.44683
1.6072
0.393614
0.23176
2.82336
0.540117
4.0123
1.17732
1.50381
1.42312
0.373585
0.267188
7.33505
1.34317
1.26425
1.82969
2.67153
2.39243
0.134088
3.96276
0.267005
0.373722
0.5065
2.7717
0.640884
1.06567
1.45294
3.02314
0.902866
0.14323
0.298466
4.87217
0.744649
0.637891
1.46806
2.16144
0.0529686
0.0294701
0.160449
0.1586
2.09897
0.976132
2.49937
0.104893
0.283074
0.0423076
0.195102
0.138663
0.0473097
0.768854
2.31622
0.207152
2.7634
0.983711
0.263118
0.111947
6.03247
2.00937
1.02686
3.09603
2.52343
1.00348
1.41697
0.23327
1.50158
0.656376
2.01709
0.794519
0.223322
0.525621
0.0534651
0.0485578
0.146472
1.70146
0.0758133
1.20817
6.53441
0.18949
0.0609831
0.0568959
2.08947
0.862948
1.21033
2.19246
0.785363
0.144098
2.21357
2.09801
1.46264
0.22993
0.947092
0.0638381
1.86383
0.0552134
2.28235
0.304349
0.864452
0.792116
0.0862554
0.0392588
0.132509
1.17636
1.5604
1.71983
4.26638
1.15621
0.0981972
0.231618
0.649944
4.03645
0.0922958
0.649571
0.674727
2.44169
0.0575429
0.054735
0.330069
0.896715
4.73875
0.0830054
0.385775
0.146588
0.497943
0.17869
0.70804
1.7781
2.02572
0.282669
0.160508
2.27829
0.470388
0.548241
8.37858
0.0727038
0.034427
0.0854913
0.0708024
1.02716
0.135804
0.49865
0.0768981
0.121708
0.220075
0.316463
5.56125
0.840044
2.6768
0.803232
1.14203
1.70959
1.20877
4.9304
0.862496
0.0673917
0.0426648
0.206611
0.796282
0.229972
0.561951
4.0916
1.27861
2.76698
0.862081
0.116866
2.85375
0.102524
0.348341
1.42549
0.0770135
3.98634
0.153577
0.241378
1.79527
0.398066
0.231153
0.282276
1.57699
0.652504
0.269291
0.053228
0.219232
0.755857
1.78485
0.244544
0.299193
1.09307
0.398423
0.972026
2.97253
1.55501
2.44061
1.39696
0.0461246
0.0634486
0.514962
0.0690285
0.129505
0.0585156
0.0868121
0.829825
0.0541568
0.25415
0.0709885
2.21545
1.54582
0.755921
0.276309
0.51157
0.975454
5.46111
0.662448
1.61664
0.234243
0.0610269
5.19756
0.392393
1.52033
0.259657
1.2856
0.668582
0.908333
0.0399303
1.6253
1.09769
0.180587
0.169761
0.13806
0.03301
0.0545869
0.729771
2.26007
3.59688
1.63725
0.577772
1.22698
0.905338
0.329248
0.0628998
0.0729394
0.922694
0.0641552
5.01938
1.15842
2.08085
0.246273
2.31747
1.00674
0.0659211
0.0594769
5.04855
3.34941
0.305094
0.244858
0.474419
1.60809
0.152965
1.62646
0.0644395
0.15294
0.219444
0.0576471
0.0599681
0.354985
0.0741159
0.0617394
0.0697342
0.0593744
0.264218
2.59675
0.21571
0.178908
0.0715228
1.21833
0.299664
0.353046
0.229788
0.529377
0.0516905
0.636271
0.200424
0.216168
0.0738234
0.314178
1.52419
0.0721924
0.304256
0.456635
0.0653282
0.291792
1.16157
0.4306
3.8266
1.75535
0.0490932
0.318485
0.532037
1.88075
0.554143
1.08596
1.06184
2.42134
0.0688367
0.231639
0.0674346
0.0281324
0.420701
0.424282
2.03412
1.68485
1.25137
0.024781
0.62369
1.44678
0.738796
0.800995
0.995975
0.0604163
0.057673
0.0615405
0.567765
0.302425
1.87138
0.201044
0.453834
0.196791
0.204779
0.287317
0.0414279
0.0657968
0.067035
1.08852
2.1892
0.751675
0.0715023
0.274437
1.47313
0.0538691
0.431459
0.111431
0.311551
0.830297
0.0542769
1.35121
0.0527487
0.311152
1.03407
0.0848977
2.055
0.292224
0.048717
0.734117
2.19619
0.0550722
1.40022
0.0991729
0.083695
0.0546198
0.108823
0.0962272
0.0529347
0.309228
0.0699995
0.0879884
0.161458
0.254781
0.254426
1.67411
0.554977
0.270008
2.44529
0.806667
0.0880399
0.075367
2.11637
0.73681
1.06581
2.69777
0.0910639
0.475843
0.0513961
2.87527
0.138023
1.64671
0.164666
3.47635
1.00991
0.0316695
0.664921
0.0624567
0.0454439
0.280531
0.0568743
0.622785
0.646405
0.0464121
0.678217
0.0199061
0.0386272
0.128367
0.0572704
0.0723351
1.26747
0.213977
1.09931
0.0928505
1.39629
0.173723
0.0803541
0.0526631
0.198718
2.29965
0.407409
0.224972
0.575632
0.249224
0.404815
3.97137
2.09384
0.0523979
0.394601
1.79867
0.836379
1.17848
0.238693
2.26381
2.10552
1.55599
0.508771
2.6989
0.26729
0.265525
0.226251
0.355509
0.198471
0.0508927
12.266
0.694445
0.0469029
0.27406
1.71755
1.67258
0.271808
0.0363122
0.200796
0.349677
0.135133
0.0559392
1.93549
0.113213
0.972479
0.653702
1.77605
0.216052
0.0762553
0.322012
0.243851
0.19179
0.603749
0.062288
0.744991
0.0589937
3.53823
0.433138
0.163906
0.191355
0.490237
0.29245
0.391527
0.33371
0.193841
0.206154
0.203103
1.36923
0.294735
0.214077
0.0645827
0.0430269
0.668252
2.10605
0.718787
0.20875
0.143419
0.250371
0.337096
0.262726
0.241314
0.173334
0.493738
0.322627
0.572873
0.0526214
2.22919
0.0495171
7.55805
0.0469851
0.118951
0.157033
0.0603487
0.0613271
1.31972
0.202737
0.23341
0.0455123
0.172325
0.650791
1.96071
0.951926
0.173665
0.0696949
0.509141
0.243072
1.70014
1.07088
0.394485
0.281581
0.0217976
2.27338
0.294535
1.24894
1.5391
0.170444
0.292666
0.654372
0.522769
0.0433458
2.35102
2.18699
0.633149
1.86681
1.12591
0.309032
0.0352443
2.14725
5.85132
2.08845
1.2719
0.0852822
0.10101
1.17396
0.304522
0.0432623
0.0437075
0.337375
0.775526
0.0946349
0.0553673
0.402593
0.0590719
0.0553166
0.124789
0.412395
2.49619
0.0533306
0.646806
0.97837
3.17668
3.11286
0.2895
0.947136
0.197859
2.07583
0.111005
2.11329
2.52021
0.855959
1.51438
0.693415
1.35875
1.34703
5.11339
0.399397
0.200772
0.174898
3.04053
0.0903611
0.503783
1.08878
0.719266
0.383381
2
1.25661
0.846043
2.03978
0.0717389
0.0414111
0.257349
0.95033
0.0512207
0.563978
1.29189
0.293921
1.59261
1.38101
1.80109
0.0426226
3.43333
0.104148
1.09033
0.334174
0.331966
0.509948
0.0638275
1.45091
0.0569001
0.101079
0.0453602
2.22552
0.115744
0.55121
0.413147
3.71358
0.254631
1.66978
4.34159
0.325844
0.277833
0.0234557
1.12732
0.77462
2.37772
2.25575
0.0888976
0.0357986
1.12621
1.32342
0.6046
1.65353
0.979578
1.36946
0.834121
0.813807
0.0874842
0.344111
0.992239
0.125082
2.23806
0.153641
0.0635282
0.203076
0.574499
0.0845179
0.0846003
0.10311
0.398901
0.214394
0.153443
0.169607
0.0477629
0.263594
1.0597
1.10866
0.891169
0.0617986
2.57678
1.29146
2.05769
0.437906
0.153846
0.87106
0.127457
0.0468726
0.0313938
0.0610947
12.1701
0.323244
1.09408
0.649558
1.75657
2.48689
0.615538
0.0811457
0.0527746
0.0341414
0.0940236
0.016986
0.0835357
0.0431214
0.0506081
0.0723951
0.0608658
0.0195168
0.0808908
0.0601276
0.0416118
0.0439498
0.018962
0.0811566
0.0498371
0.0189483
0.039981
0.107402
0.0343911
0.0455966
0.0343188
0.0549426
0.119707
0.0633101
0.0286244
0.023449
0.0456842
0.0872599
0.0710868
0.0464396
0.0198004
0.017325
0.069634
0.0221432
0.080258
0.0419836
0.0368372
0.0384932
0.0422655
0.0623603
0.12482
0.581217
0.39161
5.01242
0.0736314
0.519879
1.11027
2.3986
1.44505
0.199691
0.0531845
0.398431
0.204019
0.447654
2.0566
9.64376
2.34386
2.56958
0.582088
0.120968
0.116713
0.0623725
0.305464
0.0360587
0.88165
0.104431
0.454391
0.239997
0.302813
1.00726
0.364525
0.604955
2.25759
1.46804
10.8417
0.181088
0.535502
0.390247
0.34084
3.83759
0.151463
0.774542
2.00903
0.974312
0.299848
0.33466
0.445246
0.593673
0.327887
0.362147
13.7021
0.135349
0.124658
0.0206982
2.14107
2.09732
0.0422128
1.79921
2.06276
0.0474012
0.0187695
0.0367192
0.0804604
0.0811611
0.0605992
0.029488
0.0448454
0.0422171
0.029364
0.117863
0.0648066
0.0391283
0.130273
0.0349308
0.0432605
0.0930117
0.044418
0.0184863
0.0385802
0.0337714
0.0866468
0.0251995
1.30618
1.3077
0.174256
0.47271
1.16234
0.362254
1.95552
0.0540484
1.49496
1.54779
0.545729
1.25111
2.21686
0.738575
0.0429883
2.22968
1.02875
0.383532
5.87225
2.29791
1.6485
0.0499238
3.41941
0.790069
0.0988705
3.45426
0.374023
1.57713
0.152025
0.0907379
0.0328519
2.01978
0.0904531
2.25268
2.50947
0.111018
3.15539
0.0730255
3.06743
0.207068
0.0883201
0.0665032
2.008
0.135357
0.185282
0.220763
0.102447
3.04078
0.315572
1.56147
0.383469
1.19869
1.60715
4.80677
0.0293444
0.279562
0.319018
2.23497
1.23293
0.0883281
0.0528558
0.340123
0.308214
3.1731
0.307959
0.114709
0.0715352
0.081103
0.319282
0.058459
1.97997
0.151792
0.0275678
0.0525054
3.09426
2.69213
0.32391
0.749815
1.99478
0.0577445
3.10951
2.73944
2.16072
3.02799
3.23232
0.0998755
1.75186
0.0525145
0.256018
0.176992
2.02324
0.252349
0.299288
0.430849
2.09117
0.106323
0.0786692
0.10917
0.183789
0.407434
2.1946
2.93699
4.39049
1.36925
0.617841
3.29204
0.190846
0.867387
0.835696
0.949049
0.947728
2.14753
1.21664
2.84525
1.11205
3.22925
1.39759
0.0975212
1.12808
1.01637
0.497703
0.427773
0.598383
3.74074
0.664298
0.552982
1.51735
1.28295
1.41448
0.758511
0.555245
6.63246
0.399696
1.67222
0.789694
0.0956048
0.0703938
0.191393
1.53565
0.11811
0.0931923
0.338204
3.88935
3.89944
2.38099
2.56526
3.93936
2.658
3.98419
0.0942413
3.96788
3.94004
2.91724
3.06906
3.95933
2.82449
3.89828
4.00275
3.93638
0.39315
0.350682
0.577775
4.80358
0.262572
0.526858
0.473316
0.265585
0.0358402
0.0648741
1.78627
3.03185
0.98822
0.240351
0.206026
1.61028
3.0211
1.18253
0.636145
0.343624
0.233702
0.337419
0.567292
1.68282
0.317157
1.41966
0.446401
0.460793
0.112137
0.431989
0.170506
1.0507
0.213712
0.409362
0.121055
0.0663202
1.17991
0.188973
0.229905
0.172611
0.297699
0.280327
1.50908
0.250132
1.36818
0.94575
0.253909
1.28996
3.74912
0.258726
1.64755
0.993813
0.951049
3.85161
0.146705
0.19224
3.58645
1.1514
1.85645
0.251361
0.277068
2.11588
3.76681
1.67604
0.198531
0.242464
0.18013
1.1716
0.273298
7.53096
0.268872
0.290214
0.387852
0.243161
1.0203
0.125116
0.255699
1.32574
1.42343
0.451922
7.15806
3.0395
0.15938
3.21582
0.246793
0.456995
0.504455
0.157665
2.08935
0.286725
6.88245
0.491776
0.450841
0.166063
2.27353
6.56153
0.106513
1.37508
1.73082
0.667154
0.461682
0.444216
0.0899399
0.281411
1.98027
1.54841
1.78113
4.98466
4.6426
0.23445
0.804718
0.178527
1.31969
0.936508
0.207985
0.0866123
2.09336
0.112404
0.309126
0.0820328
1.29113
0.297059
0.594397
0.737333
0.361609
0.868584
0.236141
0.945859
0.579415
0.338363
0.21691
1.10324
0.939975
0.241002
0.392388
0.368765
0.0868509
0.922256
0.766748
0.645789
0.121745
0.203267
0.109125
0.298292
0.362687
1.20575
0.113862
0.308606
1.52263
1.90622
0.749645
0.344377
0.195698
1.56507
0.0845387
0.1358
0.21763
0.831268
0.415573
0.536695
0.13016
1.24893
1.40051
5.03461
0.0933136
1.44117
0.868979
0.0825751
1.11143
1.49438
0.772905
0.167275
0.864661
0.124116
0.618658
0.761321
1.42362
1.65156
0.0855415
0.661251
0.0824689
0.758127
0.229193
0.18819
1.579
1.38315
1.2686
0.0698409
0.0995703
0.726749
0.28463
1.5322
0.165435
1.09091
0.0902903
0.282751
0.0766608
0.0368396
1.51539
0.352338
1.95978
0.553089
0.17143
0.928149
0.100111
0.086795
1.27888
1.26083
0.319228
0.249471
0.102854
0.397786
0.38402
0.270736
0.415861
0.0617491
0.0705922
0.0456963
5.21016
0.650187
0.405635
0.361622
0.347757
0.0736275
0.253888
0.0718135
0.0991102
1.35631
0.268316
0.233713
0.351846
0.11351
0.222343
0.0740906
0.102981
1.89736
1.4702
0.435684
1.38352
1.57286
0.280879
0.346035
0.812207
5.14832
0.343007
0.343305
0.314208
2.46398
0.792031
0.0680415
0.878044
2.43832
0.306295
0.66054
0.814544
0.214574
0.0697786
0.0955248
0.463354
0.790876
1.12067
1.34224
1.41249
0.0382048
4.9259
4.70805
0.106068
0.227749
0.281491
0.569269
1.79032
0.287947
0.0903078
0.109466
0.60457
0.327227
0.238258
0.805213
1.57693
1.76137
0.339935
0.697334
0.412028
0.465789
1.19707
0.231267
0.179694
2.92867
1.74453
1.69107
2.71022
0.349447
0.276675
1.70415
2.45209
0.500567
0.303401
0.192129
0.074739
0.10214
1.69499
1.91162
0.261663
1.36231
1.2364
1.17937
1.63856
0.491466
0.495862
0.235383
0.494824
0.0440188
4.76194
0.113504
0.716526
2.10315
0.207196
0.32409
3.91564
0.10569
0.452092
0.288959
0.340306
0.358067
1.65514
1.62721
2.07258
0.244364
1.01237
1.15512
0.329012
0.765057
1.02284
0.116397
0.103328
0.324725
0.295351
0.325724
0.939787
0.166604
0.0661722
0.0949643
1.78016
2.10487
0.431356
0.0540086
3.62164
2.98632
0.775507
0.0818597
1.34684
0.701622
0.832751
0.273383
0.0509849
4.57686
0.119583
0.115744
0.187728
3.60432
2.14877
1.01578
0.415116
3.34799
1.88515
0.760931
0.562879
0.490882
0.189933
0.325231
0.085099
0.112908
0.10156
0.338475
3.12431
1.22279
0.398911
0.403083
0.450318
3.49528
1.47514
3.87999
3.28881
1.07816
0.228306
1.40616
0.078501
0.0679657
1.30565
2.04712
3.16166
3.25877
1.09045
1.82969
1.12458
0.753254
0.672859
0.169748
0.147821
0.169244
0.0687435
0.0901883
0.135981
0.110719
0.149336
2.49425
2.66825
0.496893
3.69254
1.05278
1.68215
0.578192
0.567406
0.775921
0.485866
0.65947
0.397203
0.189045
0.227148
2.46634
0.372555
0.315545
0.137714
1.69167
0.657632
0.509817
0.610653
1.47624
1.491
0.770439
1.03925
0.428191
1.1675
0.53335
0.220479
0.0566264
0.0452047
0.1673
0.266454
3.81487
0.234277
0.08782
0.103854
1.28267
0.138935
0.859734
2.59727
0.124023
1.88435
0.0863868
0.0936464
0.306623
1.45069
1.8095
0.834988
0.0749962
0.646117
3.9524
1.91819
0.154123
0.79492
0.24797
0.854121
2.29496
0.61319
0.0812982
0.324602
0.239603
0.0997696
0.396001
0.738293
0.236704
0.322296
0.965649
1.25672
0.52553
0.736873
0.577239
1.32562
0.867097
0.67159
0.672322
0.590547
1.13498
3.22554
0.104428
3.39524
1.2207
1.8043
0.888705
0.819678
4.01761
0.910477
1.23748
0.0645411
2.10764
0.347643
0.41813
0.0453536
0.0256495
2.27705
1.07019
1.7999
0.844196
2.51002
2.07084
0.217297
1.86328
0.590324
1.4038
0.597919
1.0284
1.49244
0.145734
0.0613931
0.0931169
1.1455
1.67855
2.68056
0.394215
0.0546905
3.3595
0.545807
1.99269
3.53874
3.35191
3.57308
2.01164
0.0475344
0.616513
0.956412
0.990593
3.42212
3.64734
0.217763
2.18645
0.992883
1.08805
1.84894
0.264841
2.40049
1.96845
2.61853
0.311747
0.148417
1.45536
2.08436
0.383811
0.72574
1.90187
2.86073
0.607708
0.142478
0.659785
1.40255
2.834
0.463275
0.958803
2.96302
0.612803
0.1936
0.722025
2.41643
3.51013
1.17412
0.474203
0.0982023
0.0674343
1.44973
1.73372
1.76974
3.1206
1.49914
5.47078
0.221624
0.950954
1.38734
3.48848
0.340046
1.89513
1.0453
0.201293
0.0874943
0.881702
0.0680677
0.176899
3.88783
3.64221
3.86024
1.79972
4.37229
1.15199
0.986933
0.575788
3.18799
3.99595
1.44135
8.43389
0.202446
0.185482
0.944452
3.46211
0.429397
1.19888
0.910246
0.686458
0.246647
1.19657
0.437337
0.0828887
3.0692
0.0666984
1.8097
0.0707202
2.22815
0.112097
0.997419
1.10755
1.80276
0.47604
1.32191
3.29486
1.28312
0.0479476
3.9426
0.224482
0.129385
0.143676
0.0310873
0.16808
1.91991
2.68496
3.51164
0.662695
2.33449
3.8866
0.130649
1.15923
0.141976
0.544639
0.143451
0.0594112
3.12658
1.59511
0.156402
0.159664
4.01611
0.234972
0.429024
0.365111
0.120565
0.829654
0.223303
2.64815
0.289747
1.96928
0.0865219
0.344801
0.375616
3.69123
0.659947
3.7551
1.92301
0.198409
0.567905
1.6486
0.324423
0.0715947
3.47519
0.182114
0.110937
1.7783
0.311829
3.84058
0.0960437
3.83065
2.21596
0.0563317
1.54373
0.401841
3.81743
2.18674
0.464245
0.588988
1.03935
2.80163
0.359632
0.292081
0.272627
0.535747
0.0638355
0.0679504
2.50455
1.34627
1.25426
0.295914
2.48846
0.336376
3.5493
1.48114
0.454133
0.205335
1.70619
2.47085
0.124317
0.027503
0.0500437
2.20876
0.825246
2.33414
0.324332
0.365518
2.43738
3.73421
0.165675
1.00379
3.12095
1.98416
0.788989
1.88739
0.0294528
0.875856
0.501149
0.147389
0.0630258
0.0847455
0.853754
0.155508
0.809722
1.4217
0.221019
3.50521
1.05826
1.12984
1.61873
1.82015
0.251406
1.07757
0.11546
1.49241
2.09227
1.35772
1.36243
0.127291
0.0554164
0.0861419
1.37984
0.479277
1.88874
1.24382
0.461393
0.972116
4.6486
1.24751
3.63198
0.0283675
2.64133
0.0786156
0.258599
0.908849
1.33123
1.26988
0.205699
0.286063
1.33456
1.60118
0.09308
0.201804
2.11253
3.03234
0.943174
1.35965
1.0388
3.35475
5.48533
1.81034
0.235821
0.760331
1.09207
2.25221
1.63951
2.84803
0.205799
0.843923
0.734665
1.18923
0.570354
0.939846
0.445026
0.74585
0.0313825
1.42515
1.44584
0.128241
0.991846
0.0695598
1.02049
2.03733
1.0554
0.0731835
0.317326
2.3022
1.89622
1.58119
0.894475
0.339774
0.121075
0.0471958
0.0617138
0.0937532
0.235538
1.62934
0.0722389
0.7717
2.68769
0.213274
0.206072
0.243341
0.304623
2.55283
0.11282
0.0579479
0.06068
0.126768
0.938065
0.476456
0.242282
0.104049
0.39161
0.0729315
0.0799011
1.19443
1.03202
0.229881
1.23523
0.585129
0.253122
1.10161
1.00853
1.93986
0.106592
0.0293539
0.0265311
0.119831
0.131746
2.22654
0.243868
3.8389
1.99011
0.957436
2.18714
0.122025
0.238346
0.400754
3.39324
1.19947
1.06524
0.128118
0.0570935
0.0777134
0.1991
0.0814752
3.58217
2.04992
0.520592
0.582865
0.046303
0.192605
0.087548
0.521661
0.161858
2.65408
2.64475
2.34621
3.04173
0.0290048
0.110176
0.764127
3.73367
0.469106
2.57078
0.760844
1.43191
0.0796124
0.247101
0.0671377
1.31724
1.44225
0.74784
0.800939
0.17782
0.235027
0.711663
0.0793278
0.263426
1.20073
2.34162
1.62353
0.31047
2.44585
0.49401
1.54897
0.704866
1.50873
0.675885
0.85301
0.125859
1.849
3.56732
3.5948
0.436105
0.0768818
0.105339
0.0299115
0.0798109
0.111067
0.57262
0.425104
1.11331
2.50107
0.148076
0.1441
2.68592
0.259087
0.598459
0.682178
2.17742
1.56753
0.692244
1.09521
1.11291
0.256773
0.33216
0.20397
0.536067
1.45798
0.0589918
1.23885
1.35456
0.168501
0.758243
0.0727064
0.0606951
0.0493948
0.064581
0.0580191
0.0287768
0.128486
0.14778
0.28272
0.0951107
0.029009
0.0482333
4.00475
2.59422
0.359069
1.78991
0.259033
1.38286
1.15449
2.3266
1.62095
2.20869
6.09973
0.627679
1.77951
1.99436
3.63038
0.69505
0.0537261
0.055076
0.127029
0.0526948
0.0582781
0.264314
1.09548
1.7824
0.0257774
0.0286237
0.122572
0.810419
0.329705
1.96093
0.136156
0.0414005
1.46455
0.322489
0.459383
0.340911
0.30919
0.0921829
1.25924
0.473124
3.27576
0.0959237
0.476216
4.46213
0.448006
0.928765
2.79267
0.0283692
0.053356
0.171991
0.0671361
0.0547653
0.079551
0.065542
0.167646
0.297503
0.43929
0.157181
0.128275
0.860171
1.59511
2.66129
0.0526722
0.195515
0.0530126
1.06675
0.448733
0.334118
1.51528
2.07649
0.121956
1.23926
0.867556
2.01109
3.27404
3.48974
1.4525
0.914039
0.242577
0.893896
1.91783
3.02739
0.225459
0.0285063
3.48469
0.228487
2.90325
0.683856
0.230876
0.367692
1.56873
2.4002
0.0700596
0.082158
1.2703
0.598937
0.270385
0.229301
1.24961
0.954587
3.99938
0.170902
1.93412
0.10814
0.0524806
0.0681522
0.0180196
0.0875145
0.0158547
1.98611
0.113018
2.01701
3.16662
1.16618
1.75662
5.43742
0.272535
0.204225
1.65851
0.97715
0.915787
5.98631
0.255748
4.11764
0.105852
0.0499026
0.0752254
3.4187
0.188411
0.0961866
0.05093
0.0644822
0.22528
2.38007
1.8642
0.640248
0.354159
0.494528
3.51592
1.1488
0.567008
1.6955
1.13345
0.362716
1.77833
1.93392
2.16459
2.46906
0.0582312
0.148142
0.12478
1.40942
0.109623
1.57884
1.5691
0.75881
1.43005
0.965143
1.70071
0.20703
0.0702933
0.145599
0.0795458
0.213708
1.78673
0.988535
1.47929
0.502557
0.353577
2.73705
2.40312
0.421457
2.30063
0.972508
0.0532112
0.140616
0.0748794
3.95609
0.455728
2.90614
0.425032
0.117773
0.272383
2.38184
2.22782
0.210869
0.315279
1.10261
1.82481
0.105839
0.0459586
0.178582
0.413648
2.35337
0.276418
1.31491
1.61347
1.66144
0.774243
0.299188
0.218117
1.08898
1.47363
0.406834
0.107226
0.393395
0.043202
1.90994
0.0343758
0.427623
2.31755
1.60979
0.830213
2.12548
0.0820706
0.267128
0.302814
0.0499802
0.481191
0.0630184
0.0254121
0.0698921
0.636726
1.98688
3.5373
1.44181
0.555176
0.0221764
0.109205
0.0551487
0.0153462
0.0301272
0.0234102
0.471754
1.72041
0.474543
0.34593
0.611419
0.949284
1.42441
0.558715
0.118895
0.0373008
0.190237
3.96245
2.82046
1.1302
0.14998
0.0288136
2.04309
0.137185
0.358954
1.60685
0.776706
0.353158
3.31801
0.535894
0.459897
0.203406
3.86131
2.09454
0.170798
1.46807
0.0298777
0.13803
1.67211
0.451056
0.0502682
0.0403905
0.181799
0.170969
0.0875377
3.61667
0.941573
0.251262
1.58109
0.939238
0.67125
2.2252
2.13334
0.315443
3.85126
0.03012
0.619763
0.0485089
0.553563
1.37784
0.0559449
0.389329
2.93818
0.196242
0.64463
0.0341562
0.187661
0.59245
1.45441
1.30016
2.97656
0.404731
2.46297
0.136638
0.478154
2.07942
0.210584
3.21968
0.447708
1.41554
0.432793
0.221971
1.83141
0.771921
1.39758
0.131849
0.0443939
0.0564945
1.3406
0.605466
0.19087
0.253459
0.485163
0.515086
0.0536851
0.0286141
0.154889
0.895456
2.7943
0.0894459
0.0362876
0.350117
2.4549
0.521837
0.421585
0.172865
1.58645
0.42018
0.192599
0.409078
2.30003
0.0208596
0.794954
1.23012
2.0651
0.732666
0.766043
0.538038
0.193736
0.0627148
0.0532423
0.182603
0.0612214
0.199504
0.30647
2.50713
0.239747
0.894537
3.21345
1.18892
1.20273
0.519485
0.286588
0.788647
0.546584
0.499988
0.121336
1.59175
3.65728
2.07617
3.11811
1.47774
0.583925
0.835795
0.614498
0.369664
0.0184459
0.0350655
2.03548
0.499194
0.134109
1.86996
2.17844
0.213391
1.03193
0.744255
2.54575
4.62664
3.04646
0.14025
1.42842
0.0613534
0.131408
0.0512893
1.61809
2.58592
1.38985
0.0793183
0.266361
3.15858
0.256454
0.0504944
0.070522
2.18225
0.571151
1.92921
3.95996
1.30307
0.0658186
0.0665692
0.90191
2.95767
1.82579
2.38592
3.29492
0.707708
0.0970346
3.25076
1.97036
0.0507868
0.0442731
0.0979791
0.0580384
0.044195
0.207319
3.92985
2.30455
0.0556889
1.62491
2.72573
0.188634
2.70259
1.7349
2.82723
0.271803
0.532527
0.391263
1.13622
0.719094
0.445624
3.45505
3.34331
1.13647
2.00859
2.37929
2.34389
0.308592
0.0900741
2.33248
2.45377
0.273384
0.483753
0.0351241
0.0265676
0.510078
1.1827
2.07949
0.540046
0.117251
2.50139
0.0687487
0.142779
0.061319
0.0962025
0.037105
1.69904
1.81395
3.70632
0.235195
3.35208
0.029286
0.187708
3.53828
1.81035
1.79389
1.41078
0.31289
3.32693
1.92024
0.1239
0.222931
0.479079
0.48183
0.192335
0.805516
0.905838
0.536469
0.587689
0.866134
1.26283
0.321149
1.13809
0.027385
0.117188
1.31537
0.464576
0.362676
9.07136
0.309646
1.97187
1.85173
0.0526279
0.0542909
0.0445511
0.122506
1.99056
1.49225
2.03893
0.273155
0.732943
0.229754
0.868086
0.618541
1.09853
0.221089
0.259403
0.36046
0.106114
0.0247189
0.0185981
0.0687944
2.06061
1.96859
0.387853
0.100795
9.5935
2.82298
3.08268
1.21517
0.185219
0.886009
0.252124
0.414316
1.17375
3.12386
0.120989
0.158862
0.071389
2.89638
0.560074
2.02673
0.103432
0.530318
0.96694
0.482573
0.067087
0.0451305
0.0287097
0.0598293
0.280636
2.10747
2.66281
0.23445
2.23885
0.962549
1.74021
1.97573
0.450822
1.98244
0.648647
0.626353
1.14212
1.4844
1.43293
0.05504
0.0506115
1.52638
0.19458
0.36301
0.247407
1.19174
0.537757
0.527492
0.0385495
0.51859
0.0389203
0.52825
0.503213
0.508796
0.5092
0.952535
2.92556
0.569429
0.085083
2.0596
0.551203
0.0537401
0.056905
0.0692715
0.345628
0.185795
0.384873
2.45112
0.186053
0.23175
1.14641
0.03283
1.26024
0.0563697
0.215197
4.2045
4.40534
0.107396
0.0520205
0.0406268
0.0894157
0.121133
0.0716031
0.140188
0.0538998
0.0593716
0.113773
0.0441439
1.34678
0.351774
0.159879
0.577322
1.76219
0.529101
0.619904
0.0799165
0.578961
1.89357
1.88253
0.718771
0.0469523
1.71365
2.27542
2.19337
2.28406
0.542405
0.25608
0.0250714
0.0601522
0.92206
2.91195
1.26419
0.194452
0.716658
0.264445
0.162018
0.262563
0.333173
3.18899
0.413138
2.42247
0.0490977
0.263786
2.63819
0.863029
0.396384
0.505864
0.435996
1.46954
1.39093
1.02303
0.395858
0.214202
0.208438
0.189824
0.237132
0.325599
0.174096
2.84509
2.46636
1.87284
2.40133
0.903988
0.235723
0.642804
0.167044
2.08304
0.809354
0.95277
0.414189
3.45924
0.268332
1.31688
1.64159
0.104347
0.132625
0.328443
3.82301
2.5377
1.21443
3.71276
2.28755
3.79091
0.421767
0.588286
0.0337021
0.237085
0.3733
10.746
3.5344
0.486736
2.4895
0.876669
0.31367
0.0401772
0.587631
0.109279
0.110724
0.0531158
2.15423
0.900793
0.82724
1.77799
1.24506
0.0319273
0.154845
0.0577714
0.619452
0.753839
1.207
11.3894
0.543548
0.320633
0.0364368
0.952249
3.11929
1.4249
0.358913
0.589368
0.0690137
0.345002
0.225101
0.169525
1.1292
4.64436
0.0680394
0.104509
0.0505932
1.62273