/*--------------------------------*- C++ -*----------------------------------*\
| =========                 |                                                 |
| \\      /  F ield         | OpenFOAM: The Open Source CFD Toolbox           |
|  \\    /   O peration     | Version:  v1912                                 |
|   \\  /    A nd           | Website:  www.openfoam.com                      |
|    \\/     M anipulation  |                                                 |
\*---------------------------------------------------------------------------*/
FoamFile
{
    version     2.0;
    format      ascii;
    class       volScalarField;
    location    "0.67";
    object      nut;
}
// * * * * * * * * * * * * * * * * * * * * * * * * * * * * * * * * * * * * * //

dimensions      [0 2 -1 0 0 0 0];


internalField   nonuniform List<scalar> 
5794
(
0.000637576
0.000807634
0.00523439
0.0042108
0.0109934
0.000809558
0.000886111
0.000887959
0.00219946
0.00123239
0.00204672
0.00161527
0.00133184
0.00943598
0.00194051
0.000448979
0.00952472
0.00781185
0.000993835
0.000546458
0.00140095
0.00066822
0.00128933
0.00154312
0.0011578
0.00439662
0.012213
0.0150858
0.00370804
0.000855736
0.00130762
0.00216161
0.00236912
0.00182537
0.00218642
0.00269247
0.000785885
0.00183588
0.0017707
0.00537405
0.00468543
0.00487654
0.000745297
0.000681885
0.00152476
0.0023195
0.0020449
0.00112096
0.00137621
0.000497703
0.000653933
0.00301163
0.000795224
0.00217149
0.000113172
0.0023131
0.00206794
0.00163329
0.000735283
0.00579802
0.0013322
0.000550942
0.00150491
0.00503122
0.00559417
0.000742455
0.00360027
0.000660661
0.00611348
0.000737037
0.00619585
0.00353122
0.015274
0.000821594
0.00641871
0.0106626
0.000479028
0.0039112
0.000648614
0.000196931
0.000375577
0.000562278
0.00743897
0.00165084
0.00182177
0.000858271
0.000717807
0.00100723
0.00288375
0.00196616
0.00497257
0.0020109
0.0033063
0.00543344
0.00250509
0.00812839
0.00391963
0.00307865
0.00187176
0.00143261
0.00141037
0.00120662
0.000761715
0.0128095
0.00110806
0.0118838
0.000503994
0.00408982
0.00514291
0.000642664
0.000705578
0.000465207
0.00130839
0.00153729
0.00225302
0.00403749
0.00276187
0.0055483
0.00123985
0.00101134
0.0074573
0.000240135
0.000815337
0.0135124
0.00101532
0.00379838
0.0038863
0.000712965
0.00356196
0.00387121
0.00192509
0.00167315
0.00350677
0.00371515
0.00988335
0.00228468
0.00301412
0.000617263
0.00170704
0.00138065
0.00125672
0.00960247
0.000915176
0.0112404
0.00209735
0.0131316
0.00182511
0.00151412
0.0097063
0.00518111
0.000725371
0.0019434
0.0112308
0.000971136
0.0136304
0.00182449
0.00153206
0.00107893
0.00214978
0.00165226
0.000546752
0.000953754
0.00048432
0.000943577
0.00196996
0.00191576
0.000864954
0.000785439
0.000464051
0.000295789
0.000528426
0.0019479
0.00069525
0.000695851
0.00055018
0.000932548
0.000417056
0.000927372
0.000595623
0.00187834
0.000972502
0.00126651
0.000732252
0.00152118
0.000751473
0.00388086
0.00115518
0.00109502
0.000670878
0.000841434
0.00167587
0.00149498
0.00168607
0.000971807
0.000812428
0.0010856
0.000727851
0.000382781
0.000607407
0.00101329
0.00072601
0.00210131
0.00088051
0.00091228
0.00176652
0.00201481
0.000770268
0.005727
0.0119656
0.00180144
0.000750043
0.00085759
0.00297926
0.00221634
0.00201049
0.0026138
0.00319418
0.00404888
0.00349805
0.00555308
0.000856287
0.00193551
0.00827996
0.00353932
0.00239883
0.0063192
0.000611745
0.00317113
0.00248678
0.00268654
0.00110431
0.00100461
0.00142185
0.00363325
0.0034506
0.00995137
0.0125291
0.00217578
0.000900476
0.000774355
0.0007288
0.00751714
0.00196971
0.00169916
0.00156274
0.000923052
0.00140749
0.00905326
0.00112502
0.000918049
0.000669955
0.000756898
0.0119974
0.000573866
0.000808755
0.0184811
0.000916198
0.000903788
0.00383856
0.000937325
0.00262829
0.00285555
0.00207898
0.000649043
0.00129609
0.00100015
0.00811313
0.00380923
0.000726637
0.0028923
0.00264312
0.00108854
0.00238043
0.00520346
0.000868234
0.0021934
0.00212174
0.00123122
0.00256748
0.00121341
0.000510122
0.00320649
0.00329733
0.00391576
0.00350384
0.00519503
0.00231157
0.0028775
0.00527359
0.00749447
0.00223108
0.00166067
0.00182424
0.00183194
0.000769853
0.00345535
0.00212232
0.0022935
0.00215687
0.000960431
0.000392498
0.000981869
0.000322381
0.00250647
0.000696775
0.00319076
0.00255824
0.00466028
0.0025097
0.00228178
0.00113289
0.00274509
0.0020344
0.00148936
0.000782817
0.000904376
0.00502466
0.0159454
0.00461269
0.00401635
0.00510186
0.00329604
0.00471188
0.0112797
0.000645214
0.00174164
0.00095038
0.00138222
0.00105855
0.0018803
0.00178827
0.000824231
0.0008759
0.00147443
0.00137746
0.000787312
0.000694097
0.000386477
0.000576445
0.00089683
0.000619136
0.0007697
0.00228984
0.000823957
0.000578109
0.000658456
0.00169191
0.0013504
0.00224484
0.00172759
0.00184667
0.00236096
0.00146264
0.00126298
0.000802508
0.00266755
0.0004456
0.00190788
0.000771355
0.000729401
0.0057002
0.00301529
0.00304888
0.0018821
0.00118788
0.00472196
0.0017663
0.00155843
0.00136824
0.00103474
0.0029285
0.000554536
0.00548625
0.0012682
0.00640621
0.00303263
0.00167223
0.00154244
0.00178668
0.00144743
0.00685599
0.0031234
0.000749941
0.00212876
0.00177866
0.00168276
0.00602727
0.00282986
0.00191197
0.000984914
0.000792374
0.00155134
0.000678892
0.00105374
0.000654433
0.000634989
0.000538202
0.00114463
0.00111255
0.00169004
0.00139417
0.00165
0.0127148
0.000357193
0.000354928
0.00275219
0.000775261
0.00107639
0.000541324
0.00402586
0.00324741
0.00191106
0.00450017
0.00117779
0.00175571
0.00153377
0.00074333
0.00593667
0.00195437
0.00344948
0.00174527
0.00284034
0.00520276
0.00265913
0.000857225
0.000873439
0.000617872
0.00142956
0.000720707
0.000594793
0.0028435
0.000783923
0.00982388
0.00199482
0.0012396
0.00211764
0.00119898
0.00103184
0.00134587
0.00125889
0.00133484
0.000805341
0.00095128
0.00123563
0.00107911
0.00460683
0.00238631
0.00133132
0.000878708
0.00208965
0.000750792
0.000629494
0.00184114
0.000783086
0.00476307
0.000447608
0.00447675
0.00836634
0.00321809
0.00716371
0.00102105
0.000667332
0.000560211
0.00122215
0.00154154
0.00391333
0.00961026
0.0143413
0.0053185
0.000712258
0.000175702
0.0128008
0.00455167
0.00496497
0.00240519
0.0030667
0.0167468
0.0162755
0.00100841
0.000691981
0.000707096
0.000980727
0.00147013
0.00380315
0.0053203
0.00342729
0.000861118
0.0007408
0.00281799
0.000640671
0.000664634
0.00409916
0.00400314
0.0104074
0.000714241
0.00124338
0.000950192
0.00289162
0.000784229
0.00251592
0.0161983
0.0166691
0.000728115
0.00158764
0.0114431
0.000571739
0.00117846
0.00113691
0.00496137
0.000874711
0.00812477
0.00245623
0.00818861
0.000466548
0.00122744
0.0021428
0.00368655
0.000506253
0.000804791
0.0129778
0.00123349
0.000549329
0.0128842
0.00576328
0.00450069
0.000704014
0.000967231
0.00213661
0.000507853
0.000712228
0.000883142
0.000308357
0.00899249
0.00259192
0.00491478
0.00240819
0.000785179
0.00304858
0.00391074
0.0021788
0.000588013
0.00221635
0.000573268
0.00668918
0.00105865
0.000669612
0.000754681
0.0112801
0.00119275
0.000879612
0.0130942
0.00143542
0.000454596
0.000746019
0.000767561
0.000702693
0.000872873
0.000627174
0.0004651
0.00569951
0.0186311
0.000687699
0.00349301
0.0022945
0.0072628
0.00092813
0.000451296
0.00411414
0.000297966
0.000997042
0.00166152
0.00281162
0.00146283
0.00127975
0.00155222
0.000858567
0.0148678
0.00292938
0.00314255
0.0029431
0.00473224
0.00240255
0.00771939
0.00707162
0.00337335
0.00140098
0.00115439
0.00427485
0.00231032
0.00479982
0.000944752
0.000972342
0.000700021
0.00525423
0.00239293
0.00322639
0.00132362
0.000831117
0.00075997
0.00246679
0.00084044
0.00179988
0.00248758
0.00553266
0.00065287
0.00282541
0.00384626
0.000703965
0.000131811
0.00519334
0.0156897
0.0185052
0.0116245
0.000753769
0.00123912
0.000769143
0.00231429
0.00103195
0.00087308
0.00153987
0.000290674
0.00349198
0.00426233
0.00547982
0.000424183
0.000729908
0.00143929
0.00807242
0.00607431
0.00106251
0.000668829
0.000846885
0.000258055
0.000988786
0.000578475
0.00214298
0.00447229
0.000808935
0.003024
0.0149961
0.000896426
0.000861104
0.00391068
0.00242181
0.00289386
0.00534541
0.00225452
0.00101164
0.00275387
0.000645715
0.000356967
0.000931664
0.00286699
0.000593634
0.000795209
0.00311251
0.0144154
0.00219019
0.00198192
0.00411746
0.00190247
0.000677755
0.000735639
0.000872027
0.000677071
0.00284993
0.00557051
0.00541813
0.00233014
0.00274707
0.00215533
0.00109753
0.0118652
0.00154277
0.00167276
0.00265879
0.0058263
0.00116385
0.0118135
0.00104173
0.000631611
0.00506077
0.00239199
0.000765371
0.00598942
0.00283841
0.00368352
0.00253098
0.00253365
0.000568273
0.00454278
0.00816842
0.00434319
0.00304896
0.00152604
0.00193576
0.00618059
0.000299475
0.000525981
0.000769455
0.000548649
0.000643289
0.000295868
0.000969158
0.00560879
0.00330234
0.00270935
0.0031061
0.00297765
0.00685609
0.00114995
0.0077171
0.00334503
0.00286065
0.00450902
0.00077514
0.000733052
0.0163953
0.0032649
0.00519723
0.00755197
0.00468057
0.00315549
0.0018918
0.0174103
0.000997633
0.000813035
0.000818464
0.00797865
0.000956393
0.00271056
0.00325155
0.00641073
0.00238039
0.00167493
0.0028654
0.0059933
0.00448684
0.00200334
0.00328434
0.00456493
0.000288558
0.000217459
0.000407624
0.000493652
0.00475815
0.00242477
0.0045565
0.000689401
0.000802813
0.000577827
0.000784703
0.00177935
0.00044708
0.00241969
0.00511667
0.000755526
0.00593357
0.00261282
0.000709377
0.000803113
0.0180018
0.00477141
0.00283305
0.00583612
0.00582674
0.00262781
0.00343482
0.000789123
0.00390745
0.00220861
0.00453113
0.00531813
0.00290315
0.00526617
0.000772475
0.000685649
0.000923598
0.0110087
0.000807199
0.00631504
0.0153532
0.000604838
0.000969611
0.000571908
0.00493506
0.00256954
0.0065821
0.00512463
0.00243931
0.00182954
0.00568981
0.00686018
0.00430155
0.00111639
0.00269571
0.000670229
0.00261514
0.000707121
0.00417844
0.000862668
0.00549996
0.00629443
0.00117527
0.00059262
0.00209176
0.00626603
0.00556543
0.00316469
0.0087563
0.00321048
0.00121617
0.000963185
0.00108648
0.00978291
0.00123888
0.00288471
0.0029761
0.00801309
0.000470944
0.000783487
0.0008813
0.00139898
0.0130255
0.00118916
0.000768538
0.00248355
0.00475613
0.00133753
0.00238891
0.0046044
0.00471805
0.000771213
0.00218007
0.0073389
0.00445321
0.00457172
0.0173473
0.000343718
0.000214857
0.000346614
0.000637511
0.00462851
0.00222639
0.000875075
0.00112245
0.00106036
0.000710649
0.000839166
0.0191335
0.00253049
0.00575299
0.00166627
0.00234924
0.00367937
0.00313591
0.0125407
0.00333079
0.00111012
0.000633916
0.000752774
0.00569893
0.000796368
0.00458281
0.00752778
0.00356379
0.00515179
0.00396832
0.00131932
0.0123226
0.00182191
0.000772979
0.00323872
0.000907522
0.00472371
0.00263187
0.00308508
0.00366791
0.000819345
0.000752418
0.000676672
0.00489274
0.00380553
0.000907499
0.00072936
0.00286176
0.00108488
0.00403475
0.000663294
0.000799206
0.00287866
0.00366029
0.00281194
0.00591224
0.0033483
0.00603642
0.00938077
0.000615098
0.000731242
0.00380919
0.00113035
0.0019284
0.000554003
0.00105001
0.00222707
0.000428566
0.000789992
0.00104689
0.00610463
0.00355882
0.00425905
0.000845265
0.00303143
0.00557134
0.0154678
0.00199489
0.00319485
0.000784555
0.000855089
0.0146
0.00108922
0.00361427
0.000833872
0.00134199
0.00096568
0.00145667
0.000249546
0.00194772
0.00124393
0.000573448
0.000509957
0.000458916
0.000190224
0.000247758
0.000660004
0.0129341
0.0132447
0.00318752
0.00173121
0.00272396
0.00625833
0.000758321
0.000516702
0.00103634
0.00706472
0.00109478
0.0176436
0.00607249
0.00232082
0.000785516
0.00713586
0.0015775
0.000672274
0.000724722
0.0192015
0.00549921
0.000834154
0.000889343
0.000877982
0.00346999
0.00138403
0.010445
0.000762674
0.000533149
0.000661799
0.000650976
0.000597352
0.00274708
0.00112599
0.000988733
0.00061169
0.000762282
0.000789235
0.0102977
0.000782265
0.00278227
0.0011117
0.0016747
0.00083159
0.00107993
0.000895908
0.00113375
0.000680518
0.000938147
0.000756323
0.00218305
0.000775908
0.00127598
0.00484067
0.000873013
0.000833684
0.00359161
0.000986404
0.000830214
0.00204533
0.000776659
0.0176614
0.00206907
0.000603778
0.000825739
0.000875019
0.0114309
0.0009903
0.00281684
0.0025084
0.0053317
0.000750235
0.000876003
0.000956082
0.000612755
0.000833155
0.00127284
0.00187634
0.00166925
0.00143854
0.000200619
0.00198915
0.00142207
0.00101268
0.00107053
0.00166073
0.000486692
0.000881486
0.000644871
0.000975484
0.000746625
0.0112007
0.000796169
0.00453247
0.000789881
0.000783016
0.000736111
0.000299283
0.000826395
0.000798017
0.00786331
0.0124739
0.00427621
0.000650489
0.000826671
0.00339385
0.000932449
0.00403966
0.00118048
0.00308958
0.00506419
0.000945093
0.00681551
0.000494769
0.000841409
0.00604954
0.000765277
0.0124031
0.000726915
0.000510414
0.0054557
0.00677048
0.000621138
0.00288428
0.000644425
0.00125929
0.000573321
0.000620573
0.00171455
0.000797768
0.000830369
0.000810339
0.0015699
0.00111291
0.00109302
0.00119234
0.00412036
0.000984634
0.000723512
0.00540269
0.00238261
0.00149212
0.000710294
0.00612955
0.00530431
0.0052413
0.00856273
0.0014583
0.00109266
0.000327286
0.0147331
0.00242641
0.00441643
0.00276355
0.015796
0.00219727
0.00022635
0.00109446
0.000347886
0.000343216
0.00264911
0.000368837
0.00113048
0.00110411
0.000283325
0.00108246
0.000182141
0.000251782
0.000591067
0.000569433
0.00116562
0.00447612
0.00281763
0.00594049
0.000498062
0.00139328
0.0026256
0.00117158
0.000578989
0.00078945
0.00940678
0.000812043
0.00288555
0.00103157
0.000744787
0.000949249
0.0178949
0.011833
0.000564112
0.00373248
0.00618916
0.00456276
0.00828469
0.000743196
0.00654657
0.0048963
0.0032514
0.000960801
0.00905095
0.000726178
0.000726038
0.00220213
0.00188716
0.00124705
0.000628029
0.0143725
0.00107152
0.000620405
0.00312353
0.00483716
0.00493651
0.000764434
0.000596427
0.000971375
0.000870266
0.00152587
0.000733697
0.0119725
0.00127513
0.00419717
0.00437297
0.00453438
0.0018349
0.00118501
0.00332343
0.00169295
0.000861321
0.00102847
0.000641257
0.00115123
0.000802379
0.0169224
0.000970695
0.000762146
0.000753914
0.000914215
0.000832242
0.000776235
0.000868156
0.000746795
0.00275913
0.00172084
0.0085893
0.000732923
0.000744053
0.000777055
0.000566847
0.00182805
0.0106988
0.0018318
0.000821472
0.000634632
0.000761898
0.00341175
0.000796964
0.000703964
0.000646807
0.000846992
0.000843643
0.001035
0.000650117
0.00787626
0.000504508
0.0141484
0.000621442
0.00200973
0.000900898
0.000834341
0.000634667
0.00325277
0.00150972
0.00074177
0.000539415
0.000653209
0.00102626
0.00158717
0.00113567
0.00281461
0.000796157
0.00221287
0.00135674
0.00456862
0.00596243
0.00415407
0.00082842
0.000187321
0.00834859
0.00141993
0.00579055
0.00652448
0.000477137
0.000882177
0.00110194
0.00520009
0.000270531
0.0130168
0.00558667
0.00111233
0.0121533
0.00813325
0.00122746
0.000505922
0.00750256
0.0182177
0.0101861
0.00133123
0.00137234
0.00158234
0.00297605
0.000835873
0.000312191
0.00065437
0.000783527
0.00196699
0.00145367
0.000384392
0.00431812
0.00107634
0.000439558
0.000666462
0.00449708
0.0134447
0.000885876
0.00408186
0.00394617
0.00811671
0.0134127
0.00312395
0.00236288
0.000794787
0.00521937
0.00161716
0.00843925
0.00549672
0.00243791
0.00383548
0.00625826
0.00903331
0.00469362
0.0143611
0.00408
0.00222244
0.00247748
0.0148408
0.00133446
0.00474851
0.00354724
0.00367211
0.00380394
0.00871318
0.0072396
0.00725475
0.0119301
0.00109266
0.000332781
0.000806433
0.00785014
0.000494668
0.00501515
0.00180503
0.000830834
0.00444975
0.00371227
0.00696842
0.000509667
0.00940504
0.00161743
0.0029802
0.00203494
0.00125477
0.00182901
0.000822257
0.00894934
0.000741227
0.000677955
0.000940252
0.0132197
0.00192351
0.00184913
0.00316601
0.00669786
0.00273535
0.00186519
0.0113436
0.00298311
0.000785939
0.000150226
0.00583583
0.00591495
0.00825178
0.00636899
0.000868138
0.000639919
0.00523068
0.00572503
0.000942649
0.00150115
0.00127537
0.00150698
0.00106384
0.00648066
0.00129629
0.00305678
0.00569517
0.00132246
0.00584881
0.00232376
0.000963312
0.00149026
0.00161337
0.00150919
0.000926647
0.000995789
0.00201465
0.00130189
0.000472435
0.00158631
0.000661843
0.000822368
0.00818539
0.00296708
0.00540734
0.00110336
0.00443853
0.00512248
0.0071552
0.000936484
0.00210893
0.00160855
0.00182505
0.000261901
0.000213323
0.000285385
0.0182906
0.000826285
0.00256824
0.00204893
0.00388395
0.00419693
0.00170993
0.000368824
0.000313406
0.000253738
0.000442866
0.000181858
0.000471352
0.000229105
0.000326883
0.000354593
0.000390173
0.000225444
0.000415299
0.000301407
0.000248477
0.000256117
0.000207453
0.000466614
0.00027083
0.000209274
0.000234807
0.000463656
0.000219732
0.000253688
0.000189897
0.000413524
0.000355126
0.00035469
0.000174279
0.000236626
0.000329638
0.000454328
0.000387408
0.000334417
0.000184711
0.000173564
0.000432744
0.000195057
0.000368475
0.000338804
0.000306827
0.000265552
0.000279529
0.000349608
0.000472753
0.00262789
0.00169181
0.0112399
0.000849351
0.00512323
0.00293298
0.00532175
0.00962488
0.00283555
0.000654969
0.000854723
0.00299337
0.00175655
0.00549879
0.0189643
0.0136146
0.00552983
0.00168359
0.00207451
0.00199565
0.000929891
0.00192526
0.000255873
0.00420014
0.0014906
0.00496708
0.00239615
0.00356572
0.00483114
0.00170817
0.00579657
0.0131897
0.00909032
0.0193222
0.00255196
0.00409287
0.00344845
0.000764867
0.0166571
0.00149137
0.00120574
0.00916425
0.00251544
0.00167048
0.00311818
0.00149887
0.001748
0.000841895
0.000848842
0.0176378
0.0017708
0.000533215
0.000223884
0.00935189
0.0126696
0.000249454
0.00382216
0.00806909
0.000374632
0.000182059
0.000217444
0.000385846
0.000486007
0.000312299
0.000273143
0.000347604
0.000335483
0.000267865
0.000551085
0.000363434
0.000267709
0.000488354
0.000251962
0.000247486
0.000442076
0.000248697
0.000159771
0.0002318
0.000242739
0.00038895
0.000210449
0.00350022
0.00254838
0.000431782
0.000899564
0.00843456
0.000848691
0.0102733
0.000561927
0.00308951
0.0101788
0.00534523
0.00303477
0.0129375
0.00677676
0.000257144
0.0129228
0.00221739
0.00350525
0.0186591
0.00491416
0.0101432
0.000590623
0.0151758
0.00172643
0.000870832
0.0149123
0.000920775
0.00343748
0.00209926
0.000938742
0.000629915
0.00653214
0.000851212
0.0108614
0.0139981
0.00153385
0.00727588
0.000861257
0.0101094
0.00203575
0.00135062
0.00116161
0.00563464
0.00168035
0.00238171
0.00288377
0.000995762
0.00713851
0.000834636
0.00288548
0.000641447
0.00771395
0.00903284
0.0188217
0.000166213
0.000771727
0.00105758
0.00745985
0.00302047
0.000349777
0.000644635
0.00291476
0.00324414
0.0146234
0.000832666
0.00126612
0.00136134
0.000901234
0.00258503
0.00097797
0.00884482
0.000462368
0.000195125
0.000266796
0.00938012
0.00639205
0.000782442
0.00616471
0.00489655
0.000737403
0.0146865
0.0147252
0.011588
0.0146515
0.0151632
0.000814875
0.00721807
0.00068437
0.00293106
0.00206618
0.00811157
0.000726
0.00126472
0.00123242
0.0127181
0.000383865
0.00145637
0.0016739
0.0024681
0.00201614
0.0108508
0.0145605
0.00937378
0.00358061
0.000830492
0.0155398
0.000473275
0.00224268
0.00215414
0.00119488
0.00655361
0.0129427
0.00321865
0.0144434
0.00293796
0.00779154
0.00147779
0.000950258
0.00198336
0.00280338
0.00104858
0.00161816
0.00255563
0.0127859
0.00101149
0.00211894
0.00383768
0.00361427
0.00147495
0.00477057
0.00328592
0.0141445
0.0045977
0.00538067
0.00401068
0.00137718
0.00130255
0.00252901
0.00352327
0.00145911
0.00145671
0.00345919
0.0160278
0.0156443
0.0105489
0.0117554
0.0153418
0.0109679
0.0153689
0.000611565
0.0153195
0.0156389
0.0114637
0.0130628
0.0160919
0.0123675
0.0152438
0.016246
0.0156102
0.00150751
0.00147526
0.00210882
0.0125066
0.00121424
0.00197076
0.001916
0.00121584
0.000220443
0.000292819
0.00800925
0.0149253
0.00716505
0.0029699
0.00267556
0.00793354
0.014694
0.00813987
0.00345294
0.00154653
0.0012797
0.00169841
0.0043637
0.00970793
0.00307695
0.00151553
0.00270164
0.00487649
0.00181948
0.00426928
0.00218346
0.00713789
0.00267084
0.00076775
0.00184657
0.000377053
0.00751456
0.00132276
0.00157336
0.00118527
0.00179736
0.0031107
0.00282112
0.00261125
0.0042697
0.00414107
0.00164299
0.00297339
0.0114403
0.00299467
0.00276328
0.0029991
0.00377355
0.00961626
0.00153942
0.00206015
0.00956827
0.00477108
0.00306589
0.00282818
0.00182539
0.00317212
0.0107222
0.00333674
0.00198386
0.00250228
0.00205946
0.00519738
0.00157597
0.0162316
0.00288961
0.0018801
0.00236874
0.00231806
0.00462101
0.00135749
0.00148991
0.00303472
0.00560727
0.0034294
0.0154458
0.00963198
0.00178374
0.0104887
0.00207488
0.0029195
0.00392125
0.0015315
0.00293305
0.00146318
0.0147441
0.00409708
0.00301949
0.00161711
0.00785616
0.01395
0.00131106
0.00151409
0.00604025
0.00610521
0.00378393
0.00299747
0.00115318
0.00124823
0.00656307
0.00595442
0.00512051
0.0126773
0.0125175
0.00181757
0.00538558
0.000509689
0.00167398
0.00675702
0.00175812
0.0012634
0.00172414
0.00125536
0.00332471
0.00129064
0.00482497
0.000630744
0.00574694
0.00611362
0.00142513
0.00650798
0.00292023
0.00718335
0.00110998
0.00336191
0.00143896
0.00807975
0.00713431
0.00189005
0.00316864
0.00252435
0.0012063
0.00109562
0.00599028
0.00533855
0.00201303
0.00267346
0.000415438
0.000820588
0.000736995
0.00804156
0.00147782
0.00137105
0.00612655
0.00685657
0.00517156
0.0016538
0.00141806
0.00868869
0.00142552
0.0021263
0.0016415
0.00673437
0.00417981
0.00490614
0.000447925
0.00782723
0.00869189
0.0126229
0.00160218
0.0086155
0.0067599
0.00106611
0.00749195
0.00960544
0.00102615
0.00228616
0.00692396
0.00180105
0.00543067
0.00630701
0.00845819
0.00967235
0.000354558
0.00515636
0.00144455
0.00645719
0.00283131
0.00246581
0.00954214
0.00938652
0.00897974
0.0010764
0.0015915
0.00505467
0.000701185
0.00956908
0.00114965
0.00795238
0.00140975
0.00319886
0.00124516
0.000225036
0.00580743
0.00143329
0.00648539
0.0015429
0.00116304
0.00713782
0.00169922
0.00142049
0.0055418
0.00281992
0.00253809
0.00137489
0.00137341
0.00072532
0.00257533
0.00205256
0.00326538
0.000305829
0.00117606
0.000263199
0.0122746
0.0013534
0.00282474
0.00207356
0.00202853
0.00110964
0.00305906
0.00140522
0.00152834
0.00516821
0.00206647
0.0014565
0.00226474
0.00165896
0.00288343
0.00149746
0.0016157
0.00530124
0.00474119
0.00181258
0.00538751
0.00280007
0.00193634
0.00207237
0.00111474
0.011582
0.000893418
0.00235194
0.00241028
0.0123719
0.00106691
0.0010294
0.00239519
0.00963207
0.00145494
0.00144001
0.00586986
0.00281692
0.00144521
0.00145424
0.00142661
0.00106702
0.00128341
0.00576794
0.00242111
0.000791923
0.0111349
0.0126418
0.000944815
0.000742943
0.00139558
0.00223822
0.00788889
0.00175683
0.00125781
0.00135618
0.00216199
0.00127792
0.00247905
0.00188881
0.00494427
0.00524982
0.00168416
0.00105061
0.00282177
0.00332127
0.00118438
0.00237667
0.00158687
0.0136162
0.00761983
0.00753862
0.0128972
0.00222312
0.00172122
0.00732793
0.00995601
0.00145527
0.00300304
0.00263215
0.00130456
0.00150468
0.00528701
0.00637224
0.00152998
0.00616331
0.00237764
0.0023153
0.00328818
0.00371321
0.0042113
0.000558636
0.00297578
0.000958681
0.0121923
0.00108613
0.00105821
0.00734826
0.000799632
0.0008444
0.0109909
0.000479984
0.00296709
0.00145673
0.00178696
0.00164311
0.00951101
0.00402306
0.00618689
0.00233144
0.00322111
0.00315106
0.0028716
0.00651484
0.0077973
0.000416041
0.00039659
0.000678134
0.000698355
0.000724438
0.00674972
0.00217274
0.00112525
0.00133474
0.00341812
0.00454326
0.00445798
0.000296312
0.0104588
0.0090319
0.00211211
0.000691628
0.00275269
0.00506088
0.00687176
0.000617186
0.00110025
0.0101939
0.00121724
0.00133342
0.00182558
0.00874656
0.00527961
0.00118398
0.00383891
0.00998956
0.00384566
0.00220927
0.00195007
0.00163616
0.000510374
0.000837183
0.00152014
0.0019965
0.00177529
0.00359468
0.0143164
0.0046481
0.00376641
0.00240827
0.00157312
0.015627
0.00957665
0.0143708
0.0138403
0.00696262
0.00280953
0.00391783
0.0013533
0.000862492
0.00142582
0.00859886
0.0119839
0.0109752
0.00214131
0.0106522
0.0074013
0.00638144
0.0060976
0.00115495
0.00220738
0.00233478
0.00109875
0.00133266
0.00196574
0.00166611
0.00208583
0.0062183
0.00757341
0.00137226
0.0149151
0.00734031
0.00966594
0.00450459
0.00336007
0.00105734
0.00102362
0.00096475
0.000768909
0.00129968
0.000742503
0.00859617
0.00151345
0.000792288
0.00181509
0.00353053
0.00483416
0.00423929
0.00360375
0.00609507
0.00299225
0.0051157
0.00774222
0.00220204
0.00130877
0.00322536
0.00270524
0.000347657
0.000922192
0.00119732
0.00260124
0.0155267
0.00222322
0.00148772
0.00161602
0.00579821
0.00135703
0.00692809
0.00813418
0.00153847
0.00176815
0.00157732
0.00171156
0.0032414
0.00613245
0.0016617
0.0062346
0.00121541
0.00579121
0.0147613
0.00796275
0.00240222
0.00608908
0.0023681
0.00680628
0.0115148
0.0052199
0.00136587
0.000823942
0.000741922
0.00120125
0.00386661
0.00624025
0.00222269
0.000880648
0.00732977
0.00891577
0.00487817
0.00571284
0.00138534
0.00771427
0.00698393
0.00172195
0.00203698
0.00516135
0.00772585
0.0153184
0.00183422
0.0128355
0.00162833
0.00888181
0.00186844
0.00660119
0.0105596
0.00243551
0.00286361
0.00082289
0.00506354
0.00415074
0.00174665
0.000276024
0.000212462
0.00752716
0.00701345
0.00920867
0.00644702
0.0125718
0.0104033
0.000795583
0.00462267
0.00438443
0.00384291
0.0027517
0.00744671
0.00956154
0.00176991
0.000994759
0.00126538
0.00779729
0.00160598
0.0132468
0.00380006
0.000844158
0.0100102
0.00151603
0.00172237
0.00898686
0.0153454
0.0138015
0.0123702
0.000407914
0.00107964
0.00747015
0.00751457
0.0153576
0.0150211
0.0028156
0.0109661
0.00246399
0.0013557
0.00372539
0.00298205
0.0120052
0.00576051
0.0138253
0.00280688
0.00141282
0.00723606
0.00391671
0.0036556
0.00198678
0.00411943
0.00804984
0.00130619
0.00191662
0.00570245
0.00690036
0.0138505
0.00483494
0.00253163
0.0143499
0.00104064
0.000757266
0.00185434
0.00974499
0.00886854
0.0077819
0.00456789
0.00104965
0.00103812
0.00645944
0.00166277
0.00666753
0.00847958
0.00334617
0.00673601
0.00279545
0.00679047
0.0100993
0.0145177
0.00368525
0.00170505
0.00250148
0.0019093
0.00118775
0.00688692
0.000828038
0.00239017
0.0154021
0.013912
0.0156799
0.0087239
0.0104046
0.00197584
0.00639133
0.00157552
0.00976529
0.016863
0.00896676
0.00955048
0.000738905
0.00198665
0.00501252
0.0104791
0.00312709
0.00587135
0.00203324
0.00608337
0.00314983
0.00299606
0.0034855
0.000393809
0.0144111
0.00119286
0.00896376
0.000779989
0.00785115
0.00197588
0.00208357
0.00699784
0.00907997
0.00122476
0.00773786
0.0149172
0.00254814
0.000535491
0.0105034
0.00295288
0.00222291
0.00200545
0.000532088
0.000725918
0.00384707
0.01421
0.0111856
0.00559045
0.00610364
0.010445
0.00131868
0.0046324
0.00236201
0.00520098
0.00063716
0.00121936
0.0102395
0.00432138
0.00230337
0.00251466
0.016626
0.00218219
0.000962051
0.00079184
0.00130569
0.00277929
0.000797589
0.00595116
0.00249289
0.0102373
0.00116303
0.00338866
0.000945446
0.0126225
0.0059408
0.0153402
0.00412162
0.00171993
0.00510633
0.00516229
0.00387559
0.000771476
0.01111
0.0024632
0.00116418
0.00170473
0.000781423
0.0142995
0.00117155
0.0168532
0.00804175
0.000960911
0.00880051
0.000797442
0.0158815
0.00958514
0.00272965
0.00199996
0.00225233
0.0144748
0.000848174
0.000771744
0.000762265
0.00498345
0.0008686
0.00101261
0.00852718
0.0046235
0.00772428
0.0029477
0.0059989
0.00107183
0.0157944
0.00852444
0.00410123
0.000737721
0.00429964
0.00739663
0.000401226
0.000214244
0.000290274
0.0128961
0.0021842
0.0133887
0.00395141
0.00440218
0.00923453
0.0140089
0.00172752
0.00305099
0.00658531
0.00482097
0.00244887
0.00456359
0.000493275
0.0060009
0.000949153
0.00191748
0.000950714
0.00121058
0.00311216
0.00216456
0.00635871
0.00304949
0.00283287
0.0163703
0.00723849
0.00755926
0.00927821
0.00157529
0.000865891
0.0031456
0.00140776
0.00935904
0.00556462
0.00908358
0.00836151
0.00125885
0.000931558
0.00116708
0.00371288
0.0013492
0.008524
0.00184459
0.00118722
0.0026458
0.00950242
0.00344307
0.0155508
0.000623564
0.00944254
0.00157286
0.00303045
0.0015412
0.00591206
0.00828658
0.00268197
0.00165399
0.00503155
0.00601313
0.00139916
0.00218154
0.0127515
0.0106233
0.00694482
0.00807139
0.00627345
0.0165392
0.0136284
0.00169526
0.0029838
0.00304731
0.00172525
0.00364353
0.0100759
0.0139976
0.00074305
0.00568245
0.00197635
0.00225903
0.00241942
0.00295494
0.00376738
0.00402639
0.000432516
0.00798455
0.00935783
0.00153068
0.00230255
0.00133393
0.00694173
0.00349341
0.00283374
0.000598594
0.00307309
0.0113164
0.00829079
0.00412561
0.00235825
0.00385179
0.000772897
0.00101248
0.000841861
0.000715969
0.00234773
0.00188567
0.00125136
0.00195645
0.0138953
0.000620784
0.00270864
0.00172065
0.000925708
0.00595806
0.00113696
0.000825101
0.000928825
0.00204575
0.00250318
0.00205534
0.00125107
0.00178831
0.00397464
0.000881813
0.0013042
0.00827586
0.00782227
0.000804245
0.00594783
0.00146822
0.00304352
0.00686145
0.00631375
0.00851915
0.000724045
0.000531454
0.000197915
0.000568744
0.00170046
0.0128044
0.00302319
0.0170029
0.00568204
0.00194499
0.00761835
0.00145186
0.0008051
0.00396819
0.00471107
0.00867157
0.00768257
0.00139652
0.000890225
0.00112222
0.00073072
0.00125035
0.0135174
0.00179532
0.00510833
0.00552946
0.000562542
0.00263359
0.00094242
0.00104358
0.00259825
0.00975467
0.0140681
0.013071
0.0104013
0.00057221
0.000689844
0.00623082
0.0126822
0.00470286
0.00767013
0.00489233
0.00602404
0.00113512
0.000806251
0.000773799
0.00837336
0.00875549
0.00199817
0.00204524
0.00160889
0.00292951
0.0061614
0.0012696
0.00270039
0.00736875
0.0130127
0.0103608
0.000722142
0.013377
0.00125603
0.00959949
0.00605558
0.00423297
0.00465571
0.00370341
0.00141666
0.0068769
0.0147441
0.0122475
0.00130669
0.00101858
0.000742978
0.000570332
0.000745308
0.00125091
0.00248943
0.00430684
0.00772467
0.00597186
0.00220493
0.000659982
0.0123984
0.00075915
0.00108882
0.00367253
0.0123785
0.00477034
0.00496685
0.00796139
0.00827141
0.000820264
0.000841071
0.0028587
0.00466961
0.00883142
0.000957235
0.00819384
0.0087479
0.00224641
0.00608943
0.00092829
0.00120447
0.000660484
0.0010817
0.000341206
0.000601977
0.000700888
0.000816924
0.000827453
0.000358658
0.000211343
0.000274206
0.0169115
0.0139685
0.000848068
0.00930068
0.00237339
0.0090521
0.00799826
0.00604322
0.00493303
0.0122754
0.00988469
0.00564474
0.00457598
0.00369361
0.00912674
0.00196466
0.000902791
0.000890541