/*--------------------------------*- C++ -*----------------------------------*\
| =========                 |                                                 |
| \\      /  F ield         | OpenFOAM: The Open Source CFD Toolbox           |
|  \\    /   O peration     | Version:  v1912                                 |
|   \\  /    A nd           | Website:  www.openfoam.com                      |
|    \\/     M anipulation  |                                                 |
\*---------------------------------------------------------------------------*/
FoamFile
{
    version     2.0;
    format      ascii;
    class       volScalarField;
    location    "0.04";
    object      epsilon;
}
// * * * * * * * * * * * * * * * * * * * * * * * * * * * * * * * * * * * * * //

dimensions      [0 2 -3 0 0 0 0];


internalField   nonuniform List<scalar> 
1431
(
9.4106
15.1622
6.51529
340.246
4.94652
3.65931
3.05624
5.69714
2.90337
2.58867
76.2342
3.47692
20.3394
46.286
7.80447
124.815
7.02669
3.94667
4.1128
62.2909
8.92998
2.48816
6.24613
47.1927
62.1503
50.4838
120.386
44.8613
18.8293
3.72971
7.30252
8.43273
4.05331
4.23516
3.99687
8.02918
23.6808
14.5936
3.67092
15.725
19.3684
8.89057
4.72625
4.69642
5.50718
10.6242
9.69471
7.6982
6.15273
22.7297
2.55274
2.88956
3.24301
4.02865
4.06036
7.41614
3.36247
3.82962
64.1117
10.612
12.2159
37.3371
8.09663
10.4817
36.054
2.79287
4.42721
3.99306
4.07321
14.0176
4.19946
4.11812
61.5773
3.06597
63.0838
5.22391
5.24439
5.68442
7.07453
248.416
8.65483
2.43447
60.2687
16.3943
503.12
5.0831
4.47672
70.7264
47.4485
35.9437
7.92983
91.3085
4.93856
13.2055
2.52251
6.87043
51.8262
10.5704
4.60387
7.38221
3.3314
7.33763
13.1597
4.5671
125.851
2.60671
7.69235
8.44487
3.77596
5.19737
349.633
2.81189
5.87409
29.7861
128.003
4.77796
4.64252
12.707
46.9217
5.628
10.052
3.47301
3.03688
20.0525
9.57959
2.97387
45.5062
36.7627
7.95228
28.0491
3.46133
5.17695
48.1219
15.793
5.59264
109.583
55.6852
2.44749
10.4596
6.60466
2.90868
7.798
10.7317
4.89288
3.35789
17.1563
10.3012
6.53513
46.4551
8.62725
31.418
38.5584
8.73293
69.6422
13.9818
28.3383
9.5207
18.8785
5.8035
9.41109
3.2519
50.1968
11.1503
52.5436
4.25027
482.734
5.64772
11.5835
2.80184
18.6816
21.3463
126.117
11.0641
19.6753
10.2505
15.1418
12.8359
23.8325
4.61345
8.50453
11.1021
12.1922
6.91603
26.7933
14.9527
12.4854
6.16359
122.696
40.9863
10.6249
3.96315
8.62198
6.52012
8.23741
3.30277
8.64688
7.45906
8.20298
43.5667
55.9733
75.8955
81.4697
9.13292
29.369
7.94489
284.546
5.51449
10.2094
74.371
24.8954
8.74323
6.72124
18.4322
9.80805
5.39222
5.99028
5.89817
5.59407
26.3221
10.1798
9.39063
167.799
23.9361
8.86411
11.2813
24.6751
11.47
23.3026
19.7372
5.63575
4.36856
116.214
12.4425
5.72589
5.71232
6.20842
11.5785
10.3594
8.54595
6.2137
11.7694
9.43002
2.67541
8.51484
24.6203
27.0638
10.5904
3.25303
3.50516
21.0162
11.143
2.77991
2.55512
9.16899
8.33142
37.3952
3.57848
7.57583
27.1478
32.6491
39.8139
33.3403
4.38596
2.97151
5.90142
19.5575
20.4076
6.05377
9.0636
2.6101
5.94145
8.30858
10.973
10.8056
41.8231
7.23139
10.1204
3.10318
2.43394
2.63631
3.07375
4.28919
19.2051
10.6929
22.9434
156.705
4.64928
6.53358
20.5863
9.77786
18.7104
20.0121
7.05829
4.79082
11.6066
6.19424
6.67183
7.50668
9.63794
9.13397
12.0834
10.365
23.3011
3.51451
20.6671
12.496
8.92175
34.9351
29.9842
2.4352
10.4416
13.6675
26.3452
6.55457
24.7959
15.179
2.66748
2.68714
5.72467
4.06826
11.8229
4.07337
4.44217
4.93585
2.50055
3.77431
7.98482
3.41875
15.201
9.55216
18.2597
23.6259
4.10652
4.00984
9.5283
2.60148
3.07761
3.48805
2.62995
12.3993
66.4225
7.91527
3.15654
17.5429
10.6291
36.9237
11.5467
4.71971
3.22873
3.30732
3.35885
3.45742
3.1524
3.50214
4.15264
3.25212
3.17607
21.382
4.04525
4.74742
3.69125
3.42025
3.47702
3.6475
3.0719
4.11148
3.52234
3.73704
46.45
16.4121
14.6822
5.6877
4.32473
12.2476
5.34752
88.2976
16.6605
11.761
13.9121
4.64569
3.41038
3.87258
3.09837
3.15673
3.3554
3.48943
3.74006
8.45972
3.62199
3.31905
6.2095
9.07327
12.2634
13.9183
4.28849
2.62447
2.7587
10.798
2.53624
10.0847
5.23075
21.5393
10.3619
2.51323
31.3572
7.20016
2.54372
4.01764
2.41336
16.0746
45.035
21.0497
2.45637
8.18358
3.97259
13.423
16.0892
2.72828
3.02585
2.49944
3.25158
4.85013
2.55313
8.7022
6.63481
15.0919
9.95922
3.03752
5.1246
11.0096
5.48393
9.1022
22.4378
2.86802
3.0798
13.1277
3.32259
3.05391
7.97563
3.53024
3.40143
9.46482
2.99247
3.25008
5.96568
2.67501
2.60285
10.724
6.68969
2.76346
2.75376
2.72117
2.64823
2.54529
5.04426
2.61999
2.85368
2.99029
2.74771
2.65477
8.47385
5.3497
4.069
5.41444
2.53555
2.51283
2.40686
8.25106
5.1906
2.59388
7.76285
2.5384
3.07036
12.5233
5.22663
2.82651
8.48308
8.05093
7.95503
7.53517
6.28388
2.45535
12.1042
6.07544
3.11076
4.8313
5.79414
2.53233
3.61424
5.32326
4.74853
4.42345
4.37968
9.17011
5.4117
2.43346
9.10526
4.0826
11.3985
4.64303
5.38921
11.5694
3.39446
9.46891
9.72831
9.82103
3.68441
2.53383
7.40557
8.01844
7.41384
10.0085
5.98779
39.4508
11.8523
7.75645
7.9423
10.1193
6.40384
2.53347
8.96823
7.80783
5.54395
2.41142
2.42993
3.5571
21.736
4.68787
7.19805
3.53733
3.61494
4.22864
6.34014
6.36441
3.00001
4.9139
3.86899
4.08774
2.76636
11.6814
7.65265
9.91128
18.1526
4.18207
3.35857
2.4688
3.4052
6.67029
2.68531
8.14254
5.36421
3.98441
25.073
3.67246
3.05928
31.6681
3.9322
15.7237
24.4371
6.11336
2.74748
8.76162
3.72483
7.55809
4.72711
2.53773
2.88423
7.54153
15.981
7.75878
8.41262
2.48764
14.2452
2.47747
7.98901
10.001
3.27707
5.38006
9.84268
9.20366
2.43581
6.90363
24.1235
11.9318
3.0433
4.93009
27.1325
6.95748
2.46578
19.6203
3.61598
3.99503
13.7439
6.91054
7.04825
6.17541
2.60092
3.62593
7.57135
55.7394
25.9654
21.4904
6.31985
3.96571
3.95181
2.53678
59.3797
15.4503
2.45258
14.3137
12.0339
2.62729
2.61909
2.90202
13.3391
7.30678
4.85653
3.59967
3.37418
2.66943
8.4727
3.19075
4.85746
19.4844
4.94058
9.10281
11.7893
2.98176
2.83688
6.90508
2.46187
4.42614
8.63448
7.20738
8.24355
2.97889
11.6773
7.39493
9.54108
5.25066
4.83991
2.51979
7.54915
2.56713
8.51097
4.65234
6.11845
3.02027
2.74915
4.55165
2.48742
13.4212
7.2647
10.533
2.85721
2.91163
7.5775
11.8418
3.31135
2.62617
10.2696
4.36678
5.4133
6.52369
8.90311
48.1402
13.7404
2.46483
2.65329
15.8752
3.62551
7.90718
5.78896
9.57152
4.37365
6.94013
5.13002
4.9326
14.8339
9.43742
11.6433
4.0137
45.2996
2.45075
5.58667
8.89758
4.46051
5.81747
15.6979
3.06855
4.56658
8.80538
6.05767
12.7312
2.83086
16.1383
4.12242
7.92994
8.34481
7.79154
4.81576
20.8954
6.47911
16.4381
6.93032
10.0411
9.59794
2.50615
14.1127
34.3928
4.48843
2.46014
4.84621
2.46171
3.10119
24.9823
16.4519
3.02461
8.05337
9.77013
23.8153
11.3433
6.89728
7.27057
12.2267
25.9529
2.47443
2.64434
10.4451
4.00584
4.79557
6.36573
11.2735
12.3351
6.43438
6.27332
5.6352
6.27339
2.53518
4.73444
7.34756
2.5964
8.07333
11.6262
32.0415
22.1908
6.54533
20.1529
21.0506
22.5382
2.96291
6.75697
13.6892
17.872
6.28809
4.33828
13.06
32.6579
23.519
42.8912
4.84823
47.1934
9.91337
9.90916
16.8461
5.7741
4.98499
9.65563
36.6156
15.5042
5.38638
10.0879
2.61392
6.19489
22.5027
27.8745
5.46327
14.0735
3.06839
19.1536
42.9056
3.47321
20.6719
4.80888
2.69554
16.0489
2.47093
3.91887
2.87829
38.5526
7.94803
6.05181
11.4126
15.3081
13.9616
10.4005
2.96711
9.066
7.085
7.95079
2.93366
5.53227
8.1571
13.0515
4.18075
4.78272
8.3137
2.75356
4.52107
5.56697
9.12591
8.49467
3.30621
4.35597
167.024
32.661
37.8345
40.2535
50.0051
37.0927
29.5545
33.7139
24.0065
18.7844
3.77572
17.8628
55.7689
4.62723
12.2503
3.74697
3.23773
2.47576
2.74654
4.1883
10.9422
17.5992
3.40139
25.5225
6.61412
3.18268
5.86199
7.52996
10.2552
36.3382
10.9375
8.03445
3.23478
13.6665
16.5097
8.75737
19.5387
14.1728
9.50185
3.25739
10.1287
6.23163
3.11288
3.2955
11.0896
20.9565
6.9181
7.40534
24.4222
2.45607
2.62269
6.12853
6.70048
7.21717
3.35332
9.70531
5.36648
8.86459
8.83014
14.2577
2.42205
7.71432
4.40988
4.45545
3.30498
7.31435
4.72998
12.5939
3.48768
2.42156
11.8667
8.06184
3.92181
7.72535
6.59262
4.99577
24.4515
6.77797
4.46526
8.54333
22.6315
8.46062
2.42796
2.97549
5.17384
18.1434
2.71746
2.52428
3.21607
4.23715
8.52606
6.42032
27.9542
15.1546
2.40724
3.56348
6.93623
7.1158
3.6984
2.478
3.01362
13.7378
24.9071
21.4232
43.8154
15.3646
3.87438
6.87257
4.33951
7.12595
6.43092
43.5344
16.6733
36.8731
2.49792
9.96977
3.11633
7.34546
38.5944
47.0173
22.631
30.681
68.382
20.7728
19.168
19.7556
4.0191
9.09501
7.57109
17.6051
6.96432
5.14426
292.916
5.09712
2.45585
10.9545
2.44508
6.14192
141.633
2.88618
15.5544
18.4924
17.2901
2.79134
2.90173
3.42575
3.68613
2.59715
2.88662
2.43164
18.3064
11.7574
16.6845
291.627
7.60025
35.9198
2.54452
2.92312
16.3595
19.6379
2.72507
2.65761
7.28678
12.8466
14.2196
2.51458
15.2572
20.6415
3.12451
4.54636
3.66387
82.3999
8.68706
10.725
9.50856
206.427
6.07635
9.20252
3.19734
14.3254
11.763
10.372
3.29526
42.1361
403.65
5.1506
8.2077
9.7182
25.7631
4.95707
5.08233
6.004
4.17595
8.27993
13.1
7.38485
2.67842
2.49001
6.93243
10.6726
7.28863
5.7344
11.1815
3.96616
2.60831
2.4749
13.4094
8.93304
2.65946
9.76031
41.2578
5.11774
9.51641
2.44641
107.474
14.8992
2.59866
2.49851
11.9147
15.3932
7.92565
2.81725
15.3546
10.8946
4.74146
2.42297
213.854
4.88078
3.30716
8.77979
3.81638
2.57083
4.26256
2.48714
7.07037
6.99061
3.11413
31.5884
2.57732
14.181
3.83365
3.72354
5.80444
19.8998
5.10618
7.17042
3.8736
5.47805
13.1536
70.1793
5.95501
9.2845
123.863
11.7526
11.5843
2.55791
5.08403
5.9509
145.515
9.47734
8.96648
4.86273
15.1066
73.9983
14.324
14.2047
6.35014
5.78677
3.30901
2.46519
5.2198
5.70824
135.133
6.45411
24.519
4.33899
3.71946
17.932
3.30048
6.59566
45.5011
13.7985
2.72307
12.1226
9.05083
13.7485
17.7311
7.32836
126.277
210.964
3.78167
22.0045
12.135
3.44219
10.4075
41.1645
3.51096
4.97941
4.93624
7.86502
2.486
6.52516
13.4637
3.45148
9.11581
7.93742
4.12811
2.4586
15.764
7.53355
291.704
10.8668
2.65882
4.50304
4.41904
4.49808
14.7393
3.33705
11.1075
3.01132
3.91116
32.1659
13.3712
12.1964
5.35976
2.51958
3.19422
4.65172
2.85039
2.48341
9.6137
6.24404
71.429
9.06219
53.2506
8.00443
7.42125
3.04584
6.67452
5.17772
2.56577
2.48595
3.28208
43.0587
11.4074
10.8996
102.189
8.46279
2.45589
2.57198
2.45663
9.42222
8.41509
2.67747
4.42894
8.59492
12.1351
4.58061
3.71232
329.928
42.558
14.3925
7.55571
3.24674
3.49016
3.48797
17.4741
7.32096
7.50785
7.10611
3.69018
47.0415
10.5103
3.44443
27.8764
2.41581
2.68289
12.7911
32.7769
7.14125
4.86145
2.52991
154.458
2.82566
47.2537
12.5349
6.52875
3.64006
4.33461
2.67601
4.25213
47.288
13.2855
11.9184
2.47647
13.2122
14.2547
11.0601
2.54267
42.4128
2.50694
2.46151
9.15959
5.08826
2.7106
51.192
2.41797
2.46731
34.2721
15.9786
6.26265
7.50023
68.8348
6.13649
22.1603
12.6533
41.6303
369.275
5.09877
254.224
8.06841
2.53528
93.7025
6.19558
2.75536
16.107
2.53585
20.6774
9.38194
5.8697
5.80141
2.59298
5.27051
23.3992
19.973
5.17575
4.28783
64.4049
6.03295
2.80505
20.3357
2.49114
41.3496
31.8004
2.49779
3.36973
12.945
7.33078
8.47137
5.2846
20.6191
12.5366
14.829
9.47073
2.66177
4.2389
14.1343
2.61356
2.46127
10.0319
92.1204
7.60833
11.6488
31.4909
37.964
39.859
89.5512
17.9193
8.34099
11.9384
10.7152
27.9768
2.56595
2.66103
2.48331
2.54042
10.1606
11.6819
6.66129
29.1563
16.5132
13.1122
3.2337
5.97061
13.4158
4.88786
2.55356
7.27646
9.73499
2.78216
2.45491
2.65422
2.5363
13.2592
11.8966
2.44096
12.284
21.9625
12.989
5.25358
18.1603
9.08419
14.2728
2.91539
5.18267
2.4896
8.82772
7.87737
4.22037
2.44189
5.64374
14.0805
42.4653
13.8009
2.69721
8.03956
7.99059
12.2982
8.68941
3.02778
7.02237
18.0208
191.212
8.58235
108.856
4.41942
5.30776
18.4314
4.63784
371.478
8.33404
4.41995
5.26629
6.56622
2.62715
26.8988
9.17971
38.1817
6.47695
23.4877
2.42852
2.99387
3.88658
32.0876
28.6501
11.9227
2.54274
3.22545
3.55966
2.55567
10.0654
7.50416
34.7757
6.98932
26.4596
20.1542
40.318
20.9173
72.4142
4.61591
15.8373
6.73082
10.5043
14.9106
8.96509
2.44765
107.789
11.526
2.62692
11.2351
8.62604
47.0404
26.3856
12.2056
17.8316
4.76737
124.375
20.2404
66.2047
3.05998
2.51591
11.9763
43.5709
15.5413
12.5504
118.827
18.3973
12.6191
10.4882
53.518
6.88455
9.68187
45.7135
37.451
46.197
6.21519
6.95485
2.79185
2.72785
2.45492
13.4821
6.42635
2.83809
2.44658
2.73845
2.47867
11.197
26.683
6.83874
8.67725
10.5437
3.87785
7.66735
12.0367
3.84584
6.59151
6.86194
)
;

boundaryField
{
    frontAndBack
    {
        type            empty;
    }
    wallOuter
    {
        lowReCorrection 0;
        type            epsilonWallFunction;
        value           nonuniform List<scalar> 
90
(
124.815
24.9823
23.8153
25.9529
10.4451
11.2735
12.3351
32.0415
22.1908
13.6892
17.872
36.6156
15.5042
27.8745
20.6719
11.4126
32.661
37.8345
40.2535
50.0051
37.0927
29.5545
33.7139
24.0065
36.3382
8.52606
6.42032
36.8731
9.96977
47.0173
22.631
30.681
68.382
20.7728
19.168
17.6051
10.9545
6.14192
141.633
17.2901
11.7574
16.6845
291.627
7.60025
12.8466
14.2196
9.50856
206.427
6.07635
42.1361
7.28863
107.474
31.5884
70.1793
145.515
6.35014
5.70824
135.133
6.45411
17.932
45.5011
13.7985
7.32836
210.964
41.1645
7.86502
6.52516
7.53355
291.704
10.8668
11.4074
8.46279
8.41509
8.59492
329.928
17.4741
27.8764
32.7769
7.14125
154.458
34.2721
254.224
8.06841
31.8004
89.5512
7.87737
371.478
8.33404
38.1817
20.1542
)
;
    }
    inlet
    {
        type            fixedValue;
        value           uniform 14.855;
    }
    outlet
    {
        type            zeroGradient;
    }
    wallInner
    {
        lowReCorrection 0;
        type            epsilonWallFunction;
        value           nonuniform List<scalar> 
138
(
3.47692
4.1128
4.05331
4.23516
3.99687
8.89057
4.42721
3.99306
4.19946
4.11812
5.22391
48.1219
69.6422
13.9818
15.1418
12.8359
43.5667
55.9733
75.8955
81.4697
8.86411
37.3952
3.57848
27.1478
32.6491
39.8139
20.4076
41.8231
22.9434
34.9351
29.9842
66.4225
36.9237
4.71971
3.22873
3.30732
3.35885
3.45742
3.1524
3.50214
4.15264
3.25212
3.17607
21.382
4.04525
4.74742
3.69125
3.42025
3.47702
3.6475
3.0719
4.11148
3.52234
3.73704
4.64569
3.41038
3.87258
3.09837
3.15673
3.3554
3.48943
3.74006
8.45972
3.62199
3.31905
6.2095
5.23075
21.0497
13.423
22.4378
9.46482
5.96568
6.68969
5.3497
12.5233
7.53517
12.1042
5.32326
4.74853
4.42345
5.4117
9.10526
11.5694
8.01844
7.41384
10.1193
3.35857
3.98441
25.073
24.4371
8.41262
55.7394
8.63448
48.1402
4.0137
4.12242
7.92994
4.00584
6.36573
8.07333
4.84823
4.98499
22.5027
3.47321
15.3081
4.18075
3.23773
25.5225
6.61412
3.25739
3.56348
43.5344
4.0191
9.09501
5.14426
19.6379
82.3999
8.68706
8.2077
9.7182
5.10618
15.1066
73.9983
3.78167
3.33705
3.91116
71.429
9.06219
3.24674
3.49016
15.9786
6.42635
8.67725
10.5437
3.87785
12.0367
3.84584
6.86194
)
;
    }
    procBoundary0to1
    {
        type            processor;
        value           nonuniform List<scalar> 
29
(
2.85177
2.71296
3.27771
3.27771
4.57564
4.57564
4.52151
3.33299
4.38137
3.01981
2.69916
3.80669
3.42596
3.35952
3.37632
2.98201
4.2454
4.44698
3.05727
2.91596
2.79044
2.88701
3.51204
4.20451
4.88766
4.44698
3.49641
6.02875
4.20451
)
;
    }
    procBoundary0to2
    {
        type            processor;
        value           nonuniform List<scalar> 
42
(
2.52697
2.49057
4.16849
4.35886
3.45464
2.52697
4.16849
4.48771
2.76044
2.44684
4.17405
3.862
4.17405
3.52033
2.92164
2.67778
2.92164
2.42013
2.5101
3.92142
3.92142
2.42013
2.40726
5.10364
5.10364
2.41353
4.76642
2.44243
3.44053
2.52426
2.52426
2.554
2.89144
3.5785
4.50172
4.16849
2.56307
5.50524
3.44053
4.48771
5.19074
5.25882
)
;
    }
}


// ************************************************************************* //
