/*--------------------------------*- C++ -*----------------------------------*\
| =========                 |                                                 |
| \\      /  F ield         | OpenFOAM: The Open Source CFD Toolbox           |
|  \\    /   O peration     | Version:  v1912                                 |
|   \\  /    A nd           | Website:  www.openfoam.com                      |
|    \\/     M anipulation  |                                                 |
\*---------------------------------------------------------------------------*/
FoamFile
{
    version     2.0;
    format      ascii;
    class       volScalarField;
    location    "0.04";
    object      k;
}
// * * * * * * * * * * * * * * * * * * * * * * * * * * * * * * * * * * * * * //

dimensions      [0 2 -2 0 0 0 0];


internalField   nonuniform List<scalar> 
1431
(
0.272663
0.465628
0.271648
3.18709
0.20379
0.189406
0.176245
0.243208
0.171834
0.16028
1.27329
0.145643
0.546725
0.803207
0.31816
1.22435
0.298404
0.204401
0.113413
1.09697
0.299725
0.1561
0.282657
0.821429
0.934467
0.933385
1.51472
0.777999
0.446296
0.20523
0.262218
0.298108
0.210429
0.16981
0.160424
0.29993
0.541378
0.443484
0.197213
0.466677
0.450109
0.284707
0.220504
0.218524
0.256593
0.356837
0.377829
0.319258
0.251387
0.55237
0.158838
0.169136
0.179709
0.20366
0.203235
0.301603
0.176517
0.186167
0.828886
0.291239
0.429082
0.726285
0.316902
0.306338
0.624754
0.168482
0.216166
0.160395
0.206581
0.351453
0.173167
0.165053
1.15532
0.172869
1.11721
0.196553
0.212847
0.259999
0.264419
2.71521
0.282886
0.153447
1.11609
0.458351
4.41863
0.209681
0.197992
0.994606
0.830768
0.779687
0.313202
1.1383
0.208941
0.414899
0.151093
0.250858
0.959508
0.306609
0.19681
0.268643
0.186564
0.288948
0.375139
0.19265
1.66722
0.160929
0.27205
0.265592
0.181803
0.208386
3.70491
0.1694
0.245585
0.641278
1.71757
0.194076
0.221162
0.429352
0.829583
0.252494
0.346329
0.181866
0.170798
0.462427
0.298791
0.160966
0.816894
0.77983
0.277818
0.509495
0.193098
0.186172
0.710067
0.422271
0.223126
1.24299
1.0839
0.153608
0.354983
0.210752
0.173791
0.235841
0.309247
0.221148
0.179406
0.388074
0.304003
0.225681
0.955907
0.29532
0.545067
0.662807
0.349277
0.826717
0.347149
0.655377
0.29518
0.4732
0.243722
0.300358
0.182252
1.00386
0.339673
0.874381
0.190622
4.648
0.223958
0.37993
0.169824
0.474853
0.47268
1.78925
0.325618
0.421869
0.303458
0.371545
0.289663
0.497175
0.236676
0.282587
0.324902
0.422771
0.283359
0.635029
0.361804
0.340956
0.252965
1.51532
0.793763
0.310208
0.207858
0.340364
0.254203
0.278463
0.184551
0.314993
0.26933
0.335804
0.761625
0.835643
1.00151
0.755341
0.302027
0.590225
0.274887
2.97005
0.220598
0.309203
1.29242
0.532046
0.284577
0.258955
0.440649
0.301871
0.184344
0.200832
0.246046
0.25518
0.606825
0.307872
0.29559
2.09269
0.46396
0.313969
0.321577
0.486943
0.330978
0.549164
0.43815
0.227678
0.193887
1.48661
0.332084
0.24788
0.244267
0.25126
0.32139
0.321621
0.283056
0.283001
0.343964
0.303939
0.163641
0.33667
0.592455
0.614458
0.312937
0.178731
0.188841
0.464116
0.314319
0.167547
0.158929
0.366208
0.34212
0.667076
0.139849
0.322976
0.581803
0.630353
0.67926
0.678444
0.195259
0.176197
0.248039
0.433428
0.472043
0.251315
0.350482
0.161128
0.250044
0.287931
0.311641
0.309149
0.686823
0.274672
0.323032
0.175038
0.152778
0.162188
0.177356
0.220836
0.496513
0.333921
0.500677
1.85348
0.200155
0.258538
0.454953
0.306238
0.405073
0.545407
0.261839
0.238873
0.322635
0.25981
0.257678
0.304949
0.376315
0.293382
0.344281
0.315808
0.608312
0.189426
0.491805
0.440426
0.288884
0.650206
0.607179
0.153727
0.315763
0.347037
0.571789
0.226084
0.554822
0.492379
0.16347
0.163673
0.246734
0.207541
0.431718
0.207281
0.223433
0.23944
0.156611
0.199633
0.273918
0.189542
0.391453
0.298998
0.460353
0.604583
0.214711
0.21083
0.294012
0.160617
0.178077
0.192639
0.158773
0.434835
0.911073
0.272512
0.181066
0.42284
0.393242
0.627232
0.325464
0.161624
0.126975
0.134396
0.150453
0.117022
0.125238
0.138546
0.140236
0.147203
0.119297
0.444122
0.153944
0.145709
0.144511
0.143953
0.137499
0.135836
0.139402
0.148362
0.137865
0.139664
0.906986
0.464802
0.470784
0.266827
0.210476
0.334455
0.25444
1.17349
0.445263
0.333802
0.362272
0.181689
0.115859
0.146908
0.143965
0.122686
0.14575
0.137334
0.141983
0.230498
0.142279
0.126734
0.195095
0.351132
0.340779
0.362291
0.213035
0.156859
0.167276
0.31667
0.15812
0.301777
0.176673
0.522636
0.310069
0.153284
0.701834
0.274686
0.158323
0.192519
0.152787
0.466249
0.658459
0.392261
0.147114
0.300587
0.196678
0.347546
0.447117
0.165625
0.174428
0.156558
0.183881
0.241261
0.158802
0.349336
0.278828
0.447266
0.374518
0.174296
0.246241
0.394232
0.254445
0.363603
0.444976
0.171003
0.178386
0.434854
0.189317
0.175837
0.327594
0.192185
0.187203
0.24137
0.175004
0.184552
0.189985
0.163784
0.160901
0.387244
0.203913
0.165745
0.166427
0.165524
0.162739
0.158519
0.237491
0.161456
0.170407
0.175595
0.166416
0.162595
0.343654
0.162152
0.209972
0.250843
0.157934
0.157171
0.152496
0.316658
0.238221
0.15976
0.294862
0.157902
0.174789
0.333721
0.229113
0.169058
0.328221
0.313433
0.320677
0.207192
0.243697
0.154502
0.323553
0.257831
0.175148
0.203719
0.254116
0.157952
0.195396
0.173584
0.15996
0.144711
0.214438
0.357556
0.166495
0.153608
0.247039
0.214251
0.325705
0.232505
0.225985
0.313072
0.185431
0.356524
0.36391
0.350225
0.197587
0.158015
0.271643
0.222466
0.208672
0.354836
0.252907
0.84195
0.325448
0.289916
0.320449
0.275627
0.241334
0.157941
0.335392
0.325614
0.255304
0.152454
0.153427
0.195611
0.618649
0.22011
0.305843
0.193817
0.190535
0.211848
0.282413
0.279809
0.175783
0.22764
0.19984
0.211238
0.167374
0.421427
0.308932
0.376217
0.470002
0.214005
0.124665
0.155272
0.186956
0.262288
0.16409
0.302855
0.254625
0.185102
0.54193
0.197729
0.177273
0.757732
0.203134
0.449713
0.522499
0.251548
0.166683
0.342299
0.196927
0.313093
0.238301
0.151935
0.172115
0.266308
0.485983
0.312873
0.243792
0.156063
0.468231
0.155636
0.314837
0.322106
0.187609
0.258005
0.36737
0.346963
0.153749
0.265771
0.640682
0.413807
0.171414
0.236726
0.701878
0.272962
0.154916
0.432009
0.190175
0.19975
0.360016
0.276646
0.284741
0.272571
0.160419
0.198895
0.264986
0.776237
0.633929
0.60578
0.267993
0.204364
0.202577
0.158141
1.1275
0.458403
0.154579
0.396103
0.399598
0.161876
0.160778
0.170003
0.404399
0.26139
0.215525
0.19266
0.184605
0.163492
0.325113
0.181854
0.239729
0.5557
0.237923
0.366196
0.402953
0.174954
0.170468
0.26287
0.154978
0.227164
0.302249
0.265673
0.338327
0.175109
0.389603
0.270937
0.335534
0.254531
0.230679
0.157594
0.269332
0.159402
0.331535
0.223417
0.267698
0.174836
0.165754
0.232281
0.149448
0.476529
0.294821
0.330055
0.170161
0.17299
0.267043
0.332963
0.187801
0.161871
0.376019
0.1995
0.255227
0.280516
0.288474
0.728182
0.360187
0.155107
0.162919
0.489102
0.197204
0.27225
0.26981
0.360582
0.212334
0.272925
0.201365
0.188216
0.479446
0.344014
0.412705
0.186926
0.822685
0.145142
0.259552
0.355725
0.231299
0.257541
0.477948
0.175765
0.2003
0.340168
0.264567
0.366867
0.170157
0.486613
0.148519
0.233176
0.279439
0.279481
0.228486
0.568652
0.253298
0.50501
0.24801
0.393125
0.323382
0.156847
0.366225
0.682163
0.229902
0.154722
0.233724
0.154986
0.176138
0.419843
0.464674
0.175364
0.287296
0.320584
0.412884
0.341654
0.272624
0.29567
0.436325
0.424694
0.155509
0.161961
0.2381
0.154782
0.215308
0.238258
0.257912
0.27998
0.284868
0.248499
0.24189
0.262551
0.158076
0.229947
0.300814
0.16055
0.241701
0.414424
0.535663
0.404442
0.272066
0.446299
0.472705
0.605985
0.175422
0.266249
0.306566
0.37209
0.260404
0.226
0.350197
0.57296
0.548493
0.787857
0.165712
0.776819
0.387497
0.387447
0.486717
0.271552
0.167159
0.383135
0.579977
0.337446
0.246744
0.389484
0.160698
0.274022
0.504191
0.49206
0.223067
0.466495
0.179062
0.550111
0.883744
0.134982
0.409934
0.238301
0.156889
0.536813
0.154808
0.208368
0.16889
0.73408
0.285682
0.245127
0.258401
0.372838
0.36265
0.311108
0.174503
0.348412
0.302685
0.302678
0.173895
0.252013
0.293047
0.438028
0.152293
0.235207
0.344638
0.164716
0.224357
0.214115
0.296452
0.313595
0.187442
0.217049
1.90006
0.559273
0.541394
0.526154
0.551016
0.520308
0.527118
0.525738
0.450108
0.584149
0.185839
0.39536
1.06813
0.224658
0.429266
0.197
0.131352
0.151217
0.163529
0.184476
0.382092
0.43668
0.190299
0.561118
0.23163
0.183275
0.243331
0.28703
0.302783
0.519156
0.351477
0.294584
0.184649
0.457148
0.537195
0.316875
0.516422
0.469399
0.369728
0.126576
0.396178
0.248213
0.179146
0.184554
0.321682
0.556899
0.267449
0.275347
0.611666
0.15458
0.161263
0.219392
0.273631
0.293158
0.181079
0.375055
0.238977
0.36067
0.349449
0.459559
0.152172
0.31396
0.205187
0.203791
0.188394
0.265729
0.206503
0.442198
0.195571
0.152646
0.324868
0.248758
0.206731
0.295644
0.283838
0.186434
0.544738
0.268019
0.223091
0.287656
0.557629
0.347343
0.153038
0.175671
0.253733
0.522846
0.166287
0.157772
0.183202
0.209498
0.229283
0.183456
0.532132
0.410821
0.152455
0.119317
0.300655
0.275514
0.196749
0.151359
0.175999
0.443481
0.569156
0.555927
0.834556
0.476508
0.20758
0.261247
0.224249
0.270301
0.258419
0.69345
0.49481
0.553113
0.156618
0.22411
0.177258
0.284284
0.8378
0.699017
0.424286
0.535883
0.866963
0.382863
0.356737
0.52589
0.150834
0.249183
0.27254
0.325752
0.229954
0.18484
3.17002
0.208114
0.15386
0.230308
0.154256
0.175922
1.31871
0.172125
0.527795
0.501707
0.314334
0.16793
0.172557
0.1927
0.203175
0.160296
0.163857
0.153123
0.551101
0.247616
0.315609
2.0919
0.185092
0.721832
0.158458
0.173012
0.519822
0.436124
0.166186
0.162971
0.270494
0.261003
0.286252
0.149887
0.456397
0.440849
0.180789
0.196659
0.181638
0.9013
0.239016
0.405578
0.224349
1.93588
0.188293
0.317891
0.1842
0.463655
0.329249
0.337442
0.183236
0.667196
3.91687
0.205345
0.200999
0.229541
0.500202
0.210717
0.209845
0.246562
0.197272
0.331294
0.351143
0.284263
0.16301
0.15618
0.267826
0.307558
0.208836
0.238798
0.411412
0.206371
0.153153
0.155577
0.440127
0.363974
0.162203
0.355232
0.715443
0.225176
0.376245
0.15418
1.1267
0.378574
0.160582
0.156513
0.42054
0.440066
0.309088
0.170061
0.468448
0.319532
0.239405
0.15211
2.33014
0.203817
0.183317
0.347321
0.206706
0.15773
0.214865
0.156091
0.275262
0.294789
0.172924
0.468628
0.159927
0.459538
0.199503
0.194862
0.265972
0.433446
0.184752
0.292738
0.209712
0.254531
0.352746
0.851763
0.270651
0.340686
1.78018
0.322221
0.329721
0.159212
0.249008
0.252662
1.40238
0.375789
0.317398
0.235601
0.31825
0.785746
0.354748
0.355812
0.181927
0.224069
0.189774
0.149299
0.240153
0.186532
1.51379
0.193953
0.48445
0.21616
0.189266
0.384998
0.189804
0.283932
0.52077
0.278492
0.159698
0.334906
0.295275
0.454313
0.424869
0.191949
1.80834
1.66269
0.154038
0.554397
0.418064
0.191004
0.385112
0.624284
0.14718
0.237747
0.247106
0.174967
0.14277
0.168863
0.448849
0.175427
0.358983
0.323918
0.203785
0.154798
0.372908
0.187212
1.99711
0.247668
0.162768
0.177509
0.21668
0.216262
0.359453
0.122191
0.302459
0.174066
0.129832
0.732691
0.468075
0.356062
0.249582
0.152324
0.180396
0.236459
0.169481
0.155964
0.31889
0.259527
0.822296
0.266127
0.865797
0.279199
0.299083
0.173748
0.28776
0.241836
0.158529
0.150699
0.183521
0.747191
0.200414
0.338854
1.18034
0.184968
0.151747
0.157342
0.154779
0.297797
0.175149
0.158814
0.221609
0.207735
0.336689
0.22533
0.197736
2.03729
0.637474
0.366454
0.309682
0.123296
0.133632
0.191796
0.278417
0.313746
0.29175
0.265317
0.197312
0.663066
0.403897
0.187755
0.427788
0.152859
0.164178
0.430303
0.571608
0.18893
0.233021
0.157851
1.39711
0.169302
0.936363
0.334109
0.281059
0.177381
0.189493
0.164395
0.214882
0.699904
0.358622
0.42731
0.1556
0.351602
0.360276
0.391731
0.158589
0.886942
0.156874
0.154245
0.319793
0.242124
0.164277
0.802874
0.152044
0.155247
0.424109
0.361015
0.278336
0.296128
1.24028
0.261107
0.446608
0.34477
0.671737
3.57672
0.205745
1.85387
0.186149
0.158041
1.18384
0.233908
0.160175
0.498949
0.156772
0.481107
0.318453
0.229432
0.225192
0.160346
0.206029
0.576286
0.480328
0.221597
0.192227
0.962027
0.250846
0.158477
0.467122
0.156217
0.726583
0.469415
0.156507
0.18978
0.446478
0.315094
0.345125
0.255515
0.431191
0.343947
0.452663
0.321237
0.159997
0.213375
0.445413
0.155702
0.150072
0.332106
1.45434
0.290325
0.353701
0.698162
0.604263
0.68848
1.01147
0.57618
0.344198
0.439885
0.395549
0.558075
0.159225
0.162858
0.155912
0.15819
0.354656
0.32218
0.265073
0.642038
0.427547
0.351138
0.170116
0.267916
0.458448
0.21992
0.158751
0.267164
0.368178
0.166388
0.154686
0.162603
0.158079
0.341212
0.423098
0.154077
0.342874
0.455305
0.400249
0.236602
0.535738
0.306162
0.44702
0.170706
0.223506
0.155253
0.313579
0.197307
0.216742
0.154118
0.264388
0.439973
0.660365
0.364886
0.164451
0.294482
0.335512
0.431122
0.304497
0.158991
0.260687
0.462944
2.25526
0.31613
1.46178
0.194277
0.24249
0.576009
0.232488
2.13393
0.184537
0.192951
0.259034
0.266348
0.134584
0.612133
0.290299
0.543325
0.293919
0.612254
0.153377
0.162428
0.189078
0.573591
0.6247
0.416845
0.158101
0.180076
0.179541
0.15809
0.387302
0.236602
0.697862
0.257777
0.620035
0.394902
0.674024
0.492979
1.24845
0.233145
0.471043
0.286195
0.383111
0.484839
0.362706
0.154384
1.61906
0.416274
0.157281
0.31695
0.314772
0.758527
0.534893
0.33891
0.531986
0.195395
1.71954
0.508416
0.946765
0.161511
0.157237
0.428947
0.715497
0.49868
0.315792
1.72961
0.460774
0.3425
0.336352
0.837294
0.273938
0.313547
0.686242
0.636849
0.707495
0.254547
0.305543
0.168177
0.1648
0.154679
0.346299
0.202422
0.168422
0.154327
0.16562
0.155735
0.399317
0.506252
0.25671
0.263067
0.28448
0.169726
0.221017
0.339896
0.160429
0.196217
0.203494
)
;

boundaryField
{
    frontAndBack
    {
        type            empty;
    }
    wallOuter
    {
        type            kqRWallFunction;
        value           nonuniform List<scalar> 
90
(
1.22435
0.419843
0.412884
0.424694
0.2381
0.257912
0.27998
0.535663
0.404442
0.306566
0.37209
0.579977
0.337446
0.49206
0.409934
0.258401
0.559273
0.541394
0.526154
0.551016
0.520308
0.527118
0.525738
0.450108
0.519156
0.229283
0.183456
0.553113
0.22411
0.699017
0.424286
0.535883
0.866963
0.382863
0.356737
0.325752
0.230308
0.175922
1.31871
0.314334
0.247616
0.315609
2.0919
0.185092
0.261003
0.286252
0.224349
1.93588
0.188293
0.667196
0.208836
1.1267
0.468628
0.851763
1.40238
0.181927
0.186532
1.51379
0.193953
0.384998
0.52077
0.278492
0.191949
1.66269
0.624284
0.174967
0.168863
0.187212
1.99711
0.247668
0.200414
0.184968
0.175149
0.207735
2.03729
0.278417
0.427788
0.571608
0.18893
1.39711
0.424109
1.85387
0.186149
0.469415
1.01147
0.197307
2.13393
0.184537
0.543325
0.394902
)
;
    }
    inlet
    {
        type            fixedValue;
        value           uniform 0.375;
    }
    outlet
    {
        type            zeroGradient;
    }
    wallInner
    {
        type            kqRWallFunction;
        value           nonuniform List<scalar> 
138
(
0.145643
0.113413
0.210429
0.16981
0.160424
0.284707
0.216166
0.160395
0.173167
0.165053
0.196553
0.710067
0.826717
0.347149
0.371545
0.289663
0.761625
0.835643
1.00151
0.755341
0.313969
0.667076
0.139849
0.581803
0.630353
0.67926
0.472043
0.686823
0.500677
0.650206
0.607179
0.911073
0.627232
0.161624
0.126975
0.134396
0.150453
0.117022
0.125238
0.138546
0.140236
0.147203
0.119297
0.444122
0.153944
0.145709
0.144511
0.143953
0.137499
0.135836
0.139402
0.148362
0.137865
0.139664
0.181689
0.115859
0.146908
0.143965
0.122686
0.14575
0.137334
0.141983
0.230498
0.142279
0.126734
0.195095
0.176673
0.392261
0.347546
0.444976
0.24137
0.189985
0.203913
0.162152
0.333721
0.207192
0.323553
0.173584
0.15996
0.144711
0.166495
0.247039
0.313072
0.222466
0.208672
0.275627
0.124665
0.185102
0.54193
0.522499
0.243792
0.776237
0.302249
0.728182
0.186926
0.148519
0.233176
0.154782
0.238258
0.241701
0.165712
0.167159
0.504191
0.134982
0.372838
0.152293
0.131352
0.561118
0.23163
0.126576
0.119317
0.69345
0.150834
0.249183
0.18484
0.436124
0.9013
0.239016
0.200999
0.229541
0.184752
0.31825
0.785746
0.154038
0.122191
0.129832
0.822296
0.266127
0.123296
0.133632
0.361015
0.202422
0.263067
0.28448
0.169726
0.339896
0.160429
0.203494
)
;
    }
    procBoundary0to1
    {
        type            processor;
        value           nonuniform List<scalar> 
29
(
0.167997
0.164094
0.184883
0.184883
0.232477
0.232477
0.173078
0.15817
0.186079
0.175063
0.161346
0.178419
0.157783
0.155799
0.170435
0.167584
0.219216
0.222546
0.176715
0.171249
0.164672
0.164694
0.187865
0.177247
0.174743
0.222546
0.169491
0.164473
0.177247
)
;
    }
    procBoundary0to2
    {
        type            processor;
        value           nonuniform List<scalar> 
42
(
0.157766
0.156174
0.191078
0.19005
0.193909
0.157766
0.191078
0.202216
0.16782
0.154287
0.214499
0.2035
0.214499
0.192484
0.172853
0.163614
0.172853
0.153087
0.15716
0.204511
0.204511
0.153087
0.152474
0.228449
0.228449
0.152775
0.237784
0.154009
0.192811
0.157558
0.157558
0.158562
0.171632
0.196393
0.225963
0.191078
0.159158
0.17179
0.192811
0.202216
0.229098
0.242557
)
;
    }
}


// ************************************************************************* //
