/*--------------------------------*- C++ -*----------------------------------*\
| =========                 |                                                 |
| \\      /  F ield         | OpenFOAM: The Open Source CFD Toolbox           |
|  \\    /   O peration     | Version:  v1912                                 |
|   \\  /    A nd           | Website:  www.openfoam.com                      |
|    \\/     M anipulation  |                                                 |
\*---------------------------------------------------------------------------*/
FoamFile
{
    version     2.0;
    format      ascii;
    class       volScalarField;
    location    "0.69";
    object      p;
}
// * * * * * * * * * * * * * * * * * * * * * * * * * * * * * * * * * * * * * //

dimensions      [0 2 -2 0 0 0 0];


internalField   nonuniform List<scalar> 
1431
(
95.3571
93.7652
93.7457
95.2065
90.7705
94.0178
96.9816
36.3752
96.1211
97.027
45.0601
42.4254
97.5817
88.0244
92.1536
97.047
89.4076
94.6462
91.2433
92.4761
40.3945
87.7905
96.0827
20.3911
95.6241
97.6058
50.9258
92.8772
95.1788
88.2377
90.8532
96.1248
91.1128
88.8905
95.6397
97.1304
93.4792
97.4133
97.2231
95.4486
93.9101
93.7462
97.52
97.0968
91.4201
95.1237
89.661
55.1513
96.9173
97.2239
96.1686
97.2173
96.73
50.592
94.197
97.574
93.487
45.8212
88.5769
93.255
93.6395
96.8856
97.0824
97.3698
97.1446
96.9156
91.8124
96.7559
96.1947
89.929
44.5626
88.593
95.6675
88.9899
88.2376
94.6001
93.3312
97.1959
97.1309
95.1248
89.0214
95.1388
88.1664
90.4617
39.7674
94.7715
94.4538
92.3412
51.2213
70.965
94.1136
93.0553
97.494
97.1426
94.3908
91.1995
42.3232
87.9931
97.0425
94.9279
97.5479
97.0063
88.5084
94.4648
97.332
90.0914
96.7029
53.7679
94.2541
87.9087
94.1635
97.4959
93.3917
93.7846
94.0331
92.12
88.2546
95.4588
94.9107
97.2437
91.3869
92.193
52.1477
88.8233
41.2
97.1319
93.7294
90.3688
93.7342
94.3095
89.9931
93.8874
94.2774
90.6409
93.8711
96.758
97.3833
96.8796
47.9955
97.4616
97.3039
90.3928
88.7163
94.8769
97.9422
91.0992
96.686
97.4662
97.1159
94.7229
96.8797
96.4968
95.5692
94.7033
95.7875
97.4868
47.6465
91.8057
80.5376
94.4334
63.6138
97.3341
95.305
94.5248
52.2024
94.5017
93.6133
94.3349
97.299
91.7836
62.8443
97.4077
93.9376
49.0904
93.2299
46.8074
94.2825
92.8373
96.6667
95.67
97.0078
97.2874
94.9655
23.9217
93.6048
96.6551
48.4164
92.0613
93.4671
49.5337
91.0593
94.4013
95.4743
56.2851
95.1267
88.8342
86.6309
93.4155
95.8968
93.6698
94.3787
95.1127
67.6645
94.3433
97.6406
90.8892
96.0469
95.9976
49.3085
93.4386
36.2641
95.4205
96.3457
90.2251
41.8691
95.2621
95.5924
92.215
95.2126
72.7039
95.6827
95.0366
96.3832
94.7733
95.8534
45.4535
68.5456
90.2176
95.5923
70.3684
34.8279
90.9167
90.8409
95.3088
96.0424
72.8974
96.1781
91.6275
91.5156
94.6575
94.2863
94.0531
47.999
92.0904
94.0762
90.6192
92.6176
60.8423
95.7777
97.3867
90.2022
49.6482
94.518
95.5081
90.9662
94.5514
94.6224
40.9375
80.2722
95.4958
95.9176
49.5744
95.0119
94.324
95.7518
77.2529
96.8371
57.5103
60.5303
92.7508
94.7599
95.9655
94.1025
94.6239
57.9285
93.5373
53.2685
87.1686
90.7228
96.2706
97.217
95.1676
91.1252
96.5943
94.2567
86.3777
94.2481
84.6995
45.8491
93.533
95.985
96.517
88.9175
97.3865
74.3417
95.2311
46.8632
97.3024
95.2049
90.0266
97.0885
97.6084
94.2417
97.5892
92.9516
94.7506
93.1601
94.9952
93.9594
92.9629
85.2031
97.0848
96.7318
55.4221
96.2773
87.2969
94.1635
94.2509
94.9969
32.3752
92.9276
88.7421
95.0843
97.4746
95.2451
93.7061
94.9911
95.3981
55.4228
95.4341
88.3557
95.837
95.9193
88.0933
94.3209
97.6421
95.6183
77.9446
94.9182
53.7022
97.4072
97.4966
79.9827
93.4322
95.8137
92.1032
94.1402
51.2033
85.6316
97.277
92.9977
94.9434
97.4959
91.6042
94.3945
95.4714
40.1132
35.9493
48.5099
93.8833
87.6747
96.21
88.5191
94.2688
95.4928
40.5805
95.6768
11.4425
94.8496
88.7592
55.6676
89.9808
55.6393
94.5326
94.2238
49.8853
91.5549
95.2402
93.3558
46.3729
96.99
94.3182
94.6521
94.8163
12.2472
96.3383
95.5647
95.7714
94.0419
94.7527
94.2778
96.0601
96.2373
94.9061
75.0015
97.6257
97.3291
97.6507
95.2225
95.2258
89.5623
94.2409
82.9785
94.837
97.4944
97.4269
94.3808
94.4995
94.2553
97.259
89.1973
95.1284
97.1618
96.5864
96.0125
94.9944
92.512
94.4029
94.4034
97.1207
94.2503
97.2923
96.2475
91.9399
97.0785
90.1947
91.6773
92.0428
93.412
30.1835
94.2656
93.8274
94.2193
93.1733
94.2174
95.1255
94.6002
95.891
95.7592
96.1031
92.4701
45.9982
94.415
94.9232
94.7303
94.6755
94.7643
95.0225
90.1555
88.2504
88.7241
97.0484
96.8742
91.0391
96.768
96.9416
87.9174
51.4364
90.9757
91.6533
87.8361
97.0827
51.2198
96.9538
91.0385
96.916
92.338
50.687
96.8615
47.392
97.0913
97.1512
93.442
88.01
47.0917
47.0512
96.4227
97.3626
94.627
97.1771
88.2137
94.6673
46.3654
97.2244
94.7094
88.3914
92.952
94.6287
93.518
97.5733
44.8478
97.2384
93.5354
97.6985
89.389
91.821
93.4838
42.9285
97.3311
93.426
95.6201
97.715
92.466
96.2093
43.2063
48.1014
94.8842
97.2911
97.4236
91.683
97.7122
91.5183
91.4168
93.4011
95.5829
95.5454
94.8854
97.7503
91.0893
46.1705
90.0637
97.3845
92.61
95.0898
97.745
94.7599
42.238
95.1628
92.2128
94.4132
94.1302
97.3935
97.9277
93.0247
96.6645
93.2223
94.6779
94.0913
97.7755
90.8018
97.3356
96.9062
93.1989
97.3818
93.6791
94.9066
94.8229
82.9921
97.3724
95.9291
94.6333
96.6366
94.1808
96.6733
97.1137
92.0768
94.6362
96.146
88.5949
53.6507
95.7643
45.9578
84.2316
97.275
38.4329
97.1046
95.0616
94.6364
95.7327
95.6733
97.248
71.87
96.1058
97.1899
96.9653
92.213
95.0769
95.4743
95.3761
93.3886
97.2231
78.7765
91.1509
91.4542
90.3415
96.2767
91.4924
97.0987
96.6876
91.8494
95.4904
91.0378
96.588
95.1308
95.4534
97.2741
89.8939
95.1395
90.434
49.4501
72.8683
97.797
96.7927
97.3573
86.2179
94.5906
20.9492
86.6914
94.745
95.2811
94.9072
97.3554
96.7511
95.9586
95.5731
94.8687
44.0297
94.3681
93.8385
95.4776
93.6532
93.7714
97.3008
96.4627
97.3394
88.569
96.953
90.6213
83.1512
95.2665
97.6006
97.5647
97.0768
96.3791
97.3159
90.3772
38.6466
94.2655
94.2046
94.3825
94.7272
82.9623
94.3386
96.4096
92.1481
97.4988
89.3258
94.7108
35.2675
92.9385
95.1418
94.023
94.9563
88.4022
95.7677
95.263
96.1153
83.9646
93.1544
56.1178
69.2199
97.0814
97.6288
97.3314
96.5662
93.6858
92.6859
93.2442
97.1654
95.1932
97.1197
94.1085
39.2079
96.5919
94.4306
89.9682
34.1126
87.8519
92.4966
94.3929
94.3777
95.8535
93.0853
42.912
97.0577
92.3251
95.9734
94.514
93.0624
95.2799
94.5349
92.8758
93.5813
95.0738
94.6673
94.8501
92.3812
90.9817
94.5265
79.674
94.8699
92.5876
97.2764
94.8569
94.1521
27.3625
94.4319
93.9392
94.4037
96.4196
95.5452
94.9231
90.4817
94.9355
93.5979
94.7483
96.2086
94.1399
94.5226
94.5671
93.3493
90.6971
48.4728
97.2764
97.7555
94.7124
93.8667
97.1908
55.7929
54.7175
97.3108
91.2913
93.301
94.3402
94.8969
93.3737
94.4838
90.0819
44.5876
94.5339
94.1889
95.4537
94.3645
92.7947
94.5646
95.9658
87.8153
93.354
95.1666
96.967
97.7177
94.9161
94.3749
97.026
10.0934
94.3216
95.3308
95.1086
94.8873
93.9725
34.2077
94.1016
95.2364
96.7962
91.1249
96.9094
97.0753
96.9954
96.9547
95.0161
96.9496
90.5937
93.4418
95.0557
94.9611
95.7041
94.3702
97.4746
96.8984
92.9042
93.1294
97.429
97.2895
96.7657
95.3849
49.613
94.0287
95.5283
94.1785
95.0543
93.796
92.0473
95.9522
96.7312
94.9661
94.4293
94.5779
91.9322
94.818
97.4889
95.5004
87.7824
91.5855
93.9502
95.1158
17.9032
95.0789
96.0236
97.2627
93.7322
52.817
94.3299
94.6521
44.9673
95.4513
51.7513
94.9929
91.2362
94.8019
94.8194
95.535
90.5694
97.4412
97.0329
95.2952
94.2236
95.2165
90.2173
91.4625
97.3277
95.3629
86.9852
43.4434
94.8021
93.8743
51.7109
91.1694
93.7941
97.4751
97.0253
97.351
97.6
97.4774
95.2507
96.9005
67.8349
97.5197
53.5234
97.647
77.0827
94.5503
89.8499
97.8129
95.0139
92.0723
96.9495
94.3122
99.9632
93.6317
97.291
94.922
93.3846
97.6794
94.9405
96.9339
97.0006
96.5152
97.1524
51.0811
96.7386
96.5178
52.2688
96.5771
93.7709
88.1847
92.5179
96.8806
95.5965
96.5505
94.1029
45.3541
94.6266
94.5354
36.4247
57.3519
47.8457
35.4354
63.3342
95.8056
95.424
94.7296
95.0367
56.6928
96.1677
92.0196
93.9409
93.0441
91.2654
69.1549
49.2727
90.8806
78.74
74.0505
91.1018
96.2354
95.9994
91.5167
95.7233
95.5696
91.5744
95.4939
96.2647
76.9929
97.1294
93.4409
96.1262
88.109
89.2859
38.6359
94.9636
86.5308
87.6793
92.2445
96.936
51.578
89.9244
91.5496
77.0094
94.5337
96.3896
89.2938
94.3805
51.4357
92.4495
95.4978
95.3506
94.3275
94.8945
97.5043
48.2004
95.4301
88.1759
96.8638
94.6584
97.3568
97.3738
57.3296
96.5688
97.1602
93.3544
95.185
97.3057
95.1825
89.426
93.9636
96.1462
97.7981
88.5249
91.2521
97.9387
97.4371
47.0045
97.6008
96.3267
93.6648
93.8571
88.1722
94.3521
95.081
89.6146
94.4392
96.7874
90.8267
41.0601
95.3635
88.5873
94.1647
94.2345
96.8839
29.0948
96.9992
95.0599
97.3727
38.9734
97.1476
82.6165
97.0118
97.1523
94.4514
89.2663
93.6485
96.9525
90.8605
58.0468
36.9494
95.4122
96.867
95.3891
92.3949
88.9473
94.3764
90.9973
91.239
94.8294
93.4971
93.5578
39.3792
94.5882
94.4938
96.9708
90.0165
95.6221
91.0034
94.8346
96.0693
93.7826
95.1045
95.6948
95.4772
94.5647
27.8169
19.4943
96.9646
94.7743
86.2831
94.4382
97.212
48.8748
89.9031
95.5902
91.117
70.5811
47.7236
94.4541
89.1132
95.652
95.5265
83.1514
49.0646
95.0436
94.1401
94.5039
51.6535
94.7087
95.4859
94.7541
8.07149
94.386
39.7946
57.9954
96.085
93.4616
96.4815
94.3709
97.575
94.8132
94.392
94.9368
96.1228
95.031
95.5453
93.7717
95.5136
64.4285
97.1729
93.0959
96.5169
53.1112
96.9056
52.1231
93.895
97.3331
54.1834
94.5963
69.5109
65.2998
61.181
50.519
50.5447
49.7632
57.1518
50.7421
95.5317
94.9946
95.1302
95.4847
95.4134
95.3248
97.6183
89.6251
95.3655
92.427
95.6464
90.019
95.2944
93.2691
97.159
96.8527
97.0702
97.243
95.7483
94.7
94.3948
92.2841
90.9295
93.7444
93.2223
95.2844
95.9564
81.8037
94.8935
93.7724
47.0817
96.1293
94.8949
92.9245
93.6311
97.5921
95.6964
34.6397
97.4773
96.6008
95.4842
89.7272
94.6888
90.7282
87.9538
91.4936
95.5349
88.6583
92.9766
93.6731
92.6901
94.4968
97.6456
89.3494
97.0934
17.8647
97.2194
43.4986
8.50666
94.3351
47.598
88.8891
91.9459
94.5784
42.469
94.6676
96.2162
97.1955
74.3145
95.8606
90.3222
95.4292
89.4729
97.1915
95.642
97.6078
97.2156
60.4064
38.3241
18.2239
89.2559
92.7088
94.2689
96.3955
94.6555
94.7733
92.5232
88.7408
94.7177
47.5081
97.6018
97.425
41.4151
96.3743
87.9614
96.4347
97.4393
95.83
84.3166
66.1865
95.9614
97.2082
92.2929
96.3776
46.2062
95.1043
46.5643
97.0973
91.9084
89.8713
36.7998
84.7314
94.1954
96.0076
96.2936
95.4766
52.7701
90.3675
94.1504
88.8818
88.673
93.1407
96.0901
95.2647
90.4965
94.1346
52.8677
88.5328
97.5242
97.4223
88.5726
95.2568
94.841
94.3652
90.7472
90.5018
96.5296
45.5633
96.5351
97.8499
96.067
92.8607
95.591
89.1788
92.8104
96.1378
78.7114
94.6824
30.1905
95.5087
94.4757
93.5898
62.3625
93.4592
96.7577
96.5796
97.2353
94.821
97.4213
96.1964
94.0628
99.982
89.4976
94.3185
88.8054
94.9629
95.1393
53.7748
95.961
56.2059
96.1133
97.546
95.282
96.4136
89.0502
91.3507
94.004
88.3178
95.1218
94.1624
36.5651
94.6637
95.1208
96.9884
91.4826
90.7831
94.1271
94.984
74.0764
96.2514
93.682
48.7781
89.2391
95.9635
96.5413
97.2368
93.6816
93.4705
94.5728
83.1006
90.8806
91.2836
89.2358
90.7119
96.265
49.9957
97.4041
93.6255
88.1393
97.2714
56.6991
91.187
96.044
90.4737
53.3674
97.5622
92.4287
97.1586
39.4704
95.2475
96.7736
96.7571
90.8249
41.786
94.5859
50.6804
94.6571
94.5353
94.3688
54.339
94.8459
35.8811
75.8445
97.6918
94.6554
91.1254
47.0731
94.105
17.412
94.4
95.4843
94.776
96.2942
90.5994
65.446
94.5468
94.4188
42.6671
56.7275
93.8485
90.1809
94.5926
49.8813
94.4192
89.6879
91.8897
54.0534
96.8128
94.3075
97.6205
92.5689
88.9617
95.6124
89.7927
95.444
94.5264
58.755
54.2466
94.5061
94.8481
89.4911
96.5661
95.0408
95.6886
87.9772
96.2995
95.5241
92.2262
91.608
96.0089
66.2072
95.8399
95.1174
95.3522
78.2131
95.3889
94.4482
96.6143
88.6568
94.9188
90.8224
92.1678
95.9836
94.9748
95.2567
61.9419
49.9498
90.9713
97.5249
95.0397
93.1304
97.2592
95.5815
96.8598
96.6855
91.2208
91.3248
91.7059
95.3942
58.5822
95.0464
83.1473
97.5411
89.8665
46.9859
95.3501
95.3879
88.9266
94.2156
92.6227
36.7767
97.4636
97.5124
92.9948
97.9673
97.3466
97.4309
96.8364
96.2079
94.742
23.3408
55.1394
88.0744
108.432
88.8417
90.6604
89.9789
97.0368
101.512
93.1995
95.3341
98.4999
98.0164
92.7129
97.0374
90.5223
93.5922
92.5649
91.7067
)
;

boundaryField
{
    frontAndBack
    {
        type            empty;
    }
    wallOuter
    {
        type            zeroGradient;
    }
    inlet
    {
        type            zeroGradient;
    }
    outlet
    {
        type            fixedValue;
        value           uniform 0;
    }
    wallInner
    {
        type            zeroGradient;
    }
    procBoundary3to1
    {
        type            processor;
        value           nonuniform List<scalar> 
48
(
93.6785
94.1951
94.0616
93.4925
93.5272
93.085
94.1951
93.1117
93.1239
91.1343
91.1343
91.8158
91.8158
91.7754
90.9768
92.9974
93.4703
93.4062
93.4703
92.208
93.4014
93.4641
92.208
93.6727
91.8365
91.8551
93.3431
93.4641
93.2518
92.1913
92.1913
93.1521
93.1521
93.1239
92.0026
93.2838
93.049
91.8365
93.5406
93.9488
91.7754
93.0426
92.9913
92.208
90.735
94.5105
93.4508
92.8639
)
;
    }
    procBoundary3to2
    {
        type            processor;
        value           nonuniform List<scalar> 
29
(
96.3189
96.3189
96.6183
96.8902
92.1634
96.6382
95.7905
96.3445
96.7685
96.838
96.5308
91.683
96.1734
95.6524
95.5369
95.678
96.6768
96.7666
96.116
95.5434
95.5234
96.6768
95.5659
96.7666
95.5575
96.6116
96.7666
90.9318
90.9318
)
;
    }
}


// ************************************************************************* //
