/*--------------------------------*- C++ -*----------------------------------*\
| =========                 |                                                 |
| \\      /  F ield         | OpenFOAM: The Open Source CFD Toolbox           |
|  \\    /   O peration     | Version:  v1912                                 |
|   \\  /    A nd           | Website:  www.openfoam.com                      |
|    \\/     M anipulation  |                                                 |
\*---------------------------------------------------------------------------*/
FoamFile
{
    version     2.0;
    format      ascii;
    class       volScalarField;
    location    "0.55";
    object      k;
}
// * * * * * * * * * * * * * * * * * * * * * * * * * * * * * * * * * * * * * //

dimensions      [0 2 -2 0 0 0 0];


internalField   nonuniform List<scalar> 
1466
(
0.40049
0.896831
0.470655
1.93153
0.352297
0.712491
0.753121
0.846638
0.279664
1.03003
1.36184
0.966906
0.225101
0.447327
1.20009
2.28101
0.668314
1.02927
2.39749
1.40562
2.3866
2.35199
1.83893
1.22871
0.254604
0.646383
1.53917
1.79342
0.310991
1.46103
1.55484
0.670948
0.552904
3.60735
2.06928
1.12483
3.84107
0.697953
1.34182
0.377365
0.508719
1.10692
1.18551
0.517058
0.238662
0.451435
1.26069
0.174664
0.835773
0.25497
0.426899
0.915826
0.679694
0.2868
0.484775
0.278359
0.406847
1.19129
0.20109
1.05365
1.09935
0.842324
0.740059
1.0499
2.10385
0.805375
3.60837
1.3779
0.957093
0.424802
2.139
1.32034
0.823181
0.271059
0.793205
1.62646
0.786948
0.630018
0.597324
1.71654
1.29428
1.96659
0.470902
1.65776
2.17774
2.7413
2.9069
1.60885
1.28988
1.12004
0.827146
1.49598
2.22398
0.38592
0.609862
0.481019
0.82679
1.16842
0.28215
0.319771
0.575719
0.319444
0.144195
1.09785
1.35588
1.00708
0.715383
0.241735
1.23877
0.386664
0.976061
1.86903
0.666266
1.08177
0.914969
1.2248
1.2568
0.806021
0.684227
0.715528
2.37509
0.707785
0.49679
0.561269
0.199489
1.01689
1.20165
1.83861
1.22374
1.21774
1.14626
1.05645
1.71442
1.16306
0.907341
0.514997
0.481842
0.460114
0.561343
0.511795
0.324564
2.01347
1.73859
1.8817
2.35351
3.36987
0.671786
0.978669
1.53632
1.76276
0.915473
1.09977
1.0916
0.491957
1.41144
2.32372
1.59172
2.35669
0.731131
1.02545
0.647793
1.52119
1.37118
1.86078
2.9225
1.62527
1.53658
2.12959
2.09809
1.16929
2.29297
0.487203
0.234309
1.00306
0.573129
0.273741
1.28865
1.67842
0.892996
2.1909
0.30439
1.08374
2.51493
0.17675
1.62935
2.81023
2.26852
1.17882
0.979431
0.85985
2.50666
1.16796
1.93413
3.67392
0.934943
1.10024
0.36131
2.3817
2.85967
3.72301
1.30285
1.37547
1.31765
1.40629
1.86801
2.81272
2.8086
0.878836
0.721846
1.3487
2.14849
1.94121
2.47472
2.10664
2.55149
1.84501
2.84815
2.32909
1.40355
1.41311
2.02149
1.25453
1.91569
1.25233
1.99993
2.21124
1.94541
0.179586
0.90019
1.22338
1.60015
1.71251
3.96951
3.63851
0.661554
2.47611
1.6589
2.02779
0.986429
2.43486
1.14337
1.68328
1.17568
3.83287
0.82171
1.41363
0.659068
0.270651
1.74519
1.05869
2.7325
2.2654
0.804392
1.17842
0.495332
0.956768
1.47709
0.38522
1.18728
1.51993
1.07514
1.63206
1.13313
1.19773
1.53162
0.185765
0.624189
1.47742
2.28445
0.418079
1.61231
1.34324
0.793714
0.723415
0.86306
1.39272
1.07553
1.59582
2.22212
1.60274
1.10368
1.63559
1.99111
1.54675
2.21051
0.245945
1.6741
1.62939
0.280852
0.652012
0.720743
0.344609
0.268395
0.366505
1.26196
0.642299
1.83906
0.353105
1.65723
1.10458
0.397969
1.46695
0.185094
0.296078
2.4476
0.566366
0.970421
0.427144
1.11417
3.21153
0.939194
2.51049
1.44073
1.30733
1.54719
1.33696
3.11911
1.0458
0.286562
1.27686
0.602448
1.54302
1.31459
1.01386
2.32406
0.557165
0.291488
1.05847
0.896496
1.32125
1.73184
0.598509
0.552385
1.06454
2.26057
0.38895
2.41285
0.970687
1.11589
0.621116
0.323065
0.951696
0.624146
1.71202
1.23129
0.188979
1.49061
1.18696
1.04789
2.1694
0.762226
0.366814
1.46019
2.92471
2.75012
2.81954
1.69038
0.368304
0.316553
1.1692
2.82427
2.51479
1.89746
2.07997
0.316786
4.16323
0.851583
0.82463
0.861473
1.16976
1.05841
2.9794
1.32895
0.973197
0.545198
4.11474
1.3664
1.34384
0.432178
1.46453
2.92232
2.84688
3.18098
3.40597
3.23058
3.06128
0.590106
0.569127
0.428078
0.275279
1.0098
2.37398
2.09859
2.43117
1.70004
0.984161
0.254767
1.34805
1.43932
0.672694
0.256669
0.230251
1.45557
0.382392
1.22259
3.44903
1.59137
0.963618
3.42748
3.34784
1.10707
1.80835
2.04904
3.49633
1.61779
0.452425
0.384085
1.2715
1.35696
1.05411
2.86898
3.01324
1.09772
2.02368
1.12189
0.821677
2.16759
1.30916
0.988946
0.854747
1.85415
1.14816
1.17939
2.03856
1.28389
0.506615
0.344013
0.394303
0.391088
1.7907
0.424356
0.321181
1.81658
0.49131
1.28153
0.866478
0.677429
1.36276
0.659343
1.7309
1.40325
0.492614
0.449796
0.353066
1.73895
0.412208
0.488971
0.677781
0.440672
1.36133
0.479589
1.09222
0.502007
1.04862
1.59531
0.497139
2.76496
1.0957
1.06816
2.61
1.07182
0.623753
1.75601
0.190603
1.39467
0.516204
0.341054
2.11608
3.48181
1.6603
1.10758
1.93248
2.16551
3.29533
2.56502
0.748145
0.480508
0.305464
3.2942
2.03062
2.82226
1.72471
0.594455
2.89157
1.24876
3.11119
4.03495
3.35924
1.35712
2.55014
3.59965
3.78309
0.967094
2.45777
0.436084
2.70761
1.60339
1.51066
0.447598
3.67596
1.26115
2.31691
1.69799
1.74939
4.04252
2.33297
1.68601
0.330916
0.591591
0.736438
3.75017
1.21151
3.70795
0.870277
2.15101
2.11429
1.50527
1.71032
2.24722
3.16092
0.435358
1.93736
3.217
3.07638
3.57436
1.60441
0.952796
1.75315
1.74582
2.05582
0.698037
2.66867
0.562878
1.77298
2.35267
0.918779
2.42792
0.695819
3.22063
1.49498
2.46782
0.628739
0.324808
3.47625
1.83773
3.78259
3.68615
2.37225
1.08159
0.557235
3.11434
3.11069
1.21292
1.13764
0.486077
1.75325
2.99864
3.71098
1.82295
3.97307
2.40176
3.72279
1.11442
1.55201
0.69251
2.54506
0.368366
4.08209
3.64358
1.65625
1.38662
3.94073
4.00276
2.41993
2.79317
1.23626
2.41738
0.335637
3.13673
2.03541
2.87622
0.791276
2.10918
3.93299
2.89799
1.82532
1.8729
1.34306
0.810403
1.90727
1.31674
0.467889
0.450479
0.928489
4.34873
2.36083
1.31537
0.206499
1.48489
3.58898
0.765417
2.0423
0.705324
0.952695
2.01328
1.01628
1.54106
0.853382
0.771365
2.46371
0.894577
0.290768
1.21464
0.56761
0.989579
3.84518
1.92464
2.33409
2.67798
4.11048
2.01323
0.732089
0.797585
0.482524
4.01898
0.431095
2.34059
2.12393
1.57846
1.90947
3.36695
1.73437
1.36383
1.30401
3.70655
0.464339
2.27784
3.35634
1.36418
0.87132
3.9473
0.373959
1.22425
0.456477
3.54296
3.62768
0.760874
1.60266
0.911917
0.255155
3.74117
1.86377
0.533178
0.484224
2.9568
1.10186
1.65944
1.36782
1.43192
0.47602
0.428216
0.941236
1.6354
0.246663
1.7115
0.473671
1.53691
0.416014
0.647467
0.626922
1.88108
0.586998
0.578601
3.68658
0.34667
3.04687
0.444926
0.195278
1.0873
0.239809
3.44968
0.613933
0.543559
1.3192
0.374968
0.189909
1.2397
2.31149
0.46322
2.21617
3.46809
0.418045
0.212018
0.90617
3.37016
2.81636
1.19121
0.819835
0.194533
3.09479
1.01784
3.09465
0.390068
1.48405
3.4251
2.04861
0.978858
2.8925
2.59227
1.57408
1.4527
2.8724
3.74864
1.26128
1.73666
3.64525
1.8837
1.91267
1.78103
0.203769
2.10614
1.7365
2.34482
0.406142
3.1934
2.47721
1.08176
2.29592
0.352099
3.05062
3.96784
1.67903
3.81911
0.300989
0.783248
0.963569
0.522661
0.342518
1.38481
1.30939
1.87571
1.67337
0.642447
0.343868
1.8869
2.6077
2.93604
1.94124
0.487728
2.08689
2.0615
0.549285
1.47632
1.48208
3.77166
1.31662
1.71729
2.21888
2.00292
2.63191
1.23653
0.836311
0.55297
0.8716
2.30365
2.39443
1.33986
0.313035
2.39624
1.80434
1.60318
1.32989
1.90918
0.680715
3.02895
0.450172
1.55722
4.10432
2.95494
1.16071
2.57858
2.97761
2.28214
0.778435
1.22142
0.544271
2.92727
1.43261
0.510358
0.518485
1.03235
2.08497
3.49193
0.551603
0.844209
0.252617
0.242348
0.461637
2.37118
1.97832
1.12162
1.68283
1.82182
1.1613
1.63549
0.599321
2.12924
1.80505
0.872827
2.46512
1.83507
2.95469
0.937212
1.68158
0.711218
1.17099
2.14649
0.447927
0.58715
1.75914
1.73988
2.14474
1.09669
3.652
0.491995
0.962399
0.711615
0.275505
0.98271
1.20038
1.41837
3.41338
3.15329
0.674467
2.67889
1.32591
0.540072
3.28117
1.06797
1.59227
2.51534
1.43651
1.94983
2.37084
2.1085
1.17092
1.51161
0.813473
1.56001
1.95046
3.48196
3.81745
0.342891
1.60412
0.66613
0.63575
1.98378
2.15159
1.25874
3.19264
2.25505
0.477053
1.98226
0.737725
3.6418
1.56549
3.23933
0.92573
0.955941
0.88981
0.985268
0.958232
1.03624
0.940212
1.42909
1.5076
1.61005
1.45542
1.39755
1.36247
1.39925
1.41012
1.70889
1.10957
1.23699
1.77912
1.773
1.50063
1.64176
1.32617
1.30686
1.28589
0.856323
1.86923
0.231435
0.225805
2.12198
0.482773
0.50784
0.663485
0.410052
1.14238
3.26102
1.72638
3.67611
0.874403
0.503044
0.436578
1.60408
1.07021
2.10675
1.27476
2.02109
1.28961
1.15218
3.71344
2.39113
1.24596
0.668499
0.429277
0.294968
0.214758
0.28581
1.07237
1.49742
2.03551
2.85968
0.432103
0.800997
1.06866
0.643129
0.735949
0.631556
3.06903
0.918605
0.81532
1.26265
1.07488
1.08149
0.53392
2.04282
1.33982
1.73043
2.65421
1.5524
2.03643
0.609485
1.77651
2.83646
1.38607
3.67658
0.777163
1.16696
0.557261
1.59813
2.85378
0.225982
1.39989
2.08383
2.27312
0.32752
2.34368
2.46142
2.2971
1.18657
0.783575
1.47899
2.02215
0.683967
0.802603
0.45059
1.75288
2.69583
3.95217
0.578922
1.20491
3.48296
1.03328
3.1797
1.40738
0.546114
0.259502
1.43816
1.42976
2.95803
4.44047
1.66704
2.32164
0.32244
0.54416
2.62297
1.27335
2.62996
0.450667
0.86393
0.976916
0.863006
0.210005
1.37344
0.258101
0.763457
2.38766
0.392057
0.203489
1.80965
0.366264
2.43026
1.13271
1.1108
3.08764
0.993382
1.31131
2.98683
1.94576
2.50529
1.12539
0.794693
1.97816
1.29323
0.660561
0.99312
2.69897
1.54563
0.529786
0.599842
2.05876
1.32684
0.759951
1.74984
0.27114
1.56101
0.615533
0.645377
0.280151
0.575962
0.518443
0.809016
0.300674
0.884861
3.46502
0.603765
0.380686
0.626915
2.08339
0.647321
0.437207
1.22558
3.11236
0.894469
0.618812
0.434549
0.285173
0.484316
0.594589
0.46277
2.66093
1.01574
0.651433
0.413417
0.0858576
1.49914
2.23681
0.267613
0.499451
0.278307
0.669642
0.279565
0.277859
0.282212
0.554815
0.302025
0.261348
1.16039
0.255427
0.268775
0.262787
0.259179
0.685528
0.727907
0.246456
0.264701
0.283322
0.285114
0.821056
2.91476
1.93186
1.22432
1.1375
2.28585
3.39333
1.28964
1.18237
0.821795
2.31748
1.09656
0.813908
0.448172
2.56777
1.61806
3.46096
2.4481
0.202905
3.08791
1.08647
1.43152
0.637749
2.04057
1.81232
2.74621
0.694426
2.25739
1.54436
2.00601
0.793108
1.23691
0.275298
0.572686
0.915346
1.45458
1.38026
1.44826
1.57543
1.55652
0.538065
1.21731
1.65411
1.27266
2.02301
2.67364
3.46417
3.7013
0.481974
0.263255
1.21504
1.54908
1.39749
0.961425
0.794085
1.09711
1.17805
3.90276
0.762324
0.832561
2.98313
0.485174
0.42945
0.75884
1.48061
1.2796
3.29323
0.600193
1.77033
1.19549
0.804164
2.17907
3.67533
1.07246
2.84642
2.50536
0.764684
1.04805
1.91923
2.33443
0.684639
0.244431
2.64345
1.59763
2.21032
2.83386
3.42785
3.70962
0.911633
1.21939
1.70356
1.6348
1.55226
3.15308
1.10201
0.583024
1.14863
1.66571
0.631251
2.98975
1.60851
1.13602
1.28826
1.2186
0.59309
0.719243
0.744305
1.51857
0.510333
0.844816
1.16068
1.07687
1.23287
4.58279
0.271251
0.446418
0.949417
0.535846
0.533394
1.39113
0.635253
0.410832
0.259318
1.37927
0.818209
1.84865
3.59545
3.4821
0.46477
1.47559
0.27326
2.18517
1.05447
0.283525
1.7239
1.19208
2.71652
2.22567
1.68639
1.58549
1.1639
0.920067
0.262787
2.75957
0.551869
0.353745
1.42758
0.418823
3.01448
0.637502
1.68109
0.523133
2.97463
1.60964
0.15759
3.17521
0.633124
0.276691
3.41591
2.22159
1.1815
1.39333
1.04613
3.2472
1.02969
2.26227
0.651845
0.881379
1.31433
2.27124
1.7439
3.62077
3.7852
1.14398
1.71
1.80075
2.41812
0.258747
1.00673
1.3878
0.23097
3.42329
0.723052
1.64066
3.22408
0.932175
2.80549
1.32318
0.261802
1.25144
1.23734
0.39246
0.950944
0.566792
1.41559
1.483
4.50243
3.50833
1.76975
1.36018
0.286954
0.920791
0.998758
0.961147
1.9661
0.856751
1.80001
1.79523
3.09377
1.82308
1.42301
3.15096
0.263762
1.4151
2.84132
2.28278
0.606098
0.670202
0.30108
0.726749
0.509558
1.00813
1.19898
3.19522
0.333688
0.23441
1.14331
1.01803
1.62646
3.28997
2.57505
0.196297
1.83805
0.469248
0.266897
0.363792
0.446418
0.565765
4.23822
0.222066
3.31988
1.2931
1.58717
0.457742
0.329046
2.71299
0.327036
0.662519
1.32691
0.672969
2.55891
1.06856
2.14764
1.43321
1.18025
0.585822
0.861006
0.76917
0.918434
1.01725
2.35729
0.314392
1.57498
1.57255
1.11893
1.48129
1.33371
3.11304
0.812164
1.27889
0.572552
1.39853
2.88555
0.886854
0.372603
0.14759
0.251579
0.610029
2.17342
1.62818
1.60478
1.52638
1.31449
0.758789
3.01213
1.93704
1.77253
1.50068
0.895805
2.06955
3.29701
0.477935
1.1115
2.06602
0.662405
2.98959
1.0029
1.37133
2.72363
1.44925
2.24136
2.12948
1.88165
2.23551
0.252394
0.723958
0.58086
0.373765
1.1467
0.57723
1.66874
1.21927
1.68536
1.19743
2.82229
1.61138
2.6258
0.605401
3.07815
3.17339
0.949041
0.428907
2.94442
0.957206
0.775866
0.658546
1.54529
1.1099
2.7778
1.27522
0.868991
0.599905
0.295334
1.70316
1.76044
1.23917
0.857701
1.85396
1.23494
0.68392
1.43657
0.283113
0.603835
1.13301
1.17979
0.166886
0.275188
0.752285
0.271298
1.17459
1.40391
0.640485
0.360799
0.860138
2.0693
1.0535
0.921913
0.615093
1.20059
0.292525
0.273735
0.278949
0.497584
0.440263
0.306029
1.25527
0.282452
0.239021
1.52165
0.422292
0.987744
0.609666
0.762447
)
;

boundaryField
{
    frontAndBack
    {
        type            empty;
    }
    wallOuter
    {
        type            kqRWallFunction;
        value           nonuniform List<scalar> 
108
(
1.02927
1.32034
0.823181
0.185094
0.188979
0.34667
0.444926
0.195278
0.239809
0.374968
0.189909
0.46322
0.418045
0.212018
0.194533
0.203769
1.08176
0.522661
0.342518
0.313035
0.242348
1.12162
0.275505
0.540072
0.92573
0.955941
0.88981
0.985268
0.958232
1.03624
0.940212
1.42909
1.5076
1.61005
1.45542
1.39755
1.36247
1.39925
1.41012
1.70889
1.10957
1.23699
1.77912
1.773
1.50063
1.64176
1.32617
1.30686
1.28589
0.856323
0.225805
0.503044
1.24596
0.214758
1.07488
1.16696
0.557261
1.20491
0.86393
0.203489
0.993382
1.12539
0.794693
0.615533
0.575962
0.300674
0.647321
0.484316
0.594589
1.01574
0.0858576
0.0858576
0.267613
0.278307
0.277859
0.282212
1.16039
0.255427
0.268775
0.262787
0.259179
0.685528
0.727907
0.246456
0.264701
0.283322
0.285114
0.821056
1.18237
0.821795
0.202905
0.637749
0.793108
1.23691
0.762324
0.832561
1.19549
0.804164
0.818209
0.23097
0.998758
0.856751
0.23441
0.469248
0.222066
0.14759
0.251579
1.31449
)
;
    }
    inlet
    {
        type            fixedValue;
        value           nonuniform 0();
    }
    outlet
    {
        type            zeroGradient;
    }
    wallInner
    {
        type            kqRWallFunction;
        value           nonuniform List<scalar> 
126
(
0.697953
1.34182
0.377365
0.508719
1.10692
1.18551
0.517058
0.238662
0.451435
1.26069
0.174664
0.835773
0.25497
0.426899
0.915826
0.679694
0.2868
0.484775
0.278359
0.406847
1.19129
0.20109
1.05365
0.597324
0.481019
0.82679
1.16842
0.28215
0.319771
0.575719
0.319444
0.144195
1.09785
1.35588
1.00708
0.715383
0.241735
1.23877
0.386664
1.08177
0.914969
0.561269
0.199489
1.14626
1.05645
0.514997
0.481842
0.460114
0.324564
1.37118
0.573129
0.36131
1.18728
1.51993
1.07514
0.185765
0.624189
1.61231
1.34324
0.793714
0.344609
0.366505
0.642299
1.83906
0.602448
1.54302
1.31459
0.368304
0.861473
1.32895
1.34384
1.34805
0.672694
1.30916
1.17939
2.03856
0.506615
0.394303
0.321181
0.449796
0.412208
0.440672
1.74939
1.93736
1.83773
1.92464
1.60266
1.73666
0.63575
2.15159
1.31131
1.06856
0.76917
1.85396
0.68392
1.43657
0.283113
0.603835
1.13301
0.166886
0.275188
0.752285
0.271298
1.17459
1.40391
0.640485
0.360799
0.860138
2.0693
1.0535
0.921913
0.615093
1.20059
0.292525
0.273735
0.278949
0.497584
0.440263
0.306029
1.25527
0.282452
0.239021
1.52165
0.422292
0.987744
0.609666
)
;
    }
    procBoundary1to0
    {
        type            processor;
        value           nonuniform List<scalar> 
29
(
0.807438
0.807438
0.513681
0.757909
1.66393
1.01341
2.06101
0.461222
1.37488
0.743351
0.593765
1.01341
0.513681
0.537473
1.35925
0.564353
1.66393
1.74339
0.757909
0.701643
0.335071
0.233643
1.42574
0.292966
0.292966
1.42574
0.246795
0.88721
0.246795
)
;
    }
    procBoundary1to2
    {
        type            processor;
        value           uniform 0.73957;
    }
    procBoundary1to3
    {
        type            processor;
        value           nonuniform List<scalar> 
48
(
3.87545
2.42537
2.96341
2.96341
1.37566
2.00421
2.00421
0.343158
3.8776
0.4421
0.380332
0.4421
0.513628
0.654329
0.734273
0.513628
0.488696
0.488696
0.367851
0.367851
0.480749
0.40874
0.284913
0.684833
0.684833
0.211277
0.35566
0.35566
0.296576
1.07975
0.431494
0.296576
0.343158
3.29932
0.232542
1.07975
1.32734
0.380332
4.09181
1.08879
0.628882
2.51067
3.29932
0.232542
0.73849
0.768238
1.25964
0.628882
)
;
    }
}


// ************************************************************************* //
