/*--------------------------------*- C++ -*----------------------------------*\
| =========                 |                                                 |
| \\      /  F ield         | OpenFOAM: The Open Source CFD Toolbox           |
|  \\    /   O peration     | Version:  v1912                                 |
|   \\  /    A nd           | Website:  www.openfoam.com                      |
|    \\/     M anipulation  |                                                 |
\*---------------------------------------------------------------------------*/
FoamFile
{
    version     2.0;
    format      ascii;
    class       volScalarField;
    location    "0.89";
    object      epsilon;
}
// * * * * * * * * * * * * * * * * * * * * * * * * * * * * * * * * * * * * * //

dimensions      [0 2 -3 0 0 0 0];


internalField   nonuniform List<scalar> 
5794
(
0.351356
0.347406
4.22918
114.571
41.9106
0.929259
9.27154
1.91252
93.8261
0.256712
36.5813
5.00496
9.05326
38.9904
0.436613
1.10518
367.263
53.2084
0.411013
0.19073
61.1372
0.839663
28.0798
1.42015
14.8233
109.208
272.534
40.7221
95.0973
0.50735
5.18589
11.9334
21.5519
0.581614
1.63255
2.85032
4.42716
25.155
41.547
94.8508
24.6298
7.41588
9.35429
12.9866
0.394784
47.2674
23.8277
10.5476
0.21191
1.75712
7.40507
59.9314
0.680213
0.287244
0.0878271
43.1739
20.6039
15.8673
5.83543
229.373
59.346
0.299672
4.48248
14.6643
25.8426
0.334528
52.2282
27.4753
57.0681
0.261673
80.9659
59.8435
313.231
2.0418
57.4956
24.2861
3.2429
71.7376
11.4305
3.03731
0.57632
0.162892
12.9637
24.8182
13.0081
69.7369
32.9423
100.385
1.69545
32.8672
110.539
24.7096
65.886
110.902
36.5002
65.8358
82.4211
54.1881
22.3593
65.9607
50.6799
7.48326
7.35622
44.9498
7.59241
88.7238
0.21359
8.9006
43.9689
10.1839
0.531751
0.266735
54.755
0.574568
29.4569
85.6764
0.512634
81.4974
53.5171
22.1025
84.559
0.638974
5.70941
34.1218
0.28863
50.9028
61.414
1.16645
69.9018
11.0252
4.81472
8.99054
26.9766
59.1463
94.7125
0.438025
124.087
0.305203
3.21509
0.394379
1.07779
32.853
0.336002
37.7947
3.18821
304.332
56.8884
50.1453
28.9309
23.9379
12.2495
0.211915
91.1587
5.79958
299.956
42.1669
30.9607
16.6806
81.5897
16.1312
0.324289
1.71482
0.513724
2.94056
60.776
74.2631
4.02733
1.82634
0.479367
0.290766
0.501447
31.0064
2.46661
1.66675
0.855788
20.5142
0.465115
8.66026
0.921075
79.6162
2.83042
20.612
3.38158
48.7293
4.13468
313.581
10.0219
16.4565
0.236357
6.65887
46.4929
14.9125
28.0289
4.09681
13.6038
6.7657
4.31929
1.36174
0.430956
6.80333
14.2881
64.5005
6.77712
6.37217
29.0356
56.2462
4.24468
18.9961
158.812
45.8699
9.31231
10.2616
3.4055
1.82179
0.758467
5.14715
9.81368
34.1288
29.4675
77.8049
9.82381
31.9395
158.148
56.9954
147.765
163.583
7.74776
0.287787
0.267097
0.479301
1.57723
1.25669
0.475507
33.1207
26.268
193.612
216.975
33.7727
10.3741
0.785547
0.183597
56.4062
36.6911
37.2924
6.6332
1.09157
0.370785
26.086
147.903
84.9596
36.1097
0.352794
311.216
0.191423
4.95334
122.831
6.93654
18.453
14.7919
0.290834
79.8086
3.44004
1.88387
0.305533
21.4588
15.0256
31.8292
71.5669
0.284213
58.3957
29.5505
6.92454
16.1472
75.1045
16.3572
0.484361
0.269397
1.1392
0.118135
9.60104
3.37363
81.8722
25.1762
6.85863
70.3062
97.8794
39.0014
49.8021
145.948
86.3972
2.07786
1.27391
0.537466
0.223514
4.8298
117.281
28.0426
5.51298
54.1686
0.364801
0.193032
54.087
0.784742
41.8727
4.04745
75.0708
0.121118
50.003
65.538
33.7086
10.9547
43.3539
48.6399
0.584878
9.828
35.117
12.044
48.0511
46.4221
127.961
3.90799
5.66477
82.9138
39.4654
1.09446
17.8438
1.96867
5.5458
10.7313
34.1207
72.1654
8.62655
5.17517
22.5119
13.3032
0.29317
0.417416
0.503718
0.245902
11.0631
1.66481
13.6898
77.5426
29.577
0.5223
2.98773
76.3662
27.0705
84.5074
38.3198
59.6284
387.009
36.4599
17.6535
3.88379
256.418
0.50792
78.9014
10.7675
2.44265
14.9181
14.6875
98.24
8.93564
2.96269
2.55703
65.8459
56.2742
27.6084
15.5093
0.302705
0.387288
2.54112
2.17944
21.0926
50.335
41.4825
21.4598
27.3414
0.1425
1.86754
0.296099
12.5105
2.71533
1.52327
0.546883
94.7634
4.65307
1.65155
4.81998
1.71988
62.8799
0.198801
2.84966
1.61475
1.21127
0.660627
1.94729
0.364217
22.0178
1.15451
9.27775
166.672
1.20441
0.710843
43.7754
10.4798
1.0222
0.217424
79.9109
50.9949
20.3956
32.4791
28.5284
75.1523
39.7289
4.35741
66.2932
54.7841
81.2366
22.4462
52.9049
14.2124
0.314173
3.0725
1.85514
0.776508
0.537791
0.199845
0.431779
60.1543
5.76482
34.5946
79.9083
0.388045
0.51036
7.6408
19.6732
2.63683
1.51733
0.517476
8.11833
5.12736
3.50552
1.25655
94.0853
31.9684
2.36231
0.495472
54.0784
0.478437
0.23973
87.8216
0.661361
70.0511
0.294451
75.2735
70.1108
42.0697
164.872
0.726563
0.321964
15.514
1.34812
73.7851
11.0188
158.642
69.4566
17.5406
7.79932
0.371837
198.525
50.3996
0.230274
0.242216
95.506
193.279
48.275
3.54846
0.302582
38.0916
0.703631
0.297737
0.231673
14.0341
33.0142
10.1571
1.56456
254.13
0.465231
0.225456
98.5709
89.9707
36.8592
9.90388
0.403
0.442263
0.292799
2.07289
38.8042
85.9339
194.929
8.69497
9.33451
40.0532
0.315431
0.786127
31.2123
39.0999
0.383602
63.9257
0.127665
2.35986
0.244843
0.536064
25.5046
74.9803
0.226908
5.54718
170.596
1.31236
0.217404
55.0508
79.7662
11.6082
0.298755
6.56656
46.7734
0.256509
0.984602
21.8999
0.625118
157.852
0.256786
0.779083
0.942342
6.61206
160.386
10.37
65.155
0.604727
96.2644
0.194203
46.4413
2.99585
0.970034
5.50001
37.2967
0.491934
1.13432
45.066
0.180148
0.56792
4.69372
0.790853
0.615622
19.3233
1.02751
0.254427
28.7547
476.766
0.589717
58.0245
0.186972
43.0507
1.89176
0.816702
19.7299
0.9855
0.374989
83.4672
26.9366
129.445
96.7576
138.166
8.93485
71.8609
63.6806
7.82585
27.8902
81.6274
26.5234
104.035
192.207
82.109
54.8656
0.478376
60.9803
20.9502
89.669
0.389366
0.78193
0.324318
93.145
29.6454
39.7837
0.138316
9.33495
0.229978
0.632036
0.206912
95.8738
29.8586
103.921
0.292969
8.43814
151.969
0.365071
0.0989658
9.9623
83.5861
119.893
37.8055
2.21614
2.27339
3.23145
35.0994
29.9572
7.51936
76.3377
0.28725
42.6304
61.1837
12.8764
0.257337
0.378248
2.11884
33.8097
73.7165
0.471674
0.437155
0.16406
0.216168
1.55376
0.201337
0.27207
77.4397
26.4146
0.373853
42.7514
3.72046
8.82627
27.9809
22.8339
126.846
129.937
42.5165
48.3691
0.235989
0.22849
0.956677
5.88826
0.257338
2.99741
2.61131
77.3763
198.043
39.3728
189.879
4.42834
0.151919
0.351387
0.680354
62.5335
0.285895
46.6634
147.753
101.218
40.4869
47.8682
35.6563
2.41267
182.782
37.0238
26.1475
32.9767
115.558
2.90102
38.3246
1.74199
0.297675
24.4162
0.321591
1.3165
28.729
138.729
118.997
0.271231
0.124419
0.213574
40.3398
173.68
67.4943
41.999
0.232378
42.9275
17.5735
0.195258
0.901247
9.82984
0.273243
10.1114
0.611595
18.9454
28.0215
159.676
72.2341
0.239355
0.265913
112.089
21.3935
186.826
45.2999
75.428
41.0509
16.2209
8.75638
254.75
47.0997
29.3253
42.8549
101.444
159.568
0.327333
103.417
3.49616
14.8365
28.2468
92.7838
38.5031
42.2063
41.5657
128.915
28.0339
0.228187
1.70798
311.697
11.4658
23.6455
61.1017
96.8174
0.407492
0.796538
0.330577
3.34687
86.9627
37.1954
129.733
1.58038
8.9901
0.492042
4.37041
0.336008
0.267577
28.0959
94.9921
5.09637
115.809
37.7411
8.55252
1.86009
193.745
78.9757
42.9392
146.792
99.8008
39.0641
54.5326
8.49538
56.3333
20.3404
85.5479
24.1064
0.250712
1.12923
0.406051
0.254783
4.04516
41.558
1.02467
22.5482
220.829
11.7585
0.894518
0.301412
82.8514
30.4731
21.5978
87.2428
28.353
3.00163
81.0734
58.8237
37.7683
3.54275
34.846
0.247147
132.921
0.514588
80.8165
9.62152
13.0314
1.98054
0.488331
0.382509
0.203104
21.5817
42.3242
82.3652
188.166
44.5509
1.10322
7.06694
33.872
140.138
0.673019
9.73893
14.3925
71.6223
0.244095
0.971555
18.3931
49.2991
160.603
0.491964
17.4417
0.167054
0.220252
0.24147
21.7302
66.0132
82.7811
9.3316
0.256286
70.7355
0.22168
4.48139
306.289
0.631531
0.168109
3.34022
0.188559
20.7624
3.36587
25.4869
0.478384
1.22714
6.04105
10.7437
169.18
32.1354
112.083
41.9251
51.552
70.3081
39.1864
164.975
31.944
0.532854
0.300788
5.11173
28.8754
6.07053
0.358091
200.31
50.5643
89.5
16.9371
0.306188
55.2256
3.59831
14.141
53.1325
0.954444
230.558
0.146893
0.282282
55.6483
16.8246
6.36777
5.81458
54.3851
10.6463
6.92681
0.317399
0.262024
49.5267
71.4504
9.61508
10.089
34.3467
1.0934
38.7517
133.825
74.5715
84.4099
32.2459
0.409433
0.191036
16.4151
0.472139
0.216474
0.199249
1.44358
25.1434
0.272745
7.36418
0.48385
101.705
50.3439
11.2981
8.09756
8.07343
15.9037
185.495
25.5753
74.5847
6.29922
0.406316
175.911
11.9587
39.4933
7.35638
114.565
55.02
61.1823
1.63342
122.889
91.3788
2.79016
1.33299
0.667004
1.19765
0.438786
72.7875
45.0365
78.2165
79.5933
22.4316
52.5025
26.4167
12.4042
0.230585
1.01444
13.0663
0.436514
145.812
21.4917
163.945
6.95356
74.5541
64.2753
0.286879
0.560804
145.205
180.364
10.0443
9.3797
23.0033
65.0532
0.235477
42.8887
0.353683
3.39893
2.22014
0.294218
0.289114
0.261113
0.820847
0.386487
0.196805
0.462037
7.96695
57.6526
5.35718
0.13694
0.487539
76.5043
9.71927
26.674
1.43299
32.6818
0.308306
39.3061
4.76562
0.964501
0.721658
11.2065
43.8692
0.515124
9.99685
0.510936
0.767151
9.23161
63.7541
21.5106
103.709
145.278
0.319314
11.0607
29.019
39.1109
26.7275
29.0472
44.0161
100.839
0.524211
5.48269
0.453793
0.446446
18.8435
11.6947
171.278
157.509
111.676
0.114428
23.2206
137.056
63.0436
56.8815
50.6311
0.228418
0.805199
0.285793
39.5114
11.0312
38.5096
4.5589
4.65061
4.40875
4.82112
10.0834
13.9034
0.24331
0.772041
24.2794
32.2198
12.1301
0.203902
8.20339
49.688
0.376469
0.229352
0.264637
0.762114
13.2088
0.413363
25.9755
0.286666
10.3645
17.1089
0.440775
54.8566
10.2412
0.302935
5.70492
76.7358
0.24563
65.6022
1.84232
1.03147
0.259935
2.46362
0.15464
0.361998
10.3684
0.473466
0.140377
0.616547
1.49326
2.38413
58.9351
27.374
8.92066
100.792
31.6148
0.157721
0.351551
89.2672
6.60049
20.615
85.0554
0.21209
19.5537
0.626986
68.9651
0.141899
55.7623
0.135567
94.4338
45.1466
0.354549
36.1454
0.683789
5.75321
0.885838
2.96764
30.6727
33.8425
0.572429
38.0373
0.172529
0.444788
5.34395
0.300046
0.892915
45.6596
1.37676
19.3296
0.301664
96.4535
0.144613
1.06978
0.22769
4.5011
51.177
18.2013
1.12456
28.6984
7.54017
16.2489
112.915
39.1057
0.297297
3.7056
52.1517
12.5808
20.3628
6.92708
56.1075
78.219
64.4597
23.169
63.1558
8.75401
8.66944
0.222669
1.55673
2.88521
0.315709
735.891
40.3059
0.298103
1.07519
55.2236
51.3579
8.65607
0.321944
6.24315
23.0968
1.41594
0.470383
52.3166
1.99837
28.4186
8.28875
92.0458
0.203291
0.704339
0.669319
4.42863
5.00833
31.6623
0.273532
46.2093
0.718849
99.3893
6.67046
8.52689
4.35385
23.1085
9.25151
17.7904
11.4928
4.5029
0.611757
1.03944
34.9373
10.435
5.55349
0.157307
0.38506
19.9282
38.8199
23.1469
1.47484
9.10367
7.50493
1.30598
7.44372
7.28732
11.9509
12.183
11.1121
27.203
0.208202
60.1169
0.301067
293.148
0.286471
0.126939
0.287009
1.00545
0.227219
46.3839
0.248
6.43192
0.746001
3.82018
38.0974
223.579
89.2313
0.132572
0.408704
2.39221
4.44472
56.9883
18.6896
1.80568
8.61768
0.257328
58.2281
3.50508
17.7068
33.6098
5.81623
8.26017
34.7587
0.384454
0.516488
32.0671
83.3846
32.2244
11.155
6.6446
11.1422
0.222544
59.0487
183.768
39.1432
100.637
0.293035
0.56341
38.1941
9.98769
6.55786
0.175964
13.0845
40.4717
1.24894
0.614605
3.69458
0.792354
0.298427
2.75978
2.10728
32.5602
0.437421
9.33131
31.6553
121.844
76.3203
0.856834
31.3313
4.42799
77.5253
1.49556
49.9701
109.847
27.8485
59.4764
1.27435
35.0822
34.6294
171.16
1.42416
0.24484
0.214184
75.5147
1.21639
0.682533
42.1111
12.7844
0.884981
21.1101
8.85139
1.91911
37.8562
0.890912
0.271705
7.39524
2.26775
0.234718
0.843095
79.3895
9.35927
49.7882
43.3482
41.4108
0.276171
105.852
1.20732
32.5705
11.0367
5.37059
3.43457
0.458063
35.3402
0.364136
0.30177
0.174514
55.5595
0.133008
5.60242
25.3416
178.231
0.556025
138.402
151.618
1.08183
8.84624
0.326574
16.6481
5.49365
60.4074
77.6132
1.25196
0.902959
17.1569
28.5964
36.8956
169.248
78.9718
114.886
74.5846
16.7625
1.03766
0.324199
16.5911
0.326905
83.9176
0.149693
0.513774
0.188496
16.7909
3.83241
1.27246
0.342742
1.86557
3.30631
0.721232
0.232042
0.361741
7.60557
2.70155
33.6542
13.961
0.510017
144.127
31.2929
57.9554
18.3776
0.286335
46.0013
0.282698
0.596476
0.267114
0.603288
581.802
11.3844
45.5037
20.005
75.0575
100.307
18.0959
0.218437
0.204784
0.732435
0.666258
1.8849
1.35332
2.56002
0.885124
1.81754
3.10131
2.08088
0.857792
1.0189
0.45384
0.511886
2.07355
1.87064
2.05354
1.0281
0.7667
1.14053
0.339165
0.592641
0.117899
6.9392
1.23653
0.667508
0.409976
2.74023
0.425465
0.977663
0.781571
0.412446
0.488692
0.509748
0.219538
1.5549
0.33398
0.709279
4.46389
0.400417
0.316871
0.70425
1.17501
6.5708
10.7588
207.622
0.187143
3.95594
36.1975
93.4295
37.8846
0.202517
0.303422
16.1218
0.190456
18.0584
72.057
356.521
62.1188
103.69
25.4914
0.137568
0.140745
0.635247
0.253677
0.7448
18.7057
1.47006
3.34593
0.620412
3.41973
19.1824
17.1965
1.08059
15.2867
9.43822
433.495
0.309673
3.95105
1.54775
13.2885
55.2222
0.971846
58.5248
39.5737
31.1468
26.6137
8.34971
20.7976
7.92137
11.4954
13.9057
752.835
0.260385
1.30428
0.669966
44.7577
41.9786
0.324625
69.588
50.8996
0.7763
1.72635
3.04439
0.844863
0.421839
1.91373
2.50707
0.345314
0.367629
3.5337
1.07221
0.734005
0.217302
1.14032
0.379853
0.91762
0.978393
0.558961
1.8929
0.410839
0.317618
0.250879
0.637456
41.3907
63.8222
6.70715
21.497
3.29858
13.9162
35.1336
0.24682
62.3627
37.8913
3.9464
41.9695
44.3536
1.59509
0.279054
44.6164
39.6011
0.238059
186.133
93.558
36.7713
0.189369
56.4599
31.4337
0.302644
58.6945
13.0929
62.9132
0.903877
3.7132
1.0481
62.2813
0.25087
40.8982
59.4959
1.59572
116.444
0.511444
78.0395
0.25544
0.860112
0.171504
67.1004
0.190908
0.225928
2.36634
0.252998
110.204
10.7396
88.6264
19.9077
5.80826
6.3892
141.63
0.521205
9.12089
8.08114
67.2101
41.2116
0.834754
0.288262
14.2551
6.78105
54.1261
10.2528
0.252181
3.24707
1.31005
8.25772
0.360771
40.1467
28.2012
0.124033
0.291171
87.0036
97.0221
12.2578
6.94399
70.3904
2.02844
53.1891
70.4632
39.4478
52.403
35.1887
0.269068
45.0284
0.254689
0.859867
0.246157
48.2226
7.82959
6.29198
7.11441
45.6423
38.118
0.309826
0.501164
0.360672
14.6011
39.1395
51.8158
189.636
54.5727
41.3806
41.073
11.4915
27.6879
26.7164
65.1422
27.1517
49.9397
39.7927
51.4017
35.0626
113.439
106.782
2.36345
62.6048
31.3214
20.057
13.35
9.32994
91.5196
42.6569
7.55521
52.9804
27.2728
109.807
2.55878
5.22811
249.592
6.96816
63.7138
14.7239
0.458815
0.215327
0.635807
58.1781
0.259769
0.691018
0.854639
60.4578
65.7442
51.7799
41.2288
71.1273
59.4977
72.1031
0.313088
72.5258
67.6012
65.5339
48.2013
63.2983
45.4638
69.5483
63.2164
67.7331
16.5818
14.6531
8.03364
164.645
8.93033
4.04551
2.43416
4.07354
0.385466
0.504558
14.3064
29.0451
5.35355
0.32219
0.497079
36.0721
27.5225
16.7892
5.28608
3.60749
4.04558
2.01714
1.37489
6.04399
1.63409
107.908
1.18782
8.52596
2.05758
2.26381
0.285121
13.3033
0.325461
9.94133
1.83037
0.302904
13.9084
2.68789
1.31978
2.21598
1.36579
0.480389
69.7298
0.460365
31.778
15.542
5.87564
47.6706
101.501
0.466311
84.9257
29.5757
16.1268
123.782
0.437663
0.414868
111.614
25.593
98.4083
0.482789
8.41398
123.372
109.76
73.9467
0.424346
0.454153
0.408055
19.0798
6.2849
263.431
0.47139
10.4659
3.64692
0.478416
16.6754
0.468136
5.24952
50.6355
33.0681
11.492
252.814
81.0498
0.378801
83.2259
0.51664
3.45349
10.3373
0.557665
129.693
7.22743
246.509
6.23084
2.38797
0.527843
56.6313
239.268
0.324663
100.838
43.2746
10.2056
4.42568
2.17305
0.311913
4.70325
53.9828
26.3747
53.4556
167.71
155.778
1.81204
7.75479
7.57943
88.983
4.0516
0.627596
1.69082
220.292
0.208987
0.67794
0.574581
32.1889
6.94927
10.9288
1.54429
6.71483
4.91943
0.538209
3.45726
34.0063
1.1426
1.45658
3.69373
4.88898
0.585353
2.81735
1.4864
0.375956
132.302
2.86309
2.17037
4.55425
3.80206
1.09604
6.12808
6.66213
3.45651
0.225177
3.81011
23.6236
48.1818
3.6242
6.32368
1.81009
8.1267
3.84554
4.00468
1.42971
4.6098
3.9969
4.23358
1.62711
10.0258
5.36144
172.724
2.43039
6.41258
4.90386
4.94281
5.39881
4.07108
16.2901
1.38277
4.55056
5.90128
4.32529
4.53235
7.29184
6.20948
14.2577
1.54744
2.66423
4.39188
0.757215
1.15456
5.64178
3.56544
2.93747
3.79736
2.11169
4.12842
13.4863
4.5915
4.90244
3.99853
0.485046
0.712003
0.237084
6.46743
24.4232
4.21474
53.1961
12.2079
3.56878
3.79336
4.56769
2.34605
27.9141
50.2432
8.35602
2.33334
6.51663
3.56965
2.42541
0.720336
4.57104
9.71034
4.32803
7.57951
188.057
26.2123
1.00964
10.8285
12.8748
1.42277
0.733983
0.262695
0.447165
33.7432
7.19254
1.92911
5.01463
5.21242
0.74036
0.271629
0.445669
60.4286
26.946
3.82717
34.0356
80.2792
6.46199
1.74278
6.61057
194.95
11.1952
0.675268
4.25555
18.3121
13.6022
3.88048
34.0761
23.201
9.39116
30.3405
11.9077
0.674462
0.225972
0.400086
23.9459
10.117
35.7117
29.9652
79.3438
1.43785
189.796
161.116
1.4669
6.0938
8.37098
3.99144
11.8255
5.31327
8.72241
7.71896
13.3499
11.5504
5.6974
49.0555
31.5948
52.6242
2.36491
45.6657
5.65469
1.6945
39.9942
0.239416
0.234798
30.405
9.16785
5.29375
27.8877
0.580148
6.65652
6.70721
19.7255
21.8159
8.11153
0.668464
0.222474
0.455144
39.5975
52.0109
2.24956
29.1923
62.5019
57.0583
79.3803
4.72653
1.82745
1.41811
1.36004
1.65163
169.468
1.31905
48.0843
54.5721
4.82039
10.6517
117.556
0.572788
0.964423
10.7916
13.5285
16.2953
6.05089
48.2646
52.0059
12.8771
34.8258
36.3881
0.244948
4.3705
2.18808
0.629157
0.562782
2.03428
10.19
8.02464
14.4426
0.547533
0.18886
0.44795
97.3076
88.5364
0.233579
0.351646
107.406
79.7103
23.0573
0.261023
62.8519
4.01564
2.80689
1.337
1.88295
184.328
1.19627
0.282403
0.239162
125.47
75.4416
94.4621
1.14796
90.1548
83.1354
29.0752
9.67279
18.0129
22.8665
11.3717
3.38217
2.73496
3.87526
4.02493
32.8584
27.9496
1.07616
0.724518
23.6906
41.8685
39.9563
77.7194
49.5937
26.0154
3.9352
42.6636
2.85903
3.81102
128.001
53.798
70.6098
91.7927
53.6803
24.9409
15.6267
14.3674
7.85954
1.10445
3.8522
0.555853
0.185755
0.452478
1.61071
1.85976
1.3919
83.5115
85.2456
14.0392
66.1652
5.4889
6.05916
4.8929
1.77932
99.1159
26.336
80.9278
22.3948
1.22232
6.27361
71.764
13.9737
11.3196
0.181734
66.6711
4.45085
5.26236
1.94067
34.6275
69.7171
4.69307
3.86645
24.6441
111.564
1.52217
0.902018
0.229689
1.68881
1.12707
1.06432
59.6018
0.965284
0.366519
0.500182
26.3009
1.50752
1.81831
68.2389
0.254723
163.234
3.09051
2.81507
3.60161
35.2419
172.031
15.6534
3.12332
4.43215
77.5093
50.296
0.2067
1.84761
0.92278
4.03859
12.3089
2.15625
0.564383
10.9949
6.79889
0.17773
1.14277
4.27839
0.90859
10.0249
4.59455
2.85642
4.13719
1.70563
19.9521
33.9739
4.31893
30.4134
17.0051
2.23881
3.35169
51.4405
3.56194
71.5885
44.6599
6.0442
41.6963
16.0257
133.031
27.5408
53.5857
3.07482
86.782
6.20291
18.3933
2.46685
1.38408
59.0446
6.43226
9.66086
5.74032
15.7014
7.88277
5.34191
64.4976
20.3747
56.9047
22.584
4.99816
4.05257
0.448927
0.17915
0.435903
33.3183
143.196
18.5392
1.06667
0.361056
99.1556
9.24315
200.314
117.156
54.0469
71.8774
40.9125
0.623917
31.4595
2.03634
4.2352
38.9764
54.3913
0.305712
9.67466
34.552
37.3178
75.348
0.584511
15.3715
63.0992
49.6522
6.24055
0.481415
51.6503
100.099
9.16213
21.5775
83.7076
93.2027
24.6913
0.262098
4.3615
30.0416
21.6717
0.228744
31.0579
25.0149
32.2392
4.44042
23.9977
25.7155
120.915
4.77751
2.11364
0.185099
0.400207
31.7295
146.324
73.5302
84.8483
68.0073
313.166
0.730898
4.66862
6.35795
51.6028
3.8271
183.376
39.1015
0.615334
0.773881
1.84797
0.242954
0.270107
67.2337
73.327
61.2003
41.9414
170.887
58.1648
7.2653
17.5454
94.6327
115.618
34.0336
531.152
4.96035
0.239869
35.9923
95.7907
25.7006
23.4152
42.0188
7.31572
0.296844
38.7372
0.230726
0.48203
28.956
0.520481
10.4405
0.505375
63.1409
3.33328
47.3108
6.83877
9.99992
15.347
23.0558
35.7904
60.8256
0.486477
131.525
3.21194
3.22544
0.218818
0.456067
3.57234
78.6657
48.2139
101.963
1.47647
88.052
130.939
0.960109
26.4871
2.80253
3.9899
2.04725
2.11404
90.6493
51.2684
3.7106
3.22988
60.292
15.3888
18.0011
60.667
1.09528
17.4049
5.62761
109.419
5.03054
34.8791
0.322544
0.242605
12.8625
90.5425
12.9876
57.3381
72.3046
2.54596
2.34881
39.9568
3.95046
0.69406
100.949
0.492359
0.263009
165.034
11.3842
75.401
1.18667
50.1135
61.1069
0.348979
7.63103
18.0866
59.2003
54.2113
2.96254
23.5916
48.9036
48.6019
13.7242
10.1103
8.91029
2.37093
0.206731
0.411542
65.0745
31.2853
6.41803
2.56984
98.8937
8.73897
44.763
28.0252
1.24136
5.1123
59.2869
85.1221
0.357013
0.144829
0.493981
45.0032
26.3595
50.8776
4.99838
3.38571
52.8067
72.9992
0.231941
36.6568
132.926
76.249
27.1586
73.2878
0.91957
24.6546
84.3333
0.432684
0.184605
0.437645
20.9841
0.328247
6.45212
57.0623
0.251962
37.0143
16.9175
5.60473
6.06964
254.686
8.52433
25.4092
0.271504
31.8831
67.7257
33.8098
6.0826
0.365637
0.187823
0.405413
42.4492
14.1845
16.4259
81.1543
15.3465
30.1214
207.094
48.6191
59.3545
0.542891
62.017
2.91389
0.675854
51.8953
27.9757
3.50509
0.683697
1.85435
23.7713
38.8905
0.871339
0.377892
42.0772
84.7505
5.28964
16.7984
8.56531
89.6794
182.011
165.218
0.257375
14.7656
66.9293
121.395
23.8343
52.0127
5.10772
23.8165
22.656
66.0396
14.1707
37.2377
3.21756
12.4892
0.191316
32.3596
3.9038
0.327572
37.1416
2.31837
6.14714
111.085
32.1883
0.26708
1.21337
44.1549
39.7083
52.5935
27.648
3.79969
2.22882
0.203719
0.355905
0.262763
1.00789
97.5929
0.521056
24.9804
60.0789
3.4626
0.288329
3.83619
9.11355
103.144
0.259848
0.250872
0.381813
2.27783
29.3458
2.0732
3.62591
0.149753
0.238862
0.541949
0.560003
4.38447
2.14417
5.91477
23.95
19.9836
1.32339
30.7206
7.88027
18.1065
2.12536
0.874235
0.295905
0.535064
0.301488
44.584
0.276858
49.2826
70.0596
39.2658
59.5528
0.265977
6.35248
1.02806
217.871
2.6861
4.61453
0.334672
0.211003
0.405647
4.8362
0.551568
71.4996
225.288
0.259802
4.36891
0.412872
3.6547
2.48369
24.4821
0.198293
59.9163
19.9098
44.4043
73.7972
0.724104
2.42611
6.87085
93.0033
3.79927
64.7952
8.5072
29.484
0.521276
6.81865
0.61639
5.38285
4.85217
22.9026
25.6947
1.09742
0.303127
4.32426
0.965731
1.35283
32.7702
52.9359
44.2743
49.0511
47.3234
16.6934
32.4909
6.83246
76.2896
5.547
21.9671
0.310079
42.7568
63.0072
90.154
11.9955
0.46723
2.33402
0.781857
0.333568
2.04281
7.48662
1.5066
5.07371
95.2463
0.213093
2.34828
58.0812
8.07309
30.7122
23.0737
34.1694
72.1363
4.47305
4.20697
2.42488
7.2354
11.8066
1.96634
1.38631
31.7298
0.277793
5.03271
3.71923
0.30635
17.751
0.405807
0.572358
0.328076
0.190082
0.333701
0.584069
2.98376
3.68768
8.69481
0.467258
0.186252
0.561812
57.5769
48.0378
13.6836
9.37521
2.54426
3.7132
4.69765
78.0918
48.1933
41.5291
313.547
9.5737
74.0326
90.0676
127.679
29.1601
0.297407
0.351595
0.188274
0.275196
0.345117
7.6507
31.257
82.1866
0.332949
0.655535
2.60777
24.4393
11.5584
64.878
0.125067
1.68348
58.6559
11.7579
25.0265
20.4206
0.805505
0.226549
23.342
21.0069
106.266
1.14142
14.3994
132.314
1.80693
36.5396
51.6167
0.922426
0.944957
10.603
0.98754
0.289537
2.70576
0.346682
0.994017
1.72808
1.40359
4.05313
0.393414
2.97862
195.751
59.8435
0.290066
0.182881
0.318516
29.4461
14.8066
0.472291
29.2812
37.3199
0.331595
65.2162
23.9284
36.8865
105.088
232.83
59.7159
28.6965
0.312137
16.927
49.836
26.3969
3.95705
0.542913
91.0596
0.271064
78.6728
4.30391
0.263691
11.1896
139.077
48.4338
0.281542
2.55952
33.7088
3.28647
6.59664
0.384663
4.37729
1.91338
118.633
3.62268
37.4149
0.276328
0.24064
0.372441
0.692699
0.308686
0.358956
53.8863
0.277597
47.526
101.451
5.43195
9.74714
189.727
8.10966
5.14806
175.04
17.2522
14.4068
194.226
6.11494
137.195
0.30584
0.201284
0.379879
60.3553
4.17627
0.243489
0.562812
0.243641
0.25891
30.3568
92.3443
29.4776
4.59296
14.2998
94.6465
30.0797
27.9674
8.7286
7.40215
13.9287
107.448
38.5307
167.897
28.8775
0.301248
3.04955
0.33843
36.533
0.948543
55.7794
44.4114
17.6098
6.36092
4.86126
34.9674
0.979383
0.199214
0.459063
0.43184
0.2723
9.38503
5.80609
27.9295
4.64103
13.4135
50.7271
50.3921
25.1492
285.603
17.2406
0.437388
0.379565
0.415391
65.5657
4.04124
23.4167
5.4661
0.243333
2.93061
107.992
56.9878
5.52276
6.65117
28.2501
54.4422
1.42483
0.224286
0.207323
23.8913
295.042
4.03608
19.2717
35.7891
51.1252
21.2173
9.61806
5.3278
28.8051
72.618
23.325
0.238392
6.01638
0.0835416
46.851
0.0734265
26.2658
290.142
12.325
5.36594
47.3532
0.469973
5.10245
14.0186
0.107697
29.9241
0.64844
0.0767541
9.7741
19.1077
84.4663
38.5007
5.53048
1.12299
0.486969
0.554603
0.143379
0.114602
0.342307
1.83752
28.377
61.215
28.2021
13.3156
7.03542
73.5828
60.7977
10.0258
1.91938
0.96022
4.24439
151.478
98.3889
43.5462
3.16874
0.455262
82.2026
1.26516
18.2492
7.66646
48.3874
5.51235
117.648
15.6842
25.8967
8.20048
75.7398
293.564
0.188778
37.4317
0.480443
3.09124
50.6234
7.07028
0.502205
0.15162
0.239278
0.297856
1.15176
103.368
25.7393
11.5258
189.059
15.2933
5.34972
61.4054
41.7405
13.0289
116.785
0.410631
18.5699
0.263667
15.9904
62.6009
0.372695
19.5066
49.1672
7.71095
29.5729
0.366652
1.07203
40.1764
155.187
51.913
75.9341
22.218
311.184
0.319458
27.9756
55.1988
5.3469
114.842
20.436
117.281
22.7918
9.48568
239.884
42.4089
38.0441
0.257823
0.192707
0.306968
52.5016
3.55861
4.33946
0.572582
28.7317
31.4409
0.438338
0.476796
4.30152
14.2279
77.0281
3.32636
0.654876
13.0553
46.0157
29.1386
18.2887
0.470046
111.969
21.6651
2.76317
54.4537
63.2791
0.289686
47.4242
27.8798
63.4902
34.0703
34.4339
4.69239
0.311998
0.315357
0.396508
0.182376
0.539443
7.83768
9.87144
66.5354
28.0777
17.2017
135.821
33.4337
46.1515
2.52422
7.24545
38.507
1.55459
15.9498
6.62242
67.9974
130.039
89.4757
31.7707
73.13
4.15625
39.3429
42.7482
8.31164
0.19169
0.768177
95.1731
29.8353
1.11623
72.6076
90.0421
0.273017
49.5358
24.0503
75.958
157.684
73.2089
0.130512
65.0745
0.236348
0.322522
0.382323
58.0144
43.6155
68.7936
0.480707
4.50717
101.725
7.70428
0.366454
15.5674
52.4229
37.7696
72.0335
156.479
55.8339
0.702705
0.333804
38.9857
35.1016
199.564
110.661
156.898
1.87804
0.854413
107.533
88.2534
0.339909
0.150381
0.265229
0.243276
1.66346
0.736015
102.672
13.0673
2.16166
18.2857
24.1235
7.55868
65.3531
112.817
66.4428
5.19113
33.2277
3.10689
43.1726
13.8838
6.00557
133.397
129.516
40.3144
76.8489
350.039
299.525
0.744545
1.06478
149.067
81.0437
0.475725
0.22817
0.293372
1.24718
39.4203
118.031
54.9257
12.9814
0.301451
85.5893
0.218658
0.501027
0.405127
3.79791
0.772049
57.328
132.859
49.3213
4.30668
113.498
0.371566
5.94342
92.047
39.377
55.4833
27.9657
7.99161
95.977
66.2962
0.346934
4.30815
2.30289
5.32458
4.30897
18.197
81.5872
32.8817
35.9562
26.4101
17.4348
19.7597
22.977
0.903353
0.332405
48.6034
3.97276
13.9624
389.644
10.3416
85.6738
62.0417
0.329671
0.299367
0.359532
0.24609
58.4056
65.1614
67.4547
0.841031
16.7356
5.87673
1.88446
9.92077
37.873
6.07843
5.52502
4.90639
0.236131
0.918394
0.209827
0.429944
117.08
42.7075
1.23532
56.9475
378.144
113.537
136.261
42.8449
0.412391
40.3116
5.45888
3.76936
52.2593
160.378
0.35914
0.403835
0.188528
52.5541
19.7954
90.1966
1.69979
1.66951
44.1003
14.1771
0.197873
0.389183
1.04127
1.40246
8.55751
108.093
31.2285
6.10684
92.8269
38.2341
59.8015
69.2744
4.67754
62.1157
2.9465
18.374
54.2372
33.9155
28.6599
0.34757
0.33037
44.7867
1.19997
1.21866
0.413454
79.3338
31.1973
37.1444
0.828209
40.4919
0.89246
46.6153
35.1068
27.8211
31.8704
33.7047
57.7604
27.9718
1.02807
42.9509
35.3431
0.434926
4.24639
0.463835
3.13844
3.82953
17.1871
43.6628
0.532941
2.01258
104.945
1.41016
44.0837
0.255084
0.259697
144.735
170.217
0.224518
0.444928
0.332151
1.79949
4.06731
0.266622
0.79208
0.471538
0.754091
0.453936
0.335347
46.0908
0.833339
0.267427
28.2325
42.4319
1.27083
30.4846
0.660099
1.36705
38.8172
77.7771
26.3859
0.282371
38.483
121.01
71.3875
69.3457
11.4982
0.504556
0.250092
0.412679
41.1045
136.534
26.7105
4.36682
8.60983
8.40996
0.234022
1.87685
5.81446
60.0549
4.37411
59.671
0.203764
8.5485
113.774
36.5299
2.98732
34.6961
0.250846
92.7692
40.404
35.5417
0.244335
0.811245
0.253729
0.255469
6.95024
16.4098
1.97615
41.3467
24.6463
116.999
18.8839
9.16724
0.591929
4.17916
0.619211
88.5423
30.255
34.2272
2.32855
91.3488
5.45835
21.0343
39.206
0.257069
0.285297
11.5347
87.6678
75.0857
38.3482
52.5986
35.3441
50.6948
2.346
4.05846
0.404247
6.17839
4.83771
689.525
94.4553
3.59375
101.66
35.3281
1.51875
1.4745
5.29534
0.932594
0.904851
0.909257
42.7445
35.0935
40.292
43.8665
32.4879
0.602488
3.0246
0.302139
4.32418
21.3636
59.4689
509.28
16.2006
11.0458
0.214072
2.38467
111.291
60.2226
9.04051
0.592523
0.991303
12.3192
5.66195
4.50576
32.2963
169.27
0.378836
0.354823
0.189175
9.09921
5.81115
1.65653
72.3291
1.0575
280.89
35.602
63.0431
101.009
0.208376
0.376825
7.34415
12.2605
0.369379
5.2055
4.92228
39.5966
81.7337
64.8277
1.85339
2.89258
82.4551
0.43317
12.3794
13.9397
42.274
63.142
90.3817
0.607131
0.330686
0.368856
61.0514
11.6418
142.836
37.7781
1.82758
40.69
122.092
64.5546
57.1831
6.65323
77.4745
47.5009
19.9184
0.347636
0.451245
34.0008
0.689305
6.60683
11.6253
1.66623
72.6645
395.514
325.394
7.13173
85.4307
3.56017
1.69401
1.38685
0.512888
83.6569
28.0201
0.560408
0.526031
0.288611
0.9122
13.3756
15.6103
93.6501
42.7521
1.76769
286.93
1.19196
46.7828
101.608
81.5907
50.0321
21.4952
6.7833
83.1278
0.316495
0.714858
0.257465
0.823465
2.92562
21.832
61.6714
3.38464
43.5364
0.572029
0.386744
3.22257
9.80955
2.76603
2.14554
92.8022
41.2839
47.078
10.3816
0.353858
0.274098
12.762
197.188
5.57185
327.737
0.513863
2.82843
50.0454
41.0717
1.0512
32.1717
168.545
1.09905
17.8846
46.0884
19.9798
75.7929
72.1362
10.8526
24.3621
1.6546
25.0657
88.8945
13.1828
122.876
16.6739
6.70611
0.656902
26.8722
15.3014
20.5126
79.7085
1.09475
19.8605
7.9352
0.326491
0.547129
5.64176
0.177843
7.12034
13.9855
7.39495
10.6189
17.7968
55.8082
109.259
94.948
58.5168
0.710898
0.261126
0.727567
0.427296
3.29648
9.96869
1.99934
1.07089
11.5616
82.4375
0.381793
0.904848
0.951878
25.6105
81.5273
2.66734
2.64728
1.93046
2.82948
59.6456
34.2866
3.15266
0.273497
53.126
95.1509
25.5858
0.334383
6.38927
0.307066
0.444319
2.17848
0.200553
2.51878
44.2123
0.514648
0.774842
36.9862
55.6589
0.584682
33.4845
0.403851
61.3453
0.260261
90.2542
2.65567
0.587785
5.55777
60.9223
93.477
102.261
34.2013
24.9871
47.4561
1.37817
51.5703
45.2472
0.514384
0.503454
3.02109
2.80942
166.734
16.3098
24.9463
2.0777
49.8117
61.391
68.6598
13.0841
559.512
13.2484
1.08513
0.220866
0.234619
0.276924
0.256179
1.09555
9.96385
0.512946
0.422769
0.797871
0.262159
1.13281
4.13078
5.54555
22.679
60.0757
110.433