/*--------------------------------*- C++ -*----------------------------------*\
| =========                 |                                                 |
| \\      /  F ield         | OpenFOAM: The Open Source CFD Toolbox           |
|  \\    /   O peration     | Version:  v1912                                 |
|   \\  /    A nd           | Website:  www.openfoam.com                      |
|    \\/     M anipulation  |                                                 |
\*---------------------------------------------------------------------------*/
FoamFile
{
    version     2.0;
    format      ascii;
    class       volScalarField;
    location    "0.89";
    object      nut;
}
// * * * * * * * * * * * * * * * * * * * * * * * * * * * * * * * * * * * * * //

dimensions      [0 2 -1 0 0 0 0];


internalField   nonuniform List<scalar> 
5794
(
0.000504517
0.000738608
0.00417279
0.00495672
0.0163751
0.00102329
0.00120293
0.0007231
0.00226661
0.000720177
0.00203431
0.00128366
0.00140897
0.0077131
0.00168426
0.00195948
0.0101499
0.00687037
0.00124816
0.000450115
0.00149605
0.000498695
0.00166069
0.000847361
0.00109957
0.00367727
0.0136307
0.0128974
0.00400105
0.000863912
0.00147242
0.00211243
0.00242252
0.0011229
0.00137065
0.00184369
0.000786233
0.00166416
0.00193204
0.00759057
0.00635057
0.00244044
0.000743013
0.00119325
0.00166673
0.00231662
0.00183234
0.00104942
0.000594485
0.00048428
0.000660426
0.0029777
0.000671986
0.00180157
0.000101069
0.00230886
0.00175148
0.00145251
0.000731693
0.004847
0.00132621
0.000440639
0.00124837
0.00493348
0.0057487
0.000815811
0.00525763
0.000690917
0.00548691
0.000338409
0.00619286
0.00476371
0.0156333
0.000934323
0.00575001
0.00910156
0.000271096
0.003269
0.00107257
0.000271586
0.000383228
0.000350163
0.00711965
0.00179928
0.00155899
0.00090522
0.00074499
0.00102294
0.00161842
0.0031478
0.00502686
0.00211536
0.00344228
0.00542137
0.0026219
0.00808313
0.00397015
0.00320243
0.00200152
0.00142447
0.00142819
0.00120673
0.00075512
0.0118647
0.00402331
0.0125008
0.00044735
0.00414952
0.00513217
0.000933483
0.00087534
0.000813306
0.0013744
0.00171487
0.00234698
0.00408425
0.00141268
0.00633459
0.00123553
0.00100941
0.00873714
0.000220181
0.000787704
0.0110802
0.00138183
0.00357233
0.0035241
0.00130106
0.00342083
0.00392238
0.00150577
0.00184087
0.00308575
0.00308691
0.0111419
0.00185959
0.00293229
0.000485176
0.00402406
0.000911737
0.00110806
0.0137802
0.00157474
0.013882
0.00498298
0.0127195
0.00197054
0.00146511
0.0131201
0.00757105
0.000726413
0.00140154
0.0121058
0.000799112
0.0141982
0.00168528
0.0017533
0.00121449
0.00213302
0.00148335
0.00037117
0.000643057
0.000370278
0.000778226
0.00194862
0.00187719
0.00072852
0.000553593
0.000421765
0.000229687
0.000299492
0.00194832
0.000536981
0.000453892
0.000360299
0.00133721
0.000254089
0.000973305
0.000461947
0.00190231
0.000649574
0.0011518
0.000627503
0.0015384
0.000713324
0.00372289
0.0011159
0.0011185
0.000277394
0.000827326
0.0016522
0.00138952
0.00171446
0.000881767
0.000965794
0.000788908
0.000717326
0.000509806
0.000428874
0.00100886
0.00105234
0.00209918
0.000952653
0.000860675
0.00160586
0.00200265
0.000708281
0.00579945
0.0135763
0.00198295
0.000765547
0.000858055
0.00221633
0.00128212
0.0011058
0.00146084
0.00199824
0.00365681
0.00356054
0.00555898
0.000856881
0.00229775
0.00837188
0.00372057
0.00234659
0.00689429
0.000655722
0.00118596
0.00044313
0.00183429
0.000787574
0.000647268
0.000855755
0.0036585
0.00289102
0.0107676
0.0137361
0.0020218
0.000991971
0.000542615
0.000418158
0.0076599
0.0023504
0.00149317
0.00125633
0.001937
0.00166911
0.0111667
0.00114308
0.000951506
0.000704386
0.000923324
0.0125574
0.000504631
0.000811311
0.0228673
0.000906125
0.000887235
0.00381391
0.00122541
0.00250078
0.00211926
0.00121883
0.000679722
0.00112013
0.00125458
0.0103772
0.00365132
0.00086446
0.00290211
0.00244047
0.00110238
0.00309256
0.00507211
0.000868976
0.00129712
0.00177526
0.00104825
0.000784308
0.0013299
0.000848046
0.003246
0.00458478
0.0015231
0.00541249
0.0052633
0.00255951
0.00310361
0.00533767
0.0089379
0.00147686
0.000982479
0.00128747
0.00182278
0.000771781
0.00302142
0.00245311
0.00105431
0.00280316
0.00100836
0.000279603
0.000992026
0.000358947
0.00325707
0.000829037
0.0030852
0.000671955
0.00429179
0.00250172
0.00211029
0.00120842
0.00280434
0.00229609
0.0017652
0.000782974
0.000903873
0.00511229
0.0138955
0.00460431
0.0041438
0.00327106
0.00108736
0.00517244
0.0153413
0.00308495
0.00202303
0.00100793
0.00105181
0.00122982
0.00186728
0.00180089
0.000821542
0.000834902
0.00150367
0.00130835
0.000344121
0.000318948
0.000328997
0.000238473
0.000916851
0.00044921
0.00085213
0.00233141
0.00118856
0.000314964
0.000577169
0.00170755
0.0012056
0.0021884
0.00166931
0.00202847
0.00251743
0.00148332
0.00116247
0.000693211
0.00260133
0.000374538
0.00187819
0.00114394
0.000713277
0.00577999
0.0024383
0.00293301
0.00174104
0.00088951
0.00311623
0.00173915
0.00154987
0.00122102
0.00100521
0.00184462
0.000427473
0.00337354
0.0040452
0.00658348
0.0030131
0.00166991
0.00138415
0.0016837
0.000566083
0.00368463
0.0017798
0.000750188
0.00147976
0.0011059
0.00105949
0.00661851
0.00217504
0.00111384
0.000793681
0.000553588
0.00170291
0.000333461
0.00172864
0.000495504
0.000418638
0.000354581
0.000780434
0.00134168
0.00170104
0.000778598
0.00110324
0.0145315
0.000426751
0.000436326
0.00255902
0.00136377
0.000933283
0.000721639
0.00409573
0.00338771
0.0020445
0.00441327
0.0011764
0.00174415
0.0014057
0.000613913
0.00544907
0.00194431
0.00349883
0.00189207
0.00293972
0.00534607
0.00191761
0.000693349
0.00057997
0.000414938
0.00162467
0.00050572
0.000519399
0.00296943
0.000784372
0.0123919
0.00204214
0.00134574
0.000935809
0.000944995
0.0013029
0.00101347
0.000803237
0.000937821
0.000805513
0.000924355
0.00082767
0.00100272
0.00461899
0.00249476
0.00361481
0.000410912
0.00280458
0.000362429
0.000565894
0.00198526
0.000541352
0.00496267
0.000503227
0.00453486
0.00804762
0.00349694
0.00721417
0.000695153
0.00088074
0.000763555
0.00248369
0.00153061
0.00395746
0.0106101
0.0202592
0.00530841
0.00101485
0.000159914
0.0142546
0.00443817
0.000929992
0.00150358
0.00312287
0.0203285
0.0139173
0.00112697
0.00077066
0.00101158
0.000687055
0.000717814
0.000654796
0.00543144
0.00345589
0.000861517
0.000971618
0.0027629
0.000551581
0.000616804
0.00466161
0.00430567
0.0131004
0.00128497
0.00105343
0.000964074
0.00202287
0.0019285
0.00233363
0.0207969
0.0191644
0.000728692
0.00183019
0.01392
0.000953475
0.000743215
0.00110756
0.00484675
0.000941404
0.00808606
0.000622285
0.00475561
0.00062471
0.00177225
0.00226187
0.00378444
0.000633864
0.000805415
0.0144348
0.00093782
0.000910974
0.0185366
0.00692548
0.00450225
0.00123646
0.00118137
0.00211072
0.000669245
0.000625659
0.00111171
0.000294354
0.00995205
0.0022489
0.00176644
0.000838397
0.0007855
0.0029707
0.00393262
0.00207658
0.000500893
0.00230228
0.000376498
0.00543323
0.00124739
0.00292132
0.000755256
0.014121
0.00140603
0.000958242
0.0128999
0.000724584
0.000292995
0.00088109
0.00190093
0.00172959
0.00113229
0.000616522
0.00065991
0.0123881
0.0182102
0.000375862
0.00327839
0.00155096
0.00578803
0.000863209
0.0012148
0.00576751
0.000371085
0.000908148
0.00164706
0.00280556
0.00147313
0.00133651
0.00149848
0.00085905
0.0205595
0.00429903
0.00146441
0.00392603
0.00489896
0.00256381
0.00785804
0.00770897
0.00326948
0.00137501
0.00147025
0.00449244
0.00240169
0.00488308
0.000958614
0.00180867
0.000582367
0.00535631
0.00261466
0.00313607
0.000409
0.000831175
0.000551701
0.00159107
0.000799147
0.00178093
0.00272994
0.00557841
0.000766834
0.00279802
0.00330413
0.000305965
0.00011726
0.00563427
0.0208425
0.0234152
0.0115748
0.000873842
0.000674257
0.00080533
0.00214568
0.00104357
0.000864691
0.00188219
0.00025475
0.00325302
0.00406052
0.00556807
0.00034952
0.00153627
0.00461185
0.014529
0.00617303
0.00130416
0.000590388
0.000539541
0.000212786
0.00103481
0.000877635
0.00078201
0.00363796
0.000809362
0.000642254
0.0138373
0.00127579
0.000839099
0.00401035
0.00253345
0.00281495
0.00534639
0.00251436
0.00101097
0.00195457
0.000651019
0.000792692
0.000962132
0.00223065
0.000581564
0.000544419
0.00300333
0.0155303
0.00285388
0.0020869
0.00305598
0.000784575
0.000533641
0.000668213
0.00111522
0.000692068
0.00310207
0.0056169
0.00548104
0.0025676
0.0027719
0.00200892
0.000883366
0.0127872
0.00142183
0.00143533
0.00291043
0.00585387
0.00141753
0.0119131
0.000927901
0.000814338
0.00511154
0.00194993
0.00341687
0.0129393
0.00277347
0.00391931
0.00214868
0.000944641
0.000738966
0.00669716
0.00815619
0.00347376
0.00330625
0.00173346
0.00190816
0.00630897
0.000463905
0.00079505
0.000769655
0.000267573
0.000703449
0.000283696
0.000945233
0.0120132
0.00327
0.00240796
0.000715298
0.00223804
0.00697499
0.0011048
0.00777091
0.0036355
0.00305792
0.00440689
0.000775319
0.000733523
0.0169724
0.00305187
0.00634976
0.00769305
0.00393822
0.00307579
0.00262265
0.0219154
0.000988808
0.000803743
0.000818852
0.00813041
0.000955429
0.00288438
0.00273473
0.00639263
0.00219388
0.001778
0.00182041
0.00637439
0.00448341
0.00211354
0.00342427
0.00461389
0.000226563
0.000297343
0.000163385
0.000438901
0.00489382
0.00258482
0.0046333
0.000803682
0.000802969
0.00187957
0.000830424
0.00194887
0.000556318
0.00263054
0.00517905
0.000756095
0.00591917
0.00276107
0.000709091
0.000946133
0.0208798
0.00496025
0.00310695
0.00587037
0.00590784
0.00282417
0.00345007
0.00129601
0.00410547
0.00230182
0.0046109
0.0112327
0.00214412
0.00219601
0.000798802
0.000954539
0.00114075
0.0160297
0.00103182
0.00650545
0.0162313
0.00103207
0.000728231
0.000858248
0.00512991
0.00269758
0.0067122
0.00527127
0.00263051
0.005053
0.0057606
0.00694269
0.00359747
0.000900972
0.00284064
0.000585992
0.00279173
0.000546304
0.00345778
0.000863086
0.00561021
0.0018647
0.00220619
0.00165138
0.00163933
0.00647006
0.00564663
0.00304822
0.00876073
0.00349034
0.00108466
0.00096405
0.00107332
0.00977731
0.00142464
0.00224591
0.00304885
0.00815861
0.000716216
0.000676674
0.00124679
0.00136372
0.0151464
0.00137413
0.000768809
0.00140481
0.0009686
0.00156312
0.00249046
0.0048214
0.00479149
0.000771433
0.00221168
0.00848591
0.00105986
0.00243404
0.0175754
0.000280505
0.000152698
0.00042195
0.000599716
0.00456418
0.0049309
0.000875445
0.00144645
0.00115435
0.000712276
0.000839331
0.02315
0.00279259
0.00578176
0.00166574
0.00239361
0.00351505
0.00291662
0.0141429
0.00500396
0.00175522
0.000699769
0.000754092
0.0127276
0.000921585
0.000987795
0.00762526
0.00386514
0.00404079
0.00392009
0.001812
0.0108618
0.00392116
0.000773124
0.00302769
0.00107177
0.00395344
0.00122406
0.00200084
0.00303752
0.000812532
0.000753024
0.000554735
0.00454606
0.00386494
0.000894311
0.00075363
0.00215892
0.00114034
0.00389206
0.000812511
0.00079934
0.00266002
0.00139959
0.00308078
0.00594728
0.00432853
0.00602112
0.0142196
0.000544839
0.000606589
0.00818189
0.00115349
0.00105233
0.000800177
0.0010661
0.00205026
0.000375391
0.000790242
0.00117307
0.0081779
0.00307084
0.0047873
0.000845838
0.00302445
0.00559441
0.0188956
0.00208395
0.00329523
0.000784918
0.0010371
0.0177735
0.00104332
0.00291142
0.000841429
0.00135344
0.00105563
0.00154273
0.000368
0.00194819
0.00126241
0.000466332
0.000326671
0.000263698
0.000264639
0.000182547
0.000660807
0.0146354
0.0130062
0.003236
0.00188947
0.00281237
0.0120206
0.00075315
0.000755977
0.000757438
0.00836536
0.00108754
0.0209269
0.0062724
0.00228399
0.000785794
0.00828842
0.0017111
0.000658542
0.000552925
0.023415
0.00598287
0.000834239
0.00135305
0.000878754
0.00346382
0.00168123
0.0167103
0.000678154
0.000506172
0.000459754
0.000598538
0.000502401
0.00098663
0.00227122
0.000944202
0.000655795
0.000807083
0.00078945
0.009398
0.000782785
0.000820631
0.00117987
0.00163842
0.000831634
0.000889049
0.000520628
0.00108663
0.000797461
0.00094107
0.000756928
0.00122716
0.000747955
0.00193033
0.00472492
0.000811427
0.00083372
0.000894613
0.00242772
0.000830282
0.00212618
0.000776964
0.022833
0.00212576
0.00113453
0.000825635
0.000875095
0.0140076
0.000973287
0.00246247
0.00263395
0.00532196
0.00180666
0.000860656
0.00112435
0.00163358
0.000830153
0.00120256
0.00178975
0.00168118
0.00149884
0.000149833
0.00202257
0.00143493
0.00110094
0.00108891
0.00159679
0.000404469
0.000585979
0.000708863
0.00118994
0.000746888
0.0136209
0.000796512
0.00520399
0.000790175
0.000783438
0.000736493
0.000901059
0.000748301
0.000756156
0.0120207
0.0129565
0.00426359
0.000435816
0.000826811
0.00284416
0.00110068
0.00118606
0.0016366
0.00185991
0.00516781
0.0012856
0.00693815
0.000449149
0.000841912
0.00619058
0.000570555
0.0186383
0.000724671
0.000718502
0.00228739
0.00817553
0.000981672
0.00345056
0.000785101
0.000817813
0.00098582
0.000734127
0.000469628
0.000888612
0.000830323
0.000772627
0.000569435
0.000729514
0.000700799
0.00086584
0.00414297
0.000975337
0.000723515
0.00546493
0.00262022
0.000789947
0.000570413
0.00809251
0.00234407
0.00650771
0.00985631
0.00101601
0.00115497
0.000312702
0.0193607
0.00110583
0.00428039
0.00104581
0.0195138
0.00257042
0.000223727
0.0010927
0.000309875
0.000734156
0.00165334
0.000589517
0.00112828
0.00110211
0.000271001
0.00108088
0.000173958
0.000242343
0.000767484
0.000941226
0.000763823
0.00680102
0.00400243
0.00606585
0.00028612
0.0012783
0.000793479
0.000809388
0.00101055
0.000789794
0.00818276
0.000810046
0.00388111
0.00102927
0.000746525
0.000991363
0.0229882
0.0118505
0.000585769
0.00268068
0.00742397
0.00535751
0.010817
0.000744772
0.00583037
0.00493548
0.00308005
0.000942863
0.00866358
0.000726508
0.00072653
0.000985301
0.000996897
0.00118543
0.00120747
0.0127704
0.00107015
0.000979023
0.0034536
0.00467388
0.00477162
0.00076499
0.00135457
0.00121468
0.00109278
0.00127572
0.000750041
0.0182493
0.00136169
0.0061545
0.00251737
0.00663953
0.00108296
0.00201505
0.00211109
0.00259182
0.000958458
0.00102618
0.000658499
0.0012256
0.000558864
0.022155
0.000758724
0.00088965
0.000754865
0.000907697
0.000832476
0.000776401
0.00086874
0.000748058
0.00319056
0.00121782
0.0119128
0.0007318
0.000745134
0.000543944
0.00055167
0.00169365
0.00945797
0.00169802
0.000511318
0.000952815
0.000768665
0.00195345
0.000784073
0.000704886
0.000884432
0.000660949
0.00084401
0.00101378
0.000890214
0.00763165
0.000588756
0.0122796
0.000857554
0.000675667
0.000725906
0.00068836
0.000948339
0.00324493
0.00143059
0.000740588
0.00185093
0.000780249
0.00103429
0.00159787
0.00121703
0.000905482
0.000702695
0.00116679
0.00145711
0.00440448
0.00614525
0.00250599
0.000828535
0.000200533
0.00771784
0.00116719
0.00547186
0.00670052
0.000488207
0.000856915
0.00110005
0.00130364
0.00025849
0.0126652
0.0065787
0.00111024
0.00807191
0.00310778
0.00164904
0.000494652
0.00820279
0.0212602
0.00872096
0.00130027
0.00113234
0.00165722
0.00280007
0.00083608
0.000720908
0.000584064
0.000783604
0.00313374
0.00332843
0.000362755
0.0060144
0.00079155
0.000692061
0.000426601
0.0029057
0.0123054
0.00143254
0.0025199
0.00603631
0.00893502
0.0149991
0.00219496
0.00218339
0.000795081
0.00583306
0.00398213
0.00727554
0.00559709
0.00247896
0.00403335
0.00214852
0.0148948
0.00452165
0.0170204
0.00231687
0.00126205
0.00107842
0.0178107
0.00253626
0.00145473
0.00524223
0.00387559
0.00226747
0.00619409
0.00690947
0.00339845
0.0138204
0.00270638
0.000313202
0.000806625
0.00445599
0.00107088
0.00132414
0.00175902
0.000830934
0.00421203
0.00345527
0.00631432
0.000556342
0.00941413
0.00376664
0.0027345
0.00355672
0.00118402
0.0009404
0.000794312
0.0121083
0.00134519
0.00138714
0.000760452
0.0179972
0.000584696
0.00122096
0.0105682
0.00853425
0.00193369
0.0018911
0.0129469
0.0013403
0.000786117
0.000151866
0.00661047
0.00292755
0.00830436
0.00739738
0.00103684
0.00213082
0.00523451
0.00587006
0.000959753
0.00151407
0.00133802
0.00151681
0.00114724
0.00952026
0.00234001
0.00118736
0.00585883
0.00160153
0.00699841
0.000792237
0.00169691
0.00091039
0.00150473
0.00267252
0.00101011
0.000933842
0.0011118
0.00132531
0.000259148
0.0018394
0.000673964
0.000822505
0.00482813
0.00272016
0.00550673
0.001469
0.00539478
0.0052919
0.00646196
0.000935577
0.00211827
0.00182275
0.00128049
0.00024338
0.000187274
0.000241751
0.0175387
0.000826208
0.00268196
0.00207582
0.00392034
0.00351978
0.00158826
0.000190348
0.000202451
0.000302641
0.000308883
0.000425676
0.000491971
0.000364129
0.000348631
0.000421774
0.000546677
0.00052529
0.000338997
0.000290299
0.000223116
0.000231654
0.000469293
0.000546199
0.000395258
0.000408084
0.000257677
0.000361562
0.000196495
0.000235994
0.000112514
0.000886859
0.000246831
0.000312981
0.000172791
0.000535982
0.000300355
0.000390012
0.000328028
0.000294671
0.000259768
0.000255331
0.000252319
0.000380461
0.000228276
0.000383763
0.000663739
0.000247907
0.000225597
0.00031202
0.000343816
0.00169447
0.00191404
0.0121652
0.00102519
0.00626129
0.00289462
0.00535968
0.0154616
0.00107578
0.00124838
0.000842411
0.00109446
0.0028265
0.00618834
0.0185954
0.0191703
0.00552317
0.00275917
0.000567188
0.000514055
0.00204775
0.000811055
0.000309304
0.00554418
0.002828
0.00358177
0.00166318
0.00578812
0.00478465
0.0053192
0.00214948
0.0093503
0.00382057
0.0185423
0.00205247
0.00183103
0.00167476
0.000761389
0.0144139
0.0011743
0.00161039
0.00755989
0.00232379
0.00594827
0.00453235
0.00173671
0.00128048
0.000842009
0.000848846
0.0162535
0.00212166
0.000415504
0.000368397
0.00779502
0.0145821
0.000200774
0.00355089
0.00685563
0.000417372
0.000396914
0.000387361
0.000331986
0.000329638
0.000412162
0.000515265
0.000299372
0.00030952
0.000592192
0.000422509
0.000318704
0.000196731
0.000346552
0.00024284
0.000269885
0.00035198
0.00022843
0.00034954
0.00020623
0.000226555
0.000204378
0.00027581
0.00340706
0.00278397
0.000441533
0.000888156
0.00539916
0.000848692
0.00942361
0.000863114
0.00292296
0.0152821
0.00404185
0.00280803
0.0144154
0.00318219
0.0001935
0.0143579
0.00207167
0.0013154
0.0225568
0.00491787
0.0130319
0.000682137
0.013579
0.00169358
0.00128336
0.0133551
0.00089812
0.00342094
0.00364338
0.00150433
0.00227952
0.00610159
0.001069
0.00904167
0.0175188
0.00339637
0.00733362
0.000576255
0.0102041
0.0012311
0.00210866
0.000838841
0.00636958
0.00119428
0.00168515
0.00322082
0.00155886
0.00719745
0.00083464
0.00305612
0.000632731
0.0071621
0.00535083
0.0233722
0.000173682
0.000771979
0.00101856
0.00858861
0.00281759
0.000259699
0.000679625
0.0068823
0.00444939
0.013117
0.000832682
0.00193369
0.00261037
0.000991027
0.00377265
0.000869248
0.00719883
0.000855491
0.000142202
0.000185027
0.00942897
0.00645474
0.000789983
0.00580712
0.00494486
0.00335687
0.0133417
0.019155
0.0108328
0.0135819
0.0123119
0.00166511
0.00861751
0.00114661
0.00201102
0.00166004
0.0068062
0.00072442
0.000894645
0.00108809
0.015811
0.000931512
0.000970295
0.00155243
0.00274866
0.00348353
0.00923628
0.0138237
0.00944689
0.0038074
0.000830796
0.0129441
0.000552379
0.00207562
0.00199206
0.00117137
0.0124815
0.0168375
0.00319435
0.0140864
0.00279234
0.00787048
0.00142635
0.00145431
0.0021566
0.00271749
0.00101533
0.00180921
0.0016881
0.0129246
0.00103854
0.0014547
0.00383952
0.00299168
0.00142436
0.0026659
0.00158934
0.0147338
0.00525396
0.00736312
0.00495436
0.00155261
0.00079179
0.00144566
0.00352713
0.00124828
0.00186747
0.00229899
0.013945
0.0139249
0.0107478
0.0101694
0.013999
0.011184
0.0139682
0.00117743
0.0140961
0.0140841
0.0115508
0.0110996
0.0141388
0.010663
0.0139561
0.0142372
0.0141664
0.00179499
0.00183493
0.00149875
0.0150167
0.00166521
0.00118029
0.000937704
0.00120603
0.000200056
0.000222792
0.0051761
0.0111577
0.00657453
0.00236329
0.00313872
0.00921835
0.0107376
0.00765849
0.00376672
0.00096237
0.00115622
0.000924981
0.00218453
0.00687181
0.00166713
0.00146451
0.00147682
0.00546486
0.0044693
0.00246672
0.00184891
0.00688208
0.00219979
0.000634383
0.00459334
0.00025718
0.00518867
0.001311
0.00102669
0.00118399
0.000989124
0.00205874
0.00273197
0.00223087
0.0039836
0.00444409
0.00130325
0.00286836
0.0113123
0.0023536
0.00268395
0.00307049
0.00390636
0.00937154
0.000899345
0.00195217
0.00957822
0.00488425
0.00299615
0.00242098
0.00137547
0.00315273
0.0106753
0.0033186
0.0019582
0.00208536
0.00191437
0.00530834
0.00131661
0.016983
0.00211287
0.00140584
0.0012703
0.00215196
0.00491637
0.000689701
0.00133913
0.00305786
0.00574459
0.00253594
0.0163972
0.00969557
0.00180316
0.0104433
0.00198805
0.00158889
0.0028816
0.000773712
0.00290681
0.00130149
0.0158344
0.00303381
0.00177205
0.000870267
0.00791007
0.0151864
0.00160639
0.00146127
0.00610066
0.00550846
0.00272674
0.00186835
0.00158131
0.00109816
0.00672112
0.00564993
0.00534328
0.0147035
0.0147389
0.00120464
0.00533901
0.000549205
0.00163385
0.00302547
0.00104109
0.00163292
0.00170106
0.0011472
0.00229178
0.00169835
0.00492572
0.000533272
0.00581314
0.00294415
0.00124818
0.00321906
0.00319132
0.00399684
0.0012214
0.00143435
0.00110208
0.00549117
0.00675694
0.00127169
0.00210405
0.00152071
0.00174378
0.00134486
0.00248391
0.00208306
0.005035
0.00447177
0.000322643
0.000705181
0.000523151
0.00359613
0.00143205
0.00116176
0.00570485
0.00702337
0.00242887
0.00160464
0.00108534
0.00467856
0.00462269
0.00470856
0.000971164
0.00652767
0.00397766
0.00374072
0.000364755
0.00463186
0.00714174
0.0148297
0.00450552
0.0073365
0.00601936
0.00345887
0.0036597
0.00619101
0.000696205
0.0044324
0.00682264
0.00455421
0.00407588
0.0058234
0.00438826
0.00707373
0.000673894
0.0025948
0.00466172
0.00666384
0.00363307
0.0042242
0.00704626
0.00609711
0.00524811
0.0038834
0.00463165
0.00281123
0.000722266
0.00666237
0.00117876
0.00601045
0.00144296
0.00226113
0.00111961
0.000502056
0.00530938
0.00119686
0.00661642
0.00132468
0.00112155
0.00492068
0.00486585
0.00467155
0.00568256
0.00300548
0.00248011
0.000938784
0.00382336
0.000398222
0.00139042
0.00134218
0.00199413
0.00060887
0.00385262
0.000560561
0.0146109
0.00128926
0.00159063
0.00193061
0.0018304
0.00275216
0.00206213
0.00100126
0.00133529
0.00531692
0.00207642
0.000928042
0.00121161
0.00537916
0.0016816
0.000869231
0.00149159
0.00536667
0.00409135
0.0013537
0.00556465
0.00295442
0.00164536
0.00119538
0.000558851
0.0140388
0.000870273
0.00158862
0.00143596
0.00833802
0.000681083
0.00421594
0.0021391
0.00741268
0.0016412
0.00158703
0.00667506
0.00166041
0.000840905
0.00141681
0.00174978
0.000618453
0.000923341
0.00595417
0.00260895
0.00320939
0.0137545
0.0152341
0.000923569
0.000740706
0.00180073
0.00132119
0.0049764
0.00089329
0.00621827
0.00539621
0.00164568
0.00148146
0.00547359
0.00231136
0.00409929
0.00528587
0.0011516
0.00108237
0.0017676
0.00162767
0.000820127
0.00170127
0.00181579
0.00987469
0.00427186
0.00269911
0.00919512
0.00144447
0.00118336
0.00344291
0.00759161
0.00174774
0.00672442
0.00114873
0.000683378
0.00164129
0.00433606
0.0064477
0.00106089
0.00637374
0.00262908
0.00257817
0.0039712
0.00174092
0.0021301
0.000301802
0.00163846
0.00351671
0.0149418
0.000925322
0.00109204
0.0081826
0.000800072
0.000828485
0.0111108
0.000310843
0.0014829
0.000941323
0.00189624
0.00169605
0.00613382
0.0036242
0.0062876
0.00723688
0.00294421
0.00309885
0.00139053
0.00655172
0.00394915
0.000255345
0.000254671
0.000350278
0.000642852
0.000584762
0.00841345
0.00128338
0.000768636
0.00171539
0.00373432
0.00498375
0.00146835
0.000218437
0.0107212
0.00925818
0.00194424
0.000976612
0.00310611
0.00163481
0.00361049
0.00030559
0.00382507
0.0129866
0.000930052
0.00202966
0.00180781
0.00879238
0.00531162
0.00126154
0.00129917
0.0100442
0.00390878
0.00231578
0.00152017
0.0017996
0.000787147
0.000837181
0.00479212
0.00398356
0.0048069
0.00371195
0.0105828
0.00551113
0.00128038
0.00107681
0.0016372
0.0124055
0.0160487
0.0134263
0.0115757
0.0104685
0.00391523
0.00364992
0.00471308
0.00314611
0.00151149
0.0101317
0.0118823
0.0119549
0.00230626
0.0106625
0.00563047
0.00622853
0.00492814
0.000577365
0.00414722
0.00103454
0.000691721
0.00175335
0.00456972
0.00462694
0.00442344
0.00515469
0.00764005
0.00114812
0.0136919
0.00679939
0.00651099
0.00363536
0.00157322
0.00130667
0.00113638
0.00120426
0.000847832
0.000718608
0.000743851
0.00966833
0.00239437
0.000792385
0.00130742
0.00331114
0.00335445
0.0039703
0.0018048
0.00630728
0.00344281
0.00157005
0.00443758
0.0056512
0.00138843
0.00159592
0.00168569
0.000227444
0.00396269
0.000557491
0.0010651
0.0133704
0.000837058
0.000841717
0.00156612
0.00578325
0.00105515
0.00349625
0.00856176
0.00215728
0.00171034
0.00455555
0.00425588
0.00394001
0.00746433
0.00164279
0.00923371
0.0043749
0.0057598
0.0136774
0.00947568
0.00166987
0.00282381
0.000882026
0.00548625
0.00681164
0.00210258
0.00178321
0.000811525
0.000741695
0.00104038
0.00152821
0.00560444
0.000799154
0.000857731
0.00695059
0.00501563
0.0042445
0.00268974
0.00130525
0.00784082
0.00657222
0.00187175
0.00164344
0.00222643
0.0032752
0.0140735
0.00437616
0.0122699
0.0012959
0.0031616
0.00221244
0.0064021
0.010705
0.00223834
0.0035999
0.00292499
0.00549991
0.00503161
0.00205134
0.000421395
0.000372511
0.00816499
0.00665046
0.00652976
0.0035386
0.00750955
0.00469487
0.000795919
0.00455898
0.00949939
0.00360132
0.00536017
0.00697889
0.00590996
0.00129965
0.000849179
0.00173366
0.0143493
0.00155355
0.0084808
0.00137052
0.000716931
0.0104279
0.0013549
0.0017006
0.00900481
0.0138249
0.0132143
0.0146869
0.000446917
0.00107737
0.00373807
0.00659254
0.0119101
0.0125862
0.00248979
0.00576171
0.00242535
0.00103106
0.00348027
0.0021552
0.00773081
0.00647375
0.0138739
0.00366059
0.00104917
0.00866018
0.00411723
0.00503031
0.00183754
0.00334228
0.008132
0.00122623
0.0022832
0.00483566
0.00815082
0.00938744
0.00133803
0.00246958
0.0101691
0.00103837
0.00075798
0.00178638
0.00760644
0.00891029
0.0036441
0.00238852
0.00100693
0.00128037
0.00668283
0.00160609
0.00861785
0.00779878
0.00413048
0.00559774
0.00362686
0.00184575
0.006167
0.0120889
0.00435157
0.00168438
0.00249881
0.00105143
0.00106488
0.00261649
0.00145216
0.00233454
0.0137371
0.0133277
0.0136254
0.00996266
0.0135141
0.00194184
0.00618569
0.00148374
0.0103228
0.0210671
0.01203
0.00819762
0.00074025
0.0017522
0.00775157
0.0105704
0.010182
0.00603844
0.00270048
0.00460282
0.00174021
0.00275478
0.000673508
0.000270267
0.0113825
0.00144191
0.00585526
0.000785312
0.00883723
0.00397648
0.00255661
0.00677297
0.00618735
0.00115848
0.00817519
0.0112871
0.00291555
0.000485968
0.0107395
0.00557975
0.00370307
0.00180339
0.00191636
0.000811424
0.0035829
0.0146932
0.0121717
0.0022023
0.00719722
0.0107702
0.0011294
0.00455534
0.0036863
0.00334429
0.000562463
0.00418012
0.0111002
0.00408374
0.00371552
0.00345155
0.0143918
0.00840784
0.00100434
0.00114359
0.0009385
0.0029803
0.000797906
0.0063202
0.00331123
0.00951431
0.0015771
0.00166281
0.000921594
0.0127797
0.00613724
0.0130234
0.00386181
0.000906793
0.00239743
0.00547113
0.00436518
0.000750131
0.0121171
0.00313895
0.00202344
0.00170976
0.000789673
0.013216
0.00102126
0.0140296
0.00909134
0.000892575
0.00733564
0.000796146
0.0137822
0.0107065
0.0009022
0.00228022
0.00298095
0.0145399
0.000848186
0.00077973
0.000769648
0.00252117
0.000780637
0.00159147
0.00865409
0.00518309
0.00712499
0.00289518
0.00651513
0.00101876
0.0128142
0.00901322
0.00144313
0.000739029
0.00398011
0.00882052
0.000195659
0.000169335
0.000253673
0.0147178
0.00209447
0.0159889
0.00470001
0.00427414
0.00907874
0.0129169
0.00185635
0.0033164
0.00663251
0.00500176
0.0025704
0.00460255
0.00189145
0.0111122
0.00132045
0.00107101
0.000808782
0.00173995
0.00259219
0.00205799
0.00386498
0.00294361
0.00207143
0.0131625
0.00599321
0.00704782
0.00572778
0.00173952
0.00134448
0.00310993
0.00226431
0.0131932
0.00548098
0.0145008
0.00726858
0.00139263
0.000906996
0.00163426
0.00344208
0.00127343
0.0066362
0.00208079
0.001144
0.00254393
0.00953555
0.00373396
0.0138759
0.00176006
0.00950141
0.00392186
0.00303958
0.00172143
0.00594685
0.00399514
0.00354101
0.00121014
0.00426115
0.00612258
0.00171786
0.0012923
0.0144753
0.0117263
0.00614995
0.00578217
0.00640334
0.0220013
0.01493
0.00166002
0.00214296
0.00365309
0.0019392
0.00375587
0.0111098
0.0129453
0.000744159
0.00880939
0.00185634
0.00277303
0.00185712
0.00422759
0.00256232
0.0046723
0.000509776
0.00759581
0.0055625
0.00105673
0.00227164
0.00460396
0.00638907
0.00360454
0.00260603
0.000440521
0.00209883
0.0113749
0.00694536
0.0038926
0.0021834
0.00572778
0.000946228
0.000695312
0.0013362
0.00148012
0.00105023
0.00169774
0.00137549
0.00181073
0.0159694
0.000455887
0.0014121
0.00236558
0.000934782
0.00639351
0.00127597
0.000849227
0.00141429
0.00415735
0.00237857
0.00099347
0.00126879
0.000492999
0.00158683
0.000834067
0.00141569
0.00682476
0.0039453
0.000804512
0.00595281
0.00141392
0.003602
0.009854
0.00633808
0.00640841
0.00093873
0.00240867
0.000198831
0.000355742
0.00203494
0.0142501
0.00198395
0.0141471
0.00479045
0.00182816
0.00789984
0.00195281
0.000805345
0.00220216
0.00508076
0.00474151
0.00702167
0.00122606
0.000873128
0.00159993
0.000732431
0.00140257
0.0125835
0.00182571
0.000989912
0.00607477
0.000445474
0.00491039
0.00344531
0.00108935
0.00155764
0.00976765
0.0103928
0.0131341
0.0104408
0.00232714
0.000943735
0.00413523
0.0129189
0.00581495
0.00758405
0.00456402
0.00708941
0.00135373
0.000806472
0.000771749
0.00722504
0.00468586
0.00184857
0.00188914
0.000753766
0.00172216
0.0063045
0.00315658
0.00269578
0.00783354
0.0174782
0.0168912
0.00106127
0.0138352
0.00121297
0.0123156
0.00428072
0.00659069
0.00154424
0.00523903
0.00185302
0.00637444
0.0134367
0.0125455
0.00123309
0.00126205
0.000969643
0.00257885
0.00037237
0.00141233
0.00183465
0.0026698
0.00712703
0.00615638
0.00175147
0.000580617
0.0131961
0.000766145
0.00113157
0.0089798
0.0132726
0.00713957
0.0016626
0.00671917
0.00441561
0.000820413
0.000841095
0.00367445
0.00167963
0.0117829
0.00123497
0.00722412
0.00475408
0.00144434
0.0066445
0.00114171
0.000751912
0.000817727
0.00032273
0.000244872
0.00214805
0.000961131
0.00108721
0.00082756
0.000220753
0.000174184
0.000250121
0.0145156
0.0147923
0.000848098
0.00683927
0.00238165
0.00517685
0.00713221
0.00599529
0.0047624
0.0127933
0.011247
0.00670429
0.00424962
0.00413891
0.00923554
0.00297084
0.0008059
0.00120858
0.00143658
0.000681232
0.001234
0.000821965
0.0136918
0.00327088
0.000184556
0.00183248