/*--------------------------------*- C++ -*----------------------------------*\
| =========                 |                                                 |
| \\      /  F ield         | OpenFOAM: The Open Source CFD Toolbox           |
|  \\    /   O peration     | Version:  v1912                                 |
|   \\  /    A nd           | Website:  www.openfoam.com                      |
|    \\/     M anipulation  |                                                 |
\*---------------------------------------------------------------------------*/
FoamFile
{
    version     2.0;
    format      ascii;
    class       surfaceScalarField;
    location    "0.89";
    object      phi;
}
// * * * * * * * * * * * * * * * * * * * * * * * * * * * * * * * * * * * * * //

dimensions      [0 3 -1 0 0 0 0];
oriented        oriented;


internalField   nonuniform List<scalar> 
11117
(
1.0709e-05
-3.39024e-05
-1.14734e-06
2.43407e-05
-2.73635e-05
-3.21684e-06
1.37471e-05
1.68333e-05
-4.077e-05
5.11857e-05
-0.000164436
0.00015402
-0.00052298
1.84919e-05
0.000206068
0.00029842
0.000166552
0.000228465
-0.000179142
-0.000215874
2.10105e-05
-3.38747e-07
0.00018514
-0.000205812
-0.000521655
-6.41271e-05
0.000432699
0.000153083
-0.000158665
7.80535e-06
7.77413e-05
7.31183e-05
0.00123197
0.000234919
-0.000911387
-0.000555502
5.47145e-06
-3.47366e-06
-3.51094e-06
1.51315e-06
-0.000873732
0.000945079
0.000302443
-0.00037379
-0.000341926
-0.000212216
0.00026883
0.000285312
-0.000489407
-0.000222275
0.000301381
0.0004103
0.000783863
-0.00101369
0.000491915
-0.000262089
1.85545e-05
-2.48769e-05
2.06726e-05
-1.43503e-05
0.000101205
1.99363e-06
1.77486e-05
-0.000120947
-0.000134816
0.000216473
-1.76635e-05
-6.39939e-05
-0.0006697
0.000696689
0.000710912
-0.0007379
1.41302e-05
7.61212e-06
-3.18785e-06
-1.03153e-06
2.1708e-06
1.10164e-05
-1.21557e-05
-0.000327938
0.000184845
6.13775e-05
8.17154e-05
3.73227e-05
-1.4398e-05
-9.61306e-05
7.32059e-05
0.000459593
0.000347643
-0.000239959
-0.000567276
0.000104234
0.000107059
-6.40133e-05
-0.000147279
0.000331565
0.000212727
-0.000381749
-0.000162542
0.000937395
-0.000969279
0.000295685
-0.0002638
0.000281227
-0.000347929
0.00074366
-0.000676958
-0.000204484
0.000262384
-0.000266855
0.000208955
0.00012858
-3.95949e-05
0.000999965
-0.00108895
1.11779e-05
-1.14428e-05
1.04687e-05
-1.02038e-05
-0.000135101
7.39135e-05
0.000148172
-8.69849e-05
-0.000110167
-0.000366451
0.000344105
0.000132513
-0.000118871
-0.000448719
0.00037842
0.00018917
-1.59783e-05
6.23851e-05
-3.59649e-05
-1.04419e-05
-0.000136871
5.94259e-05
-2.32235e-05
0.000100669
-0.000143183
6.21586e-05
-2.10211e-05
0.000102045
0.0006023
-0.000824869
0.00100523
-0.000782662
0.000318873
-0.000491617
-9.42707e-05
0.000267015
0.000501033
-0.000124229
-0.000665178
0.000288374
0.000194952
0.000324193
-0.000417914
-0.000101231
0.000160554
0.000251674
-0.000293394
-0.000118833
-2.17798e-05
0.000243827
-0.00028049
5.84428e-05
0.00100566
0.00088465
-0.000888368
-0.00100195
0.000249514
1.43403e-05
-2.10276e-05
-0.000242826
2.65033e-05
2.10446e-05
-3.34177e-05
-0.000935486
0.000740998
-0.000224548
0.000419037
-0.000705912
0.000538756
-0.000155971
0.000323127
0.000196639
-0.000294549
0.000183355
-8.54454e-05
-2.19228e-06
-6.97013e-06
9.18734e-06
-2.49238e-08
-6.37942e-05
0.000189015
-0.000125221
1.80217e-05
-9.54857e-06
-8.47315e-06
-0.000333393
-0.00113303
0.000511341
0.00095508
7.82258e-06
-2.52773e-05
-2.89399e-05
4.63946e-05
4.90326e-05
-5.03656e-05
-5.07621e-07
1.84068e-06
1.09153e-05
-1.09153e-05
0.000418194
0.000176407
-0.000548791
-4.58098e-05
0.000294187
0.000134691
-0.000392044
-3.68347e-05
-0.000142869
-7.08585e-05
0.000199164
1.45637e-05
0.000883234
0.000114688
-0.00136326
0.000365343
-0.000409197
0.000791627
0.000554966
0.000849319
-0.000864116
4.20452e-05
-2.72484e-05
0.000103871
-4.83053e-05
-5.06857e-05
-4.87964e-06
-0.000132121
-0.00011186
0.000108881
6.73139e-05
-4.20555e-05
-0.000135425
0.000116092
-3.86592e-05
-0.000196304
-3.13556e-05
-9.75964e-05
7.94358e-05
4.95162e-05
0.000140879
-0.0001512
6.78675e-05
-5.75462e-05
7.48131e-07
-0.000325722
0.000324974
-0.00070377
-0.000390871
0.000561407
0.000533233
1.6894e-05
4.61951e-05
-7.24437e-06
-5.58447e-05
0.000466311
-0.000137104
-0.0006626
-0.000228773
0.000203964
0.000165688
-0.000277163
-0.00124507
0.00128806
0.000234174
-9.4225e-05
0.000257122
-0.000192029
2.9132e-05
-0.000767416
-0.000606054
-0.000108574
3.61645e-05
0.000201337
-0.000128928
1.04529e-05
-1.74133e-05
6.96038e-06
-0.000943154
-0.000165297
0.000139172
0.000249403
3.69437e-05
-3.68327e-05
5.75791e-06
1.66957e-05
-2.24537e-05
-8.95954e-05
-4.17275e-05
1.08445e-05
0.000120479
-2.48677e-05
-5.31149e-06
1.29685e-06
2.88823e-05
0.000120963
-9.94494e-05
0.00012877
-0.000150284
-0.000276505
0.000253404
0.000260797
-0.000237696
-0.000217142
5.84378e-05
0.000251529
-9.28253e-05
5.68953e-05
-0.000502363
0.000445467
-1.682e-05
-0.00054894
0.00056576
3.19511e-05
-0.000483406
0.000451455
2.30668e-05
1.51658e-05
7.79009e-05
-0.000116134
-4.65241e-05
7.46461e-05
0.000267305
-0.000295427
0.000526309
-0.000156369
7.92446e-05
-0.000449184
0.000673439
5.17527e-05
-5.13997e-05
-0.000673792
0.000721134
-4.76499e-05
5.51509e-05
-0.000728635
-0.000694066
3.87783e-05
-2.74329e-05
0.000682721
-0.000636036
5.35738e-05
-2.56705e-05
0.000608133
-2.06511e-07
0.000224401
-0.000325628
0.000101433
0.000588785
2.23895e-05
-2.25582e-05
-0.000588616
0.000686413
4.50122e-05
-3.03468e-05
-0.000701079
0.000641378
4.94733e-05
-2.69423e-05
-0.000663909
0.000819517
5.93198e-05
-2.95173e-05
0.000379471
7.67249e-05
-0.00040784
-4.83554e-05
-0.000243614
0.000178788
7.47194e-05
-9.89421e-06
0.00030776
-0.000380707
-0.00116987
0.00124282
0.000733308
0.000346092
-0.00075473
-0.00032467
-1.43207e-05
1.32801e-05
-8.00913e-06
9.04975e-06
-0.000862362
0.000252757
0.000770684
-0.000161078
1.23508e-05
-4.13522e-05
7.66093e-05
-4.7608e-05
1.69437e-05
9.02126e-07
2.54727e-05
-4.33186e-05
-0.000244743
3.47207e-06
0.000102104
0.000139167
0.000229627
-5.27591e-05
7.25352e-05
-9.5047e-05
5.8969e-05
8.82338e-05
-5.21559e-05
-2.77418e-05
6.09352e-05
7.0624e-06
-4.02558e-05
-0.0004145
0.000344577
-0.000158985
0.000228908
-2.43851e-05
2.76321e-05
6.65398e-06
-9.90101e-06
0.000100618
0.000556557
-0.000635031
-2.2143e-05
0.000123435
0.000639781
-0.000723541
-3.9675e-05
-1.7074e-05
-8.54105e-06
2.71177e-05
-1.50271e-06
-0.000540778
0.000503092
0.000895625
-0.000857939
3.51293e-05
-1.97352e-05
-0.00087951
-0.00103788
8.44e-05
0.000958493
-5.0096e-06
0.00097357
-0.000692954
-0.000821393
5.71245e-05
-4.76734e-05
-9.45112e-06
0.000156588
-0.000120149
0.000179693
-0.000216132
-0.000161784
-0.000151273
-2.74201e-05
-2.07849e-05
1.34485e-05
3.47565e-05
-0.000353927
0.000406154
0.000623748
-0.000675974
-0.000458848
0.000684612
-0.000522226
0.000296462
1.45578e-06
-0.000159166
0.000156743
9.66709e-07
0.00055681
-0.000817115
-0.000111649
0.000371954
4.56409e-05
-5.11608e-06
4.61191e-06
-4.51367e-05
8.52031e-05
5.62502e-05
-0.00013708
-4.37364e-06
0.000179784
-3.09473e-05
-0.000183002
3.41653e-05
0.000149949
-9.11289e-05
-6.88496e-05
1.00295e-05
-0.000894806
0.000108697
-0.000157046
-0.000326271
0.000288119
-0.000682147
0.000720299
2.26586e-05
-2.14363e-05
-2.60991e-05
-0.00041568
3.75795e-05
9.16379e-06
0.000368937
3.26764e-05
8.70997e-05
-1.59053e-05
-0.000114456
-2.21961e-06
0.000118609
-1.93362e-06
5.59815e-05
5.89382e-07
-5.66067e-05
3.58012e-08
-0.000196801
0.000111532
9.17304e-05
-6.46148e-06
7.48764e-05
-0.000330408
0.000363769
-0.000108238
5.45549e-05
-4.3928e-05
-1.64225e-05
5.79562e-06
0.000439827
-0.000213431
-0.000226066
-3.2938e-07
-0.000106548
8.81418e-05
-3.86821e-05
5.70881e-05
4.15796e-06
0.000318154
-0.000155597
-0.000166715
0.000303421
-0.00015142
4.58676e-06
-0.000433939
0.000972137
-0.00055734
1.91412e-05
9.74495e-05
0.000179029
-0.00013282
-0.000143658
-0.000112045
0.000231462
1.41791e-05
-0.000133596
0.000927385
0.000448334
-0.000612561
-0.000763158
-1.06143e-05
1.039e-05
-3.15191e-05
3.17434e-05
-0.000472558
-6.00375e-05
-0.000329767
0.000124686
-0.000204252
-9.01454e-05
0.000169711
-0.000438424
-0.000385161
0.000496728
0.000326857
0.000751197
-0.00016678
-0.000584417
0.000224528
0.000161792
7.60438e-05
-0.000237836
0.000954242
-0.00022997
-0.000724272
0.000101731
2.60102e-05
-1.12021e-05
-1.48081e-05
-6.69363e-05
0.000266471
-0.000199534
2.40616e-05
-3.0103e-06
-2.10513e-05
-3.20231e-05
0.00031158
-0.000279557
-0.000482402
0.000547828
-6.54255e-05
-0.000487514
0.000482609
4.90551e-06
-0.000256959
-1.32211e-05
0.00027018
-4.43781e-05
-8.35958e-05
0.000127974
-5.11784e-05
-4.38685e-05
-1.28097e-05
-1.49321e-05
-1.71099e-05
1.43055e-05
2.80437e-06
0.000211132
0.000197339
-0.000408471
0.00011998
-0.000152833
3.28526e-05
0.000104194
-0.000145195
4.1001e-05
7.38709e-05
-7.13054e-05
-2.56558e-06
-0.00048707
0.000585934
-9.8864e-05
1.16764e-06
-2.29713e-06
1.12949e-06
-0.00036219
0.000432239
-7.00494e-05
-8.85149e-05
6.82391e-05
2.02758e-05
0.000925046
-0.0010107
8.56493e-05
-0.000118048
0.000162038
-4.39897e-05
-0.000136099
0.000212131
-7.60318e-05
0.000232104
-0.000216263
-1.5841e-05
-0.00027128
0.000315507
-4.42268e-05
-6.14727e-05
0.000131442
-6.99691e-05
-0.000169231
0.000124687
4.45447e-05
-0.0002534
9.78639e-06
-0.00023077
0.000149964
8.08058e-05
-9.12826e-06
6.41345e-06
2.71482e-06
4.72121e-05
0.000131576
-0.000211966
-0.000661766
-0.00027852
-8.79307e-05
-0.00036167
-8.70488e-05
0.000160599
-8.66854e-05
0.000288792
-0.000109008
0.000173814
-8.86105e-05
0.000198482
5.6708e-05
-0.00025519
-2.60458e-05
3.12533e-05
-5.20754e-06
-4.93889e-06
1.2551e-05
-0.00108578
0.00139354
0.000473576
-2.2239e-05
-0.000451337
-0.00094057
-0.000192458
4.73427e-05
0.000149297
-4.78158e-05
-1.9759e-05
6.75748e-05
-0.00060661
-9.9302e-05
-0.000791967
-0.000143519
4.03706e-06
-7.92545e-05
7.52174e-05
2.62534e-05
-1.58747e-05
1.74463e-05
-2.7825e-05
-0.000159929
8.10573e-05
0.000507264
-0.000428392
-0.000878445
0.000872337
0.000679768
-0.00067366
0.000151279
-3.44783e-05
-0.000193654
7.68538e-05
-0.00118487
0.00114168
-5.21035e-05
9.52997e-05
-0.0001743
0.000146922
-4.64463e-06
-0.000102635
9.80879e-05
-6.23889e-05
-2.09059e-05
4.14964e-06
-6.12255e-05
7.79818e-05
0.000113379
-0.000118336
-0.000153255
0.000158212
6.52666e-05
-6.91724e-05
-0.000123192
0.000127098
-0.000188221
0.000156432
0.000181738
-0.000205397
5.06828e-05
0.000595331
-0.000440616
0.000790025
-0.00068393
-0.000184845
7.875e-05
-0.00139902
-3.5034e-05
0.000249185
0.000221697
-0.000268735
5.2897e-05
-5.85881e-06
0.000253938
4.6274e-06
-4.49933e-05
-0.000213572
0.000705799
-0.000203875
-5.29761e-05
-0.000448947
-0.000354992
-0.000254787
4.16933e-05
0.000568086
-8.02566e-05
5.46501e-05
0.00119772
-0.00117211
0.000121671
-1.43822e-05
-0.000107289
1.02816e-05
2.62323e-05
-1.50451e-05
-2.14687e-05
3.71504e-05
9.85621e-06
-3.51903e-06
-4.34876e-05
9.19811e-06
-9.63717e-06
-3.09527e-05
3.13917e-05
-4.15119e-05
5.81359e-05
-0.000142286
0.000125662
-4.7337e-05
7.20394e-05
-0.000131844
0.000107141
-1.0319e-05
8.10473e-06
-6.53911e-05
6.76054e-05
0.000142253
-5.13594e-05
-0.000223066
0.000132173
0.000179622
-0.00019742
2.67666e-05
-8.96892e-06
2.80409e-05
2.43929e-05
-0.000996625
0.000944191
-0.000116146
4.43749e-05
-0.00074559
0.000817361
0.000867584
-0.000870235
6.879e-05
-6.61388e-05
0.000185905
-0.000285571
-0.000150167
0.000249832
8.0882e-05
0.000148065
-0.00011468
-0.000114267
4.01527e-05
-2.12422e-05
-3.27476e-05
1.38371e-05
0.000161419
-0.00014406
-5.21326e-06
-1.21458e-05
5.44074e-05
0.000682949
-0.000378994
-0.000358362
-7.05981e-06
0.000235674
-0.000103928
0.000208488
-0.000204382
-1.11651e-05
5.85879e-06
-3.09999e-05
8.41101e-05
-1.93686e-05
3.34509e-05
-3.83444e-05
2.42622e-05
0.000149711
-0.000112942
6.068e-05
5.34224e-05
-0.000546158
0.000492736
5.1479e-05
-0.000542773
0.000491294
3.619e-05
-0.000479301
0.000443111
4.88219e-05
-4.98339e-05
-3.03436e-05
-0.000326429
-1.3548e-05
2.51012e-05
-3.70338e-05
2.54806e-05
-1.64824e-05
2.70506e-05
-0.000953889
0.00094332
-0.000279351
-0.000395917
0.000461644
0.000213624
0.00105459
-0.000450535
-0.00080645
0.000202392
-0.000655288
0.00116175
-0.00087026
0.000363801
1.13381e-05
-2.96471e-05
4.45623e-05
-2.56948e-05
-2.84943e-05
2.67691e-05
-0.000626791
-7.09269e-05
0.000303612
0.000394106
-3.65307e-06
-0.000180024
9.37657e-06
-0.00010135
-7.28456e-05
7.15606e-05
1.91908e-05
8.29211e-05
-5.42954e-05
-4.78165e-05
-0.000189405
9.44046e-05
9.50007e-05
-0.000205893
0.000203265
2.62814e-06
0.000302021
-0.000214727
-0.00019934
0.000106382
-0.00038829
0.000341094
-5.91859e-05
2.28946e-05
-2.25792e-05
-0.000590121
3.28318e-05
-5.57372e-05
0.000613027
-0.000462582
1.9578e-05
-3.43649e-05
0.000477368
-5.93622e-05
-5.83213e-05
0.000136494
-1.88103e-05
-8.83822e-06
0.00023492
-0.000303798
7.77167e-05
-0.000284201
0.000464599
0.000330942
3.00867e-05
-0.00108111
0.00110755
-5.65288e-05
-4.21722e-06
2.4371e-05
-1.09556e-05
4.77916e-06
4.61451e-05
-1.89173e-06
0.000192879
-1.72091e-05
-0.000203344
2.76743e-05
-4.00255e-05
4.64038e-05
2.26836e-05
-2.90619e-05
4.00017e-05
0.000264595
-6.31867e-06
-0.000298278
-4.93987e-05
-1.78501e-05
4.12031e-05
-0.000338271
-6.33281e-05
0.000294866
0.000106734
-0.000428992
0.000265841
0.000323705
-0.000235152
0.000139545
7.38269e-05
-0.000568335
0.000330265
0.000433022
-0.000556982
1.65238e-05
0.000551724
-1.12649e-05
-0.000617618
7.61251e-07
0.000629023
-1.21671e-05
4.37872e-06
0.000632374
-0.000614079
-2.26735e-05
-3.58476e-05
0.000587411
-0.000575374
2.38107e-05
-0.000612745
0.00104897
-0.000762493
-4.75461e-05
5.64824e-05
-6.46133e-05
5.5677e-05
-3.01091e-05
4.78574e-05
-8.39876e-05
6.62393e-05
-3.73358e-05
2.43168e-05
1.29876e-05
3.1367e-08
5.71131e-05
-5.13409e-05
7.19297e-07
-6.49155e-06
-0.000968444
0.000115712
0.000951048
-9.83158e-05
-0.000114856
0.000686994
-0.00074008
0.000167942
-8.31917e-05
-8.42229e-05
0.000478504
-0.000311089
3.2023e-05
-4.8688e-05
0.000110839
-9.4174e-05
-0.000141017
-7.32325e-05
0.000629344
-0.000415094
2.16782e-05
7.00134e-05
7.37008e-06
-9.90617e-05
-1.41997e-05
3.81089e-05
-4.8777e-05
-0.00056989
0.00053486
-5.68068e-05
0.000119723
-0.000152511
0.000338153
-0.000283903
1.58045e-07
0.00010896
6.35143e-05
-6.76134e-05
-0.000104861
4.0429e-05
-1.65292e-05
0.000324903
-0.000348803
-3.72066e-05
2.86246e-05
-3.14436e-05
0.000499202
-0.000322749
-0.000567323
0.000759136
-0.000395015
0.000587032
-0.000298417
1.09786e-05
9.14512e-05
2.86961e-05
2.35422e-05
7.79506e-05
-0.000130189
0.00046463
-0.000748679
-0.000594396
9.52508e-06
-1.96195e-05
-1.42907e-05
-0.000426648
0.000472144
0.00101177
-0.00105727
0.000847238
-0.000171073
-4.74613e-05
-0.000628704
3.27005e-06
8.67807e-06
4.99557e-06
-0.00037703
0.000190902
0.000448512
-0.000239542
6.50982e-05
-7.02992e-05
0.000230034
-0.000781947
0.000680493
1.90312e-06
3.51642e-05
-6.01148e-05
2.30475e-05
-1.11516e-06
0.000214007
-0.000305834
9.29416e-05
-0.000683824
0.000613137
0.000573779
0.000116898
0.000228682
2.49509e-05
-3.10403e-05
9.76799e-05
-9.15905e-05
-6.53586e-05
-0.00024308
0.00018421
4.0568e-06
-2.36454e-06
-0.000254188
0.000252496
-0.000168112
-0.000200615
0.00080679
0.000138289
-1.55239e-05
-8.01193e-05
0.000165362
-1.71897e-05
0.00014765
9.07046e-05
-3.65681e-06
9.56167e-06
7.19922e-07
-2.71169e-05
4.22117e-06
2.27026e-05
0.000127261
1.57187e-05
-3.06252e-05
0.000221275
-2.74769e-05
-3.04957e-06
7.19982e-06
0.000224905
-4.04363e-05
-0.000230844
-5.56645e-05
-8.04349e-05
-0.000516652
2.91378e-05
-6.81219e-05
-0.000423495
-7.94684e-05
-0.00058571
0.000148617
-0.000144459
-4.61638e-05
-6.6389e-05
-5.56644e-05
-6.50754e-05
0.000189762
-2.1889e-05
1.69501e-05
0.000368231
0.000586849
-4.80792e-05
3.9817e-05
-8.77751e-06
-1.92015e-05
1.21043e-05
-6.28519e-05
-0.000196724
0.000165305
0.000518637
-0.000545594
2.48537e-05
2.10302e-06
3.74654e-05
-0.000342922
0.000241329
0.000108911
-0.000220059
0.000118953
-2.6948e-05
3.88806e-05
5.0226e-06
-1.69552e-05
0.000274033
0.000466965
0.000210077
0.000328679
-5.17549e-05
-0.000242794
-3.9314e-05
4.40254e-05
9.38639e-06
-1.40978e-05
-9.64014e-05
1.03621e-05
9.06403e-05
-4.60089e-06
-5.96592e-05
-2.88665e-05
6.15778e-05
-8.39647e-05
5.17985e-06
5.09551e-05
2.78297e-05
-7.44965e-06
-8.19802e-05
2.91363e-05
6.02936e-05
0.000427271
-0.000118986
0.000136484
-0.000421155
0.000702865
6.16304e-05
-0.000291844
0.000524401
-0.000147345
0.00022823
-0.000223754
1.04929e-06
7.80951e-06
-8.57213e-06
-2.86666e-07
1.3431e-05
5.6206e-05
-3.71143e-05
-3.25228e-05
1.08976e-05
-3.35734e-05
-1.66383e-05
-0.000624368
0.00102933
-0.000734467
0.000329503
3.59596e-05
-0.000138688
-4.0454e-05
4.19804e-05
-0.00012495
-5.3902e-05
2.99599e-05
7.54647e-07
-4.66928e-05
-0.00105411
0.000942152
7.2361e-05
1.90485e-05
4.62743e-05
-5.04702e-05
-1.48526e-05
-9.47996e-05
7.27495e-05
-4.54134e-05
6.74635e-05
-1.48822e-06
-0.000255471
-5.41276e-05
9.74951e-06
0.000379021
-0.000153114
9.42639e-06
-8.50244e-06
6.06565e-05
-6.15804e-05
3.82287e-05
-4.03303e-05
-1.23181e-06
3.33341e-06
7.84683e-05
5.6857e-05
6.35519e-05
7.91778e-05
-1.40176e-05
-7.32573e-05
8.09714e-06
4.13202e-05
-1.61226e-05
-3.63997e-05
0.000385432
0.000101872
0.000295481
0.00115515
0.000118977
-0.00111733
-0.000156793
9.40926e-05
2.41591e-06
5.85193e-05
-0.000678451
0.000175771
0.00060458
-0.000101901
-9.85238e-05
-1.91222e-06
-4.22988e-06
0.000104666
-6.71823e-05
0.000238642
-0.00013124
-4.02199e-05
1.4994e-05
-6.04305e-05
3.51522e-05
1.02843e-05
-0.00021276
0.000716128
4.53209e-05
-0.000548689
-0.000316885
0.000893084
6.27877e-05
-0.000638986
0.000635534
3.06928e-05
7.69949e-05
-0.000743222
-6.1208e-05
6.64781e-06
8.30073e-05
-2.84471e-05
6.51721e-05
0.00014596
-0.000182711
0.000381493
0.000362625
0.00049237
0.000111217
0.00053099
0.00011142
0.000566148
0.000128942
0.00060895
-7.9288e-06
-4.82137e-06
4.51043e-06
8.23974e-06
4.89468e-05
3.42752e-06
-8.34893e-06
-0.000228761
0.000264721
-0.000218619
0.000260599
-3.39295e-05
6.38893e-05
2.9403e-05
1.57263e-06
-3.34348e-06
-8.16818e-07
-1.43592e-05
1.69265e-05
-1.75047e-06
1.30801e-05
7.64637e-05
-9.20647e-05
2.52092e-06
2.06975e-05
0.000639472
-0.00042525
0.000967204
6.26978e-05
-0.0010151
-1.48013e-05
-0.000260144
0.000261876
0.000300289
0.000136569
-0.000265062
-6.94816e-05
0.000197975
1.96857e-05
-5.51188e-06
9.26781e-06
-2.08299e-05
0.000105768
0.000176712
-5.58697e-05
-7.7098e-05
-3.61851e-05
-0.000953463
0.000925838
-0.000399023
-9.24201e-05
-6.17976e-05
2.90491e-05
0.000213603
-1.72881e-05
-0.000225364
-8.08535e-05
0.000716827
1.91668e-05
-0.00065514
-8.13314e-05
0.000627831
2.07181e-05
-0.000567217
3.74385e-05
-4.37697e-05
0.000127204
-0.000120873
-4.71764e-05
4.19125e-05
-2.711e-05
3.23739e-05
5.125e-05
-0.00014137
0.000189932
-9.98118e-05
-1.7623e-05
2.71846e-05
6.78821e-06
2.09165e-06
-8.79202e-06
-8.78422e-08
-0.000277019
-6.41815e-05
0.000202085
0.000139115
0.000117603
-0.000123495
3.19154e-05
-2.60228e-05
0.000661964
2.04785e-05
-1.60239e-05
-0.000666418
1.70337e-06
7.98037e-05
-6.23163e-05
0.000513618
-2.62605e-05
3.1862e-05
-0.00051922
0.000222381
-0.000131898
-0.000144925
5.44418e-05
-0.000557785
-1.22365e-05
-6.69336e-05
0.000636955
-0.000555945
-9.1037e-05
1.48381e-05
0.000632144
0.000179942
-1.4999e-06
-0.000189819
1.13769e-05
3.90099e-06
-2.29428e-05
1.00849e-05
8.95698e-06
-6.8983e-05
-3.72701e-05
5.91852e-05
4.70678e-05
-6.37506e-05
6.3906e-05
-3.11553e-05
0.000779103
7.85613e-05
-3.81479e-05
5.10006e-05
4.2872e-06
-9.64686e-06
-0.00116178
-0.000123006
0.00112372
0.000161066
0.000460793
0.000330164
-0.000287272
-0.000503684
8.44875e-05
-4.40021e-05
-3.35772e-05
-6.90812e-06
-0.00011037
0.000126224
-0.000181663
0.000165809
6.0157e-05
-5.84536e-05
-0.000153089
8.11762e-05
-0.000603504
0.000675416
0.000134323
-0.000113119
3.06079e-05
-5.18118e-05
-6.32087e-05
5.86273e-05
2.21996e-05
-1.76183e-05
4.64422e-06
-3.1239e-05
4.0879e-05
-1.42842e-05
0.00017907
-0.000143705
-6.66886e-06
0.00102689
-0.000892758
0.000203229
-0.000337362
-0.000309914
-0.000225365
0.000268424
0.000132298
0.00012526
-0.000118006
-0.000139552
1.84328e-05
7.13063e-06
-2.16624e-05
-0.00021203
0.000186674
-4.36262e-05
0.000159851
-1.88438e-05
3.89354e-05
7.57376e-05
-7.37286e-05
-2.95027e-05
2.74937e-05
1.78734e-05
-6.6154e-05
6.03785e-05
-1.20979e-05
2.30751e-06
-6.48711e-06
0.000228655
-0.000422329
0.000496118
0.00112894
-1.73513e-05
3.00904e-05
-4.08293e-06
1.24135e-05
-0.000181403
0.000173072
-6.01403e-05
0.000208758
-7.5993e-05
0.000134132
-0.000114945
-8.01311e-06
1.29755e-05
-1.9162e-05
-0.00084154
0.000363559
-4.49985e-05
-0.000957299
-0.000568065
0.000191328
7.5281e-05
-8.95369e-06
-8.72619e-05
-2.30821e-06
3.99535e-05
-2.78405e-05
-2.02049e-05
-2.43486e-05
2.74437e-05
6.31519e-06
-2.23512e-05
2.69337e-05
-8.63741e-06
1.73581e-05
0.000133093
-0.000141813
-0.000810871
-9.18263e-05
0.000224247
0.000387551
-0.000365551
-0.000167959
0.00014596
-0.000126725
-0.000916723
5.54172e-05
0.00098803
-6.6516e-05
-0.00100288
0.00103103
3.83613e-05
6.53779e-05
-8.03863e-05
-5.03502e-05
-0.000279982
-0.000316588
0.000336426
2.74934e-05
-1.61014e-05
-2.71521e-05
1.576e-05
-0.000154605
-4.54212e-05
0.000164966
3.50603e-05
-0.0008045
-0.000284726
-0.000176493
-4.36056e-05
-2.09355e-05
0.000241034
7.55176e-05
-1.26833e-05
-7.50845e-05
1.22502e-05
0.000235512
-7.65363e-05
2.34618e-05
-3.41212e-05
-2.65472e-05
4.85506e-05
1.42314e-05
-4.93509e-05
0.000101143
-9.02834e-05
-2.38046e-05
1.29448e-05
9.32796e-06
-6.79622e-06
1.3533e-05
-1.60647e-05
4.13374e-05
0.000651162
-2.80995e-05
-0.0006644
9.13684e-05
0.000678466
-5.42258e-05
-0.000715609
3.09634e-05
5.75748e-05
1.26051e-05
3.0361e-05
-0.00108616
0.00108629
-3.04951e-05
0.000256432
-0.00144829
3.07745e-05
0.00116108
-0.000166943
-0.000100169
8.16803e-05
0.000185433
4.84244e-05
3.59438e-05
-4.52935e-05
-3.90747e-05
0.000332727
-0.000310309
0.000206047
0.000741907
-0.000603512
-0.000751139
2.95473e-06
1.72727e-05
6.43098e-06
-2.66584e-05
6.01799e-05
-4.72684e-05
-6.27815e-05
4.987e-05
-6.70169e-05
2.37332e-05
0.000138171
-9.48877e-05
-0.000734945
0.000234089
0.000478511
2.23447e-05
2.19104e-05
2.43089e-06
-8.04203e-06
-1.62992e-05
-0.000169513
-2.72779e-06
-1.77724e-05
0.000190013
0.000208411
2.1702e-05
8.12382e-06
-0.000238237
-5.46124e-06
7.57319e-05
-7.02706e-05
0.00030458
-0.00120993
-8.8177e-06
1.04375e-05
-1.0089e-07
-1.51895e-06
-3.06362e-06
-4.75874e-05
-9.00823e-06
5.55223e-05
-8.78446e-05
-5.03475e-05
8.26698e-05
0.00103976
-0.00146383
0.000183951
0.000240121
0.00047114
8.82314e-06
1.26637e-05
-0.000492627
-6.0751e-06
-3.15647e-06
6.02321e-05
8.79752e-05
8.71919e-05
-0.000951926
0.000776759
1.94693e-05
5.08521e-05
-7.68216e-05
6.50018e-06
-3.94933e-06
0.000170822
-0.000218277
5.14042e-05
1.22218e-06
-1.22697e-05
1.63467e-05
-5.29922e-06
0.000987959
-0.000662945
8.41176e-06
-0.000168794
0.000164439
1.98972e-05
8.15191e-05
-7.64654e-05
0.000844471
-0.000578584
4.96331e-05
-0.00031552
0.000106137
0.000391868
-5.81782e-05
5.22053e-05
-4.81414e-05
-2.58205e-05
0.000206777
1.20674e-05
-0.000193024
0.000578708
-0.000129978
-0.000428629
-2.01008e-05
2.85744e-06
-4.10628e-06
-8.43324e-06
9.68208e-06
-5.48499e-06
-0.000205444
0.000137116
0.000177289
6.51563e-05
-0.000103083
-9.40805e-05
0.000132008
3.86558e-06
5.77517e-05
1.47827e-06
-1.60901e-06
0.000208541
1.33762e-05
-1.14731e-05
-0.000171416
-9.17581e-06
3.71585e-06
2.73703e-05
0.000212772
-0.000231991
8.08346e-05
-6.16161e-05
0.00114963
-0.0011249
-0.000301889
-9.02698e-06
-0.000623171
0.00019059
0.000538963
4.41682e-05
-4.74286e-05
-7.35387e-06
0.000556724
-6.69323e-05
0.000498168
-0.000154778
-6.13727e-05
0.000121926
-1.15424e-05
4.17675e-05
6.94388e-05
-9.96639e-05
3.37256e-05
-8.10304e-06
-4.35037e-05
1.78811e-05
-8.94047e-05
6.35841e-05
2.52672e-05
-7.51921e-05
6.86727e-05
-1.87477e-05
0.000724565
9.98343e-05
-4.52964e-05
0.000173222
0.000166369
-0.000271496
0.000235649
-0.000463893
0.000468272
-0.000358743
0.000243887
-0.00113772
0.00113983
9.60482e-05
-9.81575e-05
0.000217884
0.000575637
-0.000305185
-0.000404168
-1.82022e-05
-0.000184926
-0.000220471
-0.000291713
0.000499849
-0.000748693
-0.000156159
0.000405002
-0.000817564
0.000369097
-0.000112931
0.000561398
-3.82665e-05
0.000116404
-0.00034886
0.000270723
-2.25706e-05
-5.5075e-05
-0.00106243
0.00114008
8.46733e-05
-0.000378944
0.000769716
0.00017963
-0.000820869
-0.000128477
-4.96974e-06
5.13485e-06
2.92379e-05
0.000732302
-0.00067806
7.47004e-05
0.000648022
-0.000703219
0.000166617
0.000551341
-0.000512745
7.26215e-05
-4.9153e-07
7.62472e-05
-2.3801e-07
0.000122204
3.99099e-05
-9.69579e-05
5.09808e-05
-7.90641e-05
6.84211e-05
-4.03379e-05
0.000642167
-0.000542456
-6.43273e-05
-3.53838e-05
0.000683508
-0.000580939
-2.00314e-05
-8.25382e-05
0.000102655
0.00154427
-0.00121177
-0.000435156
6.17821e-06
-2.24736e-06
-1.42839e-05
1.03531e-05
-0.000992911
-0.000637354
0.00105486
0.000575405
-1.19335e-05
1.53902e-05
-5.52631e-06
2.06955e-06
2.05922e-05
-3.111e-05
-2.81251e-05
3.86429e-05
2.22253e-05
-5.31969e-05
-5.92539e-05
9.02255e-05
0.000117761
-4.44096e-05
0.000651214
0.000590648
-0.000832976
0.000342946
0.000596079
-0.000822939
0.000350296
1.89382e-05
8.56611e-05
-6.78285e-06
1.32317e-05
3.75064e-05
-4.39553e-05
0.000612508
-7.01219e-05
0.000144607
-2.75374e-06
1.90438e-05
-8.12851e-06
-0.000121336
-0.000163858
4.95764e-05
0.000235617
0.000173507
0.000798276
-0.000641618
-0.000298742
-0.000348131
0.000367523
0.00067561
-0.000637148
-0.000166268
0.000127806
-4.55304e-05
5.21428e-06
3.84039e-05
0.000115616
-1.4868e-05
6.12895e-05
0.000119449
-3.30728e-05
4.50659e-05
-3.75725e-05
9.42852e-05
0.000531066
-0.000640664
0.000109598
-0.000403145
0.000288546
-0.00127238
0.00138698
-0.00019161
0.00015848
0.00029157
-0.000258439
7.4612e-05
3.24795e-05
-5.49954e-05
-5.20961e-05
-0.000441083
-3.07258e-05
0.000604532
-0.000132723
0.000222367
-0.00018691
-0.000389383
-7.29266e-06
-1.70271e-06
2.17856e-07
9.47279e-05
-7.82603e-05
5.81444e-05
-7.28192e-05
7.85651e-05
5.4434e-05
-4.81725e-05
1.6725e-05
7.21825e-05
-4.0735e-05
0.000197447
-0.000208631
0.000123085
-0.000111901
4.68018e-05
2.36252e-05
9.09919e-05
-5.47905e-05
7.4994e-07
5.56132e-05
-1.99592e-05
4.47155e-05
-6.65497e-05
4.17935e-05
1.14977e-05
2.77868e-06
-4.22065e-06
-1.00557e-05
3.81366e-05
-5.65705e-06
-0.000126618
5.00961e-05
-9.04216e-05
4.73497e-05
-3.90054e-05
4.00801e-05
-1.08532e-05
7.37848e-05
1.2806e-05
-0.00065829
-0.000385883
0.000794817
0.000249356
0.000822395
-0.00104084
0.000356414
-0.000137972
8.99162e-06
2.69574e-05
-3.12087e-05
-4.74037e-06
-9.46942e-06
0.000290481
-0.000341203
6.01909e-05
-8.29915e-05
5.79762e-05
1.6662e-05
8.35326e-06
-0.00132944
0.00116777
-0.000248132
0.000409805
0.000381062
-0.00032557
-0.000130603
7.51115e-05
1.18196e-05
0.00069567
-0.000693368
-1.41212e-05
-0.000347611
1.99057e-05
0.000136398
-0.000555812
0.000535018
-0.000115603
0.00016671
-0.000647747
0.000649316
-0.000168278
-0.000102783
-0.000754273
0.000857056
-9.72034e-06
3.90686e-06
-1.31554e-05
1.89689e-05
1.26931e-06
-2.81128e-06
-9.36538e-07
2.47852e-06
0.00016351
-0.000110698
0.000127436
-0.000180248
-9.26562e-05
-0.000203077
0.000228717
-6.24061e-06
5.32137e-06
-7.89846e-06
-0.000142685
-6.8364e-06
9.8451e-05
5.10704e-05
-0.000126231
-4.43779e-07
9.61397e-05
3.05349e-05
-2.61809e-05
2.8516e-07
0.000357079
-0.000331184
0.00105804
-0.00107864
-6.49916e-05
8.56e-05
-0.00019054
1.7422e-05
0.000124292
7.02152e-06
-0.000131314
-1.36475e-05
0.000203314
-7.26761e-06
-0.000182399
1.03479e-05
-5.74681e-05
-7.51735e-06
5.46376e-05
-1.65999e-05
2.17725e-05
-7.89012e-05
4.36751e-05
-4.83309e-05
0.000164506
-8.16411e-06
4.89461e-05
-0.000252812
-7.12486e-06
-2.732e-06
2.82896e-05
0.000651611
4.9722e-05
-6.89592e-05
0.000600536
3.18008e-05
-4.49258e-05
-0.000548665
2.37242e-05
-3.20419e-05
-0.000545366
-3.9322e-05
-3.29298e-05
-0.000363247
-0.000190038
0.000215014
-0.000980557
-0.000170677
0.000280999
8.46223e-05
-2.54063e-06
-2.90389e-06
-0.000101277
-0.00113287
0.00115389
-5.57129e-05
4.52017e-05
-0.000178894
-9.70599e-05
-1.6526e-05
-9.23072e-05
0.000677399
-0.000194936
-0.000563794
0.000687554
-0.000181099
-0.000587308
-2.7273e-05
3.60002e-06
0.000186315
-0.000162642
-5.58464e-06
0.000676331
4.86428e-06
-0.000109447
0.000138596
-1.75387e-06
-2.73952e-05
4.4902e-05
-5.38098e-05
3.9201e-05
-3.02931e-05
3.56124e-05
-2.6945e-05
8.77887e-06
-6.27816e-06
-2.12339e-06
5.73484e-05
-1.72088e-05
-6.60302e-05
1.21056e-05
7.11334e-05
0.000254617
-1.78677e-05
3.16848e-05
-0.000268434
-0.000329491
-7.83438e-05
6.02243e-05
-0.000400568
0.000280773
0.000349829
3.87703e-06
-1.41722e-05
1.66104e-05
3.43542e-05
1.2581e-05
-5.31352e-07
3.69375e-05
-7.97669e-05
7.98949e-05
-3.70655e-05
-0.000353817
4.25485e-05
0.000327584
-1.63159e-05
0.000304225
0.000362261
-0.000586682
-7.98044e-05
0.000225309
-0.000594471
-0.000289128
0.000464257
0.000334145
-0.000648985
-0.000149417
-7.33537e-05
6.1822e-05
3.70235e-06
7.82944e-06
0.000113799
0.000163302
-0.00101205
3.5764e-05
-1.52233e-05
-2.78334e-05
-1.92891e-05
-1.85943e-05
3.07585e-05
-0.000121106
7.30665e-05
9.17144e-05
0.000898958
-2.32444e-05
-0.00076613
-0.000109583
-8.61127e-06
1.64115e-06
-9.33468e-05
-0.000192224
-4.0687e-06
7.98006e-05
-0.000103767
0.00111028
0.000155234
-7.19206e-05
0.000195654
8.90394e-05
-0.000403337
0.00032578
0.000521288
-0.000443731
0.000274851
-0.000254717
0.000445337
-0.000465471
1.12765e-05
7.14983e-05
-9.51686e-06
-7.32579e-05
1.63507e-05
-1.41181e-05
-1.19131e-05
9.68051e-06
-0.000252648
4.56802e-05
4.72309e-05
0.000159737
-0.00110712
0.00110227
9.20454e-05
-0.000719384
0.000467664
-0.000652407
0.00055888
-0.000386621
-0.000179726
0.000165778
0.000110535
-3.74201e-05
0.000859898
-0.00102768
-0.00026279
0.000430568
-0.000226707
-0.000988109
0.00118949
2.53218e-05
-0.00104797
0.00107724
-0.000130542
-0.000494695
0.000439101
0.000359784
-0.00030419
-0.000269566
0.000278065
1.67533e-05
-2.52522e-05
-0.000129488
-4.09768e-05
2.64051e-05
-0.000642327
0.00074624
-0.000489795
0.000153629
-1.19797e-05
-2.48765e-05
1.42079e-05
1.63111e-05
-5.64258e-06
-0.000174742
0.000166376
-2.16546e-05
8.44271e-06
9.78342e-05
-0.000917156
0.000880678
-0.000275867