/*--------------------------------*- C++ -*----------------------------------*\
| =========                 |                                                 |
| \\      /  F ield         | OpenFOAM: The Open Source CFD Toolbox           |
|  \\    /   O peration     | Version:  v1912                                 |
|   \\  /    A nd           | Website:  www.openfoam.com                      |
|    \\/     M anipulation  |                                                 |
\*---------------------------------------------------------------------------*/
FoamFile
{
    version     2.0;
    format      ascii;
    class       volScalarField;
    location    "0.21";
    object      nut;
}
// * * * * * * * * * * * * * * * * * * * * * * * * * * * * * * * * * * * * * //

dimensions      [0 2 -1 0 0 0 0];


internalField   nonuniform List<scalar> 
1466
(
0.00201708
0.00226249
0.000635395
0.0024144
0.000582694
0.000885091
0.00303532
0.000844014
0.000745939
0.0018345
0.00267869
0.00103954
0.000724949
0.000765723
0.00155017
0.00381339
0.00122052
0.000655682
0.00199142
0.00241745
0.0021285
0.00411912
0.00172129
0.00249459
0.000752988
0.000877863
0.00297887
0.00169586
0.00049766
0.00411688
0.00247953
0.00299033
0.000721377
0.00112322
0.00285553
0.000683454
0.00134423
0.000915658
0.00222296
0.000954118
0.00126849
0.00150506
0.00155789
0.000931308
0.000623261
0.00149819
0.002326
0.000358909
0.00039778
0.000519504
0.00068941
0.00184764
0.000881151
0.000393356
0.000440043
0.0010169
0.00162252
0.00239973
0.00123191
0.0019935
0.00106046
0.00296375
0.00129321
0.00335694
0.00319789
0.000585248
0.00231907
0.00166632
0.00196555
0.000219756
0.00173836
0.000623767
0.00070964
0.000909013
0.000956844
0.00239407
0.00288918
0.00119858
0.00130875
0.00369011
0.00230432
0.00318644
0.000331811
0.00145568
0.00225767
0.00206358
0.000926483
0.00307257
0.00235351
0.00118714
0.00120612
0.00215738
0.000737119
0.00402591
0.000828238
0.000572602
0.00208454
0.00216724
0.000828611
0.000368184
0.00094233
0.000539389
0.000376743
0.000323988
0.00182166
0.00059618
0.000598909
0.000333052
0.00197837
0.00197814
0.00102987
0.00284733
0.00240711
0.00141518
0.00134806
0.00229032
0.00173372
0.00082632
0.00277674
0.00101382
0.00323812
0.00413175
0.00122803
0.000956266
0.000609391
0.000773499
0.00252376
0.00179316
0.0020875
0.00442499
0.00178274
0.00139407
0.00158718
0.0023847
0.00219974
0.000969876
0.000687163
0.00108547
0.00161216
0.000933625
0.000652324
0.00189575
0.00219408
0.00171511
0.00429431
0.00247209
0.00320969
0.00535593
0.00500027
0.00193241
0.00156143
0.00364295
0.00228919
0.000766601
0.00515283
0.00393506
0.00195515
0.000752776
0.0039212
0.00160905
0.00326578
0.00331126
0.000775892
0.00209398
0.00233284
0.00262475
0.002244
0.00194571
0.00221768
0.00276894
0.00236818
0.00201626
0.000516559
0.00209462
0.000999113
0.000869569
0.0039499
0.00458546
0.00104299
0.00156968
0.000827553
0.0032656
0.00263179
0.000446986
0.00296262
0.0022977
0.00235437
0.00129132
0.00194616
0.00144821
0.00252764
0.00110023
0.000676476
0.00286774
0.00150085
0.00149042
0.000253155
0.00319096
0.00205058
0.00251036
0.000516148
0.0048146
0.00326982
0.00171168
0.00184233
0.002065
0.00237878
0.00249042
0.0039701
0.0024886
0.00188694
0.00206015
0.00220183
0.00215966
0.00227232
0.00212041
0.00253651
0.00243804
0.00155251
0.00224441
0.00188944
0.00279802
0.00209838
0.00150118
0.00213599
0.00209446
0.000578991
0.000776886
0.00120802
0.00289176
0.00124937
0.00298929
0.00290917
0.00431826
0.00107427
0.0021789
0.00222907
0.00182154
0.00432287
0.00253022
0.00145129
0.00352468
0.00342649
0.00223777
0.00333089
0.00303055
0.00241449
0.000896056
0.00402306
0.00319264
0.00255836
0.00352036
0.00236764
0.00229655
0.00236296
0.00546417
0.00199703
0.00108332
0.00114499
0.00120237
0.000759391
0.00152417
0.00227678
0.00323627
0.00214796
0.000366741
0.00100506
0.00513361
0.00205289
0.00125084
0.00083155
0.00118388
0.000634143
0.00370322
0.00171178
0.00142858
0.00170694
0.00239286
0.00235822
0.00484459
0.00469282
0.00305505
0.00261921
0.00303189
0.0030267
0.000966187
0.0054168
0.00553479
0.00111159
0.00185501
0.00168146
0.00193319
0.00077506
0.000953317
0.00206504
0.000782415
0.00124721
0.00092876
0.00507644
0.00317742
0.000649483
0.00167153
0.000217178
0.000849542
0.00107374
0.0029457
0.00343136
0.00156222
0.00311264
0.00330153
0.00221934
0.00229891
0.00200705
0.00537182
0.00510098
0.00429912
0.00311861
0.00350764
0.00172781
0.0023225
0.000589071
0.00121862
0.000864683
0.00320235
0.00107128
0.00165335
0.000871544
0.00352316
0.00377695
0.00275066
0.00174757
0.00175064
0.000947999
0.00210707
0.00282153
0.000847685
0.00300191
0.00469371
0.00344542
0.00246309
0.00117185
0.00258353
0.00127324
0.00450699
0.00294216
0.000190014
0.00286371
0.00345121
0.00200023
0.00278353
0.00137479
0.000917634
0.0024787
0.00332572
0.00256881
0.00323594
0.000813344
0.000563537
0.00103577
0.00330218
0.00286338
0.003076
0.0027079
0.00211182
0.00140871
0.0025092
0.00221618
0.00207078
0.000719401
0.0022397
0.00290372
0.00344043
0.00157744
0.00237788
0.00122524
0.00182197
0.000952413
0.00157438
0.00431905
0.00213045
0.00307482
0.00324044
0.00320719
0.00325657
0.00332888
0.00327745
0.00140997
0.00141893
0.00143432
0.00140028
0.00397505
0.00267885
0.00192907
0.00293358
0.00324258
0.0023274
0.00128888
0.00161551
0.00294823
0.000674837
0.00114184
0.000932984
0.00271152
0.000842633
0.00279276
0.00541338
0.00266312
0.00134524
0.00457905
0.00489672
0.00239407
0.00285966
0.00271465
0.0052256
0.00282279
0.00081452
0.000873079
0.00207084
0.00264256
0.00316491
0.00486387
0.00503899
0.00293328
0.00255078
0.00340547
0.00155622
0.00448269
0.00161741
0.00327559
0.00113028
0.00239715
0.00275945
0.000889004
0.00167427
0.00471427
0.000653463
0.00163432
0.000916295
0.000666929
0.00194149
0.00144793
0.00152458
0.00187769
0.00166273
0.00485402
0.00434808
0.00124174
0.00437152
0.00481885
0.00149809
0.00380733
0.00454491
0.00161764
0.000853322
0.00359553
0.00158467
0.000759683
0.000560179
0.00158345
0.00422126
0.00117178
0.00426615
0.000569553
0.00091857
0.000676378
0.0048694
0.00335895
0.00441088
0.00402497
0.0033535
0.00436429
0.000627301
0.000523348
0.000847102
0.00401323
0.00425033
0.00193231
0.00234132
0.0035503
0.00236921
0.00238023
0.000929617
0.00109163
0.00342053
0.00275114
0.0022816
0.0038618
0.00234076
0.00376698
0.00294458
0.00290496
0.00167972
0.00129567
0.00327201
0.00178122
0.00239121
0.00164758
0.00326119
0.0046146
0.00244053
0.00336296
0.00340095
0.000571835
0.000715543
0.00122843
0.00286474
0.0039391
0.00368028
0.00420766
0.00185455
0.00626507
0.00258994
0.00179387
0.0016239
0.00153482
0.00227258
0.00397123
0.000842941
0.00126823
0.00118892
0.00326175
0.00373785
0.00444787
0.00277321
0.00243896
0.00353404
0.00373056
0.00232003
0.0035381
0.00332978
0.00133742
0.00167911
0.00340855
0.00271719
0.00253643
0.00390312
0.00177662
0.00424323
0.00385033
0.000888636
0.00213101
0.000709258
0.00121224
0.00171537
0.00342272
0.00198078
0.00319641
0.00158067
0.00480228
0.00349961
0.00358038
0.00357533
0.00249942
0.00297072
0.00166598
0.00161167
0.00172379
0.00214642
0.00152383
0.00155488
0.00330746
0.00294304
0.00435854
0.00350813
0.00113138
0.00224125
0.0030455
0.00449768
0.00445771
0.00186992
0.00113382
0.00456347
0.00436918
0.00492557
0.00176232
0.00306127
0.000939694
0.00209798
0.00215039
0.00243274
0.00216255
0.00173392
0.00195601
0.00253483
0.00276031
0.00194808
0.00326287
0.00102578
0.00211034
0.00239238
0.00102527
0.00192234
0.00231815
0.00233361
0.00246964
0.00213423
0.00177778
0.0027836
0.00202234
0.00396329
0.0045083
0.00133737
0.00111502
0.00235242
0.00288128
0.00221888
0.00625043
0.000650438
0.000546184
0.0032712
0.00156329
0.00108328
0.0019676
0.00163913
0.000715535
0.00324253
0.00462752
0.00258848
0.00180197
0.00312255
0.00238713
0.00105464
0.00628093
0.00130711
0.001756
0.00285441
0.000428003
0.00220893
0.00254652
0.00152214
0.00255475
0.00200008
0.00189977
0.00115653
0.00261568
0.0012711
0.00339397
0.00417427
0.00553389
0.000605925
0.00495833
0.00319468
0.0025666
0.00213033
0.00341442
0.00129348
0.00257222
0.00383241
0.00266294
0.00247298
0.00313488
0.000954494
0.00494056
0.00100677
0.00336001
0.00330558
0.0037218
0.000421362
0.00454796
0.000918232
0.0044767
0.00310656
0.00150097
0.00140851
0.00297123
0.00406403
0.00181036
0.0053151
0.00083115
0.00408345
0.00133671
0.00496102
0.0030761
0.00104924
0.000535261
0.000648979
0.00218839
0.000633295
0.00206616
0.00169628
0.000786192
0.00123669
0.00106695
0.000968044
0.000676667
0.0033799
0.000729452
0.000417648
0.00229016
0.000477209
0.00328969
0.00160745
0.00154867
0.00261992
0.000723213
0.000443052
0.00267785
0.00370829
0.000721363
0.00235112
0.00341789
0.000746045
0.000418407
0.00332545
0.00323012
0.00283434
0.00513228
0.00207651
0.000474826
0.00309388
0.00149154
0.00264326
0.00211118
0.00237577
0.00500471
0.000676997
0.00146791
0.00314984
0.00261096
0.00440979
0.00215385
0.00415445
0.00154393
0.00142891
0.000392136
0.00198877
0.000703692
0.00345556
0.00324439
0.000193284
0.00354536
0.000543587
0.00400399
0.000787964
0.000904998
0.00229748
0.00074479
0.0042913
0.00083069
0.00459873
0.00126061
0.00276756
0.00334182
0.000651068
0.00104611
0.00285846
0.000756434
0.000241785
0.00154054
0.00277149
0.000894029
0.00252537
0.00103461
0.00090665
0.00162523
0.00120036
0.00205194
0.000877844
0.00123632
0.00179168
0.00215186
0.00142219
0.00207334
0.00529429
0.00452131
0.00349082
0.00193611
0.00344098
0.000667795
0.00258369
0.0061002
0.00151589
0.00143015
0.0041429
0.00421831
0.002585
0.00487007
0.000621084
0.00331841
0.00243203
0.00332002
0.00291678
0.00180339
0.00146023
0.00286196
0.00075657
0.00258192
0.00140516
0.00320132
0.00266804
0.00316285
0.00292329
0.00243263
0.00181479
0.00475984
0.00138533
0.00467361
0.00356999
0.000857624
0.00315003
0.00300899
0.00221483
0.00163125
0.00121243
0.00136985
0.000739491
0.000192689
0.0011253
0.00401066
0.00147978
0.000779681
0.00369939
0.00182693
0.00194999
0.0019439
0.00095272
0.00256501
0.00191252
0.00177783
0.00439598
0.00294031
0.00326419
0.00195226
0.00462926
0.00183916
0.00405555
0.00259525
0.00119973
0.00142856
0.00178596
0.00385863
0.00270255
0.00167393
0.00504946
0.00171226
0.00167937
0.00132105
0.000558894
0.00209917
0.00247639
0.0019626
0.0034274
0.00339546
0.00225078
0.004408
0.00208309
0.000768135
0.00124426
0.00321588
0.00136846
0.00339723
0.0026979
0.00291513
0.00222163
0.00306525
0.00574081
0.00311187
0.00183189
0.0028937
0.00257279
0.00404707
0.00138475
0.000893707
0.00331989
0.000832526
0.00116662
0.00284907
0.000574816
0.00545375
0.00191911
0.00248269
0.00070816
0.00170514
0.00411561
0.00366314
0.00344364
0.0035698
0.000832663
0.000784375
0.000823468
0.000579527
0.000664931
0.000662393
0.000549031
0.000839069
0.000687911
0.000687011
0.000831198
0.000808755
0.000779092
0.000768238
0.000669562
0.000665856
0.000606851
0.00067584
0.000621865
0.000555665
0.000570714
0.000501207
0.000755603
0.000765455
0.000792847
0.000782774
0.00294526
0.000723955
0.000229073
0.00321861
0.00166425
0.000810249
0.00373495
0.000754544
0.00103345
0.00351915
0.00169832
0.00267106
0.0016285
0.000738031
0.00123186
0.00102638
0.00359808
0.00190463
0.00598975
0.00257706
0.00411194
0.00276276
0.00464168
0.00453293
0.000807244
0.00290379
0.00107709
0.000931885
0.000497208
0.000851501
0.0014644
0.00289715
0.0025829
0.0014566
0.000837543
0.00136485
0.00303286
0.000990912
0.00340802
0.00119953
0.00161643
0.00308318
0.00129794
0.00555587
0.000709932
0.00199083
0.00139698
0.00218355
0.00260915
0.00409697
0.00469558
0.000615544
0.00283282
0.00078685
0.00259324
0.00401876
0.00448299
0.00475899
0.00105717
0.000737522
0.000773304
0.00168918
0.00263197
0.000786247
0.00216004
0.00327768
0.0037801
0.000826006
0.00245027
0.00447171
0.00240302
0.00323337
0.00209568
0.00268113
0.000697368
0.000641681
0.00219203
0.0024077
0.00193123
0.00256746
0.0022868
0.00119169
0.000775873
0.00333359
0.00327903
0.00219016
0.00149885
0.00114495
0.0006489
0.000793967
0.00361601
0.00257791
0.00273602
0.00424091
0.00221684
0.000534861
0.000945529
0.002906
0.00261231
0.002658
0.00113941
0.000496615
0.00331201
0.00127131
0.000630417
0.000462324
0.00073935
0.0011534
0.000703985
0.00151201
0.000173075
0.00199672
0.000712498
0.00471585
0.00603715
0.00225038
0.00402246
0.000601575
0.000696471
0.00516831
0.00288189
0.00170524
0.00074591
0.000729427
0.00180813
0.00252517
0.00155737
0.0040644
0.00234561
0.00294942
0.00198641
0.00194049
0.00333393
0.00542345
0.000883294
0.00291613
0.000800364
0.00253935
0.000842361
0.00148203
0.000693671
0.000756561
0.00107145
0.000907749
0.000385424
0.000707802
0.00474766
0.00377394
0.00118186
0.00174844
0.000849824
0.00094558
0.00386675
0.0058655
0.0022987
0.0049313
0.00132979
0.00148884
0.000934539
0.000731311
0.000763517
0.00068064
0.00293331
0.00043233
0.00504154
0.00138079
0.000118374
0.00253566
0.00313657
0.000348723
0.00146357
0.000494241
0.00206451
0.000956033
0.000458799
0.000519589
0.00307923
0.00196821
0.000724356
0.000755332
0.000336465
0.000390568
0.00035677
0.000337727
0.0010074
0.00102826
0.000548908
0.000596301
0.000594187
0.000557615
0.000925028
0.00284772
0.00179815
0.00548352
0.00555967
0.00280706
0.00405593
0.00376832
0.000707184
0.00074738
0.00283845
0.00375428
0.00161042
0.000726767
0.00248432
0.00359163
0.00503986
0.0024005
0.000491524
0.00263554
0.00281403
0.00449017
0.000272764
0.00288892
0.00269502
0.0024692
0.0017757
0.00199808
0.00138035
0.00311378
0.000643567
0.000579637
0.000877744
0.00111905
0.00415884
0.00323194
0.0028079
0.00263671
0.00307717
0.00191077
0.00258516
0.00262532
0.0034722
0.00441778
0.00282154
0.00110863
0.00471598
0.0033114
0.000955913
0.000684121
0.000494184
0.00183091
0.00321378
0.00189664
0.00366039
0.00188866
0.00317289
0.00285933
0.00105522
0.00105997
0.00141263
0.00219307
0.000518466
0.0016195
0.00276678
0.00503355
0.00317354
0.00118103
0.00123983
0.000607756
0.000677292
0.00264073
0.00356153
0.00263926
0.00443746
0.00387076
0.00163758
0.00394599
0.00324734
0.0024339
0.0016585
0.00162347
0.00453135
0.00319493
0.00276849
0.00371071
0.00496582
0.00367567
0.00155555
0.00225506
0.00211186
0.00257298
0.00150349
0.00228891
0.00215009
0.00336542
0.00258447
0.00292434
0.00146103
0.00475625
0.00245211
0.00395144
0.00226819
0.00290633
0.00124623
0.00282119
0.000939115
0.00391072
0.00247829
0.00161349
0.00271046
0.00278886
0.006179
0.00210998
0.000958247
0.00161159
0.00357696
0.0030239
0.000750973
0.00529925
0.00320372
0.00109506
0.000916484
0.00128885
0.000909566
0.000539082
0.00166975
0.00328839
0.000669043
0.00284247
0.000887211
0.00269181
0.00189952
0.000801745
0.00137211
0.00165856
0.00481604
0.00272931
0.00426775
0.00146515
0.00120857
0.00144751
0.00191521
0.00368981
0.000617186
0.000653214
0.00135162
0.00113415
0.00509294
0.00153644
0.0020265
0.00252331
0.00211272
0.000457081
0.000533673
0.00328872
0.00166018
0.000858463
0.00123579
0.000984773
0.00162786
0.00208572
0.00188787
0.00477969
0.00130202
0.00120514
0.00145529
0.00226836
0.00311608
0.00251917
0.00226183
0.00520191
0.00454038
0.00180952
0.000456078
0.00176257
0.000457983
0.000771737
0.00319537
0.00256321
0.000508486
0.00413382
0.00399307
0.00335645
0.00361286
0.00236251
0.00249098
0.0018023
0.000933431
0.00193235
0.00527564
0.000633745
0.00165203
0.000657713
0.00307072
0.00312698
0.00133237
0.00334711
0.0020048
0.00208117
0.00183641
0.0010589
0.000571546
0.00112882
0.00112064
0.000988232
0.00169457
0.00215783
0.00245766
0.00234098
0.00229717
0.00432753
0.000909047
0.00181508
0.00242667
0.00279235
0.00121577
0.00312693
0.00241757
0.00289168
0.00109895
0.00309262
0.00548706
0.00326402
0.001004
0.000214376
0.00247925
0.00255711
0.00303473
0.00353307
0.00393704
0.000257269
0.00313328
0.000232125
0.000891109
0.00075182
0.000724888
0.000797742
0.00165753
0.000214998
0.00340938
0.0028435
0.00347303
0.000634808
0.000883117
0.00416781
0.000758927
0.00211474
0.00153156
0.00273396
0.00339083
0.00137124
0.00348627
0.0034009
0.00346607
0.00183251
0.00327773
0.00085183
0.00478961
0.00343078
0.0028559
0.000793486
0.00378428
0.00279602
0.00183969
0.0031511
0.00347466
0.00336061
0.00214162
0.00301281
0.000789327
0.00326592
0.00439095
0.00218754
0.000598553
0.000124486
0.000274231
0.00224926
0.00250904
0.00287868
0.00223945
0.00344364
0.00052595
0.0019937
0.00450087
0.00219035
0.00356811
0.00349578
0.00227846
0.00361594
0.00542594
0.000763222
0.00163433
0.00188646
0.00120309
0.00217061
0.000724519
0.00222866
0.00210751
0.0023123
0.00198763
0.00188664
0.00304884
0.00204742
0.00205283
0.00232638
0.00144804
0.000740602
0.00075283
0.00286079
0.0026986
0.00505783
0.00161807
0.00221296
0.00225595
0.00222628
0.00244419
0.00142814
0.00334629
0.00532444
0.00359013
0.000565632
0.00253993
0.00205088
0.00207651
0.00187738
0.00309687
0.00365128
0.00381658
0.0055313
0.00211217
0.00145657
0.000742561
0.00385074
0.00170593
0.00209878
0.00219823
0.00174781
0.00182186
0.00100817
0.00121163
0.0008887
0.00079821
0.00157663
0.0017815
0.00151958
0.00178027
0.000353456
0.000833229
0.00129473
0.000427669
0.00088497
0.000574712
0.000933612
0.00231661
0.00161638
0.000410621
0.000846174
0.00193958
0.000735697
0.000842872
0.0009691
0.00104496
0.00128472
0.000723865
0.000483584
0.000293167
0.000316838
0.0018928
0.000272488
0.00145539
0.00120578
0.00204584
)
;

boundaryField
{
    frontAndBack
    {
        type            empty;
    }
    wallOuter
    {
        type            nutkWallFunction;
        Cmu             0.09;
        kappa           0.41;
        E               9.8;
        value           nonuniform List<scalar> 
108
(
7.88859e-05
7.3328e-05
7.76815e-05
2.38082e-05
2.00536e-05
8.25616e-05
8.86689e-05
5.07142e-05
5.5122e-05
8.83339e-05
5.37909e-05
8.75443e-05
9.08447e-05
4.98154e-05
5.72931e-05
2.04514e-05
8.3816e-05
9.13191e-05
2.81112e-05
7.48976e-05
2.10018e-05
8.77649e-05
6.55198e-05
9.26215e-05
9.45406e-05
9.03443e-05
9.23204e-05
6.63219e-05
7.78754e-05
7.50184e-05
6.38436e-05
9.91075e-05
7.98125e-05
7.91631e-05
9.83834e-05
9.54763e-05
9.1862e-05
9.15221e-05
7.81821e-05
7.61857e-05
7.31478e-05
8.10886e-05
7.06e-05
6.25295e-05
6.36119e-05
5.59581e-05
8.88867e-05
8.96002e-05
9.2178e-05
8.64853e-05
2.50906e-05
8.92508e-05
9.31944e-05
5.93493e-05
8.50496e-05
8.42291e-05
9.31794e-05
8.90849e-05
5.7083e-05
1.86226e-05
7.26171e-05
8.89973e-05
7.81839e-05
0.000100927
9.12183e-05
4.26334e-05
0.000112636
8.85649e-05
9.18989e-05
5.0053e-05
1.03815e-05
1.03815e-05
3.91164e-05
5.88223e-05
5.46872e-05
6.19003e-05
8.5591e-05
3.85631e-05
4.65613e-05
4.06839e-05
3.96472e-05
0.000119588
0.000121953
6.51893e-05
7.09118e-05
7.10302e-05
6.65473e-05
0.000110262
8.42253e-05
7.99689e-05
5.89436e-05
3.23267e-05
6.98728e-05
6.85527e-05
0.000124937
0.000125433
7.22033e-05
7.28537e-05
0.000108526
6.05026e-05
6.90613e-05
0.000117403
2.28609e-05
2.66079e-05
2.32472e-05
1.12017e-05
3.00649e-05
5.87345e-05
)
;
    }
    inlet
    {
        type            calculated;
        value           nonuniform 0();
    }
    outlet
    {
        type            calculated;
        value           nonuniform 0();
    }
    wallInner
    {
        type            nutkWallFunction;
        Cmu             0.09;
        kappa           0.41;
        E               9.8;
        value           nonuniform List<scalar> 
126
(
0.000105829
0.000251948
9.35748e-05
0.000132323
0.000161038
0.000168346
0.000105238
7.32465e-05
0.000167752
0.000255847
3.94664e-05
4.35589e-05
5.80884e-05
7.23726e-05
0.000213711
8.80668e-05
4.62331e-05
4.92988e-05
0.000120528
0.000184982
0.000261772
0.000141186
0.000213451
0.000152179
6.25886e-05
0.000237086
0.000239384
9.92216e-05
4.44846e-05
9.91971e-05
5.85607e-05
4.16404e-05
3.79898e-05
0.000195434
7.11591e-05
5.9056e-05
3.80559e-05
0.000217328
0.000223677
0.000152356
0.00013427
0.000110189
7.36399e-05
0.000201073
0.000148977
0.000102411
7.22809e-05
0.000123665
7.33656e-05
9.6025e-05
0.000113887
2.953e-05
0.000128262
0.000143846
9.1317e-05
4.16981e-05
0.000117635
0.000100421
0.000132733
7.66772e-05
0.000221241
0.000112248
9.00443e-05
0.000139507
6.96474e-05
0.000136582
0.00010755
6.8743e-05
8.87095e-05
0.000186714
0.000186106
0.000190332
8.24354e-05
0.000191295
0.000106451
0.000194042
8.04896e-05
0.000105532
0.000180722
0.000195766
0.000188591
0.000190316
0.000187675
0.000194418
0.00019271
4.72463e-05
4.83571e-05
4.76131e-05
0.000130071
5.67722e-05
7.5788e-05
0.000153535
8.41136e-05
0.00020304
0.000119356
0.000123765
0.000106193
9.70736e-05
0.000171913
0.000172774
0.000209347
4.24322e-05
9.46203e-05
0.000148904
4.84287e-05
9.57086e-05
7.41214e-05
0.000101144
0.000263031
0.000189599
4.94981e-05
9.66215e-05
0.00022499
8.8498e-05
0.000100902
0.000115267
0.000112828
0.000147862
7.91008e-05
5.82816e-05
3.52439e-05
3.80312e-05
0.000218251
3.21379e-05
0.000171928
0.000137962
)
;
    }
    procBoundary1to0
    {
        type            processor;
        value           nonuniform List<scalar> 
29
(
0.000864026
0.000864026
0.00133601
0.00285271
0.00430882
0.00157865
0.00273477
0.00104695
0.00290049
0.00208048
0.00182939
0.00157865
0.00133601
0.000709964
0.00197756
0.00106614
0.00430882
0.00354302
0.00285271
0.00077979
0.000812985
0.000732386
0.00371797
0.000712091
0.000712091
0.00371797
0.00071599
0.000916938
0.00071599
)
;
    }
    procBoundary1to2
    {
        type            processor;
        value           uniform 0.00114322;
    }
    procBoundary1to3
    {
        type            processor;
        value           nonuniform List<scalar> 
48
(
0.00148062
0.00125405
0.00127306
0.00127306
0.00159974
0.00111297
0.00111297
0.00275505
0.00160098
0.00075343
0.000743666
0.00075343
0.000706747
0.00178271
0.00174334
0.000706747
0.000607417
0.000607417
0.000747502
0.000747502
0.00179902
0.0017756
0.00100408
0.000907035
0.000907035
0.0010238
0.00190004
0.00190004
0.00238727
0.00142702
0.00129041
0.00238727
0.00275505
0.00177579
0.000849865
0.00142702
0.00242248
0.000743666
0.00152656
0.00175657
0.00191846
0.0020395
0.00177579
0.000849865
0.00149177
0.000641739
0.0017081
0.00191846
)
;
    }
}


// ************************************************************************* //
