/*--------------------------------*- C++ -*----------------------------------*\
| =========                 |                                                 |
| \\      /  F ield         | OpenFOAM: The Open Source CFD Toolbox           |
|  \\    /   O peration     | Version:  v1912                                 |
|   \\  /    A nd           | Website:  www.openfoam.com                      |
|    \\/     M anipulation  |                                                 |
\*---------------------------------------------------------------------------*/
FoamFile
{
    version     2.0;
    format      ascii;
    class       volScalarField;
    location    "0.04";
    object      epsilon;
}
// * * * * * * * * * * * * * * * * * * * * * * * * * * * * * * * * * * * * * //

dimensions      [0 2 -3 0 0 0 0];


internalField   nonuniform List<scalar> 
1431
(
7.27856
4.61655
2.91269
3.33254
3.08912
3.18334
2.73872
48.8664
2.88987
3.12185
62.1872
18.7552
3.88869
4.2028
2.77395
2.65831
3.1161
2.60313
3.32782
2.84827
148.382
3.54491
4.20795
11.0303
3.20763
5.37518
29.1569
2.52409
5.74677
12.886
5.17263
3.97568
5.81164
8.05624
2.63893
2.98186
2.42337
2.82691
3.21757
4.09433
2.76971
2.5469
5.00397
2.589
5.01862
2.66485
5.2548
19.2297
2.64871
2.4467
4.57811
2.58631
4.58902
19.1239
3.3932
5.64069
4.55114
25.1049
4.11032
3.04439
3.0756
3.44665
3.42728
3.19196
4.1607
4.37242
3.26285
3.36713
3.27867
3.99975
14.4421
4.78735
3.99705
7.9611
3.77875
3.40283
3.43694
3.39795
3.06765
3.0369
3.58677
3.47247
4.79671
6.2858
8.38495
2.71605
2.68008
4.43008
5.35664
5.50806
5.44483
4.52536
2.73893
2.52345
3.10495
11.6334
33.5508
5.58994
2.71795
3.52416
8.81851
3.02099
3.04087
2.45662
2.93026
11.6415
5.96238
31.8024
4.55103
3.49327
2.57175
3.21819
3.93412
3.2264
3.76961
3.00589
4.20899
3.71885
4.35592
3.63798
3.96634
3.37536
18.1064
4.0443
16.5904
3.8989
3.26608
3.17583
2.49186
2.6896
4.26946
3.41168
2.53454
5.23578
3.99591
2.94194
2.48593
2.85531
6.93059
3.63542
3.3042
6.91354
4.17874
3.31019
7.04351
5.98174
3.5552
6.36391
2.64195
3.43144
2.99738
3.06412
4.13099
4.1314
5.46844
2.51012
5.78748
5.44133
5.33783
2.42695
9.42489
3.2863
3.1278
2.50856
12.4064
4.47517
3.45985
3.33651
2.51997
4.86117
6.69136
4.55524
3.48709
5.89771
5.08817
5.98096
2.4743
3.69112
4.22296
2.71665
4.0645
2.73852
8.56351
18.3988
3.48001
7.24131
21.4602
5.34195
4.5906
7.12556
9.72032
4.35234
4.3133
75.8668
4.22337
5.30736
6.06309
2.77399
2.81338
5.49306
6.65618
2.88172
21.09
2.5806
3.30721
9.48593
6.62694
3.08176
5.91735
4.88784
18.5303
3.70853
6.50257
11.1115
5.8672
5.25427
4.83845
2.9348
5.55393
18.8331
3.80498
10.0385
9.43144
2.63396
5.42533
6.87229
24.206
5.14356
3.53744
13.048
27.6499
5.59552
19.8025
4.03351
3.86932
6.59083
6.59022
10.7838
8.89137
5.99886
2.47174
3.72694
6.21897
8.48647
4.67777
3.27209
8.83171
21.4841
3.64283
2.48042
4.0844
7.27363
2.43134
2.51229
9.9664
2.6659
2.44019
8.50363
7.31589
4.67298
6.54647
6.24028
6.47395
2.45161
5.78205
23.2051
2.54
164.151
17.0195
4.59507
5.63922
5.82914
3.95987
4.31828
9.8647
3.50498
9.23196
17.223
7.35081
5.56593
3.33154
2.49795
6.00317
4.52103
2.88526
5.40828
2.62784
6.21118
9.8108
5.84741
3.39006
2.57149
5.75554
4.72311
10.3318
3.20366
25.146
7.99132
6.1121
7.28507
4.91002
4.05839
3.6133
4.29798
19.5709
2.45267
5.71084
4.48833
2.48994
4.59473
5.72144
4.5008
3.97495
29.9089
2.6989
6.03756
2.69967
3.12826
2.49607
131.166
5.44057
5.75276
2.96708
7.07887
2.68479
3.72978
3.56872
2.81061
14.4941
2.52646
14.2744
2.50808
2.70872
2.90998
2.4401
4.0967
2.80303
6.36511
2.78753
18.3373
3.8202
4.14177
6.23528
3.18551
3.15444
20.2347
4.93086
7.90329
4.8971
4.7135
4.46482
2.42518
7.4435
3.91278
2.42228
5.47906
14.8349
16.5281
6.16597
2.66496
3.86812
5.91584
10.9515
3.29907
2.5105
15.4296
2.85238
40.7218
3.06348
7.75576
40.2558
2.77226
5.69973
4.44228
3.39811
11.0455
4.80035
7.38583
4.11451
15.1664
2.94296
3.04209
11.3852
2.48795
85.6208
3.08151
3.24908
4.45715
2.88408
3.98546
2.57261
3.10424
3.15555
2.46916
7.98042
5.85486
2.65171
2.63789
2.97829
2.81366
3.80374
3.48327
6.73699
2.69171
3.44937
2.66111
3.34567
5.84292
2.66438
2.68007
4.52903
2.60231
2.70634
4.36079
4.31417
2.47753
3.17087
5.16912
2.8226
2.73575
3.47299
3.90845
5.03285
3.39877
2.75524
2.52114
2.82561
3.207
2.99559
8.04464
2.61498
2.50448
2.48682
2.46849
2.49516
2.57051
2.59486
2.63262
2.76727
2.6536
2.42036
8.83891
2.41538
2.42297
2.45003
2.46826
2.80348
2.70917
7.46257
5.05688
5.52634
2.4849
2.76999
2.58156
3.00111
2.6114
3.99143
9.63426
2.89458
2.43642
4.48247
2.45232
10.3367
2.60492
2.47478
2.49906
2.41327
11.3242
2.53313
12.7085
2.49072
2.49447
2.40682
2.80938
7.62518
7.5913
2.89284
2.44607
2.55022
2.50181
2.68137
2.81206
8.40912
2.72037
2.88271
2.59754
2.41782
2.53807
2.45382
2.62984
10.0367
2.55912
2.51022
2.80894
2.60016
2.45915
2.70627
11.5793
2.62598
4.09753
6.58336
3.98366
4.14195
5.96999
12.2408
8.88263
2.44548
2.84894
2.77461
4.40389
2.96772
2.79636
2.81918
2.72661
8.54931
2.89221
7.01415
3.16303
2.86193
10.2273
5.25857
3.1794
4.70955
2.48911
4.24015
2.44
14.16
4.05645
2.44334
6.87964
6.46883
5.47227
4.46001
4.17246
2.58937
3.8611
10.7035
13.3643
4.33394
2.58748
2.80078
4.94966
6.63199
3.92662
3.81738
10.5142
5.82493
12.308
2.70957
2.52596
3.13892
4.5124
3.37438
2.72229
2.6881
5.50001
2.4273
6.72037
12.5207
181.683
2.53867
13.6108
6.32892
5.72272
205.043
5.89702
7.63242
2.56194
5.23045
2.67627
3.05526
12.0686
2.84198
3.42317
4.57682
3.14869
2.48821
10.0287
3.15258
2.5406
3.02675
9.28695
4.94755
3.09948
3.35905
4.98218
7.99868
4.33815
6.30212
5.17554
3.98833
10.0754
4.79496
4.49538
3.53096
2.69385
2.62728
3.06037
5.58178
5.82781
13.5127
4.45892
2.62254
5.27806
4.08286
3.05195
45.6902
4.12162
3.1956
2.4551
2.45936
5.88624
3.28106
3.21218
6.63816
2.91052
12.0986
2.42911
4.82225
2.70817
4.19709
6.19375
4.92365
2.80894
6.11147
5.1181
2.59471
4.69506
5.11551
9.97207
4.19966
6.10723
4.37211
2.89226
3.04284
3.18248
27.6219
2.83598
3.55855
7.0317
3.19715
6.71922
2.48803
2.63364
8.27267
6.12021
3.5204
2.70278
22.0806
4.3943
5.48308
2.50853
9.50377
3.54286
2.49468
2.83895
3.5936
6.02457
4.32741
6.02852
8.3877
2.59312
4.37484
4.79176
6.38612
4.32745
3.82977
4.37852
5.24185
2.46764
2.77726
3.6246
14.6149
2.66551
5.47849
3.19947
14.6718
3.13183
4.27393
4.40006
4.59886
5.07231
3.66224
14.5829
2.61153
2.55474
3.84368
3.56215
2.43912
6.59445
9.80734
4.42783
5.76977
6.31109
6.19957
2.49414
8.92694
5.65189
6.39315
8.97359
8.00152
2.94879
2.94458
6.1596
6.87751
14.719
8.85759
8.47508
5.40185
2.65098
6.48071
6.6418
16.7511
3.03351
3.54512
3.94426
4.77827
4.28885
3.05899
3.42887
6.42008
8.82377
6.9074
3.55587
3.6627
3.3971
16.8106
4.77135
23.99
99.53
2.43161
4.55866
3.31292
2.71288
7.18049
4.95779
4.90859
9.3239
14.8524
2.42088
6.99408
4.77953
3.30812
4.94099
2.90138
3.81437
3.12373
2.40773
5.85672
2.63746
4.73885
8.31522
2.9246
2.53121
19.7187
5.1462
3.00156
4.29026
3.64465
6.1972
12.9629
10.401
5.8919
3.09598
3.35769
5.9345
2.51529
2.58861
2.61644
6.36116
5.73327
15.0618
4.50567
4.03035
3.40317
4.44246
5.91463
12.2554
2.52012
4.61957
3.08235
2.66303
3.67969
2.69161
6.94194
13.8615
3.43499
3.64231
3.64742
3.76029
3.62462
4.13242
6.61765
2.53942
5.20082
6.44634
2.44558
19.5517
2.49023
3.45089
4.04759
3.4547
3.74786
2.64147
3.03621
185.001
5.35558
3.0044
9.4588
3.55185
28.8186
2.65774
7.97184
5.67249
2.53106
9.54811
3.89128
2.45774
2.46319
3.15661
2.62814
22.6168
3.82021
2.71014
7.43866
6.9279
2.69219
7.08684
2.58206
2.59235
2.54458
9.723
15.7305
3.91068
4.27019
17.2241
7.23427
2.43985
2.85629
4.27157
3.36022
2.69025
2.49118
6.52145
2.99918
6.78032
2.67042
15.2273
14.5933
9.0259
3.12791
7.60128
4.81925
12.9761
2.81438
2.91924
2.70592
12.3354
2.47209
2.48193
9.624
3.352
6.28983
4.84246
3.34621
2.60089
3.40131
2.61225
7.34659
2.60414
2.72931
136.664
2.54483
9.50171
3.79717
2.43586
2.76846
5.48505
2.64627
4.30927
14.3394
2.65148
3.89424
29.2138
58.5282
19.434
36.3932
21.342
6.58547
6.55287
6.76602
6.6346
22.498
6.83807
9.43623
7.60612
8.61676
9.4422
19.7394
24.5716
9.20381
16.5734
17.9515
9.32671
7.35999
7.85267
9.82774
8.22805
8.18751
10.5706
7.90231
3.70658
11.2006
2.43802
5.43049
3.33307
3.25116
5.56089
18.2276
3.0531
7.61843
4.69412
3.46964
3.81772
16.5849
2.5978
2.50145
10.4705
6.01582
3.20544
5.97883
2.61609
9.91524
4.26841
7.67768
2.62302
3.51531
5.30687
3.36111
5.77979
6.71181
3.70141
3.8593
3.19136
6.27717
4.52125
17.3136
2.66021
2.81349
2.53703
2.69448
3.65072
5.35739
12.5428
6.7639
3.92411
3.37085
5.11279
2.65965
4.0438
6.31242
5.66358
2.8568
3.77975
6.36097
2.40398
2.85519
2.43861
7.9393
2.71093
4.92824
4.20694
27.5948
18.047
2.85714
2.66083
2.42843
3.49094
2.79141
129.09
2.6045
6.55541
2.84243
42.607
2.5693
5.97221
2.53092
2.6221
2.41962
3.16769
2.83264
2.88674
24.9239
132.52
6.4915
7.7984
2.58477
2.80884
20.0378
2.57697
3.0966
16.8287
3.61768
3.55698
20.3929
2.70788
29.2648
2.47616
2.43557
2.63054
2.88634
8.29761
11.6285
2.5958
2.73654
5.26653
3.36065
4.14476
2.8427
3.38483
7.90269
179.662
3.09195
6.24486
13.7905
2.47303
2.55313
20.7699
12.2903
3.99564
5.77353
10.1365
6.6404
2.53115
5.25271
3.77214
2.66027
10.2012
7.11584
2.52458
3.19481
4.89297
13.3128
4.78245
2.64656
7.34385
15.0872
2.42669
23.9049
13.9349
2.61683
5.73611
2.59046
2.45376
2.87163
3.12826
2.42438
2.73417
2.82294
2.47848
2.90876
3.1491
2.50459
10.4624
2.52133
2.48567
3.02827
13.8758
2.60579
12.1767
2.42838
2.90511
13.8147
7.46157
12.4971
13.8743
14.985
12.3251
13.9049
14.4563
14.4901
14.3276
5.30884
5.15438
5.80937
5.74106
7.13776
6.03066
3.30476
6.16245
2.54163
10.8842
2.62423
12.2284
2.50906
2.82311
2.50074
2.75573
3.74744
2.51686
4.74806
3.04218
4.99132
4.04007
4.30358
3.91008
2.59862
3.0142
2.617
15.081
4.05938
3.25019
65.367
4.72897
3.63682
5.41648
3.95326
2.60711
5.10208
7.95972
2.51915
2.55287
3.08321
2.90349
2.46319
12.5863
4.48098
2.46746
2.87104
2.6043
2.43347
2.62435
4.25199
2.47213
2.90278
2.89173
5.12145
99.043
2.59746
8.9997
11.1609
2.79036
7.01733
4.46253
2.52302
9.56347
15.3477
2.9235
2.63896
5.66932
19.1622
2.50231
12.6567
7.95081
3.60092
2.5284
2.53258
10.3159
3.21147
17.0661
23.2532
8.67335
4.94404
4.61639
6.88414
6.84059
3.64256
3.98688
2.41829
2.79138
2.43639
11.9917
3.00508
2.72945
15.1864
4.01146
4.92295
2.50662
3.2425
5.47222
29.642
15.459
2.60088
2.43089
4.53185
6.13434
10.7394
2.50553
18.9029
3.23734
2.52369
2.79932
27.4356
5.11375
6.21091
2.53223
2.65042
2.61462
15.6922
3.74694
7.41045
2.55415
2.84788
2.49728
2.5232
2.60148
17.0968
10.6092
5.49891
6.45367
2.8211
6.66286
2.67557
2.53044
4.321
5.26122
4.48818
3.20442
2.53968
6.26605
2.59965
3.21226
3.49409
3.71063
3.06162
3.24937
2.63738
2.6364
10.6954
2.9097
32.9933
6.29823
2.86406
3.04256
18.2087
2.85656
3.19079
5.02369
8.12702
5.98868
5.49196
8.01322
7.59422
9.30671
8.70608
6.5246
5.14733
2.50997
2.6096
12.4756
2.59487
25.1609
3.13416
5.8674
2.59621
2.81865
6.07806
3.10267
5.70645
5.06585
2.53352
3.03083
64.0493
2.70164
2.80071
2.47143
2.45557
17.1689
2.83419
6.65514
11.441
2.55464
2.44283
5.89395
6.61626
2.92398
2.59577
3.5062
15.6533
4.59369
6.67885
15.1827
22.1514
4.56923
5.04389
8.23776
5.27194
18.3841
4.31251
2.41082
2.69784
2.60453
24.1343
17.9216
11.5857
2.50183
16.0163
6.12636
2.42252
2.4364
29.3965
2.83667
2.54816
2.60067
2.55807
14.4253
2.93093
19.2655
3.28321
2.6043
2.83987
16.9885
4.88003
43.7947
5.47209
2.85957
5.04611
19.4139
19.8284
2.4409
14.7281
2.83622
3.96748
3.2009
6.78243
3.90786
17.2842
2.77906
3.64956
24.0353
19.9372
3.96694
5.49866
4.81337
7.15728
2.44417
5.54168
2.74213
14.5754
2.75735
2.83666
3.5801
4.19233
9.24263
6.08177
4.25005
2.70255
2.57887
5.62042
15.0855
2.57947
2.72732
3.77512
2.79715
6.87272
4.16739
5.56393
2.62691
2.78259
3.85385
4.37025
4.09107
5.46853
4.17146
3.80456
3.10743
10.2866
2.58471
2.43423
2.60259
3.03036
2.80373
7.13223
4.65847
4.55828
3.40324
4.61822
5.67899
5.29453
7.16719
5.14185
2.79973
2.42617
2.43447
3.0442
2.52481
2.62977
2.50458
2.62512
3.97927
2.67781
6.35205
3.07073
7.55616
2.91575
6.05097
5.88565
2.6372
2.66586
6.09067
8.98415
3.4862
39.205
3.36065
4.79919
5.30171
5.68905
4.05057
4.91099
5.07269
4.63535
5.75518
13.2082
10.2269
8.12327
8.04155
6.75301
10.6201
5.44985
9.78347
9.16205
5.35718
4.19881
5.12824
7.08276
3.74008
3.91561
5.67923
4.10486
3.19098
3.81695
)
;

boundaryField
{
    frontAndBack
    {
        type            empty;
    }
    wallOuter
    {
        lowReCorrection 0;
        type            epsilonWallFunction;
        value           nonuniform List<scalar> 
96
(
5.74677
12.886
11.6334
14.6149
14.6718
14.5829
6.59445
6.31109
6.19957
8.92694
6.39315
8.00152
6.1596
14.719
8.47508
9.3239
14.8524
6.99408
5.91463
6.94194
6.44634
7.43866
6.9279
9.723
15.7305
21.342
6.58547
6.55287
6.76602
6.6346
22.498
6.83807
9.43623
7.60612
8.61676
9.4422
19.7394
24.5716
9.20381
16.5734
17.9515
9.32671
7.35999
7.85267
9.82774
8.22805
8.18751
10.5706
7.90231
7.67768
5.35739
12.5428
7.9393
4.92824
18.047
7.7984
29.2648
6.24486
13.7905
12.2903
10.2012
4.89297
4.78245
15.0872
13.8758
12.1767
13.8147
7.46157
12.4971
13.8743
14.985
12.3251
13.9049
14.4563
14.4901
14.3276
5.30884
5.15438
5.80937
5.74106
7.13776
6.03066
12.2284
4.99132
12.5863
12.6567
18.9029
5.26122
10.6954
11.441
6.67885
15.1827
4.88003
14.7281
24.0353
4.81337
)
;
    }
    inlet
    {
        type            fixedValue;
        value           nonuniform 0();
    }
    outlet
    {
        type            zeroGradient;
    }
    wallInner
    {
        lowReCorrection 0;
        type            epsilonWallFunction;
        value           nonuniform List<scalar> 
126
(
4.11032
3.04439
3.0756
3.44665
3.42728
3.19196
4.1607
4.37242
3.26285
3.36713
3.27867
3.99975
14.4421
4.78735
3.99705
7.9611
3.77875
3.40283
3.43694
3.39795
3.06765
3.0369
3.58677
3.47247
3.52416
3.00589
4.20899
3.71885
4.35592
3.63798
3.96634
3.37536
18.1064
4.0443
16.5904
3.8989
3.26608
4.26946
3.41168
3.63542
3.3042
4.17874
3.31019
3.5552
3.43144
3.06412
4.1314
12.4064
4.0645
7.24131
21.4602
4.22337
18.5303
4.59507
7.35081
5.56593
3.39006
25.146
7.99132
7.28507
4.05839
4.5008
3.97495
29.9089
3.72978
3.56872
14.2744
18.3373
3.8202
16.5281
5.91584
10.9515
5.84292
5.16912
5.96999
8.54931
6.87964
13.3643
4.94966
12.308
4.5124
12.5207
4.57682
10.0287
6.30212
10.0754
13.5127
4.92365
4.37211
8.27267
9.50377
6.87751
8.85759
6.1972
9.50171
5.48505
6.31242
23.2532
3.96694
5.49866
8.98415
3.4862
3.36065
5.30171
5.68905
4.05057
5.07269
5.75518
13.2082
10.2269
8.12327
8.04155
6.75301
5.44985
9.78347
9.16205
5.35718
4.19881
5.12824
7.08276
3.74008
3.91561
5.67923
4.10486
3.19098
3.81695
)
;
    }
    procBoundary3to1
    {
        type            processor;
        value           nonuniform List<scalar> 
48
(
2.43264
3.0047
2.74942
2.47453
3.44962
3.44929
3.0047
4.44513
2.48671
2.87982
2.87982
2.45285
2.45285
2.42688
2.50788
2.40641
2.41316
2.40548
2.41316
2.43719
2.4381
2.54117
2.43719
4.00394
3.82174
3.1257
2.89637
2.54117
3.50873
4.5175
4.5175
4.4163
4.4163
2.48671
2.5224
4.05301
3.58355
3.82174
2.43631
3.18338
2.42688
2.98091
2.68584
2.43719
2.6587
5.15507
3.18037
2.42444
)
;
    }
    procBoundary3to2
    {
        type            processor;
        value           nonuniform List<scalar> 
29
(
3.0527
3.0527
4.46038
3.92767
3.89552
3.88059
4.4014
3.10634
2.87997
3.01291
2.84026
2.90201
3.37352
3.18433
2.53776
3.32527
3.42278
2.96566
3.18889
2.88442
2.68703
3.42278
5.13314
2.96566
2.7792
3.65102
2.96566
2.74824
2.74824
)
;
    }
}


// ************************************************************************* //
