/*--------------------------------*- C++ -*----------------------------------*\
| =========                 |                                                 |
| \\      /  F ield         | OpenFOAM: The Open Source CFD Toolbox           |
|  \\    /   O peration     | Version:  v1912                                 |
|   \\  /    A nd           | Website:  www.openfoam.com                      |
|    \\/     M anipulation  |                                                 |
\*---------------------------------------------------------------------------*/
FoamFile
{
    version     2.0;
    format      ascii;
    class       volScalarField;
    location    "0.04";
    object      k;
}
// * * * * * * * * * * * * * * * * * * * * * * * * * * * * * * * * * * * * * //

dimensions      [0 2 -2 0 0 0 0];


internalField   nonuniform List<scalar> 
1431
(
0.314134
0.232278
0.159874
0.17205
0.174788
0.183289
0.153984
1.05308
0.171352
0.151211
1.09204
0.54925
0.201094
0.219685
0.160829
0.152418
0.166376
0.154547
0.175497
0.165811
1.9028
0.197263
0.220389
0.36259
0.182399
0.249727
0.712775
0.156652
0.153198
0.276268
0.234148
0.196901
0.251621
0.316022
0.16223
0.173471
0.153244
0.161424
0.153449
0.183776
0.163581
0.156981
0.233379
0.158269
0.208072
0.153688
0.229306
0.55855
0.157851
0.153655
0.232034
0.155476
0.227376
0.583606
0.190426
0.259069
0.196893
0.668154
0.186966
0.144912
0.163273
0.170901
0.157119
0.160973
0.154223
0.157625
0.152367
0.157187
0.150872
0.165487
0.494659
0.212291
0.173234
0.274513
0.187855
0.146375
0.15078
0.156326
0.162161
0.150283
0.172232
0.153203
0.233743
0.269537
0.268449
0.160494
0.14026
0.229078
0.245881
0.257693
0.2249
0.214012
0.162154
0.154815
0.177941
0.241406
0.820106
0.269226
0.161152
0.167087
0.340789
0.166762
0.167571
0.151418
0.154633
0.359146
0.239791
0.717402
0.231658
0.177981
0.150251
0.180015
0.209259
0.181075
0.204279
0.161943
0.20128
0.177056
0.179672
0.153765
0.160607
0.161438
0.463259
0.172721
0.450633
0.169029
0.15932
0.183518
0.155624
0.153939
0.16937
0.14495
0.156394
0.204804
0.189662
0.170425
0.155323
0.167701
0.294279
0.152678
0.15754
0.278162
0.170945
0.136593
0.309084
0.249929
0.159574
0.275165
0.154571
0.157822
0.162479
0.157274
0.19335
0.180619
0.252955
0.15719
0.247528
0.260346
0.252467
0.152505
0.374224
0.180978
0.150584
0.147885
0.398804
0.226797
0.186542
0.187477
0.155422
0.243984
0.301636
0.2187
0.174004
0.264093
0.248889
0.250707
0.153122
0.195437
0.216986
0.164737
0.155144
0.153906
0.319767
0.479517
0.190383
0.208333
0.437218
0.258451
0.228891
0.268171
0.355547
0.215922
0.210773
1.19453
0.176075
0.257202
0.284129
0.167748
0.152524
0.253866
0.29146
0.149374
0.60712
0.143894
0.186195
0.346277
0.278008
0.15901
0.263954
0.246354
0.455186
0.153518
0.260223
0.354784
0.255788
0.240163
0.228599
0.174231
0.23731
0.561839
0.202214
0.366189
0.347578
0.147826
0.254463
0.29141
0.660191
0.25405
0.184736
0.42638
0.693136
0.246847
0.523327
0.198418
0.197297
0.299986
0.269987
0.376557
0.334869
0.267588
0.155066
0.195239
0.27274
0.339362
0.230554
0.182787
0.354142
0.604996
0.196805
0.155361
0.21775
0.308545
0.152451
0.154335
0.359056
0.163169
0.152572
0.328084
0.321199
0.223903
0.276658
0.273591
0.259325
0.150941
0.264499
0.65945
0.157864
2.02276
0.515368
0.157776
0.270691
0.252896
0.20977
0.215457
0.383243
0.174019
0.366197
0.530178
0.203298
0.201413
0.184215
0.156481
0.249653
0.233416
0.170659
0.26313
0.161119
0.289621
0.286781
0.270768
0.135417
0.158621
0.273664
0.221419
0.363335
0.165798
0.509475
0.230848
0.287068
0.204682
0.233551
0.158773
0.196866
0.224327
0.575294
0.152816
0.267691
0.218019
0.155432
0.234187
0.271706
0.17295
0.167194
0.510904
0.16436
0.282894
0.164549
0.180178
0.157275
1.69696
0.256429
0.272983
0.15213
0.269395
0.163886
0.162507
0.146494
0.166156
0.481158
0.153415
0.320531
0.156076
0.162884
0.173466
0.153524
0.215371
0.168962
0.293099
0.16772
0.375316
0.154725
0.214184
0.287047
0.181846
0.182425
0.560151
0.241468
0.329742
0.244267
0.228903
0.226935
0.153338
0.287185
0.206485
0.153254
0.222112
0.468197
0.418126
0.272861
0.161514
0.207363
0.186611
0.267967
0.184979
0.156916
0.457228
0.168031
0.737005
0.153555
0.297095
0.844317
0.167048
0.25801
0.215012
0.191209
0.398232
0.237341
0.253864
0.216433
0.465731
0.170985
0.176973
0.322248
0.15458
1.241
0.180238
0.18365
0.225682
0.172204
0.202523
0.159019
0.177865
0.179127
0.153153
0.339829
0.251824
0.161595
0.160915
0.170263
0.169745
0.204933
0.194484
0.305885
0.164547
0.191458
0.16272
0.188951
0.180137
0.161989
0.163717
0.230223
0.160733
0.164858
0.208805
0.221598
0.154135
0.180593
0.163321
0.169919
0.165921
0.187795
0.198292
0.246421
0.188467
0.166482
0.157366
0.170532
0.185041
0.177722
0.307345
0.16132
0.15678
0.156032
0.155252
0.156396
0.159562
0.160559
0.161558
0.166305
0.162221
0.1536
0.346181
0.153158
0.153468
0.154408
0.155492
0.170755
0.166701
0.315368
0.244061
0.255483
0.155131
0.165695
0.159969
0.173668
0.158914
0.210888
0.356419
0.172442
0.153567
0.227135
0.154115
0.371528
0.159522
0.155227
0.156074
0.152767
0.392858
0.157351
0.422043
0.155232
0.155664
0.152576
0.16892
0.313637
0.314273
0.170258
0.154269
0.159321
0.155715
0.16453
0.171134
0.334331
0.164905
0.172079
0.160993
0.153095
0.157574
0.15465
0.161931
0.374617
0.158309
0.157198
0.170098
0.161188
0.154998
0.16553
0.410445
0.16009
0.201755
0.240365
0.212526
0.213809
0.179523
0.42456
0.347908
0.153912
0.17042
0.165549
0.221286
0.176926
0.170472
0.170368
0.166601
0.212589
0.168946
0.25863
0.184774
0.173561
0.379532
0.224917
0.182926
0.235026
0.153488
0.223709
0.153633
0.465566
0.181645
0.154238
0.192958
0.288242
0.258249
0.227644
0.220863
0.159628
0.209321
0.35739
0.332147
0.227681
0.159426
0.168103
0.180767
0.276004
0.211308
0.198046
0.360431
0.251687
0.30744
0.164124
0.157537
0.180481
0.154568
0.190709
0.164923
0.156817
0.257689
0.153223
0.246545
0.314928
2.20151
0.158114
0.459272
0.291861
0.241141
2.37802
0.216504
0.265191
0.147642
0.229762
0.164138
0.177074
0.431378
0.168803
0.193439
0.152844
0.182814
0.155332
0.273504
0.179306
0.158306
0.1765
0.363694
0.216278
0.179585
0.189049
0.23828
0.320232
0.226358
0.19146
0.254965
0.2033
0.257371
0.238695
0.22009
0.193469
0.162714
0.163637
0.177192
0.267395
0.261637
0.329531
0.230391
0.161514
0.251137
0.217426
0.175448
0.74165
0.217829
0.170171
0.155395
0.154296
0.232169
0.182628
0.180995
0.264722
0.170792
0.314905
0.152827
0.237933
0.164452
0.219781
0.278199
0.162896
0.167702
0.265826
0.248094
0.159611
0.237531
0.251961
0.354614
0.221849
0.273996
0.160996
0.170458
0.176473
0.183813
0.707301
0.168603
0.184752
0.299112
0.17642
0.304813
0.15601
0.161854
0.236537
0.281876
0.197053
0.164591
0.576248
0.220421
0.239377
0.156854
0.257337
0.197229
0.155537
0.169074
0.198623
0.276474
0.221022
0.277265
0.351449
0.15942
0.219366
0.225647
0.245471
0.225806
0.207274
0.228043
0.248088
0.153811
0.167112
0.198776
0.327206
0.162526
0.246915
0.171665
0.328409
0.181212
0.203644
0.220164
0.229244
0.232857
0.195252
0.325555
0.153546
0.152258
0.198844
0.193158
0.154573
0.176865
0.369943
0.22091
0.253016
0.171871
0.164505
0.156348
0.214737
0.245762
0.162324
0.359669
0.197152
0.174016
0.173955
0.167702
0.22054
0.33166
0.242799
0.205597
0.245266
0.163038
0.269798
0.216653
0.513429
0.167533
0.179374
0.209897
0.218502
0.199517
0.174483
0.180291
0.281567
0.332213
0.297826
0.195481
0.173802
0.181585
0.519178
0.219421
0.61335
1.45757
0.153546
0.233597
0.187562
0.163818
0.309096
0.243976
0.229504
0.224432
0.325996
0.153032
0.183003
0.236743
0.184183
0.225419
0.171635
0.20569
0.179395
0.152453
0.247213
0.160653
0.237307
0.329422
0.169947
0.1569
0.476005
0.230654
0.1767
0.226794
0.199274
0.180299
0.397227
0.392734
0.276205
0.176674
0.189655
0.242065
0.154052
0.155138
0.16132
0.272296
0.238486
0.426749
0.214398
0.204586
0.186202
0.224894
0.159781
0.373366
0.15689
0.235166
0.17781
0.155275
0.197691
0.162741
0.182693
0.467547
0.187613
0.198324
0.177733
0.198743
0.202645
0.214562
0.274249
0.157581
0.241317
0.161134
0.154051
0.561094
0.155172
0.192585
0.187998
0.192305
0.203855
0.162473
0.175851
2.16964
0.251638
0.177343
0.296633
0.188982
0.675045
0.146682
0.321852
0.248095
0.157953
0.356674
0.201956
0.155249
0.154996
0.176336
0.158223
0.658238
0.198494
0.163449
0.189495
0.182642
0.164729
0.281296
0.160572
0.155777
0.158471
0.234359
0.327036
0.184715
0.212845
0.545776
0.3003
0.153992
0.170691
0.224084
0.190073
0.165228
0.156349
0.291083
0.173828
0.304754
0.16007
0.498348
0.452549
0.366775
0.156458
0.293056
0.243065
0.423811
0.15162
0.15447
0.157991
0.436017
0.15389
0.154064
0.326547
0.184942
0.27934
0.224226
0.183173
0.16065
0.186277
0.155837
0.313361
0.160915
0.164579
1.78164
0.157835
0.236877
0.200884
0.153328
0.157108
0.210032
0.162782
0.197227
0.459412
0.159623
0.191273
0.694615
0.996831
0.560379
0.850703
0.361147
0.172511
0.165864
0.154739
0.158926
0.393535
0.177526
0.19028
0.184394
0.186841
0.198403
0.328091
0.428442
0.209887
0.296528
0.307465
0.219602
0.181623
0.184916
0.227865
0.187143
0.188639
0.23496
0.189307
0.194952
0.417824
0.153655
0.2609
0.186829
0.186025
0.22797
0.533961
0.152552
0.293428
0.234464
0.192179
0.204457
0.52079
0.161687
0.156926
0.402162
0.262164
0.180743
0.264537
0.14176
0.368884
0.219739
0.188999
0.161672
0.189628
0.175511
0.184692
0.255615
0.292581
0.199652
0.196968
0.183905
0.24783
0.229229
0.53094
0.162261
0.157367
0.157498
0.160475
0.195678
0.154673
0.271769
0.284676
0.207869
0.192232
0.247248
0.162986
0.206037
0.180813
0.245794
0.16883
0.200899
0.231445
0.152364
0.169675
0.153934
0.185408
0.16541
0.151877
0.212605
0.691163
0.330174
0.170695
0.160561
0.153291
0.191944
0.166379
1.68167
0.16081
0.294623
0.15772
0.967693
0.159088
0.280961
0.155979
0.157856
0.153029
0.183574
0.167511
0.170745
0.627318
1.74297
0.274346
0.187513
0.159894
0.163598
0.569515
0.161346
0.168584
0.508199
0.199405
0.1931
0.603238
0.165136
0.489799
0.155224
0.153808
0.158659
0.172058
0.34298
0.39408
0.153687
0.16537
0.246252
0.18842
0.191863
0.169341
0.187239
0.271397
2.1066
0.154775
0.152219
0.280786
0.14847
0.158144
0.602663
0.266907
0.211184
0.252309
0.39463
0.286481
0.157573
0.229767
0.193851
0.162729
0.244295
0.264249
0.157615
0.181339
0.149026
0.389797
0.144412
0.161798
0.298204
0.348763
0.153393
0.645835
0.469867
0.16024
0.258048
0.160322
0.149475
0.170969
0.14018
0.153271
0.148456
0.168445
0.155602
0.173586
0.182094
0.156816
0.404382
0.153605
0.152708
0.174662
0.315418
0.16094
0.310912
0.153486
0.169437
0.307601
0.183686
0.274505
0.285301
0.295131
0.316767
0.322484
0.326892
0.301227
0.332493
0.158013
0.142725
0.143769
0.156879
0.151953
0.148836
0.187881
0.236097
0.158299
0.351262
0.161774
0.26204
0.153568
0.169569
0.154482
0.164987
0.196316
0.155618
0.226875
0.166565
0.154811
0.21633
0.219616
0.201167
0.16073
0.167354
0.161591
0.481846
0.201172
0.182267
1.06305
0.230048
0.203048
0.265578
0.211245
0.161486
0.237817
0.266189
0.157223
0.158251
0.150522
0.173126
0.154488
0.247523
0.22702
0.155157
0.152026
0.16028
0.153808
0.160332
0.222397
0.155213
0.168953
0.171743
0.247634
1.33983
0.155718
0.276128
0.336801
0.16332
0.271632
0.221735
0.15571
0.371466
0.474698
0.139314
0.162062
0.242365
0.533055
0.156745
0.255952
0.339352
0.200083
0.156502
0.158069
0.367213
0.181772
0.492815
0.495503
0.293507
0.247234
0.228676
0.296384
0.250472
0.173583
0.21685
0.153093
0.162536
0.152541
0.409145
0.175821
0.160614
0.460589
0.207555
0.239976
0.156815
0.171505
0.262701
0.794635
0.481557
0.160839
0.153504
0.210733
0.280353
0.298903
0.156832
0.333919
0.160411
0.157807
0.167394
0.692003
0.244911
0.282502
0.157928
0.161597
0.160394
0.504799
0.204598
0.309039
0.159639
0.164408
0.155813
0.157672
0.159222
0.443314
0.40502
0.251155
0.283924
0.167041
0.277768
0.164814
0.156878
0.228713
0.157888
0.222528
0.167048
0.15793
0.254278
0.160599
0.181313
0.191799
0.177526
0.1695
0.16953
0.158121
0.162438
0.253988
0.17195
0.687138
0.27217
0.156598
0.176803
0.544854
0.170492
0.177631
0.229175
0.309022
0.227093
0.20274
0.28787
0.278449
0.362023
0.295551
0.282249
0.235565
0.155848
0.161074
0.414927
0.160741
0.598659
0.182031
0.274174
0.1605
0.168196
0.276302
0.180182
0.222536
0.240319
0.156815
0.176635
1.26304
0.16441
0.167954
0.153964
0.153547
0.507448
0.169414
0.30332
0.263899
0.15845
0.154125
0.261893
0.262954
0.172022
0.160568
0.191182
0.513125
0.230093
0.152241
0.28633
0.57981
0.235096
0.222248
0.322315
0.246368
0.556533
0.211345
0.152722
0.164223
0.16025
0.642008
0.516953
0.431669
0.156636
0.521208
0.269155
0.153055
0.153572
0.636985
0.170381
0.158047
0.159842
0.158398
0.337124
0.160996
0.582487
0.168015
0.158839
0.150595
0.536196
0.143064
0.970876
0.256861
0.171796
0.248924
0.599476
0.591793
0.154024
0.336408
0.153333
0.210968
0.173645
0.267308
0.209731
0.520902
0.139294
0.191484
0.333618
0.571286
0.137056
0.170888
0.146635
0.266247
0.154326
0.253739
0.163755
0.484515
0.164228
0.148299
0.19653
0.211656
0.283896
0.2716
0.222868
0.162755
0.158859
0.249497
0.498829
0.158487
0.166186
0.206434
0.167048
0.305279
0.193741
0.260811
0.161845
0.165337
0.182116
0.209088
0.195294
0.255029
0.19371
0.144669
0.161704
0.361437
0.158901
0.153851
0.160587
0.17644
0.161832
0.283476
0.228636
0.223869
0.142218
0.146174
0.252743
0.243202
0.231842
0.235231
0.162342
0.153369
0.153648
0.167896
0.154838
0.156913
0.154225
0.156333
0.206775
0.161784
0.289887
0.153368
0.291829
0.171724
0.227169
0.263628
0.161929
0.161462
0.263205
0.248819
0.127068
0.874938
0.156608
0.221318
0.179677
0.18437
0.152048
0.197285
0.178887
0.185866
0.169604
0.390435
0.355199
0.274245
0.274945
0.215524
0.266465
0.169644
0.264709
0.265136
0.16893
0.147465
0.210105
0.225614
0.145972
0.15109
0.202369
0.179143
0.131884
0.148574
)
;

boundaryField
{
    frontAndBack
    {
        type            empty;
    }
    wallOuter
    {
        type            kqRWallFunction;
        value           nonuniform List<scalar> 
96
(
0.153198
0.276268
0.241406
0.327206
0.328409
0.325555
0.176865
0.171871
0.164505
0.214737
0.162324
0.197152
0.167702
0.33166
0.205597
0.224432
0.325996
0.183003
0.159781
0.182693
0.161134
0.189495
0.182642
0.234359
0.327036
0.361147
0.172511
0.165864
0.154739
0.158926
0.393535
0.177526
0.19028
0.184394
0.186841
0.198403
0.328091
0.428442
0.209887
0.296528
0.307465
0.219602
0.181623
0.184916
0.227865
0.187143
0.188639
0.23496
0.189307
0.188999
0.154673
0.271769
0.185408
0.151877
0.330174
0.187513
0.489799
0.152219
0.280786
0.266907
0.244295
0.149026
0.144412
0.348763
0.315418
0.310912
0.307601
0.183686
0.274505
0.285301
0.295131
0.316767
0.322484
0.326892
0.301227
0.332493
0.158013
0.142725
0.143769
0.156879
0.151953
0.148836
0.26204
0.154811
0.247523
0.255952
0.333919
0.157888
0.253988
0.263899
0.152241
0.28633
0.143064
0.336408
0.333618
0.146635
)
;
    }
    inlet
    {
        type            fixedValue;
        value           nonuniform 0();
    }
    outlet
    {
        type            zeroGradient;
    }
    wallInner
    {
        type            kqRWallFunction;
        value           nonuniform List<scalar> 
126
(
0.186966
0.144912
0.163273
0.170901
0.157119
0.160973
0.154223
0.157625
0.152367
0.157187
0.150872
0.165487
0.494659
0.212291
0.173234
0.274513
0.187855
0.146375
0.15078
0.156326
0.162161
0.150283
0.172232
0.153203
0.167087
0.161943
0.20128
0.177056
0.179672
0.153765
0.160607
0.161438
0.463259
0.172721
0.450633
0.169029
0.15932
0.16937
0.14495
0.152678
0.15754
0.170945
0.136593
0.159574
0.157822
0.157274
0.180619
0.398804
0.155144
0.208333
0.437218
0.176075
0.455186
0.157776
0.203298
0.201413
0.135417
0.509475
0.230848
0.204682
0.158773
0.17295
0.167194
0.510904
0.162507
0.146494
0.320531
0.375316
0.154725
0.418126
0.186611
0.267967
0.180137
0.163321
0.179523
0.212589
0.192958
0.332147
0.180767
0.30744
0.154568
0.314928
0.152844
0.273504
0.19146
0.257371
0.329531
0.162896
0.160996
0.236537
0.257337
0.22054
0.242799
0.180299
0.236877
0.210032
0.180813
0.495503
0.137056
0.170888
0.248819
0.127068
0.156608
0.179677
0.18437
0.152048
0.178887
0.169604
0.390435
0.355199
0.274245
0.274945
0.215524
0.169644
0.264709
0.265136
0.16893
0.147465
0.210105
0.225614
0.145972
0.15109
0.202369
0.179143
0.131884
0.148574
)
;
    }
    procBoundary3to1
    {
        type            processor;
        value           nonuniform List<scalar> 
48
(
0.153635
0.168172
0.161588
0.155255
0.184023
0.180813
0.168172
0.221859
0.156056
0.171775
0.171775
0.154367
0.154367
0.153418
0.156489
0.152389
0.153008
0.152587
0.153008
0.15394
0.15404
0.158597
0.15394
0.201926
0.203533
0.181248
0.173415
0.158597
0.195405
0.218834
0.218834
0.222922
0.222922
0.156056
0.157618
0.2035
0.196403
0.203533
0.153832
0.160435
0.153418
0.175509
0.164327
0.15394
0.162088
0.156153
0.170524
0.153538
)
;
    }
    procBoundary3to2
    {
        type            processor;
        value           nonuniform List<scalar> 
29
(
0.175815
0.175815
0.170302
0.160398
0.150088
0.155925
0.171233
0.178115
0.168107
0.159141
0.161846
0.161659
0.180972
0.17711
0.155616
0.175889
0.18685
0.173072
0.180069
0.170127
0.163205
0.18685
0.157793
0.173072
0.152836
0.19052
0.173072
0.16545
0.16545
)
;
    }
}


// ************************************************************************* //
