/*--------------------------------*- C++ -*----------------------------------*\
| =========                 |                                                 |
| \\      /  F ield         | OpenFOAM: The Open Source CFD Toolbox           |
|  \\    /   O peration     | Version:  v1912                                 |
|   \\  /    A nd           | Website:  www.openfoam.com                      |
|    \\/     M anipulation  |                                                 |
\*---------------------------------------------------------------------------*/
FoamFile
{
    version     2.0;
    format      ascii;
    class       volScalarField;
    location    "0.04";
    object      p;
}
// * * * * * * * * * * * * * * * * * * * * * * * * * * * * * * * * * * * * * //

dimensions      [0 2 -2 0 0 0 0];


internalField   nonuniform List<scalar> 
1431
(
95.927
82.614
94.1393
85.6385
91.7064
85.142
89.0611
38.771
90.7893
88.9516
46.7432
44.5098
91.7855
84.5809
92.5638
88.9486
84.7118
95.8102
84.3031
96.0745
40.4478
84.8628
91.9981
15.9891
91.4255
92.1604
53.3306
92.4613
95.183
81.5129
88.3134
92.5909
86.9798
80.1341
86.5478
88.6764
93.8874
92.0843
88.9988
92.1978
94.3243
94.1915
91.8077
88.9518
82.3865
92.2555
82.9004
57.6663
89.0478
91.9252
87.0866
89.0428
87.9329
52.6169
83.2203
89.3876
89.6305
46.4114
85.3609
95.6282
92.5313
88.8932
91.7493
91.9989
88.9639
89.2409
93.5361
91.8378
92.3718
85.1426
45.3961
81.9642
85.7005
79.682
85.2175
92.1504
93.8538
91.9504
89.0118
95.7297
84.8552
92.6163
70.9278
85.6494
34.5719
85.3784
85.1763
93.0892
48.5029
58.458
89.3272
89.4012
92.1487
89.0458
82.9952
86.7321
43.5396
73.0987
88.9156
92.9817
88.676
88.9905
85.0772
95.6189
92.0229
87.1197
91.6348
58.6648
92.4465
85.2405
95.6202
91.5088
94.3849
94.56
82.3592
91.974
83.8252
85.6714
85.4051
91.8629
85.283
92.7537
56.0449
85.1143
42.0648
88.9084
94.0332
92.4845
94.0566
84.5671
84.5333
95.9227
84.6728
83.1761
96.1586
91.4998
92.0805
88.9133
46.8165
92.1477
88.9992
84.2615
85.1637
95.6501
92.8164
86.5277
91.4814
88.7113
88.9751
92.5385
91.6059
92.33
92.1806
85.0602
92.6932
92.1533
43.6726
79.7872
64.7868
85.1785
55.3834
91.6091
85.6864
85.2682
53.164
95.6056
95.073
82.1566
91.9706
77.678
54.4271
88.3961
91.6075
46.0492
81.4594
43.996
84.821
84.0794
87.7341
86.4451
89.003
89.0181
84.3449
18.653
85.0116
90.6602
57.0058
79.5058
91.2239
47.0275
86.4817
92.0459
92.2535
58.8611
85.7163
76.5846
72.6965
83.4597
92.388
95.9756
84.8247
85.6585
68.0569
84.9113
91.4425
87.144
92.1826
92.3139
44.3189
95.8581
35.8341
85.7749
92.0707
87.589
36.3047
93.0691
92.0642
81.9808
84.6432
71.1828
93.7188
85.2374
88.1269
85.4814
92.632
39.2384
69.2193
75.4905
93.4637
69.1545
35.7062
87.8343
86.6029
92.2397
92.8903
60.551
92.2183
89.725
86.0987
85.4229
84.9103
83.4594
42.3423
90.0347
91.8344
85.3108
90.9389
63.3372
94.4309
92.0615
92.3019
47.9031
85.2714
86.0864
86.8881
92.9265
85.3696
34.5677
66.5952
92.1162
92.0439
46.7348
84.0079
84.9476
93.9697
74.4551
90.1697
59.4919
62.2357
90.3535
93.1833
92.266
83.5777
85.3824
52.4735
91.1909
49.73
80.1432
86.4627
92.0745
88.1462
92.6178
86.0182
87.8297
84.26
70.6831
93.5609
70.2025
40.9379
82.8117
92.3856
90.8873
74.9617
87.9669
71.9737
93.8631
56.89
90.2002
93.2053
86.7952
88.239
92.0889
84.2642
91.2916
84.2514
85.4718
81.8999
92.343
93.9256
79.6507
73.1359
88.7326
88.6905
58.142
90.1454
73.6551
84.3535
83.8487
92.4973
27.6255
82.1138
75.5249
92.69
87.3699
85.8173
94.2908
92.7779
91.1437
55.3445
85.9156
85.8264
92.405
91.0538
85.0892
84.9987
91.7561
91.3466
64.0557
85.8707
58.4228
92.0951
91.8266
69.0504
94.1017
89.7077
85.5177
84.0146
47.9855
74.1788
88.9197
82.2295
92.5433
87.6681
80.4555
92.4662
85.1134
40.0585
34.5429
47.147
93.9956
84.6092
91.523
86.4813
84.5754
92.419
35.4782
91.123
7.82553
95.2395
81.7509
58.0277
92.028
50.2828
84.0327
93.7409
44.0355
80.153
85.082
94.2129
39.7165
91.6093
85.714
83.6116
92.5141
8.30324
88.3396
86.0231
88.749
84.1759
84.2907
84.8203
86.9213
87.119
85.5664
62.5775
88.5246
90.864
91.0228
91.1434
86.4424
78.2896
92.8273
69.6128
92.2604
89.333
90.1042
85.669
83.322
84.5162
89.6947
77.4976
85.4705
89.1403
91.2853
87.8901
92.6491
81.7439
83.8518
85.6973
88.6022
95.8246
91.6337
87.0054
80.967
88.1928
92.2067
96.0303
84.6352
94.4476
25.0707
93.1671
93.5704
93.314
93.8943
93.0579
92.5513
92.8602
92.2439
92.2555
91.999
92.3465
46.1253
92.4155
92.4928
92.6335
92.5876
92.6613
92.4964
86.2133
83.9116
83.7812
91.7972
89.012
95.3053
88.8148
89.0322
84.8461
48.3298
95.3715
93.6825
84.4165
91.8831
48.8055
88.9983
93.5448
91.7719
95.4427
48.698
91.6884
47.3785
88.996
89.0005
95.5575
84.9719
46.8392
46.551
91.4434
92.0622
92.6938
89.0394
85.0316
92.8189
46.3919
88.9701
92.9001
84.9565
95.6769
92.7539
94.0303
92.2056
45.8987
89.0198
94.1851
92.3233
84.8454
95.8065
94.3502
45.3183
89.0785
90.1013
90.3804
92.3501
95.2314
89.6612
44.7255
47.1176
92.3467
88.9911
89.1988
90.893
92.3454
84.8037
95.8793
94.3191
88.9896
85.894
91.5989
92.3465
85.0948
46.6289
83.0847
89.1529
91.9895
85.6396
92.368
85.4845
44.0769
92.1536
92.3935
82.8398
83.9149
89.2075
92.4432
84.9092
91.5369
94.5384
83.4439
81.8004
92.1928
92.4056
90.3208
90.0171
92.1444
89.1464
91.2353
83.932
84.3161
72.7149
90.663
91.7433
84.511
89.8827
91.9355
87.5291
91.7955
85.1493
85.3816
89.6977
77.4697
53.9167
92.0049
45.5729
71.6476
88.3066
35.678
87.317
83.9029
85.3679
91.1407
91.6972
88.2747
61.0952
91.9695
88.7311
86.9914
82.0603
85.6674
83.8047
92.1638
93.813
88.6689
68.8239
83.9263
80.7796
79.3856
92.4936
88.9745
88.7072
86.3564
92.6171
91.8992
89.143
87.89
84.9908
95.12
91.2851
85.0993
85.3414
77.0649
45.4166
62.827
92.147
87.9922
89.3118
75.8311
85.7563
21.6706
75.6789
85.0545
92.4526
85.5772
89.2026
87.4579
91.8408
86.4939
91.0487
41.2306
85.0881
93.7539
86.2261
81.1962
83.5302
86.6858
87.2272
89.4366
78.4118
91.3333
91.8052
72.5349
85.5108
90.4825
89.4162
89.0633
91.7772
88.0807
79.8747
41.2321
84.7357
90.8818
85.1218
90.831
70.0032
85.0211
87.6583
89.6263
90.3085
79.0603
84.9125
30.2553
82.1933
91.8078
92.8707
84.0048
77.6702
92.3835
85.7665
90.8104
74.0948
94.4658
50.4562
58.6628
91.1198
92.0987
88.2464
89.8627
84.2159
96.2372
94.4787
88.6852
92.5758
87.9361
81.043
34.138
91.768
92.8872
85.7727
29.2027
84.9751
84.5225
84.9567
84.8473
86.0858
82.3121
37.8658
91.8869
93.697
91.6069
91.7123
92.2967
82.0337
84.6444
95.9861
91.4594
82.8083
83.7879
92.8052
73.8048
85.5486
84.1314
68.1859
78.0883
82.1972
89.223
83.3697
90.9262
22.9589
85.0456
76.0978
84.1642
87.8786
88.1023
84.266
82.4676
95.4024
94.2662
94.8134
91.0808
89.8456
85.2323
90.7891
93.5254
87.5025
47.1585
89.1837
91.905
80.9563
85.0798
91.4492
61.0837
56.5498
92.0057
75.7584
94.1631
85.0109
84.2529
96.2646
91.4001
71.2109
39.9888
85.2727
91.465
89.2007
85.0423
86.155
93.1373
85.3384
85.0334
95.5454
86.0331
88.9449
91.7512
85.5981
83.6052
88.9578
7.51126
85.7979
91.484
92.3862
86.2194
83.4049
28.016
83.4921
96.3994
88.8959
95.1695
91.4074
88.9891
89.0281
88.452
85.583
90.7924
86.9211
84.8577
91.3602
90.921
86.0133
84.7038
86.9768
90.7201
95.6266
82.6272
92.1004
88.5962
91.5955
80.99
47.9121
85.987
85.9689
91.768
84.814
84.594
96.1351
92.0836
90.9299
92.1671
84.4386
85.272
84.4645
85.498
91.0827
92.1627
84.9107
95.5142
93.3872
92.6451
14.275
92.6502
87.4309
86.9766
85.8031
46.656
84.7336
85.15
39.7767
91.9976
47.7071
92.437
92.251
93.0666
91.296
92.3927
81.8373
88.33
91.4907
79.6979
91.5845
91.8611
83.6545
92.1559
89.0673
92.4284
68.3796
40.1152
91.996
83.3816
52.2689
86.5963
93.4998
89.8312
88.4201
89.8601
92.2481
92.148
92.7694
87.7083
57.3423
92.118
51.6178
87.8882
64.8279
95.3433
82.9421
91.7607
84.2762
93.609
91.8438
84.3701
89.6241
93.9502
92.0134
83.4879
82.669
88.0103
84.3779
91.6665
89.4328
91.6337
88.9802
48.1584
88.2137
91.637
48.7016
91.013
84.5247
85.1315
95.5496
89.0624
91.2399
88.6142
89.9417
46.0921
85.2097
90.3682
35.3423
54.569
48.2359
35.3791
63.7207
93.1827
93.4786
94.2994
93.8771
58.455
92.9265
89.8972
91.2051
90.6601
89.0395
67.9806
51.6174
88.331
74.6499
71.4468
87.9121
92.7394
92.5658
87.6305
92.3843
92.2382
87.2837
92.1762
91.544
65.8612
91.8795
94.172
86.5152
85.1405
80.0867
38.025
95.0054
80.0074
84.2088
95.9176
88.2917
51.3083
84.94
95.7816
65.0555
87.6468
91.6918
84.7219
85.0557
46.4887
89.8154
92.1886
86.1642
83.8254
84.3662
89.3298
45.7407
92.2858
85.0348
91.5851
91.5535
87.5556
89.7179
51.9106
91.5494
89.0205
92.2203
85.6592
88.236
95.2768
82.7294
93.3179
86.9443
92.2448
84.8875
95.5001
92.0889
86.8163
42.2562
91.2067
87.2278
89.5778
95.5878
85.059
85.0569
91.9809
92.1861
85.0951
87.7607
86.0226
39.3694
92.3631
84.8921
95.7198
93.1222
89.001
20.7579
89.0246
92.7112
89.0304
41.0746
90.014
67.5536
88.9981
88.9083
85.1781
91.9577
94.2911
87.901
86.8155
59.2893
31.4004
92.1399
89.596
85.7791
85.2142
85.0751
95.5155
83.3576
92.7837
95.629
83.6477
93.7246
41.357
93.5727
85.1667
91.7095
85.2378
93.4677
85.3306
92.7402
86.827
83.4906
85.074
92.2479
86.0001
84.2621
23.3292
17.2742
89.0409
94.9809
79.8993
85.1717
90.5443
49.8645
83.5364
86.9007
87.4419
59.6773
46.9657
85.1609
81.9509
93.2436
85.9244
65.3913
46.3044
92.4053
83.764
85.2067
41.4995
85.3627
91.2461
84.7427
6.35322
93.6248
43.0141
51.908
91.1135
94.1335
87.4319
85.0647
92.2001
85.4772
85.1077
85.5955
86.6281
92.913
86.8117
93.6904
92.0184
55.379
91.9496
93.8203
91.6882
49.1669
88.8538
49.0313
93.9064
91.4648
49.2338
91.7728
57.1156
54.7951
52.4821
47.9529
47.7085
46.8439
50.4393
46.976
86.2523
85.5259
85.6161
86.0875
85.7486
85.403
90.5326
79.6265
92.2619
90.1991
91.345
84.1592
85.7286
94.0372
91.8587
89.0315
87.9221
89.0426
92.2009
82.8416
84.9874
95.7987
90.3293
77.9144
94.0055
95.0707
87.0368
76.9832
85.3273
83.2222
39.8015
92.4023
93.0263
93.0742
79.6318
92.2402
85.8205
29.6013
92.1344
90.4622
85.9478
92.2908
85.4062
85.9413
84.8756
95.4451
86.1443
84.8353
95.7648
94.173
77.8509
93.1595
92.1259
85.1346
88.7497
17.3526
91.8849
38.3573
6.76449
84.0467
45.8795
85.378
95.5822
88.2694
42.8625
85.3732
87.0356
94.1728
72.7732
91.7542
84.9931
93.1289
92.0421
89.0457
91.7555
88.6234
88.103
52.165
39.6683
14.6451
73.4032
90.3956
84.5584
92.2412
84.9624
92.9184
93.7919
84.9978
95.6638
47.2731
90.7748
89.1659
40.4056
87.4213
83.8005
91.5675
89.0811
95.2123
78.4481
66.3216
86.8937
91.9471
83.5771
90.6055
41.9819
92.3499
43.7898
88.9596
95.9106
84.7082
37.2789
67.9712
94.6486
91.4136
90.7938
86.0145
51.7424
91.3019
88.087
84.9758
84.6265
95.8495
91.5592
85.794
86.3768
92.212
49.0782
81.7983
91.2347
91.6249
85.1318
85.7667
92.6695
84.8844
73.5654
85.4317
91.3897
43.6757
87.3683
91.6185
86.714
90.5328
85.7136
84.4153
95.9482
87.3397
62.3267
84.7264
23.7285
92.1008
83.8693
83.3662
55.5307
83.3021
88.746
87.4318
91.0673
90.5679
89.4436
88.413
93.4812
87.3063
78.2794
84.4327
81.1985
85.5711
86.0142
55.1452
91.5808
59.2651
89.1558
90.9215
85.857
86.8272
85.2025
95.5719
92.4805
82.4566
85.6824
83.9891
36.0475
84.9269
85.4929
91.8395
93.629
83.6572
84.0864
93.0718
59.5179
91.2372
93.6987
46.7312
79.0342
86.5463
87.7164
88.1228
83.773
95.9607
94.6839
77.6247
86.0863
92.7369
85.8166
88.0151
92.5988
50.4628
88.0615
95.6443
84.97
90.3487
59.6983
84.3187
93.2941
92.3033
53.3995
92.1928
93.7807
91.9367
32.3092
86.1031
91.166
91.7169
93.4328
40.4526
83.435
54.2148
84.9695
85.1053
84.413
50.2748
85.4284
34.3176
61.5354
92.2605
95.8329
81.9057
48.6269
93.2896
14.1275
84.1946
92.2349
82.0275
92.1702
90.5653
58.0363
85.2767
79.5928
40.9825
56.1646
96.1354
83.9619
85.2954
47.1802
85.1068
85.8599
95.6806
53.9105
89.0507
84.5756
92.2071
75.8911
78.4522
92.4872
91.3933
85.8747
85.0978
51.7946
51.4407
85.0831
86.1847
91.3866
91.7159
92.7096
92.2742
83.2521
89.2657
85.8289
89.8566
89.0234
92.4408
55.6065
92.3709
85.5367
94.2642
74.5207
85.8916
85.1163
89.7012
85.1529
85.4905
85.1107
89.6187
92.3608
85.5682
85.4004
53.3637
47.905
81.2807
88.9744
85.5194
93.8984
91.992
94.6693
91.785
91.7735
93.5357
93.4552
90.9262
85.8438
51.9624
94.7001
77.8501
91.0429
80.1228
46.1339
85.4576
85.8497
80.0457
86.9516
96.0302
37.6251
92.1535
92.2113
93.9862
91.3993
88.7207
88.2347
88.1078
87.1742
84.8232
8.93784
58.1098
81.2769
91.1916
79.9343
81.9391
85.9797
93.1365
93.7743
90.0461
92.3993
96.0959
96.0228
93.7041
91.9058
86.0008
93.4487
95.6955
91.3801
)
;

boundaryField
{
    frontAndBack
    {
        type            empty;
    }
    wallOuter
    {
        type            zeroGradient;
    }
    inlet
    {
        type            zeroGradient;
    }
    outlet
    {
        type            fixedValue;
        value           uniform 0;
    }
    wallInner
    {
        type            zeroGradient;
    }
    procBoundary3to1
    {
        type            processor;
        value           nonuniform List<scalar> 
48
(
94.0581
94.5385
94.3284
94.1715
95.6858
94.5901
94.5385
94.5215
94.0335
95.0849
95.0849
95.2987
95.2987
93.6733
93.4602
95.4307
95.6005
95.4957
95.6005
95.7103
93.9653
94.1829
95.7103
94.6367
94.6369
95.6897
94.3624
94.1829
94.4644
95.8469
95.8469
94.5327
94.5327
94.0335
95.6636
95.7326
94.2986
94.6369
94.0591
95.325
93.6733
94.1904
94.1299
95.7103
93.3168
95.2537
95.4074
93.8119
)
;
    }
    procBoundary3to2
    {
        type            processor;
        value           nonuniform List<scalar> 
29
(
91.1697
91.1697
88.3634
89.566
93.5775
92.0565
85.7151
91.7673
89.1932
89.2777
91.8451
93.4573
90.8574
85.7103
86.2591
85.5712
88.5866
88.8995
91.2714
86.1395
86.1941
88.5866
86.4129
88.8995
86.3337
88.2702
88.8995
93.3022
93.3022
)
;
    }
}


// ************************************************************************* //
