/*--------------------------------*- C++ -*----------------------------------*\
| =========                 |                                                 |
| \\      /  F ield         | OpenFOAM: The Open Source CFD Toolbox           |
|  \\    /   O peration     | Version:  v1912                                 |
|   \\  /    A nd           | Website:  www.openfoam.com                      |
|    \\/     M anipulation  |                                                 |
\*---------------------------------------------------------------------------*/
FoamFile
{
    version     2.0;
    format      ascii;
    class       volVectorField;
    location    "0.23";
    object      U;
}
// * * * * * * * * * * * * * * * * * * * * * * * * * * * * * * * * * * * * * //

dimensions      [0 1 -1 0 0 0 0];


internalField   nonuniform List<vector> 
5794
(
(-1.28501 -0.284175 -2.56255e-17)
(0.0630216 2.20626 0)
(1.41413 -0.0833319 -1.49088e-16)
(-1.08022 0.314857 1.58949e-16)
(3.0639 0.729454 3.14799e-17)
(-0.0942936 2.33204 -1.06388e-16)
(-4.05154 -0.19866 -1.22929e-16)
(-6.57412 1.05848 0)
(5.69973 1.38158 9.82015e-17)
(-0.641188 0.0157243 1.97384e-16)
(5.05699 -0.0425116 5.56855e-19)
(-1.60636 0.12773 0)
(0.319033 -0.652484 6.19549e-16)
(1.2955 3.78702 2.57069e-16)
(3.63575 0.0966584 3.30686e-16)
(0.575979 -0.445588 -1.5675e-16)
(1.4432 0.25171 5.38756e-17)
(1.30583 1.31863 2.40522e-16)
(3.89269 -0.111986 3.12739e-16)
(0.067163 1.9373 1.30922e-16)
(-2.80533 1.53583 -4.57362e-17)
(0.197266 2.93573 -1.12412e-16)
(-0.175516 -0.0147997 3.69982e-16)
(1.52583 -0.0752456 -5.40354e-16)
(-3.05518 -0.483181 -3.33738e-16)
(2.74137 10.1388 2.03689e-17)
(6.90498 -0.137969 0)
(1.26268 6.88257 -1.09112e-16)
(-0.930781 7.58618 -4.3158e-17)
(-0.272588 -0.0208691 2.97115e-16)
(0.00586182 -0.486545 -6.75137e-16)
(-1.17228 0.112416 -5.66158e-16)
(-3.15227 0.307578 -7.68149e-16)
(-1.20432 -0.416869 3.85613e-16)
(-1.05703 -2.27874 -1.6092e-16)
(0.707641 -1.27102 1.81538e-16)
(9.795 0.542117 -2.13375e-16)
(1.76522 -0.11645 0)
(0.681166 -0.100538 1.7802e-16)
(-1.15839 1.71556 0)
(-2.48199 -0.686946 -1.2983e-16)
(-0.060753 -0.23531 1.60942e-16)
(7.57912 0.117732 -9.05889e-19)
(0.429018 -3.174 0)
(3.27018 -0.137419 -2.99998e-16)
(5.07301 -0.826925 1.3267e-16)
(4.11456 -0.0307418 -2.3727e-16)
(-4.21803 -0.656877 0)
(-0.731924 0.333057 7.17458e-16)
(0.427196 -0.246611 7.29335e-17)
(0.155977 -0.0541271 -1.74398e-16)
(8.21785 -0.0593221 -1.34044e-16)
(1.77886 -0.293576 0)
(2.83121 2.76677 9.91355e-17)
(-0.0776116 -0.0493984 1.06033e-17)
(4.28048 -0.730737 0)
(4.64321 -0.0878845 -1.84878e-16)
(-4.67566 0.0792632 1.02095e-16)
(8.54829 0.0677772 0)
(4.10111 9.45314 -7.00254e-19)
(9.27156 0.436576 1.85328e-18)
(0.625238 1.87009 -1.03417e-16)
(-0.0585034 -1.00291 -1.58463e-16)
(-0.482984 0.211708 2.33381e-16)
(-2.19857 -0.250007 0)
(1.63004 -0.0383605 -2.42144e-18)
(1.36944 0.67821 -2.57631e-16)
(0.259263 0.292168 0)
(0.871284 0.996209 -2.57696e-16)
(0.0153172 0.948284 -4.85688e-21)
(7.68476 -0.117499 9.70469e-17)
(1.2355 0.953295 -3.89143e-16)
(12.2454 2.06618 -3.6183e-18)
(-3.21866 0.316489 0)
(0.932686 0.941827 2.52277e-16)
(0.658527 6.75917 -1.51005e-19)
(0.108683 -0.138915 1.51816e-16)
(1.52751 9.94826 -2.10476e-17)
(0.232804 -3.2043 3.55569e-17)
(0.301032 0.00710556 7.40409e-17)
(-0.345351 0.728508 -1.87014e-17)
(0.0533035 1.72947 -1.33229e-16)
(-2.16661 -0.035799 -7.8589e-19)
(-0.829688 -1.27494 -9.57684e-17)
(1.65148 -0.614659 -3.74277e-16)
(-0.107572 1.85217 -6.20319e-17)
(0.193106 5.31963 3.327e-17)
(0.100074 5.91384 -2.35498e-17)
(1.07552 0.304302 -1.6233e-16)
(-0.522414 0.0606931 -5.55958e-17)
(0.691273 5.44477 -8.80636e-17)
(0.201146 5.56231 -9.57954e-17)
(-0.568923 7.90475 1.33744e-16)
(0.110341 8.49983 5.70571e-17)
(0.274893 3.58383 4.77637e-17)
(-2.3413 0.263091 4.69627e-18)
(0.0425919 5.98472 -6.09531e-17)
(-0.421942 6.89849 -1.45454e-17)
(0.00764184 5.70155 0)
(9.02225 0.483899 -2.99288e-17)
(1.74534 3.16612 -1.22822e-16)
(-0.273315 0.00535411 -4.87043e-16)
(8.47103 0.149594 7.01042e-17)
(1.35109 3.50729 -3.65777e-16)
(3.1552 -0.286842 0)
(-2.25929 2.79913 0)
(0.0465954 1.90355 0)
(-0.720722 -0.200923 -2.96021e-16)
(-0.710568 0.842777 -1.19219e-16)
(0.0834497 -3.20749 -9.74372e-17)
(0.607754 -0.420769 8.25551e-19)
(-2.11427 -0.33001 0)
(-1.3635 4.63524 1.12089e-16)
(0.492422 -0.279492 1.50191e-16)
(0.186797 4.1664 0)
(-0.175859 8.94257 0)
(2.67954 0.623522 -2.5895e-16)
(-1.79189 1.68629 2.53234e-18)
(9.49609 0.391182 -2.25549e-20)
(10.8347 0.590392 5.97337e-18)
(-1.98412 2.29432 2.04758e-16)
(2.97225 0.0719403 0)
(-0.818166 0.0998053 0)
(0.974249 7.55893 -1.24576e-16)
(-0.591028 -0.122424 1.94792e-16)
(4.80781 2.40722 4.94074e-17)
(1.32062 4.11307 0)
(-0.0647881 2.27487 6.47756e-17)
(9.07217 -0.535419 8.41805e-17)
(-1.2249 -0.0105085 1.4855e-16)
(-1.31968 -0.371875 2.97067e-16)
(2.60274 -0.266837 1.59794e-16)
(0.931663 1.25467 2.44511e-17)
(1.11508 9.56542 -6.48932e-17)
(-1.51959 3.13596 2.2384e-16)
(2.23337 0.437106 0)
(4.73742 -0.183117 8.72284e-17)
(0.81345 1.78531 -1.57673e-16)
(0.0246476 -0.246149 1.99563e-16)
(-0.0116087 -0.752345 0)
(-2.8723 -0.619377 -3.72253e-16)
(1.7806 1.8407 0)
(-0.462744 -0.535747 0)
(0.913712 1.54697 4.09787e-16)
(0.0625308 -0.175294 2.24632e-16)
(1.77625 0.036434 1.755e-17)
(-1.12874 0.370711 2.58912e-16)
(8.09761 0.272077 2.23371e-16)
(3.68204 0.52364 -1.93322e-18)
(-0.583791 0.270859 5.14979e-16)
(7.44276 -0.191047 -1.66974e-16)
(1.93167 0.653077 2.39009e-16)
(-2.03968 2.8398 0)
(-0.911428 0.106591 2.01719e-16)
(4.60908 -0.364174 0)
(3.87059 0.0945697 0)
(0.530148 0.0204148 -3.02141e-16)
(-1.18273 -0.109407 4.12476e-16)
(6.54614 0.246744 -2.22887e-16)
(1.51102 -0.319518 -1.35878e-16)
(-1.82796 0.348283 3.38233e-16)
(2.94219 0.00641923 -2.85138e-16)
(-0.655741 -0.159981 0)
(4.03799 -0.215812 -1.01925e-16)
(-3.50579 0.0104463 -2.55868e-16)
(-3.9799 -0.120385 1.32865e-16)
(4.05444 0.0586221 8.6527e-19)
(1.03196 0.383557 -3.5773e-18)
(0.340751 -0.0657719 0)
(-2.11509 -0.13101 7.54776e-19)
(-0.411575 -0.02218 0)
(-2.02388 0.602361 -1.04348e-16)
(2.04921 0.0153037 0)
(0.509248 0.00669133 1.10348e-16)
(-1.57178 -0.00569162 3.88337e-16)
(-0.470965 -0.411102 0)
(3.18597 0.104672 -1.75668e-16)
(-4.21869 -0.762695 -1.78835e-16)
(0.867078 -0.257392 -8.55721e-17)
(6.68433 0.327133 6.12055e-18)
(-0.426663 -0.225331 -5.89241e-18)
(-1.07792 -0.20674 0)
(1.65872 -0.144906 0)
(-1.69225 -0.400969 1.26962e-16)
(2.30905 0.218901 0)
(-0.384109 -0.670932 6.90448e-17)
(-0.48949 0.166961 -1.62731e-16)
(-1.51689 0.462755 -9.14841e-17)
(-1.23125 -0.0822534 1.16461e-16)
(-0.600942 -0.133936 3.6862e-16)
(4.80809 -0.0232659 -3.2603e-16)
(-1.37887 -0.0678885 4.03341e-16)
(-2.88326 -0.0138554 5.29476e-16)
(0.429683 -0.329264 6.29842e-16)
(1.99882 -0.108288 -8.50715e-17)
(-1.52191 -0.172587 -4.94729e-16)
(-7.12994 -0.321221 -1.34179e-17)
(-0.407998 -0.0886898 -1.83733e-16)
(3.38501 -0.338702 -2.25007e-16)
(6.58995 -0.0449824 1.16646e-16)
(-2.93072 -0.703969 -1.5974e-17)
(7.36886 0.164768 0)
(-2.85141 -0.656005 0)
(-2.02478 -0.767539 8.86905e-18)
(3.90123 0.0512762 -5.82258e-17)
(5.27454 -0.376714 0)
(0.00879662 -0.176298 1.22944e-17)
(0.515977 -0.233078 2.60101e-19)
(6.11229 0.631341 -6.44428e-18)
(3.10417 7.05557 1.34873e-16)
(-0.343577 -2.8155 8.76716e-17)
(9.76554 -0.0163635 0)
(2.97804 -0.434785 -7.72753e-17)
(1.65464 0.409556 1.41648e-16)
(0.590433 -0.332421 0)
(-5.668 -2.35998 4.48418e-16)
(-2.28157 -1.17895 -1.29495e-16)
(1.85447 1.82747 1.00319e-16)
(4.61891 -0.16717 1.20836e-16)
(1.67731 5.48791 -1.84982e-16)
(9.68669 -0.0092542 0)
(0.80011 -0.409799 2.702e-16)
(0.23958 2.27469 0)
(-1.29222 7.49181 2.33162e-17)
(5.61295 0.110394 1.23967e-16)
(11.8855 0.74633 2.03478e-18)
(0.480607 0.0629187 -7.94576e-17)
(0.747929 -0.362519 -1.03301e-16)
(3.76533 -0.0430274 0)
(2.24885 0.586912 -2.37198e-16)
(0.918606 -0.660498 0)
(-1.69522 -1.39687 -6.07314e-17)
(-1.70655 0.134555 -9.61934e-17)
(-0.162323 0.466316 1.38351e-16)
(1.32974 0.305785 1.93637e-16)
(9.47116 0.15196 6.54712e-18)
(7.85927 0.579983 2.2582e-18)
(7.59588 0.55682 2.73812e-17)
(-1.36139 -0.798887 -1.66723e-16)
(-3.2116 0.0853867 -3.26467e-16)
(0.0822109 1.42824 0)
(1.38442 0.896206 1.37014e-15)
(1.19451 3.76322 2.32715e-16)
(-0.888636 -0.0792438 -2.86825e-16)
(-0.995327 0.267212 2.90086e-16)
(0.903921 -0.60715 2.78149e-16)
(2.6754 -0.385851 -1.03129e-16)
(4.10566 0.434714 8.28366e-18)
(-0.106833 5.77009 0)
(0.00904649 3.21469 0)
(-0.0647931 4.80301 0)
(1.47615 -0.117044 2.54543e-17)
(3.09576 -0.248829 -7.55923e-17)
(-0.514176 0.0463469 7.96551e-20)
(7.50588 1.11164 -5.48553e-17)
(5.15186 1.28652 -1.34471e-17)
(8.39264 0.224539 -1.4349e-16)
(9.13384 0.48369 1.53684e-16)
(0.232229 -0.392738 3.46696e-16)
(-1.74158 0.119663 0)
(6.40915 -0.0293064 -1.05817e-16)
(3.20173 -0.0364676 6.75776e-17)
(1.60288 1.05135 -7.73623e-17)
(0.86679 -0.0735969 0)
(-3.11714 0.247379 0)
(-0.0100888 0.179385 -6.88803e-19)
(-0.110616 1.1899 1.88192e-16)
(4.01145 0.826629 0)
(-2.21719 0.230839 -5.44477e-16)
(6.06383 -0.307457 -1.0253e-16)
(3.61718 0.110606 0)
(-2.63961 -0.996844 -2.32441e-16)
(-2.96457 -0.182063 -4.31229e-16)
(7.76423 -0.157071 -1.13363e-16)
(9.53402 0.0923773 3.56857e-17)
(3.23323 0.211214 2.28009e-16)
(3.28763 2.44729 -1.14408e-16)
(-2.91408 -0.196242 -7.24803e-17)
(0.857352 0.374348 -1.80589e-16)
(-0.322334 -1.03118 -2.81875e-16)
(-0.522642 -0.18502 3.67291e-16)
(0.858937 3.32765 2.77741e-16)
(-2.7397 -0.655091 1.32931e-16)
(-0.216794 -0.426811 -4.45132e-16)
(-0.685815 1.38028 8.20502e-17)
(-0.560372 7.04452 9.72077e-17)
(0.244915 4.70179 1.43636e-17)
(0.335416 6.07104 0)
(0.746343 6.43304 4.16242e-17)
(-0.933076 2.66148 0)
(-0.131034 -0.948488 -1.5734e-17)
(-2.39479 -2.29984 -9.88741e-17)
(-1.01179 -0.12403 2.28592e-18)
(3.39903 1.16114 0)
(8.24337 1.5961 0)
(1.49865 7.02614 6.63182e-18)
(-2.84814 -0.848263 6.26462e-17)
(-0.920571 -0.375529 3.27811e-19)
(0.097735 1.12816 -3.21981e-16)
(0.808039 -0.133016 -1.75792e-16)
(0.0498057 1.44277 9.65553e-17)
(-0.439718 6.27935 0)
(0.0616885 -0.263642 -8.19492e-16)
(0.265666 1.10363 0)
(-0.702446 -1.885 -1.36067e-16)
(3.83761 0.291537 1.55886e-18)
(0.738828 0.312247 -2.58238e-16)
(0.631803 0.79838 4.28138e-16)
(6.52181 0.121854 1.9947e-16)
(3.93543 0.141651 0)
(-1.57469 -0.355336 -5.6689e-16)
(-0.0873648 0.797535 -2.96652e-16)
(1.90083 5.8869 -1.53805e-16)
(0.553568 -0.212702 -8.47194e-17)
(10.5982 0.117248 0)
(10.0626 0.285295 -1.77634e-17)
(-0.563541 -0.289745 -1.09293e-16)
(1.46126 5.83378 -2.28266e-16)
(-1.83709 0.548013 -2.12321e-16)
(-0.00189573 4.0937 -5.50605e-17)
(-4.18444 4.31646 3.33145e-16)
(-2.75042 0.914205 -1.37332e-16)
(-1.46025 1.19378 -1.84239e-16)
(3.77129 0.656502 -9.28246e-19)
(-0.133817 -0.545952 0)
(0.166384 -0.323838 0)
(-2.22711 0.396421 0)
(-1.58016 -0.036591 6.77688e-17)
(1.17686 -0.478232 -3.5392e-16)
(4.8323 -0.104782 2.82843e-16)
(7.44925 0.11654 -6.03811e-18)
(6.7567 -0.122412 2.92608e-16)
(-0.208374 -0.149553 1.00571e-16)
(-2.56314 0.516161 4.33866e-16)
(-0.928665 0.207313 0)
(-1.04813 -0.150867 -2.14418e-16)
(-0.569258 -0.111963 0)
(-0.173619 -0.161888 0)
(-1.17923 -0.0127795 -2.7898e-16)
(-0.725684 -0.070274 0)
(1.30756 -0.214676 3.98366e-16)
(-2.21293 -0.21518 3.52068e-16)
(5.97396 0.671435 0)
(0.244309 0.3195 0)
(3.15993 0.239694 3.2163e-16)
(1.72529 0.200639 3.30213e-16)
(-0.754894 -0.461237 3.61637e-16)
(-0.40831 -0.299212 -2.40583e-17)
(-3.8816 -0.222096 -9.998e-17)
(1.79504 0.0677683 7.65503e-17)
(0.862002 -0.119558 8.10644e-17)
(0.102057 0.19096 2.49119e-16)
(-2.57336 -0.21129 -2.16494e-17)
(-1.43557 -0.115002 1.59259e-16)
(1.09121 -0.280096 0)
(-1.08536 -0.242385 0)
(2.49577 -0.354626 1.43005e-16)
(7.06864 -0.420915 1.33005e-16)
(-3.73332 -0.55313 5.11339e-17)
(-6.99407 0.352475 0)
(0.275161 -0.320704 -3.33248e-16)
(0.993688 -0.0174554 5.31291e-16)
(5.13168 -0.0659152 3.45406e-17)
(-3.53271 0.0357563 -2.20769e-17)
(-6.37007 1.6332 -1.37725e-16)
(3.93498 0.0785167 3.24399e-16)
(-3.95554 0.00561056 -3.08434e-17)
(3.52322 -0.651657 0)
(3.79446 -0.162108 3.2082e-16)
(-4.26301 -0.0367611 -6.93115e-17)
(0.950833 1.55191 -1.10658e-16)
(1.10815 -0.0813496 0)
(3.82672 0.0645559 -7.64321e-17)
(0.155419 0.0820417 3.32686e-16)
(0.346635 -0.301366 1.01444e-16)
(-2.99326 0.216501 1.22153e-16)
(2.83595 0.179872 0)
(3.85263 0.225517 7.89791e-17)
(-3.99464 1.17798 0)
(0.844004 0.104457 1.39978e-17)
(-0.452444 0.411306 1.84344e-16)
(0.735528 1.16367 0)
(10.7859 0.0808268 0)
(2.11338 -1.05199 1.18386e-16)
(0.823939 -1.34293 -5.05348e-16)
(-1.20424 -0.567662 -2.99728e-16)
(-1.79982 9.26628 -2.78325e-17)
(1.43252 0.631172 1.98485e-16)
(-0.834263 1.70839 -9.15155e-16)
(3.65514 0.0451687 0)
(0.226397 0.0855099 -7.71472e-16)
(-0.737767 -0.0775452 1.55096e-18)
(0.0219727 1.02534 -2.3462e-18)
(-0.421738 -0.366955 1.6423e-16)
(1.39235 -0.558393 8.57651e-17)
(-0.980286 -0.279671 -9.53431e-17)
(-1.57455 0.0991024 9.91082e-17)
(0.773396 -2.95632 0)
(-1.82245 0.617032 0)
(-1.63513 -0.74075 -2.68251e-16)
(1.44195 -0.294474 1.27421e-16)
(-5.36537 -1.49147 -2.58894e-16)
(10.1179 0.0312048 3.33937e-17)
(1.16405 -0.195648 1.81209e-16)
(-1.73515 -0.348506 0)
(6.72525 1.02057 4.40529e-17)
(1.71769 -2.12806 4.98688e-19)
(0.0898464 2.56269 1.64078e-16)
(0.212584 1.7243 -3.12142e-17)
(0.036375 5.97361 -6.21943e-17)
(-0.512014 5.90145 2.62562e-17)
(0.0890036 5.82332 0)
(0.94024 0.560231 1.67258e-16)
(-1.15102 0.697586 2.45861e-16)
(6.168 -0.273296 1.76177e-17)
(3.98751 0.0324014 7.29307e-17)
(-1.43104 -0.251673 0)
(0.853168 0.938481 2.74164e-16)
(-2.5793 0.221421 0)
(-0.056959 6.15225 4.17553e-17)
(-0.048575 5.80646 -7.30143e-17)
(-0.338137 6.42614 3.16966e-17)
(-0.670167 -0.0901264 -1.56229e-17)
(1.22683 1.96469 -3.14913e-17)
(3.34482 0.0144417 0)
(2.5965 -0.300178 0)
(-1.23145 -0.225594 -1.76887e-16)
(0.409666 -0.354681 -1.95918e-16)
(0.0683982 2.12245 -1.16389e-17)
(-0.247288 2.72603 3.99222e-17)
(6.732 2.06409 2.36583e-16)
(10.0132 0.143814 1.26718e-17)
(0.282719 1.29085 -4.14873e-16)
(1.01159 -3.04617 -2.07204e-17)
(3.98908 -0.502309 2.1423e-16)
(2.14453 0.744055 0)
(0.727753 -0.363678 1.68343e-16)
(-0.464518 -0.654734 -9.51939e-18)
(3.49586 -0.361808 -6.68888e-17)
(2.78891 -0.248995 1.52944e-16)
(-1.036 -0.401867 2.17315e-16)
(9.95972 0.0954991 -2.47482e-16)
(2.81475 0.142294 0)
(-0.998921 -0.18156 7.73544e-17)
(-2.82749 0.0835705 -1.80891e-18)
(-0.0388779 8.83436 -5.38614e-17)
(0.202522 3.99685 4.68679e-20)
(0.115299 -0.173688 0)
(1.35371 -3.05562 1.43636e-16)
(0.751426 0.135082 -8.5922e-17)
(-0.277324 -0.218743 -2.167e-16)
(0.0773797 2.12644 -5.35877e-17)
(-2.6032 1.17726 4.6162e-17)
(0.232443 2.52456 -3.93449e-16)
(-0.70596 8.38164 -2.33835e-17)
(0.803984 -0.0297043 -5.34126e-16)
(0.320506 5.18553 -2.44269e-18)
(-1.85481 -0.36469 -2.02543e-16)
(0.13842 5.01692 -3.98061e-17)
(0.98933 7.04568 9.31992e-17)
(0.146819 1.64649 -9.51156e-17)
(0.119 2.06052 -1.81262e-16)
(-0.0948806 0.927222 1.79397e-16)
(0.209788 -0.820199 -3.76221e-16)
(8.70575 0.527071 8.97315e-17)
(-1.1824 0.0289552 -2.55119e-16)
(10.7252 0.480482 -2.12129e-18)
(2.89674 1.79283 7.58266e-17)
(0.693843 0.412357 -4.30717e-16)
(-0.113635 -2.9999 -4.43441e-17)
(0.623326 0.0185662 3.87721e-17)
(6.98139 0.668776 -5.43154e-18)
(1.64922 0.693867 -6.65939e-17)
(3.75387 -0.194273 1.96688e-17)
(2.05073 0.241371 -1.575e-16)
(-1.01805 -1.28787 1.12742e-15)
(8.05021 1.5256 -3.42664e-18)
(0.780866 5.66072 1.35633e-16)
(-3.01363 -0.100222 1.35369e-16)
(0.0949735 1.97897 4.48969e-17)
(-1.17035 1.02264 2.58366e-16)
(0.112403 1.17778 0)
(4.53391 -0.113774 -1.06722e-16)
(4.15224 -0.173074 8.15626e-18)
(-0.518033 -0.214007 1.98504e-16)
(3.82762 0.00397619 1.48475e-19)
(9.82503 0.0213991 0)
(-2.76988 0.29505 1.80315e-18)
(0.325021 -0.024089 -5.02319e-17)
(-0.107945 1.3978 -2.45499e-19)
(0.0592818 1.94702 1.63596e-16)
(-1.25237 0.423669 -2.21844e-16)
(-1.47839 0.919444 8.06956e-16)
(4.22731 0.532763 8.01759e-18)
(1.68641 -1.33997 -2.18904e-19)
(0.0830396 -0.560067 2.41861e-16)
(-0.555075 0.186235 0)
(0.674547 1.36856 0)
(0.19305 -0.142731 -3.73614e-17)
(7.17672 0.879806 -1.49428e-19)
(4.43157 1.0888 2.89671e-17)
(8.25988 0.857787 -7.30894e-18)
(10.3983 0.480802 3.21909e-18)
(-0.0271803 -0.544359 0)
(0.644867 1.98725 0)
(0.176165 1.87348 1.8209e-16)
(0.0467732 1.30385 1.98505e-16)
(9.17063 0.460872 -4.30083e-16)
(1.64637 0.842953 0)
(1.368 -0.269403 0)
(-2.05088 0.455693 1.94429e-16)
(0.663183 0.242398 1.60443e-18)
(-0.709774 0.511326 -1.88592e-16)
(0.750976 -0.0373231 1.93899e-16)
(0.629572 -0.118819 -9.58411e-17)
(0.308426 4.65752 -3.84819e-17)
(-0.597192 8.89048 -1.25828e-17)
(0.735711 -0.0445183 -2.57007e-16)
(9.92869 0.14548 -6.57288e-17)
(10.1296 0.269581 3.56513e-18)
(0.185901 2.04669 1.33835e-16)
(0.326978 1.96842 -3.36604e-17)
(3.13638 0.951586 -1.29327e-17)
(-0.437143 2.20177 -2.76405e-16)
(-0.639188 0.230288 9.92285e-16)
(0.0589366 1.77543 6.09389e-18)
(-1.81362 -1.22787 0)
(5.68465 4.1826 6.19962e-17)
(0.122311 2.01887 9.41084e-17)
(0.249448 2.8658 -9.48811e-20)
(-0.229848 1.92949 1.78702e-16)
(0.46471 -0.0476961 0)
(10.7645 0.276756 0)
(0.470966 1.23909 -6.00294e-17)
(3.89936 -0.019156 0)
(2.09847 0.0976575 7.09614e-17)
(10.04 0.0563933 -1.0341e-16)
(5.30548 -0.0148673 7.159e-17)
(-1.10148 0.132 1.12123e-16)
(7.42914 0.0530468 9.08169e-17)
(0.160011 3.09776 5.6343e-17)
(-0.636403 -2.63571 1.7769e-16)
(0.0890731 2.04012 1.73272e-16)
(1.27055 3.99342 -1.39173e-16)
(-1.64411 0.327357 -6.54024e-17)
(-0.210741 -0.339411 0)
(9.74998 0.746627 0)
(1.10142 1.57291 -3.54001e-16)
(0.484775 -0.137939 -2.07866e-16)
(-0.000717137 2.10927 5.76289e-16)
(1.29177 3.24523 -4.19848e-17)
(1.02111 0.177639 0)
(3.08777 0.0212895 -3.28854e-16)
(-0.75068 -2.03655 -1.32055e-16)
(0.0650814 1.93735 1.42761e-16)
(-1.07174 -0.60116 0)
(0.654664 1.81558 0)
(0.294522 2.90807 0)
(0.151305 1.89736 -1.49003e-16)
(0.585084 1.02265 9.8554e-18)
(10.6561 2.64731 -2.62851e-18)
(-0.291569 0.0749869 0)
(5.59872 1.3618 0)
(2.09609 1.02366 -7.32251e-17)
(1.40429 3.94084 1.01093e-16)
(-3.34897 0.219186 0)
(0.728849 -0.026387 4.02025e-16)
(0.846404 -0.16659 2.24399e-19)
(-0.0432415 1.58809 -1.48747e-16)
(1.04562 -0.22452 0)
(8.30098 0.549378 -6.14043e-17)
(-0.412419 0.519332 -1.51008e-16)
(0.657634 3.25614 7.03255e-17)
(0.189483 5.52727 0)
(0.891693 2.71501 -1.05025e-17)
(9.93695 0.234661 -1.98387e-17)
(3.38932 1.33939 -4.97027e-18)
(-0.329453 1.8534 -1.9767e-16)
(-0.781103 -0.680122 -2.54515e-16)
(-2.7624 -0.909301 -4.80444e-16)
(-0.681888 8.32113 7.12139e-19)
(0.464403 5.02555 5.93649e-17)
(2.44867 2.71648 0)
(10.4402 -0.14082 2.19083e-17)
(-3.36243 -0.250592 1.12999e-16)
(9.17134 0.762493 -1.13763e-16)
(0.303618 -0.418399 1.78773e-16)
(-0.720289 8.06845 0)
(-0.0333709 5.45666 -6.02684e-17)
(-0.0487535 4.98094 2.03601e-16)
(1.23005 -0.284216 -6.87156e-18)
(0.0246699 2.19067 4.83049e-17)
(1.24306 1.20139 5.60007e-18)
(-0.333379 7.76152 -2.60608e-17)
(0.287156 4.89116 -3.6686e-17)
(2.46591 8.86583 5.61355e-17)
(0.756066 0.0639242 1.93336e-17)
(10.1354 0.165448 0)
(0.242824 -0.0141848 5.25315e-16)
(2.48486 0.544365 -7.50304e-17)
(-1.11367 0.172355 -3.24222e-16)
(7.82032 0.545188 1.61299e-17)
(0.209212 4.95199 -5.78954e-17)
(-0.0895672 7.74256 1.79096e-16)
(0.817628 -0.0772956 8.07427e-22)
(-0.474836 0.255173 -1.17652e-16)
(1.12185 5.92526 0)
(-0.847642 0.133522 0)
(-0.0617317 -0.125826 -2.12939e-17)
(-1.49378 -0.0736842 0)
(3.51611 2.64948 -7.05159e-17)
(4.87749 1.75497 0)
(1.3083 3.72881 -2.33583e-16)
(2.35725 -2.50556 4.51823e-17)
(-0.137112 -0.240123 4.35684e-16)
(2.14329 0.396991 3.51884e-17)
(7.49632 0.717854 -1.42711e-17)
(3.5341 -0.0595252 -2.33317e-16)
(7.90322 0.149232 -2.75868e-16)
(-0.980994 -0.0272974 0)
(0.25079 1.87998 -7.21309e-17)
(5.07472 2.99954 1.58527e-16)
(3.71909 1.67511 -7.17899e-17)
(0.0312309 -0.346732 -4.66678e-16)
(0.368562 1.98888 4.97017e-16)
(0.0489117 1.82811 3.051e-17)
(0.239742 0.706445 -4.38178e-16)
(1.28931 0.474605 -7.4013e-19)
(0.958555 1.47842 -2.7508e-16)
(0.254486 -0.233175 1.97398e-16)
(-1.95271 1.03047 6.61331e-17)
(0.0863966 2.09304 0)
(0.142036 0.696059 -7.53862e-17)
(0.0721964 1.7672 -6.97609e-17)
(0.337611 1.81 2.66868e-16)
(4.50272 -0.122033 -6.1305e-17)
(1.57934 7.84434 -3.75679e-17)
(10.6596 0.423194 -7.17177e-17)
(3.70306 -0.0105058 7.0684e-17)
(1.82635 5.81139 -4.52093e-17)
(-0.969447 0.285912 -1.34687e-16)
(8.79974 0.181362 3.42613e-16)
(4.54436 -0.211177 -2.214e-17)
(0.0780083 5.39514 4.02059e-18)
(4.72716 -0.132862 2.33557e-16)
(-0.0206738 5.18612 -1.7396e-16)
(0.0977776 5.26644 9.64424e-17)
(7.27977 0.263358 0)
(0.185234 0.154584 -1.32685e-16)
(0.0888535 0.204203 2.88446e-17)
(0.129302 1.39951 0)
(-1.50604 -1.43256 -1.39113e-16)
(0.37402 0.854516 6.10723e-17)
(1.16864 0.585763 2.52155e-16)
(0.541226 -0.354121 3.16341e-16)
(4.13553 0.209462 -3.94095e-17)
(9.94475 0.663589 -1.14701e-18)
(-1.07174 0.0945448 -1.97354e-16)
(-0.320706 0.122223 3.39584e-16)
(2.2698 3.05024 -2.23956e-16)
(0.582737 0.104759 1.20599e-16)
(4.26462 -0.145728 0)
(0.118484 0.835013 -1.11325e-17)
(-1.97498 1.30498 -2.69819e-16)
(0.0549979 1.92569 3.32605e-21)
(0.309287 5.93175 3.03615e-17)
(0.340398 6.20202 -2.77187e-18)
(-0.544645 6.6997 -9.76042e-17)
(0.546132 4.68249 3.62397e-17)
(1.69752 4.31574 -1.56988e-16)
(7.45723 0.382174 6.74799e-17)
(0.393065 -2.81036 0)
(11.1215 1.07361 0)
(-2.13305 0.648005 3.10072e-16)
(-0.177672 0.44364 6.09119e-16)
(0.269996 4.95339 1.72782e-16)
(0.0220904 7.78266 -1.23838e-16)
(-1.76824 0.209747 1.10104e-16)
(1.39748 3.9689 -5.58495e-17)
(-3.1266 -0.299076 3.47563e-17)
(0.164361 0.998346 2.25397e-17)
(0.565969 -0.0581928 6.50835e-19)
(1.55782 2.38105 -4.72739e-17)
(0.0690192 -0.180199 -1.1372e-17)
(1.68349 2.02613 -6.04149e-17)
(3.95024 -0.0640951 -3.77602e-16)
(0.93238 1.55363 8.66152e-18)
(0.609138 1.51526 1.38981e-16)
(1.01173 0.465597 0)
(0.711654 -0.0411365 0)
(0.315538 -1.11702 0)
(0.674895 6.83512 2.4093e-16)
(1.26465 7.55709 2.57228e-16)
(-0.0418878 4.52807 2.92705e-16)
(3.87391 0.629014 2.44243e-17)
(6.1115 3.68266 -3.5194e-17)
(0.301497 -0.340501 0)
(0.0771769 1.22876 8.77025e-17)
(-0.495043 -0.160752 3.62443e-17)
(10.5448 0.0534693 -7.46544e-18)
(-0.552544 0.542991 -9.69246e-17)
(-0.728029 0.0284507 3.7498e-18)
(0.351976 -0.0751962 -1.70361e-16)
(9.13968 0.357181 -1.97657e-17)
(0.157297 0.4131 0)
(3.9824 1.5473 -3.27037e-16)
(2.64353 0.700851 2.50053e-16)
(4.32112 -0.176124 0)
(0.282767 0.581918 7.3686e-17)
(1.23977 2.66524 -2.97179e-16)
(8.88684 0.172701 0)
(1.67191 6.33088 -4.79963e-16)
(0.0471609 5.39714 -1.46096e-16)
(0.768659 0.997106 0)
(1.26076 0.563545 0)
(11.398 0.281221 4.33483e-17)
(10.3797 0.320892 3.34304e-17)
(9.95703 1.28291 2.00874e-18)
(5.49894 2.22597 -7.22466e-20)
(0.463839 4.88412 0)
(1.7125 0.445872 2.3463e-16)
(2.76503 6.4482 -3.00151e-17)
(5.09598 -0.0392937 0)
(0.55646 1.94959 -3.85603e-16)
(4.79327 1.16203 3.00212e-17)
(0.128889 -2.73919 -1.01569e-16)
(9.45134 0.841415 -5.1064e-17)
(10.8852 0.0425124 7.77406e-17)
(1.6759 2.07752 -2.09809e-16)
(9.98527 0.398961 -1.53885e-17)
(0.0819484 3.4307 2.32481e-16)
(0.866322 8.10234 4.37469e-17)
(0.552463 7.76513 -1.01817e-16)
(6.74757 3.70542 0)
(3.65957 0.854474 9.78161e-17)
(2.95916 0.172124 -1.34034e-16)
(2.83452 0.149005 3.06102e-17)
(-0.21389 0.426681 1.27399e-16)
(0.144742 5.62642 1.18096e-20)
(-0.522964 7.64053 3.18727e-19)
(0.410599 5.77166 8.25654e-17)
(0.546157 0.810291 0)
(-0.221067 0.558696 0)
(1.29049 -1.38515 8.24198e-17)
(-0.536469 -0.686479 1.60684e-16)
(-0.62084 7.6335 -8.65952e-17)
(0.0291014 4.47451 -4.04611e-18)
(-0.0400378 2.53235 0)
(2.63578 -2.08876 -2.83641e-17)
(10.1029 0.108192 8.54573e-17)
(0.197264 1.17299 0)
(-1.20192 -1.39591 -3.31474e-16)
(1.31119 2.68355 5.43177e-17)
(0.776971 -0.0339644 2.54119e-16)
(0.246504 4.7607 8.29034e-17)
(-0.267729 8.45966 1.29778e-16)
(9.65059 0.843117 0)
(0.246819 8.2265 -3.57719e-17)
(0.233785 3.55375 -4.54628e-17)
(9.54901 1.03841 -9.49772e-17)
(-3.08233 0.384679 -4.12871e-20)
(7.32551 1.05978 8.4081e-18)
(-0.7895 8.32086 4.96105e-20)
(0.293513 5.75065 0)
(0.136487 6.17997 2.89488e-18)
(-0.50013 6.29704 -8.72545e-17)
(0.804683 4.40888 -4.50867e-17)
(2.95528 3.90365 1.59255e-16)
(0.23213 -3.05433 3.26235e-17)
(-0.59472 7.32853 1.99832e-16)
(0.00629704 5.64588 0)
(-0.0589991 5.50578 -1.52735e-16)
(1.0192 0.102123 3.6453e-17)
(0.272616 0.477343 -1.49834e-16)
(3.52273 -0.034645 5.82866e-17)
(0.263669 0.378247 4.34328e-18)
(0.0780009 1.69145 1.13987e-16)
(-2.24432 -0.826501 0)
(1.76261 2.76728 1.6094e-17)
(-0.0133404 2.31859 -1.91291e-17)
(0.397684 -0.184164 -1.31964e-16)
(9.90879 0.935009 -7.62122e-19)
(1.29661 0.940059 -3.63031e-17)
(0.249873 2.46471 -1.72001e-16)
(0.17459 2.14041 -1.46034e-16)
(-0.69512 8.09468 -1.89829e-16)
(0.558224 5.0524 0)
(0.75576 -0.282373 2.93533e-16)
(-0.501949 7.87799 8.28264e-17)
(0.469748 4.84878 2.82784e-17)
(0.333218 -0.125516 -8.90636e-17)
(3.1189 3.49862 -1.70399e-16)
(0.152392 -0.961459 6.44919e-16)
(-0.639546 -0.865728 5.94071e-16)
(0.89891 0.837631 -2.41098e-16)
(0.574059 4.66467 2.96761e-16)
(0.0844224 2.13657 -3.09723e-16)
(-0.76021 -0.54827 -1.88631e-16)
(0.0693964 2.46859 -9.59171e-17)
(1.35386 8.39265 0)
(9.87661 0.0890147 0)
(-0.258675 -0.343005 -3.56723e-16)
(-0.741607 2.21981 1.57277e-16)
(0.145785 -0.0549597 -8.3645e-17)
(0.179161 1.17484 0)
(2.43682 0.997822 8.30855e-17)
(0.285343 -0.224638 -1.14285e-19)
(0.805651 0.504576 -7.44146e-16)
(4.4534 0.113744 2.10347e-16)
(0.98418 5.62283 1.20628e-16)
(-0.236635 5.1962 -3.40328e-16)
(-2.95065 -0.382005 3.2134e-16)
(-1.12894 -1.96048 -1.26619e-16)
(9.92211 0.833684 -1.32075e-17)
(0.735611 2.66726 2.44129e-16)
(0.247775 -0.661384 1.8352e-16)
(0.446242 0.199858 0)
(-1.10548 1.40252 4.9954e-17)
(2.2736 1.38215 -8.58709e-16)
(0.200329 1.7619 -2.18239e-17)
(0.292412 2.72912 2.35519e-16)
(0.891957 0.241283 3.27278e-17)
(8.89468 0.525116 -1.10543e-16)
(9.67351 0.364471 -2.86272e-19)
(0.386152 -0.183004 1.91022e-16)
(11.0776 0.0446111 0)
(1.72297 0.962646 -4.00962e-18)
(3.82107 -0.228925 1.88012e-18)
(4.27025 0.143031 -1.12142e-17)
(0.037373 5.38818 4.64258e-17)
(-0.694731 8.24221 3.46376e-17)
(0.0731557 5.08362 1.9488e-17)
(10.5292 0.0336492 1.41553e-17)
(0.560397 1.62192 9.85798e-20)
(-1.48626 1.27527 -7.70509e-17)
(3.8968 -0.250649 -2.57847e-20)
(1.71129 1.54862 0)
(10.0762 1.71328 -4.79067e-18)
(-2.83489 -0.0647048 0)
(0.255076 0.484134 9.57105e-17)
(-0.193239 0.209806 8.85591e-17)
(0.137198 1.55072 4.19039e-18)
(0.71466 0.604633 2.31463e-16)
(-0.0562876 0.0155484 3.88713e-16)
(9.38695 0.594465 -1.75676e-17)
(0.606482 -0.0789957 2.59931e-16)
(-2.93033 -0.726399 2.54519e-16)
(9.56745 0.977958 9.72666e-17)
(9.75961 0.293255 4.06414e-17)
(6.1235 1.68575 3.45079e-17)
(0.230128 5.05112 -5.517e-17)
(0.0237652 7.39392 2.32833e-17)
(-0.270569 2.64022 1.34041e-16)
(0.342451 1.71517 0)
(4.42733 0.772409 4.4931e-17)
(5.69188 3.16606 8.41924e-17)
(10.1237 0.0827054 -2.04577e-17)
(0.135397 -0.0900302 1.2768e-16)
(0.649864 -0.0930945 2.49675e-16)
(0.182661 0.340297 0)
(9.00335 1.57117 0)
(1.15094 1.62356 0)
(-0.480142 -2.67719 2.5345e-16)
(3.95014 -0.0785951 6.36769e-17)
(2.26724 4.85346 2.24386e-16)
(-0.132663 5.89131 3.03523e-17)
(1.57317 6.3331 -6.11928e-17)
(0.183629 0.365854 0)
(0.842191 2.71304 6.78334e-17)
(2.15071 2.80888 -2.00748e-16)
(-0.0505714 -0.226482 -8.36484e-16)
(11.2625 0.113856 9.48799e-17)
(6.03628 1.25685 0)
(-0.0327059 2.38763 1.55177e-16)
(0.912137 4.87994 0)
(1.39711 0.840244 1.39596e-16)
(0.529162 0.972262 -2.16274e-17)
(1.01574 9.11141 6.12548e-17)
(9.99493 0.991065 -1.32224e-17)
(9.89569 0.618984 1.01032e-16)
(-0.713683 0.151128 0)
(0.902781 0.84722 -7.12247e-17)
(-1.24729 -0.0347913 0)
(8.78989 0.349991 0)
(1.65342 0.17679 -1.22411e-16)
(0.495548 1.11906 2.09696e-17)
(-2.67878 4.61563 -1.30064e-16)
(3.09557 0.828752 -1.19074e-16)
(-0.0292036 -3.189 1.30488e-16)
(10.2871 0.103736 -2.12577e-20)
(5.90689 3.64604 -7.67208e-17)
(-2.15778 -0.417567 -2.85644e-18)
(0.313596 5.43801 6.71626e-17)
(0.0725974 6.90846 -5.23809e-17)
(0.577183 0.697277 -1.46435e-16)
(1.57252 5.89187 -2.63429e-16)
(3.01242 0.569734 -1.44262e-17)
(-0.452605 1.97306 -2.91642e-16)
(0.0649195 2.04787 -1.72879e-16)
(1.42221 -0.0258675 6.50596e-17)
(0.92996 -0.281551 2.04351e-16)
(0.529788 0.0924341 -3.058e-16)
(0.270692 1.87537 -4.51014e-16)
(0.0445956 2.27499 -3.19836e-16)
(6.88249 4.31815 3.55284e-18)
(0.569227 1.76625 4.95983e-16)
(10.084 0.0383535 -6.24842e-17)
(1.10503 -0.389553 0)
(0.29573 2.42145 -2.68737e-19)
(6.86083 -0.0524533 -6.60563e-17)
(-1.21302 0.0249331 0)
(10.0803 0.373976 3.95312e-17)
(-0.862857 0.294687 2.83312e-16)
(0.421005 0.321069 -2.62861e-16)
(8.64206 1.3145 0)
(0.29078 4.8142 -2.85703e-20)
(-0.745502 8.76641 0)
(10.0417 0.0738238 0)
(1.37488 -0.309499 -4.68355e-17)
(9.21593 1.04331 -6.38217e-17)
(9.0562 4.2287 -1.74275e-16)
(1.16157 5.39795 2.54206e-17)
(7.55625 1.9933 -1.03444e-16)
(-0.379941 5.57164 -5.78492e-17)
(0.0447384 2.22464 1.52485e-20)
(0.115298 5.10272 -7.14869e-17)
(-0.0188889 1.49285 0)
(-0.0486017 2.52656 1.10868e-16)
(-0.141374 -0.542737 0)
(-0.413818 -1.84969 0)
(-0.109757 -1.67522 0)
(0.325376 -2.23041 -1.48795e-16)
(-0.135736 1.69727 0)
(0.0881027 1.40458 1.12647e-16)
(2.8429 2.56157 -2.76549e-16)
(0.926551 2.54561 0)
(-1.82002 2.49067 2.82288e-16)
(-0.0672586 6.29192 -2.66759e-17)
(-0.0411682 5.80648 9.52139e-17)
(-0.248149 5.69473 -4.24494e-17)
(2.27781 1.26761 2.49142e-16)
(9.43841 0.931521 -2.67172e-17)
(0.22739 1.82321 1.89389e-17)
(0.183639 2.63613 -6.70983e-17)
(3.64673 0.258853 0)
(0.883189 -0.213267 4.98852e-20)
(5.88402 1.01231 0)
(0.369919 -0.133871 4.90113e-22)
(4.2312 0.122234 -4.25851e-16)
(10.06 0.0459203 3.43606e-17)
(-1.64725 1.5203 1.91368e-16)
(-2.25631 2.35551 -2.93185e-16)
(0.0683044 2.09776 0)
(0.143077 1.81057 7.75534e-16)
(5.55812 1.47708 -4.28351e-17)
(11.4422 0.498317 0)
(9.80316 0.209409 2.44242e-17)
(1.15638 -2.95504 1.09273e-17)
(9.29468 0.240653 0)
(4.38671 4.24714 1.01404e-17)
(4.05272 0.442326 -3.10686e-17)
(2.29251 0.793023 -3.40721e-17)
(1.40496 0.75924 -1.18604e-17)
(1.38565 0.347469 -2.72977e-16)
(-0.228094 -0.134574 -2.63748e-16)
(1.41729 0.925123 -1.12456e-17)
(1.14594 1.35964 -5.25008e-18)