/*--------------------------------*- C++ -*----------------------------------*\
| =========                 |                                                 |
| \\      /  F ield         | OpenFOAM: The Open Source CFD Toolbox           |
|  \\    /   O peration     | Version:  v1912                                 |
|   \\  /    A nd           | Website:  www.openfoam.com                      |
|    \\/     M anipulation  |                                                 |
\*---------------------------------------------------------------------------*/
FoamFile
{
    version     2.0;
    format      ascii;
    class       volVectorField;
    location    "0.13";
    object      U;
}
// * * * * * * * * * * * * * * * * * * * * * * * * * * * * * * * * * * * * * //

dimensions      [0 1 -1 0 0 0 0];


internalField   nonuniform List<vector> 
1466
(
(-3.26187 -0.167771 -1.8847e-16)
(2.25903 -0.0637673 1.02638e-18)
(-0.600735 -0.0898608 7.22926e-16)
(-0.138725 2.18721 -7.72665e-17)
(-0.156193 -0.0921693 -7.77572e-16)
(-0.432391 -0.0530712 -1.13371e-15)
(-2.04425 -0.208717 2.0187e-16)
(-0.13483 -0.155658 2.1483e-16)
(8.64803 0.22668 -1.20208e-18)
(-0.379885 -0.0629052 2.31117e-16)
(0.38467 0.161742 -3.57411e-16)
(-0.593816 -0.179054 0)
(10.1541 0.277092 0)
(-0.0387985 -0.143305 -2.09662e-16)
(-0.346577 -0.166198 0)
(0.197881 0.0447134 2.96956e-16)
(-0.281569 -0.134701 -1.38287e-16)
(-0.128045 2.91755 -3.14348e-17)
(0.435828 5.09425 -8.97789e-17)
(-0.0180086 3.38465 2.35468e-16)
(0.070827 4.0329 1.0254e-16)
(0.514875 -0.237296 8.12807e-18)
(-0.132763 5.45331 -6.09092e-17)
(0.0235631 3.28489 -2.53378e-17)
(10.0119 0.303816 5.7543e-17)
(1.4733 0.284594 -2.60237e-16)
(-0.42456 -1.19123 -1.60676e-16)
(-0.127671 3.92319 0)
(-0.582884 0.0278022 0)
(5.40534 1.82333 4.80358e-17)
(0.0615815 0.0232352 2.65564e-16)
(1.44454 -0.296009 1.62561e-16)
(-0.364813 -0.0523658 2.61168e-16)
(0.0861272 3.14398 2.58971e-16)
(3.1965 0.0152653 8.89729e-17)
(-0.39631 0.418409 3.04822e-16)
(0.112319 3.09992 0)
(-0.196597 -0.112337 -3.54216e-16)
(-0.0152126 0.0186427 -4.10732e-16)
(-0.630751 0.0623161 -4.34541e-16)
(-1.65185 -0.100178 -1.53737e-16)
(0.156453 -0.159989 -4.35909e-16)
(0.780103 -0.150946 2.10841e-16)
(-1.08532 -0.224623 1.43287e-18)
(-0.419837 -0.0826383 -4.81394e-18)
(-1.98663 -0.0825606 0)
(0.751364 -0.241845 1.08162e-17)
(0.0427006 -0.023468 0)
(-0.13114 -0.0621128 1.45662e-16)
(-0.177595 -0.0495783 0)
(-0.689001 -0.0747617 -1.06256e-16)
(2.01103 -0.0511661 -4.26779e-16)
(-0.30665 0.0208183 7.18017e-16)
(-0.0788821 -0.0046378 7.35683e-16)
(-0.373401 -0.0601697 -1.21167e-16)
(7.59687 -0.0284644 9.7713e-17)
(-2.22455 -0.0903248 -2.15111e-17)
(0.281499 -0.171853 0)
(-0.398728 0.0143793 1.26211e-17)
(-0.265065 0.0227857 0)
(0.840223 1.02311 3.92299e-20)
(-1.6798 -0.270457 -1.18348e-16)
(-0.454763 -0.276551 2.14469e-16)
(2.32615 -0.0164261 1.70083e-16)
(0.00976456 8.28192 -1.34341e-16)
(0.282162 -0.246156 3.20483e-16)
(-0.676909 3.63089 0)
(0.0957378 2.48659 4.47619e-17)
(6.52471 0.206324 2.48989e-17)
(-0.884939 0.0247733 -1.99309e-16)
(0.912681 2.02241 1.16913e-15)
(-0.226965 4.65837 0)
(0.0474552 2.43433 0)
(9.91516 0.217596 -1.16404e-16)
(0.556397 0.830356 3.02335e-16)
(4.34858 0.110223 -1.08723e-16)
(-1.51329 -0.296447 1.04113e-16)
(-0.328135 -0.14969 -1.24127e-16)
(-0.710316 -0.0474147 0)
(3.48065 0.449921 0)
(-0.140987 -0.0811378 -2.01455e-16)
(0.120442 0.245303 -4.05581e-16)
(-0.837332 -0.0372141 -3.22109e-16)
(0.748657 4.59328 2.43962e-16)
(-0.0356613 2.8728 1.80284e-16)
(0.135727 3.84876 6.54159e-17)
(0.0949179 3.14174 0)
(2.55501 0.0284936 1.59441e-18)
(-0.144346 -0.0632812 4.66787e-16)
(-0.555211 0.142621 -3.12958e-16)
(1.65475 0.316017 -9.30043e-17)
(-0.221556 -0.756283 -3.23007e-16)
(-0.134699 1.29183 -8.11829e-17)
(-2.25943 1.37778 -2.00107e-16)
(-0.127368 -0.360271 0)
(-0.454809 -0.0172765 -4.39061e-16)
(1.90497 0.0066029 3.67208e-16)
(0.424409 -0.115634 -1.17135e-17)
(7.72443 -0.0977284 2.50858e-16)
(-0.255206 -0.0503151 1.10963e-16)
(-0.519341 -0.0594762 5.67565e-16)
(-0.803144 -0.00655458 0)
(0.100176 -0.0232527 4.71983e-16)
(0.0354102 -0.03848 3.84961e-16)
(1.38088 0.0837523 -1.49598e-16)
(0.0611568 -0.106058 9.61046e-17)
(-0.253802 -0.0215411 -2.68128e-17)
(-0.0133261 -0.0153947 0)
(0.567692 0.256957 2.78072e-16)
(-2.71207 -0.233694 7.32147e-17)
(1.05053 0.793252 -3.02066e-16)
(3.36568 0.130261 3.48593e-17)
(-3.05296 -0.314538 -3.30925e-17)
(0.528815 -0.157249 -5.16588e-17)
(-0.375182 -0.052806 0)
(1.8026 0.37999 8.74992e-17)
(0.154513 -0.355612 2.32964e-16)
(-0.736917 -0.00521917 0)
(-1.99566 -0.159854 1.49309e-16)
(-0.973254 -0.485941 -6.90705e-16)
(-0.295772 3.36987 -5.50011e-17)
(-1.66656 -0.294743 2.85199e-16)
(-0.231435 -0.00268017 -1.36892e-15)
(-0.639796 -0.196214 0)
(-0.285425 -0.111123 -9.09795e-16)
(-0.892246 0.1873 1.54631e-19)
(5.89168 0.463377 4.25199e-17)
(-0.409916 5.11363 -6.77132e-17)
(0.058868 3.28589 3.91015e-17)
(2.14893 0.270386 1.59301e-16)
(-0.178845 -0.0640278 3.11296e-17)
(-0.329814 -0.241227 0)
(-0.266836 5.50449 4.21315e-17)
(0.0241587 3.27478 5.42683e-17)
(1.92683 0.0936735 -1.48248e-17)
(-1.7808 -0.0328545 0)
(-1.06805 -0.190519 0)
(-0.340842 -0.0382829 -1.2103e-17)
(-1.93624 -0.116203 -9.92437e-17)
(-0.894035 -0.191936 2.39401e-16)
(-0.266843 -0.00236787 0)
(-0.0384546 3.99419 -1.00685e-16)
(-0.0111105 3.32921 -4.53569e-17)
(0.0225243 5.33594 -2.38645e-18)
(2.10124 -1.65285 -2.39642e-16)
(0.145315 4.05603 1.50838e-16)
(1.31023 -0.364043 -2.81848e-16)
(2.11002 -0.565271 -3.84521e-16)
(2.63976 0.657022 -6.3678e-17)
(-0.864009 -0.588111 1.13629e-15)
(1.75787 0.295611 1.75001e-16)
(2.4114 -0.131164 4.99508e-19)
(6.29963 0.350611 -2.48202e-19)
(-0.223472 -0.466615 0)
(2.97845 0.273817 0)
(0.422301 -0.191067 3.48529e-16)
(-0.193513 3.65613 -2.41391e-17)
(0.117525 2.98992 -2.67978e-16)
(1.32701 -0.50506 1.05936e-15)
(5.15729 3.81696 6.02973e-17)
(1.15558 -0.398032 1.2506e-16)
(5.19515 0.771544 0)
(0.0870298 2.71834 8.90528e-17)
(-0.230562 3.52089 2.95521e-19)
(1.53069 3.12046 0)
(2.04781 -0.781036 1.59092e-16)
(0.015453 3.26439 0)
(-0.380628 5.1606 1.92e-16)
(-0.26796 3.63007 -4.73996e-17)
(-0.247061 8.43477 5.2418e-17)
(-0.170456 3.87663 3.1105e-16)
(0.133533 -0.294662 -1.25383e-16)
(-0.107924 -0.089509 6.38382e-17)
(6.56906 0.252534 -1.36453e-17)
(2.30266 0.00743678 -2.69856e-16)
(9.15096 0.0503304 -2.2865e-16)
(5.55776 2.39565 1.60039e-16)
(4.43459 1.27901 -6.82595e-17)
(1.20038 0.623513 -4.13118e-16)
(0.584764 2.66643 -2.38057e-16)
(10.0325 0.299987 2.85766e-16)
(2.27676 0.085112 -3.20685e-17)
(-0.192097 3.4044 -2.52004e-16)
(0.177164 -0.110059 3.51505e-16)
(2.57841 0.0317778 -3.9118e-17)
(0.0543112 3.80895 -5.02488e-18)
(-0.086061 2.837 -1.78614e-16)
(1.48408 4.97301 -1.413e-16)
(6.09376 0.147541 6.35531e-17)
(-1.00386 -0.321473 4.65325e-16)
(-0.0576162 4.01955 -2.1498e-16)
(0.658678 1.3153 -9.56384e-19)
(0.041824 0.632466 1.10301e-17)
(0.00523596 4.25266 3.59346e-16)
(5.58241 3.25172 -3.33592e-17)
(1.39237 0.66171 0)
(-0.661947 -0.0561593 4.19624e-18)
(0.680076 -0.0118626 -5.29537e-16)
(0.755892 3.38452 -2.86322e-16)
(0.14219 3.93012 -7.35032e-16)
(-0.237231 0.442675 0)
(2.31896 0.450258 0)
(5.83935 1.61502 -2.78056e-19)
(-3.13054 4.97142 0)
(1.23767 1.58615 2.29711e-16)
(1.01336 2.87878 -1.90208e-16)
(0.108121 4.03531 -1.77064e-16)
(7.21038 3.08772 0)
(1.30686 -0.476804 1.22808e-16)
(0.0157564 3.36021 2.29919e-20)
(0.209252 5.34094 8.45264e-17)
(-0.0153766 2.83965 -1.66372e-16)
(-0.102816 4.03862 0)
(-0.19861 3.89086 2.49175e-16)
(0.0923556 4.03449 -6.19702e-17)
(-0.148887 3.40289 3.9066e-20)
(0.0182106 3.79808 4.42496e-18)
(-0.189157 2.80189 -1.57126e-16)
(2.365 4.30914 1.49603e-16)
(0.030231 3.30469 3.83531e-16)
(-0.424215 5.26709 -1.50685e-16)
(1.88508 0.27645 -1.23868e-16)
(-0.203999 3.40564 -3.83314e-16)
(1.27117 0.88489 2.86276e-16)
(-0.258433 3.50861 1.45346e-16)
(2.03271 3.82395 -1.68394e-16)
(-0.0589648 -0.3135 6.70839e-16)
(0.110367 -0.0535488 -3.36039e-16)
(1.46238 0.473344 -2.99506e-16)
(1.95244 0.187667 2.1899e-20)
(0.55028 1.80516 -5.97105e-16)
(2.73338 0.0414737 2.22472e-16)
(-0.0963233 4.12659 1.49555e-16)
(-1.03842 7.79268 1.37918e-16)
(-0.761357 -0.207724 5.98961e-17)
(1.45147 2.1803 -7.99538e-16)
(-0.00330882 3.29118 6.6392e-17)
(-0.208336 5.25177 1.82529e-17)
(2.04019 -0.168897 2.22594e-16)
(-0.121769 3.88463 3.87332e-17)
(-0.293566 1.43652 0)
(3.70917 0.354313 4.46629e-17)
(6.20037 2.53925 8.26989e-17)
(0.125893 3.46929 3.37534e-16)
(1.2329 -0.082398 0)
(5.48208 0.639248 0)
(1.68566 -0.158451 0)
(10.3629 0.27621 0)
(2.96122 0.602257 -1.19092e-16)
(6.26839 3.06627 -7.34301e-17)
(-0.000590978 3.95132 -8.83332e-17)
(-0.648395 8.4253 -1.99012e-16)
(7.1259 3.76943 4.23572e-18)
(-1.84847 -1.77934 -9.78328e-17)
(0.383266 -0.43909 3.11622e-16)
(1.96453 -0.545875 -2.56309e-16)
(-0.186145 3.56446 0)
(9.161 3.77416 -1.61828e-16)
(-0.0441543 2.17083 -9.99586e-17)
(-0.0207305 2.62452 1.3123e-16)
(-0.342324 0.615806 0)
(-0.308213 5.44549 -2.75453e-17)
(0.0299294 3.21839 -7.36479e-17)
(1.96584 0.100553 2.93363e-20)
(4.10179 4.15684 9.40238e-18)
(-0.103498 -0.0562776 -3.77358e-16)
(1.88806 0.124821 2.82032e-16)
(2.87177 0.478984 -1.08986e-16)
(0.0864605 4.00881 -3.04474e-17)
(10.0244 3.33766 -7.53292e-17)
(0.193604 2.71793 -1.63582e-16)
(-0.088236 2.15629 0)
(-0.0769451 0.151378 7.0606e-18)
(1.27856 -0.400351 -1.56326e-16)
(1.8703 0.221796 -3.61041e-16)
(1.10363 1.15457 5.5329e-16)
(1.64485 0.454451 -2.55731e-16)
(2.20752 6.92039 -1.18671e-16)
(-0.270515 3.60971 -2.1069e-16)
(2.86005 0.721812 1.68253e-16)
(2.01384 -0.168747 2.19051e-16)
(-0.0261481 1.42439 2.59224e-17)
(2.62375 5.09024 0)
(4.34186 0.18325 -3.95963e-17)
(1.72124 0.77404 4.1872e-16)
(-0.143168 -0.268926 -2.06855e-16)
(3.72034 0.922663 0)
(3.76294 0.852117 -3.1005e-16)
(-0.502012 -0.0266722 0)
(8.30649 3.65118 -2.65376e-16)
(7.60144 0.590092 1.31304e-16)
(-2.78611 0.113893 -1.78987e-18)
(10.1704 0.346129 -2.93143e-16)
(-0.43519 -0.00329746 0)
(3.17839 6.76423 1.05162e-16)
(1.444 3.31375 -3.3922e-16)
(-0.157837 1.85282 1.88019e-16)
(-0.170431 -0.114767 5.63404e-17)
(3.52416 0.939077 7.61758e-17)
(1.99279 0.0287505 -2.59523e-16)
(0.00456281 -0.114148 0)
(-0.265882 -0.16281 2.65745e-16)
(0.170606 0.0521468 0)
(10.3035 0.347063 -1.76959e-16)
(0.0917343 3.12056 0)
(-0.0607611 1.41782 1.36362e-16)
(-2.11629 2.56656 1.23762e-16)
(-0.369044 -0.143127 -3.1532e-17)
(1.7025 7.53101 -3.09379e-17)
(-0.960426 4.54192 1.05977e-16)
(7.24583 1.26056 1.47579e-16)
(-0.561597 4.9007 0)
(0.0360136 3.22481 -7.57492e-20)
(3.00897 0.0305998 -1.68479e-16)
(4.2362 1.43019 -2.054e-16)
(5.11505 2.35942 -2.99168e-16)
(1.52804 1.04512 0)
(5.05316 3.25674 2.28513e-16)
(-0.41031 -0.196451 0)
(-0.320139 -0.261474 3.98273e-16)
(0.431012 1.24311 0)
(-0.114057 2.03891 -1.93751e-16)
(0.0216888 2.55148 -8.34977e-17)
(1.98152 -0.0714199 3.18055e-16)
(0.180314 2.9742 -4.18491e-17)
(7.51582 5.00136 -8.89021e-17)
(-0.093071 -0.174382 -1.11768e-16)
(4.2008 3.62018 -2.37636e-16)
(1.89933 -0.208699 -2.70521e-16)
(2.20141 0.433871 2.18646e-16)
(-0.315708 4.44325 1.18412e-16)
(8.01995 4.32081 5.17687e-16)
(-0.46891 -0.188784 -5.29921e-16)
(2.31323 7.7849 2.42452e-17)
(2.62642 3.28868 -1.45488e-16)
(7.60828 1.66662 5.48422e-17)
(2.01833 1.2637 -4.31501e-16)
(2.16725 -0.359105 3.65369e-16)
(-1.74667 2.54975 -2.20852e-16)
(-1.5215 0.311227 -2.04584e-16)
(-0.30075 0.00341508 7.60607e-19)
(7.09418 2.5824 6.55714e-17)
(-0.338746 -0.103244 5.84409e-17)
(2.4568 3.68591 -3.39295e-17)
(-0.851168 8.20385 -6.69872e-17)
(0.289237 0.057735 -1.02782e-16)
(4.47316 0.126053 -1.82176e-17)
(2.80446 5.81191 -8.6682e-17)
(5.55555 0.12602 2.39701e-17)
(2.63537 2.34276 1.70731e-16)
(5.914 4.69582 -2.63292e-18)
(9.14687 2.61884 -4.22907e-17)
(-0.935143 4.22486 -1.07629e-16)
(1.5113 1.0159 1.17405e-17)
(2.30098 0.257114 0)
(1.78232 2.81315 1.91522e-16)
(-0.202651 1.18067 -3.87894e-16)
(3.64284 0.398598 6.71391e-18)
(10.6675 2.24191 0)
(2.21509 6.80804 2.70064e-17)
(1.49829 -0.390979 0)
(1.76272 5.09214 8.90285e-17)
(1.3723 7.26682 9.49041e-17)
(-2.40133 4.6692 0)
(-0.471886 -0.130188 -3.69736e-16)
(-0.641669 3.61595 -2.71069e-19)
(7.68882 2.36614 5.15421e-17)
(7.82575 1.88978 4.47035e-17)
(-1.82426 -1.83618 1.47411e-16)
(1.58904 7.9908 4.03105e-18)
(1.26136 7.99355 0)
(1.05751 5.53228 8.77634e-17)
(1.07261 4.08638 -2.96591e-17)
(1.33424 8.2947 -3.51889e-18)
(-0.366537 -0.189834 8.06046e-16)
(-0.00953932 3.1081 7.1986e-17)
(-0.622744 -0.198043 -4.01223e-17)
(0.807553 5.63998 7.10718e-17)
(-2.43012 1.33544 5.80044e-16)
(3.79864 5.36575 -8.21063e-17)
(-1.19282 3.42547 1.22752e-16)
(-0.910721 3.12758 -4.12331e-16)
(-0.921356 3.41887 -2.56918e-16)
(-0.682902 3.36845 3.83141e-16)
(-0.483633 3.06449 0)
(-0.681223 3.10721 2.1119e-16)
(-0.339554 -0.123005 -2.85969e-17)
(-0.322764 -0.1692 -3.10119e-16)
(-0.3338 -0.171851 2.19776e-16)
(-0.310129 -0.213858 -5.50264e-17)
(-0.12951 2.21692 2.26569e-17)
(-0.0144706 2.71055 6.84917e-17)
(-2.22039 4.0366 -6.18093e-17)
(-0.0750852 2.74539 -7.97831e-17)
(-2.51507 3.32858 4.60304e-19)
(-1.8782 1.8583 1.29274e-16)
(-0.303387 -0.331861 -6.76142e-17)
(0.675345 6.52818 -3.1066e-17)
(-2.65235 3.20422 6.39e-17)
(-0.910082 1.44027 0)
(-0.31553 -0.271334 -2.32176e-16)
(-0.0852333 -0.215089 2.78797e-16)
(-0.525825 5.37855 0)
(-0.335437 -0.373832 3.39578e-16)
(-1.11305 7.1107 -2.44494e-17)
(0.321916 -0.134609 -1.07571e-18)
(-0.13443 4.56789 -4.52969e-16)
(-0.607685 0.1223 -1.29911e-16)
(-0.513658 -0.235408 0)
(0.211638 -0.451401 1.84907e-16)
(-0.346232 -0.452396 -1.60892e-16)
(-0.258326 3.44296 -2.0296e-16)
(-0.104973 1.36168 3.29788e-16)
(0.264648 -0.144846 9.83307e-16)
(0.378785 0.0876843 -1.77016e-16)
(-0.168345 -0.390236 0)
(-0.3845 -0.319114 0)
(-0.235374 0.160354 1.66803e-16)
(-0.288488 -0.305371 0)
(-2.33378 -0.47338 0)
(0.264305 -0.876158 -2.40002e-16)
(0.355909 -0.351421 5.94331e-16)
(-2.29037 -0.394822 0)
(-0.0419955 2.16423 1.36569e-16)
(-2.03969 -0.368226 1.37526e-16)
(-0.291469 -0.714458 -3.73943e-19)
(-0.0232745 -1.58299 5.4305e-16)
(1.63749 2.39658 2.29183e-17)
(-1.99237 -0.26816 -7.42578e-16)
(-0.586914 -0.8731 4.29587e-16)
(-0.240077 -0.197875 0)
(-2.37576 2.33139 -1.55599e-18)
(-0.669833 -0.0703903 5.35957e-16)
(-1.42174 4.1291 3.20758e-17)
(2.28115 -0.141934 -5.53521e-16)
(-0.681113 -0.0371456 -4.35869e-16)
(-0.514408 -0.309861 8.94321e-17)
(-1.34408 -1.4379 -6.3902e-17)
(0.0428786 -0.118188 4.7638e-16)
(-0.246274 -0.190667 -4.94703e-16)
(-0.595912 -0.292822 5.17104e-17)
(-0.134019 1.89445 -9.91012e-17)
(-0.291148 -0.175528 3.69422e-16)
(-0.726334 -0.194902 0)
(2.14067 -0.112072 -3.1394e-16)
(-2.27549 -0.381904 1.68347e-16)
(7.76174 0.279005 7.2757e-17)
(2.159 -0.0434644 0)
(-2.36397 0.0616274 -1.03105e-16)
(-0.314491 -0.259463 2.35387e-16)
(2.1397 0.0732085 -7.41191e-19)
(-2.47353 0.758219 -1.26281e-16)
(-0.503502 0.928464 -5.14754e-17)
(9.55452 0.462714 3.03636e-17)
(-0.139039 2.51948 -2.63341e-18)
(-0.20122 1.79893 6.09963e-18)
(-0.3314 -0.391358 0)
(-0.711108 0.191865 0)
(-0.273706 1.39494 0)
(2.07526 0.0110277 2.80561e-16)
(-0.300552 -0.122986 -6.12714e-16)
(-0.125991 2.18873 -2.76984e-17)
(-0.567547 -0.149604 -2.83672e-16)
(-0.190575 0.927736 7.96297e-16)
(-0.477033 -0.378468 2.70738e-16)
(-2.34897 0.840099 -1.46841e-16)
(-0.446436 2.87696 -1.56226e-16)
(-0.139128 2.06786 -4.14179e-17)
(-0.732253 1.94875 -7.43213e-17)
(-0.644799 2.8796 7.91782e-17)
(-0.331748 1.93897 1.64194e-16)
(-0.331723 -0.0401917 3.61239e-19)
(-0.199797 -0.39355 -7.73535e-16)
(0.129894 -0.0611733 1.45504e-19)
(1.99718 0.104125 1.63321e-16)
(-2.27004 1.21935 6.29306e-19)
(-0.298078 0.16507 -3.21419e-16)
(-3.2127 5.90287 0)
(-2.49835 7.2461 0)
(-2.81181 5.2796 -5.26057e-18)
(1.01754 8.38964 -8.15078e-17)
(-0.0699756 1.62913 3.34272e-16)
(0.119099 2.923 -2.55759e-16)
(-2.85966 7.12179 6.45226e-17)
(-2.7157 6.38477 -2.18355e-17)
(6.64732 4.40641 -1.77491e-16)
(-2.36748 1.68838 -1.58984e-16)
(-0.23477 0.26687 2.98529e-16)
(0.36099 6.40627 -7.22131e-17)
(0.673508 7.8461 8.46709e-17)
(-2.07627 6.13982 9.03141e-17)
(-0.130941 3.83991 6.66228e-17)
(-0.327109 -0.179189 -2.72285e-16)
(-0.286208 2.87966 1.58156e-16)
(-3.3882 5.12911 0)
(-0.0110552 2.87975 3.93431e-17)
(0.0335571 3.00564 0)
(-0.320881 3.01885 9.10771e-18)
(4.42356 2.358 0)
(-1.81567 4.13454 7.79401e-17)
(-0.461908 3.29871 0)
(-0.433568 3.57551 0)
(-0.539522 0.4146 1.03636e-19)
(-0.507883 0.124645 3.38957e-16)
(0.0437944 0.270967 -3.43063e-16)
(-2.29114 5.12359 0)
(1.09265 7.1043 0)
(2.05125 0.182314 2.41638e-16)
(-2.25066 1.82858 1.14916e-16)
(0.0404855 2.95564 0)
(2.46803 -0.461564 3.04736e-16)
(-3.12871 6.36506 -1.08023e-17)
(-2.79524 4.82256 4.62265e-17)
(-0.186815 1.17103 -1.39433e-16)
(0.0922178 3.00055 -1.47542e-16)
(-2.07457 4.42271 -1.07411e-16)
(-0.294157 2.42581 -2.8809e-17)
(9.82817 0.412603 -2.80542e-16)
(7.51763 0.17884 7.30965e-18)
(-0.214189 -0.231742 9.69378e-16)
(-0.309365 3.19272 -8.0985e-18)
(-0.96458 2.16705 2.7313e-16)
(-2.67449 7.32608 5.49893e-18)
(5.01392 4.59665 0)
(-3.28551 6.17245 0)
(-0.584159 2.65557 4.56816e-17)
(-0.724133 2.33113 0)
(-1.10375 -0.999827 -3.93328e-16)
(-0.380587 2.69135 -6.38436e-17)
(-3.00828 6.85335 -8.64034e-17)
(-2.19638 -0.775679 1.42226e-16)
(-0.833556 3.03574 -4.06881e-17)
(1.35322 2.95361 -1.97458e-16)
(-0.0843084 2.88699 0)
(-0.103663 2.96485 0)
(-0.48742 2.36165 -5.34467e-17)
(4.33897 6.61801 0)
(1.35053 6.21773 0)
(-0.190653 2.50115 0)
(0.0859451 2.5383 -2.70362e-16)
(6.07985 5.18047 7.31569e-17)
(-0.318957 0.332865 -3.29735e-16)
(-0.0446124 0.40246 -3.2417e-16)
(-2.52251 4.17173 1.58093e-16)
(-0.235523 2.73372 8.29369e-17)
(3.20096 7.41548 -3.35727e-17)
(-0.1419 2.75676 2.51631e-18)
(5.5906 6.28744 -3.75578e-17)
(-2.33258 7.15733 -4.62221e-17)
(1.97411 0.283092 1.31182e-16)
(-0.318866 -2.60159 2.07364e-16)
(-2.2395 2.24477 8.25513e-17)
(-0.143672 0.71301 -6.12477e-17)
(-0.197008 2.98397 -1.4368e-17)
(-0.440726 1.7843 5.21113e-17)
(0.136403 2.9914 2.50708e-16)
(0.104383 2.96332 -7.83292e-20)
(-1.91558 3.90495 2.90128e-17)
(1.88333 0.000495721 1.13104e-16)
(6.71017 5.70375 -1.60731e-16)
(-2.96028 6.51765 1.1586e-17)
(1.64786 1.57971 1.65218e-16)
(2.03149 -0.0508383 2.83272e-16)
(3.48605 4.66938 2.77719e-17)
(8.04464 0.17659 -2.4822e-16)
(-2.55581 3.73089 5.78706e-17)
(-0.170729 2.8859 9.8079e-18)
(-2.65621 6.96445 -1.13702e-17)
(1.78221 5.02288 5.93079e-17)
(-0.0151312 3.27006 1.58259e-16)
(0.159259 3.07058 3.69456e-17)
(-2.49552 6.57368 0)
(2.2672 0.107007 0)
(4.55169 1.50294 4.62413e-16)
(-3.47794 4.22219 -4.36552e-18)
(-0.994596 4.30468 8.01455e-17)
(8.96169 3.43182 -3.41427e-17)
(-0.0660934 3.15993 3.91014e-17)
(-0.026519 2.95602 -1.92082e-17)
(-1.46711 -1.98425 3.68449e-16)
(-3.27841 5.36289 -3.77039e-17)
(0.0262456 3.20081 -7.39252e-17)
(-0.0297641 3.01868 1.48426e-16)
(-2.66128 5.37118 -1.41878e-16)
(-1.51572 3.72464 2.27226e-16)
(-3.46531 5.28749 4.2462e-17)
(-0.519001 3.48635 7.89273e-20)
(10.3139 1.4065 8.75135e-18)
(0.0607682 2.87468 -2.40686e-16)
(-2.28279 3.68593 -9.8649e-17)
(0.102228 3.1399 -1.53205e-16)
(4.20507 6.88999 0)
(3.44856 -1.01507 0)
(-0.103521 3.04847 -1.54534e-16)
(0.073553 4.02621 1.07782e-19)
(-0.07498 3.41018 5.05872e-17)
(0.785632 5.18431 8.08645e-17)
(-1.67477 6.22865 6.30847e-18)
(-3.2147 4.18277 1.4406e-18)
(-1.97766 6.98064 1.77382e-17)
(3.37005 2.56481 0)
(8.5824 4.49204 -6.57793e-18)
(8.23486 4.23155 -7.00487e-17)
(2.11962 7.86851 3.37234e-18)
(-0.273357 3.89296 -8.07508e-17)
(2.46814 -1.07914 -1.897e-16)
(2.39371 -0.381602 -2.13054e-16)
(0.112938 -0.0793194 -1.60116e-16)
(-0.147214 -0.345321 -1.26441e-16)
(-0.661741 3.6747 0)
(-3.43096 4.14106 4.97111e-18)
(-0.416901 1.11445 0)
(5.21826 6.12762 0)
(5.26179 5.5989 3.85378e-17)
(0.0560244 1.9922 0)
(5.75954 3.49933 1.04899e-16)
(4.88881 1.61751 -1.24895e-16)
(4.41053 5.58481 5.01486e-17)
(7.35996 0.739907 0)
(-0.770173 3.74775 -1.12114e-17)
(2.82047 7.32001 1.21244e-17)
(-0.20383 -0.211497 4.36116e-16)
(2.31735 -0.558202 -1.48669e-16)
(6.73025 5.48301 2.12962e-16)
(5.71586 0.239299 -5.16575e-18)
(-0.191294 3.10223 1.59348e-16)
(0.195025 1.36835 1.91129e-16)
(3.04519 -0.37991 1.04185e-16)
(2.32982 0.949939 -1.60107e-16)
(0.0488212 3.07649 0)
(-2.15401 5.02576 -3.24141e-17)
(8.23822 3.00501 9.44731e-17)
(7.59403 1.07583 -9.51053e-17)
(7.36564 4.71528 5.78083e-17)
(-0.134582 3.2395 -8.40879e-17)
(10.0232 2.49292 4.69539e-17)
(-1.0981 4.69429 -1.27179e-19)
(-1.76487 6.5555 -2.54045e-17)
(3.7003 0.697814 3.75966e-16)
(0.213791 2.2465 7.38939e-17)
(-2.17099 6.74893 4.99242e-17)
(-1.05395 4.60882 3.46508e-17)
(-1.05083 4.7933 7.76408e-18)
(1.59381 0.641318 2.28774e-16)
(-0.406867 3.87834 -1.31832e-16)
(7.85957 5.07734 -9.02819e-17)
(2.64006 0.211328 9.24485e-17)
(-2.1831 5.58045 0)
(-1.32303 5.65656 3.41115e-18)
(3.62018 6.53483 -2.5568e-17)
(-0.215639 3.35405 -8.24881e-17)
(9.32964 0.290954 3.34881e-16)
(2.89956 0.147908 -2.97638e-19)
(-0.270395 -0.130807 3.13911e-16)
(0.353305 4.46857 1.41019e-16)
(-0.624944 3.98974 2.38228e-16)
(-2.02059 2.32379 1.48219e-16)
(0.0449856 1.67075 2.14147e-16)
(1.81505 -0.3576 3.40556e-16)
(10.9487 0.891108 5.40881e-17)
(-2.5068 7.64082 -6.18769e-17)
(3.22293 0.0960699 4.68214e-18)
(-1.34302 -0.548766 4.27317e-16)
(9.0737 3.86608 0)
(-1.28789 5.51992 0)
(1.33582 0.232196 1.53126e-16)
(-0.762993 0.54955 6.02822e-19)
(3.07265 0.279571 0)
(-0.830555 0.16754 0)
(-2.04663 1.94813 0)
(-0.393264 -0.119687 -5.66449e-17)
(2.02294 -0.473046 5.10442e-17)
(-0.0137812 0.0103335 0)
(0.0934382 -0.13642 1.08861e-15)
(0.289488 -0.224082 -1.06098e-15)
(0.0124712 -0.15849 1.89776e-16)
(-0.293733 -0.183247 -3.3987e-16)
(0.646224 0.222883 2.71897e-17)
(-2.74864 -0.26085 1.19444e-16)
(8.83411 2.52308 2.28852e-16)
(0.187092 2.43469 8.69214e-18)
(-0.323763 -0.116304 -2.67856e-17)
(1.69144 0.144321 8.25981e-16)
(-0.692524 1.48076 0)
(-0.454227 0.256715 -3.47073e-16)
(0.479862 -0.622684 2.81885e-16)
(0.418988 0.301251 0)
(-1.15717 0.103615 1.91454e-16)
(-2.62144 4.10658 6.29104e-18)
(-1.13109 0.163521 0)
(0.976007 3.38323 8.46324e-17)
(8.91986 1.87052 -3.33529e-17)
(9.3342 3.26215 -1.54523e-16)
(-0.0643352 6.59688 -1.43977e-16)
(-0.119812 0.305167 3.40499e-16)
(-1.02565 0.0655201 -6.76855e-16)
(-0.610764 7.30123 -8.84141e-17)
(0.76288 -1.55734 -9.71952e-17)
(0.571413 0.242749 -5.18044e-18)
(-2.97976 5.62769 7.22094e-17)
(-0.33123 4.03335 2.13916e-16)
(0.210006 0.302722 0)
(-1.20453 0.133358 1.73021e-16)
(1.93334 -0.129072 0)
(-0.915528 3.73947 0)
(-1.55059 4.04965 1.34467e-16)
(2.68232 -0.244144 -1.614e-16)
(-1.72889 1.02166 8.36387e-17)
(-0.824678 0.0213501 3.40178e-16)
(-1.20139 3.76053 -1.19231e-16)
(-3.18717 4.16783 0)
(-0.432529 4.4528 -1.46921e-20)
(-2.83407 0.487067 3.10107e-16)
(-0.710585 3.41502 3.6692e-17)
(-1.97428 6.32233 5.69982e-17)
(0.0761778 2.73993 2.384e-16)
(4.26595 1.48097 -4.28386e-17)
(-1.76213 4.69563 2.9823e-19)
(1.8888 1.48037 -1.35495e-16)
(2.2495 0.610827 -1.0593e-16)
(5.00484 0.0403907 5.81925e-17)
(0.0090966 0.0453436 -3.48666e-16)
(-0.63648 2.2297 0)
(0.0192896 1.49689 0)
(0.108546 1.56887 0)
(0.00827476 3.46774 4.46818e-16)
(0.210701 2.28027 -4.41234e-17)
(-0.811725 2.61169 0)
(-1.7899 2.93293 0)
(0.434745 0.0613251 6.03334e-17)
(1.32378 -0.310334 8.29617e-17)
(0.0192157 1.20298 2.9369e-16)
(2.13134 -1.63976 3.26388e-16)
(-0.170195 -0.238504 0)
(-0.698101 1.0907 -5.33088e-17)
(1.98058 2.44722 7.41395e-16)
(-0.102238 2.73106 9.00774e-21)
(-1.57421 6.03646 0)
(-0.362118 0.0524422 -3.03017e-16)
(-2.35148 7.51357 3.86143e-17)
(0.0783848 3.08684 1.35078e-16)
(-0.18104 -0.216247 1.49188e-16)
(-0.287159 3.54696 0)
(-0.60254 -0.0519917 1.94998e-16)
(-0.188698 -1.02143 6.51471e-16)
(-2.06426 -0.278756 3.11492e-16)
(0.833926 0.117309 0)
(0.140288 0.654193 2.82425e-17)
(-2.86012 4.21986 -9.78687e-17)
(5.61832 0.540327 -9.19446e-18)
(0.198598 2.3531 -2.56714e-17)
(-2.49103 -3.41246 -3.34863e-16)
(1.71189 0.206088 3.0654e-19)
(-0.170552 0.142862 1.78238e-16)
(-0.633788 0.900846 4.39949e-16)
(-0.552223 1.11507 -1.29629e-16)
(0.213948 3.86501 1.9092e-16)
(0.180789 2.27774 0)
(8.8816 0.447392 -1.0234e-16)
(0.264149 4.19875 -8.00803e-17)
(-0.0219894 2.87664 8.84967e-17)
(-2.31487 0.227467 1.53243e-16)
(1.51615 0.883188 6.07452e-19)
(3.69056 0.920269 -4.49674e-17)
(-1.65987 7.95608 -3.83747e-17)
(6.12103 2.11422 0)
(-0.176967 3.73615 -3.21467e-17)
(0.430813 0.974647 0)
(-0.70696 0.0619657 0)
(-0.0894087 3.69427 2.62072e-16)
(2.62166 -0.513319 -7.79109e-17)
(-3.07668 2.70538 2.49002e-18)
(-0.209889 -0.0725447 3.10391e-16)
(-1.67247 -0.497627 1.86067e-16)
(0.0859671 -0.953902 9.18193e-19)
(-0.273867 3.33436 -4.48412e-16)
(3.70377 1.70285 3.10745e-17)
(-0.742668 0.211323 3.52505e-16)
(-0.871701 2.86342 -3.06051e-19)
(0.131358 4.02015 1.97185e-16)
(-0.108292 2.47989 0)
(-2.39379 2.74089 3.20185e-17)
(-0.0876703 3.94696 4.19245e-17)
(-2.1721 -1.6929 -1.55421e-17)
(1.30515 2.33543 -6.46003e-17)
(-0.02277 -0.223402 -2.99321e-16)
(-0.261608 -0.240092 4.16475e-16)
(0.112184 3.04342 0)
(-1.58462 4.42089 7.30468e-17)
(0.41587 8.46708 -1.30913e-16)
(-1.1708 3.1057 1.30155e-16)
(-0.395313 4.53247 -2.68577e-16)
(-0.315 3.26037 0)
(-2.5401 1.61316 -4.22946e-16)
(2.52478 -0.254504 -1.17477e-17)
(8.8504 0.898675 -5.01148e-17)
(-1.48801 5.47314 1.20622e-16)
(0.710846 -0.85771 1.38886e-17)
(-0.509871 -0.295923 -3.03965e-16)
(-0.140662 1.50127 -6.43612e-17)
(-2.33033 2.51594 -2.32307e-16)
(-0.402204 -1.23525 -1.73529e-16)
(0.0809886 3.26304 1.55494e-16)
(-0.380496 -0.148228 -3.58907e-16)
(5.76684 2.63982 1.71955e-16)
(-0.015148 -0.107743 -4.77322e-16)
(0.0878776 0.367046 1.92305e-16)
(8.5663 0.251448 6.75193e-17)
(0.282439 -0.491383 9.04585e-19)
(0.0291481 2.28225 1.52369e-16)
(-0.0830439 2.912 7.59678e-17)
(-2.06469 7.28931 -5.68519e-17)
(-0.443141 4.95861 4.04928e-18)
(0.0531969 3.30924 1.55093e-16)
(1.39878 1.19774 -1.41858e-19)
(-0.414238 -0.116357 2.79005e-16)
(0.0675661 -0.128082 -8.41467e-17)
(-0.151722 3.75948 0)
(1.91572 0.184873 -1.6879e-16)
(-1.39165 5.49742 -7.0496e-17)
(0.855553 -0.224513 -1.06381e-16)
(-1.96794 5.00834 2.51289e-19)
(-0.75633 0.0480839 -3.30727e-16)
(3.39617 0.902022 -8.9907e-17)
(-0.0850399 -0.416745 2.27315e-16)
(-1.99932 -0.524567 1.81072e-16)
(-0.350907 2.33378 0)
(9.71958 0.914871 0)
(8.39355 0.512785 3.79989e-17)
(-0.41006 4.68514 0)
(3.24618 0.551309 0)
(1.3046 0.826056 -2.24126e-16)
(-3.06458 3.46868 0)
(0.10022 -0.0982194 1.69006e-16)
(-2.2342 -0.091626 1.98628e-16)
(-0.35374 -0.382129 -2.14565e-19)
(-0.608696 -0.409188 -1.14567e-16)
(-0.969393 0.190744 -3.50501e-16)
(-2.72678 2.19972 -7.46974e-19)
(-2.7379 2.91422 0)
(-2.82908 3.70141 -5.62336e-17)
(-1.10279 4.56321 1.28908e-16)
(-2.76484 6.16976 2.44636e-17)
(-3.20599 -0.485345 -5.28154e-19)
(0.891431 -2.35082 0)
(0.668227 6.56391 3.74965e-18)
(0.876006 0.0912436 -1.51211e-16)
(0.0979287 3.20626 2.84429e-16)
(2.67289 -0.360454 0)
(0.0113117 -0.0306971 -6.44189e-16)
(-1.55427 -3.10196 1.70612e-16)
(4.42093 0.090886 3.66636e-17)
(-0.336616 2.08425 -1.00589e-16)
(0.146215 2.68852 0)
(-2.05785 3.31138 1.28106e-16)
(2.53822 -0.55971 6.13304e-16)
(2.16763 0.116915 -8.87729e-19)
(2.36393 0.303858 5.88595e-16)
(0.0101266 -0.267566 9.48115e-17)
(-0.687042 3.06978 -1.92458e-16)
(-0.347811 7.27093 -2.0846e-16)
(0.0592928 3.16356 -5.3834e-16)
(9.69271 0.277142 4.15261e-19)
(-1.41537 2.6898 -5.31448e-16)
(1.03236 0.47455 -1.42431e-17)
(-1.67806 -2.98017 1.24084e-16)
(-0.536435 1.86051 1.03477e-16)
(0.25892 1.23902 -3.68809e-16)
(2.71176 -0.352249 2.74409e-16)
(0.127182 2.88933 8.04417e-17)
(-2.03748 3.61226 -7.96079e-17)
(1.3647 0.170873 5.05526e-16)
(2.16058 -1.39313 -9.70454e-17)
(1.32328 -0.531417 -6.12406e-17)
(-1.94129 7.13079 -7.96305e-17)
(-1.04714 2.49577 -5.69718e-19)
(-2.48931 5.83966 0)
(0.0756835 2.38808 0)
(0.0584637 2.32281 0)
(0.0751096 2.41481 -6.34161e-17)
(-0.0784931 2.24449 4.01752e-17)
(0.0316968 2.21545 0)
(-0.106072 2.48262 0)
(-0.0214386 2.15974 0)
(0.104972 3.2448 -1.30984e-16)
(-0.068586 5.11048 0)
(0.00383671 5.05645 0)
(0.116083 3.12168 1.32211e-16)
(0.0753855 3.28946 0)
(0.0390459 3.3159 -6.18824e-17)
(0.122465 2.96978 3.15372e-17)
(-0.156331 4.97628 0)
(0.0721836 4.82364 -1.04574e-16)
(0.101343 2.64991 -5.74587e-17)
(0.116682 2.80247 3.50656e-17)
(0.132822 4.42514 1.14139e-16)
(0.177284 3.90453 3.33831e-17)
(0.286841 3.0898 1.62071e-17)
(0.22121 3.46433 -1.8864e-17)
(0.0114779 3.32973 6.41797e-17)
(-0.0064185 3.34756 0)
(-0.0204234 3.35542 0)
(0.06073 2.4456 6.3331e-17)
(3.34966 0.0929802 4.07664e-17)
(9.94844 0.251083 -1.95032e-18)
(0.631195 0.0783134 -3.05801e-16)
(2.54459 -0.748343 -7.76722e-17)
(-3.34144 2.86271 -1.16045e-16)
(-0.794685 -0.122203 -2.21911e-16)
(-1.69701 2.06739 2.69857e-16)
(-0.0155861 -0.0962205 3.22396e-16)
(-0.269611 -0.138049 0)
(-1.19881 4.8551 -2.10271e-16)
(-0.178079 4.23498 -8.43428e-17)
(-0.0760231 3.6089 -8.05764e-17)
(-0.458487 -0.233499 -5.40709e-16)
(0.776103 0.150495 0)
(9.80431 1.68369 -8.56372e-18)
(-0.305665 -0.303385 -1.92381e-16)
(-1.34189 2.29148 1.52065e-16)
(3.00524 -1.48285 8.54487e-17)
(2.26927 -0.295336 8.61196e-16)
(-0.697089 1.44685 2.08673e-16)
(2.283 -0.0745929 0)
(0.159275 7.92868 3.4118e-16)
(-2.26769 6.19008 0)
(0.899769 -0.68588 0)
(-0.0441795 3.33529 0)
(-1.20511 -0.2542 8.85376e-17)
(-0.291493 0.016516 2.23219e-16)
(9.85234 0.803528 -2.09058e-16)
(-0.313889 -0.0541485 -2.24e-16)
(10.2826 0.429527 -6.25709e-17)
(-0.364401 1.14446 0)
(-0.131005 -0.283113 0)
(3.68771 -1.47278 -8.28646e-17)
(0.142659 3.19626 3.42799e-16)
(-0.415228 0.348384 0)
(-0.2528 -0.969324 -3.61614e-16)
(-2.10656 -0.320029 0)
(-0.352731 -0.0722092 0)
(1.22484 -0.240581 3.33041e-17)
(2.71098 0.474839 8.41568e-19)
(0.0972618 3.42438 -7.60245e-17)
(-1.82236 -0.295396 -3.89835e-16)
(-0.591707 -0.464482 3.1835e-16)
(2.86323 -0.325509 -1.64072e-16)
(-0.184926 3.26941 0)
(5.48967 0.189037 2.98712e-17)
(9.17161 1.32004 0)
(1.64692 1.63107 -4.15096e-16)
(0.0137525 -0.531154 -3.52261e-16)
(3.44766 0.774671 -2.91082e-16)
(0.351849 -1.50366 -2.18479e-16)
(0.584886 -0.0912235 -2.61389e-16)
(0.968329 1.73995 -4.64059e-16)
(0.850304 0.442927 -1.48984e-17)
(-0.243428 -0.153812 8.35173e-17)
(0.310717 -0.627772 -2.26477e-17)
(2.6851 1.29112 1.80677e-17)