/*--------------------------------*- C++ -*----------------------------------*\
| =========                 |                                                 |
| \\      /  F ield         | OpenFOAM: The Open Source CFD Toolbox           |
|  \\    /   O peration     | Version:  v1912                                 |
|   \\  /    A nd           | Website:  www.openfoam.com                      |
|    \\/     M anipulation  |                                                 |
\*---------------------------------------------------------------------------*/
FoamFile
{
    version     2.0;
    format      ascii;
    class       volScalarField;
    location    "0.89";
    object      p;
}
// * * * * * * * * * * * * * * * * * * * * * * * * * * * * * * * * * * * * * //

dimensions      [0 2 -2 0 0 0 0];


internalField   nonuniform List<scalar> 
1466
(
92.7705
90.6838
92.4881
92.97
91.9415
89.4866
92.9793
91.8823
92.1275
93.3405
92.027
93.2797
93.1177
93.0146
92.8336
93.0339
92.6286
92.7719
91.9288
92.9925
92.7692
92.9865
93.3813
91.1312
93.0349
92.2303
92.1385
93.2895
92.9549
91.9289
91.7569
88.9068
92.9565
91.8461
92.7518
92.7946
92.8757
92.8943
91.91
92.947
93.2946
93.1958
92.2282
91.7663
93.3248
92.1649
92.9128
92.7947
93.1991
92.8287
92.42
93.3498
92.0017
89.4996
92.9654
93.2483
92.8088
93.142
93.1808
93.2408
93.0329
91.9082
91.8702
89.0981
90.6863
93.0074
93.2544
92.7208
92.7795
93.0144
92.2827
92.9129
92.9319
93.0151
92.9393
93.3503
92.9874
92.8072
92.9584
93.2282
92.3854
93.0231
92.7208
93.207
92.9994
92.9444
93.0324
90.6519
93.0031
92.6219
93.034
92.8962
93.1971
92.855
92.4174
92.8492
90.5436
93.2086
92.0726
93.0476
92.9696
93.2818
92.5457
90.048
92.7565
92.0183
92.6956
92.7069
92.2547
93.04
93.1761
93.0982
90.9156
92.941
93.1073
91.0641
92.946
92.995
92.5182
93.1268
92.7343
92.7348
92.8814
90.6929
92.9733
93.1891
93.0693
91.2441
93.1947
92.6788
93.1974
92.9389
92.6976
93.259
92.3589
93.2139
93.2075
93.05
93.3563
92.8871
93.3211
92.8364
93.1879
93.1493
93.3412
93.0232
90.749
92.2943
93.2557
92.9632
93.1923
93.082
92.6825
90.5221
93.0423
92.0296
92.8384
91.0295
93.1747
92.4691
93.3007
93.0455
90.8954
92.7875
93.2603
93.2005
92.6084
92.7034
92.9964
92.1828
92.9628
92.9831
93.0658
93.2406
92.184
90.6076
93.2355
93.2197
92.9218
93.2071
92.7786
92.7422
93.2024
92.9918
90.6779
93.0038
92.6751
91.3976
92.7303
89.4153
90.1514
92.9197
93.0142
90.822
92.8071
92.8773
93.3693
93.0589
92.9856
92.9997
90.9113
93.1295
92.719
92.9987
93.0732
93.2171
92.6955
92.0151
92.8656
93.199
93.1467
90.9847
93.151
93.0198
92.3432
92.6886
92.5372
92.8858
92.9947
92.9954
91.4033
92.7305
93.0154
92.9551
93.2211
92.9721
92.9793
93.0552
92.7612
92.4024
93.0508
90.7259
93.0224
93.1692
92.7641
93.0922
93.1761
91.9018
93.1773
93.0555
92.2526
93.1789
92.9517
93.228
93.2217
92.7795
92.3107
92.7867
92.8625
92.7535
93.0395
92.9574
93.2207
90.6554
92.9946
92.9887
92.9485
92.7112
91.2171
93.3603
93.0352
92.997
92.9592
92.5759
90.9351
92.8657
91.97
90.8441
93.113
92.9652
93.0236
92.7519
93.0831
92.9429
92.9818
93.1824
90.6943
92.9829
92.0183
93.2148
93.0935
92.8209
92.7554
93.076
92.9885
93.1198
93.1574
92.9903
91.6337
92.9584
92.9993
91.8132
93.1504
93.3308
93.2268
93.1265
91.5925
90.9369
93.1567
92.9399
93.1705
91.004
93.0711
93.1558
93.0271
92.7992
90.7467
93.194
93.1036
91.1263
92.2435
92.4277
93.1077
93.255
93.215
93.139
90.8944
92.2148
93.3637
93.0939
92.9302
93.2227
93.2142
92.8217
90.8869
92.8592
92.355
92.9752
92.2132
92.414
91.0826
92.7681
92.3096
92.5342
90.9757
92.759
93.1182
92.2171
91.0297
92.3772
91.0658
92.8379
92.878
92.428
92.8686
92.3219
91.0021
93.0238
93.1771
91.4167
93.2349
93.058
93.236
93.177
93.1867
93.1573
90.9496
90.154
91.2337
93.1303
91.8113
93.2376
93.2065
92.5768
93.2312
92.9126
92.3953
92.2632
92.9334
91.0245
92.3394
93.0792
90.9798
92.7403
92.5089
91.0451
92.8578
91.0712
93.0125
93.1765
93.085
93.2503
93.1599
92.4025
93.2275
93.1526
93.0082
93.068
93.1542
93.1862
93.1852
92.8085
93.1999
90.7792
93.1245
92.9262
93.1943
92.2711
92.8012
93.1486
91.0681
92.2433
93.1778
93.0893
93.328
92.918
93.1577
91.383
92.7431
90.9816
93.0373
93.173
93.1654
93.2637
90.9644
93.1792
93.1354
93.0151
93.18
93.1818
93.0614
93.1914
92.9919
92.9731
92.99
92.9904
92.9561
92.9739
92.9766
92.9801
90.8045
93.0824
93.1454
90.9007
91.5501
90.8656
90.9729
91.7759
92.944
92.64
91.0283
93.1817
90.9798
93.2357
92.9732
91.1007
92.3811
92.2847
90.9109
93.0616
90.9444
91.2434
93.3672
93.0819
90.9681
93.0315
92.0531
91.402
93.7661
93.1061
91.093
93.1307
93.1038
93.0878
90.9201
91.179
90.8061
93.0288
90.8102
93.2325
90.8542
93.2111
93.1122
93.4253
88.9821
91.7387
93.5065
93.379
91.8537
90.1789
90.8531
92.9274
89.2897
92.8339
91.7599
90.9223
92.7836
92.3946
89.4817
93.3725
91.8289
90.963
92.7135
92.3595
93.1644
91.9264
90.1399
90.9914
91.0395
91.0059
90.9784
92.6825
93.2006
93.2026
92.3226
93.1525
93.3655
93.1583
92.9738
93.1326
92.6533
91.915
92.7822
93.1476
93.2743
92.9698
90.9693
92.6742
93.0943
93.1112
93.1179
90.8751
90.9803
91.6396
92.0422
93.1834
90.9009
91.1567
93.1853
92.3212
92.8867
93.1898
93.1002
93.0443
93.1979
91.0528
93.2801
90.8387
92.8891
93.1805
90.9171
90.8529
92.1234
90.8762
93.0804
93.2007
92.4511
90.8704
90.8404
90.9477
92.6636
92.7515
90.8144
93.1761
93.1869
91.7753
90.8498
93.1062
93.1144
92.3931
92.9366
93.1801
93.1863
90.9719
93.3469
93.232
92.8777
93.068
93.0214
90.8391
92.8044
91.9632
92.9453
93.3113
92.3504
92.919
92.8785
92.2876
92.96
92.888
93.1865
93.1579
93.1211
93.1728
92.8658
91.0985
92.0883
92.6809
90.8307
92.7434
90.7639
92.9787
93.3487
92.5206
90.9369
92.6592
93.2465
93.1991
90.8113
93.1714
90.8585
90.8884
92.6745
92.5251
92.2608
93.0023
93.0947
93.002
91.1108
90.923
93.2027
91.9906
92.6576
91.4857
93.0688
92.2608
90.9609
93.0147
91.6874
90.6969
92.7987
92.8215
92.7434
93.2256
92.7032
92.9845
93.1802
93.1476
92.7428
90.8065
92.9245
90.9179
92.487
92.6713
93.2318
93.2127
93.2138
90.807
90.8792
92.6755
92.6922
91.2053
92.7893
92.4997
92.1818
93.2636
92.4914
91.6626
91.3546
92.6704
93.1976
90.8338
93.2226
91.2751
93.1696
92.8963
92.2873
93.1317
92.6814
92.467
93.0395
90.7787
93.2962
92.8191
92.4194
90.7756
92.8652
93.1428
90.7905
93.2147
92.7225
92.9442
93.1691
92.484
90.8036
92.9039
92.7405
90.7596
92.766
93.1843
90.6829
92.8174
92.9761
92.5253
93.1857
92.2828
91.9224
93.0233
92.3994
90.9144
93.0434
92.7842
92.6935
93.1844
90.9655
92.9037
93.2359
93.0967
93.1972
93.1775
92.8663
92.562
93.2379
91.1281
93.1846
92.723
93.1622
90.8346
92.8748
90.7905
92.7305
92.8984
93.3777
90.804
92.721
92.8478
93.2452
90.8802
92.8499
92.0626
93.1332
93.0983
92.6956
93.187
91.0484
93.0224
93.1355
93.072
91.4161
93.3533
92.7777
92.7226
93.1868
93.1696
93.1621
91.7653
93.1747
93.1564
92.0478
91.0152
92.6264
93.1797
93.1573
93.0481
90.9478
93.0725
93.2288
92.6272
91.5471
93.2481
92.4015
93.3122
92.91
93.1956
93.1735
91.6233
91.1635
92.6297
92.4648
92.9504
93.2555
92.6913
93.202
90.6894
92.9605
92.5361
92.9845
93.2845
92.4734
92.4386
93.0521
92.1982
91.9422
93.014
93.2135
93.1768
93.0667
93.2394
93.1374
92.1156
91.3532
91.2367
93.1044
93.1681
93.2066
93.2041
92.7311
92.9098
91.8159
92.9824
93.0058
92.8759
90.6605
92.9517
90.7285
92.5317
91.7202
92.8817
93.0133
93.0629
90.9674
93.1483
92.7372
92.4418
92.5515
92.2721
92.1098
92.819
92.7626
92.9864
91.368
92.9006
92.7079
91.9723
93.004
92.0829
92.7594
92.448
90.2181
92.2644
91.0377
92.8532
93.0202
93.1661
92.8157
92.8087
92.1311
93.0578
93.0993
92.4435
92.9084
93.1862
92.8931
92.0612
92.7993
92.9318
92.9702
93.2003
92.9807
91.115
93.1773
93.1221
93.3314
92.7714
93.1646
93.1426
93.2491
93.2526
92.907
93.1532
91.2345
93.1913
93.1708
91.4611
92.9076
92.3558
93.1634
93.01
92.2298
93.2271
92.1982
93.1602
91.0701
90.4699
92.7299
90.8434
92.7503
92.7179
93.1032
92.9103
92.7886
92.9858
91.8574
91.7691
92.4091
92.9823
93.0144
90.7034
92.033
93.0041
93.0028
92.4376
91.9175
92.953
92.7587
92.3375
90.6138
92.9426
92.9671
91.8222
93.1813
92.9445
92.9466
93.2055
92.7585
91.4171
92.2174
92.1835
92.0938
93.3071
92.6808
92.7916
93.1828
93.1643
93.081
92.9026
92.8805
92.7625
93.2581
92.5818
93.0662
92.3074
92.78
92.9619
93.1899
93.0541
93.2962
93.0331
90.7474
93.1148
90.65
92.966
92.801
91.0396
91.572
92.9976
92.6786
93.1694
93.1884
92.1909
92.9952
90.6382
93.1946
92.9374
92.9336
91.436
92.8199
92.887
92.7437
93.0491
93.0434
93.0249
93.0317
90.9232
90.9791
90.8272
90.8187
93.0472
90.9401
91.1206
93.0412
93.0363
93.036
92.5958
93.0402
93.0473
93.3099
92.8963
93.2733
92.8464
91.349
90.9722
93.1693
93.0643
92.7519
91.9488
91.9004
92.8178
92.4335
92.7289
92.7336
93.1424
93.0595
92.3716
93.1413
92.798
92.691
90.9233
91.6302
93.0308
91.7594
92.3641
91.7645
92.0095
92.7011
92.4453
93.3106
90.9836
92.8553
93.1237
91.1261
93.2625
92.6222
91.9503
92.2172
92.3279
92.963
90.9295
92.5477
91.6753
92.4585
92.2375
93.0074
92.688
93.2675
93.0279
93.0235
92.1724
93.0663
92.8408
92.7027
92.7975
92.9983
93.1921
93.1602
93.3664
92.6906
90.9846
93.1805
92.7968
92.7809
92.8982
92.1412
92.9353
91.8378
93.3181
92.9677
93.203
91.9232
90.4363
92.7545
92.5902
91.5062
93.3673
92.9678
92.8419
91.5879
93.1021
93.1609
92.0641
93.3368
93.0971
93.0579
90.8451
93.1929
93.1192
90.8458
93.0881
93.0359
92.7053
91.0057
92.4271
92.2614
91.9251
93.2048
93.1741
90.9224
92.3272
93.1844
91.1058
91.479
93.0052
92.8876
93.06
92.8619
90.9257
92.7893
90.9877
93.3228
93.2942
93.1725
93.3837
92.7642
90.9973
91.2199
93.1408
93.336
91.83
92.5461
92.0707
92.9501
93.0686
93.3527
92.05
92.6661
93.3078
91.2606
93.3168
92.4387
92.8573
91.849
93.0614
93.0551
91.1365
92.7845
93.0508
92.9967
92.0886
93.2635
92.9638
93.0289
93.3792
93.0093
92.8123
93.0485
93.0922
93.0655
93.3358
93.3484
92.823
92.1536
93.1075
93.0849
92.7309
92.2385
92.7734
93.0276
90.9559
92.8211
93.3596
92.8765
92.4603
93.0356
92.8266
92.8171
93.1072
90.9972
92.3327
93.4136
92.3752
93.15
91.0494
93.1086
92.9256
93.1256
90.9965
93.1618
92.8193
90.9866
92.2677
92.8178
93.1912
93.1645
92.8977
92.7919
91.7321
93.0698
91.4117
93.0656
92.8546
92.7721
92.9747
92.8379
93.0652
93.2088
93.1348
93.2612
93.1708
91.107
92.7945
92.4473
92.8462
91.626
93.3962
93.074
92.6452
92.8239
93.033
92.8426
92.3406
92.8868
92.8788
91.3864
92.8053
92.78
91.7579
89.3416
91.9955
93.0299
93.1342
92.9921
93.2638
92.7372
93.0271
92.8804
93.0675
93.1432
90.9586
92.7221
90.7879
92.7358
93.1086
93.0579
92.7901
92.916
91.0879
92.621
92.8763
93.0727
92.9924
93.1284
92.1623
92.1727
93.0734
92.9639
90.5959
92.9003
90.8994
92.2146
91.2775
93.1829
92.9892
92.3001
92.371
91.0892
92.7442
93.078
92.988
93.0707
92.7671
92.9411
90.2876
90.9332
93.1186
92.2201
92.9323
92.8507
91.0717
92.3972
92.9
93.0514
90.8905
93.0858
92.7292
92.99
93.1335
92.4099
91.9222
92.9955
92.476
92.9579
93.0335
91.0451
90.8618
92.8364
90.9886
92.9087
90.6055
92.459
93.1242
92.4321
92.2706
93.1789
90.9859
93.0462
93.0697
93.1664
91.0696
93.0771
92.0835
92.9764
93.1748
92.941
93.2439
93.0275
93.0689
92.8073
92.9761
90.8888
93.0371
93.0857
92.7918
93.3128
93.0709
91.0733
92.2295
92.0464
93.1767
92.8494
93.0861
92.389
92.3996
92.9625
92.3339
92.814
90.8061
93.0475
93.0963
92.6701
92.9256
93.3612
91.0819
92.4315
92.4864
91.3233
91.6332
93.0528
93.0763
93.014
92.76
92.8153
91.0007
93.0956
92.751
92.1559
93.0054
93.123
91.0332
93.1306
93.1748
93.2798
90.7385
92.7274
92.7703
93.1414
93.0439
92.5843
91.029
93.1627
91.218
93.1477
90.9718
93.0076
92.801
93.2719
93.1336
92.6164
92.9726
93.1829
91.0998
92.7305
91.1661
93.0584
90.9351
92.9922
93.1886
93.1974
92.7144
90.9777
93.0188
91.5499
91.9679
92.9241
92.7471
91.0587
92.8204
93.1534
92.3706
92.7493
90.8991
92.9991
93.0267
92.8267
92.7172
91.0358
92.7894
93.1519
92.9451
92.2858
93.1849
92.9844
90.9562
92.9828
92.5167
93.0518
91.7827
92.3905
93.1701
90.9328
93.0721
93.1178
90.9179
92.9646
90.8759
92.8238
92.9662
93.138
92.9636
92.8882
90.7202
92.8684
92.9921
93.2574
93.0343
92.981
93.0563
93.0069
93.3098
93.1223
93.2826
92.829
90.7104
92.6414
92.3978
93.0488
93.0666
92.9426
90.6256
93.0403
93.1389
93.3144
93.3817
91.2091
92.9704
90.9148
93.0354
93.147
92.9926
93.0525
93.2317
93.0475
92.9897
92.457
93.0115
90.7527
93.0568
92.8808
93.0934
91.0411
92.5467
88.7148
92.9392
90.593
92.9755
92.8811
93.0076
92.9863
93.0616
92.8803
90.6034
90.8452
92.7419
92.8702
93.0253
90.8288
92.5493
90.496
92.9579
93.1277
90.3343
90.7131
93.3891
93.0699
93.0201
93.0263
92.4789
93.0945
93.3275
92.997
93.1742
91.1485
93.1051
93.1381
91.5826
91.439
92.9645
93.2222
91.8444
92.4598
95.0821
91.9765
92.0963
91.8051
92.9839
93.0318
93.256
)
;

boundaryField
{
    frontAndBack
    {
        type            empty;
    }
    wallOuter
    {
        type            zeroGradient;
    }
    inlet
    {
        type            zeroGradient;
    }
    outlet
    {
        type            fixedValue;
        value           nonuniform 0();
    }
    wallInner
    {
        type            zeroGradient;
    }
    procBoundary2to0
    {
        type            processor;
        value           nonuniform List<scalar> 
42
(
91.1509
91.1509
91.068
91.0572
90.8878
91.1698
90.8828
90.8828
90.8179
90.8014
91.0411
91.0411
90.9635
91.0795
91.1025
91.2744
91.0608
90.8448
90.7881
88.7317
89.2347
90.8897
90.8897
89.6016
89.2347
90.9875
90.1301
90.9886
90.1301
91.1707
91.1204
90.9557
90.9016
90.8175
90.7244
91.0572
91.0608
91.1621
90.6671
90.7191
90.7191
90.6698
)
;
    }
    procBoundary2to1
    {
        type            processor;
        value           uniform 88.5909;
    }
    procBoundary2to3
    {
        type            processor;
        value           nonuniform List<scalar> 
29
(
91.9854
91.8242
92.9267
92.9358
89.1941
92.0033
93.3825
91.839
92.9433
92.9352
91.9553
88.9373
92.0356
93.3736
93.3977
93.3805
92.9403
92.9403
91.8242
93.3736
93.3908
92.9375
93.4296
92.9366
93.4032
92.9314
92.9433
88.5608
88.9373
)
;
    }
}


// ************************************************************************* //
