/*--------------------------------*- C++ -*----------------------------------*\
| =========                 |                                                 |
| \\      /  F ield         | OpenFOAM: The Open Source CFD Toolbox           |
|  \\    /   O peration     | Version:  v1912                                 |
|   \\  /    A nd           | Website:  www.openfoam.com                      |
|    \\/     M anipulation  |                                                 |
\*---------------------------------------------------------------------------*/
FoamFile
{
    version     2.0;
    format      ascii;
    class       volVectorField;
    location    "0.89";
    object      U;
}
// * * * * * * * * * * * * * * * * * * * * * * * * * * * * * * * * * * * * * //

dimensions      [0 1 -1 0 0 0 0];


internalField   nonuniform List<vector> 
1466
(
(-0.224607 -0.137359 0)
(0.0437207 -2.10355 -1.05266e-16)
(-0.888961 -0.179116 -1.49164e-16)
(-0.00400225 0.133374 1.89097e-16)
(0.811982 -0.00679499 -6.35075e-16)
(2.47034 0.205468 -3.72567e-16)
(0.0946841 -0.00972 3.19782e-16)
(-0.225366 -0.269495 4.68598e-16)
(-0.847821 2.05064 1.35259e-16)
(0.0365662 0.0455313 9.14186e-16)
(0.209191 -0.0320692 -1.76931e-16)
(0.369108 0.162358 1.78212e-16)
(-0.0678217 -0.0601592 1.0597e-17)
(0.325231 0.740698 -1.32281e-16)
(0.775736 0.258067 -2.62591e-18)
(0.146651 0.57438 -1.6041e-21)
(-0.33526 0.0904466 7.43066e-17)
(-0.00182286 -0.303269 -1.83998e-16)
(0.812988 0.116218 -1.70699e-16)
(0.136845 0.660849 0)
(-0.206864 -0.0697958 1.54416e-16)
(0.181776 -0.0401786 -3.89304e-16)
(0.524881 0.0401243 0)
(-0.177464 -1.89108 6.65894e-17)
(0.363993 0.7409 -1.91349e-16)
(-1.07406 -0.0720934 1.5688e-16)
(-1.07768 -0.0865913 1.6185e-16)
(0.343147 0.154261 3.40566e-16)
(0.104749 0.0335255 0)
(-0.457845 -0.0342433 4.51328e-16)
(0.449472 -0.282686 0)
(1.11806 0.243124 7.58396e-16)
(0.264856 -0.0303703 -3.44951e-16)
(-0.484172 0.0785347 -1.13298e-16)
(-0.2051 -0.236584 0)
(0.444487 0.249367 2.83392e-17)
(-0.304538 0.150627 -4.53961e-20)
(0.94283 -0.120902 0)
(1.05275 1.78644 -4.74015e-16)
(0.154161 -0.0374577 3.4824e-16)
(0.373961 0.169819 -1.91741e-16)
(0.402637 -0.0116311 -2.03389e-16)
(-0.561695 1.60714 -4.04403e-16)
(-0.23774 -0.108331 2.64872e-18)
(0.460166 0.164803 0)
(-0.2877 0.901596 -3.53989e-20)
(0.721237 -0.149249 -1.75025e-16)
(0.0303673 -0.37071 1.27471e-16)
(0.473311 -0.093685 -2.81586e-16)
(-0.158665 -0.0961719 -8.70242e-17)
(-0.752203 -0.187316 0)
(0.00142807 0.0441298 -3.59121e-16)
(0.667624 -0.120731 4.37746e-16)
(2.44259 0.0550847 3.84923e-16)
(0.00046087 -0.0177861 4.49958e-16)
(0.335402 -1.51827e-05 -1.42688e-16)
(1.15155 -0.0752025 0)
(-0.20862 0.595772 2.83404e-16)
(0.0880666 -0.0102633 1.66774e-17)
(0.299478 -0.0351201 0)
(0.132662 0.694675 -2.53961e-18)
(-0.492607 0.0472253 1.13598e-16)
(0.786454 -0.187876 1.42678e-16)
(2.22646 0.0687328 -3.8778e-16)
(0.160192 -1.96127 1.72393e-16)
(-0.0872858 0.521842 -4.10061e-17)
(0.351078 0.0478577 -4.34547e-17)
(-0.243806 -0.0303707 -2.02506e-16)
(0.0155616 0.140232 -1.59667e-17)
(0.133844 -0.0305664 0)
(-0.984066 -0.112177 0)
(0.0555608 0.0432375 -8.41511e-17)
(0.905903 -0.0768462 -5.23843e-16)
(-0.177761 -0.0165802 -2.65814e-16)
(0.651867 0.00359674 3.88251e-17)
(0.238175 0.0507447 -2.2475e-16)
(-0.115662 -0.120796 6.18141e-17)
(0.0471525 -0.171603 2.35368e-16)
(0.159686 -0.0116343 0)
(0.201495 -0.0169998 0)
(-1.05282 -0.109348 -3.1825e-17)
(-0.314839 0.129029 2.53524e-16)
(0.795898 0.100416 0)
(0.509994 -0.166988 1.72799e-18)
(0.819933 -0.0828247 1.92378e-16)
(-0.0541849 -0.115406 -1.00305e-16)
(0.79016 -0.10019 -2.53359e-16)
(0.222782 -1.49454 1.36468e-16)
(-0.183727 0.392166 -4.10976e-17)
(-0.571889 -0.489719 6.7035e-18)
(-0.081769 0.15835 1.32882e-16)
(-0.56429 -0.0597736 0)
(0.0748447 0.0273239 -7.28554e-17)
(0.0660696 0.188842 2.58312e-16)
(-0.647439 -0.156295 0)
(-0.392209 -0.0637103 -2.06951e-16)
(-0.506599 -1.60834 5.84865e-16)
(0.104566 0.0356696 0)
(-0.789621 -0.967964 1.39099e-16)
(-0.0885666 0.240587 -2.03945e-16)
(0.0470388 -0.0130915 0)
(0.403167 0.182982 -1.05706e-16)
(-0.765734 -0.15084 4.01041e-16)
(-0.242175 -0.613336 -1.64534e-16)
(0.871273 -0.105179 0)
(-0.507817 1.63765 -2.5877e-16)
(-0.267821 0.0271079 1.84333e-16)
(0.819361 0.0209201 -7.53997e-18)
(-0.522954 -1.02115 4.98355e-17)
(0.479238 0.647402 6.73365e-18)
(0.130371 -0.0319684 2.20544e-17)
(-0.066275 -0.151027 5.49365e-16)
(0.766325 -0.048219 -3.41756e-16)
(0.866436 -0.121024 -5.91761e-20)
(-0.0679856 -0.157701 -2.11872e-17)
(-0.166841 1.96094 0)
(0.204621 0.658577 -8.76211e-17)
(0.269916 0.748775 6.23566e-16)
(-0.623771 -0.617556 3.2465e-17)
(-0.157764 0.571357 -3.9871e-16)
(-0.470254 -0.00310095 1.94084e-16)
(-0.165699 -0.0531075 0)
(0.0801603 0.292803 -8.09442e-17)
(0.132528 -1.06429 -7.44582e-17)
(-0.155669 0.392848 3.31285e-16)
(0.027913 0.168365 -1.29507e-16)
(-0.0134647 0.0101962 3.06651e-17)
(-1.47078 -0.849716 0)
(0.0578514 0.0690197 6.99276e-17)
(-0.955128 1.22744 -2.88752e-16)
(0.483954 -0.261932 1.27185e-16)
(0.0131939 -0.198473 -2.02206e-20)
(-0.51716 -0.270354 2.41264e-17)
(0.342832 0.0967227 -7.01285e-17)
(-0.570699 -0.116441 -9.71023e-18)
(0.125803 -0.00831387 1.75232e-16)
(0.348588 0.054705 0)
(0.714793 -0.132752 0)
(0.521492 0.10661 3.99755e-17)
(-0.156595 -0.219874 1.02036e-16)
(0.0204207 0.0287609 -1.17465e-16)
(-0.625232 -0.0519974 -1.64929e-16)
(0.0581775 0.132941 7.95401e-17)
(0.160777 0.013256 -4.83423e-16)
(0.488609 0.134228 1.60678e-16)
(-0.0400221 0.184777 0)
(-0.113058 -0.148975 0)
(-0.859369 -0.601696 0)
(0.235406 0.0705199 7.85856e-17)
(0.866584 -0.0781127 2.50723e-16)
(0.0375226 0.113279 -1.60067e-16)
(0.0454923 0.146021 4.72864e-18)
(-0.522513 -0.383085 1.3018e-16)
(-0.16135 -1.87006 -1.95642e-17)
(-0.173219 0.167016 -2.27827e-16)
(-0.451305 -0.145617 -7.46019e-17)
(0.0370404 0.0622821 -4.5452e-16)
(0.419624 -0.58212 2.01364e-16)
(-0.0856578 0.216996 -7.45335e-17)
(-0.746654 -0.519136 0)
(0.416773 0.180916 1.26103e-16)
(-0.100055 0.399506 -2.65522e-17)
(0.27888 -2.03004 2.39618e-16)
(-0.438663 -0.0388415 1.88661e-16)
(0.395945 0.167366 -5.4243e-18)
(0.086995 -0.00461837 -2.89039e-20)
(-0.427099 0.965169 0)
(-0.0185688 -0.0927796 1.04392e-16)
(0.0487728 0.642962 5.23574e-18)
(-1.18167 -0.0519192 2.84466e-16)
(-0.276655 -0.102399 2.68054e-16)
(-0.0070194 -0.122652 2.62795e-16)
(0.0589023 0.0476684 0)
(0.12698 0.0353877 1.00226e-16)
(-1.16431 -0.0686408 -6.28282e-16)
(0.0632987 -1.95345 1.59639e-16)
(0.405363 0.132811 1.75538e-16)
(0.161582 -0.0121701 -2.56166e-17)
(0.732046 0.321078 -1.36405e-16)
(0.100964 0.0115416 2.52643e-17)
(-0.0179469 -0.0672356 -2.41963e-16)
(0.607833 -0.114846 2.14567e-16)
(0.367305 -0.206336 -3.22605e-16)
(-0.100514 0.4743 -5.74287e-16)
(0.158438 -1.66125 -3.42073e-16)
(0.300038 0.717297 5.99314e-16)
(0.512791 0.0242775 0)
(-0.122389 2.40517 0)
(0.460143 0.181929 -5.27512e-17)
(-0.927697 -1.04398 0)
(0.322008 -0.20833 0)
(-0.0567744 0.295939 1.41954e-16)
(-0.114607 0.457173 2.24497e-17)
(0.234065 -2.05484 -6.73287e-17)
(0.695582 -0.156281 7.84013e-20)
(0.0632999 -0.0675749 0)
(0.550661 0.0801433 -5.29489e-17)
(0.572622 0.527676 -1.3657e-17)
(0.499653 0.557876 -1.33252e-17)
(0.428291 0.662311 -6.34468e-18)
(0.401577 -0.422001 -1.04197e-16)
(-0.332121 0.0504118 3.09922e-16)
(0.844007 -0.0502339 -6.10803e-17)
(-0.00856065 0.583353 2.67741e-16)
(0.136961 0.227675 0)
(0.507743 -0.0964253 3.68752e-16)
(0.552805 -0.0522554 1.65833e-16)
(-0.20062 0.252907 1.4651e-16)
(0.437204 0.320741 5.08544e-17)
(0.408809 0.223439 1.12341e-17)
(0.508643 0.392416 5.44974e-17)
(0.42308 -0.491108 -2.38998e-20)
(-0.258133 0.15376 -1.05204e-16)
(0.612111 -0.125229 -5.18142e-20)
(-0.700404 -0.759446 -7.22438e-17)
(0.482539 0.105797 2.73555e-17)
(-0.771815 -0.299827 -7.70129e-17)
(-0.0621156 0.0223991 0)
(0.218273 0.767283 0)
(-0.0291085 -0.0182778 -1.71063e-20)
(-0.197291 -0.302298 1.46875e-16)
(-0.346036 -0.2336 0)
(0.179482 0.717741 6.44173e-17)
(0.651641 -0.149472 3.78067e-17)
(0.0680679 0.00635948 -5.47736e-17)
(0.526357 -0.151501 0)
(0.326635 0.589598 8.48349e-17)
(0.187051 0.438929 1.3323e-16)
(-0.496868 0.153684 2.78989e-18)
(-0.750634 1.53257 -3.60153e-16)
(0.604657 -0.147038 2.71895e-16)
(0.245988 -1.39296 0)
(-0.265871 0.309054 -1.35498e-16)
(0.493093 -0.206417 1.93102e-20)
(0.783023 0.181309 0)
(0.284576 0.434765 0)
(0.568385 -0.272541 0)
(-0.406602 -0.15219 -6.24243e-16)
(0.488807 -0.269528 -1.18405e-16)
(0.381479 0.675531 0)
(-0.849838 1.82987 1.40912e-16)
(0.370366 -0.221008 3.40798e-16)
(-0.493379 -0.0590346 -3.94712e-17)
(0.320995 0.105197 -8.57969e-16)
(0.445417 0.0693772 0)
(-0.511081 0.0687272 -1.76561e-16)
(-1.01812 -0.0338793 -5.07545e-19)
(-0.671492 -0.0318916 3.3651e-16)
(-0.213708 0.0603685 0)
(-0.625216 0.0375839 -5.40384e-18)
(-0.251894 0.19327 -8.69811e-16)
(0.147639 0.156292 -9.92018e-17)
(0.506448 -0.173779 -1.38588e-16)
(0.0782709 -0.866346 4.68559e-16)
(-0.214837 0.356906 0)
(0.167221 0.117688 1.67745e-16)
(0.330978 0.481327 -1.30606e-17)
(-0.19925 0.618451 -6.76843e-17)
(0.024625 2.14841 1.02756e-16)
(0.107705 0.0359767 -1.38378e-16)
(0.524189 -0.132189 -4.62074e-20)
(0.691632 -0.1263 2.68667e-16)
(0.160626 0.0482838 -4.08918e-20)
(-0.670897 -0.433208 -2.42144e-17)
(2.04923 0.321389 -1.87892e-16)
(0.955269 0.164606 -2.57032e-16)
(-0.783379 2.2715 9.09539e-17)
(0.397701 -0.256964 1.73965e-19)
(-0.346828 -0.0841909 -6.74392e-17)
(0.0112351 -0.017367 -6.87295e-17)
(0.243089 0.00886045 -1.00077e-16)
(-0.0668835 -0.0607788 7.60376e-17)
(0.608857 -0.167465 3.021e-17)
(0.146943 0.348288 3.27076e-18)
(0.793551 -0.121433 -4.00943e-16)
(0.20789 -0.0246703 6.94557e-17)
(-0.058087 -0.476409 1.47351e-16)
(-0.128845 0.303118 0)
(-1.00856 -0.780532 -5.13229e-18)
(0.48071 -0.00925863 2.19845e-16)
(0.449465 0.54501 2.81005e-17)
(-0.351768 0.0791062 0)
(-0.677798 0.000182622 -3.04382e-20)
(-0.129607 -0.0352868 5.13569e-18)
(-0.48857 -0.3079 -9.0369e-17)
(0.678906 -0.190757 -9.57411e-17)
(-0.239027 0.395102 0)
(-0.42649 -0.0513072 0)
(-0.666521 0.0653365 2.71201e-16)
(-0.294089 -0.0551381 1.39536e-16)
(0.42895 -0.137354 -2.17105e-16)
(-0.670736 2.38526 -4.36013e-17)
(-0.175437 0.471633 -3.95691e-17)
(0.19213 0.0647011 0)
(0.394761 -0.186383 -1.89744e-16)
(-0.389115 0.259479 0)
(-0.179628 2.61693 6.35668e-17)
(0.0939422 1.1331 -1.79408e-19)
(-0.266289 0.254522 0)
(0.1192 0.226135 -2.31417e-16)
(-0.092874 0.165112 -6.5156e-17)
(0.382948 -0.584271 4.13377e-16)
(0.0561133 -0.0421482 -4.34173e-17)
(-0.153594 0.400536 7.2883e-17)
(0.784015 0.282769 2.501e-16)
(0.0674111 0.238658 -4.12034e-16)
(-0.0822452 0.153527 -1.72171e-16)
(0.539234 -0.254766 -1.39802e-16)
(-0.27034 -0.0039204 5.18956e-18)
(0.152429 1.78986 2.14805e-16)
(-1.06615 1.74278 2.81241e-16)
(-0.559879 -0.109717 3.82098e-17)
(-0.438027 0.0832595 -1.31022e-16)
(0.198544 0.101805 -2.58034e-16)
(0.491383 -0.229402 6.89367e-17)
(-0.235594 -0.0564711 -2.47728e-17)
(0.560248 -0.286109 -7.20911e-21)
(-1.21786 -0.0589086 1.59012e-16)
(0.48767 0.0862318 0)
(-0.0819997 0.0688993 -4.03621e-17)
(0.424193 -0.160707 -3.10162e-17)
(0.142034 -0.00998854 -1.85995e-16)
(0.252559 -0.151289 6.05734e-16)
(0.498042 0.0313511 -1.75361e-16)
(-0.231471 0.104273 1.77243e-16)
(-0.833022 0.0249192 -1.20401e-16)
(-0.243878 -0.0439591 2.08322e-17)
(-0.621015 -0.124247 0)
(-0.0563055 -0.0510871 0)
(-0.723543 -0.0234138 -1.43506e-16)
(0.27905 0.0949293 0)
(0.590556 -0.0213397 3.69897e-16)
(-0.190592 -0.0388226 1.98e-17)
(-0.58309 -0.0815418 0)
(-0.0828431 0.118785 -1.22458e-17)
(0.582082 0.00344897 0)
(-0.111975 -0.0524085 -4.9536e-17)
(-1.135 -0.0412663 -1.11393e-16)
(0.615162 -0.110439 -1.49026e-17)
(-0.828312 -0.0517897 1.4596e-16)
(0.435992 0.116952 0)
(0.472502 -0.0583448 -2.81219e-16)
(-0.596086 0.109382 0)
(-0.383702 -0.0532622 0)
(-0.868968 -0.0358708 -1.27821e-16)
(-0.966361 -0.040859 0)
(0.769127 0.00955039 -8.13461e-17)
(0.13258 -0.0582166 8.90532e-17)
(-0.0631092 0.158348 1.07857e-16)
(-0.60058 0.136779 -2.97594e-16)
(0.446047 -0.148689 5.46958e-17)
(0.435059 -0.138457 5.31273e-16)
(0.482165 -0.0862624 -5.43534e-17)
(0.354804 -0.113757 -4.4512e-16)
(0.483908 -0.191713 2.53755e-16)
(-0.23859 0.0473712 -4.42286e-18)
(0.528567 -0.392816 -4.08292e-16)
(0.0265167 -0.203123 3.75123e-16)
(0.21372 2.44547 4.0998e-19)
(-0.332591 0.391255 -1.83837e-16)
(-0.784686 0.0314812 0)
(0.229535 -0.00216204 1.91974e-16)
(0.0920951 -0.0196219 2.04806e-16)
(-0.470596 -0.0754999 -2.68742e-16)
(0.0184777 0.00157274 3.88128e-17)
(-0.768925 -0.0947746 0)
(-0.307136 -0.0492748 -2.13872e-17)
(-0.136782 -0.0420354 -1.44906e-17)
(0.345325 -0.0657467 1.32429e-16)
(0.665707 0.0756127 0)
(-0.901703 -0.0461401 1.74811e-17)
(-0.0271617 -0.0326034 -9.3649e-17)
(0.741203 -0.020102 -2.47669e-16)
(0.61356 -0.0133504 0)
(-0.61361 -0.0589137 -4.18007e-16)
(0.082125 0.115839 0)
(-0.752304 0.0760174 8.39186e-17)
(0.35094 -0.162107 -8.78859e-18)
(0.727259 -0.132558 3.56454e-16)
(-0.0457912 0.1348 -2.17705e-16)
(0.69184 -0.15146 2.59834e-17)
(0.100348 0.0688634 -2.73399e-17)
(-0.0572567 0.32233 -6.94945e-18)
(-0.496622 -0.0966983 -7.85283e-17)
(0.0463305 0.0322256 -2.40881e-17)
(-0.251227 0.474577 3.44935e-16)
(-0.353996 -0.0454236 1.02436e-16)
(-0.464782 -0.0932032 0)
(0.485856 -0.252015 0)
(0.00522794 0.158854 0)
(0.0201063 0.186707 3.54397e-16)
(0.0394656 0.252252 0)
(0.0521993 -0.0192949 1.3328e-17)
(-0.0535065 0.804775 6.21691e-17)
(-0.244995 0.0552514 -4.19314e-17)
(0.459186 0.424306 -7.8912e-17)
(0.0746002 -0.0330992 1.83877e-18)
(-1.15955 -0.0765622 -1.13958e-16)
(0.906856 -0.138019 -8.80699e-17)
(-0.185433 -0.00196024 5.25724e-17)
(0.466585 -0.115427 3.65597e-17)
(-0.354197 -0.068826 -3.69629e-18)
(0.0761439 -0.042641 -1.90181e-16)
(0.447998 -0.159813 -2.56791e-17)
(0.339206 0.111296 0)
(-0.495893 -0.310733 2.7136e-16)
(0.139844 0.0685407 -1.37071e-16)
(0.149365 2.46443 -2.03605e-16)
(-0.0413703 -0.146777 -1.01853e-16)
(0.332187 0.428385 -1.0366e-16)
(-0.474993 -0.226161 2.08547e-17)
(0.0669031 -0.035404 -3.77539e-16)
(-0.0881947 0.249817 5.609e-17)
(0.058904 0.0890743 4.35714e-17)
(-0.507344 0.976821 -3.69148e-17)
(0.0561475 0.186722 1.51431e-16)
(0.13932 0.110767 -3.29399e-17)
(-0.0403114 0.513819 -1.17722e-19)
(0.011305 0.205645 0)
(0.0313136 0.209802 0)
(-0.0110484 0.469153 6.499e-16)
(-0.0064241 0.0926945 8.96376e-17)
(0.283509 -0.0449829 -1.65393e-16)
(0.343044 -0.0410195 5.83248e-16)
(0.325129 -0.0469004 -3.5565e-16)
(0.32287 -0.0400077 7.57325e-16)
(0.339425 -0.0351737 -1.6882e-16)
(0.312449 -0.0425033 -4.53276e-16)
(0.318372 -0.0302701 -3.09613e-16)
(0.260336 -0.0165144 -3.35517e-16)
(0.392163 -0.0861581 -2.15512e-17)
(-0.337087 -0.213438 -4.27173e-17)
(0.0910377 0.172857 3.93437e-17)
(0.261034 -0.387662 -1.05722e-19)
(-0.267964 2.41498 -9.51883e-17)
(0.236321 -0.128353 -1.68371e-16)
(-0.437164 0.673219 2.37539e-16)
(-0.0824362 -0.257589 2.54069e-16)
(-0.951171 0.328815 3.82779e-16)
(-1.17036 0.643209 -1.69421e-16)
(0.036238 -0.72802 -5.03012e-17)
(0.00151879 0.169487 0)
(0.22615 -0.566944 3.87428e-16)
(-0.433351 0.518516 3.78839e-17)
(-0.969129 0.581478 -2.08626e-16)
(-0.587249 0.647761 -2.35942e-16)
(-1.25277 1.01099 0)
(-1.24707 1.23044 2.71376e-16)
(0.230816 0.429299 0)
(-0.173131 0.612116 6.5832e-17)
(0.219874 0.63902 2.10591e-16)
(-0.747866 1.00645 0)
(-0.359435 0.437822 -4.45003e-17)
(0.0527485 0.34466 -3.46893e-16)
(-0.337342 0.328157 -7.80297e-17)
(-0.86446 0.0750784 -2.55944e-16)
(-1.21244 1.18796 -4.51729e-19)
(-0.860557 0.851135 0)
(-0.285987 -0.236371 0)
(-0.267238 0.638122 -1.04255e-16)
(-0.451142 0.320113 1.65581e-16)
(0.0628369 0.23021 3.1291e-18)
(0.0448701 0.312161 3.09276e-16)
(-0.100732 0.553655 3.43307e-16)
(0.117583 -0.574704 -6.76538e-17)
(-0.0205486 -0.647542 0)
(0.118149 -0.053981 1.82024e-16)
(-0.323567 -0.308532 -1.14479e-17)
(0.38092 0.0860472 0)
(-0.154891 0.817124 1.04321e-16)
(0.107636 -0.304581 3.42331e-17)
(-0.643004 0.406807 -2.88255e-17)
(-0.179821 0.597547 -2.34463e-16)
(-0.515212 0.197441 5.87412e-17)
(0.23348 0.430721 -1.05291e-15)
(0.23198 -0.190033 -7.44959e-16)
(-0.214071 0.377051 0)
(-0.173042 0.626314 -4.45455e-17)
(0.582768 0.128879 -1.2396e-16)
(1.1093 1.14563 2.51709e-16)
(0.350336 0.256792 -5.24215e-17)
(-0.29601 -0.340662 -5.1981e-17)
(0.78787 0.458064 5.14159e-16)
(-0.426204 -0.277178 -1.66893e-16)
(0.262494 0.0644192 0)
(0.358172 0.415361 1.33891e-16)
(-0.220403 -0.2423 -5.56275e-16)
(-0.851091 -0.173067 5.54139e-17)
(0.316342 0.637016 -2.41908e-16)
(0.488987 0.0581435 -5.86471e-17)
(0.0912512 0.208034 -1.84571e-16)
(0.250527 0.503553 -9.09538e-17)
(-0.31954 -0.168905 9.34798e-17)
(-0.844715 -0.149448 -3.72614e-17)
(0.0439562 -0.0341639 0)
(0.383551 0.217456 1.7232e-16)
(0.721245 1.7284 -1.47769e-18)
(-0.259073 0.0290939 1.37181e-16)
(-0.0538175 -0.744894 -1.31707e-17)
(-0.0148135 -0.776205 1.19025e-17)
(0.249919 0.42822 1.92856e-16)
(-0.0626373 -0.0674514 1.26705e-17)
(-0.00612887 -0.00130542 5.66698e-17)
(0.0303318 0.0059595 -5.90403e-17)
(-0.835986 -0.129733 3.79337e-17)
(0.129606 -0.0602725 -1.42273e-16)
(0.418347 0.0670344 3.93777e-16)
(-0.465008 0.611875 -1.69746e-17)
(-0.240276 0.659394 -3.66556e-16)
(-0.69116 0.5882 -8.7704e-18)
(-1.16004 1.0501 -3.74214e-16)
(0.0951465 0.343554 0)
(-1.08253 0.906513 2.38011e-16)
(-0.309343 0.620914 6.40013e-17)
(-0.252159 0.584736 -5.52098e-18)
(-0.881232 0.793122 -7.26899e-17)
(0.266219 0.450177 2.79671e-18)
(-0.320499 -0.0629546 -9.34091e-17)
(-0.00889694 0.433453 -4.98512e-16)
(-0.0835041 0.512735 -1.74056e-16)
(-0.0199901 0.401546 8.40435e-16)
(-0.33667 0.925049 4.27515e-17)
(-0.0921829 -0.534564 1.31254e-18)
(-0.272567 2.19311 2.5154e-16)
(-0.270474 1.62321 0)
(-0.0135806 0.166881 2.73944e-16)
(0.00688084 -0.549943 0)
(-0.153458 -0.457329 8.53037e-17)
(-0.0205399 0.111571 9.02439e-17)
(-0.683036 -0.119582 -4.12664e-17)
(-0.656525 -0.272611 3.26117e-16)
(0.0858926 -0.0276338 -5.2569e-17)
(-0.42155 0.679875 -5.65514e-17)
(-0.315125 0.690616 1.19641e-16)
(-0.296894 0.592232 0)
(-0.198189 -0.228769 0)
(0.437896 0.193648 2.0193e-16)
(-0.0118669 -0.266228 -3.37644e-17)
(-0.109475 -0.107942 -4.44742e-17)
(-0.0323919 0.157297 -4.50319e-16)
(-0.120286 -0.274351 4.05992e-17)
(-0.216023 0.301697 4.04466e-17)
(-1.21221 0.959118 2.14139e-16)
(-0.161788 0.0082649 -1.26105e-16)
(-0.640803 0.727845 9.30701e-17)
(-0.213238 0.655002 -4.43177e-17)
(-0.47071 -0.0558061 0)
(-0.247601 1.18089 0)
(-0.280692 0.603521 0)
(0.192506 0.359426 1.01438e-16)
(-0.0513459 0.0170714 2.90527e-16)
(1.06053 -0.0562364 -8.37303e-18)
(-0.044405 0.0144537 7.46033e-17)
(0.0980797 0.101005 8.66679e-17)
(0.0895196 -0.00253941 -1.48025e-16)
(-1.08803 0.960642 0)
(0.577677 -0.121815 -1.49134e-16)
(-0.191585 -0.178508 -5.84998e-17)
(0.11057 0.179887 -1.39664e-16)
(-1.21699 0.742165 -5.66477e-17)
(-0.484998 -0.135461 4.99469e-16)
(-0.0555155 0.120617 1.31361e-17)
(0.0852128 0.0383349 9.5511e-17)
(-0.312007 1.51281 0)
(0.368011 0.0879551 -5.96511e-16)
(0.246253 -0.0493512 -1.0126e-16)
(0.43369 -0.158426 0)
(0.200253 0.322905 4.97329e-17)
(-0.543092 0.791025 -1.0646e-17)
(-0.122115 1.1537 1.84109e-17)
(1.1874 0.0410001 0)
(-0.932276 0.0114452 0)
(-0.463387 0.794662 9.38318e-17)
(0.446378 0.185961 2.31718e-16)
(-0.905548 -0.411259 -6.49912e-17)
(-0.211145 0.622328 1.25434e-16)
(0.0741256 -0.202062 1.43268e-16)
(-0.813339 -0.11763 0)
(-0.747814 0.879619 -1.16767e-16)
(-0.394601 0.767897 9.78182e-17)
(0.00743319 0.0135864 -1.11175e-16)
(0.586104 0.222158 8.95068e-17)
(0.177731 0.0647931 0)
(0.10122 -0.0463735 2.83751e-16)
(0.843002 -0.150488 0)
(0.226638 0.689336 -1.27087e-19)
(-0.121237 0.635488 -2.03887e-16)
(-0.592996 0.0656088 8.51124e-17)
(0.0342037 0.858983 0)
(0.0988095 0.100813 1.24562e-16)
(-0.334901 0.0164156 -2.17889e-17)
(0.188158 0.124609 1.80229e-16)
(0.455183 0.110986 5.15606e-16)
(-0.84691 -0.20543 0)
(0.253726 0.366731 0)
(-0.322445 0.0403161 -8.38652e-17)
(0.238892 0.0294158 -9.02718e-17)
(0.0410907 0.0784734 -1.24103e-17)
(-0.175807 0.837844 0)
(0.115551 -0.0335714 -1.87043e-16)
(0.157973 0.664492 1.31643e-16)
(0.145459 0.313343 -1.86104e-16)
(-0.0680949 0.11378 -3.69088e-16)
(-0.7926 -0.262682 3.52598e-16)
(-1.03494 -0.0895011 1.71365e-16)
(0.218154 0.00426292 2.94804e-16)
(0.165024 0.11734 0)
(-0.545982 -0.135795 -1.58653e-16)
(-0.658935 1.15327 -2.16923e-19)
(-0.0809976 1.43719 3.29317e-16)
(0.0715681 0.0435623 -1.25524e-17)
(-0.461268 2.5682 6.35644e-17)
(0.0895389 0.263841 2.92683e-16)
(-0.00947734 2.50182 -2.62639e-16)
(0.0480508 -0.0851181 0)
(-0.768638 -0.115271 -1.59e-16)
(-0.411443 1.26162 -7.47711e-18)
(0.250227 0.716518 -5.68198e-16)
(-0.417223 -0.120778 -3.25967e-20)
(0.0446902 0.161499 -1.94934e-16)
(-0.173103 0.320396 -1.84265e-16)
(0.416061 -0.141931 -1.46526e-16)
(0.0992703 -0.547336 -3.91285e-19)
(0.27624 -0.118961 0)
(-0.612338 0.189609 0)
(-0.073067 0.528223 -1.42686e-16)
(0.280262 -0.0961655 -1.14412e-16)
(0.333258 0.370962 -5.62148e-17)
(0.310806 -0.107941 -9.48422e-17)
(0.0923502 0.209171 -1.08214e-16)
(0.146771 0.0715083 0)
(-0.183601 1.49371 -1.48524e-17)
(-0.843736 -0.229887 -1.97878e-17)
(-0.190255 -0.0788623 2.41244e-17)
(0.142552 0.00674973 8.52929e-17)
(0.116776 0.00827382 2.6494e-17)
(0.0856642 -0.0149118 0)
(-0.108455 0.287884 6.78545e-18)
(0.25583 0.318549 -8.54892e-17)
(-0.340804 0.153485 8.16083e-17)
(0.256014 -0.0439433 0)
(-0.264942 -0.13606 7.82948e-20)
(1.1831 -0.0500116 -6.23941e-17)
(-1.1726 0.353243 -1.97254e-16)
(-0.288469 -0.0749557 3.53498e-17)
(0.445666 0.174367 0)
(-0.816823 -0.243955 -3.18623e-16)
(-0.856483 0.304304 -2.91583e-16)
(-0.443975 2.15798 1.40049e-16)
(0.217956 0.0345632 0)
(0.168995 0.223234 -4.61102e-17)
(0.121141 0.535901 0)
(0.183311 -0.0426412 0)
(-0.697611 0.5348 0)
(-0.190895 0.334061 -7.10737e-17)
(0.119904 -0.0376519 2.73755e-16)
(-0.519503 1.41112 9.78041e-17)
(0.144239 -0.0676398 1.08916e-15)
(0.192412 0.116963 -5.31066e-17)
(-0.795988 -0.232566 -2.54692e-18)
(0.119865 0.459614 2.22405e-21)
(-0.144313 0.550502 -5.35968e-18)
(0.438134 0.195741 -2.22143e-16)
(0.0880036 -0.271036 1.45584e-16)
(-0.377618 1.08523 1.18507e-16)
(0.0253278 0.111422 -9.46319e-17)
(0.0747949 0.258188 1.70321e-16)
(0.236465 -0.150506 -4.28866e-16)
(0.0175798 0.492336 0)
(0.19623 -0.108249 -8.84499e-18)
(0.173306 0.191823 3.95303e-17)
(-0.611018 0.261109 9.57367e-17)
(0.296869 -0.0687664 1.05424e-16)
(-0.819746 -0.266252 1.46808e-16)
(-0.311562 0.0614756 -2.06312e-16)
(0.367202 0.0709491 -1.55335e-19)
(0.177625 -0.185689 -1.10332e-19)
(-0.0394934 0.378386 0)
(-0.635342 0.313331 0)
(-0.0334819 0.159697 4.44106e-17)
(0.230972 0.129034 4.41462e-22)
(-0.419714 0.374689 1.76648e-16)
(0.640301 0.00227688 0)
(-0.801398 -0.235138 1.20169e-16)
(0.406189 -0.0979499 0)
(-0.383243 -0.0718974 0)
(-0.117321 0.334924 8.03019e-17)
(-0.535358 0.0284285 -1.55032e-16)
(-0.805202 -0.0649671 -4.38412e-17)
(0.366961 -1.8966 -3.36239e-17)
(-0.181221 0.240235 9.94981e-17)
(0.156826 0.246073 -1.31521e-17)
(-1.11251 0.156854 2.49646e-16)
(-0.0287692 0.216736 1.2128e-16)
(0.343342 -0.51485 -2.01416e-16)
(0.206704 0.33788 4.00956e-17)
(0.49167 -0.00786747 1.03353e-16)
(0.258507 -0.141393 -1.88644e-16)
(0.123708 -0.0891142 1.02287e-16)
(0.077923 0.14825 -2.2952e-16)
(-0.895034 0.977522 2.28741e-16)
(-0.763008 -0.240691 -1.54841e-16)
(0.347739 -0.103577 1.01933e-16)
(-0.340514 0.0684029 1.49794e-19)
(0.0501323 0.16824 1.35292e-16)
(-0.410462 -0.358931 -2.99649e-17)
(0.105919 0.127578 0)
(0.188727 0.217273 0)
(-0.675389 0.918604 -2.52689e-16)
(0.255858 0.271303 8.88315e-17)
(-0.377788 0.27566 -1.72211e-16)
(-0.379225 0.100998 1.08617e-17)
(0.603201 0.0557422 2.72054e-17)
(0.101253 0.26541 0)
(-0.109181 0.220125 1.84605e-16)
(0.0718329 -0.27165 0)
(0.401877 -0.0629822 0)
(-0.0340893 1.14935 -1.01275e-16)
(0.154229 0.281551 0)
(-0.953644 -0.0818596 -3.25353e-16)
(0.189535 -0.0274443 5.6216e-16)
(0.0933622 0.239739 9.61495e-17)
(-0.585727 -0.0451788 -8.2882e-17)
(0.0741214 0.0855891 -9.00875e-17)
(-0.561088 1.29507 -1.57968e-16)
(0.329975 -0.127144 -2.54388e-16)
(0.189856 0.00869334 2.05299e-16)
(0.357264 0.570948 -1.4509e-17)
(-0.396271 -0.121092 -2.7761e-16)
(0.49861 0.116189 -1.30714e-16)
(-0.0455969 0.359406 7.47318e-17)
(-0.411539 -0.289146 0)
(0.00415601 0.17438 -2.51893e-16)
(0.00971019 -0.00422458 1.06148e-17)
(0.0377275 0.00814903 -3.92265e-17)
(-1.0701 1.66917 -2.97024e-19)
(-0.0178044 -0.00998784 -1.09816e-17)
(0.0878223 -0.0174602 0)
(-1.20988 -0.102062 -2.35767e-16)
(0.273625 0.419052 0)
(-0.313475 -0.0754523 3.96179e-16)
(-0.044605 -0.00460021 -8.86401e-17)
(0.153765 -0.0712714 0)
(-0.0192276 0.436421 7.90118e-16)
(0.116001 -1.36433 1.5066e-16)
(-0.430627 0.444842 -2.88879e-16)
(0.0616862 0.108645 -4.36271e-16)
(-0.669298 -0.209211 2.51657e-17)
(0.0489047 -0.416544 0)
(0.461585 0.133016 2.75585e-16)
(-0.869344 -0.302133 7.37269e-17)
(0.164132 0.0607534 1.67591e-16)
(-0.160961 0.0878187 1.46429e-16)
(0.00949738 0.108179 5.17158e-17)
(0.114643 0.0501517 4.39706e-17)
(-1.03701 -1.2104 -5.67864e-19)
(0.124141 2.02216 1.55529e-19)
(-0.765802 1.39079 0)
(-0.809378 -0.399987 4.25233e-17)
(0.000820586 0.208004 0)
(0.0306578 0.0482183 -1.1659e-19)
(-0.455571 -0.158276 -7.65048e-22)
(0.0624505 -0.00264293 5.51282e-17)
(-0.262341 -0.231537 -1.41115e-16)
(-0.00570418 0.268485 0)
(-0.102876 0.617579 -7.1259e-17)
(0.189351 -0.00620695 -3.75171e-16)
(0.0924282 0.0562399 -3.40488e-16)
(-0.823648 -0.316959 0)
(-0.721817 -0.142628 -6.20106e-21)
(0.275356 -0.0293707 -1.86636e-16)
(1.74879 0.700835 4.42179e-16)
(0.81063 0.0519626 5.22127e-16)
(0.601388 0.0151138 -4.34158e-16)
(0.122716 -0.024474 -2.26515e-17)
(0.0579543 -0.0618794 1.95613e-16)
(0.0996815 0.101904 -3.375e-17)
(0.481352 0.0695883 -1.93785e-16)
(0.0108238 0.17066 6.92226e-21)
(0.44755 0.237341 1.19792e-16)
(0.709809 2.51117 6.04067e-16)
(-0.400525 0.0167113 5.14297e-20)
(-0.198055 -0.0502651 0)
(-0.147086 0.101793 8.84677e-17)
(0.0729651 0.0352415 2.10093e-21)
(0.526729 -0.22373 -1.14025e-16)
(-0.830511 0.088878 -8.31413e-17)
(-0.338625 -0.0851489 4.18993e-17)
(-0.178591 -0.201916 -2.84738e-16)
(0.00505894 0.321953 1.25259e-16)
(-0.498881 0.267043 -8.50184e-17)
(-0.0253243 0.306575 1.55118e-16)
(-0.135296 -0.00915361 2.20804e-16)
(-0.149584 0.380001 3.18505e-16)
(0.121111 -0.543582 -2.25374e-16)
(0.320414 -0.0744743 -4.81453e-16)
(-0.114167 2.60085 3.29082e-19)
(-0.457715 0.00186078 -5.20888e-20)
(0.255729 -0.049135 3.02753e-16)
(-0.0261016 0.445297 -2.61735e-16)
(0.120859 -1.37556 0)
(0.156282 -0.0283556 3.11441e-16)
(-0.805742 -0.026015 -9.01169e-17)
(-0.635427 -0.124295 3.64339e-17)
(-0.735176 -0.358712 2.39484e-17)
(-0.980902 -0.120619 3.85199e-17)
(-1.16375 0.717604 1.11322e-16)
(1.05174 -0.111771 -1.07931e-16)
(-0.847911 0.21354 8.31766e-17)
(0.184057 0.033081 2.75298e-16)
(0.343375 2.84906 -3.22517e-16)
(-0.192925 0.0346654 -2.16588e-17)
(-0.498353 0.0460623 -3.46246e-16)
(-1.08317 0.474111 0)
(0.145951 0.715511 -7.26589e-17)
(0.122344 0.454937 -1.47796e-19)
(-0.0306896 0.13957 -7.80656e-17)
(-0.674895 -0.0602301 -3.95652e-17)
(-0.118736 -1.39386 -2.41866e-16)
(-0.0276521 0.655741 7.05726e-17)
(0.533337 3.10365 -1.56054e-16)
(-0.63519 0.388532 -2.66087e-18)
(0.148523 0.192468 -7.93779e-17)
(0.0696062 0.178529 8.76626e-17)
(0.986189 0.00769324 0)
(0.956787 0.0110157 0)
(-0.335567 -1.25479 -3.65847e-18)
(0.240326 -0.116152 -4.24777e-16)
(-0.212896 0.00148844 2.43315e-16)
(-0.937875 -0.180957 0)
(0.00717356 0.252696 0)
(0.0361768 0.187602 -1.94153e-17)
(-0.745936 0.341548 -8.27546e-17)
(-0.0842985 -0.0791515 1.37625e-16)
(-0.931761 -0.0735054 1.41459e-16)
(-0.471918 0.124486 9.96523e-17)
(0.151735 -0.00998253 -9.38857e-16)
(0.0297111 0.0627146 0)
(0.218251 0.451639 -1.11057e-16)
(0.248003 -0.157053 -7.16776e-17)
(-0.0979913 0.0634718 0)
(-0.0643021 -0.023254 -1.77594e-16)
(0.430609 0.14326 -2.61486e-16)
(-0.671874 1.0828 7.14981e-16)
(0.444876 -0.119492 -1.12391e-16)
(0.0132307 0.276681 -2.20988e-16)
(0.433523 -0.00381805 0)
(0.442978 0.0609615 0)
(0.0572337 0.346707 1.63253e-16)
(0.039208 0.228112 -7.59702e-17)
(-0.539921 0.247597 1.65779e-16)
(-0.0136113 0.0890683 0)
(0.121431 0.00138029 9.43973e-17)
(-0.778914 0.407725 3.93807e-19)
(0.691197 -0.00635359 0)
(-0.701069 -0.138479 0)
(-0.115413 0.339517 4.70306e-17)
(-0.439251 -0.160906 0)
(-1.03106 -0.421512 2.42089e-17)
(-0.0158853 0.0375152 1.74898e-16)
(-0.272493 1.0278 1.7601e-16)
(0.58764 -0.152847 3.56569e-16)
(0.379786 -0.425329 -1.13708e-16)
(-0.00937571 -1.88743 -1.70153e-16)
(0.144832 0.152206 1.92874e-16)
(-0.00554229 0.230688 0)
(-0.0634746 0.121175 -8.83539e-17)
(-0.517488 0.103348 1.83919e-16)
(0.220223 0.0102213 0)
(-0.629273 0.2169 -1.42257e-16)
(-0.797113 -0.166632 0)
(-0.359295 0.0795334 -2.5005e-16)
(-0.955683 0.234469 0)
(-0.21883 0.0690667 -2.16598e-16)
(-0.817538 -0.173007 4.38573e-18)
(0.210601 -0.131613 1.33679e-16)
(-0.315682 0.276727 8.51358e-16)
(0.307533 -1.31759 0)
(0.413827 2.67224 2.26896e-18)
(0.0544669 0.392229 1.88268e-16)
(-0.419484 0.290819 -1.87116e-16)
(-0.698857 -0.177023 3.51622e-17)
(-0.336883 -0.17133 -1.27851e-16)
(-0.614555 -0.28451 1.63793e-16)
(-0.159422 -0.0117755 4.94634e-17)
(-0.918518 -0.248703 4.60528e-18)
(-0.339979 -1.7979 -4.77001e-16)
(0.132689 -0.023401 -1.7405e-16)
(0.107391 0.284109 2.86461e-16)
(0.700013 -0.0332659 3.14577e-16)
(0.101836 -0.0893514 -1.05322e-16)
(0.199206 -0.130682 -8.96513e-17)
(-0.123386 0.073325 -7.63894e-17)
(0.174985 0.153477 4.2221e-16)
(-0.789182 -0.112536 1.72322e-16)
(-0.238815 2.53825 7.36977e-17)
(-0.882441 -0.112209 0)
(-0.906129 -0.105421 0)
(-1.07268 -0.0153481 -1.40461e-16)
(0.287308 0.100668 3.03242e-16)
(-0.437471 -0.49898 -3.03458e-17)
(-0.630732 -0.238976 -2.74977e-16)
(-0.0494547 0.145968 7.59307e-18)
(-0.219888 0.617127 -7.39714e-17)
(0.234427 0.0146686 5.80949e-16)
(0.148661 -0.138398 1.10696e-16)
(0.145508 -0.133961 4.49482e-17)
(1.02492 0.0654247 0)
(0.436703 0.117957 1.68427e-16)
(-0.741486 -0.196051 0)
(0.242711 0.414272 0)
(-1.13396 -0.0893918 -3.36728e-18)
(0.111825 0.081502 0)
(0.80285 0.0503801 0)
(-0.0229745 0.129185 0)
(0.0167848 -0.0719106 0)
(0.282408 0.13645 -6.57783e-16)
(-0.198103 0.317457 -2.19228e-16)
(0.318385 -1.78794 -1.25438e-16)