/*--------------------------------*- C++ -*----------------------------------*\
| =========                 |                                                 |
| \\      /  F ield         | OpenFOAM: The Open Source CFD Toolbox           |
|  \\    /   O peration     | Version:  v1912                                 |
|   \\  /    A nd           | Website:  www.openfoam.com                      |
|    \\/     M anipulation  |                                                 |
\*---------------------------------------------------------------------------*/
FoamFile
{
    version     2.0;
    format      ascii;
    class       volScalarField;
    location    "0.99";
    object      epsilon;
}
// * * * * * * * * * * * * * * * * * * * * * * * * * * * * * * * * * * * * * //

dimensions      [0 2 -3 0 0 0 0];


internalField   nonuniform List<scalar> 
1466
(
0.178279
1.30884
1.01417
0.20909
1.93508
17.0386
0.535603
0.385518
7.43851
0.120285
4.00764
0.181353
0.0957305
0.157554
0.20242
0.123088
2.88323
0.158285
3.01476
0.13604
0.422147
0.280142
0.355373
1.46897
0.163962
2.91041
2.7373
0.116171
0.426178
0.513758
0.729383
6.12899
0.240715
0.289834
0.144364
0.214575
0.185938
0.301355
17.5804
0.246124
0.17524
0.103007
7.92303
0.395681
0.133793
8.86274
0.380684
0.202756
0.106971
0.441712
1.05457
0.123754
1.82164
16.1833
0.315014
0.172093
0.279311
2.24419
0.11214
0.177807
0.133117
0.381816
1.30664
10.8517
1.56414
0.205042
0.172697
0.3985
0.119887
0.344248
2.11325
0.201872
0.278961
0.37074
0.39986
0.151323
0.356182
0.158308
0.342395
0.178607
1.6898
0.343175
0.267359
0.112121
0.253682
0.479733
0.247321
2.03699
0.232553
0.428367
0.338134
0.550874
0.193977
0.123798
0.95224
0.393338
1.55248
0.110489
0.930211
0.343432
0.543987
0.102469
0.831546
1.65998
0.341689
9.1278
0.366994
0.299857
0.885173
0.168925
0.139561
0.295477
0.180048
0.303694
0.112012
11.565
0.153816
0.13103
0.522408
2.24199
0.364659
0.112825
0.134085
2.20386
0.205371
0.300438
0.154233
1.44315
0.211528
4.00537
0.167397
0.285697
0.483919
0.180255
1.25635
0.173343
0.097041
0.243344
0.141839
0.229668
0.164014
0.536941
0.313668
0.355386
0.138132
0.476277
1.18906
0.66174
0.198479
0.26652
0.227072
0.221395
0.325168
1.42074
0.370592
2.33354
0.152202
0.571199
0.840219
0.558396
0.112834
0.288865
1.46518
0.379333
0.0944541
0.180319
5.34832
0.168879
0.146172
2.7575
0.424973
0.51126
0.166814
0.191063
3.1872
1.39415
0.0915796
0.182232
0.178163
0.178495
0.138553
0.394644
0.198351
0.184238
2.09947
0.136306
0.32951
12.967
0.249434
2.54173
1.82543
0.4238
0.234809
1.55174
0.404255
0.188506
0.14444
0.18246
0.160893
0.155883
0.135642
1.09493
0.326909
0.160252
0.228179
0.111546
0.369037
3.52055
0.182799
0.388535
0.26157
0.15921
1.11753
0.367325
0.659379
0.2874
0.585211
0.0864548
0.12368
0.328437
3.1076
0.151702
0.120734
0.406373
0.176066
0.432194
0.153969
0.211814
0.280171
5.7214
0.304952
1.65773
0.279135
0.128766
0.233936
0.229503
0.140773
0.400693
0.192072
0.184426
6.54121
0.224381
0.546839
0.0955461
0.0950022
0.340971
4.24477
0.507203
0.156968
0.415388
0.352679
1.4126
0.126421
1.59394
0.240573
0.99143
0.168411
5.77562
14.6712
0.129716
0.382071
0.326172
0.905736
0.525145
26.2527
0.272327
8.49359
0.140451
0.897328
0.256814
0.487897
0.128507
0.263974
0.178506
0.311098
0.12281
1.3697
0.241456
0.978396
0.101748
0.203367
0.249966
0.468607
0.181758
0.56283
0.188966
1.53557
0.521663
2.34281
0.30655
0.493307
9.8198
1.63972
0.154952
0.173317
1.53571
14.307
10.2244
1.2587
0.154625
0.181094
0.225058
0.145997
1.42014
0.236633
0.289873
0.13482
0.127971
0.279005
19.8244
5.399
0.88582
1.26189
0.215614
0.145941
0.768359
0.136103
3.27706
0.143699
0.237257
0.477329
0.172334
0.217748
0.470476
0.240093
0.660175
1.69769
0.772188
2.88708
1.71797
0.32407
0.317962
1.92289
1.04596
0.281099
0.425425
0.478651
5.29435
0.380972
2.04596
0.299834
0.225397
0.528142
1.36509
0.617907
3.20855
0.335333
0.148425
0.164115
2.60469
0.150286
0.392772
0.131431
0.128836
0.118887
0.96144
0.136307
1.32782
21.2719
1.78297
2.20042
0.178248
0.172296
0.744981
0.33603
0.693381
1.51299
2.41886
0.160771
0.293326
2.54028
0.246181
0.336096
0.376856
1.76093
0.311023
0.60302
2.09152
0.280827
0.27626
0.215089
0.223394
1.1105
0.999914
0.192639
1.78631
0.407889
0.992456
0.223224
0.353623
0.371807
5.3286
0.177532
5.07974
0.381676
0.164311
0.180268
2.75929
0.348959
0.741468
0.271678
1.77989
0.199973
0.344229
0.162521
0.439847
0.442147
16.8883
0.286092
0.209843
0.752622
0.226372
0.320703
0.472176
4.54863
0.511484
0.597051
2.74539
0.52106
0.5577
2.22421
0.858609
0.256615
0.26372
0.270031
0.297619
0.241391
0.248451
0.292995
0.33859
0.159722
0.693259
0.693643
1.58076
38.3303
1.93316
3.78344
0.448793
3.48129
2.79878
2.71849
0.466968
1.5432
3.65065
3.0148
3.53781
3.29765
3.70019
4.74088
2.86439
6.63917
4.18189
4.95131
1.44562
3.26619
5.33259
3.78553
3.67357
13.2463
2.81528
3.15441
0.878998
1.20092
2.44419
2.02552
6.56571
2.25962
0.520639
0.178794
7.36826
2.00315
3.94991
2.51013
6.31347
2.81684
0.680385
10.0208
8.26969
1.74375
11.4892
0.189181
0.390098
5.51378
0.347345
0.870036
0.189016
0.246791
1.32995
5.33252
0.145522
0.655796
0.245874
0.264181
1.52819
0.424938
1.85345
14.1936
3.04609
4.70931
3.56721
0.248024
0.292021
0.312694
0.188146
1.74511
0.230332
0.149467
3.18263
3.61961
3.26975
3.32123
1.36324
3.14092
2.87778
4.0062
3.15985
0.27983
0.276836
1.80346
2.07083
1.50479
4.63425
2.90555
30.1311
26.9084
0.251909
2.42723
3.47894
0.392581
1.59817
0.426303
0.191149
3.11543
3.28978
3.16718
3.04608
0.114756
2.36536
0.458113
0.208956
2.73762
3.20831
3.41573
2.87305
3.23022
3.26913
1.26702
6.16515
3.7847
0.238156
0.30531
0.300244
2.66645
0.381973
0.211019
3.63565
0.148552
0.550059
0.79201
2.94398
0.729522
0.17316
0.239457
7.71461
0.153633
0.186933
0.453085
0.242971
3.45084
6.744
0.314507
2.19178
3.77197
0.127176
0.631922
4.05664
1.3229
1.96161
3.43616
4.1573
0.206665
0.368794
0.54464
0.207926
0.345622
8.98844
6.66576
0.280213
6.17242
6.65105
0.163802
0.502313
0.144465
0.889103
0.281269
0.289805
0.184489
0.190779
4.72861
0.232397
5.86348
0.198872
0.308746
0.64644
2.6398
0.49993
0.693781
0.930416
4.7474
9.55223
0.185808
15.2478
7.09901
14.2214
0.117398
2.13575
5.85846
0.129495
2.34336
0.136826
0.283611
0.438626
5.16643
0.193684
0.275766
3.30352
0.143169
0.276101
0.436582
2.85116
1.36634
8.59142
0.869285
0.292581
0.17786
0.185635
0.171069
3.14469
0.234722
0.294208
0.402522
3.05464
0.289906
2.62137
2.05205
0.110123
0.765347
2.56947
9.70508
0.355509
0.339803
4.50241
0.195498
3.19414
1.29723
1.31991
6.81099
0.247097
0.305847
0.808712
0.131449
3.76531
0.120308
2.20787
6.00976
2.62687
3.69133
0.308512
3.82299
0.207072
0.263338
0.25403
0.15809
0.671258
0.19538
0.499409
6.15654
3.30649
0.266751
0.18976
0.179238
0.271147
0.319754
0.720447
0.115839
1.52875
1.71279
1.28639
1.21442
1.61096
0.348075
0.228317
3.10493
0.700406
1.13023
0.176981
0.11801
0.399381
0.219677
0.445692
3.44754
0.646072
0.17512
3.03012
0.369424
0.241993
0.526026
2.91485
3.71058
0.185054
0.285901
0.439987
0.169413
0.161549
0.300329
0.198229
0.158924
7.70599
0.196235
2.35973
0.334317
0.990572
0.283414
0.275204
5.51124
0.522184
0.405087
0.206826
2.59298
0.144669
5.93304
0.203163
0.268389
0.0580608
0.0612394
5.34721
0.0659871
0.0774184
7.5354
5.55174
0.539784
0.0787671
0.119842
0.374357
2.75386
2.18675
0.573694
0.606137
3.20315
0.107486
0.623696
0.23421
0.134968
0.186932
0.320744
1.39498
17.9936
5.25516
0.568306
0.17098
0.165978
0.504686
0.203231
0.22266
0.283055
6.00183
0.411353
0.196197
0.603087
0.729567
0.381588
24.4088
4.30944
0.25734
0.200694
0.25987
0.1994
0.11005
0.301679
3.65192
17.1246
2.83777
0.188124
0.486522
0.18731
0.120696
0.285458
0.406939
2.7708
0.235129
0.266867
0.278252
0.124258
0.246089
2.1954
8.09911
15.4633
1.1132
0.267334
0.39976
1.95376
0.289649
0.301867
0.795935
0.547894
1.38305
3.08682
0.303376
0.271773
0.65333
18.6341
0.33476
0.346304
2.71582
0.127695
4.84289
0.121457
1.17752
1.8503
6.16577
19.6367
0.255356
1.11018
0.60789
0.610955
0.601788
1.17594
0.526907
0.387925
1.25074
0.179287
0.410287
0.252401
3.4476
0.371763
0.274464
0.626452
0.1848
0.149972
0.239821
1.16052
0.348855
0.147128
4.5242
0.16301
0.964807
0.147282
0.141775
3.10702
0.789288
2.90319
0.17783
0.269451
2.85609
0.454943
1.40078
1.19725
0.772306
0.885699
0.136903
6.93577
0.177863
1.08879
1.40231
0.302593
0.158121
0.122308
0.31752
0.448204
0.286865
0.374462
0.537303
2.38899
0.348959
0.693971
0.517328
0.299791
1.46385
17.2515
2.16012
0.282561
0.836931
2.28534
0.524652
0.137253
0.7163
1.45339
0.868634
1.96579
1.61015
0.234889
0.496514
0.129901
0.400925
0.324301
13.004
2.42133
2.50519
2.33514
0.147328
0.360694
0.344497
0.162386
2.60679
0.479531
0.587656
0.479149
0.280821
0.142318
0.676891
0.248245
2.33598
5.17061
0.640162
0.173903
0.126001
0.194633
0.287983
1.78704
0.261605
1.01856
0.245907
3.65349
0.352409
3.25601
0.13936
0.373116
1.02365
0.202611
3.77735
0.261308
1.25249
0.112817
3.89368
0.0742989
8.73559
0.462543
2.27995
0.282346
0.230038
0.270618
0.36893
0.313349
2.7338
2.86733
2.78456
3.03575
0.195243
3.09188
2.91544
0.162831
0.130419
0.102289
0.49078
0.0924647
0.110473
0.166147
0.241341
0.184138
0.535479
2.74698
2.10177
0.97962
0.254173
0.125713
1.77036
3.29228
0.118139
1.14893
0.275596
0.905377
0.280181
0.421497
1.60877
1.51575
0.622518
0.305796
0.186897
2.5865
0.138391
2.92687
6.45638
15.8315
4.94264
0.415801
0.915691
0.218118
0.208267
0.213301
1.97429
1.45964
0.253489
1.24127
2.35819
2.59515
1.84849
0.196031
8.16637
3.74047
11.0139
1.60675
2.03521
0.278813
0.32309
0.145464
0.170382
0.119463
13.8277
0.237645
0.316058
0.32697
0.202195
0.240677
0.223615
0.147099
0.16795
0.30527
0.215513
0.148225
3.32575
0.303238
0.144401
22.199
1.54935
0.389189
0.12435
0.289564
0.101515
2.83799
13.7227
0.444176
0.588005
4.77144
0.308244
0.225854
2.42547
16.3363
0.300175
0.258398
4.07573
20.7217
0.249164
0.413216
0.162875
0.110122
0.292015
1.64465
0.107551
0.588503
0.292527
0.229265
1.47824
1.9069
4.28284
0.113325
0.764957
1.82516
1.44918
0.553931
1.24188
12.0361
0.278578
0.299482
0.123505
0.242531
0.177845
0.30076
11.4953
0.144645
0.147482
0.142755
0.342819
0.274361
0.218103
13.3328
0.239387
0.134933
0.328574
0.789884
14.4886
0.245756
0.566683
0.291365
2.32394
0.560311
0.146007
11.8261
0.150585
0.663838
0.201049
2.2083
0.294418
0.403042
9.10264
0.289912
0.388139
8.81214
2.3073
0.208505
0.580018
0.353856
0.339425
0.447402
3.99058
1.73406
0.207965
0.109263
0.270217
0.160697
0.418882
2.49445
0.347625
0.473645
0.108994
2.41891
0.127175
0.255643
1.77145
0.236736
0.174385
0.491036
1.20245
1.33573
0.260934
0.590969
0.278858
0.256025
1.31748
0.339536
2.89473
0.500199
0.186869
0.226686
2.10666
0.370984
0.206017
0.899353
0.104981
3.56857
2.35768
0.28412
0.109598
0.220086
3.21431
0.235406
0.59717
0.0958102
1.45217
0.63646
0.637175
0.258642
0.197852
0.270266
0.224793
0.643686
1.75647
0.725958
0.671858
0.196322
0.350035
0.741017
4.67041
7.44661
0.337144
0.909956
0.515366
0.274975
0.126468
0.311455
1.98462
0.117412
0.434916
7.80162
0.326228
0.167914
0.99654
9.20728
1.27573
0.144209
2.51333
0.703539
0.106123
0.119448
0.161625
0.772814
0.103666
1.90685
1.47131
5.1474
1.3528
0.297074
0.292358
0.214617
0.113921
0.16676
14.7498
4.84916
4.42678
0.111062
0.398468
0.193045
2.31065
11.6985
0.476081
0.256439
0.738284
0.276158
9.34575
2.23173
10.7545
0.137428
0.68256
1.67513
0.897112
10.2195
0.291962
0.365725
1.46925
0.303977
0.215746
0.271501
2.2639
1.40624
0.33602
2.01307
0.166207
0.102524
10.4844
4.13461
0.249749
0.250646
0.173928
0.14028
0.348171
0.142085
1.08155
1.40797
0.399156
0.322536
1.37635
0.256009
0.377438
7.19403
7.83169
4.81947
11.8163
0.258558
0.325534
0.98924
0.336211
6.45868
17.8041
0.843266
1.05894
1.75454
0.259141
0.922417
0.215352
1.16128
2.29751
0.281704
0.154512
0.500769
0.0989801
0.395873
0.235597
0.239076
0.25272
3.29273
0.473527
0.284865
5.25412
0.173056
0.246443
12.2207
4.42065
6.01114
0.123808
0.318027
0.23942
1.2178
6.79695
0.761735
22.3998
0.30421
0.145408
0.320292
0.27812
0.518895
0.252366
0.168017
16.1195
4.89763
1.15884
5.52994
4.14179
0.47057
0.0955587
0.723212
0.160808
4.54768
1.16056
0.334026
0.134701
2.17867
0.301968
2.11981
0.546864
0.210771
1.05219
0.147433
1.36305
0.118857
0.143977
0.166161
0.833764
0.698191
0.151234
0.794198
6.38997
0.615002
0.145288
0.339496
0.272062
0.208893
1.29723
0.55419
0.353658
0.611572
1.10498
0.108735
7.28899
0.210501
0.204163
0.338446
0.0942438
0.236976
0.298111
0.194753
0.343208
1.48167
2.19824
0.149667
0.286296
0.234266
0.5999
0.159759
1.14311
0.302809
0.167413
1.67982
0.184423
4.1841
0.29586
0.221988
4.87466
1.33356
0.235447
1.7921
0.116657
0.18524
0.211043
0.168692
0.947019
0.229609
1.37495
1.09144
0.693055
3.00079
0.0911889
0.425993
0.156591
0.323613
0.174536
0.571123
4.55236
0.631314
2.62394
0.303251
0.137817
0.270449
0.172532
0.122331
0.48075
0.530968
0.204631
0.178551
0.126061
0.261098
0.133602
0.337683
1.38236
0.60465
4.58428
0.535492
0.243175
0.267662
0.233136
0.291217
0.188855
0.175993
0.146407
8.3625
0.220735
0.177478
0.28443
0.209213
0.402925
0.334998
0.114998
0.159648
0.160641
0.649435
0.527476
1.37162
0.17711
1.95203
0.31175
13.0421
4.44235
5.35656
0.257702
0.441615
0.180299
0.390003
0.402025
0.488374
0.234
0.268779
0.150652
1.46795
0.37412
0.199597
0.214331
1.50019
0.689018
2.21037
0.253318
2.62464
2.13196
1.31507
0.17002
0.183483
0.2952
0.333127
1.18099
0.358691
0.162152
0.293922
0.73845
0.373791
0.229589
1.1387
6.12378
6.89514
0.200569
0.100171
6.68731
1.33752
37.0362
0.410698
8.75862
7.74935
1.11914
0.505546
0.383964
)
;

boundaryField
{
    frontAndBack
    {
        type            empty;
    }
    wallOuter
    {
        lowReCorrection 0;
        type            epsilonWallFunction;
        value           nonuniform List<scalar> 
102
(
0.0957305
0.0957305
0.355373
0.39986
0.112012
0.279005
0.381676
0.319754
0.0580608
0.0612394
0.0659871
0.0774184
0.0787671
0.119842
0.374357
2.75386
0.573694
0.23421
0.165978
0.196197
0.25734
0.188124
0.486522
0.39976
1.95376
0.610955
0.601788
0.454943
0.136903
0.640162
0.126001
0.230038
0.270618
0.36893
0.313349
2.7338
2.86733
2.78456
3.03575
0.195243
3.09188
2.91544
0.162831
0.130419
0.102289
0.0924647
0.110473
0.535479
2.74698
0.905377
0.421497
0.622518
2.5865
1.24127
2.35819
0.196031
1.60675
2.03521
0.202195
0.240677
0.308244
0.300175
0.249164
0.107551
0.113325
0.123505
0.342819
0.566683
0.291365
0.388139
0.353856
0.339425
0.109263
0.270217
0.418882
0.127175
0.491036
0.590969
0.339536
0.104981
0.28412
0.0958102
0.643686
0.725958
0.337144
0.117412
0.167914
0.772814
0.113921
0.102524
3.29273
0.473527
0.0955587
0.334026
0.210771
0.143977
0.0942438
0.149667
0.5999
0.0911889
0.571123
0.631314
)
;
    }
    inlet
    {
        type            fixedValue;
        value           nonuniform 0();
    }
    outlet
    {
        type            zeroGradient;
    }
    wallInner
    {
        lowReCorrection 0;
        type            epsilonWallFunction;
        value           nonuniform List<scalar> 
138
(
4.00764
2.88323
0.426178
0.513758
0.123754
1.82164
16.1833
0.315014
0.381816
0.550874
0.543987
1.65998
0.134085
0.164014
0.536941
0.476277
1.18906
0.168879
2.54173
1.82543
0.4238
0.0864548
0.546839
0.340971
4.24477
0.507203
0.156968
0.415388
26.2527
0.249966
0.468607
0.521663
0.470476
0.240093
0.660175
1.69769
0.772188
2.88708
1.71797
0.32407
0.317962
1.92289
1.04596
0.281099
0.425425
0.478651
5.29435
0.380972
2.04596
0.299834
0.225397
0.528142
1.36509
0.617907
3.20855
0.335333
0.148425
1.32782
0.744981
0.33603
0.693381
1.51299
2.41886
0.160771
0.293326
2.54028
0.246181
0.336096
0.376856
1.76093
0.311023
0.60302
0.27626
0.741468
0.271678
0.320703
0.472176
0.858609
38.3303
2.71849
13.2463
6.56571
7.36826
10.0208
8.26969
0.424938
4.70931
3.56721
0.312694
30.1311
26.9084
0.392581
1.26702
1.3229
0.163802
0.502313
5.16643
0.292581
2.20787
0.19538
0.499409
1.21442
0.439987
7.5354
0.539784
4.30944
0.235129
1.38305
0.33476
1.17752
3.4476
0.239821
1.16052
0.772306
0.537303
0.587656
0.0742989
0.241341
1.77036
0.316058
22.199
1.54935
0.225854
14.4886
0.289912
1.20245
0.637175
0.197852
0.274975
0.703539
0.215746
0.402925
37.0362
0.410698
7.74935
1.11914
0.505546
0.383964
)
;
    }
    procBoundary2to0
    {
        type            processor;
        value           nonuniform List<scalar> 
42
(
16.0323
16.0323
1.4703
1.44752
0.14772
23.605
1.50229
1.50229
0.156038
0.212549
0.407737
0.407737
0.206052
0.86758
1.66828
24.1372
3.88343
0.219116
0.187117
1.8731
1.7091
0.211004
0.211004
10.8711
1.7091
0.298499
19.365
0.339003
19.365
12.2597
6.45771
0.34717
0.313041
0.265039
0.270784
1.44752
3.88343
1.93434
22.6638
1.03292
1.03292
0.375026
)
;
    }
    procBoundary2to1
    {
        type            processor;
        value           uniform 3.00134;
    }
    procBoundary2to3
    {
        type            processor;
        value           nonuniform List<scalar> 
29
(
0.35001
0.428642
0.273533
0.257071
10.6141
0.982888
0.135198
0.621896
0.234908
0.23311
0.917104
8.28133
0.536311
0.149782
0.147955
0.139705
0.234083
0.234083
0.428642
0.149782
0.146252
0.233078
0.332758
0.231038
0.170409
0.233318
0.234908
5.01152
8.28133
)
;
    }
}


// ************************************************************************* //
