/*--------------------------------*- C++ -*----------------------------------*\
| =========                 |                                                 |
| \\      /  F ield         | OpenFOAM: The Open Source CFD Toolbox           |
|  \\    /   O peration     | Version:  v1912                                 |
|   \\  /    A nd           | Website:  www.openfoam.com                      |
|    \\/     M anipulation  |                                                 |
\*---------------------------------------------------------------------------*/
FoamFile
{
    version     2.0;
    format      ascii;
    class       volScalarField;
    location    "0.41";
    object      k;
}
// * * * * * * * * * * * * * * * * * * * * * * * * * * * * * * * * * * * * * //

dimensions      [0 2 -2 0 0 0 0];


internalField   nonuniform List<scalar> 
5794
(
0.185073
0.100513
0.306245
3.08006
1.98501
0.106502
0.646543
0.462409
1.62441
0.451912
0.888846
0.158457
0.448152
1.56968
0.180481
0.0797929
2.06417
1.82286
0.178049
0.12996
1.23498
0.111891
1.05565
0.408345
0.228956
1.67069
1.91062
1.56838
2.21023
0.0787902
0.327938
0.203017
0.770885
0.6932
0.644033
0.998609
0.196412
0.232415
1.18573
1.28718
1.03518
0.299385
0.273505
0.124021
0.2659
1.09392
0.187343
0.4428
0.350688
0.484727
0.0207522
1.42296
0.298732
0.253978
0.0219055
1.04271
0.179233
0.615469
0.213716
2.61405
0.927979
0.0716928
0.272255
0.321683
1.29377
0.0867928
1.45543
0.434785
1.9045
0.115301
2.30903
1.72431
2.39901
0.337297
1.90147
1.1588
0.304215
1.2593
0.131201
0.0547298
0.088592
0.180701
0.610575
0.886576
0.219688
0.934673
0.532316
1.09171
0.253915
1.5007
2.52409
0.819018
1.70832
2.6726
1.14386
2.46563
1.94134
1.4957
0.753304
1.01163
0.944219
0.122081
0.243312
1.46145
1.33133
2.87267
0.0644907
0.71368
1.58764
0.140831
0.317028
0.389932
1.04601
0.125296
0.988152
2.05723
0.192559
2.49819
0.852201
0.490816
2.90912
0.166981
0.244212
1.36958
0.284458
1.3647
1.35638
0.0978012
1.64538
0.704681
0.228742
0.542857
0.527584
1.08709
3.29169
0.198659
1.94428
0.0749213
0.077638
0.739494
0.362126
1.58257
0.391235
1.67342
0.132135
2.34281
1.46124
0.86001
2.2721
1.38616
0.310364
0.276878
3.01436
0.108439
2.26659
0.190503
1.00348
0.309719
1.37335
0.135072
0.203957
0.518143
0.534166
0.629362
1.16201
1.27528
0.585937
0.447049
0.367778
0.237231
0.110841
0.818617
0.452758
0.412765
0.439838
0.87302
0.11404
0.192341
0.44134
1.36422
0.182016
0.221771
0.216315
0.91501
0.223835
1.15655
0.130641
0.459192
0.360334
0.0920934
0.896557
0.198817
0.739334
0.268436
0.480693
0.160064
0.29621
0.563763
0.331213
0.271163
0.715384
1.26153
0.36062
0.412434
0.185366
1.11182
0.295614
1.20664
2.46822
1.07345
0.170386
0.310497
1.25932
0.635953
0.509723
0.38836
0.908328
0.531997
1.08363
2.22743
0.3039
1.17868
3.91856
1.67934
1.90005
1.20711
0.147094
0.659463
0.200349
0.213416
0.510593
0.679129
0.53613
1.1816
0.634244
1.64807
2.14876
0.802987
0.407981
0.156297
0.145293
2.29772
1.08103
0.639611
0.159155
0.264172
0.462737
2.31566
1.39245
1.06035
0.542428
0.088531
2.29829
0.0570412
0.209709
2.26239
0.2577
0.411534
0.882877
0.284469
1.39891
1.23262
0.624306
0.0983562
0.309765
0.561163
1.74398
1.65751
0.238035
1.35772
0.217969
0.337954
0.496658
2.06004
0.395455
0.200835
0.302674
0.308414
0.231489
0.471023
0.621948
1.74785
0.996567
0.277847
1.38497
2.43032
1.07228
1.44313
2.97288
3.11433
0.639779
0.749131
0.534795
0.329495
0.20175
1.55
1.03927
0.308763
1.25513
0.081912
0.150868
0.798556
0.0706398
1.45042
0.11086
1.56166
0.205409
1.62515
1.33684
0.198161
0.243198
1.16995
1.21747
0.12229
0.293072
0.593622
0.902156
1.71541
1.54478
2.51714
0.725658
0.611363
2.37309
2.28583
0.0555801
0.846628
0.346081
0.147269
0.466537
0.824574
1.25714
0.275953
0.186613
0.622564
0.168692
0.405279
0.447907
0.452386
0.315668
0.338795
0.326366
0.181991
1.49507
0.948551
0.139009
0.197483
1.20577
0.270093
1.48287
0.391664
1.45564
1.29223
0.780424
0.204435
0.23773
0.714414
0.589008
1.29971
0.668055
0.371066
1.07306
0.28784
1.71161
0.755938
0.697399
1.01899
1.15104
0.977401
0.171154
0.519633
0.267753
0.08574
1.31938
0.0983718
1.32638
1.30723
0.870163
0.203904
0.835973
0.0888694
0.388051
0.298404
0.323816
0.862488
0.638528
0.774276
2.96569
1.31899
0.714731
0.603751
0.416287
1.31707
0.0976047
0.744592
0.335422
0.389921
0.387145
0.192304
0.203902
0.949045
0.524911
0.252091
1.41635
0.21523
0.319214
1.03799
0.407636
0.138221
0.0855016
1.95676
1.49712
0.709719
1.2455
0.61422
1.19881
0.187405
0.24003
1.97671
1.09089
1.81183
0.731023
1.4165
0.981761
0.233611
0.621053
0.506564
0.555165
0.126338
0.104785
0.120581
1.44877
0.224905
1.77987
1.57107
0.522765
0.167855
0.215646
0.7411
0.701177
0.554436
0.598838
0.270118
0.30745
0.202963
0.379151
2.27537
1.057
0.0351644
0.316139
1.52273
0.516759
0.120323
1.81386
0.116887
2.09378
0.0996393
1.98993
2.6259
1.40203
3.69537
0.145922
0.104919
0.421382
0.471053
1.1061
0.701676
1.31014
1.56073
1.00438
0.155557
0.0289566
2.33497
1.56315
0.581612
0.534402
1.81682
1.82756
1.65024
0.198983
0.109504
0.532622
0.13659
0.22698
0.309271
0.993261
1.11967
0.309353
0.414251
1.09697
0.100442
0.126044
2.68119
2.34818
2.43137
0.369196
0.53663
0.131512
0.296848
0.0530453
0.927804
2.30865
2.02664
0.2656
0.602291
1.88061
0.0910942
0.126514
0.593717
1.43659
0.0919457
2.41251
0.179541
0.394315
0.0991651
0.106155
0.890856
1.87992
0.0886539
0.222279
1.43378
0.127227
0.0749279
1.90423
2.7575
0.751541
0.13864
0.178318
1.0264
0.110683
0.132338
0.538754
0.0673782
1.29336
0.318003
0.917114
0.334548
0.240903
2.21738
0.674046
1.15141
0.10744
1.89825
0.123792
1.55546
0.313256
0.051959
0.213722
1.62386
0.120263
0.102308
1.44089
0.168283
0.11498
0.146465
0.136186
0.414683
0.483704
0.131227
0.108224
1.61901
3.55968
0.0789249
1.37691
0.257638
1.51288
0.2981
0.0890012
0.74241
0.0566157
0.085569
1.21655
0.937904
1.44743
1.35284
1.2467
0.28967
1.83841
1.47743
0.298827
1.1419
2.26777
0.899594
3.09102
1.3727
1.8086
0.887483
0.122995
1.88506
0.762206
2.26116
0.0916612
0.13201
0.0842809
2.48803
0.97322
1.1463
0.0354729
0.29392
0.059775
0.474372
0.192336
1.35112
1.02441
2.64062
0.100098
0.499036
1.8011
0.418981
0.0249692
0.297496
1.44461
1.90543
1.20786
0.430183
0.175148
0.206247
0.843073
0.592797
0.262479
1.53313
0.0539133
1.18084
1.61815
0.984579
0.0617681
0.140887
0.086385
1.62778
2.34805
0.107707
0.171002
0.120869
0.0385729
0.102195
0.071768
0.250191
1.29147
0.489235
0.317726
1.71567
0.223346
0.275289
1.13288
0.813651
1.92343
2.85685
1.17768
0.732229
0.134444
0.0842034
0.0609943
0.170553
0.294781
0.156934
0.17205
1.55344
1.65176
1.49673
0.668668
0.221806
0.0986203
0.20195
0.123894
0.702422
0.114359
1.39116
3.08805
2.5138
1.09855
1.23462
0.824303
0.136148
1.513
0.555365
0.759261
1.11957
2.82694
0.37008
1.14206
0.168595
0.087096
1.28292
0.222876
0.0531256
1.62121
2.00312
2.60648
0.301212
0.251582
0.0799359
0.814836
4.08666
1.18368
1.35931
0.358746
0.934326
1.19896
0.098005
0.0690687
0.290684
0.297301
0.327012
0.0654434
0.427343
1.59558
2.32351
0.466199
0.2686
0.234711
3.04889
0.484218
4.07747
1.48613
1.87448
1.40217
0.374835
0.267689
2.10957
1.2016
1.57682
2.00031
1.55559
2.25112
0.269194
2.33326
0.127496
0.353779
0.509118
3.00192
0.638574
1.28185
0.902147
3.13614
0.771251
0.348688
0.390343
1.35799
0.741872
0.798902
1.64259
2.26246
0.0619926
0.0445282
0.262799
0.0708026
2.28453
1.03045
2.61589
0.344728
0.283835
0.0698341
0.155687
0.210059
0.100922
0.984512
2.44358
0.205907
2.85509
1.19043
0.256583
0.368442
2.22138
2.23161
1.32745
3.16378
2.61765
1.12782
1.46176
0.14259
1.73447
0.739703
2.14914
1.63177
0.233601
1.30137
0.118521
0.137378
0.17931
1.38017
0.107589
1.35816
1.83983
0.363966
0.154714
0.0986515
2.33521
0.970319
1.3581
2.41877
0.939119
0.0394608
2.31872
2.13363
0.620301
0.268443
1.06324
0.116276
2.58385
0.109418
1.31028
0.301277
0.986985
0.340428
0.0552838
0.0723377
0.270394
1.32645
1.73783
1.60511
4.39868
1.43893
0.319373
0.18513
0.622389
4.13286
0.498496
0.273888
0.688039
2.63451
0.095826
0.136655
0.415223
0.829846
1.53245
0.114993
0.387222
0.260782
0.475398
0.339447
0.787682
2.01815
2.14973
0.283548
0.304207
2.44808
0.423415
0.24094
2.49149
0.0993193
0.127036
0.251301
0.0754233
1.00829
0.159548
0.495016
0.115586
0.368617
0.217886
0.31692
2.04788
1.0748
2.7777
0.998082
1.13527
1.60169
1.06811
1.40232
1.41324
0.095997
0.0971556
0.205042
1.6298
0.16493
0.650447
4.14054
1.62538
1.42709
0.839861
0.215258
1.80846
0.106968
0.349397
1.2575
0.111429
2.30446
0.269957
0.306847
1.03981
0.381845
0.229335
0.102646
1.64614
0.698593
0.25492
0.085351
0.314734
0.868006
1.72861
0.147529
0.300008
0.94676
0.743379
1.25227
3.0486
2.15701
2.44169
2.03577
0.105364
0.122451
1.64432
0.0927189
0.117885
0.0742085
0.112038
0.703963
0.064334
0.254942
0.103621
1.43454
1.49898
0.408652
0.27367
0.508356
0.986739
1.71781
0.852306
1.75925
0.235097
0.0964453
1.65022
0.355442
0.95345
0.259658
1.35285
0.853759
1.15439
0.0543258
1.64834
1.1588
0.0808974
0.0706791
0.137773
0.0657953
0.0675246
0.735134
1.86965
2.39713
1.72613
0.727013
1.37875
1.56322
0.314996
0.088953
0.139673
2.06152
0.0848352
2.47841
1.29402
1.98751
0.247038
2.52808
1.37479
0.115883
0.115187
2.14135
1.22509
0.305315
0.300805
0.472261
1.57218
0.352059
1.7451
0.0938683
0.162481
0.147927
0.0775536
0.0725882
0.201162
0.0576138
0.08929
0.0764669
0.125237
0.265006
1.87955
0.216646
0.252841
0.0998291
1.13941
0.29978
0.73358
0.363894
0.867607
0.081286
0.63605
0.199273
0.665618
0.14957
0.517584
1.50293
0.128591
0.304565
0.204955
0.0720981
0.292017
1.44833
0.432558
2.00653
1.95561
0.0906663
0.318783
0.527574
1.93814
0.520242
0.782142
1.25003
2.54646
0.139987
0.168805
0.102337
0.0409695
0.414478
0.37219
1.47592
1.69927
1.52948
0.0282192
0.817164
1.51011
0.937037
0.852676
0.895731
0.0649258
0.138824
0.112305
0.680686
0.303363
1.76242
0.200367
0.126146
0.196773
0.205385
0.287781
0.686472
0.138756
0.189201
2.03148
1.5448
0.742621
0.0774967
0.274927
1.1403
0.0840811
0.409271
0.192986
0.331699
0.934187
0.0826446
1.50717
0.068219
0.312551
1.16893
0.116132
1.64554
0.282376
0.0752161
0.288067
0.920627
0.0815488
1.82644
0.29921
0.124498
0.0778252
0.294878
0.0375359
0.0898009
0.309531
0.121761
0.0425769
0.621189
0.563296
0.586252
1.64904
0.53579
0.26644
2.58126
1.01665
0.0563095
0.0882373
1.05536
0.302845
0.849271
2.87848
0.0670184
0.505675
0.0671587
2.25586
0.264721
1.60914
0.276463
1.32102
1.25266
0.0480304
0.654004
0.207362
0.0273109
0.353153
0.834567
0.610943
0.634749
0.0617032
0.667858
0.0358207
0.0527666
0.318648
0.0889334
0.142129
0.836515
0.161882
1.16376
0.163529
0.89895
0.21561
0.101706
0.0716401
0.199031
1.75132
0.403271
0.178777
0.563472
0.248009
0.423859
1.66338
1.26531
0.0754364
0.213756
0.864363
0.481951
2.19842
0.237406
2.40913
2.08884
1.41156
0.475448
2.89538
0.265195
0.264334
0.468032
0.167665
0.22145
0.0868392
5.56061
0.684818
0.0953241
0.208284
1.67212
1.63067
0.268719
0.0748755
0.169872
0.236772
0.603535
0.110857
1.48985
0.381242
1.13201
0.298448
1.60532
0.201715
0.0533831
0.341175
0.294438
0.16399
0.590911
0.115096
0.885167
0.129648
1.55602
0.236783
0.373077
0.190614
0.476836
0.292982
0.39276
0.330894
0.193574
0.216075
0.542687
1.8943
0.288679
0.212687
0.118421
0.120675
0.570649
1.38619
0.612035
0.430887
0.588515
0.250745
0.316052
0.246495
0.237145
0.452612
0.153839
0.323768
0.532987
0.0691892
1.96876
0.0755065
2.48226
0.100688
0.122914
0.4175
0.0729676
0.0716349
1.28456
0.3303
0.226075
0.0666591
0.130111
0.666474
1.97863
1.17389
0.272723
0.106044
0.186989
0.361012
1.6439
1.19102
0.292766
0.282039
0.0423982
1.89163
0.263468
0.349716
1.58515
0.217371
0.268794
0.64304
0.974887
0.0570465
1.48525
2.65558
0.621473
0.529567
0.958703
0.650556
0.0732923
2.12625
2.30892
1.41595
1.02849
0.200822
0.0638034
1.02932
0.30505
0.606484
0.0456234
0.33819
1.35688
0.0857098
0.0672194
0.113184
0.0818314
0.0927723
0.315946
0.289552
1.46001
0.0808956
0.274639
1.08972
3.6955
1.15661
0.320976
0.811814
0.197673
2.37773
0.0995625
1.7855
2.68136
0.878409
1.7741
0.31309
1.8019
1.2934
1.65332
0.285455
0.42009
0.188993
1.20075
0.085722
0.234858
0.863993
0.358914
0.295438
0.887868
0.31728
0.383347
1.83609
0.0781472
0.0566976
0.257941
0.398169
0.0653303
0.241395
1.19662
0.29415
1.47686
1.22572
1.17139
0.0844966
3.49595
0.100627
0.927816
0.637178
0.452683
0.210089
0.116022
1.91721
0.0750859
0.349812
0.0698661
1.29029
0.0803233
0.208957
1.67915
1.21737
0.405766
0.63657
1.39025
0.708676
0.278621
0.0499505
0.675874
0.297103
0.785297
2.54023
0.289236
0.0504043
0.331882
1.36567
0.645584
1.70511
1.22629
1.38887
1.04224
1.99534
0.05412
0.2136
1.08119
0.211056
2.90288
0.161188
0.0518554
0.192516
0.496144
0.061252
0.280744
0.419956
0.178204
0.261274
0.0938616
0.464835
0.105515
0.263896
0.429469
0.937124
0.948522
0.0832476
1.05277
1.40829
1.87777
0.434384
0.260821
1.01916
0.112056
0.0574234
0.0451065
0.108484
4.31935
0.32344
1.26229
0.688788
1.88013
1.52484
0.527453
0.333688
0.0274415
0.0539044
0.113935
0.0302035
0.293959
0.324714
0.0606966
0.40978
0.0189495
0.0609643
0.236538
0.169476
0.0722472
0.0555657
0.0241501
0.269819
0.354083
0.0851971
0.116337
0.185887
0.0555178
0.0574078
0.0157669
0.046508
0.259744
0.185991
0.113397
0.0410363
0.0828332
0.225078
0.244117
0.0552235
0.0317801
0.0412875
0.0258228
0.0343858
0.314958
0.0581812
0.0161711
0.111472
0.045877
0.223749
0.285526
0.162096
0.583356
1.8156
0.0579705
0.198018
1.06102
2.38033
1.47149
0.2511
0.0803956
0.379599
0.284236
0.755281
2.32231
3.08614
1.40024
2.53167
1.00991
0.0811849
0.0709425
0.0511129
0.192451
0.0598218
0.664646
0.101865
0.289861
0.394199
0.0929024
0.992923
1.33617
0.289079
0.53185
0.915931
3.62387
0.257792
1.04602
0.539047
0.33045
1.74074
0.520114
1.10886
1.46177
0.840101
1.66761
0.550032
0.804521
0.238797
0.328245
0.362165
5.62213
0.263122
0.165415
0.0912114
1.6735
1.4477
0.102977
1.54704
1.84399
0.0613125
0.0336178
0.30361
0.299781
0.048321
0.381978
0.0196257
0.0521817
0.104259
0.0203554
0.260695
0.238769
0.035529
0.309549
0.118954
0.127061
0.216888
0.0566137
0.075304
0.063688
0.0297878
0.349819
0.0484326
1.23627
1.42692
0.220497
0.448424
0.459643
0.362259
1.24864
0.101925
1.34846
1.44982
1.67342
1.06618
1.56597
0.350661
0.0468696
1.6122
0.883768
0.404715
1.99575
2.26415
1.91721
0.0619728
1.89661
0.747971
0.203195
1.92172
0.34992
1.64387
0.131772
0.288793
0.0553648
1.9378
0.178634
1.51856
1.19113
0.0979049
3.14823
0.0962766
3.23675
0.21347
0.0507882
0.0469565
2.24771
0.0485501
0.0684803
0.168185
0.187149
3.04168
0.315665
2.06346
0.372038
0.364903
0.870947
1.78877
0.0652476
0.280433
0.288093
2.36633
1.06516
0.267218
0.076916
1.10573
0.428446
1.85854
0.308141
0.219652
0.0336115
0.317093
0.476168
0.0831544
1.6335
0.851793
0.0117673
0.0971074
3.19443
2.69114
0.324801
1.78322
1.97712
0.0323798
1.84566
1.29154
1.34628
1.83494
1.17251
0.197227
2.14603
0.072269
0.339097
0.454888
1.80125
0.247652
0.284204
0.475727
1.21178
1.00735
0.186834
0.0649884
0.269488
0.808607
1.46062
1.82304
4.55044
1.66638
0.619333
1.47456
0.28953
0.747053
0.717055
0.960359
1.58782
1.2311
1.17034
1.81372
0.992335
3.24671
1.22061
0.476118
1.24039
0.941747
0.452719
0.637659
0.176853
2.98047
0.708014
0.457264
1.4952
0.283276
1.23752
0.75138
0.838514
1.99366
0.383533
0.939785
0.530786
0.076209
0.114119
0.428624
1.50494
0.208981
0.0612775
0.304868
1.75655
1.90298
2.71199
1.99658
2.06446
2.84431
2.03934
0.183509
2.10394
1.98139
2.84992
1.82901
1.84519
1.94656
2.04501
1.84856
1.99146
0.718256
0.704087
0.19507
1.4567
0.605102
0.187362
0.176345
0.393371
0.0583974
0.132481
0.685617
1.08863
0.42056
0.171599
0.236095
2.21072
1.03305
1.54116
0.669279
0.221833
0.229554
0.165008
0.508657
0.68069
0.372002
1.24527
0.442715
0.407616
0.0879308
0.337382
0.0622465
1.29789
0.114536
0.388892
0.0965965
0.0344787
0.525167
0.193885
0.188463
0.184597
0.173284
0.194363
1.38836
0.181189
0.358107
0.245214
0.297369
1.19836
3.57663
0.180199
1.51829
0.996227
0.247487
3.61512
0.756071
0.196314
3.41416
1.15391
1.72488
0.166865
0.351253
2.02434
3.59254
1.61752
0.182313
0.188049
0.199665
0.296026
0.279337
2.19253
0.200484
0.464366
0.572862
0.144672
0.264401
0.695661
0.261584
1.30146
1.43243
1.16057
2.06115
2.93675
0.208246
3.10116
0.131944
0.512237
1.26766
0.651985
1.98106
0.29249
1.96686
1.51202
0.565292
0.707041
2.23577
1.88654
0.241614
1.20155
1.72151
0.302815
1.40043
0.572756
0.359552
0.292295
1.99253
0.374531
1.75473
1.42803
1.4335
0.362235
0.878834
0.169805
1.34548
0.714809
0.58332
0.70893
1.94418
0.203832
0.357086
0.0639574
1.34036
0.270887
0.354033
0.597713
0.257497
0.581733
0.223887
0.469106
0.236475
0.336877
0.193812
0.51205
0.464817
0.537747
0.981083
0.659185
0.483521
0.888401
0.667379
0.617595
0.139478
0.245577
0.167267
0.289943
0.147613
0.880561
0.0480078
0.291588
0.38228
1.93412
0.337748
0.238326
0.240979
0.900185
0.0691381
0.177591
0.306225
0.425627
0.241205
0.2423
0.508318
0.672691
0.361998
1.45907
0.0764041
0.345786
0.405733
0.0699214
0.755768
0.557694
0.287001
0.131623
0.46128
0.0895042
0.251602
0.346903
0.879192
0.601692
0.0488981
0.488279
0.0714929
0.403551
0.197762
0.150241
0.488237
0.455459
0.4929
1.0451
0.0837815
0.34388
0.0741231
0.475109
0.336336
0.506572
0.0647706
0.37595
0.199713
0.0780135
0.346714
0.306585
1.96527
0.276286
0.27087
0.466831
0.084958
0.0776562
1.35163
1.36296
1.16584
0.811011
0.070144
0.314088
0.60905
0.50188
1.00849
0.0347856
0.668889
0.0475054
1.49493
0.574935
0.337608
0.566958
0.894199
0.797386
0.387945
0.18528
0.0619291
1.44306
1.00546
0.830891
0.608459
0.588659
0.369426
0.159345
0.0692477
1.88719
0.301211
0.327999
1.49724
1.61834
0.840827
0.828934
0.195893
1.48444
0.315204
0.45559
0.851033
0.935981
0.286974
0.85605
0.906064
0.660105
0.607375
0.944076
0.714598
0.426684
0.146279
0.0722719
1.04612
0.237197
0.373265
1.45429
1.48583
0.0569762
1.45066
1.47853
0.395114
0.219623
0.589137
0.209632
0.599436
0.800156
1.10364
0.918112
0.313414
0.60019
0.518868
1.65058
0.409984
1.75712
0.26579
0.751443
1.01526
0.771571
0.434452
0.619508
0.470272
1.0465
0.583592
0.4247
1.1242
0.376415
0.945271
0.442172
0.59399
0.89756
0.650608
0.397354
0.0941422
0.082941
0.595587
1.92522
0.239779
1.50255
1.40056
1.4066
2.14126
1.02704
0.643787
0.298124
0.449247
0.0510598
1.48487
0.400012
0.777303
2.49551
0.206427
0.302019
4.29014
0.15206
0.291845
0.857033
0.736839
0.922309
0.829941
0.814255
2.46429
1.09993
1.07881
1.09687
0.390409
0.409445
0.467376
0.376678
0.251378
0.29222
0.110003
0.142893
0.870446
0.39451
0.0836828
0.0790762
2.36065
2.36347
0.539652
0.108826
4.02157
3.44081
0.655282
0.165961
1.63656
0.956608
0.599704
0.291479
0.04495
1.38796
0.388181
0.222082
0.591399
3.64292
2.1316
1.20529
0.575588
3.78817
1.98607
0.978491
0.207093
0.751066
0.735663
0.32527
0.0725553
0.095136
0.0994416
0.237596
1.00719
1.52628
0.48727
0.300803
0.909072
1.23106
1.63201
2.32054
1.70877
1.52902
0.219493
1.25002
0.0714463
0.0750196
1.5289
2.66467
2.7756
3.4756
1.44553
1.28182
0.428717
0.304008
0.287653
0.465688
0.157659
0.373093
0.0693752
0.0827026
0.109281
0.0939326
0.12283
1.38499
2.68426
0.484983
2.03525
0.4144
0.772876
0.27173
0.437997
0.749257
0.151966
0.656863
0.168476
0.374991
0.225786
2.80633
0.622476
0.316336
0.0531764
1.46611
0.32473
0.201603
0.430023
1.62598
1.88003
0.887786
0.616647
1.56578
1.35946
0.442989
0.344764
0.0408129
0.0452022
0.553256
0.344574
1.67511
0.579498
0.181786
0.0691795
1.29663
0.370153
0.55411
3.04237
0.263637
0.960128
0.0750197
0.0807863
0.286115
1.78648
1.71165
0.976147
0.0735713
0.312795
2.27013
2.42214
0.243404
0.431974
0.413455
0.440884
0.552004
0.533536
0.116077
0.304744
0.233092
0.0542783
0.340466
0.383096
0.497303
0.296222
0.484847
0.542183
0.232306
0.459519
0.501036
0.363424
0.457995
0.991733
0.206567
0.444514
0.883944
1.87155
0.100825
2.60424
0.50831
0.470231
1.10845
0.284185
4.29428
0.768508
1.71281
0.0887881
2.53086
0.379975
0.850702
0.24916
0.0331054
2.69706
0.329675
0.938369
0.47752
0.593303
0.439309
0.217745
1.85013
1.39808
1.62383
1.43166
0.46553
0.640944
0.39712
0.0708735
0.0817006
1.56456
0.762513
0.59912
0.402584
0.0882977
3.76299
0.552019
1.86045
3.57391
1.88031
2.21733
1.34468
0.0815747
0.604009
0.508145
0.492084
1.12611
1.59872
0.276817
0.440863
0.947037
0.388476
1.59408
0.431818
0.721406
2.17929
1.67952
0.396774
0.633765
0.470001
2.28813
0.559703
0.618589
1.42284
2.91231
0.644309
0.300172
0.267868
1.86272
0.679712
0.555345
0.900549
0.850919
0.599987
0.192615
0.665214
0.770551
3.71285
0.855634
0.312237
0.199396
0.0645165
1.61527
0.820689
0.851628
2.97136
1.95161
3.0734
0.198198
0.91231
0.535963
1.62588
0.248361
1.77795
1.04282
0.234758
0.0696684
0.803822
0.0659549
0.312171
1.94909
2.23199
1.73558
2.49253
1.36098
1.1113
0.276035
0.508166
3.57774
1.44757
1.79706
4.45015
0.202243
0.543079
1.6685
3.62207
1.68181
1.28882
1.31691
0.276566
0.296479
1.0105
0.279709
0.321733
0.878555
0.0853287
0.90341
0.12937
2.25835
0.104148
1.31304
0.296557
0.92254
0.41537
1.78269
1.03452
1.59869
0.0932082
4.24005
0.11051
0.118185
0.307945
0.0400219
0.150885
1.65103
1.88547
3.4782
0.642642
2.99909
4.19646
0.451847
1.14204
0.109494
0.301187
0.162898
0.0373123
1.19692
1.47335
0.141468
0.134467
1.78113
1.36058
0.448339
0.935147
0.361477
0.996237
0.223782
3.00818
0.346312
1.16534
0.0771656
0.539217
0.35093
2.98782
0.363212
1.62265
1.81925
0.302307
0.360834
1.99842
0.303348
0.145792
3.43957
0.233289
0.225869
1.64443
0.312927
2.2938
0.342601
1.5041
2.56294
0.0830996
0.432894
0.399157
1.71724
2.86521
0.276575
0.946619
1.18558
1.88355
0.359678
0.293105
0.273452
0.304755
0.0549481
0.082192
1.08457
1.66235
0.324359
0.215963
2.9858
0.296005
1.31988
2.06022
0.661887
0.205101
1.16914
3.08228
0.207958
0.033105
0.0581468
1.13548
0.753713
1.14107
0.332572
0.275633
2.58864
2.31404
0.47793
1.26952
3.19111
2.18588
0.901208
1.96496
0.0713873
1.51261
1.10949
0.369626
0.0590668
0.0841533
0.581797
0.221581
0.395159
1.35086
0.230745
1.11721
0.359445
0.397341
0.854572
2.53369
0.140586
1.2538
0.258534
1.60465
2.16174
1.54364
0.338165
0.406196
0.0675724
0.0812937
1.19606
0.423154
0.946715
1.42884
0.423232
0.889353
4.78711
1.55892
1.91136
0.046163
2.79517
0.0431328
0.213248
1.03762
1.36304
0.859724
0.199483
0.228579
0.364558
1.62223
0.0535721
0.228855
1.38114
3.42069
0.410712
0.539156
0.253464
1.93838
1.52139
0.799704
0.289061
0.947351
1.25366
2.34808
1.27711
1.71054
0.205802
1.43502
0.646208
1.53399
0.266637
0.825085
0.237634
0.464544
0.0669183
0.409737
0.708482
0.331266
0.950046
0.0309768
0.365992
2.26265
0.902458
0.0792548
0.289589
1.03955
1.38707
1.45445
0.764887
0.0675821
0.30781
0.0693897
0.0734246
0.30038
0.649386
1.12887
0.090649
0.657482
1.10893
0.179254
0.222647
1.01291
0.304407
2.98249
0.320764
0.0572038
0.0738479
0.0915448
0.841312
0.179022
0.345907
0.0511152
0.542096
0.136011
0.104043
0.480146
0.713979
0.230309
1.25535
0.537767
0.190331
1.62636
0.252583
0.902833
0.313085
0.0609496
0.108267
0.116659
0.224021
1.66641
0.276335
1.5013
1.86583
0.828693
2.07576
0.218371
0.238834
0.289483
1.28506
0.596955
0.492107
0.35965
0.0587517
0.0794462
0.197799
0.113156
2.41109
2.29908
0.743009
0.242506
0.0858364
0.244409
0.0310141
0.542182
0.236666
2.84946
0.584375
1.39166
3.2656
0.0487735
0.280191
0.322527
3.00482
0.163251
2.98787
0.249448
0.993545
0.117166
0.247634
0.141999
0.390584
0.85083
0.639213
0.681425
0.629725
0.255567
0.346984
0.0766825
0.218608
0.331554
2.26482
1.54333
0.829354
1.60366
0.453859
1.71328
0.276892
1.21882
0.280102
0.822442
0.216634
1.0651
1.98841
3.04878
0.380852
0.113621
0.296153
0.0511882
0.121605
0.515205
0.214443
0.286683
0.454574
2.79117
0.271086
0.171411
1.06664
0.259696
0.616858
1.53805
1.64097
1.07429
0.272991
0.494629
0.653094
0.257067
0.332229
0.14285
0.733266
1.71479
0.0606283
0.431862
0.810837
0.173377
0.37275
0.104792
0.07023
0.0692635
0.0190574
0.231596
0.041528
0.227148
0.215329
0.282943
0.143802
0.0338641
0.0571712
1.7256
1.89271
0.359183
0.922833
0.250954
0.760133
0.474157
2.4562
1.57666
1.08893
1.87324
1.92563
1.95663
2.20485
3.87799
1.15275
0.0639222
0.0669474
0.0587353
0.0712982
0.0684335
0.264485
1.60137
1.64221
0.0313928
0.053712
0.265389
0.554389
0.311088
1.98966
0.142136
0.0414731
1.4626
0.307243
0.896778
0.843259
0.327511
0.306284
1.40934
0.493594
3.74592
0.0526131
0.425164
1.57686
1.55169
1.44625
1.68798
0.0250037
0.0975043
0.347265
0.152056
0.0925461
0.438063
0.0940259
0.630945
0.409487
0.487378
0.182264
0.0557869
0.416981
2.23343
2.87216
0.0774004
0.28794
0.0702406
0.321491
0.862988
0.241462
1.57435
1.08384
0.119257
1.11666
0.43987
1.30612
3.60633
1.03376
1.40671
0.799971
0.229029
0.274581
1.38345
0.756015
0.180776
0.0543503
3.18028
0.278756
2.59399
0.341295
0.172729
0.328712
1.38224
1.07144
0.144455
0.195527
1.16948
0.200608
0.493459
0.252995
0.45999
0.761306
4.18875
0.150979
1.36595
0.320533
0.063944
0.073304
0.0327219
0.34536
0.032395
1.8849
0.270969
1.00896
3.68474
0.824476
0.520239
1.86904
0.272735
0.202311
1.97277
0.303859
0.955869
1.93595
0.241911
4.36076
0.356132
0.0679718
0.0787019
1.95021
0.188084
0.292554
0.0992255
0.126531
0.298112
1.3572
1.73167
0.669122
0.341059
0.430922
3.92758
1.12354
0.586367
0.882925
0.278708
0.362983
2.05586
1.89728
2.05148
0.909701
0.0840725
0.111761
0.236703
1.38517
0.39415
1.5589
0.674039
0.745252
0.590445
0.707423
1.71325
0.173808
0.0649341
0.334495
0.0869829
0.29074
0.871605
0.384931
0.473917
0.256217
0.689356
1.80802
2.50087
0.421201
1.03154
0.964554
0.0799387
0.239812
0.105509
1.93792
0.144559
0.657854
0.32011
0.300804
0.188172
1.26719
2.25847
0.208134
0.375639
0.567866
1.87827
0.172843
0.138492
0.0748108
0.413521
1.0412
0.265799
0.351127
1.64753
1.4055
1.77834
0.300537
0.21816
1.79737
1.79096
1.65779
0.454374
0.473017
0.0126341
1.32305
0.0104253
0.427181
1.03669
0.73936
0.339068
0.666371
0.599238
0.431126
0.849004
0.0178874
0.473391
0.162281
0.0102593
0.0621815
0.546658
2.1199
1.1941
0.37909
0.307457
0.0982125
0.155689
0.0277174
0.0102153
0.0422972
0.0865359
0.468654
1.89244
0.473607
0.69379
0.199619
1.09056
1.77658
0.626978
0.108584
0.0849186
0.189897
4.00373
1.63437
1.25452
0.158883
0.0665765
2.40982
0.64288
0.350683
0.917255
0.959193
0.0423386
3.28853
0.595144
0.440089
0.20128
2.24949
1.44236
0.250027
1.70255
0.0360729
0.184485
0.83172
0.416141
0.138382
0.0498383
0.155036
0.296533
0.127894
1.28965
0.344593
0.243858
1.33444
0.563707
0.260813
0.862954
1.16312
0.31196
3.96672
0.041522
0.528271
0.0688881
0.476451
1.24438
0.10565
0.375673
1.87955
0.196369
0.792078
0.0973748
0.181653
0.590659
2.00747
1.19173
2.88166
0.404681
1.06541
0.134807
0.454641
2.44878
0.209036
3.78877
0.438462
1.17334
0.416459
0.217185
1.39616
0.732803
1.49718
0.360447
0.0633722
0.0652998
0.897182
0.254553
0.190011
0.125592
0.484951
0.514622
0.123178
0.0378997
0.186081
0.959544
3.31546
0.191037
0.0385951
0.350126
1.56442
0.523159
0.41937
0.217105
1.51688
0.321294
0.143416
0.948204
2.93124
0.0343955
0.794483
1.21669
1.93347
0.848702
0.913636
0.545602
0.198932
0.0637197
0.113945
0.271706
0.134321
0.201408
0.304206
3.12474
1.72719
1.1317
3.39323
0.915053
1.45925
0.563851
0.563731
1.21871
0.251734
0.616872
0.192417
1.65599
3.94403
2.54117
1.01914
1.62038
0.25119
0.939196
0.612631
1.59498
0.0364616
0.0799159
2.32402
0.499012
0.602682
2.01045
2.6656
0.218232
0.986057
0.839355
2.98589
1.50165
3.30192
0.135891
1.76071
0.0525336
0.370201
0.0711821
1.59715
1.87175
1.23052
0.12116
0.0347403
2.9646
0.122457
0.0589617
0.838665
2.32228
0.569575
1.39759
4.0556
1.49673
0.0836844
0.0821621
1.28775
1.28082
2.11574
1.50963
2.02096
0.785355
0.736935
3.70418
2.15676
0.065203
0.0690575
0.320756
0.0768634
0.0737106
0.474368
2.59721
0.641701
0.186869
1.38544
0.738524
0.235375
2.73975
2.0037
2.78343
0.273494
0.531665
0.259243
0.95061
0.423783
1.76012
3.45973
1.9204
1.25783
2.32182
1.48364
1.04636
0.264233
0.064159
2.644
2.61234
0.188288
0.622607
0.0492605
0.0897675
0.623595
1.27694
1.90586
1.82344
0.251964
2.68992
0.0527149
0.351083
0.0789079
0.257627
0.0444572
1.1552
1.7242
1.44645
0.316713
3.5091
0.0442738
0.171902
3.03476
1.28321
1.77804
0.309681
0.317484
3.51117
1.8228
0.227641
0.222714
0.521792
1.18429
0.192016
1.11463
0.878091
0.503545
0.612381
1.59075
2.12939
0.390642
1.46355
0.0214279
0.221704
1.14904
0.220698
0.362668
2.93831
0.309727
2.12499
1.77545
0.0849576
0.0566875
0.0634341
0.387401
2.11016
1.91976
1.93119
0.221438
0.588222
0.229123
0.842943
0.700325
0.494376
0.21715
0.25939
0.270104
0.329038
0.0314541
0.0240612
0.0992633
2.2502
1.71284
0.290175
1.21108
2.96908
2.80455
2.06349
1.4043
0.182597
1.02132
0.378739
0.188636
1.48352
3.17808
0.269881
0.193252
0.0751581
1.73915
1.54025
2.25422
0.407268
0.263252
1.16281
0.411824
0.100002
0.135923
0.0280092
0.0806986
0.281119
2.20534
1.08412
0.233943
2.36166
1.05306
1.66691
2.22024
0.484473
2.11922
0.253139
0.725223
1.18613
1.54639
1.58749
0.072647
0.0637787
1.4436
0.154706
0.220757
0.21225
1.40263
0.537232
0.526677
0.0794194
0.517651
0.0836027
0.528135
0.502929
0.508818
0.509338
1.65029
1.88168
1.27464
0.10035
1.22128
0.54995
0.0773068
0.771326
0.075314
0.24326
0.245729
0.38598
1.90327
0.73331
0.343388
1.19283
0.0692127
0.477532
0.0735674
0.123824
4.34576
1.42048
0.352415
0.0681381
0.0580574
0.439562
0.0209678
0.0504572
0.405824
0.0694634
0.0572585
0.394609
0.0724414
1.20309
0.214281
0.147924
0.565053
1.37844
0.794778
0.607719
0.273984
0.778845
1.49734
2.00234
0.936079
0.0637647
1.43492
2.1577
2.18958
1.08736
0.497199
0.0892262
0.0205376
0.0695605
1.19419
2.98722
1.26123
0.194121
0.826513
0.255409
0.421158
0.758299
1.41597
1.94266
0.210669
2.36543
0.0201251
0.264074
2.75337
1.0881
0.291919
0.505968
0.712577
1.51738
1.24969
0.950175
0.617607
0.173076
0.282791
0.252656
0.23134
0.316546
0.121903
1.72445
1.18962
1.73957
0.938833
1.02984
0.186571
0.308424
0.337338
2.17714
1.02378
0.909564
0.29562
3.68544
0.264813
0.334199
1.65554
0.0828603
0.287689
0.602889
2.67052
3.05832
1.1398
1.56093
1.90196
1.50217
0.258764
0.246391
0.0335598
0.2377
0.306469
5.34446
3.90649
0.295428
2.61097
1.0653
0.354936
0.0504997
0.625709
0.100756
0.165008
0.0572075
1.62266
1.67217
0.909167
1.3925
1.24244
0.0366922
0.127443
0.0850451
0.257262
0.85342
1.31442
4.23055
0.463621
0.320705
0.0224244
0.427004
3.41441
1.45957
0.551143
0.444043
0.107644
0.342249
0.225479
0.168762
1.57761
1.40678
0.0802193
0.405259
0.0757293
0.525814
0.913712
0.376294
2.43351
0.318009
2.40418
1.04336
2.32974
3.55506