/*--------------------------------*- C++ -*----------------------------------*\
| =========                 |                                                 |
| \\      /  F ield         | OpenFOAM: The Open Source CFD Toolbox           |
|  \\    /   O peration     | Version:  v1912                                 |
|   \\  /    A nd           | Website:  www.openfoam.com                      |
|    \\/     M anipulation  |                                                 |
\*---------------------------------------------------------------------------*/
FoamFile
{
    version     2.0;
    format      ascii;
    class       volScalarField;
    location    "0.41";
    object      nut;
}
// * * * * * * * * * * * * * * * * * * * * * * * * * * * * * * * * * * * * * //

dimensions      [0 2 -1 0 0 0 0];


internalField   nonuniform List<scalar> 
5794
(
0.00172382
0.000681253
0.00259739
0.00553131
0.00812514
0.000738633
0.00163778
0.00175648
0.00236113
0.00168114
0.00201544
0.0010437
0.00152988
0.00523503
0.00146978
0.000783869
0.00436161
0.00523457
0.000897728
0.000846291
0.00173287
0.000925532
0.0023659
0.00140966
0.00100666
0.00319645
0.0053115
0.00776353
0.00471913
0.000702297
0.00158835
0.00118308
0.00243099
0.00290133
0.00349978
0.00346773
0.000787862
0.000953063
0.00217937
0.00425154
0.00598821
0.00280091
0.000738329
0.000851169
0.00126804
0.00229833
0.000965321
0.00119596
0.00139217
0.00104143
0.000198751
0.00294969
0.00137583
0.00141849
0.000150194
0.00228739
0.000897958
0.00167489
0.000730137
0.00392586
0.00132304
0.000543063
0.00136165
0.00278502
0.00577782
0.000905617
0.00418646
0.000675791
0.00481541
0.000732859
0.0059307
0.00443801
0.00606438
0.00273093
0.00484754
0.00548253
0.000476005
0.00285082
0.00100546
0.000213914
0.000729564
0.00117426
0.00401692
0.00202566
0.000989224
0.000962495
0.000750957
0.0010306
0.00128339
0.00399017
0.00507168
0.0021746
0.00364954
0.00554387
0.00270742
0.00815551
0.00401304
0.00334307
0.00208632
0.00141941
0.0014808
0.000780225
0.0007494
0.00622871
0.00491105
0.0109956
0.000523173
0.00432013
0.00510903
0.00116452
0.00118557
0.00207964
0.00155212
0.00134269
0.00244786
0.00423174
0.00171252
0.00660412
0.00123375
0.00100146
0.00906423
0.000445862
0.000812326
0.0065425
0.0016111
0.00340324
0.00324156
0.000712529
0.00342001
0.00391718
0.00114264
0.00196266
0.00200103
0.0026709
0.011348
0.0017435
0.00283515
0.000596523
0.000829193
0.00307622
0.001747
0.00773029
0.00211428
0.00804232
0.00135218
0.00552447
0.00236015
0.00141812
0.00844649
0.00503884
0.000723371
0.00239406
0.0111739
0.00051854
0.00564467
0.00079485
0.00200764
0.00101747
0.00211778
0.00076165
0.000865079
0.00134769
0.00126768
0.00153192
0.00196107
0.00189944
0.00130904
0.00111136
0.00120739
0.000651387
0.000490773
0.00194846
0.00102579
0.000924983
0.000979811
0.00166575
0.000450836
0.000727216
0.00113377
0.00194494
0.000730242
0.000746934
0.000741724
0.00154056
0.000802565
0.00217309
0.000675103
0.00112553
0.00102671
0.000511777
0.00162808
0.000883291
0.00172125
0.00101703
0.00109212
0.00063352
0.000860297
0.00126937
0.0012186
0.000999729
0.0013866
0.00212531
0.00110194
0.00113194
0.000803483
0.00199825
0.000918202
0.00610058
0.00702967
0.00212354
0.00155386
0.000859633
0.00478937
0.00303844
0.00190128
0.00244618
0.00285516
0.00211386
0.00358283
0.00573696
0.000858929
0.00281597
0.00857585
0.0038789
0.00229241
0.00286656
0.000515331
0.00400518
0.00143574
0.00173491
0.00162456
0.00273385
0.00237947
0.003683
0.00190928
0.00496063
0.00623911
0.00188943
0.00110716
0.00179406
0.00122339
0.00793447
0.00256059
0.00118186
0.000725757
0.00115264
0.00196974
0.00829651
0.00114896
0.00100986
0.000711444
0.000970409
0.005353
0.000591625
0.000812793
0.00869302
0.000895991
0.000873493
0.0039157
0.00181655
0.00237146
0.00470849
0.00298137
0.000573833
0.000847462
0.0014308
0.0072209
0.00350729
0.00109052
0.0028665
0.00137115
0.00119175
0.00345176
0.00497293
0.000870691
0.00158422
0.00172085
0.00211018
0.00259126
0.00150518
0.00167829
0.00330276
0.00552966
0.00244264
0.00403859
0.00530328
0.00262198
0.00322696
0.00538243
0.00989143
0.00216074
0.00380068
0.00241267
0.0024056
0.000772396
0.00266297
0.00452196
0.00188339
0.00305513
0.000680579
0.000736576
0.00102329
0.000571911
0.00367462
0.000959873
0.00297412
0.00244826
0.00401738
0.00248476
0.00106752
0.0010047
0.00283707
0.00249109
0.00126017
0.000783695
0.000904809
0.00532497
0.00846257
0.00459085
0.00458753
0.00414746
0.00193513
0.00543233
0.00858515
0.000701824
0.00244528
0.00202804
0.000794942
0.00136557
0.00184858
0.0018373
0.000814673
0.00076315
0.00151216
0.000802458
0.00120642
0.00110059
0.00108155
0.000857769
0.000920864
0.000816497
0.000599948
0.00238639
0.00144875
0.000566344
0.000686894
0.00171063
0.000799437
0.00222439
0.00118726
0.00228377
0.00160417
0.00148668
0.000750271
0.000809459
0.00136401
0.00131716
0.00188787
0.001535
0.00111215
0.00612392
0.00120448
0.00280804
0.00242273
0.00387572
0.00489598
0.00175618
0.00154721
0.000640135
0.00111577
0.00257719
0.000503809
0.00583252
0.00130531
0.0069206
0.00301965
0.0016584
0.000796164
0.00185011
0.00112143
0.00345284
0.00302023
0.000751325
0.00289672
0.00314166
0.00294743
0.00760041
0.00489223
0.00390008
0.00136284
0.00110251
0.0020204
0.000610412
0.00355405
0.000920673
0.000904761
0.000965125
0.00122569
0.00123986
0.00245419
0.00167688
0.0012507
0.00559263
0.00076132
0.000996542
0.00239435
0.00100781
0.00112181
0.000687339
0.00418319
0.00350169
0.00210999
0.00433152
0.00117936
0.00173868
0.000676728
0.000712872
0.00485907
0.00194764
0.0035398
0.00198145
0.00304341
0.00557421
0.00197715
0.00138087
0.00120433
0.00126275
0.00139644
0.000625152
0.00108487
0.00303144
0.000786264
0.0080719
0.00224576
0.00201063
0.00138952
0.000819448
0.00155176
0.00206424
0.0018715
0.00177763
0.000806333
0.00109121
0.000874528
0.00284003
0.00472607
0.00259714
0.000451016
0.00113399
0.00308657
0.00125176
0.000828277
0.00241455
0.00105061
0.00515722
0.000515434
0.00462598
0.00842285
0.00360482
0.00731331
0.00128788
0.000786881
0.000856511
0.00219177
0.00152302
0.00393191
0.00429628
0.0074859
0.005236
0.00160199
0.000170538
0.00672163
0.00434124
0.00392398
0.00323397
0.00314721
0.00747607
0.00826824
0.00214975
0.000784899
0.000859598
0.00125092
0.00147572
0.00238601
0.00563541
0.00345359
0.000862847
0.00277024
0.00175286
0.000968489
0.000878443
0.00515899
0.00466439
0.00858283
0.000926465
0.00212865
0.000819218
0.00299694
0.00043225
0.00217866
0.00878813
0.00753656
0.000730599
0.00218881
0.00898406
0.000640227
0.00121505
0.00108073
0.00475015
0.00100436
0.00808428
0.00226029
0.00349824
0.000624372
0.00105899
0.00234452
0.00397398
0.000637235
0.000808258
0.00552142
0.00118998
0.000679255
0.00809003
0.00802372
0.00440466
0.00108934
0.00236456
0.00209106
0.000807497
0.00100255
0.0011221
0.000365594
0.00412393
0.00334084
0.00476474
0.00196858
0.000786938
0.00288221
0.00387932
0.00197547
0.000905396
0.00267114
0.000747301
0.00432181
0.00157124
0.000727027
0.000757393
0.00793108
0.00120926
0.000802421
0.00647837
0.00172481
0.000472165
0.00179357
0.000980146
0.00237939
0.00105853
0.000962059
0.000785518
0.0075697
0.00743416
0.000472972
0.00309576
0.00217731
0.00441634
0.00250813
0.00090132
0.00363244
0.000334854
0.000865827
0.00163613
0.00285545
0.00146567
0.00142424
0.00135648
0.000860427
0.00801336
0.00385592
0.00205641
0.00551204
0.00515783
0.00257036
0.00805937
0.00352191
0.0033542
0.00135292
0.00140148
0.00468245
0.00243871
0.00498791
0.00100619
0.00102869
0.000727539
0.00553875
0.00264328
0.00310745
0.000568929
0.000831461
0.000554692
0.00271118
0.00157027
0.00176567
0.00279302
0.00572209
0.000608014
0.00275262
0.00284724
0.00106788
0.000173841
0.00160589
0.00711221
0.00814073
0.00551049
0.00114548
0.000746044
0.000903194
0.00200217
0.0010458
0.000854671
0.00213601
0.000310147
0.00308475
0.00390551
0.0059145
0.000435019
0.00106607
0.00145037
0.00753423
0.00630761
0.00117379
0.00185239
0.000905368
0.000277713
0.000995374
0.000678542
0.00175361
0.00305723
0.000811242
0.00229695
0.00863739
0.000990349
0.00082193
0.00406733
0.00255114
0.00272171
0.00542833
0.0025828
0.00100799
0.00192168
0.000911268
0.000426444
0.00228179
0.00325716
0.000624182
0.000640467
0.00288662
0.00582962
0.00347546
0.00119268
0.00256453
0.00152669
0.00111194
0.00115153
0.000911156
0.000782648
0.00321464
0.00568598
0.00549785
0.00264359
0.00281552
0.00188045
0.00116704
0.00495026
0.00136922
0.00145815
0.0029863
0.00597306
0.00203602
0.00538808
0.00208966
0.00091843
0.00531486
0.00152564
0.000678395
0.00777358
0.00269285
0.0045057
0.00304673
0.0026631
0.000685264
0.00458647
0.0083564
0.00291761
0.00339565
0.00271621
0.00188524
0.00669795
0.000415174
0.000645538
0.000770512
0.000888729
0.000761317
0.000351288
0.000924348
0.00728291
0.00320509
0.00141057
0.00198328
0.00286317
0.00711083
0.00106428
0.00787201
0.00375513
0.0035975
0.00431546
0.000776141
0.000735246
0.00641198
0.00288774
0.00650309
0.00800917
0.00333462
0.00298224
0.00317341
0.00882734
0.00115946
0.000797206
0.000820686
0.00836217
0.000956081
0.00296852
0.00243318
0.00656867
0.00205952
0.00258173
0.00275883
0.00300807
0.00439776
0.00217508
0.0036209
0.00465598
0.000312377
0.000273434
0.000553245
0.000316067
0.00501777
0.00259796
0.00471901
0.000995367
0.000803701
0.000646583
0.00202618
0.001293
0.000559414
0.00269679
0.00534163
0.00075813
0.00605764
0.00284479
0.000711431
0.00273347
0.00807525
0.00519622
0.00320371
0.00596174
0.00589994
0.00287619
0.00348951
0.00136167
0.00426941
0.00234938
0.00471144
0.00695002
0.00281906
0.00576241
0.00108297
0.00111874
0.00233581
0.00714027
0.000935225
0.00683131
0.00608384
0.000919873
0.00126669
0.000777058
0.00538426
0.00269737
0.00710441
0.00550378
0.00263735
0.000657418
0.00588006
0.00700516
0.00227374
0.00111927
0.00284285
0.000791099
0.00331206
0.00101919
0.00295188
0.00086435
0.00593966
0.00267401
0.000798098
0.000711531
0.00219817
0.00678843
0.00583101
0.00292339
0.00897212
0.00359514
0.00180541
0.00237411
0.00106392
0.0104539
0.00215738
0.00122293
0.00295569
0.00841478
0.0007308
0.00107797
0.000895898
0.00133137
0.00605062
0.00120275
0.000770221
0.00234677
0.00354337
0.00277034
0.00251685
0.00502269
0.00489292
0.000772352
0.00309807
0.00798115
0.00329349
0.00293496
0.00675295
0.000418872
0.000411473
0.000595149
0.000624622
0.00448965
0.00156931
0.000874499
0.00113356
0.00162405
0.000715793
0.000840148
0.00821176
0.00286453
0.00590356
0.00175953
0.00232761
0.00336357
0.00275912
0.00544399
0.00457165
0.000985989
0.000947101
0.000754201
0.00774603
0.00195195
0.00394737
0.0076657
0.00401426
0.00329491
0.00386685
0.00147501
0.00683187
0.00105971
0.000773802
0.00284797
0.000974995
0.00322678
0.00257122
0.00321423
0.00262233
0.000808474
0.000755107
0.00041115
0.00418605
0.00389676
0.000882314
0.000861844
0.00328715
0.00125921
0.00376498
0.00122971
0.000799963
0.00250522
0.00559503
0.0031663
0.00605205
0.0045966
0.00627023
0.00807158
0.00102878
0.000911827
0.00627319
0.00102602
0.00172126
0.000665699
0.00103543
0.0019238
0.000468089
0.000791425
0.00118226
0.00470083
0.00355098
0.00228532
0.000847319
0.00294244
0.0055387
0.00710291
0.0021646
0.00348416
0.000786513
0.00108272
0.00682292
0.00100543
0.00264311
0.000839708
0.00137416
0.00109934
0.00164664
0.000286503
0.00195521
0.00127476
0.000366286
0.000324097
0.000470381
0.000270329
0.000275261
0.000662801
0.0089372
0.00981127
0.00327691
0.0019736
0.00289549
0.00738793
0.000750831
0.000711852
0.00113627
0.00771258
0.000875599
0.00865825
0.00656042
0.00224614
0.000787065
0.00799039
0.00204094
0.0008039
0.00106457
0.00845203
0.00260573
0.000834662
0.00107915
0.000879948
0.00350318
0.00277356
0.00777551
0.00084208
0.000551758
0.000541749
0.00071415
0.000618178
0.00200273
0.000795831
0.000957465
0.00063331
0.00106671
0.000790473
0.00644777
0.000784903
0.00280144
0.00113549
0.00160566
0.000831849
0.00211526
0.00194585
0.0013632
0.000854681
0.00093698
0.000758851
0.0048989
0.000998266
0.00171551
0.0046276
0.00105335
0.000833898
0.00189984
0.000868912
0.00083061
0.00236729
0.000778434
0.00831947
0.00217615
0.000686518
0.000825226
0.000872422
0.0095281
0.000958924
0.00227607
0.00270655
0.00549602
0.00102866
0.00219608
0.00116227
0.000745493
0.0008298
0.00114925
0.00159814
0.00167001
0.0015909
0.000214414
0.00208186
0.00145002
0.001148
0.00110154
0.00153506
0.000500551
0.00121838
0.000841313
0.00114494
0.000748052
0.00831454
0.00079845
0.00137261
0.000791736
0.000785288
0.000738033
0.00119414
0.00109392
0.00222871
0.0079048
0.00813603
0.00419374
0.000639436
0.000827478
0.00263483
0.00068447
0.00318504
0.00140539
0.00223418
0.00532892
0.000717776
0.0073039
0.000553881
0.000844325
0.00652987
0.000847518
0.00768794
0.000725234
0.000817568
0.00326864
0.00429576
0.00072403
0.00386208
0.000943181
0.00123622
0.000655976
0.000970218
0.00076393
0.000962583
0.000830157
0.00100279
0.000850456
0.00197159
0.00215387
0.00159278
0.00422527
0.00096961
0.000725415
0.00560049
0.00266218
0.00103062
0.000712303
0.00411644
0.0031975
0.00529782
0.00955775
0.00117241
0.00116416
0.000383537
0.00867392
0.00263399
0.00416894
0.00276762
0.00656678
0.00280477
0.000285643
0.00108612
0.000637292
0.000260817
0.00242625
0.00137707
0.00112041
0.0010948
0.000334211
0.00107484
0.00024346
0.000301315
0.000983276
0.000676263
0.00128008
0.00446527
0.00227847
0.00615536
0.000649225
0.00112001
0.00256247
0.00105155
0.000653201
0.000791505
0.00565861
0.000810389
0.00243178
0.0010212
0.000746801
0.000993777
0.00769271
0.0057079
0.0006826
0.00263477
0.00479697
0.0028673
0.00817539
0.000745097
0.00723384
0.0050811
0.00292065
0.000927453
0.010119
0.000728476
0.000728517
0.00260895
0.00125121
0.00123682
0.000704609
0.00725681
0.00106476
0.000661513
0.00247024
0.00454706
0.00464659
0.000766021
0.000768849
0.0022207
0.00076701
0.00327721
0.000919157
0.0074111
0.00248459
0.00615182
0.00219637
0.00461707
0.00198147
0.000679778
0.00228961
0.00180985
0.00209595
0.00101814
0.000834168
0.00136687
0.00115605
0.00742474
0.000929001
0.00099703
0.000757027
0.000904494
0.000833654
0.00077716
0.000870433
0.00075072
0.00244266
0.00402821
0.00886918
0.000732931
0.000745742
0.000879903
0.00117078
0.0015951
0.00532806
0.00159091
0.00109978
0.00131336
0.000766879
0.00219007
0.000774801
0.000708121
0.0010462
0.000457943
0.000845781
0.000995064
0.000696639
0.00593389
0.000683429
0.00556572
0.00065024
0.00161417
0.00123822
0.000762279
0.000667628
0.00328055
0.0026697
0.000741753
0.000557979
0.00148321
0.0010354
0.00159146
0.00126676
0.00286034
0.000899498
0.00124241
0.00162956
0.00427661
0.00638977
0.00201232
0.000829082
0.00026703
0.00571244
0.00140496
0.00318421
0.00671945
0.000537156
0.000836854
0.00109304
0.00498653
0.000317607
0.00775063
0.00717218
0.00110273
0.00273076
0.00397303
0.00194539
0.000697047
0.00714133
0.00828723
0.00518691
0.0011988
0.00147879
0.000756085
0.00268104
0.000837114
0.00114632
0.000565284
0.000783976
0.00304092
0.00131829
0.000433949
0.00145355
0.000917123
0.000490841
0.00113042
0.00205922
0.0074487
0.000736527
0.00139617
0.00580622
0.00985187
0.00561101
0.00205687
0.00204445
0.000796725
0.00596586
0.00160076
0.0054029
0.00573784
0.00248127
0.00419587
0.00270975
0.007727
0.00438561
0.00659496
0.00185178
0.00225589
0.00236727
0.00613244
0.00116254
0.00228473
0.00360297
0.00206038
0.00186286
0.00644617
0.00216057
0.00320254
0.00923264
0.00105284
0.000427201
0.000807575
0.00340824
0.000614829
0.00218966
0.00171668
0.000831435
0.00403643
0.00327385
0.00436142
0.000749724
0.0100334
0.00163553
0.00256463
0.00300912
0.00161912
0.0010765
0.000999625
0.00891009
0.000947165
0.00125427
0.000759211
0.00675156
0.001334
0.001022
0.00748296
0.00397412
0.00272598
0.0011685
0.00529501
0.0054157
0.000786949
0.00022034
0.00429709
0.00340168
0.00477636
0.00743248
0.00146612
0.000723117
0.0027813
0.00584823
0.000971408
0.0015215
0.00142922
0.00151159
0.00119595
0.0075924
0.000809054
0.00219408
0.00605191
0.00100449
0.00830991
0.00211962
0.000645355
0.00183211
0.00142528
0.000642336
0.00163467
0.00197801
0.00118893
0.00137597
0.000369078
0.00326698
0.000938638
0.000823186
0.00354063
0.00254782
0.00557777
0.000796544
0.00294585
0.00546693
0.00508595
0.000932396
0.00253187
0.00189692
0.00168256
0.000290185
0.000259693
0.000394427
0.00756188
0.000825904
0.00274205
0.00210427
0.00405731
0.00304643
0.00149949
0.000750521
0.000223
0.000315046
0.000490599
0.000243172
0.000893031
0.000636812
0.000353369
0.000853486
0.0002046
0.000390642
0.000686984
0.0004905
0.000327124
0.000287762
0.000228422
0.000858695
0.000740591
0.000447891
0.000399091
0.000601499
0.000280361
0.000284818
0.000132514
0.000371045
0.000517885
0.000613248
0.000341163
0.000305849
0.000444766
0.000714739
0.00069446
0.000364224
0.000230429
0.000264948
0.000261205
0.000248889
0.000732333
0.000393956
0.000198843
0.000453899
0.000291363
0.000658527
0.000704286
0.0010494
0.00218334
0.00544394
0.000580785
0.00225927
0.00289066
0.00552968
0.00748254
0.00282921
0.00072273
0.000827821
0.00299659
0.00236549
0.00620069
0.00755489
0.00710406
0.00564796
0.00300633
0.00126909
0.00120852
0.000695748
0.00181278
0.000323999
0.00446
0.00137113
0.00228161
0.00264471
0.0012116
0.00470931
0.00427684
0.00265022
0.00323742
0.00335794
0.00785471
0.00246502
0.00401536
0.00231285
0.000760501
0.00859662
0.00367627
0.0016646
0.00497474
0.00218479
0.00565579
0.00335449
0.0019369
0.000960757
0.00084258
0.000848866
0.00810238
0.00258043
0.000606306
0.000475324
0.00543807
0.00716653
0.00039281
0.00335251
0.00533017
0.000420371
0.000248239
0.000616907
0.000749431
0.000385848
0.000803024
0.000210379
0.000374598
0.00053198
0.000216986
0.000804987
0.000682155
0.000256284
0.000742942
0.000463627
0.000411331
0.000658506
0.000280672
0.000323623
0.000297098
0.000224201
0.000785505
0.000288263
0.00341934
0.00292018
0.000484478
0.000879529
0.0036956
0.000848696
0.00521015
0.000734358
0.00276802
0.00739693
0.0065058
0.00264936
0.00755582
0.00307121
0.000278515
0.0077194
0.0019412
0.00314286
0.00805066
0.00502032
0.00906701
0.000634062
0.0085189
0.00166419
0.00107927
0.008448
0.000875544
0.00386779
0.00203092
0.000973496
0.000747481
0.00499115
0.00103439
0.0055848
0.00625532
0.00141834
0.00768178
0.000936071
0.0111296
0.00203675
0.000683267
0.000749759
0.0062658
0.000626531
0.00109305
0.00222297
0.0013675
0.00753451
0.000834671
0.00343312
0.000630593
0.00291086
0.00639515
0.00785453
0.000247956
0.000772972
0.000987598
0.00789865
0.00267776
0.00060434
0.000760929
0.00440296
0.00295171
0.00796295
0.000832765
0.00199299
0.000430191
0.00203591
0.00242749
0.000772229
0.00515058
0.00107746
0.000129871
0.000361886
0.0100861
0.00671459
0.000786785
0.00691938
0.00506203
0.000649386
0.00798346
0.00665075
0.00563145
0.00802734
0.00627704
0.00150602
0.00886881
0.000722377
0.00216141
0.00269297
0.00522833
0.000723081
0.0009767
0.00153171
0.00633267
0.00115487
0.00133893
0.0008592
0.00322524
0.00335568
0.00553133
0.00806586
0.00965241
0.00396722
0.00083234
0.00745424
0.000576499
0.00195038
0.0018688
0.00119464
0.00759349
0.00648825
0.00319729
0.00811768
0.00269498
0.00824117
0.00138297
0.00250978
0.00224868
0.00266831
0.000985696
0.00209755
0.0010234
0.0116912
0.0010412
0.00180017
0.00380458
0.00148592
0.00138128
0.00431806
0.00302493
0.00565824
0.00328246
0.00429965
0.00360215
0.00110166
0.00100064
0.00247226
0.00358324
0.00170261
0.00072524
0.00192401
0.00815811
0.00876697
0.0110135
0.00833232
0.00933645
0.0113798
0.0094407
0.00109642
0.00950781
0.0090785
0.0114064
0.0080454
0.00860884
0.00829592
0.00918828
0.0087053
0.00912828
0.0019958
0.00208184
0.00106938
0.00582465
0.00199957
0.001077
0.0011742
0.00157899
0.000291515
0.0004421
0.00251745
0.00417314
0.00391462
0.00234048
0.00303133
0.00975136
0.00395399
0.00799272
0.00422081
0.00121394
0.00119383
0.00131362
0.00416499
0.00488472
0.00251451
0.00142089
0.00283475
0.00334016
0.00160713
0.00249572
0.00100933
0.00713496
0.00173038
0.000792945
0.00175099
0.000287544
0.00420582
0.00125141
0.00122451
0.00119947
0.00113764
0.00183603
0.00266301
0.00145128
0.00177359
0.00198919
0.00121811
0.00285426
0.0111249
0.00167512
0.00260813
0.00304377
0.0016733
0.00921404
0.00343506
0.00157951
0.0091948
0.00474657
0.00291221
0.00170899
0.0012533
0.00311753
0.0103518
0.00328746
0.00134491
0.00148608
0.00177072
0.00262189
0.00121424
0.00639637
0.00168916
0.00138967
0.00335226
0.00136532
0.00224406
0.0034532
0.00123809
0.00304441
0.00564712
0.00391625
0.00611608
0.00933544
0.00174173
0.0102551
0.00136252
0.00299251
0.00428428
0.00306996
0.00286601
0.00124196
0.00587584
0.00519968
0.00337976
0.00337364
0.00772883
0.0056425
0.00136986
0.00141747
0.00599561
0.00277978
0.00479695
0.0033557
0.00178914
0.00125438
0.00663617
0.00319453
0.0050463
0.0056626
0.00579067
0.00210037
0.00553988
0.000487529
0.0016788
0.00559511
0.00271211
0.00342753
0.00166054
0.00176653
0.00240523
0.000707206
0.00495917
0.00063039
0.00315823
0.00496298
0.00120128
0.00454759
0.00291064
0.00374922
0.00071836
0.00213405
0.00126246
0.00407385
0.00423758
0.00239579
0.0035852
0.00377808
0.00214747
0.00107586
0.00523546
0.00470261
0.00143249
0.00231188
0.000530291
0.000812383
0.000463972
0.00668126
0.000635583
0.00149527
0.00326349
0.00698951
0.00271931
0.0013335
0.00121235
0.0067638
0.000844077
0.00172344
0.00146517
0.0041205
0.00266771
0.00285804
0.000887721
0.00529482
0.00291345
0.0057249
0.00137516
0.00269688
0.00405243
0.000663476
0.00591213
0.00435993
0.00062925
0.00214293
0.00419556
0.000948278
0.00306628
0.00369808
0.00665571
0.00439114
0.000255638
0.00406458
0.00116592
0.00385429
0.00271124
0.0023139
0.00378651
0.00380556
0.00408895
0.0045515
0.00152814
0.00282314
0.000337095
0.00382196
0.00130436
0.00415324
0.000709667
0.00253347
0.00157569
0.000339706
0.00295853
0.00155664
0.00654382
0.00113418
0.00124842
0.00390446
0.00100604
0.00129386
0.00575732
0.00317049
0.00407684
0.00467354
0.000738041
0.000631605
0.00358271
0.00200246
0.00314398
0.00022484
0.00373728
0.000277703
0.00566249
0.00123088
0.00155972
0.00352001
0.00260752
0.00380656
0.00256345
0.00142307
0.000729172
0.0054056
0.00353101
0.00477922
0.00349171
0.00365434
0.00235345
0.00120371
0.00106515
0.00529671
0.00218176
0.0017575
0.00570702
0.003025
0.00288031
0.00465295
0.000549958
0.00548749
0.00085192
0.00193674
0.00239655
0.00320857
0.000638006
0.00405724
0.00201208
0.00329636
0.00196826
0.0019603
0.00377625
0.00265396
0.00117574
0.00109341
0.00234718
0.000582497
0.000709243
0.00611128
0.0026557
0.000585021
0.0054042
0.00593815
0.002549
0.000740921
0.00211052
0.0012387
0.00233645
0.00392001
0.00486427
0.00404917
0.00116094
0.00177316
0.00308296
0.00300752
0.00206789
0.00528103
0.00150461
0.00108787
0.0035917
0.0042491
0.000698931
0.00400623
0.00337659
0.00453445
0.00197034
0.00106572
0.004584
0.00183824
0.00235368
0.00123171
0.0031776
0.00221622
0.00406512
0.00227908
0.000831038
0.00124234
0.00227037
0.00648072
0.00136806
0.00660783
0.00281046
0.00285109
0.00435654
0.00382718
0.00342622
0.000617626
0.00294639
0.000535476
0.0058477
0.00267066
0.00109952
0.00877403
0.000802363
0.000816533
0.0123129
0.000547095
0.00167098
0.00366541
0.00413689
0.00246698
0.00585589
0.0026088
0.00760019
0.00465958
0.00276904
0.00308297
0.00307303
0.0038161
0.00403986
0.000756383
0.000632929
0.000630306
0.000405759
0.000464206
0.00487202
0.00199467
0.000852227
0.00118394
0.00416552
0.00530979
0.00411121
0.000406798
0.0118373
0.0106088
0.00182476
0.000938395
0.00345703
0.00376725
0.00309875
0.000625052
0.00051521
0.00513876
0.00272812
0.00230306
0.00377686
0.00927998
0.00545841
0.00128904
0.00389078
0.0115404
0.0040733
0.0024134
0.00104195
0.00205513
0.000993071
0.000837179
0.000998901
0.00145274
0.0011843
0.00249662
0.00459908
0.00587174
0.00293944
0.00175584
0.00212555
0.00561879
0.00763345
0.0102535
0.00778826
0.00651408
0.00220494
0.00345834
0.00101229
0.000661992
0.00154023
0.0107805
0.0112261
0.0125265
0.00280395
0.00665607
0.00341635
0.00280147
0.00259339
0.00181787
0.00167562
0.00195873
0.000741384
0.00126422
0.00189514
0.00166268
0.00202712
0.00339883
0.00768564
0.00131253
0.00900989
0.00363304
0.00543272
0.00247685
0.0029517
0.00104086
0.00057995
0.000966893
0.000510505
0.00151871
0.000744263
0.0100024
0.00206562
0.000792845
0.000679747
0.00314913
0.00277977
0.00188703
0.00302856
0.00653059
0.00386473
0.00327469
0.00345727
0.00520003
0.00141129
0.002947
0.00212709
0.000309295
0.000568096
0.00243098
0.00184434
0.00811969
0.00349001
0.00118917
0.000925166
0.00571725
0.00245042
0.00464119
0.00967482
0.00266314
0.00142945
0.00113765
0.00131027
0.00234486
0.00756139
0.00161365
0.00567111
0.000877536
0.00306082
0.0101219
0.00991137
0.00182097
0.00371171
0.00207925
0.00387747
0.00185904
0.00383991
0.00116185
0.000802568
0.000743752
0.000580797
0.00205214
0.00356511
0.0026016
0.000839838
0.00427294
0.00440794
0.00276107
0.00388034
0.00123644
0.0029362
0.004107
0.00212579
0.00100156
0.00293127
0.00666123
0.00876333
0.00127942
0.0108075
0.000986108
0.0014482
0.00237817
0.00257183
0.0116295
0.00210096
0.00404062
0.000778416
0.00558506
0.00323681
0.00436545
0.00063506
0.00024634
0.00900602
0.00253532
0.006364
0.003624
0.00220487
0.00132785
0.00079757
0.00458303
0.00605914
0.00349503
0.00458668
0.00410734
0.00485491
0.0018076
0.000835189
0.00119251
0.00772228
0.00121101
0.00235806
0.00231133
0.000785827
0.0113952
0.0016184
0.00166277
0.00957393
0.00862322
0.00934813
0.00678517
0.000527207
0.00106938
0.00431985
0.00423589
0.00523903
0.00768553
0.00322614
0.00140145
0.00241637
0.000754673
0.00329865
0.00289512
0.00250481
0.00627277
0.00759002
0.00229287
0.00222902
0.0031577
0.00437115
0.00346396
0.00173151
0.00267352
0.00822511
0.0013502
0.00314547
0.00316435
0.00846421
0.00275198
0.00415551
0.00244289
0.00338078
0.00103042
0.000759881
0.00174098
0.00378895
0.00965476
0.00647608
0.00223518
0.00176844
0.00067626
0.00697629
0.00129551
0.0038701
0.0083263
0.00440933
0.00424994
0.00275184
0.00351365
0.00286188
0.00765146
0.00251134
0.00164951
0.0025017
0.001372
0.000823441
0.00623694
0.000836756
0.00335862
0.00911464
0.00944576
0.00836991
0.0106128
0.00537209
0.00191624
0.00186469
0.00141593
0.0111222
0.0069751
0.00875783
0.00555247
0.00074321
0.00336885
0.00666439
0.0114533
0.00737535
0.00617722
0.00302712
0.00235076
0.00313783
0.0025851
0.00212211
0.000777571
0.0050431
0.000854763
0.00662359
0.00102507
0.00781949
0.0013962
0.00281246
0.00216543
0.0065376
0.00110301
0.0085819
0.00485119
0.0032584
0.000603675
0.0116186
0.00133598
0.00155447
0.00218249
0.000568731
0.00180803
0.00338755
0.00890563
0.0123182
0.0052669
0.00848011
0.0115884
0.00286126
0.00447817
0.00158408
0.00235585
0.000660788
0.000495039
0.00498277
0.00390914
0.00164315
0.00172793
0.00856942
0.00598696
0.00100507
0.00116311
0.00271236
0.00346574
0.000799496
0.00711044
0.00213748
0.00505403
0.001198
0.0040152
0.000897683
0.0117126
0.0031858
0.00786443
0.00395618
0.00130361
0.00231623
0.00643838
0.00261416
0.00099379
0.0121822
0.00298623
0.00219347
0.00166089
0.000786585
0.0101615
0.00254795
0.00747314
0.00942113
0.000690783
0.00325107
0.000796936
0.00804899
0.0114977
0.00188084
0.00448153
0.00315094
0.00885683
0.000848239
0.00077714
0.000767578
0.00212107
0.000789614
0.00113043
0.00447284
0.00582957
0.00252687
0.00252842
0.00744478
0.000977818
0.00599422
0.00952883
0.00492601
0.000741765
0.00329883
0.00968117
0.000550474
0.000238673
0.000313331
0.00582297
0.00203966
0.00597249
0.00282016
0.00236854
0.0101358
0.0101468
0.00314832
0.00340239
0.00673516
0.0052046
0.00258027
0.00466961
0.000918922
0.00694672
0.00130079
0.00176493
0.000772529
0.00121486
0.00208232
0.0018014
0.00283385
0.0030532
0.00276272
0.00596514
0.0027949
0.0032857
0.00616809
0.00186621
0.00120679
0.00383194
0.00278803
0.00767981
0.00591457
0.00770494
0.00268474
0.00167805
0.00086678
0.00114185
0.00324726
0.00121574
0.00669573
0.00213832
0.00110595
0.00248436
0.00973625
0.00386904
0.00876761
0.000835639
0.0103822
0.0005503
0.00226108
0.00177128
0.00591229
0.00656274
0.00276803
0.00154105
0.00220646
0.00614619
0.000732964
0.0019001
0.006865
0.0125004
0.00394308
0.00445485
0.00165689
0.00819474
0.00564587
0.00122773
0.00318555
0.00385334
0.00199749
0.00413753
0.00689877
0.00727053
0.000746593
0.00547362
0.00177341
0.00312197
0.000984893
0.00350575
0.00274185
0.00302566
0.000693022
0.00334709
0.00529894
0.00157475
0.00226136
0.000482683
0.00304309
0.00379427
0.00244806
0.000606193
0.00155001
0.0049506
0.00473686
0.00372199
0.00206236
0.000917741
0.00251143
0.000837351
0.000977007
0.00119548
0.00463495
0.00154603
0.00098781
0.00169626
0.00572156
0.000520045
0.00264373
0.00284017
0.000932558
0.00725036
0.00145979
0.000870932
0.000970739
0.0015901
0.00230045
0.00125358
0.00153415
0.000864764
0.00408923
0.00110054
0.00118246
0.00390093
0.00562685
0.000805892
0.0058878
0.00136953
0.00236729
0.00757387
0.00159879
0.00660479
0.00230037
0.0009425
0.000400276
0.000566599
0.0019301
0.00791393
0.00306995
0.00756794
0.0041097
0.00172039
0.00657884
0.0019356
0.000806597
0.0018496
0.00233608
0.00477439
0.00422551
0.00159462
0.000844782
0.00109584
0.000735439
0.00131096
0.0103255
0.00189164
0.00439059
0.00250966
0.00053562
0.00226646
0.00063861
0.0010854
0.00191197
0.0108648
0.00367007
0.00638821
0.01159
0.000886793
0.00207994
0.00231751
0.0116276
0.00203055
0.00918095
0.00129715
0.00626785
0.0013699
0.000807592
0.00104651
0.00312021
0.00649448
0.00173789
0.00176908
0.0041826
0.00290212
0.00357282
0.00119439
0.00213681
0.00271943
0.00863756
0.00755117
0.00109144
0.00740742
0.00117246
0.00863958
0.00216831
0.00408997
0.00289173
0.00514298
0.0021426
0.00415219
0.008763
0.0117788
0.00117694
0.00133844
0.00195371
0.000845858
0.000779777
0.00269246
0.00112959
0.00165433
0.00390085
0.00691662
0.00195116
0.000671428
0.00520783
0.000764313
0.00112304
0.00621442
0.00855487
0.0041679
0.00299755
0.00418596
0.00517413
0.000821156
0.000841206
0.00205153
0.00556636
0.00769669
0.000812455
0.00350768
0.00610918
0.0022201
0.00314671
0.00123404
0.000912095
0.000741798
0.000354324
0.00065577
0.000760946
0.00193878
0.00211732
0.000828093
0.000469401
0.000233966
0.000298916
0.00845895
0.00895962
0.000848233
0.0060752
0.002241
0.00570161
0.00402868
0.0065517
0.00463359
0.00534642