/*--------------------------------*- C++ -*----------------------------------*\
| =========                 |                                                 |
| \\      /  F ield         | OpenFOAM: The Open Source CFD Toolbox           |
|  \\    /   O peration     | Version:  v1912                                 |
|   \\  /    A nd           | Website:  www.openfoam.com                      |
|    \\/     M anipulation  |                                                 |
\*---------------------------------------------------------------------------*/
FoamFile
{
    version     2.0;
    format      ascii;
    class       volScalarField;
    location    "0.77";
    object      p;
}
// * * * * * * * * * * * * * * * * * * * * * * * * * * * * * * * * * * * * * //

dimensions      [0 2 -2 0 0 0 0];


internalField   nonuniform List<scalar> 
5794
(
91.2884
92.9262
89.5968
91.8246
92.5055
91.3025
88.8125
90.0989
88.1814
93.7091
123.786
88.1507
86.4885
90.7077
94.2248
92.6977
38.2395
91.5412
94.3004
93.1947
91.3217
91.2037
87.3302
92.2674
89.3391
44.7727
44.0434
92.4204
90.3895
93.7136
90.7776
85.6374
104.027
92.3441
88.4873
87.2889
96.9115
89.0126
86.7542
90.7154
90.2131
92.4145
115.003
89.372
94.3285
105.34
87.1539
89.4321
93.5514
89.5742
92.5872
82.2775
89.2653
93.5553
93.5923
107.61
88.9395
88.3301
115.168
39.896
102.572
93.3603
90.1689
85.4757
103.585
93.2565
89.3505
89.6001
91.4051
93.4021
81.4527
89.6895
19.6418
89.9251
91.1112
92.4066
91.286
50.7923
89.7187
93.0511
90.9153
92.9198
90.0414
87.8581
90.1147
90.9761
85.3738
109.45
91.9791
88.8237
112.584
88.2224
89.3158
91.3022
91.3192
81.1794
108.342
90.1328
88.4629
103.484
79.4984
86.3223
115.175
92.5644
94.7098
89.6257
93.3656
125.049
80.6168
90.2307
92.5462
94.3691
73.157
93.1724
90.8606
89.6678
93.9621
90.0565
101.714
90.8694
89.9031
93.5786
89.9582
92.3508
94.3341
121.8
88.3343
91.7342
84.1736
123.595
91.2664
89.7081
86.8869
55.0005
89.9555
94.1634
115.116
93.4093
92.6945
92.6165
90.2814
94.0443
94.4212
94.2061
92.6735
51.6058
90.5264
113.081
93.0573
94.7072
119.815
93.6333
89.9747
89.642
47.0998
86.0722
88.7081
90.5555
104.882
90.2927
94.1754
89.6326
92.6472
87.6473
80.5952
82.2605
88.382
90.3486
92.6106
94.3372
93.9806
81.8824
87.4865
89.2485
92.3495
87.4098
94.142
89.1036
92.5044
84.4891
90.9017
87.5821
88.9484
105.939
89.2866
45.8902
86.0549
104.882
93.6072
86.4302
123.524
85.9355
104.043
91.132
90.0674
91.486
90.0369
92.6803
94.4093
113.407
88.1051
81.4665
90.4949
89.9271
86.6901
104.971
91.0769
125.33
85.6555
87.5581
91.2608
95.9815
87.6303
89.4722
92.0974
88.6952
87.2759
87.4772
124.173
96.6826
96.0723
84.8699
111.236
89.4843
109.958
39.2117
89.7873
93.6961
93.4414
94.0439
87.6053
89.591
92.0396
81.2497
88.2789
51.6627
69.2585
117.722
86.9241
90.9302
92.8207
125.415
90.9597
90.2773
89.0194
92.5111
94.4234
93.1752
109.379
90.5416
88.4374
93.1473
43.7186
93.0803
118.145
85.7536
114.104
114.081
125.376
94.2898
115.572
87.8896
89.9665
93.2999
88.5038
90.1595
94.6548
121.25
94.2497
104.404
86.1236
90.836
90.7052
80.6462
97.3914
94.073
93.5356
90.0751
93.6415
86.0252
92.6984
103.708
90.4147
92.2615
90.1786
89.8197
88.0684
91.7666
86.9355
90.0287
87.3223
88.8281
92.0391
93.5455
111.064
54.3954
90.3318
92.3233
88.2526
93.2742
92.9764
79.7104
90.8987
89.8199
89.2059
119.667
93.6343
89.811
103.694
85.5684
90.9778
104.298
90.5212
93.1907
96.818
98.8432
124.996
92.3897
80.5093
91.4626
89.599
88.9626
89.8072
92.7314
92.6746
84.1609
89.7302
89.6653
88.1806
124.036
82.383
116.297
90.9717
104.433
85.7833
93.673
93.7677
92.6513
93.5727
105.135
92.3662
89.3024
86.7992
87.1643
94.0865
88.7462
108.064
88.7813
82.9834
88.5807
86.0471
53.4299
104.527
86.5786
89.9594
42.5216
94.4868
83.4432
88.4803
90.1513
125.236
87.198
116.128
88.4365
90.1646
93.3285
81.4017
106.138
87.7447
88.9838
93.7115
93.2814
93.3218
93.7202
124.938
80.5593
107.871
88.4902
89.7045
93.6467
90.3445
93.7302
97.2234
87.3694
88.7073
92.505
90.0709
88.3425
89.9311
88.7798
90.1925
88.169
93.3692
92.6467
87.5881
89.5062
92.2591
89.0121
94.1647
87.6372
92.2669
88.9645
48.7321
92.509
94.4115
119.059
89.0703
91.3626
93.3191
108.995
89.5725
87.477
122.929
82.0596
104.657
86.3013
90.868
92.9013
80.8166
108.555
88.3811
90.1372
124.573
93.684
87.4081
89.0165
92.5253
93.1702
92.956
91.0635
81.9776
97.2303
94.6202
74.1583
94.4198
93.9359
90.966
89.7207
87.47
89.0827
92.5661
96.8434
90.1205
91.6491
89.9327
89.4465
90.8022
92.6953
89.0235
89.9815
93.728
93.1421
82.0237
91.121
90.0254
93.3493
106.827
84.429
90.8988
91.8463
91.2919
93.2486
89.2789
92.5409
104.426
123.451
47.5865
90.2834
123.245
90.1166
93.3807
78.1989
122.898
93.4293
93.5421
106.027
62.5603
92.1837
90.5125
93.2372
89.6879
91.2564
93.6332
93.5078
124.947
123.297
95.7127
90.0153
52.9058
91.0077
93.0059
90.675
89.5786
92.9499
89.1084
92.6152
93.9335
93.7379
92.6954
118.452
89.8416
61.8823
99.0179
83.6508
94.4239
93.2578
91.3577
113.048
122.946
93.2526
80.3989
93.6346
90.2727
93.4207
93.2824
90.0213
89.3032
93.4671
95.8708
49.3068
91.3321
93.2629
91.7989
90.6193
123.186
92.8001
91.348
94.9536
93.2333
91.2938
89.8293
93.2722
47.0812
93.7477
93.312
89.2135
96.9535
113.309
123.274
114.976
91.0811
76.2825
93.0618
89.5401
89.648
92.6653
97.436
94.2801
93.1979
91.0823
92.929
93.6911
94.2625
89.8199
92.3736
94.446
89.5291
91.3255
93.267
93.7804
22.9659
93.878
120.441
93.6107
90.2991
89.9433
92.7115
89.4727
90.8001
93.2555
105.33
82.303
81.6263
91.4845
49.5697
94.3478
90.4012
89.2168
92.3978
90.173
90.0287
89.9655
122.758
50.1251
83.6581
108.187
93.183
90.029
88.3861
107.93
93.2604
92.5728
93.4299
88.6761
90.1481
100.374
93.5993
96.5513
93.4118
88.9775
90.7732
106.164
90.8106
89.5185
93.324
122.887
56.7039
93.7814
93.5835
91.4457
87.1626
84.5042
91.3467
88.9864
90.7093
88.8115
118.032
123.751
112.275
89.881
93.2442
122.858
122.191
125.169
93.3444
92.7277
93.7372
93.3291
126.093
93.1484
91.1415
92.8732
93.0756
91.2638
93.2584
93.6697
66.5277
96.6959
93.3305
92.7003
89.4804
115.644
124.387
88.3705
114.255
89.5962
91.1509
103.546
93.7246
93.5645
91.7276
91.2072
93.7424
89.2026
90.9893
118.818
48.8945
89.363
37.441
93.2581
93.657
93.6198
91.178
90.6696
93.2075
91.4418
89.1266
89.9495
88.2547
103.896
117.809
89.0108
41.1056
88.9361
90.9369
90.7503
89.1863
89.5987
90.3686
90.9704
92.8124
125.583
93.6451
92.6939
93.715
113.817
93.158
93.7435
93.6581
93.4821
91.3023
99.0021
71.0032
90.9733
93.5416
93.9473
125.138
93.2066
91.1937
95.9579
93.5494
86.3329
93.2177
114.176
93.8469
116.761
92.2592
93.6547
93.7485
124.471
115.395
92.7535
90.9764
86.9903
122.866
94.8271
98.486
44.5186
121.005
89.4849
125.264
67.3797
113.748
93.7801
88.0948
89.0519
112.58
97.5245
124.49
99.9567
90.8412
68.9801
96.8671
119.364
93.5468
89.0176
35.8777
123.009
88.3321
89.708
109.887
93.4033
91.0791
89.031
89.0539
90.1802
88.3754
105.95
88.9843
96.8506
92.5243
90.4639
93.6796
93.38
90.804
89.437
98.2142
92.6538
91.2463
107.434
89.8478
70.9941
90.3946
91.2761
89.9043
90.251
88.9984
110.843
89.2391
90.0567
88.6855
108.9
93.6759
93.7349
93.3495
93.5792
92.8326
91.3195
92.668
91.0463
124.962
47.3082
89.333
91.3318
93.2642
90.463
89.1697
125.192
89.1657
90.1709
92.5675
119.032
107.487
87.9624
88.5891
89.3409
93.0559
72.5412
91.0564
60.5328
95.1136
125.095
90.5903
93.7174
92.6667
93.5906
124.546
125.858
117.756
103.785
91.1917
90.1984
91.3512
106.049
95.7377
92.5769
86.8345
105.168
124.743
93.2948
91.3675
89.1188
111.937
50.2585
93.1584
97.7222
93.6321
93.4986
93.5758
88.3841
90.1045
107.271
96.4641
93.7506
90.5542
93.5726
92.8868
39.8392
89.6975
92.7846
88.9505
93.3687
122.951
92.7571
98.4315
93.3255
90.4787
104.066
96.8964
78.085
90.7106
89.0631
90.9495
88.9338
120.926
121.335
49.9599
89.7479
93.3387
93.5649
104.244
93.7378
90.4262
93.3307
101.008
90.9945
75.1491
122.894
93.7155
92.3595
92.6836
96.2422
120.232
91.1668
57.7176
93.643
93.7419
60.0637
107.105
95.9113
89.0566
90.2015
123.909
113.657
93.3006
93.742
86.9806
121.748
90.7547
96.821
121.281
90.2913
91.0488
89.891
89.7049
97.0651
92.999
91.0126
92.9497
93.7486
93.2341
93.7044
93.2953
91.2559
118.752
93.2883
96.6435
93.2415
90.2036
89.4949
91.7078
94.0526
122.988
123.214
57.6661
89.926
89.8016
96.9623
93.1844
53.5142
103.414
84.4197
116.58
90.4398
88.364
91.2997
90.4422
89.3574
104.715
89.1297
89.0758
89.0512
90.8482
93.4456
116.564
94.1275
90.6891
109.206
88.2868
90.1879
94.2316
111.011
93.2899
91.409
93.3
93.2385
83.9626
124.603
108.658
96.8742
90.282
76.449
93.1094
91.0793
82.4339
45.5975
97.296
89.0422
100.805
93.8654
93.5484
92.27
93.4731
88.9463
90.7955
93.2898
93.2843
90.7142
93.671
93.2588
93.3554
93.5713
96.6413
91.8948
97.5141
93.6571
93.2397
108.879
97.1976
90.412
92.1836
87.9256
93.1407
123.92
99.1358
89.8848
93.6364
89.5922
122.83
93.5967
96.8958
90.7327
93.7234
96.8892
69.7403
96.1241
86.8572
101.452
93.3931
97.5742
91.7109
93.9561
109.93
72.5142
90.5608
100.402
92.5896
90.8096
93.2233
92.6969
101.797
105.599
48.3987
78.7511
92.1204
93.0856
90.6578
90.2054
87.8691
103.249
113.408
93.3747
91.2387
93.2259
90.4432
97.1104
94.3522
95.3011
92.2082
96.5876
97.238
98.2537
92.7124
92.8732
91.2992
93.255
92.7662
122.98
93.4064
96.7976
89.857
93.3052
93.6267
93.739
88.8572
124.876
93.3173
125.268
93.1842
98.6889
125.028
93.4869
91.8138
109.297
93.1607
92.5781
91.0329
93.4781
89.5855
89.0882
91.3636
93.2344
89.2305
93.5772
93.2433
96.1462
93.5812
93.5992
92.311
88.9476
87.381
96.2249
104.932
102.784
88.9356
90.4733
93.6476
93.4867
90.9972
92.428
90.1932
90.1127
93.6857
116.858
93.344
91.2363
93.6673
122.702
93.6502
83.5534
90.4846
93.1582
97.7378
90.328
92.7353
88.8622
94.5842
96.5804
97.0901
93.189
97.5815
93.101
93.1746
89.3969
93.2639
91.3484
91.1846
93.7198
124.019
94.0705
56.0043
93.664
91.3417
93.2334
96.8155
91.7385
100.898
93.7534
91.9983
95.7655
102.873
85.3238
91.9775
93.114
93.1451
91.0287
91.0641
93.2271
96.959
93.745
93.8017
119.406
113.002
91.9613
101.76
100.766
93.5605
90.104
87.8086
93.4296
31.4721
97.1801
93.371
93.7202
122.887
123.156
93.9356
92.7487
91.1448
89.9313
89.6409
93.3086
91.5864
89.4591
90.2122
92.5296
90.2961
90.6714
93.5609
88.8495
89.8333
90.9295
93.9541
93.2042
88.9257
91.204
86.9335
89.7308
90.9463
102.697
103.753
97.9938
94.7432
96.7905
102.572
93.7922
90.4649
94.1296
104.283
99.4147
92.8915
91.0229
115.263
92.5482
117.306
89.9621
89.0132
102.189
88.9807
115.684
105.667
90.5419
89.2498
97.0324
111.583
93.5362
91.0071
93.0418
55.5879
93.3574
93.6311
88.9788
91.2532
93.2621
98.0223
93.5962
115.917
92.3039
89.4137
100.453
90.2309
87.1337
93.6524
93.5488
90.6852
88.8457
122.677
124.253
89.1944
96.9642
93.1275
91.4254
89.1621
85.8347
103.783
125.59
114.822
97.4434
93.3572
93.1798
92.6179
90.2168
96.8056
89.5104
88.841
89.236
93.5655
91.485
75.7317
92.0109
54.4317
90.6494
93.2151
114.034
97.798
92.6893
93.5744
96.3058
89.8371
93.7726
93.4079
92.5026
91.3394
93.2368
89.2727
89.3799
92.39
93.3437
92.5037
90.537
89.0435
78.4447
89.049
118.374
96.1891
89.6142
93.7469
91.2352
108.993
89.1343
89.8982
90.4315
93.0365
124.402
51.5554
89.1574
93.5352
93.7149
84.0683
93.7479
90.6686
91.711
92.0451
88.9453
90.9454
90.3341
90.2646
93.4741
93.7674
93.1445
96.7404
90.1669
93.7269
90.6066
110.451
97.5011
124.149
123.575
90.9361
93.5571
91.7451
93.7593
124.929
89.8333
88.5661
90.5045
93.4384
94.2855
93.1693
89.1771
91.2366
90.1832
93.6144
90.7006
93.8094
41.3772
88.8068
36.5655
49.2636
90.4253
96.5758
93.588
90.164
92.6772
91.0762
90.0499
90.4876
92.6572
85.3265
103.497
102.687
90.0003
91.1881
86.8594
86.994
93.3557
93.6757
90.6873
124.256
93.643
90.1883
93.6661
93.5788
90.7225
112.582
92.6964
90.3266
89.2985
90.4288
88.3307
89.0369
93.5442
93.5876
96.8364
90.1328
129.856
123.84
93.2697
40.3651
124.542
91.2175
89.6345
93.7406
101.678
93.7448
93.1759
91.2154
89.1943
10.8737
97.5349
90.5766
85.8095
109.793
55.7224
113.945
89.1898
91.132
93.1429
90.8162
92.7193
89.286
89.5785
93.1991
89.5781
92.6648
92.6945
90.0027
89.2652
91.0361
93.0374
92.7186
89.3109
89.5321
92.7343
89.2083
90.0063
91.1936
93.1111
93.4954
92.7014
88.9596
90.4519
90.8255
92.687
90.9041
89.2793
90.0766
93.0598
91.2638
93.1762
91.0157
92.6779
89.1964
93.1064
92.6947
90.7911
93.2755
90.2222
89.2238
87.8312
86.0565
55.5266
93.7159
92.3649
101.526
92.2516
93.198
93.7028
93.4835
94.2169
93.6873
89.9143
90.4667
48.9581
90.1049
90.3821
89.8593
93.6045
93.5937
93.6715
90.7445
90.7246
90.5228
93.7628
89.4222
88.8013
92.5977
123.084
94.2082
90.5188
89.5313
88.8292
45.1718
93.7274
88.7684
89.8353
105.69
91.8825
90.0631
89.6121
91.308
119.091
93.6359
89.7268
89.7353
91.0994
96.2945
95.5546
11.6067
93.7512
90.0807
92.7482
92.0709
93.4178
93.7032
139.264
91.1699
93.1188
92.7017
89.569
89.2326
90.9034
89.5399
92.7014
93.1587
90.8115
92.6759
89.2776
90.145
93.3736
89.1189
90.7881
89.234
89.9619
93.0555
92.7398
91.1342
91.2048
89.2111
93.1641
99.8939
88.561
125.449
108.594
90.1281
96.2935
91.6778
93.427
118.949
93.2875
93.3644
128.912
93.5188
90.3071
93.6978
93.5608
117.266
93.6452
72.9104
91.7055
94.5138
93.5422
92.5364
97.8239
93.6971
92.8016
97.6886
93.3805
93.7652
89.6039
92.6774
90.9316
93.7217
91.6954
88.0746
93.767
91.1792
93.452
91.3284
90.6653
93.5216
93.6357
90.5333
93.683
93.7063
93.4769
93.756
92.2771
97.2428
90.1296
86.5897
90.9107
90.7266
80.9314
93.6109
96.8999
106.458
90.7523
121.754
88.8939
93.1853
94.7205
89.8378
93.0467
97.1602
93.7586
92.7197
90.2047
89.935
93.2582
90.7514
93.5994
93.5542
90.8905
90.6866
93.6544
93.6877
93.3184
95.7166
92.6766
93.0814
87.6565
92.7023
93.2257
91.5608
93.7647
89.2891
93.5497
89.1327
93.5296
91.5817
115.678
90.7153
89.3799
91.0105
93.3314
90.6739
93.103
93.7908
89.7169
91.3568
93.407
112.537
90.1658
94.0442
92.1422
89.7184
118.286
117.644
91.1344
94.1227
90.5055
99.1392
93.557
107.339
94.1437
141.753
89.5012
86.2848
104.149
114.79
86.0526
88.0137
89.5744
129.806
87.7415
108.047
89.6616
131.617
89.6304
88.8537
29.2933
89.6567
91.0205
90.9486
92.9837
90.8311
89.2057
95.088
90.6484
93.3656
88.9676
90.0425
89.8491
88.8069
88.7521
90.0661
88.8057
89.4685
93.7571
89.9468
90.5555
88.854
88.9018
90.1921
88.7932
91.159
91.0322
91.2625
88.8553
88.3446
89.8378
47.1293
88.8253
90.4852
90.2293
88.2054
93.6991
93.6783
89.3249
89.578
91.9058
93.7477
93.7916
88.8911
89.4839
88.7641
88.4612
90.2305
87.5629
89.9574
90.764
90.203
89.0104
120.271
90.7239
89.6095
93.7187
89.1596
93.7092
88.7361
93.7304
88.016
93.7435
93.6604
90.4006
87.4935
89.8849
87.7569
90.0517
93.942
107.411
93.9311
87.2362
85.7235
88.234
105.139
80.774
93.9093
107.068
105.312
86.1027
81.7984
92.5896
94.1415
80.4549
103.612
109.641
93.8658
88.4911
107.238
80.4589
106.225
94.0776
94.0096
94.1966
85.5252
89.2752
51.4802
93.9758
88.0257
89.045
93.8789
85.4088
92.6249
89.127
105.115
103.718
87.512
51.5502
80.0316
94.2176
80.1989
93.806
88.5507
87.2265
92.5561
106.873
89.7066
51.2526
87.3473
88.4727
92.5344
80.1694
48.3568
94.3417
146.14
80.8395
89.4518
87.2647
88.2837
94.3923
89.0983
103.676
85.7377
81.084
48.0747
48.0284
88.9196
88.6401
89.9266
90.6389
90.6361
92.2899
92.6148
84.7489
90.6494
88.9016
93.409
123.725
88.1735
89.45
90.7316
87.8152
90.4166
93.7822
90.7046
92.2803
89.0902
89.7812
90.5635
91.93
92.1496
87.2504
88.4131
94.4425
92.5715
90.3904
90.1722
93.501
93.336
88.6692
88.462
91.3446
90.904
93.6748
88.4185
85.9802
103.845
90.8988
87.5993
89.8397
90.9361
93.7835
93.5563
88.7456
92.1309
93.1575
93.0529
88.4187
90.8282
90.1744
47.4806
93.7242
90.042
92.3455
93.8958
90.7938
90.2936
88.9135
93.7668
91.835
93.5583
92.9579
92.5102
90.9765
90.1048
94.1883
90.6516
93.7289
92.0447
93.7758
93.768
89.9954
90.1583
90.3617
94.6461
93.7387
91.1678
92.2485
90.0854
90.006
90.7942
93.2525
89.0101
90.6452
93.8356
86.1875
87.7695
103.925
88.1925
89.9975
90.981
93.7446
93.7365
123.991
83.8653
88.1458
90.0146
93.9342
89.8932
88.7698
92.0295
87.3229
94.0344
92.5877
93.9986
46.1882
115.776
91.8551
89.8743
87.7028
94.572
89.1173
90.659
93.1019
124.223
88.4235
89.9187
89.3633
92.553
89.1775
90.7041
93.0173
104.908
87.1684
87.277
124.449
84.8689
88.6943
89.781
88.8187
44.5693
115.639
91.7941
87.5136
89.328
88.9048
94.6107
89.2778
90.8872
83.9987
85.9743
92.49
89.1777
90.7349
92.9864
88.4307
88.8563
91.3113
124.29
85.547
92.6904
44.8519
48.9893
89.7662
115.629
89.1361
90.8059
89.0348
89.5451
94.6689
94.6218
87.6913
84.6074
92.5035
89.4186
89.1546
107.184
87.5623
113.085
88.6381
89.694
90.9892
93.5529
93.5448
88.8602
88.8567
88.8003
88.757
91.7682
87.6269
88.7764
90.4223
84.7734
92.5269
89.1697
90.8146
92.9285
88.6098
107.025
87.8729
124.476
88.5573
88.2598
89.6271
88.6955
89.6573
90.4522
90.5896
92.6958
47.3981
89.7344
99.3765
90.8202
95.1716
115.589
95.0717
93.6838
91.8437
89.7742
90.0213
87.7115
90.4915
87.2444
94.3163
94.6549
88.399
99.6452
93.6312
91.7985
90.4671
88.5957
88.5685
90.2932
91.9641
91.6487
92.5048
89.1787
90.9357
92.9532
88.6983
90.3109
93.6197
93.6988
94.1769
94.773
118.627
93.742
92.9231
88.7691
89.565
90.4651
92.6969
43.9021
89.6984
93.7611
93.5448
94.9949
96.3026
88.2812
89.7054
95.3999
89.7433
90.6896
89.8
86.8407
93.5325
97.3222
93.7321
93.6568
93.689
93.3566
89.0062
89.8445
89.4205
91.8473
87.6752
89.5012
92.9789
89.7723
88.9708
94.7134
93.4154
125.195
93.7455
93.8592
83.8973
88.6828
89.0469
88.93
85.7323
92.7393
90.1805
89.3706
89.4159
88.6742
93.5537
89.1594
90.9438
92.9339
93.7535
93.7419
93.7559
90.3948
109.137
88.3269
91.7174
91.6354
90.3516
91.7444
90.4469
91.5514
92.4307
91.2688
92.5517
88.58
97.9944
89.4701
89.791
96.9019
93.6998
117.916
91.4438
92.021
90.3427
124.604
90.4394
88.8728
89.5133
93.7243
84.6633
90.5316
89.2078
93.6859
92.6971
88.8826
88.9356
89.5602
89.3588
90.7133
93.0732
123.405
89.5844
90.6478
93.5697
93.7606
92.4039
93.7049
93.6897
89.816
89.3172
93.0452
92.5982
93.7813
91.8532
89.6308
89.0484
93.5877
90.4929
88.9252
91.2562
88.8765
89.9337
93.2267
115.577
116.431
93.7036
89.1745
91.5866
89.0479
115.87
91.547
90.4403
93.0124
90.5794
116.874
89.9578
91.5345
85.5776
88.2578
89.6663
90.9432
92.8568
93.6586
88.9949
91.8583
88.7699
95.0756
89.3386
93.7066
124.196
89.3983
93.7927
89.692
89.7414
90.1454
89.5837
92.6547
92.0615
91.4466
90.4837
90.0983
88.7576
88.7348
96.7503
90.3294
94.7251
89.4627
93.8502
91.5683
90.4008
89.1656
91.0678
92.9801
93.5532
81.768
88.8696
89.2439
93.2722
92.921
88.5272
81.7547
92.8808
92.6996
91.1157
92.8381
89.3109
96.1295
90.5714
91.243
89.3993
89.3714
93.7696
88.7732
101.439
91.6103
127.29
88.8821
89.0532
90.4215
93.523
89.9138
92.6265
89.7198
89.6885
89.645
118.744
89.3545
108.525
89.0927
93.7608
92.8182
88.9424
89.0337
93.5788
105.366
89.2556
95.1277
100.515
106.089
91.2401
93.1966
90.9073
89.238
90.6919
93.4397
124.726
87.4963
89.7699
85.9727
90.7214
53.2308
93.7885
88.8461
89.4886
89.1723
93.1957
89.1465
81.3634
90.8024
93.3794
90.901
93.7431
93.7592
89.5316
91.0334
89.3838
88.9889
47.1626
90.7135
91.6365
110.29
91.6598
82.4363
93.6061
37.6522
101.885
93.5346
93.768
92.6003
93.7775
124.149
90.0895
89.3567
93.7418
131.921
93.5931
89.2421
90.9323
93.2332
90.7091
93.5594
91.4738
93.6327
91.1827
91.094
90.6121
116.88
88.8033
89.2046
88.7594
93.2949
92.3714
92.6766
93.5923
93.5569
92.5535
90.135
136.059
93.736
89.5562
90.8672
89.5789
91.2046
90.2203
122.957
93.61
89.295
93.5703
92.693
70.2829
123.529
93.5527
93.5442
91.2397
94.6892
98.6298
94.1681
89.6729
89.9018
96.8138
88.8053
89.8627
90.2206
93.7522
93.6125
99.8445
89.4296
89.4882
89.4915
85.5308
89.1783
89.4614
92.7214
89.8228
93.5755
89.6779
93.803
93.7648
90.4842
95.1099
89.5177
89.9808
90.679
89.7503
93.264
89.9865
100.035
89.5967
88.8434
92.0886
90.2496
88.3691
93.5284
94.5703
95.6355
96.6737
89.3269
91.1277
92.988
77.2928
90.9752
90.6557
93.3189
89.0268
112.023
89.5156
88.7974
90.0204
100.849
88.1701
89.4662
89.1255
91.2064
93.2997
89.8812
110.519
88.8462
89.8359
89.787
89.3559
89.3712
93.5361
91.4195
90.5553
89.6393
88.937
109.216
92.6998
94.5867
93.9914
89.1496
91.0903
92.9711
87.8179
93.7075
89.8123
94.2964
93.7336
90.7503
89.9024
91.2989
90.6139
87.5519
89.1123
91.692
93.7667
94.2095
94.4856
93.5105
90.2701
89.1648
91.173
93.0392
132.051
107.186
90.6512
90.3214
99.9799
108.114
107.787
91.0283
92.265
92.6862
90.364
92.7056
93.7716
94.4876
123.793
90.8194
93.7986
87.5892
87.5902
105.592
93.451
90.7206
93.1129
88.9159
92.1732
90.5858
90.9696
88.5584
49.3597
71.618
93.738
88.9889
92.2267
88.0499
92.6868
93.2405
99.8786
94.512
115.401
90.0733
92.5743
90.6391
92.992
91.4994
93.5641
90.2563
90.5174
89.1523
98.1881
92.6858
91.7996
90.0749
122.96
93.4146
89.068
84.6963
91.5588
123.09
124.02
92.4473
89.9532
91.2795
93.1775
89.1735
89.7357
20.7309
93.2207
118.382
85.1687
93.6201
93.7354
93.8719
122.207
87.5098
89.1758
91.24
93.0717
93.7078
114.132
90.3885
88.4284
93.5952
93.6293
93.6165
93.2095
90.7413
90.714
96.6749
123.398
102.604
93.6779
93.4374
91.2879
90.8124
89.7584
92.6787
92.7789
90.0927
93.7307
94.0269
93.7424
91.0945
90.9016
116.807
90.6223
93.7473
96.6665
88.9853
44.4017
90.5444
91.2975
89.1535
91.2078
93.0448
104.194
93.2177
89.2031
88.7164
93.3815
92.0425
93.2846
93.2036
92.6366
93.2623
93.6123
90.5787
89.7698
92.9081
92.0071
92.6714
89.6738
89.5932
89.5939
92.6225
95.0882
92.1551
90.5753
93.2241
96.7116
93.6628
90.5284
90.7844
116.723
118.484
89.3773
93.749
92.3319
93.7807
93.6187
89.6849
92.1525
92.5502
94.2891
93.5631
100.108
93.2783
89.4485
90.8303
92.3016
90.4634
93.7561
86.9643
91.9855
89.3783
109.962
93.2065
89.6202
92.6604
93.4231
89.5281
86.9514
89.261
91.243
89.7899
93.5688
93.5063
81.638
99.0537
93.933
94.1101
93.1828
90.9949
92.4319
90.9096
90.6349
96.984
96.6981
93.5986
90.3311
94.7693
93.6763
90.8221
90.7345
93.7507
89.2895
93.1537
91.4194
93.2429
93.5775
94.2896
92.6478
90.0176
90.3408
97.2641
89.1863
91.1829
93.2318
91.4138
93.951
93.1675
90.3374
93.3878
90.6274
90.9805
91.7359
123.537
88.7467
40.7567
93.3738
90.1242
90.0684
91.4921
89.704
91.2989
93.1583
93.7114
91.329
93.1945
96.8945
93.2847
114.725
93.4256
92.6941
89.9702
89.3522
115.449
90.6048
93.6178
92.6977
92.8699
114.769
87.7228
90.192
91.9306
89.2061
125.092
95.6279
89.0918
93.5868
105.702
81.0496
93.4361
89.3945
93.0015
92.5536
89.285
89.2849
91.3509
93.2639
89.5121
93.0797
89.9806
88.9671
90.7363
93.3431
93.7115
90.6322
88.5958
90.9458
93.0318
93.6711
93.584
89.4639
89.6703
90.7801
93.1467
87.6703
93.7456
113.77
89.2715
92.2937
89.8717
35.385
91.4747
120.353
93.7606
89.4704
91.5973
90.5381
93.4808
92.7201
89.4675
93.7279
89.8261
92.0184
93.7353
116.229
90.3325
86.8727
92.8842
91.3726
125.494
90.865
89.1484
93.7814
90.4654
90.8311
94.8751
93.4981
92.5004
89.1678
91.2767
93.1315
91.3285
89.2928
93.184
91.4385
93.5603
82.4424
88.9946
88.8215
89.4421
55.9316
97.0013
105.752
90.4835
89.6573
123.573
67.5274
109.88
94.7913
89.17
91.2379
93.1164
92.1637
100.937
89.1855
90.9903
93.0692
93.7138
92.4428
117.459
128.205
88.3175
109.491
95.5476
122.799
92.9275
90.7693
90.8618
91.5033
87.233
93.7671
108.655
91.561
93.028
92.6433
93.7828
123.401
90.1808
110.423
91.1511
88.7706
89.4819
88.897
94.5276
93.782
90.9802
89.1448
92.9458
93.7553
90.1658
92.0245
90.5091
90.9889
89.9267
93.7911
92.5193
97.6304
38.8015
122.997
93.3927
93.7927
93.5421
91.645
92.2761
90.0887
89.6531
93.5658
93.3702
90.5264
91.3949
107.847
89.607
87.3934
107.159
91.2152
92.841
93.7112
97.4654
33.6498
89.5384
85.5626
103.559
89.2666
93.4725
98.4264
96.5803
93.3855
89.1057
93.9617
89.2648
125.327
93.5923
91.7154
93.58
98.0604
42.5989
90.0516
92.5785
90.9582
92.6448
89.4921
87.6372
93.6119
106.949
90.5486
93.5744
92.555
115.001
91.9126
91.0909
90.0086
90.6565
92.7709
90.023
93.6404
93.5751
93.3036
91.3353
106.386
90.1702
105.756
88.7811
90.2815
93.6793
89.8657
124.888
93.7311
93.6847
99.9591
110.858
91.6872
88.9338
90.0323
92.7632
90.0501
89.2356
122.226
90.9193
93.6567
92.3636
90.8204
93.5105
121.542
122.779
90.4149
89.8357
93.6349
93.7409
92.5833
90.0465
87.9071
93.4436
93.7023
93.065
93.7313
93.7721
92.0052
78.1369
89.3398
122.611
92.6436
90.5255
92.8451
90.9834
90.8703
116.97
93.7045
92.6494
115.208
93.0707
112.072
105.964
93.7336
122.06
93.349
122.84
93.5886
92.7905
90.375
99.2334
90.6794
103.47
87.812
98.128
26.9003
93.7546
121.192
90.1183
101.652
89.2992
102.723
90.3163
121.842
122.705
91.5281
107.108
93.1429
89.0916
91.2471
93.2504
90.8782
92.6523
103.258
93.7037
105.076
103.491
93.7242
92.6445
90.4724
124.074
88.8563
89.3251
92.6083
96.7715
92.5298
97.0262
97.3992
93.8085
106.93
90.7418
92.0988
89.3769
88.9488
93.4778
105.229
123.162
90.8052
110.032
101.661
88.4296
93.7538
93.7547
93.5636
93.6539
93.6227
122.892
96.4824
88.8787
93.6314
89.0218
110.666
87.4184
90.6826
89.8514
89.1339
89.6485
92.0677
90.5985
89.4757
94.5906
90.7663
91.0016
91.2739
90.2137
92.1319
108.497
98.7927
93.6821
93.583
93.6462
90.233
104.312
89.6438
90.524
89.7333
93.7425
91.3783
88.2696
89.549
49.2046
92.8405
93.6291
97.2832
91.1647
89.1586
93.0492
122.575
93.3851
115.45
93.2572
92.4552
81.2881
90.0404
93.4879
92.8592
93.014
100.662
90.9635
110.261
89.3506
91.4145
93.2742
89.6828
92.0737
89.8768
56.1531
54.5881
90.6373
92.6063
89.5012
90.7343
93.2076
91.2661
89.1533
93.3433
91.1345
88.9856
89.0723
88.7266
89.5352
88.7809
89.5454
125.289
90.2811
90.4517
87.0358
90.0466
102.661
92.8847
91.6188
91.7518
93.4656
111.894
92.1154
89.4474
90.9125
87.4665
44.4401
90.9112
93.4395
105.332
123.684
93.9181
93.5187
93.3268
91.2931
90.3565
90.3143
90.7917
93.5021
93.7735
90.9563
91.0422
89.1514
92.9934
89.5728
92.635
89.5111
107.65
90.2768
88.1061
94.9369
92.7174
90.8969
89.9011
93.1406
103.525
85.4797
90.4512
89.1727
90.8378
94.2318
89.3869
88.1976
87.2295
99.0278
92.7256
110.011
119.964
139.906
93.8146
93.2818
125.537
88.9855
92.4618
94.2849
119.785
93.0286
96.1049
9.65673
97.1278
91.3089
90.4114
93.273
91.2493
93.1248
89.1873
91.4025
91.9002
86.1342
93.7476
90.7112
96.2517
90.9215
124.98
89.3541
110.082
88.0697
90.1383
89.203
91.3809
93.1934
93.1605
86.6234
91.0253
89.0938
92.9944
33.0613
112.331
91.4183
91.2207
94.1065
93.2244
87.7604
92.8935
91.9614
86.0506
94.3468
94.2563
93.379
93.2104
94.0207
89.8239
89.8565
92.015
88.8152
116.341
92.917
91.0904
92.5991
90.7128
97.514
104.468
91.8822
96.36
90.0467
88.2554
89.969
91.4415
88.4443
91.1298
92.2171
90.5446
90.2339
93.8708
125.141
91.3471
93.2149
124.531
93.7666
93.3567
93.7703
79.2598
98.2266
97.994
93.2933
95.4137
93.2755
95.5517
95.6859
98.9478
97.0957
94.2543
92.2032
88.7812
92.5452
91.511
101.808
93.4743
92.6565
93.5876
89.7733
89.2568
97.7241
93.6396
92.5084
88.9845
93.5831
92.6944
89.4773
92.9889
93.7257
95.7238
50.4234
89.2261
91.3567
93.2234
89.6271
92.6184
90.9558
89.1979
92.998
91.4321
89.3604
93.2282
121.454
93.7128
93.7452
91.1293
90.8634
90.6201
96.4862
88.885
90.8571
93.5438
88.882
89.9977
93.1773
93.4103
112.945
109.973
91.1859
88.1952
90.7828
93.6178
93.6406
91.0118
89.4393
123.581
98.21
88.6307
113.954
93.5336
89.9339
88.0966
91.9489
93.287
79.9932
93.5785
98.6696
88.5233
90.2295
93.3904
95.429
93.5716
85.1187
127.171
88.8705
93.6502
93.7688
93.6924
93.6659
112.181
122.369
93.6548
92.7105
88.7298
107.567
89.6231
88.7148
93.7712
92.2079
89.1553
89.3959
90.8015
88.7343
89.3444
93.6398
89.8117
85.4554
103.531
93.7475
93.7698
87.8789
89.9248
89.1175
99.6684
89.8628
88.7459
90.5832
89.426
92.4914
93.3434
96.7543
89.7513
17.2094
95.386
89.3697
89.2218
90.6172
88.9925
92.6938
88.4849
93.7625
90.7928
93.3014
92.0042
94.0406
120.723
90.4946
123.4
92.4445
89.2684
93.7263
92.191
90.3648
89.5589
51.743
115.602
96.9345
93.5819
90.2682
90.1658
82.1459
84.4649
93.3234
91.0521
97.0095
96.6588
90.6697
93.488
44.3878
93.1096
89.1792
91.2051
89.5852
88.7745
89.643
91.039
89.1877
51.464
90.4453
90.1269
89.9197
92.9022
91.1373
89.0319
87.5845
93.1737
95.4132
107.437
93.5232
90.5063
90.5474
90.4577
88.4006
87.7778
93.7923
125.508
116.203
94.2425
80.0366
90.7897
91.364
89.2779
93.2082
91.9773
115.317
93.2794
97.8841
90.2952
90.1598
89.3145
91.0557
97.5448
89.5101
110.155
89.8186
87.2575
90.8401
92.9705
125.17
93.5281
89.2778
87.9055
94.5377
90.756
84.3862
43.5574
106.081
90.0271
92.734
87.4938
89.4419
91.8772
89.0725
90.5004
92.5738
93.3215
93.2551
91.376
124.622
91.1687
91.6008
92.5617
93.7342
52.4268
89.6684
88.021
108.074
89.7788
93.275
94.6422
96.9156
89.5108
93.2521
91.403
89.2405
92.6489
89.5848
88.3999
122.562
92.5167
93.1486
93.1838
90.6868
89.0994
87.5456
92.4702
92.5799
88.6305
90.54
93.9147
97.222
91.2481
92.9122
114.269
66.3574
92.6532
53.5249
92.5199
89.2295
83.2547
81.8882
91.0737
94.563
75.1961
93.6887
116.315
90.3644
86.861
110.471
121.617
114.291
92.9028
93.7257
93.9115
90.8019
88.6902
80.9948
87.6457
89.3401
92.6358
104.858
104.434
98.6748
87.6539
91.9739
87.5871
97.1407
93.7468
93.2699
93.3255
93.1049
91.0565
122.496
88.5632
88.6295
88.7797
95.3649
88.8154
90.7338
87.0444
93.6521
90.9189
89.172
92.9704
90.19
88.2035
92.6593
90.4304
92.2201
85.3137
88.9824
89.8863
89.7696
93.822
105.651
92.6774
90.2566
90.4285
92.6642
111.171
119.517
92.7367
93.6587
113.413
90.0321
98.8298
92.8687
91.3919
90.7542
92.9767
91.2022
93.7246
93.7532
91.9469
93.8058
93.4243
124.085
93.7938
93.2186
93.5426
93.2763
90.4099
93.636
84.7911
90.1867
92.732
96.5805
118.463
90.4082
88.6651
89.5087
88.753
91.8235
90.1253
92.762
91.4877
94.5118
93.5458
90.1248
92.7112
51.4759
89.6345
123.087
93.4403
92.945
91.4904
121.092
89.9066
51.4295
97.3025
93.3844
93.7291
93.491
93.5226
93.2619
91.3558
89.1898
93.6056
89.047
91.3763
93.2195
90.6737
93.4224
97.3675
123.78
91.8545
90.066
90.579
92.6473
93.3827
89.4131
104.118
85.7344
90.2174
96.7357
90.5619
95.4759
89.7818
96.7654
115.854
93.2056
94.1169
93.7432
88.7569
125.22
87.6443
93.7194
86.7077
88.5745
92.2929
92.7095
92.4419
123.668
98.5586
93.245
91.3817
89.1577
97.1304
93.6136
89.496
88.7381
93.6701
93.1338
90.3257
46.6983
92.2822
90.4302
107.773
125.025
90.1647
93.6416
93.1953
123.095
90.792
95.5349
90.3288
37.1608
56.7462
93.6315
48.9803
93.1632
36.4014
88.7339
107.89
89.1962
90.1911
93.3481
93.3456
93.3239
93.3403
91.4278
91.4002
91.4294
91.4465
93.3577
91.5344
62.4995
91.0598
90.6782
90.0977
90.3359
56.2818
91.4403
89.8032
88.821
90.2988
89.5918
88.3662
67.8446
49.0989
88.1812
76.6465
72.3148
88.4561
91.4925
89.3562
89.9394
89.5769
89.2882
88.9383
91.6986
90.3611
90.6322
93.3736
89.6395
88.6538
90.5283
88.8637
90.749
93.32
109.83
111.087
91.2061
94.9465
92.2716
88.8235
91.2804
97.1272
109.535