/*--------------------------------*- C++ -*----------------------------------*\
| =========                 |                                                 |
| \\      /  F ield         | OpenFOAM: The Open Source CFD Toolbox           |
|  \\    /   O peration     | Version:  v1912                                 |
|   \\  /    A nd           | Website:  www.openfoam.com                      |
|    \\/     M anipulation  |                                                 |
\*---------------------------------------------------------------------------*/
FoamFile
{
    version     2.0;
    format      ascii;
    class       surfaceScalarField;
    location    "0.3";
    object      phi;
}
// * * * * * * * * * * * * * * * * * * * * * * * * * * * * * * * * * * * * * //

dimensions      [0 3 -1 0 0 0 0];
oriented        oriented;


internalField   nonuniform List<scalar> 
2708
(
-7.23144e-05
1.8497e-05
3.45473e-05
1.92702e-05
-8.34593e-05
0.00010284
4.7583e-06
-2.41389e-05
0.00126222
0.000245953
-0.000850217
-0.000657952
-0.000319663
0.000170349
5.19324e-05
9.7381e-05
-3.27191e-05
2.69248e-05
0.000154177
-0.000148382
0.000487023
0.000404746
-0.000349237
-0.000542533
-0.000118319
9.78105e-05
0.000595509
-0.000824893
0.00100484
-0.000775457
0.000320597
0.000215785
-0.000272928
-0.000263453
-0.000512635
-7.53427e-05
4.95185e-05
0.000538459
-0.000241357
3.20904e-05
-2.84464e-05
0.000237713
-5.35725e-05
1.68916e-05
3.6681e-05
-0.000142497
0.000199925
-3.90234e-05
-1.84046e-05
0.000862284
-0.000873883
3.51535e-05
-2.3555e-05
7.6191e-05
-4.44354e-05
1.47048e-05
-4.64604e-05
5.38701e-05
-8.4353e-05
3.04829e-05
-0.000107103
0.000114801
6.84933e-05
0.000103141
-0.000240337
0.000146084
-8.88823e-06
0.000102713
3.19705e-06
-0.00010591
-0.000234204
-1.29441e-06
-5.85839e-06
-8.95494e-06
4.22246e-05
-7.50889e-06
-2.57608e-05
0.000613493
6.82846e-05
1.44782e-05
7.03818e-05
0.000285185
-0.000370045
0.00083644
5.15953e-05
-2.57505e-05
0.000391787
7.19284e-05
-0.000413801
-4.9914e-05
-0.000212214
1.42143e-05
-3.62044e-05
-0.000411663
0.000337275
-0.000178014
0.000252402
2.91443e-05
-1.62683e-05
-0.000886759
-0.00103665
8.8297e-05
0.000957493
-9.1364e-06
0.000224225
-0.000344519
-8.09079e-06
0.000128385
-0.000452044
0.00101585
-0.000584552
2.07505e-05
0.000932773
0.000452136
-0.000616725
-0.000768184
0.000212053
0.000196996
-0.000409049
0.00017036
-0.000112602
-5.77574e-05
-0.000284035
0.00026303
2.10052e-05
-0.000826952
0.000877818
0.000563292
-0.000614158
-9.63344e-05
2.65552e-05
0.00020276
-0.00013298
-0.00117917
0.00113612
-5.27739e-05
9.58298e-05
0.000161128
-0.000273011
-0.000497639
-0.00139247
-3.55524e-05
0.000248846
-0.000394983
-0.000279283
4.93671e-05
0.000624899
-4.2603e-05
-2.05986e-07
4.2809e-05
-1.51119e-05
0.000104051
9.83005e-05
-0.00018724
3.35169e-05
-4.67489e-05
9.64189e-05
-8.31869e-05
0.00012304
-2.32157e-05
-0.000220933
0.000121109
-1.01861e-06
-0.000168858
1.08126e-05
0.000159064
5.2568e-05
0.000597106
-0.000327222
-0.000322452
-2.26663e-05
3.35906e-05
-0.000964118
0.000953194
-0.000655838
0.00116768
-0.000868846
0.000357002
3.03067e-05
-0.00107504
0.00110164
-5.69028e-05
-0.000264823
-2.78171e-05
0.00026578
2.68593e-05
-1.68507e-05
-4.04721e-05
-0.000455312
-0.000229004
0.000154009
0.000395592
0.000396589
-0.000292366
3.4649e-05
-0.000138872
-0.000151196
8.61243e-05
-1.11072e-05
7.61784e-05
-0.000974759
0.000102617
0.000959893
-8.77516e-05
0.000201919
-5.81638e-05
-0.000166655
2.28998e-05
-0.000373312
0.000268182
0.000525435
-0.000420305
-0.000578143
0.000558267
1.15915e-05
3.94506e-05
-5.99971e-05
0.000250299
-0.000208009
1.0278e-05
-0.000122039
-0.000188577
0.000167755
0.000142861
0.000385586
-0.000670506
-0.000542032
-0.000425883
0.000471561
0.00101003
-0.0010557
0.000848606
-0.000170331
-4.88613e-05
-0.000629414
3.85256e-06
5.07024e-06
0.000208696
-0.000217618
0.000216598
-3.66448e-05
-0.000293692
0.000122084
-7.73517e-05
0.00024896
-0.000623137
0.00102708
-0.000733498
0.000329558
0.000155248
-0.000250518
-0.000205214
7.54715e-05
0.000205147
-7.54051e-05
0.000125617
0.000154949
-0.00011462
-0.000165945
6.88016e-05
0.000143251
-6.21243e-05
-0.000146212
0.000189066
1.9271e-05
4.25887e-05
0.000784138
-0.000580774
0.000964673
6.46961e-05
-0.00101259
-1.67787e-05
0.00013435
-0.000263881
-7.39964e-05
0.000203527
-0.00095179
0.000923973
-0.000398067
-3.2489e-05
-0.000259959
3.59105e-05
0.000256537
0.000173595
-0.000202006
0.000176545
-0.000148135
1.32201e-05
-0.000108601
0.00015319
-5.78092e-05
-0.000265181
-5.57167e-05
0.000194622
0.000126276
-9.20506e-05
0.000107081
-5.5221e-05
4.01902e-05
-5.6356e-05
-2.60691e-05
9.29716e-05
-1.05464e-05
-0.000171668
2.24862e-05
0.000134222
1.49603e-05
0.000800766
7.04058e-05
-3.47321e-05
6.46701e-05
-0.000104209
0.000201516
-0.000161977
-0.000131681
-0.00010611
9.14641e-05
0.000146327
-0.000312649
0.000194394
-5.34132e-05
-2.31068e-05
1.03326e-05
-4.35819e-05
0.00112318
-1.83894e-05
3.13296e-05
2.76009e-05
-3.77375e-05
0.00017158
-0.000161444
7.53228e-05
-7.68316e-05
1.31002e-05
0.000201337
3.51271e-05
-0.000110847
-6.07469e-05
-0.00100066
0.00102837
3.30347e-05
8.57711e-05
-1.35385e-05
-7.09029e-05
-1.32967e-06
-0.000816509
-0.000291374
-8.16925e-05
-0.000386735
0.000174736
2.82805e-05
-0.00108169
0.00108176
-2.8348e-05
3.74892e-05
-2.64028e-05
-0.000137573
0.000126486
0.000190575
-3.37151e-05
2.11292e-05
-0.00017799
0.000205158
-1.61938e-05
6.77897e-05
-0.000256754
-0.000355327
0.000300608
1.35899e-05
4.11283e-05
0.00103739
-0.00146063
0.000184666
0.000238579
0.000524111
1.01555e-05
1.16668e-05
-0.000545933
9.13382e-05
9.18579e-05
-0.00101096
-5.23147e-05
-0.000121319
0.000174315
-6.81337e-07
1.35647e-05
0.000173454
-0.00023027
4.3251e-05
1.02412e-05
0.000178054
-0.000184443
0.000842165
-0.000578361
4.48825e-05
-0.000308686
0.000158663
-0.000101472
-0.00017923
0.0001003
-6.60933e-05
0.000170952
7.45894e-07
-1.19264e-05
0.000201756
0.000127735
9.01403e-05
-0.000114735
3.01367e-05
4.9738e-05
-5.07257e-05
-2.9149e-05
0.000751363
9.21316e-05
-4.27285e-05
0.000156933
0.000163103
-0.00113155
0.0011333
9.32851e-05
-9.50284e-05
-0.000462172
-0.000140143
0.00028402
-9.89514e-05
0.000797675
0.000171326
-0.000842479
-0.000126522
-0.000990972
-0.000637034
0.00105359
0.000574416
9.40947e-05
-0.000159942
-3.40718e-05
9.99193e-05
0.000111297
-4.28695e-05
0.000682935
0.000285221
2.04191e-05
-0.000150691
6.44668e-05
-4.27279e-05
5.81399e-05
-7.98788e-05
0.000821644
-0.00103961
0.000355684
-0.000137722
0.000167463
-0.000152405
-2.79037e-05
1.28459e-05
-0.000393936
2.19034e-05
-0.00010456
-0.000746536
0.000851096
4.54897e-05
0.000148291
-0.000156291
-4.38107e-05
1.87352e-05
1.96868e-06
-5.56571e-05
2.63407e-05
-0.000283333
-0.000203282
3.28587e-05
-3.47904e-05
5.06213e-06
3.77886e-05
-0.000234834
0.000191983
0.000151987
-0.000155928
2.07657e-05
-1.68242e-05
-0.000370374
-9.21694e-05
6.86067e-05
-0.00010769
0.000109573
0.000107954
-0.000109837
-6.72433e-06
-8.87301e-05
5.16437e-05
0.000897377
-2.33698e-05
-0.000764887
-0.00010912
-0.000103052
0.00111971
0.000151022
-0.00112112
9.2127e-05
0.00085893
-0.00102641
-0.000262272
0.000429757
-0.000229875
-0.000985528
0.00118654
2.88608e-05
0.000169558
-1.58205e-05
7.22238e-06
-8.21774e-06
-0.000202287
-0.000916215
0.000884001
-0.000269159
0.000301373
0.00126803
7.6547e-05
-0.000315287
-0.00102929
-4.83253e-05
0.000908305
-1.13737e-05
0.000149477
-0.000200186
0.000243867
-0.000193157
0.000127243
4.63522e-05
-4.88361e-05
-0.000139741
0.00012187
0.000364688
-0.000928595
-0.000376985
0.00035379
0.000171778
5.03885e-05
-0.000176676
0.000906257
0.000107998
-0.00017209
-0.000177368
0.000897362
-0.000882854
0.00016286
-0.000239091
-6.31749e-06
5.07132e-06
0.000228739
-0.000222811
0.000118003
-8.15206e-06
-0.000136253
7.35545e-05
0.00010795
-8.12042e-05
1.96488e-05
-0.000112771
-5.13759e-05
-5.88117e-06
7.08218e-05
8.53351e-05
-6.23269e-05
1.99073e-05
-0.000146696
0.000106098
7.68845e-05
-7.86589e-05
0.000150065
-0.000957811
0.000172805
0.000896303
0.000134574
2.89554e-05
-0.000109659
0.000370226
-0.000596493
-0.000571495
0.000797762
1.37768e-05
0.000238292
-0.000875206
-3.41105e-05
0.000916751
1.47365e-05
-0.000145439
5.76298e-06
0.000139676
6.80023e-05
-0.000123659
0.00107467
-0.00125059
-0.000158654
0.000334573
7.26278e-05
-0.000310146
-0.000107001
-0.000822934
-0.000337714
0.000852527
0.000308121
-8.09957e-05
0.00104347
-0.00094803
-1.44448e-05
-1.69914e-05
2.55323e-05
-1.19553e-05
3.41446e-06
0.00011241
-0.000980286
0.000949232
-8.13564e-05
-0.000158786
0.000155272
0.000162177
-0.000332872
0.000247089
0.000944713
-0.000926358
0.000917395
-0.000168405
0.000622449
-0.000605302
-2.07177e-05
0.000574395
-0.000527336
2.65076e-05
-0.000174052
-0.000331976
-0.000907849
0.00031123
0.000171147
-4.39252e-05
-3.48583e-06
-0.000123736
-0.000245547
0.000250134
-4.47496e-05
4.01627e-05
-9.67313e-05
0.00101499
-0.000890751
-0.000158345
0.000311732
0.000119924
-0.000158021
-0.000273636
-0.000148367
0.000162533
0.00111913
7.09308e-06
2.4239e-05
0.00100605
0.000115456
0.000946902
-0.00101093
-5.14266e-05
0.000101893
6.58616e-05
9.36755e-05
-0.000126534
-0.000216261
0.000285794
-6.95333e-05
-0.000191218
-0.000914572
0.000189575
-0.000360466
-8.5691e-05
5.1174e-05
-0.000197031
-0.000248616
-1.55022e-05
8.78662e-06
4.26984e-05
0.00102068
-8.8093e-05
-0.000975286
0.000122235
-0.000216184
0.000192093
-9.8144e-05
-7.83708e-05
0.00104848
-0.000649364
-0.000264757
0.000671365
-1.4345e-05
-0.000886895
0.000127283
0.000869431
-0.00019904
0.0009753
0.000149946
-0.000160029
-0.000965218
-8.11329e-05
7.51016e-05
-5.21326e-05
0.000519137
0.000333993
-0.000584949
0.000195045
0.000897557
-0.000186345
9.49998e-05
0.000129493
-5.33461e-05
-5.82179e-05
9.96272e-05
2.16289e-05
-6.30382e-05
0.000369124
-9.22258e-05
0.000582881
-0.000859779
0.000353452
-0.000111967
0.000514034
0.00122556
-0.000471561
-0.000378656
0.000809993
-0.000883271
-1.89486e-05
-0.00102302
-0.000824188
0.000596616
0.000847
-0.000910935
0.00014719
-0.0010119
4.21745e-05
0.00100488
0.000922949
-9.30975e-05
1.97427e-05
8.36874e-05
-0.000199015
0.00019313
0.000200279
0.00101036
0.000201385
-0.00052595
0.000952785
-0.00125173
-0.000412523
-0.000920643
0.000807216
-0.000614959
0.000873802
-8.41187e-05
-0.000989067
8.76571e-05
1.1709e-05
-0.000142816
5.87924e-05
-0.000935728
0.000662803
-5.905e-05
0.000219749
-0.000251259
5.88326e-05
-2.73228e-05
-0.00110412
-3.85113e-05
0.00106426
-0.000177786
0.000160576
-0.000164808
-0.000135393
0.000198835
0.000101366
-0.000398643
0.000538682
2.4272e-05
-0.000223597
0.000321195
-5.18642e-05
-0.000188141
0.000264277
0.00075584
-0.000106317
-7.51921e-05
-0.00100962
0.000143943
-0.000970601
-7.69348e-05
0.00117031
-0.000122777
0.00024791
-0.000196933
-0.000607693
0.000629287
0.00079225
0.000466938
-0.00114373
0.000165336
-0.000238737
-0.00095846
0.00098217
-2.37095e-05
7.52784e-05
-5.79002e-05
-1.73782e-05
0.000191512
-0.000140202
0.000168438
-0.00104245
-2.37189e-05
0.00106617
-0.000999706
0.00101089
-1.11796e-05
-0.000928153
-0.000120807
-0.000172588
0.000209822
-0.000144923
0.000241104
-0.000870409
-0.00102445
4.16941e-05
-0.00097936
0.00107264
0.000903305
-0.000235974
-0.000922424
-0.000100229
0.000933206
8.94468e-05
-5.18816e-05
0.00010158
9.01873e-05
-0.000139886
0.000995106
1.61983e-05
0.000437719
-0.000977274
4.6997e-05
-4.03238e-05
8.08722e-05
-0.00101597
-3.48164e-05
-0.000893337
0.00101848
-0.000670999
6.53129e-06
-0.00013082
-1.32845e-05
-0.000155276
-6.08261e-05
0.000162529
5.0899e-06
2.02151e-06
0.000214665
-0.000221776
8.98085e-06
0.000324557
-0.000275673
-0.000459428
-7.67207e-05
0.000116068
-0.000290606
3.47702e-05
-5.52582e-05
-3.773e-05
4.88781e-06
-0.000154648
-0.000959452
-0.000403084
-0.000847325
0.000533476
0.000716934
-0.00101615
-0.00104766
-9.39459e-05
5.68317e-05
0.00108477
0.000551069
3.15636e-05
0.00115187
-1.33371e-05
-0.0011701
-0.000678915
-0.000547104
0.000228795
0.000167691
-0.000217838
-0.000178648
0.000976542
-0.00103553
-0.000369918
0.000189441
0.001216
7.34737e-05
-9.11103e-05
-7.90947e-05
0.000173684
-0.00106408
0.00100281
0.000107563
-8.90894e-05
0.000173039
-0.000222989
0.000192663
-0.00134377
-1.86529e-05
0.000276464
-0.000362089
0.000212867
0.00030328
0.0010131
-6.31976e-05
-0.00125318
-0.000177678
0.000166173
-0.000199619
0.000141008
0.000377508
-0.000259645
-1.75363e-05
6.10007e-05
-7.14091e-05
-5.01053e-05
0.000863212
-3.71046e-05
-1.75844e-05
5.67628e-05
-2.07377e-06
-9.54742e-05
4.5168e-05
-3.56693e-05
5.02584e-05
9.88802e-05
-1.23175e-05
7.96106e-05
0.000144082
-6.65682e-05
-6.85325e-05
-0.00029354
0.000288602
0.000108547
-0.000103608
0.000299968
-0.000979506
-0.000210319
-6.38118e-05
-0.000241076
-4.7632e-05
0.000189769
-0.000217188
-9.52084e-05
6.83866e-05
-0.000112111
0.000153298
-0.000265068
0.000237304
-4.89564e-05
-7.53523e-06
-6.96578e-05
5.01281e-05
2.7065e-05
-0.000230603
5.75703e-06
0.000404226
0.000920909
-0.000401161
-8.39018e-05
0.000261485
-0.000331044
0.000153462
0.00107668
5.97031e-06
-8.1483e-05
2.14151e-05
5.40976e-05
0.000184441
-0.000305184
0.000206474
-8.57311e-05
0.000228546
-0.000261233
0.000148755
0.000262372
-0.000108189
-0.000198108
-7.13524e-05
-0.000141525
7.74849e-05
0.000165038
-6.42616e-05
-0.000247472
0.00011162
-0.000103144
-4.74675e-06
0.000141967
0.000105281
3.86276e-05
-8.95684e-05
-5.434e-05
0.00117502
-0.000889205
-0.000243897
-6.31143e-05
0.000137572
0.000118655
-0.000242746
-0.000524854
0.000648945
-7.08696e-05
4.91572e-05
2.17124e-05
0.000105824
-0.000915673
-7.34219e-05
0.000108607
-5.83342e-05
-5.02727e-05
-8.68321e-06
3.41207e-05
-2.54375e-05
-6.49985e-06
-1.17888e-05
1.82886e-05
0.000193407
-0.000160422
-3.29852e-05
-0.000106652
3.45654e-06
0.000103195
0.000101046
-2.3702e-05
-7.73443e-05
-2.46026e-05
4.98714e-05
-2.52688e-05
-0.000181788
0.000148848
3.29395e-05
9.84477e-05
9.49589e-05
-0.000109485
2.83306e-06
-0.000107698
3.68282e-05
9.07217e-05
-7.17088e-05
-1.90129e-05
6.86081e-05
-3.92014e-05
-2.94067e-05
7.05316e-05
-0.00020465
2.28619e-05
2.99825e-06
-5.816e-05
7.48975e-05
-1.67375e-05
1.43943e-05
-2.30775e-05
0.00014013
-3.15228e-05
-3.18061e-05
-2.6094e-05
0.000140799
-8.32032e-05
-5.75958e-05
5.19916e-05
-4.72979e-05
-2.06332e-05
1.59395e-05
-3.18017e-05
5.09921e-05
-0.000138864
0.000116997
-6.15923e-05
0.000147177
-0.000238139
-4.28608e-05
-3.82319e-05
2.48833e-05
0.000242144
-8.11089e-05
2.02129e-05
0.000160523
7.4196e-06
3.29333e-06
-9.21959e-05
1.60122e-05
-0.000327032
-0.00063701
-0.000339136
0.000388179
0.00106207
0.000132228
-4.15065e-05
0.000110396
-3.20549e-06
-0.00010719
-2.02918e-05
7.89445e-06
-8.43839e-06
-6.38507e-05
-2.88079e-05
-1.95687e-05
-6.36345e-05
4.11505e-05
-2.18374e-05
-2.40393e-05
5.73349e-06
-6.40677e-05
-0.000318164
-0.000696811
0.00032635
0.000688625
0.00103921
-0.000267233
2.91025e-05
3.98247e-06
0.000147722
-0.000140919
-1.07858e-05
8.6638e-05
-8.14137e-05
0.000913984
-0.000923639
9.36117e-05
-8.39571e-05
-7.2567e-06
-0.000158044
7.5431e-05
8.987e-05
0.000128895
-6.02869e-05
-9.30871e-05
3.73205e-05
7.71817e-05
-1.71857e-05
0.000141775
6.65155e-05
-6.83042e-05
-4.49206e-05
4.67093e-05
0.00107962
-0.000297111
3.59934e-05
-0.000251069
-7.84648e-05
0.000424428
-0.00108601
0.000964858
5.65785e-05
-2.97724e-05
1.03182e-05
-3.47003e-05
0.000156644
-0.000369074
0.000726464
-5.948e-05
-0.000163845
0.000160496
0.000771737
0.000563508
-0.000457427
8.01358e-05
-8.15444e-05
0.000659327
-0.000370695
-0.000288632
-7.08706e-05
8.71839e-05
1.96587e-05
-3.59721e-05
-0.00012402
-0.000145415
0.000217554
0.000181816
-1.88593e-05
-0.000200437
3.74804e-05
-6.25976e-05
0.000105436
-8.19023e-05
2.44833e-05
-6.65692e-05
-0.00027891
0.000320996
0.000511465
-0.000353016
0.000240218
-0.000398667
0.000254459
-0.000209213
0.000196502
-0.000241748
-0.000273931
7.54641e-05
0.00022295
-5.85479e-05
3.41099e-05
-4.64326e-05
0.000128405
0.000201068
-7.50146e-05
-0.000104111
-0.000106513
0.000136822
7.38029e-05
4.62266e-05
0.000104639
-2.01043e-05
0.000124837
-0.000209372
-0.000259523
5.09234e-05
-0.000141385
-0.000118752
-2.47097e-05
-1.5078e-05
2.50231e-06
-8.70774e-06
2.12835e-05
-0.000323567
0.000138398
5.69821e-05
-0.000112464
7.61457e-05
-2.06638e-05
-0.00027636
0.00030269
-9.28986e-05
8.68339e-07
-4.60401e-05
-5.89397e-05
-4.75482e-05
7.9559e-05
0.000164492
-0.000349722
0.000168709
-0.000100323
-1.10332e-05
-3.17646e-06
-1.30004e-05
-4.40729e-05
3.88037e-05
-1.98098e-05
-1.89939e-05
8.22115e-07
0.000101737
4.39256e-05
-0.000146485
6.91336e-05
-5.11697e-05
-1.71418e-05
-2.89184e-05
0.000118646
9.90694e-05
5.19998e-05
-0.000151069
2.38353e-05
-8.13383e-05
6.00054e-05
3.17824e-05
-1.66549e-05
-3.44108e-05
0.000352857
0.000193019
2.69908e-05
7.13317e-05
-2.91889e-05
-4.20062e-05
0.000318758
-0.000629767
7.83034e-05
-0.000101746
-0.000255467
0.000326294
-0.000492235
0.000123935
-0.000504972
0.00038026
9.0301e-05
0.000182158
-2.90771e-05
0.000199776
0.000140081
-0.000347562
0.000132541
0.000350389
-0.000358241
0.00035771
-0.000349858
0.000117718
-0.000118077
3.58126e-07
-0.000437766
-0.000184967
0.000120945
-0.000555031
0.000448564
-0.000474552
0.000162984
-9.75089e-05
0.000123965
-0.000501008
9.33219e-06
-0.000585292
-9.84849e-05
0.000365613
-0.000647805
0.000272532
0.000496218
-0.00025148
0.000335787
0.000458392
-0.000271947
-0.000260979
0.0002476
2.61779e-05
-1.27988e-05
-4.22734e-05
1.68037e-05
0.000864037
-0.00020471
-3.53758e-05
-0.000359133
-0.000253297
-0.000330412
6.00727e-05
-0.000801294
0.000562875
0.000505424
-0.00074321
0.000455357
-0.000358765
0.000153542
-5.8784e-05
-0.000270153
0.000328937
-0.000254412
-0.000273119
-2.20226e-05
3.41621e-05
-0.000137206
0.00100124
-0.00110013
-0.00112894
0.000211485
0.000158663
1.38592e-05
-0.000334354
-0.000256053
-0.000215449
-0.000158529
0.000193621
0.000180356
0.000194593
-0.000221558
0.000230217
-0.000203252
4.87623e-05
5.03072e-05
2.89524e-05
0.000203032
-8.53133e-05
3.31211e-05
-0.000215713
-1.78454e-05
-0.000665876
0.00068505
0.000543701
-6.71215e-05
-2.70969e-05
-0.000282331
3.63088e-05
-0.000434163
-3.5702e-05
0.000469865
2.7224e-05
-7.93171e-05
9.57505e-05
-4.36574e-05
9.60059e-05
-9.00677e-05
-0.000929577
-0.000115964
0.000136691
6.4968e-06
-0.000401931
-0.000291556
0.000431348
8.27581e-05
-0.000514106
-0.000129409
-0.000122905
0.000145801
-0.000161306
0.000120168
0.000145777
5.04091e-05
-0.000231819
7.98198e-05
-0.000118801
8.92881e-05
-0.000346126
4.88354e-05
0.000297261
-0.000272491
-0.000142083
0.00020843
-0.000151661
0.000206024
-3.73145e-05
-1.89379e-05
0.000224961
7.98539e-05
0.000154624
-5.40888e-05
4.30421e-05
-0.000206897
-5.32619e-05
0.000294904
-2.81497e-06
-0.000113103
0.000161252
-0.000288356
6.82159e-05
-0.000135017
-1.89596e-05
9.00568e-05
8.15514e-05
-9.26526e-05
-3.93851e-05
3.27199e-05
-2.31072e-05
0.000250623
-1.78846e-05
-0.000259836
-0.000255059
-0.000123048
4.01719e-05
-4.0663e-05
-1.90051e-05
1.94963e-05
0.000224133
-0.000181201
-5.48753e-05
0.00011577
-2.90779e-05
0.000111828
-0.00111201
-5.40459e-06
-0.000919471
-0.000328304
2.6928e-05
0.000142688
-0.000267622
0.000228222
-0.000144437
-0.000180968
0.000163835
-0.000168305
0.000185438
-4.71042e-05
0.000154718
4.95347e-05
7.91936e-05
-0.000219658
0.00029497
0.000382307
-0.000457618
-0.000257349
0.00011487
0.000262646
-2.60982e-06
0.000336722
0.000114378
0.000164712
-0.000191815
-0.000131425
-7.65209e-05
-0.000958563
-2.42251e-05
0.000989881
0.000222657
8.40965e-05
-0.000246713
-5.30966e-05
0.000149194
-0.000176376
4.27678e-05
0.000133608
0.000977842
-0.00103062
-0.00016928
-0.000327555
0.00020472
6.91751e-05
-4.99575e-05
0.000162662
-0.00019286
-0.000169699
0.000199897
1.99642e-05
-9.25014e-05
-0.000319687
8.69667e-05
2.2308e-05
-3.79429e-05
9.78128e-05
0.000195084
0.000231843
-0.000187702
0.00011852
0.000377458
-0.000189657
4.95593e-05
-7.80605e-05
5.02004e-05
-2.16992e-05
-0.000180177
0.000115601
0.000108502
-0.000855968
5.42756e-05
0.000131989
4.91066e-05
-0.000130104
-0.000323918
0.000116979
-7.03275e-05
-4.71611e-05
0.000117489
-0.000133393
3.82141e-05
8.79217e-05
0.000211512
-0.000299181
6.83015e-05
-3.69823e-05
-0.000176263
4.47442e-06
-8.81696e-05
0.000198035
0.000192825
-0.000106262
0.000235721
-2.50372e-05
0.000237505
-0.000986244
-0.000290482
-2.4338e-05
-0.00073926
1.9277e-05
9.41684e-05
8.76507e-05
8.71624e-05
7.1196e-05
-0.00014682
-1.15386e-05
-8.27993e-05
0.00018489
-5.25572e-05
-3.80633e-05
0.00108854
7.27573e-06
-1.13638e-05
-0.00105335
-3.18512e-05
-0.000170195
0.000340262
0.000350012
0.000422294
-0.000246871
0.000251218
0.00124807
0.00109243
0.000150735
0.000184248
0.00109762
0.000254972
6.88542e-05
-5.17229e-05
7.76052e-05
-9.77415e-06
-7.79561e-05
-0.000917836
0.000108865
-2.02155e-05
6.65677e-05
-8.3541e-05
5.28232e-06
-2.9576e-05
-1.37697e-05
-0.000359925
9.7895e-05
0.00016992
-9.17234e-05
-0.000133953
0.000103879
0.000226039
0.000145053
-0.000290651
-0.000101115
9.06629e-05
-0.000119176
-8.46873e-06
0.000792796
-0.000149963
-0.000610251
-3.25823e-05
-0.000717079
0.000667307
0.000287276
-0.000126236
-4.86571e-06
-1.53832e-05
-0.000102258
7.04038e-05
-6.58542e-05
0.000121338
-0.00021968
0.000295397
0.000145584
-0.000982548
-7.23599e-05
0.000514236
-0.000477578
-6.40989e-06
0.000156758
-0.000169286
0.000141869
0.000167767
0.000183681
0.000219332
-0.000358721
-0.000155214
0.000385716
0.000128219
0.000229751
-0.000224491
-0.000140926
0.000148194
0.000138817
0.000359379
0.000335647
-0.000510584
-7.42698e-06
7.28345e-05
0.000851401
-0.000206924
0.000149991
-0.000301788
8.39153e-05
5.70765e-05
-0.000247187
-0.000118924
0.000273212
-0.00100457
0.00103728
-0.00028133
5.68498e-05
7.20272e-05
0.000111234
-1.1912e-05
-0.000240248
-0.000181503
3.60646e-05
-0.000964032
-0.000198882
-3.10951e-05
0.000242624
-0.000370086
0.000788886
5.27116e-05
0.00102566
-0.000991379
-0.000116028
0.000127235
0.000100027
-0.000114744
0.00020791
-2.34537e-05
-2.79095e-05
6.94392e-05
-1.8076e-05
-0.00030788
-0.000152107
-5.86499e-05
8.45207e-05
-1.29507e-05
-0.000152931
-0.000208233
0.000257207
0.000219071
0.000182848
-0.000465536
-0.000180666
5.27253e-05
-0.000163342
-2.42049e-05
9.66708e-05
-0.000141975
-2.328e-06
0.00018026
-0.000146721
0.000978191
-0.00122825
0.000257331
0.000293885
-0.000127611
0.000720345
5.66102e-05
0.000944759
0.000278346
-0.000100614
-0.00112249
-8.46184e-05
-0.0001956
0.000106528
0.000133417
7.99194e-05
-9.3009e-05
5.33872e-06
7.75093e-06
0.000126889
-0.000138087
0.000148025
-0.000136827
0.000132844
-0.000137636
0.00133101
9.91265e-05
2.89417e-05
3.5973e-05
0.00132636
-0.000231157
-0.000233149
-2.11903e-05
8.0615e-05
9.35028e-05
3.0456e-05
-0.00102904
8.0787e-05
0.000137343
2.39113e-06
8.86802e-05
1.54568e-05
-0.000966389
-0.00115597
0.000724846
0.000467219
-9.2664e-05
0.000282028
0.000253424
-0.000375331
-0.000160122
1.09194e-05
-4.35933e-05
-0.000132783
5.38964e-05
-0.000134087
0.000152212
1.11179e-05
0.00023391
8.38965e-05
-0.000176168
0.000122634
0.000213504
-1.51422e-05
-0.000237801
-0.000104283
0.000189153
-3.59264e-05
-5.94472e-05
-0.000145955
1.13697e-05
0.000124438
0.000134276
5.87253e-05
7.09864e-05
-0.000214745
-0.000362264
8.43319e-05
-9.43442e-06
-6.4594e-05
4.23196e-05
0.00085933
0.000122219
-0.000146017
-0.000812515
0.00025541
8.07272e-06
-1.04747e-05
0.00046215
0.000402934
0.000137547
0.000119142
0.00108397
-0.000531764
-2.77415e-05
-0.000251258
0.000180323
6.28443e-05
7.21413e-05
-3.90216e-05
8.83929e-05
0.000395218
-0.000392439
-0.000237386
0.000149818
-0.000726339
0.000676571
4.97679e-05
4.95224e-05
-2.25713e-05
-6.29232e-05
-0.00019939
0.000311042
0.000200081
0.000888783
0.000133407
-0.000788716
6.23765e-05
5.275e-05
0.00106834
-9.00205e-05
-0.000946444
0.00101224
-0.000214372
0.000386584
2.24747e-05
-0.000194687
0.000147109
0.00013359
-0.000175418
5.82767e-05
0.000618295
0.000579502
-2.57642e-05
-0.000619879
6.61413e-05
0.000132189
-0.000107203
0.000135729
-0.000160715
-0.00022951
4.49957e-05
0.000184515
6.27005e-06
0.000190017
2.42955e-05
-0.000257173
-0.000133145
-4.83583e-05
-0.000274446
4.49353e-05
-0.000317315
0.00019011
-0.000229836
-0.000174646
-0.000889995
-0.000164454
4.61767e-05
-5.79858e-05
-0.000147128
8.61514e-05
-1.70139e-05
9.61977e-05
-0.000112627
0.000169733
4.32109e-05
-8.72599e-05
0.000394045
0.000538728
-0.000201013
5.7158e-05
0.00017992
-0.000485891
0.000470159
1.57317e-05
8.30017e-05
-0.000871717
8.89981e-05
-0.000114581
0.000175004
0.000168027
0.000146545
0.000858643
-0.000360044
0.000394776
-0.000420526
0.000143025
8.60174e-05
0.000189191
-6.53211e-05
0.000878146
-0.000195232
0.000356294
-0.000958403
0.000656654
0.000631307
-0.00105899
-5.0866e-05
0.00061329
0.000344408
-0.000274027
-0.000628224
0.000543924
0.000505813
-0.000582799
0.000313002
0.000525891
-0.000264318
-0.000382694
-0.00020682
0.000333462
-4.76405e-05
5.03755e-06
-0.000620115
0.000728407
-0.000505933
2.00422e-05
-6.84945e-05
-1.99171e-05
0.000334318
0.000370649
-3.38203e-05
5.98707e-05
5.15548e-05
0.000320381
-0.000284756
9.25941e-05
-7.72931e-06
-1.69804e-05
0.00046035
9.80959e-06
9.8885e-05
5.1804e-05
-7.07696e-05
8.41188e-05
3.02669e-05
-9.36018e-05
-0.000124251
-0.000371211
0.000190277
-0.000165125
-5.55822e-06
0.000119937
-0.000444081
-1.1041e-05
0.000108751
-2.53285e-05
-0.000112179
-0.000478872
0.000100845
-9.35343e-05
-1.25009e-05
5.08218e-05
0.000345825
6.29484e-05
-3.45536e-05
-9.10799e-05
-5.18621e-06
-0.000916501
0.000171623
-0.000122256
9.14546e-05
-0.000169593
0.00101347
-0.000959699
8.05016e-05
3.64457e-05
-0.000243697
0.000108932
0.000120392
0.000237149
-0.00108225
3.18826e-05
0.00013462
3.05157e-05
0.000114985
8.27921e-05
-2.80442e-05
0.000923816
0.000125543
-0.00014778
0.000101402
-6.61728e-06
9.09492e-05
0.000170229
1.05659e-05
-0.000933844
0.000629825
6.5283e-05
-1.68992e-05
-0.000245298
2.31064e-05
-0.000251956
-0.00011195
3.92118e-05
0.00111319
7.0709e-05
-0.00107644
-0.000331568
0.000373498
9.01189e-06
9.37946e-05
7.10812e-05
-0.000104665
0.000167934
0.000504408
-0.000727848
0.00022344
0.000437752
6.66554e-05
0.000449367
-1.16143e-05
-0.000308881
0.000465525
-0.000677954
-0.000601407
-0.00050308
-9.83274e-05
2.5963e-05
-3.96858e-05
-4.47379e-05
6.82934e-05
-0.000937411
-0.000121144
0.000179248
0.000134439
0.000252753
7.51416e-06
-9.15113e-05
-4.06633e-05
-3.33969e-06
-2.41374e-05
4.39962e-06
-3.47444e-05
-0.000247692
0.000262144
-8.79164e-05
-2.21905e-06
-3.21249e-06
6.17083e-06
0.000427814
0.000807363
-0.000201658
0.000218732
-8.98368e-05
0.000233505
4.44936e-05
-0.000143379
-0.000220345
-0.000992285
0.000137685
-2.43212e-05
0.000210202
-0.000475481
-2.75983e-05
0.000359055
-0.000157341
-0.000659141
0.000121106
4.42459e-05
0.000399807
-0.000107763
6.77786e-05
0.000123607
-6.18322e-05
3.48965e-05
9.78983e-05
-0.001147
0.00103577
-3.66284e-05
3.77531e-05
6.46652e-06
0.000220079
-0.000264299
-0.00019508
0.000167933
2.09839e-05
-3.27726e-05
-0.000179336
6.1327e-06
8.10662e-05
-0.0011831
1.82915e-06
0.000680142
-0.000382118
0.000134047
-7.35904e-05
0.000233663
0.000234755
-0.000151968
-7.44395e-05
-7.73225e-05
3.98115e-05
-0.000113395
9.76052e-05
-0.000123132
-8.70195e-05
8.3216e-05
-2.00955e-06
-0.000607378
-0.000342643
-0.00014295
-0.000164173
-0.000159509
-1.77237e-05
6.47686e-05
-4.91359e-06
-5.85009e-06
7.424e-06
0.00100018
-0.000492421
0.000304106
0.000152405
-0.00011303
-0.00023348
-5.52902e-05
0.000227945
-0.000800132
0.00111932
-0.000120488
0.000230845
-1.7236e-05
0.000167386
-5.10344e-05
-3.8456e-05
-2.94738e-06
0.00103754
4.67699e-05
3.4259e-05
-6.25319e-05
-0.000194554
0.000244392
-0.000185944
-0.000251764
0.000113349
-0.000862029
4.22408e-05
0.000451374
1.79682e-05
-8.70609e-05
0.000186388
0.00108407
7.14406e-05
-0.00010793
0.000109715
-0.000417278
-4.15519e-05
-0.000284892
0.000183001
0.000394554
0.000285717
-0.000237456
5.78375e-05
0.00029325
1.93258e-05
0.00026949
-0.000266014
0.000182599
-1.09754e-05
-0.000204842
0.000189021
-0.000963483
0.00103098
-0.000248136
0.00018064
0.000106553
3.6202e-05
7.98003e-05
2.29128e-05
-0.000143244
-0.000247025
0.000397141
-0.000349577
0.000151591
-2.64118e-05
-0.000270023
8.06254e-05
-4.28426e-05
-4.84349e-06
-4.98865e-05
-0.00115075
0.000104644
0.000399552
-0.000182441
-6.3415e-06
-0.00011799
-0.0010676
0.000966616
1.92246e-05
-1.94115e-05
0.000990068
0.000329898
0.00055795
-0.00048129
-7.66604e-05
-7.42686e-05
0.000194896
0.000156773
0.000190575
-0.000204867
0.000182059
-0.000899506
0.00090978
-0.000193924
5.74992e-05
-0.000153062
9.59505e-05
5.71117e-05
0.00020243
-0.000230877
4.9368e-05
3.99763e-05
5.59742e-05
-0.000236735
-0.000222521
0.000319073
-0.0010626
-0.000196013
3.67972e-05
-1.96048e-05
5.41999e-06
-0.000254186
0.00025061
9.74212e-05
-1.96722e-05
-7.77491e-05
-0.00010329
-0.000147312
-0.000235306
-1.02183e-05
-0.000157148
7.27948e-05
2.51473e-05
-0.000513728
0.000369175
9.39091e-05
-6.09765e-05
-0.000178401
-1.76123e-05
0.000235771
0.000132017
1.07939e-05
0.000313223
2.17169e-05
3.91197e-05
-6.32256e-06
-7.53377e-05
1.78096e-05
3.86601e-05
-3.19715e-05
-3.77288e-05
4.01244e-05
0.000115634
-1.82133e-05
-0.000167106
-1.12951e-05
3.5887e-05
0.000134462
0.000211877
-0.000184952
8.49168e-06
2.74465e-05
-0.000178233
-0.000179224
7.93176e-05
0.000448027
-0.000100888
-0.000143044
0.000228277
-0.000256164
0.00014055
-2.49159e-05
-0.000106336
2.17208e-05
0.00105232
-9.92807e-06
-0.00101353
-1.15459e-05
-0.000137795
0.000663576
-1.74817e-05
0.000105708
-0.000237419
-4.59139e-05
5.19244e-05
-2.80623e-07
0.000356323
3.89718e-08
3.422e-05
-0.000203548
0.000239435
-6.9071e-05
0.000280948
0.00140134
-0.00113215
0.000163157
-0.000924461
-7.51684e-05
7.24651e-05
-3.16526e-05
0.00025429
-0.000180468
0.000554259
-0.00072459
-0.00012643
9.07829e-05
1.53124e-06
0.000117563
0.00020748
0.000458319
-8.07196e-05
-0.00088571
-0.000278499
7.36005e-05
-0.000365018
0.000396777
-8.05504e-05
0.000588479
0.000925615
-0.000266022
8.64016e-05
-0.000107161
5.99635e-05
-2.53961e-05
-2.48696e-05
0.000679843
5.44235e-06
5.40966e-05
0.000193175
-1.0576e-05
-2.9019e-05
0.000139203
-5.3303e-05
-3.14905e-05
0.000177802
-1.41449e-06
8.62921e-05
-2.80278e-05
1.97019e-06
2.34498e-05
-0.000165676
0.000129092
7.31145e-05
-0.000268128
9.88357e-05
0.000133069
2.53508e-05
0.000908801
-0.00091842
5.17105e-05