/*--------------------------------*- C++ -*----------------------------------*\
| =========                 |                                                 |
| \\      /  F ield         | OpenFOAM: The Open Source CFD Toolbox           |
|  \\    /   O peration     | Version:  v1912                                 |
|   \\  /    A nd           | Website:  www.openfoam.com                      |
|    \\/     M anipulation  |                                                 |
\*---------------------------------------------------------------------------*/
FoamFile
{
    version     2.0;
    format      ascii;
    class       volScalarField;
    location    "0.4";
    object      k;
}
// * * * * * * * * * * * * * * * * * * * * * * * * * * * * * * * * * * * * * //

dimensions      [0 2 -2 0 0 0 0];


internalField   nonuniform List<scalar> 
1466
(
0.633953
0.888766
0.439242
2.21938
0.333231
0.778056
1.02932
1.16653
0.273508
1.08734
1.42952
1.03503
0.212953
0.274343
1.30361
2.31002
0.868744
1.10364
2.54727
1.69415
2.68043
2.47958
1.96046
1.47908
0.242826
0.720629
1.59241
2.0583
0.237584
1.35933
1.65781
0.708324
0.523751
3.25473
1.93635
1.43051
2.96161
0.980716
1.37623
0.575448
0.629171
1.16514
1.28191
0.567339
0.475887
0.899073
1.37641
0.22211
0.918535
0.21482
0.462148
0.8959
0.746857
0.27472
0.464508
0.27115
0.717224
1.26866
0.390128
1.10762
1.21891
1.24481
0.70613
1.08486
2.24633
1.16139
3.94386
1.65119
0.795955
0.399493
2.31554
1.4056
1.04866
0.257256
0.893519
1.38458
1.21483
0.666004
0.333197
1.65721
1.35122
2.07134
0.459445
1.7647
2.40964
2.99088
3.08028
1.5621
1.33624
1.18521
0.911196
1.54828
2.53821
0.587667
0.826687
0.454742
0.824935
1.26673
0.275999
0.189738
0.628178
0.339203
0.202649
1.20653
1.49235
1.43464
0.78659
0.243765
1.30702
0.66036
1.08373
1.7026
0.720021
1.15609
0.97104
1.33633
1.30981
0.864795
0.870326
0.723025
2.97394
1.27521
0.786387
0.574174
0.431596
1.30825
1.03088
1.97819
1.4732
1.25157
1.19688
1.09142
1.83014
1.39996
0.990036
0.624258
0.575453
0.716298
0.700773
0.61765
0.284812
2.27985
2.06696
2.01025
2.65227
3.71563
0.704509
1.00591
1.56758
1.83788
1.00268
1.12054
0.920577
0.583267
1.44168
2.4223
1.87367
2.73207
0.75217
1.03259
0.675581
1.37102
1.45883
2.2498
3.11539
1.82332
1.8532
2.28574
2.47528
1.14937
2.63999
0.501054
0.198416
0.835902
0.594419
0.262258
1.17424
1.61522
0.994527
2.36745
0.273713
1.13466
2.85536
0.157115
1.55172
3.10296
2.49449
1.24671
0.8171
0.564619
2.83347
1.29683
2.61463
4.10244
0.940126
1.20896
0.321238
2.33319
3.07213
4.10055
1.88176
1.40724
1.19608
1.60634
2.01394
3.02425
3.14703
0.765966
0.742653
1.62727
2.28371
2.25426
2.64454
2.44107
2.86389
2.20975
3.17637
2.59651
1.47644
1.70473
2.17234
1.36766
2.31336
1.3687
2.40093
2.34056
2.13309
0.279064
0.996361
1.33542
1.75419
1.60105
4.4159
4.18106
0.6847
2.65276
1.98809
2.17236
1.01346
2.78012
1.12333
1.6
1.06216
4.16905
0.844988
1.25093
0.703854
0.254346
1.73086
0.94075
3.05914
2.46669
0.699229
1.53643
0.508182
0.98729
1.7518
0.354825
1.34962
1.65671
1.16703
1.74379
1.36283
1.302
1.58227
0.160055
0.637227
1.50778
2.55633
0.370489
1.71177
1.50761
0.858876
0.744723
0.942431
1.51914
1.17877
1.65778
2.5728
1.61157
1.16757
2.47808
2.10177
1.40639
2.95368
0.20524
1.67302
1.6317
0.227104
0.567136
0.607306
0.571602
0.245165
0.173619
1.29024
0.672393
1.97659
0.331552
1.64427
1.19808
0.266731
1.5915
0.220594
0.267537
2.61723
0.539199
0.905653
0.626096
1.02671
3.71513
0.806101
2.70982
1.73967
1.29357
1.47241
1.21873
3.52658
0.921437
0.403735
1.36968
0.650384
1.70251
1.40008
1.08755
2.89388
0.493986
0.247589
0.931088
0.953064
1.41389
1.89641
0.524609
0.572001
1.0642
2.39657
0.380333
2.55269
0.99698
0.881078
1.02247
0.565316
0.834512
0.788343
1.53951
1.24307
0.223261
1.34274
1.06138
0.875975
2.28133
0.751198
0.350131
1.65999
3.17249
3.27257
3.06449
2.05641
0.373507
0.287153
1.06146
3.22376
2.71067
1.98921
2.16189
0.422678
4.57064
0.742239
0.71223
0.969616
1.17437
0.990875
3.27385
1.2162
0.942711
0.62497
2.95456
1.48774
1.2334
0.789489
1.51315
2.63308
1.9527
2.78215
2.80799
1.80911
1.91757
0.706272
0.686738
0.572292
0.34879
0.713842
1.09231
2.19257
1.03028
1.46124
0.59511
0.21205
1.24149
1.25422
0.32677
0.182922
0.174812
1.38891
0.276029
1.20212
3.58897
1.51933
0.998881
3.63051
3.40952
1.14484
1.7268
2.04073
3.59478
1.62795
0.270585
0.252446
1.31102
1.42228
1.08928
2.93575
3.10912
1.20105
1.99178
1.48342
0.705921
2.24003
1.19695
1.40778
0.675008
1.97714
0.82432
1.35908
1.94734
1.3417
0.2388
0.243287
0.288396
0.296504
1.93106
0.232457
0.289971
1.95149
0.291406
1.35364
1.05526
0.568864
1.4454
0.922544
1.87073
1.50112
0.78495
0.200656
0.312864
0.980026
0.301444
0.585857
0.938715
0.24665
1.4582
0.552769
0.642093
0.584397
1.60575
1.75515
0.947548
1.04352
0.624489
0.419411
1.12402
0.453105
0.883472
1.92453
0.252049
1.50852
0.975405
0.689298
2.53221
4.35051
2.52717
1.10005
2.35963
2.35618
4.07708
3.50585
0.65117
0.917314
0.630844
3.67762
2.14707
3.85835
1.98614
0.735644
0.99572
1.55951
1.18326
2.26787
1.68913
1.24334
2.64965
2.74834
3.45616
1.44698
2.68536
0.505066
2.82913
1.46087
1.63226
0.835133
1.60654
1.2978
3.09864
1.80997
1.71731
2.20365
2.42656
0.566228
0.294142
0.496614
0.974686
2.58244
0.465927
4.34546
0.763994
2.74286
0.604133
0.437957
1.86756
0.604809
3.81157
0.586419
1.86453
3.60553
1.08983
1.55964
0.443311
0.950182
1.58774
0.750015
2.29788
0.615486
2.91653
0.661065
1.86707
0.681627
0.902315
0.850533
0.666006
3.76225
1.62326
3.02111
0.859266
0.546712
1.59922
1.78289
1.8703
1.65589
2.45309
1.11996
0.507037
3.61853
3.66088
1.29257
1.00488
0.412001
1.75774
1.01164
4.28772
1.6438
3.46873
2.99531
4.24116
1.14809
1.4683
1.03093
3.03107
0.351173
2.96764
1.56841
1.8403
2.0491
3.42384
2.25153
2.58841
2.80388
1.70232
2.99859
0.294466
1.26373
2.00402
3.03866
0.753944
2.62676
2.28263
3.20647
2.16364
1.9844
1.35871
1.29493
2.19123
1.18996
0.421877
0.423499
0.889511
4.80565
2.82749
1.36427
0.237061
1.62406
3.38876
0.980471
2.36684
0.644727
0.95419
2.27597
0.896365
1.44906
0.761566
0.652459
3.00075
0.840478
0.306701
1.25622
0.538414
0.820103
2.38718
2.30984
2.88846
3.30965
2.97027
3.0601
0.63504
0.676228
0.454349
3.03305
0.378872
2.81825
2.48941
1.57746
2.20797
3.92684
1.64319
1.47555
1.4189
3.73918
0.424419
2.91991
3.63656
1.4169
0.79793
3.16634
0.326543
1.16657
0.453789
4.23932
3.67187
0.792618
1.97652
0.958448
0.241591
4.4131
1.72578
0.323214
0.428942
3.99818
1.12901
2.06027
1.3888
1.55923
0.683154
0.666041
0.967209
2.31907
0.386435
1.88003
0.266871
1.64662
0.477466
0.833829
0.543183
2.12124
0.672451
0.632127
4.01546
0.351683
3.31529
0.440772
0.201965
1.75645
0.245171
4.00857
0.524572
0.473673
1.24291
0.376521
0.196497
1.1929
2.93816
0.455207
2.47876
3.79456
0.417224
0.218331
0.965199
3.27181
2.90834
1.22127
0.502445
0.201144
3.07179
1.1653
3.4134
0.539016
1.67103
3.99062
2.31836
0.992849
2.99467
3.35567
1.60138
1.2162
2.97251
4.07658
1.49153
2.12286
3.70212
2.15852
0.657607
1.3067
0.237689
2.79954
2.01244
2.82634
0.272405
3.46724
2.63238
1.27608
2.72369
0.291342
3.55664
2.9931
1.75876
3.49895
0.219
0.582011
1.18755
0.503723
0.39647
1.48662
1.14219
2.12675
1.96261
0.706573
0.250168
2.26265
2.82598
3.19843
2.25913
0.408532
2.22919
2.33583
0.496966
1.5973
1.44163
4.39917
1.19717
1.99843
2.17012
2.19183
2.99209
1.26271
0.84891
0.855088
1.32531
2.37092
2.7445
1.24435
0.317642
1.18401
1.74226
0.970893
0.940245
2.17962
0.937786
3.73466
0.26492
1.64458
2.60692
3.05627
1.1427
1.83954
3.97477
2.59606
0.621743
1.24328
0.460175
3.45134
1.45853
0.534202
0.528942
0.841789
2.35241
3.54146
0.620676
0.846842
0.213603
0.283377
0.39019
2.45122
2.30361
1.31471
1.89455
1.97092
1.39542
1.76352
0.602789
2.27917
2.08901
0.957305
2.94368
1.8321
3.09416
0.599577
1.66719
0.832444
1.42528
2.25415
0.382224
0.491807
1.91358
1.70512
2.27421
1.1472
3.79549
0.843706
1.0041
0.738876
0.279767
0.812391
1.05968
1.44845
3.63746
3.53455
0.736365
3.18757
1.23751
0.517997
3.38501
1.05109
1.85917
2.98805
1.28909
2.19204
1.12579
1.74601
1.20282
1.51429
0.851301
1.62358
2.2228
3.93949
3.36757
0.303673
1.01738
0.750055
0.794479
2.18325
2.53746
1.26231
1.36276
2.1889
0.528054
2.37339
0.758497
4.53112
0.698061
3.54816
1.16178
1.19144
1.12389
1.18652
1.18496
1.23339
1.15189
1.59778
1.60551
1.71528
1.62602
1.56315
1.52499
1.55743
1.50144
1.82209
1.21676
1.36777
1.9005
1.90027
1.62439
1.76821
1.48607
1.47009
1.45364
1.08683
1.71412
0.219011
0.259022
2.70196
0.75253
0.534274
0.660186
0.274986
1.25151
3.68605
1.90329
3.74153
0.937217
0.487649
0.373355
1.74654
0.680777
2.57063
1.32973
2.1888
1.35197
1.07369
4.18739
2.59452
1.41184
1.08695
0.617375
0.282763
0.223766
0.25802
0.969697
1.56181
2.47133
3.29386
0.380545
0.597665
1.34798
0.645776
0.756384
0.658738
3.51359
1.30412
0.727826
1.26591
1.14967
0.89376
0.449425
2.18632
1.39616
1.68632
2.73529
2.18398
2.96148
0.691896
1.87193
2.82485
1.28191
4.1368
0.812495
1.33346
0.532298
1.9128
3.07487
0.181333
1.47863
1.14256
2.65146
0.243937
2.62746
2.62582
2.59431
1.25573
0.787145
1.60283
2.362
0.969164
0.86606
0.606321
2.07121
2.89255
3.51079
0.493935
1.37003
3.73086
1.07215
3.44795
1.69218
0.593675
0.258074
1.57131
1.31229
3.24502
4.88615
1.61464
2.68568
0.278286
0.578996
2.35504
2.10422
3.50973
0.378951
0.950135
1.41668
0.734731
0.232863
1.4999
0.250013
0.916548
2.6153
0.244256
0.232483
1.90387
0.333214
2.67801
1.17818
1.05772
3.59634
1.06898
1.56781
3.10246
1.92665
3.11372
1.20167
0.990983
2.10565
1.5579
0.890649
1.43122
3.02753
1.67214
0.543975
0.967957
2.37012
1.3405
0.855507
2.74296
0.25029
1.67926
0.59206
0.68063
0.480065
0.548037
0.568743
0.910194
0.331731
1.29458
3.93755
1.11618
0.689101
0.679094
2.32193
0.622247
0.504129
1.24527
3.32518
0.927376
0.640236
0.683865
0.272096
0.472573
0.570183
0.526025
3.25615
1.12595
1.06437
0.824444
0.101302
2.47305
1.5788
0.294787
0.622756
0.302733
0.774894
0.261521
0.303174
0.304434
0.949651
0.575769
0.254374
1.34216
0.279242
0.295085
0.286406
0.283903
0.657136
0.695347
0.260411
0.28117
0.302064
0.30592
0.800892
3.83973
2.33597
1.24793
1.19503
2.35963
3.73781
1.36441
1.26111
1.02579
2.00348
1.46248
0.759115
0.441666
2.87527
1.49004
4.02311
2.43306
0.210269
3.42239
1.05388
1.46429
0.722178
1.92576
1.65005
3.05141
0.413033
2.39128
1.68755
1.90239
1.01181
1.31661
0.248273
0.742148
0.965427
1.48226
1.43842
1.30544
1.5459
1.66149
0.669581
0.716643
1.15897
1.30333
2.28345
3.10024
3.54654
3.75585
0.532885
0.241518
1.32908
1.6334
1.47887
0.993546
0.597532
0.673056
1.09454
3.54832
0.731857
0.799201
3.42461
0.498277
0.399112
0.794764
1.52212
1.20406
3.68428
0.514725
1.86555
1.27318
1.01508
2.25044
4.44986
0.945681
3.35359
2.79799
0.828119
1.51474
1.60912
1.0963
0.558705
0.485961
3.02547
1.47258
3.24225
3.13034
3.6868
4.55514
0.771324
1.30032
2.07636
1.74705
1.72797
3.58392
0.732067
0.490051
1.76138
2.18513
0.364895
3.41349
1.73382
1.345
1.35119
1.21683
0.502181
0.731905
0.83375
1.41893
0.524582
0.889672
1.0204
0.957904
1.28762
5.02528
0.261704
0.699574
0.974411
0.433032
0.602428
1.36054
1.07033
0.662141
0.245714
1.49091
0.793975
2.10978
3.63728
3.54653
0.444571
1.40631
0.246342
3.27292
1.28049
0.261188
1.86835
1.26979
3.04746
3.29578
1.69186
1.72532
1.35943
0.630279
0.41637
3.00135
0.585707
0.283154
1.55843
0.271122
3.33228
0.804221
1.72306
0.540923
3.18627
1.7638
0.234826
3.7367
0.931228
0.250001
3.14646
2.7182
1.24766
1.65731
0.866067
3.59786
1.09973
2.79681
0.673734
1.34176
1.40486
2.51728
1.87119
3.81183
4.46099
1.33679
2.00842
1.75
2.81366
0.242784
1.02696
1.43162
0.242318
3.72212
0.46857
1.53691
3.38372
0.97607
3.05775
1.59083
0.246163
1.1183
1.22366
0.453902
0.79642
0.757637
0.815563
1.04341
4.89194
3.79359
2.12765
1.25649
0.387761
0.531856
1.08319
1.14852
2.15398
0.821175
1.91453
2.12158
3.41261
1.93832
1.43485
3.17727
0.249652
1.70712
3.08338
2.34633
0.755883
0.845526
0.528097
1.14031
0.619985
1.03266
1.26039
3.27803
0.293482
0.26337
1.58884
1.08557
1.56376
3.50276
2.54434
0.23402
1.70728
0.537228
0.251807
0.29501
0.446151
0.645057
4.60182
0.247209
3.44273
0.753046
1.1096
0.445817
0.228722
3.09296
0.267809
0.710308
1.40652
0.712875
2.94024
1.13931
2.04021
1.47035
1.21157
0.910273
0.872277
0.822247
0.958405
1.03881
2.96785
0.202872
1.47689
1.59429
1.18785
1.49722
1.37081
3.70183
0.841635
1.27213
0.653583
1.26655
3.33674
1.21301
0.432241
0.173987
0.276398
0.623436
2.32799
1.5353
1.71713
1.67585
1.42253
0.770192
3.45865
2.06153
1.77403
1.50366
0.985458
2.0387
3.47654
0.488209
0.95192
2.32986
0.709417
3.19037
1.10919
1.62388
2.89745
1.73942
2.51993
2.39729
1.7333
2.49243
0.493084
0.791732
0.630391
0.268046
1.25834
0.599339
2.0788
1.18353
1.80567
1.44209
3.00131
1.96424
2.9281
0.657828
3.67026
3.4229
1.07252
0.389777
3.27846
1.22545
0.917657
0.920161
1.5325
1.10904
2.62849
1.2917
0.907792
0.652721
0.288835
1.60286
1.95053
1.51403
0.933473
1.84765
1.31626
0.692795
1.65715
0.272127
0.360925
1.25714
1.35278
0.388526
0.471358
0.862745
0.354617
0.842409
1.90327
0.68821
0.32496
0.92399
1.98708
1.00591
1.01065
0.642762
1.1288
0.287297
0.263791
0.267755
0.591014
0.779036
0.527999
1.79113
0.211665
0.17688
1.54023
0.386641
0.952723
0.627332
0.781023
)
;

boundaryField
{
    frontAndBack
    {
        type            empty;
    }
    wallOuter
    {
        type            kqRWallFunction;
        value           nonuniform List<scalar> 
108
(
1.10364
1.4056
1.04866
0.220594
0.223261
0.351683
0.440772
0.201965
0.245171
0.376521
0.196497
0.455207
0.417224
0.218331
0.201144
0.237689
1.27608
0.503723
0.39647
0.317642
0.283377
1.31471
0.279767
0.517997
1.16178
1.19144
1.12389
1.18652
1.18496
1.23339
1.15189
1.59778
1.60551
1.71528
1.62602
1.56315
1.52499
1.55743
1.50144
1.82209
1.21676
1.36777
1.9005
1.90027
1.62439
1.76821
1.48607
1.47009
1.45364
1.08683
0.259022
0.487649
1.41184
0.223766
1.14967
1.33346
0.532298
1.37003
0.950135
0.232483
1.06898
1.20167
0.990983
0.59206
0.548037
0.331731
0.622247
0.472573
0.570183
1.12595
0.101302
0.101302
0.294787
0.302733
0.303174
0.304434
1.34216
0.279242
0.295085
0.286406
0.283903
0.657136
0.695347
0.260411
0.28117
0.302064
0.30592
0.800892
1.26111
1.02579
0.210269
0.722178
1.01181
1.31661
0.731857
0.799201
1.27318
1.01508
0.793975
0.242318
1.08319
0.821175
0.26337
0.537228
0.247209
0.173987
0.276398
1.42253
)
;
    }
    inlet
    {
        type            fixedValue;
        value           nonuniform 0();
    }
    outlet
    {
        type            zeroGradient;
    }
    wallInner
    {
        type            kqRWallFunction;
        value           nonuniform List<scalar> 
126
(
0.980716
1.37623
0.575448
0.629171
1.16514
1.28191
0.567339
0.475887
0.899073
1.37641
0.22211
0.918535
0.21482
0.462148
0.8959
0.746857
0.27472
0.464508
0.27115
0.717224
1.26866
0.390128
1.10762
0.333197
0.454742
0.824935
1.26673
0.275999
0.189738
0.628178
0.339203
0.202649
1.20653
1.49235
1.43464
0.78659
0.243765
1.30702
0.66036
1.15609
0.97104
0.574174
0.431596
1.19688
1.09142
0.624258
0.575453
0.716298
0.284812
1.45883
0.594419
0.321238
1.34962
1.65671
1.16703
0.160055
0.637227
1.71177
1.50761
0.858876
0.571602
0.173619
0.672393
1.97659
0.650384
1.70251
1.40008
0.373507
0.969616
1.2162
1.2334
1.24149
0.32677
1.19695
1.35908
1.94734
0.2388
0.288396
0.289971
0.200656
0.301444
0.24665
1.71731
1.86453
1.78289
2.30984
1.97652
2.12286
0.794479
2.53746
1.56781
1.13931
0.822247
1.84765
0.692795
1.65715
0.272127
0.360925
1.25714
0.388526
0.471358
0.862745
0.354617
0.842409
1.90327
0.68821
0.32496
0.92399
1.98708
1.00591
1.01065
0.642762
1.1288
0.287297
0.263791
0.267755
0.591014
0.779036
0.527999
1.79113
0.211665
0.17688
1.54023
0.386641
0.952723
0.627332
)
;
    }
    procBoundary1to0
    {
        type            processor;
        value           nonuniform List<scalar> 
29
(
0.732871
0.732871
0.59518
0.99818
1.72545
1.04314
1.9142
0.982393
1.51047
0.919966
0.97502
1.04314
0.59518
0.631272
1.13742
0.479186
1.72545
1.74688
0.99818
0.708122
0.299736
0.218533
1.47346
0.287941
0.287941
1.47346
0.239507
0.870552
0.239507
)
;
    }
    procBoundary1to2
    {
        type            processor;
        value           uniform 0.437722;
    }
    procBoundary1to3
    {
        type            processor;
        value           nonuniform List<scalar> 
48
(
2.8092
2.4668
2.85459
2.85459
1.63362
2.35168
2.35168
0.532804
1.94885
0.326834
0.347983
0.326834
0.290074
0.72712
0.648124
0.290074
0.29391
0.29391
0.309312
0.309312
0.926536
0.9212
0.341053
0.985668
0.985668
0.28934
0.837405
0.837405
0.641273
1.26663
0.521246
0.641273
0.532804
1.50251
0.249808
1.26663
0.805732
0.347983
2.51207
1.30909
0.923884
1.24473
1.50251
0.249808
0.504264
0.955254
1.50468
0.923884
)
;
    }
}


// ************************************************************************* //
