/*--------------------------------*- C++ -*----------------------------------*\
| =========                 |                                                 |
| \\      /  F ield         | OpenFOAM: The Open Source CFD Toolbox           |
|  \\    /   O peration     | Version:  v1912                                 |
|   \\  /    A nd           | Website:  www.openfoam.com                      |
|    \\/     M anipulation  |                                                 |
\*---------------------------------------------------------------------------*/
FoamFile
{
    version     2.0;
    format      ascii;
    class       volVectorField;
    location    "0.4";
    object      U;
}
// * * * * * * * * * * * * * * * * * * * * * * * * * * * * * * * * * * * * * //

dimensions      [0 1 -1 0 0 0 0];


internalField   nonuniform List<vector> 
1466
(
(4.29564 -0.308907 -1.25632e-16)
(4.77575 -0.108393 -3.50962e-19)
(-3.13159 -0.0691444 4.01725e-16)
(0.423194 9.34342 -3.24643e-17)
(0.491722 -0.917913 -5.28031e-16)
(-2.1356 0.113033 -8.13843e-16)
(-1.17119 0.735778 1.55716e-16)
(4.08674 -0.333808 1.04732e-16)
(7.24846 0.109146 -8.64815e-19)
(4.90123 -0.177319 1.21028e-16)
(6.03931 -0.197369 -1.60333e-16)
(5.14038 -0.506749 0)
(8.25475 0.0631579 0)
(0.392163 -1.3951 -1.19905e-16)
(-1.19177 0.128742 0)
(4.79892 -0.484046 1.23225e-16)
(3.29668 -1.57939 -6.77909e-17)
(0.0362828 5.30356 -2.27138e-17)
(0.920292 5.56024 -7.30886e-17)
(-0.0153894 8.16725 1.05391e-16)
(0.11821 7.62188 5.17766e-17)
(-2.03028 0.0236819 4.78964e-18)
(0.0160953 6.14975 -5.08394e-17)
(-0.128908 7.96723 -1.13349e-17)
(8.13094 0.140095 6.74904e-17)
(-0.398657 0.0860699 -2.48402e-16)
(-1.32744 0.535299 -1.09249e-16)
(-0.0419752 7.81264 0)
(-1.74968 -0.437599 0)
(4.80672 2.41821 4.6363e-17)
(6.27115 -0.55378 1.06215e-16)
(-0.533299 -0.0428694 1.52426e-16)
(-1.06961 -1.16546 1.75557e-16)
(-0.106565 6.63651 1.15644e-16)
(4.42429 -0.200006 8.40563e-17)
(-0.842649 1.04233 1.88016e-16)
(-0.0361549 6.23375 0)
(3.0852 -0.708193 -2.04236e-16)
(5.31169 0.185229 -2.38733e-16)
(2.86779 -0.0982431 -2.66811e-16)
(-2.97629 -0.158645 -1.01044e-16)
(-2.87996 0.0166883 -2.69308e-16)
(-2.96465 -0.102995 1.48292e-16)
(-2.23957 -0.394221 9.85178e-19)
(2.72282 0.223359 -2.88205e-18)
(4.83443 0.180819 0)
(6.18388 0.122453 6.0648e-18)
(2.22428 0.00706204 0)
(-1.86958 -0.334737 1.13843e-16)
(0.597052 -0.337825 0)
(-1.21523 0.303726 -9.16459e-17)
(4.68246 -0.0653959 -3.13926e-16)
(-2.27825 -0.0907786 5.42038e-16)
(1.1738 -0.602663 4.85874e-16)
(-1.70302 -0.662116 -8.14753e-17)
(6.28966 -0.0453056 1.12219e-16)
(4.90971 -0.249721 -1.33715e-17)
(5.89074 0.0293155 0)
(0.113649 -0.195658 9.78429e-18)
(4.8369 0.0193249 0)
(0.347848 -0.0866148 2.26696e-19)
(-1.69311 -0.236584 -8.00965e-17)
(2.91163 -0.302294 1.15712e-16)
(4.14129 -0.199062 1.22013e-16)
(1.35956 5.56415 -1.57812e-16)
(2.57021 0.671511 1.72774e-16)
(-0.323164 1.92277 0)
(-0.0804164 5.78102 2.1316e-17)
(7.34194 0.537218 2.63283e-17)
(-2.14373 0.0619794 -1.36698e-16)
(1.23175 0.76344 1.06853e-15)
(-0.114183 5.98507 0)
(-0.0699332 6.65839 0)
(8.04164 0.213646 -1.38955e-16)
(0.0544645 -0.444553 2.61136e-16)
(6.09705 -0.0513884 -1.0186e-16)
(-1.55026 -0.422096 7.0073e-17)
(3.18635 0.0292782 -6.66865e-17)
(-0.724085 -0.158251 0)
(3.82467 0.817745 0)
(4.44544 0.00770471 -1.12312e-16)
(4.97536 -0.330174 -1.50093e-16)
(-1.7155 1.32044 -2.0886e-16)
(0.900821 3.20894 2.35387e-16)
(-0.110471 5.82346 9.06562e-17)
(0.614466 5.85093 3.69052e-17)
(-0.231647 7.77575 0)
(3.63395 0.288459 1.504e-18)
(5.08942 0.10451 2.21293e-16)
(-0.156805 0.452993 -2.78297e-16)
(-0.133377 0.0885837 -8.83783e-17)
(-1.99695 0.348073 -1.95368e-16)
(0.560189 7.66433 -3.50233e-17)
(3.13206 -0.395167 -1.39702e-16)
(2.2764 -0.382098 0)
(-2.52612 -0.353506 -2.68184e-16)
(4.56171 -0.129445 2.7505e-16)
(6.2573 -0.0186771 -6.29589e-18)
(6.45352 -0.123783 2.80852e-16)
(0.0788581 -0.232583 8.4101e-17)
(-1.83686 0.257821 4.49227e-16)
(-0.565058 0.0260067 0)
(1.8462 0.00753662 2.88733e-16)
(-1.07165 -0.527137 2.97057e-16)
(-2.87302 -0.145031 -1.11046e-16)
(4.40914 0.250134 4.90498e-17)
(-2.34936 -0.172858 -2.05258e-17)
(1.88057 -0.315172 0)
(5.35825 -0.399102 1.52998e-16)
(4.24046 -0.133664 4.84278e-17)
(0.186628 -0.0332893 -2.49068e-16)
(4.84674 -0.0832057 3.32643e-17)
(4.15677 -0.751826 -2.17624e-17)
(-3.10414 -0.0186893 -3.4063e-17)
(4.31148 -0.342553 0)
(0.492416 0.0872946 8.1332e-17)
(-2.71141 0.151726 1.25468e-16)
(3.85934 -0.0133113 0)
(-2.0809 0.314604 1.04067e-16)
(2.34228 -0.676807 -4.26837e-16)
(0.138683 8.68538 -2.61778e-17)
(0.161038 -0.853108 2.39241e-16)
(2.35926 0.621511 -6.16938e-16)
(-1.77424 -0.389604 0)
(2.23306 0.0844684 -5.47024e-16)
(-1.02373 1.25261 -7.93676e-19)
(6.50488 0.99874 4.23767e-17)
(-0.239839 5.75312 -5.56832e-17)
(-0.120274 7.83288 1.77789e-17)
(0.800226 0.470932 1.63202e-16)
(5.13208 -0.0332957 1.829e-17)
(-2.37629 0.16584 0)
(-0.151509 6.27976 3.51589e-17)
(-0.177738 8.05816 2.36092e-17)
(-0.082204 -0.0249681 -1.44365e-17)
(-2.56325 0.105142 0)
(2.2057 -0.21159 0)
(1.34177 -0.663289 -8.29165e-18)
(-2.87379 0.0260761 -6.20035e-17)
(2.65191 -0.336891 1.35427e-16)
(-0.417631 -0.390307 0)
(-0.0132478 7.79308 -5.03423e-17)
(-0.0935694 7.12607 -2.14808e-17)
(0.354842 5.17192 -2.02443e-18)
(-1.50328 -0.435814 -1.97412e-16)
(0.976357 6.54639 7.80023e-17)
(-0.534526 -0.0452801 -2.62082e-16)
(0.484446 0.0783256 -4.15714e-16)
(1.4974 0.70957 -6.43441e-17)
(-1.00065 -1.04739 1.03214e-15)
(-0.0287927 0.0658184 1.64949e-16)
(3.40212 -0.125365 -7.65764e-20)
(6.94141 0.858197 -1.40398e-19)
(1.18469 0.282272 0)
(1.54422 0.704366 0)
(-1.99064 0.107072 1.85683e-16)
(-0.0777551 7.86912 -1.18577e-17)
(-0.321832 8.60356 -1.08358e-16)
(-0.260151 0.0162856 9.92893e-16)
(5.42794 3.72082 5.97339e-17)
(-0.51782 -0.00289258 1.15509e-16)
(5.42208 1.34391 0)
(0.58894 3.03231 6.46735e-17)
(0.0387107 7.18514 -1.46652e-19)
(2.62114 2.57868 0)
(-2.5454 -0.206249 1.25277e-16)
(-0.0874087 7.2122 0)
(-0.207406 4.81956 1.70668e-16)
(0.0214071 6.78541 -2.44535e-17)
(2.01891 8.72588 5.12817e-17)
(-0.0247876 6.86757 1.6776e-16)
(-0.460194 0.076486 -1.10842e-16)
(1.06302 -0.188808 4.13138e-17)
(7.24912 0.697526 -1.37196e-17)
(3.90689 -0.00808796 -2.1507e-16)
(7.55265 0.142078 -2.67644e-16)
(5.15335 2.98618 1.48491e-16)
(3.64307 1.69508 -6.78975e-17)
(0.0292691 0.01119 -3.35602e-16)
(0.956393 1.08332 -2.24733e-16)
(8.52577 0.163754 3.28406e-16)
(3.97518 -0.139579 -2.22269e-17)
(-0.014985 4.82556 -1.57287e-16)
(1.0979 0.287823 2.45828e-16)
(3.92089 0.204546 -3.80537e-17)
(0.210367 5.56213 -2.43859e-18)
(0.00728276 5.76895 -9.01941e-17)
(1.9829 4.50654 -1.30069e-16)
(7.19973 0.363083 6.49005e-17)
(-0.794891 -0.285716 3.80912e-16)
(-0.00985401 6.95602 -1.1311e-16)
(0.395882 -0.166588 2.14625e-19)
(1.00768 4.70899 5.70314e-18)
(0.800764 6.17211 2.0436e-16)
(5.79913 3.25312 -3.50798e-17)
(0.313404 0.10736 0)
(-1.52024 0.321626 2.79199e-18)
(3.52423 1.21099 -3.21941e-16)
(1.32381 2.25475 -2.38006e-16)
(1.74221 5.89429 -4.13921e-16)
(0.813788 3.77429 0)
(1.11518 0.552569 0)
(5.41482 2.22106 5.38856e-22)
(0.505712 2.65213 0)
(1.38939 0.572082 1.85527e-16)
(1.6919 1.79801 -1.70195e-16)
(0.600161 6.90463 -9.15947e-17)
(6.75215 3.62998 0)
(-0.106925 0.0876378 1.2621e-16)
(-0.0330833 8.07685 1.44747e-19)
(0.550116 5.96269 6.80579e-17)
(-0.0921748 5.80082 -8.56774e-17)
(-0.245954 2.31198 0)
(-0.050934 7.32809 1.21739e-16)
(0.262993 7.39568 -3.20575e-17)
(0.0427269 7.06238 7.34103e-19)
(0.0166387 5.56784 2.5984e-18)
(0.184341 5.50551 -8.21954e-17)
(3.59928 4.08194 1.31701e-16)
(-0.13306 7.62386 1.62756e-16)
(-0.271842 5.36128 -1.29331e-16)
(0.516377 0.0247115 -1.14525e-16)
(0.113241 6.77886 -1.73051e-16)
(0.58282 0.140581 2.23852e-16)
(0.0845817 6.72332 7.54227e-17)
(3.55122 3.56009 -1.38142e-16)
(-0.818739 -1.34937 4.47771e-16)
(0.94602 0.921434 -2.10774e-16)
(-0.0167724 0.0844643 -2.72066e-16)
(0.474136 -0.0181148 -3.57794e-20)
(0.720083 0.29471 -5.67936e-16)
(4.22196 0.10366 2.03728e-16)
(1.04469 5.0284 1.03242e-16)
(0.476856 3.20159 1.83499e-16)
(-0.923167 0.787121 4.98354e-17)
(2.11097 1.31791 -6.70527e-16)
(-0.0862705 7.1278 3.14727e-17)
(0.0158776 4.96346 1.62128e-17)
(0.554583 0.267578 2.29415e-16)
(0.0144252 6.63104 2.13746e-17)
(0.306148 1.85721 0)
(4.23582 0.763933 4.32133e-17)
(5.73201 3.1389 7.88921e-17)
(2.37676 4.38644 1.87561e-16)
(0.0823483 0.195551 0)
(5.84422 1.23635 0)
(-0.496358 -0.0340302 0)
(8.43675 0.335072 0)
(2.9058 0.827441 -1.13969e-16)
(5.97885 3.59177 -7.16792e-17)
(-0.0253846 6.21314 -4.71277e-17)
(1.16766 5.9684 -2.25531e-16)
(6.91298 4.21159 3.33431e-18)
(4.00594 -0.606309 -9.03445e-17)
(-0.545706 0.050255 2.82827e-16)
(0.319823 0.0150473 -2.58559e-16)
(-0.142878 8.10575 0)
(8.83489 3.93427 -1.67626e-16)
(0.0425678 4.14471 -5.92445e-17)
(-0.0820555 2.40066 1.00908e-16)
(0.00579087 -0.58139 0)
(-0.193643 6.3949 -2.22878e-17)
(-0.174965 8.05717 -2.98743e-17)
(0.494903 -0.065322 4.42201e-22)
(4.26807 3.79846 9.28797e-18)
(0.922514 -0.00494461 -2.68244e-16)
(4.11594 -0.0788135 2.19016e-16)
(1.51806 0.775798 -1.13685e-16)
(0.506699 6.72404 -1.66887e-17)
(9.1576 3.5623 -8.10543e-17)
(1.82669 4.19446 -1.08846e-16)
(0.0302485 4.17319 0)
(-0.268241 -0.661398 6.38198e-18)
(-0.0474837 0.104946 -1.61951e-16)
(-0.162519 0.005383 -3.64769e-16)
(0.75857 0.188779 4.31372e-16)
(0.230703 0.108235 -2.34725e-16)
(2.66314 5.25048 -1.14899e-16)
(-0.0476203 6.35113 -1.11011e-16)
(1.97101 0.858082 1.74843e-16)
(0.339848 -0.0523868 2.06948e-16)
(1.81245 -0.989841 2.21667e-17)
(2.42961 3.70228 0)
(5.3202 0.548856 -3.85275e-17)
(-0.0841365 -1.58355 4.21433e-16)
(0.655673 -0.651699 -1.50954e-16)
(2.61061 1.28737 0)
(2.68375 1.26518 -3.15377e-16)
(0.0359761 -0.023722 0)
(7.79208 4.0562 -2.68522e-16)
(7.6491 1.20753 1.37146e-16)
(3.20306 -0.179776 -1.69793e-18)
(8.44012 0.122311 -3.45262e-16)
(0.0177191 -0.097171 0)
(3.8157 5.76315 9.99208e-17)
(0.986823 2.38125 -3.55257e-16)
(0.20801 4.13083 1.05102e-16)
(0.514011 -0.873298 3.76119e-17)
(2.52995 1.24235 7.73806e-17)
(0.304224 -0.0521552 -2.52106e-16)
(0.51849 -0.928707 0)
(-0.7739 -0.0575375 1.74998e-16)
(-0.496368 -0.247857 0)
(8.63286 0.395929 -2.07812e-16)
(-0.351145 8.70951 0)
(1.21852 1.4606 8.64952e-17)
(0.98885 -0.455516 1.29478e-16)
(0.865223 -1.75893 -1.95102e-17)
(3.20328 8.36406 -2.58549e-17)
(0.0859754 6.95436 6.37854e-17)
(7.05087 1.92139 1.49406e-16)
(-0.378488 4.33834 0)
(-0.133971 7.22825 -3.1624e-19)
(3.07173 0.358244 -1.39007e-16)
(3.86076 1.89724 -1.84214e-16)
(4.88404 2.91035 -2.76595e-16)
(-0.168564 0.0481248 0)
(5.31771 3.55645 2.09046e-16)
(0.402557 -0.997927 0)
(-0.614686 0.171665 2.90253e-16)
(0.0216021 -1.33921 0)
(0.0557083 4.24305 -1.10185e-16)
(0.0759403 1.87167 -6.1995e-17)
(0.188297 -0.0294366 3.24011e-16)
(-0.137552 8.593 -1.75545e-17)
(7.74561 5.21038 -8.42179e-17)
(0.779691 -0.488844 -7.66563e-17)
(4.84963 3.74974 -2.09459e-16)
(-0.094284 -0.0524827 -2.64553e-16)
(3.06689 0.114494 1.66611e-16)
(0.0657608 5.74169 9.1144e-17)
(7.82013 4.62957 5.09436e-16)
(-1.7538 -0.711782 -3.16634e-16)
(3.52332 7.12852 2.16592e-17)
(2.35363 2.6967 -1.47497e-16)
(7.07931 1.74912 6.16224e-17)
(2.43965 1.4264 -3.83712e-16)
(0.592771 0.165475 4.01003e-16)
(1.64929 0.197516 -1.92309e-16)
(-0.326102 -0.753655 -1.72011e-16)
(2.32015 0.694093 1.86075e-18)
(6.52869 3.1924 6.68706e-17)
(2.33991 -1.71056 3.29255e-17)
(3.22167 3.29528 -3.32299e-17)
(1.6315 8.63251 -5.55698e-17)
(-0.738562 -0.159608 -8.81132e-17)
(5.57922 0.446533 -1.80703e-17)
(3.86039 6.07398 -7.73053e-17)
(6.91296 0.236752 2.41232e-17)
(2.8116 2.25182 1.60046e-16)
(6.22911 4.54123 -2.13306e-18)
(8.48899 2.73252 -4.68134e-17)
(0.12377 10.1971 -5.65645e-17)
(0.842438 0.929536 1.16742e-17)
(-0.866906 -0.899024 0)
(0.942059 1.61423 2.079e-16)
(-0.34643 4.05706 -1.81021e-16)
(3.50806 0.449523 6.43915e-18)
(9.41223 2.4894 0)
(3.49419 7.36159 2.31488e-17)
(-0.353514 -0.297449 0)
(1.31431 2.88753 9.85286e-17)
(1.89391 4.8969 1.02357e-16)
(0.123108 2.75385 0)
(0.302733 -0.547054 -2.69691e-16)
(0.0269811 1.9939 4.65416e-19)
(7.09492 2.97856 5.33381e-17)
(7.28425 2.54633 4.6294e-17)
(-0.997101 -2.01838 1.51103e-16)
(2.77665 6.83091 3.72168e-18)
(3.02403 8.84883 0)
(0.704952 2.38731 1.05316e-16)
(1.37171 2.96153 -3.20277e-17)
(3.0091 8.34602 -3.01559e-18)
(0.0672694 -1.32284 5.02354e-16)
(0.179076 4.87638 3.61745e-17)
(3.15038 -0.516603 -2.40383e-17)
(1.22229 5.37571 7.09884e-17)
(2.74989 -0.798328 4.09592e-16)
(4.00319 4.59711 -8.07122e-17)
(0.547193 1.68779 9.71431e-17)
(0.985479 1.93611 -3.1001e-16)
(0.581295 2.26732 -1.83488e-16)
(0.578421 2.77807 2.54362e-16)
(0.840193 2.96038 0)
(0.933687 2.48684 1.436e-16)
(1.4723 -2.17942 -1.62867e-17)
(0.731323 -2.46912 -1.66496e-16)
(0.394196 -2.00126 1.43915e-16)
(0.360313 -1.37991 -3.89056e-17)
(-0.149647 -0.394604 2.04207e-17)
(0.369891 1.70313 4.94222e-17)
(-0.0344507 1.49915 -5.77852e-17)
(0.27638 1.80908 -5.82302e-17)
(-0.170783 -0.248789 4.00601e-19)
(-0.154662 -0.735766 1.31125e-16)
(0.267487 -0.804169 -5.11647e-17)
(1.21781 7.08019 -2.85716e-17)
(-0.181859 -0.229334 7.22922e-17)
(-0.228563 -0.504268 0)
(0.346678 -0.0391656 -1.88042e-16)
(0.680854 0.0414149 2.11227e-16)
(1.66456 8.90568 0)
(-0.653476 -1.07962 2.26237e-16)
(1.25574 9.60395 -1.88328e-17)
(0.0398852 -0.168094 7.87896e-19)
(1.67354 7.72949 -2.96519e-16)
(-0.217548 0.47604 -1.12303e-16)
(2.43498 -0.338391 0)
(1.70969 -0.128794 9.48172e-17)
(0.0125369 0.402978 -1.35136e-16)
(1.44247 6.86682 -1.32671e-16)
(1.13329 3.56318 2.38503e-16)
(0.877 -0.177988 5.39479e-16)
(2.98479 1.49666 -1.04932e-16)
(-0.447816 -1.47303 0)
(-0.75747 -1.12399 0)
(1.06092 0.956263 1.22338e-16)
(0.248599 0.172119 0)
(3.09191 -0.261449 0)
(0.328657 0.117958 -1.62596e-16)
(-0.441161 0.0517882 3.61695e-16)
(2.59931 -0.0288191 0)
(1.06017 4.57215 9.72996e-17)
(1.08146 0.107407 9.94749e-17)
(1.25675 -0.896833 2.73705e-19)
(-0.204769 0.50379 3.98159e-16)
(2.0808 0.485035 2.55132e-17)
(0.16333 0.575025 -5.93669e-16)
(1.38809 -1.00914 2.70508e-16)
(0.678175 -0.127654 0)
(-0.124818 -0.592483 -1.02739e-19)
(-0.388338 -1.06838 5.10244e-16)
(-1.56604 10.2566 1.70574e-17)
(2.14411 -0.0323616 -4.67217e-16)
(-0.0604817 -0.60935 -3.92367e-16)
(-0.0906901 -0.659127 7.10792e-17)
(-0.201695 -0.863307 -7.06931e-17)
(-0.060762 -0.863279 2.85515e-16)
(0.0591644 -0.157916 -3.39594e-16)
(0.058817 -0.113838 4.45637e-17)
(0.246309 -0.441493 -8.90079e-17)
(0.936312 -0.302033 2.50372e-16)
(-0.522816 -0.386049 0)
(1.30458 -0.0299555 -2.8239e-16)
(2.63469 -0.902142 1.13466e-16)
(8.56665 0.0927529 7.27343e-17)
(2.16813 -0.0990388 0)
(2.68495 -0.946133 -6.81021e-17)
(1.76119 -0.429044 1.47527e-16)
(2.54537 -0.149461 5.0668e-20)
(3.23468 -0.836578 -8.78139e-17)
(-0.046062 0.00502248 -4.25094e-17)
(8.65 0.13088 3.33547e-17)
(-0.0841543 0.478897 -2.3101e-18)
(-0.106585 -0.468031 5.21186e-18)
(0.720438 1.21257 0)
(-0.754325 2.05478 0)
(-0.0157677 -0.807463 0)
(1.43414 -0.0921795 2.48558e-16)
(-0.32477 -1.85047 -4.03327e-16)
(-0.238642 -0.294035 -2.52283e-17)
(-0.170306 1.57878 -1.62803e-16)
(-0.480145 2.37638 4.71962e-16)
(1.1179 -0.974635 2.00398e-16)
(2.12896 -0.984355 -1.11956e-16)
(1.16893 3.00598 -9.78013e-17)
(0.0479306 -0.179053 -3.77348e-17)
(1.85608 1.25034 -5.48752e-17)
(1.41807 2.63046 5.30809e-17)
(0.595957 0.807542 1.39879e-16)
(0.551526 1.56636 -1.77891e-18)
(-0.455853 -1.33596 -5.6612e-16)
(0.507633 1.06601 9.22864e-19)
(1.03304 -0.0978288 1.43028e-16)
(1.16476 -0.90202 1.41529e-18)
(1.96679 1.04042 -1.59022e-16)
(0.692879 3.04508 0)
(0.555711 2.21768 0)
(1.59693 1.20114 -7.89412e-18)
(2.49734 7.45107 -8.24343e-17)
(-0.163287 5.4344 1.50347e-16)
(-0.137667 8.93689 -1.02722e-16)
(0.577095 2.66394 7.11487e-17)
(0.998757 1.49245 -2.78611e-17)
(6.81069 4.74812 -1.66418e-16)
(1.10147 -0.924451 -1.42444e-16)
(1.83173 1.09012 1.41099e-16)
(0.495431 2.40879 -9.78298e-17)
(1.52278 5.10484 9.57148e-17)
(0.838911 0.955774 1.20685e-16)
(-0.0466095 7.90192 3.14111e-17)
(1.55633 -1.81481 -1.5041e-16)
(0.908859 3.18311 9.68837e-17)
(0.846527 2.59765 0)
(0.497415 3.05995 2.44849e-17)
(0.273245 4.51713 0)
(0.720788 3.30765 5.31644e-18)
(4.58744 2.7993 0)
(0.0524053 2.35026 5.50215e-17)
(0.519887 3.28367 0)
(0.325229 3.98838 0)
(-0.0797618 3.22283 -1.57226e-18)
(-0.00391815 -1.27744 2.38712e-16)
(-0.00828673 1.57531 -1.99235e-16)
(0.170007 3.6665 0)
(2.28431 8.03746 0)
(1.97009 -0.0749889 2.06566e-16)
(2.10738 -0.691252 9.52357e-17)
(0.428305 3.93943 0)
(1.7211 -0.0518715 2.61674e-16)
(1.03601 2.08339 -1.28392e-17)
(0.262518 2.66918 4.71328e-17)
(-0.618688 9.59689 -5.77092e-17)
(0.239436 4.63668 -7.29319e-17)
(0.0518713 2.65603 -8.52081e-17)
(0.669418 1.38754 -2.24051e-17)
(8.69142 0.138313 -3.10246e-16)
(8.18013 0.263651 7.76776e-18)
(2.70576 -0.995277 4.43014e-16)
(0.470363 3.58406 -3.65339e-18)
(2.89799 1.45223 1.99697e-16)
(0.181892 4.20651 5.56068e-18)
(5.74382 4.83255 0)
(0.91313 2.63898 0)
(1.72415 2.58336 2.97832e-17)
(2.17759 1.82645 0)
(0.258855 -0.960179 -3.81461e-16)
(1.21404 2.65326 -4.25291e-17)
(0.52257 3.14456 -9.20032e-17)
(0.500642 -0.450982 1.74379e-16)
(-1.11075 10.3783 -1.96333e-17)
(0.18131 0.824778 -2.28081e-16)
(0.544261 3.11349 0)
(0.518989 3.67201 0)
(1.37777 1.8631 -3.87202e-17)
(5.19886 6.14657 0)
(2.30569 6.64031 0)
(0.162116 0.915793 0)
(0.000641936 8.45727 -1.09216e-16)
(6.71633 5.45699 6.66924e-17)
(-0.588839 -1.11167 -2.30182e-16)
(0.218915 1.76677 -1.88731e-16)
(-0.0399705 1.57278 1.59781e-16)
(0.754543 2.46581 5.66532e-17)
(4.44604 7.12288 -2.98076e-17)
(0.418288 2.1442 1.7855e-18)
(6.51098 6.17134 -3.47115e-17)
(-0.139599 6.23859 -4.05512e-17)
(1.30302 -0.0113057 1.14791e-16)
(2.2769 -1.02628 1.776e-16)
(1.37914 -0.65397 7.68494e-17)
(1.43777 1.26924 -3.41094e-17)
(0.605422 3.53148 -8.05512e-18)
(-0.729107 9.96751 2.35361e-17)
(0.30664 4.40835 1.26448e-16)
(0.395623 4.0692 -9.03197e-20)
(0.0428832 1.50345 2.47875e-17)
(2.03644 -0.276789 1.16809e-16)
(7.38921 5.79063 -1.49103e-16)
(0.424482 3.59043 1.12475e-17)
(-0.476262 -0.487439 1.73495e-16)
(0.733964 -0.0566751 2.65416e-16)
(4.34095 4.7492 2.52571e-17)
(8.22609 0.346915 -2.68875e-16)
(-0.144554 0.533716 6.2271e-17)
(0.686295 3.19322 6.0322e-18)
(0.116594 4.60573 -1.06126e-17)
(2.57373 4.94207 5.55447e-17)
(0.103947 5.43378 7.42246e-17)
(-0.0875235 8.51272 1.59903e-17)
(0.098565 4.96347 0)
(0.753325 0.408131 0)
(3.91326 2.03751 4.43785e-16)
(1.45167 1.94488 -5.13644e-18)
(-0.227867 8.76323 4.36112e-17)
(8.64526 3.54876 -3.6262e-17)
(0.225244 4.6252 1.95999e-17)
(0.466293 3.78661 -1.08363e-17)
(5.33646 -0.508086 2.19276e-16)
(1.58249 1.87263 -4.49233e-17)
(0.0435835 5.70843 -3.4533e-17)
(0.322737 4.25006 7.94746e-17)
(0.317159 3.4902 -1.31071e-16)
(0.224676 1.75948 1.78152e-16)
(1.2736 2.38341 5.14049e-17)
(0.0962415 8.92457 5.98711e-20)
(8.87758 1.83963 1.00639e-17)
(0.490179 3.15231 -1.49763e-16)
(-0.0698887 0.569158 -1.00261e-16)
(-0.278554 8.07538 -6.22802e-17)
(5.4471 6.88453 0)
(-1.32938 -1.32781 0)
(0.366137 4.05071 -8.17496e-17)
(0.231798 6.80316 2.36689e-19)
(-0.0223144 7.22527 2.4629e-17)
(1.56379 5.40352 6.79926e-17)
(-0.396787 10.3563 4.60328e-18)
(2.0841 1.64827 1.89392e-18)
(-0.250908 8.37629 1.43358e-17)
(4.29514 2.38966 0)
(8.45086 4.66965 -5.33852e-18)
(8.23438 4.31772 -7.0534e-17)
(3.66559 8.09304 2.85821e-18)
(0.944703 3.75236 -6.3795e-17)
(-1.0666 -1.03839 -1.56644e-16)
(1.75955 -0.0305496 -1.89413e-16)
(1.01479 0.617401 -9.88909e-17)
(-0.740024 -0.917935 -9.40703e-17)
(0.352492 3.52754 0)
(0.758332 1.78172 6.00323e-18)
(0.611532 7.20696 0)
(6.27878 6.29073 0)
(5.76309 5.24259 3.6859e-17)
(0.0679753 7.18195 0)
(5.7866 3.96447 9.87606e-17)
(4.17856 2.16922 -1.19949e-16)
(5.48898 5.81929 4.4762e-17)
(7.37192 1.38445 0)
(-0.0617705 9.10609 -5.91291e-18)
(4.28032 7.63171 1.03776e-17)
(0.508356 -1.17215 2.90072e-16)
(1.0471 -0.0616914 -1.36962e-16)
(7.2433 5.39442 2.03791e-16)
(7.28574 0.120373 -5.08571e-18)
(0.412868 3.83953 8.40394e-17)
(-0.417758 7.84265 8.30888e-17)
(-1.23593 -1.35972 9.03796e-17)
(-0.851187 -1.21834 -1.52496e-16)
(0.127724 5.16856 0)
(1.38317 0.607487 -4.10095e-17)
(7.58 3.51109 9.71349e-17)
(7.39662 1.71562 -1.00225e-16)
(7.57034 4.69653 5.72725e-17)
(0.267898 4.41478 -4.1613e-17)
(8.94524 2.86588 5.15476e-17)
(-0.317217 9.04208 -4.30942e-19)
(-0.203497 8.61917 -1.94686e-17)
(2.8386 1.13627 3.58144e-16)
(0.0679768 9.1949 3.16278e-17)
(-0.119244 6.53712 4.09586e-17)
(0.617105 8.77632 2.66506e-17)
(0.251517 10.5015 4.70923e-18)
(0.64764 0.150905 1.94316e-16)
(0.163496 5.0222 -7.27112e-17)
(8.11299 5.14624 -8.70845e-17)
(-0.889219 -1.5722 8.86535e-17)
(0.137651 4.60541 0)
(0.0577226 10.5716 2.14108e-18)
(4.93408 6.81946 -2.21025e-17)
(0.295712 4.26858 -3.88097e-17)
(8.55458 0.387218 3.77239e-16)
(4.04541 0.335077 2.34492e-19)
(0.0663768 -1.24655 2.20929e-16)
(-0.010858 0.358046 1.95931e-16)
(0.194315 4.55799 1.42935e-16)
(1.62425 -0.259793 1.33577e-16)
(-0.229145 7.47279 9.33422e-17)
(-0.0886823 -0.0602918 3.36167e-16)
(9.27663 1.16587 6.20265e-17)
(0.276688 3.87233 -6.84516e-17)
(4.70447 0.0233919 4.48419e-18)
(0.0457533 -0.633017 3.9674e-16)
(8.55573 4.13542 0)
(0.634019 0.441505 0)
(0.403687 0.255837 1.53302e-16)
(-0.239292 4.16002 9.69098e-19)
(1.91353 0.704717 0)
(2.89934 -0.269593 0)
(2.41663 -0.277363 0)
(1.04458 -1.15527 -3.68399e-17)
(0.493393 0.138552 5.24056e-17)
(2.31927 -1.1719 0)
(0.906551 0.396904 6.88039e-16)
(-0.694852 -0.904145 -8.17261e-16)
(-0.0616204 -1.40727 1.12756e-16)
(-0.22866 0.0244995 -2.51613e-16)
(-0.559112 -0.187522 2.29223e-17)
(5.07008 -0.1369 6.72007e-17)
(8.02603 3.05139 2.41536e-16)
(-0.07062 9.13707 3.04235e-18)
(-0.435899 -2.02994 -1.59206e-17)
(-0.530938 0.0178392 8.01799e-16)
(0.0672042 -0.548211 0)
(-0.27772 0.0981648 -3.51959e-16)
(0.416476 -0.00112561 2.42444e-16)
(0.451418 0.189331 0)
(-0.702256 0.0483692 1.94129e-16)
(2.23433 1.00874 8.19967e-18)
(-0.603277 0.0417499 0)
(-0.112642 0.304526 1.0054e-16)
(8.10693 2.47452 -3.55184e-17)
(8.50087 3.63248 -1.62668e-16)
(2.04534 9.28706 -1.05495e-16)
(-0.0696544 0.119551 3.42e-16)
(-0.756171 0.0485512 -6.7276e-16)
(1.82484 9.80046 -6.15377e-17)
(1.40432 -1.25849 -8.68324e-17)
(0.701759 0.194247 -5.20293e-18)
(0.48301 3.30088 6.96693e-17)
(0.0795025 6.19628 1.09886e-16)
(0.206601 0.146175 0)
(-0.652392 0.0441798 1.79741e-16)
(-0.0878495 -0.0487251 0)
(0.33708 3.01286 0)
(0.105789 2.60355 9.96837e-17)
(1.18062 0.316217 -1.62127e-16)
(-0.0471268 -0.729329 8.69148e-17)
(-0.811044 0.0435953 3.25254e-16)
(0.290261 2.43753 -8.71021e-17)
(0.329495 1.63378 0)
(0.235911 4.35903 1.02476e-18)
(3.49873 -0.359278 2.17843e-16)
(0.0037557 10.3785 1.738e-17)
(-0.0920393 6.76864 4.14745e-17)
(-0.19232 9.07071 9.41858e-17)
(4.2512 1.31353 -4.44432e-17)
(0.109864 3.67841 -1.67325e-19)
(-0.513205 -1.299 -1.31349e-16)
(1.62223 0.613826 -1.08917e-16)
(6.76546 -0.0552949 5.4764e-17)
(3.60476 -0.404627 -1.46811e-16)
(-0.50153 0.0734258 0)
(-0.046706 3.92711 0)
(-0.326324 7.76088 0)
(0.0454662 6.19928 2.03836e-16)
(0.024596 9.18896 -1.83359e-17)
(2.18905 2.20997 0)
(0.89769 0.134704 0)
(-0.900478 -0.100855 5.23049e-17)
(0.732368 -1.49793 7.242e-17)
(0.110021 4.83956 1.36555e-16)
(-0.240548 -1.20247 3.07006e-16)
(-0.126864 -1.42759 0)
(1.10062 -0.441615 -4.33736e-17)
(3.14216 1.93998 6.19401e-16)
(-0.0728249 7.3431 -3.59991e-20)
(-0.212988 8.6178 0)
(-0.725837 -0.124193 -2.1085e-16)
(-0.0295989 5.936 3.803e-17)
(0.0278447 5.70223 6.20463e-17)
(1.78974 -0.0333486 1.02165e-16)
(0.251779 4.55639 0)
(-1.36001 -0.258834 1.29143e-16)
(0.979565 -1.03489 4.51964e-16)
(1.37501 0.620163 2.24182e-16)
(1.48759 0.181409 0)
(0.0397249 -0.860875 2.60149e-17)
(0.0743783 1.60165 -1.0694e-16)
(6.13165 1.11278 -9.06749e-18)
(-0.0094545 9.13367 -1.00221e-17)
(5.00353 -0.657905 -2.65715e-16)
(-0.425893 0.0670751 1.33955e-19)
(0.593975 0.847084 1.22838e-16)
(0.205378 6.28841 1.87708e-16)
(2.51662 0.45264 -1.02176e-16)
(1.31578 6.1426 1.00822e-16)
(0.104082 9.16543 0)
(8.4055 0.929045 -1.10534e-16)
(0.160931 2.58089 -7.9453e-17)
(-0.122278 5.8041 4.5321e-17)
(0.195612 -0.448459 1.72915e-16)
(1.03788 0.249166 -7.84944e-20)
(3.42086 1.34477 -3.88777e-17)
(0.435371 3.45864 -4.63292e-17)
(5.61078 2.72741 0)
(-0.028747 7.76494 -1.61896e-17)
(2.83967 3.10131 0)
(1.26528 -0.931647 0)
(-0.0254688 5.36668 1.58336e-16)
(1.84586 -0.0248882 -7.12068e-17)
(0.232953 0.233539 5.48254e-20)
(2.02153 0.276206 1.7069e-16)
(0.621227 -0.80483 1.44457e-16)
(-0.913758 0.321872 5.02759e-19)
(0.0203011 5.30271 -2.56954e-16)
(4.13118 1.94546 2.67083e-17)
(-0.435128 0.0717836 3.61613e-16)
(1.6035 2.09937 1.31608e-18)
(1.35702 6.41276 1.47287e-16)
(0.129017 0.31213 0)
(-0.236387 -0.690362 3.47865e-17)
(-0.0262216 7.70866 2.16355e-17)
(2.30007 0.0107201 -1.68805e-17)
(-0.393044 -0.739297 -6.09943e-17)
(-0.0891788 -1.71534 -1.86173e-16)
(0.319278 0.0664694 3.15924e-16)
(0.106561 5.29166 0)
(0.0988789 3.36235 4.78947e-17)
(2.26835 8.06394 -1.27306e-16)
(1.00311 1.34634 1.08981e-16)
(0.434654 -0.0695063 -3.72098e-16)
(0.0630982 5.54812 0)
(0.0754749 -0.502732 -4.29804e-16)
(2.83938 -0.102673 -9.34281e-18)
(8.24449 1.49968 -5.56655e-17)
(-0.256207 7.80926 6.9277e-17)
(6.12142 -0.0865158 7.27872e-18)
(-1.20897 -0.206212 -1.905e-16)
(1.46361 1.08304 -4.37257e-17)
(0.318681 -0.83241 -2.49504e-16)
(-0.280238 -0.86487 -1.45959e-16)
(-0.0638143 6.71017 6.77185e-17)
(-0.627769 -1.86853 -2.09166e-16)
(5.81005 2.62054 1.76435e-16)
(1.06478 -0.135738 -2.96806e-16)
(-0.0940607 -0.721898 1.70205e-16)
(8.39156 0.520611 7.42068e-17)
(-1.53558 0.199222 1.75765e-19)
(0.215457 9.12378 6.59176e-17)
(-0.0302068 7.4314 3.6619e-17)
(-0.112572 8.06773 -5.22551e-17)
(-0.186631 5.60756 3.43606e-18)
(-0.171978 7.84897 7.099e-17)
(1.2892 0.400353 -1.08433e-19)
(-1.97375 -1.10647 1.59702e-16)
(1.04961 -0.219346 -7.00509e-17)
(-0.032713 7.77702 0)
(-0.170553 0.00653129 -1.73455e-16)
(-0.331606 8.66559 -4.21163e-17)
(4.71428 0.631981 -6.20089e-17)
(0.124154 4.12573 2.33518e-19)
(-0.318372 0.64251 -2.57723e-16)
(2.67614 1.12456 -9.09328e-17)
(1.23136 -0.573677 1.2587e-16)
(1.61856 -0.422932 1.1499e-16)
(0.110904 3.60593 0)
(8.65026 1.44157 0)
(8.15187 1.08241 4.0633e-17)
(-0.0855575 5.61583 0)
(3.3995 0.856885 0)
(2.03928 0.717196 -1.84281e-16)
(0.0617566 0.484984 0)
(1.6615 -0.339128 8.42472e-17)
(5.36286 0.0987033 9.97298e-17)
(0.0562202 0.686499 6.86572e-19)
(-0.900667 0.67638 -9.37532e-17)
(-0.538422 0.0531166 -3.65915e-16)
(0.0167764 -0.368525 -2.94885e-19)
(-0.0742348 -0.187155 0)
(-0.104256 0.534975 -6.41587e-17)
(0.158006 5.2578 7.42264e-17)
(0.32513 3.95165 2.21748e-17)
(4.58299 -0.532837 -1.01666e-18)
(0.656261 -0.925403 0)
(2.08376 8.61778 2.59017e-18)
(1.71476 0.149634 -1.40841e-16)
(-0.148002 7.10544 1.2177e-16)
(4.43078 -0.056126 0)
(-0.726131 -1.17505 -5.59396e-16)
(3.08318 -0.801479 1.46584e-16)
(5.67055 0.335033 3.72153e-17)
(0.496354 9.58657 -4.13396e-17)
(0.596262 2.3273 0)
(0.215171 0.0361106 1.35101e-16)
(1.16689 0.112971 5.82455e-16)
(2.70352 0.396664 -8.52895e-19)
(4.04768 0.0978207 4.07034e-16)
(3.34311 0.0532297 5.26962e-17)
(-0.215675 10.3719 -8.34974e-17)
(0.483494 2.78792 -2.83209e-16)
(-0.0325981 6.09204 -2.46273e-16)
(8.55386 0.244669 6.45908e-19)
(1.71599 0.845152 -4.59828e-16)
(-0.268431 -0.066555 -1.13565e-17)
(1.33249 -0.14093 1.56181e-16)
(0.407594 9.64095 4.48254e-17)
(-0.489702 7.8188 -1.58762e-16)
(3.00384 -0.0581711 2.1636e-16)
(0.472142 3.40133 4.97768e-17)
(0.0420435 0.670588 -7.47172e-17)
(-0.715855 0.0736593 4.74038e-16)
(-1.04563 -1.03681 -8.18711e-17)
(-0.161397 0.0536622 -6.14371e-17)
(0.472268 1.81244 -1.06098e-16)
(2.52534 1.63452 2.65655e-18)
(0.230587 4.26562 0)
(0.0671565 7.04282 0)
(0.0455605 6.94965 0)
(0.0437241 6.9918 -2.89938e-17)
(-0.130443 6.74927 1.79055e-17)
(0.00655232 6.76524 0)
(-0.127809 7.07497 0)
(-0.0599255 6.68806 0)
(0.101593 7.54252 -6.89113e-17)
(0.0674595 6.13726 0)
(0.171539 5.89471 0)
(0.158461 7.22457 6.95547e-17)
(0.0233102 7.59606 0)
(-0.0381997 7.55694 -3.14527e-17)
(0.193812 6.85957 1.70472e-17)
(-0.0326009 6.17575 0)
(0.309093 5.38351 -9.26576e-17)
(0.222278 6.03008 -3.31868e-17)
(0.222855 6.45881 2.02623e-17)
(0.459709 4.59712 1.03579e-16)
(0.560972 3.6003 3.18632e-17)
(0.664326 1.7832 1.73738e-17)
(0.617129 2.65929 -1.89199e-17)
(-0.0569733 7.51632 3.27642e-17)
(-0.05535 7.51496 0)
(-0.0398885 7.51834 0)
(-0.0179166 6.88597 2.9002e-17)
(4.83385 -0.0592794 3.92337e-17)
(8.22193 0.0263513 -2.19791e-18)
(-0.933264 -0.024873 -2.75375e-16)
(-0.692123 -1.47876 -7.5205e-17)
(1.41909 1.1596 -1.45805e-16)
(-1.39111 0.582979 -1.82851e-16)
(2.75105 0.257363 2.00171e-16)
(1.03971 -0.881137 1.93652e-16)
(-1.62254 -0.00756955 0)
(0.0139574 6.4774 -1.31021e-16)
(0.220196 5.97684 -6.1007e-17)
(0.0784664 5.91288 -3.77615e-17)
(-1.32019 0.285432 -3.80805e-16)
(1.24149 0.198445 0)
(8.68505 2.1965 -9.45404e-18)
(0.493149 -0.603138 -1.35221e-16)
(2.70964 0.941698 1.19423e-16)
(-1.27085 -1.13231 6.89942e-17)
(1.43008 -0.0603355 7.72279e-16)
(0.342962 8.71159 8.66036e-17)
(3.13938 -0.093272 0)
(2.33798 9.67329 2.84525e-16)
(0.073194 5.30058 0)
(-1.72792 -0.227936 0)
(-0.0370202 7.55983 0)
(-1.13639 -0.618708 6.05938e-17)
(3.17268 0.447449 9.89279e-17)
(8.82706 0.914456 -2.37369e-16)
(-0.900855 0.0401932 -1.8929e-16)
(8.66258 0.579394 -7.34751e-17)
(0.264436 1.81113 0)
(1.85288 0.0812359 0)
(-1.65889 -0.897035 -9.51856e-17)
(-0.14358 7.75859 1.3946e-16)
(-0.744177 0.392256 0)
(1.02306 -1.03594 -2.22649e-16)
(1.47737 0.38234 0)
(-1.46021 -1.25536 0)
(-0.017434 0.147734 3.41381e-17)
(4.51476 0.270578 5.89344e-19)
(-0.0400928 7.35417 -3.33107e-17)
(-1.32164 0.00532791 -2.73843e-16)
(2.36487 -0.602984 1.78657e-16)
(2.71307 0.153123 -1.38791e-16)
(-0.0199977 5.36648 0)
(7.02697 0.186597 2.97419e-17)
(8.37533 1.92797 0)
(2.15949 0.890077 -3.20163e-16)
(1.66012 0.348218 -2.46478e-16)
(3.26344 1.06762 -2.93275e-16)
(1.01183 0.272999 -1.65179e-16)
(3.19726 1.2789 -1.36797e-16)
(0.699555 -1.34183 -4.7321e-16)
(-0.278943 -0.186589 -1.24688e-17)
(1.85757 -0.198542 5.05048e-17)
(3.34625 -0.116931 -1.09262e-17)
(4.36146 0.337831 1.43422e-17)
(0.00793324 5.70199 7.99913e-17)
(4.70957 2.45169 2.46098e-16)
(-0.0368758 7.38101 1.5974e-17)
(1.88627 0.108605 6.50136e-19)