/*--------------------------------*- C++ -*----------------------------------*\
| =========                 |                                                 |
| \\      /  F ield         | OpenFOAM: The Open Source CFD Toolbox           |
|  \\    /   O peration     | Version:  v1912                                 |
|   \\  /    A nd           | Website:  www.openfoam.com                      |
|    \\/     M anipulation  |                                                 |
\*---------------------------------------------------------------------------*/
FoamFile
{
    version     2.0;
    format      ascii;
    class       volScalarField;
    location    "0.81";
    object      epsilon;
}
// * * * * * * * * * * * * * * * * * * * * * * * * * * * * * * * * * * * * * //

dimensions      [0 2 -3 0 0 0 0];


internalField   nonuniform List<scalar> 
1466
(
5.49883
36.9266
7.81237
97.2629
4.9285
21.7794
2.45664
42.432
9.36431
48.1847
60.9737
44.2197
5.80314
4.42487
26.1841
83.4069
24.736
99.2444
109.41
67.5045
112.681
68.4748
81.6003
55.4848
7.34028
8.6292
45.1015
87.5288
4.94737
51.0774
72.4499
10.9461
7.31292
91.9556
124.163
55.2928
89.2249
30.547
82.5762
2.21923
2.58974
63.09
78.7182
2.95318
2.1999
17.1355
79.1186
3.74825
49.5888
4.17791
16.5215
46.9833
28.349
4.40169
10.8219
6.80712
9.84013
65.0212
5.96297
57.2522
18.3821
2.65494
1.95195
29.5044
80.5069
34.1317
158.403
57.3701
33.4842
9.01626
55.1622
146.376
86.3932
6.92225
14.1123
79.0245
2.61874
1.92239
23.224
71.959
59.3198
77.8714
8.41356
81.2403
99.5164
148.769
84.5137
75.5441
66.4318
43.486
11.7072
47.7451
132.748
2.57131
18.7871
8.85982
34.4045
72.0401
8.63432
4.90311
22.6664
11.0617
3.31558
77.8221
90.4656
60.9874
36.9964
4.28064
80.9894
6.60869
14.4549
98.0839
5.77522
69.1034
57.4952
20.5559
52.012
42.563
2.33084
1.76187
97.1328
2.79747
1.85146
3.4643
2.52689
63.864
43.583
78.9782
51.9975
32.9188
76.3371
56.228
80.3983
54.1587
13.8245
2.90142
2.5058
18.1317
2.26129
1.90839
4.72643
95.966
71.4985
74.5151
74.6835
168.383
10.9703
17.6794
50.9007
95.7254
13.6369
33.1734
38.5634
9.44979
39.4972
66.1492
76.8269
79.6908
11.636
47.7491
10.3505
58.0371
130.861
83.5529
102.706
88.5419
62.0851
88.5025
95.3406
40.641
106.648
8.57693
3.38366
34.8268
29.7943
7.51459
42.791
61.4691
12.4813
72.0481
8.75742
27.8907
133.521
3.25268
77.7049
151.158
102.829
47.5501
35.3463
37.2874
118.451
23.5618
125.652
176.365
43.8467
17.1142
8.71131
160.628
109.954
190.804
81.1146
41.525
47.1712
31.9376
42.0233
91.1134
130.492
28.0685
11.5668
62.5769
95.895
88.4266
129.028
97.4209
117.639
80.7673
150.497
101.368
54.2737
57.3587
84.4323
22.0216
84.7128
21.0617
89.2727
80.4607
60.1293
4.02402
12.6756
21.0739
41.1882
82.5317
190.758
148.145
14.4742
70.4569
67.2944
81.7827
21.0718
115.082
50.2513
70.6082
39.3017
204.477
17.2533
53.0595
10.5029
6.90803
71.9844
34.4631
137.157
87.6874
25.2044
54.9897
8.13356
15.9613
76.4401
12.0299
116.394
124.904
90.9576
78.7788
53.8017
21.0713
66.6468
3.59424
39.4116
44.3124
101.242
11.6911
159.519
138.793
56.3148
12.2912
12.8198
25.3419
16.6597
60.6166
103.198
56.2301
19.1965
64.484
80.6409
64.4817
70.0141
2.82736
55.606
51.7161
9.20468
19.9458
23.0016
4.68184
7.38248
15.0697
47.5622
37.997
224.669
4.13677
57.38
18.3258
4.18137
34.2098
5.52761
8.2133
82.8568
15.0356
4.94454
8.58474
38.8253
123.341
31.2261
108.661
60.2803
34.8765
50.0697
43.5514
111.637
32.7709
6.06741
28.9663
36.4305
170.789
115.819
16.357
84.6156
16.8725
3.25683
33.9233
13.8272
30.8608
74.2437
18.1462
10.0741
37.0247
96.2522
16.3511
106.686
19.4352
8.39222
2.31498
2.57532
31.1647
19.6005
70.3135
42.4245
6.38373
62.3234
42.5058
39.2505
96.1172
31.9959
13.2302
64.6302
120.645
84.0981
114.446
88.739
20.4149
8.06783
41.8236
92.2098
100.629
72.5269
45.7051
8.80287
191.065
27.667
26.6583
69.8529
40.6948
35.6795
118.444
108.228
31.9378
13.1813
89.8103
54.5877
111.384
2.59856
59.6767
47.1249
39.6849
55.4585
62.1753
48.7515
44.9501
15.4747
13.1089
6.53
4.30227
19.764
34.4572
34.8181
33.209
13.8517
4.83928
3.85274
109.552
12.2085
7.18829
2.30258
2.16402
70.5792
3.87685
48.5779
105.483
85.8426
29.7441
129.589
115.241
25.9218
99.2794
124.33
113.593
74.5768
4.42842
3.73567
51.1417
33.5737
8.71982
83.6652
86.0751
8.18634
130.835
4.59996
2.1061
58.2718
102.125
3.45398
2.11604
55.092
7.15732
96.5413
223.154
32.1657
5.70327
6.64715
7.04416
4.63789
49.1635
5.09481
24.2468
54.4404
12.7608
27.7906
4.88544
25.8701
33.5749
4.01142
62.0437
33.7209
3.38581
13.2896
11.0719
23.9235
21.0669
8.33304
32.2424
17.1892
29.6904
6.29646
17.1629
10.7845
48.1015
54.289
2.73702
34.1386
14.3338
8.79573
30.8245
11.565
22.2987
53.5088
2.71198
28.7849
2.30214
4.04794
59.586
128.845
61.3041
37.1964
98.2996
90.1758
117.446
90.6362
23.1545
2.04676
5.32392
131.571
77.8791
102.211
84.9731
17.9395
37.2374
31.5179
46.9811
78.5795
51.1607
42.9228
51.919
67.9867
87.5805
58.1052
87.5297
14.7489
73.3372
67.6119
34.1498
2.31353
63.0445
26.345
77.2735
36.9153
174.524
78.944
49.824
17.6679
9.92109
19.7495
31.1608
69.9146
9.07738
141.599
27.7577
65.9198
20.689
12.2623
68.28
23.8727
107.513
13.3683
202.947
122.953
44.0798
57.3702
14.7341
35.2841
76.3257
20.9038
102.645
21.7215
94.9359
25.5086
30.2037
27.2217
31.6979
30.744
24.3698
127.4
31.155
92.7634
2.79606
9.82082
54.0082
185.831
69.9982
64.6748
39.1504
60.1807
17.6986
101.272
102.74
23.2067
39.1404
15.2005
21.7631
40.634
139.083
79.5898
98.6718
88.849
137.558
26.8601
51.5181
21.1236
112.578
12.9942
88.4855
60.6373
76.0755
47.0191
97.8799
76.0684
63.4534
49.684
36.2712
101.569
8.70227
49.6577
24.8746
82.9042
26.7986
57.8142
73.1877
135.635
77.9508
72.8098
57.9706
30.5511
70.7747
42.8533
14.2571
15.5102
30.6974
209.715
67.0711
27.9728
2.31876
39.9321
80.2879
17.6736
125.923
22.9154
37.9033
113.232
32.3446
52.8106
27.9409
24.8396
106.095
29.8464
3.76443
23.985
20.2443
38.8188
70.9217
233.773
65.4605
80.5225
91.4911
76.0444
22.8948
25.5678
16.8733
87.616
11.9689
98.8213
81.6656
48.5231
92.9721
134.057
83.0288
59.9557
22.7977
102.5
14.5039
65.8913
108.48
60.7127
29.0979
87.9759
11.0996
33.9839
5.27111
127.698
97.5512
4.08409
180.004
14.3474
6.11003
146.457
92.406
4.44994
14.3266
106.604
30.5414
110.933
36.8583
57.5566
2.64963
10.9422
17.4268
64.34
7.3826
55.2268
4.75428
36.3966
5.72953
10.7298
19.0734
87.5513
11.4041
9.71628
154.628
18.4604
122.1
26.1369
8.33888
44.4032
11.7432
124.226
18.5016
15.9784
63.4548
19.7296
7.80975
52.7535
83.4656
28.2114
58.5012
112.958
23.0238
9.66732
14.0656
72.4771
60.6675
28.1602
4.65614
7.90758
62.0382
19.6741
135.62
3.43964
69.7264
136.057
97.2405
50.8276
75.4589
80.8785
58.573
67.9437
105.839
158.238
56.475
206.235
104.348
91.3765
17.405
15.2996
7.21153
72.382
114.16
71.5803
4.05563
136.861
80.0686
120.863
89.5111
3.09643
119.77
90.2916
56.5057
92.0192
3.48583
2.22339
4.40623
33.0705
18.8677
24.5433
48.4695
88.741
72.0871
9.60764
5.1438
121.29
116.949
163.379
92.7455
14.0578
107.478
94.4141
5.90828
28.0506
45.0861
153.72
46.1889
79.6648
121.71
73.6203
140.614
26.8154
10.3176
1.59596
3.52622
61.4348
116.384
40.704
16.6397
26.666
118.268
24.1234
7.23762
90.3994
39.857
99.4705
4.3095
39.8795
87.5797
73.5227
39.1691
32.9032
105.574
103.5
6.10952
32.6241
16.0992
115.937
60.1715
8.55492
12.5315
3.96589
67.0857
98.0773
11.1252
40.4786
2.9503
11.8187
13.8105
65.113
92.5254
124.974
59.6756
76.5551
48.4737
33.3285
10.3746
88.5985
85.6582
12.9451
97.7934
102.399
84.3013
20.7571
62.0962
2.25477
7.04922
92.99
12.6818
17.7515
74.9101
72.6105
91.6559
15.1154
127.723
13.5777
27.227
15.4089
14.223
7.98827
10.9322
18.453
108.134
100.199
6.76151
88.9461
82.738
34.4556
92.5249
37.3322
67.182
97.8473
60.8534
104.442
39.0937
19.7843
25.1151
69.2831
22.5407
66.4435
102.857
140.409
95.8718
10.1265
14.2443
8.5068
42.7339
113.467
271.111
31.4314
52.9517
28.803
8.03644
57.8802
11.6562
137.629
13.0232
102.668
95.1127
105.986
89.2918
127.963
119.681
123.664
126.094
166.447
165.631
184.85
171.036
168.286
169.282
168.271
152.087
209.066
131.912
148.431
233.779
247.492
156.687
221.497
168.526
163.888
155.328
86.0492
96.1688
6.13708
7.85647
61.9013
15.3747
12.1253
4.61102
4.42137
25.5167
123.193
74.6562
105.617
21.0315
31.7399
12.009
49.0792
8.37045
58.4121
25.8963
125.36
35.1264
47.0367
136.179
79.1209
145.506
2.3462
2.05691
8.22032
9.36347
7.65733
37.6578
52.3913
56.7563
90.3231
5.98848
2.19883
4.92648
11.2905
13.4798
24.346
100.093
2.78882
1.87298
31.1492
97.5695
41.1329
15.4412
51.6871
47.2929
68.5978
84.0709
106.708
72.3868
8.03403
58.9376
103.677
47.516
135.954
35.0396
142.861
36.1388
76.3728
130.294
2.47697
53.7969
21.114
65.2533
3.3722
100.887
74.7957
100.387
29.0781
29.9558
28.9232
81.6981
24.6423
12.2221
3.92715
80.7746
131.649
98.693
20.4624
143.482
110.269
27.9098
135.364
67.3327
10.1525
2.92888
35.2807
57.3946
128.076
213.058
63.0469
69.5233
4.05207
13.9945
37.02
54.8286
86.7819
12.9877
63.4686
3.11853
1.92279
2.68282
37.5434
7.87811
45.4766
82.0079
11.1769
8.67953
139.796
11.0429
84.4085
20.5082
56.0204
121.913
103.234
141.12
86.6759
106.646
93.866
99.4969
69.2204
86.5268
58.3657
1.68825
4.26375
124.798
33.232
10.2294
26.1088
68.4501
34.5645
11.0081
68.5801
7.50281
35.7028
40.62
2.34399
2.19426
39.1441
11.4443
21.316
12.7947
40.575
130.318
2.57963
2.5383
9.91768
89.4919
39.9023
3.04068
27.596
118.262
14.2047
24.8135
16.712
7.62271
30.0287
41.6817
6.09996
100.316
86.8352
3.24021
2.33189
2.34818
61.4737
24.4822
10.9612
9.54692
12.1726
8.45401
7.00659
12.269
12.6116
2.04236
3.62181
8.25432
137.549
12.0949
12.505
12.2228
12.5373
41.7201
45.6935
10.8192
11.1464
12.3352
12.713
66.1194
99.8518
62.9528
28.8113
20.1541
102.514
119.793
32.9114
112.957
77.0632
27.1193
4.08776
1.98942
5.55912
119.394
62.6877
137.834
36.2105
8.44504
136.152
43.752
49.408
52.2417
121.133
96.9735
126.659
16.6116
89.7907
31.596
109.186
87.07
141.58
6.95305
15.8622
14.4659
64.1753
45.4155
63.5144
73.5624
56.0115
4.88114
24.4797
10.6385
39.7535
87.697
84.4796
123.895
105.053
8.41514
3.1
30.5339
52.5943
48.7519
22.9903
16.0403
4.09296
42.365
97.8646
49.0469
57.9932
95.5513
8.12469
6.72778
22.3301
65.8905
36.767
109.073
22.2525
90.4797
129.492
84.9004
89.6574
137.197
36.8088
99.0118
98.2032
1.97131
4.27994
15.9329
36.0859
2.77551
2.54337
81.2808
66.7756
79.8866
110.637
117.605
140.635
38.0209
30.0489
79.2331
74.5029
107.56
104.287
3.8602
12.5338
50.7202
66.5347
9.34472
100.053
33.9122
6.62653
53.6969
46.2843
20.3993
17.7338
9.68704
55.4397
8.45785
19.2105
40.723
36.6271
23.271
242.98
6.75003
14.9314
23.045
5.72944
7.06716
40.1016
2.30021
2.07061
6.3135
54.2528
66.1086
123.993
101.811
90.8108
7.08892
68.4948
6.80045
81.777
55.7794
3.25965
49.4033
48.982
85.4137
82.159
66.0555
70.2352
100.127
2.51705
6.38499
110.077
16.6789
4.03776
33.3045
5.51434
96.416
13.0381
123.804
8.97665
129.593
49.8884
3.13487
121.286
34.2822
7.16296
88.299
78.863
38.0528
76.9221
40.4784
110.892
48.2492
81.0385
8.42654
38.9333
30.7942
113.822
39.3992
123.5
151.939
66.06
154.834
172.888
161.385
7.23288
30.7278
55.0575
10.4669
114.875
5.66916
68.789
98.6746
11.8962
120.664
53.8278
6.29507
36.1399
31.7048
6.11374
38.5435
15.3405
22.9022
7.65664
216.664
112.529
75.9922
87.4795
9.08132
3.22498
112.095
71.7975
69.5915
65.4698
70.6272
75.1189
148.947
58.599
42.7323
114.886
6.56464
59.9099
120.75
94.4632
19.0865
2.37903
7.00989
2.49348
1.8863
7.76444
22.2452
78.2758
8.75446
11.2641
51.1312
8.54957
76.8777
104.265
93.2988
4.46568
89.6888
36.0615
6.80816
4.08102
5.17196
8.36525
209.138
10.1463
92.857
22.8848
8.57074
6.19945
2.92004
106.707
6.44159
10.3891
73.8451
10.9421
101.745
88.5464
119.021
60.4449
42.9386
28.8543
24.5456
56.5846
14.7557
33.1979
94.3557
2.84297
59.4842
77.0829
30.1864
66.8357
52.5896
117.165
22.3406
48.8917
10.5485
51.4459
113.153
41.0307
7.57041
7.20697
14.0049
13.2461
100.427
78.6326
39.459
53.3819
140.057
26.0995
105.009
55.6581
65.8376
58.7937
8.48893
70.4557
100.619
6.532
33.3791
99.7722
17.9003
136.523
33.7772
75.2826
126.103
72.8273
108.382
103.943
95.0291
98.4019
4.07169
2.1668
9.70085
3.95914
26.9541
9.54935
68.9853
32.4581
76.4372
53.521
110.787
75.3186
120.229
10.0282
114.483
100.207
6.09184
7.64666
130.141
46.978
12.8747
15.3559
71.5538
35.3535
170.493
31.495
22.4395
9.63336
10.4434
67.0446
76.1308
62.243
12.7292
189.276
74.0487
48.3673
143.455
7.94341
4.51873
87.0826
71.8307
6.64251
3.34177
41.2605
11.472
73.7034
140.935
31.1282
13.7434
47.9979
163.991
67.2366
65.8612
35.819
73.8165
10.5304
7.81779
7.03809
2.74848
14.4982
2.24642
89.3177
5.21985
4.04616
122.181
10.5325
68.3534
29.9177
23.5099
)
;

boundaryField
{
    frontAndBack
    {
        type            empty;
    }
    wallOuter
    {
        lowReCorrection 0;
        type            epsilonWallFunction;
        value           nonuniform List<scalar> 
108
(
99.2444
146.376
86.3932
5.52761
6.38373
18.4604
26.1369
8.33888
11.7432
19.7296
7.80975
28.2114
23.0238
9.66732
7.90758
7.21153
120.863
33.0705
18.8677
16.6397
11.8187
124.974
14.223
34.4556
95.1127
105.986
89.2918
127.963
119.681
123.664
126.094
166.447
165.631
184.85
171.036
168.286
169.282
168.271
152.087
209.066
131.912
148.431
233.779
247.492
156.687
221.497
168.526
163.888
155.328
86.0492
7.85647
31.7399
145.506
9.36347
97.5695
142.861
36.1388
143.482
63.4686
8.67953
103.234
99.4969
69.2204
40.62
39.1441
12.7947
39.9023
30.0287
41.6817
86.8352
2.34818
2.34818
10.9612
12.1726
12.269
12.6116
137.549
12.0949
12.505
12.2228
12.5373
41.7201
45.6935
10.8192
11.1464
12.3352
12.713
66.1194
112.957
77.0632
8.44504
52.2417
87.07
141.58
49.0469
57.9932
129.492
84.9004
66.1086
10.4669
112.095
65.4698
11.2641
36.0615
10.1463
7.20697
14.0049
140.057
)
;
    }
    inlet
    {
        type            fixedValue;
        value           nonuniform 0();
    }
    outlet
    {
        type            zeroGradient;
    }
    wallInner
    {
        lowReCorrection 0;
        type            epsilonWallFunction;
        value           nonuniform List<scalar> 
126
(
30.547
82.5762
2.21923
2.58974
63.09
78.7182
2.95318
2.1999
17.1355
79.1186
3.74825
49.5888
4.17791
16.5215
46.9833
28.349
4.40169
10.8219
6.80712
9.84013
65.0212
5.96297
57.2522
23.224
8.85982
34.4045
72.0401
8.63432
4.90311
22.6664
11.0617
3.31558
77.8221
90.4656
60.9874
36.9964
4.28064
80.9894
6.60869
69.1034
57.4952
3.4643
2.52689
76.3371
56.228
2.90142
2.5058
18.1317
4.72643
130.861
29.7943
8.71131
116.394
124.904
90.9576
3.59424
39.4116
159.519
138.793
56.3148
4.68184
15.0697
37.997
224.669
36.4305
170.789
115.819
20.4149
69.8529
108.228
111.384
109.552
7.18829
102.125
96.5413
223.154
5.70327
7.04416
24.2468
13.2896
21.0669
17.1892
174.524
202.947
185.831
233.773
180.004
206.235
42.7339
271.111
141.12
88.5464
56.5846
189.276
48.3673
143.455
7.94341
4.51873
87.0826
6.64251
3.34177
41.2605
11.472
73.7034
140.935
31.1282
13.7434
47.9979
163.991
67.2366
65.8612
35.819
73.8165
10.5304
7.81779
7.03809
2.74848
14.4982
2.24642
89.3177
5.21985
4.04616
122.181
10.5325
68.3534
29.9177
)
;
    }
    procBoundary1to0
    {
        type            processor;
        value           nonuniform List<scalar> 
29
(
1.80704
1.80704
2.23318
2.46675
44.4152
40.0037
126.782
25.67
76.8124
8.66191
19.5091
40.0037
2.23318
1.9736
64.2777
21.0959
44.4152
54.6574
2.46675
1.65418
10.5236
6.03774
62.2718
10.8675
10.8675
62.2718
7.35757
78.6562
7.35757
)
;
    }
    procBoundary1to2
    {
        type            processor;
        value           uniform 2.97168;
    }
    procBoundary1to3
    {
        type            processor;
        value           nonuniform List<scalar> 
48
(
87.4849
81.5318
82.3766
82.3766
54.5911
91.606
91.606
14.1009
74.9442
5.66182
3.80348
5.66182
5.31667
2.41949
2.41118
5.31667
5.64429
5.64429
5.05944
5.05944
1.78702
2.2441
4.72217
22.0865
22.0865
3.14098
4.41816
4.41816
7.59823
44.2695
12.1923
7.59823
14.1009
57.6933
2.27329
44.2695
29.171
3.80348
86.6634
47.0747
1.87852
43.7572
57.6933
2.27329
2.57154
68.6522
49.5904
1.87852
)
;
    }
}


// ************************************************************************* //
