/*--------------------------------*- C++ -*----------------------------------*\
| =========                 |                                                 |
| \\      /  F ield         | OpenFOAM: The Open Source CFD Toolbox           |
|  \\    /   O peration     | Version:  v1912                                 |
|   \\  /    A nd           | Website:  www.openfoam.com                      |
|    \\/     M anipulation  |                                                 |
\*---------------------------------------------------------------------------*/
FoamFile
{
    version     2.0;
    format      ascii;
    class       surfaceScalarField;
    location    "0.81";
    object      phi;
}
// * * * * * * * * * * * * * * * * * * * * * * * * * * * * * * * * * * * * * //

dimensions      [0 3 -1 0 0 0 0];
oriented        oriented;


internalField   nonuniform List<scalar> 
2776
(
-0.000387976
-3.65134e-05
0.000297463
0.000127027
-0.000874474
0.000945177
0.000303296
-0.000373998
-0.000433515
-0.000218142
0.000268355
0.000383303
0.000130001
-4.02489e-05
0.00100529
-0.00109504
-0.000124564
0.000107779
0.000118912
-0.000102127
-0.000119268
-0.000451062
0.000379877
0.000190453
-0.000113922
-2.54749e-05
0.00047143
-0.000110812
-0.000643457
0.00028284
0.00100963
0.000887921
-0.000891679
-0.00100587
-0.000943939
0.000748932
-0.000227288
0.000422295
-0.000340759
-0.00114959
0.000516468
0.000973878
0.000423489
0.000177114
-0.000554756
-4.58468e-05
0.000885113
0.000114873
-0.00136635
0.000366368
-0.000132877
-0.000119024
0.000127337
0.000117294
-3.85125e-05
-0.000198049
0.000470722
-0.000140912
-0.000670568
-0.000264839
0.000221349
0.000259606
-0.000216115
3.15277e-05
-0.000482792
0.000451264
0.000527601
-0.000156285
7.90873e-05
-0.000450403
0.000728435
-4.75873e-05
5.5282e-05
-0.00073613
-0.00069873
3.81754e-05
-2.70668e-05
0.000687622
-6.72569e-07
0.000224977
-0.000327043
0.000102738
0.000590158
2.26961e-05
-2.27854e-05
-0.000590069
0.000692781
4.65298e-05
-3.13109e-05
-0.000708
0.000308932
-0.000381665
-0.00117383
0.00124656
1.52491e-05
1.76524e-06
2.35543e-05
-4.05686e-05
-0.000243584
3.93084e-06
0.000124072
0.000646097
-0.000730302
-3.98668e-05
0.00014654
-0.000117638
0.000177776
-0.000206678
-0.000355889
0.000408079
0.000627142
-0.000679331
0.00056132
-0.000833954
-0.000111508
0.000384143
4.44223e-05
-5.43997e-06
4.83574e-06
-4.38181e-05
0.00013829
1.97648e-05
-0.000171367
1.33124e-05
-0.000339026
0.00030125
-0.000691156
0.000728933
3.8537e-05
9.07011e-06
0.00037394
0.000290877
-0.000144263
-7.3973e-08
-0.000480448
-5.40039e-05
-0.000349992
0.000206591
0.000961037
-0.000231905
-0.000729132
-8.41543e-05
0.000222593
-0.000138439
-4.13618e-05
0.000239524
-0.000198162
-0.000480484
0.000545448
-6.49638e-05
-0.000487909
0.000481157
6.75216e-06
-0.000133369
-3.38766e-05
0.000167246
2.69712e-05
-7.7128e-05
5.01569e-05
0.000541683
-8.08025e-05
0.000935487
8.56261e-05
0.0002451
-0.000235687
-9.41264e-06
-0.000273662
0.000317791
-4.41293e-05
-0.000106406
0.000174725
-6.83194e-05
-0.000231342
0.000150136
8.12056e-05
-0.000211938
-0.000662536
-0.000363832
-8.72306e-05
0.000187267
-7.94887e-05
0.000242001
-0.000103711
-0.00109009
0.00139902
0.000371871
7.11796e-06
-0.000378989
-0.000952643
-0.000196943
-4.51635e-05
-2.83124e-05
7.34759e-05
-0.000798617
-0.000145323
2.5393e-05
-1.74804e-05
1.91551e-05
-2.70676e-05
-0.000116264
0.000101849
-2.69471e-05
-6.47861e-05
7.35856e-05
-9.29539e-05
-0.000205265
5.028e-05
0.000595957
-0.000440972
0.000791562
-0.000686138
-0.000187309
8.18852e-05
0.000219403
-0.000261855
5.70714e-05
-1.46193e-05
0.000255144
5.75245e-06
-4.5674e-05
-0.000215222
-0.000202128
-5.73564e-05
-0.000456493
0.000872694
-0.000875557
6.89709e-05
-6.61081e-05
0.000181414
-0.000281258
-0.000154623
0.000254467
0.000163157
-0.000145192
-7.97248e-06
-9.99224e-06
5.36853e-05
-0.00054626
0.000492575
5.26201e-05
-0.000545031
0.000492411
0.0010581
-0.000451984
-0.000809314
0.000203197
9.53449e-06
-2.66879e-05
4.25463e-05
-0.000632785
-7.20723e-05
0.000306926
0.000397931
-3.75245e-05
-0.000109656
3.09164e-05
-0.000127871
-2.51972e-05
8.82823e-05
-0.000211521
0.000113426
9.80947e-05
0.000107151
-0.00039154
0.000344018
-5.96294e-05
-0.000594367
3.34822e-05
-5.68857e-05
0.00061777
-0.000290877
0.000474132
0.000333213
3.99725e-05
0.000241103
-1.22394e-05
-0.000268836
-0.000341877
-6.38268e-05
0.00029858
0.000107124
-0.000562645
1.68464e-05
0.000557604
-1.18059e-05
-3.75921e-05
0.000592541
-0.000580383
2.54342e-05
-0.00062724
0.00105692
-0.000768712
4.08878e-05
-1.6722e-05
0.000328081
-0.000352247
0.000765134
-0.000398464
2.8936e-05
2.35003e-05
7.79802e-05
-0.000130416
1.91669e-06
9.18462e-06
4.14774e-06
-0.000238559
6.46532e-05
-6.96776e-05
0.000233131
-0.000788388
0.000685258
4.3528e-06
0.000144829
-0.000204917
5.57354e-05
-5.214e-05
-0.000239666
0.000180994
-0.000191514
0.000806316
0.000138861
-1.71567e-05
-8.04573e-05
0.00014433
-2.54186e-05
0.000148536
2.27233e-05
0.000127413
1.07297e-05
0.00023437
-4.04489e-05
-0.000233213
-0.000519076
3.11665e-05
-7.13647e-05
-0.000572093
-4.60409e-05
-4.84201e-05
0.000371671
0.000602206
-1.61056e-05
-1.04206e-05
-1.91624e-05
1.21025e-05
0.000524662
-0.000552362
2.50729e-05
2.62743e-06
6.41487e-05
-0.000297921
0.000197259
0.000276079
0.000472853
-7.23965e-06
-8.40874e-05
3.05798e-05
6.07472e-05
0.000425182
-0.000118293
0.000137216
-0.000427006
0.000713279
3.62573e-05
-0.000107553
-4.26269e-05
5.074e-05
-0.000110113
-7.25547e-05
-0.00105661
0.000944824
7.15342e-05
-3.20299e-05
4.86642e-05
-3.89042e-05
2.22698e-05
-7.98593e-05
5.40248e-05
-3.42977e-05
6.01322e-05
-2.02082e-05
-0.000113161
-4.9071e-05
7.60422e-05
0.000378679
-0.000157292
-0.00068273
0.000176891
0.000608586
-0.000102747
-0.000213042
0.000717686
4.51588e-05
-0.000549802
-0.000316445
0.000899148
6.12216e-05
-0.000643924
-6.22097e-05
6.34641e-06
8.4351e-05
-2.84877e-05
0.000111846
0.000531998
0.000131532
0.000613869
-8.17628e-06
-2.79788e-06
4.67226e-06
6.30191e-06
-0.000188663
-0.000206458
0.000161428
-5.66916e-05
-9.39774e-05
-8.66408e-05
-8.22382e-05
0.000723171
1.96702e-05
-0.000660603
0.000669124
2.13309e-05
-1.69553e-05
-0.000673499
0.000516757
-2.63772e-05
3.17654e-05
-0.000522145
0.000223645
-0.000136184
-0.000145889
5.84276e-05
-0.000560758
-9.3306e-05
1.67081e-05
0.000637356
4.96547e-05
4.43702e-06
-9.66945e-06
8.64068e-05
-4.50492e-05
-3.46259e-05
-6.73172e-06
0.000136071
-0.00011441
3.05848e-05
-5.22459e-05
0.000179341
-0.000144131
-6.27437e-06
5.07202e-07
-5.83016e-06
0.000229945
-0.000423229
0.00049658
-0.000815714
-9.26494e-05
0.000225634
6.0801e-05
-7.67375e-05
-3.62036e-05
-0.000178143
-4.42849e-05
-2.04951e-05
0.000242923
0.000235861
-7.5848e-05
9.26013e-05
0.000685528
-5.51201e-05
-0.000723009
0.000736666
-0.000610531
-0.000753375
3.11357e-06
1.61211e-05
6.44962e-06
-2.56843e-05
-0.00073849
0.00023554
0.000480715
2.22349e-05
-6.18262e-06
-2.90682e-06
5.87441e-05
-0.000627406
0.000191777
0.000542781
-0.000271055
0.000233463
0.000504892
-0.000755726
-0.000158137
0.000408971
-4.02793e-05
0.000118536
-0.000349165
0.000270908
8.7535e-05
-0.000382965
0.000739284
-0.000685412
7.76597e-05
0.000553976
-0.000515863
7.37331e-05
0.000648326
-0.000547607
-6.50743e-05
-3.56451e-05
0.000104385
0.00154798
-0.00121546
-0.000436909
0.000602112
-0.000830826
0.000352785
-6.71285e-06
1.30927e-05
3.68882e-05
-4.3268e-05
0.00014472
-2.92052e-05
5.921e-05
-3.80796e-05
9.50597e-05
0.000529852
-0.000639133
0.000109281
-0.000404603
0.000289497
-0.00127746
0.00139256
-0.000442908
-3.0701e-05
0.000606998
-0.000133389
0.00022423
-0.000188162
-0.000391957
-7.84988e-06
-1.79496e-06
-7.75713e-07
4.94131e-05
2.19509e-05
9.17931e-05
-0.0013319
0.00117031
-0.000249294
0.000410885
0.000381624
-0.000325894
-0.000130569
7.48396e-05
0.000138906
-0.000558666
0.000537724
-0.000117965
-0.000166313
-1.12673e-06
0.000109976
5.74634e-05
-2.62225e-05
1.99224e-07
0.000360691
-0.000334668
0.000605775
3.09523e-05
-4.4187e-05
-0.000553979
2.40517e-05
-3.27173e-05
-0.000365977
-0.000191388
0.000215488
-0.000987165
-0.000171138
0.000282746
-6.53929e-05
3.83053e-05
-0.000184433
0.000693622
-0.000183473
-0.000592387
3.38763e-05
-2.54508e-05
1.07297e-05
-0.000399809
0.000281403
0.000351536
0.000304321
0.000364906
-0.000590307
-7.89203e-05
0.000114427
0.000163827
-0.00101674
3.68261e-05
-1.60915e-05
-2.85845e-05
-9.60866e-05
-0.000185171
-0.000405126
0.000327946
0.000524832
-0.000447652
-0.000254015
4.46543e-05
4.85196e-05
0.000160841
-0.000727062
0.000470626
-0.000380387
-0.000182628
0.000163206
0.000111545
-3.76836e-05
-0.000497309
0.000441724
0.00036161
-0.000306026
-0.00028286
0.000291177
2.3239e-05
-3.15565e-05
-0.000130501
-3.96218e-05
2.49307e-05
-0.000244881
-0.000437222
7.17706e-05
0.000730357
0.000494216
0.000780142
-0.000419609
-0.00085475
-5.37693e-06
2.47929e-06
1.23899e-05
-9.49224e-06
1.3459e-05
0.000719857
-4.88129e-06
4.4614e-05
0.000573165
-9.01787e-05
-3.02415e-05
1.85593e-06
-0.000565842
0.000594228
-2.35894e-05
2.34048e-05
-0.000264422
0.000264607
0.000431151
-0.000169055
0.000340016
4.18992e-07
-0.000697891
-1.25811e-06
4.61567e-05
-0.000577029
0.000770491
-0.000239619
0.000622992
0.00011745
-0.000134667
-0.000533987
2.61643e-05
-0.000249525
-0.000449748
0.000333296
-0.000176527
0.000685531
0.00023028
-0.000156084
0.000528016
0.000182043
-4.85374e-05
3.77797e-06
-3.9328e-05
-4.16548e-05
-3.04828e-05
5.75216e-05
-3.98578e-05
-1.47988e-05
-0.000464104
0.000333114
-0.000117692
-0.000163716
7.08673e-05
0.000210541
4.53148e-05
0.000116517
-1.65818e-06
-0.000160174
-7.08462e-06
-7.24164e-06
-9.38124e-05
4.39702e-05
1.30476e-06
3.98675e-05
-6.76886e-05
1.98485e-05
-4.23492e-05
0.000303236
-0.000526738
0.000265851
8.18116e-05
-0.00043344
-0.000238678
-6.82156e-05
0.000424596
-0.000382639
2.62583e-05
0.000155589
9.75436e-05
-0.000137249
-0.000115884
-1.13944e-05
-0.000243479
4.82445e-05
-8.86288e-05
6.07707e-05
-2.03864e-05
1.70214e-06
0.00020884
0.000115353
-0.000100906
-0.000223287
8.18691e-05
-4.86808e-05
-0.000424728
0.000459387
-0.00030212
-0.00034313
2.47729e-05
7.54431e-06
-1.58922e-05
-1.64249e-05
7.60177e-05
-0.000621555
-2.62297e-06
2.53747e-06
-3.94824e-05
3.95679e-05
-0.000258661
0.00091216
-0.000284232
0.000243138
-2.65822e-05
6.76766e-05
-0.000313047
0.000741733
0.000600741
0.000198856
-0.000176605
0.000827731
-0.000426399
0.000893493
-3.21436e-05
4.89282e-05
0.000469227
-0.000486012
-2.50967e-06
4.75364e-05
-5.04037e-05
6.87923e-05
2.0728e-05
-7.7305e-05
0.000604696
-0.000787696
-0.000969996
0.00119669
0.000561
-0.000415023
0.000416879
-0.000264415
0.000381866
6.85753e-05
-4.51705e-05
-2.62896e-05
0.000402204
-2.21339e-05
0.000459476
-3.57657e-05
-6.6223e-05
0.000440862
-0.000443466
-0.000503189
0.000505793
-2.15928e-05
-0.000424538
0.000503235
-7.86977e-05
-6.02519e-05
7.07398e-05
-0.000586882
-0.000145124
-0.00130062
0.000658049
0.000203063
-0.000474118
-0.00040193
-1.30931e-05
7.63556e-05
-7.78035e-06
1.156e-05
-2.50565e-07
-8.83015e-06
-1.36751e-05
1.79602e-05
-3.77548e-05
6.82087e-05
3.26798e-05
-0.000705742
0.00024954
-0.000161498
0.0006177
-0.000579028
0.000462572
0.00016935
-0.000206898
-7.68618e-05
2.48352e-07
4.66418e-05
1.44422e-05
-6.13324e-05
-0.000315648
0.000249427
0.000174241
-0.000108019
0.000318737
-0.000186144
0.000434
-0.000566593
-0.000555008
0.000503246
0.000225869
4.7302e-05
-0.000147825
-0.000125346
3.94403e-05
-7.70115e-05
0.000103768
-6.61963e-05
0.000341771
-0.000424164
2.21415e-05
-2.22395e-05
0.000319725
-6.37136e-05
5.65181e-05
-2.11169e-05
0.000932595
-0.000843868
-0.000508335
0.000542385
0.000379544
-0.000745037
0.000207804
8.96589e-05
-0.000828456
4.97124e-05
-0.000808401
0.000421396
-1.25288e-05
-0.000178859
0.000385084
-0.000361032
0.000101623
-9.1905e-05
-7.8037e-05
-5.20682e-05
1.23852e-05
3.91736e-06
-8.01837e-05
-9.58606e-05
0.000112187
6.38579e-05
-2.76772e-05
5.81221e-05
4.74819e-05
-7.79269e-05
5.62427e-05
-1.00471e-05
-4.61956e-05
-0.00056164
0.0014057
-0.00110272
0.000518976
-0.000569625
-0.000659549
-1.8806e-05
-7.63694e-05
4.15257e-05
-6.23426e-05
-7.28512e-05
6.28682e-05
7.23256e-05
-1.6825e-05
-3.54653e-05
0.00024695
-0.00019466
-0.000889028
0.000918094
0.000372682
-0.000401748
-0.000205141
0.000138143
-0.000842439
0.000909436
-0.00109475
0.000534313
0.000752211
-0.000136001
0.000450975
-0.000356051
0.000725136
0.00013011
0.000287092
-0.000153495
-0.000263707
7.36507e-05
-0.000455399
5.006e-05
0.000331688
0.000637563
-3.82562e-05
7.6914e-06
-5.71593e-05
5.49608e-05
4.54529e-05
-4.32544e-05
0.000694793
-9.18233e-06
0.000316298
-0.00100191
-0.000156681
0.000206801
-6.69451e-05
2.69089e-05
1.05446e-06
8.93308e-05
-4.73865e-05
-8.40872e-06
3.72697e-06
-0.000933809
-7.28122e-05
0.00012511
0.000881511
-0.000982195
0.000480131
0.00100648
-0.000504418
0.000111858
-0.00045586
0.000575522
0.00057513
-1.59756e-06
-7.77066e-07
-6.62701e-05
0.000147712
0.000386355
-0.000467797
6.2189e-05
-0.000539528
0.000508867
-0.000475999
-0.000196921
0.00012773
-0.000148951
0.000764804
-0.000859025
0.000343761
-0.000210074
0.000293692
0.000357243
0.00121853
-0.000560997
0.000263811
-0.000921343
0.000444238
-7.49555e-05
-0.000254855
9.01771e-05
-3.03726e-05
-2.44123e-05
5.18469e-05
4.82411e-05
-7.56756e-05
4.52119e-05
-5.2213e-05
-2.93837e-05
3.63848e-05
-2.31351e-05
-6.70699e-05
3.55236e-05
5.46814e-05
-0.000414054
-2.87026e-06
-0.000437826
0.000286754
9.60218e-05
0.000290225
-0.000451966
0.000514882
-0.000353141
0.000481105
0.0011041
-3.72216e-05
-7.28059e-06
6.35233e-05
-0.000575028
-1.80589e-05
0.000797695
-0.000684955
0.000388575
-0.000501315
-0.000152067
-0.000806616
-2.84818e-05
0.000236312
0.00050375
-0.000526224
-0.000701111
0.00155616
0.000363481
-3.6283e-05
-0.00115106
0.00131476
-0.000127422
-3.09213e-05
0.000111319
0.000106267
-0.000162626
0.000153001
0.000193618
0.000396245
-0.000298986
-7.96151e-05
-0.000481382
0.00134561
-0.000549039
-0.00149768
0.000361245
-0.000452579
6.79349e-05
1.2463e-05
0.000345475
-7.29729e-05
5.74341e-05
-4.46119e-05
0.000604878
-6.99874e-05
-0.000304959
0.000373132
1.81421e-06
2.51624e-05
-0.000125325
-5.28802e-05
0.000277217
3.08074e-05
0.000685731
-0.000636324
-0.000520895
0.000471488
0.000684626
-0.000872031
0.000646715
-0.00045931
-0.000173945
9.43303e-05
0.000210656
0.000611582
-0.000468663
0.000321062
0.0010657
0.000309402
-8.53848e-06
0.000499802
-0.000280523
-0.000219279
0.000587214
-0.000845221
-0.000257286
9.86887e-05
-3.83232e-05
-0.000470858
-0.000122366
7.36371e-05
0.000519586
0.000215792
0.000380615
-0.000419294
0.000711576
-0.000211775
-0.000169805
-9.81437e-06
0.000183972
0.000488017
-0.000697366
0.000230653
-0.000126925
7.50557e-05
-0.000178784
-7.21828e-05
0.000195814
3.85851e-05
-0.000162216
0.000279693
-0.000121223
6.11333e-05
0.000330208
-0.000111648
-0.000230599
1.61965e-05
0.000255183
-4.07802e-05
2.63478e-05
0.000371524
-0.000120234
1.64866e-05
0.000199277
0.00015576
2.25998e-06
0.000261177
-1.04661e-06
0.000210108
-1.3246e-05
1.30579e-05
-3.26681e-06
3.45496e-06
-0.000131944
3.2285e-07
0.000155139
-2.35182e-05
1.61307e-05
-0.000182724
0.000171212
-4.61841e-06
2.92587e-06
-0.000115663
-1.92071e-05
-4.87007e-06
2.12994e-05
1.95706e-05
-3.6e-05
-2.34151e-05
1.86209e-05
8.64704e-05
-8.16762e-05
2.01872e-05
-9.82453e-05
-0.000260669
0.000972245
-3.20139e-05
5.62736e-06
2.15165e-05
5.90252e-05
-8.24403e-05
-3.01043e-05
2.21249e-05
2.81665e-05
9.01031e-05
-1.64399e-05
-0.000531331
0.000102488
-0.000512796
0.000941638
3.93965e-06
0.000135692
-0.00114694
-0.000211015
0.00113572
0.000222229
-5.35664e-05
2.00884e-05
6.44066e-05
-3.09286e-05
0.000576876
-0.000286604
-0.000821603
3.31217e-05
0.000145968
-0.000288212
0.000114878
0.000220891
-4.75566e-05
0.000121075
-9.34432e-05
-0.00012589
9.8258e-05
1.22035e-05
4.13472e-05
-9.86108e-07
-5.25646e-05
-5.64573e-05
0.000735822
-0.000496844
0.000473508
-6.45454e-06
7.39635e-05
-0.000234184
-0.000309763
0.000281335
0.000262612
0.000185387
0.000106189
0.000185819
3.50822e-06
3.16301e-05
-0.000119846
2.79048e-05
1.12076e-05
-7.92455e-05
6.73008e-05
-0.000131497
0.000143441
-2.83242e-05
-3.86865e-06
-6.12503e-05
5.65183e-05
-9.12971e-05
-1.76325e-07
1.03358e-05
-8.94049e-05
-0.000705467
-9.83702e-06
1.33548e-05
-3.69415e-06
-2.73727e-05
5.04928e-05
3.39607e-05
-0.00010054
7.70921e-05
9.7019e-06
1.17419e-05
3.94041e-06
-4.11572e-05
4.37964e-06
-1.09629e-05
-3.37068e-05
3.73657e-05
-1.96923e-05
-6.83473e-05
5.06738e-05
-4.85822e-05
4.62298e-05
2.09732e-05
3.18542e-05
-0.0002058
0.00109864
4.85186e-05
-0.00114716
0.000148654
-0.000167658
0.000248949
5.34229e-05
5.60229e-06
-4.55095e-05
-0.000119681
2.37026e-05
-7.40204e-05
5.03177e-05
0.000116933
1.54804e-05
-5.79188e-06
6.39735e-06
-2.97819e-05
2.73805e-05
-4.06265e-05
5.94257e-05
0.000101838
-0.000145783
9.673e-05
-0.000118316
0.000142
9.68776e-05
-9.02236e-05
0.000173121
9.60742e-05
-0.000205046
0.00017663
-0.000189442
0.00111943
0.00017483
-0.000238153
0.000205323
0.000126718
0.000163435
-0.000117032
0.000137662
-0.000229992
9.51659e-05
-2.8353e-06
-0.000118437
0.000258164
0.000136769
-0.000276495
0.000115768
-0.000158855
-2.03868e-05
1.14392e-05
8.94764e-06
0.00142129
-5.44138e-05
-5.06918e-05
8.20712e-06
5.55425e-05
2.60484e-05
1.33219e-06
-6.84835e-05
-1.18128e-06
0.000111294
-4.16289e-05
4.21667e-05
0.000295539
-9.66021e-05
5.66155e-06
0.000152525
-9.61329e-05
0.000112671
-2.28613e-05
-7.44242e-06
5.5078e-06
0.000110562
-0.000136879
0.000148481
-0.000195458
0.000174557
0.000110824
-6.95887e-05
0.000143333
-3.73793e-05
-0.00015332
0.00016718
2.33617e-06
-1.08247e-05
9.04382e-06
1.43003e-05
-2.50666e-06
1.77114e-05
-2.9505e-05
4.42929e-06
-0.000131401
1.49147e-05
-6.58108e-05
0.000175192
-0.00010702
0.000163885
8.67996e-05
-0.00014025
9.86872e-05
5.41804e-05
1.57248e-05
7.34277e-05
4.17113e-05
-1.41407e-05
3.98233e-05
-6.5004e-05
-0.000320888
3.68486e-05
0.000349044
0.000295106
-6.52744e-05
-0.000251337
2.15059e-05
0.000125238
0.000172566
-0.000100335
-0.000197469
0.000131155
0.00106764
-0.000387411
-0.000897126
-7.44449e-05
0.000342161
2.73894e-05
-0.000162502
0.000222466
0.00112114
0.000252483
-8.54426e-05
4.15466e-05
9.80765e-05
-1.09095e-05
4.49193e-05
-4.98948e-05
2.24483e-05
0.000336848
-9.47834e-05
-0.00011087
4.31513e-05
0.00048589
-8.84828e-06
-0.000117915
-8.62619e-06
-1.66734e-07
0.000175973
-0.00026682
-8.10434e-05
-0.000198167
-1.6888e-05
0.000215377
3.19526e-05
0.000492876
-0.000401911
-0.000122918
-1.22924e-05
0.000258849
0.000702031
-0.000272917
-3.87173e-05
0.000256335
5.52986e-05
-0.000138435
0.000427863
-0.00043699
-0.000189176
0.00048773
-0.000150659
0.000118882
-4.77915e-05
-0.000178111
-0.000186481
-0.000404323
-0.00012548
0.000459816
-0.00083365
0.000945664
0.000228301
0.000128549
0.000114965
-1.64358e-05
0.000299539
-0.000299143
3.15569e-05
0.000229304
-7.38462e-05
-0.000171048
1.55901e-05
0.000277294
-0.000129272
-1.47855e-05
1.00355e-06
-0.00108094
0.00104466
0.000263163
-8.72131e-07
0.000230585
0.000116346
6.72073e-06
-4.75718e-05
4.98949e-05
0.000707709
0.000714553
0.000202694
2.66026e-05
-0.000943849
-4.75781e-05
0.000114303
0.000349309
6.62622e-05
2.96591e-05
7.81022e-06
-3.9976e-05
-2.29479e-05
0.000494379
-0.000464467
-6.96431e-06
-0.000847251
0.000707689
6.40694e-05
-0.000107664
9.3889e-05
-8.7724e-06
-8.06873e-05
4.14294e-05
5.94103e-06
4.49984e-05
-7.38286e-05
6.06844e-05
0.000102946
0.000383283
-3.11352e-05
-1.65543e-05
7.13921e-05
0.00107767
2.09739e-05
1.29898e-05
6.70384e-05
-1.14652e-05
-0.000183776
-0.000262232
0.000277529
-2.67615e-05
-0.000892836
0.000572452
-0.000684179
4.71087e-06
-0.00079847
-0.000486067
-0.000632938
0.000906829
-0.000101552
5.67175e-05
0.000154406
-0.00022437
-6.62416e-06
-0.000174286
0.00010749
-0.000906889
0.00046926
3.4398e-08
-0.000963352
0.000669162
-0.000598646
2.66975e-05
-4.25319e-05
0.000695424
-0.00067959
0.000232944
0.000279241
3.95201e-05
-0.00035529
3.65288e-05
-1.34846e-05
6.6107e-05
-4.39775e-05
7.76813e-06
-1.11511e-05
-3.2746e-06
-0.000231988
6.66785e-05
-2.00422e-06
0.000134499
0.00040314
-0.000589809
4.70247e-06
0.000415429
5.89705e-05
-8.9235e-05
-0.0005614
-0.000677118
0.0012396
8.58296e-05
-7.11544e-05
0.000525779
7.30133e-05
0.000576579
-0.000538193
-0.0001114
-9.1126e-05
0.000137221
-0.000979904
-4.00521e-05
2.48697e-05
0.000540962
-0.000515894
0.000144089
-0.000165896
0.000170904
-0.000149097
0.00148101
-0.000923564
0.000346648
-0.00090409
0.000441039
4.18639e-05
-0.000439709
-3.85023e-05
0.000752702
-0.000553211
-0.000350992
0.000151501
0.000230396
-0.000187102
-0.000165711
0.000619925
-0.000366776
-0.000373316
-4.57931e-05
-0.000169432
0.000245627
0.000100684
-0.000176879
-0.00120201
4.58773e-05
9.95295e-05
0.000813837
8.90589e-05
0.000207288
-0.00111018
0.000231896
1.50386e-05
9.62474e-05
-1.50362e-05
3.99699e-05
0.00044733
-0.000901632
0.000567195
-0.000146358
-0.000263504
0.0001406
0.000269262
-0.000351673
0.00065552
-0.000661532
0.000690186
-0.000445996
0.000505199
5.04536e-05
0.00114736
-0.00114929
-0.000117258
-0.00023574
0.000937246
-0.000929325
-0.000323611
0.0005456
-0.000443038
0.000967205
-0.00100017
0.000917479
-0.000903209
-0.000363903
-8.48769e-05
1.5339e-05
-0.00018882
0.000105043
0.000151712
-5.27022e-06
0.000188453
4.61211e-05
-0.000110967
-6.81757e-05
-0.000105718
0.000119942
0.000149661
-0.000170373
-0.000378265
0.000190681
-0.00010082
-0.000778401
-0.000192615
0.000674358
-0.000790219
-0.000488698
-0.000608758
0.000820647
0.00078318
-7.4386e-05
-0.000166409
7.38501e-05
-0.000886528
5.20066e-05
-9.89798e-05
9.39259e-05
-0.000876278
9.94695e-06
1.47274e-05
0.000850031
-0.000874705
-1.35159e-05
3.87144e-05
0.000753945
-0.00079266
-0.000228911
6.5146e-05
-0.000168801
0.00060657
-0.000209901
-0.000129898
-6.52204e-05
-0.000572191
-0.000235549
0.000413491
-0.000416367
-3.68576e-05
0.000813341
-0.00076835
-0.000694075
-0.000843225
0.000975948
0.000561352
4.41733e-05
-2.82003e-05
0.000921273
0.00014775
0.000222035
0.000980505
-0.00103292
0.000699546
-9.74633e-05
-0.00105779
0.00110246
5.27932e-05
-0.00114013
-1.41993e-05
6.9692e-05
-6.55967e-05
-0.000547018
-0.000205297
0.000563139
6.21039e-05
-0.000476045
-0.000152953
0.000503518
-0.000350987
8.82099e-07
-0.00103606
-0.00049044
0.000474069
0.000146482
-3.69673e-05
-3.11057e-05
9.05213e-05
-0.000524066
-0.000193325
-0.000110748
-0.000729296
-3.98678e-05
0.000769164
1.40589e-06
-2.38949e-06
-4.45638e-06
0.000276776
-0.00127229
-5.38146e-05
0.00104933
-0.000445426
8.34806e-06
-1.02934e-05
-7.08806e-06
0.000532237
-0.000514855
-4.59831e-05
2.53857e-05
-0.000947501
-6.01387e-05
2.57813e-05
-7.6513e-05
-4.73258e-05
-1.81615e-05
2.78037e-05
0.000624642
-0.000342565
0.000121758
0.000268916
0.000346146
0.000171686
1.76447e-05
5.75179e-05
0.000159377
-0.000411712
-6.33131e-05
0.000128479
-0.000228961
9.88243e-05
-0.000106922
0.000143847
3.39421e-05
2.59895e-05
-8.26148e-08
-8.74044e-06
3.91068e-05
-3.7647e-05
-0.000268538
0.000390469
-0.00011743
-4.50134e-06
0.000861643
-0.000827876
0.000585398
3.89595e-05
0.000203519
-3.26856e-05
0.000209101
-3.1629e-05
3.09974e-05
-1.30434e-05
8.41337e-06
-6.88286e-05
1.26237e-05
1.37031e-05
-2.99616e-05
1.62585e-05
-6.51078e-05
2.61528e-06
-5.36404e-05
3.26516e-05
2.09888e-05
-6.5686e-05
5.89249e-05
6.76113e-06
-3.87365e-05
-0.000275991
-5.27619e-05
4.72385e-05
5.52341e-06
2.15326e-05
-0.00110607
0.00117863
-0.000488128
-0.0015121
-9.75266e-06
2.34558e-05
-7.23988e-05
0.000199901
0.000127406
-4.80653e-05
-7.73711e-05
2.37307e-05
-1.03322e-06
0.000678107
-0.000660738
-0.000222666
2.28989e-05
6.163e-06
4.43595e-06
-0.000310998
-0.00018849
-0.000185476
0.00027238
0.000152156
4.60896e-05
-7.69606e-05
4.56172e-06
-0.000192296
0.000168318
-9.19346e-06
-0.000431972
5.22891e-05
0.000441872
-0.000138058
0.000140945
0.000706051
-8.53635e-05
-4.10576e-05
8.12356e-05
0.000659368
0.00110565
-0.000857678
0.000695813
7.08085e-05
0.000425992
-0.000322489
1.2844e-05
-2.00471e-05
-0.000101452
0.000119226
0.000114927
-0.000173091
-6.10613e-05
-0.000108368
-8.7386e-05
-0.000463878
2.46496e-05
-0.000614188
-0.000141884
9.65243e-05
0.000659548
0.000932343
-1.19293e-05
-6.28171e-05
7.54696e-05
1.89756e-07
-2.38125e-05
6.89588e-05
-5.43544e-06
0.000211453
-0.000426082
-0.000326939
-8.8146e-05
-1.00525e-05
0.000225604
-0.000155297
0.000159359
-4.15992e-05
-0.000104399
7.71692e-05
4.91412e-06
-0.000365473
-0.000637688
0.000582568
0.000866017
1.84947e-05
-0.000101936
-1.38407e-05
-0.000672714
0.000427372
-2.88766e-05
-0.000297382
0.000269373
-0.000199182
0.000335926
-0.000171468
0.000173638
-8.59392e-05
8.37692e-05
1.88184e-05
1.441e-05
4.90422e-06
-0.000146872
0.000122963
2.3909e-05
4.96936e-05
-5.58309e-05
6.13732e-06
-4.96437e-06
-8.73551e-05
6.45988e-05
-8.88526e-05
0.000611697
0.000229857
-3.33114e-05
7.52842e-05
0.000112477
-9.76579e-05
-0.000304418
0.000306938
-2.39144e-06
-0.0011083
-4.02542e-05
0.000115639
0.00121605
-0.00115885
3.78607e-05
-3.96336e-05
3.38841e-05
0.000105812
-7.59776e-05
0.000124172
0.000429551
6.81541e-06
-1.39833e-05
0.000431764
-0.000286929
-0.000395272
4.58675e-06
-0.00079267
-0.000456243
-0.000258646
-0.000141397
5.7343e-05
-0.000327371
4.297e-05
-2.65619e-05
-4.87679e-06
-1.15313e-05
-2.1478e-05
0.000114742
4.18131e-06
5.9863e-05
-0.000174086
-0.000333672
0.000107429
0.000502592
-4.03176e-05
1.0356e-05
-0.000104745
-0.00101425
-3.90186e-05
7.5354e-05
-3.36713e-05
-4.69248e-05
-5.42802e-06
-0.000173769
-7.82724e-05
0.000235488
-8.77495e-05
0.000295814
-0.000335125
3.18153e-05
-0.000118976
2.70443e-06
2.27146e-05
-8.55577e-05
-0.000133416
0.000560342
-2.54429e-05
3.18989e-05
-0.000196102
-0.000232397
-0.000774627
0.000987761
-0.00071102
0.000357518
-0.000489723
7.08676e-05
0.00080612
-0.000115876
0.000159041
8.45648e-05
-6.19404e-05
-5.62615e-05
4.18324e-05
0.000104095
-9.8345e-05
5.71182e-05
6.83617e-05
-1.28603e-05
-0.00012933
0.000712062
-0.000190043
-0.00068773
0.000221763
0.000120109
0.000149475
2.16994e-05
2.79942e-05
-0.000111195
0.00117966
2.4886e-05
-0.000127902
-0.000633101
-1.15956e-05
-0.00093157
0.000574213
-1.77353e-05
0.000161208
-1.97095e-05
0.000195948
-6.24443e-05
-0.000118702
0.000199855
3.3236e-05
1.64671e-05
2.75743e-05
0.000536601
7.268e-05
-0.000201832
0.000339158
7.36136e-05
-8.87101e-05
-5.02963e-05
-0.000275834
4.79905e-05
7.1726e-05
8.5848e-06
1.77792e-05
4.09367e-05
0.000398498
-0.000490676
-4.12375e-05
-0.000696647
-0.000520032
0.000442052
-4.53608e-05
8.00461e-05
0.000107409
-4.76234e-05
-2.08256e-05
5.46022e-05
-0.000231948
0.000143668
-0.000110345
0.00038349
-1.82678e-06
0.000131
-8.68855e-05
7.94159e-05
-0.00012978
6.92087e-06
-5.77497e-06
0.000783705
-0.000460808
-0.000184753
0.000439265
-0.000340258
2.62316e-05
-0.00013986
9.12343e-05
0.00045263
-0.00118476
-0.000282128
-0.000163594
0.000281133
-0.000337782
-0.000126336
-0.000558232
0.00047263
-0.000156733
-6.19271e-05
3.472e-05
-0.000478863
-0.00053228
-0.00124177
-4.47425e-05
1.32239e-05
-0.00018518
-4.6685e-06
7.58009e-05
-3.0021e-05
-4.11114e-05
0.000172159
-0.000149267
-2.40337e-05
0.000237316
-0.000261964
-0.00016095
0.000473499
-0.000378819
0.000153171
-8.01961e-05
-0.000471439
0.00102142
-0.000969032
3.60948e-05
0.000381808
-0.00024756
-2.56754e-05
7.54958e-05
-1.57937e-06
-1.7384e-05
5.27931e-06
1.03098e-05
-0.000123452
-0.00147234
-0.000832914
-0.00038327
0.000314277
8.95747e-05
-2.62409e-05
1.64838e-05
-0.000123617
-2.49975e-05
-8.1182e-06
-1.0285e-07
-0.00020137
-5.24412e-05
-2.56566e-06
-8.25726e-05
-0.000567981
0.00058144
-0.000512699
0.000576342
5.09822e-06
-0.000505263
0.000444627
6.06357e-05
-0.000448606
-6.40936e-05
-3.97884e-06
-0.000683251
0.00068367
-0.000554183
0.000569045
-1.48621e-05
-0.000509569
-0.000634077
-4.9174e-05
0.000656603
0.000629907
2.66963e-05
-0.000562306
-0.000430482
0.000491566
-0.000445072
-4.64946e-05
-0.000333834
-9.66475e-05
-0.000240965
-9.28697e-05
0.000180202
-0.000135547
-6.0763e-05
0.000616758
1.31485e-05
0.000634338
-1.75798e-05
0.000654008
1.41976e-06
0.000533189
-0.000372592
6.96333e-05
-6.74499e-07
-7.58171e-05
-0.000147496
7.42161e-05
-0.000240295
0.000147135
4.14631e-05
-9.9494e-05
0.000160035
-0.000237798
-0.000682889
0.000187099
-2.28955e-05
7.31287e-05
0.000458633
-0.000574795
0.000141718
-0.000181112
0.000139236
0.000140548
0.000101405
2.15579e-05
-0.000841271
-3.76451e-05
-3.66535e-05
0.000122026
-7.66209e-05
9.74158e-05
-0.000793492
-0.000194468
-0.00149638
0.000539625
0.000280222
-0.00022144
-2.76154e-05
0.00064858
-5.52134e-05
8.36694e-05
1.7371e-05
-1.24172e-05
0.00105905
-0.00126365
7.94702e-05
3.26651e-07
-7.97969e-05
0.00126051
3.39967e-05
6.38405e-05
0.000220284
-0.000133004
1.19132e-05
3.06972e-05
0.000226652
0.000771697
-0.000781505
-0.000180235
-0.000177037
8.51337e-06
-0.000373951
0.00020544
0.000698364
0.000795977
-0.00080064
7.04292e-05
-2.52717e-05
5.57687e-05
-7.61605e-05
0.000277544
-0.000164986
0.000174533
-0.000528153
-0.000790307
-0.000213902
-6.91981e-05
0.000171852
-7.66031e-05
0.000125039
-0.000220288
0.000236723
0.000224241
-0.000217826
8.84167e-05
-7.25749e-05
-7.65427e-05
-0.000228766
0.000586712
0.000116894
7.18629e-06
-1.32967e-05
-1.28278e-05
3.64677e-05
0.000164558
0.000284652
-0.000405077
-5.46586e-06
-0.00013132
0.000686622
0.000583891
-0.000197219
-0.000102524
-0.000526083
-0.000608713
0.000599865
-0.000173209
9.6151e-06
-0.00073674
0.000540333
-0.000159644
-0.000337467
0.000195831
5.63472e-06
0.000131908
0.000351076
-0.000508915
-6.94487e-05
0.00020982
2.76978e-05
-7.29306e-05
8.72811e-05
-0.000578403
2.76201e-06
-4.00689e-05
-3.28601e-05
0.000399163
0.000119229
0.000418537
0.000438059
-0.000135447
0.000130598
0.000460241
-0.000485374
-9.16276e-05
1.82196e-05
-3.863e-06
-1.06296e-05
-0.000207254
-6.48523e-05
8.73191e-07
-0.000478526
-0.00135299
0.00111843
0.000225651
-0.000128096
0.00068615
0.000201741
6.83213e-05
5.49249e-05
5.35198e-05
-0.000195316
0.000271771
-3.40036e-05
1.22088e-05
3.82619e-05
2.94132e-05
-4.01837e-05
-0.000100196
5.66163e-05
-6.13572e-05
0.000124683
0.000765812
0.000500913
-0.000404806
-3.43966e-05
0.000237162
-0.000173327
-0.000339668
-0.000137448
0.000208848
-0.000245975
4.50855e-05
-0.000123185
6.99626e-05
0.000245244
-0.000309213
-5.99352e-06
-7.23071e-05
-4.52994e-05
2.18033e-05
1.80643e-05