/*--------------------------------*- C++ -*----------------------------------*\
| =========                 |                                                 |
| \\      /  F ield         | OpenFOAM: The Open Source CFD Toolbox           |
|  \\    /   O peration     | Version:  v1912                                 |
|   \\  /    A nd           | Website:  www.openfoam.com                      |
|    \\/     M anipulation  |                                                 |
\*---------------------------------------------------------------------------*/
FoamFile
{
    version     2.0;
    format      ascii;
    class       volScalarField;
    location    "0.15";
    object      k;
}
// * * * * * * * * * * * * * * * * * * * * * * * * * * * * * * * * * * * * * //

dimensions      [0 2 -2 0 0 0 0];


internalField   nonuniform List<scalar> 
1431
(
0.205998
0.548715
1.07721
1.33415
0.149165
0.100523
0.142523
0.196637
0.525754
0.550746
0.224835
0.515514
0.292472
0.983219
1.26382
0.346389
1.17802
0.180616
0.112125
0.2427
0.168639
0.484395
0.0859414
1.08367
0.969921
0.262771
1.14371
0.894038
0.496763
1.39803
1.09153
0.332349
0.196072
0.0727734
0.109758
1.07832
0.289838
0.309398
0.113985
0.303345
2.13065
0.388327
0.0729784
0.110057
0.243299
0.132376
1.12461
0.202259
0.494622
0.396902
1.04366
0.50996
0.149486
0.0901779
0.131033
0.194594
0.251097
0.0952361
0.813761
0.150704
1.35563
0.0995918
1.30123
0.2929
0.60219
0.180168
0.879552
0.108248
0.714342
0.324122
0.0739218
0.104147
0.165344
0.115974
0.335053
0.171277
0.15697
0.784228
0.225094
1.56151
0.269971
0.775658
0.18488
1.57631
1.98052
0.161055
0.188305
0.632904
1.1992
0.236955
0.0909593
0.774429
0.190554
0.307551
0.550231
0.176655
0.461578
0.269507
0.16122
0.732685
0.599304
0.221791
0.125159
0.155487
0.66853
0.256578
0.24097
2.44756
1.64272
0.14638
1.9275
0.130726
0.213219
0.149057
0.579862
0.156062
0.155505
1.21117
1.33593
0.20798
0.287039
0.145266
0.407015
1.02468
0.293794
0.278745
1.50311
0.339544
0.175676
0.488327
0.0891618
2.07137
0.743825
0.106941
0.187996
0.889103
0.152665
0.18204
0.110714
2.09049
0.542934
0.105507
0.290656
0.554766
0.753997
0.37443
0.269434
2.42887
0.141543
0.398335
0.508713
0.651384
0.477711
0.197855
0.0768846
0.407308
0.283622
0.101833
0.205555
0.272041
0.227603
0.197616
0.136369
0.51818
0.179713
2.64866
0.163939
0.299025
1.20371
0.160076
0.695245
0.497179
1.001
0.387653
0.283555
0.0787958
0.186708
0.500025
1.40925
0.225477
0.316682
1.33534
0.20132
0.212211
0.349091
0.419435
0.228487
0.918308
0.286425
0.299747
1.60711
1.47034
0.171666
0.254893
1.19286
0.270824
0.235181
0.253364
0.09861
0.0999192
0.148001
0.743065
0.344995
2.1843
0.247087
1.56159
0.172891
0.305191
0.206773
0.475306
0.264913
0.216972
1.32965
0.299726
0.158919
0.0856378
0.199036
2.44652
1.18246
0.304445
0.291933
1.60686
0.432449
1.3808
0.318671
0.534553
0.595414
0.140667
0.438619
1.2108
0.166852
0.831975
0.303731
0.200295
0.196964
0.20567
0.289669
0.188314
0.274779
0.333407
0.311938
0.303559
0.213775
1.53773
0.41897
0.407519
0.30944
0.116968
0.0779876
0.590138
0.278467
0.309596
0.50713
0.631928
1.33194
0.657817
0.859125
0.301775
0.611465
0.636401
0.673199
0.471602
0.169503
0.257104
0.199196
0.421546
0.56519
0.246908
0.472816
0.177649
0.23613
0.559635
0.274472
0.271423
0.692018
0.267339
0.100074
1.21563
0.334406
0.505397
0.92625
0.347928
0.71208
0.0921457
0.59277
0.958059
0.16464
0.191521
0.518329
0.29277
0.392336
0.331022
0.196609
1.42046
0.305907
0.211084
0.166678
0.249948
0.315288
0.248586
0.323188
0.623099
0.278168
0.252124
0.108268
0.355462
0.281882
0.645624
0.622447
0.0737166
0.304803
0.337909
1.95839
0.118995
0.293091
0.367283
0.411542
0.386242
0.197767
0.854515
0.375573
0.693414
0.534497
0.401499
0.257414
0.831132
0.257863
0.682949
1.43672
0.294038
1.10288
0.321808
0.275657
1.40431
0.278489
0.417188
1.22195
0.434249
1.08621
0.235081
0.124449
0.263845
0.677441
0.436332
1.29317
0.21258
0.323384
0.0596974
0.0424025
0.0413255
0.0951695
0.0663059
0.115971
0.340855
0.247623
0.107607
0.0789109
0.232216
0.151316
0.167902
0.954708
0.261919
0.476804
0.0470841
0.042128
0.0616956
0.748171
0.221087
1.42796
1.17898
0.466989
0.269415
0.86136
0.356397
2.21215
2.09722
0.968767
0.328029
0.362151
0.10888
0.0724258
0.0701636
0.0432929
0.0919547
0.246401
0.618184
0.194987
0.241762
0.228875
0.0445638
0.0607375
1.17643
0.502949
0.362255
0.849046
0.113824
0.201543
0.315622
0.293285
0.280521
0.144317
0.967472
0.308062
0.947662
1.07674
0.327296
0.370487
0.269918
0.0654931
1.11131
0.61989
0.772666
0.205174
1.11721
0.639918
0.825659
0.685784
0.15976
0.410965
0.0994086
0.404649
0.731959
0.368447
1.16671
0.959651
0.756986
1.1109
1.07227
0.333372
0.964781
0.495376
1.251
0.463174
0.997164
0.357056
0.877097
0.583957
1.10824
1.32839
0.101336
0.135411
0.150922
1.16662
1.33181
0.83758
0.53755
0.466441
1.45777
1.42706
0.991695
0.954108
0.404062
0.667896
0.388962
0.696588
0.440044
0.458747
0.467576
0.466871
0.361004
0.885079
0.938023
0.100492
0.0851822
0.368923
0.356376
0.062234
1.22702
0.0901771
0.390394
1.23763
0.330594
0.25758
0.840951
0.0874056
0.401826
1.18802
1.16501
1.40588
1.07689
0.96016
0.421789
0.853458
0.206177
0.414239
0.15222
0.0862758
0.323186
0.545944
1.19349
1.00588
0.975614
0.437045
1.18273
1.01547
0.520914
0.758422
1.68135
0.32525
1.51083
0.0889449
1.2783
1.09692
1.13524
1.05953
2.2168
0.407591
0.339648
0.938773
0.15034
0.138339
1.79513
0.224353
1.24826
0.316062
0.927619
1.21606
1.0634
0.951012
0.344294
2.72435
1.45016
2.12111
0.0629568
0.352904
0.544224
0.673058
0.710449
1.6285
1.34627
0.386289
0.250201
1.36755
1.84604
0.44039
0.700571
1.06278
1.26697
0.696444
1.18332
1.27914
1.47666
0.789069
0.196385
0.0662298
0.359705
1.17782
0.217903
0.358815
0.466247
1.41402
0.0649951
0.604997
0.5359
0.29145
0.953648
1.04732
0.912876
0.601684
0.19263
0.931656
1.26026
1.02522
1.1857
0.233427
0.0916432
0.654925
0.206172
1.2374
1.22462
0.076888
0.327296
1.29159
0.343002
1.33946
0.0915182
0.649902
1.82227
1.15916
0.486278
0.62916
0.223905
0.828094
1.04958
0.250677
1.25399
0.730967
0.313836
0.90572
0.412909
0.2546
0.104699
0.359643
0.293271
0.273497
1.30463
0.0813679
1.79773
0.20868
0.20132
0.824795
0.651722
0.431196
1.16586
1.11146
0.30933
0.19291
0.486209
0.382956
1.64674
1.25745
0.438044
0.125018
1.02514
1.47382
0.208534
1.6551
0.276219
1.05245
0.340952
0.310246
0.341892
0.133746
0.434745
2.20001
0.29679
0.337512
0.0917916
0.464589
0.230378
0.345342
0.145922
0.0789233
0.23886
0.37616
0.427582
0.463029
0.201196
0.563478
0.114014
1.18903
0.446421
0.247614
0.327349
3.10763
1.09412
1.23285
0.140367
0.498014
0.11871
0.26718
0.418134
0.259575
0.642098
0.135177
0.433976
0.257042
0.332181
1.367
0.330079
1.25726
0.103717
0.0899604
0.0892513
0.282858
0.196061
0.359103
0.375258
0.332471
1.18748
0.0964034
0.264474
0.105884
1.27248
0.373535
0.344193
0.0922749
0.163759
0.391124
0.523144
1.36946
0.0651634
0.47409
0.17394
2.15197
0.880748
0.91447
1.15938
1.13272
0.267351
1.5046
1.28417
1.2219
0.200662
0.532566
0.488526
0.0480261
0.0640751
0.272689
0.2072
1.14722
0.478646
0.189773
0.475257
0.178867
0.834621
0.604812
0.26986
0.362823
2.31167
1.61036
0.0690121
0.302263
0.396424
1.04568
0.42137
0.542283
1.38228
0.214346
0.133606
0.413609
0.300046
0.21817
1.22504
0.268245
0.427458
0.450318
0.932115
0.507788
1.04723
0.873851
0.0830112
0.482056
0.475307
1.1205
0.191303
0.0864149
1.72736
0.322935
0.084345
1.23996
0.195268
0.336592
0.098308
0.592704
0.404718
0.206322
0.470312
0.831508
0.282022
0.147205
0.190348
0.481293
0.509554
0.086555
0.0822915
0.350119
0.525471
0.421146
1.70754
0.088405
0.807143
1.00207
1.00003
0.304084
0.0977854
0.278999
1.02258
0.61637
0.493642
2.45862
1.22669
0.0773573
0.190236
0.408693
0.569692
0.11917
1.21108
1.0108
0.315802
0.276832
0.0628607
0.527965
0.171342
0.125592
1.82827
0.0678564
0.198233
0.0996915
1.95743
0.0929233
0.193026
1.01053
0.749337
0.362676
0.309681
0.0866717
0.199824
1.12246
0.228647
0.793582
1.16311
0.224951
0.372561
0.048811
0.377861
1.17122
0.312892
0.0986548
0.164981
0.280971
0.233658
0.116437
0.100369
1.41805
0.538584
0.5278
0.518489
0.529136
0.503843
0.509569
0.509974
0.548085
0.641251
0.252957
0.385518
0.19591
1.09497
0.325514
0.0965488
0.200628
0.0586745
0.148002
0.0964937
0.162392
0.565652
1.08287
0.608316
0.152879
0.846811
0.194726
0.274124
0.266576
0.506535
1.19462
0.242136
0.309791
0.441506
0.488799
0.237747
0.648107
0.699207
0.328893
0.0438395
1.0475
0.0884798
0.350982
0.116952
0.320658
0.342658
0.225571
0.0879876
0.335297
0.286505
0.336766
0.172421
0.214515
0.197068
0.0828115
0.151691
0.354937
1.05581
0.0927902
0.750586
0.0598216
0.243551
0.08504
0.126337
1.53652
0.248554
0.133205
0.296216
0.110224
0.0687608
0.294842
0.195186
0.0823875
0.619961
0.446218
0.318682
0.447646
1.20353
0.0900353
0.270019
0.218946
1.02654
0.0622978
0.219444
1.47777
0.361322
1.15792
0.928325
0.526692
0.707793
0.93134
0.848495
0.49506
0.196273
0.060721
0.0672747
0.098992
0.22322
1.44872
0.809425
0.537292
1.1156
1.22153
0.355168
0.482438
0.361574
1.1596
0.220751
0.0821179
0.233521
0.212116
0.714365
0.341251
0.530937
0.478092
0.585087
1.06419
0.189222
0.141111
0.157983
0.189152
0.175979
0.135291
0.199668
0.208687
0.590275
0.0512008
0.100894
0.25092
0.212815
0.183225
0.0680374
1.84789
0.150601
0.527809
0.173985
0.408157
0.117448
0.450392
0.914969
1.70121
0.350495
0.208367
0.250699
0.899307
0.141314
0.119485
0.684625
0.306239
0.649849
0.531831
0.187485
0.202741
0.983481
0.104477
1.66548
0.336998
0.547056
0.483141
0.68055
0.388009
0.548236
0.240266
0.189367
0.19708
0.130303
0.615449
0.412203
0.888396
1.15307
0.248527
0.713087
0.112287
1.2499
0.159356
0.725969
0.117558
0.253279
0.751325
0.63656
0.328146
0.354802
1.06128
0.665272
2.14734
0.143797
0.127481
0.255756
0.460139
0.0858668
0.129399
0.19908
0.0898019
1.31581
0.350447
0.0902027
1.00766
0.421746
0.22859
0.269908
0.904311
1.32368
1.15076
0.372641
0.431416
0.423545
1.02831
0.0938678
0.307919
0.279772
0.74791
0.34983
0.402299
0.544181
0.197978
2.28802
0.653962
0.465574
0.861438
2.0862
0.580462
0.435441
1.60295
0.316519
1.21277
0.21704
0.877206
0.150892
0.0790321
0.125963
0.963918
0.333397
0.691998
0.292012
0.189108
1.22956
0.328563
0.461527
0.28301
1.25814
0.0736023
0.114856
0.119871
0.409011
1.14273
0.201883
0.834869
1.08876
0.349533
0.623451
0.214494
0.0990849
0.292264
0.309902
0.327473
0.490595
0.0924806
0.201996
0.534964
1.05396
0.244765
2.17779
0.0999795
0.792939
0.353194
0.355141
0.115112
1.20567
1.53559
0.0727436
0.257638
0.116875
0.615552
0.90862
0.45455
1.07189
0.595308
0.385007
1.44351
0.205639
0.50845
0.188685
0.22947
0.334528
0.184547
1.54636
1.61965
0.13715
0.433085
0.992375
0.062046
0.373828
1.19798
0.0925064
0.241252
0.640656
0.201141
1.07694
1.07246
0.758573
0.147728
0.938991
0.836517
0.209242
0.590799
0.243124
0.205447
0.759353
0.366971
0.123522
1.1757
0.170589
0.772492
0.871989
0.0909827
0.124729
0.35615
0.0676434
0.215644
1.1742
0.160506
0.166423
0.448098
0.605143
0.221979
0.0618441
0.133796
0.0973756
1.26845
0.544173
0.10768
0.206947
0.772726
0.129854
1.5736
0.259802
0.747258
0.0746094
0.119267
1.14322
0.241386
0.677624
1.4979
0.814975
0.572751
0.288151
1.34904
0.10707
0.0593928
0.175837
0.448256
1.21279
1.01106
0.0680918
0.123738
0.150937
0.33647
0.100242
1.03257
1.07837
0.604878
0.366327
0.193499
0.0524098
0.128453
0.559201
0.942197
0.784707
0.190786
0.167596
0.678477
0.635666
1.27583
1.03414
0.432318
0.0616938
0.339433
1.61783
0.545771
0.130638
1.07165
0.201008
0.865917
0.512922
0.246981
0.303207
1.22282
0.234127
0.143759
1.05379
1.03519
0.68289
0.346333
0.343156
0.269931
0.351683
0.359996
1.18314
0.451684
0.211531
0.720148
0.0828537
1.10621
0.360291
0.338275
1.50753
0.272015
0.431284
0.430605
0.103773
1.12499
0.194135
0.193318
0.283324
0.414008
0.344118
0.615205
1.79128
0.147204
1.09267
0.115458
0.394469
0.922478
0.181294
0.287624
0.108178
0.414641
2.28606
0.986806
0.0780033
0.113914
0.492513
0.143937
0.250099
1.3866
0.286047
0.183343
0.588278
0.202366
0.324178
2.83836
0.26781
1.89303
0.462703
0.233272
0.184214
0.398627
0.28056
1.17356
0.112613
0.39755
0.340886
0.987347
0.486349
0.227572
1.13725
0.775514
0.46142
0.0636409
0.265745
0.210967
0.226602
0.383832
0.260056
0.568759
0.695246
0.12234
0.593551
0.233527
0.416018
0.698703
2.34635
0.480848
0.637789
0.48646
0.229518
1.41035
0.844786
0.115832
0.324774
0.270889
0.350873
0.241912
1.12908
0.344067
0.104467
0.306444
0.22993
1.3532
1.08738
0.408995
0.971374
0.446937
0.329003
0.37087
0.428671
0.333908
0.426067
0.112408
0.882326
0.42289
0.154145
0.903476
1.09782
0.10078
0.440246
0.148405
0.143747
0.239815
0.457371
0.245009
1.77208
0.788031
0.355966
0.49844
0.0972537
0.79404
0.584488
0.155828
0.28946
0.214629
0.329596
1.43347
0.232084
0.760303
0.160523
0.247512
0.586363
1.89937
1.21552
0.101539
0.325597
1.19893
0.212486
0.0967425
0.329145
0.328503
0.522776
1.08062
0.567045
0.434413
0.291035
0.193274
0.542511
0.31941
0.970528
0.156616
0.255118
0.263384
0.330623
1.21152
1.02118
0.301727
0.207046
0.308894
0.394975
0.631474
0.287486
0.244327
1.35889
0.466984
0.0964548
1.28934
0.327299
0.249756
0.476352
0.209812
1.30409
0.30198
2.37203
0.234446
0.71884
1.62145
0.336591
0.585007
0.159924
0.518436
0.22956
0.955293
0.353237
0.264579
0.343774
0.793011
0.376732
0.225016
0.229398
0.306122
0.342482
0.276777
0.939102
0.914864
0.912111
0.638352
0.591685
0.652469
0.206876
0.353429
0.547163
1.1361
0.4628
0.315315
0.318271
1.2219
0.508413
0.960134
0.520226
1.26832
0.464261
0.208167
0.625524
0.415121
0.078357
0.0931497
1.29391
0.100984
0.120138
0.0977471
)
;

boundaryField
{
    frontAndBack
    {
        type            empty;
    }
    wallOuter
    {
        type            kqRWallFunction;
        value           nonuniform List<scalar> 
90
(
0.346389
0.42137
0.413609
0.427458
0.507788
0.482056
0.475307
0.592704
0.404718
0.481293
0.509554
0.61637
0.493642
0.569692
0.527965
1.01053
0.538584
0.5278
0.518489
0.529136
0.503843
0.509569
0.509974
0.548085
0.506535
0.93134
0.848495
0.530937
0.585087
0.157983
0.189152
0.175979
0.135291
0.199668
0.208687
0.212815
0.173985
0.117448
0.450392
0.208367
0.187485
0.202741
0.983481
0.104477
0.189367
0.19708
0.159356
0.725969
0.117558
0.665272
0.904311
0.197978
0.461527
0.623451
0.534964
0.115112
0.116875
0.615552
0.90862
0.385007
0.50845
0.188685
0.13715
0.992375
0.640656
0.758573
0.938991
0.123522
1.1757
0.170589
0.572751
0.10707
1.01106
0.150937
1.07837
0.942197
0.432318
0.545771
0.130638
0.865917
0.430605
1.09267
0.115458
0.462703
0.12234
0.143747
1.21552
0.101539
0.522776
0.394975
)
;
    }
    inlet
    {
        type            fixedValue;
        value           uniform 0.375;
    }
    outlet
    {
        type            zeroGradient;
    }
    wallInner
    {
        type            kqRWallFunction;
        value           nonuniform List<scalar> 
138
(
0.515514
0.112125
0.196072
0.0727734
0.109758
0.388327
0.879552
0.108248
0.0739218
0.104147
0.171277
0.743825
0.197855
0.0768846
0.0787958
0.186708
0.09861
0.0999192
0.148001
0.743065
1.3808
0.657817
0.859125
0.611465
0.636401
0.673199
0.56519
0.692018
0.59277
0.645624
0.622447
0.124449
0.21258
0.0596974
0.0424025
0.0413255
0.0951695
0.0663059
0.115971
0.340855
0.247623
0.107607
0.0789109
0.232216
0.151316
0.167902
0.954708
0.261919
0.476804
0.0470841
0.042128
0.0616956
0.748171
0.221087
0.10888
0.0724258
0.0701636
0.0432929
0.0919547
0.246401
0.618184
0.194987
0.241762
0.228875
0.0445638
0.0607375
0.144317
0.772666
0.825659
0.463174
0.150922
0.83758
1.42706
0.938023
0.840951
1.07689
0.853458
1.19349
1.00588
0.975614
1.01547
0.758422
1.2783
0.15034
0.138339
1.0634
0.0662298
0.0649951
0.604997
0.601684
0.076888
0.20132
0.0789233
0.196061
0.0651634
0.0480261
0.0640751
1.04723
0.0830112
0.336592
0.088405
0.278999
0.408693
0.0628607
0.749337
0.048811
0.200628
0.608316
0.152879
0.0438395
0.0672747
0.714365
0.0512008
0.100894
0.0680374
0.68055
0.713087
0.112287
0.127481
0.255756
1.14273
0.0999795
0.792939
0.062046
0.0676434
0.160506
0.772726
0.129854
0.0524098
0.128453
0.103773
0.318271
0.625524
0.415121
0.078357
1.29391
0.100984
0.0977471
)
;
    }
    procBoundary0to1
    {
        type            processor;
        value           nonuniform List<scalar> 
29
(
0.120751
0.146346
0.0958646
0.0958646
0.303455
0.303455
2.07135
0.136461
0.624889
0.130409
0.131742
0.180655
0.076642
0.0919807
1.80091
0.970702
0.363014
0.519781
0.124392
0.132074
0.490194
0.259515
0.577011
0.323845
0.322861
0.519781
0.28389
0.867835
0.323845
)
;
    }
    procBoundary0to2
    {
        type            processor;
        value           nonuniform List<scalar> 
42
(
0.489391
0.497711
0.173238
0.158679
0.368908
0.489391
0.173238
0.148064
0.200754
0.0822103
0.733982
0.845665
0.733982
0.833846
0.680907
0.443677
0.680907
0.0692788
0.115408
0.118335
0.118335
0.0692788
0.0601846
0.117576
0.117576
0.0602469
0.152206
0.0678734
0.281521
0.499075
0.499075
0.0813549
0.0911371
0.0936972
0.0951269
0.173238
0.540575
0.120981
0.281521
0.148064
0.113339
0.100618
)
;
    }
}


// ************************************************************************* //
