/*--------------------------------*- C++ -*----------------------------------*\
| =========                 |                                                 |
| \\      /  F ield         | OpenFOAM: The Open Source CFD Toolbox           |
|  \\    /   O peration     | Version:  v1912                                 |
|   \\  /    A nd           | Website:  www.openfoam.com                      |
|    \\/     M anipulation  |                                                 |
\*---------------------------------------------------------------------------*/
FoamFile
{
    version     2.0;
    format      ascii;
    class       volScalarField;
    location    "0.84";
    object      epsilon;
}
// * * * * * * * * * * * * * * * * * * * * * * * * * * * * * * * * * * * * * //

dimensions      [0 2 -3 0 0 0 0];


internalField   nonuniform List<scalar> 
1431
(
115.313
36.9763
1.29905
0.398065
5.16738
38.0605
0.616022
355.981
52.5668
0.572007
110.727
266.121
45.5698
12.8213
22.0942
0.527631
24.333
11.7314
21.6027
16.8057
235.076
15.6566
55.4142
302.541
56.5738
28.4487
72.3061
11.4995
70.3553
30.897
24.438
37.1583
22.0751
7.85517
45.0712
5.73382
87.8076
0.573952
0.273534
29.9808
81.7429
83.7069
38.9453
0.376802
57.7006
4.93235
25.9424
59.4798
0.628617
0.414411
35.2799
0.36365
41.1067
300.117
23.9318
26.8771
6.07787
293.961
41.8861
12.8349
13.9757
0.397838
0.641094
0.488664
0.285687
0.704978
6.6571
1.06877
3.16178
22.2741
304.537
10.606
0.378968
6.91466
16.1521
7.12888
2.82969
1.31566
0.637243
7.9362
29.546
4.41734
143.495
32.0924
158.736
0.449645
0.477156
23.476
182.497
200.477
33.4527
6.59375
1.57015
0.449214
21.1523
33.9926
305.537
112.572
0.388487
16.4765
35.4999
0.370286
29.478
6.66385
3.94695
36.6241
49.64
117.243
47.0582
33.4436
7.91474
52.6163
7.29429
83.9894
33.9216
5.83544
14.2334
0.453994
0.731694
0.541938
28.8005
33.7483
380.191
19.1517
244.843
0.475215
1.44492
12.838
2.14789
2.19865
28.6721
17.1457
1.92905
22.8137
28.4592
0.714783
3.31834
0.509598
160.299
1.58686
0.697955
19.6792
40.041
4.98276
62.9135
22.0836
1.01858
38.36
0.493902
6.27399
0.62731
3.90226
32.5287
0.812178
42.0576
1.79689
152.559
65.1834
181.867
0.41057
182.37
53.1368
0.363491
0.380265
249.985
100.561
91.5087
30.9576
0.411613
77.6855
182.15
44.384
25.6877
164.131
49.8801
151.579
0.953821
44.7824
40.3503
45.8364
0.824967
0.583765
28.2016
463.965
41.4134
97.9297
136.744
66.0507
25.5235
183.329
19.6421
28.7437
29.3431
153.653
0.64446
79.2082
111.029
37.3876
2.53142
72.9024
31.25
0.330915
77.4331
0.752307
47.5079
21.4407
41.7794
2.90034
191.441
37.9068
185.523
0.432934
46.3409
38.2203
176.326
28.2292
32.5986
37.8055
29.1159
67.1342
42.2934
27.0843
70.1678
0.311175
45.3151
247.236
101.261
94.0029
42.9666
41.1166
300.917
23.396
34.2774
27.7919
38.4384
179.702
42.4544
37.0553
19.1926
21.2512
0.963769
41.6619
213.931
28.9719
27.2463
38.6881
33.1737
80.9184
44.7641
0.652373
8.72101
152.894
0.350146
0.307687
20.3549
69.8714
0.308259
297.747
157.526
31.5717
42.9797
158.587
28.676
0.662
50.4807
88.8018
55.5726
236.178
55.8736
6.30002
50.3669
38.2967
27.4571
12.9752
175.988
25.6742
167.394
37.3218
53.5627
61.5236
49.3987
78.6644
22.0412
28.5428
9.66676
133.277
73.8354
134.208
174.891
38.9316
2.50288
57.221
95.251
44.8121
28.1914
45.0221
170.846
112.974
24.6635
61.3513
42.2015
18.3704
19.7772
37.1924
46.241
0.287939
51.0239
30.8381
83.9694
61.9471
90.6384
0.873887
0.411751
96.4367
50.5311
105.602
38.9253
16.0332
1.59568
738.193
49.8583
93.4845
9.22602
40.5297
37.7153
2.65112
13.0691
59.4921
290.854
0.309153
86.5461
2.45499
57.5429
18.8834
0.596428
36.8283
58.4644
169.864
37.9032
98.3427
8.22526
37.5064
74.9495
78.3805
49.3545
25.3846
30.9808
162.467
73.2454
43.7746
40.4535
3.47311
40.3805
54.0977
4.90591
25.2477
174.322
131.508
144.858
77.2759
18.061
79.8335
72.5017
12.7782
1.97407
144.973
57.2913
569.205
46.3117
19.0935
100.833
6.25653
194.438
37.9404
72.6881
350.139
59.4591
14.815
17.9283
426.19
59.6434
38.1539
25.1392
6.691
745.423
44.0032
43.9853
50.1357
34.1602
38.5624
2.49752
46.8583
47.3422
0.284913
173.932
41.4023
59.4596
61.2688
61.6969
39.8609
58.0342
67.5671
132.338
66.2322
16.4644
56.8511
39.3997
23.8184
4.82593
56.1273
67.8209
38.7688
55.5343
40.9877
47.5987
6.72885
45.5618
33.287
37.9513
55.0932
54.9665
46.3129
28.7925
49.3073
54.8294
8.42656
8.17936
29.6107
4.64975
241.112
62.362
66.8705
72.1958
72.7515
73.7473
69.5134
65.4004
71.6549
66.0577
70.3017
7.08978
158.11
3.66953
2.40687
4.00786
2.14947
1.51959
1.4691
30.6054
16.0205
16.3893
0.519235
0.586831
7.01591
0.604824
0.57089
19.6913
257.748
9.38412
2.74637
17.2625
0.485352
247.064
0.526861
2.66047
0.666781
5.90308
240.575
0.673303
233.289
0.42725
0.388595
5.21093
27.3484
161.326
149.162
0.865139
1.74695
1.77298
0.410245
24.8821
2.3428
166.219
2.84813
6.25664
25.6322
4.61468
4.4976
1.79827
6.05832
181.529
1.00198
1.70812
7.62751
28.4719
4.21414
2.96874
188.723
3.74813
30.6722
30.1996
15.2067
23.7693
47.6777
183.807
154.31
3.81504
8.89882
8.79657
12.1301
8.45803
34.8248
2.75816
2.88229
55.0716
0.305377
26.3041
11.4078
42.1496
162.762
44.7845
14.4236
31.4458
0.291583
18.0224
0.297579
178.802
29.6286
8.53071
19.0584
36.9863
28.806
29.2958
85.816
68.3273
5.7995
23.029
160.062
19.5664
15.0516
55.5139
55.6982
88.1043
22.5497
53.1775
21.1981
33.1622
142.042
57.5847
72.8858
42.1415
48.114
63.4854
52.1163
0.55203
81.9797
0.314129
32.4932
143.758
320.576
74.4121
165.493
109.975
40.2868
541.827
42.6821
25.1081
0.331968
34.7849
62.0528
52.8617
90.6116
63.7568
16.2863
71.9035
34.0022
0.298427
157.659
53.7337
60.4648
53.2355
65.439
54.9987
44.6981
50.1497
36.5819
25.8887
27.0446
99.998
18.8721
41.8754
250.978
34.7121
35.0401
48.7985
62.5004
25.6844
43.6207
82.3652
175.532
166.857
28.1886
53.7233
26.5007
43.4782
38.0533
98.3275
58.7681
2.16545
2.04784
0.29465
37.1624
47.574
53.425
68.1606
59.2616
210.788
0.484382
23.3633
45.1511
46.7782
42.1568
58.0451
49.4912
38.5941
42.1285
65.1824
7.04096
57.2681
21.6909
39.483
35.1217
0.355959
61.6046
52.6813
40.9255
306.623
6.53102
71.7755
29.1172
64.4755
124.817
1.15293
53.471
191.691
35.0362
36.5681
35.9106
229.234
48.4677
31.8291
77.8711
131.456
47.6302
3.315
36.0431
53.0889
47.3278
11.8943
177.94
182.061
62.3728
34.8389
44.4438
35.4283
48.0779
18.3085
9.07281
38.401
4.70476
54.3204
43.5018
278.323
68.6123
27.9825
28.6551
287.21
20.358
48.3974
17.4183
24.8721
23.6249
46.2924
282.727
0.480761
3.84347
43.7214
59.192
6.4152
58.0514
96.0211
44.0001
83.5354
36.731
11.9883
76.7059
261.248
46.6658
6.06513
101.292
162.898
41.6903
53.6847
21.8832
151.114
302.323
110.012
210.432
37.4983
45.1705
61.8059
27.2514
30.8944
46.5958
7.69464
91.2449
37.6883
68.4566
5.34742
71.8199
91.5077
22.6931
150.166
49.0137
21.6202
43.9667
68.0864
40.6123
110.536
159.507
0.763577
92.1809
26.283
3.64357
130.837
40.8526
78.2726
315.327
291.702
0.348557
37.9653
53.8824
9.36485
52.9825
51.9692
38.0157
28.241
6.69339
64.6731
0.48261
22.5127
24.6467
13.5642
0.453094
377.497
60.517
58.3055
5.5098
42.115
51.7163
368.117
139.669
43.077
0.589453
4.78777
52.1676
0.469397
0.554072
54.1219
17.2473
37.1645
35.5772
57.8603
70.5295
62.6678
35.7986
1.79155
39.0763
58.1456
28.1577
43.2281
5.2248
49.1416
0.706266
85.7965
164.737
40.3016
41.0047
26.6152
39.7464
73.8539
11.8312
40.521
61.1959
35.5828
3.20087
0.389028
32.8225
0.329582
46.1699
30.7986
21.8704
10.4218
54.4701
53.7867
696.956
34.2028
41.8843
41.2825
41.7304
505.3
1.01077
30.9683
163.176
71.383
275.261
39.8218
6.68307
82.0296
63.9052
2.02143
79.4244
47.2644
64.3942
120.217
39.3325
63.5108
19.1619
6.33667
1.5523
74.0156
359.667
316.522
28.2428
42.2312
283.785
45.4231
81.8932
54.3895
22.9898
48.7481
4.20582
2.6992
40.8221
50.4279
183.606
7.49783
324.361
36.5939
159.127
46.8518
19.1051
29.0813
24.1678
5.11178
0.717425
4.21962
52.6458
2.40931
2.06713
24.716
44.2591
52.2006
33.9485
52.5636
51.4053
50.3095
0.453417
158.3
49.7306
65.0292
565.811
60.2787
102.984
32.3458
10.8254
0.686536
117.082
46.6684
86.4453
238.245
0.484061
78.5765
192.124
486.577
292.094
372.078
61.5764
56.0839
61.1371
69.0556
65.272
68.0191
53.1635
42.1823
38.9998
41.2339
41.1349
51.1846
74.7892
37.3913
39.0189
42.9022
34.5913
52.68
52.1672
33.3874
51.3729
49.8119
33.2223
47.2826
45.9023
137.605
0.417499
13.7432
38.3904
14.5759
12.1788
222.833
46.8978
19.1148
13.4274
33.7494
13.9549
310.865
25.458
2.05082
153.66
49.2761
53.4314
21.2341
0.595863
303.498
4.7057
44.4388
42.2344
41.374
5.30603
14.0499
142.842
35.0349
26.9103
45.7247
60.4045
40.6873
42.2827
166.131
0.875907
0.324019
6.84269
0.33105
49.1342
69.1189
30.6542
18.8995
40.5723
13.3246
24.9364
11.6311
19.0627
51.8086
155.607
56.6352
44.5299
87.256
5.92817
28.6489
0.601261
43.9604
8.2019
0.575095
44.173
29.8261
359.552
1.95459
25.6833
8.05764
36.6971
0.557418
807.549
54.7182
36.2701
2.19673
326.443
56.1342
153.9
0.499325
1.12541
0.399865
5.51798
3.37167
52.568
32.792
366.668
201.245
43.9145
55.4715
0.323434
40.5837
19.4927
49.7988
27.7759
17.9022
52.0551
58.9996
47.093
85.987
83.3171
0.43418
0.597218
22.8703
59.3294
59.8192
7.83935
47.3249
42.6669
41.5172
15.3026
45.1185
41.5335
170.881
410.629
0.696258
71.7643
32.2342
0.451903
58.4842
317.642
30.731
44.8882
22.5282
176.231
150.54
1.37422
12.798
40.3251
44.0044
399.318
168.214
74.5247
42.228
0.428748
125.172
0.314874
60.241
32.3212
383.437
86.534
292.954
172.879
59.0942
12.631
49.6837
0.542054
4.2722
0.352347
0.468495
0.312559
47.0457
81.7747
40.3492
33.2588
74.9057
179.725
0.740009
3.01343
57.9073
399.505
50.4354
380.309
85.7894
59.1588
427.439
42.8151
444.03
445.292
461.856
351.009
355.393
333.12
463.511
300.291
0.673727
0.44045
0.626864
0.657203
0.734033
0.696816
47.6182
35.9098
75.3291
49.0699
61.3292
31.6621
0.300708
40.7593
0.470117
0.633869
46.81
0.523256
33.0553
20.4607
0.797157
19.6547
4.26145
78.2325
54.8579
44.2568
44.9987
35.3804
8.27514
42.8823
640.964
34.4856
9.4634
26.7565
58.2148
4.66359
29.3793
160.351
4.7132
54.4414
0.370104
9.66166
0.353734
34.4701
24.5338
8.96909
0.361206
25.9552
6.36806
1.84512
74.3938
81.3956
11.2103
17.6559
33.1839
168.242
0.469926
164.673
237.721
7.97596
188.996
32.0565
16.0616
42.4015
162.019
0.353448
48.4755
59.0914
109.713
72.2931
33.7539
42.4005
5.85826
0.470646
69.2436
32.806
50.7193
149.237
199.124
198.383
112.062
24.4459
35.8464
57.1944
0.692795
5.23745
2.03362
26.3347
7.27407
222.08
52.7188
5.2799
154.104
44.7867
13.8045
69.8641
9.01357
51.8037
146.773
50.9936
46.8064
0.590101
60.022
60.3169
189.411
77.3528
361.223
0.333642
6.84602
25.3674
287.2
164.656
101.336
64.7081
54.4099
0.302525
314.663
4.68988
39.8021
24.0436
23.526
9.26785
67.7076
0.309075
51.6634
41.7569
187.366
9.6941
59.2603
34.7944
18.3823
0.302902
4.93223
1.13191
120.738
25.1787
66.0363
152.136
51.2828
49.7774
44.3168
26.5395
0.311958
23.3174
13.274
44.48
424.45
42.717
637.154
41.8035
7.50286
42.1095
171.419
40.5641
0.532461
20.8074
34.9938
110.331
35.6405
79.1583
120.575
59.8053
11.9219
36.8293
10.5539
0.316472
41.2917
212.554
64.1128
225.321
46.4699
28.0759
40.6055
47.4836
26.4344
13.3888
20.2007
11.8035
0.311656
41.862
426.146
42.2418
44.156
0.641897
3.60835
24.7284
41.0952
24.3489
435.947
62.1218
77.8982
142.959
7.91542
46.1236
49.4266
49.4056
142.824
51.5777
71.6183
35.0658
56.2352
16.1467
75.2994
24.1258
39.1597
315.334
45.6101
6.2555
27.7584
57.5532
83.89
23.6523
48.3679
11.2756
280.33
23.4534
2.4525
0.507872
536.733
38.9113
63.1377
0.856858
2.86931
248.659
12.8165
280.741
0.772283
0.509191
2.41864
402.427
0.345343
378.666
193.879
8.95674
54.5046
174.275
281.41
82.8417
336.188
4.18358
7.55433
30.7486
51.4864
4.39042
168.767
0.393808
60.082
460.049
352.091
30.478
27.7314
0.342349
175.51
0.640321
36.1919
22.8289
274.343
0.682933
1.49148
11.3088
98.6134
58.1089
41.2167
4.32107
0.312562
0.823638
207.301
347.323
0.566692
40.8157
5.01718
0.987785
28.5461
34.1083
11.7523
48.6784
0.310696
27.1511
25.6267
36.18
203.18
35.3524
0.430122
45.7593
26.1845
0.303933
0.496628
51.2345
15.1678
0.400977
20.5078
23.7769
33.0739
0.381975
0.510501
204.533
181.114
71.0706
24.6895
0.356282
2.03614
1.20486
42.777
0.951408
1.18843
4.21015
5.39431
5.43652
0.316251
178.975
47.897
19.6804
54.3862
63.2072
164.572
42.4209
0.311228
8.58145
90.2478
58.0616
199.259
6.73966
15.8232
22.0491
48.2491
4.8883
27.4099
12.2431
18.0034
1.48673
164.492
228.592
61.0268
100.562
10.255
82.4637
31.63
52.1479
107.43
11.0788
17.292
46.404
139.229
4.85056
0.426157
59.8688
54.4843
29.1607
7.42412
)
;

boundaryField
{
    frontAndBack
    {
        type            empty;
    }
    wallOuter
    {
        lowReCorrection 0;
        type            epsilonWallFunction;
        value           nonuniform List<scalar> 
96
(
70.3553
30.897
33.9926
278.323
287.21
282.727
58.0514
36.731
11.9883
261.248
6.06513
162.898
21.8832
302.323
210.432
315.327
291.702
37.9653
1.79155
85.7965
3.20087
120.217
39.3325
359.667
316.522
61.5764
56.0839
61.1371
69.0556
65.272
68.0191
53.1635
42.1823
38.9998
41.2339
41.1349
51.1846
74.7892
37.3913
39.0189
42.9022
34.5913
52.68
52.1672
33.3874
51.3729
49.8119
33.2223
47.2826
44.4388
69.1189
30.6542
43.9604
0.575095
359.552
43.9145
85.987
71.7643
32.2342
30.731
399.318
0.428748
0.314874
383.437
399.505
380.309
427.439
42.8151
444.03
445.292
461.856
351.009
355.393
333.12
463.511
300.291
0.673727
0.44045
0.626864
0.657203
0.734033
0.696816
31.6621
0.797157
34.4701
33.7539
361.223
1.13191
424.45
435.947
71.6183
35.0658
0.345343
336.188
460.049
0.342349
)
;
    }
    inlet
    {
        type            fixedValue;
        value           nonuniform 0();
    }
    outlet
    {
        type            zeroGradient;
    }
    wallInner
    {
        lowReCorrection 0;
        type            epsilonWallFunction;
        value           nonuniform List<scalar> 
126
(
41.8861
12.8349
13.9757
0.397838
0.641094
0.488664
0.285687
0.704978
6.6571
1.06877
3.16178
22.2741
304.537
10.606
0.378968
6.91466
16.1521
7.12888
2.82969
1.31566
0.637243
7.9362
29.546
4.41734
16.4765
5.83544
14.2334
0.453994
0.731694
0.541938
28.8005
33.7483
380.191
19.1517
244.843
0.475215
1.44492
28.6721
17.1457
1.58686
0.697955
40.041
4.98276
1.01858
6.27399
3.90226
0.812178
249.985
0.824967
97.9297
136.744
0.64446
185.523
6.30002
53.5627
61.5236
2.50288
170.846
112.974
61.3513
18.3704
0.873887
0.411751
96.4367
2.65112
13.0691
86.5461
98.3427
8.22526
131.508
79.8335
72.5017
23.8184
33.287
47.6777
55.0716
19.0584
160.062
55.6982
142.042
48.114
143.758
71.9035
157.659
99.998
250.978
166.857
58.0451
0.355959
191.691
131.456
151.114
110.012
51.7163
102.984
117.082
51.8086
199.124
30.478
27.7314
90.2478
58.0616
6.73966
22.0491
48.2491
4.8883
12.2431
1.48673
164.492
228.592
61.0268
100.562
10.255
31.63
52.1479
107.43
11.0788
17.292
46.404
139.229
4.85056
0.426157
59.8688
54.4843
29.1607
7.42412
)
;
    }
    procBoundary3to1
    {
        type            processor;
        value           nonuniform List<scalar> 
48
(
89.9678
89.6178
83.4639
89.8177
57.541
98.9105
89.6178
12.9614
67.86
4.80823
4.80823
5.11755
5.11755
2.47021
2.12084
4.62263
4.23799
4.41017
4.23799
2.93273
1.53222
1.68368
2.93273
50.1076
3.66706
2.52663
2.86449
1.68368
4.02691
14.3566
14.3566
8.05728
8.05728
67.86
2.12691
56.3692
21.8234
3.66706
87.0541
48.2479
2.47021
36.0785
49.9152
2.93273
2.18518
69.558
53.9595
1.72422
)
;
    }
    procBoundary3to2
    {
        type            processor;
        value           nonuniform List<scalar> 
29
(
0.802577
0.802577
0.690183
0.80724
10.8872
1.99657
0.400287
1.05582
0.724561
0.74982
1.49622
7.51065
0.843963
0.308667
0.307093
0.305471
0.62272
0.639839
0.829798
0.307428
0.302598
0.62272
0.710163
0.639839
0.356416
0.586955
0.639839
3.39712
3.39712
)
;
    }
}


// ************************************************************************* //
