/*--------------------------------*- C++ -*----------------------------------*\
| =========                 |                                                 |
| \\      /  F ield         | OpenFOAM: The Open Source CFD Toolbox           |
|  \\    /   O peration     | Version:  v1912                                 |
|   \\  /    A nd           | Website:  www.openfoam.com                      |
|    \\/     M anipulation  |                                                 |
\*---------------------------------------------------------------------------*/
FoamFile
{
    version     2.0;
    format      ascii;
    class       volScalarField;
    location    "0.94";
    object      k;
}
// * * * * * * * * * * * * * * * * * * * * * * * * * * * * * * * * * * * * * //

dimensions      [0 2 -2 0 0 0 0];


internalField   nonuniform List<scalar> 
1431
(
0.0489223
0.467405
1.53673
1.01716
0.0921756
0.701119
0.162708
0.196674
2.81956
1.36166
0.441361
0.108995
0.0764909
0.937438
1.81704
0.464847
1.82314
0.152501
0.0681035
0.39203
0.0680521
1.05019
1.03857
1.0248
0.900767
0.343801
0.920641
0.858836
0.497684
0.128738
0.9132
0.314291
0.815596
0.134437
0.0900616
1.00041
0.287653
0.312831
0.450479
0.305895
1.97455
0.233068
0.125814
0.0919461
1.15416
0.0927597
0.974941
0.211448
0.430031
0.397588
0.128125
1.16139
2.03993
0.192485
0.115817
0.203521
0.890188
1.31174
0.774613
0.0717247
1.23384
0.212624
1.1064
0.292427
0.594185
0.153972
1.41682
0.608045
0.225478
0.322965
0.101335
0.0719849
0.16124
0.626768
0.473894
0.607865
0.0855902
1.40761
0.224171
1.36017
0.269574
0.129896
0.0521645
1.30036
1.4083
0.0895974
0.102317
0.375888
1.12421
0.323917
0.224807
0.662624
0.0977181
0.311826
0.146101
0.0792342
0.443291
0.265513
0.10954
0.625821
0.299977
0.222805
0.297699
0.105757
0.530482
0.0927623
0.240248
2.31329
1.23984
0.0923255
1.58633
0.209794
0.214794
0.23213
0.504374
0.107147
0.146494
1.19015
1.24114
0.911101
0.291985
1.74573
1.12146
0.923191
0.293627
0.0937728
1.38407
0.190736
0.0841332
0.48745
0.230064
1.99985
0.737998
0.253323
0.0946082
0.880511
0.186041
0.21861
0.156515
2.07529
1.73219
0.103754
0.289964
0.450158
0.517785
0.37385
0.267221
2.34684
0.229721
0.366828
0.50704
0.639822
0.19961
0.0267152
0.130004
0.146588
0.283232
0.20929
0.206884
0.260757
0.146435
0.399738
0.255641
0.400633
0.11733
2.05298
0.0874419
0.303741
0.127983
0.27848
0.639781
0.522127
0.872621
0.386053
0.282845
0.0572122
0.122288
0.498206
0.136775
0.219169
0.316547
1.3663
0.206859
0.268984
0.348563
0.392297
0.230761
0.796092
0.309093
0.299364
0.133519
1.90998
0.0782287
0.254306
3.1216
0.275791
0.234409
0.262045
0.132094
0.0744011
0.0464336
0.732293
0.324345
2.04883
0.24642
1.11651
0.0837514
0.305135
0.451892
0.474209
0.264376
0.215885
1.19007
0.299686
0.521125
0.63157
0.20018
0.119294
0.486771
0.304321
0.291836
1.23839
0.430998
1.85244
0.318549
0.53154
0.542356
0.23931
0.418131
0.958782
0.0948682
0.729894
0.302602
0.200867
0.196755
0.204881
0.287337
0.0972918
0.274536
0.118579
0.31142
0.288779
2.63432
1.58127
0.15667
0.172137
0.309292
0.107864
0.170818
0.547768
0.26858
2.81668
1.27334
0.497547
1.12855
0.663005
0.0455466
0.12455
0.620478
0.64422
0.67649
0.2483
0.121248
1.84491
0.198757
0.405622
0.573082
0.249868
0.420417
2.0861
0.239219
0.496941
0.266358
0.264918
0.692958
0.271157
0.295713
0.143108
0.171253
1.42214
2.61504
0.114948
0.354737
0.232316
0.601103
0.797562
0.0907777
0.191151
0.485075
0.292544
0.39179
0.333176
0.193621
0.127888
0.292442
0.214296
0.0801261
0.252754
0.176954
0.239732
0.322847
0.559029
0.0503011
0.23107
0.193305
0.241981
0.281675
0.652307
0.630914
0.0484864
0.304618
0.337548
1.19423
0.100057
0.111042
0.279435
1.47294
0.134795
0.197789
0.106242
0.198909
0.0652143
1.55643
0.138477
1.24985
0.187854
0.257464
0.264128
1.25743
0.293962
0.674265
0.0610058
0.100213
0.131365
0.277994
2.36841
0.125814
0.0489686
0.128534
0.0556394
0.0464796
0.263649
0.297549
0.437008
0.956946
0.0395131
0.323286
0.0190554
0.0308323
0.0337389
0.0887986
0.107796
0.106728
0.0599698
0.0520504
0.105231
0.10581
0.044058
0.0742246
0.0510485
0.043351
0.0604876
0.0552374
0.0547406
0.0224705
0.0357187
0.0482467
0.056922
0.755414
0.893661
0.38823
0.0999311
0.101567
0.337061
0.116937
1.0204
0.669565
0.327954
0.362151
0.0871024
0.125174
0.0639162
0.026043
0.10684
0.0602625
0.0514491
0.0569548
0.0480396
0.0664364
0.0431883
0.0196605
1.40451
0.464176
0.362255
0.167824
0.255028
0.0485694
0.315591
0.634073
0.279734
0.0435544
0.595613
0.307997
0.132323
0.597919
0.327563
0.132099
0.251396
0.0451993
0.767745
0.618121
0.262911
0.204591
1.22356
0.480299
0.698734
0.674262
2.2684
0.0950414
0.0500047
0.136029
0.157735
0.672321
0.187351
0.122811
0.767015
0.235209
0.815215
1.7048
0.81755
1.77584
0.183625
0.21106
0.334172
0.121344
0.901535
0.197589
0.368339
0.13023
0.271309
0.163269
1.39886
0.249909
0.201328
0.070323
0.349011
0.64156
0.146648
0.0889116
0.665666
0.42715
0.499341
0.558218
0.685902
0.177999
0.636724
0.448855
0.376813
0.546692
0.125831
1.29138
0.0928126
0.313139
0.49419
0.124816
0.114152
0.0393597
1.62054
0.249856
0.106048
1.5174
0.126066
0.224949
0.738553
0.27103
0.0908497
1.35056
1.27371
1.87567
0.0550873
0.130042
0.12056
0.761428
0.207004
0.315405
0.338679
0.541033
0.643904
0.27528
0.0418247
0.0489971
0.0709134
0.0811001
1.47136
0.0577083
0.116261
1.15856
0.124583
0.325239
0.116209
0.654907
1.47403
0.91113
1.03533
0.648437
0.0990228
0.0769522
0.660166
0.145348
1.19918
1.04434
0.110412
0.227532
0.608642
0.315712
0.15787
1.63048
1.31991
0.135602
0.125666
0.0926127
0.121183
0.0991413
0.0455537
0.136447
0.232861
0.399882
0.206348
0.102535
0.198456
0.317106
0.23772
0.125266
0.0961382
0.366404
0.192428
1.69485
0.20245
0.31397
1.00753
1.09254
1.46508
0.614429
0.662935
0.114664
0.865121
0.415561
0.217367
0.492776
0.0719197
0.115731
0.0583047
0.614004
0.257027
0.109471
0.507632
2.30271
0.746152
0.610195
0.193388
0.392446
0.207149
2.75817
1.78166
1.03672
0.0618266
0.209415
0.202195
1.1256
0.58177
0.040549
0.862264
1.15635
0.860837
1.39663
0.18545
0.170989
0.118618
0.358682
0.445466
0.113143
0.223382
0.429669
1.00214
0.151248
0.211376
0.445651
0.315528
0.128561
0.400614
0.790571
1.2841
0.359642
0.295428
0.275532
0.218967
0.0457957
0.138794
0.205097
0.0297555
0.526407
0.412574
0.0667044
0.462562
0.995622
0.629072
0.417984
0.065178
1.15225
1.36203
0.988121
0.385126
0.0566694
0.988736
1.19241
0.205658
1.44358
1.32072
1.60498
0.471836
0.0562973
0.155977
0.156959
0.0569335
0.113054
0.307532
0.0505664
0.0494894
0.283472
0.229952
1.19026
0.152198
0.0514471
0.238433
0.153956
0.34573
0.0591545
0.19863
0.541643
0.163121
0.501084
1.5641
0.2472
0.509362
0.102945
1.69748
0.517802
2.32915
1.17354
0.163064
0.185662
0.214256
0.261683
0.619574
2.35722
0.316963
0.256826
0.332174
0.155991
0.436849
1.21677
0.075285
0.182446
0.216617
0.282759
0.0344572
0.359092
0.870049
0.447496
0.990905
0.0498805
0.26434
0.170109
1.42912
0.322931
0.317167
0.59883
0.479623
0.05254
0.491472
1.49463
0.0761354
0.407914
0.221806
0.119109
0.196824
0.138842
1.62946
0.846299
0.0603027
1.19345
1.46115
1.08326
0.189081
0.240182
0.0549277
0.0642859
0.0269225
0.272568
0.203526
1.04723
0.0603568
0.188245
0.0534619
0.0850217
0.665587
0.587953
0.752722
0.362767
2.12447
0.118579
0.0402168
0.0658594
0.885802
1.42487
0.4214
0.580713
3.30335
0.209893
0.141989
0.413619
0.299442
0.218101
1.72573
0.0505011
0.427524
1.03959
2.04499
0.477965
0.0413131
0.109748
0.0493978
0.470592
0.474394
1.73683
0.190079
0.175534
0.107871
0.668602
0.179303
1.525
2.3386
0.316195
0.101283
0.591997
0.40472
0.210825
0.444029
0.757677
0.0471877
1.97203
0.190708
0.485399
0.515287
0.22874
0.19947
0.350119
0.522016
0.421284
1.56044
0.818452
0.795886
0.803227
0.854155
0.306025
1.18659
0.187142
0.908489
0.613951
0.499491
0.1232
1.55685
0.0492305
0.0530987
0.238762
0.570836
0.0908427
1.10467
0.194008
0.0561079
0.0887008
0.106858
0.532561
1.66486
0.0695321
2.47598
0.043085
0.0658912
0.247948
1.78089
0.292379
0.192197
0.892969
0.609526
0.362674
0.30966
0.0548518
0.045131
1.7565
0.229605
0.202316
1.90392
0.219728
0.0498932
0.0727911
0.16622
0.968741
0.141359
1.25524
0.0807879
0.280718
0.234325
1.76554
0.0502285
1.24695
0.537602
0.527287
0.518371
0.528195
0.503129
0.508779
0.509211
0.551056
0.377374
0.175805
0.385111
0.168115
2.09999
0.0492845
0.064473
0.107947
0.0373151
0.0755144
0.0857101
0.0526019
0.574429
0.150154
0.617493
0.0413915
0.154948
0.194328
0.261357
0.263738
0.50587
1.53945
0.235172
0.0770226
0.292174
0.304108
0.237177
0.536024
0.380176
0.190519
0.0398804
0.886816
0.163197
0.961833
1.79549
0.320646
0.344494
0.225157
0.223041
0.067089
0.143243
0.13692
0.0731261
0.215502
0.203997
0.0746555
0.0506686
0.320117
0.916241
0.139839
0.624926
0.039777
0.247953
0.153403
0.111059
0.12187
0.248286
0.0975066
0.0543888
0.197922
0.0506758
0.293373
0.0504581
0.162859
1.2736
1.32784
0.292307
0.447187
1.66117
0.617714
0.26974
0.271259
1.40715
0.0394751
0.0778245
0.128794
0.0651472
0.10993
0.110232
0.340178
0.22224
0.794961
0.752116
0.490236
0.282429
0.0392687
0.0601266
0.174466
0.223016
2.47705
0.137
0.379736
1.06505
0.713203
0.356642
0.423918
0.0703127
0.136134
0.219747
0.16868
0.233177
0.211606
0.712345
0.0721416
0.530145
1.49307
0.529486
2.37351
0.190476
0.270011
0.373224
0.334213
0.353824
0.393313
0.312794
0.28795
0.358846
0.0833928
0.0650678
0.250612
0.257067
0.0609988
0.0549458
1.61981
0.0884392
0.134268
0.0550805
1.12574
0.0771797
0.496124
0.260653
2.06256
0.0742318
0.217669
0.133171
0.246864
0.159182
1.64963
1.76617
0.0988294
0.131804
0.358226
0.0600209
0.169677
0.797541
0.0421675
0.934726
0.847824
0.36128
0.317205
0.583125
1.55023
0.492789
0.239935
0.0669118
0.114648
0.259074
0.646203
0.404675
0.181462
1.306
1.13937
0.642703
0.0859917
1.47016
0.0150229
0.650553
0.0542921
0.25269
0.159814
0.454335
0.328085
0.0816128
2.94488
0.660154
1.76612
0.0932677
0.907423
0.990231
0.456397
0.193428
0.205092
0.198428
0.819537
1.94142
0.350443
0.285623
1.28054
0.874041
0.228253
0.264763
0.775384
1.56114
1.021
1.44645
0.149187
1.51729
1.0131
1.28319
0.11536
0.965451
0.7279
0.0883028
0.181969
0.121369
0.438383
2.13069
1.03414
0.91126
0.29392
1.60716
0.0894825
1.63758
1.35119
0.316481
0.136477
0.207842
0.720933
0.0920739
0.065797
0.0397513
0.142682
0.105187
1.45504
1.61805
0.189853
1.81616
0.0976316
0.461153
1.91845
1.13699
0.147779
0.0970243
0.156591
0.39951
0.0418005
0.205823
0.140663
2.05632
0.349507
0.587831
0.214195
0.189991
0.538251
0.309434
0.327446
1.76749
0.170235
0.202085
0.533452
0.896651
0.244184
0.114305
0.0654251
0.777799
0.353131
0.355111
0.0696569
0.0675363
0.107139
0.0541608
0.247569
0.0619248
0.579322
0.79962
0.449103
2.46875
0.0766288
0.385007
0.110414
0.208125
0.507813
0.0310464
0.132823
0.334496
0.0857515
1.23326
1.34219
0.0244111
0.536843
0.878071
0.0940565
0.37495
1.14946
0.0594139
0.0455167
0.636751
0.0606082
2.23975
0.132804
0.677915
0.241328
0.888959
0.578371
0.0649784
0.459504
0.249629
0.0630359
0.111081
0.366728
0.0331193
1.02398
0.0163647
0.136699
0.110957
0.199156
0.133724
0.356019
0.0523929
0.0782139
3.00934
0.146328
0.284016
0.226217
0.570469
0.0697701
0.0429634
0.0610328
0.182136
3.29797
1.41473
0.285971
0.20703
0.731502
0.0768657
1.07034
0.259507
1.33564
0.0578157
0.0353828
2.18493
0.107547
0.141703
2.42109
0.788291
0.512834
0.287513
1.30742
0.0271067
0.0430864
0.0860991
1.3842
1.04835
0.977682
0.0505016
0.0438428
0.0179873
0.336466
0.38774
2.9049
0.925413
0.603518
0.366324
0.205061
0.0457199
0.123446
0.291564
0.856057
1.28364
0.192832
0.0848554
0.234934
0.634568
1.5876
2.40335
0.432442
0.0366684
0.0928068
1.20479
0.544503
0.029569
2.32212
1.9888
0.779328
0.464795
0.200291
0.300883
1.78709
0.985945
1.22917
0.109734
2.59333
0.67701
0.346147
0.0546
1.28133
0.351678
0.359984
0.888193
1.65557
0.368245
0.114753
0.0546076
1.62791
0.203515
0.145438
1.12296
0.18904
1.44524
0.430787
0.0614066
1.87624
0.197231
0.429683
0.269046
0.412517
0.344114
0.611111
1.44844
0.0903251
0.955702
0.0285608
1.13512
0.807716
0.0936228
0.107258
0.0874509
0.13731
1.61631
0.854064
0.195514
0.20079
0.644844
0.0988712
0.0804781
0.97366
0.270267
0.10902
0.373948
0.201907
0.150803
1.9332
0.980836
1.19347
0.462313
1.61217
0.141992
0.0529938
0.121672
1.58058
1.68418
0.39596
0.340856
0.89062
1.1509
0.117957
2.46592
0.739377
0.164264
0.0489042
0.26509
0.483114
0.226177
0.390375
0.295954
0.567197
0.680101
0.414944
0.26799
0.230157
0.391386
0.264616
1.541
1.39586
2.74486
1.18972
0.148785
1.6071
0.770191
1.67407
0.0611965
0.190035
0.350873
0.150941
1.93691
0.0519815
0.0583852
1.97157
0.229084
1.67604
1.78281
0.978481
0.743475
0.768405
0.328513
0.25667
1.10308
0.333791
0.420268
0.0646152
0.159132
0.367309
0.0677812
0.88583
2.17186
0.107104
0.153456
0.079589
0.0211597
0.0867585
1.08607
0.0878059
1.36873
0.778218
0.355917
0.537176
0.293005
0.163989
0.294773
0.0937542
0.0912636
0.213138
0.0790697
1.24147
0.231524
0.612531
0.101649
0.240188
0.345326
0.110488
1.04871
0.0315401
0.0913377
0.125828
0.212526
0.205698
0.0699414
0.0861311
0.522032
0.116442
0.441989
0.128898
0.0958183
0.148199
0.536634
0.294117
0.445132
0.217976
0.0931675
0.243564
0.11685
1.41813
0.123145
0.297343
0.204918
0.0535051
0.394975
0.62621
0.267531
0.479268
0.116373
0.442199
0.142024
1.38294
0.0532573
0.243681
1.32951
0.512403
1.01954
0.107684
2.22287
0.234703
0.711292
1.30474
0.336568
0.315621
0.107935
0.504742
0.296661
0.897485
0.0869916
1.59217
0.0549328
0.770919
0.0551859
0.0613896
0.531004
0.262369
0.342468
0.276122
0.917259
0.163727
0.938077
0.635828
0.587455
0.649002
0.206389
0.124911
0.414922
2.55296
1.16136
0.312976
0.297187
2.88231
1.26251
3.09022
1.31455
1.3559
0.460968
0.206559
0.751886
0.387297
0.132377
0.733276
1.57893
0.127909
0.641421
1.01688
)
;

boundaryField
{
    frontAndBack
    {
        type            empty;
    }
    wallOuter
    {
        type            kqRWallFunction;
        value           nonuniform List<scalar> 
90
(
0.464847
0.4214
0.413619
0.427524
0.477965
0.470592
0.474394
0.591997
0.40472
0.485399
0.515287
0.613951
0.499491
0.570836
0.532561
0.892969
0.537602
0.527287
0.518371
0.528195
0.503129
0.508779
0.509211
0.551056
0.50587
0.794961
0.752116
0.530145
0.529486
0.373224
0.334213
0.353824
0.393313
0.312794
0.28795
0.257067
0.0550805
0.0771797
0.496124
0.217669
0.0600209
0.169677
0.797541
0.0421675
0.0669118
0.114648
0.0150229
0.650553
0.0542921
0.660154
0.775384
0.438383
0.461153
0.587831
0.533452
0.0696569
0.0619248
0.579322
0.79962
0.385007
0.507813
0.0310464
0.0244111
0.878071
0.636751
0.677915
0.888959
0.0331193
1.02398
0.0163647
0.512834
0.0271067
0.977682
0.0179873
0.925413
0.856057
0.432442
0.544503
0.029569
0.779328
0.430787
0.955702
0.0285608
0.462313
0.414944
0.0211597
1.04871
0.0315401
0.522032
0.394975
)
;
    }
    inlet
    {
        type            fixedValue;
        value           uniform 0.375;
    }
    outlet
    {
        type            zeroGradient;
    }
    wallInner
    {
        type            kqRWallFunction;
        value           nonuniform List<scalar> 
138
(
0.108995
0.0681035
0.815596
0.134437
0.0900616
0.233068
1.41682
0.608045
0.101335
0.0719849
0.607865
0.737998
0.0267152
0.130004
0.0572122
0.122288
0.132094
0.0744011
0.0464336
0.732293
1.85244
0.663005
0.0455466
0.620478
0.64422
0.67649
0.573082
0.692958
0.601103
0.652307
0.630914
0.0464796
0.0395131
0.0190554
0.0308323
0.0337389
0.0887986
0.107796
0.106728
0.0599698
0.0520504
0.105231
0.10581
0.044058
0.0742246
0.0510485
0.043351
0.0604876
0.0552374
0.0547406
0.0224705
0.0357187
0.0482467
0.056922
0.0871024
0.125174
0.0639162
0.026043
0.10684
0.0602625
0.0514491
0.0569548
0.0480396
0.0664364
0.0431883
0.0196605
0.0435544
0.262911
0.698734
0.21106
1.39886
0.070323
0.0889116
0.0928126
0.738553
0.0550873
0.761428
0.0418247
0.0489971
0.0709134
0.0577083
1.15856
1.47403
1.19918
1.04434
1.31991
0.114664
0.0583047
0.614004
0.610195
0.040549
0.0297555
0.0514471
0.0344572
0.0761354
0.0642859
0.0269225
0.0413131
0.0493978
0.316195
0.818452
0.187142
0.238762
0.106858
0.609526
0.0727911
0.107947
0.617493
0.0413915
0.0398804
0.0601266
0.712345
0.0833928
0.0650678
0.0549458
0.583125
0.642703
0.0859917
0.907423
0.990231
0.0418005
0.0654251
0.777799
0.0940565
0.0523929
0.146328
0.731502
0.0768657
0.0457199
0.123446
0.0614066
0.297187
0.751886
0.387297
0.132377
1.57893
0.127909
1.01688
)
;
    }
    procBoundary0to1
    {
        type            processor;
        value           nonuniform List<scalar> 
29
(
0.142059
0.234539
0.269478
0.269478
1.57599
1.57599
2.01771
0.537693
1.2967
0.504327
0.576165
1.08178
0.178125
0.111303
1.32832
0.619501
2.22099
2.10645
0.410983
0.232789
0.331569
0.224726
1.46139
0.293388
0.291861
2.10645
0.258596
0.819389
0.293388
)
;
    }
    procBoundary0to2
    {
        type            processor;
        value           nonuniform List<scalar> 
42
(
1.15462
0.900775
0.126078
0.113108
0.0424746
1.15462
0.126078
0.121942
0.0428392
0.045083
0.0637365
0.129026
0.0637365
0.220039
0.348885
1.11998
0.348885
0.0423849
0.0448777
0.202191
0.202191
0.0423849
0.0374053
0.232432
0.232432
0.0351449
0.548353
0.0374804
0.845719
0.769745
0.769745
0.0422884
0.0450283
0.0437605
0.0415317
0.126078
0.601259
0.0835781
0.845719
0.121942
0.078596
0.0509034
)
;
    }
}


// ************************************************************************* //
