/*--------------------------------*- C++ -*----------------------------------*\
| =========                 |                                                 |
| \\      /  F ield         | OpenFOAM: The Open Source CFD Toolbox           |
|  \\    /   O peration     | Version:  v1912                                 |
|   \\  /    A nd           | Website:  www.openfoam.com                      |
|    \\/     M anipulation  |                                                 |
\*---------------------------------------------------------------------------*/
FoamFile
{
    version     2.0;
    format      ascii;
    class       surfaceScalarField;
    location    "0.94";
    object      phi;
}
// * * * * * * * * * * * * * * * * * * * * * * * * * * * * * * * * * * * * * //

dimensions      [0 3 -1 0 0 0 0];
oriented        oriented;


internalField   nonuniform List<scalar> 
2708
(
2.88544e-06
-2.53389e-05
2.8645e-06
1.9589e-05
-3.76286e-05
4.66455e-05
-0.000169505
0.000160488
0.0012305
0.000234592
-0.000911786
-0.000553303
-0.000328761
0.000185147
6.20216e-05
8.15921e-05
5.12579e-05
-2.18364e-05
-0.000102222
7.28e-05
0.00044134
0.000331439
-0.000227639
-0.000545141
5.44892e-05
0.000111964
0.000602545
-0.000824376
0.00100475
-0.000782915
0.000193718
0.000339427
-0.000430837
-0.000102308
0.000164098
0.000261617
-0.000307296
-0.000118419
0.000246537
1.51345e-05
-2.09175e-05
-0.000240754
-7.3876e-05
0.00021197
-0.000138094
5.14123e-06
-2.35324e-05
-3.68888e-05
5.528e-05
0.000847922
-0.000862976
4.25736e-05
-2.75201e-05
0.000141847
-0.000154327
6.85463e-05
-5.6066e-05
1.42097e-06
-0.000326425
0.000325004
-0.00023229
0.000206096
0.00016804
-9.51832e-05
0.000260202
-0.000194443
2.94243e-05
1.62e-05
-1.51807e-05
-1.01935e-06
0.000245699
3.69613e-05
-3.61236e-05
-0.000101083
-5.01142e-05
1.30137e-05
0.000138183
-8.97886e-05
-0.000154663
-4.78689e-05
6.98665e-05
0.000253526
-0.000275524
0.000817813
5.98954e-05
-2.97862e-05
0.000380174
7.70274e-05
-0.000408402
-4.87996e-05
0.000225988
-5.14299e-05
7.11417e-05
-0.000414805
0.000344824
-0.000159817
0.000229799
3.5596e-05
-1.99983e-05
-0.000878573
-0.00103787
8.4675e-05
0.000958553
-5.35943e-06
-0.000186752
9.7281e-05
9.03776e-05
-9.06869e-07
-0.000432352
0.00096828
-0.000554973
1.90453e-05
0.000926092
0.000447632
-0.000611712
-0.000762013
0.000211091
0.000197746
-0.000408837
0.000124551
-0.000161754
3.72034e-05
0.00010451
-0.000149303
4.47933e-05
-0.000880393
0.000872438
0.000682946
-0.000674991
0.000149311
-3.51773e-05
-0.000192366
7.82321e-05
-0.00118431
0.00114115
-5.20104e-05
9.51693e-05
6.48196e-05
-6.96823e-05
-0.000115167
-0.00139835
-3.49668e-05
0.000249004
-0.000351855
-0.000252863
4.11234e-05
0.000563594
0.000122779
-1.28302e-05
-0.000109948
-4.63516e-05
6.5502e-05
-0.000151218
0.000132068
-4.8993e-05
7.51636e-05
-0.000135315
0.000109145
0.000142239
-5.13717e-05
-0.000223494
0.000132627
9.34291e-05
0.000153899
-0.00013327
-0.000114058
5.4868e-05
0.00068733
-0.000381893
-0.000360305
-1.59864e-05
2.65548e-05
-0.000952522
0.000941954
-0.000654863
0.00116069
-0.000869985
0.000364152
3.01159e-05
-0.00108048
0.00110692
-5.65607e-05
0.000184156
-2.20259e-05
-0.00019738
3.52506e-05
-0.00044267
0.000273774
0.000332995
-0.000581596
0.000341208
0.000434106
-5.01247e-05
6.12856e-05
-7.33191e-05
6.21582e-05
-2.73392e-05
4.95874e-05
-9.28721e-05
7.06239e-05
-0.000967304
0.000116544
0.000949769
-9.90092e-05
-8.48535e-05
-8.54443e-05
0.000488638
-0.000318341
-0.000132011
-7.89317e-05
0.000622693
-0.00041175
-0.000570574
0.000535943
-6.92951e-05
0.000136136
-0.000167924
0.00034212
-0.000288038
7.8594e-07
0.000100096
5.57906e-05
-5.58876e-05
-9.99989e-05
0.000467489
-0.000752071
-0.000595812
-0.000426565
0.000472059
0.00101167
-0.00105716
0.000846812
-0.000171064
-4.73286e-05
-0.00062842
3.48329e-06
-2.59527e-06
-0.000247526
0.000246638
0.000221073
-2.77895e-05
2.4105e-06
4.71596e-05
-3.23151e-05
-1.7255e-05
-0.000624296
0.00102924
-0.000734345
0.000329402
7.81992e-05
5.55168e-05
7.00118e-05
-1.30875e-05
-6.3795e-05
6.87077e-06
-9.5579e-05
-3.76868e-07
-5.68293e-06
0.000101639
6.52143e-05
0.000145877
1.67713e-05
6.33057e-05
-8.29492e-05
2.87222e-06
2.03636e-05
0.000637171
-0.000422943
0.000967077
6.25068e-05
-0.00101496
-1.46232e-05
0.000136294
-0.00026468
-6.95663e-05
0.000197952
-0.000953335
0.000925695
-0.000398925
3.59803e-05
0.000210431
-2.20374e-05
-0.000224374
-4.47284e-05
3.20712e-05
-1.74769e-05
3.01342e-05
5.27771e-05
-0.00014315
0.000191657
-0.000101284
-0.000277302
-6.36541e-05
0.000201806
0.00013915
0.000138199
-0.000126004
2.23546e-05
-3.45503e-05
0.000183811
-3.04398e-06
-0.000190719
9.95239e-06
-6.8677e-05
-3.6466e-05
5.82171e-05
4.6926e-05
0.000777043
7.91462e-05
-3.83762e-05
-0.000107382
0.000122314
-0.000177099
0.000162166
0.000136391
0.000123975
-0.000115662
-0.000144704
-0.000213761
0.000187839
-4.27549e-05
0.000165482
-2.71508e-05
4.54799e-05
0.00112845
-1.72533e-05
2.99559e-05
-5.6295e-06
1.52924e-05
-0.000179232
0.000169569
-9.10173e-05
0.000146162
-0.00012444
-6.62035e-06
-8.5493e-05
-3.4657e-06
-6.69705e-05
-0.00100274
0.00103092
3.87988e-05
-0.000146293
-5.12952e-05
0.000158956
3.86318e-05
-0.000803179
-0.000284036
3.40778e-05
3.18706e-06
-3.48543e-05
3.05193e-05
-0.00108577
0.00108592
-3.0667e-05
-6.63301e-05
2.44688e-05
0.000136805
-9.49442e-05
-0.000180484
-3.65129e-06
-1.94739e-05
0.00020361
0.00020988
2.19809e-05
8.29324e-06
-0.000240154
6.3289e-05
-8.90945e-05
-4.89701e-05
7.47757e-05
0.00103961
-0.00146361
0.000183833
0.000240169
0.000467062
8.69401e-06
1.27278e-05
-0.000488484
8.76943e-05
8.67681e-05
-0.000946988
2.69604e-05
4.57793e-05
-7.31294e-05
3.89733e-07
-3.69958e-06
0.000170581
-0.00021808
5.11977e-05
6.76039e-06
-0.000160662
0.000157385
0.000844135
-0.000578225
5.00359e-05
-0.000315946
-0.000196866
0.000131119
0.000165843
1.66946e-06
-1.73462e-06
0.000209945
1.02357e-05
-1.0557e-05
-0.000180163
-0.000157489
-5.9713e-05
0.000122019
3.26938e-05
-6.70996e-06
-4.25207e-05
1.65369e-05
0.000722134
0.000100356
-4.54468e-05
0.000173782
0.000166202
-0.00113727
0.00113943
9.61905e-05
-9.83572e-05
-0.000302726
-0.000410882
-0.000227058
-0.000300465
0.000767182
0.000180131
-0.000818805
-0.000128507
-0.000992743
-0.000637334
0.00105475
0.000575323
2.02036e-05
-3.23012e-05
-3.49713e-05
4.70689e-05
0.000118162
-4.4476e-05
0.000648447
-3.25677e-05
1.31386e-06
3.0877e-05
-1.22033e-05
3.89974e-05
-6.34032e-05
3.66091e-05
0.000822332
-0.00104073
0.000356345
-0.000137948
-7.80715e-05
5.49952e-05
1.70879e-05
5.98837e-06
-0.00034412
1.97488e-05
-0.000102972
-0.000753531
0.000856504
-8.91479e-05
-0.000200089
0.000222907
5.88943e-05
-6.82599e-05
0.000174848
-9.14952e-06
4.91077e-05
-0.000253719
7.70743e-05
-3.64126e-06
-3.42128e-06
-2.94139e-05
3.47014e-06
0.000183314
-0.00015737
-0.000107299
0.00014232
3.14561e-06
-3.81663e-05
-0.000326397
-7.73101e-05
5.95867e-05
-0.000376247
4.27927e-05
0.000347774
-1.43203e-05
-0.000122662
9.60139e-05
8.55421e-05
0.000898852
-2.32195e-05
-0.000766024
-0.000109608
-0.000103727
0.00110895
0.000155474
-0.00110543
9.19804e-05
0.000859822
-0.00102757
-0.000262743
0.00043049
-0.000226361
-0.000988024
0.00118937
2.50181e-05
0.000152373
-1.17082e-05
-2.18291e-05
7.66844e-06
9.1235e-05
-0.000916856
0.000880029
-0.000276207
0.000313035
0.00126998
7.65418e-05
-0.000315651
-0.00103088
-4.99207e-05
0.000905404
-8.6707e-06
-6.58027e-05
0.00010068
-1.03833e-05
-2.44935e-05
5.99382e-06
-5.07222e-05
5.10942e-05
4.69632e-06
-9.58603e-06
-2.9602e-05
-0.000929886
-0.000377818
0.000354369
-0.000248846
-8.398e-05
0.000243678
0.000908123
0.000116706
-0.000180694
-0.000190905
0.000900001
-0.000885002
0.000175906
0.000259817
-1.81591e-05
1.85446e-05
-0.000149236
0.000164368
-2.77414e-05
-2.9698e-05
8.19082e-05
-1.52326e-05
6.93318e-05
-5.24297e-05
-3.83033e-05
0.000171562
-6.72546e-05
-2.03127e-05
8.38678e-05
-0.000106225
4.21685e-05
2.16981e-05
-1.84694e-05
1.58733e-05
-0.000105144
7.99467e-05
-0.000174893
-0.000945146
0.000184802
0.000878506
8.11592e-07
0.000217595
-0.000216986
0.000368881
-0.000580672
-0.000550547
0.000762338
1.42163e-05
0.000238082
-0.000876594
-3.37753e-05
0.000918276
1.43511e-05
8.41145e-05
6.09676e-05
-0.000145082
-4.17102e-05
3.25607e-05
0.00108174
-0.00125826
-0.000154811
0.00033133
0.000122245
3.72803e-05
-6.22445e-05
-0.000818964
-0.000353708
0.000853201
0.000319472
-8.34206e-05
0.00104572
-0.000949295
-1.30075e-05
-2.3856e-05
0.000152449
-2.57396e-05
-0.000102854
0.000129703
-0.000979347
0.000944794
-9.51495e-05
0.000172904
-0.000139085
-0.000230685
-0.000333461
0.000247509
0.000945774
-0.00092345
0.000911716
-0.000179171
0.000627557
-0.000603237
-2.67918e-07
0.000561398
-0.000512022
-5.90071e-05
0.000177612
-0.000332707
-0.000908932
0.000311754
-8.31591e-05
-0.000146731
0.000233075
-3.1857e-06
-0.00035195
0.00035905
-9.72992e-05
9.01988e-05
0.000112819
0.00101701
-0.000892441
-0.000158346
0.000287644
-3.15868e-05
1.16174e-05
-0.000267674
-0.000154689
0.000166335
0.00112779
8.40118e-06
2.29101e-05
0.0010083
0.000129711
0.000930681
-0.000998428
-6.19646e-05
-2.30108e-05
-3.28768e-05
-1.53424e-05
1.89836e-05
-0.000211668
0.000281872
-7.02042e-05
-0.000201591
-0.000917077
0.000201812
-0.000320928
-7.31523e-05
4.22254e-05
-0.000198147
-0.000248453
6.58355e-05
-3.38615e-05
4.12718e-05
0.00102264
-8.71022e-05
-0.000976807
-1.43585e-05
0.000126226
-0.000112739
8.71598e-07
-7.59974e-05
0.00105476
-0.000650538
-0.000265123
0.000675136
-1.20828e-05
-0.000889414
0.000133809
0.000826606
-0.000193233
0.000976902
0.000149215
-0.000159505
-0.000966612
0.00018453
-3.44988e-05
-0.000235476
0.00017056
-5.77273e-05
-0.000191765
0.000206691
0.000897629
-0.000196197
0.000188772
9.71347e-06
-0.000281645
-8.08618e-05
0.000101592
6.96669e-06
-2.76966e-05
0.000369048
-9.19543e-05
0.000583636
-0.00086073
0.000353207
-0.000103103
0.000514623
0.00122742
-0.000556278
-0.000355507
0.000810441
-0.000883837
-1.85586e-05
-0.00102155
-0.000830803
0.000594096
0.000833683
-0.000901465
-0.000222871
-0.00101021
5.08555e-05
0.00100193
0.000873248
0.000143006
-4.31432e-05
-0.000127013
-0.000168983
0.000189187
0.000167635
0.00101227
0.0002008
-0.000532101
0.00096223
-0.0012545
-0.000417106
-0.000922091
0.000807096
-0.000615727
0.000873757
-8.14607e-05
-0.000991434
8.48706e-05
1.87634e-05
4.35683e-05
-5.94462e-05
-0.000937167
0.000663904
-5.9444e-05
-2.88188e-05
1.56581e-05
-2.31185e-05
3.62791e-05
-0.00110791
-3.65618e-05
0.00106847
-0.000190381
0.000173305
-0.000289594
-8.76863e-05
0.000136486
0.000240794
-0.000520439
0.000635979
-2.32212e-06
8.3812e-06
-1.56451e-05
-3.9892e-06
1.12199e-05
-9.55283e-06
0.000756744
0.000183394
0.000187334
-0.00100141
0.000156618
-0.0009736
-8.8948e-05
0.00117295
-0.000110403
0.000143301
-9.34684e-05
0.000150244
-0.0001199
0.000789065
0.000492553
-0.00115191
0.000202175
-0.000266916
-0.000962788
0.00098643
-2.36425e-05
5.30849e-05
-6.36035e-05
1.05186e-05
1.4162e-05
-8.86843e-06
-3.41123e-05
-0.00104729
-2.42252e-05
0.00107152
-0.00100402
0.00101534
-1.13274e-05
-0.000932672
-1.40806e-05
-0.000525253
0.00018094
-3.19341e-05
0.000244869
-0.000872679
-0.00102365
4.90344e-05
-0.000988983
0.00108517
0.000908097
-0.000230505
-0.000932508
-0.000121142
0.000941211
0.000112439
-0.000231454
1.81147e-05
0.00033994
-0.000126601
0.000999192
2.5612e-05
0.000445731
-0.000979881
5.6896e-05
-5.06147e-05
8.95803e-05
-0.00101861
-3.45039e-05
-0.000898168
0.00102828
-0.000669282
-3.71765e-05
0.000149815
2.41666e-05
0.000199044
-0.000100041
-0.000172879
4.76439e-05
-5.62787e-05
-0.000178741
0.000187376
-0.000440249
-9.41053e-05
-7.74021e-05
-0.00065616
1.81611e-05
-1.81591e-05
1.56561e-05
2.1127e-05
-2.9333e-05
-7.26559e-05
-4.26952e-05
0.000228426
-0.000967285
-0.000413054
-0.000842188
0.000530853
0.000724389
-0.00101121
-0.00105043
-9.29175e-05
5.56045e-05
0.00108775
0.000551508
3.19459e-05
0.00115684
-1.35718e-05
-0.00117521
-0.000686654
-0.000545363
-1.65874e-05
-0.000124269
0.00021475
-7.38937e-05
0.000975861
-0.0010377
-0.000385493
0.000205963
0.00121723
-1.48571e-05
9.25896e-05
3.50867e-05
0.000195951
-0.00106601
0.000999757
1.30777e-05
7.15108e-05
-7.04265e-05
-0.000237213
0.000205412
-0.00134614
-2.31954e-05
-4.50299e-05
3.89921e-05
1.20316e-05
0.000305149
0.00102093
-6.54742e-05
-0.0012606
0.000132957
3.3087e-05
9.51721e-05
-0.000115181
0.000378306
-0.000260719
-1.75869e-05
-1.20857e-05
1.62796e-05
-3.6053e-05
0.000864088
-2.01817e-05
-6.26445e-05
8.73852e-05
-4.55902e-06
0.000107135
-0.000184317
-2.94621e-05
-5.5003e-05
-0.000137981
0.000146427
2.46414e-05
-3.89308e-05
-0.000359566
-4.17524e-05
4.65339e-05
-5.16072e-05
1.10987e-05
-6.02543e-06
0.00030492
-0.000982142
5.36705e-05
5.03721e-05
5.9167e-05
0.000107516
-4.8317e-05
5.21556e-05
4.77453e-05
3.22757e-05
-0.00039633
0.000406847
5.34204e-05
-5.13545e-05
1.60951e-05
-4.802e-05
5.49277e-05
6.71303e-05
-7.40381e-05
4.22627e-05
4.39049e-05
0.000404891
0.000922841
-0.000402037
-2.78316e-05
-4.14612e-05
3.13581e-05
3.79347e-05
0.00107894
5.03995e-05
-2.70809e-05
-3.76609e-05
1.43423e-05
-1.27264e-05
4.6595e-05
-4.69948e-05
1.31262e-05
1.03389e-05
-1.51494e-05
-1.33486e-05
-0.00015885
0.000170527
-0.000158408
-5.36804e-05
-0.000166822
0.000132816
-0.000123166
-1.31946e-05
0.000117891
-2.82652e-05
3.26983e-05
-1.08853e-05
-0.000134307
-2.66934e-05
1.34179e-05
-2.29136e-05
3.61891e-05
0.00117731
-0.000891219
3.10451e-05
-6.14062e-05
0.000134649
0.000100308
-0.000248393
-0.000549523
0.000697607
-4.24489e-05
5.18611e-05
-9.41215e-06
0.000105373
-0.00091617
-7.30398e-05
-6.13647e-06
-4.06789e-06
1.02044e-05
4.00112e-05
-6.45882e-05
2.4577e-05
6.98229e-06
-2.7989e-05
2.10067e-05
-0.000139835
6.384e-05
7.59951e-05
1.32354e-05
-6.99172e-06
-6.24371e-06
-5.98226e-05
-3.19372e-05
9.17598e-05
8.70129e-05
-8.92046e-05
2.19173e-06
1.61127e-05
6.42707e-06
-2.25398e-05
-0.000136363
-3.47257e-06
3.35496e-05
-2.03142e-05
-2.67174e-05
-1.57315e-05
-8.41974e-05
8.68166e-05
-2.61912e-06
5.92861e-05
-6.01963e-05
9.10164e-07
4.21996e-05
5.22212e-05
-3.61085e-05
8.13834e-05
9.6943e-05
-0.000128711
3.17681e-05
2.34759e-05
1.65353e-05
-2.53569e-05
1.92205e-05
-7.28915e-05
9.28799e-06
-6.66448e-05
7.09728e-05
-4.32806e-06
1.24977e-05
-5.92485e-05
2.50106e-05
2.17402e-05
1.69664e-05
8.62103e-05
-5.7003e-05
-0.000133188
0.000152562
-2.1648e-05
4.89465e-05
5.35813e-05
-0.000106068
0.000244708
-0.000155227
-9.02346e-05
2.04123e-05
0.000171414
4.23493e-05
-4.07015e-05
-2.87286e-05
1.69687e-05
-0.000329164
-0.0006371
-0.000338958
0.000387912
0.00106216
-0.000101661
1.7464e-05
2.05919e-05
-1.48565e-05
-5.73538e-06
3.8483e-05
3.04582e-05
-2.6273e-05
-1.44236e-05
8.49194e-06
8.40333e-05
-1.30604e-05
-2.02904e-05
-2.38808e-06
3.23548e-05
-1.55542e-05
1.14863e-05
-0.000333096
-0.000606198
0.000361314
0.00057798
0.00103927
-0.000267115
5.13902e-05
1.51102e-05
-5.02194e-05
4.81919e-05
-1.30826e-05
-2.14823e-05
9.32217e-06
0.000914863
-0.000924333
9.28965e-05
-8.34265e-05
9.90268e-06
2.84723e-05
-1.93863e-05
-1.89887e-05
5.76456e-05
1.64052e-06
-7.2001e-05
-1.75234e-05
5.18635e-05
2.27867e-05
-0.000146575
1.1179e-05
-7.88773e-05
2.05677e-05
4.71307e-05
0.00109021
-0.000292436
3.09697e-05
2.93472e-05
-1.3783e-05
0.000422722
-0.00107897
0.000961398
2.49016e-06
-5.11526e-05
4.01858e-05
1.91298e-05
0.000156827
-0.000369879
0.000727675
-8.32679e-05
0.000125824
-0.000104453
0.000685983
0.000676858
-0.000490404
8.21506e-05
-7.86329e-05
0.000656137
-0.000360529
-0.000295608
-8.35467e-05
8.13194e-05
4.73001e-05
-4.50729e-05
-0.000439358
-0.000136841
0.000344745
-2.39836e-05
-4.05857e-05
1.1226e-05
5.33434e-05
-1.46087e-05
-3.51824e-06
5.33152e-06
-1.52517e-05
2.92655e-05
-2.34865e-05
9.47258e-06
-2.06152e-05
5.68927e-05
-3.92226e-05
2.9451e-06
5.28242e-05
-2.75803e-05
-0.000151551
0.000126307
-1.90146e-05
-3.46827e-06
7.23117e-06
-5.54127e-05
4.84789e-05
-7.66128e-05
-0.000141786
-3.51804e-05
0.000229791
-8.43785e-05
0.00010746
-4.95964e-05
2.65149e-05
7.96908e-05
-0.000101136
-0.000119678
0.000108719
0.000112095
-0.000131089
-4.26404e-05
-7.32263e-06
2.23827e-05
-6.21409e-05
7.23068e-05
7.30864e-05
-1.55676e-05
-0.000129826
1.61257e-05
-3.98784e-06
-0.000136452
-5.6849e-06
5.70757e-05
8.50617e-05
-2.65882e-05
3.23476e-05
2.35062e-05
-0.000158256
-6.53759e-05
0.000139253
-0.000107649
-0.000114429
7.05273e-05
4.69173e-05
0.000388638
-0.000356363
6.92328e-05
-0.000155182
0.000148264
-0.000144408
-7.67012e-06
3.54486e-05
-2.77785e-05
4.60638e-05
1.43758e-06
-5.35045e-05
6.00306e-06
-2.69258e-05
4.19263e-05
3.10633e-05
-3.75082e-05
-1.28023e-05
-4.44368e-07
0.000105722
-0.000105277
-6.85751e-05
0.000117191
2.44701e-05
-9.99155e-05
1.57729e-05
-6.13375e-06
-1.07761e-05
-3.70539e-06
-5.40379e-05
-1.45759e-05
4.1688e-05
2.09973e-05
-5.58075e-06
4.14762e-05
-8.19192e-06
1.4879e-05
-3.01736e-05
-2.06548e-05
3.69341e-05
4.71797e-06
1.83942e-05
-6.48432e-06
-1.80436e-05
1.48259e-05
-1.59321e-05
-9.66987e-06
-7.84133e-06
1.73708e-05
9.85359e-06
0.000266861
-0.000273141
0.000242334
-0.000236054
2.53451e-05
6.39715e-06
-3.17422e-05
-2.4841e-05
2.07609e-06
-3.65544e-05
-0.000201202
0.000189887
2.03908e-05
2.79497e-05
5.95271e-05
-6.98547e-05
3.07185e-05
-7.95803e-05
-0.000436792
-0.000110122
0.000213817
-3.76036e-05
-7.05653e-05
7.16146e-05
-5.34261e-06
4.08861e-05
0.0005199
-0.000270709
0.000278744
-0.000280898
-1.53054e-05
1.74587e-05
-4.32757e-05
1.77806e-05
0.000871993
-0.000215856
8.10618e-05
-1.35264e-05
-0.000105139
2.11495e-05
-6.70778e-05
-0.000800325
0.000714027
0.000694212
-0.00081768
0.000587324
-0.000501245
0.000272971
2.51505e-07
-1.40244e-05
1.37729e-05
-2.6955e-05
0.000272766
3.22133e-05
-2.62353e-05
-0.00014513
0.00101712
-0.00110427
-0.00114008
9.43821e-05
-0.000117038
-8.89821e-05
-0.000151754
3.16143e-05
3.52262e-05
9.26099e-06
-3.21115e-05
-1.23757e-05
-1.58096e-05
1.3556e-05
2.73137e-05
-2.50601e-05
-3.37746e-05
3.33303e-05
1.67394e-06
1.82835e-05
7.06158e-06
-6.35385e-05
2.35835e-05
5.11809e-05
-0.000766166
0.000952121
0.000528073
4.25908e-06
4.18608e-05
0.000262571
-3.16652e-05
-0.000453573
8.11618e-05
0.000372411
0.000179111
-0.000133602
0.000110365
-0.000155874
9.52672e-05
-8.9543e-05
-0.000930057
-8.46138e-05
7.90465e-05
0.000184679
-0.000180856
1.5575e-05
0.000530425
0.000156712
-0.000687137
-5.16972e-05
0.000133627
2.553e-05
1.47168e-06
-0.0001788
7.61927e-05
-0.000188073
6.98667e-05
5.85406e-05
-9.59112e-05
7.07008e-05
3.14824e-05
-7.38715e-05
-1.3979e-05
9.98253e-06
-3.90854e-05
3.30163e-05
1.31308e-05
0.00039744
-8.8013e-06
2.55549e-05
0.000371885
2.27063e-05
0.000168179
-6.92852e-05
5.40862e-05
1.25996e-05
-4.52879e-05
0.000515371
7.68518e-05
1.03203e-05
-5.34969e-05
1.29894e-05
0.000139622
-0.000129811
-0.000125436
4.98539e-06
0.000158349
-0.000152329
-3.84009e-06
8.44548e-07
-4.81571e-05
-0.000253827
4.63215e-05
0.000249367
-2.72682e-05
1.55591e-05
6.85773e-05
-4.96789e-05
-4.33153e-05
2.4417e-05
3.40118e-05
-3.66906e-05
-0.000144436
4.17057e-05
0.000180219
7.84105e-05
-0.0011234
-8.06206e-06
-0.000926673
-0.00032587
-0.000171354
6.19098e-05
1.30012e-05
1.53808e-05
1.41586e-05
-1.6268e-05
-7.74025e-05
9.0061e-05
3.60947e-06
0.000198794
6.04711e-05
-4.71584e-05
-5.44194e-06
-0.00025618
0.00032905
0.000438015
-0.000510885
9.31053e-06
-0.000175018
-1.30929e-05
-3.13831e-05
-0.000367889
3.57021e-05
-6.88966e-05
7.23221e-05
5.83541e-06
0.000165967
-0.00096097
-2.30905e-05
0.000992461
-4.68326e-06
-6.28946e-05
3.58882e-05
5.059e-05
5.50305e-05
-3.88881e-05
1.7738e-05
2.11501e-05
0.000984538
-0.00103655
1.4204e-05
-2.05132e-05
1.37596e-06
3.00409e-05
-7.81104e-05
-8.32037e-06
6.87533e-07
1.20871e-05
-4.45426e-06
4.25056e-05
-2.39341e-05
-0.000330052
-8.78377e-06
-7.47083e-05
6.89162e-05
0.000147031
-0.00021829
0.000108402
-9.46496e-05
-2.20729e-05
0.000603656
-0.000320575
-2.30679e-06
-2.12815e-05
2.65115e-05
-2.92322e-06
-1.92542e-05
3.28126e-05
-6.70629e-05
-0.000858978
6.192e-05
0.000167808
9.33901e-05
-0.000174988
8.49846e-05
-0.000263747
2.78288e-05
7.85851e-06
-3.56874e-05
6.16518e-05
-4.17298e-06
-4.75761e-05
0.000265444
-0.000353817
-1.00921e-05
2.84726e-06
0.000239998
-3.90151e-05
4.56241e-05
4.20927e-05
-5.53692e-05
-8.8089e-05
-0.000142248
0.000196835
0.000265665
-0.00100222
0.000250903
4.76486e-05
-0.000740762
1.99612e-05
-0.000105473
7.77393e-05
-2.87538e-05
-0.000100063
0.000121274
7.54211e-06
0.000207735
4.60896e-05
-3.48579e-05
-9.29315e-05
0.0010992
1.66154e-05
3.58373e-05
-0.00105326
-3.73636e-05
-7.87972e-05
0.000199547
-2.50186e-05
0.000529499
0.000118212
0.00025059
0.00124843
0.00110117
0.000166215
0.000203515
0.00110362
5.13547e-05
-3.23214e-05
3.47691e-05
-5.89094e-05
-0.00018687
-0.000113412
-0.000920308
0.000118226
-5.41059e-05
3.38371e-06
-0.000131259
7.66519e-05
-6.06956e-05
-0.000108888
3.53216e-05
-6.67338e-05
3.6258e-05
0.00019018
0.000153617
-1.37313e-05
-0.000137523
-4.87191e-05
4.02666e-05
4.43407e-05
-0.000113516
0.000116811
-4.48633e-07
0.000840142
-0.00016949
-0.000642698
-2.79545e-05
-0.000753031
0.000695051
0.000323645
2.24506e-05
-4.45516e-05
2.8104e-05
5.09359e-06
1.92179e-06
4.95551e-05
1.80397e-05
-0.000246319
0.00033343
0.000154223
-0.000984951
8.12217e-05
0.000654175
-0.000654235
7.07923e-06
0.000425866
-0.00040739
-6.15936e-05
9.72115e-06
-1.32884e-05
-3.77059e-06
2.68032e-05
4.73179e-05
-3.50964e-05
-3.90248e-05
-0.000109225
8.5803e-05
0.000156106
-0.000205145
-0.000145404
-4.1156e-05
-1.68431e-05
4.52727e-05
-0.000150426
7.82184e-05
0.000836476
2.78553e-05
-2.25915e-05
2.15395e-05
-3.07653e-05
-4.58626e-05
-1.7347e-05
2.26715e-05
1.81817e-05
-0.00100701
0.00104022
-0.000281666
5.63775e-06
-0.000123326
-0.000152358
4.6903e-06
0.000303774
9.30854e-05
-8.97092e-06
-0.000966222
-0.000199134
4.40916e-05
1.62964e-05
3.39204e-05
0.000789186
6.11395e-05
0.00104658
-0.00101256
0.000144771
-0.000152728
-0.000144401
0.000214024
2.22449e-05
0.000260721
9.86569e-06
-1.09417e-05
-0.000259645
-0.000308503
-2.91839e-07
2.90304e-05
-6.28797e-06
-0.000270524
9.72695e-05
-6.52093e-06
1.63161e-06
0.000446846
3.76632e-05
6.38288e-06
0.000222418
-7.29565e-05
0.000148212
-5.43254e-05
-1.00893e-05
6.96212e-05
4.79839e-05
0.000201957
-0.000164348
0.000997386
-0.00125008
0.000269306
0.000143974
1.45085e-05
0.000721872
5.65073e-05
0.000945601
0.000277676
-9.98469e-05
-0.00112343
-3.55181e-05
2.99335e-06
1.77153e-05
-4.69952e-05
-8.66653e-05
6.92725e-05
5.37599e-05
-3.6367e-05
-0.00014469
0.000205998
-0.000226684
0.000165376
-0.000197383
0.000189084
0.00133371
9.8434e-05
-2.24484e-06
3.52338e-05
0.00132647
7.46326e-05
7.67206e-06
3.61082e-06
0.000129965
-3.22767e-05
-2.13579e-05
-0.00103121
8.05461e-05
-0.000151875
-3.65954e-05
2.16157e-05
3.26949e-05
-0.000975988
-0.00116296
0.000738704
-3.5314e-05
-1.13044e-05
-2.8145e-05
-5.70622e-06
1.39514e-05
1.98998e-05
8.78441e-05
1.43386e-05
-5.32267e-05
7.63002e-05
4.25153e-06
-7.86708e-05
-4.60968e-05
-0.000195787
8.73082e-05
-2.68042e-05
4.94061e-05
-7.52438e-07
-3.91811e-05
4.04525e-06
9.55946e-05
-2.37039e-06
6.52462e-05
2.16458e-05
1.61461e-05
-8.61001e-05
2.50947e-06
-0.000169341
-1.77161e-05
8.73812e-06
3.11173e-05
3.06584e-05
-0.000148242
1.95312e-05
1.22747e-05
4.17802e-05
0.000860501
0.000134096
3.02279e-05
-0.000813496
-1.43297e-05
4.84125e-05
-0.000107017
0.000457972
0.000409311
0.000151044
-3.75343e-05
0.00108494
-0.000488604
-2.55569e-05
0.000115992
-0.000116645
9.1031e-05
-5.93659e-05
3.32086e-05
-6.14537e-05
-4.03765e-05
7.31199e-05
4.45778e-06
1.44765e-05
-0.000727033
0.000677504
4.95287e-05
0.000127948
-0.000133307
-3.97139e-05
-7.41703e-06
0.000289851
5.20944e-06
0.000890994
0.000145414
-0.000789168
6.21357e-05
5.1598e-05
0.00107248
-8.91963e-05
-0.000949231
0.00101534
-0.000339872
0.000575368
4.66822e-05
-0.000282178
-2.38902e-05
3.74507e-06
-6.54835e-06
5.80925e-05
0.000619411
-6.77327e-05
9.8159e-05
8.92749e-05
-0.000119701
7.96676e-05
-5.58125e-05
5.58026e-05
-7.96577e-05
-0.000195778
4.3184e-05
0.000152594
2.9005e-05
-2.85248e-05
4.27397e-05
3.93664e-05
6.89335e-05
2.41519e-05
-0.000240729
4.49503e-05
-0.000285205
0.0003464
-0.000394713
-0.000291559
-0.000891466
0.000238932
-2.73376e-05
2.84033e-05
-0.000163831
-1.76464e-05
3.94624e-05
-0.000102426
0.000114674
-3.59838e-06
0.000189488
-8.55352e-05
0.000390567
0.000535525
0.000209999
-4.22698e-05
-0.0001767
-0.000478002
0.00045948
1.85225e-05
8.27852e-05
-0.000871954
7.35384e-05
-0.000119471
-4.93463e-05
7.70012e-06
-0.000162393
0.000859067
-0.000330652
0.000369028
-0.000398814
-0.000216822
-8.2987e-05
-0.000131532
6.77988e-05
0.000878314
-0.000194911
0.000355866
-0.000959914
0.000656903
0.000632413
-0.0010647
-5.02835e-05
0.000573927
0.000370842
-0.000300975
-0.00063387
0.000583914
0.000524195
-0.000615556
0.000338958
0.000574006
-0.000265735
-0.000508355
4.71364e-05
0.000492833
0.000122403
3.7522e-07
-0.000637899
0.000761001
-0.000500249
2.22471e-05
-0.000160573
1.71109e-05
0.000369625
0.000565385
6.09388e-05
-6.76254e-05
-5.22228e-05
-3.22922e-05
1.95454e-05
-2.6278e-05
-3.15309e-05
-3.061e-05
0.000446332
1.31471e-05
-0.000131829
2.84046e-05
1.67586e-05
0.000107372
-0.000160409
-4.93476e-06
7.67571e-07
4.18601e-05
3.9673e-06
2.2829e-05
-1.15362e-05
4.72383e-05
-0.000426334
-0.000293153
7.77635e-05
1.00221e-05
-9.65786e-06
-0.000536282
0.000115287
-0.000135283
4.80523e-05
-4.64795e-05
-4.94024e-05
-4.43435e-05
1.57332e-05
0.000115283
1.87991e-05
-0.000917937
0.000137234
-9.61107e-05
9.74424e-05
-0.000169511
0.00101351
-0.000960818
-7.02205e-05
-4.32674e-05
1.43844e-05
-1.74306e-05
0.000241904
0.000378863
-0.0010862
3.03807e-05
-6.40669e-05
4.97211e-05
-1.50827e-05
4.34702e-06
7.13734e-06
0.00092753
0.000136769
1.37449e-05
-6.53506e-06
-5.26804e-06
-0.000142974
-8.52979e-05
-7.83226e-06
-0.000993066
0.000661629
6.45207e-05
1.67061e-06
0.000255741
2.4053e-06
3.67188e-05
4.96688e-05
-1.22022e-06
0.00111616
7.00201e-05
-0.00108022
-0.000589982
0.000770675
8.88149e-06
-3.48993e-05
7.86834e-05
-0.000107643
0.000165253
0.000503589
-0.000727753
0.000224163
0.000436374
6.72157e-05
0.000447633
-1.12591e-05
-0.000309514
0.000466341
-0.000679393
-0.000602851
-0.000504367
-9.84841e-05
7.97698e-05
-4.64332e-05
0.000121499
-9.91582e-05
-0.000938127
-0.000121161
-4.80194e-05
-5.36602e-06
-1.58515e-05
7.44286e-06
7.07111e-05
-4.63342e-05
4.95625e-05
2.84765e-05
-6.15037e-05
6.1945e-05
5.04357e-05
-7.38977e-05
0.000113935
4.69604e-05
-1.91709e-05
3.12665e-06
0.000437858
0.00081365
6.93259e-06
5.05512e-05
7.09441e-06
-0.000135297
0.000137131
-6.59009e-05
-0.000229138
-0.000997987
0.000148065
-2.93852e-05
0.000216008
-0.000476647
-2.772e-05
0.000267844
-0.000148456
-0.000609792
0.000131354
-7.58316e-05
-3.84163e-05
-3.54658e-05
-0.000159519
-0.000144996
7.5399e-05
5.95075e-05
9.80069e-05
-0.00115074
0.00103917
-3.4694e-05
0.000210435
-0.000205638
-9.09891e-05
8.61923e-05
-1.95567e-05
4.98097e-05
1.47951e-05
-4.27841e-05
0.000119788
-2.58465e-05
8.00506e-05
-0.00118833
1.79756e-06
0.000682188
-0.000382727
-4.21648e-05
2.53979e-05
-0.000251028
-7.45954e-05
7.31548e-06
3.7378e-05
1.56936e-05
-3.40277e-06
-0.000116709
0.000113656
-0.000136166
0.00011611
-7.56727e-06
6.0533e-07
-0.000612441
-0.000377195
0.000148272
0.000185702
9.22576e-05
-0.000214722
0.000116779
-1.76696e-05
5.92664e-05
7.96569e-06
0.000992271
9.35394e-05
3.32481e-05
6.84074e-05
5.63435e-05
0.000194712
-9.71406e-05
-0.000197612
-0.000802157
0.00112199
-2.3419e-05
-2.30269e-05
2.13155e-05
-0.000164889
-5.19797e-06
-3.46951e-05
-4.25175e-06
0.00103943
-3.04662e-05
-3.82309e-06
8.95038e-06
0.00016593
0.000152312
-8.8651e-05
-9.29882e-05
9.4527e-05
-0.000857504
4.16639e-05
0.000649124
8.29563e-05
-7.92276e-05
4.14759e-05
0.00108694
7.09958e-05
9.93445e-05
8.60823e-05
-0.000372525
5.88592e-05
0.000150148
1.69216e-05
-3.44921e-05
-0.000220444
0.000184588
5.17289e-05
-0.000236786
5.15922e-05
1.16614e-05
2.30686e-05
0.000144761
-7.52712e-06
-0.000167446
0.000155738
-0.000964492
0.00103066
-0.00024921
0.000183046
-3.27136e-05
-1.94693e-05
3.56852e-05
-1.94852e-05
0.00018548
-0.000247082
0.000533134
-0.000483499
-0.000159324
-2.09178e-05
6.06125e-06
1.2277e-05
-4.47265e-05
5.22494e-05
-4.99056e-05
-0.00115602
2.59545e-05
-2.4678e-05
-7.89548e-05
-3.7983e-06
0.000149072
-0.00107039
0.000969263
1.75595e-05
-1.78062e-05
0.000992708
-2.04872e-05
0.000558297
-0.000481881
-7.64156e-05
0.000253448
-3.16572e-05
0.000127038
6.728e-06
-2.7156e-06
5.70875e-06
-0.000898014
0.000907262
0.000116769
-5.84111e-05
0.00029178
-0.000298255
6.47505e-06
-0.000283728
0.000262811
8.05133e-06
-0.000304859
6.6042e-06
0.000226687
0.000175257
0.000319746
-0.0010654
0.00011625
-5.2915e-06
-1.02304e-05
4.99853e-06
0.000237302
-0.000248245
2.70366e-05
-1.98083e-06
-2.50557e-05
7.02067e-06
0.000115626
0.0001139
2.37267e-05
-0.000329214
2.78907e-06
-0.000113634
-0.000618567
0.00045191
-3.23214e-05
3.44973e-05
6.98272e-05
4.64228e-05
-0.000281822
-3.04292e-05
-3.79207e-06
0.000655418
-2.03671e-05
4.63543e-05
-1.55301e-05
-4.09084e-05
4.20149e-05
-1.87365e-05
-0.000118982
9.51315e-05
-3.6845e-05
2.11339e-05
5.90268e-06
3.2978e-05
3.68492e-05
8.3352e-05
0.000101795
-4.08757e-05
1.90394e-05
9.49681e-06
-2.37401e-05
1.54029e-05
-4.96267e-06
-0.000117551
0.00045827
-0.000342621
-2.94486e-06
-1.22774e-05
-0.000256901
2.19929e-06
1.89346e-05
3.68055e-05
-0.000142074
0.00105276
-1.35036e-05
-0.00101424
-0.000146969
0.000117816
0.000683328
-0.000114769
0.000498883
-0.000220505
-3.32139e-05
0.000119511
-3.39691e-05
0.00027082
1.0372e-06
-4.86029e-06
-0.000225615
0.000308967
5.88161e-05
-9.96919e-05
0.00140585
-0.00113601
-9.08711e-05
-0.000924839
-7.47571e-05
-1.56397e-05
3.39083e-05
0.000116459
3.56039e-06
0.00055017
-0.000721234
-0.000111609
9.53358e-05
-2.50444e-06
-4.82704e-05
0.000257115
0.000225442
-8.18109e-05
-0.000886933
-4.69136e-05
-3.1879e-05
-0.000369103
0.000393285
-0.000201931
0.000588989
0.000925038
-0.000265595
-8.3366e-05
2.00088e-05
-5.13511e-05
-8.13967e-05
5.51401e-05
0.0006819
5.69731e-06
6.13443e-05
0.000154718
-9.95703e-06
7.17404e-05
0.000163494
-9.34469e-06
7.81009e-06
-0.00018485
-0.000173625
-2.07158e-06
0.000181334
-4.70172e-05
6.15721e-05
1.88644e-06
0.000215423
2.19388e-06
-1.28535e-05
9.15153e-05
0.000139901
2.98798e-05
0.00090279
-0.000914147
4.33421e-06
3.1207e-05