/*--------------------------------*- C++ -*----------------------------------*\
| =========                 |                                                 |
| \\      /  F ield         | OpenFOAM: The Open Source CFD Toolbox           |
|  \\    /   O peration     | Version:  v1912                                 |
|   \\  /    A nd           | Website:  www.openfoam.com                      |
|    \\/     M anipulation  |                                                 |
\*---------------------------------------------------------------------------*/
FoamFile
{
    version     2.0;
    format      ascii;
    class       volScalarField;
    location    "0.98";
    object      k;
}
// * * * * * * * * * * * * * * * * * * * * * * * * * * * * * * * * * * * * * //

dimensions      [0 2 -2 0 0 0 0];


internalField   nonuniform List<scalar> 
1466
(
0.0352347
0.131274
0.153275
0.0361914
0.125103
0.465297
0.0643383
0.0681229
0.491839
0.0263711
0.160082
0.0581006
0.0105257
0.0271794
0.0436098
0.0212304
0.0918297
0.0252831
0.2196
0.0259396
0.0899953
0.0567547
0.0277251
0.153471
0.0290191
0.330817
0.366624
0.0382749
0.0369141
0.0427198
0.0906774
0.321989
0.0637745
0.047842
0.0219278
0.0472335
0.0315025
0.0509206
0.790291
0.051837
0.056594
0.0260965
0.401385
0.0729273
0.0489299
0.348305
0.0712746
0.0257985
0.0263759
0.0930737
0.194133
0.0168643
0.0937648
0.399428
0.0314454
0.0552033
0.0412448
0.297177
0.0229294
0.0563308
0.0257346
0.0363876
0.0998152
0.374933
0.142236
0.0451829
0.0560683
0.0854764
0.0232591
0.0479601
0.272663
0.0378285
0.0399631
0.0646094
0.0267922
0.0471401
0.0574729
0.0315798
0.0531608
0.0610783
0.185155
0.0640679
0.0569202
0.028191
0.0409826
0.0976484
0.0408095
0.166923
0.0533336
0.0780085
0.0574515
0.0420345
0.0712373
0.0215342
0.179665
0.077904
0.133307
0.0262943
0.146187
0.0576828
0.0470961
0.037606
0.110007
0.0883991
0.0677058
0.419728
0.0781767
0.0626654
0.139917
0.0319638
0.0233551
0.0578983
0.0394347
0.0532369
0.0123072
0.835798
0.020775
0.0223391
0.0972217
0.30507
0.0714623
0.0253775
0.0169906
0.176698
0.0486668
0.0875072
0.0324028
0.119367
0.0748063
0.405232
0.0426455
0.0473385
0.0701298
0.0585942
0.218855
0.0634978
0.027093
0.0445082
0.0497392
0.0316251
0.0207052
0.0407547
0.0950643
0.109063
0.0496132
0.0354546
0.0658755
0.123232
0.0636426
0.0403404
0.0766902
0.0429745
0.0582028
0.134031
0.0663521
0.354427
0.0301324
0.0847717
0.161333
0.104881
0.0413716
0.0542572
0.120083
0.0751322
0.0335176
0.0675358
0.399516
0.0168839
0.0336972
0.365658
0.0833499
0.100869
0.0349843
0.0619147
0.342571
0.139075
0.0301623
0.0626243
0.0383984
0.065457
0.0288866
0.0794048
0.0520441
0.0441256
0.174024
0.0235262
0.070861
0.833502
0.0550412
0.107824
0.0779258
0.0292098
0.0498043
0.129753
0.0780628
0.0366631
0.0496323
0.0357623
0.0317321
0.0287289
0.0373915
0.165235
0.0665898
0.03677
0.0433542
0.0301039
0.0769223
0.129337
0.0399209
0.0545685
0.046434
0.037582
0.178934
0.0683456
0.11958
0.0630799
0.107107
0.0116816
0.0235039
0.0550246
0.370021
0.0325827
0.0249421
0.0753254
0.0590276
0.0816713
0.0270304
0.0335385
0.0465419
0.423289
0.0586936
0.143224
0.0601792
0.0269715
0.0502609
0.0424573
0.0335197
0.0520564
0.0469268
0.0330669
0.457402
0.0558773
0.0430568
0.0291758
0.0284846
0.0292017
0.180832
0.0387472
0.0173689
0.0334095
0.0661358
0.217623
0.033882
0.136321
0.056503
0.189518
0.0320014
0.427455
0.930276
0.0351089
0.0727246
0.0602717
0.170795
0.0915975
0.573731
0.0474385
0.529591
0.0382899
0.146859
0.0456604
0.133798
0.0276855
0.0533115
0.0327549
0.0558839
0.0259828
0.111892
0.0542492
0.149202
0.0283412
0.0382217
0.023709
0.0364986
0.0306564
0.105032
0.0371033
0.230161
0.0450756
0.393303
0.0495289
0.0915393
0.574756
0.255386
0.0426417
0.0474331
0.190669
0.793835
0.833094
0.192341
0.0220104
0.0466186
0.0483126
0.0273746
0.237339
0.0442287
0.0689783
0.0347436
0.0317743
0.0214895
1.20052
0.480933
0.147576
0.167451
0.0628067
0.0384566
0.136529
0.0361477
0.282953
0.0516036
0.0406372
0.0908761
0.0623707
0.0590438
0.0350821
0.0222249
0.0466118
0.088794
0.0540566
0.132086
0.0988835
0.0270231
0.0274972
0.0994764
0.0697725
0.024398
0.0324436
0.0279735
0.222681
0.0269859
0.107703
0.0303706
0.0257471
0.0388424
0.0750679
0.0507279
0.149142
0.029955
0.0169629
0.0419535
0.422067
0.0421544
0.0765297
0.0376814
0.0266553
0.0263974
0.159238
0.0350515
0.0727166
1.1505
0.218047
0.374476
0.0606387
0.0644493
0.0565567
0.0274864
0.0561799
0.0806761
0.117727
0.0216325
0.0309968
0.125464
0.0216136
0.0298936
0.0299148
0.082885
0.02587
0.0426998
0.316743
0.0512454
0.023755
0.0412388
0.0571559
0.214157
0.161096
0.0515109
0.247239
0.0514835
0.146941
0.0521543
0.0772909
0.0950577
0.406401
0.0599381
0.58301
0.0264188
0.0344825
0.0653242
0.254293
0.0670921
0.0419541
0.0235787
0.257612
0.0657786
0.0703441
0.051939
0.0888225
0.125613
0.969286
0.0620289
0.0382066
0.125566
0.0597485
0.0260254
0.0340425
0.564587
0.129649
0.15368
0.314573
0.121415
0.132806
0.288538
0.0550641
0.072989
0.0805141
0.0833789
0.0908935
0.0720142
0.0731889
0.0854492
0.0898863
0.0393047
0.124195
0.167367
0.228932
0.73047
0.301587
0.523369
0.0779312
0.41835
0.379528
0.114624
0.104085
0.175307
0.406792
0.385383
0.50591
0.41963
0.441485
0.548474
0.333317
0.670307
0.534407
0.424531
0.24138
0.484499
0.476758
0.462551
0.499156
0.314517
0.340867
0.476099
0.192988
0.225036
0.310034
0.220442
0.213081
0.346511
0.100879
0.0384256
0.205649
0.292037
0.433979
0.321183
0.496604
0.208459
0.0951531
0.262246
0.229747
0.154481
0.502174
0.0362793
0.0801767
0.277772
0.0744927
0.104553
0.0353203
0.0547292
0.217484
0.230363
0.0517806
0.0856942
0.0381625
0.0614107
0.239902
0.0365726
0.153739
0.551024
0.449086
0.169535
0.140262
0.0423703
0.0674893
0.0269768
0.0511527
0.263197
0.0765972
0.0520675
0.378293
0.364386
0.391496
0.402887
0.104384
0.386229
0.353768
0.366286
0.377531
0.042501
0.0674033
0.266712
0.28851
0.249272
0.56864
0.306892
0.625577
0.513377
0.0637801
0.26647
0.340809
0.0324339
0.26055
0.0864058
0.0703377
0.360274
0.355524
0.368402
0.40553
0.0419059
0.342471
0.0953045
0.046152
0.379883
0.475457
0.441387
0.431424
0.372928
0.31815
0.0719713
0.640742
0.520204
0.0438567
0.0729325
0.0561675
0.407211
0.111633
0.0761782
0.474091
0.0376838
0.106852
0.182822
0.401961
0.0882424
0.0542913
0.0826943
0.702442
0.0517423
0.0587835
0.0886662
0.0435335
0.368657
0.666783
0.0439779
0.364264
0.375163
0.0470412
0.123496
0.379652
0.0867886
0.28849
0.373383
0.387183
0.062737
0.0528576
0.145512
0.0726056
0.0655343
0.798772
0.293775
0.0700713
0.636734
0.442801
0.0179108
0.0380173
0.0518246
0.142641
0.0455542
0.072371
0.0618242
0.0677669
0.570402
0.0809315
0.621081
0.041756
0.0756769
0.117334
0.313741
0.131389
0.169077
0.121311
0.565867
0.784727
0.067412
0.583172
0.454081
0.864491
0.0241652
0.315142
0.623879
0.0243986
0.371873
0.0343837
0.0695616
0.0874132
0.163708
0.0559536
0.0691853
0.341109
0.0265093
0.0483323
0.0889956
0.417274
0.201235
0.7433
0.158463
0.0256487
0.062341
0.0642146
0.0621276
0.462613
0.044166
0.0741249
0.0849507
0.418563
0.0426171
0.375415
0.276967
0.0389764
0.147551
0.414721
0.718436
0.0772781
0.051343
0.538515
0.0614569
0.477204
0.213538
0.173755
0.374134
0.0750813
0.0676558
0.159195
0.0214696
0.511849
0.0445983
0.113492
0.360847
0.402047
0.333467
0.0705574
0.501214
0.059841
0.0581041
0.0511216
0.0236591
0.133871
0.0197143
0.0370922
0.389568
0.469601
0.0654029
0.05544
0.0378063
0.0662693
0.0253319
0.126155
0.0259275
0.227884
0.097576
0.139269
0.0703828
0.137166
0.0646212
0.0497207
0.395563
0.145958
0.151109
0.0366022
0.0350599
0.0825012
0.0629744
0.121356
0.378737
0.107958
0.0514466
0.450361
0.103029
0.0489008
0.13916
0.41552
0.375872
0.0399878
0.0714285
0.0343603
0.0443898
0.038165
0.0741133
0.0365576
0.0476077
0.708796
0.0424
0.363365
0.104589
0.204887
0.0690702
0.0893477
0.604311
0.0971651
0.11972
0.0376868
0.396776
0.0469504
0.438321
0.0360202
0.0765389
0.00766219
0.00816154
0.537426
0.00826549
0.0102619
0.26747
0.601165
0.0401782
0.00929623
0.0126496
0.0239958
0.0928458
0.204561
0.0315758
0.0879916
0.278757
0.036122
0.126963
0.0196591
0.0266427
0.065007
0.100825
0.154345
1.07925
0.411337
0.110948
0.0311885
0.0155273
0.0634358
0.063642
0.0324169
0.0606583
0.382842
0.094618
0.0174474
0.120453
0.128948
0.114572
0.748291
0.146155
0.0250434
0.0633383
0.067366
0.0381244
0.0346113
0.048301
0.236984
0.770339
0.431014
0.0164974
0.0304643
0.0646036
0.030749
0.0667255
0.0803056
0.345842
0.0206924
0.0554984
0.0659001
0.0307887
0.0393087
0.161923
0.483755
0.855044
0.0914725
0.0725976
0.0298942
0.0886201
0.0944085
0.0690332
0.13721
0.0985985
0.0758769
0.425391
0.0555824
0.0628659
0.150855
0.961373
0.0288026
0.0649565
0.408811
0.0277607
0.249669
0.0244408
0.0693725
0.140234
0.338559
0.854256
0.0601687
0.207091
0.150689
0.0346698
0.034756
0.145826
0.0993503
0.074076
0.187135
0.0371856
0.10674
0.0527735
0.15889
0.070556
0.0440332
0.132243
0.0629852
0.0247032
0.0241709
0.0632491
0.0772468
0.0520945
0.39192
0.0237018
0.202294
0.0453928
0.0453298
0.316108
0.179626
0.452754
0.0592335
0.0902296
0.445469
0.0287934
0.23784
0.217112
0.0514964
0.13808
0.0136813
0.352735
0.0250494
0.184921
0.137912
0.0714569
0.038682
0.0249862
0.0559915
0.128477
0.0452378
0.0761091
0.0377097
0.389735
0.0659839
0.122971
0.10025
0.0614891
0.132458
0.877912
0.278552
0.0585684
0.163723
0.345094
0.0966183
0.0279584
0.123043
0.131783
0.144491
0.259382
0.131079
0.0643951
0.0982379
0.025211
0.0487711
0.0713098
0.760756
0.338556
0.353662
0.361115
0.0367002
0.0691417
0.0754347
0.0517793
0.326271
0.134032
0.0376935
0.0969542
0.0527054
0.0471135
0.101159
0.0422155
0.227805
0.375082
0.0348248
0.0591286
0.0123895
0.0544936
0.0597257
0.150006
0.0474407
0.0980869
0.0589198
0.38863
0.0608175
0.465999
0.0303184
0.0810281
0.179488
0.0645067
0.353476
0.0599084
0.117063
0.0262809
0.364791
0.010687
0.674567
0.0951291
0.255519
0.0564906
0.018178
0.0198093
0.0220331
0.0210721
0.0917066
0.0884634
0.0940458
0.0955186
0.0165083
0.0928462
0.09146
0.014691
0.0125848
0.0106665
0.0906742
0.0100545
0.0113733
0.0548169
0.0232747
0.0592174
0.0318026
0.0920596
0.318242
0.193416
0.0392243
0.025715
0.0893881
0.448078
0.0216694
0.194029
0.059088
0.0477059
0.0907911
0.0291261
0.222958
0.251103
0.0377104
0.0700984
0.0419077
0.0920444
0.0250178
0.435299
0.376793
0.887475
0.507507
0.0888877
0.175381
0.0335343
0.043088
0.0382442
0.284866
0.1625
0.0534507
0.0587164
0.0885413
0.38654
0.244913
0.0153522
0.745873
0.426751
0.65528
0.0694931
0.0812023
0.0855515
0.0704382
0.0493156
0.0283868
0.023765
0.498714
0.0390883
0.0264815
0.0680165
0.017846
0.0208995
0.0729815
0.0282961
0.0448884
0.0665464
0.0438656
0.026974
0.267908
0.0560231
0.0253249
0.403061
0.0774613
0.0632363
0.0443862
0.0746333
0.0273921
0.149514
0.537035
0.0931714
0.097085
0.543481
0.0259501
0.0182804
0.244345
0.663875
0.0225887
0.0618289
0.273456
0.94401
0.0194678
0.0839571
0.037927
0.0264635
0.0918765
0.141427
0.0118277
0.15058
0.0623691
0.0436005
0.17265
0.299766
0.489331
0.012036
0.164948
0.286404
0.242184
0.0956699
0.0808995
0.717875
0.0467081
0.049009
0.0123552
0.0488503
0.0367923
0.0436081
0.858067
0.0418983
0.0514375
0.0266989
0.0282632
0.0546719
0.042795
0.887307
0.059682
0.0463955
0.051761
0.124086
0.318572
0.070759
0.0369978
0.0241682
0.371899
0.0801119
0.0514909
0.801726
0.0525484
0.136577
0.042204
0.365992
0.0769171
0.0705792
0.736783
0.02247
0.0275337
0.405014
0.364345
0.0606198
0.087835
0.0281404
0.0262523
0.0874003
0.383444
0.162866
0.0291657
0.0114954
0.0217569
0.0421081
0.0295357
0.364428
0.107401
0.0942811
0.0243945
0.364711
0.0138397
0.0377295
0.110704
0.0382609
0.0418608
0.0305016
0.0701959
0.228461
0.0576375
0.0336525
0.0358093
0.0305425
0.199002
0.0273803
0.375283
0.0907717
0.0271571
0.0479772
0.25896
0.0690116
0.0299556
0.189856
0.0117284
0.456222
0.311427
0.0227937
0.0245394
0.0621635
0.154108
0.0493273
0.0915212
0.0106167
0.157216
0.159649
0.0433274
0.0480924
0.017371
0.0404108
0.0336405
0.0355709
0.269231
0.036536
0.118791
0.0277308
0.0659165
0.149873
0.40238
0.587345
0.0278978
0.19491
0.0813929
0.0257556
0.0230355
0.0544275
0.203893
0.0107129
0.0803908
0.643543
0.0606436
0.0158501
0.105702
0.405689
0.16353
0.0286609
0.325919
0.0475244
0.0348344
0.0264082
0.0312518
0.0351934
0.022126
0.273977
0.147232
0.414038
0.150913
0.0691981
0.0623043
0.0348172
0.0129686
0.034647
0.983602
0.398269
0.387955
0.0215129
0.108244
0.0424859
0.353883
0.424604
0.092966
0.0599745
0.0810664
0.038857
0.780151
0.337037
0.763466
0.0268147
0.108297
0.269017
0.12482
0.785125
0.055057
0.111042
0.229702
0.0925599
0.0200697
0.054168
0.164006
0.157425
0.0719907
0.313719
0.0286543
0.01068
0.859618
0.451485
0.042794
0.0520904
0.0398721
0.0214282
0.0485907
0.0245682
0.214929
0.204209
0.0537039
0.0590109
0.104537
0.0750613
0.0669051
0.674992
0.720201
0.396898
0.879902
0.0612989
0.0489183
0.175375
0.0763313
0.390386
0.908691
0.168457
0.16484
0.25853
0.0416751
0.164285
0.0385632
0.218088
0.295857
0.0417418
0.0240019
0.0853439
0.0309688
0.116714
0.0408958
0.0462602
0.0608261
0.0837538
0.0225237
0.0444615
0.420667
0.0391564
0.0308278
0.943653
0.473084
0.513912
0.0228402
0.0589465
0.0441774
0.215497
0.344158
0.10131
0.864275
0.061733
0.0332996
0.0987891
0.0821592
0.083602
0.0571293
0.0441738
1.07334
0.453452
0.11692
0.583988
0.506469
0.131995
0.0107841
0.166293
0.0185685
0.3952
0.188439
0.0238751
0.0238179
0.334307
0.0932532
0.260592
0.099027
0.0140234
0.192084
0.0507892
0.122916
0.0225907
0.0146624
0.0322994
0.183544
0.0857968
0.0321597
0.143888
0.624949
0.117382
0.0337409
0.102725
0.0498551
0.0569101
0.234261
0.0893353
0.0736863
0.126179
0.107828
0.0220641
0.662122
0.0370281
0.0412729
0.0988214
0.0105682
0.0611318
0.0549893
0.040644
0.0591384
0.166727
0.36354
0.0121916
0.0499327
0.0440889
0.0343311
0.036197
0.17787
0.059414
0.0371244
0.247678
0.033931
0.340635
0.0515824
0.0430625
0.436247
0.235086
0.0704777
0.282496
0.0267809
0.0322602
0.0430467
0.0269919
0.112783
0.0348547
0.156207
0.198122
0.160079
0.415491
0.0103823
0.0865004
0.0368106
0.0671326
0.0369154
0.0328203
0.194227
0.0362448
0.298764
0.0622221
0.0289775
0.0406319
0.0357113
0.0308732
0.0925566
0.100806
0.0289539
0.0410508
0.0405959
0.0580263
0.0341022
0.0437872
0.136985
0.0732126
0.395694
0.102663
0.0270508
0.0630723
0.0369562
0.0860259
0.0283708
0.0530882
0.0494785
0.702107
0.044874
0.0388603
0.0738808
0.0236077
0.0348598
0.0576057
0.0282675
0.0242053
0.0306164
0.114146
0.102449
0.138264
0.0292455
0.114955
0.0577165
0.954167
0.428608
0.313679
0.0618091
0.0551701
0.0380292
0.0428173
0.115184
0.119617
0.032899
0.0649591
0.0338571
0.141347
0.0645967
0.0390641
0.0361838
0.11385
0.103867
0.174487
0.026278
0.2817
0.147351
0.144418
0.0436562
0.0309783
0.0906698
0.102413
0.164467
0.051075
0.0382579
0.0472776
0.142595
0.04872
0.022966
0.219562
0.578283
0.61383
0.0329254
0.0289692
0.550219
0.163543
0.647298
0.0392112
0.217825
0.21036
0.0600759
0.0449983
0.0336175
)
;

boundaryField
{
    frontAndBack
    {
        type            empty;
    }
    wallOuter
    {
        type            kqRWallFunction;
        value           nonuniform List<scalar> 
102
(
0.0105257
0.0105257
0.0277251
0.0267922
0.0123072
0.0214895
0.0264188
0.0253319
0.00766219
0.00816154
0.00826549
0.0102619
0.00929623
0.0126496
0.0239958
0.0928458
0.0315758
0.0196591
0.0155273
0.0174474
0.0250434
0.0164974
0.0304643
0.0298942
0.0886201
0.0346698
0.034756
0.0287934
0.0136813
0.0348248
0.0123895
0.018178
0.0198093
0.0220331
0.0210721
0.0917066
0.0884634
0.0940458
0.0955186
0.0165083
0.0928462
0.09146
0.014691
0.0125848
0.0106665
0.0100545
0.0113733
0.0318026
0.0920596
0.0477059
0.0291261
0.0377104
0.0920444
0.0587164
0.0885413
0.0153522
0.0694931
0.0812023
0.017846
0.0208995
0.0259501
0.0225887
0.0194678
0.0118277
0.012036
0.0123552
0.0282632
0.0369978
0.0241682
0.0275337
0.0281404
0.0262523
0.0114954
0.0217569
0.0295357
0.0138397
0.0305016
0.0336525
0.0273803
0.0117284
0.0227937
0.0106167
0.0355709
0.036536
0.0278978
0.0107129
0.0158501
0.0351934
0.0129686
0.01068
0.0837538
0.0225237
0.0107841
0.0238751
0.0140234
0.0146624
0.0105682
0.0121916
0.0343311
0.0103823
0.0328203
0.0362448
)
;
    }
    inlet
    {
        type            fixedValue;
        value           nonuniform 0();
    }
    outlet
    {
        type            zeroGradient;
    }
    wallInner
    {
        type            kqRWallFunction;
        value           nonuniform List<scalar> 
138
(
0.160082
0.0918297
0.0369141
0.0427198
0.0168643
0.0937648
0.399428
0.0314454
0.0363876
0.0420345
0.0470961
0.0883991
0.0169906
0.0207052
0.0407547
0.0354546
0.0658755
0.0168839
0.107824
0.0779258
0.0292098
0.0116816
0.0430568
0.0292017
0.180832
0.0387472
0.0173689
0.0334095
0.573731
0.023709
0.0364986
0.0450756
0.0350821
0.0222249
0.0466118
0.088794
0.0540566
0.132086
0.0988835
0.0270231
0.0274972
0.0994764
0.0697725
0.024398
0.0324436
0.0279735
0.222681
0.0269859
0.107703
0.0303706
0.0257471
0.0388424
0.0750679
0.0507279
0.149142
0.029955
0.0169629
0.0727166
0.0565567
0.0274864
0.0561799
0.0806761
0.117727
0.0216325
0.0309968
0.125464
0.0216136
0.0298936
0.0299148
0.082885
0.02587
0.0426998
0.023755
0.0419541
0.0235787
0.0260254
0.0340425
0.0550641
0.73047
0.114624
0.314517
0.213081
0.205649
0.262246
0.229747
0.0365726
0.169535
0.140262
0.0269768
0.625577
0.513377
0.0324339
0.0719713
0.0867886
0.0179108
0.0380173
0.163708
0.0256487
0.113492
0.0197143
0.0370922
0.0703828
0.0343603
0.26747
0.0401782
0.146155
0.0206924
0.0758769
0.0288026
0.0693725
0.15889
0.0241709
0.0632491
0.0514964
0.0377097
0.0376935
0.010687
0.0232747
0.0893881
0.0264815
0.403061
0.0774613
0.0182804
0.318572
0.02247
0.0701959
0.0433274
0.017371
0.0257556
0.0475244
0.0200697
0.0348598
0.647298
0.0392112
0.21036
0.0600759
0.0449983
0.0336175
)
;
    }
    procBoundary2to0
    {
        type            processor;
        value           nonuniform List<scalar> 
42
(
1.10185
1.10185
0.129485
0.114734
0.0415043
1.30943
0.13401
0.13401
0.0420721
0.0410212
0.0823081
0.0823081
0.0504672
0.158858
0.270871
1.19332
0.482482
0.0387223
0.0425991
0.173598
0.135777
0.0357441
0.0357441
0.336752
0.135777
0.040871
0.668329
0.0453726
0.668329
0.958134
0.660052
0.0492741
0.050227
0.0474834
0.0469862
0.114734
0.482482
0.0833369
0.968217
0.104563
0.104563
0.055267
)
;
    }
    procBoundary2to1
    {
        type            processor;
        value           uniform 0.248511;
    }
    procBoundary2to3
    {
        type            processor;
        value           nonuniform List<scalar> 
29
(
0.0613701
0.0726504
0.0291138
0.0251419
0.347065
0.0702892
0.0193302
0.0815966
0.0651496
0.0579312
0.0833004
0.333936
0.0478314
0.0506272
0.0493949
0.0398537
0.0696944
0.0696944
0.0726504
0.0506272
0.0519493
0.0671705
0.0264324
0.0674855
0.0427529
0.0543232
0.0651496
0.315892
0.333936
)
;
    }
}


// ************************************************************************* //
