/*--------------------------------*- C++ -*----------------------------------*\
| =========                 |                                                 |
| \\      /  F ield         | OpenFOAM: The Open Source CFD Toolbox           |
|  \\    /   O peration     | Version:  v1912                                 |
|   \\  /    A nd           | Website:  www.openfoam.com                      |
|    \\/     M anipulation  |                                                 |
\*---------------------------------------------------------------------------*/
FoamFile
{
    version     2.0;
    format      ascii;
    class       volScalarField;
    location    "0.98";
    object      nut;
}
// * * * * * * * * * * * * * * * * * * * * * * * * * * * * * * * * * * * * * //

dimensions      [0 2 -1 0 0 0 0];


internalField   nonuniform List<scalar> 
1466
(
0.000578523
0.00117103
0.00203448
0.000614787
0.000811579
0.00114946
0.00070542
0.00106833
0.00297194
0.000500216
0.000548779
0.00159131
0.000103545
0.000397168
0.00080472
0.000317496
0.000267708
0.000356975
0.00155021
0.000430983
0.0016745
0.00100031
0.000184706
0.0014163
0.000435717
0.00337245
0.00441217
0.00107508
0.000286755
0.000309925
0.00108269
0.00153486
0.00144099
0.000689974
0.00029868
0.000898435
0.000471287
0.000765957
0.00320511
0.000932833
0.00156966
0.000591669
0.00184763
0.00121207
0.00153373
0.00125976
0.00118851
0.000291903
0.000579875
0.0017111
0.00316844
0.000194892
0.000463493
0.000893331
0.000271973
0.00151437
0.000530506
0.00355606
0.00041676
0.00153498
0.000438858
0.000301741
0.000752232
0.00117376
0.00114809
0.000903081
0.0015485
0.00160331
0.000381662
0.000591953
0.00312794
0.000658907
0.000503445
0.00102642
0.000164065
0.00126178
0.00084461
0.00055136
0.000742178
0.00179913
0.00178229
0.00106413
0.00104372
0.000636407
0.000585873
0.00175238
0.000598989
0.00121534
0.00110277
0.00127071
0.000933507
0.000282778
0.00234593
0.000340029
0.00300849
0.00134952
0.00102327
0.000543938
0.00204971
0.000923523
0.000369585
0.00117899
0.00127426
0.00042795
0.00117723
0.00175619
0.00145977
0.00113258
0.00195386
0.000512124
0.000349173
0.00115096
0.000765896
0.00083359
0.000121511
0.00554276
0.000238447
0.000322567
0.00163046
0.00377405
0.00122359
0.000501084
0.000184328
0.001251
0.00103617
0.0024196
0.0005877
0.000891548
0.00240579
0.00367181
0.00100389
0.000717838
0.000914644
0.00161738
0.00338872
0.00202209
0.000675545
0.000734898
0.00149955
0.00039903
0.000230318
0.000271943
0.00270617
0.00308451
0.00153051
0.000237619
0.000333429
0.00207818
0.00174225
0.000538502
0.00238782
0.000704175
0.000910011
0.00112648
0.00110043
0.00473933
0.000520107
0.00103672
0.00291621
0.00179425
0.00129292
0.00094334
0.00087888
0.00129879
0.00102617
0.00223725
0.00263515
0.000153235
0.000690152
0.00435406
0.00144439
0.00176736
0.000621515
0.00172743
0.00331441
0.00123222
0.000869228
0.00186412
0.000706143
0.00210677
0.000517887
0.00140489
0.00123841
0.000950679
0.00127131
0.000342688
0.00132334
0.00488725
0.00105066
0.000413816
0.000295796
0.000181897
0.000963365
0.000966836
0.00133419
0.000642178
0.00146684
0.000594015
0.00053242
0.000449346
0.000890003
0.00231238
0.00118124
0.000752795
0.000691019
0.000726588
0.00140004
0.00045562
0.000750294
0.000649033
0.000696633
0.000750822
0.00266485
0.00114418
0.00194767
0.00119875
0.00175328
0.00013753
0.000382248
0.000873371
0.00380881
0.000585324
0.000448247
0.00124515
0.00172249
0.00137517
0.000402552
0.000445006
0.000681345
0.00284386
0.00102965
0.00111054
0.00115224
0.000502657
0.000927744
0.000659633
0.000728808
0.000593505
0.00106399
0.000501842
0.00292027
0.001274
0.00029984
0.000786306
0.000755578
0.000220021
0.000669745
0.000260273
0.000168504
0.00023628
0.00111702
0.0032342
0.000821437
0.0010452
0.00117866
0.00338651
0.000518906
0.00280787
0.00538803
0.000814124
0.00125548
0.00099684
0.00302373
0.00146279
0.00113297
0.000702193
0.00301535
0.000911599
0.00223551
0.000772164
0.00330325
0.000514475
0.000986661
0.000515032
0.000898703
0.000494694
0.000823606
0.00108452
0.00205014
0.000702325
0.000606191
0.000197856
0.000249934
0.0004496
0.00179635
0.000661915
0.00312086
0.000345394
0.00571512
0.000702413
0.00152397
0.00306653
0.0036034
0.00101494
0.00116631
0.00215377
0.00400647
0.00626711
0.00270477
0.000266884
0.0010698
0.000859563
0.000434158
0.00360387
0.000699501
0.00143637
0.00078694
0.00071878
0.000144151
0.00663627
0.00392149
0.00218017
0.00203059
0.00157833
0.000928045
0.00229898
0.000841901
0.00217302
0.00159468
0.000595041
0.0015316
0.00194559
0.00141843
0.000226147
0.000180461
0.000293194
0.00041259
0.000334277
0.000535966
0.000491351
0.000200925
0.000200644
0.000459141
0.000406322
0.000185441
0.000213209
0.000179225
0.00081852
0.000168848
0.00048727
0.000269221
0.000245857
0.000257703
0.000364278
0.000367905
0.000599517
0.000234736
0.000177348
0.000991949
0.00594942
0.00105375
0.00136581
0.000954055
0.000488159
0.000521188
0.00248214
0.000782963
0.000363318
0.0056443
0.00240475
0.00553001
0.00176576
0.00210822
0.000377005
0.000205201
0.000403097
0.000380825
0.000510612
0.000237082
0.000288153
0.000533619
0.000207077
0.000233726
0.000202786
0.000338539
0.000189673
0.000270919
0.00427237
0.000840485
0.000193287
0.000717623
0.00127879
0.00377981
0.00230194
0.00121898
0.00307802
0.000574752
0.00199233
0.00113126
0.00166099
0.00234069
0.00296291
0.00178438
0.00608928
0.000157434
0.000619225
0.00209072
0.00207783
0.00113929
0.000249008
0.000181488
0.00329988
0.00193335
0.00132426
0.00143533
0.00162797
0.00329562
0.00505875
0.00115312
0.000674442
0.00192389
0.00142146
0.000188801
0.000218733
0.00631471
0.0030858
0.00361733
0.00342493
0.00270006
0.00298201
0.0035636
0.000356955
0.00180036
0.00212996
0.00224341
0.00243239
0.00184013
0.00185475
0.00217698
0.00210367
0.000847114
0.00207621
0.00369854
0.00279374
0.00126652
0.0040497
0.00645188
0.0012352
0.00441013
0.0045305
0.000399705
0.00224942
0.00165681
0.00403612
0.00431686
0.00642983
0.00476279
0.00473067
0.00581751
0.00354519
0.00625492
0.00613655
0.00325036
0.00377288
0.00633585
0.00379871
0.00507157
0.00605136
0.000660214
0.00372763
0.00633072
0.00386592
0.0038872
0.00362384
0.00201581
0.000580995
0.00458945
0.00182149
0.000723729
0.000522804
0.00362648
0.00419264
0.00373521
0.00344764
0.00139991
0.00125255
0.000615124
0.000575804
0.00129856
0.00197344
0.000621827
0.00151612
0.0012565
0.00143924
0.00117511
0.00062445
0.00105957
0.00315276
0.000886779
0.00158473
0.000978132
0.000581769
0.00122431
0.00334508
0.000286677
0.00115978
0.0019238
0.00580296
0.000508919
0.000458087
0.000707952
0.00134143
0.000214919
0.00124192
0.00353188
0.00230108
0.00156053
0.0039992
0.00333218
0.00411894
0.00436175
0.000751367
0.00420504
0.00391096
0.0030246
0.00396613
0.000622138
0.0014029
0.00371435
0.00371572
0.0038354
0.00629781
0.00277384
0.00118336
0.000895204
0.0015742
0.00248059
0.0028834
0.000271193
0.00378237
0.00156508
0.0023073
0.00372226
0.00346708
0.00385952
0.00471091
0.00130569
0.00426242
0.00173578
0.000991387
0.0045677
0.00620899
0.005084
0.00566028
0.003794
0.00280924
0.00036008
0.00608922
0.00637464
0.000752703
0.00150074
0.000913306
0.00541653
0.00304358
0.00248368
0.00552157
0.000841238
0.00197865
0.0038402
0.00485927
0.000956856
0.00150506
0.0026177
0.00587738
0.00150289
0.0015962
0.00153223
0.000653398
0.00348502
0.00605036
0.000525991
0.00530043
0.00331284
0.00148667
0.00218251
0.00323763
0.000494249
0.00378163
0.00357248
0.0032105
0.00165402
0.000640352
0.00354753
0.00227655
0.0011049
0.00657152
0.00120644
0.00150769
0.00602806
0.0028097
0.000175847
0.000253926
0.00160077
0.00201145
0.000680393
0.00154736
0.00176579
0.00215625
0.00622706
0.0025565
0.00604675
0.000781356
0.00160699
0.00188996
0.0033341
0.00310964
0.00374099
0.001439
0.00610419
0.00593749
0.00216992
0.002028
0.0026348
0.00478357
0.000426889
0.00415014
0.00606002
0.000388945
0.00508684
0.000753452
0.00149299
0.00153963
0.000524342
0.00141264
0.00150033
0.00331353
0.00043414
0.000714466
0.0015989
0.00538834
0.00290187
0.00591703
0.0025495
0.000197296
0.00187426
0.0019337
0.00195962
0.00600228
0.000729569
0.00161063
0.00157485
0.00500819
0.00054317
0.00474192
0.003295
0.00117905
0.0025159
0.00584172
0.00487757
0.00147094
0.000657403
0.00585639
0.00167048
0.00630056
0.00320636
0.00225097
0.00186382
0.00206506
0.00130835
0.00277361
0.000296876
0.00621046
0.00140936
0.000573538
0.00194668
0.00538052
0.00298135
0.00147528
0.00590293
0.00150782
0.00112104
0.000894124
0.000311321
0.00237099
0.00017623
0.000240743
0.00251356
0.00592613
0.00139404
0.00153371
0.000688494
0.00141527
0.000182557
0.00195094
0.000515153
0.00301221
0.000538666
0.0013723
0.00036368
0.00104753
0.00110143
0.000947346
0.00448346
0.00287377
0.00167839
0.000653478
0.000912136
0.00156659
0.00156954
0.00309454
0.00367953
0.00159849
0.00131771
0.00586897
0.00271958
0.000834373
0.00340554
0.00526347
0.00335347
0.000740872
0.0015523
0.000245337
0.000999787
0.000785206
0.00159691
0.000607231
0.00123677
0.00600368
0.000798507
0.00497052
0.00299555
0.00387643
0.00144989
0.00269422
0.00603491
0.0016313
0.00324275
0.000578503
0.00524865
0.00130636
0.00297048
0.000544019
0.00209309
8.89481e-05
9.74068e-05
0.00492043
8.96836e-05
0.000122715
0.000831716
0.00600695
0.000263279
9.39495e-05
0.00012021
0.000142324
0.000279943
0.0017239
0.000148703
0.00113979
0.00207214
0.00104447
0.00231911
0.000138304
0.000464207
0.00203875
0.00293838
0.00151987
0.00590604
0.00290231
0.00195733
0.000490263
0.000121658
0.000714419
0.00172412
0.000431751
0.00114121
0.00218275
0.0019394
0.000129936
0.00215221
0.00202624
0.00310324
0.00207573
0.000512016
0.000218248
0.00172779
0.0015512
0.000612174
0.00094523
0.000654664
0.00144728
0.00312608
0.00571479
0.000127587
0.000162766
0.00194992
0.000711365
0.00135903
0.00139275
0.00371501
0.000159778
0.00100257
0.00136427
0.000680299
0.000559962
0.00105344
0.00275661
0.0042941
0.000685164
0.00172931
0.000211043
0.00036097
0.0028187
0.00137728
0.00209855
0.0016074
0.000374647
0.00519263
0.000896222
0.00126586
0.00317844
0.00448997
0.000231926
0.00106633
0.00540659
0.000529598
0.00121843
0.000418268
0.000361698
0.000943629
0.00169119
0.0033519
0.00123737
0.00359817
0.00345894
0.000169118
0.000171533
0.00158989
0.00170031
0.00126189
0.00246817
0.000673884
0.00264363
0.000961088
0.000640535
0.00117185
0.000611284
0.00255269
0.00188508
0.000344768
0.000210252
0.000345803
0.00152847
0.00158868
0.00299814
0.000304577
0.00387518
0.00120462
0.00123888
0.00315551
0.00374678
0.00619157
0.00173608
0.00277303
0.00610225
0.000165103
0.00359213
0.00359282
0.000302787
0.00194959
0.00011455
0.00163459
0.000313421
0.00271175
0.00120541
0.00147816
0.000831991
0.000435579
0.000866644
0.00335835
0.000620146
0.00136555
0.000233973
0.00554376
0.0011101
0.0019466
0.00172798
0.00111494
0.00107812
0.00404296
0.00345664
0.00106132
0.00284086
0.00452831
0.00160321
0.000481373
0.00190221
0.00106737
0.00223743
0.003319
0.00104959
0.00154983
0.00171421
0.000425554
0.000503627
0.00137216
0.00405396
0.00423409
0.00446672
0.00495036
0.000776807
0.00114797
0.00146624
0.00150352
0.00369913
0.00340032
0.000215106
0.00172097
0.000848079
0.0013259
0.00133487
0.000603197
0.00196269
0.0027239
0.000160551
0.00181986
0.000102734
0.00132314
0.00112128
0.00112543
0.000724601
0.000849771
0.00124137
0.00367578
0.000862983
0.00590841
0.000582378
0.0015466
0.00293202
0.00192392
0.00298347
0.00120594
0.000982705
0.00054487
0.0032071
0.000133505
0.00478387
0.00171669
0.00288489
0.00099579
0.00012998
0.000130868
0.000119644
0.000128179
0.000274071
0.000243535
0.000282556
0.000266926
0.000126461
0.000247327
0.000254258
0.000120781
0.000111283
0.000100007
0.00147507
9.33573e-05
9.77e-05
0.00155748
0.000214207
0.00162112
0.000167804
0.000273091
0.0042579
0.00351052
0.000509217
0.000447549
0.00040918
0.00541738
0.000347392
0.00289737
0.00111515
0.000215352
0.00268731
0.000193807
0.00273331
0.00381613
0.00019191
0.00140095
0.000843693
0.000289551
0.000380971
0.00570202
0.0020207
0.00451606
0.00473971
0.00167036
0.00297423
0.000464037
0.00080135
0.000588715
0.00374385
0.00159597
0.00098828
0.000241498
0.000293434
0.00506283
0.00287644
0.000124251
0.00629216
0.00437571
0.00355312
0.000263658
0.000285393
0.00230768
0.00134986
0.00141957
0.000399225
0.000405515
0.00163539
0.00054195
0.000194581
0.00124307
0.000130112
0.000184509
0.00221852
0.000487205
0.00103048
0.00126437
0.000831391
0.000431585
0.00228023
0.000906227
0.000417777
0.00067297
0.000336755
0.000913465
0.00135232
0.00168698
0.000658064
0.000798135
0.00189851
0.00171695
0.00143344
0.00561087
0.000185659
0.000126256
0.00255555
0.00245418
0.00015103
0.00135743
0.00175753
0.00389177
0.00013475
0.00162307
0.000777352
0.000571598
0.00263841
0.00108647
0.000117269
0.00349098
0.00115327
0.000797841
0.0017693
0.00419364
0.00504981
0.000107851
0.00330738
0.00390121
0.0035989
0.00162654
0.000428021
0.00390317
0.000768952
0.000698773
0.000104892
0.000875933
0.000700406
0.000544303
0.00589209
0.00103439
0.00153391
0.000442989
0.000199427
0.000937002
0.000792399
0.00540477
0.00131427
0.00136506
0.000715643
0.00171412
0.000612543
0.00175681
0.000204741
0.000169295
0.00521505
0.0010379
0.00155689
0.00496886
0.00157758
0.0025038
0.000780945
0.00526462
0.00181614
0.00109831
0.00548131
0.000156776
0.000191981
0.00166864
0.00508711
0.00151698
0.00118643
0.000224931
0.000172876
0.00151632
0.00324643
0.00138991
0.000367335
0.000103613
0.000147351
0.000942326
0.000171878
0.00475451
0.00302623
0.00170568
0.000477565
0.00486452
0.000121406
0.000508042
0.000616564
0.000546721
0.000860063
0.000169883
0.00036118
0.00366232
0.00110942
0.000167129
0.000499746
0.000319412
0.0026665
0.000189626
0.00435921
0.00166098
0.000343299
0.000933228
0.00314073
0.00132333
0.000378688
0.00368095
0.000106493
0.00531023
0.00367586
0.000149889
0.000483514
0.00153607
0.000671244
0.000912123
0.00129337
0.000102734
0.00150067
0.00363205
0.000254121
0.000745646
0.00013165
0.000528134
0.000423154
0.000166223
0.00379696
0.000155111
0.00206284
0.000335834
0.00109115
0.00269033
0.00310098
0.00424635
0.0001979
0.00381155
0.00117601
0.000215386
0.000367789
0.000830148
0.0018447
9.1771e-05
0.0013183
0.00487157
0.000986991
0.000122031
0.00108816
0.00161775
0.00184557
0.00050684
0.00382518
0.000279311
0.000979666
0.000510868
0.000541019
0.000136291
0.00041298
0.00356706
0.00130374
0.00293346
0.00148954
0.00140029
0.00122738
0.000476703
0.000118803
0.000635073
0.00601691
0.00291487
0.003145
0.000369082
0.00261428
0.000859245
0.00481758
0.00140718
0.00163352
0.00122692
0.000798442
0.00048012
0.00600453
0.00453686
0.0049642
0.00046747
0.00155765
0.00384369
0.00152554
0.00554305
0.000895495
0.00306028
0.0034221
0.00255264
0.000170522
0.000954672
0.00104876
0.0015566
0.00142458
0.00433979
0.000480255
9.5224e-05
0.00651238
0.00445576
0.000670984
0.0010519
0.000809463
0.000289827
0.000584821
0.000365157
0.00391316
0.00261543
0.000654655
0.000949709
0.000686839
0.00190342
0.00109259
0.00580954
0.00610911
0.00307933
0.00603177
0.00127174
0.000650091
0.00274586
0.00157157
0.00224201
0.00420451
0.00313892
0.00215998
0.00362049
0.000563323
0.00276132
0.000573501
0.00379426
0.00333003
0.000540667
0.000329469
0.00129316
0.000840065
0.00308575
0.00059544
0.00079135
0.00125876
0.000190384
9.80229e-05
0.000615976
0.00304231
0.000776942
0.000345313
0.00672636
0.00458548
0.00402911
0.000377756
0.000967461
0.000689302
0.00338705
0.00177909
0.00123807
0.00302273
0.00109257
0.000676461
0.00273914
0.00220902
0.00116313
0.00112905
0.00099584
0.00655919
0.0038274
0.00102602
0.00561967
0.00557408
0.00334725
0.000109576
0.00348851
0.000196391
0.00302614
0.00261724
0.00015171
0.000374044
0.00453529
0.00254002
0.00287956
0.00150211
8.26062e-05
0.00323425
0.00148909
0.000987214
0.000384232
0.000119806
0.000567169
0.00369238
0.000927776
0.000590724
0.00249709
0.00559302
0.00217661
0.000686452
0.00275651
0.000779674
0.00134264
0.00389147
0.00130815
0.00136932
0.00250338
0.000862586
0.000401372
0.00551958
0.000650438
0.000741422
0.00254459
0.000100523
0.00141576
0.000886394
0.000754478
0.000967739
0.00165364
0.00528019
0.000100406
0.000752689
0.000765798
0.00017005
0.000750165
0.00245528
0.00101999
0.000725272
0.00348337
0.000562427
0.0027954
0.000785461
0.000757554
0.003575
0.00379587
0.00180153
0.00396773
0.000550836
0.000502518
0.000780186
0.000380745
0.00117246
0.000473705
0.00156203
0.00319467
0.00342884
0.00515971
0.000105289
0.00173242
0.000763759
0.00128815
0.000693533
0.000165916
0.000748123
0.000176136
0.00330284
0.00111286
0.000549697
0.000535893
0.000628515
0.000665937
0.00159225
0.00172516
0.000340245
0.000849389
0.00111383
0.00119575
0.000740609
0.00048318
0.00120654
0.000786404
0.0031082
0.00176657
0.000268959
0.00130339
0.000535323
0.00227261
0.000382759
0.00138745
0.00143794
0.0054182
0.000838979
0.000760678
0.0017068
0.000235197
0.000266549
0.000931695
0.000597452
0.0003048
0.000518664
0.0017755
0.00178234
0.00123703
0.000403988
0.000621496
0.000969717
0.00643181
0.0037427
0.00167231
0.00129932
0.000625944
0.000716618
0.000398401
0.00294604
0.0026342
0.000387435
0.0013745
0.000672067
0.00120635
0.000946066
0.000676221
0.000553871
0.000770428
0.00136799
0.00121077
0.000244149
0.00272669
0.000897977
0.00140556
0.000963794
0.000439768
0.00247245
0.00281038
0.00201117
0.000614427
0.000768004
0.000643515
0.00263746
0.000519604
0.000203759
0.00387536
0.0049971
0.00500868
0.000483371
0.000733027
0.00415123
0.00175299
0.00102574
0.000332587
0.000505114
0.00059395
0.000291231
0.000358251
0.000266191
)
;

boundaryField
{
    frontAndBack
    {
        type            empty;
    }
    wallOuter
    {
        type            nutkWallFunction;
        Cmu             0.09;
        kappa           0.41;
        E               9.8;
        value           nonuniform List<scalar> 
102
(
8.80139e-06
8.80139e-06
2.05994e-05
1.7401e-05
1.14261e-05
1.48044e-05
1.67409e-05
1.99877e-05
6.66181e-06
7.88947e-06
6.81371e-06
1.15911e-05
7.49592e-06
1.12333e-05
1.43067e-05
3.30532e-05
1.55382e-05
1.41263e-05
1.17032e-05
1.29162e-05
2.49199e-05
1.23747e-05
1.75361e-05
2.36388e-05
4.33864e-05
1.83902e-05
1.87575e-05
1.75819e-05
1.06526e-05
1.72545e-05
8.86659e-06
1.26245e-05
1.27638e-05
1.11188e-05
1.23708e-05
3.23173e-05
2.8289e-05
3.34351e-05
3.1406e-05
1.21126e-05
2.88319e-05
2.97549e-05
1.12694e-05
9.86869e-06
8.27183e-06
7.42182e-06
8.13914e-06
1.80527e-05
3.22366e-05
2.47482e-05
2.12211e-05
2.16521e-05
3.43908e-05
2.81731e-05
3.49041e-05
1.13715e-05
3.10518e-05
3.38711e-05
1.29916e-05
1.97433e-05
2.0755e-05
1.57001e-05
1.3395e-05
1.07976e-05
9.63318e-06
9.17105e-06
2.26159e-05
2.33939e-05
1.85047e-05
2.08786e-05
2.51278e-05
1.89678e-05
8.95066e-06
1.54122e-05
1.89584e-05
1.17983e-05
1.82952e-05
1.80413e-05
2.12499e-05
9.57187e-06
1.58783e-05
8.7601e-06
1.80646e-05
1.65034e-05
2.23975e-05
6.97417e-06
1.18552e-05
1.37759e-05
1.14294e-05
7.74243e-06
2.11276e-05
7.91745e-06
9.67535e-06
1.57957e-05
5.66977e-06
1.15714e-05
8.51761e-06
8.0306e-06
1.84864e-05
9.0775e-06
1.78328e-05
1.94492e-05
)
;
    }
    inlet
    {
        type            calculated;
        value           nonuniform 0();
    }
    outlet
    {
        type            calculated;
        value           nonuniform 0();
    }
    wallInner
    {
        type            nutkWallFunction;
        Cmu             0.09;
        kappa           0.41;
        E               9.8;
        value           nonuniform List<scalar> 
138
(
6.70965e-05
3.13416e-05
3.39447e-05
3.71683e-05
2.20481e-05
5.54467e-05
0.000106372
3.22691e-05
3.61307e-05
3.35457e-05
4.44159e-05
5.1625e-05
2.05293e-05
2.66465e-05
3.21492e-05
2.74532e-05
3.97663e-05
1.59149e-05
4.99337e-05
3.51587e-05
1.99196e-05
1.38584e-05
3.57387e-05
2.52464e-05
8.13025e-05
3.06135e-05
1.82089e-05
2.743e-05
0.000133222
2.22402e-05
2.92473e-05
4.15582e-05
2.61718e-05
1.98801e-05
3.48232e-05
4.99757e-05
4.01723e-05
6.50821e-05
5.99989e-05
2.26077e-05
2.28461e-05
5.56842e-05
4.93586e-05
2.05694e-05
2.44443e-05
1.85993e-05
9.85354e-05
1.82219e-05
5.95552e-05
3.18487e-05
2.90297e-05
3.01069e-05
4.39913e-05
4.4438e-05
7.30506e-05
2.72442e-05
1.93433e-05
4.35479e-05
4.56225e-05
2.30366e-05
4.88286e-05
4.60444e-05
6.19513e-05
2.80355e-05
3.42776e-05
6.51797e-05
2.23639e-05
2.70918e-05
2.30755e-05
4.08598e-05
2.11237e-05
3.18956e-05
2.12738e-05
2.79425e-05
1.99535e-05
2.09403e-05
2.49989e-05
4.18335e-05
0.000147703
4.91079e-05
7.99062e-05
7.12544e-05
6.31586e-05
7.43827e-05
6.9623e-05
3.3836e-05
6.25934e-05
5.63703e-05
2.42853e-05
0.000138571
0.000106419
3.10822e-05
4.3477e-05
6.0288e-05
1.91116e-05
2.97436e-05
6.20675e-05
2.21764e-05
6.83963e-05
1.92312e-05
2.80595e-05
4.38103e-05
2.83875e-05
0.000100008
3.0987e-05
6.03565e-05
1.69948e-05
4.50993e-05
2.64663e-05
4.36318e-05
7.77695e-05
2.40516e-05
4.05014e-05
3.6144e-05
2.70991e-05
2.45269e-05
1.32928e-05
2.40042e-05
4.93333e-05
2.18011e-05
8.08031e-05
4.06537e-05
1.23097e-05
7.44459e-05
1.6448e-05
4.36072e-05
2.99267e-05
1.30527e-05
2.45363e-05
3.31873e-05
1.82921e-05
3.14249e-05
0.000121246
3.99231e-05
6.97514e-05
3.44519e-05
4.31393e-05
3.12016e-05
)
;
    }
    procBoundary2to0
    {
        type            processor;
        value           nonuniform List<scalar> 
42
(
0.00695769
0.00695769
0.00102699
0.000811988
0.000994772
0.00659451
0.00107839
0.00107839
0.000982263
0.000690456
0.00139203
0.00139203
0.00102483
0.00251329
0.0039109
0.00532935
0.00549982
0.000601811
0.000844313
0.00149273
0.000983123
0.000568267
0.000568267
0.00093236
0.000983123
0.000546298
0.00207928
0.000574538
0.00207928
0.00691521
0.00624387
0.000638944
0.000710839
0.000736458
0.000708612
0.000811988
0.00549982
0.000324112
0.00372696
0.000952638
0.000952638
0.000713844
)
;
    }
    procBoundary2to1
    {
        type            processor;
        value           uniform 0.00190128;
    }
    procBoundary2to3
    {
        type            processor;
        value           nonuniform List<scalar> 
29
(
0.000941093
0.00110314
0.000279725
0.00021401
0.00103092
0.00047198
0.000235573
0.00100654
0.00153602
0.00122182
0.000726678
0.00122298
0.00037223
0.00146988
0.00141671
0.000974276
0.00177735
0.00177735
0.00110314
0.00146988
0.00158518
0.00166417
0.000180476
0.00167713
0.000920775
0.00110324
0.00153602
0.00182427
0.00122298
)
;
    }
}


// ************************************************************************* //
