/*--------------------------------*- C++ -*----------------------------------*\
| =========                 |                                                 |
| \\      /  F ield         | OpenFOAM: The Open Source CFD Toolbox           |
|  \\    /   O peration     | Version:  v1912                                 |
|   \\  /    A nd           | Website:  www.openfoam.com                      |
|    \\/     M anipulation  |                                                 |
\*---------------------------------------------------------------------------*/
FoamFile
{
    version     2.0;
    format      ascii;
    class       volScalarField;
    location    "0.25";
    object      k;
}
// * * * * * * * * * * * * * * * * * * * * * * * * * * * * * * * * * * * * * //

dimensions      [0 2 -2 0 0 0 0];


internalField   nonuniform List<scalar> 
1466
(
0.0714267
0.158599
0.0623591
0.0868301
0.166943
1.01789
0.179346
0.122942
0.490747
0.2828
0.0614562
0.305137
0.0114103
0.106241
0.0802663
0.164788
0.0180097
0.116188
0.29501
0.0955032
0.0580831
0.191031
0.231327
0.132228
0.106244
0.0562751
0.0928952
0.312366
0.156384
0.0998421
0.120935
0.995764
0.299673
0.0966916
0.128479
0.0623163
0.0549978
0.0377543
0.908579
0.230865
0.30061
0.102085
0.436913
0.123134
0.500655
0.218015
0.0408665
0.106285
0.0826311
0.0512687
0.0621836
0.255905
0.123337
0.892227
0.178425
0.265948
0.0456045
0.151509
0.0334194
0.249672
0.145931
0.0914227
0.129655
1.03155
0.209185
0.100077
0.271081
0.0652119
0.0727635
0.216344
0.032548
0.0826714
0.0340966
0.0890132
0.0206962
0.594466
0.0920627
0.0972831
0.205203
0.235287
0.0376233
0.0906756
0.0689962
0.0683365
0.0308236
0.0420918
0.0295529
0.26802
0.0826721
0.108944
0.0839772
0.0302683
0.204529
0.0768814
0.0656872
0.0478384
0.142362
0.0591487
0.111868
0.0876997
0.142819
0.396141
0.0716669
0.130704
0.0535596
0.267779
0.0704081
0.0639329
0.096999
0.106863
0.0253531
0.0430505
0.187848
0.0360735
0.0152031
0.379838
0.0852595
0.096635
0.107476
0.272277
0.0627227
0.0866398
0.0578027
0.255511
0.0871087
0.0988729
0.0827786
0.110278
0.194589
0.418167
0.0467141
0.0935994
0.111811
0.2803
0.0480735
0.21304
0.136863
0.0299502
0.505852
0.0907718
0.212058
0.0326015
0.165884
0.173782
0.510496
0.0845394
0.134289
0.11004
0.221482
0.0320383
0.163504
0.11938
0.112452
0.164951
0.0852592
0.0528971
0.0837723
0.301387
0.0398104
0.110695
0.437356
0.0968886
0.252085
0.0546676
0.341423
0.195122
0.492456
0.0870888
0.105347
0.165191
0.0393972
0.0396447
0.107047
0.169041
0.0878509
0.188643
0.286426
0.225587
0.0883673
0.21449
0.0955695
0.0548858
0.0529873
0.0911938
0.23141
0.098727
0.0612766
0.340152
0.0611592
0.113316
0.177791
0.0897882
0.0979122
0.227383
0.0496198
0.0865422
0.494437
0.11026
0.0882494
0.0931462
0.231533
0.0389834
0.0586226
0.101852
0.140508
0.140953
0.0589411
0.127868
0.0672796
0.125061
0.133729
0.307319
0.03756
0.0346355
0.108504
0.0616119
0.070816
0.0333073
0.100675
0.0806332
0.421581
0.0846749
0.11608
0.0389229
0.140523
0.0387822
0.0898628
0.165536
0.069166
0.560347
0.0324693
0.249786
0.0872898
0.0344943
0.0739811
0.143227
0.0360564
0.109797
0.0381564
0.118216
0.548171
0.0399144
0.0287753
0.172259
0.23487
0.0426979
0.03059
0.0356716
0.0371814
0.0425488
0.0872615
0.329662
0.100063
0.210211
0.0870583
0.294348
0.078673
0.479251
0.316593
0.636712
0.0345315
0.0346901
0.348628
0.111069
0.890612
0.0893309
0.356275
0.154164
0.0435366
0.0812839
0.250889
0.0924467
0.032101
0.0763756
0.0347151
0.042932
0.199775
0.097102
0.109449
0.186355
0.127544
0.040453
0.0399091
0.0600048
0.0705777
0.029441
0.0666374
0.0285742
0.469489
0.0948209
0.0374864
0.270266
0.12984
0.565526
0.0888989
0.0390825
0.338745
0.204236
0.0410845
0.0815397
0.02622
0.309352
0.103073
0.115527
0.11374
0.0780048
0.054725
0.0421211
0.0302814
0.414381
0.571242
0.0610264
0.0389237
0.22543
0.0673677
0.0410899
0.194023
0.0535649
0.369913
0.0936262
0.0421374
0.198713
0.0529948
0.0768236
0.049086
0.0472996
0.0215938
0.0359792
0.0236653
0.0467859
0.0316077
0.0685635
0.0214707
0.062588
0.0414603
0.075552
0.0170072
0.0593252
0.216775
0.0291953
0.0699906
0.0592747
0.0415681
0.0281994
0.049492
0.0193222
0.172587
0.0284065
0.0328135
0.395628
0.140537
0.0343558
0.195867
0.0407408
0.0396867
0.0377719
0.264521
0.152274
0.499517
0.0464432
0.499721
0.232732
0.174918
0.0664076
0.152479
0.050534
0.0232802
0.0219022
0.0468507
0.131009
0.0194826
0.0215951
0.200196
0.0733455
0.0557279
0.0307894
0.044509
0.195351
0.0320953
0.0213239
0.0295652
0.169071
0.165268
0.0535354
0.138055
0.0711912
0.0290102
0.0445669
0.0353032
0.0475768
0.0607245
0.472304
0.132402
0.242098
0.0451389
0.0754289
0.144122
0.0355179
0.0495837
0.0155166
0.247204
0.036048
0.133843
0.0339397
0.314102
0.0840366
0.196337
0.443534
0.0725904
0.110005
0.0555061
0.140388
0.021948
0.15027
0.381095
0.138659
0.20221
0.387067
0.0525952
0.086632
0.333796
0.0269241
0.194525
0.283273
0.21308
0.25107
0.374809
0.25295
0.230039
0.227597
0.101039
0.0521193
0.214239
0.28972
0.167207
0.224708
0.359659
0.125269
0.493684
0.525534
0.414299
0.039754
0.385581
0.31205
0.585552
0.370487
0.429354
0.41499
0.176035
0.424333
0.182959
0.426074
0.18116
0.275195
0.338608
0.367916
0.422286
0.408355
0.0901616
0.412007
0.354586
0.219865
0.246887
0.350921
0.406064
0.353054
0.25698
0.0627456
0.0971816
0.0399498
0.309175
0.41364
0.344653
0.256861
1.01812
0.169618
0.0570172
0.0484873
0.230304
1.0062
0.114768
0.071595
0.980458
0.0840066
0.155967
0.123102
0.0740646
0.0577639
0.97702
0.353993
0.184885
0.10145
0.0772179
0.0465626
0.180521
0.300719
0.941699
0.344473
0.372954
0.392409
0.0720389
0.0689549
0.164323
0.134082
0.0382558
0.139965
0.339492
0.443124
0.462148
0.545982
0.417414
0.291145
0.49861
0.345092
0.151105
0.553499
0.0654067
0.0697635
0.283495
0.285268
0.245264
0.343383
0.41099
0.136509
0.109961
0.0566166
0.409962
0.412705
0.0321219
0.040501
0.0943242
0.161412
0.498887
0.497957
0.248864
0.356351
0.437381
0.332957
0.0458923
0.0441378
0.346519
0.314912
0.416537
0.328432
0.558379
0.118481
0.0334606
0.338164
0.322541
0.0505677
0.070761
0.0545458
0.304721
0.203663
0.183133
0.414648
0.136501
0.0479515
0.216808
0.482846
0.0416193
0.0381789
0.199298
0.3858
0.333878
0.221414
0.045454
0.154386
0.531437
0.295879
0.0601608
0.412382
0.486711
0.493076
0.1037
0.423175
0.348449
0.0352261
0.526481
0.427767
0.0443515
0.120299
0.186803
0.141539
0.043758
0.202017
0.346347
0.0716822
0.201671
0.550035
0.0719093
0.0792347
0.369074
0.063369
0.0482503
0.0691262
0.221844
0.16957
0.290312
0.155375
0.180249
0.0466694
0.0724074
0.0610893
0.0388169
0.287288
0.205188
0.0445712
0.431251
0.28959
0.199436
0.202127
0.482916
0.354032
0.0801257
0.0362948
0.391254
0.122119
0.480029
0.0536602
0.0720011
0.0496968
0.417979
0.129703
0.0696102
0.421957
0.0330128
0.142166
0.0555724
0.233681
0.383739
0.363205
0.0618131
0.073923
0.179364
0.201647
0.154876
0.283957
0.0445149
0.0697546
0.0594813
0.360939
0.0496453
0.543753
0.0378844
0.392587
0.0594794
0.437309
0.364068
0.0608274
0.13029
0.192388
0.179427
0.375893
0.0587638
0.503458
0.494723
0.148332
0.0597183
0.0577973
0.169994
0.287074
0.47138
0.434326
0.498859
0.268383
0.411564
0.0341647
0.226408
0.0836757
0.0579323
0.0894011
0.0231744
0.0603923
0.0572801
0.0776535
0.660221
0.248446
0.0685967
0.0623256
0.0544973
0.0694283
0.0213627
0.0601345
0.0522017
0.0354118
0.222387
0.0384972
0.0288041
0.358328
0.0851438
0.0577148
0.467222
0.0436829
0.284879
0.0670417
0.247508
0.0342812
0.0543551
0.182968
0.482279
0.0619686
0.188074
0.354319
0.129571
0.0844491
0.209547
0.203247
0.484505
0.0452832
0.0698297
0.0380016
0.442794
0.0466305
0.07311
0.0977645
0.237742
0.240826
0.0605489
0.120571
0.161748
0.235977
0.0767498
0.196953
0.444432
0.0366046
0.172873
0.133377
0.41713
0.481162
0.480438
0.118115
0.0779222
0.0190508
0.0188686
0.549211
0.0197262
0.0191066
0.0900377
0.170557
0.0693379
0.0210978
0.0194268
0.0559965
0.179996
0.0422652
0.0665152
0.0700596
0.409408
0.343018
0.0682371
0.0824
0.0472437
0.130728
0.196913
0.1186
0.375078
0.522966
0.102397
0.0701345
0.0434578
0.0908897
0.0744532
0.101719
0.0877344
0.474396
0.274849
0.0600394
0.0725302
0.0549548
0.217662
0.908804
0.22192
0.0221092
0.125345
0.0343604
0.133213
0.295265
0.121528
0.374462
0.842333
0.361927
0.0190374
0.0610435
0.162759
0.0537176
0.0759277
0.0427233
0.357573
0.0840905
0.0998417
0.076209
0.071484
0.0951813
0.226238
0.534746
0.383333
0.035838
0.215012
0.0599839
0.203382
0.157186
0.0829989
0.0595198
0.0959247
0.0275328
0.442788
0.0463922
0.0705279
0.312662
0.607731
0.0341383
0.070475
0.470174
0.110957
0.395793
0.0717411
0.0310354
0.176265
0.44502
0.77899
0.0698884
0.281323
0.19586
0.0442947
0.0520138
0.102624
0.035704
0.0308568
0.0639417
0.0604607
0.0854188
0.0692925
0.0279696
0.0938908
0.0896776
0.373971
0.111417
0.090566
0.317347
0.0176156
0.0318387
0.368093
0.425422
0.0229867
0.214893
0.27639
0.304908
0.380013
0.205788
0.363825
0.0655649
0.176441
0.386848
0.0206933
0.0486025
0.106656
0.0268717
0.0934106
0.0335143
0.419879
0.0232946
0.238559
0.174132
0.0789165
0.050059
0.0702708
0.0725783
0.182801
0.063077
0.0976824
0.026972
0.501417
0.128755
0.0507007
0.0400448
0.0895533
0.259143
0.657369
0.353231
0.0957994
0.062455
0.155246
0.0745005
0.0697929
0.0545319
0.159292
0.447814
0.355588
0.175894
0.0398148
0.0421422
0.0553008
0.101468
0.0904846
0.371811
0.0396858
0.0509213
0.267634
0.234312
0.0850029
0.0958273
0.0525031
0.207799
0.202062
0.0183987
0.0459864
0.068914
0.333498
0.0675185
0.157477
0.0287088
0.553648
0.0642851
0.0875898
0.0432911
0.270273
0.0837056
0.306771
0.140739
0.164076
0.0886701
0.406075
0.305805
0.396251
0.105321
0.0641755
0.0409541
0.091556
0.13135
0.0890979
0.194232
0.0496638
0.403197
0.0302442
0.35421
0.0507764
0.405621
0.0674855
0.0405209
0.0402107
0.0442251
0.0413854
0.113285
0.128985
0.0990717
0.0893457
0.043432
0.083294
0.0834854
0.0467339
0.0489313
0.0499012
0.0874207
0.0489178
0.0468725
0.301669
0.0335723
0.32078
0.0238938
0.0830532
0.185732
0.102368
0.171969
0.0691447
0.0387755
0.413323
0.0732843
0.0608961
0.060132
0.0705095
0.148564
0.0622446
0.0440942
0.194966
0.0692693
0.0775705
0.0499921
0.0811993
0.149587
0.416968
0.421246
0.494417
0.565561
0.0618527
0.0584466
0.474675
0.143895
0.0666178
0.210574
0.123831
0.154071
0.0720524
0.0788673
0.525104
0.0348008
0.0607349
0.187132
0.414703
0.288621
0.0739301
0.0761262
0.215296
0.0631935
0.379596
0.120794
0.133503
0.15351
0.152011
0.0904137
0.0711387
0.0660174
0.0677896
0.119184
0.0293265
0.447464
0.0725253
0.0537831
0.0315779
0.636363
0.0495561
0.0788532
0.0923083
0.297606
0.151241
0.464062
0.209702
0.0853251
0.207462
1.04997
0.0567385
0.0671493
0.500967
0.175702
0.0807791
0.533762
0.266324
0.0212625
0.0356607
0.363575
0.68367
0.0201907
0.0557713
0.123103
0.0583016
0.15751
0.128669
0.0163826
0.242215
0.0699315
0.0809484
0.0513544
0.0372241
0.46323
0.0273594
0.096205
0.195939
0.0406283
0.0255556
0.4488
0.360101
0.089758
0.0611375
0.0379896
0.0646518
0.132507
0.0546421
0.297499
0.343738
0.425749
0.0295619
0.249266
0.0732444
0.134442
0.294561
0.0276951
0.479261
0.103476
0.0638213
0.135937
0.330033
0.0709627
0.151392
0.51049
0.0816414
0.436666
0.420471
0.379204
0.0602045
0.0565375
0.385247
0.203403
0.0302211
0.401501
0.104432
0.0647507
0.227482
0.0656608
0.212471
0.0520361
0.0668074
0.19655
0.0373015
0.414458
0.03708
0.0243365
0.0302385
0.111309
0.364846
0.0681613
0.0650935
0.171754
0.034737
0.0834371
0.426196
0.0631465
0.095458
0.195773
0.0624883
0.381973
0.0220316
0.0340064
0.29296
0.0673696
0.031481
0.027413
0.22505
0.0370088
0.248402
0.312006
0.0267999
0.321006
0.0321624
0.357816
0.0282773
0.284586
0.162738
0.0611399
0.165659
0.0356316
0.0671108
0.0431091
0.0311029
0.0357246
0.0571845
0.156524
0.023656
0.121667
0.216857
0.0198971
0.0742635
0.0811625
0.042104
0.144724
0.0783798
0.231062
0.0855157
0.0277243
0.395155
0.0850258
0.0606227
0.41465
0.438246
0.25007
0.232961
0.110522
0.0985911
0.155715
0.0659973
0.0290481
0.0586152
0.0898478
0.449231
0.0745334
0.0649126
0.138247
1.01844
0.104113
0.134729
0.278763
0.0220775
0.254042
0.0902702
0.127792
0.0601493
0.0599412
0.130533
0.142242
0.432866
0.141732
0.0862741
0.0338549
0.141704
0.0622145
0.0512872
0.275412
0.495252
0.408327
0.0437087
0.309359
0.0326421
0.04607
0.150424
0.0351707
0.0885278
0.126528
0.0358757
0.213313
0.0393939
0.41925
0.0378508
0.0563708
0.0376254
0.0948688
0.409838
0.0610551
0.191729
0.323162
0.187442
0.118256
0.282902
0.190309
0.133976
0.0342774
0.0386283
0.0838566
0.0599506
0.211328
0.45808
0.0941494
0.0532483
0.155641
0.0332579
0.117938
0.0894717
0.224908
0.0574736
0.0951133
0.093915
0.0594721
0.36346
0.0859366
0.423076
0.189103
0.420206
0.229579
0.0752664
0.0785652
0.0577855
0.0328584
0.433643
0.54716
0.0585217
0.23684
0.313501
0.169068
0.0351129
0.322307
0.261774
0.0435964
0.184665
0.0237719
0.069691
0.16612
0.239882
0.155589
0.0617548
0.2098
0.150264
0.0496455
0.0262058
0.43082
0.560883
0.0242682
0.249344
0.492974
0.577162
0.0284013
0.0447953
0.122554
0.0597954
0.436562
0.289638
0.435303
0.0872448
0.0575182
0.209809
0.163211
0.0822526
0.0816488
0.435226
0.313507
0.521645
0.0646166
0.523932
0.454476
0.229828
0.0170317
0.262167
0.134348
0.416998
0.224876
0.0213504
0.114182
0.0422958
0.244731
0.0671684
0.278326
0.0185749
0.0592608
0.408647
0.172497
0.113261
0.0639137
0.0292452
0.24665
0.0744722
0.303181
0.0336711
0.51489
0.0345987
0.244909
0.263056
0.0783434
0.189378
0.220795
0.08636
0.157419
0.0324108
0.377324
0.105586
0.457511
0.0468423
0.176741
0.291039
0.02345
0.0406284
0.076244
0.0466539
0.0841551
0.113314
0.202789
0.0581214
0.0721539
0.0615904
0.0373444
0.0337601
0.0424925
0.0835329
0.0505828
0.33052
0.118528
0.490564
0.0720586
0.0428412
0.376079
0.170973
0.467208
0.0372781
0.0611659
0.0555804
0.160249
0.0889852
0.0638916
0.0260868
0.111662
0.0607102
0.152447
0.178273
0.0194445
0.0377644
0.196328
0.0629783
0.129642
0.0268851
0.0331463
0.0739087
0.382675
0.0871473
0.0699866
0.0386959
0.0967778
0.12387
0.0356931
0.269246
0.165526
0.102194
0.349415
0.0342359
0.182446
0.0669685
0.198969
0.0818754
0.237365
0.036887
0.0225987
0.083507
0.107071
0.210889
0.0243489
0.29748
0.470349
0.408984
0.0589306
0.148593
0.24666
0.0225195
0.184577
0.0944728
0.0826936
0.167168
0.0935332
0.0915108
0.0384451
0.152165
0.154324
0.0333793
0.203433
0.24304
0.470068
1.04697
0.0829108
0.107435
0.0898214
0.0758686
0.272751
0.323585
0.159301
0.0720463
0.0736854
0.149921
0.0777949
0.0559771
0.107862
0.18342
0.087953
0.227731
0.086948
0.0781986
0.211519
0.150117
0.4335
0.124373
0.221162
0.230673
0.0626558
0.112425
0.280193
0.105019
0.032033
0.352043
0.0226802
0.208329
0.579035
0.520272
0.0898895
0.109839
0.548102
0.0604445
0.615974
0.0841204
0.0909715
0.310606
0.129658
0.176988
0.148807
)
;

boundaryField
{
    frontAndBack
    {
        type            empty;
    }
    wallOuter
    {
        type            kqRWallFunction;
        value           nonuniform List<scalar> 
102
(
0.0114103
0.0114103
0.231327
0.0206962
0.0152031
0.0302814
0.0451389
0.0213627
0.0190508
0.0188686
0.0197262
0.0191066
0.0210978
0.0194268
0.0559965
0.179996
0.0665152
0.0824
0.0434578
0.0600394
0.0221092
0.0190374
0.0610435
0.0599839
0.203382
0.0442947
0.0520138
0.0206933
0.0335143
0.0642851
0.0432911
0.0405209
0.0402107
0.0442251
0.0413854
0.113285
0.128985
0.0990717
0.0893457
0.043432
0.083294
0.0834854
0.0467339
0.0489313
0.0499012
0.0489178
0.0468725
0.0238938
0.0830532
0.0705095
0.0622446
0.0692693
0.0811993
0.0720524
0.0788673
0.0607349
0.0739301
0.0761262
0.0660174
0.0677896
0.175702
0.0212625
0.0201907
0.0163826
0.0273594
0.0379896
0.249266
0.0709627
0.151392
0.0647507
0.0668074
0.19655
0.0302385
0.111309
0.0681613
0.0631465
0.0220316
0.031481
0.248402
0.0611399
0.0671108
0.023656
0.0783798
0.0855157
0.25007
0.0586152
0.0649126
0.0601493
0.0622145
0.0599506
0.150264
0.0496455
0.0170317
0.0213504
0.0185749
0.0639137
0.02345
0.0581214
0.0373444
0.0194445
0.0268851
0.0739087
)
;
    }
    inlet
    {
        type            fixedValue;
        value           nonuniform 0();
    }
    outlet
    {
        type            zeroGradient;
    }
    wallInner
    {
        type            kqRWallFunction;
        value           nonuniform List<scalar> 
138
(
0.0614562
0.0180097
0.156384
0.0998421
0.255905
0.123337
0.892227
0.178425
0.0914227
0.0302683
0.142819
0.130704
0.0578027
0.212058
0.0326015
0.0845394
0.134289
0.0870888
0.113316
0.177791
0.0897882
0.0333073
0.0287753
0.0426979
0.03059
0.0356716
0.0371814
0.0425488
0.890612
0.040453
0.0399091
0.0285742
0.0768236
0.049086
0.0472996
0.0215938
0.0359792
0.0236653
0.0467859
0.0316077
0.0685635
0.0214707
0.062588
0.0414603
0.075552
0.0170072
0.0593252
0.216775
0.0291953
0.0699906
0.0592747
0.0415681
0.0281994
0.049492
0.0193222
0.172587
0.0284065
0.152274
0.0664076
0.152479
0.050534
0.0232802
0.0219022
0.0468507
0.131009
0.0194826
0.0215951
0.200196
0.0733455
0.0557279
0.0307894
0.044509
0.0213239
0.0155166
0.247204
0.021948
0.15027
0.0269241
0.167207
0.414299
0.0901616
0.353054
0.0399498
0.0570172
0.0484873
0.180521
0.372954
0.392409
0.164323
0.136509
0.109961
0.0321219
0.0334606
0.348449
0.0719093
0.0792347
0.417979
0.073923
0.434326
0.0572801
0.0776535
0.0288041
0.0380016
0.0900377
0.0693379
0.22192
0.0840905
0.0275328
0.0341383
0.0310354
0.0279696
0.317347
0.0176156
0.0268717
0.026972
0.0183987
0.0302442
0.0335723
0.0387755
0.0904137
0.0923083
0.297606
0.0807791
0.135937
0.104432
0.0340064
0.0198971
0.0811625
0.0985911
0.0220775
0.118256
0.184577
0.615974
0.0841204
0.310606
0.129658
0.176988
0.148807
)
;
    }
    procBoundary2to0
    {
        type            processor;
        value           nonuniform List<scalar> 
42
(
0.32899
0.32899
0.402126
0.290353
0.218004
0.529049
0.348013
0.348013
0.121702
0.0884703
0.313801
0.313801
0.277463
0.292422
0.254025
0.65403
0.171662
0.106106
0.0803084
1.18694
1.13009
0.111325
0.111325
1.02014
1.13009
0.0828203
0.909875
0.0585559
0.909875
0.253499
0.178986
0.0486748
0.0469143
0.0485559
0.0562223
0.290353
0.171662
0.234645
0.772829
0.181249
0.181249
0.0724064
)
;
    }
    procBoundary2to1
    {
        type            processor;
        value           uniform 1.14721;
    }
    procBoundary2to3
    {
        type            processor;
        value           nonuniform List<scalar> 
29
(
0.117598
0.124176
0.228257
0.170947
0.9606
0.0935926
0.327214
0.111416
0.401872
0.33257
0.11105
0.972811
0.105591
0.474619
0.441358
0.751009
0.432981
0.432981
0.124176
0.474619
0.349699
0.352524
0.245547
0.491914
0.4175
0.294237
0.401872
1.10878
0.972811
)
;
    }
}


// ************************************************************************* //
