/*--------------------------------*- C++ -*----------------------------------*\
| =========                 |                                                 |
| \\      /  F ield         | OpenFOAM: The Open Source CFD Toolbox           |
|  \\    /   O peration     | Version:  v1912                                 |
|   \\  /    A nd           | Website:  www.openfoam.com                      |
|    \\/     M anipulation  |                                                 |
\*---------------------------------------------------------------------------*/
FoamFile
{
    version     2.0;
    format      ascii;
    class       volScalarField;
    location    "0.25";
    object      p;
}
// * * * * * * * * * * * * * * * * * * * * * * * * * * * * * * * * * * * * * //

dimensions      [0 2 -2 0 0 0 0];


internalField   nonuniform List<scalar> 
1466
(
91.8524
91.8908
91.0556
91.8457
88.3615
83.6394
91.9058
88.2571
86.7481
84.1466
91.1846
88.266
92.5887
91.8843
91.4286
92.2043
91.3313
91.9631
88.0603
92.0563
91.9955
93.1108
88.6746
91.6483
91.9987
91.288
91.155
91.0781
91.6208
88.1957
87.8866
76.5361
92.2198
87.6397
91.9562
91.0373
90.8824
92.0476
85.3555
92.2249
87.4787
92.0612
87.0832
87.6538
88.826
87.471
92.079
91.8404
92.1387
92.0598
91.3147
84.0905
88.6887
79.6199
92.8418
92.0904
91.9332
91.0573
92.0482
92.2619
92.1683
87.7461
88.3347
79.9865
92.1484
92.088
91.7292
91.8697
91.8938
94.409
91.4324
91.8132
92.0697
91.739
92.0677
83.827
91.7242
91.781
91.8899
92.297
91.5088
91.6667
91.5593
92.1823
92.1058
92.104
92.1144
92.2658
92.0177
91.7407
91.8122
92.1162
92.3143
91.8369
91.4009
92.0867
91.5912
91.9124
91.5557
91.8773
91.9622
90.9538
91.1225
91.5025
91.9369
87.3775
91.6601
91.7172
91.6303
92.0102
92.1156
91.5734
93.2713
92.0823
92.5687
87.7109
91.5678
91.8682
91.6972
90.9457
91.9343
91.9227
91.0872
92.1572
92.1504
92.0061
92.5571
91.3484
92.2482
88.3298
92.2169
91.7112
91.9105
90.993
91.4954
92.327
91.961
92.1174
87.4593
91.5867
84.1864
92.0866
92.0674
92.2907
88.0687
92.9334
92.6384
91.5881
91.1157
92.0884
92.1684
92.6
91.8069
91.7155
91.819
91.6058
91.794
93.7418
91.6668
91.6609
90.4503
91.9616
92.3021
92.0369
91.4077
92.3474
87.8138
92.4078
92.1861
90.9589
92.1108
92.1075
92.5251
91.5394
91.1593
91.869
91.71
92.3449
91.5469
92.3396
91.9057
91.939
92.2511
92.0937
92.0652
91.6437
91.6379
86.8341
91.1696
91.4896
91.3218
92.508
92.0371
92.0039
92.017
91.8313
86.874
92.0772
91.6033
91.654
93.7621
91.5581
91.8458
92.2063
92.5415
92.1621
91.8186
87.5999
91.0861
92.5694
92.4446
93.9509
91.5712
92.114
91.6376
91.4014
91.5057
91.0758
92.026
91.8375
91.3886
91.8652
92.1937
92.1004
91.9065
92.109
91.4461
92.3021
91.1965
86.6577
92.1243
92.2766
91.8041
92.1631
91.4316
92.5287
92.1773
88.2364
92.2018
92.2024
86.6087
92.2249
92.1228
91.8251
91.9361
91.3823
91.3437
92.0131
91.0448
91.65
91.7682
91.8971
92.215
92.3071
91.9401
91.9587
91.2196
89.1372
87.1592
83.9607
92.1225
92.1122
92.3261
91.7071
85.2047
91.6144
86.9693
93.5473
91.5769
91.8127
92.2926
91.9471
92.1361
91.0883
92.1053
92.0728
92.4339
92.2827
91.4511
92.0709
92.36
91.1512
91.87
92.587
91.6088
92.14
91.4051
92.1133
90.9208
91.6262
92.1127
87.0048
91.2644
83.8512
92.2771
91.4669
86.5042
89.7234
91.5258
91.3042
92.0047
93.9161
92.4772
91.383
91.929
91.0419
92.5474
92.1877
92.6232
90.3719
86.4408
91.4427
91.5168
89.6583
92.2275
91.5941
93.6737
91.2453
86.2317
92.6467
92.0931
92.2299
92.2701
91.1409
92.8121
91.0846
91.5131
91.5621
91.4953
91.5406
93.3784
91.2878
91.5089
91.3506
93.0274
90.9921
91.6117
91.2406
94.2978
91.4992
93.5012
91.5854
91.0845
91.4988
91.2677
91.4094
93.5898
91.5717
91.971
90.1948
92.2584
92.1317
92.1949
92.1376
92.1621
91.5881
93.9021
91.4419
88.6604
91.3925
91.3289
92.1463
92.3186
91.4217
91.0723
91.4415
91.5119
91.5054
91.6284
93.5333
91.46
91.5685
93.6989
91.0481
91.4031
93.2454
91.0037
93.1878
92.1075
91.9661
92.1265
90.8524
91.5069
91.4889
91.5761
91.31
92.1015
91.5596
92.1874
91.8846
91.8901
91.498
92.2748
89.144
92.6858
91.2818
92.3715
91.3536
91.9914
91.6446
94.9153
91.4987
92.5395
92.1441
84.9695
91.568
92.1077
87.0493
90.9654
93.2497
91.5954
92.7699
91.8919
89.6903
87.6688
91.8877
91.9792
90.74
91.8024
91.8253
90.9134
91.8742
92.666
92.2504
92.4092
92.2871
92.1347
92.293
92.1671
92.2204
93.2212
91.6013
91.813
92.6797
86.1526
92.1023
88.1392
87.7574
90.5035
90.1192
91.8867
91.8053
93.0737
90.6449
90.3467
88.0628
88.7994
87.9241
91.6088
90.6634
91.544
87.2958
90.7263
91.2432
89.0275
90.7051
87.7209
87.6892
90.7794
90.6427
89.0438
91.6245
91.3768
90.8248
92.2797
91.986
91.5135
91.6091
92.8437
90.7091
91.8528
90.5631
90.7986
90.7087
74.3204
87.6577
90.7654
90.7509
87.9648
84.3626
92.7305
91.5374
80.2036
91.4148
87.7247
93.0454
91.2559
91.4504
81.689
85.6502
87.793
93.3059
90.8197
91.4931
92.817
88.0002
84.8698
89.8486
91.6806
91.307
93.2569
90.4882
91.867
92.2535
91.4763
92.6269
85.244
90.5586
90.5165
90.4554
89.0358
87.833
89.578
90.6931
90.8053
90.0658
93.2295
90.4172
91.0804
90.9821
91.2258
88.002
91.4297
86.3681
86.3557
91.9473
91.6507
91.4365
91.9032
91.4843
91.5204
92.3952
90.491
90.4932
90.756
90.5522
90.6527
91.1227
92.0911
91.9503
90.7035
89.3314
88.5638
90.0948
90.3335
90.9376
91.4599
88.084
88.6026
93.1259
90.303
91.8701
90.4839
92.0783
92.348
87.8632
93.2914
91.5966
91.763
89.8757
91.5649
92.1165
92.268
87.8333
85.0628
92.3301
92.0687
92.4725
90.2862
88.5394
91.7759
91.2815
90.2757
89.4056
91.475
90.6519
93.4882
91.4572
90.0136
90.2462
92.2426
92.3527
92.1179
92.4982
92.0606
92.3524
87.6105
90.4386
89.533
91.077
92.5981
92.167
86.4309
91.0237
93.0898
90.2749
91.8059
92.2513
88.5702
92.4265
90.6947
92.9388
90.3929
91.3527
91.3645
92.2093
91.934
91.5528
87.1391
88.4475
92.3048
86.5437
89.3565
86.4361
92.4927
91.4454
87.5593
92.1307
91.5636
92.5444
91.0254
92.0398
92.6392
92.3122
90.5768
90.8819
92.1299
92.5921
91.9484
90.8963
92.3938
88.1937
91.0218
91.9973
91.9959
92.3391
92.1858
89.7158
92.9305
90.4233
91.8069
90.5159
91.8953
90.448
91.5125
91.234
91.159
89.9881
87.3054
91.5856
92.7356
90.5195
92.3453
88.4606
91.4912
93.0469
86.9206
92.9022
91.2885
91.1216
92.2296
89.096
90.0101
93.2527
87.0283
90.6086
91.581
92.1869
90.0182
92.3114
90.9841
91.4615
92.142
91.3083
92.678
91.5198
91.9141
89.8204
90.8656
92.0132
92.6136
91.0682
92.087
91.2049
92.1293
91.4988
87.7109
91.4971
91.3556
92.4344
91.8896
90.7861
90.7272
91.7296
93.2373
90.9357
92.0808
92.1481
92.2745
91.9738
89.6843
91.3807
92.2978
89.8492
91.9777
91.8188
91.9628
91.3255
89.9427
92.7477
90.7363
91.2527
87.3109
92.7065
90.6822
91.7753
92.2288
88.8774
90.7754
91.2479
92.4912
91.5442
90.5369
92.1699
87.2763
92.1183
92.3409
92.376
91.1955
88.9389
90.6175
91.9129
91.9715
92.1322
92.1408
86.429
92.1107
92.1327
91.0683
92.2382
91.6599
92.0802
92.1272
91.9599
92.0988
91.3323
92.7732
91.5828
92.246
91.6373
91.487
91.3285
90.9775
92.1972
92.2012
91.5256
88.4426
86.9376
91.5499
91.1638
91.7558
91.9049
92.2993
92.4817
91.9275
87.7968
92.1708
91.5754
91.4897
91.3338
92.8032
86.1679
87.9032
92.1016
92.3339
92.1906
92.4932
91.9051
92.7099
88.0855
85.6366
90.1695
92.5903
92.7647
92.31
92.1911
90.6641
92.107
91.6761
92.3051
91.5969
91.3694
92.4846
92.4203
91.8865
89.7361
86.1268
91.5047
93.8626
91.9879
92.4394
92.436
90.748
91.3702
91.6046
91.3942
89.3792
91.9877
90.7857
92.1692
87.2418
91.4073
91.7538
89.952
92.1402
87.7763
91.9219
91.364
91.5386
87.4579
87.0921
91.174
91.6434
91.8525
91.8056
91.7106
91.6552
92.1255
92.1046
91.3719
90.8385
91.9088
91.301
91.5446
91.1741
91.5404
92.2297
92.2674
91.427
95.7173
91.6765
92.1241
86.7033
88.4666
92.1412
91.5566
92.08
91.8243
91.3232
91.7077
89.3795
92.2034
92.3205
89.1574
92.0424
91.4887
91.4931
91.5997
91.353
91.8843
87.2609
92.1439
93.5174
91.7662
90.7129
92.745
91.9258
91.4924
92.372
91.4083
91.2487
92.0826
90.646
87.558
91.3619
92.1088
91.7256
92.4953
85.8504
91.0102
91.5774
91.2952
91.8037
91.592
91.899
91.4538
91.5662
92.7192
91.3784
87.9599
92.2322
92.1016
91.2363
92.6542
91.0082
86.8773
91.3871
91.3321
91.0622
91.0965
91.7739
91.282
92.0666
90.917
92.4286
91.4575
92.078
91.6766
91.4086
91.3625
92.411
91.4149
91.8963
91.846
92.1373
92.356
84.8614
91.914
92.3314
92.6405
92.3645
91.6911
89.1881
93.8748
88.3718
92.212
91.5931
91.6016
92.0585
91.0173
91.6941
92.4389
92.1672
91.0696
91.2672
87.1425
92.0413
92.0631
91.0495
92.139
92.1219
92.0298
92.085
91.859
91.7704
91.8866
91.7907
92.1551
91.6912
91.6451
92.1756
92.2017
92.2323
91.7313
92.2673
92.3098
87.4078
91.4455
90.0117
91.9642
91.6356
92.808
91.5972
92.3828
91.9166
91.1944
88.6406
91.846
91.246
90.9532
91.7596
92.5923
91.9382
91.5084
91.2753
91.7889
90.4865
93.0136
91.6488
92.1874
89.2037
88.0252
86.099
86.5514
91.8238
91.1471
84.5503
93.3232
91.5499
91.0688
91.6308
87.5059
91.7322
91.6713
90.376
91.4729
91.8247
90.6386
88.1168
86.9412
91.7111
91.6885
93.1384
91.2798
90.8805
92.1216
92.1743
86.6737
92.3732
91.7498
91.3634
91.8883
91.903
92.099
92.1515
87.8786
90.5118
93.1993
92.1397
92.6614
91.9381
91.8232
85.7394
93.3256
87.6833
89.944
92.0167
91.9459
88.1646
84.3914
91.9652
91.5394
86.7639
89.9838
91.7635
92.4478
86.6388
92.1228
92.209
88.0849
85.4255
92.0894
91.5898
92.852
92.0041
92.9477
91.5711
92.5382
92.1634
90.7504
93.3219
91.5126
91.4734
87.094
91.9739
91.7155
92.5041
91.4946
91.7748
93.9575
86.9937
91.8696
91.1883
92.3989
91.426
92.8849
91.8524
87.9893
90.1958
89.2121
92.1524
87.9932
91.3055
93.4301
87.3669
92.0995
89.4707
87.8185
91.1364
90.803
91.8209
92.0595
90.5187
90.842
91.7757
88.6213
87.2556
87.8683
91.3369
90.6978
91.7251
94.1184
92.1062
87.6087
91.8197
91.9273
90.8132
91.4768
88.3605
91.5949
91.9027
89.3828
92.1094
89.6853
91.4283
92.1088
92.4366
90.995
89.9321
91.8274
91.2897
92.7252
92.1301
91.9331
90.7969
91.9298
91.9533
91.6809
90.9605
89.3173
92.0088
91.4006
91.4037
91.0373
91.8933
91.5831
93.7437
91.5038
87.2285
90.7852
91.6327
94.4667
92.1475
91.6581
91.6057
93.9869
91.6264
91.9192
92.2629
91.4111
91.8662
91.9897
92.1705
91.3035
90.731
87.5633
92.4662
91.643
92.0665
91.5352
91.8158
92.0531
91.9754
92.4126
92.4983
91.1256
92.7251
91.6567
94.9048
90.956
91.2647
90.2309
86.8979
87.5271
91.6497
91.7859
91.8844
92.1773
90.9725
91.4689
91.7998
91.4782
86.942
90.868
91.8927
87.7865
81.4059
91.6129
92.1529
90.8243
91.5837
91.4351
91.9468
92.1516
91.7712
92.5107
91.1752
91.6662
89.466
91.6783
90.9278
92.1569
92.3214
91.9465
90.8908
88.3819
87.7456
90.8499
92.5342
92.1744
92.1579
91.4456
87.2492
92.1163
91.548
92.4934
92.0436
89.0368
91.4413
87.3967
92.0972
91.5906
91.488
91.6753
87.8168
91.7821
92.8428
91.5733
93.3972
91.9992
91.7514
91.5264
91.6421
92.1658
91.4867
91.8375
91.8552
90.9388
87.4261
91.8012
91.5494
92.9344
92.5615
92.1008
91.9348
91.4748
91.4912
87.6142
91.6812
91.5335
92.2444
91.7458
87.4895
89.746
91.2197
88.7368
91.3335
92.5515
91.0434
92.1664
88.7024
85.6919
91.6799
93.265
91.126
92.4392
91.6205
94.0601
91.4833
91.5576
92.668
92.1344
91.5744
91.6171
92.5932
92.4651
90.8293
92.4941
91.8688
91.987
92.0545
90.4514
83.6479
92.1051
91.311
86.8261
86.3985
92.0867
92.0292
92.1533
91.4546
89.5934
92.346
85.7376
91.1098
92.6223
93.2639
93.4185
91.7443
91.4078
88.5972
89.989
86.8009
91.3548
86.7963
87.0419
92.4614
92.511
92.0454
92.0273
89.3245
93.3172
92.1397
91.9896
91.5218
92.6353
91.2215
93.7795
92.1072
91.5892
90.013
91.967
91.9731
91.9038
92.1476
91.8314
91.3588
94.2194
91.6194
86.9834
91.6081
93.9797
92.4765
91.5858
85.0697
91.3468
91.6729
92.0298
91.7472
93.746
91.9253
87.1304
91.5484
93.2069
92.2434
92.0366
92.235
90.6982
93.1235
91.8263
91.6229
91.5379
91.7943
91.2008
93.3548
91.8704
92.1693
91.5033
90.804
92.8613
91.2777
92.1259
91.8851
90.8805
93.2762
90.812
91.3842
91.6382
91.4761
92.0815
91.5386
93.2109
92.2188
91.1416
92.1069
91.6499
91.4748
91.7676
91.8763
92.4885
91.5869
93.5285
91.5592
92.6839
91.9205
91.0958
92.2208
91.1044
91.478
92.5199
92.0196
91.7716
91.6228
92.1109
91.8751
92.3247
92.1439
90.6874
92.17
91.4097
91.6775
92.0104
91.6333
90.8045
92.119
92.1303
91.6875
92.452
94.012
92.1336
85.0526
86.3342
87.3387
91.5046
92.8009
95.1686
92.1341
94.009
91.9386
91.7913
92.2665
92.2842
91.6793
92.1119
91.73
92.3284
91.4196
94.1272
89.751
87.4544
72.4642
91.5116
92.4408
92.2451
91.6835
92.3332
92.0157
92.3693
91.3073
92.4912
91.6946
91.7839
90.7726
92.0586
91.8994
91.704
92.014
92.3307
91.1195
91.5382
91.6282
86.834
92.4537
93.2514
92.882
91.3084
92.0997
90.7073
91.8814
91.6841
94.1822
92.0957
91.4544
86.5805
86.8435
92.3635
91.8258
86.5732
91.4617
85.7048
87.3293
87.162
87.0606
91.8777
97.1404
82.3312
)
;

boundaryField
{
    frontAndBack
    {
        type            empty;
    }
    wallOuter
    {
        type            zeroGradient;
    }
    inlet
    {
        type            zeroGradient;
    }
    outlet
    {
        type            fixedValue;
        value           nonuniform 0();
    }
    wallInner
    {
        type            zeroGradient;
    }
    procBoundary2to0
    {
        type            processor;
        value           nonuniform List<scalar> 
42
(
91.7057
91.7057
92.515
92.4496
93.7014
90.9767
92.5486
92.5486
93.5095
92.9789
93.909
93.909
93.8631
93.8065
93.6404
89.4498
92.9623
92.9502
93.236
69.1383
77.1909
92.9767
92.9767
84.6888
77.1909
93.3103
86.4893
93.2336
86.4893
92.6213
92.98
93.1051
92.9654
92.8143
92.6968
92.4496
92.9623
92.4527
89.0076
92.5382
92.5382
92.6309
)
;
    }
    procBoundary2to1
    {
        type            processor;
        value           uniform 69.8502;
    }
    procBoundary2to3
    {
        type            processor;
        value           nonuniform List<scalar> 
29
(
88.9401
88.0239
91.224
91.7516
81.9508
89.1486
83.9577
88.262
91.6765
91.168
88.8345
76.2967
89.1269
84.0243
85.9595
83.5943
91.3215
91.3215
88.0239
84.0243
85.2434
91.1872
86.9597
90.9493
86.3838
91.2437
91.6765
73.2465
76.2967
)
;
    }
}


// ************************************************************************* //
