/*--------------------------------*- C++ -*----------------------------------*\
| =========                 |                                                 |
| \\      /  F ield         | OpenFOAM: The Open Source CFD Toolbox           |
|  \\    /   O peration     | Version:  v1912                                 |
|   \\  /    A nd           | Website:  www.openfoam.com                      |
|    \\/     M anipulation  |                                                 |
\*---------------------------------------------------------------------------*/
FoamFile
{
    version     2.0;
    format      ascii;
    class       volScalarField;
    location    "0.41";
    object      nut;
}
// * * * * * * * * * * * * * * * * * * * * * * * * * * * * * * * * * * * * * //

dimensions      [0 2 -1 0 0 0 0];


internalField   nonuniform List<scalar> 
1431
(
0.00172382
0.00259739
0.00236113
0.00173287
0.000925532
0.0023659
0.00349978
0.000787862
0.00425154
0.00598821
0.000851169
0.00104143
0.00137583
0.00132304
0.00418646
0.000675791
0.00443801
0.00273093
0.000476005
0.00100546
0.000729564
0.00401692
0.00399017
0.00141941
0.0014808
0.00116452
0.00155212
0.00123375
0.00100146
0.001747
0.00141812
0.000723371
0.00194846
0.00102579
0.000924983
0.00212354
0.00155386
0.000859633
0.00285516
0.000858929
0.00229241
0.000515331
0.00162456
0.00273385
0.003683
0.00179406
0.00256059
0.000812793
0.000873493
0.000870691
0.00211018
0.00552966
0.00403859
0.00216074
0.00380068
0.000772396
0.00452196
0.00305513
0.00102329
0.000571911
0.00367462
0.000959873
0.00249109
0.000783695
0.000904809
0.00202804
0.00238639
0.00144875
0.00345284
0.000751325
0.000920673
0.000904761
0.00122569
0.00245419
0.00100781
0.00117936
0.00108487
0.00303144
0.000786264
0.00224576
0.000806333
0.00284003
0.00113399
0.00308657
0.00241455
0.00105061
0.00128788
0.000856511
0.00152302
0.00160199
0.00214975
0.000859598
0.00125092
0.000862847
0.00277024
0.000968489
0.000926465
0.000730599
0.00121505
0.00108073
0.00349824
0.000808258
0.00236456
0.00100255
0.0011221
0.00196858
0.000786938
0.00288221
0.00197547
0.000905396
0.00267114
0.00157124
0.000757393
0.00179357
0.00105853
0.000962059
0.00250813
0.00363244
0.00163613
0.00285545
0.000860427
0.00385592
0.00551204
0.00135292
0.000831461
0.00271118
0.00176567
0.00114548
0.00185239
0.000811242
0.000990349
0.00272171
0.00100799
0.00228179
0.00115153
0.000911156
0.00116704
0.00203602
0.00208966
0.00269285
0.00458647
0.000645538
0.000770512
0.000924348
0.00106428
0.000776141
0.000735246
0.00298224
0.00115946
0.000797206
0.000820686
0.000956081
0.00275883
0.000553245
0.000316067
0.000995367
0.000803701
0.00202618
0.00075813
0.000711431
0.00273347
0.00136167
0.00233581
0.000919873
0.00126669
0.00331206
0.00101919
0.00086435
0.00180541
0.00237411
0.00106392
0.000895898
0.00133137
0.000770221
0.000772352
0.000418872
0.000595149
0.000874499
0.00162405
0.000715793
0.000840148
0.00457165
0.000754201
0.00195195
0.000773802
0.000808474
0.000755107
0.00125921
0.00122971
0.000799963
0.00559503
0.0045966
0.00102878
0.000791425
0.00470083
0.000847319
0.000786513
0.000839708
0.000366286
0.000324097
0.000470381
0.000662801
0.000750831
0.00224614
0.000787065
0.00204094
0.00106457
0.000834662
0.00107915
0.000879948
0.000790473
0.000784903
0.00160566
0.000831849
0.00211526
0.0013632
0.000758851
0.0048989
0.00171551
0.000833898
0.00083061
0.00236729
0.000778434
0.00217615
0.000825226
0.000872422
0.000958924
0.00219608
0.0008298
0.00153506
0.00121838
0.00114494
0.000748052
0.00079845
0.000791736
0.000785288
0.000738033
0.00222871
0.000827478
0.00223418
0.000844325
0.000725234
0.00429576
0.00386208
0.000943181
0.000970218
0.000830157
0.00215387
0.00159278
0.00096961
0.000725415
0.00411644
0.00529782
0.00116416
0.00280477
0.00108612
0.000637292
0.00242625
0.00112041
0.0010948
0.00107484
0.000983276
0.00128008
0.00446527
0.000791505
0.000810389
0.0010212
0.000746801
0.000993777
0.00479697
0.000745097
0.000927453
0.000728476
0.000728517
0.00106476
0.000766021
0.0022207
0.00327721
0.00248459
0.00615182
0.00461707
0.00228961
0.00180985
0.00209595
0.00101814
0.00136687
0.00115605
0.000757027
0.000904494
0.000833654
0.00077716
0.000870433
0.00075072
0.00402821
0.000732931
0.000745742
0.00117078
0.000766879
0.00219007
0.000708121
0.000845781
0.000995064
0.00123822
0.000741753
0.00148321
0.00201232
0.000829082
0.00109304
0.00110273
0.00147879
0.000837114
0.000783976
0.00304092
0.000917123
0.00113042
0.00205922
0.00580622
0.00205687
0.000796725
0.00270975
0.00185178
0.00228473
0.00360297
0.00186286
0.00644617
0.00320254
0.000807575
0.00340824
0.00171668
0.000831435
0.00300912
0.00125427
0.00272598
0.0054157
0.000786949
0.00477636
0.00146612
0.00219408
0.00163467
0.00197801
0.000369078
0.000823186
0.00354063
0.000932396
0.00189692
0.000394427
0.000825904
0.000750521
0.000223
0.000490599
0.000893031
0.000636812
0.000853486
0.000686984
0.0004905
0.000858695
0.000740591
0.000399091
0.000601499
0.000517885
0.000613248
0.000714739
0.00069446
0.000230429
0.000261205
0.000732333
0.000658527
0.000704286
0.00236549
0.00300633
0.00228161
0.00264471
0.00265022
0.000760501
0.00367627
0.0016646
0.00335449
0.00084258
0.000848866
0.000606306
0.000616907
0.000749431
0.000385848
0.000803024
0.000804987
0.000682155
0.000742942
0.000411331
0.000658506
0.000224201
0.000785505
0.00292018
0.000879529
0.000848696
0.00307121
0.000973496
0.00203675
0.000834671
0.00639515
0.000772972
0.00060434
0.00295171
0.000832765
0.00203591
0.00242749
0.000786785
0.00216141
0.000723081
0.00133893
0.00335568
0.00083234
0.000576499
0.00250978
0.00224868
0.000985696
0.0010412
0.00328246
0.00429965
0.00247226
0.00170261
0.00192401
0.00416499
0.00488472
0.00251451
0.00283475
0.00334016
0.00249572
0.00420582
0.00599561
0.00277978
0.0050463
0.00210037
0.000487529
0.00559511
0.00240523
0.00315823
0.00496298
0.00454759
0.00213405
0.0035852
0.00377808
0.00107586
0.00523546
0.00470261
0.000530291
0.00668126
0.0067638
0.00146517
0.000887721
0.00529482
0.00591213
0.00435993
0.00665571
0.00439114
0.00406458
0.00378651
0.00380556
0.00408895
0.00382196
0.00253347
0.00317049
0.000631605
0.00314398
0.00260752
0.00256345
0.00235345
0.00120371
0.003025
0.00239655
0.00265396
0.0026557
0.002549
0.000740921
0.00108787
0.00235368
0.00227908
0.00281046
0.00285109
0.00435654
0.000617626
0.00294639
0.00267066
0.00109952
0.000802363
0.000816533
0.00366541
0.00246698
0.00585589
0.00403986
0.000756383
0.000632929
0.000630306
0.00199467
0.00345703
0.000625052
0.00272812
0.00128904
0.00389078
0.000837179
0.00293944
0.00212555
0.00154023
0.00341635
0.00280147
0.00259339
0.00181787
0.00195873
0.00543272
0.0029517
0.00104086
0.000966893
0.00151871
0.000744263
0.00206562
0.000792845
0.00302856
0.00386473
0.00141129
0.002947
0.00212709
0.00243098
0.00184434
0.00349001
0.00118917
0.00245042
0.00464119
0.00234486
0.00371171
0.00207925
0.00383991
0.000802568
0.000743752
0.00205214
0.0026016
0.00440794
0.00388034
0.0029362
0.00293127
0.00666123
0.00237817
0.00257183
0.00404062
0.00323681
0.00436545
0.00063506
0.006364
0.003624
0.00079757
0.00485491
0.0018076
0.00231133
0.000527207
0.00106938
0.00431985
0.00289512
0.00229287
0.0031577
0.00346396
0.00103042
0.000759881
0.00647608
0.00223518
0.0038701
0.00440933
0.0025017
0.001372
0.00623694
0.00074321
0.00302712
0.00235076
0.000777571
0.00662359
0.00281246
0.0065376
0.0032584
0.00180803
0.0052669
0.00286126
0.00235585
0.00100507
0.00271236
0.000799496
0.00213748
0.0031858
0.00130361
0.00231623
0.00261416
0.000786585
0.00254795
0.000796936
0.00448153
0.00315094
0.000848239
0.00077714
0.000767578
0.00212107
0.000789614
0.00492601
0.000741765
0.000550474
0.00282016
0.00236854
0.00176493
0.00283385
0.0027949
0.00616809
0.00120679
0.00167805
0.00669573
0.00213832
0.00177128
0.00656274
0.0019001
0.00445485
0.00199749
0.000746593
0.00312197
0.00350575
0.00334709
0.00529894
0.00157475
0.00155001
0.00251143
0.00119548
0.00463495
0.000932558
0.00145979
0.000870932
0.00562685
0.000805892
0.00660479
0.00230037
0.000566599
0.000806597
0.0018496
0.00477439
0.00159462
0.000735439
0.0010854
0.00207994
0.00231751
0.00626785
0.000807592
0.00649448
0.0041826
0.00271943
0.00216831
0.00408997
0.00514298
0.00195371
0.00269246
0.00165433
0.000764313
0.00112304
0.0041679
0.00517413
0.000821156
0.000841206
0.00556636
0.00610918
0.00314671
0.000912095
0.00193878
0.00211732
0.000828093
0.000469401
0.000848233
0.0060752
0.00570161
0.00330474
0.000895868
0.000822608
0.00224709
0.00333708
0.000793696
0.00075678
0.00178544
0.00304033
0.00141765
0.00104567
0.00453795
0.000584803
0.000923783
0.00215674
0.00457325
0.0028082
0.00362061
0.00271159
0.00369574
0.00228216
0.00184282
0.00325761
0.00235006
0.00232527
0.00598086
0.00138543
0.000236931
0.00080472
0.000825067
0.000725003
0.00241807
0.00141546
0.000765016
0.0012683
0.000911989
0.00137391
0.0011143
0.00662165
0.000850611
0.00235364
0.00213458
0.000710948
0.00170135
0.00569361
0.00386904
0.000635359
0.00291101
0.00446155
0.000718211
0.00218116
0.000644405
0.00084146
0.000805494
0.00373726
0.00206941
0.00062607
0.00485788
0.00480511
0.000683288
0.000581076
0.00275021
0.00060895
0.000701432
0.000718604
0.00444546
0.000767408
0.00167549
0.0035255
0.00675822
0.00168057
0.0029067
0.00475385
0.000686418
0.0018928
0.000784399
0.000663483
0.000749167
0.000860183
0.0011856
0.00112438
0.00439414
0.000756061
0.000738859
0.000760533
0.00195288
0.00108406
0.000845061
0.000843253
0.000874361
0.00191521
0.00122929
0.00119847
0.00179034
0.00202652
0.000855674
0.00371827
0.000499242
0.00196066
0.000792782
0.000753361
0.00393524
0.00379261
0.000801624
0.00176878
0.000488386
0.000776001
0.00102993
0.00316353
0.00598779
0.00113198
0.00132021
0.000596519
0.000768349
0.00412479
0.0018208
0.00400708
0.000719171
0.00180785
0.000969751
0.00209507
0.00210503
0.000772862
0.000871842
0.000937272
0.000847831
0.000834652
0.000845234
0.0017432
0.0045049
0.000810265
0.00640134
0.00321019
0.000714171
0.00143342
0.00024153
0.00158312
0.00221979
0.00281723
0.00336008
0.00120121
0.000829946
0.000812063
0.00410019
0.000918514
0.0018835
0.000833523
0.000673355
0.000596941
0.000538611
0.000648834
0.00083741
0.000732309
0.000773074
0.00191762
0.000895745
0.000777195
0.00130423
0.00316574
0.00165424
0.000893826
0.000918453
0.000553519
0.00194646
0.000787889
0.00170324
0.00104456
0.00602695
0.00111633
0.00070749
0.006004
0.000779676
0.000724822
0.000733504
0.000663857
0.00232912
0.000713715
0.00185628
0.0022311
0.0015305
0.000822144
0.00290982
0.0024601
0.00251558
0.000539129
0.0018103
0.0013098
0.00508946
0.00406496
0.000837843
0.000868138
0.000807363
0.00196402
0.00150234
0.00236149
0.00185493
0.00136105
0.00080562
0.000761539
0.00078346
0.002141
0.000777033
0.00210366
0.00218344
0.0028061
0.000799148
0.000776317
0.00219882
0.00351565
0.00274742
0.000818951
0.00114749
0.00192025
0.00152264
0.0013111
0.000747075
0.00163994
0.00126578
0.00306575
0.00384561
0.000703931
0.000878297
0.00321994
0.0025915
0.000826475
0.0021089
0.00325973
0.000656707
0.00187003
0.00239915
0.0010611
0.00189297
0.00216235
0.00371383
0.00357585
0.000949111
0.000941412
0.000846458
0.00235696
0.00105041
0.000553554
0.00234785
0.000807268
0.00495054
0.0024824
0.0034964
0.00366947
0.00262852
0.000865183
0.000908245
0.00103133
0.0052729
0.000785515
0.00132107
0.000815461
0.000795766
0.0010573
0.00122017
0.00072974
0.00660179
0.000686588
0.00342995
0.000751035
0.00114943
0.000281122
0.000272811
0.000259284
0.000386975
0.00028043
0.000276788
0.00187344
0.000259041
0.000700386
0.000820305
0.000265028
0.00152508
0.000369265
0.00267483
0.00100075
0.00293729
0.000271589
0.00669822
0.000321577
0.000732619
0.00625894
0.0041462
0.00169467
0.000253689
0.00243152
0.00650771
0.00195309
0.00417618
0.00539332
0.00240585
0.00292405
0.0018914
0.000273155
0.000262558
0.000968322
0.00026881
0.00270932
0.00671857
0.00341249
0.00173344
0.000967075
0.00527434
0.00326139
0.000817265
0.000270637
0.000274048
0.000998963
0.00299227
0.000781702
0.00623886
0.00282647
0.00380272
0.000781529
0.000272175
0.00339881
0.000319658
0.0010899
0.000358677
0.000826004
0.00565369
0.00250487
0.00082996
0.00165768
0.00377885
0.000896244
0.00266663
0.000871315
0.000797804
0.00104704
0.000811749
0.00246028
0.00326536
0.000778118
0.00235063
0.00469438
0.000846082
0.00207726
0.00520626
0.00469577
0.000813879
0.000729225
0.000975137
0.00316302
0.00259752
0.00343767
0.00279166
0.00617737
0.00337631
0.00420147
0.0030428
0.00266099
0.0010745
0.00178176
0.00157939
0.00234556
0.000612863
0.00252274
0.00620589
0.00392466
0.00262216
0.00300786
0.00148289
0.00484502
0.00296213
0.000837804
0.00363528
0.00220059
0.00133012
0.000967424
0.000768742
0.00206199
0.00487353
0.00302011
0.00304528
0.00593646
0.00075361
0.00375181
0.00245121
0.00062441
0.005045
0.00428506
0.00153105
0.00313113
0.00252164
0.00078701
0.000660347
0.000754676
0.00447948
0.00474406
0.000846617
0.000804452
0.000780826
0.00209701
0.000877565
0.000777685
0.000840729
0.00536047
0.00173745
0.000799275
0.000833788
0.00223079
0.000823678
0.00313253
0.000225061
0.00078252
0.000791138
0.00080259
0.00032507
0.000887281
0.0021726
0.0011286
0.000747979
0.000376988
0.00105852
0.00102301
0.00079606
0.00388609
0.00244971
0.00074393
0.00189416
0.000772805
0.000534506
0.000293168
0.00132766
0.000833353
0.0020837
0.00262777
0.00199745
0.00032887
0.00087156
0.000939051
0.000547116
0.00086669
0.00331473
0.000871432
0.00174488
0.000808498
0.00118386
0.00469806
0.00328424
0.000690172
0.00183917
0.000897999
0.00260541
0.00253995
0.00108518
0.000798642
0.0026819
0.00251623
0.000790656
0.000292199
0.000974227
0.000317677
0.00253632
0.00230801
0.00261422
0.003976
0.000788336
0.000577426
0.00173718
0.0037089
0.000506136
0.00150438
0.00102357
0.00103351
0.00277798
0.000583381
0.00198726
0.00159069
0.00416356
0.00659386
0.00221723
0.000801438
0.000828313
0.000305664
0.00177404
0.00082314
0.00311544
0.000732158
0.00204573
0.00380275
0.00192767
0.00266718
0.004855
0.00115029
0.000510081
0.00083803
0.00136015
0.000243208
0.000894954
0.00189378
0.00672406
0.00152672
0.000762275
0.000664276
0.00203304
0.000319594
0.000840552
0.00251321
0.00483756
0.000863082
0.000840403
0.000839721
0.000787637
0.000567924
0.000647586
0.00381707
0.000614417
0.00336592
0.000749846
0.0014516
0.00336985
0.000828956
0.00338544
0.00323039
0.000591718
0.0008332
0.00209172
0.00234706
0.000870345
0.000320965
0.00486239
0.00539393
0.000918253
0.00350406
0.0012655
0.000740488
0.00344726
0.0039955
0.00269844
0.00206034
0.00481448
0.000881672
0.000852524
0.00134289
0.00643912
0.000842378
0.00081968
0.00167602
0.00581096
0.00147424
0.00216113
0.00150853
0.0028229
0.000957207
0.00168126
0.00160835
0.00244388
0.00647699
0.000473307
0.000329707
0.00466253
0.000750248
0.00108838
0.00074116
0.000774239
0.000844472
0.000908483
0.00233329
0.000881053
0.000962723
0.000263702
0.00646106
0.00116858
0.00101961
0.00304785
0.00172452
0.00288984
0.00336214
0.00164431
0.00236969
0.00228143
0.00335922
0.00109608
0.00135585
0.00289804
0.000725814
0.00127317
0.000890641
0.000792442
0.00273586
0.00346272
0.00668947
0.0022436
0.000622156
0.00593194
0.00237341
0.00129667
0.00277256
0.00401853
0.00432884
0.00077093
0.000844446
0.00357382
0.00244992
0.0015474
0.00495513
0.00315669
0.00293627
0.00102585
0.000831138
0.000770396
0.000816562
0.000873032
0.0017103
0.000840892
0.00101097
0.000514131
0.00115391
0.000819373
0.000958934
0.00269433
0.00286134
0.00600409
0.00425826
0.00510732
0.00218534
0.00284836
0.00118175
0.00366052
0.00122234
0.00176128
0.000845929
0.00260024
0.00439659
0.00176459
0.000953399
0.005409
0.000786518
0.00433661
0.00435912
0.00548161
0.00600306
0.00386194
0.000775216
0.00226828
0.0065332
0.000846113
0.000784
0.000665095
0.00310312
0.0020546
0.000761152
0.00340577
0.00379879
0.00151875
0.00247332
0.0010733
0.000323004
0.00299744
0.00619826
0.0029243
0.00260712
0.00103337
0.000855728
0.00343972
0.0021345
0.00279491
0.00237026
0.00181034
0.00245003
0.000760384
0.00133273
0.00213298
0.000821172
0.00114063
0.00113757
0.000726532
0.0013636
0.00247785
0.000860712
0.000242641
0.00107749
0.00184448
0.000803475
0.00101741
0.00141459
0.00102265
0.000683158
0.00171814
0.00241441
0.00246555
0.00247046
0.00240455
0.000857866
0.00140428
0.00256302
0.00174415
0.00304977
0.00072148
0.00311017
0.00318486
0.00252353
0.00126376
0.000754938
0.00113023
0.000696415
0.000947351
0.0014726
0.00111241
0.00118521
0.00242852
0.00205445
0.00347881
0.00109015
0.000796572
0.00677873
0.000790072
0.00217225
0.00310577
0.00268826
0.00081409
0.00102773
0.00189554
0.000843192
0.000724345
0.00101153
0.000966705
0.00210865
0.00138608
0.00205476
0.00601452
0.00108109
0.00118831
0.00111487
0.00103136
0.000892408
0.00159308
0.00083714
0.000834651
0.00133845
0.0032325
0.00161181
0.000879069
0.000911336
0.00091508
0.000793976
0.00298389
0.00336711
0.00410633
0.00581554
0.000742413
0.000663987
0.00377111
0.00651614
0.0040185
0.00608283
0.00358286
0.000804202
0.000760894
0.00116006
0.00073866
0.00105226
0.00107254
0.00168782
0.000994691
0.00121821
0.00116669
)
;

boundaryField
{
    frontAndBack
    {
        type            empty;
    }
    wallOuter
    {
        type            nutkWallFunction;
        Cmu             0.09;
        kappa           0.41;
        E               9.8;
        value           nonuniform List<scalar> 
90
(
8.099e-05
7.6731e-05
7.77967e-05
7.56349e-05
8.23487e-05
8.44967e-05
8.6509e-05
9.40842e-05
8.00382e-05
8.88622e-05
9.13603e-05
9.50433e-05
9.05376e-05
9.31231e-05
9.22552e-05
0.000104079
9.97161e-05
8.1195e-05
7.21874e-05
6.52212e-05
7.83181e-05
0.000100161
8.80656e-05
9.27928e-05
8.00826e-05
0.000112888
0.000111891
8.77668e-05
8.26686e-05
3.30723e-05
3.37205e-05
3.18136e-05
4.52019e-05
3.47088e-05
3.41822e-05
3.25542e-05
3.30125e-05
3.94967e-05
8.7854e-05
3.09181e-05
3.31825e-05
3.20335e-05
0.000115178
3.22911e-05
3.29308e-05
3.35117e-05
3.87264e-05
0.000128717
4.42355e-05
0.000106845
0.000115754
7.31744e-05
7.54404e-05
9.63206e-05
9.96528e-05
3.9925e-05
4.66226e-05
0.00012512
0.000121022
8.94115e-05
6.47284e-05
3.52319e-05
3.97186e-05
0.000111667
9.68438e-05
8.31424e-05
0.000107055
3.50334e-05
0.000115673
3.85335e-05
6.17382e-05
2.86558e-05
9.14941e-05
3.86273e-05
0.000103148
7.4233e-05
7.15654e-05
0.000103915
3.87315e-05
0.000109288
5.73145e-05
0.000114361
3.13335e-05
7.51738e-05
6.08087e-05
3.89904e-05
0.000102859
2.86661e-05
8.23421e-05
8.38901e-05
)
;
    }
    inlet
    {
        type            calculated;
        value           uniform 0.000851986;
    }
    outlet
    {
        type            calculated;
        value           nonuniform 0();
    }
    wallInner
    {
        type            nutkWallFunction;
        Cmu             0.09;
        kappa           0.41;
        E               9.8;
        value           nonuniform List<scalar> 
138
(
0.000126176
5.91193e-05
0.000220661
0.000122311
0.000114841
6.27271e-05
0.000266732
0.000169456
0.000110997
0.000113916
0.000138552
0.000119388
6.43863e-05
3.91719e-05
5.02244e-05
7.24239e-05
4.60976e-05
3.95023e-05
5.65476e-05
7.9928e-05
0.000245124
0.000128097
7.8019e-05
0.000131892
0.00012906
0.000126844
0.000120872
0.000125722
0.000120523
0.000128866
0.000129937
4.50686e-05
4.77876e-05
9.12568e-05
2.58406e-05
5.89819e-05
0.000107871
7.78897e-05
0.00010433
8.31607e-05
6.0835e-05
0.000103739
9.05316e-05
4.91126e-05
7.20536e-05
6.37386e-05
7.51595e-05
8.75563e-05
8.44927e-05
2.68538e-05
3.0874e-05
8.91863e-05
8.05442e-05
8.63348e-05
7.28088e-05
7.53501e-05
9.11953e-05
4.51606e-05
9.81548e-05
9.80793e-05
8.33252e-05
9.0879e-05
5.09976e-05
7.92614e-05
2.59935e-05
9.51878e-05
7.391e-05
6.98283e-05
0.000123402
5.92415e-05
0.000126159
6.33727e-05
0.00010792
7.77289e-05
0.000128582
7.69525e-05
0.000129877
9.19087e-05
7.6397e-05
7.80331e-05
7.77173e-05
0.000150622
0.000177858
0.000122087
0.000113567
0.00016388
7.68244e-05
6.51644e-05
0.000126229
0.00012189
9.43187e-05
6.42296e-05
6.82307e-05
5.48216e-05
7.14642e-05
2.76053e-05
9.74716e-05
7.13539e-05
7.31869e-05
8.27418e-05
0.000144642
6.10407e-05
5.95529e-05
7.17088e-05
0.000111758
2.78437e-05
0.000112037
0.000131438
8.55072e-05
6.58589e-05
6.85598e-05
0.000124891
2.91691e-05
8.50946e-05
4.58068e-05
0.000114824
9.37956e-05
3.26765e-05
9.42569e-05
0.000124061
8.18468e-05
2.55619e-05
9.38288e-05
6.598e-05
7.12807e-05
6.16756e-05
9.91033e-05
3.6744e-05
6.98733e-05
7.88457e-05
3.87406e-05
8.01087e-05
0.000136608
8.88333e-05
0.000123404
0.000193897
0.000120941
0.000137192
)
;
    }
    procBoundary0to1
    {
        type            processor;
        value           nonuniform List<scalar> 
29
(
0.00314166
0.0033557
0.00346773
0.00346773
0.00510903
0.00510903
0.00283515
0.00166575
0.00194494
0.00328285
0.00260016
0.00194764
0.00138087
0.00120433
0.0021405
0.00123088
0.00772883
0.00546438
0.00415888
0.00312032
0.00085192
0.000730026
0.00313535
0.000737863
0.000722788
0.00546438
0.00072502
0.000906006
0.000737863
)
;
    }
    procBoundary0to2
    {
        type            processor;
        value           nonuniform List<scalar> 
42
(
0.00429709
0.0031415
0.00128178
0.00107797
0.00200273
0.00429709
0.00128178
0.00122932
0.00198147
0.00157569
0.00218966
0.00298407
0.00218966
0.00342078
0.0036956
0.00446
0.0036956
0.00142307
0.00176653
0.00358271
0.00358271
0.00142307
0.00117574
0.00392001
0.00392001
0.000831038
0.00413689
0.000741384
0.00463408
0.00325107
0.00325107
0.000772529
0.000844782
0.000881986
0.000893786
0.00128178
0.00305893
0.000354063
0.00463408
0.00122932
0.00102981
0.000934366
)
;
    }
}


// ************************************************************************* //
