/*--------------------------------*- C++ -*----------------------------------*\
| =========                 |                                                 |
| \\      /  F ield         | OpenFOAM: The Open Source CFD Toolbox           |
|  \\    /   O peration     | Version:  v1912                                 |
|   \\  /    A nd           | Website:  www.openfoam.com                      |
|    \\/     M anipulation  |                                                 |
\*---------------------------------------------------------------------------*/
FoamFile
{
    version     2.0;
    format      ascii;
    class       volScalarField;
    location    "0.41";
    object      p;
}
// * * * * * * * * * * * * * * * * * * * * * * * * * * * * * * * * * * * * * //

dimensions      [0 2 -2 0 0 0 0];


internalField   nonuniform List<scalar> 
1431
(
82.8006
82.4309
81.6641
79.8038
81.8847
77.6949
77.9437
88.5997
81.6351
80.7054
83.72
84.304
77.0009
94.262
83.5515
82.9278
83.836
82.3055
81.6606
83.5373
81.9954
80.6118
83.6575
95.1916
69.2419
83.387
60.9007
93.3901
79.952
80.9932
105.059
111.776
75.038
74.7932
78.0437
80.8389
83.0655
87.6076
74.2328
87.7058
101.877
81.571
76.1262
77.6971
74.3371
82.4732
83.6918
109.863
106.075
89.0386
79.5712
80.2605
81.6185
74.3305
78.3998
102.85
79.2368
78.7757
68.5985
81.9243
82.6147
83.0202
83.5983
88.439
90.4946
81.4941
80.232
77.5699
81.5201
88.8688
75.6616
77.7991
83.7727
75.5363
83.3308
75.227
82.1032
75.2316
88.872
62.8863
88.47
78.9684
82.6226
82.3927
68.1635
81.8941
81.8623
77.6344
96.1542
83.2133
82.5834
78.6532
81.8312
87.3395
80.3713
81.9404
81.6603
90.6983
81.8631
105.02
81.3877
87.4994
82.7913
81.8403
80.1355
80.1933
88.5927
105.342
107.067
81.9691
62.9024
81.7447
89.1368
82.9613
80.1103
81.8614
82.4455
83.0327
97.0837
75.3919
85.9739
80.653
80.0574
100.035
88.1018
80.0352
97.9469
82.6909
82.5181
88.157
82.2307
106.356
96.4643
82.8114
81.8264
80.5291
83.5646
80.2464
82.6118
105.897
81.8246
81.7687
87.5816
106.209
107.493
86.3903
90.1348
105.818
83.3988
104.462
89.1095
91.599
82.6525
79.677
82.7407
80.4583
88.4643
82.8165
89.9455
99.2794
82.0457
83.4776
82.7365
78.6396
81.8727
60.0164
81.961
86.7421
80.4083
82.8991
97.8463
81.6194
103.853
89.359
88.1029
82.4611
78.5266
89.9158
81.1101
95.8775
88.1769
82.9853
96.1138
83.0549
87.8157
98.9427
87.6342
74.4995
83.2736
88.4229
81.5049
83.225
82.049
88.2845
82.8388
85.6397
88.6021
108.177
83.184
83.3565
83.6282
107.828
102.878
100.56
88.5182
63.1382
81.8994
88.7225
83.9885
92.8132
88.2729
89.1664
100.765
88.6724
77.8272
76.9856
90.9228
81.8501
81.2699
88.3827
88.4279
58.5166
87.7517
94.3365
89.0393
82.5517
101.805
82.9194
93.5037
105.438
81.8464
79.6477
88.745
86.968
88.2443
88.8947
89.8985
82.7026
88.4105
81.5602
90.3561
101.153
81.5374
82.9167
78.7124
77.9227
87.6697
77.91
73.9032
96.7068
94.5592
81.6549
80.476
108.339
83.3736
89.4476
80.0193
81.9055
88.2413
88.7936
89.2454
77.7249
81.8603
82.0136
88.4587
92.5882
83.6708
87.507
94.822
81.5557
88.7122
104.927
93.5052
92.4864
89.0284
85.6394
82.7197
82.6653
79.3727
80.7889
81.3966
80.9343
81.5799
82.7265
85.6177
76.5296
81.8685
94.5316
95.5037
89.6781
86.2456
88.4403
94.3902
81.237
96.0832
91.2958
82.1906
94.1203
82.0548
97.4957
88.342
103.464
80.7873
107.99
82.8177
82.1878
88.5524
89.1764
88.4748
80.6062
89.3267
87.8397
82.0682
81.7782
77.5337
82.0915
81.1675
80.0558
87.8286
80.8368
81.9678
80.4559
81.95
81.0935
81.2343
80.9606
88.3699
81.1498
102.357
89.0577
82.3253
80.2969
80.9346
81.4013
88.1985
81.4737
80.9053
80.124
80.1032
76.6853
83.5058
88.4638
81.0275
78.3439
93.678
80.6253
88.939
82.4778
81.3723
81.4705
81.1109
80.5636
81.7086
81.4859
80.3555
80.9333
80.561
80.6102
82.3946
81.0206
80.4431
80.0384
80.8106
81.3934
81.4195
82.1711
79.9152
79.8089
81.7264
82.3714
82.4333
81.5043
80.7934
97.5088
81.4954
81.13
82.3398
87.3721
86.4356
82.5793
81.3335
81.5784
81.4573
80.8286
79.7732
80.2053
80.0125
80.5525
82.0372
81.3529
82.1084
81.835
100.449
87.306
81.0124
81.4565
79.9651
88.5895
81.4287
88.5486
81.627
82.1892
88.5911
79.5162
82.0091
85.423
79.7657
107.753
80.9781
82.3375
85.7022
81.4572
80.0535
79.5277
106.859
120.704
82.3699
81.7625
79.5539
80.1555
80.5306
81.4049
81.6885
82.9888
81.4682
82.6013
82.9574
81.8894
73.9895
83.1059
74.1877
82.9956
81.5995
81.4106
80.2774
83.0032
81.3816
81.8761
83.1122
73.2869
78.3642
81.8797
81.6327
81.7789
82.9184
81.1089
81.0281
83.0721
82.6253
81.5478
81.3415
81.6323
81.1543
81.5134
81.5643
81.3015
81.5069
81.6103
81.3682
79.6997
77.056
82.5936
74.3844
80.1227
79.3757
79.3336
81.15
78.0003
76.8577
79.3186
78.6942
80.6091
107.73
104.645
76.7616
79.6383
81.94
81.8137
83.3544
81.7171
81.6406
79.7302
91.6358
86.7999
107.688
79.1024
79.7877
81.6635
81.7168
82.7412
82.8869
82.2672
80.085
86.3419
81.9359
78.9969
80.0865
82.1033
88.58
82.4988
78.6992
77.1045
82.3092
83.2342
83.102
82.7477
79.9694
81.7205
81.995
80.9136
80.5414
82.9804
89.8061
81.4249
88.4743
82.013
84.1709
77.2512
81.8081
79.7271
82.4331
83.0653
82.2422
81.2054
79.0826
81.5208
81.6983
81.8227
82.9207
82.1004
107.647
108.443
82.9927
82.62
81.6692
81.7166
82.7938
82.4798
81.0856
87.3593
83.2192
82.4879
82.2269
79.4852
81.594
81.6672
82.19
88.3871
81.6838
80.515
82.8335
82.4626
87.7723
81.6567
80.2309
81.8355
83.2103
82.434
86.7841
92.3481
81.1738
83.0356
83.2655
84.6109
74.532
80.537
81.1425
93.6757
82.5643
83.0813
79.5307
81.3783
83.5783
81.5485
82.2786
82.7105
81.2479
81.1597
82.9996
90.6905
78.6203
88.4455
81.667
83.1469
81.2102
82.8108
81.8322
86.9027
79.0425
91.712
79.5707
79.9578
85.2513
87.5329
88.6503
82.9872
81.1702
81.7335
92.6058
80.1543
81.9837
81.7954
80.3194
82.5506
82.6655
81.5453
83.6561
80.5966
81.5556
82.531
86.6849
81.1078
80.1452
81.7848
84.4838
91.6046
82.1837
80.9146
82.4395
81.6392
80.5392
80.947
82.3942
79.1735
81.9214
113.66
79.9417
81.1716
81.3195
88.3245
81.4493
82.2489
82.5594
88.3067
81.5979
81.6291
80.3625
96.0194
85.3753
82.3728
82.855
81.512
88.3414
81.293
82.1586
83.0825
83.0293
81.6943
80.0711
82.2682
80.8378
81.8483
91.0294
85.6462
81.6613
81.505
88.6395
87.8462
81.5393
81.3694
83.353
81.6675
82.5053
82.5523
88.8764
80.6782
83.502
81.6976
81.5202
82.3017
81.2709
88.509
82.4568
83.4613
107.476
106.69
77.7058
79.0807
77.3222
87.7509
82.8821
82.3382
78.9176
79.8378
81.6994
82.8858
81.3217
83.2687
82.4125
80.2206
105.845
83.4077
83.1216
82.8136
81.2122
79.7714
81.4868
80.9581
88.6137
97.5908
82.9511
80.1827
92.7389
78.5194
81.8891
119.261
84.9146
81.3502
81.2283
100.535
80.951
81.2315
80.4783
81.5901
82.1068
88.966
82.254
82.4803
99.6933
82.6374
88.7576
90.2627
88.2193
82.8977
77.0616
89.4311
81.1891
81.5245
98.7851
80.9672
80.9711
82.6299
98.1932
97.5328
83.799
91.7303
82.6091
82.7238
81.1958
82.5449
83.3808
81.4486
109.017
82.5687
90.9045
89.3757
93.5327
94.4508
98.93
80.2633
81.9096
95.1151
96.8248
95.193
82.5891
82.384
87.8468
88.6692
89.1531
98.7442
83.9647
96.892
101.731
93.7206
88.1354
83.4243
81.5503
100.269
90.4572
96.0355
82.2338
90.225
81.2241
81.1085
81.5632
92.3307
81.7548
82.2249
81.297
79.595
82.4426
81.9499
94.3464
82.5335
80.4417
97.585
81.2792
81.0208
81.9751
99.4963
82.6622
90.7559
101.938
130.56
87.1996
88.4955
81.2423
80.4764
85.5199
87.8839
81.1138
83.5177
101.928
78.7868
81.5936
81.3471
85.893
81.5003
81.3554
82.2723
89.2096
88.0116
81.8438
81.446
68.1869
89.8564
89.6301
87.0916
87.2001
87.3087
90.5154
88.6721
93.4807
81.6767
81.4691
89.1655
83.6156
83.4155
77.7545
81.5061
83.1539
81.3984
81.222
81.6888
77.3024
82.775
81.2215
88.1313
82.2034
81.1436
89.9014
105.827
90.3344
87.0161
78.2212
104.032
80.1086
82.3779
81.8959
88.4328
82.0601
82.759
82.3887
81.3384
111.989
82.6718
79.7135
81.1284
88.1835
88.6814
88.2961
82.6484
80.7068
79.813
80.1234
82.448
87.0455
99.2723
81.5548
77.9254
107.297
90.2096
82.5557
82.8448
81.444
97.9352
75.9117
78.2842
81.4532
88.5643
81.8185
76.4352
82.1408
80.9319
88.8598
82.6996
82.543
76.2792
74.9583
106.453
90.6752
81.4434
78.9576
88.788
83.0079
80.4693
81.3411
80.6159
81.0193
79.5607
79.9462
79.2384
81.5231
81.7374
103.13
105.457
90.4611
82.879
81.2879
80.9253
82.5237
88.2285
82.6657
79.3889
81.3619
82.8987
82.1775
88.9869
79.8878
77.8908
81.2418
89.0112
82.5006
88.3804
88.4024
91.0462
77.1474
88.7659
81.4488
99.6352
82.5339
99.7336
83.2604
83.9406
83.7305
83.8596
83.9495
83.578
83.4331
81.5848
81.679
78.7005
88.7445
83.3159
82.591
82.5876
61.0218
82.0308
79.975
83.0092
81.6505
81.8357
82.4168
81.2224
99.9943
80.857
83.2297
81.4023
81.1272
82.0111
82.6794
81.406
79.4047
79.2986
81.8714
83.0294
83.1621
85.4992
81.8934
81.9693
81.2112
81.2174
81.9327
77.6251
81.3057
80.9773
88.4933
83.0695
83.1094
80.87
82.5305
91.399
81.1813
81.1906
80.4117
76.3672
81.846
89.5226
82.7965
85.4389
81.8607
88.8885
81.1773
82.6218
89.0143
80.6956
82.9503
94.5913
66.9327
81.9471
79.7363
80.4324
89.2624
76.4573
78.0637
89.0398
80.1925
83.4754
86.068
82.6197
81.4978
81.4208
88.3117
91.5248
104.117
81.7982
84.0069
81.3206
81.0938
81.4841
83.0438
86.2128
79.5691
75.8352
91.4406
80.2532
81.6455
78.8252
83.5548
103.071
81.1591
80.9349
82.8882
82.5496
82.6788
81.5087
82.9922
88.068
81.2138
79.6342
81.9314
81.878
81.4202
79.6107
81.2298
79.2168
75.158
81.3634
97.1266
83.6066
79.6391
87.3873
81.5985
82.5594
74.915
78.1785
82.5049
91.2828
80.9842
107.917
81.2889
84.0814
83.7529
70.3784
110.297
82.6012
83.8657
88.692
87.5635
81.59
82.4388
87.8042
82.5167
87.8705
88.6249
81.5791
81.8996
85.7541
89.1269
89.0397
81.8748
81.4139
80.6989
80.9746
108.954
81.8684
83.5122
104.892
88.5875
83.4939
80.5643
92.265
80.6055
109.384
86.0795
82.9631
80.8852
89.1723
82.5998
85.4054
82.6264
82.3784
83.0273
66.8313
82.1746
89.153
83.2465
81.3446
79.1302
92.4385
80.3722
83.8094
81.2989
105.457
80.1604
106.474
82.9269
80.8402
100.201
102.537
81.4338
78.7277
89.1441
82.1394
68.5403
82.8867
80.8173
81.2926
75.2899
78.5831
89.1743
80.7136
82.89
82.5663
81.0825
83.1302
81.6043
83.7796
82.069
81.3317
81.7022
82.333
82.0025
81.2635
82.6814
87.9563
69.9519
81.9016
82.1322
88.7139
75.4166
81.3186
81.2292
83.6123
80.1596
79.7342
82.2388
92.3848
99.8233
89.3579
71.245
81.9846
81.4346
80.7889
81.6032
103.6
106.053
81.2895
81.8437
82.6885
88.4299
76.3401
83.1664
81.5333
86.895
86.7092
106.614
81.003
81.0691
81.6464
100.762
75.6872
102.552
82.3787
81.2571
84.2608
89.4761
82.9029
89.6403
81.2831
79.7267
87.0632
91.0482
82.2357
83.8859
81.3611
69.7743
81.2764
83.3612
89.0309
83.525
79.6267
79.4567
80.0599
83.5414
90.0751
83.3284
76.7224
81.337
88.4192
88.1761
90.0809
81.5412
83.3334
79.3541
80.4571
77.9866
81.4341
80.4969
81.4656
79.2142
81.5578
86.924
81.8487
83.7091
105.299
83.8677
108.102
87.5291
87.2977
90.2163
74.8613
81.9052
65.9301
82.0553
81.2126
69.5351
81.8701
79.6385
82.5291
80.7775
82.0903
85.0715
76.1606
76.2539
81.0089
81.8319
77.0584
82.2866
107.131
81.875
78.0692
88.377
81.7201
82.5406
81.2645
82.2744
83.6089
81.3526
81.9702
77.0516
82.1881
88.6739
83.5143
88.4472
85.8326
82.6255
75.5643
80.5045
83.2692
82.7315
81.9303
81.3241
88.9536
83.9133
88.0977
85.3134
83.1386
88.8341
91.3279
83.8714
81.7112
112.084
117.457
82.7061
82.2719
81.2729
81.6237
80.8693
80.7077
87.8969
84.984
84.1992
80.6925
82.9583
86.9229
82.1504
83.7946
76.6848
81.6715
81.3456
88.8238
83.1942
81.7959
81.5776
81.2978
81.1735
88.5047
82.4017
81.6859
86.6513
90.8696
82.2172
81.1754
82.1711
82.058
82.8281
82.1434
82.5509
79.9833
82.2881
82.545
81.1305
81.6587
81.7445
84.0041
76.05
81.4794
81.1764
82.6444
82.8713
82.6605
82.5051
79.7577
89.6224
80.8148
62.1526
88.2517
79.5315
81.8565
108.668
81.7425
81.0573
74.7777
81.9279
80.0362
81.472
88.1307
80.9919
80.807
80.5619
86.8451
81.3795
81.9619
78.7047
79.4897
82.3665
88.4105
83.1233
82.9892
81.0662
80.4339
108.381
79.2316
84.7434
81.6853
83.1976
90.6914
80.5147
90.8108
89.851
83.0331
83.9369
81.2116
82.1452
82.5877
83.3248
79.1475
112.822
81.6064
84.0622
92.8531
79.3541
104.576
87.9489
91.8652
82.5454
87.1276
81.644
81.8365
80.4748
82.9804
72.1521
80.7739
81.2779
77.6039
85.4778
78.0542
82.9436
84.0829
82.9893
89.1743
88.9642
87.6793
81.5868
78.0147
86.8901
88.1969
89.0081
88.3895
82.5125
81.1115
81.81
81.3823
89.3624
105.444
82.141
81.5099
81.7922
81.0992
83.2808
88.413
90.0518
72.309
114.897
75.7212
76.7879
107.215
73.4093
76.3747
89.5541
)
;

boundaryField
{
    frontAndBack
    {
        type            empty;
    }
    wallOuter
    {
        type            zeroGradient;
    }
    inlet
    {
        type            zeroGradient;
    }
    outlet
    {
        type            fixedValue;
        value           nonuniform 0();
    }
    wallInner
    {
        type            zeroGradient;
    }
    procBoundary0to1
    {
        type            processor;
        value           nonuniform List<scalar> 
29
(
77.9236
77.8168
72.6604
72.6604
73.8254
73.8254
107.254
74.4709
77.7228
73.3654
74.1016
74.0613
72.9912
78.2722
107.587
107.903
73.3806
74.0153
72.5192
78.1409
107.776
107.643
75.3605
107.933
108.092
74.0153
108.661
107.151
107.933
)
;
    }
    procBoundary0to2
    {
        type            processor;
        value           nonuniform List<scalar> 
42
(
80.1891
80.417
81.8281
81.7737
80.185
80.1891
81.8281
81.8332
80.0118
80.5356
80.6189
80.9468
80.6189
80.9156
80.9206
79.8652
80.9206
80.9316
80.1317
78.6513
78.6513
80.9316
81.2433
79.0518
79.0518
81.2317
79.3648
81.2144
79.6465
80.7217
80.7217
81.1632
81.1529
81.23
81.4006
81.8281
80.7895
81.8126
79.6465
81.8332
81.7667
81.6219
)
;
    }
}


// ************************************************************************* //
