# vtk DataFile Version 2.0
track0
ASCII
DATASET POLYDATA
POINTS 13706 double
1.66533e-17 0.5 -5.37764e-17
0.391304 0.5 0
0.393043 0.494904 -5.55112e-17
0.395013 0.489892 -1.11022e-16
0.397204 0.484973 -1.66533e-16
0.399612 0.480156 -1.66533e-16
0.4 0.47946 -1.66533e-16
0.409005 0.463568 -1.66533e-16
0.420553 0.449415 -1.11022e-16
0.434366 0.437463 -9.02056e-17
0.450052 0.428103 -8.32667e-17
0.5 0.409112 -2.498e-16
0.52 0.412377 -2.22045e-16
0.538821 0.419888 -1.52656e-16
0.555692 0.431115 -1.94289e-16
0.570161 0.445304 -1.80411e-16
0.6 0.487121 -1.66533e-16
0.600664 0.489697 -1.66533e-16
0.601291 0.492282 -1.66533e-16
0.601881 0.494876 -1.11022e-16
0.602436 0.497477 -1.66533e-16
0.602938 0.5 -1.11022e-16
0.606663 0.52 -1.38778e-16
0.608322 0.540276 -2.22045e-16
0.607895 0.560616 -2.08167e-16
0.605371 0.580803 -1.11022e-16
0.600859 0.6 -1.66533e-16
0.600688 0.600487 -1.66533e-16
0.600514 0.600974 -1.98626e-16
0.600339 0.601461 -2.11636e-16
0.600163 0.601946 -2.08167e-16
0.6 0.60239 -2.77556e-16
0.592764 0.621912 -2.77556e-16
0.582905 0.640249 -1.66533e-16
0.570377 0.656878 -1.66533e-16
0.555301 0.671237 -2.22045e-16
0.513115 0.7 -2.22045e-16
0.510492 0.7006 -1.66533e-16
0.507858 0.70115 -1.66533e-16
0.505215 0.70165 -1.66533e-16
0.502562 0.702101 -1.66533e-16
0.5 0.702489 -1.11022e-16
0.48 0.705215 -1.11022e-16
0.459821 0.705699 -5.55112e-17
0.43971 0.703974 -1.11022e-16
0.419902 0.700091 -5.55112e-17
0.419608 0.7 -2.77556e-17
0.415686 0.698776 -2.77556e-17
0.411793 0.697465 -2.77556e-17
0.40793 0.696067 -2.08167e-17
0.4041 0.694582 0
0.4 0.692885 0
0.38 0.683964 0
0.3613 0.672566 -1.38778e-17
0.344209 0.658873 -2.08167e-17
0.329056 0.643063 -2.77556e-17
0.3 0.60316 -5.55112e-17
0.299786 0.602528 -5.55112e-17
0.299574 0.601895 0
0.299365 0.601262 -5.55112e-17
0.299158 0.600627 -5.55112e-17
0.298955 0.6 0
0.292577 0.58 0
0.288413 0.559425 -5.55112e-17
0.286409 0.538528 -1.38778e-17
0.286492 0.517536 0
0.288234 0.5 -5.55112e-17
0.290587 0.486289 -1.11022e-16
0.293621 0.472712 -5.55112e-17
0.297366 0.459313 -5.55112e-17
0.3 0.451535 -2.77556e-17
0.303867 0.441228 5.55112e-17
0.308217 0.431115 2.77556e-17
0.313045 0.421222 2.77556e-17
0.318347 0.411574 5.55112e-17
0.325473 0.4 5.55112e-17
0.33963 0.38 8.32667e-17
0.3559 0.361677 4.16334e-17
0.374088 0.345257 9.02056e-17
0.393981 0.33095 1.11022e-16
0.4 0.327628 5.55112e-17
0.410902 0.322102 1.11022e-16
0.422139 0.317295 5.55112e-17
0.433653 0.313195 8.32667e-17
0.445387 0.309775 1.04083e-16
0.488229 0.3 5.55112e-17
0.490583 0.299974 1.11022e-16
0.492938 0.299975 1.11022e-16
0.495198 0.3 1.11022e-16
0.496158 0.300021 1.11022e-16
0.497119 0.300046 5.55112e-17
0.498079 0.300076 5.55112e-17
0.499039 0.300109 5.55112e-17
0.5 0.300148 8.23994e-17
0.52 0.301033 1.11022e-16
0.539783 0.3041 9.71445e-17
0.559094 0.309381 1.11022e-16
0.577679 0.316822 1.11022e-16
0.6 0.32879 1.66533e-16
0.618181 0.343032 1.66533e-16
0.634114 0.35975 1.38778e-16
0.6478 0.378353 2.22045e-16
0.65912 0.398483 2.22045e-16
0.659763 0.4 2.22045e-16
0.66781 0.419359 2.22045e-16
0.674327 0.439286 1.52656e-16
0.679554 0.459588 1.11022e-16
0.683669 0.480145 1.66533e-16
0.686629 0.5 1.11022e-16
0.688503 0.52 1.11022e-16
0.689393 0.540068 5.55112e-17
0.689464 0.560155 5.55112e-17
0.688702 0.580228 1.11022e-16
0.687114 0.6 1.11022e-16
0.68447 0.62 1.11022e-16
0.680549 0.639789 1.11022e-16
0.675438 0.659305 1.11022e-16
0.669017 0.67843 1.38778e-16
0.659824 0.7 1.11022e-16
0.648501 0.72 4.16334e-17
0.634558 0.73827 -4.16334e-17
0.618133 0.754346 -8.32667e-17
0.6 0.76778 -5.55112e-17
0.588116 0.774224 -1.66533e-16
0.575735 0.779649 -2.22045e-16
0.562984 0.784139 -2.77556e-16
0.550002 0.78791 -3.05308e-16
0.5 0.799529 -3.88578e-16
0.497478 0.799623 -3.33067e-16
0.494956 0.799699 -3.33067e-16
0.492433 0.799759 -3.33067e-16
0.48991 0.799802 -3.88578e-16
0.47065 0.8 -4.44089e-16
0.47065 0.8 -4.44089e-16
0.47065 0.8 -4.44089e-16
0.47065 0.8 -4.44089e-16
0.47065 0.8 -4.44089e-16
0.47065 0.8 -4.16334e-16
0.45652 0.799425 -4.30211e-16
0.442422 0.798314 -4.44089e-16
0.428377 0.796667 -4.44089e-16
0.414404 0.794484 -4.02456e-16
0.4 0.791666 -3.88578e-16
0.38 0.786798 -4.44089e-16
0.360336 0.780714 -4.44089e-16
0.341066 0.773478 -4.71845e-16
0.322287 0.765048 -4.44089e-16
0.3 0.752958 -3.88578e-16
0.285 0.742367 -3.46945e-16
0.270834 0.730684 -3.88578e-16
0.257584 0.717971 -3.33067e-16
0.245485 0.704158 -2.70617e-16
0.242469 0.7 -1.66533e-16
0.233976 0.687618 -2.22045e-16
0.226503 0.674594 -1.94289e-16
0.220043 0.661039 -2.22045e-16
0.21444 0.647109 -2.22045e-16
0.2 0.60385 -2.77556e-16
0.199882 0.60308 -2.77556e-16
0.199767 0.60231 -2.22045e-16
0.199653 0.601539 -2.22045e-16
0.199541 0.600768 -2.22045e-16
0.199431 0.6 -2.77556e-16
0.196616 0.58 -2.22045e-16
0.194959 0.559871 -2.22045e-16
0.194433 0.539681 -2.22045e-16
0.195005 0.519492 -2.22045e-16
0.196585 0.5 -2.22045e-16
0.197268 0.494669 -2.22045e-16
0.198004 0.489346 -2.22045e-16
0.1988 0.484031 -2.77556e-16
0.199657 0.478726 -2.22045e-16
0.2 0.47675 -2.77556e-16
0.202731 0.4614 -2.77556e-16
0.206016 0.446159 -2.77556e-16
0.209866 0.431051 -2.77556e-16
0.21429 0.416101 -2.81025e-16
0.219743 0.4 -2.77556e-16
0.227725 0.38 -2.498e-16
0.236874 0.360507 -2.35922e-16
0.24714 0.341578 -2.08167e-16
0.258518 0.323296 -2.22045e-16
0.275518 0.3 -2.77556e-16
0.280414 0.294652 -3.33067e-16
0.285425 0.28941 -3.33067e-16
0.290547 0.284277 -2.77556e-16
0.295785 0.279263 -2.22045e-16
0.3 0.275422 -2.22045e-16
0.317214 0.260338 -1.94289e-16
0.335739 0.246894 -1.80411e-16
0.355388 0.235156 -1.66533e-16
0.375906 0.225012 -1.11022e-16
0.4 0.215292 -1.11022e-16
0.410369 0.212233 -1.38778e-16
0.420853 0.209598 -1.66533e-16
0.431419 0.207311 -1.38778e-16
0.442052 0.205363 -1.11022e-16
0.477726 0.2 -1.11022e-16
0.482181 0.199802 -1.11022e-16
0.486638 0.19966 -1.11022e-16
0.491096 0.199571 -1.11022e-16
0.495555 0.199537 -1.11022e-16
0.5 0.199556 -1.66533e-16
0.505602 0.199644 -1.66533e-16
0.511202 0.199826 -1.94289e-16
0.514681 0.2 -2.22045e-16
0.531744 0.201039 -2.498e-16
0.548726 0.203004 -2.498e-16
0.565572 0.205917 -2.22045e-16
0.582225 0.209783 -2.77556e-16
0.6 0.214995 -2.77556e-16
0.62 0.222809 -3.19189e-16
0.639089 0.232641 -3.33067e-16
0.657102 0.244327 -3.747e-16
0.673874 0.257735 -3.33067e-16
0.7 0.28514 -3.88578e-16
0.701801 0.288112 -3.88578e-16
0.703558 0.29111 -3.88578e-16
0.705272 0.294133 -3.88578e-16
0.706944 0.297179 -4.02456e-16
0.708438 0.3 -3.88578e-16
0.718673 0.32 -4.05925e-16
0.727149 0.340807 -4.16334e-16
0.734082 0.362178 -4.44089e-16
0.739698 0.383932 -4.16334e-16
0.743052 0.4 -4.996e-16
0.746588 0.42 -4.996e-16
0.749543 0.440094 -4.92661e-16
0.752003 0.460255 -4.996e-16
0.754031 0.480463 -5.13478e-16
0.755537 0.5 -5.55112e-16
0.756626 0.52 -5.55112e-16
0.757305 0.540018 -5.82867e-16
0.757601 0.560046 -5.68989e-16
0.757697 0.580075 -5.41234e-16
0.757364 0.6 -4.44089e-16
0.756559 0.62 -5.55112e-16
0.755228 0.639972 -5.68989e-16
0.753362 0.659901 -5.82867e-16
0.751011 0.679779 -5.60316e-16
0.747879 0.7 -5.72459e-16
0.743862 0.72 -5.27356e-16
0.738769 0.739754 -5.10009e-16
0.732475 0.759158 -5.27356e-16
0.724661 0.778002 -5.51642e-16
0.712974 0.8 -6.10623e-16
0.71038 0.803534 -5.55112e-16
0.707685 0.806993 -5.55112e-16
0.704892 0.810372 -5.06539e-16
0.702026 0.81369 -4.85723e-16
0.7 0.815935 -4.44089e-16
0.684356 0.832748 -4.44089e-16
0.666228 0.846847 -4.23273e-16
0.646082 0.857869 -4.23273e-16
0.624766 0.866417 -4.16334e-16
0.6 0.874246 -3.33067e-16
0.58 0.878689 -3.33067e-16
0.559686 0.88135 -3.88578e-16
0.539288 0.883262 -3.60822e-16
0.518837 0.88449 -4.16334e-16
0.5 0.885015 -3.88578e-16
0.48 0.884821 -4.44089e-16
0.460026 0.883781 -4.16334e-16
0.440081 0.882288 -4.44089e-16
0.420175 0.880336 -4.15466e-16
0.4 0.877886 -4.44089e-16
0.38 0.874594 -4.996e-16
0.360124 0.870621 -5.13478e-16
0.340366 0.866099 -5.13478e-16
0.320732 0.861062 -5.41234e-16
0.3 0.854669 -6.66134e-16
0.28 0.846902 -6.66134e-16
0.260316 0.838366 -6.52256e-16
0.240987 0.829053 -6.245e-16
0.222456 0.818241 -6.66134e-16
0.2 0.802288 -6.10623e-16
0.199507 0.801831 -6.10623e-16
0.199014 0.801372 -6.66134e-16
0.198522 0.800913 -6.66134e-16
0.198032 0.800452 -6.66134e-16
0.197552 0.8 -6.66134e-16
0.178041 0.781532 -6.66134e-16
0.161156 0.760637 -6.52256e-16
0.14715 0.737713 -7.21645e-16
0.135655 0.713431 -7.77156e-16
0.130669 0.7 -7.77156e-16
0.124535 0.680801 -7.63278e-16
0.12017 0.661125 -7.21645e-16
0.116764 0.641261 -7.21645e-16
0.114119 0.62128 -7.07767e-16
0.112083 0.6 -7.35523e-16
0.111065 0.58 -7.21645e-16
0.110943 0.559974 -7.77156e-16
0.111337 0.539952 -7.77156e-16
0.112244 0.519947 -7.63278e-16
0.113657 0.5 -7.77156e-16
0.115774 0.48 -7.77156e-16
0.118607 0.460089 -7.49401e-16
0.121897 0.440248 -7.21645e-16
0.125654 0.42049 -6.93889e-16
0.130145 0.4 -6.66134e-16
0.135558 0.38 -6.93889e-16
0.141584 0.360176 -7.35523e-16
0.148192 0.340538 -7.45931e-16
0.155465 0.321137 -7.21645e-16
0.164756 0.3 -7.49401e-16
0.171805 0.286698 -7.21645e-16
0.179144 0.273555 -7.21645e-16
0.186833 0.260613 -7.77156e-16
0.195059 0.248005 -7.32053e-16
0.2 0.241127 -7.21645e-16
0.206243 0.232901 -7.21645e-16
0.212803 0.224926 -7.21645e-16
0.219673 0.217218 -7.77156e-16
0.226849 0.209792 -6.93889e-16
0.237195 0.2 -7.21645e-16
0.249756 0.189547 -6.66134e-16
0.262882 0.179813 -7.49401e-16
0.276521 0.170811 -7.77156e-16
0.290592 0.162501 -8.88178e-16
0.3 0.157466 -8.74301e-16
0.32 0.147465 -8.32667e-16
0.340806 0.13927 -8.88178e-16
0.362171 0.132671 -8.60423e-16
0.383799 0.126989 -8.88178e-16
0.4 0.123545 -8.88178e-16
0.42 0.120089 -9.99092e-16
0.440167 0.117805 -9.71445e-16
0.460393 0.116117 -9.4369e-16
0.48066 0.115015 -9.99201e-16
0.5 0.114508 -9.4369e-16
0.52 0.114857 -8.88178e-16
0.539968 0.116042 -8.32667e-16
0.559891 0.117826 -8.32667e-16
0.57975 0.120221 -7.77156e-16
0.6 0.123301 -8.04912e-16
0.62 0.127967 -8.04912e-16
0.639714 0.133725 -7.77156e-16
0.659099 0.140505 -7.35523e-16
0.678107 0.148281 -7.21645e-16
0.7 0.160576 -8.04912e-16
0.709664 0.16846 -8.60423e-16
0.718871 0.176874 -8.32667e-16
[...]
POINT_DATA 13706
 FIELD attributes 1
U 3 13706 float
2.2299e-19 	-4.0101e-18 	-2.12192e-36
0.00284824 	-0.00834653 	0 0.0032585 	-0.00828962 	0 0.00362034 	-0.00813002 	3.39544e-23 0.00395872 	-0.00791933 	8.10908e-23 0.00428811 	-0.00768813 	1.28987e-22 0.00433541 	-0.0076509 	1.36175e-22 0.0056032 	-0.00686735 	1.81833e-22 0.00678033 	-0.00586655 	1.99105e-22 0.00782972 	-0.00467255 	1.86763e-22 0.008445 	-0.00321095 	2.3535e-22 0.00950783 	0.00155241 	3.74835e-22 0.00922511 	0.00368148 	2.78885e-22 0.00856419 	0.00569935 	1.70286e-22 0.00771352 	0.00756396 	5.44083e-23 0.00661978 	0.00927726 	0 0.00337998 	0.0131144 	0 0.00321078 	0.0132369 	0 0.00304123 	0.0133551 	0 0.00287136 	0.013469 	0 0.0027012 	0.0135787 	0 0.00253995 	0.013636 	5.35956e-23 0.00115571 	0.014126 	0 -0.000300611 	0.0143008 	0 -0.001777 	0.0142136 	0 -0.0032579 	0.0138635 	0 -0.00467076 	0.0132453 	5.28735e-24 -0.00470806 	0.0132233 	1.23112e-24 -0.004746 	0.0131952 	0 -0.00478422 	0.0131645 	0 -0.00482244 	0.0131336 	0 -0.00485733 	0.0131052 	0 -0.00645101 	0.0119975 	0 -0.0080379 	0.0106691 	0 -0.00958226 	0.00912732 	0 -0.0109409 	0.00745956 	0 -0.0137692 	0.00314832 	0 -0.0138817 	0.0028979 	0 -0.01399 	0.00264768 	0 -0.0140944 	0.00239777 	0 -0.0141946 	0.00214823 	0 -0.0142128 	0.0019371 	0 -0.0145634 	0.000349178 	-3.38406e-22 -0.0146187 	-0.00125348 	-7.89196e-22 -0.0144702 	-0.00283661 	-1.28897e-21 -0.0141226 	-0.0043819 	-1.83121e-21 -0.0141143 	-0.00440463 	-1.84004e-21 -0.0140318 	-0.00472655 	-1.90178e-21 -0.0139432 	-0.00504701 	-1.96087e-21 -0.0138485 	-0.00536586 	-2.01728e-21 -0.013729 	-0.00568516 	-2.07099e-21 -0.0135304 	-0.00603534 	-2.12597e-21 -0.0126822 	-0.00772976 	-1.64759e-21 -0.0115557 	-0.00925823 	-1.29694e-21 -0.0103238 	-0.0107711 	-7.49745e-22 -0.0087251 	-0.0119823 	-6.48779e-22 -0.00491193 	-0.0144995 	-1.46374e-22 -0.00486252 	-0.0145302 	-1.07182e-22 -0.0048131 	-0.0145607 	-6.80616e-23 -0.00476367 	-0.0145911 	-2.90136e-23 -0.00471383 	-0.0146157 	-6.25034e-24 -0.00466345 	-0.0146235 	-3.03619e-23 -0.00310395 	-0.0153362 	0 -0.00151928 	-0.0158465 	0 6.33028e-05 	-0.0161945 	0 0.00162789 	-0.0163838 	0 0.00274027 	-0.0159666 	-1.55344e-22 0.00359057 	-0.0160699 	1.07705e-23 0.00439353 	-0.015717 	5.23909e-23 0.0051855 	-0.0153138 	9.53464e-23 0.00564505 	-0.0150461 	1.21437e-22 0.00634009 	-0.0147409 	1.37573e-22 0.00703414 	-0.0144119 	1.52014e-22 0.0077256 	-0.0140594 	1.64703e-22 0.00835754 	-0.0135741 	2.20493e-22 0.00904598 	-0.0127792 	3.55617e-22 0.0105028 	-0.0118279 	6.32198e-22 0.0118824 	-0.0107271 	8.99193e-22 0.0126934 	-0.00912973 	1.09042e-21 0.0133057 	-0.00734341 	1.25392e-21 0.0134439 	-0.00681387 	1.2946e-21 0.0139945 	-0.00598653 	1.46281e-21 0.014422 	-0.00513588 	1.53904e-21 0.0146047 	-0.0042567 	1.41335e-21 0.014771 	-0.00337014 	1.29265e-21 0.0153064 	-0.000166922 	8.78338e-22 0.0153228 	2.38755e-06 	8.60977e-22 0.0153381 	0.000171744 	8.43432e-22 0.0153515 	0.000334356 	8.26416e-22 0.0153571 	0.000403187 	8.19463e-22 0.0153627 	0.000471957 	8.12553e-22 0.0153681 	0.000540665 	8.05685e-22 0.0153734 	0.00060931 	7.9886e-22 0.0153749 	0.000680993 	7.90076e-22 0.0150164 	0.00232783 	6.24337e-22 0.0145972 	0.00399204 	4.43677e-22 0.0141241 	0.00565455 	2.49247e-22 0.0136031 	0.0072939 	4.34757e-23 0.012333 	0.00966119 	0 0.0113795 	0.0119399 	0 0.0103433 	0.0140586 	0 0.00893163 	0.0158842 	5.02279e-22 0.00741899 	0.0174868 	1.10629e-21 0.00731079 	0.017587 	1.14778e-21 0.00626118 	0.0191474 	9.30537e-22 0.00524604 	0.020373 	9.21302e-22 0.00426481 	0.0213059 	1.09753e-21 0.00330241 	0.0221524 	1.23184e-21 0.00211448 	0.0225707 	1.58036e-21 0.00101645 	0.0229145 	1.302e-21 8.04681e-05 	0.0228628 	1.08108e-21 -0.000862865 	0.0227427 	8.39928e-22 -0.00181206 	0.0225533 	5.7865e-22 -0.00291474 	0.0220547 	5.35927e-22 -0.00425478 	0.0214718 	3.7989e-22 -0.00534987 	0.0204289 	1.74621e-22 -0.00648312 	0.0193096 	-3.08078e-23 -0.00766751 	0.0179896 	-1.77617e-22 -0.00911545 	0.0161014 	-2.23949e-22 -0.0109885 	0.0143989 	-1.06693e-22 -0.0127938 	0.0125219 	0 -0.0140544 	0.0104125 	0 -0.0152257 	0.0082562 	0 -0.0162501 	0.00712014 	0 -0.0171345 	0.00603317 	0 -0.0175937 	0.00511007 	0 -0.0180443 	0.00419305 	0 -0.0197018 	0.000736083 	0 -0.0197126 	0.000595542 	-7.91718e-23 -0.0197042 	0.000464792 	-1.7509e-22 -0.0196956 	0.000333873 	-2.70408e-22 -0.0196867 	0.000202788 	-3.65121e-22 -0.0196165 	-0.000798881 	-1.08331e-21 -0.0196165 	-0.000798881 	-1.08331e-21 -0.0196165 	-0.000798881 	-1.08331e-21 -0.0196165 	-0.000798881 	-1.08331e-21 -0.0196165 	-0.000798881 	-1.08331e-21 -0.0196165 	-0.000798881 	-1.08331e-21 -0.0195531 	-0.00154013 	-1.58362e-21 -0.0194809 	-0.00228444 	-2.063e-21 -0.0194 	-0.00303073 	-2.52064e-21 -0.0193106 	-0.00377793 	-2.95579e-21 -0.0189118 	-0.00460306 	-3.57419e-21 -0.0185614 	-0.00574281 	-5.3703e-21 -0.0178465 	-0.00670122 	-6.50761e-21 -0.0171354 	-0.00769277 	-7.71702e-21 -0.0160168 	-0.0086883 	-7.73339e-21 -0.0140395 	-0.00991366 	-5.97587e-21 -0.0133231 	-0.0109875 	-6.74829e-21 -0.0125775 	-0.012067 	-7.43517e-21 -0.011237 	-0.0128297 	-6.16355e-21 -0.00983871 	-0.0135653 	-4.67191e-21 -0.00944414 	-0.0137673 	-4.22728e-21 -0.00848623 	-0.0147903 	-3.10761e-21 -0.00754019 	-0.0158209 	-1.94017e-21 -0.00657605 	-0.0163513 	-2.1604e-21 -0.00562863 	-0.0168617 	-2.40086e-21 -0.00281663 	-0.0184327 	-2.94543e-21 -0.00277391 	-0.018463 	-2.94444e-21 -0.00273124 	-0.0184931 	-2.94333e-21 -0.00268862 	-0.0185232 	-2.94211e-21 -0.00264605 	-0.0185533 	-2.94077e-21 -0.00261111 	-0.0185495 	-2.92517e-21 -0.00155042 	-0.0188305 	-2.8033e-21 -0.000496255 	-0.0190422 	-2.5891e-21 0.000544774 	-0.0192195 	-2.30226e-21 0.00156993 	-0.0193629 	-1.94585e-21 0.00246447 	-0.0192352 	-1.37466e-21 0.0026704 	-0.0193142 	-1.21851e-21 0.00287562 	-0.0191942 	-1.16887e-21 0.00308105 	-0.0190732 	-1.12023e-21 0.00328666 	-0.0189511 	-1.07261e-21 0.00336342 	-0.0189051 	-1.05524e-21 0.00401283 	-0.018619 	-8.39279e-22 0.0046737 	-0.0183385 	-6.16249e-22 0.00534546 	-0.0180642 	-3.86247e-22 0.0060274 	-0.0177965 	-1.49439e-22 0.00671566 	-0.0168285 	-9.52682e-23 0.00779477 	-0.0166069 	-7.49204e-23 0.00880935 	-0.0162424 	-4.64683e-23 0.00960526 	-0.015434 	2.94589e-23 0.0101992 	-0.0139764 	2.64777e-22 0.0110598 	-0.012081 	5.89003e-22 0.0113591 	-0.0118831 	6.35611e-22 0.0116611 	-0.011686 	6.83353e-22 0.0118791 	-0.0113694 	7.32399e-22 0.0120446 	-0.0109775 	7.8273e-22 0.012177 	-0.0106702 	8.23257e-22 0.0132441 	-0.00961193 	1.21974e-21 0.0143809 	-0.00859075 	1.64688e-21 0.0151152 	-0.00747318 	1.67647e-21 0.0156265 	-0.00630383 	1.49314e-21 0.015845 	-0.0046736 	1.11004e-21 0.0163146 	-0.00410129 	1.14204e-21 0.0164555 	-0.00356217 	1.05155e-21 0.0165488 	-0.00303086 	9.45427e-22 0.0166483 	-0.0025029 	8.4434e-22 0.0170011 	-0.000754052 	5.24112e-22 0.017058 	-0.000546575 	4.92145e-22 0.0171143 	-0.000339518 	4.60938e-22 0.0171701 	-0.00013291 	4.30489e-22 0.0172253 	7.32235e-05 	4.00796e-22 0.0172584 	0.000273857 	3.76541e-22 0.0171849 	0.000558563 	3.55689e-22 0.017086 	0.000852467 	3.35198e-22 0.0170235 	0.00103611 	3.22697e-22 0.0167471 	0.00193828 	2.5423e-22 0.0164864 	0.00285078 	1.82566e-22 0.0162426 	0.00377109 	1.07835e-22 0.0160167 	0.00469638 	3.02285e-23 0.0152822 	0.00597042 	0 0.014842 	0.00764514 	0 0.0141462 	0.00917689 	5.79981e-23 0.0133941 	0.0107078 	1.43303e-22 0.0118932 	0.0124752 	7.72744e-22 0.00947649 	0.0156415 	1.82406e-21 0.00934123 	0.0159399 	1.93396e-21 0.00920807 	0.0162374 	2.04227e-21 0.00907698 	0.0165338 	2.149e-21 0.00888159 	0.0167761 	2.16555e-21 0.00869568 	0.0169908 	2.16783e-21 0.00787423 	0.0193309 	2.86514e-21 0.0068649 	0.0211603 	3.25682e-21 0.00590449 	0.0228727 	3.57441e-21 0.00495391 	0.0237299 	3.19582e-21 0.004283 	0.0242259 	2.82549e-21 0.00381451 	0.0259401 	3.04677e-21 0.00337041 	0.0276251 	3.25652e-21 0.00284239 	0.0283252 	3.18613e-21 0.00216404 	0.0280601 	2.86035e-21 0.00151262 	0.027773 	2.53955e-21 0.000972582 	0.0286763 	3.14957e-21 0.000436011 	0.0295524 	3.75485e-21 0.000140564 	0.0293926 	3.35209e-21 -0.000471296 	0.028259 	2.08766e-21 -0.0010916 	0.0271035 	8.28228e-22 -0.0018042 	0.027077 	-9.4074e-23 -0.00253012 	0.0270163 	-1.01704e-21 -0.00307469 	0.0259997 	-1.27501e-21 -0.00373544 	0.0241183 	-8.2854e-22 -0.00445223 	0.0221641 	-3.74349e-22 -0.0054495 	0.0211398 	-2.2461e-22 -0.00650073 	0.0200418 	-7.14007e-23 -0.00757371 	0.0182634 	2.12585e-22 -0.00865374 	0.0162894 	5.35794e-22 -0.00989772 	0.0134797 	1.03042e-21 -0.0102171 	0.0131171 	1.16929e-21 -0.0105423 	0.0127563 	1.30384e-21 -0.0106926 	0.012376 	1.18242e-21 -0.0108239 	0.0119947 	1.02522e-21 -0.0109169 	0.011733 	9.14097e-22 -0.0125788 	0.00978257 	6.28103e-22 -0.0145196 	0.00794405 	2.96684e-22 -0.0159989 	0.00641583 	3.61153e-23 -0.0161118 	0.00509305 	0 -0.0160363 	0.00356244 	0 -0.0178545 	0.0023391 	0 -0.0181154 	0.00169768 	0 -0.0183447 	0.00110173 	0 -0.0186334 	0.000519409 	0 -0.0179796 	-0.000174261 	0 -0.0189269 	-0.000986188 	-6.76064e-23 -0.0188082 	-0.00140787 	-3.33093e-22 -0.0187338 	-0.00183634 	-5.91835e-22 -0.0187043 	-0.00227147 	-8.43597e-22 -0.0171844 	-0.00282877 	-1.90838e-21 -0.0178747 	-0.00357328 	-3.20864e-21 -0.0179049 	-0.00409784 	-3.99325e-21 -0.0176419 	-0.00452611 	-4.54677e-21 -0.0162707 	-0.00501676 	-4.65465e-21 -0.0144182 	-0.00559924 	-4.63768e-21 -0.0145007 	-0.00628844 	-4.8732e-21 -0.0145428 	-0.00700679 	-5.10585e-21 -0.0132731 	-0.00774453 	-4.53787e-21 -0.0120171 	-0.00853673 	-4.02274e-21 -0.0103424 	-0.00959564 	-3.42515e-21 -0.0103338 	-0.0096217 	-3.41311e-21 -0.0103252 	-0.00964781 	-3.40112e-21 -0.0103022 	-0.00966571 	-3.39561e-21 -0.0102693 	-0.00967802 	-3.39456e-21 -0.0102372 	-0.00969015 	-3.3936e-21 -0.00886597 	-0.0109714 	-2.07243e-21 -0.00762792 	-0.0124851 	-7.78533e-22 -0.00632288 	-0.0133558 	-8.78553e-22 -0.00499356 	-0.0134511 	-2.581e-21 -0.00432419 	-0.0135346 	-3.53061e-21 -0.00333968 	-0.0150562 	-4.5327e-21 -0.00266704 	-0.0155505 	-5.10501e-21 -0.00209323 	-0.0158119 	-5.57926e-21 -0.00154345 	-0.0161387 	-6.08023e-21 -0.000811135 	-0.0159265 	-5.86132e-21 -0.000101205 	-0.0166595 	-5.74947e-21 0.000327373 	-0.0166515 	-5.07603e-21 0.000757391 	-0.0166944 	-4.40982e-21 0.00118856 	-0.016788 	-3.75128e-21 0.00170489 	-0.0161 	-2.69547e-21 0.00237348 	-0.016682 	-1.89016e-21 0.0027332 	-0.016487 	-1.30556e-21 0.00310724 	-0.0163394 	-7.0732e-22 0.00349443 	-0.0159411 	-2.55089e-22 0.00391056 	-0.0144491 	-3.73151e-22 0.00448738 	-0.0147626 	-5.1942e-22 0.00508104 	-0.0151012 	-6.62578e-22 0.00548413 	-0.0146292 	-6.59577e-22 0.00583536 	-0.0132754 	-4.87159e-22 0.00628172 	-0.0118541 	-2.93621e-22 0.00660308 	-0.0118257 	-2.22055e-22 0.0069208 	-0.0116484 	-1.53393e-22 0.00720851 	-0.0110479 	-9.36281e-23 0.00752078 	-0.0104702 	-3.28215e-23 0.00771084 	-0.0101594 	1.94522e-24 0.00807487 	-0.0098169 	6.65025e-23 0.00845979 	-0.00949189 	1.32648e-22 0.00883128 	-0.00913802 	2.00375e-22 0.00905493 	-0.00857031 	2.69905e-22 0.00939332 	-0.00781699 	3.67813e-22 0.00990686 	-0.00734657 	4.21156e-22 0.0104554 	-0.00690102 	4.80892e-22 0.0109088 	-0.00644252 	5.32914e-22 0.0110171 	-0.00589589 	5.50075e-22 0.0111065 	-0.00555409 	5.64559e-22 0.012165 	-0.00479108 	5.54963e-22 0.0132799 	-0.00410177 	5.52928e-22 0.0134898 	-0.00354451 	4.78692e-22 0.0134105 	-0.00285012 	4.10549e-22 0.0132512 	-0.0022898 	3.65933e-22 0.0143168 	-0.00162176 	9.70449e-23 0.0143639 	-0.00119895 	6.74298e-23 0.0144578 	-0.00078607 	3.76875e-23 0.0146017 	-0.000382427 	6.93962e-24 0.0140988 	0.000245759 	5.48732e-23 0.0145872 	0.000865716 	0 0.0144172 	0.00129129 	0 0.0143003 	0.00172465 	0 0.0142378 	0.00216557 	0 0.0129746 	0.00302687 	0 0.0131477 	0.00383983 	0 0.0131108 	0.00458575 	0 0.0128358 	0.0052514 	0 0.0112948 	0.00634253 	2.37385e-22 0.0095749 	0.00781216 	5.44931e-22 0.00932337 	0.0085202 	5.28925e-22 0.00910496 	0.0092505 	5.2179e-22 0.00843217 	0.0100831 	7.74149e-22 0.00765713 	0.0109665 	1.11786e-21 0.00733151 	0.0113789 	1.27929e-21 0.00660554 	0.0135457 	2.2374e-21 0.00608441 	0.0157668 	3.22534e-21 0.00525301 	0.0176383 	3.60823e-21 0.00441698 	0.019325 	3.8112e-21 0.00361448 	0.0204364 	3.70831e-21 0.00330344 	0.0224106 	4.20905e-21 0.00300382 	0.0237363 	4.16866e-21 0.00273395 	0.0250587 	4.13033e-21 0.00248918 	0.026378 	4.09374e-21 0.00206906 	0.0273225 	3.87096e-21 0.00182716 	0.0282445 	3.82282e-21 0.00165695 	0.0288427 	3.65498e-21 0.00149159 	0.0294387 	3.48643e-21 0.00133076 	0.0300326 	3.31723e-21 0.00109885 	0.0306986 	3.0939e-21 0.000996873 	0.0307026 	2.98686e-21 0.000917885 	0.0306343 	2.80828e-21 0.000838757 	0.0305656 	2.63044e-21 0.000759489 	0.0304965 	2.45335e-21 0.000589629 	0.0303481 	2.07616e-21 0.000487529 	0.0302656 	1.85599e-21 0.000385058 	0.0301811 	1.6362e-21 0.000282214 	0.0300947 	1.41678e-21 0.000178993 	0.0300062 	1.19774e-21 8.71358e-05 	0.0298759 	9.84321e-22 -0.000171229 	0.0289424 	7.10024e-22 -0.000453334 	0.0279627 	4.38571e-22 -0.000745945 	0.0269722 	1.68409e-22 -0.000893551 	0.0264859 	3.80521e-23 -0.000987007 	0.0261878 	-5.18034e-23 -0.0010816 	0.0258895 	-1.4251e-22 -0.00117736 	0.0255908 	-2.34096e-22 -0.00127433 	0.0252917 	-3.26588e-22 -0.00138836 	0.0249417 	-3.74349e-22 -0.00180103 	0.023343 	2.84084e-23 -0.00221945 	0.0216883 	4.42649e-22 -0.00267884 	0.0200307 	8.48756e-22 -0.00318861 	0.018371 	1.24443e-21 -0.00375742 	0.0163594 	1.70184e-21 -0.00465218 	0.014616 	2.42809e-21 -0.00540578 	0.0125993 	2.65785e-21 -0.0063581 	0.0106248 	2.95654e-21 -0.00698931 	0.00866939 	2.53802e-21 -0.0077494 	0.00585961 	1.26453e-21 -0.0082761 	0.00520086 	1.03338e-21 -0.00884591 	0.00459427 	8.16892e-22 -0.00932035 	0.00409061 	6.40616e-22 -0.00870502 	0.00404733 	6.86648e-22 -0.00832689 	0.00401466 	7.12569e-22 -0.00982008 	0.002764 	4.41607e-22 -0.0115969 	0.00168512 	1.91251e-22 -0.0120745 	0.00104034 	0 -0.010104 	0.00121653 	0 -0.00873097 	0.00132044 	0 -0.0107352 	0.000640564 	0 -0.0130498 	-1.79108e-06 	0 -0.0131985 	-0.000299181 	0 -0.0111606 	-0.000235179 	0 -0.00920429 	-0.000173806 	0 -0.0111963 	-0.00049628 	0 -0.0132766 	-0.000820191 	0 -0.0133409 	-0.00111985 	-2.03778e-22 -0.0114799 	-0.00124311 	-5.06754e-22 -0.00968282 	-0.00137906 	-8.19389e-22 -0.0113185 	-0.00145514 	-5.78884e-22 -0.0125505 	-0.00156907 	-4.32924e-22 -0.0120444 	-0.00189331 	-7.59362e-22 -0.0109743 	-0.0022339 	-1.25741e-21 -0.00966002 	-0.00260454 	-1.86715e-21 -0.0107869 	-0.00256828 	-1.50365e-21 -0.0102325 	-0.00286141 	-1.38195e-21 -0.00962644 	-0.00321621 	-1.30863e-21 -0.00909375 	-0.00361888 	-1.27497e-21 -0.00882288 	-0.00389426 	-1.28179e-21 -0.00878671 	-0.00395604 	-1.30233e-21 -0.00875193 	-0.00401868 	-1.3238e-21 -0.00871856 	-0.00408219 	-1.3462e-21 -0.00860619 	-0.00414598 	-1.31906e-21 -0.0084214 	-0.00421285 	-1.24807e-21 -0.00782694 	-0.00474124 	-7.40625e-22 -0.007267 	-0.00534736 	-3.91763e-22 -0.00681845 	-0.0060686 	-3.663e-23 -0.00576375 	-0.00648843 	0 -0.00403258 	-0.00737771 	0 -0.00397189 	-0.00748555 	0 -0.00391333 	-0.00759563 	0 -0.00385686 	-0.00770786 	0 -0.00383071 	-0.00762825 	0 -0.00381457 	-0.00749276 	0 -0.0029615 	-0.00834121 	-4.98494e-23 -0.00230394 	-0.00901834 	-5.07416e-22 -0.00173753 	-0.00980422 	-1.05048e-21 -0.00170301 	-0.00889166 	-1.6604e-21 -0.00175658 	-0.00791753 	-2.06743e-21 -0.00110682 	-0.00934528 	-4.07764e-21 -0.000505844 	-0.0110679 	-6.19302e-21 -0.000173975 	-0.0112308 	-6.46415e-21 -0.000239475 	-0.00969187 	-4.82966e-21 -0.000298323 	-0.00825958 	-3.32614e-21 8.59661e-05 	-0.0098504 	-4.5757e-21 0.000465446 	-0.0115819 	-5.88228e-21 0.000746144 	-0.0117078 	-5.48394e-21 0.000814346 	-0.0102093 	-3.55798e-21 0.000887776 	-0.0087573 	-1.63695e-21 0.00103447 	-0.0101167 	-1.11342e-21 0.00118344 	-0.0114585 	-5.91657e-22 0.00149782 	-0.0111423 	-1.70012e-22 0.00174009 	-0.010099 	-2.05036e-22 0.00199292 	-0.00902472 	-3.12474e-22 0.00197384 	-0.00994474 	-6.8298e-22 0.00212692 	-0.00986816 	-7.7403e-22 0.00237058 	-0.00942451 	-7.44118e-22 0.00264093 	-0.00903894 	-7.05944e-22 0.00300482 	-0.0085778 	-5.18307e-22 0.00298502 	-0.00868553 	-5.22663e-22 0.00301146 	-0.00865133 	-5.11608e-22 0.00305879 	-0.00855934 	-4.94145e-22 0.00310781 	-0.00847017 	-4.76821e-22 0.00315675 	-0.00838698 	-4.60254e-22 0.00337902 	-0.00808212 	-3.73392e-22 0.00363052 	-0.00781829 	-2.85998e-22 0.00391308 	-0.00759898 	-1.98157e-22 0.00419766 	-0.00713937 	-1.16318e-22 0.00454044 	-0.00622186 	-2.86355e-23 0.00482852 	-0.00595016 	-1.5731e-24 0.00517051 	-0.00572754 	2.73392e-23 0.00541128 	-0.00519394 	4.87393e-23 0.00570642 	-0.00468898 	7.14084e-23 0.00586787 	-0.00450307 	8.23079e-23 0.00620941 	-0.00425587 	1.10999e-22 0.0065801 	-0.00403111 	1.41047e-22 0.00673579 	-0.00375537 	1.46243e-22 0.0068612 	-0.00348227 	1.46854e-22 0.00714243 	-0.00299805 	1.50279e-22 0.00737381 	-0.00280625 	1.53599e-22 0.0076262 	-0.00262893 	1.58215e-22 0.00789804 	-0.00246536 	1.64042e-22 0.00790795 	-0.00238531 	1.75145e-22 0.00756536 	-0.00240772 	1.90672e-22 0.00837159 	-0.00187164 	1.29249e-22 0.00894107 	-0.00143207 	8.9125e-23 0.00941346 	-0.00105307 	6.10355e-23 0.00877075 	-0.000999227 	7.5909e-23 0.00783143 	-0.0010479 	1.01405e-22 0.008996 	-0.00068305 	6.50234e-23 0.0103119 	-0.000335312 	3.0291e-23 0.0104179 	2.28329e-05 	0 0.00915032 	8.27731e-05 	0 0.00794136 	0.000141122 	0 0.00921811 	0.000319205 	0 0.01054 	0.000498021 	0 0.0103528 	0.000915278 	0 0.00910624 	0.00119166 	0 0.00791636 	0.00148478 	0 0.00902928 	0.00153489 	0 0.00921194 	0.00181582 	0 0.0085972 	0.00233896 	0 0.00806429 	0.00291597 	0 0.00723187 	0.00361109 	0 0.0073982 	0.00364406 	0 0.00743049 	0.00372853 	0 0.00720092 	0.00392013 	0 0.00697964 	0.0041205 	0 0.00680482 	0.00429272 	0 0.00622834 	0.0051908 	0 0.00582237 	0.00622093 	0 0.00558266 	0.00735857 	0 0.00455886 	0.00873146 	4.78099e-22 0.0023346 	0.0129367 	1.82498e-21 0.00232822 	0.0129809 	1.83336e-21 0.0023219 	0.0130251 	1.84176e-21 0.00231562 	0.0130693 	1.85018e-21 0.0023094 	0.0131135 	1.8586e-21 0.00230116 	0.013156 	1.87587e-21 0.00193306 	0.0149117 	2.40167e-21 0.00164945 	0.0166428 	2.90567e-21 0.00142329 	0.0183639 	3.40039e-21 0.00123814 	0.020077 	3.88822e-21 0.00123287 	0.0213978 	4.13158e-21 0.00119475 	0.0232542 	4.28677e-21 0.00103817 	0.0245716 	4.27529e-21 0.000894483 	0.0258813 	4.26141e-21 0.000761677 	0.0271845 	4.2455e-21 0.000940332 	0.0277224 	3.87895e-21 0.00108453 	0.029287 	3.87273e-21 0.000927857 	0.0299331 	3.69215e-21 0.000775082 	0.0305725 	3.5113e-21 0.000625957 	0.0312057 	3.33019e-21 0.00085473 	0.0307279 	2.70419e-21 0.00108721 	0.0317246 	2.47114e-21 0.000891249 	0.031581 	2.03837e-21 0.000693957 	0.0314303 	1.60688e-21 0.000510261 	0.0312215 	1.18325e-21 0.000674654 	0.0298137 	9.14031e-22 0.000862261 	0.0299656 	5.864e-22 0.000652091 	0.029114 	3.06387e-22 0.000398964 	0.0281646 	3.1462e-23 0.00017882 	0.0270453 	-1.94879e-22 0.000195156 	0.0249703 	-1.39749e-22 0.000241352 	0.0241921 	-1.91943e-22 1.98371e-05 	0.0227012 	1.63404e-22 -0.000268909 	0.0210648 	6.00159e-22 -0.000553428 	0.0192847 	1.05735e-21 -0.000728244 	0.0168115 	1.60405e-21 -0.000907538 	0.0152436 	2.50497e-21 -0.00109848 	0.0132848 	2.54003e-21 -0.00132873 	0.0112853 	2.48146e-21 -0.0016203 	0.00927915 	2.39834e-21 -0.00208389 	0.00696299 	1.69154e-21 -0.00237892 	0.00612091 	1.47969e-21 -0.00232269 	0.0055743 	1.37055e-21 -0.0022084 	0.00508551 	1.28196e-21 -0.00210122 	0.0046038 	1.19659e-21 -0.00210083 	0.0046019 	1.19626e-21 -0.002264 	0.00346477 	8.47786e-22 -0.00264572 	0.0023323 	4.83754e-22 -0.00339399 	0.00127172 	1.12546e-22 -0.00334016 	0.000876504 	-1.6028e-36 -0.00105204 	0.000507219 	9.00274e-23 -0.00135706 	0.00025174 	3.46763e-23 -0.00164291 	9.73002e-05 	0 -0.00158044 	9.36003e-05 	0 -0.00151797 	8.99004e-05 	0 -0.000257525 	3.89471e-05 	0 -0.00036829 	-8.60558e-06 	0 -0.000382673 	-8.94166e-06 	0 -0.000397056 	-9.27775e-06 	0 -0.000411439 	-9.61383e-06 	0 -0.000635184 	-1.19943e-05 	0 -0.00108429 	-7.70492e-05 	0 -0.00147134 	-0.000104552 	0 -0.00185838 	-0.0