/*--------------------------------*- C++ -*----------------------------------*\
| =========                 |                                                 |
| \\      /  F ield         | OpenFOAM: The Open Source CFD Toolbox           |
|  \\    /   O peration     | Version:  v1912                                 |
|   \\  /    A nd           | Website:  www.openfoam.com                      |
|    \\/     M anipulation  |                                                 |
\*---------------------------------------------------------------------------*/
FoamFile
{
    version     2.0;
    format      ascii;
    class       volVectorField;
    location    "0.57";
    object      U;
}
// * * * * * * * * * * * * * * * * * * * * * * * * * * * * * * * * * * * * * //

dimensions      [0 1 -1 0 0 0 0];


internalField   nonuniform List<vector> 
1466
(
(-0.00980929 1.61594 0)
(-0.172505 1.15096 -1.27008e-16)
(0.273053 -0.121791 -1.79256e-16)
(0.188279 1.60813 1.51809e-16)
(0.832399 0.0346674 -6.71396e-16)
(3.27104 0.20185 -3.51686e-16)
(1.09714 -0.106718 2.75493e-16)
(1.30099 -0.0695348 4.30964e-16)
(0.486606 0.453247 1.70838e-16)
(-0.0245722 -0.323811 8.70511e-16)
(-0.459114 0.173142 -1.91867e-16)
(-0.891002 -0.597589 1.64139e-16)
(-0.0822845 -0.0745126 1.10722e-17)
(0.454932 0.883425 -1.33356e-16)
(0.768453 0.327335 -2.71442e-18)
(0.0317674 0.471834 2.85677e-21)
(0.0461407 -0.0642827 8.12878e-17)
(0.0196506 1.32324 -1.52879e-16)
(0.974531 0.060862 -1.773e-16)
(0.0231797 0.973586 0)
(-0.120043 -0.250587 1.59632e-16)
(0.503901 0.226927 -3.69375e-16)
(0.188522 0.0206374 0)
(-0.0763232 1.42052 7.70708e-17)
(0.480125 0.836961 -1.94241e-16)
(-0.199552 0.228511 2.1252e-16)
(-0.240128 0.376711 2.25423e-16)
(0.0979924 -0.222008 3.51479e-16)
(0.755423 0.0355689 0)
(0.486981 -0.130392 4.73139e-16)
(1.24882 -0.0118419 0)
(2.0698 0.118413 6.90997e-16)
(0.809492 0.207473 -3.23666e-16)
(1.3279 -0.0672831 -1.09627e-16)
(-0.115314 0.962658 0)
(0.54852 0.405927 2.85187e-17)
(-0.101436 0.196473 -4.38847e-20)
(0.931549 -0.476441 0)
(1.85302 1.78225 -4.76797e-16)
(0.716215 0.0916693 3.33284e-16)
(-0.844245 -0.606598 -1.77637e-16)
(0.226994 -0.0559125 -1.96715e-16)
(0.774961 0.494723 -4.67258e-16)
(1.43722 -0.0529196 2.35114e-18)
(-0.656613 -0.39668 0)
(1.07775 0.802047 -6.41408e-20)
(0.929595 -0.638217 -1.71113e-16)
(0.0607789 1.0505 1.11659e-16)
(0.193866 0.00698247 -2.70359e-16)
(0.0149355 -0.412234 -8.95555e-17)
(-0.375666 -0.3413 0)
(0.115004 -0.21952 -3.49602e-16)
(0.731114 -0.0236932 4.67543e-16)
(3.0965 -0.0593598 3.84785e-16)
(0.558105 0.0559693 4.3916e-16)
(-0.986317 -0.736118 -1.24674e-16)
(1.32712 -0.172388 0)
(0.504623 -0.347777 3.40252e-16)
(0.531432 0.0712133 1.4816e-17)
(-0.89509 -0.71133 0)
(-0.0255326 0.471097 -2.76934e-18)
(0.426331 -0.00498191 1.1954e-16)
(0.957253 -0.0124961 1.48955e-16)
(3.13043 -0.0806984 -3.65645e-16)
(-0.14484 0.866024 2.2996e-16)
(0.060809 0.692771 -4.12574e-17)
(-1.03148 -0.728804 -3.82568e-17)
(-0.202879 -0.103933 -2.10475e-16)
(0.0468088 1.69977 -1.30601e-17)
(0.268973 0.16796 0)
(-0.165496 -0.0490839 0)
(0.163621 1.69595 -6.22452e-17)
(0.605624 -0.275786 -5.85043e-16)
(0.402022 1.55792 -2.07285e-16)
(0.120658 0.0103547 4.46769e-17)
(-0.452639 -0.524837 -2.0536e-16)
(0.313413 1.50523 5.03811e-17)
(0.0610331 1.44307 1.89867e-16)
(0.922777 0.0460094 0)
(-1.16914 -0.94977 0)
(0.0558996 -0.307267 -4.00076e-17)
(0.497514 1.45583 2.07809e-16)
(0.94577 0.218549 0)
(0.18211 0.0822786 1.6021e-18)
(0.300852 -0.115141 2.22206e-16)
(0.380597 -0.677766 -9.91393e-17)
(0.188525 -0.089453 -3.02807e-16)
(-0.13082 0.502188 1.69625e-16)
(0.296838 1.13405 -4.06801e-17)
(-0.0677202 1.0073 7.07655e-18)
(0.318122 1.43898 1.09688e-16)
(-0.487883 -0.223595 0)
(-0.931086 -1.38325 -5.89253e-17)
(0.12639 1.73627 1.95723e-16)
(-0.676498 -0.277843 0)
(-0.291672 -0.295325 -2.12301e-16)
(-0.0801467 0.96148 7.08908e-16)
(0.531709 -0.00984825 0)
(-0.0643343 0.810284 1.74564e-16)
(0.288159 1.18228 -1.78018e-16)
(0.659542 -0.0170663 0)
(-0.145012 -0.334729 -1.07936e-16)
(0.382439 0.105529 4.69979e-16)
(-0.0352653 0.0899243 -1.92483e-16)
(1.06423 -0.18466 0)
(0.715656 0.72622 -2.87981e-16)
(-0.246115 0.0549501 1.9168e-16)
(1.00713 0.0988201 -7.55077e-18)
(-0.0620021 1.28991 5.72207e-17)
(0.525172 0.652945 7.01129e-18)
(0.427287 0.124924 1.99675e-17)
(1.10395 -0.357712 4.61565e-16)
(0.390145 -0.122004 -3.9531e-16)
(0.802273 -0.512956 -1.83226e-19)
(-0.0873908 -0.195822 -2.1999e-17)
(-0.380071 1.3187 0)
(0.274082 1.08859 -8.6087e-17)
(0.342224 1.01322 6.21143e-16)
(-0.074155 0.959429 3.64905e-17)
(0.594835 -0.663032 -4.79247e-16)
(-0.583228 -0.0338295 1.98592e-16)
(-0.0274044 1.50486 0)
(0.212477 0.494374 -8.30052e-17)
(-0.329123 0.511808 -8.68547e-17)
(0.173006 1.07287 3.1994e-16)
(-0.162906 -0.995962 -1.06476e-16)
(-0.0166854 0.0257189 3.19916e-17)
(-0.137009 0.0686777 0)
(-0.723736 -1.39838 5.66987e-17)
(0.422994 -0.586319 -3.55729e-16)
(0.209948 0.278979 1.19827e-16)
(0.184341 1.44162 -2.37808e-20)
(-0.0874896 0.616138 2.50955e-17)
(-1.04287 -0.697015 -6.26263e-17)
(-0.436647 -0.439774 -1.13373e-17)
(-1.22847 -1.12765 1.44146e-16)
(0.227736 -0.11417 0)
(0.102097 -0.127974 0)
(-0.942055 -0.515246 3.73837e-17)
(0.149576 1.05096 9.50656e-17)
(-0.216387 -0.187027 -1.15623e-16)
(-0.721959 -0.177033 -1.68376e-16)
(-0.261227 -1.40609 6.72434e-17)
(0.255211 -0.949576 -4.69527e-16)
(-0.797583 -0.44623 1.56895e-16)
(0.146837 0.514244 0)
(-0.992594 0.147723 0)
(-0.198936 0.395091 0)
(-1.27504 -0.693701 6.89721e-17)
(0.445918 -0.209578 2.82865e-16)
(-0.457797 -1.19646 -1.3612e-16)
(0.0450033 0.183481 4.91887e-18)
(-0.0631189 1.01962 1.31227e-16)
(-0.173014 1.21136 -2.39542e-17)
(0.420852 1.4612 -1.76077e-16)
(-0.407708 0.232609 -9.37404e-17)
(0.104773 1.68174 -3.55717e-16)
(-0.521343 -0.605874 1.95902e-16)
(0.297597 -0.344175 -7.81163e-17)
(-0.173255 0.541113 0)
(-0.199567 -0.298275 1.30377e-16)
(0.180927 0.814596 -2.69626e-17)
(-0.00382939 0.885783 3.14295e-16)
(-0.47413 -0.161681 1.93002e-16)
(-0.0742331 -0.327491 -5.48729e-18)
(-1.03606 -1.13004 -5.92351e-19)
(0.693332 -0.300427 0)
(-0.228281 0.274396 1.04501e-16)
(-0.040796 0.687831 5.39591e-18)
(-0.131226 0.393701 3.91173e-16)
(0.222781 -0.508802 2.77388e-16)
(0.505448 -0.667037 2.58689e-16)
(0.087001 0.0633064 0)
(-0.922192 -0.563997 9.0643e-17)
(-0.134955 0.317359 -8.80261e-16)
(-0.265525 1.02479 1.9185e-16)
(-0.0423183 -0.296566 1.73212e-16)
(-0.984136 -0.930599 -2.11e-17)
(0.692492 0.319609 -1.43233e-16)
(-1.06949 -1.20903 2.02989e-17)
(0.0270382 1.54846 -1.97257e-16)
(0.853587 -0.223087 2.1347e-16)
(0.0942528 0.205745 -3.0768e-16)
(0.0528696 0.921329 -5.67027e-16)
(-0.26974 0.754069 -4.1742e-16)
(0.484799 0.989091 6.01823e-16)
(0.789373 0.118091 0)
(-0.011482 1.8785 0)
(0.653252 0.384578 -5.20877e-17)
(-0.0141996 0.0420382 0)
(-0.270726 0.65949 0)
(-0.0982809 0.900023 1.31383e-16)
(0.11639 0.795125 2.35118e-17)
(-0.0857352 0.826885 -8.76438e-17)
(0.930247 -0.436917 5.51567e-20)
(0.127514 1.5833 0)
(-1.16008 -0.601822 -4.67687e-17)
(0.568064 0.505336 -1.44108e-17)
(0.555415 0.526035 -1.39744e-17)
(0.544033 0.690104 -6.52686e-18)
(-0.336953 -0.710464 -1.02424e-16)
(0.594675 -0.530884 3.15474e-16)
(1.03971 -0.0385091 -6.17257e-17)
(-0.0251969 0.72486 2.7411e-16)
(0.157382 0.259871 0)
(-0.0329884 -0.12388 3.63238e-16)
(0.82003 -0.0496768 1.66226e-16)
(1.39995 0.779603 1.2773e-16)
(0.482038 0.361668 5.25793e-17)
(0.416538 0.227279 1.18064e-17)
(0.494692 0.394185 5.74581e-17)
(-0.342358 -0.725166 1.65309e-19)
(0.576746 -0.409694 -1.11676e-16)
(0.39862 -0.384241 4.08135e-20)
(-0.0751186 0.881745 -8.6091e-17)
(0.738899 0.274144 2.69048e-17)
(-0.231714 0.593569 -8.8479e-17)
(0.194548 -0.10436 0)
(0.178265 1.07189 0)
(0.308128 1.65006 -7.80674e-20)
(-0.274433 0.403355 1.8573e-16)
(-0.0431481 1.37879 0)
(0.0502695 0.787133 6.61173e-17)
(0.778521 -0.646354 3.67069e-17)
(-0.611382 -0.0422025 -5.19716e-17)
(0.640529 -0.667905 0)
(0.517956 0.667662 8.62514e-17)
(0.18889 0.47628 1.37229e-16)
(-0.607307 0.349701 2.83106e-18)
(0.643239 -0.0520064 -4.26931e-16)
(0.169072 -0.139035 3.14426e-16)
(-0.0229353 0.321545 0)
(0.525849 1.28966 -1.31629e-16)
(0.351828 0.273243 -1.33146e-19)
(0.858949 0.302044 0)
(0.295603 0.467266 0)
(0.309368 0.339987 0)
(1.01635 -0.114021 -6.0934e-16)
(0.260908 0.3681 -1.13231e-16)
(0.451831 0.719519 0)
(0.607414 0.192595 1.76534e-16)
(0.21282 0.334472 3.10223e-16)
(-0.181984 -0.247428 -4.20434e-17)
(0.204597 -0.179919 -8.14581e-16)
(-0.048812 -0.256628 0)
(-0.563385 0.149351 -1.82418e-16)
(-0.17882 0.0747591 -6.18505e-19)
(-0.876242 -0.11401 3.41159e-16)
(0.0575909 0.0540796 0)
(-0.822529 0.0723054 -5.33858e-18)
(0.491384 1.4624 -7.10551e-16)
(0.854169 -0.286168 -9.95056e-17)
(0.00730136 -0.0124786 -1.36169e-16)
(-0.165467 0.175275 5.61167e-16)
(0.5036 1.1085 0)
(0.994987 -0.196306 1.63091e-16)
(0.481598 0.458722 -1.35425e-17)
(0.608842 -0.373841 -7.20869e-17)
(-0.0215969 2.04241 1.11619e-16)
(-0.0124541 -0.347283 -1.29772e-16)
(0.345391 -0.313664 8.9699e-20)
(0.512883 -0.437532 2.97093e-16)
(0.917691 0.182293 1.86775e-19)
(-0.139519 0.630258 -2.74268e-17)
(2.65622 0.315729 -1.85721e-16)
(0.93864 0.209901 -2.67869e-16)
(0.222849 0.783673 1.13374e-16)
(-0.30413 -0.544189 1.8194e-19)
(0.619057 -0.587586 -6.61437e-17)
(0.224917 1.67504 -5.56394e-17)
(1.19218 0.179863 -8.99692e-17)
(-0.00376702 1.51183 6.00146e-17)
(0.117312 0.011629 3.51055e-17)
(0.380243 0.332895 3.36224e-18)
(0.592728 -0.453669 -4.24572e-16)
(0.484904 0.0881275 6.10542e-17)
(-0.489465 0.15634 1.57155e-16)
(0.372848 0.8429 0)
(-0.192591 0.219979 -6.91201e-18)
(-0.042135 -0.20106 2.15995e-16)
(0.454834 0.555814 2.94322e-17)
(-0.206218 0.15466 0)
(-0.925431 -0.0277934 -4.16902e-22)
(-0.163911 -0.0282126 5.34101e-18)
(0.168961 -0.311042 -9.88267e-17)
(0.0811733 0.0980298 -1.07628e-16)
(0.502814 -0.437932 0)
(0.183722 -0.232286 0)
(-0.431992 0.280945 3.5629e-16)
(0.284433 1.12742 1.29539e-16)
(0.564313 -0.618811 -2.16074e-16)
(-0.0534327 1.08539 -5.56554e-17)
(0.584296 -0.606076 -4.34914e-17)
(-0.427545 -0.519737 0)
(-0.0852051 0.0141506 -1.86658e-16)
(0.41556 -0.404722 0)
(0.0574661 1.99067 7.07564e-17)
(-0.638051 0.906781 5.20751e-19)
(0.501905 -0.336016 0)
(0.349973 0.340299 -2.34116e-16)
(0.464275 -0.459924 -6.26904e-17)
(-0.424414 -0.809771 4.17852e-16)
(0.102828 -0.0448189 -4.52302e-17)
(0.577857 -0.694197 7.65284e-17)
(0.736323 0.287542 2.63154e-16)
(0.737685 0.167888 -4.22597e-16)
(-0.460993 0.102974 -1.78004e-16)
(0.299613 0.285608 -1.29663e-16)
(-0.326888 0.00227986 5.40046e-18)
(-0.198509 2.50826 2.16505e-16)
(0.437693 -0.0792431 3.79284e-16)
(-0.864109 -0.174022 4.12797e-17)
(0.393178 -0.517545 -1.3559e-16)
(-1.18746 -0.576814 -2.15316e-16)
(0.102702 0.132867 6.62385e-17)
(0.819946 -0.54301 -2.34073e-17)
(-0.0801242 -0.526707 4.19711e-22)
(-0.123472 0.19236 2.05619e-16)
(-1.12365 -0.707385 0)
(-0.10498 0.101279 -4.18055e-17)
(0.702053 -0.747756 -3.02521e-17)
(-1.25914 -0.946298 -1.58011e-16)
(0.0272256 0.160328 5.5288e-16)
(1.15387 0.00412653 -1.7199e-16)
(-0.714691 0.10281 1.80013e-16)
(-0.341508 0.103895 -1.33741e-16)
(-0.323666 -0.0818887 2.22975e-17)
(-0.755982 0.0170497 0)
(-0.146315 0.0185991 0)
(0.181403 -0.15359 -1.66187e-16)
(-0.0767147 0.150158 0)
(1.33049 -0.0355908 3.52347e-16)
(-0.200592 -0.0408421 2.15496e-17)
(0.613314 -0.0317121 0)
(-0.56267 0.127677 -1.24088e-17)
(1.21954 -0.0157857 0)
(0.421046 -0.10236 -4.93935e-17)
(-0.0650142 0.118293 -1.38137e-16)
(0.376298 -0.157026 -1.66791e-17)
(-0.0636235 -0.113151 1.72778e-16)
(0.182037 0.17683 0)
(1.31441 -0.0445757 -2.63188e-16)
(0.0358763 -0.0034948 0)
(-0.730817 -0.0963651 0)
(-0.618257 0.0986641 -1.37103e-16)
(-0.252218 0.039236 0)
(0.590641 0.0276172 -8.96038e-17)
(1.00504 -0.134063 8.23759e-17)
(0.220147 -0.458393 1.05886e-16)
(-0.359346 0.235475 -4.04791e-16)
(-0.221907 -0.164872 5.23952e-17)
(0.297851 -0.19189 5.8675e-16)
(-0.304769 -0.288195 -5.14673e-17)
(0.418876 0.179823 -4.00664e-16)
(0.373993 0.245112 2.34773e-16)
(0.706653 -0.46176 -4.25267e-18)
(-0.179073 -0.656731 -4.34275e-16)
(-0.142096 0.163099 4.26157e-16)
(0.190318 3.08549 -9.67593e-20)
(0.440398 -0.346341 -2.0774e-16)
(-0.460602 0.316046 0)
(-1.27344 -0.892295 1.62859e-16)
(-1.01316 -0.753016 1.80688e-16)
(0.548226 0.0532347 -2.8292e-16)
(-0.0812718 0.285808 3.86053e-17)
(-0.748542 0.0725146 0)
(-0.514471 -0.106846 -2.2402e-17)
(-0.158199 9.81162e-05 -1.58735e-17)
(1.3011 -0.10402 1.2435e-16)
(0.443392 0.105552 0)
(-0.245595 -0.018856 2.08821e-17)
(0.709994 -0.11992 -8.83536e-17)
(0.586939 -0.0082111 -2.74166e-16)
(1.27488 -0.0225741 0)
(0.435028 -0.00287173 -4.57086e-16)
(-0.342119 0.143542 0)
(-0.106872 0.0773012 9.5561e-17)
(-0.720769 -0.60368 -8.71185e-18)
(0.260887 -0.205233 4.0647e-16)
(0.0243747 0.094876 -2.29904e-16)
(0.0501729 -0.000655845 3.0035e-17)
(-0.61267 -0.424711 -2.58277e-17)
(0.627665 -1.09376 -6.37289e-18)
(-0.706336 -0.267863 -8.5136e-17)
(-0.31937 0.219036 -2.34803e-17)
(0.491611 -0.391898 4.03638e-16)
(0.41502 -0.33497 1.0508e-16)
(0.299301 -0.543238 0)
(0.248245 0.369884 0)
(0.04358 -0.57324 0)
(0.0417235 -0.845818 3.16188e-16)
(0.538024 -0.29614 0)
(-0.50577 0.157904 1.26223e-17)
(-0.845529 0.108136 7.17601e-17)
(-0.272672 0.073184 -4.36593e-17)
(0.503813 0.38333 -8.29596e-17)
(-0.655145 -0.180127 1.7634e-18)
(-0.195217 0.116336 -1.45884e-16)
(1.10172 -0.332155 -8.70294e-17)
(0.248529 -0.0360134 5.41097e-17)
(0.134587 -0.162098 4.09403e-17)
(-0.20394 -0.0234641 -4.43307e-18)
(-0.391688 0.27978 -1.81021e-16)
(0.223153 -0.0113204 -2.87207e-17)
(-0.791229 -0.670265 0)
(0.168032 -0.146094 3.02976e-16)
(0.381307 -1.36521 -1.23554e-16)
(0.283169 2.60655 -2.13938e-16)
(0.865133 0.116572 -9.90335e-17)
(-0.0648371 0.540663 -1.06132e-16)
(0.222317 -0.463595 2.21034e-17)
(-0.275393 0.625353 -3.50199e-16)
(0.421417 -0.292047 5.65486e-17)
(-0.303883 -0.264831 4.30412e-17)
(-0.414286 0.146005 -5.27956e-17)
(0.119126 -1.30159 1.32829e-16)
(0.7511 -1.30472 -2.8369e-17)
(0.694263 -0.947186 4.8995e-19)
(0.1725 -0.822705 0)
(0.174831 -1.08471 0)
(0.779039 -1.00126 6.75416e-16)
(-0.059285 -0.0124728 9.46252e-17)
(0.67353 0.350886 -1.53932e-16)
(1.0813 0.371668 5.29668e-16)
(0.881663 0.406914 -3.21776e-16)
(1.10142 0.448461 6.68187e-16)
(0.96439 0.248431 -1.57925e-16)
(0.852418 0.323217 -4.19921e-16)
(1.28334 0.395479 -2.73391e-16)
(1.43904 0.429779 -2.86851e-16)
(-0.272781 -0.309548 -2.26692e-17)
(0.617445 -0.538949 -4.20951e-17)
(0.686493 -1.48666 3.31274e-17)
(-0.646485 -0.399281 -8.87667e-20)
(0.184413 1.93631 -1.04836e-16)
(-0.792398 -0.444173 -1.7558e-16)
(-0.397336 0.125561 3.25269e-16)
(1.41824 -0.0508987 2.18636e-16)
(0.228962 0.269686 5.14429e-16)
(0.146296 -0.249517 -2.26728e-16)
(-0.193044 -0.0722818 -5.85309e-17)
(0.101093 -0.451273 0)
(-0.488337 -0.289248 4.07876e-16)
(0.225277 0.049594 5.10247e-17)
(0.23048 -0.122234 -2.82262e-16)
(-0.293833 0.124557 -3.21776e-16)
(0.111064 -0.4398 0)
(0.197013 -0.445607 3.92262e-16)
(-0.811489 0.0275861 0)
(0.606684 -0.860859 7.2195e-17)
(-0.75183 0.391543 2.33087e-16)
(-0.242596 0.116398 0)
(0.025541 0.373126 -5.58625e-17)
(0.924798 -1.08981 -3.37466e-16)
(-0.38005 0.10916 -1.06375e-16)
(0.388395 0.504201 -3.54474e-16)
(0.059133 -0.294793 6.58244e-19)
(-0.251745 0.0389855 0)
(0.229978 0.598427 0)
(0.523241 -0.664227 -1.21497e-16)
(-0.299123 0.148982 2.33945e-16)
(0.876748 -1.35296 2.22787e-18)
(0.924396 -1.19696 2.92273e-16)
(0.667316 -0.88998 3.74666e-16)
(-0.412429 -0.11191 -7.63364e-17)
(-0.0992299 0.649957 0)
(-0.765062 -0.308614 1.93394e-16)
(0.58551 -0.393522 -1.15119e-17)
(-0.246439 -0.0722992 0)
(0.100105 0.178206 1.2379e-16)
(-0.598567 -0.227896 3.77613e-17)
(0.168876 0.206888 -3.9178e-17)
(0.581103 -0.696991 -2.75413e-16)
(0.101013 0.530071 7.37114e-17)
(0.772478 0.40296 -1.01154e-15)
(1.36622 -0.0337924 -6.70709e-16)
(0.0140527 0.364163 0)
(0.00334673 0.320362 -5.08826e-17)
(1.20371 0.0589481 -1.20278e-16)
(1.91071 1.30745 2.35112e-16)
(-0.230609 0.173783 -5.68638e-17)
(0.533593 -0.216243 -5.47291e-17)
(1.50132 0.792067 4.59777e-16)
(0.364059 -0.0289491 -1.76084e-16)
(1.39233 0.0482269 0)
(-0.112849 0.460323 1.41584e-16)
(0.688094 0.026355 -5.38131e-16)
(-0.0389996 -0.526934 7.02568e-17)
(0.507681 1.13052 -2.30525e-16)
(-1.17158 -0.657359 -4.7713e-17)
(1.43981 0.106979 -1.63054e-16)
(-0.264158 0.61762 -9.63784e-17)
(0.42808 0.177555 9.74145e-17)
(-0.0692648 -0.533112 -4.76324e-17)
(-0.277082 0.68317 0)
(1.26585 0.108969 1.55608e-16)
(1.16344 1.81331 -2.59802e-18)
(-0.336508 0.139757 1.84434e-16)
(-0.123542 0.459796 -1.51221e-17)
(-0.147891 0.237319 1.39492e-17)
(-0.136595 0.584925 2.00191e-16)
(0.747975 0.238654 1.20481e-17)
(-0.160715 0.375 5.40078e-17)
(-0.308022 0.421205 -5.49666e-17)
(-0.125118 -0.372162 5.01696e-17)
(-0.183013 0.179364 -1.43296e-16)
(-0.970904 -0.683241 3.53851e-16)
(0.366347 -0.320339 -2.18e-17)
(0.561339 -0.863265 -4.04622e-16)
(0.289495 -0.218834 -1.16994e-17)
(0.252352 -0.55563 -4.80298e-16)
(1.34716 0.225215 0)
(0.231779 -0.53929 3.14656e-16)
(0.454103 -0.413395 7.91718e-17)
(0.165859 0.224769 -6.92394e-18)
(0.310156 -0.500466 -9.62943e-17)
(-0.225808 0.597704 2.88418e-18)
(0.417515 0.309427 -9.66658e-17)
(0.828933 -1.05743 -5.09825e-16)
(0.706648 -0.900895 -1.90137e-16)
(0.829625 -1.10643 8.419e-16)
(-0.616521 0.124364 5.67748e-17)
(-0.256726 0.273416 1.57707e-18)
(0.072151 2.00937 2.79171e-16)
(0.0787816 1.8789 0)
(0.00781353 -0.659037 2.47803e-16)
(-0.335078 0.0942281 0)
(-0.209557 0.404759 1.04559e-16)
(-0.0465959 -0.0370996 9.5044e-17)
(-0.234666 -0.395518 -5.29115e-17)
(-0.227472 -0.0649579 3.75994e-16)
(-0.708049 -0.587417 -4.86497e-17)
(0.44818 -0.612126 -6.7953e-17)
(0.517008 -0.806909 1.33592e-16)
(0.339546 -0.101429 0)
(-0.272346 0.233866 0)
(-0.428414 -0.455723 1.969e-16)
(-0.50229 -0.0479537 -3.89533e-17)
(0.200273 -0.576779 -4.51631e-17)
(0.0563625 -0.520042 -4.35948e-16)
(-0.371946 0.123527 5.03905e-17)
(-0.53161 0.0208602 5.2946e-17)
(-0.0288246 -0.290585 3.34555e-16)
(-0.463851 0.0403615 -1.57759e-16)
(0.37603 -0.546665 1.17607e-16)
(0.280253 0.0175432 -5.48101e-17)
(-0.905138 -0.0558252 0)
(-0.735242 0.281765 0)
(-0.586684 0.0481515 0)
(-0.194407 0.5046 1.04517e-16)
(0.646223 0.283977 2.83252e-16)
(1.20402 -0.0583993 -8.50574e-18)
(-0.617777 -0.109019 8.74067e-17)
(-0.0418816 -1.63432 7.52909e-17)
(-0.691173 -1.06591 -1.29892e-16)
(-0.132544 -0.120589 0)
(0.0212472 -0.304902 -1.64279e-16)
(0.927443 -0.539626 -5.5106e-17)
(0.974929 -1.20575 -1.21083e-16)
(-0.0183969 -0.23824 -8.22049e-17)
(-0.345765 -0.274175 5.34511e-16)
(0.274322 -0.381427 1.25649e-17)
(-0.600617 -1.45586 8.00142e-17)
(-0.646604 0.525434 0)
(-0.845765 -0.690616 -5.40307e-16)
(-0.745202 -0.633295 -8.70587e-17)
(0.737113 -0.677556 0)
(0.233684 0.34219 5.16141e-17)
(0.441413 -0.739471 -1.28124e-17)
(-0.765929 0.396024 2.11083e-17)
(1.2856 0.0949349 0)
(-0.412966 0.349996 0)
(0.491297 -0.809548 1.0878e-16)
(-0.538984 -0.396663 2.28264e-16)
(-0.38898 0.365408 -7.88352e-17)
(0.564779 -0.798067 1.38059e-16)
(0.37505 0.705845 1.37868e-16)
(-0.183789 -0.161814 0)
(0.377367 -0.684443 -1.54069e-16)
(0.52046 -0.777301 1.10186e-16)
(0.168287 -0.0533996 -1.04561e-16)
(0.585166 0.21932 9.43299e-17)
(0.957825 -0.851759 0)
(-0.420733 -0.0306588 2.79243e-16)
(1.03206 -0.521195 0)
(-0.64248 0.708841 6.71467e-19)
(1.15988 0.433882 -1.92474e-16)
(-0.00400049 0.402537 9.44811e-17)
(-0.813265 0.277096 0)
(0.49303 -0.161318 1.25595e-16)
(-0.839079 0.0823539 -2.17332e-17)
(0.676453 0.243149 1.77818e-16)
(-1.02361 -0.695168 4.66956e-16)
(0.190923 0.108629 0)
(-0.184762 0.488619 0)
(0.335988 0.371479 -8.77612e-17)
(-1.30433 -0.798903 -7.70744e-17)
(-0.533816 -0.916453 -1.03465e-17)
(-0.786783 0.0773575 0)
(-0.364849 -0.422583 -1.83538e-16)
(-0.818994 0.204017 1.4665e-16)
(-0.252426 0.360877 -1.93128e-16)
(0.513707 0.245408 -3.75973e-16)
(-0.209603 0.513508 4.14619e-16)
(-0.196491 0.146711 2.37354e-16)
(1.27721 0.377612 2.6169e-16)
(1.10225 -0.83424 0)
(-0.0564301 -0.424288 -1.73439e-16)
(-0.275285 0.180397 -3.09706e-20)
(-0.603688 0.862497 3.77573e-16)
(-0.817674 -1.13002 -1.01282e-17)
(-0.0597234 1.88276 7.55491e-17)
(0.652925 -0.18551 3.01935e-16)
(0.242548 2.19136 -2.83497e-16)
(0.088962 -0.108599 0)
(-0.232109 -0.0173575 -2.24838e-16)
(-0.60245 0.254873 -9.94014e-18)
(0.235845 0.852344 -5.70574e-16)
(-0.396173 0.352655 -6.31419e-21)
(-0.266196 0.0375726 -2.04628e-16)
(0.499791 0.154146 -2.01942e-16)
(0.683005 -0.46841 -1.44373e-16)
(0.276674 0.0480533 -4.29879e-19)
(-0.287035 -0.188093 0)
(0.00453118 0.317132 0)
(0.650931 -0.871712 -1.53063e-16)
(0.433475 0.179389 -1.03934e-16)
(0.330948 0.394579 -5.88966e-17)
(0.575524 -0.259608 -9.42803e-17)
(-0.853885 -0.264839 -1.2288e-16)
(0.752453 0.0279691 0)
(-0.64147 0.700966 -1.69888e-17)
(-0.0863394 0.110342 -2.56935e-17)
(0.207199 0.182767 2.52008e-17)
(-1.15581 -0.743551 7.45755e-17)
(-0.735771 -0.807498 2.1728e-17)
(-0.869063 -0.379639 0)
(-0.672117 -0.082595 8.63836e-18)
(-0.165359 0.320767 -9.21101e-17)
(0.253965 0.307175 8.86438e-17)
(0.525932 -0.0734929 0)
(-0.252118 0.264248 -6.97867e-20)
(1.34617 -0.0756492 -6.31645e-17)
(-0.0200006 0.10384 -2.78073e-16)
(-0.237709 0.033697 4.25436e-17)
(-0.400029 -0.464629 0)
(-0.195352 0.273703 -4.06429e-16)
(-0.414456 0.16822 -4.01548e-16)
(-0.361149 1.0533 1.69535e-16)
(0.495133 0.113038 0)
(0.166729 0.249635 -4.81604e-17)
(-0.855266 -0.013811 0)
(-0.536469 -0.490699 0)
(-0.313663 0.120405 0)
(0.47891 -0.459801 -7.56697e-17)
(0.60508 0.353351 2.57905e-16)
(0.81554 0.239362 1.10691e-16)
(-0.113382 0.502657 1.02131e-15)
(0.461579 0.300894 -5.20466e-17)
(-0.419706 0.126166 -3.14328e-18)
(0.0597436 0.422024 8.47556e-21)
(-0.754369 -0.0301454 -6.68022e-18)
(-0.46684 -0.424632 -2.18661e-16)
(0.281512 0.36633 1.48889e-16)
(0.834149 0.0363579 1.28956e-16)
(-0.756059 -0.229347 -1.09451e-16)
(0.615404 -0.388394 1.74376e-16)
(0.313619 0.269515 -4.23119e-16)
(-0.872896 -0.108074 0)
(-0.155738 -0.0646323 -7.97294e-18)
(0.397775 0.452965 3.85371e-17)
(0.1667 0.166027 1.08628e-16)
(0.256099 0.134586 1.03842e-16)
(-0.429886 0.466398 1.67997e-16)
(-0.805702 0.0810488 -2.07882e-16)
(1.0032 0.0796994 -4.62342e-19)
(0.382353 -0.0208784 3.28938e-20)
(-0.793267 -0.150606 0)
(0.0330197 0.106825 0)
(0.010424 -0.658432 4.04664e-17)
(-0.0868658 -0.0511146 -1.91191e-22)
(0.279572 0.0937653 2.05775e-16)
(0.0896512 0.0506538 0)
(-0.0191948 0.355596 1.48316e-16)
(0.359502 0.113054 0)
(-0.238482 -0.0994972 0)
(1.40399 0.370783 7.0278e-17)
(0.0933154 -0.422965 -1.65667e-16)
(-0.671074 0.142108 -4.76785e-17)
(0.0153882 0.703451 -4.83702e-17)
(0.41399 1.33286 8.81616e-17)
(0.318952 0.486374 -1.30023e-17)
(0.145111 0.306946 3.46036e-16)
(0.214432 -0.617217 1.16506e-16)
(-0.577175 -0.511026 -2.0641e-16)
(0.33993 0.299639 4.17311e-17)
(-0.345166 -0.367201 9.76946e-17)
(0.345738 0.0114312 -1.97978e-16)
(0.0188968 0.0710422 9.20331e-17)
(0.0487188 -1.51968 -2.00476e-16)
(0.360506 -0.676732 2.94721e-16)
(-0.00470384 0.452558 -1.848e-16)
(-0.479392 -0.371362 9.26881e-17)
(-0.282295 0.190789 -7.29902e-20)
(-0.0912145 -1.21241 1.14541e-16)
(-0.0405555 1.383 -2.83435e-17)
(0.369661 -1.59757 0)
(-0.874801 -0.284481 0)
(0.434958 -0.758501 -3.14309e-16)
(-0.136982 0.128595 9.81309e-17)
(0.212536 0.139814 -1.96253e-16)
(0.0363077 -0.126125 1.20358e-17)
(-0.794915 -0.353459 2.59945e-17)
(-0.28152 0.196129 0)
(0.445493 0.148167 1.97336e-16)
(0.0630531 1.35804 0)
(-0.597096 -0.484465 0)
(-0.724711 0.551803 -1.14331e-16)
(0.277625 0.374143 0)
(-0.348212 0.388315 -4.54945e-16)
(0.330426 -0.182417 5.88202e-16)
(1.02002 -1.11047 8.67897e-17)
(0.0120132 0.338399 -9.21328e-17)
(-0.441645 -1.56707 -7.48076e-17)
(-0.422976 0.245671 -2.2288e-16)
(0.491448 -0.509867 -2.58449e-16)
(0.522502 -0.626161 1.95973e-16)
(0.389831 0.596744 -1.50536e-17)
(-0.289875 0.337032 -3.61465e-16)
(-0.402211 -0.187551 -1.3922e-16)
(0.547886 -0.337437 7.70689e-17)
(-0.0720069 1.03165 0)
(-0.0451703 -0.822283 -2.22624e-16)
(0.279493 0.0576299 1.02939e-17)
(0.181233 0.0445427 -3.91766e-17)
(0.159769 0.0695844 2.15483e-19)
(0.378746 0.0559102 -1.0461e-17)
(0.0920556 0.0245703 0)
(0.11748 0.182096 -2.90704e-16)
(-0.733752 0.117576 0)
(0.427507 0.110528 4.13351e-16)
(0.467589 0.0475345 -8.34372e-17)
(0.019849 0.00858314 0)
(0.0339859 0.102933 9.06087e-16)
(0.00754002 0.694217 1.91613e-16)
(0.315699 -0.244302 -3.31049e-16)
(0.0781529 0.112176 -4.57741e-16)
(0.0925733 0.467794 2.83562e-17)
(-0.327067 0.722548 0)
(-0.378229 -0.451466 2.61653e-16)
(-0.579549 0.450255 8.37196e-17)
(0.406046 -0.0509062 1.6497e-16)
(0.0400278 -0.0550552 1.57359e-16)
(-0.274036 -0.679947 4.49526e-17)
(-0.146956 -1.46273 3.84131e-17)
(-0.0446631 0.790836 -7.77303e-20)
(-0.0578537 2.39967 -5.60999e-19)
(0.618651 -0.214517 0)
(-0.30035 0.492177 5.01513e-17)
(0.262656 0.177514 0)
(0.552617 -0.0255645 -1.90142e-19)
(0.0796494 0.371864 -1.4516e-20)
(-0.0690417 -0.142418 4.99694e-17)
(-0.594283 0.0311118 -1.41801e-16)
(0.660115 0.561644 0)
(0.776776 -0.140612 -7.5168e-17)
(1.58519 0.54281 -3.05618e-16)
(0.488434 -0.042546 -3.26096e-16)
(-0.409044 0.552636 0)
(-0.970971 0.15215 8.59438e-21)
(0.93341 0.341898 -1.78785e-16)
(2.48933 0.69237 4.22018e-16)
(0.639743 0.0101763 5.69824e-16)
(0.0594798 0.024495 -5.10353e-16)
(-0.311868 -0.311935 -1.96707e-17)
(0.338687 0.152086 1.90597e-16)
(0.149598 0.114595 -3.50143e-17)
(-0.365256 -0.418487 -1.83468e-16)
(0.00276794 0.207602 4.6545e-21)
(1.09549 0.0833648 1.15627e-16)
(1.26751 2.54008 6.37228e-16)
(-0.263518 0.23874 -6.22798e-20)
(-0.248513 -0.0610182 0)
(-0.150244 0.118126 9.25908e-17)
(-0.458592 -0.604373 -6.28754e-21)
(0.231427 0.188187 -1.00611e-16)
(-0.276926 0.362431 -9.23382e-17)
(-0.0460564 -0.425571 4.34966e-17)
(-0.427039 0.399246 -3.41322e-16)
(-0.020493 0.915663 1.20487e-16)
(0.426564 0.92796 -8.66438e-17)
(0.750832 0.377727 1.57561e-16)
(-0.436054 0.022192 2.22538e-16)
(-0.0941975 1.04428 2.9763e-16)
(-0.900217 0.477456 -2.23879e-16)
(0.608694 -0.106865 -4.88539e-16)
(0.338905 2.16782 -2.04372e-20)
(-0.155675 -0.27322 2.85491e-19)
(0.490853 0.370586 2.88852e-16)
(0.0335299 0.251006 -2.86921e-16)
(0.0125316 0.812202 0)
(0.0125338 -0.369515 3.26786e-16)
(-0.349278 0.331471 -9.81153e-17)
(-0.938608 -0.0254834 3.97968e-17)
(-0.202897 0.560208 2.73919e-17)
(-0.374877 0.108886 4.45678e-17)
(-0.157433 -0.14576 1.83344e-16)
(1.23083 -0.288513 -1.0481e-16)
(-0.163703 0.255872 9.64116e-17)
(1.15401 0.25976 2.42972e-16)
(0.614423 3.11786 -3.36375e-16)
(-0.259054 -0.115435 -2.30336e-17)
(-0.642588 0.100073 -3.54288e-16)
(-0.300716 0.0313083 0)
(-0.00350749 0.787567 -7.60087e-17)
(1.17514 0.214174 9.26736e-21)
(0.0145292 1.67798 -6.24414e-17)
(-0.916579 0.0984774 -4.13921e-17)
(-0.215127 0.87381 -2.91841e-16)
(1.01125 0.14262 6.79774e-17)
(0.793246 3.25293 -1.63422e-16)
(0.110451 0.0313489 -3.22411e-18)
(1.02457 -0.533647 -7.88672e-17)
(0.363839 -1.50994 7.48468e-17)
(1.16996 0.0248472 0)
(1.09333 0.0320703 0)
(-0.0425391 1.47886 -4.12615e-18)
(0.444795 -0.349635 -4.38747e-16)
(0.675193 -0.35586 2.32076e-16)
(0.276137 -0.367057 0)
(0.186033 0.185378 0)
(-0.00548858 -1.03413 -1.66001e-17)
(-0.0294453 -0.0811366 -9.99451e-17)
(-0.180885 0.00294159 1.48881e-16)
(-0.647871 0.220334 1.54447e-16)
(0.110657 0.352252 1.07558e-16)
(1.22769 0.606215 -7.73336e-16)
(-0.18895 -0.408155 0)
(0.448728 0.581251 -1.10574e-16)
(-0.211262 -0.177999 -7.65712e-17)
(0.262469 0.0269025 0)
(0.593595 -0.20066 -1.71683e-16)
(-0.916518 -0.660142 -2.42151e-16)
(0.545335 -0.536545 8.50335e-16)
(0.162052 0.124601 -1.16904e-16)
(0.745554 -1.33614 -1.98634e-16)
(-0.667433 -0.549435 0)
(-0.703706 -0.586072 0)
(0.672852 -0.610952 1.733e-16)
(0.61562 -1.41973 -6.51912e-17)
(-0.303613 0.180297 2.33793e-16)
(0.0505729 -0.314441 0)
(-0.261487 -0.981452 8.6943e-17)
(-0.367866 0.137886 -1.78795e-19)
(0.254976 -0.0883628 0)
(-0.268887 -0.52977 0)
(0.545744 -0.804767 4.6698e-17)
(-0.673121 -0.0108212 0)
(-0.402121 0.191895 3.0044e-17)
(0.585466 -0.00543776 1.62487e-16)
(0.988874 0.353926 1.67449e-16)
(0.103439 0.0912283 3.95665e-16)
(-0.655338 -0.810348 -1.09724e-16)
(-0.210928 1.13528 -2.0401e-16)
(0.716122 0.124704 1.95337e-16)
(-0.426421 0.218395 0)
(0.000899532 1.67036 -7.00018e-17)
(-0.680352 0.240632 1.86292e-16)
(0.813314 -0.415594 0)
(-0.0449116 -0.100279 -1.64732e-16)
(-0.45513 0.113759 0)
(0.49629 -0.166178 -2.4814e-16)
(-0.411789 0.202376 0)
(1.52105 -0.0260507 -1.88208e-16)
(-0.886145 0.292625 4.74187e-18)
(0.559007 -0.719353 1.27696e-16)
(0.541811 1.35221 6.91867e-16)
(0.026568 0.288194 0)
(0.953687 2.64442 3.25695e-18)
(0.8018 -0.894305 1.95543e-16)
(0.542472 1.20565 -1.68442e-16)
(-0.728833 -0.0840799 4.06708e-17)
(-0.45308 0.317079 -1.55759e-16)
(-0.248825 -0.204414 1.85838e-16)
(-0.00638664 1.64184 3.97768e-17)
(-0.651108 0.304358 5.23017e-18)
(-0.144789 1.10896 -5.89767e-16)
(0.812322 0.578309 -1.51369e-16)
(0.81265 -0.620965 3.02121e-16)
(1.08438 0.0303457 3.15134e-16)
(0.20436 0.186606 -9.80397e-17)
(0.568363 -0.752246 -8.63123e-17)
(0.071379 -0.00557449 -8.01091e-17)
(0.198466 0.167959 4.40777e-16)
(-0.362612 0.215294 1.92027e-16)
(-0.087838 1.8128 8.64279e-17)
(-0.255871 0.161394 0)
(-0.280657 0.252274 0)
(-0.290069 0.38629 -1.94253e-16)
(0.260872 -0.111718 3.09282e-16)
(-0.0466445 1.36655 -2.99261e-17)
(-0.0625835 0.0523446 -3.20479e-16)
(0.104489 -0.548037 7.18644e-18)
(0.43519 -0.256612 -9.0111e-17)
(0.996093 -0.134615 5.52589e-16)
(-0.129338 -0.0553871 1.15389e-16)
(0.474785 -0.652713 4.39242e-17)
(1.10636 0.143013 0)
(-0.720623 -0.599481 1.54673e-16)
(0.20016 0.348095 0)
(0.282496 0.427426 0)
(-0.194024 0.0154547 -4.34669e-18)
(0.467102 -0.104527 0)
(0.870466 0.06165 0)
(-0.0636121 -0.549712 0)
(0.0175796 -0.0214644 0)
(-0.796912 -0.545458 -6.08161e-16)
(0.38413 1.24997 -2.13912e-16)
(-0.0123311 0.605834 -1.66676e-16)
(0.167406 0.333806 -4.46326e-18)
(-0.143428 0.0159306 -5.65239e-16)
(0.610772 1.05884 -3.82224e-16)
(0.394122 -0.6634 3.46372e-16)
(-0.471463 -0.72949 -6.17797e-16)
(-0.290862 0.0135188 4.26493e-16)
(-0.0476062 0.788526 7.52343e-17)
(0.138939 0.0866725 0)
(0.399294 -0.257631 0)
(-0.0986041 -0.731089 2.20567e-16)
(0.0156441 0.331723 9.22099e-16)
(0.585864 1.21277 3.14346e-16)
(-0.021103 0.10763 0)