/*--------------------------------*- C++ -*----------------------------------*\
| =========                 |                                                 |
| \\      /  F ield         | OpenFOAM: The Open Source CFD Toolbox           |
|  \\    /   O peration     | Version:  v1912                                 |
|   \\  /    A nd           | Website:  www.openfoam.com                      |
|    \\/     M anipulation  |                                                 |
\*---------------------------------------------------------------------------*/
FoamFile
{
    version     2.0;
    format      ascii;
    class       volVectorField;
    location    "0.01";
    object      U;
}
// * * * * * * * * * * * * * * * * * * * * * * * * * * * * * * * * * * * * * //

dimensions      [0 1 -1 0 0 0 0];


internalField   nonuniform List<vector> 
1431
(
(-0.035366 3.05191 -1.96711e-17)
(0.783365 2.5253 -1.26251e-16)
(1.22507 0.155782 1.52088e-16)
(-1.47021 5.35556 -2.18448e-17)
(0.199577 3.10454 -9.95241e-17)
(0.772557 0.215806 3.26483e-16)
(1.00257 0.0725744 -1.77344e-16)
(5.5839 1.55969 -3.26671e-16)
(0.9498 2.47872 0)
(0.799485 2.25409 -1.07577e-16)
(-0.118381 4.99597 0)
(-0.300821 0.360593 5.79198e-17)
(2.484 7.08935 0)
(4.99078 0.363415 2.64528e-18)
(1.00546 2.38551 -2.10075e-16)
(0.0323241 3.17732 0)
(0.876703 2.29415 -3.3235e-16)
(0.647466 0.214017 0)
(-0.454149 -0.125202 1.10204e-16)
(0.0589611 5.00403 2.65767e-17)
(-0.0201988 3.84229 -1.0751e-17)
(0.547046 2.08634 -1.63092e-19)
(0.62475 0.60009 -4.69885e-17)
(4.66377 0.395381 -4.24055e-17)
(0.951286 13.0336 -3.54062e-17)
(0.218598 5.014 -7.27153e-17)
(-0.855842 12.6266 3.82674e-17)
(5.35125 0.298052 5.81182e-21)
(9.83971 3.79143 2.64636e-18)
(0.988038 0.917032 -4.37259e-16)
(2.29931 0.165331 3.49037e-16)
(1.78173 0.0181238 -2.26822e-16)
(1.50258 0.0191925 -1.11435e-16)
(0.760982 -0.0732554 0)
(0.718522 -0.0370734 8.40285e-17)
(2.29359 2.30299 2.21636e-16)
(0.379793 4.33825 7.10361e-17)
(6.57538 0.325194 0)
(0.98338 0.221397 -1.61112e-16)
(6.43384 0.293911 0)
(2.83163 0.101621 1.46361e-16)
(0.0720826 0.132337 -6.29449e-17)
(1.52264 -0.133676 0)
(1.31047 -0.127305 -5.66879e-17)
(1.63787 0.0954617 1.51414e-16)
(-0.480811 2.60143 -2.6998e-16)
(1.37124 2.92383 2.83873e-16)
(1.85336 0.899601 -7.08904e-17)
(2.19418 0.313863 2.38811e-16)
(5.04568 1.15134 5.30885e-17)
(0.90604 0.402844 -7.45025e-17)
(1.03555 1.99896 1.13904e-16)
(1.18698 2.20073 6.5914e-17)
(1.26302 0.180164 -1.50775e-17)
(1.09849 0.191456 -1.1739e-16)
(2.31232 1.33128 0)
(1.52588 2.04773 5.82627e-17)
(1.63764 2.21474 -2.26382e-16)
(-0.0292302 12.9192 0)
(0.285938 2.85467 -4.51762e-16)
(1.36561 2.75459 0)
(0.970632 4.88143 -8.57559e-17)
(1.81305 2.77514 -2.27083e-16)
(6.88705 0.389503 0)
(6.64037 0.302964 -2.82596e-17)
(0.735029 0.0662276 0)
(1.21308 0.132387 0)
(0.798883 0.0949771 0)
(-0.0456097 2.34154 1.28668e-16)
(6.38933 0.235601 0)
(0.477213 -0.192276 7.31105e-17)
(0.435908 -0.18951 -7.83757e-17)
(-0.538192 5.28386 0)
(0.884839 0.0784312 -2.89366e-16)
(-0.12045 5.12333 -3.79398e-19)
(1.29475 -0.172767 2.56793e-16)
(0.0243545 3.47268 3.40384e-17)
(1.42834 0.21947 4.33345e-16)
(6.14191 0.464549 1.83895e-17)
(1.55199 3.76964 -5.10271e-18)
(6.71854 0.540077 -3.9638e-16)
(0.800956 0.179215 -1.9108e-18)
(-1.32148 3.91192 1.08373e-16)
(1.74687 3.15062 -7.13154e-17)
(-2.0703 7.68734 2.00584e-17)
(0.315197 3.28656 -3.28873e-16)
(0.655609 2.5399 -7.22036e-17)
(0.666096 9.96208 5.36201e-17)
(4.36063 0.394097 1.2659e-16)
(0.350081 4.89794 -3.39377e-17)
(0.686642 1.06524 1.68882e-16)
(0.0546412 11.2603 7.78155e-17)
(0.821724 2.99175 0)
(6.71849 0.422201 0)
(0.757376 0.0466873 1.90868e-18)
(0.225281 3.5482 2.34119e-20)
(0.173246 5.40179 9.11466e-20)
(5.32672 0.7851 4.7397e-18)
(0.713782 2.11288 1.50603e-16)
(2.25821 0.265832 -6.87835e-16)
(0.145478 2.22858 -1.44476e-16)
(6.60597 0.52281 -8.55271e-17)
(0.910228 2.92859 0)
(0.361122 2.64529 1.6377e-19)
(-0.432061 6.57244 8.37285e-17)
(1.15242 0.0296364 6.35488e-17)
(6.48123 0.298102 -1.46956e-16)
(2.32499 0.188945 8.02397e-17)
(2.08119 0.00292352 1.11451e-16)
(0.201435 3.48196 5.08518e-17)
(-1.27237 4.29632 5.97626e-17)
(0.744547 0.0330114 -6.34554e-17)
(5.08978 1.97844 0)
(1.28729 4.89649 -9.02069e-17)
(-0.138049 5.84825 0)
(0.251433 2.51487 0)
(0.562987 0.273117 0)
(1.13269 2.57006 1.23448e-18)
(4.07026 0.37006 -8.64414e-17)
(1.75674 -0.0443996 -1.48644e-16)
(7.17018 1.09795 -2.49504e-17)
(1.33892 2.39282 -1.57524e-16)
(1.19072 2.17992 -4.5754e-16)
(3.08143 0.383584 -1.74899e-16)
(8.27799 1.10962 0)
(1.60908 0.28218 -7.61537e-17)
(3.78994 0.344865 2.23513e-17)
(0.25317 4.6907 3.29051e-17)
(-0.223247 3.03503 6.14939e-17)
(8.77687 0.393313 -1.01674e-16)
(0.811104 -0.127706 -1.125e-16)
(2.28662 0.064003 2.52747e-16)
(-3.00584 1.46752 0)
(1.4035 3.22662 -1.11594e-16)
(0.723847 3.38907 -7.02926e-18)
(-0.874224 10.4199 -7.87669e-17)
(-0.00158854 5.39336 0)
(0.668384 0.0714101 1.06709e-16)
(0.0873498 1.86623 3.573e-17)
(2.40903 -0.000325496 -4.316e-16)
(0.338859 2.42691 0)
(0.895116 3.34465 2.06144e-17)
(6.62385 0.239147 -1.17733e-17)
(2.13872 0.197915 -2.62983e-17)
(2.08854 0.0808314 0)
(9.10895 0.367857 6.87531e-17)
(5.83491 0.673696 5.1237e-17)
(2.25481 0.0998428 0)
(0.364761 5.34624 -6.87647e-17)
(2.43606 0.476889 -8.25302e-17)
(7.59841 -0.0600003 1.16679e-16)
(6.55566 0.294665 -2.23663e-17)
(1.65507 2.06785 -1.31977e-16)
(-1.19945 1.06776 6.65075e-17)
(0.41546 2.14352 1.07076e-16)
(0.637275 4.86679 -2.46396e-17)
(7.00106 0.576213 1.36361e-16)
(1.75127 3.59803 -2.41688e-16)
(4.65769 1.97355 0)
(2.95287 0.832697 -1.49235e-16)
(0.701945 0.123696 -6.33752e-20)
(0.150412 5.15647 2.36821e-17)
(0.424971 2.67478 0)
(0.638247 7.09362 -1.75822e-17)
(0.335463 2.30859 -1.61825e-16)
(-1.45798 8.85541 -4.52909e-17)
(0.208476 3.51933 -7.68732e-17)
(6.86572 0.617552 0)
(0.958148 0.611799 3.33724e-16)
(0.771323 3.60263 -1.00151e-16)
(3.56432 0.536616 -2.08772e-17)
(0.027677 5.27651 1.65172e-17)
(2.43776 0.260138 -1.98015e-16)
(6.48482 0.323234 0)
(6.48995 0.208198 2.20543e-17)
(-1.55991 0.749987 0)
(-1.67698 1.83584 3.26117e-17)
(4.28292 5.6388 -2.23277e-17)
(1.115 1.346 2.44933e-16)
(3.5225 1.09927 1.5159e-16)
(7.84903 2.3079 4.85837e-17)
(1.26756 2.65809 9.54686e-17)
(2.8443 1.65582 0)
(0.81295 4.66702 1.91937e-16)
(8.5143 0.241422 1.47547e-16)
(3.12835 0.65413 -2.13198e-17)
(5.47075 1.9703 1.70927e-16)
(-1.69153 12.9423 -5.31207e-17)
(0.339946 4.99491 1.00682e-16)
(7.48234 0.607994 2.09399e-20)
(0.209226 2.38963 -4.61062e-20)
(1.29494 2.40336 -1.25929e-16)
(0.00360907 3.75771 -2.1521e-16)
(6.5458 0.294554 -9.45956e-17)
(0.662553 2.746 -9.18792e-20)
(7.02083 1.86328 4.66478e-17)
(6.35904 0.313357 0)
(1.82277 1.38246 -1.34974e-16)
(0.339017 3.88151 0)
(0.0793597 3.63055 0)
(-1.13809 4.25302 -1.04615e-16)
(-1.36815 9.48218 -1.12751e-16)
(2.59415 0.609396 -4.17248e-17)
(3.03049 0.116346 -5.18766e-16)
(6.50817 0.266739 4.97956e-17)
(-1.96647 10.8691 -9.48254e-17)
(0.379202 3.3978 5.81458e-16)
(7.89933 1.74396 3.13686e-17)
(-0.218787 4.91676 8.67841e-18)
(3.11082 3.68642 0)
(6.58064 0.340661 1.2688e-17)
(5.9953 0.774976 9.22298e-17)
(2.87968 0.30594 1.95047e-17)
(8.26993 1.33444 3.00338e-17)
(2.05656 1.85807 0)
(2.21662 2.03294 2.74868e-16)
(4.17367 1.84428 0)
(-0.00260671 2.33425 0)
(-0.408978 0.657662 0)
(8.98592 1.09523 -8.35641e-17)
(8.03043 1.30377 0)
(-0.0623041 10.91 3.4168e-17)
(7.21122 0.0151468 -1.96889e-16)
(0.819839 0.115516 -8.95545e-17)
(9.82701 0.82676 0)
(5.82741 6.10817 0)
(2.72549 0.478937 -1.12709e-16)
(1.16176 4.27948 0)
(4.76639 0.649155 0)
(2.23834 0.0794678 -8.61729e-17)
(0.495192 2.8343 0)
(-1.41003 10.0287 1.32769e-16)
(6.31996 0.228666 1.28217e-19)
(6.05752 1.53446 -2.68551e-16)
(5.98389 1.19364 1.26194e-16)
(5.9371 0.921908 7.69046e-17)
(6.01965 0.529821 -4.01073e-17)
(-0.0987521 2.828 1.48328e-16)
(7.07927 0.926678 0)
(1.28898 0.950306 1.54467e-16)
(5.68717 2.64277 -3.98711e-17)
(2.76056 0.71896 1.26938e-16)
(0.751937 2.22187 -2.47795e-16)
(1.54052 2.48418 -3.59307e-16)
(1.10872 5.64467 -3.76984e-19)
(1.3199 6.67697 -2.31466e-19)
(9.24048 0.894553 -2.58874e-16)
(1.03332 0.0650288 0)
(1.15701 0.0486329 0)
(3.83127 0.59032 0)
(4.00061 0.905021 -1.40055e-16)
(0.890213 2.30782 0)
(0.738271 2.09693 1.11261e-16)
(1.511 1.71424 2.76491e-17)
(1.50905 2.8563 -2.14093e-16)
(5.36461 0.0967711 -6.22984e-17)
(1.03029 0.0797897 1.46161e-17)
(1.34688 1.22165 1.73753e-18)
(6.2719 -0.140008 8.78788e-19)
(6.02414 -0.136425 1.10646e-16)
(4.73643 0.400375 1.2019e-16)
(1.2843 7.77096 1.3289e-17)
(0.364944 2.07888 3.14416e-16)
(0.332673 2.20909 -4.81448e-17)
(6.07776 0.784762 -1.11623e-16)
(5.0772 0.64328 1.01268e-17)
(7.59045 -0.233014 -8.11513e-17)
(5.19781 2.3403 0)
(2.19898 2.04291 3.86627e-17)
(0.477263 2.23095 -1.60193e-17)
(4.69319 2.4247 0)
(2.36 0.340386 4.85339e-16)
(4.35772 0.925903 3.98698e-17)
(4.68137 0.916834 0)
(3.79198 0.920428 -8.01627e-17)
(5.99812 2.28479 4.48282e-18)
(1.19015 2.33249 -7.92651e-17)
(-0.211295 0.265198 1.97532e-19)
(0.553205 0.211531 -3.26174e-17)
(0.801963 2.47214 1.73219e-16)
(0.954727 2.70634 0)
(1.31665 0.669881 -3.1736e-17)
(-1.24076 1.47632 0)
(1.86777 2.34234 1.91745e-16)
(7.12882 0.0524307 -4.84126e-17)
(-2.07834 9.98777 1.83585e-17)
(0.417954 3.08708 7.4606e-17)
(3.54013 1.47277 9.11038e-17)
(4.13264 0.619494 3.0689e-19)
(6.43135 2.12986 8.53495e-17)
(9.34839 0.595173 2.23992e-16)
(6.22137 0.308127 -8.10816e-17)
(3.75845 1.26032 0)
(0.485011 1.82463 0)
(3.68713 0.81882 -6.54637e-17)
(3.5676 2.01853 6.67297e-18)
(-0.193678 3.48388 0)
(2.64513 1.9308 1.57354e-19)
(1.15297 1.64042 -1.52717e-16)
(3.20986 0.960728 4.20159e-17)
(6.71921 3.11924 3.22138e-17)
(2.53921 0.371419 1.20515e-16)
(0.413463 2.49971 0)
(2.02693 0.123635 0)
(1.48675 3.60505 -1.37283e-16)
(0.809525 1.79071 1.39656e-16)
(7.55734 1.07534 1.18327e-16)
(5.76971 -0.0561261 -1.1443e-16)
(6.16422 -0.157309 -1.05774e-16)
(0.354006 0.195731 1.50757e-16)
(7.03658 2.30573 -1.57215e-17)
(8.7735 0.690696 8.24775e-17)
(1.72106 4.24027 -1.15971e-17)
(1.27507 2.86813 -1.13004e-17)
(0.116854 6.81025 -1.45743e-18)
(0.798084 2.07241 -1.39982e-16)
(0.727187 2.54921 -4.64935e-17)
(1.169 0.253467 -6.46345e-17)
(6.25771 1.0371 -6.34392e-17)
(0.196828 1.55255 -1.31732e-16)
(0.753645 1.41437 -2.10574e-16)
(0.00269735 1.01018 1.99239e-16)
(0.128268 2.5387 -3.52237e-20)
(1.02698 0.639879 -2.06408e-19)
(0.609977 2.34378 -1.45298e-16)
(0.222224 1.81322 -7.03393e-17)
(6.55819 0.486174 2.74147e-16)
(0.165534 2.01469 -6.13027e-17)
(2.61013 0.233958 0)
(7.34651 1.71231 -8.45131e-17)
(1.32975 3.31037 -7.12882e-17)
(1.91476 0.175008 0)
(1.50108 0.646223 0)
(0.281005 2.1695 1.57985e-16)
(6.71402 0.404488 0)
(0.686471 2.28398 -1.29596e-16)
(1.24216 0.600364 -4.64635e-17)
(0.123492 0.692641 0)
(1.08589 0.317342 -1.389e-17)
(2.25909 4.15204 5.88844e-17)
(-0.501878 3.86051 0)
(6.6322 0.874376 -1.29326e-16)
(0.318447 1.95929 7.04065e-17)
(10.2564 1.30718 1.57225e-17)
(1.79335 2.25197 -4.01585e-16)
(1.51515 -0.119169 1.20196e-16)
(9.97998 0.905652 1.73876e-17)
(0.557335 -0.42102 1.14853e-16)
(0.453257 0.000434079 -6.34888e-17)
(0.317537 -0.00708997 -5.96064e-17)
(0.96168 0.0116127 -8.64662e-17)
(0.572182 0.0222731 -3.35955e-16)
(0.274493 0.0688272 0)
(0.72256 0.0684515 -1.21057e-16)
(1.47114 -0.128911 0)
(0.908528 0.00683682 0)
(0.514329 -0.00198885 0)
(1.55975 -0.153593 -2.42843e-16)
(0.553718 0.107114 0)
(1.83296 0.0390333 3.22789e-16)
(1.25286 0.133594 -1.40103e-17)
(1.40743 -0.0732109 9.07803e-17)
(0.770809 0.0522961 1.87499e-18)
(0.47602 -0.0641425 -6.6556e-17)
(0.4053 -0.016568 2.03934e-16)
(0.825054 -0.200869 -1.11235e-16)
(0.905125 0.0576121 0)
(1.43672 -0.0476726 0)
(1.17749 4.90006 -1.43542e-17)
(1.46598 3.06351 0)
(0.876165 2.21614 4.66575e-16)
(1.48758 1.00059 9.79935e-17)
(-0.155531 1.42562 -1.15627e-16)
(3.3866 0.74215 7.981e-17)
(0.167604 1.69513 0)
(2.49498 0.259191 1.33424e-16)
(1.19125 3.08396 7.42424e-17)
(8.5618 2.09209 3.95775e-17)
(10.0245 0.245286 8.79741e-17)
(0.40467 0.113008 4.90608e-16)
(0.558575 0.0196089 2.07881e-17)
(0.931148 -0.0796 2.68167e-17)
(0.373873 -0.000248072 -1.90361e-16)
(0.438417 0.0419491 0)
(1.48373 -0.0441513 8.83998e-17)
(0.827207 0.0490792 0)
(1.43642 0.00885066 0)
(1.52802 -0.141008 1.21574e-16)
(0.663574 0.0928414 1.1481e-16)
(0.48386 -0.0138376 1.22847e-16)
(-0.0327008 -0.877553 0)
(1.392 0.931308 3.03815e-16)
(2.90475 0.555448 -4.29419e-17)
(10.0047 0.142589 0)
(0.0018407 1.87032 1.98438e-19)
(0.733112 0.00526643 -1.32959e-16)
(0.254027 0.437845 -1.34203e-16)
(9.23711 0.949352 0)
(0.501051 2.51018 0)
(6.36377 0.130562 0)
(2.22809 0.314605 -3.84432e-17)
(0.910013 3.45369 1.27696e-16)
(9.11687 1.04423 3.38722e-17)
(0.95343 0.19281 2.56846e-17)
(0.714634 4.06755 7.94714e-18)
(5.50119 2.93042 0)
(1.22715 0.114387 8.88879e-17)
(2.08869 0.137481 2.17643e-16)
(0.374422 0.138941 -2.55135e-17)
(1.3539 2.97687 -1.00814e-16)
(7.66019 0.132166 9.34403e-17)
(0.478488 0.107743 0)
(0.49007 0.145869 2.40624e-20)
(2.35381 1.67056 -6.75767e-16)
(2.08627 0.102171 -2.7524e-17)
(0.272019 2.01641 6.58069e-17)
(0.932468 2.86908 -1.23913e-16)
(0.572507 2.14375 2.36106e-16)
(1.43436 -0.0205691 -1.70706e-17)
(0.309621 0.294284 1.16162e-19)
(1.11628 0.417929 3.62367e-17)
(1.17025 2.72316 1.09879e-16)
(0.387049 2.32306 4.75977e-17)
(1.59538 3.00777 -1.91792e-16)
(2.0362 2.70433 0)
(0.989641 2.72024 1.25449e-16)
(1.34395 2.70864 3.55159e-17)
(0.540574 2.59576 9.47841e-18)
(1.5238 0.104338 -1.19702e-16)
(0.985899 2.56617 -2.90815e-16)
(1.49794 0.213237 0)
(2.65863 3.08148 -1.23126e-16)
(-0.102234 -0.234835 0)
(0.465493 2.52872 2.15142e-16)
(1.29977 0.483634 -7.21376e-18)
(1.0292 2.56167 0)
(0.86422 2.59091 -1.69369e-16)
(0.467455 2.63721 2.39408e-18)
(1.53 3.27815 4.30414e-16)
(1.1314 0.135883 1.62475e-16)
(1.00063 0.141414 1.52308e-19)
(-0.194095 2.38341 -3.82513e-17)
(0.42581 2.57588 0)
(0.398518 2.66655 4.38293e-17)
(1.94069 2.33185 0)
(0.623752 2.42743 7.82248e-18)
(0.613107 2.36042 -4.42781e-18)
(1.8686 3.60874 -7.26301e-17)
(-0.442584 1.41838 0)
(0.583222 2.49889 1.43263e-16)
(0.567801 2.42764 -8.94122e-17)
(0.305121 2.32602 3.45367e-16)
(0.57389 2.39976 -1.29891e-16)
(0.380219 2.22995 -1.30561e-16)
(0.624288 3.1976 5.9076e-17)
(0.38453 2.14802 -1.99493e-16)
(0.264062 2.30257 -2.50503e-16)
(0.230254 2.40492 -6.12922e-18)
(0.311062 2.22563 0)
(1.27814 0.280641 0)
(1.46443 0.559505 3.83707e-16)
(-0.304395 1.89091 0)
(0.962197 0.214669 0)
(0.867856 0.623094 -1.96917e-16)
(1.27942 0.100002 1.54064e-16)
(1.25772 0.0323167 -3.23341e-16)
(0.423225 0.114687 -1.32911e-16)
(1.71713 0.764913 1.44703e-16)
(1.13385 0.46617 -2.064e-16)
(1.32833 -0.0103473 -4.17807e-16)
(2.01767 1.15224 2.44634e-16)
(0.727737 0.0869149 0)
(2.03195 0.0976069 -1.84861e-17)
(0.301226 2.77237 -6.2073e-17)
(1.3417 0.676474 2.67994e-16)
(1.35195 -0.079938 -1.39293e-16)
(1.57548 1.32701 -4.81489e-16)
(1.71262 1.80859 4.31211e-16)
(1.32896 2.13789 2.1195e-16)
(1.39506 2.37716 0)
(1.02543 3.32641 -3.1988e-17)
(0.72425 0.0998931 0)
(0.211997 3.4906 -6.5101e-17)
(6.48341 1.4113 -2.23441e-17)
(2.05763 0.0754557 -3.92069e-17)
(1.42711 0.741951 -1.45257e-16)
(1.01146 0.857614 -1.31125e-16)
(0.369933 2.47243 1.17624e-16)
(0.133952 2.66251 -8.89437e-17)
(-0.439944 0.710031 0)
(0.260889 0.722186 -8.73144e-18)
(-0.26625 1.44261 0)
(1.48173 -0.0541982 1.67856e-17)
(1.17702 1.44709 9.72228e-17)
(0.197374 1.56079 0)
(0.7241 0.13659 0)
(0.445941 2.94542 0)
(0.211738 2.87372 3.45556e-17)
(9.3919 0.819441 -1.54955e-17)
(0.331044 3.20932 0)
(1.3275 1.08196 1.24125e-19)
(0.0530801 2.43351 1.7545e-17)
(0.565409 2.70905 2.54246e-20)
(0.956308 2.60958 0)
(1.02788 2.64481 1.66874e-16)
(-0.424654 3.15723 0)
(1.39208 -0.156018 -1.75005e-19)
(0.370982 2.42678 -6.31974e-17)
(-0.377235 2.81676 -3.17146e-17)
(0.127931 2.60393 -6.81645e-17)
(0.331693 2.70094 0)
(0.372322 3.50925 2.23322e-17)
(4.08937 2.28064 0)
(1.04041 4.76297 2.57836e-17)
(8.10399 0.65517 -1.41648e-16)
(-0.309927 2.51774 0)
(1.24033 1.78496 -5.38127e-16)
(0.263041 2.72827 8.55306e-18)
(-0.067112 3.23975 3.22413e-17)
(1.20739 0.0386817 0)
(-0.468709 2.80737 2.11413e-20)
(1.09553 3.75075 -8.62351e-17)
(-0.0849053 2.87314 4.97513e-17)
(0.375049 0.117316 -1.37157e-16)
(0.679524 0.130832 9.36464e-19)
(0.589064 2.83778 0)
(-0.649556 3.06768 1.16014e-16)
(0.0218704 2.84851 0)
(0.254998 3.77821 2.88006e-17)
(0.403526 2.83362 -8.96848e-17)
(2.06496 0.120651 5.42051e-17)
(1.99137 0.185665 -1.56376e-16)
(1.09177 3.42397 3.94919e-17)
(-0.144881 3.35184 -1.23964e-17)
(0.249721 2.53779 1.78277e-17)
(0.166558 3.18456 -3.17419e-17)
(0.631144 2.70154 3.3739e-17)
(0.515134 3.01775 0)
(0.630637 2.39598 3.24232e-16)
(1.40476 2.61771 0)
(0.964338 2.66965 -1.02239e-16)
(1.42569 2.59214 1.81005e-16)
(0.882892 3.10504 1.26852e-16)
(1.04383 1.11579 0)
(0.634854 -0.0122545 3.38352e-17)
(0.495993 2.47749 5.19727e-17)
(0.516446 2.75899 2.27177e-17)
(6.39607 0.353983 0)
(0.320846 2.46363 0)
(1.54082 -0.119698 -3.27333e-20)
(0.65258 3.45636 -3.45296e-17)
(0.280957 -0.789495 1.59211e-16)
(6.52335 -0.141987 4.9934e-17)
(0.293138 2.8276 6.37816e-17)
(1.45354 0.356313 2.48941e-17)
(0.0706553 4.15873 -3.96471e-17)
(0.635874 2.67309 -6.68619e-17)
(1.14915 2.9074 -1.36836e-16)
(6.70209 -0.132574 -1.44693e-18)
(3.70996 1.67152 6.75111e-17)
(0.565907 2.39027 -2.97923e-16)
(1.17013 2.97378 0)
(0.661209 2.6757 0)
(0.976656 2.03427 8.17961e-16)
(1.68649 0.129792 -1.2635e-16)
(0.128405 0.129411 -4.05833e-16)
(0.675054 2.28652 0)
(4.04159 1.14615 1.92815e-16)
(1.49979 2.8615 0)
(1.02343 2.71517 1.02373e-16)
(-1.95191 -2.11972 -2.78769e-16)
(0.471091 2.49247 1.77231e-16)
(1.42301 2.7364 0)
(0.483846 2.50913 9.22077e-18)
(1.70449 2.24008 0)
(2.27913 2.08977 1.57078e-16)
(0.908068 2.28005 9.14395e-17)
(0.430137 1.49956 1.00054e-16)
(1.10026 2.73148 -1.06557e-16)
(2.49764 2.24377 -4.29554e-17)
(0.727193 0.195273 -3.86837e-18)
(6.42916 0.296528 3.10897e-16)
(-0.404581 3.85468 0)
(0.993963 2.62077 -1.65116e-18)
(0.953834 0.196787 -1.89284e-17)
(0.693717 3.12424 0)
(-0.173871 3.29163 2.35254e-16)
(4.71685 3.02531 0)
(0.84439 0.265337 3.7762e-18)
(5.38272 0.598388 -4.88157e-18)
(1.33846 1.51468 0)
(1.34979 1.67836 -9.64559e-17)
(9.99192 0.578993 -1.13656e-16)
(3.92714 2.74953 0)
(3.36851 2.42432 -7.17266e-18)
(0.931807 3.0761 0)
(0.474633 0.135422 -6.98445e-17)
(0.231755 2.60966 -1.4885e-17)
(4.37928 1.19002 1.01853e-17)
(0.805517 0.498156 -1.45128e-16)
(0.448287 3.35421 -1.558e-16)
(-0.0317019 2.76325 -2.78262e-16)
(1.48769 -0.24306 -2.92171e-17)
(0.565992 2.8217 -4.73458e-18)
(0.608872 2.73018 5.25728e-19)
(0.41241 2.505 -8.23955e-17)
(0.0447928 5.18683 0)
(1.66459 -0.166526 1.06384e-19)
(0.415874 2.45315 5.10595e-17)
(2.97788 3.60226 -4.87816e-17)
(2.33328 2.55757 8.94311e-18)
(0.6746 2.43878 -1.28828e-16)
(0.135798 0.289946 0)
(0.622924 2.54558 -1.3792e-16)
(2.60957 3.01017 0)
(4.73239 1.20636 -1.83829e-17)
(0.495396 3.01251 0)
(0.447201 2.79014 4.27035e-17)
(0.611041 2.67901 -9.20565e-17)
(0.373977 2.49717 -7.1144e-20)
(1.45025 -0.60268 6.89234e-17)
(0.992477 0.298074 0)
(0.712591 0.273597 2.67493e-16)
(2.41932 -0.00227952 -4.42815e-17)
(0.0436274 2.53189 6.53289e-20)
(1.57254 1.13966 -7.31662e-17)
(1.80395 -1.06487 5.30331e-17)
(0.514679 0.18598 6.9501e-17)
(0.663075 2.54192 -1.09647e-17)
(6.42524 0.274126 0)
(0.412427 2.44773 4.72477e-17)
(0.815583 0.177799 -8.92601e-17)
(-0.308562 0.447741 -9.73794e-17)
(6.45748 0.301359 -6.79348e-17)
(0.969002 0.960342 5.3406e-17)
(0.347697 2.62834 3.203e-17)
(1.66461 -0.367056 -5.46899e-17)
(3.36949 1.3157 5.93309e-17)
(3.27112 2.9801 2.72922e-17)
(0.947997 0.238592 2.18141e-16)
(0.679347 2.87043 -1.54555e-17)
(0.507875 2.52506 0)
(6.47497 0.39429 2.79873e-16)
(0.700585 2.45556 2.97218e-16)
(-0.289039 2.52396 -1.60639e-17)
(0.680193 2.70417 0)
(0.857948 2.83717 2.49782e-17)
(0.969194 2.1618 -8.07686e-17)
(0.813492 1.91143 5.87131e-17)
(0.87576 0.101781 2.75297e-16)
(0.358192 0.183272 0)
(0.347889 1.43123 2.04446e-17)
(2.97117 2.14887 6.13201e-17)
(5.43415 4.05214 0)
(0.67661 2.06283 1.003e-16)
(0.52063 2.64068 -5.66032e-17)
(6.42039 0.775945 1.20973e-16)
(9.3377 1.00971 -2.59094e-17)
(0.332164 2.48413 -2.22077e-16)
(0.614319 2.50284 -3.43875e-16)
(0.943043 2.57948 1.61365e-17)
(1.3867 0.37644 6.99078e-17)
(1.16798 0.443797 -2.78543e-16)
(0.961851 0.777711 -1.13292e-18)
(7.07969 1.5655 0)
(1.30737 0.081191 1.25752e-16)
(10.0557 0.747753 3.70682e-17)
(0.457373 2.43128 -5.27231e-17)
(0.478234 2.5108 1.28292e-16)
(1.32999 2.86619 -4.12574e-17)
(0.590749 0.27017 -6.74273e-17)
(6.54105 1.10463 -3.71999e-17)
(0.90905 0.392504 -1.52692e-16)
(0.944377 2.49303 -1.84732e-17)
(2.06567 0.180778 0)
(2.22682 0.388469 1.15687e-16)
(1.81718 1.22151 5.28858e-17)
(1.85283 1.18493 1.52977e-16)
(3.61588 0.165261 0)
(2.8276 2.54144 -4.46566e-17)
(1.24741 2.57209 -1.29779e-16)
(0.370767 -0.387543 3.70437e-18)
(0.661654 6.41091 -1.50152e-17)
(0.554243 0.130641 1.71711e-17)
(0.0328094 2.0178 -1.60973e-16)
(1.72324 2.48576 -4.5001e-19)
(1.22663 2.25733 3.04154e-16)
(0.784689 2.66996 -3.21906e-17)
(1.30953 2.92267 0)
(-0.0419057 0.450787 1.26439e-16)
(2.16234 0.0729576 2.70687e-17)
(0.961468 2.55419 0)
(0.845739 2.73978 -1.42125e-17)
(0.205295 3.00098 -4.47849e-17)
(0.699634 2.40169 9.33642e-17)
(2.02451 -0.527276 -2.52734e-17)
(0.250494 -0.155532 -5.62423e-17)
(-1.18841 -1.62889 1.77598e-16)
(6.8176 1.39317 0)
(3.11267 1.15634 -8.85812e-17)
(0.693764 2.7614 0)
(1.94753 -0.190279 1.0854e-16)
(3.9526 1.4297 -1.03796e-16)
(2.71198 -0.466082 4.61379e-17)
(0.304882 3.56914 1.7393e-16)
(1.12246 1.50499 1.05716e-16)
(4.06149 3.53857 -3.96064e-19)
(0.580109 2.44724 -1.66052e-16)
(10.0524 0.968534 -7.246e-18)
(3.04995 0.27177 2.77874e-16)
(0.664064 1.13498 2.28868e-16)
(0.453899 0.109121 3.30186e-18)
(1.30146 -0.369228 -6.96056e-17)
(0.479803 2.33231 -3.57797e-17)
(0.606803 2.60525 -8.64497e-17)
(6.96589 0.464379 2.04419e-20)
(0.709844 2.7584 2.32763e-16)
(0.740021 2.72259 -1.09697e-16)
(2.84614 0.988121 -1.29638e-18)
(-0.000447786 2.51626 5.73668e-17)
(7.73617 0.517453 0)
(5.28397 2.32014 2.90763e-17)
(6.44538 0.372761 1.72051e-17)
(0.349871 2.40705 2.08449e-16)
(2.8293 0.15495 -2.17286e-16)
(6.22224 0.375208 -2.89114e-17)
(0.545904 2.20447 0)
(0.710688 2.40939 1.0212e-16)
(2.71076 -0.0432262 -2.16498e-16)
(1.6099 0.294671 0)
(-0.570198 1.35445 0)
(0.0806627 0.201085 1.23789e-16)
(2.93604 -0.0161321 2.08572e-16)
(3.16144 0.014568 0)
(0.62622 2.26716 -2.58014e-16)
(4.30848 1.49265 -1.01678e-17)
(2.13044 0.914013 1.18189e-16)
(-0.412092 1.98197 9.43488e-17)
(0.650739 2.37521 0)
(1.56915 0.498076 -2.44032e-16)
(0.909316 2.62258 1.17832e-16)
(0.625001 2.23212 1.242e-16)
(1.78148 -0.0102462 0)
(-0.025985 0.967484 0)
(4.51169 -0.0123696 0)
(8.52263 0.516216 9.01414e-18)
(3.17811 1.81617 1.50289e-17)
(4.45244 0.639376 -2.01136e-17)
(3.31061 0.46259 1.09514e-16)
(1.17291 1.32278 1.60102e-16)
(0.375437 2.11254 5.087e-17)
(3.34292 1.51289 -1.85866e-16)
(3.41112 0.0422246 0)
(3.92526 0.0498345 4.74439e-17)
(1.32075 1.02056 0)
(1.05285 -0.212551 -8.59215e-17)
(9.86353 0.442959 6.7526e-18)
(6.81487 0.0931677 0)
(4.45722 1.80229 7.98368e-18)
(3.52151 0.322759 -2.07673e-16)
(0.473977 0.0555352 -3.32944e-16)
(-0.697625 8.08605 8.02996e-17)
(1.24667 2.1477 0)
(1.15319 2.53815 2.21317e-18)
(6.32342 0.27717 1.37903e-16)
(0.51065 1.04507 -1.76215e-16)
(0.436813 0.245107 -5.18923e-18)
(0.870631 2.55263 -4.4751e-17)
(4.59893 0.10173 7.48808e-19)
(3.67234 0.0566417 7.47042e-19)
(-0.417997 1.68455 2.20501e-19)
(0.485194 1.48864 0)
(0.50847 0.102412 1.29094e-16)
(1.16778 -0.704713 1.09253e-16)
(-0.287497 0.796925 -1.23526e-16)
(4.44062 -0.0578667 0)
(1.26989 1.6691 5.90119e-17)
(1.35276 2.77614 2.95285e-17)
(0.40705 2.42052 -1.37215e-16)
(2.02361 0.756964 -1.30688e-17)
(-0.0785237 4.17335 -6.7462e-17)
(0.576343 -0.016214 4.62034e-17)
(4.1646 0.0130703 -4.9816e-17)
(-0.110326 2.23164 0)
(-0.0561125 0.114547 1.38535e-16)
(0.775345 0.32055 -5.17957e-16)
(0.460855 0.0872398 -7.41504e-17)
(1.13983 -0.322299 -9.59927e-17)
(0.750527 -0.0484542 9.89968e-20)
(3.31002 0.300084 2.4344e-19)
(1.2197 1.74886 1.21681e-16)
(4.71475 1.55754 0)
(2.35506 -0.107979 0)
(0.643802 1.20839 -8.41574e-17)
(10.0017 0.0851867 3.24285e-18)
(8.62436 1.25147 0)
(0.576889 0.138039 -6.62436e-17)
(1.51328 -1.28261 0)
(0.724744 1.91325 -1.52566e-16)
(6.52841 0.325586 3.29352e-17)
(0.635283 2.29122 2.07816e-16)
(0.781657 2.60632 0)
(2.62877 0.86004 3.99935e-17)
(2.28636 -1.52163 -7.06411e-17)
(-0.164129 -0.0353298 6.30511e-17)
(0.810041 0.530177 -1.59177e-16)
(1.68158 3.07428 1.55934e-16)
(0.711886 0.0916648 -3.10987e-17)
(0.942839 1.35868 4.2725e-16)
(-0.0490628 3.34699 0)
(6.20143 1.86418 -1.10606e-16)
(6.45366 0.263142 -3.73383e-18)
(0.805907 1.80679 -8.6888e-17)
(0.761421 0.408031 6.99402e-17)
(3.94747 4.21385 -2.14896e-17)
(5.62606 0.113193 3.81525e-17)
(5.1636 0.310162 -5.09107e-17)
(4.46297 0.132696 -2.35497e-16)
(4.7913 0.278145 0)
(5.33514 0.0937794 -1.91648e-16)
(6.32587 -0.14519 0)
(5.44168 -0.240082 4.5129e-17)
(4.34425 -0.0365928 5.87344e-18)
(-0.466089 2.24867 -5.44277e-16)
(0.484086 0.0870264 -3.27526e-16)
(9.67095 0.659173 6.69575e-17)
(-0.624013 4.87337 -1.57755e-17)
(0.683159 2.63689 1.79235e-17)
(2.69214 -1.1776 3.05449e-16)
(0.976855 0.138408 2.17407e-19)
(0.311607 0.119301 0)
(0.412634 0.0866049 -1.57385e-16)
(1.11837 -0.191909 -2.79206e-17)
(1.62036 0.842778 0)
(-0.848978 2.07553 1.26521e-16)
(8.73331 2.04455 2.99298e-16)
(0.391198 2.28506 -2.07438e-16)
(6.41509 -0.137905 5.00328e-17)
(2.99405 0.59896 -4.13941e-17)
(0.602354 2.14501 -1.10227e-16)
(5.15604 1.57111 0)
(2.26876 0.546991 -5.4969e-17)
(5.60826 0.740677 0)
(5.07808 -0.0750588 0)
(2.88398 1.37796 -5.23349e-20)
(2.45459 0.73845 1.4492e-20)
(1.28695 -0.230557 2.89768e-17)
(0.879488 2.27009 -3.21154e-16)
(0.151981 1.66705 2.67337e-16)
(6.24407 0.236117 1.49921e-17)
(0.541139 2.97483 1.00142e-16)
(1.14603 2.40794 1.92965e-16)
(1.31394 1.9248 1.20075e-16)
(0.265505 -0.0118793 -2.61975e-16)
(0.871692 2.03209 4.22088e-17)
(1.57955 1.39473 1.44398e-16)
(1.00694 1.71701 -4.87811e-17)
(1.09261 1.99054 0)
(9.00836 1.14517 0)
(6.05475 0.394513 8.02931e-17)
(6.41653 0.262354 -1.36808e-16)
(1.75024 1.49823 -1.5231e-16)
(1.73724 -0.0807935 -2.86979e-17)
(0.697957 0.0966195 2.98434e-17)
(1.19349 0.149691 0)
(-0.0331744 3.20699 0)
(6.6838 0.784856 8.18872e-17)
(2.5572 1.51239 0)
(1.19174 -0.11472 -6.0371e-17)
(0.268769 -1.27848 -1.25794e-16)
(2.09816 0.291019 2.34242e-17)
(1.14042 2.9812 0)
(0.38835 0.724886 2.35237e-16)
(0.968059 2.52326 0)
(0.430007 0.0753612 1.49246e-16)
(2.35605 1.75694 -1.42266e-16)
(1.53439 0.192103 0)
(1.39269 0.15442 -1.08242e-16)
(0.0970113 0.53364 -6.94855e-17)
(6.31809 0.5944 -1.24907e-16)
(0.845287 1.6988 1.23449e-16)
(3.62788 3.98298 0)
(0.811048 0.0089592 6.64512e-17)
(0.319756 0.144843 -6.88769e-17)
(6.2333 0.215927 0)
(-0.0115989 3.06952 0)
(1.62158 -0.211896 1.63304e-16)
(1.92647 0.374042 -1.22065e-16)
(1.6302 0.363397 0)
(2.09754 -0.0147487 2.50076e-16)
(3.69587 2.62994 0)
(0.350087 2.63571 -1.87073e-17)
(0.751849 0.460782 -1.34629e-16)
(6.14706 1.50742 8.52062e-17)
(0.738825 4.14308 -1.09125e-16)
(1.25452 0.406192 -4.48316e-16)
(0.420515 0.0750431 -9.79657e-17)
(1.1492 -0.0889565 0)
(0.74719 1.41235 -1.9637e-16)
(1.28166 3.32996 1.97218e-17)
(0.747595 0.612633 0)
(0.737351 0.412955 -1.61691e-17)
(0.208068 2.33877 1.61097e-16)
(-0.0115244 2.51785 5.93687e-17)
(2.40551 -0.0928989 0)
(2.06461 -0.0315681 -4.89472e-19)
(6.66708 0.290286 -7.37391e-17)
(0.446256 3.27142 2.42402e-17)
(0.418932 0.105506 4.54351e-16)
(0.36063 -0.241892 8.19223e-17)
(0.708363 0.590788 2.91272e-16)
(6.40345 0.299909 8.98339e-17)
(0.648735 2.81315 0)
(0.863788 0.119046 1.87544e-18)
(0.200545 2.21944 -1.71607e-16)
(1.12605 2.65243 -2.44998e-16)
(1.1679 3.91401 -7.07804e-17)
(5.82532 0.525158 9.61331e-19)
(0.482031 5.83719 0)
(2.09704 4.2396 3.04598e-18)
(0.458612 2.02415 -8.27503e-17)
(6.08925 0.595155 4.03314e-17)
(1.32422 -0.203642 1.75346e-16)
(6.27769 0.317909 2.42986e-19)
(6.33405 0.404905 0)
(2.06227 1.5264 7.93921e-17)
(2.53357 5.49302 0)
(5.40802 -0.0512622 -2.29678e-16)
(0.594076 2.48914 -1.68235e-16)
(2.57089 -0.0276608 0)
(0.650802 2.65604 -6.98359e-17)
(2.75319 1.27544 -2.77679e-17)
(0.527206 5.23443 5.39333e-17)
(-0.209933 4.07514 -5.11339e-18)
(-0.0393304 4.4893 0)
(-0.146078 4.324 4.92912e-18)
(-0.24727 3.7539 1.17413e-17)
(0.0856499 4.47165 1.99003e-17)
(0.180162 4.26954 -4.19425e-17)
(-1.03794 1.7287 1.4548e-16)
(0.947999 0.945455 0)
(-4.21323 -2.6615 1.40735e-16)
(6.14919 0.731715 1.55304e-17)
(0.207363 3.91958 -3.98404e-20)
(0.0179472 3.12121 0)
(-1.03593 -0.829275 5.45872e-17)
(-0.250012 2.21491 4.56981e-19)
(0.0778563 3.54182 -1.27293e-16)
(0.746858 0.103354 -3.85598e-18)
(-0.132176 2.7391 -1.19512e-16)
(0.467217 2.44858 -8.57282e-17)
(0.0146133 1.93761 -8.49217e-17)
(0.0478015 3.17162 3.94509e-17)
(0.49896 2.37592 2.92152e-16)
(0.60244 0.905902 0)
(1.60101 -0.140886 -1.30694e-16)
(0.176937 3.56569 -6.4884e-18)
(0.735411 0.105398 3.14081e-17)
(0.611269 2.34133 -1.04555e-16)
(0.775682 0.0706776 -3.46942e-17)
(0.444226 1.76242 1.43042e-16)
(0.652502 2.32436 7.3644e-17)
(1.48395 0.0262786 9.05758e-17)
(0.768786 0.129045 1.9319e-18)
(0.10727 2.5098 -1.84674e-17)
(-0.0422088 2.9034 1.11736e-16)
(0.0916418 3.37146 -1.32256e-17)
(-1.28971 1.90088 -3.56872e-17)
(0.00336522 2.65222 0)
(1.52908 4.57613 2.51339e-17)
(0.653728 2.3252 1.57559e-16)
(0.25862 2.14615 9.40529e-17)
(0.425802 2.0536 1.3253e-18)
(5.65399 1.85444 -1.95609e-16)
(0.536766 2.62143 1.7211e-17)
(0.438897 2.0511 2.10463e-16)
(6.27395 0.43873 -1.07164e-16)
(-0.0157044 2.93997 -2.73562e-17)
(0.0277187 3.17115 5.17139e-17)
(0.662959 -0.00583716 1.98631e-17)
(0.889542 2.58594 -1.09842e-16)
(5.90539 0.390637 -1.26221e-20)
(0.541808 2.25432 1.18728e-16)
(0.743042 3.15822 -1.39253e-16)
(0.651754 2.896 2.34477e-16)
(-0.641004 7.84905 8.28454e-18)
(0.266485 3.06675 -7.20676e-17)
(1.06117 0.927612 2.14451e-16)
(-0.0905896 2.91339 0)
(-0.710492 3.26632 0)
(0.106134 2.56716 1.58189e-16)
(6.02226 0.620051 4.57204e-17)
(0.714929 2.15076 2.32249e-16)
(1.00738 2.39262 -1.24164e-16)
(10.0439 0.82955 1.64667e-17)
(1.51839 -0.155816 1.17689e-16)