/*--------------------------------*- C++ -*----------------------------------*\
| =========                 |                                                 |
| \\      /  F ield         | OpenFOAM: The Open Source CFD Toolbox           |
|  \\    /   O peration     | Version:  v1912                                 |
|   \\  /    A nd           | Website:  www.openfoam.com                      |
|    \\/     M anipulation  |                                                 |
\*---------------------------------------------------------------------------*/
FoamFile
{
    version     2.0;
    format      ascii;
    class       volScalarField;
    location    "0.54";
    object      epsilon;
}
// * * * * * * * * * * * * * * * * * * * * * * * * * * * * * * * * * * * * * //

dimensions      [0 2 -3 0 0 0 0];


internalField   nonuniform List<scalar> 
5794
(
0.579731
0.499095
2.28106
105.767
37.3149
1.08698
11.8397
5.5926
90.1623
4.81091
35.6681
7.53232
13.3569
39.5404
0.561437
0.252323
361.081
53.0137
0.707237
0.732972
63.0457
0.80614
16.4847
0.698289
39.4363
121.378
339.359
24.0789
91.8799
2.61144
7.72607
4.41282
19.6802
0.981562
16.1074
15.1508
4.43463
40.5331
36.6451
64.2728
30.5633
1.25317
9.39334
7.7569
0.585731
42.3891
28.4748
7.63521
3.78682
6.80896
0.234336
57.0653
2.42186
2.36548
0.233153
37.9717
22.7746
11.6412
6.11313
242.692
61.8795
0.55849
10.0398
7.27739
23.3835
0.490995
45.7388
25.3047
58.9573
0.712035
76.8834
56.235
438.703
1.76493
58.1982
8.09852
9.00956
84.6436
5.50302
0.882811
1.41573
0.770372
26.1257
23.8039
23.9153
60.1573
43.7884
94.7735
0.641248
17.7584
104.709
25.7499
55.5229
97.9313
31.1859
62.2745
77.9874
45.3048
23.7496
69.3526
52.0759
2.79559
7.56288
35.4881
2.49348
97.7468
0.506329
9.12369
42.1224
3.46516
1.98766
1.27974
56.2891
0.749864
26.2111
74.5259
0.703288
78.7228
55.3784
22.0927
86.6969
1.19134
9.28536
18.9104
0.701206
51.0428
69.9839
0.934567
65.7084
10.5534
9.61387
13.979
33.3972
72.6831
101.087
0.511942
124.547
0.516828
0.331748
1.17954
2.542
15.4768
0.869058
18.5938
0.479681
360.389
55.9376
56.6265
39.5338
9.40808
12.1005
1.66416
100.594
7.94755
383.156
50.3198
28.4639
34.0665
76.3783
30.2542
0.618999
10.3364
1.74173
18.6869
57.6905
69.2765
22.4797
5.77931
2.18876
1.53077
0.861491
29.9317
16.6685
17.9307
2.05627
16.621
0.897569
24.7119
1.08193
76.2644
3.91102
8.59632
4.02952
43.4028
7.64371
391.725
3.52776
15.2935
5.53086
2.62334
45.5879
4.9639
25.5641
6.6933
21.51
11.6207
11.2223
1.42262
0.854372
6.86298
15.8635
61.6465
12.1121
5.03646
34.5281
50.8311
5.87239
18.8754
196.989
44.0257
0.79336
10.2493
15.486
12.1198
0.62042
17.0781
13.1896
44.561
28.2376
72.6497
9.83067
27.0868
143.725
49.0682
156.553
180.714
2.64739
5.40308
22.1039
0.53079
10.2191
10.7439
1.4316
31.6865
36.6127
219.84
259.004
36.8361
15.2088
1.03961
0.737327
54.287
37.4316
55.7168
11.6292
1.96366
0.658498
49.2873
140.032
70.3962
45.6318
0.57211
366.067
0.582455
5.00014
128.801
7.14756
20.5914
15.188
0.712523
86.4397
14.6184
9.29086
0.785225
23.4779
9.29032
14.5806
69.8234
0.738709
53.3357
37.1985
23.1143
35.1073
70.4461
16.4483
0.575537
2.31109
2.01166
2.09786
13.7353
1.73157
77.1732
26.6443
1.18334
51.3728
84.9767
46.9007
46.5333
129.255
86.5069
11.4804
13.1955
0.788506
3.14854
4.82642
129.864
22.7397
1.9955
57.4828
0.583861
0.993957
55.1797
1.2634
46.5485
3.78407
72.9169
2.40807
56.3348
60.7212
41.6756
27.6814
40.9112
46.0501
0.680616
9.8329
35.443
12.0997
29.8396
44.399
115.297
3.08921
8.9492
76.8137
47.5691
0.236949
16.3549
1.80578
8.74849
16.4138
33.1041
69.1133
8.67351
9.34722
20.7753
4.49542
5.69379
6.09012
2.05418
4.96154
10.3717
1.24397
39.9489
74.1769
20.5735
0.909049
3.17717
67.4586
14.5208
78.0576
60.2007
51.2197
288.866
32.8816
6.28993
5.84797
304.38
1.3282
74.6276
13.1174
7.04432
14.8625
23.5648
100.326
13.0441
7.21632
31.3396
61.9823
49.9953
30.9859
5.87901
3.61224
0.632817
22.7051
0.878587
20.5592
47.9796
36.3603
21.8636
19.8696
0.983364
4.05368
4.3535
12.5293
15.5297
14.1339
1.10757
84.862
12.8952
6.41155
25.314
4.47288
56.5452
0.625439
1.8054
10.3269
12.4278
2.46469
9.09739
0.56383
14.8287
0.727251
26.171
201.209
3.25941
1.85135
46.4063
6.68099
1.03275
0.683964
75.3835
42.6454
23.8915
30.2533
27.4982
68.6995
47.7489
25.3057
73.8873
52.5119
76.8653
24.217
44.0855
13.9702
3.10809
20.6243
17.8385
1.89482
0.828719
0.450281
1.0861
58.4532
5.77167
15.8049
85.0635
0.71984
0.929476
19.2287
18.1341
16.1863
10.8754
1.39494
8.12173
10.0556
4.77093
2.01839
82.1966
28.0832
0.270998
10.1676
64.6017
5.0011
0.543681
92.7618
0.891415
58.925
0.8454
71.2074
64.6105
38.8124
144.916
0.769713
0.570394
11.2633
1.6567
78.2781
10.4884
181.188
46.5944
16.4113
3.68741
0.269881
238.255
47.4632
12.2975
4.60231
90.3782
200.05
29.4035
0.898234
0.547045
21.4914
0.836983
12.3669
15.4585
13.9802
31.8107
10.1163
2.22968
305.188
1.13173
0.656178
87.6108
81.5117
59.4714
5.76176
1.30849
1.02448
3.57271
0.373358
41.7118
91.7401
226.382
8.84977
10.4533
16.6105
0.617563
0.766633
35.2166
36.8259
0.514592
60.7623
2.61892
5.55897
0.584427
0.569191
24.4065
64.1167
0.274672
5.53538
211.63
1.50527
0.594405
45.7425
75.9034
10.9054
0.896234
1.0794
44.8723
0.769936
0.697787
16.7496
1.44081
177.059
3.32551
21.1946
2.27202
6.61785
166.517
9.8274
72.2364
0.987101
102.384
0.541496
48.1165
2.02192
0.254397
5.46753
18.4115
0.964569
1.31672
31.9981
1.06473
0.958227
3.1726
1.18977
1.18747
13.7391
0.660322
0.884877
13.0702
720.213
1.60613
59.332
1.99948
45.1595
1.91403
0.262535
9.70694
0.886317
0.448649
89.355
25.7681
117.94
83.3521
141.37
8.86757
58.1787
53.8774
1.75051
24.4149
68.2922
30.3711
98.7551
208.815
75.245
61.6675
0.863532
51.0937
27.6228
84.8144
0.487447
0.831255
0.421322
78.3018
32.3836
38.6682
0.805521
9.33675
0.533013
3.81491
0.679348
103.473
30.8797
88.6073
0.855795
7.76851
169.3
7.29776
0.270977
11.8858
56.5413
109.457
30.7507
4.29593
3.15785
5.59249
38.1433
28.8149
7.67815
83.9112
0.57393
43.3105
60.0931
12.8896
0.551259
0.999297
0.825493
20.0142
71.1343
0.941553
0.866788
0.589165
0.392284
1.94567
0.551184
12.4394
97.1089
26.4315
26.7556
21.7356
2.12833
9.45862
26.7351
29.2229
128.27
110.479
42.6696
48.9378
4.65016
0.365262
0.615926
1.58226
4.81819
4.34626
3.26178
76.2282
256.132
42.1531
186.808
0.668146
2.60563
14.468
0.937006
41.1466
0.588718
44.4556
129.454
88.1753
47.4171
45.5898
38.8443
7.51744
223.444
41.1864
15.0375
32.7692
99.859
1.9265
31.2157
0.900347
0.407752
24.3354
2.78619
0.318833
11.5991
140.221
97.4402
3.17018
1.91026
0.211942
31.5872
153.331
88.7061
37.1752
4.91833
41.1933
17.2407
0.959446
0.521518
9.84061
5.25952
15.5914
1.45404
21.2018
13.8829
155.559
80.9642
13.7085
5.27723
107.292
23.8347
164.239
41.592
57.961
38.4657
16.2302
8.81466
349.742
47.965
28.0202
41.0493
119.862
164.381
2.34284
110.878
5.77769
16.734
28.2852
88.6309
39.0245
35.5452
55.5723
114.498
29.3151
3.96972
6.16371
385.722
10.6515
24.7036
51.3912
91.6253
0.971028
1.04312
12.9006
3.13594
74.0442
49.2828
120.798
3.18034
8.994
0.561746
2.12426
3.27395
0.785276
28.6059
81.0146
5.07272
102.312
32.035
9.40336
1.94553
225.835
66.3218
41.948
127.606
86.1453
44.8688
51.8874
5.51339
47.166
26.4382
80.9245
15.0519
6.06656
14.9518
0.533157
0.806299
0.797886
21.3316
1.32611
21.8473
293.35
6.68471
0.725441
0.696915
69.2743
35.8682
21.0195
72.9259
32.2138
0.277874
76.9731
51.4658
35.0916
3.15604
39.7437
0.538351
140.766
0.997429
97.7278
9.56709
12.996
2.42471
1.60551
0.533191
2.00097
20.9335
41.3775
82.2903
166.686
39.645
2.23169
1.60074
37.5306
127.103
1.4956
15.9213
13.2817
68.2044
0.860124
0.683706
11.5115
55.6655
169.911
0.951856
17.4687
2.05896
11.764
8.1278
28.382
55.4035
78.329
9.34168
2.68798
73.5812
11.3902
0.6217
435.5
2.04295
0.815905
4.14802
0.531879
19.2751
0.520123
25.7019
0.820098
3.21361
6.42168
10.7455
175.428
32.9571
95.8425
31.8456
48.391
69.2838
40.0256
199.682
30.6369
0.531448
0.424382
5.05137
12.1964
3.16958
19.3492
176.948
46.9138
116.936
15.6115
4.03079
46.4341
0.420566
14.1488
55.0318
1.58382
257.229
2.31143
4.65106
69.9117
18.7978
6.31721
7.26683
65.2508
10.32
7.18047
0.423238
3.92585
49.2726
68.532
2.06381
10.0934
35.4025
4.28441
38.0803
116.209
75.5135
78.1203
31.5011
1.163
0.590064
12.4209
0.457947
3.65027
0.549544
1.79401
26.3016
0.524751
7.36877
0.545156
73.3801
44.6447
18.4699
8.02017
7.50025
14.9329
188.436
24.8447
63.6247
6.30441
0.592781
178.842
12.1945
62.0356
7.23308
98.5773
56.2141
54.5915
0.739515
109.433
84.6378
4.75783
5.76455
7.45229
2.72898
1.11317
73.8286
20.6495
79.1047
75.2607
24.2296
43.5891
10.4267
13.9027
0.759352
0.9537
27.5461
0.436191
169.15
20.7161
171.753
6.96001
76.9617
66.6364
0.562099
0.986035
149.895
199.223
10.045
7.8806
23.1816
61.8468
6.18796
30.0602
0.402635
5.63759
3.18233
0.375915
0.416418
1.00802
0.41469
0.46262
0.543288
0.576185
7.97155
54.8263
5.36659
3.24185
0.501674
85.2796
9.71965
22.3285
2.31875
28.6962
0.492422
37.7433
4.75364
3.29293
0.77342
11.06
41.3283
0.545794
9.99838
1.32176
0.423827
9.23253
66.883
21.5401
96.2814
138.481
0.633121
11.063
29.2971
12.1877
30.2903
40.4805
36.0239
91.0575
1.09799
2.52382
0.578363
0.209916
19.8798
12.2719
171.194
143.306
96.6941
0.201328
14.7281
118.905
63.8992
53.3473
57.3448
0.539117
0.782881
0.518349
29.7692
11.0496
18.1903
4.55591
0.516999
4.41351
4.8288
10.1484
3.3232
0.63311
0.633989
25.9166
10.5426
11.215
0.55847
8.20551
70.8414
0.682429
11.0346
2.27192
6.18221
13.1059
0.713608
25.2204
0.436134
10.3722
16.8262
0.816506
36.5892
11.3937
0.792313
0.803784
62.679
0.341883
64.7579
2.76103
1.31583
0.60154
3.08287
1.02261
0.521549
10.3704
0.559956
1.22551
1.42385
14.309
15.6412
55.8629
30.03
9.53359
85.2793
33.3655
1.77534
0.522332
64.1598
1.00582
31.5801
89.6509
2.51907
18.0907
1.34712
72.796
1.82419
53.0896
2.61305
66.885
43.9421
0.980675
36.4086
2.66039
0.157864
7.04206
2.20254
30.7947
34.0332
1.40722
38.3495
0.408239
1.17308
3.96931
0.630973
0.859878
34.3767
1.6038
18.3472
0.572665
117.162
3.39374
1.59488
0.597977
4.50468
49.505
18.9457
1.7136
28.7116
7.39173
14.9911
91.6918
30.6543
0.40211
0.652102
47.9965
23.5209
32.6109
6.79227
47.0484
73.7199
65.489
26.0658
55.8196
9.17773
8.97353
4.22644
2.12277
3.49673
0.590294
964.328
40.6773
0.826763
2.0011
52.9572
49.223
8.57638
0.48516
1.05742
61.9055
3.57347
0.579356
29.8967
2.01892
28.2007
1.93704
64.0469
0.731875
0.437213
5.04744
2.43289
1.31315
31.7222
0.514154
45.6567
0.829735
73.7613
7.46043
5.57137
4.39659
25.0639
9.25348
17.7996
11.5272
4.61815
1.51784
3.03128
8.94917
11.3273
5.47079
0.581307
1.21788
20.9305
36.8502
24.9985
4.99416
12.462
7.28601
6.81137
7.96702
7.89695
7.26616
13.5885
11.118
31.1635
0.292127
61.5056
0.427452
406.829
0.842139
1.10448
4.91848
1.31159
0.664983
44.3141
9.05776
6.89011
0.580713
2.53817
36.3879
198.735
90.4234
2.94591
0.471089
4.4963
6.77355
54.8539
18.0425
4.37544
8.61965
0.717414
58.7062
8.61137
11.9677
29.9723
6.30182
8.76354
34.9823
13.9631
1.30111
11.8386
80.5249
32.3808
5.19439
15.1829
11.9403
0.398659
61.5238
212.511
38.4948
107.115
0.694169
0.462019
38.2632
9.98973
2.50206
0.248635
13.09
50.0276
1.01018
1.12396
0.904469
0.557257
0.793374
3.91475
3.65065
13.4037
0.667835
3.22312
26.7977
112.267
56.6549
2.88945
33.2324
4.42923
73.0207
1.02956
49.0223
102.958
39.9124
50.1182
2.3393
26.4454
33.4341
180.125
4.6339
3.71421
4.48913
51.8812
0.434578
1.50733
31.9315
20.1595
4.05136
39.9901
14.5771
3.06497
11.767
0.602623
0.399022
7.39816
4.20452
1.26103
1.75543
89.3876
9.35992
49.2142
43.9681
40.404
0.393432
97.436
1.24155
33.6005
8.49116
5.48003
7.60205
0.4972
10.7877
0.407805
3.30547
0.295445
31.729
1.90701
15.7342
8.97332
186.76
5.18726
137.975
166.377
3.84641
8.85093
0.604294
29.6767
0.938988
58.0494
77.9948
2.29731
0.294834
10.2911
25.8649
34.8298
148.328
68.3855
104.871
75.5693
20.9413
0.410319
1.05883
15.9534
3.73744
76.9895
3.22137
0.437223
0.687286
17.3737
0.308654
2.1255
2.22102
3.05417
4.79293
6.66295
5.56676
0.535352
7.60679
4.37106
34.6453
13.3552
0.561514
109.685
29.9588
58.7469
18.38
3.23402
43.5532
4.6773
0.764632
0.703435
6.36978
861.212
11.3861
37.7324
25.5188
70.3101
115.567
18.8886
4.45403
0.290728
0.495295
1.67719
0.324013
3.60663
4.53716
0.640478
5.11853
0.118107
0.428122
3.93866
1.19316
0.985388
0.846174
0.204415
3.25908
4.52633
0.484947
3.78519
4.04184
0.787642
0.800987
0.463015
0.304948
5.70253
2.05665
1.31501
0.343697
0.972324
1.96069
3.73302
0.722658
0.228348
0.24333
0.690175
0.443364
4.09017
0.498681
0.0938395
1.25876
0.701988
3.12091
4.33605
11.0438
13.4976
240.158
1.18987
0.912707
34.9122
87.9392
18.5653
4.45104
0.510602
15.9209
4.07892
16.2214
68.9222
514.626
36.9519
97.5992
29.1319
1.27857
1.45908
0.424513
0.899929
1.38526
31.0834
0.542371
3.05021
6.30938
0.815803
17.8453
11.1588
2.07174
4.97654
15.1778
642.139
3.10752
12.3805
3.51948
14.6581
35.6962
2.80168
64.0126
40.6218
32.4776
10.7304
4.11076
21.5712
20.1987
11.4968
13.9057
1064.04
2.67755
3.85831
0.484775
44.129
23.4556
1.69902
70.5208
50.5306
0.534482
0.414186
4.46087
3.97822
1.08041
4.82102
0.127325
0.648036
1.11141
0.162316
2.76891
3.45616
0.585179
5.66564
1.22677
1.33866
4.02966
0.840547
0.584167
0.888431
0.1803
4.70143
0.386363
39.7155
63.4454
7.26326
24.2492
4.51353
13.9163
33.1179
0.430925
63.8038
18.7056
16.1813
42.6589
24.5978
2.82372
0.939519
24.3637
43.1087
10.7189
197.173
88.2969
13.1535
0.192346
39.2707
30.4675
3.84013
42.8446
13.0856
60.5097
1.68759
2.4877
0.334798
63.597
1.99023
39.7933
37.2145
0.810047
108.56
0.913846
70.6234
0.822646
0.459667
1.1222
65.0798
1.80627
2.50442
0.965543
1.44987
102.622
10.74
82.6747
19.4009
2.55074
23.1492
129.518
0.835947
9.1331
8.45005
70.3554
41.5709
4.78797
0.391197
3.96723
3.04822
36.2496
10.2537
1.68277
0.179248
2.11534
5.00195
0.458398
40.467
11.7346
0.219164
0.935251
79.9555
90.5085
12.0009
24.3906
66.3327
0.112052
34.2092
44.4467
34.3136
32.6046
12.8301
1.48109
45.2315
0.446875
2.58942
3.3846
47.8627
7.95126
5.1372
7.04666
26.9501
13.1196
0.73566
0.492856
2.71524
11.9707
38.6606
31.1718
170.114
47.599
41.4294
22.6389
10.0219
29.0286
28.2113
59.3257
10.8818
28.7318
38.2612
29.9173
34.8627
104.684
108.714
2.549
62.2019
30.6402
22.3586
14.5002
15.9735
106.241
40.1084
6.37903
45.887
26.3243
111.448
3.89213
8.9139
332.998
1.87695
47.4886
28.8995
0.492111
0.663653
2.34306
55.3435
0.714433
0.461949
3.46675
59.7977
72.6491
64.8697
58.0702
75.8809
73.5556
84.1684
1.55543
75.178
63.7716
80.8766
67.481
60.1276
63.6557
61.4411
52.4826
56.2425
17.9758
16.3794
16.9329
182.766
10.9338
11.7134
5.09702
4.92165
1.29081
2.37387
12.5621
38.1016
0.723761
3.48669
2.55512
41.1447
39.8451
29.0298
17.6056
3.2238
3.89597
2.18156
4.06302
16.9763
4.43532
109.209
3.58728
2.24102
0.832841
4.04451
2.23115
22.5154
2.69711
46.3594
0.907479
0.794348
9.14747
3.34506
1.46848
2.98923
1.77566
0.725989
68.9292
0.902557
38.4786
13.5642
6.9189
46.5769
95.8362
0.869453
83.7445
27.7392
15.8086
115.306
0.913882
0.46001
106.065
23.1833
97.2542
1.12982
7.94494
119.586
104.038
71.0454
0.489904
0.58353
0.474568
17
9.59846
357.515
0.686471
8.67731
13.2045
1.25466
13.7572
0.928421
7.73007
47.9191
29.7276
19.5707
337.598
77.0081
0.477842
79.0583
1.72398
13.9974
20.088
0.790646
126.459
12.5132
326.739
19.916
14.4391
0.795854
53.9547
313.904
0.581271
102.917
41.3119
2.48371
17.8029
15.5076
0.679018
13.0031
47.5912
28.7278
51.2075
199.875
171.053
4.24494
17.5038
2.67609
80.1939
8.25667
0.74563
1.60704
219.438
0.635544
4.02793
0.43989
30.6213
30.4342
2.12424
6.00941
6.65906
6.71228
2.75425
2.07888
51.4777
4.06091
1.57579
2.2213
0.594201
0.701313
13.4243
13.2828
0.776508
78.1493
6.38333
5.44386
1.36818
0.995739
6.91703
15.5917
2.71154
14.1007
2.01627
8.84866
22.1216
42.5444
1.99006
7.77608
1.39434
21.9537
1.30854
1.18311
3.96301
0.7028
0.84304
0.833945
11.4153
11.8784
6.90254
202.848
0.702334
11.5892
0.952289
1.38559
10.5671
12.1842
9.90201
1.39854
0.506176
0.895755
1.00619
1.17085
17.6646
15.9251
0.784789
4.36032
0.771604
0.528717
2.29795
1.62692
13.8103
9.51533
9.05025
1.78048
0.767279
1.61594
0.876297
12.2443
2.18986
1.54538
0.451267
3.21757
0.621983
1.23244
25.459
8.21853
46.523
13.1104
1.88956
1.48533
1.65353
0.788501
26.4537
48.235
16.1245
7.54028
1.58232
11.0681
14.9459
0.627097
12.6816
0.711499
2.036
0.801197
221.559
29.1298
0.575951
22.6257
9.65399
1.27519
2.68418
0.666171
0.485921
31.9852
12.5646
5.98849
16.322
1.83729
2.17466
0.74403
0.491128
52.5055
29.8504
5.22928
32.3258
78.946
10.4379
4.68542
13.7714
225.513
12.2074
0.586035
8.50526
24.8827
14.4922
1.61903
47.8005
3.20907
11.3558
26.0399
2.74473
2.3069
0.689189
0.492381
23.5689
15.2276
2.46771
28.4256
79.7546
0.278645
209.637
170.417
1.81058
6.51622
11.5722
10.0224
13.9514
14.4266
2.33742
2.26612
21.1452
13.258
1.89331
44.0097
24.2346
45.4412
2.61217
43.4055
9.95773
4.34303
3.92173
5.62397
6.40936
49.5513
13.6471
12.1936
46.4252
0.639875
8.26717
12.735
3.12677
19.5344
1.97854
2.16325
0.723752
0.559363
28.9014
45.2132
2.53599
27.7816
62.3006
55.2606
77.4108
9.68232
3.81648
7.30708
3.70226
0.319406
179.582
1.95146
45.8583
51.2517
4.81296
11.6498
105.021
2.85916
0.566969
16.9316
17.872
10.4135
19.6307
63.4932
43.4716
3.53383
45.6631
35.1574
10.4627
0.508547
6.4959
9.41297
7.79368
8.83114
1.35896
1.94272
2.96494
2.47276
0.472543
0.474136
88.5726
81.5079
8.85961
2.22474
97.0775
69.3323
24.0503
1.47527
61.0725
8.70227
3.13572
7.83022
0.339618
189.025
2.05794
1.69589
5.40974
115.076
70.7698
91.2137
4.37695
77.8974
72.3242
25.8265
18.9321
18.1135
11.6633
11.3719
1.02208
0.707111
1.18937
0.728574
52.0749
25.8362
4.27134
0.734694
15.4658
57.7366
24.6191
94.0936
69.514
11.66
0.764818
43.0644
0.923346
1.18507
121.1
57.2357
86.884
102.941
41.2537
7.33147
7.564
2.77312
2.91847
4.65679
0.844563
2.15889
0.490015
0.475524
1.00686
0.853191
1.13064
66.409
74.3509
12.795
53.3851
1.01315
18.3441
0.908182
3.78992
60.8767
27.4094
51.5209
15.5707
4.24864
6.15908
70.0642
13.1427
11.3242
1.7371
66.9924
1.18948
0.686646
3.63113
32.9477
66.5183
8.26533
3.26645
11.7079
106.988
3.78262
2.25678
0.851238
0.322046
4.87549
4.02578
76.4174
3.88774
0.848618
0.468729
24.9627
1.94987
6.36509
60.4252
2.06416
161.058
0.788295
0.677816
1.90402
34.6923
168.196
2.92754
1.09158
0.593131
92.8707
51.561
2.22074
4.42884
3.95981
1.03161
22.6736
5.009
0.619407
12.0735
7.28947
1.28961
4.06152
0.782567
3.96958
10.8956
0.693407
9.29741
0.989221
4.46094
21.9303
9.27309
0.693972
27.6749
27.661
4.64618
12.4768
30.77
0.841426
89.1898
9.59934
13.9601
42.6654
3.19858
121.796
28.4337
56.4736
1.01859
79.9572
1.91855
17.9241
3.15452
0.427166
53.7987
2.01141
26.7308
5.8982
31.8605
18.813
5.34668
59.2991
7.06899
66.3161
12.3563
0.803429
13.1066
3.41018
0.312076
0.484104
15.5498
138.879
34.6329
4.14237
0.484319
91.1691
11.448
198.493
107.878
35.0997
65.1534
23.4703
0.618561
31.5614
6.46387
0.968832
56.7285
73.9743
3.89671
20.7007
33.3828
3.93198
75.9172
4.06517
24.48
61.93
30.2963
3.6261
1.15829
15.5224
90.2309
3.92141
22.2919
86.1749
82.0969
21.9544
2.31607
1.19349
32.8328
37.2028
8.84746
30.229
39.4447
32.3388
4.44715
23.6499
4.19536
109.719
12.1209
3.84238
0.605007
0.436413
30.3257
146.252
37.1369
74.7815
65.703
345.138
2.20856
10.0132
3.13632
71.7106
0.949329
180.614
37.6063
1.3524
0.550254
8.91028
2.81801
2.97559
80.7611
67.8222
76.4103
48.9371
166.473
54.8095
2.69239
17.8128
88.7723
87.5087
7.60095
601.837
5.11173
4.36396
7.47876
86.8644
9.79196
22.2437
49.8718
3.24235
5.36315
39.6755
14.5675
4.09779
7.35633
0.481663
31.2044
0.65164
66.6372
0.688144
51.5439
3.48753
28.8447
16.811
30.4537
54.5821
58.1625
0.621359
121.275
0.703537
0.670273
2.5918
0.284917
1.52166
79.4684
24.2939
111.817
5.89447
80.4073
121.423
2.83781
24.6156
0.738042
3.61748
2.72414
0.286779
68.8906
50.8876
0.693537
0.685245
45.4156
4.38191
16.6335
9.82092
2.00414
14.7154
5.63167
100.256
3.05651
32.8438
4.9473
8.71515
12.8533
105.924
2.45105
75.7333
66.8634
2.34688
4.27725
34.026
1.92287
0.728665
110.237
2.34158
1.73171
180.076
11.089
93.2812
1.97949
34.9585
59.6125
0.520696
16.0724
18.6197
67.7774
63.0306
1.09985
19.9017
50.2017
25.3147
13.7244
9.81451
8.63632
3.93973
0.268154
0.41514
53.3281
27.7089
5.37574
0.831382
88.8989
9.31589
58.4419
38.0644
4.56948
5.2681
72.0701
85.415
10.0703
0.636226
0.820083
30.2676
26.0455
32.8077
1.96529
1.72502
47.5353
91.6655
4.55987
34.2619
116.846
64.2243
32.0761
69.4105
0.20628
9.66572
12.1815
2.80589
0.279189
0.4553
30.5502
3.06573
5.13713
56.2141
6.84081
17.3215
6.184
1.54745
21.0508
259.866
6.67503
20.6292
1.87111
15.107
61.887
15.5855
7.4749
3.75326
0.237745
0.490701
42.9826
14.5776
36.3993
79.8893
15.3332
29.6555
183.937
43.3462
42.8009
0.202913
56.0652
0.237861
1.63122
48.8435
26.5168
15.6451
2.10505
2.78085
16.5803
33.9873
0.493934
0.982998
24.5879
95.1062
0.861743
12.2932
8.91493
78.8716
230.208
142.037
5.49939
13.4622
64.3687
107.93
6.17591
35.3185
5.22153
9.48961
22.8917
62.5214
7.61817
27.0798
0.629022
23.9591
0.307346
11.4086
13.7471
2.93304
35.7869
0.222836
1.29446
100.38
33.2587
0.648751
2.69725
37.9171
41.3899
52.4248
28.243
0.604974
1.5377
0.269222
0.426647
2.42752
3.54059
113.475
0.435654
26.8795
42.2839
2.22104
5.74352
5.77345
9.00665
93.4772
2.73209
0.210393
0.415954
0.832308
29.1786
3.90331
5.0188
0.905965
8.79723
0.598198
0.500768
1.81926
9.87631
5.91712
22.571
19.7792
1.73301
6.48501
4.78809
39.3873
1.71226
0.212714
0.585691
1.7385
3.67065
23.8853
6.15145
31.2148
71.274
43.3482
60.7817
2.64621
6.35506
4.86783
239.459
9.46954
0.991125
3.34266
0.205062
0.456977
5.01471
0.575941
90.1326
195.12
13.0412
0.469489
0.595464
0.807089
0.119617
23.0128
2.36729
53.7873
6.3805
31.0807
66.1167
0.182359
1.73443
4.40208
106.343
1.06964
53.836
4.42841
36.4994
0.631254
6.82139
0.734757
3.98513
18.2664
24.1016
27.5743
3.83102
6.43007
0.973734
1.08917
1.95006
7.2982
58.3269
24.6684
7.92611
28.9929
16.6243
7.35506
3.72496
50.06
0.945127
30.5237
1.67448
40.8771
49.5414
105.463
12.6865
0.654929
1.93892
0.211081
0.762129
2.73589
12.6288
3.22271
1.19233
86.5369
2.28694
2.31485
45.7144
7.82554
29.878
12.5543
11.2022
47.2039
0.70984
1.30445
9.60437
7.23663
11.8067
1.13832
5.07889
15.1936
1.24516
2.03145
15.4935
6.04811
3.49675
0.655822
0.508581
0.774953
0.522084
1.06419
0.20404
1.13997
0.947134
8.6955
8.3485
0.637196
0.764882
39.726
23.6674
13.684
24.7965
0.970129
14.359
1.36349
70.8554
46.276
32.7755
352.83
17.991
78.4062
85.7766
115.946
33.6097
0.265657
0.431915
2.44657
0.34082
0.456306
7.65125
17.55
82.0541
0.19541
0.18872
1.33162
8.45956
12.7466
66.2774
1.70138
0.191864
57.3503
13.0788
18.7616
19.319
1.17429
1.91794
22.5845
19.5213
110.123
0.436879
14.6328
109.562
10.7872
33.0447
34.0928
0.281332
0.524309
5.37396
0.784889
0.729348
2.4009
0.635626
2.92368
5.12396
3.79379
0.75526
1.98509
2.37243
203.526
53.4149
0.444067
3.61419
0.678897
5.67481
11.4279
1.1913
6.68105
34.1856
5.46267
71.7907
5.83855
34.3366
99.8758
261.569
58.76
28.9031
4.38722
3.91588
26.9062
6.76383
0.672976
0.20063
105.659
5.28672
82.769
0.446254
4.35875
12.0949
157.679
36.0829
0.661523
0.650351
33.3
7.08555
10.202
3.35378
2.78732
9.44277
106.571
0.660822
37.7566
2.88403
0.217048
0.45736
0.32161
4.42243
0.195823
53.6687
6.42955
43.1824
105.563
10.8397
3.2474
219.792
8.1103
5.42494
151.686
4.93429
13.662
207.034
6.27671
124.647
3.21089
0.22347
0.466618
46.98
4.24592
2.29534
1.10724
0.717296
4.57744
13.2491
92.9861
27.7681
17.5683
14.9131
81.9684
27.953
26.721
27.3029
6.90329
13.9295
93.9368
11.7689
180.773
7.02692
0.568844
0.535437
2.02674
34.613
2.55921
48.406
32.4152
13.8918
2.8531
7.84883
17.0828
1.90127
0.528857
2.36481
0.454733
4.31711
23.5468
0.937117
13.5574
10.1512
13.0903
28.416
72.2638
25.1475
290.132
16.0743
0.622004
2.21862
0.538875
50.9022
0.587675
6.71585
1.59004
2.82293
0.792725
74.5705
48.7101
5.90747
5.60918
23.4007
48.1418
0.7813
0.733558
3.13223
23.8906
300.539
11.6197
13.5485
31.9561
55.9642
16.9118
9.62615
5.32773
21.603
69.1431
8.0561
2.19247
6.41175
0.983451
25.0736
0.687575
26.2626
295.469
26.4273
1.18259
37.0439
1.00513
14.2541
15.0142
1.25071
30.2956
1.51706
0.437182
0.43096
20.21
79.4524
17.5473
9.74221
2.05681
0.564778
2.52857
1.47647
0.269019
0.421945
1.0656
28.1548
64.4224
27.7047
16.0378
14.846
147.138
58.0853
10.1364
0.5234
1.20427
4.30333
133.478
118.585
38.01
1.17886
0.217534
75.9272
4.42747
17.4603
23.6104
125.742
0.512121
109.543
95.3242
25.2176
7.6029
77.0642
358.882
2.70302
30.6657
0.247104
1.05164
65.8347
85.3125
1.32314
0.407096
6.72485
2.83855
1.26902
76.7151
4.77342
10.819
260.029
28.4118
0.712183
60.3564
29.0186
12.9068
106.157
0.261592
19.8488
0.419704
16.8664
62.0313
1.50361
18.7684
26.7567
7.14164
108.515
0.302127
1.01452
40.0901
164.783
51.0958
66.5291
22.2177
320.631
6.73387
27.407
53.3702
5.27254
111.029
21.873
137.373
22.0618
8.83977
308.476
47.4002
18.9119
4.46398
0.551109
0.595352
38.1479
0.566668
4.3719
2.29071
28.1496
30.9256
1.41394
0.230471
0.976278
13.6634
86.4354
1.70037
0.247383
13.0553
41.887
29.2362
18.4044
1.41822
121.512
48.6604
1.06521
27.8649
67.183
0.13863
48.0641
26.1826
65.3741
33.5183
34.6069
15.6557
7.05477
1.93895
0.529998
3.13632
0.689022
7.27523
9.89207
75.1493
9.99183
16.6668
123.963
51.9037
39.7811
3.67597
11.1378
27.9872
0.546364
28.6485
3.67016
65.9217
118.006
80.3635
9.1086
87.1726
0.529647
39.2236
42.7766
9.55614
0.420429
1.06962
86.4844
29.262
3.11055
73.6797
82.0122
7.26306
47.2157
29.9151
75.7494
167.289
64.7045
2.44673
62.426
0.243157
2.88783
0.384011
54.7566
19.1336
75.8295
0.953161
0.33612
95.5209
1.60738
0.825063
3.47415
89.9997
37.5644
94.9343
139.946
48.4814
0.703544
0.88786
44.0121
16.8286
172.179
123.768
172.756
6.60065
1.42013
110.07
83.4671
0.457421
0.362258
2.67051
0.603053
1.69138
5.54549
126.619
27.6958
2.13055
30.4639
15.8567
8.13511
57.1471
102.424
59.9559
8.53996
32.8032
0.670704
33.8382
24.9884
11.8756
116.792
120.269
34.8321
70.8975
411.041
306.396
1.64373
0.4661
144.34
76.9381
0.806851
8.81443
0.419892
0.862128
43.5068
100.103
55.1559
13.961
2.04536
77.1428
0.498303
2.36637
0.397732
2.35321
0.260706
68.5753
144.302
41.6966
7.17726
102.871
0.231554
1.00303
103.272
39.6122
49.5408
34.5177
17.0487
106.036
66.0389
0.573955
7.96784
14.6385
16.7593
4.34979
3.60383
81.6306
32.7703
33.1029
14.4097
41.5025
20.4629
23.7447
0.198795
0.564364
50.8736
1.01818
13.9624
561.227
10.3418
80.8922
61.0203
0.522576
0.224808
0.387614
2.91302
59.5285
62.6467
61.28
1.93083
30.653
5.86546
8.66414
10.1065
11.5198
6.59584
6.96082
3.95769
2.51632
0.396274
0.280598
0.924882
102.918
42.5514
2.78306
15.0572
553.594
99.5788
106.187
39.6937
0.50235
38.9729
6.78832
1.00484
48.3916
142.331
0.550119
0.514555
0.530717
36.7375
12.295
86.4788
1.98243
0.71732
40.6847
15.5389
0.441459
1.08949
0.343669
1.51327
8.5593
100.947
11.6186
6.10206
79.8003
48.1663
60.6554
64.7934
11.4169
60.8152
0.693151
25.6668
41.3031
15.9794
27.5396
0.383831
0.4913
43.6765
1.6097
69.5135
3.40321
83.3738
31.2028
37.1268
1.15556
40.4463
1.18652
46.6324
35.1128
27.8291
31.8796
9.35196
49.9833
26.3407
0.730645
26.0798
35.0241
0.567388
2.21925
0.592285
1.77855
2.76378
17.1942
18.352
0.860326
7.1889
176.757
0.289002
12.8365
0.482375
3.49776
130.713
151.775
2.35066
0.37344
0.478369
5.44582
0.14467
0.662489
2.68683
0.399664
0.39809
2.95245
0.701628
46.898
3.18282
7.13044
28.1106
44.9868
5.49709
30.5928
5.51167
6.00429
19.972
66.6874
24.9817
0.457387
19.5352
118.199
61.942
48.6538
10.044
0.836991
0.18729
0.737818
41.0132
116.768
25.401
4.39042
11.4987
9.32543
3.58106
7.73867
15.5919
49.47
0.644826
56.9371
0.368086
8.64174
96.2482
38.1429
78.3775
34.7043
6.67047
92.3063
40.3983
49.8243
7.19562
2.16234
3.92054
3.33635
7.63487
15.606
1.12283
19.6437
41.7039
114.909
22.0378
20.9125
2.52667
0.738172
1.95263
77.1531
26.8029
28.6647
4.14248
81.5849
10.0264
18.6633
34.9829
5.38664
2.21403
13.9771
100.782
76.3047
37.1927
53.1977
50.8341
39.1256
2.2527
1.10833
0.391485
6.18283
1.51934
825.82
82.2746
3.51597
86.4815
36.6628
6.79605
0.311029
12.1187
1.47272
2.22706
0.68869
42.3076
8.12125
39.5593
47.2629
31.2768
0.276888
1.52988
1.56697
0.984778
24.8651
47.4252
747.982
17.5435
11.0459
0.274481
3.29006
100.338
58.5855
11.5142
29.9595
1.43595
12.3642
5.66439
1.10569
16.7336
201.199
0.454796
3.87369
0.297553
4.49
16.7734
1.87471
75.5026
2.47633
386.019
18.4172
57.6609
103.401
0.450727
0.974515
14.4053
14.3856
0.869684
5.19445
4.88947
37.9998
85.6361
66.0899
2.77884
4.38051
117.192
2.25487
12.9345
15.2813
16.5855
60.1994
86.8827
0.33844
3.0406
0.41959
44.0906
12.8705
215.471
37.4004
1.05421
44.1436
103.944
67.9216
52.5434
2.2813
72.9566
39.6462
23.6105
1.03853
0.400197
32.5784
1.48664
11.9682
15.1709
1.29501
69.403
452.309
334.745
6.94453
79.9013
0.93721
9.20662
12.1304
0.90978
72.0364
26.3526
0.251132
0.552168
0.624079
1.03199
13.2662
32.5988
83.9831
21.8898
1.15407
346.252
2.21776
54.153
97.9122
89.3788
28.519
7.30953
6.7845
80.7133
0.691047
0.912481
1.85126
0.224645
2.08549
24.9613
59.3318
0.323734
20.1638
0.450596
0.835503
12.9614
22.1051
1.77959
1.72143
82.0803
36.3662
25.1143
10.4158
0.658434
0.480412
13.8043
229.733
2.26941
434.457
0.258943
0.989562
46.6989
38.6764
1.29261
11.3381
156.535
2.85048
19.4868
38.3709
24.5954
71.2314
69.7197
10.8404
5.95565
1.37227
12.0606
83.5812
15.9133
115.722
14.4085
18.8875
0.950419
24.5792
14.0649
20.6575
74.9467
0.658998
14.5334
7.93683
3.68838
0.514988
32.5684
0.306364
2.09569
13.2161
13.9942
17.6244
22.3844
66.3268
106.239
90.0552
56.7807
0.868901
0.848984
2.08486
0.428258
8.61926
13.5555
1.50714
3.05516
14.5479
73.9594
2.60499
1.99106
1.89123
10.9142
81.4775
0.279364
7.16107
4.27681
0.360901
58.5873
34.3465
0.599727
1.3127
54.8317
96.669
25.735
0.691559
0.914865
0.868359
0.478906
5.0618
2.65347
0.936741
23.9993
1.96869
0.557655
36.3172
63.1861
0.48754
15.3095
0.531404
55.0857
2.83891
80.3015
1.0928
0.224482
5.55918
62.5376
76.9857
98.923
37.4703
40.5139
26.6169
2.11011
44.0688
24.1019
1.18614
0.715771
7.00023
0.196543
176.145
8.06672
23.4811
1.07579
40.4736
44.1084
65.339
10.666
702.999
13.3038
1.28648
5.05446
0.40253
2.78337
0.677117
1.07123
5.16477
0.605977
2.03415
1.11787
0.621225
3.98955
0.658208
5.55369
21.7889
54.0852
133.545
2.22563
1.21797
0.520001
1.128
60.2932
42.8074
19.4908
6.01368
95.0432
121.714
106.704
5.07852
10.9732
0.747679
0.538065
1.08153
23.2598
9.07254
33.8992
4.11058
107.461
226.675
131.2
0.464697
43.2738
30.2261
43.3622
0.615285
1.28851