/*--------------------------------*- C++ -*----------------------------------*\
| =========                 |                                                 |
| \\      /  F ield         | OpenFOAM: The Open Source CFD Toolbox           |
|  \\    /   O peration     | Version:  v1912                                 |
|   \\  /    A nd           | Website:  www.openfoam.com                      |
|    \\/     M anipulation  |                                                 |
\*---------------------------------------------------------------------------*/
FoamFile
{
    version     2.0;
    format      ascii;
    class       surfaceScalarField;
    location    "0.54";
    object      phi;
}
// * * * * * * * * * * * * * * * * * * * * * * * * * * * * * * * * * * * * * //

dimensions      [0 3 -1 0 0 0 0];
oriented        oriented;


internalField   nonuniform List<scalar> 
11117
(
-9.06146e-06
4.0717e-05
3.79638e-06
-3.54519e-05
5.9326e-06
0.000153257
-4.0137e-06
-0.000155176
-4.261e-05
7.78845e-05
-3.71713e-05
1.89689e-06
-0.000547817
3.93336e-05
0.00018963
0.000318853
0.000205082
0.000120266
-7.24363e-05
-0.000252912
-3.82382e-05
9.41111e-06
-0.0001132
0.000142027
-0.000402405
-2.40857e-05
0.000296399
0.000130092
-0.000257816
-4.28273e-05
0.000216449
8.41938e-05
0.00122019
0.000232918
-0.000913163
-0.00053994
-0.000112706
0.000130581
-2.82236e-05
1.03486e-05
-0.000850003
0.000919273
0.000293653
-0.000362923
-0.00047294
-0.000208373
0.000352189
0.000329125
-0.000551906
-0.000255353
0.000343696
0.000463563
0.000876104
-0.00108654
0.000498395
-0.000287959
0.00013076
-0.00010849
5.083e-05
-7.31001e-05
-4.22265e-05
1.58647e-05
-2.65153e-05
5.28771e-05
-7.35195e-05
2.28423e-05
-2.83103e-05
7.89875e-05
-0.000656487
0.000649611
0.000761435
-0.000754559
6.71411e-05
0.000199714
-0.000136095
-3.7931e-06
9.21612e-08
0.000129949
-0.000126248
-0.000331082
0.000185478
6.6937e-05
7.86675e-05
-1.75894e-05
1.1058e-05
9.15965e-05
-8.5065e-05
0.000326128
0.000218869
-0.000171554
-0.000373444
0.000102768
0.000105183
-8.36662e-05
-0.000124285
0.000391053
0.000293066
-0.000457018
-0.0002271
0.00101503
-0.00104673
0.000276255
-0.00024456
0.000219591
-0.000330145
0.000629162
-0.000518609
-0.000222473
0.000313865
-0.00020731
0.000115918
9.48774e-05
-1.14182e-05
0.00097233
-0.00105579
0.000120038
-7.48895e-05
8.08159e-05
-0.000125964
-0.000265834
-0.000292727
0.000449339
0.000109221
-0.000127356
-0.000411608
0.000375428
0.000163536
-0.000114992
-0.000429404
0.000364414
0.000179982
0.000170866
-0.000115889
6.5541e-05
-0.000120518
-7.66026e-05
0.00015184
-4.85588e-05
-2.66789e-05
-0.000251409
0.000119012
-6.57129e-05
0.000198109
0.000607251
-0.00082048
0.00100092
-0.000787695
0.000537387
-0.000697732
-0.000187948
0.000348294
0.000461357
-0.00012013
-0.000641083
0.000299857
0.000169053
0.000496237
-0.000578672
-8.66174e-05
0.00019056
0.000309554
-0.000384661
-0.000115453
0.000116302
-2.76728e-05
1.66614e-06
-9.02955e-05
0.000992081
0.000874538
-0.000878282
-0.000988337
8.26274e-05
5.74749e-05
-1.5642e-05
-0.00012446
0.000173094
4.74439e-05
-0.000153397
-0.00088736
0.000699804
-0.000210934
0.00039849
-0.000857829
0.00064974
-0.000190848
0.000398937
-0.000116759
-4.23996e-05
0.000102961
5.61984e-05
-2.0759e-05
0.000101296
-5.41111e-05
-2.64261e-05
-9.20452e-05
8.81356e-05
3.90964e-06
-2.6608e-05
9.89989e-07
2.5618e-05
-0.000323117
-0.00111196
0.000504593
0.000930486
0.000153267
-0.00010138
0.000147467
-0.000199354
-0.000160257
0.000185929
-1.79359e-05
-7.73564e-06
1.40856e-05
-1.40856e-05
0.000393208
0.000168324
-0.000517568
-4.3964e-05
0.000358732
0.000168247
-0.000481696
-4.52831e-05
-9.1362e-05
1.20262e-05
0.000104577
-2.52408e-05
0.000880945
0.000114941
-0.00135882
0.000362933
-0.000383171
0.000873257
0.000524945
0.000834004
-0.000851851
4.81574e-05
-3.03105e-05
0.000120116
-5.77556e-05
-5.78553e-05
-4.50553e-06
-0.000176688
-3.41481e-05
-5.49982e-05
0.000106807
-5.03508e-05
-0.000183811
0.000108852
-3.85297e-05
-0.000185314
-4.82573e-05
-9.75837e-05
8.58831e-05
5.99579e-05
0.000155003
-0.000160273
7.75693e-05
-7.22991e-05
2.56796e-05
-0.000328514
0.000302834
-0.000800037
-0.000419568
0.000664841
0.000554764
5.61137e-06
3.1624e-05
-1.85773e-06
-3.53776e-05
0.00046005
-0.000131658
-0.000651509
-0.000246582
0.000221861
0.000179724
-0.000278358
-0.00125358
0.0012934
0.000238538
1.51329e-05
3.09988e-05
-0.000107349
6.12175e-05
-0.000824285
-0.000632239
-2.41006e-05
-6.504e-05
0.000250157
-0.000161016
5.40442e-05
-3.37357e-05
-2.03084e-05
-0.00102361
-0.000155479
0.000132367
5.41806e-05
3.17609e-05
-3.3141e-06
-9.55179e-06
-6.39604e-06
1.59478e-05
3.93544e-05
4.90835e-05
-1.02095e-05
-7.82285e-05
9.04995e-05
3.48879e-05
-1.30004e-06
-0.000124087
5.89059e-05
-1.3324e-05
0.000138209
-0.000183791
-0.00028908
0.000215898
0.000294513
-0.000221331
-0.000309967
0.000210388
0.000333009
-0.00023343
4.65387e-05
-0.000480997
0.000434458
-1.65124e-05
-0.000631147
0.00064766
3.21492e-05
-0.000473491
0.000441342
6.15679e-05
7.07199e-06
7.78054e-05
-0.000146445
-9.39979e-05
4.9222e-05
0.000151527
-0.000106751
0.000511599
-0.000152317
7.73409e-05
-0.000436623
0.00074806
6.13209e-05
-6.13986e-05
-0.000747982
0.000660295
-4.07798e-05
4.98265e-05
-0.000669342
-0.000668409
3.98136e-05
-2.79406e-05
0.000656536
-0.000625904
4.71155e-05
-2.41371e-05
0.000602926
1.75369e-07
0.00022293
-0.000322733
9.96269e-05
0.000572203
2.14074e-05
-2.16354e-05
-0.000571975
0.000626133
3.9279e-05
-2.53576e-05
-0.000640055
0.000718072
5.55383e-05
-3.37579e-05
-0.000739853
0.00080065
6.57979e-05
-3.24436e-05
0.00038007
7.88727e-05
-0.000409046
-4.98966e-05
-0.000262307
0.000199435
8.05742e-05
-1.77018e-05
0.000303824
-0.000378629
-0.00115866
0.00123347
0.00075859
0.000324068
-0.000783277
-0.000299382
-3.98466e-05
0.000124529
-9.2262e-05
7.57971e-06
-0.000792927
0.000258466
0.00069544
-0.000160979
2.38207e-05
-3.65358e-05
0.000101452
-8.87368e-05
1.82634e-05
1.16676e-06
2.6192e-05
-4.56222e-05
-0.000245088
3.07014e-06
0.000102952
0.000139066
3.61951e-05
1.79047e-06
1.6195e-05
-0.000227448
0.000145846
0.000184904
-0.000103302
-2.1556e-05
6.90969e-05
1.08505e-05
-5.83914e-05
-0.000416601
0.000348209
-0.000159765
0.000228157
-2.03663e-05
2.89706e-05
3.36188e-05
-4.22231e-05
9.06206e-05
0.000574019
-0.000645606
-1.90338e-05
0.000122638
0.000607977
-0.000690243
-4.03721e-05
-3.59674e-05
-5.90537e-05
7.499e-05
2.00311e-05
-0.000532169
0.00050424
0.000821129
-0.000793199
4.0649e-05
-2.27781e-05
-0.000869722
-0.00103799
8.49426e-05
0.000958798
-5.74629e-06
0.000887377
-0.000634541
-0.000785005
-6.84824e-06
2.31878e-06
4.52946e-06
0.00016078
-9.58203e-05
0.000157928
-0.000222888
-0.000100089
-0.000146484
-6.03978e-05
-3.25285e-05
3.67179e-05
5.62085e-05
-0.000340329
0.000393367
0.000601166
-0.000654204
-0.000547048
0.000819702
-0.000644509
0.000371854
1.12565e-05
0.000135807
-0.00012347
-2.35928e-05
0.000550719
-0.000794279
-0.000111936
0.000355495
4.44597e-05
-4.82853e-06
4.36865e-06
-4.39999e-05
0.000180736
-4.8358e-06
-0.000207127
3.12262e-05
0.000195549
-2.6172e-05
-0.000198639
2.92618e-05
0.00017943
-0.000106368
-7.79585e-05
4.89678e-06
-0.000974885
0.000106612
-0.000155342
-0.000303553
0.000267874
-0.000649002
0.000684681
3.05239e-05
-5.15844e-05
-8.74295e-05
-0.000382216
3.18576e-05
9.84698e-06
0.000340511
4.04342e-05
9.67715e-05
-1.70892e-05
7.53083e-06
1.80792e-05
7.02643e-06
-3.26365e-05
9.29387e-05
0.000141227
-9.80028e-05
-0.000136162
-0.000104144
-5.37165e-05
8.56511e-05
7.22096e-05
3.95679e-05
-0.000394001
0.000436695
-8.22624e-05
0.000100586
-9.10075e-05
-3.16079e-05
2.20291e-05
0.000486287
-0.000281366
-0.00023089
2.59688e-05
1.46886e-05
4.15305e-05
-3.39934e-05
-2.22258e-05
5.93456e-06
0.000171487
-0.000136547
-4.0875e-05
0.000292203
-0.000153248
2.18252e-05
-0.000418657
0.00093231
-0.000532903
1.92496e-05
0.000127744
5.10579e-05
-0.000172755
-6.0477e-06
-5.78197e-05
0.000203409
-4.52938e-05
-0.000100295
0.000913305
0.000441752
-0.000603913
-0.000751143
3.19319e-05
-2.13102e-05
-7.68324e-06
-2.93853e-06
-0.000440049
-5.99255e-05
-0.000292952
0.000126358
-0.000210885
-9.3007e-05
0.000177533
-0.000244674
-0.000333344
0.000375304
0.000202713
0.000908759
-0.000207592
-0.000701167
0.000172277
0.000558733
-6.16408e-05
-0.000497092
0.000912522
-0.000218055
-0.000694467
0.00022742
8.0927e-05
4.19821e-06
-8.51252e-05
-8.08307e-05
0.000228585
-0.000147754
0.000144399
-0.000188762
4.43635e-05
-6.37709e-05
0.000507868
-0.000444097
-0.000482507
0.000547887
-6.53801e-05
-0.00048559
0.000482331
3.25882e-06
-0.000387079
-2.9725e-05
0.000416804
-2.71273e-05
-5.12905e-05
7.84178e-05
-0.000157925
-6.95228e-05
-7.13481e-06
-1.44212e-05
-0.000107032
9.68616e-05
1.017e-05
0.000210022
0.000197675
-0.000407697
0.000194931
-0.000258884
6.39531e-05
0.000245577
-0.000266205
2.06285e-05
-0.000132428
0.000144204
-1.17763e-05
-0.000364724
0.000454091
-8.93677e-05
-0.000103945
7.08827e-05
3.30628e-05
-0.000406841
0.000464285
-5.7444e-05
-0.000105406
0.000131569
-2.6163e-05
0.000912975
-0.000999561
8.65865e-05
-0.000100457
0.000179031
-7.8574e-05
-0.000206504
0.000264733
-5.82291e-05
0.000123514
-3.55961e-05
-8.79183e-05
-0.000254485
0.000298691
-4.42062e-05
-6.75638e-05
0.00012873
-6.11664e-05
-8.63747e-05
0.000319862
-0.000233487
-0.000270634
8.32692e-06
-0.00022352
0.000146115
7.74047e-05
6.98636e-05
-1.39796e-05
-5.5884e-05
4.43119e-05
0.000155123
-0.000206085
-0.000643918
-0.000319901
-9.17073e-05
-0.000344755
-8.46492e-05
-0.000101288
-0.000191439
0.000321708
-0.000126159
0.000286412
-0.000105676
0.00024465
2.40995e-05
-0.00026875
0.000144847
-2.44256e-05
-0.000120421
0.000137866
6.18481e-05
-0.00107089
0.00137471
0.000380348
-1.39515e-05
-0.000366397
-0.000925835
-0.000186127
-0.000221034
0.000104275
8.09517e-06
-7.70708e-05
6.89756e-05
-0.000737285
-0.000120544
-0.00075293
-0.00013443
-5.6826e-05
-1.89803e-05
7.58063e-05
2.70186e-05
-1.45448e-05
1.56902e-05
-2.8164e-05
-0.000181449
9.05359e-05
0.000452463
-0.00036155
-0.000894855
0.000875013
0.000701716
-0.000681874
7.16477e-06
8.4033e-07
-3.09429e-05
2.29378e-05
-0.00118332
0.00114033
-5.10793e-05
9.4073e-05
-0.000290413
0.000248264
-2.16213e-05
-3.21568e-06
2.96107e-06
-8.05761e-05
3.22828e-05
-9.97122e-05
-0.000161344
0.000228773
0.000138036
-0.000207456
-0.000342636
0.000412056
7.81046e-05
-7.13672e-05
-7.69786e-05
7.02412e-05
-0.000228975
0.000175772
0.000232632
-0.000199654
4.96826e-05
0.000577893
-0.000427922
0.000783046
-0.000676688
-0.00018137
7.50122e-05
-0.00139706
-3.42803e-05
0.000248012
0.000220832
-0.000270964
4.09277e-05
9.20475e-06
0.000250778
-8.46622e-07
-4.22841e-05
-0.000207647
0.000639712
-0.000193578
-4.07739e-05
-0.000405361
-0.000322538
-0.000236194
3.62694e-05
0.000522463
-7.3867e-05
5.43761e-05
0.00125146
-0.00123196
-0.000146089
-1.46341e-05
0.000160723
6.99536e-06
5.09481e-05
-4.23126e-06
-5.37122e-05
-0.00021727
2.08782e-06
-7.40576e-06
0.000222588
5.78526e-05
-5.52821e-05
-8.01454e-05
7.75749e-05
-8.25997e-05
0.000119643
-0.000251056
0.000214013
-7.39964e-05
0.000102197
-0.000195355
0.000167154
4.03865e-06
1.11545e-05
0.000182641
-0.000197834
0.000141887
-5.20156e-05
-0.000223546
0.000133675
0.000245909
-0.000280281
2.48383e-05
9.53337e-06
2.22552e-05
3.04745e-05
-0.00106831
0.00101558
-0.000151545
6.02613e-05
-0.000739286
0.00083057
0.000839172
-0.000840464
6.83028e-05
-6.70113e-05
0.000208967
-0.000307558
-0.000142157
0.000240748
-6.29224e-05
-5.51516e-05
5.30619e-05
6.50121e-05
-0.000139694
-3.08802e-05
0.000102326
6.82479e-05
0.000156207
-0.000140247
-2.03015e-06
-1.39302e-05
5.96416e-05
0.000717944
-0.000402244
-0.000375341
1.36162e-05
0.000264747
-0.000152005
0.000228301
-0.000225294
1.06092e-05
1.00011e-05
-8.17476e-05
0.000217593
-6.18258e-05
0.000104676
-0.000154168
0.000111318
1.71945e-05
2.83448e-05
8.22052e-05
5.15767e-05
-0.000532693
0.000481116
4.45083e-05
-0.000494099
0.000449591
4.50835e-05
-0.000567146
0.000522063
6.60863e-05
-5.76329e-05
-5.67107e-05
-0.000111457
-2.36628e-05
1.38461e-05
-3.58123e-05
4.56289e-05
-1.3315e-05
2.33443e-05
-0.000938808
0.000928779
-0.000312125
-0.000333921
0.000404305
0.000241741
0.00104441
-0.000446382
-0.000797566
0.000199537
-0.000648162
0.00114973
-0.000866851
0.000365283
1.30411e-05
-3.26953e-05
4.66728e-05
-6.43743e-05
-2.79352e-05
3.19117e-05
-0.000591689
-6.43888e-05
0.000284325
0.000371752
-1.86238e-05
-0.000299083
2.72931e-05
-9.04983e-05
1.79462e-05
6.93364e-05
-5.09405e-06
8.85655e-05
-1.74918e-05
-6.59797e-05
-0.000231315
0.000132435
9.888e-05
-0.000125812
0.000130815
-5.00364e-06
0.000347296
-0.000199201
-0.000205915
0.000101092
-0.000370731
0.000325759
-5.61202e-05
2.34352e-05
-6.88254e-06
-0.000563977
2.9732e-05
-5.01164e-05
0.000584362
-0.000562498
2.41696e-05
-4.70145e-05
0.000585343
-0.000305175
-8.02594e-05
9.34637e-05
0.00029197
0.000104457
0.000276077
-0.000359398
-2.11357e-05
-0.000274955
0.00045176
0.000327788
3.01758e-05
-0.0010793
0.00110568
-5.65631e-05
1.7904e-05
8.9823e-05
-4.98744e-05
-4.0208e-06
-0.000140476
-1.57606e-05
0.000110616
-9.56036e-05
-0.000125427
0.000110414
-7.27075e-06
1.17409e-05
8.05361e-06
-1.25238e-05
4.32908e-05
0.00032265
-1.37685e-08
-0.000365927
8.23422e-05
8.72792e-05
-2.47745e-05
-0.000326937
-6.13144e-05
0.000284817
0.000103434
-0.00048599
0.000293654
0.000382896
4.20927e-05
-2.33484e-05
9.7558e-05
-0.000706449
0.000450136
0.000425365
-0.000512766
1.63742e-05
0.00050815
-1.17576e-05
-0.000621658
-5.74177e-06
0.00063195
-4.54941e-06
-2.77621e-06
0.000591896
-0.000575621
-1.34983e-05
-3.07434e-05
0.000564442
-0.000552853
1.91544e-05
-0.000574274
0.00100842
-0.000737694
-0.00012279
0.000123551
-0.000121369
0.000120608
-3.60518e-06
2.9772e-05
-4.78277e-05
2.16608e-05
0.000208768
-0.000140915
-8.06292e-07
-6.70464e-05
-0.000106218
8.60916e-05
-1.53002e-05
3.54261e-05
-0.000955056
0.00012327
0.000936476
-0.00010469
-0.000116903
0.000739023
-0.000789822
0.000167702
-0.000110832
-8.78622e-05
0.000543454
-0.00034476
-0.00014438
0.000160984
5.55361e-05
-7.21401e-05
-4.09794e-05
-0.000118469
0.000524219
-0.000364771
-2.70881e-05
9.66269e-05
8.89859e-05
-0.000158525
4.44432e-05
-8.71553e-05
0.000133212
-0.000570852
0.00053432
3.20789e-05
-1.56138e-05
2.28893e-05
0.000351892
-0.000295108
2.85678e-06
0.000197722
0.000126813
-0.00023741
-8.71255e-05
3.72338e-05
-1.51209e-05
0.000308336
-0.000330449
-6.13202e-06
-5.2486e-07
-6.13872e-07
0.000649747
-0.000368498
-0.000700818
0.000723198
-0.000374654
0.000713115
-0.000366854
0.000301293
-4.77347e-05
2.81046e-05
2.22498e-05
7.64547e-05
-0.000126809
0.000485248
-0.000776282
-0.000603822
5.42334e-05
-5.93792e-06
-6.86617e-05
-0.000426448
0.000471844
0.00101191
-0.00105731
0.000843678
-0.000171337
-4.59147e-05
-0.000626427
3.93276e-06
9.59395e-06
4.73669e-06
-0.00032331
0.000239206
0.000397969
-0.000239634
6.49839e-05
-7.04377e-05
0.000188326
-0.000734109
0.00064066
-9.49629e-05
0.000109274
-0.000143238
0.000128928
0.000130641
0.000163531
-0.000218086
-7.60864e-05
-0.000637902
0.00057367
0.000568471
0.000148345
0.000107795
3.24489e-05
-3.8266e-05
3.55319e-05
-2.97148e-05
-6.90043e-05
-0.000249374
0.000198248
-0.000114222
0.000117785
3.40503e-05
-3.76131e-05
-0.000186529
-0.000230198
0.000785228
0.000134045
-1.28602e-05
-7.88075e-05
0.00034941
9.9929e-05
0.000140894
0.000104794
-4.28424e-05
0.000142582
-0.000135587
-1.35268e-05
-3.47386e-05
2.18387e-05
0.000124276
-2.63779e-06
-1.57884e-05
0.000220625
-3.85953e-05
-8.60415e-05
-2.80907e-05
0.000151605
-3.95142e-05
-0.00021497
-5.33527e-05
-0.000153151
-0.000511401
2.58107e-05
-0.000119461
-0.000578271
-8.46927e-05
-0.00055639
-6.36427e-05
6.95773e-05
-4.60641e-05
-5.51685e-05
-0.000136884
-2.75477e-05
0.00034741
9.47238e-05
4.31418e-05
0.00036389
0.000566596
-2.2057e-05
-1.31657e-05
-7.77277e-06
-1.88468e-05
1.20747e-05
-0.000126965
-0.000259573
0.00019859
0.000484191
-0.000506659
2.36321e-05
-1.164e-06
5.99742e-05
-0.00023839
0.00015433
4.08466e-05
-0.000260653
0.000176979
1.17631e-05
-0.000122529
-3.09708e-06
0.000113863
0.000260364
0.000439441
0.000257798
0.000391942
2.77946e-05
-7.01942e-05
0.000184633
-0.000202893
5.03757e-05
-3.21156e-05
-0.000111256
2.62763e-05
0.000102061
-1.70815e-05
0.000168157
-4.52307e-05
-0.000111163
0.000106112
1.4978e-05
-7.14917e-05
-4.95981e-05
-8.86107e-06
-7.99767e-05
2.78209e-05
6.10169e-05
0.000427193
-0.000118941
0.000128738
-0.000395477
0.000659947
8.7011e-05
-0.000346659
0.00061838
-7.8102e-05
9.5435e-05
-0.000108695
-1.04851e-05
3.96875e-05
-3.56328e-05
6.43041e-06
-8.48898e-05
0.000128224
-8.99332e-05
4.65993e-05
6.06409e-05
0.000160672
-3.66794e-05
-0.000624452
0.00102975
-0.000734089
0.000328789
6.59984e-05
-0.000230777
-8.66304e-05
8.96408e-05
-7.99054e-05
-8.6338e-05
-4.25593e-05
0.000116049
9.73768e-05
-0.00105233
0.000942251
9.86631e-05
0.000114478
7.92245e-05
-0.000151182
-4.25199e-05
-0.000153056
2.93074e-05
5.67397e-05
6.70086e-05
-6.17132e-06
-0.000380908
-3.41012e-05
6.97397e-06
0.000379466
-0.000127208
-5.34127e-07
-8.97211e-08
3.72763e-05
-3.66525e-05
-1.73743e-05
1.88268e-05
-0.00013819
0.000136737
0.000112331
0.000171581
-0.000128389
0.000176184
7.8736e-05
-0.000144451
-0.000110469
0.000117372
3.54851e-06
-0.000116722
0.000258378
0.000134828
0.000415313
0.00119759
0.000138557
-0.00115731
-0.000178835
0.000194905
1.17026e-05
5.73943e-05
-0.000654112
0.000168934
0.000581492
-9.63134e-05
-0.000213109
9.30556e-05
-8.85177e-05
0.000208572
2.2411e-05
-0.000118965
7.04777e-05
2.60766e-05
3.65794e-05
-8.01756e-05
4.0768e-05
2.82828e-06
-0.000208312
0.000697279
4.47934e-05
-0.00053376
-0.000296393
0.000817569
6.18747e-05
-0.000583051
0.000707684
3.31225e-05
8.79922e-05
-0.000828799
-5.83653e-05
6.56055e-06
7.91525e-05
-2.73477e-05
6.47362e-05
0.000145286
-0.000200303
0.000424085
0.000441059
0.000492177
0.000107338
0.000516442
0.000125479
0.000637677
0.000115002
0.000555639
-7.11112e-06
-5.35456e-06
3.97373e-06
8.49196e-06
-0.000223127
5.2441e-05
-3.22075e-05
-0.000382345
0.000448343
-0.000247278
0.000336919
0.000155814
-0.000198373
3.29787e-05
1.45362e-05
-1.85444e-05
-9.65962e-06
-0.000163294
0.000184571
-1.16176e-05
-3.60929e-05
-8.31135e-05
0.000111
8.20677e-06
1.90026e-05
0.000622553
-0.000408638
0.000967441
6.0395e-05
-0.00101527
-1.25647e-05
-0.000252129
0.000318111
0.000281314
0.000135601
-0.000263173
-6.96155e-05
0.000197187
0.000173116
-4.99194e-05
5.63783e-05
-4.24263e-05
0.000170594
0.000180372
-0.000105254
-9.85987e-05
8.31001e-05
-0.000953372
0.000925734
-0.000398809
-9.37358e-05
-0.000105293
4.45389e-05
0.000130655
-4.53766e-05
-0.000129817
-7.44741e-05
0.000685569
1.64969e-05
-0.000627592
-8.72949e-05
0.000633646
2.4346e-05
-0.000570697
2.50759e-05
-9.84142e-06
-1.02706e-05
-4.96382e-06
0.00022361
-5.18347e-05
-4.96119e-05
-0.000122164
4.10034e-05
-0.00014976
0.000189336
-8.05799e-05
-5.44149e-06
0.000148024
-0.000127331
0.000178786
-7.43863e-05
2.29316e-05
-0.000280672
-5.88395e-05
0.000199839
0.000139673
-8.9068e-05
9.93768e-05
-3.50438e-05
2.4735e-05
0.000607512
1.87312e-05
-1.35048e-05
-0.000612738
-6.6182e-06
4.28057e-05
-4.12815e-05
0.000497194
-2.52251e-05
3.10849e-05
-0.000503054
0.000220366
-0.000122905
-0.000144524
4.70633e-05
-0.000531263
-2.20894e-05
-5.21869e-05
0.000605539
-0.000533508
-8.34591e-05
9.78097e-06
0.000607186
-7.3009e-05
2.69112e-05
7.59403e-05
-2.98425e-05
-0.000156361
9.6941e-05
0.000138549
-7.91294e-05
-0.000165779
-8.22212e-05
0.000188101
5.98989e-05
-0.00023946
0.000217095
-5.93829e-05
0.000756244
8.49027e-05
-4.04968e-05
4.97086e-05
4.02432e-06
-9.27314e-06
-0.00123763
-0.000107187
0.00118484
0.000159982
0.000523905
0.000233716
-0.000201341
-0.00055628
8.16305e-05
-4.23184e-05
-3.25142e-05
-6.79789e-06
-9.21165e-06
4.29725e-05
-9.25268e-05
5.87659e-05
1.94158e-06
-8.55978e-06
-0.000183396
9.43979e-05
-0.000561667
0.000650665
0.000128349
-0.000108105
2.94892e-05
-4.97335e-05
0.000148876
-0.000140248
-1.65014e-05
7.87338e-06
5.54186e-05
0.000128528
-0.0001629
-2.10467e-05
0.000175823
-0.000139973
-7.74552e-06
0.00109528
-0.000929394
0.000265124
-0.000431009
-0.000261083
-0.000248085
0.000301858
-8.2084e-06
3.90174e-05
-4.29904e-05
1.21814e-05
-0.000163827
-5.51976e-05
6.26635e-05
-0.000258335
0.000207402
-0.000114846
-6.99827e-05
-1.3006e-05
9.97968e-06
-0.000191974
0.000155453
0.000153326
-0.000116805
1.84305e-06
0.000190071
-0.000186856
-5.05768e-06
2.70696e-06
-7.63527e-06
0.000221574
-0.000409676
0.000481754
0.00112796
-1.61124e-05
2.84795e-05
1.22288e-05
-2.40289e-05
-0.000183247
0.000195047
-6.43486e-05
7.05898e-07
7.27105e-05
-0.00010224
6.16089e-05
8.7006e-05
-0.000173822
0.000131259
-0.000861709
0.000334019
-2.01274e-05
-0.000930074
-0.000569537
7.04487e-05
9.50908e-05
5.62578e-05
-0.000215804
-5.35631e-05
0.000187334
-0.000163918
-0.000155667
-7.52782e-05
0.000123913
9.32645e-05
0.00019552
-0.000228144
-3.13801e-05
5.43562e-05
-4.65507e-05
2.35746e-05
-0.000783776
-8.64572e-05
0.000216122
0.000312958
-0.000271439
-0.000221677
0.000180157
-0.00017997
-0.000954064
8.6535e-05
0.0010475
-7.2154e-05
-0.00100254
0.00103081
4.3892e-05
7.30535e-05
-8.36315e-05
-5.84263e-05
-0.000267816
-0.000379252
0.00039494
9.65037e-05
0.000127649
-0.000118981
-0.000105172
4.46368e-05
2.90407e-05
-3.75744e-05
-3.61031e-05
-0.00079046
-0.000276359
-0.000169075
-4.19101e-05
-2.02075e-05
0.000231192
9.21457e-05
-2.44777e-05
-8.78963e-05
2.02283e-05
0.000234326
-7.67754e-05
-6.62073e-06
-4.18347e-06
4.67218e-06
3.17105e-05
-0.000108001
-8.599e-06
1.38416e-05
-2.96509e-05
1.88933e-05
-3.08404e-06
8.33331e-05
3.04058e-05
-1.58932e-05
-9.78458e-05
2.47176e-05
0.000693886
-2.19112e-05
-0.000696692
9.42657e-05
0.000632463
-5.45036e-05
-0.000672225
2.28138e-05
-4.61144e-06
-4.3607e-06
3.25943e-05
-0.00108542
0.00108568
-3.28483e-05
0.000248897
-0.00150461
6.17674e-05
0.00119394
7.06642e-05
4.89726e-05
-4.37418e-05
-7.58949e-05
0.000136928
1.04811e-05
-2.55232e-05
-0.000121885
0.00022728
-0.000354562
0.000247548
0.00072641
-0.000569145
-0.00073154
3.10987e-06
1.69275e-05
6.11543e-06
-2.61528e-05
-0.000117282
0.00011977
-6.6988e-06
4.2105e-06
-8.17949e-05
6.58519e-05
3.39494e-05
-1.80064e-05
-0.000723164
0.000230233
0.000470949
2.19828e-05
0.00010075
-3.59321e-05
7.40169e-05
-0.000138835
0.000100577
-2.34704e-05
3.23646e-05
-0.000109471
0.000252338
2.75827e-05
3.03128e-06
-0.000282952
-3.28193e-05
9.07745e-05
-5.79552e-05
0.000316644
-0.00130538
0.000111808
-0.000134608
-0.000149115
0.000171915
-3.00782e-05
0.000162416
3.58191e-05
-1.10586e-05
7.10658e-05
5.66892e-05
-0.000116696
0.00103982
-0.0014638
0.000182789
0.000241192
0.000432
6.43988e-06
1.36281e-05
-0.000452068
-5.71892e-06
-3.28824e-06
5.87157e-05
8.60278e-05
8.15907e-05
-0.000903702
0.000736084
-3.18799e-05
-6.69881e-05
9.95179e-05
-6.49913e-07
-4.79165e-06
0.000168926
-0.000214908
5.07737e-05
-2.66112e-05
-0.000109627
0.000155653
-1.94155e-05
0.00110121
-0.000772151
-9.36097e-05
6.67599e-05
-8.73727e-05
2.47119e-05
7.66774e-05
-6.89404e-05
0.000841712
-0.0005752
5.53569e-05
-0.000321869
6.35138e-05
0.000450458
-2.76848e-05
6.019e-05
-3.87759e-05
-1.69967e-05
-0.000126025
2.72172e-05
0.000115804
0.000595084
-0.000107429
-0.000446676
-4.09791e-05
-2.84111e-08
1.19372e-06
-4.23571e-05
4.11918e-05
-6.5212e-05
-8.22637e-05
0.000148217
0.000131769
-6.43273e-07
0.00011566
-4.49064e-06
-0.000110526
1.53273e-05
9.61096e-05
-1.12e-05
-5.92589e-07
0.000264131
1.24862e-05
-9.89668e-06
9.79876e-05
3.6632e-05
-1.66597e-05
8.07778e-05
0.000264734
-0.000289217
7.77503e-05
-5.32668e-05
0.00112622
-0.00109017
-0.000314403
-3.56291e-05
-0.000598591
0.00018286
0.000516823
-3.61028e-05
3.18074e-05
3.62273e-05
0.000607652
-8.40942e-05
0.000577649
-6.16488e-05
2.48813e-05
5.19004e-05
-1.05029e-06
-3.13483e-05
-4.31473e-05
7.55459e-05
3.95908e-05
-1.77341e-05
-4.90438e-05
2.71871e-05
3.03197e-05
-4.73164e-05
4.78216e-05
-9.08862e-05
7.88303e-05
-3.57658e-05
0.000697711
0.000105187
-4.66548e-05
0.00017492
0.000164642
-0.000269173
0.000238429
-0.000415956
0.00041318
-0.000375049
0.000258146
-0.00113727
0.00114013
9.8402e-05
-0.000101265
0.00026732
0.000483865
-0.000273881
-0.000473547
-0.000149027
4.67394e-05
-0.000275791
-0.000321031
0.000471608
-0.000695968
-0.000151836
0.000376196
-0.000824214
0.000340934
-0.000101419
0.000584699
-3.54463e-05
0.000111596
-0.000339968
0.000263818
-2.22604e-05
-6.13053e-05
-0.00114835
0.00123192
7.92028e-05
-0.000370238
0.000742358
0.000183711
-0.000798261
-0.000127808
-5.01797e-06
4.11839e-06
3.38783e-05
0.000670551
-0.000621141
6.55914e-05
0.000690992
-0.000741627
0.000176113
0.00053471
-0.000496256
6.88831e-05
-2.90971e-06
9.3679e-05
1.37645e-06
-0.000143714
9.97075e-07
0.000142074
5.15932e-05
-8.06325e-05
7.13455e-05
-4.23062e-05
0.000606988
-0.000513052
-6.96607e-05
-2.42762e-05
0.000672799
-0.000571769
-2.40062e-06
-9.86297e-05
0.000101816
0.00152276
-0.00119381
-0.000430765
-1.42964e-05
8.50813e-06
-2.49831e-05
3.07714e-05
-0.000992673
-0.000637365
0.00105473
0.000575312
5.42149e-06
-5.39967e-05
-9.62782e-05
0.000144853
-2.02207e-05
7.59789e-05
8.52319e-05
-0.00014099
1.92966e-05
-3.73425e-05
-4.19072e-05
5.99531e-05
0.000121495
-4.47606e-05
0.000620977
0.000588608
-0.000808558
0.000310571
0.000565761
-0.000786676
0.000343553
-1.58978e-05
7.73752e-05
-6.51667e-06
1.28153e-05
3.63714e-05
-4.267e-05
0.000669125
-6.60227e-05
0.00013592
-5.00581e-06
2.51787e-05
-1.10931e-05
-2.44363e-07
-6.9842e-05
-1.70172e-05
8.71036e-05
0.000101302
0.000819826
-0.000687412
-0.000260318
-0.000363698
0.000311891
0.000723373
-0.000679022
-0.000187611
0.00014326
-0.000139837
0.000135716
9.71774e-05
0.000141178
-3.16932e-05
6.95462e-05
0.000114291
-2.73316e-05
4.17708e-05
-3.40594e-05
8.94554e-05
0.000518989
-0.000625824
0.000106835
-0.000398389
0.00028584
-0.00125451
0.00136706
-0.000254091
0.000166551
0.000376821
-0.000289281
0.000109651
5.18395e-05
-6.77836e-05
-9.37073e-05
-0.00042837
-3.00606e-05
0.000586306
-0.000127875
0.000213034
-0.000179155
-0.000374208
-6.59012e-06
-1.80062e-06
6.17978e-07
0.000122451
-8.56935e-05
7.28935e-05
1.08507e-07
-0.000117294
-9.65545e-08
0.000102714
-9.68567e-06
-0.000157323
6.42944e-05
0.000161826
-0.000227636
0.000227764
-0.000161954
4.30307e-05
2.50286e-05
8.81476e-05
-7.28824e-05
8.57111e-06
7.88475e-05
1.40623e-05
-3.84505e-05
5.17389e-05
-2.73507e-05
-1.12423e-06
-9.72106e-05
0.000126646
-2.83112e-05
5.04689e-05
1.37053e-06
9.75211e-05
-8.17665e-05
5.49095e-05
5.96269e-05
-2.93441e-05
0.000106645
9.25419e-05
-0.000194937
-8.95789e-05
-0.000710428
-0.000410931
0.000855588
0.00026577
0.000822319
-0.00104068
0.000356284
-0.000137922
-1.17297e-05
-0.000203433
0.000210393
4.76969e-06
-9.73978e-05
0.000292049
-0.000325317
0.000130666
1.17233e-05
-6.05932e-05
8.22852e-05
-3.34153e-05
-0.00132694
0.00116233
-0.000242577
0.000407192
0.000369552
-0.000315979
-0.000126978
7.34047e-05
1.16009e-05
0.000730715
-0.000726832
-1.54842e-05
-0.000314751
1.85626e-05
0.000123986
-0.000540534
0.000524754
-0.000108206
0.00017602
-0.000592956
0.000581659
-0.000164722
-0.000103166
-0.000752571
0.000855737
9.90706e-05
-3.40198e-05
9.2231e-05
-0.000157282
6.97797e-07
-4.65182e-06
1.60242e-07
3.79378e-06
-2.61679e-05
3.76749e-05
3.11297e-06
-1.46201e-05
-0.000108936
-4.96454e-05
7.67869e-05
7.91376e-05
-0.000164316
0.000196987
-0.000131882
-3.81797e-06
8.94907e-05
4.62095e-05
-0.000163735
3.34892e-06
0.000115915
4.44703e-05
-2.64992e-05
1.12406e-06
0.000337532
-0.000312157
0.00105896
-0.0010945
-3.1257e-05
6.67914e-05
-0.000229418
1.46611e-05
0.000279365
-1.58728e-05
-0.000263492
2.58538e-05
-0.000143923
1.17553e-05
0.000106314
-2.32439e-05
-3.5817e-06
3.0428e-05
-3.60244e-06
1.0807e-05
-8.13254e-05
0.000225971
-5.46078e-06
7.95042e-06
-7.24723e-05
-6.42328e-05
5.33769e-05
-0.000247479
2.9106e-05
-1.83466e-05
-0.000174586
0.000608961
4.19667e-05
-5.90316e-05
0.000577049
3.36141e-05
-4.62208e-05
-0.000505981
2.8415e-05
-3.52008e-05
-0.000546266
-5.87919e-05
-1.66008e-05
-0.000352077
-0.000183719
0.000208858
-0.000943093
-0.000168921
0.00027155
0.000177615
8.49033e-05
-8.63342e-05
-8.38687e-05
-0.0011698
0.0011798
-6.27283e-05
5.02495e-05
-0.000218836
-9.53352e-05
-5.39976e-05
2.35209e-05
0.000652596
-0.00019586
-0.000544031
0.000659393
-0.000170351
-0.000563517
3.96553e-05
-1.40601e-05
-0.000125442
9.98463e-05
-2.60527e-05
0.000728568
2.08578e-05
2.55677e-05
-1.78247e-05
-4.91691e-05
4.14262e-05
2.42164e-05
-1.23268e-05
-8.08205e-05
6.89309e-05
3.72967e-05
-2.82135e-05
6.60703e-06
6.8636e-05
-3.22982e-05
-0.000259465
-6.62381e-05
-3.75035e-05
4.91582e-05
5.45834e-05
0.000317617
-3.72949e-05
5.53441e-05
-0.000335666
-0.000300548
-6.84716e-05
5.4269e-05
-0.000386254
0.000250646
0.000323934
0.000111533
0.000183936
-0.000202204
8.10255e-06
1.63558e-05
-1.27174e-05
1.47391e-05
-1.27921e-06
-6.08054e-06
-7.37936e-06
-0.000548025
3.56418e-05
0.000496412
1.59719e-05
0.000298555
0.000348286
-0.00056647
-8.03717e-05
0.000242898
-0.000633966
-0.000319359
0.000423255
0.000328083
-0.00061765
-0.000133689
0.000148756
-0.000143839
3.21674e-05
-3.70847e-05
0.000112138
0.000160598
-0.000995899
3.53941e-05
-1.54307e-05
-2.65535e-05
0.000138838
8.33854e-06
-0.000118071
2.49727e-05
-2.40971e-05
-6.33637e-06
0.000898978
-2.30176e-05
-0.000765993
-0.000109967
0.000111778
-1.04816e-05
-9.58005e-05
-0.000211757
-2.09265e-05
0.000111701
-0.000101097
0.00109514
0.00015569
-4.78499e-05
0.000243171
6.94124e-05
-0.000389452
0.000313429
0.000500889
-0.000424867
0.000325309
-0.000314745
0.000527324
-0.000537887
2.66406e-05
-0.000195522
-2.66814e-05
0.000195563
-0.000209893
0.000190418
6.02152e-05
-4.07406e-05
-0.00024523
4.56218e-05
4.48323e-05
0.000154776
-0.0010886
0.00108048
8.97036e-05
-0.000687137
0.000452184
-0.000626664
0.000518656
-0.000394149
-0.000143645
0.00015154
0.000105892
-3.59078e-05
0.000859833
-0.00102754
-0.000262716
0.000430418
-0.000222669
-0.000988563
0.00118965
2.15763e-05
-0.00103408
0.00105045
-0.000100234
-0.000479034
0.000423216
0.000348089
-0.000292271
-0.00026272
0.000274459
1.03585e-05
-2.20979e-05
-0.000126531
-4.09978e-05
2.72824e-05
-0.000673527
0.000791354
-0.000528758
0.000140727
-9.27522e-06
-5.17521e-05
0.000150717
2.92285e-05
-0.000128193
-0.000217723
0.000196761
-6.32702e-05
6.44977e-05
0.000176387