/*--------------------------------*- C++ -*----------------------------------*\
| =========                 |                                                 |
| \\      /  F ield         | OpenFOAM: The Open Source CFD Toolbox           |
|  \\    /   O peration     | Version:  v1912                                 |
|   \\  /    A nd           | Website:  www.openfoam.com                      |
|    \\/     M anipulation  |                                                 |
\*---------------------------------------------------------------------------*/
FoamFile
{
    version     2.0;
    format      ascii;
    class       volScalarField;
    location    "0.67";
    object      nut;
}
// * * * * * * * * * * * * * * * * * * * * * * * * * * * * * * * * * * * * * //

dimensions      [0 2 -1 0 0 0 0];


internalField   nonuniform List<scalar> 
1431
(
0.0042108
0.0109934
0.000887959
0.00123239
0.00161527
0.00943598
0.00194051
0.00952472
0.00781185
0.000993835
0.00439662
0.012213
0.0150858
0.00216161
0.00183588
0.00152476
0.0020449
0.00112096
0.00206794
0.00163329
0.00579802
0.00503122
0.00611348
0.015274
0.00641871
0.0106626
0.0039112
0.00182177
0.000858271
0.000717807
0.0020109
0.00250509
0.00187176
0.00120662
0.0128095
0.00110806
0.0118838
0.000705578
0.000465207
0.00225302
0.0055483
0.0074573
0.0135124
0.00101532
0.0038863
0.00192509
0.00350677
0.00371515
0.00228468
0.00138065
0.00960247
0.000915176
0.0112404
0.0131316
0.0097063
0.00518111
0.000971136
0.0136304
0.00182449
0.00107893
0.00165226
0.000546752
0.00048432
0.000464051
0.000295789
0.000417056
0.000927372
0.000595623
0.000972502
0.00126651
0.00388086
0.00115518
0.000670878
0.000841434
0.00149498
0.0010856
0.000727851
0.000382781
0.000607407
0.00088051
0.00176652
0.000770268
0.0119656
0.00404888
0.0063192
0.00317113
0.00248678
0.0034506
0.00995137
0.0125291
0.00169916
0.00156274
0.000923052
0.00140749
0.00905326
0.000669955
0.0119974
0.0184811
0.000937325
0.00100015
0.00811313
0.000726637
0.00264312
0.00108854
0.000510122
0.00231157
0.0028775
0.00345535
0.00466028
0.00228178
0.00113289
0.0159454
0.00510186
0.00471188
0.0112797
0.00138222
0.00137746
0.000787312
0.000694097
0.000386477
0.0013504
0.00172759
0.00236096
0.00126298
0.00266755
0.0004456
0.000729401
0.00301529
0.00118788
0.00472196
0.00136824
0.00103474
0.00548625
0.00154244
0.00178668
0.00168276
0.00105374
0.00111255
0.0127148
0.000357193
0.000354928
0.00191106
0.00153377
0.00074333
0.00593667
0.00174527
0.000617872
0.00982388
0.0012396
0.00119898
0.00133484
0.00123563
0.00238631
0.000750792
0.00321809
0.00122215
0.00961026
0.0143413
0.0128008
0.00496497
0.0167468
0.0162755
0.00147013
0.00380315
0.00281799
0.00409916
0.00400314
0.0104074
0.00124338
0.0161983
0.0166691
0.0114431
0.0021428
0.0129778
0.0128842
0.00899249
0.00491478
0.00668918
0.0112801
0.0130942
0.000454596
0.000702693
0.00569951
0.0186311
0.0072628
0.00127975
0.00155222
0.0148678
0.00240255
0.00707162
0.00231032
0.00239293
0.00248758
0.00384626
0.000703965
0.0156897
0.0185052
0.0116245
0.00123912
0.00153987
0.00807242
0.00214298
0.00447229
0.003024
0.0149961
0.00242181
0.00225452
0.000795209
0.0144154
0.00219019
0.00198192
0.000677755
0.00284993
0.00233014
0.0118652
0.00167276
0.00265879
0.0118135
0.00598942
0.00434319
0.00304896
0.00560879
0.00270935
0.0031061
0.00334503
0.0163953
0.00468057
0.0174103
0.00271056
0.00325155
0.0059933
0.00200334
0.00242477
0.00241969
0.00261282
0.0180018
0.00283305
0.00262781
0.00220861
0.00531813
0.00526617
0.0110087
0.0153532
0.00256954
0.00243931
0.00430155
0.00269571
0.00417844
0.00321048
0.00123888
0.00288471
0.0130255
0.00475613
0.00133753
0.00238891
0.0073389
0.00445321
0.0173473
0.0191335
0.00253049
0.00166627
0.0125407
0.00569893
0.00458281
0.00356379
0.00515179
0.0123226
0.00472371
0.00366791
0.000676672
0.00489274
0.00281194
0.00938077
0.00380919
0.0154678
0.00199489
0.0146
0.00361427
0.00096568
0.00145667
0.0129341
0.0132447
0.00173121
0.00625833
0.00706472
0.0176436
0.00713586
0.0192015
0.00549921
0.010445
0.000661799
0.0102977
0.0176614
0.0114309
0.00281684
0.0025084
0.00187634
0.00143854
0.00198915
0.00101268
0.0112007
0.000299283
0.00786331
0.0124739
0.00339385
0.00403966
0.0124031
0.00238261
0.00856273
0.0147331
0.015796
0.000368837
0.000498062
0.00139328
0.00940678
0.0178949
0.011833
0.00828469
0.00188716
0.0143725
0.0119725
0.0169224
0.000762146
0.0085893
0.0106988
0.000821472
0.000646807
0.00787626
0.0141484
0.00150972
0.00113567
0.00221287
0.00834859
0.00579055
0.00520009
0.0130168
0.00750256
0.0182177
0.0101861
0.00133123
0.000312191
0.0134447
0.0134127
0.00521937
0.00843925
0.00243791
0.00903331
0.0143611
0.0148408
0.0119301
0.00696842
0.00182901
0.00894934
0.0132197
0.00184913
0.00316601
0.00669786
0.00186519
0.0113436
0.00636899
0.00523068
0.00127537
0.00106384
0.00648066
0.00201465
0.00443853
0.0071552
0.0182906
0.00256824
0.00204893
0.00419693
0.00262789
0.0112399
0.00962488
0.00549879
0.0189643
0.0136146
0.00170817
0.0131897
0.0193222
0.0166571
0.00916425
0.00167048
0.001748
0.0176378
0.00935189
0.0126696
0.00806909
0.0102733
0.0101788
0.00534523
0.0129375
0.0129228
0.00350525
0.0186591
0.0101432
0.0151758
0.0149123
0.00653214
0.0108614
0.0139981
0.00563464
0.0188217
0.00745985
0.00291476
0.0146234
0.00884482
0.000462368
0.00616471
0.0146865
0.0147252
0.011588
0.0146515
0.0151632
0.00811157
0.00126472
0.0127181
0.000383865
0.0108508
0.0145605
0.00358061
0.0155398
0.00655361
0.0129427
0.0144434
0.00255563
0.00211894
0.00361427
0.00477057
0.0141445
0.0160278
0.0156443
0.0153418
0.0153689
0.0153195
0.0156389
0.0160919
0.0152438
0.016246
0.0156102
0.00210882
0.0125066
0.00197076
0.001916
0.00154653
0.00169841
0.00157336
0.00179736
0.0042697
0.00414107
0.00377355
0.00153942
0.00206015
0.00182539
0.00198386
0.00205946
0.00519738
0.0162316
0.0018801
0.00236874
0.00462101
0.00135749
0.0154458
0.00178374
0.0029195
0.0015315
0.00146318
0.0147441
0.00161711
0.01395
0.00131106
0.00115318
0.00124823
0.00595442
0.0126773
0.0125175
0.00175812
0.0012634
0.00143896
0.0012063
0.00612655
0.00141806
0.0126229
0.0010764
0.00114965
0.00580743
0.00143329
0.00116304
0.00137489
0.00117606
0.0122746
0.00110964
0.0014565
0.00165896
0.00474119
0.00181258
0.00207237
0.011582
0.0010294
0.00239519
0.00963207
0.00586986
0.00142661
0.00128341
0.0111349
0.0126418
0.00223822
0.00125781
0.00135618
0.00216199
0.00247905
0.00494427
0.00168416
0.00332127
0.00118438
0.00237667
0.00995601
0.00300304
0.00528701
0.0121923
0.00402306
0.00233144
0.00322111
0.0028716
0.00674972
0.00445798
0.0101939
0.00220927
0.00195007
0.000510374
0.00957665
0.00696262
0.0106522
0.0062183
0.0149151
0.00774222
0.00220204
0.00176815
0.0062346
0.00203698
0.0153184
0.00162833
0.00506354
0.00438443
0.00384291
0.0027517
0.00779729
0.00160598
0.0153454
0.0138015
0.0123702
0.0013557
0.00576051
0.0138253
0.00141282
0.00411943
0.00483494
0.00974499
0.00166277
0.00673601
0.013912
0.0104046
0.016863
0.00896676
0.00955048
0.00501252
0.00312709
0.0034855
0.0144111
0.00785115
0.01421
0.0102395
0.016626
0.00218219
0.00079184
0.0102373
0.00338866
0.00170473
0.0168532
0.0158815
0.0144748
0.00852718
0.00429964
0.0128961
0.0133887
0.00305099
0.00244887
0.0060009
0.000949153
0.00311216
0.0163703
0.00157529
0.00935904
0.00908358
0.00344307
0.0155508
0.00503155
0.0127515
0.0165392
0.0136284
0.00169526
0.0100759
0.0139976
0.00568245
0.0113164
0.00829079
0.00188567
0.0138953
0.00172065
0.00205534
0.00397464
0.00686145
0.0128044
0.0170029
0.00568204
0.00761835
0.00471107
0.00510833
0.0140681
0.013071
0.0130127
0.0103608
0.000722142
0.013377
0.00959949
0.0068769
0.0147441
0.00248943
0.0123984
0.00367253
0.0123785
0.00883142
0.000341206
0.0169115
0.0139685
0.0122754
0.00988469
0.00564474
0.00457598
0.00714672
0.00595325
0.0179005
0.00488313
0.0140225
0.00159357
0.00942784
0.0105815
0.0105145
0.00429747
0.0119735
0.0143834
0.0100985
0.00154465
0.0129867
0.00242609
0.00924327
0.00724939
0.00730271
0.0116322
0.0143806
0.0181522
0.0144084
0.0127395
0.0115715
0.0101225
0.00409032
0.00244988
0.00922855
0.0102657
0.00163775
0.0142669
0.0118323
0.00171259
0.0159696
0.014354
0.00340013
0.00173679
0.00601679
0.00510826
0.00572713
0.00751263
0.00314154
0.0119921
0.00170802
0.000756568
0.00109467
0.0164371
0.00515532
0.00236443
0.0010273
0.00581723
0.00277812
0.00497417
0.000926676
0.000732582
0.0145992
0.0014971
0.00432997
0.00063842
0.0133198
0.00128328
0.0125496
0.0147738
0.00083336
0.00165927
0.00180082
0.00144817
0.00138543
0.00925869
0.0114395
0.00665876
0.00156649
0.00306723
0.00324225
0.00138247
0.00474112
0.0145809
0.0033095
0.00334561
0.00504304
0.00524161
0.0024279
0.0126282
0.0138881
0.000717832
0.00804495
0.0040501
0.0140919
0.00362264
0.00480682
0.00131574
0.0155758
0.0147276
0.00451009
0.00682191
0.00299452
0.00505817
0.00162625
0.00168972
0.00509556
0.000747875
0.00770834
0.00464987
0.00456558
0.0162841
0.0077161
0.0049358
0.001336
0.00560051
0.00125188
0.00599639
0.00536161
0.0077842
0.0013294
0.0159753
0.00559529
0.00647048
0.00162879
0.00844064
0.000380125
0.0179861
0.00603347
0.00333985
0.00177229
0.00166632
0.00291151
0.00155393
0.00191201
0.0139075
0.00343126
0.0120892
0.00236528
0.00508416
0.00536094
0.00605819
0.00965629
0.000604972
0.00501497
0.0122185
0.00182242
0.0125561
0.000755038
0.0135091
0.00166986
0.00112533
0.0111613
0.0068964
0.0117605
0.00223211
0.0109858
0.00586308
0.00177344
0.00238121
0.0133188
0.00236822
0.000586968
0.00471614
0.00261225
0.00421696
0.0145252
0.00234654
0.00572943
0.00144159
0.0160671
0.0165421
0.0120529
0.0024747
0.00975606
0.00478556
0.00666022
0.0176663
0.0032927
0.00728106
0.010975
0.00998719
0.0171083
0.01622
0.00245749
0.0137027
0.00573579
0.00173151
0.00535026
0.0122623
0.0158941
0.00120519
0.000758608
0.00763332
0.00191416
0.00237804
0.000881719
0.0145173
0.00174052
0.00162063
0.00226891
0.0107495
0.0137617
0.00302559
0.0143615
0.0150653
0.00400006
0.014288
0.00143458
0.00127019
0.00238343
0.0133296
0.0174181
0.000910436
0.0176319
0.0054292
0.0177318
0.00282444
0.00196957
0.00969732
0.00397426
0.0010481
0.000623113
0.00562721
0.00549121
0.00111007
0.000938304
0.00344046
0.0120269
0.00623089
0.00826967
0.0166508
0.0119647
0.0168003
0.00109811
0.0138022
0.0127302
0.0164051
0.0111991
0.0118024
0.00124738
0.00382023
0.00142761
0.00229236
0.001905
0.0111486
0.00375436
0.0129455
0.00337951
0.00430814
0.00342609
0.0126277
0.0146091
0.007117
0.000856415
0.000832096
0.000800707
0.00069696
0.000740231
0.000996403
0.000818382
0.000579602
0.000691138
0.000618231
0.000629165
0.00071817
0.00109549
0.000709605
0.000651094
0.000658321
0.000746201
0.000769873
0.000725434
0.00074182
0.000690699
0.000697965
0.000715599
0.000722735
0.0165018
0.014591
0.0013932
0.0103851
0.00771091
0.00464151
0.00249398
0.00756137
0.00235011
0.00212019
0.00341548
0.00141901
0.00153654
0.0163501
0.00519589
0.00173321
0.0159965
0.00468139
0.0170262
0.00372696
0.00274783
0.0180795
0.00130345
0.000732108
0.0123712
0.0113588
0.000607951
0.00219114
0.0102789
0.00174127
0.00444454
0.0160012
0.00599877
0.00863121
0.0123132
0.00969949
0.00174718
0.000761098
0.00225764
0.00306057
0.0132531
0.000954329
0.000718985
0.010892
0.0115259
0.00260161
0.00437005
0.00168237
0.00265537
0.000647105
0.0102072
0.0158617
0.0123681
0.00202372
0.00124366
0.00520519
0.00514903
0.00067112
0.00286381
0.000576661
0.0119101
0.0025108
0.0014412
0.00161708
0.00349294
0.00119863
0.0160102
0.00177962
0.0157799
0.0137789
0.00264657
0.000683264
0.0107844
0.0134914
0.018155
0.00172629
0.00101947
0.00523254
0.00286131
0.00108845
0.0138705
0.00248279
0.00720107
0.0129855
0.000700983
0.0136041
0.00280651
0.00260558
0.00533876
0.00339869
0.00269746
0.00321249
0.00355562
0.00438732
0.0159985
0.00119915
0.00955332
0.00481713
0.00158912
0.00446901
0.00271502
0.00219758
0.000810146
0.0132174
0.0105546
0.0120661
0.00107871
0.0130239
0.0118198
0.00805376
0.00713666
0.00175137
0.000762951
0.000688542
0.00405465
0.0136128
0.0148649
0.000716479
0.00821095
0.00197323
0.0161494
0.0114857
0.00412221
0.00308791
0.0026894
0.0129556
0.00182826
0.00651875
0.0100688
0.0122182
0.000536042
0.00368762
0.000469323
0.00965907
0.00751239
0.00213669
0.012284
0.01115
0.0127103
0.00992765
0.00516051
0.0132548
0.00431812
0.00169629
0.0017769
0.0052444
0.00264324
0.0131518
0.0121556
0.0102408
0.0155083
0.0121096
0.0158056
0.000824904
0.00108048
0.0169872
0.00199816
0.0123837
0.00225619
0.0139592
0.0162313
0.00195704
0.00071061
0.00182304
0.00171378
0.00167337
0.00224236
0.00198571
0.00189413
0.00181413
0.00191249
0.000256813
0.000371755
0.000307818
0.00024622
0.000201518
0.000299574
0.0144275
0.00321879
0.0139451
0.00243148
0.00924905
0.000705494
0.00208821
0.0157015
0.00146406
0.00241358
0.0123338
0.00102722
0.00282658
0.00632747
0.000617303
0.00169323
0.00199646
0.00964037
0.0159047
0.00303698
0.0123338
0.00352649
0.00211519
0.0121004
0.0163196
0.00295778
0.00146557
0.00378641
0.0132227
0.00133412
0.00643597
0.00708898
0.00112394
0.0107254
0.000816977
0.00292734
0.00450541
0.000635801
0.00454185
0.00162562
0.00088709
0.00417745
0.00157747
0.00114275
0.0144484
0.0106428
0.00092237
0.00437426
0.00871458
0.00359759
0.00128298
0.00588788
0.0106194
0.00664344
0.00764059
0.00343195
0.00137977
0.00482662
0.00603609
0.00203679
0.0133705
0.0036598
0.00381136
0.0117162
0.000662055
0.00255268
0.00291831
0.00124098
0.00993007
0.00536542
0.0134176
0.00618802
0.00197439
0.00934993
0.0166984
0.00229663
0.00885118
0.00155818
0.00104969
0.00150436
0.00157786
0.00293106
0.00112245
0.0133144
0.0152876
0.00101381
0.00489804
0.0122055
0.00373084
0.0130235
0.00130846
0.00365548
0.00675541
0.00357839
0.0129355
0.00131234
0.00444696
0.00691496
0.00518669
0.0124536
0.00141746
0.00063072
0.0018998
0.0034888
0.00859494
0.0125707
0.00483327
0.0114124
0.00888625
0.00170534
0.0169873
0.00170331
0.0045615
0.00577776
0.00277084
0.0016538
0.0107595
0.00307962
0.00122514
0.00288465
0.0106525
0.00234037
0.0158573
0.011089
0.00559628
0.00268376
0.0015793
0.000637662
0.0112154
0.00370065
0.0133633
0.00800699
0.0136911
0.0154941
0.0125329
0.00183171
0.00252579
0.00211847
0.00161105
0.0118298
0.00188908
0.0126981
0.0194733
0.00220075
0.00457106
0.0124672
0.00927667
0.0123542
0.000971626
0.00249871
0.00692263
0.00205093
0.00404224
0.00490401
0.00426138
0.00622484
0.00204131
0.00900032
0.00328353
0.00388947
0.0122591
0.00828255
0.00896141
0.00648786
0.00892777
0.00760375
0.0121614
0.0131818
0.00421074
0.00157578
0.00345303
0.00349592
0.00352838
0.0124211
0.00759441
0.0126771
0.012943
0.00124163
0.00219932
0.00245465
0.0124067
0.00184192
0.00188186
0.0116773
0.0147308
0.0107778
0.0020982
0.013002
0.0130336
0.0131343
0.00691792
0.00336486
0.000696142
0.00065003
0.00164279
0.00324982
0.00220917
0.0024335
0.00314053
0.0157807
0.0116737
0.00122233
0.00546435
0.0143274
0.00405115
0.00239402
0.00281382
0.0021958
0.014649
0.00851482
0.00145761
0.00122882
0.0189909
0.0110258
0.0133228
0.00164238
0.00309488
0.00384282
0.00543131
0.0105527
0.00142163
0.00355551
0.00314369
0.0184651
0.000425037
0.00742952
0.0127907
0.00142849
0.00365194
0.00716843
0.011697
0.013162
0.00193384
0.00381503
0.00139459
0.00719828
0.00161542
0.0019244
0.0089157
0.00228681
0.00890045
0.00109989
0.014111
0.00094867
0.000998685
0.000504776
0.00675952
0.00467638
0.00317221
0.00137565
0.014608
0.00256393
0.00334994
0.00458443
0.0104135
0.00255417
0.00228198
0.00255452
0.00220224
0.00361594
0.0102638
0.0181888
0.00361664
0.0115642
0.00251926
0.00183489
0.00179103
0.00238946
0.00243345
0.0109482
0.00271533
0.00181869
0.00198649
0.00242097
0.0119684
0.00238436
0.00133571
0.0025023
0.00269917
0.00200796
0.00480124
0.0110437
0.00441783
0.0029529
0.00191783
0.00220806
0.00289343
0.00151699
0.000729083
0.0111615
0.00931439
0.00238152
0.00322552
0.00279563
0.00132068
0.00123393
0.00284942
0.00127569
0.00132167
0.00206115
0.00191706
0.00114996
0.00295994
0.0157641
0.00229121
0.00217681
0.015657
0.0035252
0.0104543
0.0126906
0.00264079
0.00242869
0.00134867
0.000958067
0.00377328
0.000858668
0.00510219
0.00124384
0.000538227
0.00037025
0.00192861
0.000347998
0.000793303
0.000468211
0.00235004
0.00299718
0.00177485
0.0019489
0.00075635
0.00132019
0.000932012
0.00108222
0.00156685
0.000687813
0.000764883
0.00165302
0.0015173
0.000697289
0.000360283
0.00149716
0.00173493
0.000988419
0.0008543
)
;

boundaryField
{
    frontAndBack
    {
        type            empty;
    }
    wallOuter
    {
        type            nutkWallFunction;
        Cmu             0.09;
        kappa           0.41;
        E               9.8;
        value           nonuniform List<scalar> 
96
(
0.00010227
8.67186e-05
8.10536e-05
0.000196031
0.000198597
0.000195553
0.000123088
0.000112229
9.00089e-05
0.00017376
7.89177e-05
0.000150879
0.000101618
0.000205377
0.000161837
0.000187459
0.000193624
8.98927e-05
7.50465e-05
0.000133907
7.27917e-05
0.000142515
9.11027e-05
0.000199503
0.000186298
0.000102469
9.93744e-05
9.57638e-05
8.37563e-05
8.87913e-05
0.000118247
9.78203e-05
7.02331e-05
8.33311e-05
7.47939e-05
7.61216e-05
8.66082e-05
0.000129268
8.55764e-05
7.88502e-05
7.96671e-05
8.98611e-05
9.22669e-05
8.71449e-05
8.93874e-05
8.31182e-05
8.39718e-05
8.63681e-05
8.68602e-05
8.79689e-05
0.000113124
8.68534e-05
8.09033e-05
7.16148e-05
0.000167096
8.43693e-05
0.00014067
9.1371e-05
8.32927e-05
8.65528e-05
0.000208691
6.66571e-05
5.84823e-05
0.000240581
0.000226259
0.000252948
0.000221987
8.55136e-05
0.000208043
0.000196474
0.000192165
0.000251508
0.000224892
0.000215304
0.000207016
0.000217209
3.10974e-05
4.6322e-05
3.80934e-05
3.01719e-05
2.46495e-05
3.75708e-05
8.52567e-05
7.65495e-05
7.70503e-05
8.01519e-05
0.000164597
7.90068e-05
0.000215039
0.000214247
8.36432e-05
7.87554e-05
5.30036e-05
0.00021939
0.000129815
6.28318e-05
)
;
    }
    inlet
    {
        type            calculated;
        value           nonuniform 0();
    }
    outlet
    {
        type            calculated;
        value           nonuniform List<scalar> 9(0.0182906 0.0176378 0.00188567 0.0159753 0.0120529 0.00713666 0.00213669 0.00359759 0.0106194);
    }
    wallInner
    {
        type            nutkWallFunction;
        Cmu             0.09;
        kappa           0.41;
        E               9.8;
        value           nonuniform List<scalar> 
126
(
0.000207703
0.000128599
0.0001914
6.61053e-05
5.9013e-05
5.66061e-05
3.48445e-05
5.02029e-05
0.000112247
7.03613e-05
0.000116207
0.000148142
0.000416382
0.000135365
8.22849e-05
0.000100078
0.000172568
0.000128593
8.93475e-05
4.65356e-05
7.21957e-05
0.000104054
0.000201387
9.46979e-05
0.000116024
0.000161113
0.000159685
9.5841e-05
8.46935e-05
4.69722e-05
0.000157412
0.000199242
0.000262005
0.00014763
0.000295418
5.31082e-05
8.97592e-05
0.000158825
0.000120849
4.2995e-05
4.27932e-05
0.000176743
9.0916e-05
7.33472e-05
0.000142445
0.000145496
9.12585e-05
0.000310475
5.43712e-05
0.000149234
0.000179104
8.59625e-05
0.000224942
8.16764e-05
0.000114382
0.000168304
7.98558e-05
0.000213329
0.000166454
0.000119624
3.62364e-05
4.38607e-05
6.04737e-05
0.000161976
9.24796e-05
7.63863e-05
0.00013329
0.000155386
3.7942e-05
0.000212249
0.000148721
0.000125337
5.60281e-05
4.62207e-05
0.000148251
0.000137402
6.19584e-05
0.000201715
0.000184976
0.000184406
0.000156088
0.000190564
8.92604e-05
0.000195802
0.000106446
0.000181392
0.000193556
8.23221e-05
4.06287e-05
0.000183432
0.000178798
0.000190528
0.000168448
4.52331e-05
0.000146612
0.000216575
7.55339e-05
0.000224145
0.000112339
0.00011821
0.000157067
0.000114353
9.77667e-05
0.000141992
6.09985e-05
4.39878e-05
4.13911e-05
5.7214e-05
0.000260958
0.000328414
0.00020184
0.000220752
9.07896e-05
0.00011105
0.000126561
0.000181417
8.31871e-05
9.14027e-05
0.000189466
0.000175204
8.55753e-05
4.30779e-05
0.000173054
0.000199914
0.000118069
0.000102314
)
;
    }
    procBoundary3to1
    {
        type            processor;
        value           nonuniform List<scalar> 
48
(
0.0112308
0.00454326
0.00558667
0.00916632
0.00353932
0.00341812
0.00454326
0.0121533
0.0154021
0.00164299
0.00164299
0.00157597
0.00157597
0.00235737
0.00301949
0.00146054
0.00137105
0.00131733
0.00137105
0.00162578
0.00159266
0.00193028
0.00162578
0.00188881
0.00134976
0.00152998
0.0042113
0.00193028
0.00687176
0.00137226
0.00137226
0.0100993
0.0100993
0.0154021
0.00165399
0.00297875
0.0140797
0.00134976
0.0134662
0.00311804
0.00235737
0.015417
0.0159079
0.00162578
0.00326497
0.00102467
0.003524
0.00181611
)
;
    }
    procBoundary3to2
    {
        type            processor;
        value           nonuniform List<scalar> 
29
(
0.00182537
0.00182537
0.000528426
0.000578109
0.0007697
0.000619136
0.000576445
0.00201049
0.00268654
0.0021934
0.00139417
0.00165
0.00111291
0.00240519
0.00130668
0.00220213
0.0018399
0.00243849
0.00189005
0.00182558
0.00158687
0.0018399
0.000255387
0.00243849
0.000933531
0.000946287
0.00243849
0.00302363
0.00302363
)
;
    }
}


// ************************************************************************* //
