/*--------------------------------*- C++ -*----------------------------------*\
| =========                 |                                                 |
| \\      /  F ield         | OpenFOAM: The Open Source CFD Toolbox           |
|  \\    /   O peration     | Version:  v1912                                 |
|   \\  /    A nd           | Website:  www.openfoam.com                      |
|    \\/     M anipulation  |                                                 |
\*---------------------------------------------------------------------------*/
FoamFile
{
    version     2.0;
    format      ascii;
    class       surfaceScalarField;
    location    "0.48";
    object      phi;
}
// * * * * * * * * * * * * * * * * * * * * * * * * * * * * * * * * * * * * * //

dimensions      [0 3 -1 0 0 0 0];
oriented        oriented;


internalField   nonuniform List<scalar> 
11117
(
-2.0724e-05
5.3375e-05
9.30769e-06
-4.19587e-05
9.94901e-06
0.000146101
-7.42378e-06
-0.000148626
-6.21594e-05
9.47475e-05
-2.10795e-05
-1.15085e-05
-0.000642804
6.70175e-05
0.000200722
0.000375065
0.00022364
7.85516e-05
-3.1248e-05
-0.000270943
-3.31041e-05
6.97369e-06
-0.000124982
0.000151112
-0.000661947
-9.48165e-05
0.00057931
0.000177454
-0.0002426
-3.44684e-05
0.000185375
9.16939e-05
0.0012024
0.000228033
-0.000895479
-0.000534953
0.000121577
-2.46268e-06
-4.138e-05
-7.77346e-05
-0.000858117
0.000929151
0.000295132
-0.000366165
-0.00014046
-0.000207046
0.000135317
0.000212188
-0.000680225
-0.00022567
0.000412374
0.000493522
0.000890664
-0.00116466
0.000566302
-0.000292305
7.01472e-05
-8.16373e-05
0.000112954
-0.000101464
-5.98144e-05
1.61689e-05
-3.39919e-05
7.76374e-05
-4.73076e-05
-9.77009e-06
-4.13949e-05
9.84726e-05
-0.000714787
0.000711535
0.00079983
-0.000796578
0.00012655
7.18011e-05
-0.000128204
-6.03153e-06
3.71792e-06
8.96801e-05
-8.73665e-05
-0.000337731
0.000186962
6.59473e-05
8.48209e-05
-1.52204e-05
1.11252e-05
0.000106771
-0.000102676
0.000511217
0.000377947
-0.000283105
-0.000606059
8.34272e-05
7.33901e-05
-7.44352e-05
-8.23821e-05
0.000250176
0.000195177
-0.000269385
-0.000175968
0.00100286
-0.00103053
0.000283201
-0.000255531
0.000211148
-0.000329647
0.000626741
-0.000508242
-0.000263575
0.000345582
-0.000263273
0.000181267
0.000157872
-6.49126e-05
0.000962539
-0.0010555
7.50233e-05
-4.21441e-05
4.58659e-05
-7.87451e-05
-0.000182517
-2.46606e-05
0.000267247
-6.00686e-05
-8.84256e-05
-0.000247296
0.000255177
8.05454e-05
-0.000118539
-0.000448221
0.000376488
0.000190272
0.000147554
-6.33472e-05
2.55564e-05
-0.000109763
0.000113987
4.95294e-05
6.57633e-05
-0.000229279
-0.000243786
0.00010348
-4.00289e-05
0.000180334
0.000603162
-0.000817853
0.000998139
-0.000783448
0.000276859
-0.000499185
-5.27356e-05
0.000275061
0.00065936
-0.00019293
-0.000799846
0.000333416
0.000200421
0.000379268
-0.000471225
-0.000108465
0.000146482
0.000130147
-0.000194944
-8.16839e-05
9.82819e-05
-8.20593e-05
7.69571e-05
-9.31796e-05
0.000982949
0.000866275
-0.000869828
-0.000979396
3.30238e-05
5.67054e-06
7.16031e-06
-4.58547e-05
3.34857e-05
0.000149234
-5.61688e-05
-0.000892848
0.000707171
-0.000213837
0.000399514
-0.00050354
0.000335804
-7.92112e-05
0.000246947
4.31946e-05
-0.000167422
0.000138377
-1.415e-05
-0.000262206
0.000379139
-0.000200094
8.31607e-05
-8.97421e-05
1.8958e-05
7.07841e-05
4.31588e-05
5.85256e-06
-4.90113e-05
-0.000322913
-0.00110473
0.000498704
0.000928936
0.000139627
-6.85768e-05
0.000146624
-0.000217674
-0.000245473
0.000305915
5.96198e-05
-0.000120062
1.53374e-05
-1.53374e-05
0.000395926
0.000172013
-0.000522489
-4.54493e-05
0.000172457
9.16993e-05
-0.000239853
-2.43034e-05
-8.83506e-05
-5.39969e-05
0.000132985
9.36263e-06
0.000871716
0.000114087
-0.00134465
0.000358849
-0.000403514
0.000870182
0.000536188
0.000837029
-0.000853786
4.58736e-05
-2.91171e-05
0.000122862
-6.68537e-05
-5.6466e-05
4.58051e-07
-0.000144472
-0.000122713
8.46674e-05
2.93162e-05
-5.05125e-05
-6.72293e-05
0.000119314
-3.84432e-05
-0.00019941
-4.53917e-05
-0.000113753
9.68816e-05
6.22635e-05
0.000142622
-0.000154793
6.99737e-05
-5.7803e-05
4.65903e-05
-0.000303995
0.000257404
-0.00083008
-0.000446049
0.00067958
0.000596548
3.65575e-06
2.28457e-05
-5.95235e-07
-2.59063e-05
0.000452742
-0.000132146
-0.000643508
-0.000241427
0.000211539
0.000172511
-0.000280177
-0.00126844
0.00130672
0.00024189
2.65237e-05
1.08378e-05
-0.000101829
6.44672e-05
-0.000864783
-0.000680083
-7.54913e-05
-1.52515e-05
0.000286033
-0.00019529
7.86821e-05
-3.13593e-05
-4.73228e-05
-0.00100815
-0.000157274
0.000134894
2.9402e-05
-2.68062e-06
6.30247e-06
-2.35491e-05
-1.4652e-05
3.82011e-05
5.6837e-05
5.37849e-05
-9.73536e-06
-0.000100887
7.48634e-05
1.99574e-05
3.82585e-06
-9.86467e-05
1.44341e-05
3.18709e-05
-5.30448e-06
-4.10005e-05
-0.000329375
0.000402897
0.000271994
-0.000345516
-0.00018627
-3.1693e-06
0.00022714
-3.77009e-05
5.27616e-05
-0.000555918
0.000503157
-8.27857e-06
-0.000655724
0.000664003
3.233e-05
-0.000462306
0.000429976
8.89466e-05
-1.96858e-06
6.69228e-05
-0.000153901
-8.26207e-05
9.03893e-05
0.000284906
-0.000292674
0.000511317
-0.000152674
7.76477e-05
-0.000436291
0.000800257
6.11662e-05
-5.86939e-05
-0.00080273
0.000711066
-5.49073e-05
5.87313e-05
-0.00071489
-0.000655598
3.67086e-05
-2.56588e-05
0.000644548
-0.000714602
5.62731e-05
-3.02839e-05
0.000688613
-2.07954e-07
0.000226638
-0.000329554
0.000103124
0.000571286
2.25514e-05
-2.25607e-05
-0.000571277
0.000685077
3.83403e-05
-2.81577e-05
-0.00069526
0.000764441
5.76343e-05
-3.28806e-05
-0.000789195
0.000805009
6.33154e-05
-3.12951e-05
0.000392448
7.95834e-05
-0.000417551
-5.44805e-05
-0.000210453
0.000173353
5.70828e-05
-1.99829e-05
0.000300893
-0.000374452
-0.00114711
0.00122067
0.000833871
0.000385636
-0.000854443
-0.000365063
-2.3135e-05
-3.16937e-05
2.90835e-05
2.57452e-05
-0.000796182
0.000302987
0.000709712
-0.000216517
2.39565e-05
-3.74093e-05
9.8807e-05
-8.53542e-05
2.1591e-05
-1.47436e-06
3.05743e-05
-5.06909e-05
-0.000247514
1.57673e-06
0.000104572
0.000141366
2.6804e-05
1.24287e-06
1.3551e-06
-0.000496965
0.000303716
0.000328916
-0.000135668
-9.7434e-05
0.000197659
4.92347e-05
-0.000149459
-0.000419173
0.00034826
-0.000175111
0.000246023
-2.54148e-05
3.68579e-05
3.72159e-05
-4.8659e-05
0.000109512
0.000646397
-0.000730835
-2.5074e-05
0.000112946
0.00060561
-0.000683505
-3.5051e-05
-3.85444e-05
-3.78464e-05
6.09034e-05
1.54873e-05
-0.000558946
0.000548454
0.000830001
-0.000819509
3.86078e-05
-2.16152e-05
-0.000870778
-0.00103761
8.87511e-05
0.000959243
-1.03847e-05
0.000860377
-0.000619614
-0.000799709
-1.07177e-05
-5.76854e-06
1.64862e-05
0.000187453
-0.000124085
0.000191569
-0.000254938
-0.000151205
-0.000187862
-1.26661e-05
-0.00010315
-1.93901e-05
0.000135206
-0.000346559
0.000399355
0.000607908
-0.000660705
-0.000520601
0.000804348
-0.00061188
0.000328133
9.74231e-06
0.000136818
-0.000126764
-1.97961e-05
0.000544969
-0.000793164
-0.000110196
0.000358391
4.97456e-05
-4.7436e-06
4.22219e-06
-4.92242e-05
-6.98755e-05
0.000244757
-8.57309e-05
-8.91509e-05
0.000336278
-0.000182607
-0.000262508
0.000108837
0.000123438
-8.63453e-05
-4.76982e-05
1.06052e-05
-0.000964418
0.000103646
-0.000147375
-0.000263173
0.000226146
-0.000649895
0.000686923
5.51456e-05
-5.75013e-05
-7.92816e-05
-0.000394937
3.372e-05
9.68078e-06
0.000351537
3.06394e-05
0.000105862
-1.36401e-05
-5.02587e-06
6.71854e-06
5.89479e-06
-7.58746e-06
0.000193183
0.000108778
-0.000194102
-0.000107858
-6.84602e-05
-9.0617e-05
7.50055e-05
8.40717e-05
9.61695e-05
-0.00040809
0.000444622
-0.000132701
0.000165075
-0.000146459
-9.77011e-06
-8.8465e-06
0.000533122
-0.000279365
-0.000263785
1.00276e-05
-1.78408e-05
2.07165e-05
-1.01112e-05
7.23541e-06
4.8696e-06
0.000140189
-0.000136788
-8.27056e-06
0.000351959
-0.000205643
4.11379e-05
-0.000423304
0.00094438
-0.000540505
1.94284e-05
0.000139275
7.23577e-06
-0.000188271
4.17603e-05
-6.96175e-05
0.000275051
-5.33396e-05
-0.000152094
0.000905657
0.000437718
-0.000598664
-0.000744712
3.9944e-06
-3.55234e-06
-5.29023e-06
4.84817e-06
-0.000454916
-9.71259e-05
-0.000244141
0.000115962
-0.00020476
-0.000112899
0.000201697
-0.000217775
-0.000333475
0.000364671
0.000186579
0.000665013
-0.000128859
-0.000536154
0.000329985
0.000396787
4.22268e-05
-0.000439014
0.000905255
-0.000218969
-0.000686286
9.05893e-05
-2.62897e-05
1.18474e-05
1.44423e-05
-3.97767e-05
-6.41671e-06
4.61934e-05
0.000284961
-0.000279415
-5.54605e-06
-5.66575e-05
0.000532638
-0.000475981
-0.000483134
0.000549232
-6.60985e-05
-0.000488105
0.000483341
4.76355e-06
-0.000440593
-1.70836e-05
0.000457677
0.000146133
-4.86282e-05
-9.75047e-05
-0.000353739
-0.000143226
-2.76912e-05
-6.97428e-05
-5.23392e-05
2.82539e-05
2.40853e-05
0.000210775
0.000199581
-0.000410356
0.000189839
-0.000256242
6.64028e-05
0.000187899
-0.000163383
-2.45164e-05
-0.000102406
0.000117993
-1.55875e-05
-0.000554263
0.000680166
-0.000125903
-0.000117965
7.23969e-05
4.55683e-05
-0.000272651
0.000336957
-6.43057e-05
-9.22549e-05
9.46486e-05
-2.3937e-06
0.000903507
-0.000986973
8.3466e-05
-0.000278741
0.000313327
-3.45852e-05
-6.43827e-05
0.000124839
-6.04563e-05
0.000227706
-0.000184768
-4.29377e-05
-0.000271074
0.000315537
-4.44625e-05
2.49754e-05
7.67851e-05
-0.00010176
-7.05111e-05
0.000380288
-0.000309777
-0.000203725
-6.72786e-06
-0.000228196
0.000146844
8.13513e-05
-0.000179449
0.000233785
-5.43363e-05
2.62101e-05
0.000147143
-0.000208265
-0.000649852
-0.000179562
-6.77349e-05
-0.000361483
-8.67385e-05
9.45259e-05
-0.000119186
0.000461114
-0.000124836
5.88099e-06
-7.57565e-05
0.000228036
4.61612e-06
-0.000232652
-0.000107481
0.000103541
3.94047e-06
-2.19384e-05
9.37395e-05
-0.00106096
0.00136186
0.000586116
-4.20248e-05
-0.000544091
-0.000918227
-0.0001865
-6.72432e-05
0.000110438
-8.72322e-05
-3.01101e-05
0.000117342
-0.000465758
-3.77826e-05
-0.00075494
-0.000137908
2.79169e-05
-0.000150509
0.000122592
2.8785e-05
-1.11034e-05
1.23144e-05
-2.9996e-05
-0.00019244
9.61521e-05
0.000453522
-0.000357234
-0.000876569
0.000857421
0.000693631
-0.000674482
6.94407e-06
-4.907e-07
-2.65764e-05
2.0123e-05
-0.00117537
0.00113275
-5.11183e-05
9.37391e-05
-0.000289467
0.000239322
-6.51249e-06
0.000151839
-0.000145668
-4.59472e-05
3.4425e-05
-7.78923e-05
-0.000138603
0.000182071
0.000140819
-0.000273949
-0.000285089
0.000418219
0.000103496
-0.0001139
-0.00016963
0.000180034
-0.000172236
0.000130282
0.000165392
-0.000201322
5.04845e-05
0.000582326
-0.000431488
0.000787166
-0.000681095
-0.000188756
8.26849e-05
-0.00138772
-3.43254e-05
0.000246682
0.000271877
-0.000336019
5.55761e-05
8.56593e-06
0.000240063
1.2352e-05
-4.67708e-05
-0.000205644
0.000686469
-0.000219954
-3.67505e-05
-0.000429765
-0.000333565
-0.000242607
3.79743e-05
0.000538198
-7.79676e-05
5.57433e-05
0.00125084
-0.00122862
-0.000124022
1.18862e-05
0.000112136
4.37023e-05
-9.26126e-06
-4.74091e-05
1.29681e-05
-0.000282207
1.22054e-05
-1.80502e-05
0.000288052
7.0986e-05
-6.83697e-05
-5.62667e-05
5.36503e-05
-8.22966e-05
0.00012351
-0.000238619
0.000197406
-1.94296e-05
6.17327e-05
-2.66617e-05
-1.56415e-05
1.00823e-05
-4.95322e-06
0.000131905
-0.000137034
0.000144918
-5.53096e-05
-0.000225423
0.000135814
0.000232355
-0.000249607
6.91278e-05
-5.18759e-05
2.66315e-05
2.82712e-05
-0.00107631
0.00102141
-0.000153709
6.13733e-05
-0.000750862
0.000843198
0.000848674
-0.000850733
6.77642e-05
-6.5705e-05
0.000196802
-0.000296086
-0.000136473
0.000235757
-6.85266e-05
-9.19876e-05
6.4972e-05
9.55422e-05
-0.000121856
-5.87874e-06
8.12383e-05
4.64964e-05
0.000153213
-0.000137989
2.99586e-06
-1.82192e-05
6.35366e-05
0.000700026
-0.000392696
-0.000370866
-4.87393e-06
0.000272232
-0.000151396
0.000161099
-0.000119354
-4.66189e-05
-4.61466e-05
-2.155e-05
0.000371413
-0.0001338
0.000137122
-3.05649e-05
2.7243e-05
-2.45898e-05
7.36406e-05
9.02245e-05
5.27698e-05
-0.000531705
0.000478935
4.98839e-05
-0.000565936
0.000516052
4.29752e-05
-0.000578863
0.000535888
6.8335e-05
-6.21399e-05
-5.15868e-05
-7.71377e-05
-2.82886e-05
3.7425e-05
-6.20146e-05
5.28782e-05
-1.15665e-05
2.28092e-05
-0.00093448
0.000923238
-0.00033136
-0.000323489
0.000396561
0.000258288
0.00103378
-0.00044197
-0.000789608
0.000197795
-0.000646999
0.0011477
-0.000862676
0.000361978
1.62512e-05
-3.76296e-05
5.01634e-05
-1.68301e-06
-0.000111683
0.0001007
-0.000605299
-6.66578e-05
0.000292349
0.000379607
2.32699e-06
-0.000310098
1.83041e-05
-6.96665e-05
0.000170194
5.13113e-05
-1.18943e-05
8.26585e-05
-6.06859e-06
-6.46956e-05
-9.02963e-05
5.76081e-05
3.26883e-05
-0.000210555
0.000252258
-4.17031e-05
0.000386057
-0.00021447
-0.000241205
0.000104332
-0.000376594
0.000330257
-5.79947e-05
2.07572e-05
-4.87299e-05
-0.000557688
3.28623e-05
-5.55014e-05
0.000580327
-0.000417767
-1.19227e-05
1.88746e-05
0.000410815
-0.000187533
-7.48169e-05
0.000136677
0.000125673
0.000104133
0.000165642
-0.000218683
-5.1093e-05
-0.000274673
0.000450704
0.000322673
3.05322e-05
-0.00107108
0.0010975
-5.69565e-05
2.86036e-05
8.93344e-05
-4.6952e-05
-9.39942e-05
-0.000193336
4.18576e-05
7.4264e-05
-9.51452e-05
-9.07337e-05
0.000111615
2.0971e-05
-1.94543e-05
-5.03481e-05
4.88314e-05
3.20748e-05
0.000321335
2.36043e-05
-0.000377014
-0.000132812
-6.55736e-05
9.09039e-05
-0.000321735
-6.07098e-05
0.000279736
0.000102709
-0.000255623
0.000135273
0.000266831
0.000106353
-6.12817e-05
5.32108e-05
-0.000629349
0.000372705
0.000457066
-0.000539741
1.22971e-05
0.000532665
-5.22145e-06
-0.000686393
1.77378e-07
0.000699248
-1.30322e-05
-2.41232e-06
0.000660795
-0.000642435
-1.59472e-05
-3.28756e-05
0.000552608
-0.000541219
2.14861e-05
-0.000536592
0.000999497
-0.000726078
-8.03427e-05
0.000101479
-0.000133355
0.000112219
0.000242458
-0.000160112
1.70206e-05
-9.93673e-05
0.000158897
-0.000110238
1.61725e-05
-6.48315e-05
-8.28409e-05
7.68761e-05
-2.19632e-05
2.79279e-05
-0.000951534
0.000121937
0.000932834
-0.000103237
-0.000100895
0.000783374
-0.0008344
0.000151922
-0.000184171
6.59129e-05
0.00045136
-0.000333102
-0.000102739
0.000125412
-2.38465e-05
1.17368e-06
-0.000125199
-9.95741e-05
0.000651218
-0.000426445
-3.98547e-05
0.000102958
0.000108723
-0.000171826
3.01194e-05
-6.38782e-05
0.000108622
-0.000581612
0.000554888
3.5935e-05
-3.14143e-05
5.23163e-05
0.000340004
-0.000286411
9.94337e-06
9.19087e-05
8.47812e-05
-0.000137113
-3.95771e-05
3.93286e-05
-1.61113e-05
0.000313884
-0.000337101
2.46069e-05
-4.48213e-05
4.11853e-05
0.000623935
-0.000362641
-0.000707343
0.000722078
-0.000374511
0.00047768
-0.000230434
0.00014206
6.71943e-05
3.04474e-05
1.91204e-05
7.81096e-05
-0.000127677
0.000481609
-0.000758804
-0.000599375
5.94387e-05
-6.64987e-06
-7.82036e-05
-0.000425569
0.000471113
0.00101026
-0.0010558
0.000842786
-0.000170765
-4.6338e-05
-0.000625682
7.10327e-06
7.43333e-06
7.05438e-06
-0.000375308
0.000253546
0.000467345
-0.000241017
6.57047e-05
-7.22016e-05
0.000261491
-0.000781844
0.000678224
-8.69998e-05
0.000110851
-0.000131445
0.000107594
-4.38208e-05
0.000287089
-0.000415628
0.00017236
-0.000682269
0.000603427
0.000627296
0.000163172
6.77032e-05
2.89019e-05
-3.57556e-05
1.99313e-05
-1.30776e-05
-0.00012126
-0.000297852
0.000226183
-0.000118053
0.000113093
0.000102708
-9.77479e-05
-0.000134579
-0.000219111
0.00079446
0.000134691
-1.47206e-05
-7.80154e-05
0.000256838
1.04085e-05
0.000148292
5.14515e-05
-5.78712e-05
8.51132e-05
-4.1411e-05
-6.87786e-05
-2.84208e-05
2.27045e-05
0.00012414
-8.8277e-06
-2.24747e-05
0.000215426
-4.30462e-05
-8.93616e-05
-4.18316e-06
0.000231889
-4.04694e-05
-0.000230605
-4.11778e-05
-2.32049e-05
-0.000516783
2.86785e-05
-4.10624e-05
-0.000458123
-0.000116924
-0.000682922
-0.00010843
0.0001133
-4.59461e-05
-5.47226e-05
-9.02425e-05
-1.30112e-05
0.000393299
-8.66382e-05
6.46998e-05
0.000360229
0.000568708
-7.58308e-05
-1.45644e-05
-4.13261e-06
-1.94094e-05
1.24385e-05
-1.07517e-05
-0.000264507
0.000222523
0.000498183
-0.000522227
2.42745e-05
-2.3073e-07
1.96666e-05
-0.000408916
0.000294432
4.05933e-05
-0.000248644
0.000173582
3.1695e-05
-0.000171271
-8.84763e-06
0.000148423
0.000263202
0.000443969
0.000145935
0.000189869
-1.7237e-05
-0.000150185
0.000233307
-0.000288314
4.75313e-05
7.4759e-06
-0.000115311
3.35256e-05
0.000102046
-2.02607e-05
0.000239595
-4.02253e-05
-0.000167674
0.000216487
-2.06812e-05
-0.00014218
-5.36258e-05
-8.12158e-06
-7.46709e-05
2.47188e-05
5.80736e-05
0.000428708
-0.000120493
0.000134704
-0.00039852
0.000659741
2.30409e-05
-0.000165566
0.000314983
-0.000133185
0.000140822
-9.59874e-05
-1.96742e-05
-4.60176e-06
1.27089e-05
1.15671e-05
-9.02608e-05
0.00011463
-8.44234e-05
6.00537e-05
6.58345e-05
0.000181179
-1.37064e-05
-0.000623283
0.00102782
-0.000732947
0.000328413
6.34332e-05
-0.000234525
-7.26936e-05
5.66885e-05
6.13e-05
-4.00195e-06
-1.31435e-05
0.000133446
2.72514e-05
-0.00101021
0.000895146
5.0151e-05
8.68897e-05
5.93294e-05
-8.42999e-05
-6.19192e-05
-0.000266731
1.68773e-05
0.000118758
0.000131096
2.07159e-05
-0.000461309
-5.76528e-05
0.000203786
0.000385755
-0.000156878
3.52708e-06
-2.13684e-06
2.8452e-05
-2.98422e-05
1.91939e-05
-3.30919e-05
1.52241e-05
-1.32608e-06
0.000107543
0.00016847
-9.23235e-05
0.000115047
6.47888e-05
-0.000105149
-7.46865e-05
2.03872e-05
5.38799e-06
-1.39278e-05
0.000438396
9.89874e-05
0.000313521
0.00120397
0.00014673
-0.00116342
-0.000187284
0.000282769
7.25359e-05
0.000125123
-0.000662903
0.000172273
0.000590232
-9.96022e-05
-0.00021401
0.000160077
-0.000134441
0.000188374
2.42439e-05
-0.000128054
7.6182e-05
2.7628e-05
4.69358e-05
-8.94091e-05
4.60958e-05
-3.62244e-06
-0.000202166
0.000691522
4.22152e-05
-0.000531571
-0.000330351
0.000905404
7.10197e-05
-0.000646074
0.000763733
3.69872e-05
8.9482e-05
-0.000890203
-5.66408e-05
7.80618e-06
7.66966e-05
-2.78619e-05
6.56404e-05
0.000145135
-0.000210772
0.000444032
0.00044632
0.000494413
0.000108955
0.000515101
0.000129416
0.000678
0.000121412
0.000613548
-7.05682e-06
-1.12045e-05
4.12004e-06
1.41412e-05
-0.000351495
3.80889e-05
2.5092e-05
-0.000394901
0.000458334
-9.13225e-05
0.000148011
0.000173993
-0.000187136
4.27586e-05
1.72256e-05
-2.31262e-05
9.41e-06
-0.000151579
0.000161145
-1.89758e-05
-3.72035e-05
-0.00011019
0.000140004
7.38941e-06
1.72394e-05
0.000616761
-0.000405967
0.000965037
6.09928e-05
-0.00101283
-1.31974e-05
-0.000284501
0.000337695
0.000332863
0.000133192
-0.000261333
-7.23334e-05
0.000200474
-6.57452e-06
-3.42274e-05
6.45407e-05
-6.88577e-05
0.000118506
0.000242753
-9.67878e-05
-3.64392e-05
2.80245e-05
-0.000951546
0.00092365
-0.000397672
-0.000157632
-3.3984e-05
5.28901e-05
0.00010085
-4.82087e-05
-0.000105531
-7.78624e-05
0.000676892
1.93683e-05
-0.000618397
-9.43139e-05
0.000719656
2.47098e-05
-0.000650052
3.25653e-05
-1.58215e-05
-3.13023e-05
1.45586e-05
0.00026168
-2.54794e-05
-7.00197e-05
-0.000166181
3.76209e-05
-0.000145692
0.000182767
-7.46961e-05
-1.91899e-05
0.000104303
-0.000109121
0.000153437
-6.08397e-05
1.65236e-05
-0.000279641
-5.49204e-05
0.000197471
0.00013709
-9.957e-05
0.000119739
-4.66577e-05
2.64887e-05
0.000645037
1.43155e-05
-1.09042e-05
-0.000648448
-8.46999e-06
2.70845e-05
-3.05088e-05
0.000494278
-2.43678e-05
3.039e-05
-0.000500301
0.000224927
-0.000128516
-0.000150098
5.36878e-05
-0.000596377
-2.61268e-05
-5.93243e-05
0.000681828
-0.000524107
-8.39952e-05
1.19368e-05
0.000596166
-7.91407e-05
3.8754e-05
7.79377e-05
-3.75509e-05
-0.000141031
6.83791e-05
0.000124611
-5.19592e-05
-0.000203474
-7.53366e-05
0.00021754
6.12705e-05
-0.000366456
0.000292213
5.26925e-05
0.000762159
8.23929e-05
-3.95427e-05
5.50186e-05
3.82161e-06
-9.09457e-06
-0.00124176
-0.000105537
0.00118964
0.00015765
0.000568643
0.000193032
-0.000163486
-0.00059819
7.59392e-05
-3.92844e-05
-2.95391e-05
-7.11574e-06
-7.01939e-06
1.82382e-05
-4.25188e-05
3.13e-05
-1.24987e-05
4.02875e-06
-0.000190819
9.82814e-05
-0.000567505
0.000660042
0.000126332
-0.000107378
3.07119e-05
-4.96664e-05
0.000211345
-0.000202529
-7.57494e-06
-1.24038e-06
-1.49881e-05
0.000250466
-0.000247548
1.20702e-05
0.00017563
-0.000142052
-3.13034e-06
0.00109269
-0.000930897
0.000266783
-0.00042858
-0.000307684
-0.000289015
0.000333426
-7.60056e-05
2.00791e-05
-1.18652e-05
6.77917e-05
-0.000150185
-4.00069e-05
4.91609e-05
-0.000301987
0.00022383
-0.000125317
-8.50535e-05
-2.3159e-05
2.90719e-05
-0.000197024
0.000133124
0.000170904
-0.000107004
2.09621e-05
0.000252553
-0.00025019
-2.33244e-05
7.78072e-06
-8.79902e-06
0.000220933
-0.0004112
0.000485399
0.00112043
-1.63982e-05
2.87139e-05
7.67444e-06
-1.44051e-05
-0.000172823
0.000179553
-6.0601e-05
-4.7829e-05
8.09942e-05
-0.000129546
8.44871e-05
6.86713e-05
-0.000163276
0.000124724
-0.00101097
0.000358486
9.6838e-06
-0.00105564
-0.000637608
3.39038e-05
0.000104678
0.000116449
-0.000227795
-0.000102664
0.000294306
-0.000244349
-9.34713e-05
-2.58951e-05
6.70272e-05
0.000119847
0.000159378
-0.00021339
-3.45745e-05
6.14232e-05
-7.53096e-05
4.84609e-05
-0.000793008
-8.95512e-05
0.000219656
0.000297789
-0.000247414
-0.000250212
0.000199837
-0.000178237
-0.000961808
8.59881e-05
0.00105406
-7.01304e-05
-0.00100047
0.00102848
4.21162e-05
8.89533e-05
-0.000103412
-0.000106802
-0.0003015
-0.000406364
0.000423363
9.29541e-05
8.86525e-05
-0.000110013
-7.15938e-05
4.21802e-05
3.35453e-05
-3.41524e-05
-4.15731e-05
-0.000792092
-0.000278211
-0.000168261
-4.00518e-05
-2.24212e-05
0.000230734
9.76254e-05
-1.66777e-05
-9.53602e-05
1.44126e-05
0.000238322
-7.77823e-05
-2.72162e-05
2.54918e-05
2.63314e-05
4.41694e-05
-0.000124826
-9.60392e-06
-1.5444e-05
-8.86498e-06
3.97395e-05
-1.54305e-05
9.60384e-05
3.96864e-05
-2.12341e-05
-0.000114491
4.19442e-05
0.000764956
-3.21655e-05
-0.000774735
7.62746e-05
0.000653722
-4.60669e-05
-0.00068393
2.75638e-05
-2.8256e-05
-1.47518e-05
3.17941e-05
-0.00107937
0.00107963
-3.20529e-05
0.000242984
-0.00151267
6.66907e-05
0.001203
7.73258e-05
5.61876e-05
-5.49782e-05
-7.85352e-05
0.000131996
1.12552e-05
-2.82993e-05
-0.000114952
0.000189724
-0.000382446
0.000271274
0.00075572
-0.000565302
-0.000727011
1.83612e-06
2.13748e-05
6.48551e-06
-2.96964e-05
-0.000108865
0.000108806
-1.03138e-06
1.08942e-06
-4.14416e-05
4.55483e-05
-1.10016e-05
6.89483e-06
-0.000721967
0.000231409
0.000469733
2.08253e-05
8.49447e-05
-1.58362e-05
4.48666e-05
-0.000113975
0.000108823
-2.81142e-05
3.7107e-05
-0.000117816
0.000270966
2.89318e-05
7.07234e-06
-0.00030697
-3.46993e-05
0.000105897
-7.11981e-05
0.000311796
-0.00131057
3.51494e-05
-3.98295e-05
-0.000156364
0.000161044
-2.70771e-05
0.000226015
4.06563e-05
-7.88744e-05
0.000134259
6.0448e-05
-0.000115832
0.00103743
-0.00146048
0.000182831
0.000240226
0.000446329
6.91416e-06
1.33571e-05
-0.000466601
-6.04433e-06
-3.83242e-06
6.48954e-05
8.72169e-05
8.23574e-05
-0.000920615
0.000751041
-3.39543e-05
-8.41806e-05
0.000122838
-4.70337e-06
3.53297e-06
0.000169304
-0.000219762
4.6925e-05
-1.33235e-05
-8.90918e-05
0.000118673
-1.62575e-05
0.00116804
-0.000797973
-0.000105378
0.000155114
-0.00016779
2.10889e-05
6.35946e-05
-5.57816e-05
0.000838373
-0.000573199
5.3687e-05
-0.000318861
0.000117319
0.00047729
-6.14874e-05
7.08242e-05
-4.60848e-05
-1.69417e-05
-0.000125684
2.34864e-05
0.000119139
0.00066857
-0.000150435
-0.000492366
-2.57692e-05
1.10836e-05
-1.99193e-05
-3.63711e-06
1.24728e-05
-5.58074e-05
-3.62373e-05
6.39293e-05
6.42166e-05
-2.98592e-06
0.000114449
2.1531e-06
-0.000113616
4.99549e-05
0.000164355
-2.58168e-06
-7.0743e-06
0.000280622
1.43864e-05
-1.14045e-05
0.000105842
1.67359e-05
-5.23761e-06
7.34464e-05
0.00026739
-0.000287399
4.85696e-05
-2.85607e-05
0.00113588
-0.0011048
-0.000311258
-1.8448e-05
-0.000607835
0.000187167
0.000524999
-3.34447e-05
4.06091e-05
-3.16998e-06
0.000663858
-5.58733e-05
0.000560052
-5.87858e-05
3.5589e-05
4.97205e-05
3.46733e-06
-3.58672e-05
-6.54775e-05
9.78774e-05
3.43845e-05
8.21194e-06
-5.0274e-05
7.67749e-06
6.10292e-05
-7.79709e-05
5.92418e-05
-9.52493e-05
8.15735e-05
-4.5566e-05
0.000705272
0.000102947
-4.60604e-05
0.000179545
0.000164954
-0.000257803
0.000224927
-0.000455777
0.000453365
-0.000469831
0.000368935
-0.00112959
0.00113232
9.7103e-05
-9.98387e-05
0.000296444
0.000461923
-0.000315676
-0.000438872
-9.27555e-05
9.63689e-05
-0.000231033
-0.000208761
0.000472944
-0.00072421
-0.00014069
0.000391957
-0.000917335
0.000400805
-0.0001265
0.00064303
-3.16467e-05
0.000108029
-0.000341078
0.000264696
-1.57364e-05
-6.77125e-05
-0.00115281
0.00123626
8.36925e-05
-0.000375549
0.000749913
0.000181519
-0.000803744
-0.000127688
-2.09387e-06
-7.97081e-07
4.56495e-05
0.000725563
-0.000663235
5.90843e-05
0.000761826
-0.000815474
0.000183064
0.000530733
-0.000493258
7.14799e-05
5.12825e-06
9.83529e-05
-5.85571e-06
-0.000139656
-2.99861e-07
0.00013697
5.48701e-05
-8.94839e-05
8.11392e-05
-4.65255e-05
0.000609989
-0.00051585
-5.10223e-05
-4.31161e-05
0.000757243
-0.000641115
-1.65894e-05
-9.95388e-05
0.000109817
0.0015222
-0.00119211
-0.000439904
-1.33559e-05
6.90479e-06
2.5375e-05
-1.89239e-05
-0.000990474
-0.000637064
0.00105328
0.00057426
-9.26053e-07
-3.21002e-05
-7.47471e-05
0.000107773
-4.60995e-05
8.3021e-05
9.91206e-05
-0.000136042
3.76281e-05
-6.27209e-05
-4.88995e-05
7.39923e-05
0.000119772
-4.45687e-05
0.000630069
0.000661298
-0.000912526
0.00036074
0.00056482
-0.000776693
0.000324819
-2.79023e-05
7.07062e-05
-6.87465e-06
1.34784e-05
3.97258e-05
-4.63296e-05
0.000717535
-6.88647e-05
0.000134703
-4.38737e-05
2.7339e-05
-1.20015e-05
0.000101271
3.47551e-05
-7.74469e-05
-5.85791e-05
7.22898e-05
0.000852189
-0.000731446
-0.00025343
-0.000377874
0.000299944
0.000800496
-0.000749591
-0.000238072
0.000187166
-0.000118852
0.000191281
8.76484e-05
0.000205589
-4.62483e-06
0.000112363
9.19391e-05
-4.18464e-05
2.66923e-05
-3.63206e-05
9.19857e-05
0.000524011
-0.000632502
0.000108491
-0.000394769
0.000282731
-0.00124314
0.00135517
-0.000285222
0.000209951
0.000418876
-0.000343604
0.000110283
3.66535e-05
-5.9374e-05
-8.75625e-05
-0.000431653
-2.8898e-05
0.000591979
-0.000131428
0.000213684
-0.000182014
-0.000378228
-5.89151e-06
-1.11846e-06
2.87736e-06
0.000109038
-7.9284e-05
8.05289e-05
5.40505e-06
-0.00011204
-2.22987e-06
0.000143118
-4.598e-05
-0.000219055
0.000121917
0.000139214
-0.000226312
0.000270909
-0.000183812
3.83605e-05
2.78968e-05
8.69555e-05
-8.57766e-05
9.46323e-06
9.35389e-05
2.25094e-05
-4.98885e-05
6.79198e-05
-4.05408e-05
-7.96568e-06
-8.848e-05
0.000116079
-1.96329e-05
3.84461e-05
-1.79251e-06
0.000107973
-9.43684e-05
6.37216e-05
4.69763e-05
-1.52127e-05
0.000100232
0.000143831
-0.000227998
-0.000112856
-0.000761884
-0.000375164
0.000893922
0.000243126
0.000821472
-0.00103929
0.000355416
-0.000137602
-1.03905e-05
-0.00026636
0.000273739
3.01209e-06
-7.85056e-05
0.000321763
-0.000368919
0.000125662
0.000106212
-0.000152618
0.000105098
-5.86925e-05
-0.00131371
0.00115285
-0.000242159
0.000403019
0.000372242
-0.000318481
-0.000127799
7.40375e-05
1.21739e-05
0.000801496
-0.000796271
-1.73993e-05
-0.000326783
1.90624e-05
0.000131706
-0.000522806
0.000500675
-0.000109576
0.000190535
-0.000668368
0.000659686
-0.000181853
-0.00010564
-0.000743055
0.000848695
0.000118677
-5.17635e-05
0.000110647
-0.00017756
1.27431e-06
-4.94114e-06
-2.81578e-07
3.94841e-06
-5.56174e-05
5.52241e-05
-1.65777e-06
2.05108e-06
-4.01136e-05
-1.47806e-05
1.34526e-05
2.37185e-05
-0.000160404
0.000171835
-0.000115896
-1.29688e-05
8.3108e-05
4.57566e-05
-0.00021545
2.48637e-05
0.000138567
5.20196e-05
-2.57329e-05
3.67355e-07
0.000344987
-0.000319621
0.00107065
-0.00110464
-3.42684e-05
6.82648e-05
-0.000258416
4.0211e-05
0.00029302
-1.14839e-05
-0.000281536
2.97937e-05
-0.00017815
1.42123e-05
0.000134144
1.30286e-05
3.07081e-05
-1.54315e-06
-4.21936e-05
1.33692e-05
-6.22623e-05
0.000182017
1.65941e-05
-2.20614e-06
-9.94415e-05
-7.52194e-05
4.4019e-05
-0.000270787
3.0056e-05
-1.5549e-05
-0.000164692
0.000680919
4.84941e-05
-6.86187e-05
0.00056542
2.95852e-05
-4.23975e-05
-0.000532335
1.3182e-05
-2.05872e-05
-0.000604124
-4.95533e-05
-3.27158e-05
-0.000348384
-0.000181846
0.000208496
-0.000956884
-0.000168536
0.000274688
9.71649e-05
4.76683e-05
-2.97862e-05
-9.02503e-05
-0.00117787
0.00119015
-3.10988e-05
3.37745e-05
-9.2972e-05
-0.000113094
-5.54402e-05
-4.20207e-05
0.000738779
-0.000216016
-0.000617076
0.000648169
-0.000172353
-0.000553678
2.87847e-05
9.05836e-06
-0.000213334
0.000175491
-4.79321e-05
0.000800527
4.79014e-05
6.39412e-05
-6.5542e-05
-3.98525e-05
4.14533e-05
1.07478e-05
6.93194e-07
-7.60561e-05
6.46151e-05
4.02913e-05
-3.11362e-05
3.15928e-06
3.77153e-05
4.4223e-05
-0.000433433
-7.34111e-05
-2.00548e-05
5.38422e-05
3.96238e-05
0.000312131
1.21046e-07
1.40264e-05
-0.000326278
-0.00031141
-7.18011e-05
5.64281e-05
-0.00042059
0.000315449
0.000366633
0.000147794
0.000100402
-0.000128349
-1.03557e-05
-4.3991e-05
3.48924e-05
1.47704e-05
1.9967e-05
-3.32608e-05
-1.47664e-06
-0.000380169
3.08348e-05
0.000340269
9.06608e-06
0.000290608
0.000342196
-0.000555338
-7.74665e-05
0.000232429
-0.000639934
-0.00035438
0.000472806
0.000371985
-0.000693278
-0.000151513
9.82499e-05
-8.92014e-05
4.5448e-05
-5.44965e-05
0.000112773
0.000158131
-0.000992871
3.22858e-05
-1.26357e-05
-2.55417e-05
0.000121033
1.76869e-05
-0.000108664
4.31906e-05
1.58572e-05
-4.24537e-05
0.000897448
-2.30301e-05
-0.000764697
-0.000109721
0.000320374
5.87645e-05
-8.26775e-05
-0.000213408
-2.22635e-05
0.000128161
-0.000100716
0.00109468
0.000153736
-2.331e-05
0.000249142
4.15582e-05
-0.000380301
0.000306576
0.00049141
-0.000417685
0.000267047
-0.000229611
0.0004288
-0.000466237
7.51074e-05
-0.00025601
-6.66142e-05
0.000247517
-0.000205901
0.000171358
4.9695e-05
-1.51526e-05
-0.000243599
4.75826e-05
4.26305e-05
0.000153386
-0.00108977
0.00108342
8.87138e-05
-0.00067538
0.00044188
-0.000701526
0.000577955
-0.000419422
-0.000209185
0.000208017
0.000105611
-3.59191e-05
0.00085881
-0.00102614
-0.000262144
0.000429475
-0.000223414
-0.000986445
0.0011871
2.27581e-05
-0.00104733
0.00106527
-0.000108184
-0.000483541
0.000428045
0.000353296
-0.000297801
-0.000272798
0.000277047
4.69673e-06
-8.94586e-06
-0.000124125
-4.43413e-05
3.04771e-05
-0.000782383
0.000852069
-0.000444849
0.000144998
-1.00788e-05
8.52654e-06
0.000106989
5.14862e-06
-0.000120665
-0.000240338
0.000214638
-1.39039e-05
2.75739e-05
8.34949e-05
-0.000909946
0.000871486