/*--------------------------------*- C++ -*----------------------------------*\
| =========                 |                                                 |
| \\      /  F ield         | OpenFOAM: The Open Source CFD Toolbox           |
|  \\    /   O peration     | Version:  v1912                                 |
|   \\  /    A nd           | Website:  www.openfoam.com                      |
|    \\/     M anipulation  |                                                 |
\*---------------------------------------------------------------------------*/
FoamFile
{
    version     2.0;
    format      ascii;
    class       volScalarField;
    location    "0.39";
    object      epsilon;
}
// * * * * * * * * * * * * * * * * * * * * * * * * * * * * * * * * * * * * * //

dimensions      [0 2 -3 0 0 0 0];


internalField   nonuniform List<scalar> 
1466
(
1.70892
1.76392
0.773678
1.85857
16.0592
5.98604
0.916714
19.6759
3.59734
7.5629
0.210736
3.28506
0.269141
0.948792
0.814863
1.78404
0.865912
2.81609
7.54048
0.747661
1.00549
2.24055
7.23349
1.58013
0.956623
0.554762
0.979892
3.67332
2.38469
18.2466
15.5085
8.13923
2.96701
14.585
2.03398
0.760007
0.476891
1.49164
5.13982
2.89636
3.83087
1.71684
3.65012
13.6549
3.62682
5.8614
0.886848
3.20286
1.2548
1.03167
0.375534
9.75938
17.1147
6.96088
3.63852
3.47676
1.45654
0.4382
0.267505
3.3852
1.56478
15.3814
19.4668
8.14591
1.88106
0.947933
3.13223
0.967347
1.97023
2.40737
0.242962
1.73748
1.78103
1.32489
0.420122
8.47833
1.48012
1.8938
2.04344
3.47089
0.53369
1.22526
0.797423
0.934846
1.41419
0.910488
1.17706
1.25265
0.750802
2.11084
1.36481
0.943398
3.08609
2.10711
0.316046
0.959922
1.55057
0.993419
2.23485
1.3225
1.17869
3.47592
0.888466
1.10331
0.809251
4.91607
0.90376
0.78818
2.06229
1.01387
0.0882198
0.595384
2.48088
1.39369
0.304572
5.78514
0.917543
0.861648
2.20258
0.316669
0.806821
1.78215
0.535551
0.967066
0.699664
0.734326
0.766704
0.96034
2.49316
2.09564
0.327139
1.656
1.01774
2.72747
0.357486
3.4539
2.21008
0.768041
3.99961
2.23873
7.77861
0.953132
1.63215
2.20001
3.90877
1.16851
0.644661
0.8549
2.83306
1.66478
1.65777
1.30493
2.03883
1.39855
1.14237
0.188722
1.802
3.94741
0.316866
0.87097
3.52156
1.11175
1.96862
0.894993
3.41216
3.3179
2.8038
4.15545
0.831981
1.44243
0.888547
0.802163
1.00275
2.83994
0.976837
1.38763
3.30204
3.06568
0.849478
3.15848
1.74365
0.786176
0.44959
0.745942
1.21666
0.873004
0.836821
7.62122
0.797872
1.21366
1.63635
1.54392
0.983994
1.87217
0.783004
1.71694
3.93786
1.09207
0.858295
0.866806
2.39314
0.325434
0.789315
0.837387
1.49935
1.9793
0.811945
7.82912
0.746225
2.29629
1.63295
2.34543
0.4565
0.927583
2.23992
0.831618
0.22729
0.34571
0.808872
1.42763
1.63053
1.95927
0.876984
0.885866
2.89675
0.821421
0.843548
1.55536
0.579082
3.42983
0.688074
0.993693
0.871469
0.101359
0.804306
1.53739
0.137907
18.4467
0.187876
1.1281
3.49075
0.231255
0.856576
2.74171
3.02384
0.679841
0.246851
0.910292
0.471674
0.762363
1.08808
1.31454
1.36269
0.797899
0.749485
1.40606
0.833848
2.46531
8.26339
8.09223
0.824107
1.09975
1.96678
0.898953
5.74752
1.35178
4.24304
2.60571
0.33961
1.54396
2.16126
1.71476
0.52125
0.84001
1.26182
0.445772
0.605474
0.747932
0.877261
2.56658
1.31083
0.581995
0.832633
0.72053
0.499777
0.33361
0.493606
0.714688
1.24023
1.69164
0.778834
4.92286
0.477061
6.86142
1.06332
0.461491
5.89939
4.91888
0.486205
0.779852
0.454878
2.61012
0.981994
0.529722
1.39703
0.553285
0.685965
0.227129
1.04364
10.0108
3.55774
0.303672
0.283726
3.53659
0.769031
0.323598
2.42099
0.453821
5.58601
1.1549
0.80492
3.30372
0.424616
1.07748
0.662552
0.843376
0.308481
0.9855
0.15283
0.794698
1.56286
1.0086
0.210074
1.51849
1.01764
1.0915
0.129863
0.563049
4.13894
0.461904
1.49809
0.781514
0.585638
0.404438
0.794503
0.114246
2.48325
0.668713
0.371875
2.47173
1.88188
0.670275
2.6425
0.201305
0.172818
0.293759
2.32244
1.20715
8.50535
0.526758
0.838687
3.38387
3.18179
1.70214
3.50539
0.8384
0.38256
0.154764
0.67835
1.84129
0.178718
0.438755
3.03199
1.07638
1.57613
1.33317
0.73913
6.18794
1.08047
0.480241
0.526344
3.50669
0.688992
0.35035
3.4742
0.511344
0.668035
0.322989
0.21682
0.242765
0.31504
1.90393
3.00364
4.81047
1.63281
0.774664
2.84036
0.196492
0.860513
0.0876697
2.95768
0.135756
3.00353
0.527568
6.55131
0.454165
1.94471
7.41647
0.478849
1.10533
0.457154
3.71155
0.763893
3.19978
5.02227
1.0251
1.45567
0.516591
0.300631
0.637867
0.391504
0.251186
2.0631
2.3349
1.9878
1.941
2.6721
2.47738
1.62709
1.53838
2.90574
0.505238
1.29183
6.50028
7.38783
7.71844
5.91388
13.6912
2.03025
2.60316
3.32509
0.236651
3.87759
0.484271
2.76705
5.42067
1.8548
2.15083
5.18441
0.443244
4.92547
5.10216
0.434119
0.554626
6.0506
1.18346
2.67641
4.34849
1.14379
0.372512
5.35781
1.0284
0.666906
0.325397
4.01487
1.81176
7.47368
0.555374
2.96761
0.905875
6.49351
1.01479
0.300466
0.686351
9.74005
14.036
0.528966
0.433511
9.93169
5.877
2.62155
0.493587
7.34097
0.406671
12.9153
1.63559
0.430965
0.466917
13.1937
6.24601
10.7091
0.88672
0.496444
0.408607
6.27299
7.79078
9.62794
5.44632
3.14477
3.91086
0.717851
0.482906
5.07667
3.6925
0.34035
2.42891
8.81914
0.614314
1.19711
1.43511
2.10866
8.00343
2.51398
0.358679
0.439723
2.54367
0.552532
0.485083
0.411228
0.34839
0.482856
5.04747
3.32304
3.96679
4.50474
0.269481
3.96706
2.58662
0.316397
0.317069
0.48429
2.95303
0.710653
0.835755
0.365238
4.05467
3.04542
5.87782
0.999664
0.323796
4.90529
6.40839
2.10773
6.10107
1.53576
0.529683
0.38337
4.11129
5.94048
0.564764
0.513872
0.974703
6.80377
2.04584
3.0226
3.07514
2.66604
0.539033
1.05702
1.87109
0.575065
0.338507
2.82942
3.65916
8.14235
2.81349
0.797919
1.66723
1.60916
3.91904
1.44541
0.812826
1.81981
3.43396
0.273346
1.4563
5.03878
0.248896
2.31888
1.92508
0.307493
2.1973
1.6537
2.68236
0.935968
6.2562
5.32804
0.529892
4.36964
2.64462
0.411375
1.03192
5.94984
0.562112
0.423132
0.524863
2.96089
1.63508
5.05627
2.60946
4.78779
0.534347
0.531905
0.249507
0.222127
2.3605
1.19902
0.366477
4.92003
3.82243
2.4736
6.3403
2.85673
6.9284
0.644449
0.171448
4.37394
1.001
0.714719
0.60508
0.508019
0.788575
7.18451
1.47596
0.500903
0.787335
0.112767
1.74151
0.845035
7.03371
1.79573
3.77646
0.38596
3.03054
2.91885
2.29873
2.90332
6.67721
0.420827
0.518196
0.882711
3.2221
1.37858
2.47721
0.128574
3.13305
0.253504
1.76336
4.29654
0.89975
1.94943
5.57074
1.96543
4.50217
0.458888
2.75773
3.33152
2.49381
0.865868
0.281487
1.8514
5.95467
3.13918
5.47789
3.16744
6.95426
1.45222
0.294404
6.07255
0.955738
0.803387
0.608822
0.0885264
0.212808
0.402079
1.0432
3.61745
6.44538
0.470198
0.277046
0.584539
0.469742
0.416558
0.31268
0.574002
0.212093
7.68505
0.30074
0.255243
1.87025
1.0487
0.743071
2.52032
0.286884
5.34487
0.753188
3.18058
0.437047
0.492932
1.50921
2.40731
0.340646
2.39517
4.70824
1.06112
2.07796
1.66137
6.85634
2.26817
0.492688
0.497606
0.410963
3.82328
0.560448
0.535275
2.07415
3.12948
3.78201
0.717298
0.664233
2.08142
0.843359
0.531054
2.33976
4.47504
0.731549
1.86163
1.35382
1.83335
3.79367
2.18628
1.97397
0.33542
0.0855577
0.0787732
4.03922
0.102202
0.0780397
1.05946
5.28481
2.38832
0.14567
0.0926519
0.892021
3.36201
0.500014
2.94512
0.554274
0.509852
3.34843
0.19508
4.47195
0.411755
0.856807
2.43311
2.14488
8.83013
3.1247
0.28696
0.720286
1.98777
1.15886
0.624189
0.599259
0.624729
3.03035
1.72737
3.07278
0.199806
0.222829
2.18307
5.69035
6.49751
0.442326
1.23489
0.298158
1.34319
3.42102
1.72591
4.2074
6.63249
3.38551
0.619836
2.36663
1.47576
0.546763
0.501597
0.960186
0.266385
1.21623
1.03726
0.511685
0.683264
0.812858
0.832956
3.55757
6.14931
0.463118
2.04921
0.825783
2.70029
2.3096
0.531616
0.253844
0.326117
0.21083
1.78252
1.09704
0.469796
2.16705
7.02988
0.265705
0.717918
1.545
0.82081
4.60943
1.96914
0.29702
1.05975
3.41783
8.80531
0.454042
1.00667
1.28182
2.42527
2.60643
1.58775
0.63579
0.470232
0.700822
0.651351
0.684071
0.444457
0.166214
0.579886
0.729744
2.91777
0.762842
0.838305
2.36085
0.213091
0.416453
5.25723
2.18579
0.117359
0.885098
3.47396
3.39881
1.15367
1.01983
4.10304
0.342801
2.60657
3.061
0.556846
0.369921
0.556157
0.967061
0.271839
1.10995
3.62585
0.135524
5.22578
1.36057
0.575393
0.695386
1.96586
0.645891
1.88824
0.431675
0.515549
0.958899
1.2213
12.3585
0.207297
0.7938
0.988118
0.9796
6.01196
0.611783
1.03859
0.261581
0.1941
0.522028
1.78921
0.204553
1.26872
2.89067
0.940298
14.0686
0.272251
0.844053
0.493648
2.21665
0.543236
5.62471
0.157875
0.309994
1.0458
3.66937
2.17651
0.417341
0.304208
0.396456
1.77802
0.64543
0.88684
1.04966
3.00651
0.563039
1.67872
0.19885
2.23244
3.22893
0.366476
0.688104
4.38072
0.889032
1.5441
1.64797
0.713862
0.761759
2.12373
3.19247
3.26894
0.79807
0.938655
0.392413
0.358209
1.34196
0.848807
0.815922
0.456841
1.10845
0.281173
4.2396
0.90481
1.59329
0.716592
0.432729
0.401247
0.51846
0.422388
3.30193
3.61527
3.19015
3.32933
0.53342
3.50224
3.42325
0.60644
0.648783
0.658683
2.20005
0.692179
0.711321
5.06759
0.30858
3.06807
1.3309
3.25326
6.78199
0.57114
1.72584
1.89294
0.221566
2.29091
1.99821
0.502021
0.778938
3.12875
2.30488
1.04023
0.475633
0.492972
3.06484
0.568217
0.734183
3.12274
1.28256
2.15376
3.46117
6.2938
3.79958
0.949809
0.312788
5.50728
1.60684
0.538838
0.365025
1.5771
3.87519
3.11495
3.07387
1.64885
0.370301
1.69692
4.79664
2.08862
5.15026
3.09764
3.06248
2.08136
0.878469
2.82786
1.10635
1.05344
7.03456
1.55908
3.06304
0.813374
2.58472
1.62834
0.840692
0.127516
3.96333
0.545462
0.786047
0.0900617
3.03165
1.00898
2.1071
12.9068
5.17071
9.69151
3.62451
1.59773
1.50764
11.7272
5.24419
0.9375
0.306577
4.50634
6.62379
1.22215
2.26903
5.31756
0.177634
0.230844
4.14876
5.43073
0.155307
0.615176
2.69459
0.90952
2.22002
1.8668
0.281825
1.79266
0.516401
0.897702
0.694413
0.169884
3.32856
0.528025
0.606729
7.62684
0.313127
0.26869
2.3818
5.99031
1.74351
0.454893
0.621188
0.482185
1.7618
1.37206
6.32288
3.97223
3.25644
0.0943802
6.74624
0.507578
1.2049
8.75606
0.453119
3.70374
21.7046
0.482971
2.13045
2.99249
2.91404
6.24644
1.22622
0.626889
4.04566
6.79682
4.33387
0.200113
0.634971
0.455469
2.88074
0.568281
3.78755
4.35943
1.2175
1.18474
0.271656
3.54843
0.719601
1.2744
7.13582
0.708346
2.16275
0.407036
0.284513
0.513735
5.64846
4.13379
2.92712
0.514802
2.01562
0.522279
1.84935
1.68581
1.45653
1.11663
2.4325
0.519396
4.25082
0.921011
0.337123
0.702703
0.445354
1.98261
0.280153
2.49101
0.312877
6.20187
2.08081
0.134767
2.28175
0.377425
1.21598
0.178265
2.38941
0.77333
1.1673
6.11334
0.179956
2.78291
0.541921
0.341292
0.729026
0.683202
12.7501
0.388175
1.56222
1.49626
0.626501
1.65605
1.22007
1.58882
1.52496
3.48063
0.410228
4.02488
0.236557
2.36096
0.540258
0.220304
1.90477
3.88962
6.39416
0.976828
0.938027
3.51738
1.67636
0.484284
0.36389
1.3358
0.603189
3.90883
0.506951
2.25459
15.418
6.27239
1.90417
1.42374
0.328532
0.753032
3.29918
1.74253
1.36077
3.62572
0.437376
0.449373
1.62758
2.15542
1.52238
0.522593
0.412137
1.38679
1.22289
0.515688
7.87507
2.56886
1.48411
0.372649
2.41657
0.259471
0.175956
6.50634
0.526048
0.783319
0.714117
1.70019
3.82002
0.129288
5.33626
0.224314
0.485108
0.213512
1.6114
4.42863
0.990372
2.04661
1.00663
2.49354
4.75258
3.48664
0.93829
1.497
0.357601
0.129429
2.01687
1.20603
5.80994
2.43655
1.87183
0.658939
2.58909
0.452748
1.38482
0.798518
0.808482
0.584786
10.9429
1.42256
1.18477
2.68789
1.2054
3.88323
4.03512
1.66797
5.69289
0.462072
0.651191
0.478362
0.35384
4.04568
5.84309
0.331869
6.26665
0.521522
1.76744
0.405093
2.42299
0.715117
0.152395
2.54485
0.0813
0.723468
2.64705
2.3546
1.63786
0.622469
2.63578
4.44878
0.817715
0.609098
1.95616
6.00182
0.352073
7.04
3.02616
3.69146
0.137037
1.10612
1.4635
0.396207
5.35993
2.8869
6.03363
0.666543
0.854358
2.53819
2.5893
1.64636
0.514427
4.08949
8.62456
3.07375
1.02087
4.39356
3.90962
1.95463
0.263509
1.56827
2.84842
2.07899
5.99926
0.28759
2.72153
0.134438
2.3397
0.522093
4.24285
0.137877
0.385042
2.93351
1.95002
2.27777
1.83994
0.211641
1.14535
0.971691
2.25748
0.285597
4.13042
0.241487
2.26851
2.64116
1.15998
3.68839
0.585077
0.404651
1.08121
0.239056
2.97627
1.97606
3.94854
0.637911
2.51158
2.30505
0.25698
0.245693
0.654197
0.92254
1.44252
1.72496
0.44125
1.60543
0.571335
1.13934
2.19275
0.165618
0.360184
0.676079
0.86672
0.757974
1.28627
1.80569
0.611332
1.0165
1.62389
0.597781
2.8782
0.23752
0.841408
0.635019
2.17515
0.803923
1.00416
0.752405
1.56936
0.35757
0.908563
7.05876
0.29478
0.459008
2.4407
0.529674
2.4097
1.69973
0.713203
3.35605
0.831691
0.62117
0.779422
1.71648
0.940707
2.21327
0.582863
2.0639
1.78368
0.916416
3.82347
0.298587
3.00065
1.63184
1.63902
1.05124
1.74408
0.641352
0.475459
0.638728
0.645643
2.6798
0.204401
5.29357
3.99772
3.9617
0.574407
2.17204
2.68195
0.147374
3.06635
1.26381
1.56891
1.79791
0.719611
2.16472
0.716284
1.75143
1.38522
0.472446
3.43624
6.61712
2.47764
9.27298
0.666293
0.69086
0.683847
2.0053
2.48991
2.58934
1.69798
0.453047
0.650212
1.69211
1.64343
0.559868
1.18897
2.16545
1.63467
1.11588
1.11487
0.573523
0.888826
1.55739
3.68989
1.28386
2.54858
2.63969
0.789688
2.13965
4.06664
1.6899
0.309508
2.6882
0.214505
0.674073
3.95508
3.94142
0.767136
2.09675
3.67441
0.857322
9.33299
11.1285
8.39871
3.04268
1.53011
4.21226
4.83407
)
;

boundaryField
{
    frontAndBack
    {
        type            empty;
    }
    wallOuter
    {
        lowReCorrection 0;
        type            epsilonWallFunction;
        value           nonuniform List<scalar> 
102
(
0.269141
0.269141
7.23349
0.420122
0.304572
1.04364
1.63281
0.416558
0.0855577
0.0787732
0.102202
0.0780397
0.14567
0.0926519
0.892021
3.36201
2.94512
4.47195
1.98777
3.07278
0.442326
0.619836
2.36663
0.825783
2.70029
2.42527
2.60643
0.556846
1.10995
3.22893
0.688104
0.432729
0.401247
0.51846
0.422388
3.30193
3.61527
3.19015
3.32933
0.53342
3.50224
3.42325
0.60644
0.648783
0.658683
0.692179
0.711321
1.3309
3.25326
3.12875
1.04023
3.06484
3.12274
3.11495
3.07387
1.69692
3.09764
3.06248
2.58472
1.62834
6.62379
0.177634
0.155307
0.281825
0.528025
0.621188
6.74624
2.91404
6.24644
1.2175
1.2744
7.13582
0.513735
5.64846
2.92712
1.45653
0.921011
1.98261
6.20187
1.1673
2.78291
0.388175
3.48063
4.02488
6.39416
1.3358
2.25459
3.62572
1.22289
1.20603
4.44878
0.817715
0.263509
0.28759
0.137877
1.83994
0.25698
1.60543
2.19275
0.29478
1.69973
3.35605
)
;
    }
    inlet
    {
        type            fixedValue;
        value           nonuniform 0();
    }
    outlet
    {
        type            zeroGradient;
    }
    wallInner
    {
        lowReCorrection 0;
        type            epsilonWallFunction;
        value           nonuniform List<scalar> 
138
(
0.210736
0.865912
2.38469
18.2466
9.75938
17.1147
6.96088
3.63852
15.3814
0.943398
1.17869
1.10331
0.535551
7.77861
0.953132
1.16851
0.644661
4.15545
1.21366
1.63635
1.54392
0.34571
0.856576
0.679841
0.246851
0.910292
0.471674
0.762363
5.74752
0.581995
0.832633
0.714688
1.07748
0.662552
0.843376
0.308481
0.9855
0.15283
0.794698
1.56286
1.0086
0.210074
1.51849
1.01764
1.0915
0.129863
0.563049
4.13894
0.461904
1.49809
0.781514
0.585638
0.404438
0.794503
0.114246
2.48325
0.668713
1.20715
1.70214
3.50539
0.8384
0.38256
0.154764
0.67835
1.84129
0.178718
0.438755
3.03199
1.07638
1.57613
1.33317
0.73913
0.480241
0.0876697
2.95768
0.763893
3.19978
0.251186
7.38783
3.32509
1.14379
1.81176
0.905875
0.528966
0.433511
6.27299
3.14477
3.91086
5.07667
3.96679
4.50474
0.316397
0.38337
5.03878
0.411375
1.03192
7.18451
3.03054
5.47789
0.402079
1.0432
0.255243
0.410963
1.05946
2.38832
6.49751
1.21623
0.21083
0.265705
0.29702
0.166214
2.36085
0.213091
0.967061
0.958899
0.64543
0.281173
0.30858
0.221566
3.06304
12.9068
5.17071
1.22215
2.13045
4.35943
0.337123
0.626501
1.22007
3.51738
0.753032
4.75258
3.06635
9.33299
11.1285
3.04268
1.53011
4.21226
4.83407
)
;
    }
    procBoundary2to0
    {
        type            processor;
        value           nonuniform List<scalar> 
42
(
9.30955
9.30955
2.08215
2.10943
2.448
10.9968
1.45101
1.45101
2.83
3.2338
3.42465
3.42465
2.48837
4.40744
5.39661
10.0202
5.22703
2.90281
3.1838
13.7
14.4635
2.09435
2.09435
19.2622
14.4635
1.10607
14.726
0.521933
14.726
8.3237
5.80861
0.375217
0.395635
0.477142
0.569828
2.10943
5.22703
2.79823
11.2987
0.696695
0.696695
0.589805
)
;
    }
    procBoundary2to1
    {
        type            processor;
        value           uniform 11.718;
    }
    procBoundary2to3
    {
        type            processor;
        value           nonuniform List<scalar> 
29
(
21.3111
14.4426
4.46794
3.16497
8.76426
21.167
11.259
14.7392
3.00707
3.0136
17.7455
8.35058
21.0884
9.85523
4.03997
9.08563
2.9204
2.9204
14.4426
9.85523
6.12921
3.23994
5.96505
2.89662
3.6262
3.75024
3.00707
10.6433
8.35058
)
;
    }
}


// ************************************************************************* //
