/*--------------------------------*- C++ -*----------------------------------*\
| =========                 |                                                 |
| \\      /  F ield         | OpenFOAM: The Open Source CFD Toolbox           |
|  \\    /   O peration     | Version:  v1912                                 |
|   \\  /    A nd           | Website:  www.openfoam.com                      |
|    \\/     M anipulation  |                                                 |
\*---------------------------------------------------------------------------*/
FoamFile
{
    version     2.0;
    format      ascii;
    class       volScalarField;
    location    "0.39";
    object      nut;
}
// * * * * * * * * * * * * * * * * * * * * * * * * * * * * * * * * * * * * * //

dimensions      [0 2 -1 0 0 0 0];


internalField   nonuniform List<scalar> 
1466
(
0.00068818
0.0007626
0.000777695
0.000861547
0.00148527
0.00115708
0.000750695
0.00311595
0.00229324
0.00134756
0.000202193
0.00121415
0.000147666
0.000556042
0.000895136
0.000736796
0.000188585
0.00121746
0.00120322
0.000514801
0.0012502
0.0017633
0.00048797
0.000761739
0.000614761
0.000719315
0.00116808
0.00273293
0.00050949
0.00103858
0.00201458
0.00243299
0.0018699
0.00248111
0.00130461
0.000929781
0.000591907
0.000582159
0.00241215
0.00171679
0.00144313
0.00243076
0.00191512
0.00255393
0.00224037
0.00167497
0.00068289
0.000736077
0.00216789
0.00118506
0.000718882
0.000841478
0.00094346
0.000635035
0.000600088
0.00324786
0.000514322
0.00102567
0.000764491
0.00344201
0.000617082
0.00104348
0.00180108
0.0016363
0.00113589
0.000645804
0.00270454
0.00129375
0.000721964
0.00152328
0.000452435
0.000864434
0.000528489
0.00076828
0.000168349
0.00293822
0.000772071
0.000919577
0.000853922
0.0034595
0.000423556
0.00062227
0.000969379
0.00191042
0.000628185
0.00102741
0.000645584
0.00110755
0.000644024
0.00118484
0.00078087
0.000345473
0.0034897
0.000830788
0.000735086
0.00113407
0.000861332
0.00152374
0.00105714
0.000745976
0.000483615
0.00256217
0.00090315
0.000359777
0.000835797
0.00167012
0.00130336
0.000966997
0.00112946
0.000754941
0.000383338
0.000544052
0.00163181
0.00060722
0.000171104
0.00176207
0.000315247
0.000440953
0.00115446
0.00113462
0.00110582
0.000932696
0.000287336
0.000935266
0.000649176
0.00175141
0.000929263
0.000441564
0.00324336
0.00298569
0.00119489
0.000776978
0.000978888
0.00191143
0.000691892
0.00345231
0.00264867
0.000647299
0.00255772
0.000418646
0.000848317
0.000334683
0.00272194
0.00312598
0.0024362
0.00031797
0.000272389
0.000667748
0.00159257
0.000573533
0.00268593
0.00111215
0.00121749
0.000966868
0.00074343
0.000629617
0.000859306
0.00226474
0.000885232
0.000748476
0.00250171
0.000683952
0.00112374
0.00113092
0.00276252
0.00342513
0.00344417
0.000437838
0.000605961
0.00148005
0.00105782
0.000967489
0.000968356
0.00160506
0.00100303
0.000984284
0.00296163
0.00341806
0.000865605
0.00348625
0.000986826
0.000971794
0.0013753
0.000631421
0.00100035
0.000474054
0.00111106
0.00249123
0.00102835
0.000311043
0.000278357
0.000278586
0.00066515
0.00114382
0.000842824
0.000845201
0.0026212
0.000872179
0.000726901
0.00063351
0.00220551
0.000765518
0.000919689
0.000609296
0.0011001
0.00271275
0.00106774
0.00187578
0.000831172
0.00103902
0.00109669
0.00209543
0.000878328
0.000660877
0.00110937
0.00109648
0.000767406
0.000216816
0.000500014
0.000842719
0.00164807
0.00112541
0.000629769
0.000692148
0.00157994
0.000739406
0.000561568
0.000850037
0.000814479
0.00337968
0.000669729
0.00109729
0.000634474
0.000586316
0.000937912
0.00104476
0.000698674
0.00197706
0.000846706
0.000739265
0.00290713
0.000980786
0.000357887
0.00277502
0.00304796
0.000278554
0.000262881
0.000320416
0.000242696
0.000291657
0.000649536
0.00227114
0.00230443
0.00094401
0.000636011
0.00238949
0.000681214
0.00319351
0.00292622
0.00242366
0.000679177
0.000644985
0.00258069
0.000821656
0.000659503
0.000938371
0.00177508
0.0020577
0.000635043
0.000848611
0.00254807
0.000939709
0.000640959
0.000673711
0.000636597
0.00115198
0.000712999
0.000659519
0.000571396
0.00296293
0.000939035
0.000262909
0.00030558
0.000708532
0.000739448
0.000534027
0.00134411
0.000397257
0.00163062
0.000491786
0.000763431
0.00121057
0.00144631
0.00205178
0.00205836
0.00108141
0.00217259
0.00231973
0.00109888
0.000431461
0.000538182
0.00222685
0.00076909
0.00156751
0.00103466
0.00092909
0.000737133
0.00102263
0.000222887
0.00402296
0.00365317
0.00072561
0.000746513
0.00111736
0.00175374
0.000600894
0.00197952
0.000544783
0.00285126
0.000962611
0.000811605
0.00306773
0.00136905
0.000294926
0.000255423
0.000317633
0.000236514
0.000360274
0.000201446
0.000383696
0.000334775
0.000291519
0.000222195
0.000458657
0.000283475
0.000288932
0.000121501
0.000386539
0.000363379
0.000298078
0.000453898
0.000368088
0.000266708
0.00024427
0.000398554
0.000198265
0.000456534
0.000293696
0.000493963
0.00268146
0.00270043
0.000684409
0.0031049
0.00088368
0.000891959
0.000668325
0.00203331
0.000340992
0.00397549
0.00123697
0.00121073
0.00313055
0.00303715
0.000492648
0.000412781
0.000427014
0.000242796
0.000205361
0.000378607
0.000529598
0.000217395
0.000255301
0.000479896
0.000284686
0.000326876
0.000304158
0.000289978
0.00362574
0.00068878
0.000247121
0.000598591
0.00110762
0.0019018
0.000750963
0.00103959
0.00132287
0.000814688
0.000651543
0.000691875
0.000560066
0.00099887
0.00265829
0.00162984
0.00297288
0.000253229
0.000756948
0.00239712
0.000389102
0.000753457
0.000123386
0.000388079
0.000665695
0.00181285
0.000670001
0.00235503
0.000834476
0.00305411
0.00336719
0.00107675
0.000920439
0.000699871
0.00127466
0.000264113
0.000409581
0.00390594
0.00219727
0.00275451
0.00144426
0.000991227
0.00167173
0.00147738
0.000249554
0.00191576
0.00154098
0.00178923
0.00186287
0.00160114
0.00179157
0.00150225
0.00146261
0.0018227
0.000676426
0.00261176
0.00344641
0.000722141
0.00411014
0.00439474
0.00260497
0.00184048
0.0024607
0.000448473
0.000586815
0.00219256
0.000867077
0.00221108
0.00446962
0.00273699
0.00318281
0.00311858
0.0012378
0.00290866
0.00435503
0.000623276
0.00181504
0.00444944
0.00123539
0.00349534
0.00420866
0.000278332
0.00102579
0.00429127
0.00238094
0.00198154
0.00127088
0.00253036
0.000369492
0.00423076
0.000697543
0.00164205
0.00027994
0.00380933
0.00125452
0.00103612
0.000899315
0.00331538
0.00207763
0.000224916
0.000228002
0.00152667
0.0024785
0.00145307
0.000714291
0.00280693
0.00103021
0.00198572
0.00107753
0.00106153
0.000597889
0.00403022
0.00304544
0.00189762
0.000765224
0.00120026
0.000548538
0.000664544
0.00152143
0.0035921
0.00413973
0.000440052
0.000479284
0.000843747
0.00116596
0.000504788
0.0010697
0.000528623
0.00258162
0.00341118
0.00105107
0.00172341
0.00153218
0.00269044
0.00167307
0.00250808
0.000873004
0.000525686
0.0022248
0.000736389
0.00122851
0.00157335
0.00136793
0.00169369
0.00359743
0.0025785
0.000589108
0.000506403
0.000580039
0.00271663
0.00220223
0.000269519
0.000584022
0.000903134
0.00303925
0.00121151
0.00141628
0.000728385
0.00342271
0.0020469
0.0038992
0.00110979
0.00049092
0.00370894
0.00442147
0.0029794
0.00428434
0.00167508
0.000587037
0.00024271
0.0024503
0.00418153
0.00086997
0.00118313
0.000777161
0.00434694
0.00308399
0.00337473
0.003639
0.00184105
0.000647137
0.00242353
0.00243565
0.000847388
0.000733171
0.00342385
0.00172215
0.00301563
0.00327532
0.000850016
0.00105767
0.00182411
0.00216113
0.00061209
0.00118103
0.00205229
0.00211635
0.000580527
0.00196702
0.000736029
0.000503678
0.00221433
0.00224712
0.00101993
0.00103541
0.00280368
0.00253697
0.000685526
0.00339143
0.00158729
0.00110598
0.00263042
0.00298921
0.000239753
0.000319507
0.00272723
0.000912767
0.000807079
0.00119477
0.00244263
0.0026167
0.00329229
0.00305194
0.00286787
0.000895158
0.00114154
0.000855886
0.000478881
0.00241226
0.0025121
0.000728165
0.0039691
0.00169247
0.00318698
0.000957331
0.00313581
0.00297271
0.000711312
0.000486176
0.00288589
0.000607028
0.000993797
0.00081625
0.000977249
0.000944077
0.000574036
0.00242149
0.000968559
0.00161212
0.00059818
0.00114635
0.00110687
0.00403587
0.00250943
0.00157902
0.000959704
0.000423005
0.00236881
0.00304346
0.00234781
0.00434059
0.000869485
0.00109305
0.00121684
0.00299053
0.000543398
0.0022494
0.000645532
0.0023313
0.000904674
0.00227093
0.00118476
0.00127406
0.00108644
0.00327868
0.00279853
0.00410805
0.00128032
0.00241197
0.00247446
0.00238547
0.001258
0.000861125
0.000780995
0.0039708
0.00202189
0.000752105
0.00289345
0.00429539
0.00231964
0.000739755
0.00362942
0.00192212
0.00117208
0.000753413
0.00030823
0.000789501
0.000226378
0.000304476
0.00255138
0.00413299
0.000862837
0.000705177
0.000865645
0.000915885
0.000201662
0.000934664
0.00146936
0.000705244
0.00179333
0.000753381
0.00021647
0.00128402
0.000703349
0.00103869
0.0020197
0.000901362
0.0027615
0.000762951
0.00324613
0.000703168
0.00142231
0.00269049
0.00247356
0.000902486
0.00303377
0.00384281
0.00215787
0.00119856
0.00287199
0.00384634
0.00233572
0.000875087
0.000987628
0.0002395
0.00218172
0.000859182
0.00107
0.000808842
0.00334146
0.00207124
0.00089043
0.00102803
0.00291007
0.00218683
0.00120879
0.00320828
0.00333819
0.000778046
0.00294436
0.000891985
0.00200288
0.00255838
0.00289784
0.00124519
0.00103115
0.000102268
0.000105463
0.00374238
0.000108157
0.000122012
0.000424107
0.00323165
0.000426699
0.000126221
0.000108914
0.000189892
0.000287391
0.00114033
0.00025255
0.000870425
0.000556191
0.00280622
0.000624402
0.000374271
0.000533932
0.00187045
0.00328636
0.000999812
0.00345058
0.00358896
0.00064665
0.000651434
0.000299121
0.000911444
0.00158091
0.000600723
0.000653497
0.00315151
0.00119469
0.00033923
0.000709829
0.000600653
0.00258044
0.00096299
0.000550828
0.000262009
0.00221162
0.000769399
0.00100312
0.00314349
0.0010858
0.00139822
0.00331116
0.00317557
0.000190295
0.000272046
0.00244837
0.00149726
0.000888967
0.0011097
0.000512307
0.000274096
0.000647519
0.000759643
0.000725426
0.000665901
0.000595131
0.00249386
0.00274866
0.000812393
0.00207224
0.000269725
0.000386249
0.00302719
0.0010135
0.000688908
0.000699546
0.0001998
0.00257115
0.00064385
0.000768061
0.00262973
0.00367264
0.000213843
0.00106375
0.00220292
0.00062256
0.00147617
0.000662956
0.000229033
0.000687377
0.00174958
0.00401636
0.00081826
0.00213507
0.00255443
0.000264214
0.00027542
0.000832523
0.000769311
0.000811848
0.000594065
0.000776267
0.00168159
0.000690328
0.000232296
0.000759648
0.000695228
0.00216527
0.00174646
0.000493685
0.000430408
0.000195569
0.000749167
0.00235698
0.00307449
0.000321516
0.00221622
0.00332357
0.00300058
0.00201425
0.00234219
0.00371163
0.00107479
0.00328826
0.00325918
0.000177894
0.0006084
0.00162321
0.000324772
0.000467314
0.000255577
0.00168882
0.000335321
0.0031153
0.000967601
0.00103014
0.00081123
0.000630192
0.000951655
0.00283804
0.000527373
0.000973339
0.000296383
0.00173015
0.00225629
0.000523419
0.000887008
0.000641626
0.00109074
0.00323856
0.00167756
0.000644798
0.000742636
0.000595709
0.000813957
0.000640612
0.000474876
0.000857319
0.00230769
0.00195088
0.00163776
0.000988444
0.000915199
0.000555501
0.00077866
0.00107868
0.00154815
0.000479554
0.000606889
0.00135609
0.00224498
0.00123016
0.00106013
0.000714718
0.000809168
0.00272255
0.000227609
0.000987584
0.00089635
0.00240202
0.000928448
0.000976833
0.000381328
0.00277983
0.000270598
0.00112425
0.000178856
0.00129563
0.000668318
0.00121591
0.00116238
0.000851021
0.000652431
0.00267339
0.0021844
0.00358164
0.000605565
0.00136384
0.000991114
0.00110814
0.0011275
0.000646862
0.00100111
0.00138569
0.00187905
0.000205937
0.0013186
0.00107794
0.00243847
0.00114223
0.000159422
0.000147333
0.000132336
0.000139457
0.000280816
0.000253189
0.000284248
0.000264477
0.000174861
0.000247601
0.000257542
0.000186013
0.000190031
0.000185269
0.00121577
0.000181255
0.000179893
0.00185394
0.000232693
0.00133656
0.000227213
0.000277343
0.00377731
0.00164692
0.000927402
0.000621988
0.000202178
0.00302729
0.000754869
0.00068863
0.00124453
0.000313712
0.00284423
0.000263423
0.000489612
0.00159208
0.000315228
0.00107812
0.000923217
0.000295914
0.000756657
0.00276737
0.00178763
0.00316474
0.00388341
0.00130494
0.000782338
0.00102705
0.00126433
0.000667927
0.00120735
0.000943084
0.000691276
0.000315771
0.000307681
0.00208827
0.000476813
0.000258825
0.00262053
0.0029906
0.00110354
0.000315428
0.000314084
0.00208292
0.00134548
0.00176977
0.00060287
0.000692181
0.00100388
0.000869532
0.000410227
0.00125328
0.00029824
0.000355151
0.00188245
0.000448128
0.00225509
0.00105551
0.000976334
0.000494878
0.00255404
0.000696398
0.000855222
0.000574704
0.000479603
0.00200632
0.00251706
0.00113116
0.00213875
0.0014339
0.00140629
0.00120768
0.000816189
0.00408316
0.000503828
0.000218711
0.00267696
0.00105005
0.000124333
0.000817289
0.00118706
0.00257793
0.000116794
0.000670241
0.00167449
0.00164959
0.0026827
0.000916925
0.000163
0.00266546
0.00104646
0.000994651
0.000449585
0.000546747
0.00389733
0.000205892
0.0016778
0.00400847
0.000669315
0.000310966
0.000620919
0.0012552
0.000852196
0.000497074
0.000177482
0.000693194
0.0012599
0.000585416
0.00204451
0.00257272
0.00161593
0.000443074
0.000520593
0.00089002
0.00109272
0.0025053
0.00066732
0.0025521
0.00292178
0.00094133
0.000309836
0.00122977
0.000347151
0.000462482
0.00163799
0.000856994
0.00187824
0.00180547
0.00204644
0.0006906
0.000926475
0.000786458
0.00233867
0.000855953
0.00132414
0.000378006
0.000283486
0.000619717
0.000668463
0.00105325
0.000897494
0.000348934
0.000463664
0.000973456
0.00252561
0.000972569
0.000438798
0.000171455
0.000403535
0.00235251
0.000318348
0.000847869
0.00278056
0.000758608
0.00102384
0.00180136
0.000268741
0.000392926
0.000589358
0.00068324
0.00214417
0.000210748
0.000237074
0.00192147
0.000692919
0.000247935
0.000281048
0.000934037
0.000738767
0.000481594
0.00179371
0.000359259
0.00138471
0.000607811
0.00215142
0.000351806
0.00132414
0.00201976
0.000231328
0.00354729
0.000457768
0.000312301
0.0011324
0.000772073
0.00104908
0.00108793
0.00210118
0.000162242
0.000784204
0.00260782
0.000254117
0.000761104
0.000238693
0.000507123
0.000812216
0.000286436
0.00146843
0.000269485
0.000343857
0.00128257
0.000656327
0.000733895
0.00241615
0.00213249
0.000509805
0.00226735
0.000896518
0.000498423
0.000678963
0.000518319
0.000404192
0.000205248
0.000920246
0.00218783
0.00057208
0.00028566
0.00205349
0.00191577
0.00106478
0.000550194
0.000891254
0.000285729
0.0027775
0.000920974
0.000502673
0.000224413
0.000647402
0.0013145
0.000743914
0.00295639
0.00089279
0.00121569
0.00065551
0.000755236
0.000255817
0.000732785
0.00284145
0.0033961
0.00213463
0.000553716
0.00176847
0.000582321
0.000559441
0.00146158
0.000836531
0.000656053
0.000927208
0.000511953
0.00191919
0.000502352
0.00133697
0.000819295
0.000776999
0.000620793
0.000855301
0.00139986
0.000853025
0.00268246
0.00205958
0.00259297
0.000465166
0.00109382
0.000621358
0.00091057
0.000699582
0.000584531
0.000861274
0.00021249
0.0028529
0.00339698
0.000794776
0.000621258
0.00165886
0.00042775
0.00102686
0.000415037
0.00213857
0.000527905
0.00217412
0.000563858
0.000412998
0.00135359
0.000754411
0.00209109
0.00231938
0.00240678
0.00215457
0.000794743
0.000876317
0.000795961
0.00072105
0.00144086
0.00288704
0.00106924
0.00325791
0.0017049
0.000988609
0.000758263
0.00185803
0.00201032
0.000598967
0.00117248
0.000323659
0.000913642
0.00263361
0.00244309
0.00101713
0.000984331
0.00191478
0.000202459
0.000116617
0.000475265
0.00264914
0.00155413
0.000404182
0.00326449
0.00373592
0.00330461
0.000520045
0.000641669
0.00104804
0.000654699
0.000731004
0.000852064
0.00226894
0.000789751
0.000600414
0.00254531
0.00240385
0.000841693
0.000774231
0.00226292
0.00339538
0.00368332
0.000564042
0.0036322
0.0041135
0.00265416
0.000154396
0.00255963
0.00129608
0.00267975
0.00328139
0.000143003
0.00125885
0.000615116
0.00214007
0.00124134
0.00269588
7.14124e-05
0.00118208
0.00152682
0.000733551
0.0012329
0.000275873
0.000483841
0.00234274
0.000894566
0.00181846
0.000551514
0.0030176
0.000524316
0.00184305
0.00221191
0.000913708
0.000986299
0.00183421
0.00076411
0.00104249
0.000474219
0.00136915
0.00114062
0.00237711
0.00052581
0.00148016
0.00187725
0.000160076
0.000979053
0.000822014
0.000753982
0.00083486
0.000997296
0.000827621
0.000223566
0.000799795
0.00100586
0.000258943
0.000577526
0.000754957
0.000836331
0.000638187
0.00187626
0.00046285
0.00259541
0.000791863
0.000903942
0.0012814
0.00176118
0.00150848
0.000548073
0.00168324
0.000557003
0.00141601
0.000464455
0.000652829
0.000585372
0.000809491
0.0007165
0.00213673
0.0038686
0.000155344
0.000533711
0.00177826
0.000680558
0.00145704
0.000237343
0.000587329
0.000301859
0.00177981
0.000708069
0.000597054
0.000521541
0.000849609
0.00205535
0.000898566
0.000868445
0.00080726
0.000621559
0.00265677
0.000659969
0.00223494
0.000606995
0.00106649
0.000881625
0.00121183
0.000864759
0.000353423
0.000655904
0.000733634
0.00243107
0.000404394
0.00181142
0.00267653
0.00152666
0.000611833
0.00145734
0.00212039
0.000255741
0.000503942
0.000727889
0.00182553
0.000791054
0.000566267
0.00118211
0.000878465
0.000727084
0.000778809
0.000880817
0.00159242
0.00277365
0.00340133
0.0027277
0.000654103
0.00084358
0.000628784
0.000555414
0.00221451
0.00181761
0.000816562
0.000804997
0.000812518
0.00072751
0.00081336
0.000838964
0.000426575
0.000675619
0.0008623
0.000870139
0.000352866
0.000898927
0.000657641
0.000847761
0.00210155
0.00079997
0.00233277
0.00241888
0.000637786
0.000999875
0.00211003
0.000994175
0.000596626
0.0015413
0.000259929
0.00193716
0.00321023
0.0026507
0.000555547
0.00239119
0.00273194
0.00048834
0.000658695
0.00100783
0.00137431
0.000444532
0.000313395
0.000692682
0.000636237
)
;

boundaryField
{
    frontAndBack
    {
        type            empty;
    }
    wallOuter
    {
        type            nutkWallFunction;
        Cmu             0.09;
        kappa           0.41;
        E               9.8;
        value           nonuniform List<scalar> 
102
(
1.49979e-05
1.49979e-05
6.04317e-05
1.79225e-05
1.82877e-05
2.55358e-05
2.96845e-05
2.24325e-05
8.46689e-06
9.12364e-06
8.95215e-06
1.16118e-05
1.0867e-05
9.73691e-06
2.11015e-05
3.51009e-05
2.97597e-05
4.44717e-05
3.33473e-05
3.91436e-05
3.06328e-05
2.10156e-05
3.22694e-05
3.1686e-05
4.80055e-05
3.12394e-05
3.27509e-05
1.92599e-05
2.71729e-05
3.21658e-05
1.96554e-05
1.69339e-05
1.5325e-05
1.31786e-05
1.42386e-05
3.41744e-05
3.04652e-05
3.465e-05
3.20216e-05
1.91732e-05
2.97541e-05
3.11027e-05
2.06384e-05
2.107e-05
2.04996e-05
1.99471e-05
1.9766e-05
2.60676e-05
3.37647e-05
3.83804e-05
3.08423e-05
3.84759e-05
3.62362e-05
3.87273e-05
3.7783e-05
3.02139e-05
3.87369e-05
3.86022e-05
3.58093e-05
4.24407e-05
6.19686e-05
1.20883e-05
1.05395e-05
1.71829e-05
2.04607e-05
1.94931e-05
6.45022e-05
4.21087e-05
5.65323e-05
3.34291e-05
4.17386e-05
5.72136e-05
1.86641e-05
4.87789e-05
3.87531e-05
3.18453e-05
2.37335e-05
2.89969e-05
5.98084e-05
2.7149e-05
3.78115e-05
1.73469e-05
3.4271e-05
3.20404e-05
6.32226e-05
2.344e-05
3.40187e-05
2.59948e-05
3.03098e-05
2.45514e-05
2.35328e-05
1.08361e-05
1.60393e-05
1.46396e-05
3.91878e-06
3.26818e-05
1.47507e-05
2.56656e-05
3.0505e-05
1.62764e-05
2.75188e-05
3.62799e-05
)
;
    }
    inlet
    {
        type            calculated;
        value           nonuniform 0();
    }
    outlet
    {
        type            calculated;
        value           nonuniform 0();
    }
    wallInner
    {
        type            nutkWallFunction;
        Cmu             0.09;
        kappa           0.41;
        E               9.8;
        value           nonuniform List<scalar> 
138
(
2.30047e-05
1.99369e-05
6.16718e-05
0.000121067
9.98835e-05
0.000115572
8.01475e-05
7.37428e-05
0.000122501
4.07073e-05
5.81032e-05
4.45396e-05
3.43895e-05
0.000100113
3.94961e-05
3.81616e-05
3.20087e-05
5.37028e-05
3.82324e-05
3.34495e-05
3.29804e-05
2.47885e-05
4.2048e-05
3.26396e-05
3.03997e-05
3.77998e-05
2.81366e-05
3.42677e-05
8.16173e-05
3.06902e-05
3.60171e-05
4.66255e-05
3.5186e-05
2.95598e-05
3.79179e-05
2.70144e-05
4.34817e-05
2.25678e-05
4.57942e-05
4.05294e-05
3.47114e-05
2.51257e-05
5.55476e-05
3.3561e-05
3.4388e-05
1.09794e-05
4.66438e-05
4.46402e-05
3.51502e-05
5.54792e-05
4.44824e-05
3.13106e-05
2.81737e-05
4.8195e-05
2.20173e-05
5.52856e-05
3.49335e-05
4.19189e-05
5.99209e-05
5.31591e-05
5.18118e-05
2.79274e-05
2.30065e-05
4.58043e-05
6.42618e-05
2.49874e-05
2.97685e-05
5.86474e-05
3.38301e-05
3.89254e-05
3.65112e-05
3.43313e-05
2.73721e-05
1.16847e-05
4.80673e-05
2.97851e-05
4.98464e-05
2.796e-05
8.77473e-05
5.21135e-05
3.40785e-05
4.51332e-05
3.10701e-05
2.6342e-05
2.49184e-05
8.36287e-05
5.34786e-05
5.71859e-05
6.47593e-05
7.2441e-05
6.01923e-05
3.01849e-05
2.80085e-05
9.14122e-05
2.76627e-05
3.83925e-05
7.08842e-05
5.1708e-05
9.31058e-05
2.5714e-05
3.64465e-05
2.45949e-05
2.77733e-05
5.19683e-05
5.20191e-05
7.0418e-05
3.24482e-05
2.24134e-05
2.44322e-05
2.62419e-05
2.67968e-05
5.38101e-05
2.20363e-05
3.89129e-05
3.39047e-05
2.55482e-05
2.33855e-05
2.68866e-05
2.29654e-05
4.98888e-05
6.84372e-05
6.01593e-05
2.51631e-05
3.81166e-05
4.6364e-05
2.72895e-05
2.94292e-05
2.78217e-05
6.08149e-05
3.37101e-05
5.75122e-05
6.28488e-05
7.85421e-05
0.000118638
5.32439e-05
3.82801e-05
8.64015e-05
7.53478e-05
)
;
    }
    procBoundary2to0
    {
        type            processor;
        value           nonuniform List<scalar> 
42
(
0.00394007
0.00394007
0.00131851
0.00110047
0.0023225
0.00467366
0.00121281
0.00121281
0.00202984
0.00155162
0.0025468
0.0025468
0.00237322
0.00294388
0.00340658
0.00446879
0.00334516
0.00139114
0.0017316
0.00418645
0.0043138
0.00116825
0.00116825
0.00441952
0.0043138
0.000761847
0.00430163
0.000706732
0.00430163
0.00391806
0.00345304
0.000809115
0.000870714
0.000878988
0.000881262
0.00110047
0.00334516
0.000351882
0.00448793
0.00100319
0.00100319
0.000880171
)
;
    }
    procBoundary2to1
    {
        type            processor;
        value           uniform 0.00363793;
    }
    procBoundary2to3
    {
        type            processor;
        value           nonuniform List<scalar> 
29
(
0.00295089
0.00291389
0.000694173
0.000479615
0.0008996
0.00127018
0.00102838
0.00214308
0.00174851
0.00185601
0.00177707
0.00175076
0.00129159
0.00373075
0.00272278
0.00273728
0.00138112
0.00138112
0.00291389
0.00373075
0.00318191
0.00125634
0.000455253
0.00168925
0.00194239
0.00107444
0.00174851
0.00328765
0.00175076
)
;
    }
}


// ************************************************************************* //
