/*--------------------------------*- C++ -*----------------------------------*\
| =========                 |                                                 |
| \\      /  F ield         | OpenFOAM: The Open Source CFD Toolbox           |
|  \\    /   O peration     | Version:  v1912                                 |
|   \\  /    A nd           | Website:  www.openfoam.com                      |
|    \\/     M anipulation  |                                                 |
\*---------------------------------------------------------------------------*/
FoamFile
{
    version     2.0;
    format      ascii;
    class       volScalarField;
    location    "0.95";
    object      k;
}
// * * * * * * * * * * * * * * * * * * * * * * * * * * * * * * * * * * * * * //

dimensions      [0 2 -2 0 0 0 0];


internalField   nonuniform List<scalar> 
1466
(
0.0415662
0.131151
0.158932
0.0311364
0.111495
0.457375
0.0650905
0.0709545
0.468243
0.0293967
0.179488
0.0640045
0.0105166
0.0303486
0.0475819
0.0227861
0.0912656
0.025746
0.189144
0.0277328
0.0948673
0.0637645
0.0309749
0.156433
0.0323218
0.340582
0.373866
0.0435559
0.0374321
0.0463116
0.0884185
0.314503
0.0727985
0.0522211
0.0238268
0.0511297
0.0325235
0.0492689
0.782658
0.0600508
0.061824
0.0271387
0.383255
0.0745017
0.0542034
0.329125
0.0692049
0.0259558
0.0267941
0.0981574
0.19897
0.0190785
0.0869966
0.391299
0.0342348
0.0618475
0.041485
0.299786
0.0244442
0.0619034
0.0255294
0.0396622
0.0930822
0.366746
0.140832
0.043524
0.063592
0.0898732
0.0273079
0.0522761
0.284507
0.0365794
0.0399727
0.0619392
0.0259445
0.0523376
0.0556805
0.0340014
0.0563762
0.0665709
0.195724
0.0636966
0.0605502
0.0277562
0.0414022
0.100784
0.0408994
0.163749
0.0514058
0.0777096
0.05083
0.0435928
0.0718275
0.0219424
0.183374
0.0820507
0.133174
0.0291662
0.147935
0.0509521
0.0466384
0.042846
0.112802
0.0848122
0.0672273
0.402025
0.081837
0.0653974
0.143423
0.0358234
0.0237797
0.0427339
0.041042
0.0516877
0.0121956
0.810744
0.0229872
0.0249015
0.0962128
0.307814
0.075915
0.0262404
0.0187362
0.177362
0.0473486
0.0785766
0.0351926
0.11624
0.0736259
0.394948
0.0393636
0.0470899
0.0674819
0.0662902
0.224089
0.0677613
0.0289446
0.0439934
0.0546609
0.0329428
0.0222327
0.0424591
0.0869951
0.103132
0.054658
0.0348527
0.062801
0.121001
0.0705807
0.0405636
0.0736449
0.0484979
0.0606228
0.134343
0.0612402
0.371903
0.0330009
0.106951
0.146414
0.101842
0.046837
0.0501142
0.116444
0.0796372
0.038024
0.0696858
0.4037
0.016528
0.0339858
0.373831
0.0857354
0.102644
0.0392202
0.0670961
0.351135
0.139093
0.0336787
0.0670502
0.0423901
0.0684906
0.0319914
0.0796071
0.0500207
0.0431001
0.175301
0.0263712
0.07419
0.811177
0.0591691
0.104904
0.0775986
0.0288783
0.047353
0.126904
0.0768601
0.0378938
0.0544567
0.0401294
0.0353078
0.0319929
0.041049
0.160604
0.0677091
0.0366189
0.0495925
0.0306582
0.0788137
0.114031
0.0435823
0.0613113
0.0524953
0.0428833
0.170183
0.0675228
0.119549
0.0671134
0.106335
0.0124453
0.0258196
0.0500832
0.415454
0.0381053
0.0263267
0.0734918
0.0620929
0.0808841
0.0301013
0.0389021
0.0484761
0.404831
0.0571797
0.137134
0.0593689
0.0267388
0.054194
0.0484679
0.0315731
0.0564174
0.0428503
0.0370635
0.434004
0.0525507
0.0444726
0.0320912
0.030958
0.0302043
0.19253
0.0403394
0.0180838
0.0346704
0.0638769
0.216376
0.0331744
0.132061
0.0558362
0.193782
0.0354523
0.418481
0.904035
0.0392941
0.0712353
0.0594217
0.175335
0.0876661
0.565359
0.0524851
0.504661
0.0416785
0.140934
0.0427673
0.135843
0.0299371
0.0512628
0.0360684
0.0545869
0.0268265
0.108721
0.0537546
0.147745
0.0298853
0.043234
0.0244812
0.0379621
0.0326834
0.102517
0.0361077
0.229886
0.0464783
0.422486
0.0509353
0.0901314
0.547976
0.258235
0.0473792
0.0469319
0.19264
0.775092
0.809707
0.187519
0.0244701
0.0481858
0.0586894
0.0314622
0.237666
0.0497423
0.0713003
0.0366195
0.0300979
0.0227086
1.16624
0.451083
0.1506
0.169424
0.0676573
0.0363883
0.123736
0.0384203
0.294565
0.0566612
0.0448352
0.0916644
0.0677563
0.0595923
0.0374546
0.0232574
0.0476055
0.0907271
0.0559074
0.134592
0.10629
0.028442
0.0307575
0.101162
0.0726508
0.0256681
0.0350823
0.0183333
0.234609
0.027714
0.117126
0.0326923
0.02934
0.0386964
0.0778832
0.0524507
0.160555
0.0314242
0.0192841
0.0420308
0.45188
0.0429116
0.0737259
0.039669
0.0272408
0.026298
0.147649
0.0376613
0.0690072
1.12852
0.220613
0.399157
0.0672507
0.0677829
0.0579895
0.0264996
0.0578108
0.0831441
0.118795
0.0259699
0.0327242
0.136157
0.0169477
0.0310728
0.032822
0.0877245
0.0271691
0.0432618
0.337442
0.0507677
0.0227319
0.0404278
0.0602425
0.211605
0.16463
0.0525082
0.249708
0.0529794
0.147087
0.0477478
0.064636
0.0819057
0.350703
0.061262
0.596979
0.0286737
0.0380135
0.066954
0.267603
0.0654537
0.0292747
0.0240239
0.266083
0.0657677
0.0666923
0.0565346
0.0878145
0.117886
0.947078
0.0709254
0.036699
0.123738
0.0589258
0.0269257
0.0345239
0.577215
0.116784
0.148086
0.299416
0.105615
0.118378
0.281398
0.0430476
0.0797383
0.0867748
0.0891914
0.0957872
0.0798865
0.080797
0.0904575
0.0937901
0.043478
0.116568
0.161036
0.266047
0.713296
0.339479
0.544068
0.0792109
0.438826
0.38765
0.136808
0.0876683
0.207377
0.415531
0.400465
0.52491
0.413977
0.428635
0.556823
0.329544
0.663426
0.542821
0.428184
0.243237
0.512542
0.495501
0.453557
0.509971
0.321753
0.34375
0.502486
0.190973
0.227864
0.307451
0.254236
0.245213
0.386605
0.0934746
0.0432698
0.199943
0.331679
0.452371
0.323456
0.510161
0.203738
0.0942252
0.261255
0.226535
0.138515
0.500416
0.0404708
0.0761501
0.275653
0.0751946
0.0999647
0.0363255
0.0605361
0.224874
0.232228
0.0568605
0.0879426
0.0353411
0.07028
0.248336
0.0368122
0.14283
0.549827
0.482003
0.198496
0.165391
0.0383293
0.0766243
0.0258385
0.0510072
0.27257
0.0753654
0.0572481
0.387935
0.352408
0.407044
0.396506
0.100872
0.387657
0.358675
0.362877
0.386239
0.0384973
0.0767046
0.266062
0.288776
0.2514
0.583541
0.34805
0.609233
0.496453
0.055847
0.303488
0.385426
0.0265937
0.268027
0.0880079
0.071213
0.365547
0.351629
0.370423
0.444426
0.0474989
0.382138
0.0998251
0.0429805
0.418723
0.506919
0.438648
0.466825
0.382781
0.313604
0.0748118
0.642908
0.544842
0.0416579
0.0810473
0.0568941
0.445525
0.102758
0.075523
0.476335
0.0406138
0.0936326
0.181853
0.404315
0.0919124
0.056228
0.0798749
0.691154
0.0567006
0.0634368
0.0896572
0.0500896
0.372139
0.665908
0.0470029
0.382419
0.373311
0.0525452
0.120511
0.361847
0.0939212
0.298418
0.37841
0.380727
0.0660877
0.0596836
0.141181
0.072212
0.0633748
0.774008
0.26636
0.0763228
0.640306
0.373879
0.0177043
0.0389052
0.0568758
0.146887
0.0432143
0.0805387
0.069156
0.068489
0.587067
0.079203
0.623276
0.0427889
0.0811365
0.117948
0.324062
0.134868
0.168595
0.125675
0.571387
0.766397
0.069194
0.566123
0.419425
0.843711
0.0269006
0.325251
0.625609
0.0274955
0.405718
0.0360719
0.0713257
0.0878707
0.1342
0.0585435
0.0731753
0.319775
0.0271492
0.0547201
0.0901605
0.451999
0.198749
0.72872
0.162387
0.0265196
0.0682493
0.0677636
0.0659297
0.496331
0.0450199
0.0794594
0.0869757
0.456982
0.043523
0.386409
0.289764
0.04441
0.149964
0.43717
0.693782
0.0801123
0.05778
0.555455
0.0655138
0.497393
0.209462
0.171179
0.359668
0.0737772
0.070958
0.161982
0.024677
0.539616
0.050252
0.106283
0.354985
0.43973
0.291718
0.0673188
0.527395
0.062464
0.0614756
0.0524233
0.024429
0.134582
0.0200004
0.0387673
0.308425
0.501152
0.0672393
0.0524612
0.0404752
0.0676358
0.0251577
0.128122
0.026492
0.233834
0.0887435
0.14461
0.0705045
0.130743
0.0603658
0.0528848
0.409509
0.130339
0.181599
0.0398059
0.0381666
0.0783685
0.0658207
0.110292
0.379972
0.109063
0.0547063
0.482189
0.0921287
0.0544901
0.129845
0.446319
0.378995
0.0429324
0.0741641
0.0332477
0.0485797
0.0406667
0.0769996
0.0371918
0.0518237
0.701347
0.0454445
0.375325
0.100492
0.207393
0.0761868
0.0839872
0.605519
0.0948671
0.114676
0.0427252
0.434177
0.0519177
0.399366
0.040906
0.06791
0.00810471
0.00832713
0.514561
0.00897445
0.0102101
0.280591
0.59735
0.0409552
0.0103363
0.0125932
0.0229679
0.0909694
0.207248
0.0353171
0.0877188
0.320534
0.0410561
0.125068
0.0227368
0.0274133
0.0650448
0.0944738
0.15617
1.0493
0.39938
0.108563
0.0340324
0.0179933
0.0619642
0.0673717
0.0312936
0.0621389
0.375279
0.0977691
0.0202893
0.119485
0.129985
0.114791
0.739869
0.117994
0.0255727
0.0671179
0.0677542
0.0437152
0.0387047
0.0544283
0.209337
0.764385
0.464165
0.0169586
0.0338219
0.0675356
0.0294358
0.0695557
0.0835991
0.381272
0.0220717
0.0572559
0.0678662
0.0316026
0.037822
0.164786
0.399717
0.836782
0.0937705
0.0778488
0.0272765
0.0858616
0.0906073
0.0729209
0.139477
0.0960238
0.0743331
0.429971
0.0542368
0.0641949
0.155636
0.946693
0.0265131
0.0688026
0.421702
0.0286134
0.212296
0.0277591
0.0708482
0.14227
0.318931
0.848918
0.0610044
0.210952
0.140285
0.0376881
0.0383353
0.149857
0.0964081
0.0753891
0.194936
0.0395322
0.0938759
0.0533521
0.167701
0.0714179
0.0465168
0.137262
0.0654796
0.0275747
0.026755
0.0489601
0.0778598
0.0571277
0.3949
0.0241161
0.200222
0.050671
0.0515492
0.287894
0.17312
0.480192
0.0614906
0.0864475
0.467516
0.0281059
0.24439
0.213761
0.0535377
0.134461
0.0158352
0.334837
0.0251616
0.208401
0.138368
0.0745978
0.0410828
0.0275645
0.058908
0.124652
0.0464862
0.07848
0.0393576
0.409638
0.0693769
0.122314
0.101558
0.061312
0.126175
0.864893
0.269287
0.0598206
0.166559
0.371403
0.0980375
0.0319758
0.120546
0.131637
0.149665
0.251284
0.118414
0.0661189
0.100738
0.0269993
0.0541466
0.0751854
0.740642
0.34883
0.363955
0.373344
0.0416924
0.0728304
0.0781197
0.0518862
0.327043
0.132555
0.0388964
0.100565
0.0561724
0.0539087
0.10279
0.0483605
0.24096
0.306307
0.0392007
0.0591297
0.0140969
0.0581923
0.0570542
0.144408
0.0538929
0.0955905
0.059418
0.384589
0.076847
0.479076
0.0310061
0.0837717
0.168228
0.0608294
0.361992
0.0605113
0.113159
0.0262352
0.335408
0.0114824
0.649499
0.0985134
0.235976
0.0587805
0.0178303
0.0195547
0.0216588
0.0208407
0.0908084
0.0871998
0.0935186
0.0954321
0.0160855
0.0930544
0.0918995
0.0141184
0.0121301
0.0110579
0.0928926
0.0114922
0.0132243
0.0597832
0.0208339
0.0660969
0.0322927
0.0927157
0.344921
0.18529
0.0451533
0.0286583
0.0862706
0.453365
0.0240876
0.20036
0.0616267
0.0503819
0.0876025
0.025759
0.233221
0.253277
0.041462
0.0755379
0.043176
0.0929256
0.0285934
0.449538
0.339463
0.869541
0.483563
0.0917462
0.179234
0.0351729
0.0452182
0.0433062
0.288105
0.166476
0.0547242
0.0604099
0.0895309
0.396985
0.256339
0.0132061
0.731207
0.413562
0.629834
0.0705773
0.0821927
0.0903602
0.073131
0.0560597
0.0320696
0.0260225
0.48649
0.0444858
0.0272233
0.0709678
0.0213299
0.018364
0.0689328
0.0278384
0.0492656
0.0732424
0.0426762
0.0277542
0.225367
0.0553267
0.023284
0.384175
0.0833108
0.0677534
0.0497873
0.0795914
0.0297324
0.127876
0.531739
0.0962065
0.0965621
0.537822
0.0292294
0.0204228
0.218487
0.644877
0.0231179
0.0582168
0.235214
0.929208
0.0200847
0.0726337
0.0416286
0.0279231
0.0891148
0.14186
0.0116595
0.152557
0.0700974
0.0412631
0.182187
0.30911
0.474145
0.0137611
0.152443
0.320081
0.248443
0.0785565
0.100916
0.69498
0.0393713
0.0493563
0.0138917
0.0506212
0.0389249
0.0456079
0.832496
0.04702
0.0571566
0.0267912
0.0314361
0.062454
0.0425701
0.860753
0.0618225
0.0516138
0.0561584
0.126951
0.335276
0.0771177
0.0416895
0.0275807
0.387358
0.0772539
0.0569157
0.778367
0.0576581
0.136393
0.0442811
0.392559
0.0786892
0.0721579
0.715882
0.0221423
0.0237636
0.433378
0.380154
0.0652429
0.0905147
0.0232545
0.0294935
0.0890491
0.385053
0.167024
0.0290304
0.012712
0.0250033
0.0469682
0.0339681
0.374796
0.10426
0.0914674
0.026464
0.376553
0.0170131
0.035565
0.109361
0.0395033
0.0464782
0.0303172
0.0726055
0.231014
0.0580434
0.0354425
0.0235552
0.031304
0.203906
0.0302267
0.385335
0.0692192
0.0277303
0.0456141
0.246006
0.0486176
0.0301889
0.182753
0.0147013
0.470291
0.321834
0.0270061
0.0267914
0.0648823
0.150565
0.0515405
0.0915975
0.0113036
0.160947
0.160375
0.0466065
0.0551323
0.0191107
0.0398661
0.0389755
0.0402789
0.271508
0.0414998
0.097934
0.0306163
0.0661861
0.151435
0.389797
0.557909
0.0309219
0.197933
0.0771425
0.0258896
0.0234422
0.0539767
0.215936
0.0118251
0.0822755
0.621158
0.0599657
0.019269
0.0997757
0.39917
0.168711
0.028226
0.32926
0.0505036
0.0396591
0.0272967
0.0306732
0.0392957
0.0235944
0.277189
0.149316
0.412685
0.153101
0.0755061
0.0583824
0.0394946
0.0160247
0.0360036
0.951686
0.394022
0.358898
0.0221854
0.111919
0.04
0.366827
0.411635
0.0924935
0.0610885
0.0796611
0.0383599
0.762979
0.348125
0.739311
0.0273977
0.110725
0.276412
0.127992
0.7621
0.0572965
0.109453
0.229385
0.0921843
0.0191233
0.0589226
0.167837
0.160576
0.0674419
0.324468
0.0247456
0.0131746
0.831751
0.432036
0.0422212
0.0434238
0.0424069
0.0219379
0.050496
0.0269373
0.215956
0.213168
0.0560236
0.060337
0.110568
0.0814317
0.0626651
0.665092
0.710368
0.354176
0.853043
0.0623637
0.0503743
0.180439
0.0744254
0.332598
0.891745
0.155155
0.194635
0.256294
0.0480222
0.149721
0.0464723
0.221443
0.315816
0.0480767
0.0246623
0.0875393
0.0348084
0.118575
0.0472361
0.0479459
0.0692854
0.0821913
0.0219535
0.0465029
0.39731
0.0429086
0.0308786
0.90938
0.450907
0.481097
0.0235646
0.056914
0.0498461
0.221188
0.246246
0.108239
0.845539
0.0652216
0.0350846
0.0999266
0.0806209
0.0879854
0.0581959
0.0487783
1.03651
0.429053
0.121668
0.57657
0.504501
0.132278
0.0106899
0.170652
0.0175567
0.395844
0.216284
0.0244514
0.0237564
0.348403
0.0975357
0.262911
0.119211
0.014453
0.182713
0.0570534
0.12192
0.0222438
0.0179808
0.0313932
0.187465
0.0874625
0.0346026
0.126623
0.614486
0.0988544
0.0349618
0.106266
0.0541814
0.0605753
0.236082
0.0863538
0.0771203
0.108393
0.13199
0.0224804
0.647793
0.0305063
0.0427246
0.102926
0.0119574
0.0598834
0.060408
0.0427189
0.0528105
0.171532
0.382074
0.0115745
0.0568688
0.0444183
0.0367165
0.0340231
0.18195
0.0640228
0.0396939
0.245267
0.0328717
0.286082
0.0573869
0.0439647
0.448235
0.23529
0.0784702
0.290869
0.0276853
0.0337651
0.0450683
0.0285564
0.116416
0.0348481
0.160441
0.202546
0.148702
0.440287
0.0105741
0.0687399
0.0383212
0.0622034
0.0407884
0.0340009
0.187827
0.0409622
0.280967
0.0652031
0.0297731
0.039536
0.0397885
0.0350206
0.093274
0.104486
0.0344966
0.0402575
0.045953
0.053626
0.0388303
0.0477043
0.136218
0.0734049
0.402938
0.102433
0.0275978
0.06426
0.0357426
0.0887416
0.028201
0.0572634
0.0542284
0.682681
0.0424562
0.0417508
0.0772262
0.0240509
0.0369558
0.0517679
0.0318638
0.0288807
0.0312063
0.116349
0.102464
0.139045
0.0339649
0.113427
0.0598149
0.921065
0.410883
0.30345
0.0628547
0.053899
0.0373179
0.0474506
0.118321
0.123561
0.0384908
0.0662891
0.0347551
0.142764
0.0706208
0.0404612
0.0345317
0.112211
0.107146
0.177989
0.0265844
0.281082
0.151144
0.145741
0.0476529
0.0359663
0.0942527
0.104893
0.171811
0.0577613
0.0431674
0.0531966
0.124347
0.0626262
0.0233396
0.21913
0.55667
0.59281
0.0327319
0.0322406
0.517807
0.172128
0.634847
0.040743
0.201345
0.159601
0.058467
0.046844
0.0334934
)
;

boundaryField
{
    frontAndBack
    {
        type            empty;
    }
    wallOuter
    {
        type            kqRWallFunction;
        value           nonuniform List<scalar> 
102
(
0.0105166
0.0105166
0.0309749
0.0259445
0.0121956
0.0227086
0.0286737
0.0251577
0.00810471
0.00832713
0.00897445
0.0102101
0.0103363
0.0125932
0.0229679
0.0909694
0.0353171
0.0227368
0.0179933
0.0202893
0.0255727
0.0169586
0.0338219
0.0272765
0.0858616
0.0376881
0.0383353
0.0281059
0.0158352
0.0392007
0.0140969
0.0178303
0.0195547
0.0216588
0.0208407
0.0908084
0.0871998
0.0935186
0.0954321
0.0160855
0.0930544
0.0918995
0.0141184
0.0121301
0.0110579
0.0114922
0.0132243
0.0322927
0.0927157
0.0503819
0.025759
0.041462
0.0929256
0.0604099
0.0895309
0.0132061
0.0705773
0.0821927
0.0213299
0.018364
0.0292294
0.0231179
0.0200847
0.0116595
0.0137611
0.0138917
0.0314361
0.0416895
0.0275807
0.0237636
0.0232545
0.0294935
0.012712
0.0250033
0.0339681
0.0170131
0.0303172
0.0354425
0.0302267
0.0147013
0.0270061
0.0113036
0.0402789
0.0414998
0.0309219
0.0118251
0.019269
0.0392957
0.0160247
0.0131746
0.0821913
0.0219535
0.0106899
0.0244514
0.014453
0.0179808
0.0119574
0.0115745
0.0367165
0.0105741
0.0340009
0.0409622
)
;
    }
    inlet
    {
        type            fixedValue;
        value           nonuniform 0();
    }
    outlet
    {
        type            zeroGradient;
    }
    wallInner
    {
        type            kqRWallFunction;
        value           nonuniform List<scalar> 
138
(
0.179488
0.0912656
0.0374321
0.0463116
0.0190785
0.0869966
0.391299
0.0342348
0.0396622
0.0435928
0.0466384
0.0848122
0.0187362
0.0222327
0.0424591
0.0348527
0.062801
0.016528
0.104904
0.0775986
0.0288783
0.0124453
0.0444726
0.0302043
0.19253
0.0403394
0.0180838
0.0346704
0.565359
0.0244812
0.0379621
0.0464783
0.0374546
0.0232574
0.0476055
0.0907271
0.0559074
0.134592
0.10629
0.028442
0.0307575
0.101162
0.0726508
0.0256681
0.0350823
0.0183333
0.234609
0.027714
0.117126
0.0326923
0.02934
0.0386964
0.0778832
0.0524507
0.160555
0.0314242
0.0192841
0.0690072
0.0579895
0.0264996
0.0578108
0.0831441
0.118795
0.0259699
0.0327242
0.136157
0.0169477
0.0310728
0.032822
0.0877245
0.0271691
0.0432618
0.0227319
0.0292747
0.0240239
0.0269257
0.0345239
0.0430476
0.713296
0.136808
0.321753
0.245213
0.199943
0.261255
0.226535
0.0368122
0.198496
0.165391
0.0258385
0.609233
0.496453
0.0265937
0.0748118
0.0939212
0.0177043
0.0389052
0.1342
0.0265196
0.106283
0.0200004
0.0387673
0.0705045
0.0332477
0.280591
0.0409552
0.117994
0.0220717
0.0743331
0.0265131
0.0708482
0.167701
0.026755
0.0489601
0.0535377
0.0393576
0.0388964
0.0114824
0.0208339
0.0862706
0.0272233
0.384175
0.0833108
0.0204228
0.335276
0.0221423
0.0726055
0.0466065
0.0191107
0.0258896
0.0505036
0.0191233
0.0369558
0.634847
0.040743
0.159601
0.058467
0.046844
0.0334934
)
;
    }
    procBoundary2to0
    {
        type            processor;
        value           nonuniform List<scalar> 
42
(
1.06225
1.06225
0.122025
0.111068
0.0468293
1.28322
0.126148
0.126148
0.0468319
0.0463765
0.0984354
0.0984354
0.060634
0.178212
0.287997
1.17976
0.486389
0.0432565
0.0480481
0.165327
0.133935
0.0378499
0.0378499
0.338594
0.133935
0.0372451
0.664915
0.0414388
0.664915
0.921166
0.645311
0.0467617
0.0497796
0.0494687
0.0494216
0.111068
0.486389
0.0796811
0.964609
0.100261
0.100261
0.0576336
)
;
    }
    procBoundary2to1
    {
        type            processor;
        value           uniform 0.236362;
    }
    procBoundary2to3
    {
        type            processor;
        value           nonuniform List<scalar> 
29
(
0.065818
0.0741525
0.0290605
0.0272961
0.338239
0.0673338
0.021455
0.0810082
0.0742227
0.0671545
0.0806866
0.324177
0.0510043
0.0558538
0.0540581
0.0441258
0.0768937
0.0768937
0.0741525
0.0558538
0.057044
0.0735341
0.0291473
0.0759831
0.0463457
0.0593674
0.0742227
0.300439
0.324177
)
;
    }
}


// ************************************************************************* //
