/*--------------------------------*- C++ -*----------------------------------*\
| =========                 |                                                 |
| \\      /  F ield         | OpenFOAM: The Open Source CFD Toolbox           |
|  \\    /   O peration     | Version:  v1912                                 |
|   \\  /    A nd           | Website:  www.openfoam.com                      |
|    \\/     M anipulation  |                                                 |
\*---------------------------------------------------------------------------*/
FoamFile
{
    version     2.0;
    format      ascii;
    class       volScalarField;
    location    "0.83";
    object      p;
}
// * * * * * * * * * * * * * * * * * * * * * * * * * * * * * * * * * * * * * //

dimensions      [0 2 -2 0 0 0 0];


internalField   nonuniform List<scalar> 
1431
(
90.7817
89.0993
87.735
90.62
90.538
86.2339
87.9679
96.543
90.1906
89.9683
88.7248
88.8981
88.8116
102.227
88.8132
89.2487
89.1781
89.3513
90.4129
88.9873
90.4015
89.8541
88.4286
103.143
78.8575
89.4265
72.144
101.366
90.2052
89.8984
112.774
119.542
81.8557
86.5173
88.5063
87.3017
90.7014
95.6007
86.2269
95.6922
109.649
89.1903
86.6722
88.7713
81.217
90.4191
90.5913
117.838
113.779
97.0071
89.6967
89.9739
89.6864
86.3352
88.22
110.744
89.4401
87.442
78.8466
90.3797
89.3858
88.5769
90.1756
96.4352
98.4812
89.1171
86.4369
86.0361
90.1009
96.8488
86.6597
88.6931
88.4741
86.5578
88.758
82.0375
90.5526
81.8708
96.8582
73.4519
96.4602
89.5186
88.535
89.5528
80.838
90.5395
90.593
88.7857
104.088
89.3549
89.8848
89.2475
90.6238
95.3312
89.4468
90.478
88.8364
98.6586
90.5011
112.74
90.085
95.4907
90.8602
90.4899
89.2883
88.7347
96.5773
113.003
114.693
90.5274
75.144
88.9723
97.0671
89.027
89.0467
90.4487
89.3554
88.974
104.995
82.2776
93.9634
88.6269
89.8143
107.865
96.156
88.3929
105.833
88.6828
90.6481
96.2909
88.7182
113.976
103.291
90.5622
90.606
89.99
88.4791
89.1457
90.4711
113.532
91.0898
90.6354
95.5771
113.883
115.115
94.4346
98.1198
113.453
88.5214
112.269
97.1375
99.5951
88.4883
88.6514
88.4375
88.7468
96.4652
89.6061
97.8477
107.108
89.3016
88.6509
90.8718
88.8621
90.4572
71.557
90.5095
94.7307
89.8119
90.7476
105.719
88.8123
111.622
97.3457
96.086
88.835
88.3306
98.0197
90.07
103.725
96.4673
89.2618
103.905
89.6211
95.8515
106.779
95.5425
86.0571
89.9571
96.4334
89.7452
89.214
90.497
96.2649
89.6652
93.6625
96.5875
116.253
88.5295
88.5057
88.4275
116.126
110.696
108.348
96.4972
75.3031
90.5135
96.8839
88.5969
100.453
96.2609
97.1447
108.561
96.7918
89.4491
87.0613
98.7746
89.2334
89.1634
96.4922
96.4915
68.9646
95.7434
100.584
97.1685
91.237
109.612
90.0001
101.449
113.107
90.5512
90.003
96.7352
94.927
96.2155
96.8683
97.8858
90.8326
96.4106
88.2887
98.3014
108.977
90.5694
89.1221
88.8274
88.8793
95.7476
88.2857
86.3857
104.598
102.442
90.5084
89.9416
116.521
90.1153
97.3609
89.7059
88.3048
96.2016
96.7149
97.1989
88.935
90.377
90.9374
96.4428
100.547
91.6103
95.3947
102.542
90.6908
96.5869
112.693
101.413
100.414
96.8174
93.5641
90.6191
89.0513
89.2671
89.9853
89.7291
88.2724
89.4135
90.2328
93.5717
88.1886
90.5652
102.352
103.414
97.6101
94.3431
96.4106
102.227
89.9936
103.945
99.0574
90.5169
101.846
88.3933
105.333
96.605
111.269
88.6803
115.645
88.6564
88.6014
96.5737
97.0703
96.4275
89.8778
97.3962
95.9095
89.412
90.7022
88.6511
88.8088
90.3793
88.3915
95.8136
89.9794
88.5405
90.0217
91.4749
88.3417
90.5755
89.9404
96.3583
89.9568
110.136
97.104
89.3842
88.7144
88.2608
89.8948
96.1939
90.61
89.9856
89.97
89.804
88.7953
88.4679
96.4517
89.8982
88.909
101.362
88.7332
97.1218
88.7223
90.3531
90.0536
88.767
89.2614
89.1753
89.4091
88.8155
88.7213
89.2503
88.7577
89.4364
88.3854
89.8502
88.7965
89.4616
90.4428
90.268
88.7467
89.5975
88.6345
89.493
89.4124
88.8896
88.2692
90.0285
105.358
89.5344
89.2024
89.2648
95.8432
95.0821
89.5046
89.1325
88.7694
90.1593
89.2311
88.7389
89.5204
88.5101
88.7882
89.3862
90.3922
88.7131
88.262
108.273
95.8357
89.9866
89.0152
89.9168
96.8227
90.494
96.5242
88.3674
89.3938
96.7499
89.6733
89.5045
93.3143
88.4742
115.409
89.9115
89.2533
93.668
89.3083
89.24
86.1334
114.505
129.428
89.1868
90.6809
88.7232
89.8821
88.3386
90.3619
90.1948
88.5345
90.3167
89.1284
88.6237
89.9626
80.7928
88.9064
81.0426
88.4774
89.5337
90.2505
88.2962
88.9252
90.3619
89.9751
88.5795
86.2313
87.9368
92.3839
89.9443
89.6531
88.3079
90.5275
90.5449
88.3691
87.9728
90.4662
90.4359
90.2282
90.5947
90.0872
90.2913
89.9462
90.0876
90.2411
90.0232
88.3735
83.7346
89.9456
86.3089
86.772
88.4832
88.5994
89.9546
84.7662
86.5019
88.6446
85.4503
89.269
115.358
112.769
86.6502
88.6912
88.2572
87.906
89.1378
90.1492
90.2195
89.3247
99.1255
94.7916
115.315
88.8966
86.7607
90.407
90.2783
88.1852
88.2088
90.1281
88.7275
92.5187
90.1793
89.3858
87.6543
89.0903
96.8919
88.8391
86.7381
83.2804
89.6993
88.8025
88.863
88.2394
88.713
90.3182
90.2009
91.2274
90.8723
88.2215
97.6266
89.3602
96.5104
90.1369
90.0012
83.9762
90.2184
88.5878
88.333
88.4792
88.7274
89.9515
89.3279
90.3377
89.3738
90.2533
88.4614
89.3786
115.3
116.153
88.6688
88.5135
90.3041
90.2821
89.4306
89.0993
90.585
94.7607
88.7528
88.9448
89.2845
89.3179
89.0229
90.4319
89.5978
96.3739
90.3177
88.7157
88.7067
88.579
95.7489
90.3274
88.2985
89.4806
89.1599
89.1732
94.7474
100.161
90.5552
88.684
89.2161
90.2448
81.3308
89.9598
90.5212
101.538
89.6652
88.7947
88.7121
90.5111
90.8119
90.4908
88.3318
89.2757
90.4531
89.7455
88.7337
98.2791
89.4359
96.4362
89.4292
88.9496
88.5269
88.9022
89.3785
94.7325
89.5979
99.6802
89.3793
87.5971
94.0754
95.2612
96.3092
88.7805
90.2772
89.4346
100.497
88.6972
89.3955
89.3298
88.7029
89.2682
89.3722
90.4586
88.5617
88.7033
90.5415
89.9264
94.1206
90.4754
89.9277
90.184
91.8344
99.5216
89.4901
90.2992
89.7801
90.3848
88.6882
88.4252
89.319
88.7157
89.0836
121.875
88.6919
90.3048
90.3971
96.2974
90.6063
89.1232
89.3822
96.2871
88.3929
90.3585
88.6909
103.853
92.8848
88.9574
89.0279
90.5016
96.3303
90.4735
88.7262
89.1197
88.8751
90.3855
90.0866
88.9102
89.1907
88.6596
98.6992
93.5393
90.5823
90.3808
96.6029
96.2554
89.8279
90.451
88.7198
90.5716
89.2429
89.6593
96.8745
88.7189
92.634
90.3317
90.423
89.2515
90.325
96.5076
89.273
88.8026
115.165
114.467
86.8077
89.3209
88.7382
95.2595
88.8833
88.5477
88.9053
89.2539
89.3597
88.4643
90.3068
88.8776
89.2047
89.9871
113.48
88.6905
88.8861
90.9071
90.4626
88.6935
90.5089
88.7581
96.6131
105.418
89.0919
88.7034
100.586
88.7144
90.4745
127.832
92.543
90.5085
90.9
108.335
89.7802
90.2135
88.7021
90.1809
90.0742
97.2096
89.1793
90.0185
107.522
90.7623
97.0394
98.0592
96.2029
88.5975
88.7465
97.644
89.9961
90.5138
106.624
90.0129
90.0899
89.3592
106.057
105.423
89.406
99.6027
89.1876
88.5956
90.5448
89.2172
88.7539
90.56
116.7
89.7384
98.8823
97.6969
101.303
102.38
106.782
88.7049
90.6078
102.916
104.74
103.149
89.7682
88.5391
96.3208
96.6534
97.0257
106.602
89.2489
104.831
109.721
101.361
96.1034
89.3145
88.858
108.19
98.4385
103.973
89.0113
96.9049
90.318
88.6946
89.6555
100.312
90.5275
89.2603
90.2345
88.727
88.6476
88.8682
102.316
91.4598
90.0334
104.653
90.2739
88.7156
88.8787
107.327
90.3152
98.6663
109.702
139.497
95.6564
96.7096
90.3483
88.6956
91.4676
95.8723
90.5579
88.7722
109.764
88.7106
90.6319
88.4751
92.9333
89.3276
88.1786
90.5931
97.1333
95.9826
89.8809
90.3531
78.5959
97.8539
97.6237
95.051
95.1755
95.3053
98.5595
96.7074
101.46
89.3161
88.6022
97.3161
88.5309
88.8941
88.725
90.46
89.0757
90.2234
88.7624
90.7207
88.7756
90.7315
90.1807
96.106
88.3942
90.4545
97.8443
113.649
98.3066
95.041
85.0841
111.869
88.7123
88.7729
88.8682
96.3777
89.2963
88.8264
88.4281
89.9963
120.379
88.5416
89.6743
89.0387
96.503
96.6311
96.2807
89.9541
88.7126
89.2454
88.5246
90.6456
95.0332
107.108
90.5581
88.7299
115.023
97.5928
89.6585
88.9948
90.1203
105.749
86.5316
88.6685
89.2076
96.5347
90.3808
88.7994
88.851
89.9081
96.8484
90.7523
88.4761
83.2352
81.8408
114.034
98.3261
87.0898
86.6264
96.7563
90.3406
86.6941
90.1868
88.74
89.9801
88.7525
89.6103
89.5388
90.1384
90.1967
110.859
113.11
98.4596
90.8774
90.0131
90.215
89.5291
96.2036
89.8556
89.5737
90.0073
89.1446
89.4728
96.9243
88.8933
88.7955
90.1949
96.9965
88.5589
96.3561
96.3898
98.264
88.8234
96.7547
90.3665
107.45
89.8475
107.564
88.611
88.8288
89.238
88.9551
88.8435
89.6117
89.9954
89.4382
90.9215
88.9458
96.7076
90.3172
90.7048
88.5811
72.4386
90.5482
89.4034
90.7642
90.4631
90.3889
89.7589
90.4325
107.545
88.7183
90.5659
89.2375
90.5195
89.0306
90.9338
90.6695
88.6914
89.4559
89.1204
90.7309
90.7187
95.0761
90.526
89.5185
90.528
89.9693
89.0093
85.5591
90.4795
89.7677
96.4718
90.7093
90.7183
89.1406
89.0943
99.3896
90.3688
89.5799
90.1377
86.6207
90.3838
96.0511
90.7408
93.834
90.4856
96.8152
90.4727
88.9707
97.2573
88.7348
89.5677
102.628
79.554
90.5432
90.7582
88.7358
97.2526
86.7413
88.9726
96.999
86.9102
88.9996
94.7534
90.0234
90.5349
90.0773
96.2833
99.4697
111.811
88.0373
91.144
90.8355
89.4022
90.637
88.989
91.9037
88.3874
82.6923
99.4227
88.7357
88.5532
89.3583
88.9996
110.803
90.6009
89.8795
88.7227
89.8244
88.3969
90.7898
90.2265
96.3779
90.2088
89.2812
91.4351
90.4807
90.4401
88.7242
90.3478
88.6112
81.8079
90.5759
104.936
88.7188
88.7207
95.4886
90.8301
89.2135
86.4796
88.4185
89.415
99.2603
90.1633
115.794
90.3626
89.575
92.7806
81.3692
118.116
90.116
88.7032
96.7025
95.9832
90.7826
88.7435
95.7941
90.3979
95.1476
96.5605
89.2748
90.3277
94.8865
97.4236
97.3862
90.4267
90.2219
89.4398
89.9317
116.73
90.4649
91.4801
112.562
96.5656
88.9152
90.0605
100.628
89.6858
117.24
94.1023
90.7777
88.5598
97.4785
90.768
92.7896
90.1953
90.6382
88.733
77.8082
88.6934
97.1057
88.9042
90.3874
88.7172
100.447
88.4117
89.0984
90.3176
113.105
89.2221
114.091
88.8887
88.3539
108.099
110.466
88.3246
89.4821
97.3417
90.5703
80.5294
90.7637
89.2109
90.2181
86.3931
88.4777
97.4195
90.0873
90.7997
89.9326
88.6105
88.8773
88.7899
91.8586
88.3578
90.3273
88.7348
88.7023
90.136
90.1532
90.6246
95.9503
80.7225
90.3301
90.1522
96.6956
82.3548
90.3822
88.7045
88.7058
88.7083
89.5018
90.1997
100.365
107.626
97.1989
81.8865
90.5365
90.0406
88.746
90.4923
111.33
113.686
90.3528
88.7075
90.7103
96.8219
86.4897
89.3334
92.4028
94.9345
95.1159
114.563
90.0053
88.6389
90.194
108.546
82.4059
110.411
90.5555
90.0358
92.2839
95.6608
89.4881
97.8303
90.102
88.6751
94.5233
99.0618
90.6028
89.65
90.6125
80.567
89.9624
88.597
97.0132
88.6356
89.5478
87.9674
89.3876
89.1824
98.069
92.1658
88.79
90.5953
96.8431
96.5624
97.6409
90.6634
88.8843
89.3687
89.8978
84.885
88.6196
88.4542
89.6148
89.2854
90.5989
95.0752
90.1427
89.1826
113.177
88.5573
115.896
95.5204
95.7885
98.2216
86.9007
90.5515
77.435
90.5452
90.6267
80.9288
90.5369
88.4423
89.9645
89.3641
89.3083
92.0017
86.8028
88.9082
89.8262
90.6115
88.7674
89.4429
114.76
90.5328
88.8175
96.3621
89.38
89.8616
90.5704
90.0537
91.6325
90.6133
89.2038
88.755
88.3313
95.4352
91.9726
96.4343
94.5455
89.1324
82.3543
88.6412
89.6191
89.0894
89.1189
89.9599
96.8929
88.6158
96.0646
93.3873
89.9657
96.8745
99.317
88.9203
88.8994
120.033
125.707
88.5234
89.8235
90.5487
90.5285
89.9586
89.1758
94.9744
92.0731
93.5346
88.7125
90.7823
95.4815
89.4069
88.9771
88.7645
90.3825
90.5912
96.8106
88.9074
90.3407
90.1229
90.5578
89.9232
96.5266
88.5636
90.3653
95.2311
98.8633
89.889
90.0395
88.9626
90.3799
89.0941
90.1253
89.3995
89.2418
90.3658
90.6751
88.2829
90.2726
88.2936
91.3452
85.8026
90.8961
89.8918
90.3065
88.3941
88.6724
90.5244
88.5005
97.5948
88.7386
72.2525
96.2125
89.4384
90.5309
116.373
89.1363
89.5422
86.6753
90.5349
88.7828
90.3233
96.1237
89.1765
88.7106
88.7726
94.81
90.284
89.2101
89.3539
88.6006
89.4343
96.3846
90.714
88.8295
89.0675
88.3222
116.043
88.509
91.1189
90.1012
90.3643
98.6329
88.7138
99.1615
97.8437
90.7332
88.6758
90.1066
89.1475
89.4453
88.7636
88.7403
120.676
90.376
88.6176
100.513
88.5481
112.27
95.8971
99.8832
90.4039
95.6316
89.2434
90.3841
88.9114
90.6727
81.6362
90.1423
90.6072
88.7688
94.2427
88.7414
90.7792
88.6682
90.8163
97.5439
96.8823
96.6238
90.094
84.7867
94.8681
96.169
97.0046
96.3772
88.4221
89.8716
90.3945
90.0924
97.3534
112.989
90.1902
90.2267
90.3403
90.0449
89.0159
96.4002
98.0172
79.0651
122.691
86.7931
87.3009
115.734
88.7912
89.2851
96.6133
)
;

boundaryField
{
    frontAndBack
    {
        type            empty;
    }
    wallOuter
    {
        type            zeroGradient;
    }
    inlet
    {
        type            zeroGradient;
    }
    outlet
    {
        type            fixedValue;
        value           nonuniform 0();
    }
    wallInner
    {
        type            zeroGradient;
    }
    procBoundary0to1
    {
        type            processor;
        value           nonuniform List<scalar> 
29
(
88.1114
87.8335
86.2513
86.2513
80.5742
80.5742
114.838
86.2276
84.2931
86.1852
86.4577
80.7817
86.354
88.31
115.171
115.501
80.1233
80.8143
86.162
87.811
115.369
115.253
82.0513
115.574
115.715
80.8143
116.322
114.742
115.574
)
;
    }
    procBoundary0to2
    {
        type            processor;
        value           nonuniform List<scalar> 
42
(
89.8495
89.751
90.3545
90.2783
90.0016
89.8495
90.3545
90.2777
89.9433
89.886
90.0146
89.9275
90.0146
89.9027
89.8306
90.0118
89.8306
89.9105
89.8978
88.2212
88.2212
89.9105
89.9853
88.7552
88.7552
90.0693
89.2946
90.1736
89.9619
89.7805
89.7805
90.2382
90.259
90.2589
90.2568
90.3545
89.7036
90.3041
89.9619
90.2777
90.1988
90.249
)
;
    }
}


// ************************************************************************* //
