/*--------------------------------*- C++ -*----------------------------------*\
| =========                 |                                                 |
| \\      /  F ield         | OpenFOAM: The Open Source CFD Toolbox           |
|  \\    /   O peration     | Version:  v1912                                 |
|   \\  /    A nd           | Website:  www.openfoam.com                      |
|    \\/     M anipulation  |                                                 |
\*---------------------------------------------------------------------------*/
FoamFile
{
    version     2.0;
    format      ascii;
    class       surfaceScalarField;
    location    "0.83";
    object      phi;
}
// * * * * * * * * * * * * * * * * * * * * * * * * * * * * * * * * * * * * * //

dimensions      [0 3 -1 0 0 0 0];
oriented        oriented;


internalField   nonuniform List<scalar> 
2708
(
1.521e-05
-3.85238e-05
-3.77479e-06
2.70886e-05
-3.96753e-05
5.01086e-05
-0.000158589
0.000148156
0.00123929
0.000236519
-0.000913955
-0.000561855
-0.000326099
0.000184306
6.25357e-05
7.92569e-05
1.4593e-05
-5.51613e-06
-8.46439e-05
7.5567e-05
0.000457165
0.00035205
-0.000238758
-0.000570457
6.76848e-05
9.57738e-05
0.000602206
-0.000825882
0.00100623
-0.00078255
0.000193105
0.000317031
-0.000412613
-9.75228e-05
0.0001574
0.000262261
-0.000296147
-0.000123514
0.000257768
1.60562e-05
-2.37951e-05
-0.000250029
-4.97875e-05
0.000127749
-7.79618e-05
2.17369e-05
-3.4378e-05
-1.12201e-05
2.38612e-05
0.000851273
-0.000865744
4.13902e-05
-2.69184e-05
0.000136025
-0.000140056
5.96519e-05
-5.56213e-05
-8.32778e-07
-0.000326044
0.000326877
-0.000219372
0.000197831
0.000157567
-8.6941e-05
0.000243658
-0.000187921
3.12036e-05
-4.55428e-06
-2.2125e-05
2.66793e-05
0.000256482
4.23519e-05
-4.1066e-05
-7.49902e-05
-4.06401e-05
1.05708e-05
0.000105059
-0.000110244
-0.000163923
-3.82288e-05
7.31181e-05
0.000270589
-0.000305478
0.000821853
5.86091e-05
-2.91897e-05
0.000376573
7.74085e-05
-0.00040621
-4.77711e-05
0.000231826
-5.75379e-05
8.2194e-05
-0.000414809
0.000345802
-0.000155024
0.000224031
3.455e-05
-1.94145e-05
-0.00088088
-0.00103805
8.35611e-05
0.000958576
-4.08887e-06
-0.000230284
0.000143488
0.000101252
-1.44567e-05
-0.000436128
0.000977349
-0.000560508
1.92879e-05
0.000930319
0.000449987
-0.000614564
-0.000765741
0.000210739
0.000196173
-0.000406912
0.000117858
-0.000143866
2.60074e-05
0.000103404
-0.000145201
4.17974e-05
-0.000876915
0.000874503
0.000674012
-0.0006716
0.000145318
-2.89603e-05
-0.000179435
6.30768e-05
-0.00118646
0.00114317
-5.22653e-05
9.55487e-05
5.7431e-05
-6.26183e-05
-0.000124954
-0.0014009
-3.51501e-05
0.000249589
-0.000359023
-0.000257331
4.24682e-05
0.000573886
0.000114744
-1.57281e-05
-9.90157e-05
-3.612e-05
4.99243e-05
-0.000131102
0.000117298
-4.92116e-05
7.52555e-05
-0.000133287
0.000107243
0.000141631
-5.07259e-05
-0.000221874
0.000130969
7.41743e-05
0.000138014
-9.90919e-05
-0.000113097
5.34577e-05
0.00067669
-0.00037469
-0.000355458
-1.76629e-05
2.80603e-05
-0.000956598
0.0009462
-0.000656172
0.00116385
-0.00087125
0.000363569
3.00234e-05
-0.00108278
0.00110922
-5.6466e-05
0.000225628
-1.99283e-06
-0.000231164
7.52948e-06
-0.000433161
0.000275008
0.000315553
-0.000561138
0.000324892
0.000429351
-4.56497e-05
5.03738e-05
-5.13454e-05
4.66213e-05
-3.52695e-05
4.95518e-05
-8.35499e-05
6.92676e-05
-0.000970648
0.000114351
0.000953514
-9.72162e-05
-7.2384e-05
-8.73422e-05
0.000461035
-0.000301309
-0.000141098
-7.02799e-05
0.000621834
-0.000410456
-0.000567868
0.000529632
-4.60532e-05
9.45759e-05
-0.000123513
0.000329896
-0.00027566
-7.78297e-07
0.000120607
8.06561e-05
-7.67801e-05
-0.000124483
0.000459366
-0.000744213
-0.000592068
-0.000426817
0.000472306
0.00101201
-0.00105749
0.000847937
-0.000171121
-4.76386e-05
-0.000629177
-4.02395e-06
8.6184e-06
-0.000255166
0.000250571
0.000222334
-2.20425e-05
2.66941e-05
8.06177e-05
-4.91328e-05
-5.81789e-05
-0.000624535
0.00102956
-0.000734703
0.000329674
8.17381e-05
5.41921e-05
8.36331e-05
-1.16895e-05
-7.95932e-05
7.64961e-06
-0.000109491
-3.657e-06
-1.74958e-06
0.000114897
6.48499e-05
0.000145889
2.09997e-05
8.81566e-05
-0.00010567
-3.48604e-06
2.1632e-05
0.000646304
-0.000431417
0.000967532
6.29576e-05
-0.00101545
-1.50425e-05
0.000137057
-0.000265279
-6.86477e-05
0.00019687
-0.000953762
0.000926179
-0.000399234
8.18521e-06
0.000234203
-3.98074e-06
-0.000238408
-3.07545e-05
4.00522e-05
-3.49648e-05
2.56671e-05
4.78106e-05
-0.000137975
0.000186941
-9.67764e-05
-0.000278332
-6.45671e-05
0.00020266
0.000140239
8.72607e-05
-0.000103857
3.61832e-05
-1.95872e-05
0.000126101
-5.09691e-06
-0.000139382
1.83785e-05
-6.57444e-05
-4.10198e-05
6.05942e-05
4.617e-05
0.000781882
7.78407e-05
-3.78691e-05
-0.000120658
0.000143295
-0.000190915
0.000168278
0.000122245
0.000118056
-0.000111144
-0.000129157
-0.000201454
0.00018136
-4.56499e-05
0.000115276
4.14327e-06
6.68172e-06
0.00113037
-1.75018e-05
3.03041e-05
-5.19704e-07
3.20534e-06
-0.000185845
0.000183159
-6.99267e-05
0.000123963
-0.00010009
-1.27561e-05
-9.72924e-05
5.57892e-07
-6.59422e-05
-0.0010032
0.00103136
3.77887e-05
-0.000129061
-2.18125e-05
0.000129215
2.16583e-05
-0.000806604
-0.000285696
7.34407e-05
2.41144e-05
-7.0861e-05
3.01493e-05
-0.00108726
0.00108737
-3.02653e-05
-6.08947e-05
1.62756e-05
0.000125404
-8.07845e-05
-0.000127999
1.11618e-05
-1.80646e-05
0.000134902
0.000204918
2.02159e-05
8.02278e-06
-0.000233157
4.20095e-05
-7.84127e-05
-4.37751e-05
8.01783e-05
0.00104012
-0.00146435
0.000184125
0.000240105
0.000476388
8.98761e-06
1.25956e-05
-0.000497971
8.83087e-05
8.78514e-05
-0.000958379
2.28089e-05
6.08341e-05
-8.79128e-05
4.26985e-06
-7.04948e-06
0.000170524
-0.000216224
5.27497e-05
5.56393e-06
-0.000175309
0.000165721
0.000845293
-0.000579338
4.90928e-05
-0.000315047
-0.00022717
0.000142207
0.000205569
3.93314e-07
-1.3988e-06
0.000205923
1.10955e-05
-3.74873e-06
-0.000135346
-0.000147338
-5.65335e-05
0.00011693
3.48066e-05
-2.17649e-06
-4.51153e-05
1.24852e-05
0.000727799
9.91936e-05
-4.51107e-05
0.000171355
0.000166449
-0.0011391
0.00114112
9.59015e-05
-9.79226e-05
-0.000302924
-0.000399311
-0.000215027
-0.000290517
0.000773161
0.000179012
-0.00082374
-0.000128434
-0.000993293
-0.0006374
0.00105511
0.000575585
2.33773e-05
-2.9954e-05
-1.68682e-05
2.34449e-05
0.000117269
-4.4321e-05
0.000654851
-7.08254e-05
1.58311e-05
5.13373e-05
-2.26604e-05
4.77016e-05
-6.91453e-05
4.41041e-05
0.000822539
-0.00104108
0.00035657
-0.00013803
-9.53102e-05
6.38308e-05
2.04855e-05
1.09939e-05
-0.000352127
2.012e-05
-0.000102367
-0.000756119
0.000858485
-9.27015e-05
-0.000191735
0.000223541
-3.67224e-06
-8.84671e-06
0.000127795
-5.7384e-06
5.07729e-05
-0.000246489
8.86301e-05
-1.29788e-06
-3.69911e-06
-1.17819e-05
3.25879e-08
0.000167987
-0.000156237
-0.000105468
0.000129518
-8.73683e-07
-2.31768e-05
-0.00033347
-7.972e-05
6.10626e-05
-0.000335916
4.54166e-05
0.00031163
-2.11301e-05
-0.000103955
-3.72051e-06
0.000104003
0.000899193
-2.32785e-05
-0.000766354
-0.00010956
-0.00010389
0.00111269
0.000155049
-0.00110996
9.22965e-05
0.000860068
-0.00102792
-0.000262891
0.000430739
-0.000227199
-0.000988347
0.00118983
2.57181e-05
0.000155263
-1.23443e-05
-2.53832e-05
9.77661e-06
0.000104237
-0.000918037
0.000882008
-0.000275513
0.000311541
0.0012706
7.66186e-05
-0.000315817
-0.0010314
-4.97054e-05
0.000906791
-9.14838e-06
-8.98012e-05
0.000132561
-8.96963e-06
-3.379e-05
-9.60289e-07
-2.97942e-05
7.00096e-05
1.06465e-05
-4.22821e-05
-4.12994e-05
-0.000930231
-0.000378097
0.000354565
-0.000271042
-9.81477e-05
0.000276488
0.00090942
0.000115217
-0.000179345
-0.000188914
0.000900675
-0.000885697
0.000173936
0.000247696
-2.68114e-05
2.27734e-05
-0.000161118
0.000178087
-3.47098e-05
-2.86208e-05
7.96062e-05
-1.84314e-05
7.17147e-05
-5.289e-05
-2.28145e-05
0.000135789
-7.06622e-05
-2.26599e-05
8.62727e-05
-9.54557e-05
4.83379e-05
2.14187e-05
2.83925e-06
-7.49498e-06
-0.000102123
6.60381e-05
-0.00015565
-0.000948357
0.000183101
0.000882526
-3.33152e-06
0.000217049
-0.00021455
0.000369719
-0.000584085
-0.000554759
0.000769125
1.41477e-05
0.000238294
-0.000876977
-3.38775e-05
0.000918627
1.44434e-05
8.37836e-05
4.04282e-05
-0.000124212
-2.29768e-05
1.72384e-05
0.00108449
-0.00126108
-0.000153358
0.000329956
0.000158555
7.15079e-05
-8.65745e-05
-0.000820633
-0.00035141
0.000854093
0.00031795
-8.42915e-05
0.00104656
-0.000949752
-1.25184e-05
-1.97671e-05
0.000139507
-2.72803e-05
-9.246e-05
0.000127038
-0.000981694
0.000947625
-9.29685e-05
0.000175243
-0.000152477
-0.000249936
-0.000333644
0.000247664
0.000946048
-0.000925028
0.000913814
-0.0001777
0.000627811
-0.000604943
3.19239e-06
0.000554755
-0.000507174
-6.39634e-05
0.000175132
-0.000332939
-0.000909216
0.000311924
-2.83613e-05
-0.000160393
0.000223387
-3.46324e-05
-0.000338002
0.000349322
-9.42101e-05
8.28899e-05
0.000104323
0.00101753
-0.000892873
-0.000158532
0.000277409
-2.98215e-05
1.16443e-05
-0.000259232
-0.000153739
0.00016602
0.00112884
8.16073e-06
2.31713e-05
0.00100879
0.000127343
0.000935947
-0.00100324
-6.00524e-05
-3.68415e-05
-3.99386e-05
-2.70649e-05
2.83628e-05
-0.000209833
0.000280411
-7.0578e-05
-0.000200194
-0.000917865
0.000200022
-0.000327533
-7.51843e-05
4.36943e-05
-0.000198072
-0.000248753
3.98736e-05
-4.80686e-05
4.07989e-05
0.00102333
-8.67826e-05
-0.000977345
-1.59863e-05
0.000137802
-0.000125524
3.70764e-06
-7.5151e-05
0.00105727
-0.00065081
-0.000265342
0.000675128
-1.25287e-05
-0.000889798
0.000133001
0.000834633
-0.000194473
0.000977428
0.000148993
-0.000159342
-0.000967079
0.000170312
-3.33455e-05
-0.000224309
0.000177454
-5.15544e-05
-0.000196179
0.000204899
0.00089921
-0.000194688
0.000178905
5.01205e-05
-0.000257386
-8.14101e-05
0.000100877
5.21223e-06
-2.46791e-05
0.000369025
-9.18632e-05
0.000583858
-0.00086102
0.00035316
-0.000100275
0.000514972
0.00122794
-0.000554513
-0.000359441
0.000810542
-0.000883982
-1.84233e-05
-0.00102087
-0.000832973
0.000592754
0.000837056
-0.000904248
-0.000230958
-0.00101146
4.94205e-05
0.00100343
0.000882446
9.81104e-05
-1.31077e-05
-8.08595e-05
-0.000164089
0.000184048
0.000161401
0.00101264
0.000201048
-0.000531705
0.000962242
-0.00125642
-0.00041674
-0.00092313
0.000808165
-0.000616306
0.000874694
-8.20155e-05
-0.000991756
8.54248e-05
2.85645e-05
5.99141e-05
-7.32687e-05
-0.000937617
0.000664255
-5.9578e-05
-4.2021e-05
2.84593e-05
-2.41927e-05
3.77543e-05
-0.00110937
-3.58918e-05
0.00107011
-0.000188578
0.000171389
-0.000261646
-7.90887e-05
0.000132352
0.000208383
-0.000506783
0.000628147
-2.65676e-05
1.73362e-05
-3.30506e-05
-1.90325e-05
1.90071e-05
-2.65422e-05
0.000757001
0.000175039
0.00015644
-0.0010039
0.000154732
-0.000974051
-8.70508e-05
0.00117373
-0.00011263
0.000141832
-8.64477e-05
0.000147731
-0.000128861
0.000792445
0.000489606
-0.00115471
0.000196654
-0.000264177
-0.000964352
0.000987932
-2.35793e-05
0.000104184
-0.000105631
1.44714e-06
1.09486e-05
-2.36696e-06
-5.06026e-05
-0.00104875
-2.41601e-05
0.00107291
-0.00100548
0.00101678
-1.13001e-05
-0.000934329
-1.5727e-05
-0.000476183
0.000180439
-4.01722e-05
0.000244471
-0.000873305
-0.00102472
4.78095e-05
-0.000989416
0.00108532
0.000909169
-0.000232265
-0.000933902
-0.000117877
0.000943051
0.000108728
-0.000202754
2.60735e-05
0.000293394
-0.000116713
0.00100073
2.36609e-05
0.000445123
-0.00098035
5.52304e-05
-4.89311e-05
8.81299e-05
-0.00101906
-3.43861e-05
-0.000899943
0.00102868
-0.000671383
-3.85144e-05
0.000141354
2.25642e-05
0.000135433
-7.1238e-05
-0.000113983
2.1103e-05
-2.31775e-05
-0.000146062
0.000148137
-0.000413099
-9.80753e-05
-7.58104e-05
-0.000639727
1.18308e-05
-1.12014e-05
2.78299e-05
1.84869e-05
-2.68569e-05
-7.30401e-05
-4.85423e-05
0.000233569
-0.000967997
-0.000411892
-0.000844466
0.00053209
0.000724268
-0.00101311
-0.00105147
-9.26048e-05
5.52278e-05
0.00108885
0.000551623
3.19703e-05
0.00115906
-1.35079e-05
-0.00117753
-0.000686134
-0.000546391
-7.97801e-06
-0.000138973
0.000244646
-9.76956e-05
0.000977053
-0.00103969
-0.000383446
0.00020342
0.00121972
-2.59425e-05
9.2472e-05
3.77935e-05
0.00019266
-0.00106862
0.001003
1.58751e-05
8.68069e-05
-9.17334e-05
-0.000235126
0.000203521
-0.00134702
-2.25425e-05
-4.34596e-05
4.62401e-05
-3.74084e-06
0.000305543
0.00102182
-6.52443e-05
-0.00126212
0.000177431
3.6552e-05
0.000105049
-0.000125726
0.000378543
-0.000261052
-1.75525e-05
-1.53966e-05
2.13661e-05
-3.8263e-07
0.000864317
-2.0459e-05
-6.06335e-05
8.49803e-05
-3.88786e-06
3.76598e-05
-0.000134933
-4.16747e-05
-2.6952e-05
-0.000139716
0.000148954
2.73137e-05
-4.56247e-05
-0.00033095
-3.65251e-05
4.93438e-05
-5.88001e-05
3.3046e-05
-2.35897e-05
0.000304444
-0.000983103
7.38332e-05
8.79236e-05
7.29199e-05
0.000118936
-6.6739e-05
8.11744e-05
8.65758e-05
3.42626e-05
-0.000365687
0.000376841
6.38901e-05
-6.36515e-05
1.15921e-05
-4.11331e-05
2.96704e-05
5.84774e-05
-4.70147e-05
6.06294e-05
7.01246e-05
0.000405158
0.0009234
-0.000402379
-4.18387e-05
-7.17883e-05
6.04095e-05
5.32175e-05
0.00107972
4.6412e-05
-2.88913e-05
-3.39981e-05
1.64774e-05
1.1978e-05
5.25778e-05
-5.49441e-05
-9.6117e-06
-3.06829e-07
-2.07486e-06
-8.81968e-06
-0.000121306
0.00016957
-0.000208658
-4.37035e-05
-0.000139024
0.000103638
-0.000177343
-1.23712e-05
0.000192554
-3.89744e-05
6.49355e-05
-2.38987e-06
-0.000176946
-3.09691e-05
-2.09016e-07
-1.29324e-05
4.41105e-05
0.00117806
-0.000891904
4.82543e-05
-6.0945e-05
0.000134008
0.000104254
-0.000249111
-0.000547832
0.000692689
-5.39303e-05
4.64545e-05
7.47577e-06
0.000105225
-0.000916302
-7.29049e-05
4.36481e-06
-1.18233e-05
7.45845e-06
9.22227e-06
-3.18188e-05
2.25966e-05
5.46844e-05
-6.37518e-05
9.0674e-06
-8.87093e-05
3.16535e-05
5.70557e-05
1.90101e-05
-5.80105e-06
-1.32091e-05
-4.0726e-05
-1.27326e-05
5.34586e-05
0.000109016
-0.000107412
-1.60404e-06
-3.38495e-05
4.67363e-05
-1.28867e-05
-0.000107404
1.8695e-05
2.99764e-05
-1.09663e-05
-5.41553e-05
2.25031e-07
-9.74576e-05
0.000102212
-4.75447e-06
5.20755e-05
-5.00994e-05
-1.97616e-06
0.000101794
-1.4878e-05
-1.89716e-05
0.000108496
4.71238e-05
-5.35628e-05
6.43896e-06
-3.13253e-05
4.05476e-05
-8.76958e-06
1.31344e-05
-0.000106656
1.02534e-06
-1.99434e-05
3.95108e-05
-1.95674e-05
1.11325e-05
-5.75159e-05
2.455e-05
2.18335e-05
1.24729e-05
8.17498e-05
-6.33314e-05
-0.000121279
0.000144935
-2.68665e-05
8.09638e-05
8.81342e-05
-0.000113634
0.000242406
-0.00013675
-9.19752e-05
2.03734e-05
0.000172479
3.98846e-05
-3.77945e-05
-3.09815e-05
1.72916e-05
-0.00032991
-0.000637133
-0.000338905
0.000387829
0.00106219
-0.000113745
1.62873e-05
1.18395e-05
-1.20457e-05
2.062e-07
2.28839e-05
2.3359e-05
-1.07496e-05
-3.48214e-05
1.83967e-06
5.89405e-05
-1.94297e-05
-7.41905e-06
-5.19973e-06
1.5305e-05
-1.35089e-05
1.68561e-06
-0.000334355
-0.000615197
0.000361527
0.000588026
0.00103929
-0.000267081
7.93e-05
1.54992e-05
-5.33636e-05
4.81032e-05
-1.02388e-05
-2.95904e-05
3.96953e-05
0.000915137
-0.000924551
9.26696e-05
-8.32557e-05
2.30915e-05
1.51876e-05
-3.43399e-05
-3.93919e-06
4.89785e-05
3.09699e-06
-6.95872e-05
-1.51128e-05
5.07019e-05
2.99949e-06
-0.000178499
1.10035e-05
-7.48271e-05
1.82655e-05
4.55581e-05
0.00109092
-0.000294507
5.67334e-05
2.24065e-05
-2.97961e-05
0.000424277
-0.00108351
0.000964779
-7.67383e-06
-1.68051e-05
3.77331e-05
1.46244e-05
0.000156966
-0.000370195
0.0007282
-8.6763e-05
8.65918e-05
-7.62383e-05
0.000693471
0.000670564
-0.000489532
8.20607e-05
-7.93303e-05
0.000657794
-0.00036187
-0.000295924
-7.9593e-05
7.81257e-05
4.5366e-05
-4.38987e-05
-0.000396789
-0.000127695
0.00032173
-4.98841e-05
-4.39922e-05
3.46476e-05
5.92287e-05
1.80144e-05
1.1412e-05
-6.32201e-06
-2.8757e-05
5.22606e-05
-1.79108e-05
-5.59281e-06
-6.44399e-05
6.33146e-05
-3.71189e-05
3.82442e-05
6.51956e-05
-5.07854e-05
-0.000172836
0.000158425
-6.49632e-06
-1.94812e-05
-2.77947e-06
-5.52013e-05
4.78383e-05
-7.223e-05
-0.00014045
-2.89991e-05
0.000234644
-4.99217e-05
0.000117246
-7.91009e-05
1.17764e-05
7.83766e-05
-8.89329e-05
-0.000111884
0.000107989
9.28277e-05
-0.000134774
-0.000105575
-8.75925e-07
5.56657e-05
-6.8276e-05
0.000122559
5.19048e-05
-4.31467e-05
-0.000131317
2.62888e-05
1.29532e-05
-0.000122084
-1.32813e-05
5.89363e-05
7.64294e-05
-3.11597e-05
3.84304e-05
4.49899e-05
-0.000165151
-3.85793e-05
0.000153809
-0.00012499
-0.000121852
7.40068e-05
2.98399e-05
0.000372436
-0.000338173
9.86789e-05
-0.000141271
0.00016699
-0.00010689
-1.0135e-05
2.87715e-06
7.25787e-06
6.2723e-05
2.02836e-05
-7.15425e-05
-1.14641e-05
5.52843e-07
2.84869e-05
3.36833e-05
-9.20375e-05
-2.36727e-05
2.6626e-05
6.65068e-05
-9.31328e-05
-8.09224e-05
0.000134086
-1.25887e-06
-0.000111134
-1.29349e-05
-2.9228e-05
-4.31984e-05
7.98653e-06
-6.81559e-05
9.66698e-06
5.90417e-05
1.92539e-05
-3.03475e-05
7.44082e-05
-1.22148e-05
3.17043e-05
-3.74002e-05
-3.60803e-05
5.96928e-05
-4.35864e-06
4.20989e-05
-3.02018e-05
-4.11251e-05
3.04825e-05
-3.63691e-05
-3.73118e-05
-2.43289e-05
2.38934e-05
3.54414e-05
0.000272675
-0.000278161
0.000248684
-0.000243199
2.78212e-05
3.51688e-05
-6.299e-05
-2.2064e-05
-1.07144e-05
-2.05458e-05
-0.000228921
0.000211238
1.95874e-05
6.10393e-05
9.06683e-05
-9.64966e-05
2.54157e-05
-4.19662e-05
-0.000446817
-0.000109379
0.000221841
-4.61414e-05
-4.90937e-05
7.46893e-05
2.69448e-06
3.80897e-05
0.000518337
-0.000271684
0.000276729
-0.000277137
-3.30018e-07
7.37412e-07
-4.32378e-05
1.76153e-05
0.000872942
-0.000215148
7.32332e-05
-2.52372e-05
-9.41373e-05
3.13e-05
-7.25977e-05
-0.000804
0.00070714
0.000680912
-0.000814347
0.000578074
-0.000487811
0.00025906
-4.7921e-06
3.73813e-06
1.05398e-06
-2.35032e-05
0.000273888
9.709e-06
-6.86739e-06
-0.000144403
0.00101734
-0.00110571
-0.0011405
9.60507e-05
-0.000102774
-8.75029e-05
-0.000165315
9.6269e-06
2.80293e-05
3.84279e-05
-2.13064e-05
-4.51508e-05
-5.32503e-05
5.0282e-05
4.55036e-05
-4.25352e-05
-1.29489e-06
2.79209e-05
1.58225e-06
5.07335e-06
2.27479e-05
-4.81492e-05
4.25714e-05
4.02254e-05
-0.000763505
0.000937791
0.000532854
8.81148e-06
1.3445e-05
0.000268084
-7.64157e-06
-0.000444798
7.92882e-05
0.000365509
0.000183157
-7.48328e-05
6.31623e-05
-0.000171487
9.50342e-05
-8.93771e-05
-0.000930208
-4.36896e-05
4.0786e-05
0.000186061
-0.000189874
-6.77805e-07
0.000520818
0.000156184
-0.000677002
-2.62009e-05
0.000135219
8.22847e-06
-5.45745e-06
-0.000161941
7.84653e-05
-0.000172991
5.56496e-05
0.000101726
-0.000114749
4.09432e-05
3.82926e-05
-5.51418e-05
-5.15311e-05
4.24415e-05
-6.31789e-05
4.18889e-05
4.40378e-05
0.000382475
-1.00394e-05
2.31048e-05
0.00035937
1.12711e-05
0.00016593
-6.82774e-05
5.47307e-05
5.36215e-05
-8.16316e-05
0.00049548
7.60205e-05
2.71972e-05
-5.97337e-05
-1.43563e-05
7.95284e-05
-0.00012777
-0.000148561
-1.02654e-07
0.000160726
-0.000156031
-1.04882e-05
1.32038e-05
-1.95207e-05
-0.000248481
2.21298e-05
0.000239796
-4.02484e-05
4.0793e-05
6.70813e-05
-4.6891e-05
-4.27696e-05
2.25793e-05
5.20494e-05
-6.12619e-05
-0.00015798
2.06905e-05
0.000187259
4.28924e-05
-0.00112369
-7.56601e-06
-0.000927344
-0.000327206
-0.000174711
5.2756e-05
4.98859e-05
3.08786e-05
4.18464e-05
-4.51685e-06
-7.93192e-05
8.64895e-05
-2.65341e-06
0.000196984
3.10616e-05
-5.62324e-05
8.36014e-06
-0.000251898
0.000325756
0.000430292
-0.000504151
2.19393e-06
-0.000160272
-3.86225e-06
-2.9256e-05
-0.000332174
2.73387e-05
-5.725e-05
6.5397e-05
3.02809e-05
0.0001705
-0.000961668
-2.33295e-05
0.000993158
6.34133e-06
-3.27533e-05
4.81872e-05
2.71375e-05
3.20406e-05
-3.94737e-05
1.68965e-05
2.25772e-05
0.000985499
-0.00103776
4.71016e-05
-4.82604e-06
1.57044e-05
2.8053e-05
-7.45654e-05
-7.30197e-06
1.81078e-06
1.05855e-05
-5.09435e-06
4.13563e-05
-2.69718e-05
-0.000328702
1.94678e-05
-9.36515e-05
8.38507e-05
0.000144284
-0.000210726
0.000103453
-9.08834e-05
-1.98719e-05
0.000585968
-0.00030986
-2.5396e-05
-1.32225e-05
2.88408e-05
9.77772e-06
-3.43154e-05
5.63702e-05
-9.35973e-05
-0.000859415
6.06511e-05
0.000162893
8.67222e-05
-0.000167866
7.16799e-05
-0.000242477
1.34839e-05
-1.12603e-05
-2.22354e-06
4.82132e-05
1.73645e-05
-4.24862e-05
0.000256732
-0.000345736
-3.29578e-05
2.39211e-05
0.00027707
-4.91243e-05
7.41264e-05
6.37525e-05
-9.94485e-05
-0.000100538
-0.000152069
0.000186964
0.00026156
-0.0010028
0.000261769
1.45003e-05
-0.000741424
1.98612e-05
-9.3593e-05
7.94978e-05
-1.93403e-05
-9.72626e-05
0.000114293
2.30984e-06
0.000201314
2.77108e-05
-3.32865e-05
-8.81698e-05
0.00110023
1.43518e-05
6.03834e-06
-0.00105419
-3.64658e-05
-8.17406e-05
0.000210602
-1.01068e-05
0.000535131
9.68102e-05
0.000250396
0.00124854
0.00110267
0.000163495
0.000200449
0.00110564
4.33433e-05
-1.90995e-05
9.53435e-06
-4.57598e-05
-0.000116523
-0.000161853
-0.000920878
0.000116693
-3.76367e-05
7.84251e-06
-0.000123226
7.24609e-05
-5.89542e-05
-0.000101677
4.03583e-05
-3.4819e-05
1.66481e-05
0.000184914
0.00014735
-3.90767e-05
-0.000148761
-1.49651e-05
4.89049e-05
1.42475e-05
-9.25161e-05
9.99605e-05
1.64767e-05
0.000835687
-0.000166028
-0.000639568
-3.00909e-05
-0.000750283
0.00069348
0.000318363
1.98261e-05
-6.81847e-05
3.68944e-05
1.80283e-05
-3.72897e-06
5.6926e-05
-1.94078e-06
-0.000242204
0.000327608
0.000152827
-0.000985575
7.86312e-05
0.000645082
-0.000644425
2.993e-06
0.000399686
-0.000379574
-6.98589e-05
-1.2319e-06
-4.74989e-05
8.68945e-06
2.90162e-05
1.48079e-05
-3.06289e-05
-1.31952e-05
-0.000114667
8.90052e-05
0.000145158
-0.00020305
-0.000130029
-4.87381e-05
7.48388e-06
5.32322e-05
-9.36494e-05
7.6857e-05
0.000841427
2.94716e-07
1.31834e-06
2.74031e-05
-3.07023e-05
-2.67538e-05
-2.9326e-05
4.59422e-05
2.83737e-05
-0.00100772
0.00104097
-0.000281999
1.85656e-05
-9.37172e-05
-0.000156819
6.19593e-07
0.000301357
0.000103511
-1.9727e-05
-0.000966873
-0.000199384
4.70228e-05
3.04812e-05
4.02011e-05
0.000790247
5.9793e-05
0.00104634
-0.00101192
0.000148119
-0.000148658
-0.000156279
0.000200966
1.1658e-05
0.000235945
1.77891e-05
-2.40303e-05
-0.000229704
-0.000308815
-2.31633e-05
3.44823e-05
8.50721e-06
-0.000171299
9.02452e-05
-1.94494e-06
1.8329e-06
0.000420246
4.64785e-05
-9.87693e-06
0.000230829
-8.20907e-05
9.83523e-05
-2.44931e-05
-9.13456e-06
7.63301e-05
5.17409e-05
0.000198661
-0.000161649
0.000996824
-0.00124927
0.000266802
0.000155808
4.19482e-05
0.000722376
5.64527e-05
0.000945879
0.000277462
-9.96079e-05
-0.00112373
-7.97375e-05
-1.1561e-05
2.31726e-05
-3.83003e-05
-7.66605e-05
5.57851e-05
4.52544e-05
-2.4379e-05
-0.000136448
0.000213619
-0.000246749
0.000169579
-0.000197418
0.000183214
0.00133463
9.82443e-05
8.81778e-06
3.5017e-05
0.00132649
7.43147e-05
3.35238e-05
3.22873e-07
0.000124132
-4.24456e-05
-7.99337e-06
-0.00103195
8.04721e-05
-0.000138089
-3.63866e-05
2.45415e-05
3.50178e-05
-0.000976202
-0.00116362
0.000737496
-2.25275e-05
-1.42022e-05
-4.36171e-05
3.31559e-06
1.30149e-05
2.72865e-05
8.01039e-05
1.489e-05
-5.43637e-05
8.32878e-05
7.43404e-06
-6.19523e-05
-2.52523e-05
-0.000136287
0.000111
-4.23759e-05
8.07247e-05
-1.02579e-05
-7.60597e-05
1.37677e-06
8.80906e-05
7.77835e-07
5.63036e-05
4.49978e-05
3.79659e-05
-8.22922e-05
7.60524e-06
-0.000157063
-1.89211e-06
-4.25315e-06
9.17783e-07
3.9578e-05
-4.75475e-05
-6.0153e-06
-2.50126e-08
4.16272e-05
0.000861481
0.000132287
1.08456e-06
-0.000814441
3.44483e-06
2.41642e-05
-8.43804e-05
0.00046047
0.000408833
0.000148396
-1.19432e-05
0.00108518
-0.000496092
-2.59136e-05
0.000145809
-0.000136373
9.18168e-05
-5.73996e-05
4.84962e-06
-3.27888e-05
-3.26591e-05
8.95401e-05
2.30188e-05
-1.15643e-06
-0.000727273
0.000677833
4.944e-05
0.000119314
-0.000123001
-4.02121e-05
-4.65159e-06
0.00027603
6.03123e-06
0.000891828
0.000143589
-0.000789322
6.20485e-05
5.12318e-05
0.00107411
-8.95031e-05
-0.000950092
0.00101627
-0.000330743
0.000564172
4.63439e-05
-0.000279773
-3.79972e-05
1.80717e-05
-1.10436e-05
5.80214e-05
0.000619812
-9.12757e-05
0.000103041
0.000107244
-0.000119009
4.59494e-05
-3.25795e-05
4.44407e-05
-5.78106e-05
-0.000201319
4.35443e-05
0.000157774
8.94229e-05
-6.26271e-05
6.24762e-05
8.8285e-05
8.01546e-05
2.3356e-05
-0.000246364
4.50449e-05
-0.000290685
0.000334733
-0.000381178
-0.000284298
-0.000892436
0.000271236
-2.36956e-05
2.95302e-05
-0.000136683
6.97642e-06
3.84252e-05
-9.89088e-05
0.000123395
1.93621e-06
0.000155786
-7.50983e-05
0.000392466
0.000537852
0.000180953
-4.54145e-05
-0.000155266
-0.000479876
0.000461798
1.80777e-05
8.27097e-05
-0.000872031
7.63768e-05
-0.000118914
-4.9047e-05
1.34299e-05
-0.000128379
0.000860438
-0.000335795
0.000373664
-0.000402854
-0.000221185
-7.51412e-05
-0.000159915
7.94945e-05
0.000878367
-0.000194816
0.000355736
-0.000960511
0.000657445
0.00063274
-0.00106705
-5.01224e-05
0.000580982
0.000388368
-0.00031525
-0.000635996
0.000579571
0.00052392
-0.000613885
0.000336824
0.000568503
-0.000265992
-0.000519648
2.14582e-05
0.000507816
0.000114527
2.16444e-07
-0.000636829
0.000758505
-0.000501776
2.19005e-05
-0.000137536
1.38853e-05
0.000369956
0.00055395
1.02074e-05
-2.53255e-05
-3.06417e-05
-1.93143e-05
1.72889e-05
-1.11698e-05
-2.75976e-05
-4.06784e-05
0.000449187
1.26109e-05
-0.000125171
1.08143e-05
3.76964e-05
0.000105204
-0.000168702
-4.23526e-05
-1.46659e-05
4.80319e-05
1.92117e-05
2.71064e-05
-1.60311e-05
4.33698e-05
-0.000429773
-0.000267496
8.22481e-05
2.32408e-05
8.53452e-06
-0.000537009
0.000113607
-0.000131111
-3.71244e-06
-4.34798e-05
-2.72591e-05
-2.48441e-05
1.13115e-05
0.000110103
1.99394e-05
-0.000918954
0.000142839
-0.000100371
9.85997e-05
-0.000169488
0.00101352
-0.000961192
-3.7433e-05
-1.46462e-05
1.75192e-05
1.08808e-06
0.000231304
0.000368549
-0.00108768
3.0725e-05
-7.06328e-05
7.07706e-05
-1.36791e-05
7.57398e-06
8.04133e-06
0.000928182
0.000135035
2.30192e-05
7.8288e-06
-1.86858e-05
-2.88617e-05
-9.21913e-05
-1.08841e-05
-0.000987953
0.000659332
6.44449e-05
-9.00891e-06
0.000247684
9.0209e-06
1.48056e-05
7.4321e-05
-1.21068e-05
0.00111725
6.98426e-05
-0.00108163
-0.000572639
0.000743253
9.81808e-06
-5.05675e-05
8.10322e-05
-0.000108171
0.000164196
0.000504332
-0.000728627
0.000224295
0.000437125
6.72071e-05
0.000448445
-1.13198e-05
-0.000309833
0.0004668
-0.000680028
-0.000603409
-0.000504832
-9.8577e-05
7.80584e-05
-4.83671e-05
0.000111924
-9.46589e-05
-0.000938336
-0.000121167
-6.99124e-05
-2.31572e-06
-1.16624e-05
1.85434e-05
4.70598e-05
-2.45032e-05
9.27896e-06
3.2649e-05
-1.38041e-06
4.00543e-05
1.90442e-05
-3.62146e-05
5.0332e-05
3.25822e-05
-2.68688e-05
-1.50149e-05
0.000437031
0.000814306
-3.37636e-05
2.93259e-05
1.96527e-05
-0.000152024
0.000182303
-0.000100913
-0.000227775
-0.000998473
0.000146392
-2.85214e-05
0.000215146
-0.000477055
-2.77773e-05
0.000273684
-0.000149286
-0.000613929
0.00012973
-5.48047e-05
-3.29962e-05
-4.00061e-05
-0.000163041
-0.000143862
7.48499e-05
5.98778e-05
9.82058e-05
-0.00115226
0.00104055
-3.31682e-05
0.000204606
-0.000204284
-7.48282e-05
7.45064e-05
-2.10602e-05
6.18876e-05
2.00301e-07
-6.39521e-05
0.000161531
-3.32237e-05
7.97208e-05
-0.0011907
1.87111e-06
0.000682758
-0.000383212
-5.40997e-05
2.40218e-07
-0.000250554
-7.63126e-05
-1.32173e-05
5.84348e-05
2.85701e-05
-1.26839e-05
-0.000116262
0.000111165
-0.000134189
5.01896e-05
-2.00574e-05
9.49562e-08
-0.000612728
-0.000373851
0.000128319
0.000170691
7.52625e-05
-0.000200625
0.000112081
1.97896e-05
3.48508e-05
-4.53614e-05
0.00099629
7.57617e-05
2.45364e-05
6.72197e-05
5.75876e-05
0.000161379
-7.56511e-05
-0.000156966
-0.000802882
0.00112288
-1.70557e-05
-3.02547e-05
2.73182e-05
-0.000182141
-5.37029e-06
-5.50055e-06
-4.027e-06
0.00103984
-4.76412e-05
-8.84948e-06
1.79669e-05
0.000207957
0.000155402
-9.34254e-05
-9.90818e-05
9.52769e-05
-0.000861048
4.14577e-05
0.00063849
8.18661e-05
-8.84994e-05
6.09794e-05
0.00108799
7.08849e-05
8.96027e-05
8.74556e-05
-0.000376635
4.87262e-05
0.000203826
-2.28358e-06
-4.27566e-05
-0.000240591
0.000205122
2.79738e-05
-0.00025278
1.97184e-05
6.86978e-06
7.29773e-05
0.000150904
-8.06543e-06
-0.000173559
0.000161215
-0.000965107
0.00103161
-0.000249271
0.000182771
-1.66385e-05
6.08837e-06
3.09335e-05
-3.54878e-05
0.000173444
-0.000247472
0.000522473
-0.000473663
-0.000181454
-3.47834e-05
1.77727e-05
1.60681e-05
-4.55249e-05
4.85084e-05
-4.98927e-05
-0.00115836
3.42485e-06
-3.87591e-05
-0.000116035
-4.28104e-06
0.000171438
-0.00107135
0.000970174
1.78883e-05
-1.8133e-05
0.000993403
-3.43375e-05
0.000558934
-0.000482399
-7.65342e-05
0.000235393
-4.5072e-05
0.000131861
1.07165e-07
1.55284e-06
-2.8919e-06
-0.000899756
0.000909157
0.000133664
-6.93658e-05
0.000300089
-0.000306139
6.05071e-06
-0.000291009
0.000267214
9.07991e-06
-0.000311288
5.14825e-06
0.000226148
0.00016861
0.000319983
-0.00106641
0.000104646
-1.18669e-05
-8.48274e-06
3.50161e-06
0.000242504
-0.000246166
2.47761e-05
-3.52256e-06
-2.12535e-05
2.5898e-05
0.000104343
7.12281e-05
2.00646e-05
-0.000327237
1.19273e-06
-0.000134019
-0.000616738
0.000449685
-5.20103e-05
1.2158e-05
5.51666e-05
4.94796e-05
-0.000277527
-1.45208e-05
2.98137e-06
0.000636332
-2.33077e-05
2.55537e-05
-5.11099e-05
9.10374e-06
7.18484e-06
-3.54506e-06
-0.000117018
9.14858e-05
-3.34218e-05
2.31602e-05
1.61591e-06
1.86849e-05
3.64817e-05
8.74224e-05
9.68836e-05
-5.3311e-05
4.77949e-05
9.47455e-06
-5.66974e-06
3.14868e-05
-5.86077e-06
-0.000111926
0.000457405
-0.000310168
1.43355e-06
-1.52412e-05
-0.000257288
1.02755e-05
1.28847e-05
3.60901e-05
-0.000128094
0.00105358
-1.28998e-05
-0.00101496
-0.00014239
0.000111223
0.00067625
-0.000110222
0.000473383
-0.000216125
-3.03633e-05
9.93487e-05
4.6542e-06
0.000277642
1.08235e-05
-1.96729e-05
-0.000220998
0.00030842
2.53301e-05
-7.86412e-05
0.00140768
-0.00113758
-0.000130757
-0.000924942
-7.46156e-05
-4.64279e-05
2.15551e-05
0.000108903
6.19493e-06
0.000551482
-0.000722602
-0.000109478
9.59136e-05
3.88862e-06
-5.56182e-05
0.000249148
0.000223119
-8.17009e-05
-0.000887434
-4.09031e-05
-3.44854e-05
-0.000368753
0.000394368
-0.000190856
0.000589155
0.000924852
-0.000265463
-7.61827e-05
3.77758e-05
-7.16142e-05
-7.27081e-05
5.58405e-05
0.000682564
5.61135e-06
6.01063e-05
0.000160963
-1.0059e-05
7.00853e-05
0.000160805
-1.27732e-05
-1.18766e-06
-0.000186261
-0.000142501
8.69951e-06
0.000152367
-4.35173e-05
5.73382e-05
-1.82075e-05
0.000220546
3.02937e-05
3.21729e-07
9.14259e-05
0.000139873
2.91342e-05
0.000904735
-0.000915791
-2.21886e-05
1.59861e-05
3.11615e-05