/*--------------------------------*- C++ -*----------------------------------*\
| =========                 |                                                 |
| \\      /  F ield         | OpenFOAM: The Open Source CFD Toolbox           |
|  \\    /   O peration     | Version:  v1912                                 |
|   \\  /    A nd           | Website:  www.openfoam.com                      |
|    \\/     M anipulation  |                                                 |
\*---------------------------------------------------------------------------*/
FoamFile
{
    version     2.0;
    format      ascii;
    class       volScalarField;
    location    "0.15";
    object      k;
}
// * * * * * * * * * * * * * * * * * * * * * * * * * * * * * * * * * * * * * //

dimensions      [0 2 -2 0 0 0 0];


internalField   nonuniform List<scalar> 
1431
(
0.175425
0.187361
0.0487438
0.259294
0.0944135
0.110991
0.168271
2.39777
0.0888088
0.159416
2.33032
1.92271
0.219196
0.283835
0.133414
0.163748
0.301705
0.0468926
0.357266
0.0749994
3.89424
0.577896
0.111129
1.81542
0.0999029
0.214892
1.8313
0.123954
0.100558
0.206055
0.181736
0.132447
0.174263
0.180241
0.175346
0.1174
0.0946018
0.061852
0.208228
0.131959
0.1189
0.111995
0.23378
0.28435
0.128149
0.0900837
0.247606
1.71598
0.178207
0.133453
0.150456
0.255779
0.187645
2.96709
0.125843
0.146173
0.0904921
2.54928
0.247187
0.0650376
0.126349
0.216863
0.0867944
0.0581334
0.133858
0.171117
0.0839182
0.11922
0.0430563
0.289206
1.43456
0.191339
0.102471
0.151153
0.254687
0.0755009
0.0426654
0.0754443
0.146831
0.0386386
0.278097
0.0695415
0.143308
0.1953
0.597181
0.320764
0.112433
0.12425
0.312234
0.230477
0.154456
0.120173
0.0598455
0.172572
0.0996733
0.1524
2.68204
0.2407
0.336893
0.0529012
0.160651
0.256934
0.319505
0.0511552
0.0661475
0.34354
0.215888
1.56392
0.12102
0.265599
0.0559851
0.183661
0.177629
0.128284
0.135924
0.0844118
0.239471
0.15132
0.135155
0.0665044
0.366393
0.148197
1.2476
0.253014
0.933815
0.127016
0.0446244
0.123246
0.0551914
0.100267
0.292239
0.0355202
0.103907
0.307424
0.112432
0.141109
0.0803774
0.329388
0.802981
0.042802
0.089071
0.20056
0.266597
0.0380042
0.148555
0.170834
0.115895
0.194849
0.147301
0.103547
0.120032
0.0527278
0.136216
0.139483
0.200061
0.0737174
0.58201
0.309986
0.190306
0.123088
0.632277
0.185824
0.132859
0.111261
1.19687
0.150287
0.142697
0.102702
0.107421
0.181259
0.419164
0.231944
0.138185
0.772893
0.218231
0.544614
0.100231
0.114326
0.174768
0.223873
0.161964
0.237251
0.243755
3.79113
0.118322
0.22085
0.589712
0.255328
0.230948
0.432312
0.252532
0.206886
0.16712
2.6922
0.159774
0.336342
0.32858
0.221693
0.0464611
0.131619
0.275909
0.130242
2.01047
0.106253
0.214822
0.268486
0.218412
0.0598193
1.01404
0.123137
0.732259
0.134972
0.214521
0.353554
0.778428
0.113011
0.171597
0.228568
0.11943
2.19843
0.161272
0.2394
0.270466
0.121199
0.213901
1.53162
1.66919
0.197754
0.141268
1.63947
1.3997
0.18129
0.373365
0.156732
0.135431
0.352472
0.209833
0.380364
0.24241
0.249781
0.123999
0.142498
1.21873
0.336607
0.237717
0.775167
0.377554
1.72738
0.172133
0.0881828
0.11602
0.613116
0.127297
0.152829
0.259905
0.084715
0.131878
2.04991
0.420412
0.174738
0.251784
0.753228
0.159722
0.100798
0.254148
2.50243
0.0969962
4.18936
1.76713
0.0733445
0.143365
0.195603
0.165519
0.231684
0.687712
0.137865
0.691473
1.58621
0.220536
0.187168
0.206772
0.0784413
0.171029
0.153386
0.115507
0.207839
0.0903657
0.314241
0.571462
0.254749
0.0365491
0.0824061
0.278128
0.14548
1.25997
0.126785
0.729633
0.249028
0.193127
0.237207
0.220864
0.0482079
0.157753
0.199914
1.12465
0.136805
0.282272
0.195957
0.0957333
0.170448
0.404102
0.107115
0.186293
1.72516
0.0853774
0.365071
0.221208
0.120245
0.0703943
9.00546
0.306157
0.355211
0.0605963
0.13891
0.169671
0.054474
0.0499399
0.0816858
3.739
0.145903
0.314964
0.0721168
0.0830597
0.781605
0.11954
0.220075
0.0781683
0.310802
0.153745
0.921719
0.0534722
0.227096
0.445407
0.116133
0.0893435
0.369559
0.220132
0.605966
0.345947
0.156721
0.174834
0.10789
0.184683
0.217462
0.123945
0.100604
0.832532
0.625599
0.586562
0.102549
0.733251
0.199009
0.273153
0.152678
0.0625861
0.636466
0.0904702
5.29955
0.119635
0.41764
1.98043
0.130247
0.307464
0.161819
0.107082
3.41493
0.293597
0.126372
0.274067
4.39336
0.146769
0.121995
0.165667
0.120617
8.28663
0.0903796
0.193768
0.0987778
0.176942
0.126127
0.132355
0.251572
0.257169
0.141326
0.492603
0.2103
0.131749
0.120438
0.091263
0.107502
0.228747
0.100292
0.419274
0.0807782
0.177165
0.143895
0.103131
0.105079
0.110023
0.15318
0.289942
0.19719
0.161955
0.267526
0.0971677
0.0900464
0.150409
0.0849463
0.123596
0.171138
0.211513
0.225937
0.131681
0.165367
0.181053
0.146265
0.0910794
0.667197
0.155856
1.30142
0.107115
0.0978148
0.0906249
0.103239
0.0879677
0.0937933
0.100981
0.093542
0.106843
0.0966256
0.151874
0.787806
0.127173
0.103459
0.0894241
0.0826395
0.0753326
0.069775
0.212983
0.437738
0.312282
0.153725
0.257918
0.102298
0.306507
0.215723
0.652079
2.12653
0.100032
0.0928842
0.530259
0.143233
1.97256
0.269129
0.120349
0.137699
0.0886354
1.85574
0.148833
1.7693
0.2429
0.249621
0.0603253
0.921803
0.826559
0.705024
0.15823
0.0937478
0.0739932
0.200086
1.05269
0.0767433
0.855209
0.137064
0.0694207
0.903937
0.0575008
0.0710981
0.0617743
0.0685677
0.977644
0.168821
0.0698156
0.0719042
0.815913
0.0626776
0.0970821
1.06084
0.185625
0.147024
0.272204
0.119056
0.0984391
0.118098
1.03107
0.728653
0.119338
0.155993
0.18894
0.121226
0.0754506
0.947564
0.0816574
0.115748
0.155445
0.209302
0.279742
0.0768539
0.861297
0.797881
0.207971
0.175603
0.129816
0.144127
0.113894
0.164293
1.01244
0.132533
0.132386
0.104368
0.284222
0.167774
0.201144
1.29549
0.0949099
0.237209
0.187359
0.213115
0.107732
0.130943
0.173376
0.116904
0.132573
0.169817
0.140182
0.196427
0.195684
0.231102
0.150234
0.07998
0.16403
0.102214
0.0953201
0.19439
0.147912
1.05985
0.158626
0.270501
0.214185
5.14933
0.0812181
0.892765
0.442234
0.108423
7.18406
0.0829236
0.13778
0.1161
0.28363
0.0762015
0.192088
0.651643
0.114521
0.147487
0.0564809
0.195058
0.171362
0.144609
0.139258
0.105443
0.191604
0.471132
0.152813
0.195605
0.20028
0.179771
0.291721
0.167107
0.0645908
0.117667
0.214261
0.156761
0.161744
0.120915
0.195973
0.122751
0.714993
0.19953
0.267942
0.872443
0.301859
0.174799
0.152947
0.157133
0.285713
0.14057
1.48366
0.293192
0.21688
0.0868843
0.169324
0.0979783
0.249036
0.148086
0.11722
0.0813083
0.551216
0.120005
0.269961
0.237207
0.15162
0.294581
0.0763456
0.215978
0.12748
0.21411
0.100704
0.109649
0.367916
0.170223
0.191286
0.16365
0.151954
0.123953
0.195426
0.240722
2.03851
0.142508
0.131928
0.266061
0.0918801
0.457575
0.16149
0.168331
0.144938
0.143979
0.231238
0.176309
1.0216
0.243774
0.28218
0.0773647
0.141923
0.259202
0.0914594
0.151593
0.0974415
0.284981
0.289571
0.386399
0.549895
0.105088
0.218866
0.143078
0.271494
0.669078
0.151452
0.263081
0.174202
0.104626
0.193441
0.108585
0.510972
0.101383
0.276821
0.43365
0.535514
0.810632
0.12326
0.209163
0.214203
0.0989417
0.170061
0.49262
0.112136
0.0630923
0.217377
0.118107
0.149974
0.10058
1.86891
0.256238
0.126139
0.0996735
0.0992853
0.0832051
0.116326
0.179212
0.0996492
0.586379
0.107265
0.20062
0.189561
0.0992613
0.135234
0.567983
0.13983
0.11119
0.231397
0.100558
0.117906
0.107924
1.0685
0.144571
0.0930943
0.138652
0.280062
0.16352
0.226823
0.109252
0.139606
0.274454
0.601443
0.198904
0.0550113
0.0997821
1.38585
0.256617
1.27107
2.95544
0.104428
0.141428
0.197779
0.174725
1.56025
0.269442
0.118654
0.123298
0.473583
0.153026
0.116366
0.105152
0.188068
0.145539
0.13235
0.153186
0.564696
0.0786201
0.114449
0.333252
0.103996
0.247806
0.0984762
0.289545
2.70454
0.111859
0.0845733
0.124738
0.0981644
0.0864413
2.80417
1.03176
0.315549
0.310057
0.0924805
0.218215
0.197729
0.187424
0.140121
0.217793
0.269116
0.360064
0.111964
0.107161
0.0935534
0.132821
0.101839
0.156403
0.0887127
0.102158
0.153632
0.0615849
0.185306
0.160273
0.102041
0.861685
0.128639
0.151821
0.139207
0.127141
1.09061
0.142808
0.200353
0.0942672
0.220343
0.100421
0.22932
0.627279
0.238874
0.218385
0.134121
0.777893
0.094136
0.11718
0.132194
8.22761
0.269386
0.0932425
0.111516
0.123025
6.4616
0.102778
0.265725
0.686378
0.072438
2.39678
0.207027
0.146592
0.0811332
0.105543
0.057734
2.23495
0.18769
0.118249
0.104281
0.115613
0.0780251
0.215444
0.129644
0.218753
0.0859796
0.131855
0.454087
0.141604
0.196597
3.11869
0.24876
0.0875336
0.18374
0.143166
0.210759
0.0692318
0.0804056
0.318032
0.215277
0.394864
0.0617852
3.89017
0.174866
0.60279
0.123304
0.283995
0.157764
0.254664
0.0723007
0.120726
0.0990777
0.244823
0.0550943
0.0911566
0.200734
0.137185
0.17958
0.134857
0.189127
0.100431
0.18759
0.133762
0.585834
0.115292
0.114017
7.81186
0.0841898
0.143268
0.324659
0.0937699
0.172495
0.126657
0.0953665
0.140044
1.6544
0.301421
0.110948
1.38677
6.84184
2.46715
1.93811
0.85953
0.110678
0.109065
0.102347
0.10516
0.988805
0.111056
0.122851
0.11763
0.119441
0.132635
0.651561
1.0705
0.140894
0.385581
0.478557
0.144952
0.111171
0.111023
0.147794
0.110647
0.110778
0.150314
0.111104
0.219051
0.732224
0.145588
0.27605
0.140927
0.486597
0.306611
1.15864
0.11783
0.604682
0.338723
0.110298
0.111041
3.31687
0.871838
0.0644743
0.708081
0.162309
0.154674
0.214011
0.109555
2.80046
0.0946143
0.11059
0.179752
0.126726
0.118269
0.168838
0.550451
0.265952
0.4482
0.23506
0.0901948
0.111141
0.178321
0.935795
0.138933
0.281364
0.126913
0.342103
0.178567
0.101331
0.181581
0.283005
0.164991
0.0763673
0.332311
0.0965198
0.075201
0.0661864
0.621562
0.164032
0.206597
0.170968
0.0639358
0.617133
0.146665
0.110225
0.13572
0.10681
0.232601
0.384512
0.424787
0.0642943
0.449538
0.0540965
0.196887
0.308312
9.30728
0.129342
0.340546
0.185254
2.68293
0.114296
0.263323
0.231977
0.123962
0.148211
0.125706
0.0684807
0.199026
0.373807
5.83437
0.96907
0.110048
0.119776
0.326221
0.682049
0.715535
0.150756
0.683481
0.122287
0.208975
1.7712
0.127196
1.16626
0.0861054
0.219979
0.156522
0.487103
0.17748
0.709804
0.0692309
0.212157
0.271077
0.153801
0.140502
0.247411
0.136083
0.720115
5.22712
0.172787
0.100028
0.241414
0.106858
0.10806
2.94655
0.169424
0.0966838
0.1782
0.694128
0.599672
0.228261
0.280591
0.138527
0.237618
0.142111
0.43852
0.0743381
0.145136
0.108771
0.476896
0.113227
0.0762608
0.256641
0.722459
0.0876599
2.10056
0.853582
0.079513
0.228718
0.137687
0.103165
0.0632909
0.12087
0.144632
0.126223
0.252417
0.0783614
0.0985687
0.187191
0.0735468
0.733305
0.102385
0.056
0.147202
0.24252
0.107008
0.263068
0.0982144
0.149788
0.229883
0.113536
0.171263
0.180384
0.192166
0.273276
0.284699
0.296023
0.21366
0.310633
0.114816
0.118308
0.121182
0.11422
0.112824
0.119192
0.210838
0.296047
0.0823055
0.351271
0.0734335
0.164403
0.144806
0.135143
0.147275
0.195033
0.244959
0.214786
0.169435
0.0993849
0.105028
0.106182
0.10839
0.107239
0.11375
0.138138
0.120463
1.64925
0.206021
0.134169
8.07337
0.170713
0.0924421
0.126301
0.117882
0.0729116
0.114239
0.639175
0.0738509
0.0855046
0.128728
0.130681
0.23684
0.154366
0.418569
0.0998395
0.136198
0.60837
0.0571755
0.0596623
0.127477
0.0816813
0.0585932
0.445464
0.167148
2.53328
0.124384
0.583048
1.23479
0.0984438
0.431521
0.261517
0.0968738
0.22302
0.771558
0.118031
0.17458
0.277724
0.778523
0.0719945
0.159728
0.371769
0.121695
0.158627
0.0714319
0.128622
0.191796
0.728117
0.718238
0.903
0.166746
0.217889
0.280265
0.198267
0.174981
0.109952
0.0690758
0.352373
0.0514059
1.50903
0.199862
0.199705
0.683848
0.22265
0.430641
0.0765206
0.140867
0.279929
2.7368
1.80046
0.141781
0.118109
0.114505
0.125338
0.562425
0.0755262
0.319504
0.303964
0.0687261
0.615135
1.75859
0.167599
0.154707
0.074321
0.0841406
0.168818
3.58153
0.0945308
0.180309
0.957764
0.424799
0.0569539
0.0714112
0.215361
0.28477
0.451503
0.309149
0.271355
0.146107
0.222156
0.731976
0.171381
0.119577
0.103427
0.126064
0.501518
0.0846958
0.48951
0.160035
0.201926
0.196394
0.139051
0.332175
0.376703
0.0598456
0.108443
0.152767
0.207965
6.68994
0.235795
0.102211
0.163067
0.936344
0.207661
0.299228
0.103829
0.170966
0.146975
0.0768994
0.1463
0.172452
0.222448
0.340316
0.277748
0.418417
0.23422
0.190736
2.14663
0.0728669
3.55601
0.0891789
0.133816
0.200619
0.241707
0.248721
0.0965476
0.228841
0.441406
0.224573
0.170189
2.96203
0.238915
0.246637
0.134845
0.097625
0.462775
0.209755
0.227396
0.162196
0.0799115
0.0945234
0.565958
0.324161
0.247949
0.126002
0.181239
2.16849
0.284166
0.100136
0.285843
0.499154
0.124854
0.523662
0.281056
0.189748
3.15215
0.163128
0.0581481
0.751394
0.126011
1.65981
0.372868
0.440285
0.14179
3.31986
0.190412
0.068385
0.121063
5.76995
0.121761
0.0899324
0.121604
0.12103
0.526782
0.100581
2.52429
0.211654
0.283821
0.104587
5.12851
0.115673
2.3712
0.212273
0.0686467
0.306729
1.79681
2.62584
0.0836886
0.624822
0.10377
0.126617
0.0990585
0.22961
0.102166
0.862299
0.115195
0.102794
0.378243
4.87933
0.0441298
0.27627
0.110887
0.43633
0.210455
0.24178
0.0999065
3.39712
0.184795
0.10297
0.103746
0.114718
0.295175
0.273944
0.110574
0.18924
0.262829
0.241308
4.32265
0.270848
0.123076
0.11564
0.118639
0.256925
0.13316
0.270452
0.0922379
0.244498
0.142158
0.173075
0.130495
0.238099
0.130407
0.125721
0.125627
1.1437
0.170625
0.213198
0.0914285
0.448449
0.336708
0.199024
0.204893
0.164495
0.123742
0.124018
0.239946
0.317443
0.149251
0.125089
0.332024
0.0620346
0.108662
0.132094
0.122898
0.119425
0.105864
0.108459
0.0875834
0.254777
0.40871
0.119482
0.682507
0.181971
0.203951
0.443978
0.236453
0.206899
0.322089
0.252733
0.108919
1.52105
0.0506217
0.134028
0.0939492
0.0572856
0.0587299
0.0692923
0.0958642
0.0987194
0.127267
0.475533
1.59305
0.375189
0.20875
0.125642
0.174197
0.181538
0.173313
0.129664
0.0748543
0.0888229
0.188464
0.129403
0.0463075
0.0977744
0.244355
0.163231
0.0879047
0.0840405
)
;

boundaryField
{
    frontAndBack
    {
        type            empty;
    }
    wallOuter
    {
        type            kqRWallFunction;
        value           nonuniform List<scalar> 
96
(
0.100558
0.206055
0.1524
0.510972
0.535514
0.49262
0.10058
0.0996735
0.0992853
0.116326
0.0996492
0.107265
0.0992613
0.567983
0.11119
0.123298
0.473583
0.116366
0.101839
0.102041
0.100421
0.104281
0.115613
0.131855
0.454087
0.85953
0.110678
0.109065
0.102347
0.10516
0.988805
0.111056
0.122851
0.11763
0.119441
0.132635
0.651561
1.0705
0.140894
0.385581
0.478557
0.144952
0.111171
0.111023
0.147794
0.110647
0.110778
0.150314
0.111104
0.11059
0.101331
0.181581
0.110225
0.10681
0.424787
0.110048
1.16626
0.100028
0.241414
0.169424
0.142111
0.108771
0.113227
0.722459
0.24252
0.263068
0.229883
0.113536
0.171263
0.180384
0.192166
0.273276
0.284699
0.296023
0.21366
0.310633
0.114816
0.118308
0.121182
0.11422
0.112824
0.119192
0.164403
0.105028
0.154366
0.159728
0.319504
0.103427
0.152767
0.162196
0.100136
0.285843
0.115673
0.624822
0.378243
0.110887
)
;
    }
    inlet
    {
        type            fixedValue;
        value           nonuniform 0();
    }
    outlet
    {
        type            zeroGradient;
    }
    wallInner
    {
        type            kqRWallFunction;
        value           nonuniform List<scalar> 
126
(
0.247187
0.0650376
0.126349
0.216863
0.0867944
0.0581334
0.133858
0.171117
0.0839182
0.11922
0.0430563
0.289206
1.43456
0.191339
0.102471
0.151153
0.254687
0.0755009
0.0426654
0.0754443
0.146831
0.0386386
0.278097
0.0695415
0.0529012
0.0844118
0.239471
0.15132
0.135155
0.0665044
0.366393
0.148197
1.2476
0.253014
0.933815
0.127016
0.0446244
0.292239
0.0355202
0.042802
0.089071
0.266597
0.0380042
0.115895
0.103547
0.0527278
0.139483
1.19687
0.161964
0.22085
0.589712
0.159774
0.732259
0.0733445
0.220536
0.187168
0.0365491
0.729633
0.249028
0.237207
0.0482079
0.107115
0.186293
1.72516
0.054474
0.0499399
0.314964
0.921719
0.0534722
0.625599
0.199009
0.273153
0.105079
0.0849463
0.118098
0.155445
0.104368
0.213115
0.116904
0.231102
0.102214
0.214185
0.0564809
0.144609
0.0645908
0.156761
0.301859
0.0763456
0.151954
0.144938
0.141923
0.135234
0.13983
0.0864413
0.143268
0.126657
0.0661864
0.718238
0.0441298
0.27627
0.252733
0.108919
0.0506217
0.0939492
0.0572856
0.0587299
0.0958642
0.127267
0.475533
1.59305
0.375189
0.20875
0.125642
0.181538
0.173313
0.129664
0.0748543
0.0888229
0.188464
0.129403
0.0463075
0.0977744
0.244355
0.163231
0.0879047
0.0840405
)
;
    }
    procBoundary3to1
    {
        type            processor;
        value           nonuniform List<scalar> 
48
(
0.107813
0.139746
0.134467
0.117168
0.205948
0.151659
0.139746
0.276785
0.11281
0.0961251
0.0961251
0.0938595
0.0938595
0.0857669
0.131834
0.0769184
0.0581391
0.0622654
0.0581391
0.0593433
0.0617051
0.0803409
0.0593433
0.116585
0.0887125
0.0779793
0.173333
0.0803409
0.238078
0.164996
0.164996
0.285762
0.285762
0.11281
0.0621564
0.261904
0.19662
0.0887125
0.109598
0.128554
0.0857669
0.141882
0.123275
0.0593433
0.133413
0.1023
0.157945
0.0670987
)
;
    }
    procBoundary3to2
    {
        type            processor;
        value           nonuniform List<scalar> 
29
(
0.144915
0.144915
0.163972
0.178338
0.100523
0.125698
0.117823
0.120725
0.184528
0.17778
0.123618
0.107355
0.119991
0.257583
0.159207
0.285533
0.276304
0.211306
0.129969
0.173672
0.174315
0.276304
0.115279
0.211306
0.142192
0.304677
0.211306
0.117943
0.117943
)
;
    }
}


// ************************************************************************* //
