/*--------------------------------*- C++ -*----------------------------------*\
| =========                 |                                                 |
| \\      /  F ield         | OpenFOAM: The Open Source CFD Toolbox           |
|  \\    /   O peration     | Version:  v1912                                 |
|   \\  /    A nd           | Website:  www.openfoam.com                      |
|    \\/     M anipulation  |                                                 |
\*---------------------------------------------------------------------------*/
FoamFile
{
    version     2.0;
    format      ascii;
    class       volScalarField;
    location    "0.32";
    object      k;
}
// * * * * * * * * * * * * * * * * * * * * * * * * * * * * * * * * * * * * * //

dimensions      [0 2 -2 0 0 0 0];


internalField   nonuniform List<scalar> 
5794
(
0.370201
0.161319
0.388052
1.89028
1.20827
0.256397
0.304976
0.90366
1.83444
0.484496
0.918852
0.12283
0.32222
0.297677
0.396074
0.0681433
2.54847
0.334936
0.273896
0.083396
1.19301
0.323512
0.776763
0.186421
0.670987
2.09439
2.29862
1.52406
2.14473
0.122067
0.479294
0.277001
0.887601
0.174215
1.20763
0.724427
0.196465
0.100684
1.18423
0.719039
1.35723
0.391339
0.27529
0.319443
0.376596
1.11456
0.249162
0.405068
0.302573
0.434565
0.0333664
1.55655
0.432004
0.341787
0.0150613
1.12901
0.33317
0.554578
0.209468
3.51871
0.910268
0.0979397
0.385594
0.472664
1.42395
0.095011
1.35507
0.312065
0.148383
0.133105
2.44539
1.72732
2.57358
0.243248
0.234477
1.65334
0.654955
1.59993
0.343071
0.0234686
0.153781
0.142343
0.887201
0.841242
0.320536
0.872328
0.549605
1.06277
0.221118
1.06091
2.69229
1.04747
1.6725
2.52904
1.12472
2.77021
2.05454
1.46161
1.06324
0.988438
0.928922
0.145733
0.240784
0.343301
0.676594
1.91195
0.0738039
0.695565
1.76534
0.363956
0.088277
1.00955
1.01465
0.0886128
1.03267
1.99675
0.263197
2.07727
0.838845
0.493302
2.02065
0.227695
0.169056
1.66145
0.65363
1.35772
0.250072
0.228807
1.8284
0.802786
0.192138
0.375448
0.291898
1.4246
2.28717
0.434796
1.89634
0.104212
0.0341498
0.276754
0.427745
0.730529
0.798653
0.667623
0.0700206
3.4609
1.05342
0.794159
0.835507
1.01114
0.315591
0.335259
2.03142
0.0955971
2.96543
0.254653
0.897127
0.142899
1.33671
0.142697
0.371473
0.486477
0.101719
0.343215
1.30754
1.49135
0.287191
0.278817
0.0882941
0.66364
0.120993
0.903564
0.374365
0.749137
0.114518
0.551308
0.18966
0.62975
0.392631
1.52912
0.124455
0.356839
0.356671
1.19941
0.246018
1.64996
0.160716
0.472577
0.320337
0.115001
0.926645
0.2762
0.908594
0.427864
0.24969
0.11793
0.752459
0.882123
0.253107
0.272558
0.369334
1.39515
0.359283
0.244431
0.234782
1.10801
0.507457
1.29427
0.643124
1.23354
0.416705
0.312865
0.624958
0.802581
0.246044
1.06334
0.705476
0.299917
1.11665
2.26883
0.305713
1.13939
3.84537
1.73782
1.81407
1.13125
0.13327
0.975128
0.297388
0.355881
0.81806
1.57925
0.157754
1.3292
0.112654
1.01458
0.878602
0.746827
0.285605
0.19241
0.187625
2.47019
1.21746
0.10478
0.100568
0.137299
0.430523
0.521345
1.49323
0.999528
0.522302
0.0826738
3.01074
0.0546691
0.209211
1.20223
0.25499
0.387504
0.936265
0.627119
1.30495
0.541208
0.718022
0.0738082
0.518373
0.72274
0.921972
1.66063
0.479403
1.32927
0.275182
0.393542
0.813871
2.25505
0.396609
0.304265
0.327737
0.297995
0.101946
0.347047
1.0339
1.84724
1.35711
0.384605
0.847101
2.56165
0.922674
1.40843
2.7691
2.31024
0.71402
1.62392
0.144009
0.515141
0.20242
1.74146
2.09501
0.385054
1.14517
0.0712233
0.127589
0.790728
0.125564
1.60634
0.234558
1.56442
0.0756205
0.117061
1.28904
0.259166
0.353527
1.15344
1.42737
0.0819926
0.292726
0.590763
0.924168
1.45798
1.70622
2.5326
1.13709
0.304428
2.14104
0.908607
0.0493524
0.89349
0.325137
0.114619
0.268664
0.853923
1.40489
0.27799
0.324242
0.698121
0.216096
0.397994
0.440867
0.0883691
0.253383
0.29282
0.220084
0.560381
1.68214
0.64988
0.212171
0.308707
1.54759
0.441685
1.76154
0.0854271
1.39038
1.68421
1.00703
0.304256
0.392502
0.939842
0.221239
1.42884
0.328447
0.829768
1.12763
0.107937
1.65108
0.344588
0.918989
0.366052
1.32155
1.01487
0.235418
0.456669
0.399206
0.0939343
0.499201
0.0480721
1.45605
1.45222
0.943722
0.385724
0.712694
0.0226708
0.794983
0.34908
0.323212
0.774554
0.929577
0.213805
2.81823
0.46421
0.808589
0.301251
0.236964
1.13305
0.117122
0.901541
0.303965
0.900139
0.117515
0.288269
0.377297
0.690481
0.272789
0.790403
1.37922
0.0827928
0.637435
0.983463
0.438413
0.333533
0.0752374
1.96137
1.49891
0.972211
1.30509
0.682139
1.1693
0.23923
0.287501
0.147968
1.20508
1.90972
1.04695
1.38289
1.12046
0.434699
0.455022
0.673487
0.115535
0.0900494
0.112238
0.231746
1.59419
0.224405
0.818267
1.48068
0.322941
0.342063
0.335755
0.479517
0.640978
0.651455
0.170332
0.269823
0.284464
0.151035
0.314112
2.18487
1.06636
0.0334309
0.248781
1.61369
0.487174
0.0871716
1.72053
0.35473
2.16061
0.076502
2.10646
3.1905
1.38353
3.53558
0.281389
0.0771969
0.483224
0.20945
1.07604
0.777243
1.18072
1.24093
1.01521
0.386505
0.0255604
0.785459
1.60814
0.560699
0.645214
1.75827
1.46504
1.51481
0.220364
0.0826522
0.570685
0.253691
0.386955
0.375458
1.05603
1.14785
0.312223
0.367165
1.47677
0.235494
0.110771
2.22808
2.1226
0.568935
0.58781
0.16394
0.168352
0.35611
0.0464891
0.871209
1.07105
1.2673
0.263816
0.6805
0.77195
0.0779368
0.150764
0.5527
1.49381
0.0862554
2.68132
0.056616
0.737472
0.0550246
0.0616489
1.02556
1.84607
0.047958
0.222916
1.37807
0.214627
0.0679214
1.25351
2.21799
0.769065
0.227092
0.306461
1.06172
0.0715489
0.384467
0.584642
0.039046
1.14263
0.285616
0.42591
0.565857
0.24048
2.12578
0.715397
1.06304
0.245528
1.78339
0.095738
0.300013
0.333512
0.0503658
0.215011
0.618138
0.074332
0.267361
0.380264
0.0432899
0.227361
0.333335
0.278937
1.0905
0.517935
0.376722
0.0716625
1.15358
4.41518
0.0932602
1.33957
0.443262
0.325434
0.238858
0.0797834
0.78018
0.146887
0.0806923
1.17796
1.0646
1.26395
1.26047
1.30579
0.29296
1.27394
1.05206
0.357758
2.17868
2.23275
0.904211
3.29251
1.0675
2.16853
0.83201
0.0873652
1.9247
0.888341
2.37841
0.084283
0.240829
0.117419
2.46821
0.93876
1.15285
0.0183078
0.293774
0.0460878
0.689667
0.203828
1.30212
0.980429
2.63244
0.0662074
0.512331
2.21511
0.411653
0.0187237
0.251564
1.09225
1.34052
0.32647
0.414861
0.116693
0.228703
0.786171
0.636455
0.261386
0.567817
0.069239
1.17472
1.62423
1.02595
0.0804638
0.248289
0.0888525
1.28074
2.55192
0.083141
0.278679
0.147229
0.0528966
0.177947
0.0736253
0.394098
1.57693
0.488416
0.284834
1.34573
0.25813
0.264116
1.18428
0.874137
1.86799
2.92433
1.10244
0.734888
0.129317
0.0985827
0.128567
0.304054
0.243693
0.205899
0.131633
1.53833
1.68032
0.819864
0.895518
0.426024
0.0373027
0.374147
0.294048
0.709065
0.0880826
1.34982
2.9698
2.60832
0.963834
1.29447
0.766892
0.289119
1.43668
0.679856
0.838503
1.06946
2.76061
0.407672
0.361312
0.216111
0.158445
1.40146
0.446999
0.053231
1.26493
1.94693
2.59895
0.342602
0.143987
0.0375599
0.552831
3.9191
1.45338
1.35856
0.501664
0.972686
1.27568
0.0902742
0.0678978
0.290247
0.233376
0.234967
0.0439168
0.400502
1.13762
2.3793
0.317337
0.389901
0.17862
3.31988
0.451566
3.93127
1.47644
1.89969
1.45326
0.374356
0.266773
2.29518
1.18089
1.9206
2.11596
1.77899
2.16458
0.302257
1.12227
0.290526
0.333717
0.507984
3.24477
0.634331
1.27075
1.18244
2.93239
0.754731
0.512716
0.423164
1.30094
0.74145
1.06244
1.60663
2.40269
0.0760514
0.0673474
0.215547
0.157358
2.39759
0.843256
2.75453
0.519903
0.283524
0.156836
0.287666
0.400087
0.0656113
0.977058
2.43024
0.206976
2.69259
1.1734
0.247595
0.253036
1.20779
2.23296
1.28039
3.06845
2.63574
0.998973
1.51941
0.341653
1.75411
0.917628
2.23045
1.22669
0.194818
0.710699
0.149182
0.206624
0.289931
0.784209
0.287133
1.50263
1.9313
0.465759
0.353661
0.0702677
2.30844
0.92648
1.44729
2.39074
0.909615
0.0456954
2.45608
2.50321
1.09448
0.398849
0.967886
0.0987659
2.43429
0.278261
1.57217
0.304412
1.02333
0.383487
0.0512595
0.170056
0.478889
1.49392
1.93499
1.57258
4.24963
1.44956
0.325985
0.381316
0.590674
4.47946
0.163399
0.103975
0.598652
2.79128
0.0743899
0.338951
0.481994
0.771855
1.32341
0.0814145
0.386401
0.390222
0.543794
0.440003
0.876623
2.07502
2.28297
0.283115
0.32543
2.05354
0.528106
0.463984
2.83831
0.125876
0.130106
0.251644
0.0773851
1.05474
0.145757
0.495986
0.0545195
0.454195
0.213711
0.316738
1.33442
1.01756
2.76676
0.949027
0.898526
1.59176
1.05731
1.34198
1.47929
0.0535582
0.123825
0.206994
1.22106
0.40276
0.388468
4.00548
1.6197
1.6429
0.88676
0.344105
0.818009
0.0530504
0.34898
1.2117
0.276848
3.17874
0.334509
0.309372
1.38452
0.362763
0.231208
0.0851491
0.139938
0.819007
0.250992
0.101816
0.303632
0.839398
1.75475
0.384706
0.299688
0.936683
0.557244
1.20242
2.95107
2.38944
2.48315
1.14534
0.192999
0.117753
1.16085
0.079211
0.0449744
0.0723032
0.239759
0.69149
0.0848127
0.254562
0.0809342
0.891173
1.97875
0.378016
0.276971
0.493585
1.0012
1.4717
1.014
1.71994
0.234656
0.0823933
1.45077
0.353371
0.914262
0.264257
1.27417
0.842701
1.07556
0.135117
1.48427
1.17623
0.212604
0.180522
0.207638
0.155954
0.0788457
0.734604
0.718531
1.6282
1.8098
1.04067
1.34885
1.18845
0.299255
0.074377
0.326999
0.689792
0.0777485
0.994393
1.46022
1.91916
0.246635
1.96374
1.31949
0.0929675
0.351446
1.27624
1.11216
0.305231
0.3118
0.472895
1.63539
0.48481
1.35081
0.127421
0.20712
0.0938721
0.100314
0.0982762
0.401742
0.0410859
0.0824423
0.0760193
0.166807
0.264642
1.02186
0.216086
0.153959
0.0800311
1.06817
0.299734
2.13483
0.323386
0.903314
0.0844152
0.664275
0.200096
0.530801
0.185872
0.565625
1.55738
0.17041
0.30445
0.436345
0.0424367
0.291927
1.38852
0.431652
1.34512
2.18522
0.049052
0.318673
0.528606
0.927767
0.486364
1.00336
1.23565
2.2928
0.267046
0.362045
0.0817513
0.0677599
0.404551
0.363403
1.61372
1.56005
1.4413
0.031406
0.818416
1.41787
0.90002
0.870925
0.823081
0.0796119
0.400606
0.0761473
0.695231
0.302787
0.725367
0.200745
0.174495
0.196643
0.204956
0.286822
1.41469
0.163606
0.321989
1.08062
1.31591
0.753
0.0874851
0.274725
0.99097
0.0682339
0.513905
0.321226
0.446389
1.00715
0.0642951
1.60693
0.0904054
0.311995
1.24989
0.146063
1.30969
0.270282
0.0679599
0.428565
0.784173
0.0369584
2.11796
0.564022
0.130817
0.0747221
0.470017
0.025763
0.0900189
0.309412
0.168509
0.0285484
0.139289
0.865595
0.475708
1.68999
0.511903
0.260106
2.57343
0.967258
0.0317687
0.124182
0.699769
0.393539
1.00725
1.89942
0.0340661
0.561067
0.0343362
1.03657
0.18585
1.64143
0.27512
0.896583
1.45139
0.0428834
0.659559
0.173652
0.0177248
0.43768
0.186897
0.617919
0.641153
0.0467133
0.672903
0.0364773
0.0455793
0.468056
0.0729755
0.22548
0.66457
0.365953
1.27892
0.238296
1.04208
0.0966026
0.0983117
0.0767211
0.198766
0.437146
0.396047
0.360314
0.57138
0.25213
0.463128
1.28143
0.323097
0.0914658
0.474255
0.773119
0.587907
0.765295
0.241182
3.36181
2.18256
1.36994
0.445815
3.64892
0.260798
0.261118
0.538355
0.200866
0.181744
0.0443725
8.22415
0.689284
0.0551729
0.428526
1.70558
1.66881
0.27198
0.169998
0.259366
0.585229
0.6862
0.131075
1.14784
0.536751
1.95226
0.361984
0.921287
0.293321
0.0449694
0.456756
0.331532
0.260001
0.598876
0.0803619
0.858676
0.394273
1.20612
0.332563
0.606359
0.190409
0.458752
0.292749
0.392296
0.332593
0.192107
0.399324
0.558123
0.988345
0.279643
0.215179
0.126752
0.181183
0.557589
0.301498
0.576342
0.98525
0.279586
0.257715
0.433817
0.237747
0.230637
0.651361
0.378222
0.323332
0.494559
0.0328424
1.14507
0.0894078
3.99476
0.0593708
0.0298188
0.284609
0.08682
0.0876502
1.31605
0.429027
0.219345
0.138213
0.254827
0.691173
1.85831
1.0672
0.214225
0.147944
0.196937
0.227839
1.66965
1.35458
0.431126
0.281856
0.0400202
0.861424
0.33182
0.551005
1.78916
0.233479
0.25944
0.649041
0.630629
0.0472198
1.37467
2.05684
0.628117
0.781483
0.464183
0.257134
0.0741881
2.09509
1.153
0.307299
1.00139
0.112813
0.0666864
1.05171
0.304832
1.20188
0.0281434
0.337879
1.41081
0.0456468
0.0326631
0.176245
0.0744403
0.0901874
0.337624
0.42102
1.43669
0.0570749
0.237146
1.14522
3.61836
0.66133
0.520945
0.775721
0.197677
2.19523
0.0525043
0.256569
2.68473
0.808608
1.8205
0.50229
1.33358
1.33082
1.37783
0.450634
0.500811
0.0821327
0.709398
0.0404648
0.545767
0.554237
0.3286
0.495594
0.73885
0.378552
0.487035
1.06272
0.0438991
0.0780295
0.257662
0.561171
0.0243135
0.487763
1.11347
0.294056
1.49264
1.22384
0.485253
0.113054
3.93007
0.0550223
0.925573
0.696734
0.239295
0.458551
0.150382
0.915193
0.0779435
0.488782
0.0584381
0.804559
0.0322739
0.410356
1.51669
1.11007
0.477389
0.758988
1.21616
0.545806
0.278273
0.0434748
0.923521
0.460673
0.774085
1.99612
0.306483
0.0509805
0.476871
1.45979
0.667395
1.59505
1.13812
1.11625
0.97392
1.01361
0.0422153
0.45872
1.23513
0.286286
2.5194
0.0552842
0.0396858
0.281426
0.490924
0.0322291
0.314382
0.557857
0.169161
0.214752
0.184043
0.386415
0.120921
0.263751
0.459866
0.939237
1.07622
0.0701752
0.891033
1.54029
0.469471
0.434924
0.369353
1.16272
0.0458512
0.0678821
0.0295404
0.190839
5.60321
0.323364
1.2499
0.881271
1.71525
1.8256
0.518717
0.436914
0.0421582
0.0519594
0.0266138
0.0216433
0.382437
0.204103
0.057783
0.326592
0.0199722
0.0488862
0.156126
0.317171
0.0960321
0.0640528
0.0195259
0.322919
0.235736
0.0674764
0.229244
0.135085
0.0427501
0.0670413
0.0113411
0.0328681
0.375982
0.146399
0.156633
0.038186
0.114915
0.369549
0.171418
0.0618846
0.037369
0.0404156
0.0412028
0.0301795
0.410444
0.0575701
0.0169512
0.138007
0.0467733
0.186757
0.42383
0.134179
0.464608
1.02002
0.0232843
0.220029
1.07662
2.51822
0.903646
0.155934
0.038382
0.389808
0.236928
0.824545
2.33509
4.0955
1.015
2.72565
1.07633
0.0290791
0.0294085
0.0384584
0.378747
0.155694
0.925676
0.0408152
0.389378
0.456501
0.171327
1.02426
0.703418
0.590743
0.980354
0.510232
4.95189
0.3911
0.382463
0.398921
0.316943
1.50345
0.5347
1.17908
0.310344
0.820619
1.13163
0.600022
0.57516
0.428149
0.32811
0.36216
7.91573
0.348635
0.144761
0.0771711
0.205447
0.458497
0.294711
1.56975
0.179697
0.0638312
0.0264383
0.224596
0.38452
0.0329216
0.27616
0.0188728
0.057466
0.124985
0.0253434
0.420782
0.184267
0.0282706
0.468804
0.158109
0.269418
0.14357
0.0657982
0.0578288
0.0685031
0.0413469
0.453588
0.0464826
1.22695
1.55393
0.230858
0.422263
0.378938
0.362258
0.305858
0.0458322
1.30187
0.797242
0.814987
1.08051
0.50342
0.578916
0.016595
0.531811
0.822235
0.497387
1.39428
2.40142
0.849822
0.0320264
1.37053
0.761309
0.275232
1.4514
0.353524
1.63057
0.0806493
0.276455
0.0541454
0.660894
0.287203
0.250333
0.671061
0.0435726
3.4383
0.0350865
3.71457
0.31837
0.0502451
0.0305217
2.43213
0.0461885
0.0799836
0.442771
0.319905
3.29018
0.315632
1.76855
0.397838
0.555374
0.885025
1.33351
0.0652719
0.279976
0.282133
2.18958
1.08482
0.371226
0.0897632
1.44714
0.473279
0.986179
0.308075
0.335561
0.0247356
0.362558
0.533375
0.0796345
0.261077
0.247278
0.0126867
0.19558
3.61788
2.84981
0.333388
0.601246
2.02107
0.0306681
0.877681
0.850668
0.301589
0.78498
1.7936
0.325342
2.31189
0.0342792
0.533477
0.378568
0.175859
0.247006
0.522928
0.316807
0.577881
0.507989
0.0819973
0.0688163
0.243256
0.89028
0.301465
0.703546
4.52795
1.71817
0.618418
1.64762
0.319324
0.724765
0.690193
1.13069
1.21538
0.668949
1.17494
0.64936
1.01179
3.50195
1.24385
0.553107
1.33758
0.95206
0.4235
0.57983
0.171051
1.996
0.768524
0.474942
1.67471
0.786484
1.26218
0.87653
0.360728
2.0421
0.421454
0.816211
0.995794
0.0720235
0.0950119
0.679059
1.55559
0.190465
0.059935
0.509004
1.40386
1.3808
1.6316
1.02831
1.5049
1.74795
1.40812
0.336629
1.54085
1.51977
1.77665
1.00463
1.47034
1.03077
1.57295
1.51493
1.57288
0.4713
0.388517
0.27278
1.37775
0.222278
0.326695
0.362777
0.1992
0.0227658
0.263217
0.660091
0.820643
0.637369
0.128639
0.234497
2.26447
0.735979
1.20081
0.766407
0.480273
0.182171
0.301269
0.734761
1.05412
0.362831
1.2717
0.795518
0.456277
0.376422
0.343894
0.0699624
1.51396
0.098295
0.30423
0.246274
0.0279553
0.407883
0.184933
0.199122
0.18342
0.183305
0.256736
1.47119
0.254504
0.350316
0.41527
0.212642
1.22321
3.93988
0.266619
1.6089
0.860529
0.386716
3.95453
0.332766
0.375319
3.59154
1.0209
1.86814
0.314432
0.251531
2.10739
3.85657
1.60972
0.312424
0.321234
0.438189
0.45394
0.332157
2.74684
0.296362
0.154023
1.40677
0.215213
0.426704
0.564789
0.307096
1.22877
1.38354
0.517192
2.5635
3.15625
0.447579
3.41101
0.229296
1.46353
0.55956
0.538809
2.09971
0.366669
2.42256
0.581275
1.6286
0.422091
2.45651
2.29642
0.573644
1.22391
1.90667
0.417349
0.613283
1.67179
0.615213
0.328725
2.065
0.566453
1.84
1.39544
1.32725
0.368184
1.09606
0.189392
1.60672
0.582395
0.253636
0.568869
2.07799
0.190944
0.461271
0.0533668
1.36687
0.374501
0.447077
0.725044
0.247955
0.458051
0.176874
0.357002
0.255801
0.367378
0.282728
0.347969
0.659278
0.167033
0.628203
1.64776
0.566179
0.530269
0.520584
0.455629
0.337667
0.271577
0.170156
0.494033
0.241249
0.685888
0.0463818
0.374047
0.613845
2.15207
0.324695
0.256729
0.303491
0.766554
0.228451
0.358051
0.317607
0.576653
0.31028
0.429681
0.451423
0.606786
0.328897
1.42541
0.352558
0.376924
0.600196
0.129742
0.680554
0.980125
0.272665
0.217061
0.516276
0.272372
0.45605
0.529184
0.800712
0.870249
0.0842965
0.838179
0.279528
0.415098
0.169895
0.170945
0.807756
0.798761
0.95661
0.776828
0.200493
0.287998
0.144276
0.813243
0.487153
0.364495
0.0621059
0.457891
0.12626
0.0297986
0.578539
0.333344
2.09706
0.380501
0.466683
0.33659
0.325016
0.152944
1.40987
1.54116
0.439141
1.11443
0.203801
0.809104
1.34243
0.188446
0.680858
0.0497316
1.04199
0.031529
1.50436
0.534515
0.244213
0.895799
0.977375
0.79056
0.445272
0.0967327
0.0659662
1.49458
0.39955
0.985852
1.05266
1.32257
0.440326
0.0795093
0.0658339
2.0811
0.603313
0.382235
1.58633
1.70263
0.362029
0.931967
0.233204
1.52981
0.299343
0.218076
0.802724
0.642646
0.234381
1.45407
0.101529
2.03886
0.48281
0.893904
1.58119
0.556001
0.0906624
0.066246
0.360475
0.205891
1.29057
1.55339
1.53934
0.0522406
1.48941
1.35831
0.305997
0.213158
0.258441
0.249993
0.539986
1.26591
1.75082
1.69955
0.105511
0.443804
1.45004
1.2215
1.16947
2.03876
0.387627
0.813183
0.401441
0.850119
1.41223
0.57279
0.395526
0.686619
0.404743
0.279878
0.704559
0.273653
0.839644
0.291782
2.10919
0.747967
1.42257
0.494849
0.0864949
0.0715411
1.2822
2.27926
0.388777
1.64135
1.55896
1.65049
2.45653
0.39874
0.647778
0.612369
0.889803
0.0503799
1.37852
0.324119
0.842
2.94568
0.206968
0.287242
5.00293
0.393734
0.309344
1.54183
0.992352
0.986211
1.08792
0.262271
3.32546
1.6556
0.106494
1.10199
0.472005
0.308022
0.957728
0.316197
0.203493
0.746828
0.163918
0.197491
1.50063
0.645038
0.0955445
0.0744059
2.07044
2.16202
0.734462
0.340873
4.70492
4.27743
0.647293
0.311776
1.93149
0.394631
0.611472
0.676166
0.0443428
1.41909
0.336546
0.321301
0.420491
3.93703
2.17618
1.2753
0.430885
4.64598
1.93272
1.04528
0.320944
0.706459
0.22805
0.325256
0.337023
0.410622
0.401671
0.313089
0.690916
1.952
0.381141
0.340479
0.939423
0.858263
1.32197
1.5543
0.976791
0.963761
0.282643
1.25582
0.198845
0.0709972
1.6397
2.53476
1.76019
2.54323
1.44474
1.47361
0.341067
0.410086
0.369608
0.37328
0.355027
0.490701
0.0874082
0.070472
0.164146
0.121993
0.12206
1.99966
3.05339
0.508893
1.70663
0.659845
1.1525
0.213803
1.17514
0.40751
0.162322
0.331942
0.121246
0.333966
0.229055
2.89771
0.679646
0.316033
0.0431348
1.49839
0.245114
0.192358
1.20896
1.75515
2.23472
0.382363
0.726707
0.940628
1.43428
1.03327
0.552357
0.0241452
0.0447935
0.450088
0.355322
1.11302
0.446885
0.0650737
0.0813454
1.3124
0.407964
0.818384
3.78409
0.331637
0.38677
0.415618
0.445141
0.31441
2.04811
1.81648
1.47957
0.123409
0.221748
1.5063
2.48108
0.505162
1.03324
0.368174
0.296609
0.409924
0.396871
0.0718582
0.289667
0.226141
0.0301302
0.358728
0.254044
0.389565
0.281979
0.533209
0.97697
0.350964
0.954406
0.46801
0.316133
0.332204
1.03691
0.2072
0.357018
0.712918
1.19516
0.426028
1.63559
1.37169
0.365401
1.23274
0.355942
4.83537
0.768693
1.93151
0.0418734
2.29445
0.414419
1.18879
0.182241
0.0307935
3.2945
0.510663
1.15452
0.367651
0.513435
0.360436
0.217432
2.12043
1.46709
0.116919
0.731297
0.665125
1.03943
0.614439
0.0943772
0.0785926
1.04374
0.490019
0.512924
0.367637
0.0913607
4.35517
1.04913
1.98442
3.95813
1.28592
1.73838
0.444567
0.148976
0.61152
0.908023
0.37133
0.78534
0.993914
0.202753
0.358988
0.965941
1.28567
1.62401
0.505733
0.515659
2.42243
0.511986
0.446735
0.184856
0.414826
2.19548
0.602989
0.615519
1.58197
3.23143
0.657242
0.311025
0.450803
2.17663
0.557366
0.777539
0.916641
0.639512
0.607648
0.193054
0.672081
2.03206
4.01448
0.77011
0.338612
0.194372
0.0492372
1.7721
0.425554
0.636122
3.69851
2.16901
4.36631
0.225247
0.41063
0.690975
0.967452
0.251815
1.89061
1.15149
0.245079
0.0658849
0.667226
0.029905
0.266503
1.30962
1.67241
1.146
2.26455
1.33984
1.22057
0.351048
0.506807
4.043
1.06395
1.13832
6.49169
0.200296
0.412416
1.33441
4.09741
1.35653
1.40239
1.4016
0.320601
0.286791
1.01824
0.382196
0.394845
1.78518
0.0751931
0.822254
0.17525
2.2849
0.41086
1.43479
0.462061
0.966455
0.389835
1.90705
0.72495
1.901
0.104101
4.72234
0.187722
0.365172
0.525761
0.0810351
0.249585
1.67784
0.818446
2.49587
0.66143
2.66941
4.5993
0.526822
1.19957
0.364579
0.327667
0.384344
0.0358444
0.830247
1.48163
0.346826
0.337394
1.51815
1.92302
0.487973
1.32358
0.341155
1.46062
0.223473
3.00328
0.390619
0.35358
0.0384831
0.613242
0.353553
2.01216
0.490784
1.05245
2.08539
0.502984
0.343033
2.69309
0.333062
0.181758
2.43868
0.29495
0.32808
0.135696
0.322027
1.49789
0.301056
1.45463
2.75148
0.0752491
0.692456
0.393904
1.23218
2.24924
0.378889
1.63107
1.0479
0.88589
0.359665
0.301958
0.281687
0.331525
0.0838421
0.0708683
0.758516
2.19944
0.466725
0.546467
2.87978
0.284933
0.932065
1.78635
0.497537
0.203145
0.265036
2.20895
0.149193
0.0379513
0.0712274
0.482756
0.764491
0.559613
0.367042
0.294365
3.13918
1.48272
0.385744
1.23715
3.01634
2.22701
0.912134
2.05192
0.0701869
1.19127
1.49531
0.481058
0.0879937
0.0755789
0.116559
0.408966
0.332378
1.37321
0.201142
1.51936
0.313593
0.635768
0.967842
1.45958
0.325869
1.8135
0.318513
0.762757
2.17285
0.859897
0.363959
0.563131
0.0895967
0.0806209
1.21228
0.418706
0.875379
1.57385
0.423255
0.905588
4.73057
1.58715
1.58673
0.0618385
3.25837
0.0263093
0.443248
1.17294
1.37753
0.671661
0.283738
0.371119
0.870694
1.94182
0.0591446
0.311011
0.422041
2.53475
0.598742
0.429749
0.321992
1.3261
1.5033
0.594631
0.25976
1.39341
1.40013
2.36528
1.41311
0.491916
0.204304
1.03826
0.649683
1.57736
0.249587
0.448469
0.504652
0.660939
0.0867925
0.328436
1.00109
0.436522
0.970872
0.0306775
0.54552
2.14661
0.896757
0.0985694
0.524303
0.488876
0.302863
1.45512
0.769926
0.151215
0.239586
0.0572695
0.0767275
0.426867
0.506942
1.42166
0.0794436
0.62113
0.572514
0.378839
0.137105
0.882403
0.308651
2.92797
0.44211
0.0780898
0.069993
0.404826
0.856853
0.262542
0.193636
0.0235211
0.68079
0.180844
0.0823444
0.381855
0.760573
0.230048
1.26113
0.539531
0.421759
1.40051
0.314616
0.718883
0.259333
0.0605683
0.106547
0.138867
0.373984
0.568632
0.252926
1.49685
0.162378
0.766689
1.4926
0.350426
0.238563
0.476702
1.11113
0.933833
0.530444
0.455523
0.0829838
0.0760101
0.195967
0.0827737
1.52331
2.30903
0.584867
0.205522
0.0954271
0.262303
0.0308235
0.582021
0.476085
3.36753
1.22533
0.364558
3.79425
0.0544222
0.266891
0.316037
2.01301
0.230655
3.93836
0.219264
0.767174
0.0832679
0.24736
0.177957
0.411443
0.743296
0.621376
0.646228
0.520811
0.209605
0.442596
0.0466372
0.554728
0.324585
0.980628
1.22231
1.17694
0.482369
0.451109
1.22096
0.306868
0.770131
0.379048
1.05272
0.339727
0.553729
1.68869
2.0708
0.369471
0.0833236
0.289853
0.052543
0.139118
0.612199
0.110238
0.447146
0.626227
2.78907
0.520676
0.430232
0.566305
0.267324
0.647357
1.01129
1.24597
0.807762
0.397097
0.377421
0.854191
0.256917
0.332207
0.384976
0.561026
0.833489
0.031255
0.482943
0.826468
0.0805738
0.491684
0.0822353
0.0487661
0.0868243
0.0182202
0.519991
0.0543949
0.251402
0.235393
0.282845
0.148539
0.0282485
0.0688539
1.51434
0.781404
0.359151
1.31832
0.585022
0.914658
0.528979
2.46069
1.61586
0.418635
2.19293
0.926097
0.193377
2.07185
4.1696
1.23103
0.065858
0.068713
0.0433108
0.0557032
0.0732338
0.264388
1.2446
1.76581
0.0277138
0.065758
0.244388
0.661015
0.295424
0.902998
0.0395334
0.0341578
1.46186
0.292132
0.906213
1.84851
0.341052
0.42787
1.51633
0.534524
3.10467
0.0471215
0.421784
1.21615
1.01243
1.49642
0.466389
0.0240535
0.163606
0.470533
0.319943
0.0691552
0.480751
0.0801777
0.53101
0.398792
0.678364
0.289519
0.0591288
0.358556
0.929323
3.48193
0.0832783
0.309259
0.0332749
0.358017
0.953052
0.473593
1.32655
0.419434
0.0485962
1.03739
0.563081
0.291179
3.76251
0.991133
1.41494
0.811052
0.162431
0.312101
0.930873
1.69034
0.289511
0.0701548
2.20153
0.228809
1.81953
0.278507
0.143535
0.31231
0.119314
0.484785
0.177849
0.363185
1.19749
0.213241
0.255553
0.188369
0.333934
0.704799
4.69832
0.315694
0.298729
0.425588
0.0695828
0.0748786
0.0328412
0.451491
0.0335397
0.197192
0.443419
0.626261
3.08787
0.431209
0.789849
1.18996
0.272635
0.199305
1.94389
0.303458
1.04746
1.44518
0.239525
4.91178
0.493934
0.0750231
0.0802554
1.56716
0.187276
0.408537
0.278949
0.104828
0.308489
1.52588
1.68581
0.731469
0.569546
0.423104
4.74879
1.17495
0.622293
0.77498
0.426837
0.362901
1.96357
0.989392
1.96136
2.02367
0.079342
0.117841
0.313221
1.43497
0.490132
1.70942
1.54928
0.648476
0.913388
0.360206
0.735532
0.221441
0.0821094
0.434388
0.0697849
0.221465
1.30467
0.563363
0.375223
0.493577
0.302486
0.629287
0.62347
0.421275
0.914484
0.9842
0.0491764
0.30367
0.148551
1.57926
0.176235
1.50392
0.362534
0.499725
0.459895
0.715008
3.10874
0.203826
0.468469
0.84712
2.24676
0.251677
0.1884
0.0832619
0.413556
0.939246
0.31853
0.531934
1.77603
0.297502
1.2062
0.299971
0.218122
1.28745
1.92886
1.64299
0.616596
0.466618
0.0137783
0.782386
0.0139821
0.427312
0.903109
0.936531
0.475096
0.608472
0.712659
0.780436
0.451765
0.013998
0.473853
0.135635
0.0145864
0.0563004
0.528555
1.99838
1.58597
0.377985
0.668911
0.0903946
0.156087
0.0147042
0.0153885
0.0461463
0.224418
0.472465
0.159241
0.478812
0.354866
0.214122
0.217775
1.88423
0.614985
0.0408403
0.0997342
0.189253
4.33728
1.75079
1.23456
0.241165
0.0880831
1.98627
0.612904
0.362154
0.70825
0.20954
0.134227
3.68681
0.19806
0.450284
0.207212
1.59719
0.307348
0.431877
2.46115
0.0490766
0.24794
0.273212
0.192323
0.0707719
0.048768
0.131998
0.251693
0.283285
0.826006
0.423868
0.260061
0.255686
0.950256
0.477812
0.847934
0.422028
0.317587
4.4165
0.0979783
0.505348
0.0812394
0.463318
1.29198
0.0310388
0.386949
0.970473
0.194035
0.204191
0.124687
0.190946
0.591448
0.528619
1.22538
3.70285
0.404695
0.97679
0.0670737
0.463121
2.76394
0.211308
3.41671
0.424914
0.112119
0.427793
0.230378
0.278954
0.690961
0.997838
0.320503
0.0474623
0.0799119
0.772962
0.453059
0.190109
0.267581
0.490364
0.518955
0.0467362
0.0580948
0.239036
1.10324
2.50747
0.256695
0.0418606
0.350123
0.281053
0.521733
0.420296
0.377595
1.4557
0.697256
0.14887
0.608001
2.65174
0.0278529
0.79496
1.26286
0.166402
0.943795
1.01241
0.750148
0.127984
0.0316353
0.149979
0.373738
0.164817
0.194038
0.305667
2.41785
1.37917
1.59711
3.15617
0.840467
1.47916
1.11723
0.262459
1.00587
0.3236
0.867204
0.203165
1.64172
4.20247
2.3332
1.81677
0.127367
0.224473
1.02179
0.612595
1.15485
0.0279028
0.089047
2.09726
0.504038
0.59586
0.434959
2.4032
0.17822
1.05494
0.879792
2.93473
1.30526
3.92881
0.0410726
2.10627
0.0818252
0.569513
0.0669699
1.63644
1.0328
1.1382
0.0632144
0.110398
3.18476
0.132152
0.0704849
1.81079
0.383445
0.571251
1.26445
4.20849
1.53112
0.0540891
0.0966037
1.40246
1.81894
2.11149
1.68431
2.5766
0.631762
0.395465
2.94639
2.01888
0.0712746
0.046647
0.407294
0.0849974
0.137871
0.314946
0.796492
0.542853
0.159166
0.633564
0.960044
0.236172
3.5839
1.8755
3.48729
0.408593
0.535148
0.533419
0.676147
0.612075
1.09541
3.80526
2.6748
1.16322
1.57433
0.345031
0.891582
0.426583
0.0516888
2.98491
2.75644
0.329985
0.809181
0.049736
0.233979
0.542355
1.25791
0.187011
1.16068
0.313459
2.67481
0.0816822
0.560383
0.0703624
0.263343
0.046298
0.274527
1.64939
1.31427
0.124143
3.78333
0.110294
0.239059
2.04084
0.349901
1.67154
0.431821
0.374402
2.59492
0.177535
0.465776
0.257566
1.69174
0.587345
0.191607
1.53983
0.876995
0.50664
0.66741
1.18635
0.479588
0.450362
1.9159
0.0222997
0.564259
1.09835
0.284009
0.362669
3.36152
0.309696
1.994
0.208269
0.085568
0.0744645
0.0639103
0.577397
2.17053
2.11544
2.32119
0.433808
0.908466
0.22973
0.667323
0.690154
0.540008
0.211242
0.235796
0.300222
0.4587
0.0296542
0.0276826
0.0800927
2.22745
0.220581
0.51356
0.912845
3.54686
2.80899
3.10138
1.2595
0.313835
1.15397
0.13924
0.239074
1.45776
2.98217
0.499079
0.448858
0.0819378
0.542594
1.05246
2.13278
0.273877
0.35814
0.990622
0.386262
0.125882
0.248889
0.0266716
0.206677
0.280891
2.32444
1.95628
0.234382
2.48781
0.882427
0.239817
1.20858
0.969256
1.2558
0.371679
0.941856
0.836873
0.75041
1.69671
0.0549042
0.0696402
1.47147
0.354178
0.19689
0.145904
1.34012
0.537071
0.52675
0.0828804
0.51792
0.0919173
0.527881
0.502785
0.50858
0.509087
1.15534
1.14084
0.651682
0.199503
0.510062
0.552531
0.0415746
1.08927
0.0349869
0.263146
0.33105
0.385587
0.957182
0.297749
0.301456
0.227711
0.0571005
0.476875
0.0743407
0.116281
4.76468
1.35902
0.511439
0.0529296
0.064889
0.373847
0.0251008
0.0686543
0.720767
0.0760626
0.043751
0.538135
0.088468
1.18684
0.517761
0.100622
0.575201
0.29456
0.608389
0.615002
0.363299
0.615909
0.516424
1.97383
1.04273
0.0851333
0.661623
2.23747
2.47152
2.16197
0.481677
0.263068
0.0215565
0.0330924
1.13206
3.06205
1.28548
0.193943
1.34557
0.244717
0.385607
0.992
0.498585
1.41772
0.438354
2.61103
0.0189752
0.262853
2.75028
1.01626
0.189824
0.505757
1.04682
1.58073
1.265
0.860186
1.03628
0.127372
0.374448
0.427895
0.223426
0.329304
0.362047
1.30077
0.719139
1.79147
0.75212
0.903532
0.129999
0.305311
0.430559
2.10522
1.04942
1.24045
0.410844
4.23073
0.369199
0.500404
1.66397
0.0496911
0.302971
0.157974
1.80612
2.90604
1.14403
1.25534
0.941893
1.39796
0.353837
0.31608
0.0251018
0.237331
0.33444
7.74064
4.66608
0.392509
2.56542
0.978663
0.421802
0.0509099
1.06331
0.0596328
0.0435117
0.0469313
0.206028
1.24162
0.990682
0.30113
1.26958
0.0631085
0.223061
0.0229098
0.374048
1.1643
0.837639
6.44051
0.438075
0.32068
0.0202873
0.424306
3.48284
1.55855
0.50784
0.274142
0.280104
0.343807
0.225226
0.24284