/*--------------------------------*- C++ -*----------------------------------*\
| =========                 |                                                 |
| \\      /  F ield         | OpenFOAM: The Open Source CFD Toolbox           |
|  \\    /   O peration     | Version:  v1912                                 |
|   \\  /    A nd           | Website:  www.openfoam.com                      |
|    \\/     M anipulation  |                                                 |
\*---------------------------------------------------------------------------*/
FoamFile
{
    version     2.0;
    format      ascii;
    class       volVectorField;
    location    "0.32";
    object      U;
}
// * * * * * * * * * * * * * * * * * * * * * * * * * * * * * * * * * * * * * //

dimensions      [0 1 -1 0 0 0 0];


internalField   nonuniform List<vector> 
5794
(
(-0.47999 0.00212578 -2.60292e-17)
(0.189683 2.3319 0)
(0.875937 -0.141052 -1.41005e-16)
(0.552881 1.69285 1.06281e-16)
(2.44929 0.99741 2.92516e-17)
(-0.122453 2.6753 -8.37417e-17)
(3.75497 0.0542235 -1.27463e-16)
(-3.82837 0.0331885 0)
(5.84582 0.998207 8.76191e-17)
(-1.35806 0.0870986 1.76052e-16)
(4.79364 -0.106544 -2.62317e-19)
(-0.682398 -0.453223 0)
(-2.03106 -0.424272 4.4902e-16)
(-0.0880056 2.10924 2.7509e-16)
(1.29382 0.276727 3.9659e-16)
(0.632076 -0.12892 -1.3659e-16)
(2.23246 0.340747 5.57463e-17)
(-0.147459 1.64379 2.05e-16)
(1.84647 -0.0252666 3.55197e-16)
(-0.0047861 1.79377 1.18117e-16)
(-2.93832 1.6532 -3.78195e-17)
(-0.0462372 1.39672 -1.17093e-16)
(3.81302 0.343262 1.80609e-16)
(-1.3633 -0.159434 -5.13159e-16)
(-3.02371 -0.280239 -2.67737e-16)
(2.98098 9.8299 1.98915e-17)
(7.14378 0.132245 0)
(-2.71159 6.20469 -1.01009e-16)
(0.317471 10.0781 -2.94867e-17)
(-0.104753 -0.152493 2.84644e-16)
(1.18301 -1.06998 -4.79573e-16)
(-1.08438 0.0262208 -5.01526e-16)
(-2.48302 0.207629 -7.69443e-16)
(-0.88503 -1.1767 3.68663e-16)
(0.863955 0.184895 -1.53967e-16)
(1.71619 -0.607137 1.46164e-16)
(9.7113 0.557339 -1.92261e-16)
(0.250288 -0.24295 0)
(3.20559 -0.617832 1.12079e-16)
(1.60834 3.03071 0)
(-2.45046 -1.44137 -9.15464e-17)
(-1.69939 -1.09313 1.17269e-16)
(7.37542 0.110745 -8.74498e-19)
(0.29815 -2.17453 0)
(1.22789 -0.136218 -3.48591e-16)
(5.1274 -0.0989664 1.13339e-16)
(2.35321 -0.0344902 -2.54728e-16)
(-2.74753 -0.188651 0)
(-0.830931 0.2101 6.71949e-16)
(-0.206752 -0.43384 6.12957e-17)
(0.449769 -0.19292 -1.5285e-16)
(6.33311 -0.156251 -1.51123e-16)
(1.20439 0.092425 0)
(1.59804 2.18593 1.08218e-16)
(-0.0959548 -0.0771897 9.36956e-18)
(5.48022 -0.545521 0)
(2.53094 -0.166178 -2.04532e-16)
(-1.9541 0.551501 1.149e-16)
(8.32646 0.0598297 0)
(4.35933 9.18768 -6.67088e-19)
(9.19685 0.436858 1.68096e-18)
(0.671192 1.65911 -9.53412e-17)
(0.938177 -1.78609 -1.07562e-16)
(-0.416855 -0.00968528 2.11049e-16)
(-1.4628 0.43707 0)
(1.7277 0.363515 -2.03148e-18)
(0.228975 0.281573 -2.38579e-16)
(0.37361 0.720732 0)
(-0.191894 1.32954 -2.1509e-16)
(0.0338958 0.932119 -9.77005e-21)
(5.08332 -0.423082 1.16058e-16)
(0.342765 1.40266 -3.10094e-16)
(12.1221 2.02652 -3.44482e-18)
(-1.44184 0.173666 0)
(-0.203446 1.41174 2.07905e-16)
(-1.92984 4.56592 -1.4018e-19)
(-2.0817 0.32089 9.58706e-17)
(1.69491 9.5649 -2.07143e-17)
(0.0865031 -2.16422 3.53851e-17)
(0.692142 -0.0354356 6.20195e-17)
(-0.149865 0.0790217 -1.90994e-17)
(0.0375882 1.8424 -1.14761e-16)
(-2.53086 -2.16994 8.38871e-19)
(1.81265 -1.75448 -7.62865e-17)
(-0.826372 -0.973795 -3.2364e-16)
(-0.108301 5.5341 -3.39558e-17)
(0.197159 4.39831 3.12713e-17)
(-0.0301864 4.91799 -2.32181e-17)
(-1.12349 -0.265812 -1.53373e-16)
(3.09803 1.10526 -3.5869e-17)
(1.00082 5.76417 -6.96847e-17)
(-0.00762892 5.43663 -8.18846e-17)
(-0.0955667 7.90284 1.08775e-16)
(0.206612 7.54549 5.1877e-17)
(-0.126171 7.00632 2.65173e-17)
(-2.06995 0.0268976 4.59261e-18)
(0.0208987 6.39616 -4.80383e-17)
(-0.148781 7.65296 -1.17576e-17)
(0.0260241 5.2746 0)
(8.94531 0.483775 -2.72122e-17)
(1.80343 3.37452 -1.00087e-16)
(-0.827304 0.100685 -3.87686e-16)
(8.24107 0.140154 6.58737e-17)
(0.374641 3.23081 -3.01268e-16)
(0.113829 -0.458954 0)
(-1.53542 7.26265 0)
(0.0683114 1.68126 0)
(-0.626591 0.110308 -2.38047e-16)
(-1.28996 0.534684 -1.05747e-16)
(-0.0801608 -2.11552 -9.58504e-17)
(0.995519 0.200956 -9.78886e-19)
(-0.691749 -1.04892 0)
(-1.27528 4.8482 9.04778e-17)
(-0.00445137 -0.478567 1.35128e-16)
(-0.229951 6.54457 0)
(-0.0159226 7.8821 0)
(0.531307 0.323138 -3.19802e-16)
(-1.42252 8.72509 -1.69328e-18)
(9.42361 0.391843 -2.41407e-20)
(10.8203 0.648907 5.0875e-18)
(-1.59799 8.89327 8.33831e-17)
(2.09255 0.0970481 0)
(-1.377 -0.488269 0)
(-2.23337 5.0866 -1.27839e-16)
(-0.977744 -0.684893 1.65204e-16)
(4.90415 2.47834 4.52136e-17)
(-0.329267 1.15217 0)
(0.0421527 2.85569 5.04512e-17)
(6.7026 -0.472881 9.90478e-17)
(-0.510603 -0.0307724 1.48827e-16)
(1.01695 -0.549187 2.71282e-16)
(0.343257 -0.958644 1.82121e-16)
(0.0368743 0.286396 2.58722e-17)
(1.2092 9.12474 -6.3873e-17)
(-1.00359 7.68752 1.04448e-16)
(0.584987 0.618019 0)
(4.6949 -0.191258 8.09971e-17)
(0.813356 1.61064 -1.43007e-16)
(0.0746368 -0.234998 1.81013e-16)
(0.353253 -0.380047 0)
(-2.08409 -2.0884 -3.27342e-16)
(1.76274 5.94209 0)
(-0.867056 -1.52081 0)
(1.21521 6.04476 2.17349e-16)
(0.0752081 -0.177374 2.03203e-16)
(2.18021 0.106024 1.70553e-17)
(-0.56829 0.497038 2.05055e-16)
(7.99948 0.27005 2.06694e-16)
(2.90036 0.603127 -1.86546e-18)
(0.402545 5.36037 2.60392e-16)
(7.23431 -0.173238 -1.57227e-16)
(1.18652 0.508402 2.40745e-16)
(-1.24941 7.32941 0)
(-0.693352 0.282056 1.81012e-16)
(5.00226 -0.158727 0)
(2.48685 -0.0187999 0)
(1.84334 -0.789382 -2.19699e-16)
(0.0747221 -0.247883 3.7765e-16)
(5.07133 0.200611 -2.38472e-16)
(-0.0570924 -0.125777 -1.3079e-16)
(-1.23082 0.338395 3.31776e-16)
(1.70955 0.125247 -2.72725e-16)
(0.610904 -0.193566 0)
(-0.394157 -0.102255 -1.31062e-16)
(-2.92052 0.0206446 -2.59345e-16)
(-3.03419 -0.0702878 1.41794e-16)
(0.631416 -0.144189 1.14882e-18)
(1.49514 0.0127578 -2.94592e-18)
(1.10544 0.0551975 0)
(-0.850966 -0.359944 7.87549e-19)
(0.100723 -0.0693799 0)
(-1.85958 0.421838 -9.91556e-17)
(-1.44296 -0.500749 0)
(2.40479 -0.0607008 7.08706e-17)
(-1.14169 -0.358306 3.62288e-16)
(3.6016 0.0101106 0)
(1.4909 0.13658 -1.97033e-16)
(-3.23969 -0.303458 -1.58374e-16)
(-1.63261 -0.345377 -7.14079e-17)
(6.30443 0.158069 5.8694e-18)
(1.47522 0.0115902 -4.41802e-18)
(-0.688858 -0.271565 0)
(2.74649 0.350464 0)
(-2.41996 -0.393401 1.0497e-16)
(1.74641 -0.280714 0)
(0.230245 -0.523699 7.32756e-17)
(-0.859983 0.067833 -1.36966e-16)
(-0.9478 0.38051 -9.16314e-17)
(-1.29253 0.142716 1.12026e-16)
(-0.700695 0.0782466 3.07864e-16)
(4.70478 -0.0651753 -3.08676e-16)
(-1.18589 -0.0592977 3.58433e-16)
(-2.77191 -0.115222 5.08881e-16)
(2.14036 -0.576234 4.49679e-16)
(-0.0850807 -0.240405 -9.14406e-17)
(0.459749 -0.16764 -4.79479e-16)
(-3.6581 -0.266169 -1.35208e-17)
(-4.03051 -0.482618 -1.15603e-16)
(1.68904 -0.262504 -2.4221e-16)
(6.40772 -0.0448383 1.09272e-16)
(3.56807 -0.0838039 -1.45785e-17)
(6.12555 0.0546982 0)
(-2.01923 -0.503821 0)
(-0.184035 -0.432141 9.48672e-18)
(2.26371 0.0399147 -5.85338e-17)
(4.98217 0.0981229 0)
(-1.59962 -0.662668 8.4877e-18)
(0.335115 -0.205516 2.20527e-19)
(5.68548 0.565591 -6.28065e-18)
(2.05817 8.12632 1.13768e-16)
(-0.374256 -1.41517 9.01692e-17)
(9.65382 -0.0165586 0)
(0.972364 -0.651326 -8.92997e-17)
(1.32843 0.17879 1.25451e-16)
(-1.86001 -0.925749 0)
(-3.63481 -0.615411 4.26608e-16)
(4.64029 0.37575 -9.05337e-17)
(0.745809 0.365409 1.0491e-16)
(4.15264 -0.181787 1.19506e-16)
(1.30121 5.78836 -1.52109e-16)
(9.57149 -0.0113513 0)
(2.47617 0.484773 1.64349e-16)
(-0.635896 1.79184 0)
(-0.0233285 5.25872 2.2625e-17)
(5.53652 0.114569 1.14024e-16)
(11.6534 0.74871 2.01714e-18)
(0.346884 0.0777845 -7.08158e-17)
(-0.429719 -0.187658 -1.03008e-16)
(3.2606 -0.0274787 0)
(0.248354 0.540395 -2.87568e-16)
(-0.330314 0.427727 0)
(1.26169 -0.6173 -4.79308e-17)
(-1.70147 -0.681007 -8.24209e-17)
(-0.986817 0.675756 1.32103e-16)
(0.586922 -0.0308172 1.83303e-16)
(8.88379 0.208527 6.8731e-18)
(7.2631 0.511799 2.28922e-18)
(7.53376 0.564097 2.56046e-17)
(-2.30752 -0.0610884 -1.28729e-16)
(-1.03179 0.19552 -3.60466e-16)
(0.425245 1.73435 0)
(1.33842 0.667466 1.02856e-15)
(1.25595 4.16188 1.98813e-16)
(-0.625996 0.652238 -2.57856e-16)
(-1.01005 0.600525 2.50692e-16)
(0.779855 0.375449 2.56096e-16)
(0.719633 -0.676005 -1.21528e-16)
(3.53334 0.47867 8.06435e-18)
(-0.140299 6.22486 0)
(-0.052869 6.17553 0)
(0.037749 3.56757 0)
(1.22674 0.346399 2.23952e-17)
(3.6577 -0.0735376 -7.59705e-17)
(-0.674646 0.262827 -1.64633e-19)
(7.32372 1.14976 -5.14658e-17)
(4.91283 1.26877 -1.24545e-17)
(8.15725 0.217956 -1.35235e-16)
(8.98588 0.4797 1.42671e-16)
(-0.0264118 -0.681377 2.50234e-16)
(-1.47139 -0.183105 0)
(6.37762 -0.0382085 -9.83277e-17)
(1.11147 -0.487956 7.7448e-17)
(1.21793 0.111721 -7.36794e-17)
(1.24418 -0.255473 0)
(-1.71991 -0.0439172 0)
(-3.33788 0.102661 -4.24341e-19)
(0.716909 7.20412 9.34798e-17)
(3.96624 0.853094 0)
(-1.73194 0.172913 -5.37177e-16)
(4.35646 0.152552 -1.08759e-16)
(2.22234 -0.019926 0)
(-1.67307 -1.15552 -2.08125e-16)
(-2.69409 -0.918456 -3.45127e-16)
(5.27179 -0.260168 -1.39886e-16)
(9.40134 0.0873408 3.21646e-17)
(0.905894 0.297157 2.68142e-16)
(1.85201 1.90861 -1.2127e-16)
(-1.55134 -0.151402 -7.0189e-17)
(0.388135 0.198446 -1.77628e-16)
(-1.35702 0.916164 -2.12418e-16)
(-4.81825 -0.113762 1.87601e-16)
(0.89926 3.10729 2.28295e-16)
(-2.25755 -1.2443 9.84153e-17)
(-1.61766 -1.1908 -3.33603e-16)
(2.02226 3.35963 4.66907e-17)
(-0.114821 5.19216 9.66841e-17)
(-0.0955195 6.476 1.04417e-17)
(-0.031981 6.20785 0)
(0.872233 5.8133 3.61716e-17)
(-1.06743 8.81876 0)
(2.23593 0.491926 -1.00994e-17)
(0.146296 -0.337823 -1.02652e-16)
(-1.18804 -1.0178 1.93076e-18)
(2.33081 0.992899 0)
(8.09031 1.62765 0)
(1.36828 7.03542 6.73442e-18)
(-0.512421 -0.442031 6.00713e-17)
(-1.92105 -1.20974 4.12831e-19)
(2.7134 4.56174 -1.4109e-16)
(1.28762 -0.427564 -1.44404e-16)
(0.00150623 1.5993 8.25268e-17)
(-0.395544 6.54642 0)
(0.0246906 -0.251512 -7.7451e-16)
(0.527124 1.58435 0)
(-1.14959 -1.12796 -1.30847e-16)
(3.79894 0.309525 1.45762e-18)
(0.314069 0.11832 -2.55655e-16)
(-0.194265 1.17307 3.53419e-16)
(4.92533 0.19832 2.20321e-16)
(2.41733 -0.0260353 0)
(-0.314588 -0.550941 -5.56849e-16)
(-0.15458 0.0944461 -2.81824e-16)
(1.33481 6.94278 -1.27383e-16)
(0.174861 -0.499084 -7.64921e-17)
(10.5622 0.120164 0)
(9.99968 0.28544 -1.59968e-17)
(-0.263335 0.155725 -8.56775e-17)
(-2.81161 6.83405 -2.03124e-16)
(-2.00091 0.350102 -1.8884e-16)
(0.396965 8.03149 -3.262e-17)
(-2.8032 0.500444 2.6439e-16)
(3.44204 0.32603 -1.26269e-16)
(-1.00742 6.80852 -7.44254e-17)
(3.07516 0.734753 -8.84992e-19)
(-0.183175 -0.313983 0)
(1.87148 -0.881466 0)
(-1.52202 0.221084 0)
(-0.307873 -0.301452 6.58533e-17)
(-1.24566 -0.250647 -3.02065e-16)
(4.59134 -0.12564 2.70326e-16)
(6.45243 0.00954261 -6.06066e-18)
(6.57227 -0.123001 2.73906e-16)
(0.577286 -0.363907 8.0297e-17)
(-1.88198 0.380828 4.36712e-16)
(-1.05754 0.075899 0)
(-1.50031 0.116016 -2.01108e-16)
(-1.46688 -0.110554 0)
(1.02214 -0.0636892 0)
(-0.9968 0.099026 -2.73395e-16)
(-0.214987 -0.0638943 0)
(-1.03394 -0.0694454 3.6572e-16)
(-2.20997 -0.00120362 2.93777e-16)
(6.3256 0.461811 0)
(3.5644 0.0566116 0)
(1.08485 0.224954 3.47014e-16)
(1.68289 0.135009 2.87457e-16)
(-1.41495 -0.681628 2.73167e-16)
(0.190909 -0.190642 -2.24316e-17)
(-2.97618 -0.105194 -1.05803e-16)
(0.477922 -0.108215 7.64933e-17)
(3.79448 0.0238282 4.97186e-17)
(0.559865 0.148658 2.40415e-16)
(-2.98456 -0.180618 -1.89294e-17)
(-1.13397 -0.170302 1.43275e-16)
(2.8427 -0.09254 0)
(-0.196825 0.00931239 0)
(0.99854 -0.360392 1.51837e-16)
(5.68012 -0.37742 1.44674e-16)
(3.35568 0.0237283 5.0957e-17)
(-3.77823 -0.151992 0)
(0.120827 -0.109797 -2.50366e-16)
(0.23703 -0.470682 5.06139e-16)
(5.10944 -0.0761747 3.21031e-17)
(3.68532 -0.0138807 -2.2876e-17)
(-3.1828 0.173235 -1.51121e-16)
(3.3725 0.0845555 3.259e-16)
(-3.15613 0.000801488 -3.27127e-17)
(4.59444 -0.335492 0)
(2.10384 -0.137393 3.31027e-16)
(-2.4013 0.165933 -6.85515e-17)
(0.208314 0.897787 -1.10006e-16)
(1.61941 -0.323434 0)
(3.02024 0.0897746 -7.79868e-17)
(0.61248 -0.497892 2.77231e-16)
(0.538186 0.202886 7.79032e-17)
(-2.73888 0.15452 1.20693e-16)
(4.12468 -0.0669198 0)
(1.98418 0.190309 8.85528e-17)
(-1.64294 0.638217 0)
(0.454779 0.0612727 1.38821e-17)
(-2.6236 -1.53655 9.91079e-17)
(0.0787142 0.518312 0)
(10.7415 0.0822814 0)
(0.633772 -0.811855 1.20159e-16)
(1.71068 0.324162 -4.29202e-16)
(-0.305821 -1.00275 -2.98445e-16)
(0.0701917 9.51992 -2.37878e-17)
(1.86649 -0.16188 1.99569e-16)
(0.133708 0.318447 -8.06302e-16)
(0.843071 -0.188184 0)
(1.35383 0.0658944 -5.42981e-16)
(-1.21532 1.16706 -1.04328e-18)
(0.00784298 1.01777 -2.11492e-18)
(-3.24502 0.279632 9.51099e-17)
(-1.87044 -0.0787541 6.21016e-17)
(2.20197 -0.300417 -6.71727e-17)
(-1.95959 -0.34422 8.63195e-17)
(0.64047 -1.7658 0)
(-1.51565 0.681628 0)
(4.16003 0.111127 -1.85982e-16)
(-1.95 -0.460942 1.08612e-16)
(-4.28433 -0.580853 -2.33019e-16)
(9.93073 0.207516 3.43643e-17)
(0.838718 0.23311 1.69108e-16)
(0.198478 -0.841613 0)
(6.7004 1.0424 4.10706e-17)
(1.50618 -1.1078 4.08219e-19)
(-0.270299 1.92821 1.49521e-16)
(0.217111 1.67973 -2.83654e-17)
(-0.387208 5.94793 -5.3771e-17)
(-0.102232 7.44782 1.85779e-17)
(0.153421 5.30394 0)
(0.826856 0.450648 1.59848e-16)
(-0.964531 0.343656 2.39999e-16)
(5.13569 0.0565438 1.77241e-17)
(2.36171 -0.0402083 7.33641e-17)
(-0.625719 -0.293346 0)
(-0.0810701 1.09205 2.32299e-16)
(-2.4078 0.167636 0)
(-0.184473 6.55016 3.31219e-17)
(0.0423474 5.20386 -6.40677e-17)
(-0.186226 7.71063 2.46012e-17)
(-0.0919673 0.0363066 -1.40377e-17)
(0.411548 1.30997 -3.15599e-17)
(-1.47077 -0.602558 0)
(1.95998 0.208849 0)
(-0.188994 -0.261537 -1.84498e-16)
(-0.165278 -0.39776 -1.73714e-16)
(-0.0307279 1.8439 -1.05724e-17)
(-0.280555 1.17559 4.30796e-17)
(4.33166 0.935098 2.59034e-16)
(9.95914 0.149083 1.13856e-17)
(0.862502 6.93509 -1.93135e-16)
(1.08587 -3.00499 -1.73041e-17)
(1.66094 -0.513255 2.47854e-16)
(0.549263 0.393715 0)
(-0.57339 -0.43174 1.4079e-16)
(0.438509 -0.490815 -8.78953e-18)
(-0.619868 -0.665428 -8.45728e-17)
(1.79901 0.25253 1.4095e-16)
(0.445877 -0.562007 2.22866e-16)
(9.91314 0.100787 -2.2201e-16)
(1.12869 -0.532468 0)
(1.38024 -0.201595 6.29093e-17)
(-1.34055 0.549805 -1.73085e-18)
(0.0465605 7.83343 -4.84501e-17)
(-0.160322 6.71906 7.42833e-20)
(0.22737 -0.255574 0)
(1.25608 -1.84295 1.51011e-16)
(0.926249 0.192859 -7.57967e-17)
(-1.28485 -0.163572 -1.91438e-16)
(-0.0306789 1.94401 -4.87412e-17)
(-2.6018 1.23361 3.87449e-17)
(-0.0223077 0.969459 -4.3834e-16)
(-0.12388 6.72167 -2.2378e-17)
(0.869164 -0.110726 -4.68392e-16)
(0.402389 5.25892 -1.93244e-18)
(-1.6177 -0.356861 -1.82908e-16)
(-0.0783253 6.86203 -2.58867e-17)
(1.1289 6.51244 7.77877e-17)
(-0.29718 0.478719 -1.0181e-16)
(0.0730292 1.94741 -1.64988e-16)
(-0.521622 1.40746 1.45335e-16)
(0.371449 0.583078 -3.30938e-16)
(8.62693 0.526732 8.16842e-17)
(-0.504244 -0.0240989 -2.57646e-16)
(10.4741 0.551991 -2.10263e-18)
(3.50158 2.38808 6.49241e-17)
(0.534473 0.0920583 -4.0623e-16)
(-0.361943 -1.81194 -4.4229e-17)
(0.226875 0.096853 3.74999e-17)
(6.47805 0.580264 -5.35946e-18)
(1.54704 0.713668 -6.29084e-17)
(2.7629 -0.141291 1.99962e-17)
(0.561983 0.265878 -1.73708e-16)
(-0.899687 -1.20409 1.03372e-15)
(7.67892 1.37877 -3.45313e-18)
(-2.92447 6.5594 1.14315e-16)
(-1.34372 -0.0159581 1.58833e-16)
(0.0261113 1.90544 4.0697e-17)
(-1.47561 1.437 2.08475e-16)
(-0.246111 0.236478 0)
(3.60401 0.0195698 -1.11115e-16)
(3.35958 -0.0986702 8.27392e-18)
(-0.113779 0.1522 1.58117e-16)
(3.41742 -0.118539 -6.5888e-20)
(9.71573 0.0221048 0)
(-0.743001 0.392384 1.91955e-18)
(0.754323 0.03845 -4.82805e-17)
(-0.143749 0.397979 5.73677e-20)
(-0.0261945 1.93566 1.44136e-16)
(-0.0393934 3.18498 -1.36006e-16)
(-0.570383 5.21399 3.9743e-16)
(3.68466 0.5696 7.73184e-18)
(1.53633 -0.412273 -2.13216e-19)
(1.10621 -0.118092 2.01554e-16)
(-0.13649 0.0913797 0)
(-0.0165514 0.615339 0)
(0.58416 -0.357328 -3.02941e-17)
(7.13495 0.896862 -1.39879e-19)
(4.0801 1.11192 2.67919e-17)
(7.73995 0.793163 -7.39695e-18)
(10.3383 0.488207 2.90368e-18)
(0.660813 -0.350748 0)
(0.712702 6.02622 0)
(0.180388 1.73972 1.66155e-16)
(-0.469931 0.492486 2.05705e-16)
(9.04769 0.455438 -3.98608e-16)
(1.57147 0.690041 0)
(1.73649 -0.0403684 0)
(-2.01231 0.120959 1.78653e-16)
(0.279653 0.0487803 1.62712e-18)
(-2.86164 -2.10537 -1.08774e-16)
(0.811834 -0.0505897 1.72499e-16)
(0.444905 -0.399406 -8.618e-17)
(-0.265715 6.03805 -2.62051e-17)
(-0.179305 7.89038 -1.14916e-17)
(0.765053 -0.0402245 -2.29428e-16)
(9.83095 0.152844 -5.90619e-17)
(9.99198 0.395731 3.54533e-18)
(-0.470394 1.21622 1.20424e-16)
(0.341656 1.80426 -3.0924e-17)
(2.79852 1.26775 -1.17894e-17)
(-1.03371 9.5278 -1.0099e-16)
(-0.213434 0.0442907 9.82834e-16)
(0.257273 2.09194 4.89689e-18)
(-0.956908 -0.369824 0)
(5.5875 3.88001 5.62898e-17)
(0.099026 1.9425 8.49191e-17)
(-0.118551 1.39717 -3.77504e-20)
(-0.554246 2.26185 1.51339e-16)
(-0.0873597 -0.16109 0)
(10.4517 0.365915 0)
(-0.167624 0.290017 -5.94328e-17)
(3.14485 0.000519124 0)
(3.05707 0.104277 5.65071e-17)
(9.9896 0.0597263 -9.28107e-17)
(5.24022 -0.0187518 6.61386e-17)
(-0.488092 0.0335513 1.14252e-16)
(7.35899 0.0417899 8.41804e-17)
(-0.0962303 1.38497 6.37476e-17)
(-0.536708 -2.63704 1.44047e-16)
(-0.0194754 1.76305 1.58841e-16)
(-0.185333 1.6168 -1.60376e-16)
(-1.34215 0.133232 -6.1429e-17)
(-0.475492 -0.245481 0)
(9.65377 0.767068 0)
(1.46224 5.96747 -2.22848e-16)
(-0.0507209 -0.317993 -1.87519e-16)
(-0.00406489 1.65893 5.07411e-16)
(0.734123 3.67388 -3.38583e-17)
(0.553907 0.116287 0)
(1.59831 0.0843167 -3.62657e-16)
(-0.977235 -1.06758 -1.32242e-16)
(0.0503162 1.78451 1.21179e-16)
(-0.739777 -1.64861 0)
(0.424511 2.2715 0)
(-0.102807 1.62214 0)
(0.153325 1.86586 -1.33868e-16)
(1.43289 3.1294 6.65423e-18)
(10.6292 2.60174 -2.44307e-18)
(-0.0202295 0.0194187 0)
(5.59337 1.40031 0)
(1.26505 0.778606 -7.35356e-17)
(0.0502404 1.99332 1.107e-16)
(-1.23843 0.147748 0)
(0.756244 -0.0480979 3.49337e-16)
(0.186889 -0.470276 -6.79757e-19)
(-0.12655 0.743069 -1.39839e-16)
(1.69055 -0.512715 0)
(8.22116 0.549159 -5.59323e-17)
(-1.56174 0.66986 -1.32437e-16)
(0.586221 2.57699 6.63406e-17)
(0.058406 4.33693 0)
(0.837522 3.33821 -9.94318e-18)
(9.8341 0.238663 -1.78136e-17)
(3.3846 1.64718 -4.50418e-18)
(2.13826 3.95948 -1.14079e-16)
(-2.39932 -1.28143 -1.82966e-16)
(-0.87799 -0.347404 -4.39004e-16)
(-0.155041 7.00401 6.0432e-19)
(-0.348686 6.56579 4.01105e-17)
(2.79905 2.61897 0)
(9.90794 -0.0269833 2.28257e-17)
(-2.66788 -0.16944 1.18075e-16)
(9.07206 0.764733 -1.04318e-16)
(-0.293868 -0.259906 1.59214e-16)
(-0.125071 6.83393 0)
(-0.0107181 6.15048 -4.79286e-17)
(-0.21962 4.93635 1.6261e-16)
(1.72527 -0.237933 -5.70848e-18)
(0.135685 2.49641 3.84384e-17)
(1.1342 1.26048 4.99091e-18)
(-0.0870062 6.69917 -2.37177e-17)
(-0.415332 6.77033 -2.46876e-17)
(1.93759 8.90339 4.98349e-17)
(0.426999 0.0253167 1.8856e-17)
(10.1028 0.176977 0)
(0.193887 -0.291382 4.66177e-16)
(0.579545 0.697431 -8.34652e-17)
(-0.644531 0.519492 -2.89218e-16)
(7.74049 0.545614 1.47281e-17)
(-0.292603 6.96176 -3.69655e-17)
(-0.00188369 6.89123 1.61481e-16)
(1.18614 -0.226729 -7.59339e-20)
(-0.413943 0.0497675 -1.10038e-16)
(1.17265 6.0653 0)
(-1.58271 0.0132557 0)
(-0.0954481 -0.203276 -1.86237e-17)
(-0.152757 -1.76031 0)
(4.36781 3.04719 -6.02251e-17)
(4.8954 1.79967 0)
(2.19649 3.5361 -1.85498e-16)
(2.10064 -1.40506 4.52446e-17)
(1.61694 0.275363 2.76524e-16)
(2.12039 0.0264888 3.20966e-17)
(7.43883 0.730157 -1.33119e-17)
(4.06601 -0.000253225 -2.07752e-16)
(7.68216 0.14724 -2.59802e-16)
(1.61508 -0.312366 0)
(0.296243 1.66295 -6.6342e-17)
(5.22708 3.04898 1.45323e-16)
(3.73786 1.73982 -6.62223e-17)
(-0.0772035 -0.027423 -3.37877e-16)
(0.434852 1.74732 4.60021e-16)
(0.175703 2.03403 2.47566e-17)
(0.615238 -0.387956 -4.1656e-16)
(1.25749 1.5286 -5.80176e-19)
(1.02965 0.977293 -2.20619e-16)
(-0.480619 -0.255335 1.66427e-16)
(-0.689606 0.496023 7.62474e-17)
(0.240057 2.21284 0)
(0.153216 0.671809 -6.78888e-17)
(-0.538087 1.16673 -6.29e-17)
(0.350595 1.59316 2.4733e-16)
(3.58307 0.0278485 -6.3425e-17)
(1.44541 7.99769 -3.40264e-17)
(10.6218 0.426757 -6.4132e-17)
(3.21559 -0.0173728 7.1091e-17)
(-2.29554 6.61093 -3.71322e-17)
(-1.08844 0.0395857 -1.1764e-16)
(8.57833 0.167137 3.21683e-16)
(3.99074 -0.109295 -2.16565e-17)
(-0.0570724 6.35543 3.10849e-18)
(4.67422 -0.141493 2.16377e-16)
(0.0110854 4.50386 -1.55137e-16)
(-0.207037 6.25138 7.0462e-17)
(7.11402 0.37718 0)
(-0.234404 -0.729371 -1.04145e-16)
(0.0294401 0.0656694 2.6314e-17)
(-0.116091 0.719068 0)
(-1.00559 -0.528806 -1.47185e-16)
(-0.17649 -0.097138 5.97421e-17)
(1.57393 0.533311 2.14765e-16)
(1.09971 0.173293 2.33021e-16)
(4.11151 0.22523 -3.68679e-17)
(9.85083 0.751989 -1.11253e-18)
(0.916362 0.142337 -1.61971e-16)
(0.537409 0.124414 3.56798e-16)
(0.717413 0.92763 -2.55167e-16)
(0.283958 -0.0945604 1.18804e-16)
(3.3887 -0.0457547 0)
(-0.122373 0.054588 -1.06863e-17)
(-2.08842 1.63672 -2.23706e-16)
(-0.0366403 1.89674 -1.69361e-20)
(-0.0985699 6.27187 2.21154e-17)
(0.454322 5.51801 -2.40521e-18)
(-0.128227 5.10482 -9.56052e-17)
(-0.0868068 6.40202 2.62606e-17)
(2.03459 4.51743 -1.25168e-16)
(7.40414 0.38757 6.29799e-17)
(0.256898 -1.68785 0)
(10.9729 1.09743 0)
(-1.53869 0.153676 3.1546e-16)
(-2.38115 0.491048 3.75663e-16)
(-0.196994 6.97716 1.1487e-16)
(0.0542398 7.02534 -1.09284e-16)
(-1.52695 0.235922 9.94243e-17)
(2.54932 3.66718 -4.37452e-17)
(-1.15821 0.0213998 3.99491e-17)
(0.448521 1.26279 1.87784e-17)
(0.408497 -0.358378 2.99506e-19)
(0.68722 1.768 -4.78038e-17)
(-0.205992 -0.410959 -9.53201e-18)
(1.6732 4.38277 -4.59319e-17)
(3.88417 -0.0681074 -3.50415e-16)
(0.813241 4.77546 5.43205e-18)
(-0.0970942 0.692574 1.3816e-16)
(0.494244 0.279817 0)
(0.745193 -0.0974074 0)
(0.471145 1.27527 0)
(0.813664 6.058 2.10026e-16)
(1.22147 7.67963 2.29971e-16)
(-0.143404 7.37277 1.80097e-16)
(2.77833 0.576571 2.55688e-17)
(5.96649 3.37602 -3.27988e-17)
(0.281735 0.11983 0)
(0.0128805 1.20804 7.798e-17)
(-0.537359 -0.13763 3.15926e-17)
(10.5053 0.05635 -6.68874e-18)
(-0.725796 0.239746 -9.21782e-17)
(-1.62949 0.0769513 2.72501e-18)
(-0.330883 -0.180618 -1.49932e-16)
(8.99219 0.345687 -1.83541e-17)
(1.05981 2.41202 0)
(3.30706 1.06147 -3.26854e-16)
(2.84268 0.0139579 2.09961e-16)
(3.4664 -0.0459728 0)
(-0.160678 -0.390939 6.70974e-17)
(1.42456 2.22977 -2.31025e-16)
(8.74548 0.150846 0)
(1.87812 5.81436 -4.20671e-16)
(-0.0680212 6.5365 -1.01799e-16)
(0.613726 3.62703 0)
(1.15262 0.542908 0)
(11.3643 0.286687 3.8581e-17)
(10.3261 0.326698 3.00689e-17)
(9.89277 1.32771 1.89833e-18)
(5.54396 2.28903 3.73194e-21)
(0.75112 3.20486 0)
(1.50399 0.538697 1.78343e-16)
(2.16048 6.9252 -2.74798e-17)
(5.04054 -0.0448267 0)
(-0.0186954 0.976086 -3.80999e-16)
(4.49108 1.15474 2.74945e-17)
(-0.0535754 -1.70838 -1.01e-16)
(9.32041 0.846473 -4.72293e-17)
(10.8364 0.0432568 6.97218e-17)
(1.81803 1.77055 -1.66946e-16)
(9.9206 0.399095 -1.38844e-17)
(-0.0380141 7.11739 1.25436e-16)
(0.825359 7.58177 4.05382e-17)
(0.645832 6.73272 -9.32397e-17)
(6.83208 3.70886 0)
(2.57545 0.751484 1.0234e-16)
(2.0583 0.580234 -1.2798e-16)
(3.92719 0.697781 3.22031e-17)
(-0.0727749 0.104691 1.25208e-16)
(0.0185415 5.41451 -4.19459e-21)
(-0.078696 7.78428 2.42769e-19)
(0.605464 6.18977 6.44247e-17)
(0.560774 0.643189 0)
(-0.712627 0.402532 0)
(1.20362 -0.98649 7.84515e-17)
(-1.19653 -0.328633 1.38915e-16)
(-0.0797673 5.2855 -9.01555e-17)
(-0.0725212 6.51084 -2.90638e-18)
(-0.264325 2.1891 0)
(2.34403 -1.08918 -2.83774e-17)
(10.0618 0.113709 7.66367e-17)
(-0.0652528 1.0546 0)
(-1.07811 -0.60216 -3.3957e-16)
(0.518038 2.09236 5.4684e-17)
(0.830975 -0.0733711 2.24817e-16)
(-0.335254 6.83576 5.17646e-17)
(-0.075709 7.38479 1.16892e-16)
(9.55165 0.865002 0)
(0.337696 7.30253 -3.18726e-17)
(-0.0974878 7.06027 -2.56036e-17)
(9.44025 1.05149 -8.70205e-17)
(-1.48954 0.22907 -1.9202e-20)
(6.88721 0.94076 8.35815e-18)
(-0.156915 6.71245 2.61001e-19)
(-0.133813 6.4218 0)
(0.166153 5.5113 2.56051e-18)
(-0.13099 4.93272 -8.41305e-17)
(-0.121379 6.33249 -3.22551e-17)
(3.80839 4.14987 1.26599e-16)
(0.0481098 -2.00366 3.23022e-17)
(-0.151271 7.25497 1.71017e-16)
(0.0603535 5.86317 0)
(-0.340963 5.55615 -1.22464e-16)
(0.472863 0.988549 3.31423e-17)
(-0.185142 -0.433061 -1.33634e-16)
(2.45389 -0.0233254 6.00183e-17)
(0.170456 0.28033 3.91811e-18)
(0.340979 2.06918 9.23418e-17)
(-0.965323 -0.165503 0)
(3.08354 4.4302 1.17228e-17)
(-0.0485458 2.0244 -1.64655e-17)
(0.575645 0.135155 -1.10346e-16)
(9.83064 1.00383 -7.42968e-19)
(0.918317 1.39377 -3.04511e-17)
(-0.268319 1.05211 -1.92037e-16)
(0.165679 2.02844 -1.33637e-16)
(-0.11816 6.47814 -1.76887e-16)
(-0.270373 6.61969 0)
(0.603005 0.129485 2.19523e-16)
(-0.112439 6.55388 7.56957e-17)
(-0.371684 6.6769 2.01394e-17)
(0.268347 -0.229436 -7.91269e-17)
(3.7688 3.63304 -1.32255e-16)
(-1.29239 -1.7913 4.05406e-16)
(-0.410713 -0.888017 5.42146e-16)
(0.918902 1.18212 -2.04356e-16)
(-0.305855 6.50133 2.00129e-16)
(-0.0397316 1.944 -2.79955e-16)
(-0.626351 -0.542787 -1.55672e-16)
(-0.119097 0.989265 -1.03938e-16)
(1.3236 8.34931 0)
(9.76999 0.0908504 0)
(-0.128998 0.103914 -2.6786e-16)
(0.144547 0.70482 1.70843e-16)
(-0.0230702 -0.661656 -6.58204e-17)
(0.0338194 1.26693 0)
(1.54885 0.795622 8.36777e-17)
(0.545003 0.0851825 -1.43312e-20)
(0.791511 0.14383 -5.42683e-16)
(4.43678 0.121358 1.96091e-16)
(1.01296 4.90516 1.06658e-16)
(-0.160031 6.97843 -2.28694e-16)
(-1.84299 -1.00412 2.9403e-16)
(-0.776708 -0.751239 -1.32643e-16)
(9.82597 0.835653 -1.20669e-17)
(0.338248 3.26128 1.79523e-16)
(0.650246 0.145003 1.61053e-16)
(0.121122 -0.356015 0)
(-0.95652 0.893562 4.93255e-17)
(2.25736 1.31146 -6.41038e-16)
(0.222279 1.74655 -1.96192e-17)
(-0.0894783 1.85888 2.12863e-16)
(1.07115 1.03239 2.56343e-17)
(8.7846 0.526811 -1.02195e-16)
(9.19478 0.461149 -3.01493e-19)
(-0.271647 -0.307569 1.6633e-16)
(11.0312 0.0452407 0)
(0.967208 0.698422 -4.00582e-18)
(2.82257 -0.138606 1.92069e-18)
(3.2066 0.250354 -1.15921e-17)
(-0.0259083 6.27512 3.62102e-17)
(-0.121566 6.74346 3.27594e-17)
(0.0438928 5.05277 1.55209e-17)
(10.4883 0.036117 1.26908e-17)
(-0.146718 0.755306 -5.62231e-19)
(-2.23052 7.81622 -3.72753e-17)
(2.88303 -0.117598 -4.34699e-20)
(0.0918723 -0.0491836 0)
(10.0262 1.7289 -4.51834e-18)
(-0.831191 0.0543251 0)
(0.712628 0.588605 8.05672e-17)
(-0.700035 0.182721 7.22091e-17)
(0.114522 1.47811 3.85366e-18)
(0.5645 0.242771 2.2531e-16)
(0.00962879 0.0207693 3.47133e-16)
(9.25517 0.707749 -1.57286e-17)
(0.317868 -0.278373 2.40268e-16)
(-1.73909 -2.69458 1.86793e-16)
(9.47219 0.993166 8.87093e-17)
(9.71049 0.340498 3.63305e-17)
(5.99312 1.55734 3.29244e-17)
(-0.214174 6.91563 -3.78719e-17)
(0.0695835 6.63318 2.05646e-17)
(-0.0452538 3.10471 9.73151e-17)
(0.443181 1.79949 0)
(4.39684 0.801273 4.19401e-17)
(5.81481 3.20848 7.70212e-17)
(9.9567 0.230527 -2.08558e-17)
(0.167831 0.180483 1.0972e-16)
(0.524077 -0.361196 2.25455e-16)
(0.153048 0.17147 0)
(8.86411 1.59918 0)
(1.63495 3.78911 0)
(-0.663345 -1.4243 2.59067e-16)
(3.18469 -0.0623449 6.45246e-17)
(2.49421 4.24357 1.89692e-16)
(0.0139122 5.66716 2.28166e-17)
(1.43708 7.04678 -5.27178e-17)
(0.102568 0.165095 0)
(0.225698 2.22488 6.65092e-17)
(-0.417441 3.22466 -1.62138e-16)
(-0.0035576 -0.197007 -7.59334e-16)
(11.2293 0.119277 8.49354e-17)
(6.02647 1.29042 0)
(-0.232212 2.03212 1.33689e-16)
(1.12586 4.96601 0)
(0.720405 0.58748 1.36622e-16)
(-0.072132 0.222215 -2.15504e-17)
(1.02367 8.65446 6.05564e-17)
(9.88921 0.997262 -1.2111e-17)
(9.79745 0.640029 9.11236e-17)
(-0.663896 0.0577234 0)
(0.100387 0.919632 -6.37301e-17)
(-0.483417 -0.0254222 0)
(8.54413 0.341123 0)
(1.645 0.536823 -1.06131e-16)
(-0.135931 0.259513 2.07686e-17)
(-2.73918 5.0008 -1.10506e-16)
(3.00686 0.855062 -1.11008e-16)
(-0.194179 -1.99561 1.30606e-16)
(10.2519 0.109566 -2.54271e-22)
(6.04304 3.66334 -7.00569e-17)
(-0.314967 -1.12392 -3.2497e-19)
(-0.166672 6.7538 4.51927e-17)
(0.0721686 6.221 -4.62805e-17)
(0.458555 1.66183 -1.11634e-16)
(1.10083 6.19086 -2.1894e-16)
(2.15844 0.774601 -1.36035e-17)
(-0.323168 0.754058 -3.09744e-16)
(0.0104031 2.00355 -1.52313e-16)
(0.18821 0.354886 6.69862e-17)
(1.37447 -0.568924 1.65596e-16)
(0.217474 -0.164084 -2.99062e-16)
(0.267292 1.74194 -4.15264e-16)
(-0.397134 1.58957 -2.89537e-16)
(6.97072 4.29625 3.43097e-18)
(0.615185 1.63898 4.54765e-16)
(10.0353 0.0412765 -5.60668e-17)
(1.30703 -0.269805 0)
(0.820258 2.70964 -1.28032e-19)
(4.44958 -0.328778 -7.93723e-17)
(0.478746 -0.388356 0)
(9.97886 0.38554 3.54094e-17)
(-0.502168 0.0631715 2.81964e-16)
(0.385866 0.0442002 -2.51649e-16)
(8.19752 1.2223 0)
(-0.2376 5.78968 2.19194e-20)
(-0.25697 8.08759 0)
(9.99021 0.0775161 0)
(1.23956 0.144127 -4.2548e-17)
(8.74124 1.02841 -6.70481e-17)
(8.97507 4.03913 -1.61089e-16)
(1.18122 6.39891 2.12909e-17)
(7.38859 2.04074 -9.52493e-17)
(-0.030322 3.59016 -6.34534e-17)
(-0.0487801 5.44239 -7.78279e-21)
(-0.0768933 4.66293 -5.82968e-17)
(-0.0745549 0.722723 0)
(-0.18546 1.91959 1.04754e-16)
(0.12966 -0.720793 0)
(-0.586837 -1.17517 0)
(-0.106456 -0.691014 0)
(0.370077 -1.20493 -1.53124e-16)
(-0.312275 1.16583 0)
(0.118237 1.11173 1.06182e-16)
(2.87264 2.80027 -2.46211e-16)
(0.537044 5.26699 0)
(-2.72057 7.56926 1.28509e-16)
(-0.257972 6.68764 -2.08863e-17)
(0.0738585 4.98155 8.39101e-17)
(-0.168267 7.66927 -3.12931e-17)
(1.01701 5.19476 1.85056e-16)
(9.31448 0.94075 -2.46358e-17)
(0.248603 1.77803 1.71219e-17)
(-0.248301 1.81067 -5.82437e-17)
(2.77002 0.330505 0)
(1.42437 -0.591334 3.25674e-19)
(5.50397 0.930785 0)
(0.568523 0.00576399 7.94301e-21)
(4.15879 0.127829 -3.92015e-16)
(10.0096 0.04892 3.08267e-17)
(-2.09081 8.38445 1.02516e-16)
(-2.19033 2.49876 -2.42024e-16)
(-0.0476257 1.99011 0)
(-0.0449664 0.542667 8.3893e-16)
(5.39232 1.42224 -4.01406e-17)
(11.1784 0.525297 0)
(9.7593 0.240646 2.18728e-17)
(1.01697 -1.9096 1.10453e-17)
(9.13049 0.29577 0)
(4.39611 3.99107 8.59865e-18)
(2.96302 0.451357 -3.23772e-17)
(2.1267 1.4829 -3.01444e-17)
(1.30301 0.967667 -1.0303e-17)
(1.67427 0.135411 -2.34436e-16)
(0.923052 0.315539 -1.93482e-16)