/*--------------------------------*- C++ -*----------------------------------*\
| =========                 |                                                 |
| \\      /  F ield         | OpenFOAM: The Open Source CFD Toolbox           |
|  \\    /   O peration     | Version:  v1912                                 |
|   \\  /    A nd           | Website:  www.openfoam.com                      |
|    \\/     M anipulation  |                                                 |
\*---------------------------------------------------------------------------*/
FoamFile
{
    version     2.0;
    format      ascii;
    class       volScalarField;
    location    "0.04";
    object      epsilon;
}
// * * * * * * * * * * * * * * * * * * * * * * * * * * * * * * * * * * * * * //

dimensions      [0 2 -3 0 0 0 0];


internalField   nonuniform List<scalar> 
5794
(
9.4106
2.97045
15.1622
7.27856
4.61655
4.13375
2.93086
2.91269
6.51529
3.33254
2.6009
3.08912
2.543
3.18334
2.73872
2.44547
48.8664
2.88987
3.12185
3.07039
340.246
4.94652
3.65931
3.23022
3.49959
62.1872
18.7552
3.88869
3.22602
6.9751
2.53029
4.2028
2.61239
3.0527
3.05624
3.27771
5.69714
2.77395
2.54606
2.90337
2.58867
2.64932
3.92495
76.2342
2.65831
2.64133
3.1161
2.60313
3.79184
3.47692
3.62352
3.02022
20.3394
4.06227
2.64742
2.63735
3.32782
2.84827
2.73179
148.382
46.286
2.859
2.43157
3.54491
2.44773
2.39993
7.80447
124.815
4.20795
2.54803
2.58316
7.02669
11.0303
3.94667
3.20763
5.37518
4.1128
29.1569
62.2909
3.33388
8.92998
3.97614
2.48816
2.43879
2.52409
5.74677
12.886
4.25249
4.62042
6.24613
2.73873
5.17263
3.52607
3.18597
3.97568
2.74123
2.59373
3.46377
5.81164
47.1927
62.1503
8.05624
2.91376
2.63893
2.98186
2.42337
2.57751
2.43407
4.57564
50.4838
2.82691
3.21757
120.386
2.39853
4.09433
2.86486
3.20726
2.76971
44.8613
18.8293
2.5469
5.04682
3.22357
5.00397
2.589
2.76961
5.01862
3.67037
2.94002
2.46783
2.66485
2.57387
5.2548
19.2297
2.46531
2.64871
4.52151
2.78572
2.61139
2.4467
3.72971
4.57811
2.58631
4.58902
3.36757
19.1239
4.19177
7.30252
3.3932
5.64069
8.43273
2.66122
2.43264
4.55114
25.1049
4.11032
3.02356
3.04439
3.01412
3.0756
3.44665
3.18105
3.42728
3.21754
3.69076
3.76651
3.48881
3.44612
3.19196
4.1607
4.46038
4.05331
4.23516
3.99687
3.91254
3.33299
4.37242
3.26285
3.36713
4.38137
3.27867
3.99975
3.11514
3.2211
3.12565
14.4421
4.78735
3.28927
3.99705
7.9611
3.06616
3.77875
3.05523
3.01723
3.27456
3.40283
3.43694
3.39795
3.06765
3.43428
3.49207
3.59317
3.0369
3.22451
3.58677
3.05927
3.47247
2.50617
4.79671
8.02918
23.6808
14.5936
2.56943
2.54426
3.10634
3.15504
3.67092
6.2858
2.43221
2.43757
15.725
3.15888
2.68105
3.44962
19.3684
8.38495
8.89057
2.71605
2.68008
2.87997
4.72625
4.69642
4.28475
5.50718
4.43008
5.35664
5.50806
2.4421
3.14549
10.6242
4.12118
2.64666
9.69471
5.44483
4.52536
2.73893
2.52345
3.10495
4.04186
6.40276
11.6334
2.40213
33.5508
2.48957
7.6982
5.58994
2.88323
6.15273
2.48604
2.71795
3.21905
2.54236
2.5243
2.39944
3.38303
3.52416
8.81851
2.69522
3.02099
2.46093
3.04087
2.45662
4.45375
2.71109
22.7297
3.01291
3.88899
2.55274
2.61034
3.64681
2.93026
2.89688
2.88956
2.87598
3.24301
4.7788
11.6415
5.96238
3.87826
2.58425
4.02865
4.06036
3.54064
2.76267
7.41614
31.8024
3.36247
3.19396
3.82962
2.3976
4.36231
64.1117
10.612
12.2159
37.3371
3.12257
2.60793
4.55103
2.57334
3.49327
2.57175
3.39245
8.09663
2.39912
10.4817
36.054
2.42217
3.21819
4.02407
5.08031
3.93412
3.49163
3.2264
3.76961
2.42034
2.53523
2.79287
3.00589
2.96568
2.99179
4.16863
4.07676
3.04619
3.09035
4.20899
3.71885
4.35592
3.63798
4.4014
3.43354
3.88059
3.89552
4.42721
3.99306
3.92767
3.07909
3.1414
3.96634
3.56055
3.37536
3.06575
18.1064
3.29709
4.0443
3.18244
16.5904
3.8989
3.88776
3.29959
3.26608
2.4788
3.17583
3.23614
2.49408
2.49186
2.6896
3.85907
3.45778
4.26946
3.41168
2.60527
2.42092
2.53454
3.1994
2.41718
3.62148
3.23641
5.23578
3.99591
2.64614
4.07321
2.55337
14.0176
3.04109
2.85177
2.94194
2.68932
2.47753
2.4733
3.37791
3.3207
3.8559
2.49154
2.48593
4.19946
4.11812
3.81217
61.5773
2.85531
3.06597
2.84026
2.90201
6.93059
3.63542
3.3042
2.50916
63.0838
3.79631
2.59731
2.49879
3.32308
6.91354
2.62598
5.22391
3.32114
4.17874
3.31019
7.04351
3.80669
2.62284
5.98174
3.61499
2.39741
2.71536
3.42596
3.35952
3.5552
2.39841
2.84495
5.24439
5.68442
7.07453
6.36391
248.416
2.64195
3.45486
3.43144
3.21499
2.93385
2.83226
2.99738
8.65483
3.00472
3.06412
2.43447
2.97955
4.13099
2.41728
60.2687
16.3943
4.1314
2.89495
503.12
5.0831
3.67844
2.43867
2.60478
2.95003
5.46844
3.96176
4.47672
2.90654
70.7264
2.51012
47.4485
2.45909
5.78748
5.44133
2.44884
35.9437
3.31678
5.33783
2.68904
2.42695
3.18433
3.87086
9.42489
3.2863
7.92983
2.83473
91.3085
4.93856
3.1278
2.50856
2.40936
2.43043
13.2055
2.52251
12.4064
6.87043
3.27143
4.47517
3.45985
3.33651
51.8262
2.51997
4.04195
2.49521
2.43812
2.47478
4.86117
6.69136
10.5704
2.69277
4.55524
3.12245
4.60387
7.38221
2.61644
2.3967
2.96341
2.59835
3.3314
2.42038
2.4035
3.48709
2.76612
2.42274
7.33763
5.89771
4.51275
2.77629
5.08817
2.83393
2.43232
3.43572
13.1597
4.37648
2.99006
4.5671
125.851
3.22924
5.98096
2.42949
2.4743
2.60671
7.69235
8.44487
2.43986
3.77596
5.19737
349.633
3.10271
3.69112
2.81189
2.43808
5.87409
4.22296
2.4338
4.28784
2.71665
2.6988
4.0645
29.7861
3.43287
2.73852
128.003
4.77796
3.04049
8.56351
18.3988
4.43842
2.63292
2.73054
3.48001
4.64252
2.54418
12.707
5.77036
2.39572
46.9217
5.628
5.08703
7.24131
21.4602
10.052
5.34195
3.47301
2.97924
3.03688
3.1571
4.5906
2.96741
7.12556
3.23431
20.0525
2.39874
3.33104
9.72032
2.4907
2.39629
3.13372
2.50302
2.86538
4.35234
2.49611
2.60395
9.57959
2.47058
2.97387
2.51278
45.5062
4.3133
2.75317
2.39749
2.6335
75.8668
4.22337
2.81201
2.55328
5.30736
6.06309
2.77399
36.7627
2.81338
2.64128
2.45042
3.54713
3.64464
5.49306
3.1178
2.78982
2.73995
2.46087
2.85499
3.40061
2.76904
6.65618
2.80671
2.43266
7.95228
2.92152
3.29846
5.748
2.83754
2.88172
21.09
28.0491
2.5806
3.30721
3.46133
2.51976
2.41546
9.48593
5.17695
2.99589
6.62694
48.1219
2.59551
2.47618
5.29417
15.793
2.44549
2.81832
3.08176
3.19744
5.91735
4.88784
18.5303
2.45349
2.58787
3.70853
5.59264
109.583
2.83833
6.50257
3.73054
5.06482
11.1115
3.13156
2.44959
55.6852
5.8672
3.7344
5.25427
4.83845
2.90083
2.44749
2.9348
10.4596
4.31799
2.53868
2.99115
2.40301
5.55393
6.60466
5.55021
2.44577
2.62063
2.42568
2.90868
3.45071
18.8331
3.80498
2.60985
4.402
2.4459
3.81425
7.798
10.7317
4.32743
3.45543
3.2472
4.89288
10.0385
3.45667
9.43144
2.63396
2.46894
2.84909
3.35789
4.03717
5.42533
4.18373
2.65964
17.1563
10.3012
6.87229
2.78127
2.80706
2.56176
24.206
6.53513
2.45739
5.14356
46.4551
8.62725
31.418
2.79636
38.5584
3.53744
13.048
3.22942
2.95672
2.67411
8.73293
27.6499
2.46579
5.59552
3.46236
2.64073
3.88854
7.60372
69.6422
13.9818
4.68666
19.8025
2.65815
28.3383
9.5207
3.95451
18.8785
2.98144
2.42843
4.03351
2.70806
5.8035
3.17856
3.86932
9.41109
3.2519
6.59083
4.16659
6.59022
3.49818
5.18112
10.7838
3.2476
50.1968
3.29977
8.89137
2.48561
5.99886
2.48087
2.47174
2.47223
3.43957
11.1503
3.72694
3.94002
2.40399
6.21897
52.5436
4.25027
2.93282
3.75979
8.48647
2.46831
3.09188
4.67777
3.10826
3.18496
2.6571
3.27209
3.4698
8.83171
2.97291
482.734
5.64772
21.4841
11.5835
2.43466
4.20702
2.97937
3.86988
2.7208
2.39993
2.60917
3.14527
3.32266
3.64283
2.80184
18.6816
21.3463
2.42363
2.48042
4.0844
2.69015
2.73411
2.7842
4.35886
126.117
11.0641
7.27363
2.4331
19.6753
2.71083
2.43134
2.51229
9.9664
3.47565
2.5311
10.2505
2.42142
2.6659
2.44019
2.49398
8.50363
15.1418
5.64063
12.8359
2.50468
2.55027
3.57298
23.8325
2.43873
4.61345
8.50453
11.1021
7.31589
4.67298
2.79972
6.54647
3.81921
2.67433
2.83888
6.24028
12.1922
2.40767
2.50044
6.91603
6.47395
26.7933
2.45161
4.05586
5.78205
23.2051
2.57972
2.79243
2.54
2.90672
14.9527
2.59279
4.3336
164.151
2.67851
2.48906
17.0195
12.4854
6.16359
4.59507
5.63922
2.45284
2.76848
2.40578
2.44955
122.696
2.6977
40.9863
10.6249
2.84602
3.96315
5.82914
3.22759
8.62198
2.43125
3.95987
6.52012
3.22444
4.31828
2.39665
2.61657
2.6589
4.80347
2.95884
2.91591
8.23741
2.39699
3.30277
3.97356
2.95342
8.64688
2.5585
2.42408
9.8647
3.50498
2.91031
7.45906
2.39903
9.23196
4.11941
17.223
8.20298
5.28231
7.35081
5.56593
6.07643
4.05019
3.92628
43.5667
55.9733
75.8955
9.58086
4.65717
81.4697
3.33154
2.49795
2.63107
6.00317
3.75245
4.52103
9.13292
2.66628
4.0225
2.88526
2.39669
5.40828
2.39816
29.369
7.94489
2.62784
284.546
2.90691
5.51449
6.21118
9.8108
10.2094
74.371
24.8954
3.89464
2.56785
5.84741
2.4372
3.11187
3.39006
2.4595
2.5919
3.45464
2.66024
2.396
2.54271
2.49854
8.74323
2.57149
6.72124
2.61946
2.39675
18.4322
9.80805
5.39222
4.57834
5.99028
2.40978
3.49522
5.89817
5.59407
2.46348
26.3221
2.64742
2.42289
10.1798
4.21634
2.79115
9.39063
167.799
23.9361
5.75554
8.86411
2.41289
11.2813
24.6751
4.72311
11.47
10.3318
3.20366
3.04172
3.37084
23.3026
2.39763
4.11615
19.7372
3.65839
25.146
5.38464
7.99132
3.35969
6.1121
5.466
7.28507
3.9143
5.63575
2.629
4.36856
2.82265
116.214
12.4425
4.91002
5.72589
4.72562
5.71232
6.20842
11.5785
4.05839
2.95169
10.3594
3.6133
4.29798
2.49383
2.47629
8.54595
19.5709
2.40123
2.45267
2.5958
6.2137
2.40405
2.40472
2.50112
2.72983
11.7694
2.42777
2.62898
5.71084
9.43002
2.43938
2.55754
2.67541
2.43196
8.51484
24.6203
4.64296
3.03764
27.0638
2.51962
2.39762
10.5904
2.48605
2.52932
3.37352
3.25303
3.50516
2.59313
21.0162
11.143
2.79978
4.48833
2.56467
2.64584
2.77991
2.60148
2.55512
2.48994
2.61826
9.16899
3.19122
4.59473
2.64176
2.72167
2.6601
5.72144
8.33142
3.30071
37.3952
3.57848
3.3287
7.57583
4.5008
27.1478
32.6491
3.26513
39.8139
3.33671
3.28977
33.3403
3.04043
4.38596
2.97151
2.50425
2.39998
3.97495
29.9089
2.60341
5.35782
2.98838
5.90142
2.6989
19.5575
2.56899
20.4076
6.05377
9.0636
6.03756
2.69967
2.51193
2.48044
2.6101
2.66249
3.12826
5.94145
2.93194
2.89116
2.63031
8.30858
3.16091
10.973
10.8056
3.32527
2.49607
2.47858
2.42389
131.166
41.8231
2.40676
2.73858
2.6709
2.6475
7.23139
3.96375
10.1204
4.70529
3.10318
2.40392
5.44057
2.43394
2.63631
2.71814
3.07375
2.76044
2.51517
4.28919
19.2051
10.6929
22.9434
2.8179
156.705
4.64928
5.75276
2.77078
2.96708
6.53358
20.5863
9.77786
18.7104
20.0121
7.05829
3.05899
4.79082
7.07887
11.6066
6.19424
3.21762
6.67183
3.17594
2.68479
2.50341
3.72978
3.74059
7.50668
9.63794
2.60177
9.13397
3.56872
3.77195
12.0834
10.365
2.43946
2.81061
2.59782
14.4941
2.40158
2.57004
23.3011
7.20011
3.07282
2.7177
2.52646
3.51451
4.43758
20.6671
4.17575
7.6438
14.2744
2.64087
2.46241
2.50808
2.50468
2.70538
2.39814
12.496
8.92175
3.31521
2.70872
2.41962
2.90998
2.42421
2.85233
2.52285
34.9351
2.4401
3.27231
4.0967
2.74942
29.9842
4.44513
3.84204
2.40671
2.46862
2.80303
6.36511
2.78753
18.3373
2.4352
2.41534
2.58312
10.4416
3.8202
2.44733
13.6675
26.3452
3.22114
3.0653
3.3653
6.55457
3.2967
24.7959
15.179
4.14177
2.41038
2.76096
2.66748
2.45699
6.23528
2.68714
2.66837
5.72467
3.18551
2.95066
3.15444
2.49711
20.2347
3.2882
4.06826
4.93086
2.66154
7.90329
11.8229
3.62284
2.59841
4.8971
3.05283
4.07337
4.44217
4.0086
4.93585
2.50055
2.4667
3.77431
4.7135
3.00938
2.89605
7.98482
3.41875
3.34588
4.17405
15.201
9.55216
2.69545
2.77354
4.46482
2.56548
3.36132
2.89823
2.78528
18.2597
2.4217
2.42518
2.4038
7.4435
2.54741
23.6259
3.77844
3.91278
2.56481
2.42228
5.47906
14.8349
4.10652
16.5281
6.16597
4.00984
9.5283
3.07463
2.52697
2.50331
2.60148
2.66496
3.07761
2.47738
3.86812
2.4115
4.01034
6.34403
5.91584
4.60476
10.9515
3.29907
2.67897
3.48805
2.39757
4.0899
3.06171
2.59249
2.52132
2.7887
3.15149
2.60481
2.62995
12.3993
2.5105
2.48327
66.4225
2.72003
2.46935
7.91527
3.15654
2.79289
2.40165
2.40017
15.4296
2.42278
2.85238
17.5429
2.46361
10.6291
2.64423
3.2642
3.47707
36.9237
40.7218
11.5467
3.06348
7.75576
2.59602
40.2558
3.18669
4.71971
3.22873
3.24828
3.30732
3.13013
3.35885
3.45742
3.36499
3.1524
3.12673
3.11382
3.50214
4.15264
3.22948
3.24828
3.09311
3.25212
3.17607
3.1561
21.382
4.04525
3.30351
3.24721
4.20439
3.27112
4.74742
3.69125
4.39928
3.25275
3.04878
3.42025
3.47702
3.0571
3.6475
3.34926
3.0719
3.1955
4.11148
3.06564
3.25917
3.52175
3.52139
3.52234
3.73704
2.77226
2.43562
5.69973
3.48373
3.27068
2.55087
3.52271
4.44228
2.59702
2.44184
4.76368
2.61445
46.45
3.39811
11.0455
4.80035
4.11704
16.4121
2.55186
2.54892
2.64637
3.55718
6.74752
2.67778
3.32115
14.6822
5.6877
3.45832
2.50826
7.38583
4.32473
4.11451
3.48179
15.1664
2.53425
2.80934
2.77691
12.2476
2.94296
5.34752
88.2976
3.04209
2.9437
11.3852
16.6605
2.43322
2.48795
11.761
13.9121
85.6208
2.42562
4.64569
3.11746
3.08151
3.24908
4.86702
2.91951
4.45715
3.11376
3.16526
3.41038
3.87258
3.09837
3.15673
3.10101
3.11753
3.12114
3.25325
3.3554
3.48943
3.466
3.74006
3.49239
8.45972
3.62199
3.24461
3.48767
3.24964
3.31905
6.2095
3.29365
2.52537
9.07327
2.94438
12.2634
2.92164
13.9183
2.88408
2.41162
2.6392
3.98546
2.57261
2.70356
3.10424
4.28849
3.45964
3.15555
2.47007
2.46916
7.98042
4.1254
5.85486
2.43986
2.65171
4.11882
3.66273
2.63789
4.30886
2.98642
2.63897
2.62447
2.44475
2.97829
3.00238
2.81366
3.80374
3.36395
3.74846
2.70643
3.57487
2.7587
2.50723
2.53343
3.48327
3.22764
2.88311
2.47747
2.52842
3.1442
10.798
3.59939
6.78339
2.4815
2.53624
6.73699
3.13082
10.0847
3.69784
2.69171
2.63985
5.23075
2.42719
3.44937
21.5393
2.66111
10.3619
2.4413
2.48498
2.51323
31.3572
2.39571
3.34567
5.84292
3.86453
4.3317
3.79761
2.69014
7.20016
2.66438
2.51035
2.452
2.68007
4.52903
2.60231
2.70634
4.36079
2.50379
2.5892
2.45664
2.54372
3.38209
4.31417
4.01764
2.47753
2.44212
3.17087
5.16912
2.41336
2.4063
2.45989
16.0746
2.8226
2.73575
2.74045
3.47299
45.035
3.90845
21.0497
2.99112
2.83996
4.50445
5.03285
3.39877
2.50114
2.75524
2.53693
2.55475
4.56801
2.45637
8.18358
2.4952
3.97259
2.40959
2.52114
2.44971
13.423
2.82561
2.55183
3.207
4.54135
2.99559
2.82925
8.04464
16.0892
2.72828
2.80892
2.39932
2.40964
3.02585
3.14654
2.49944
2.43836
3.25158
2.61498
2.50448
2.57535
2.7031
2.48682
2.53547
2.46849
2.73792
2.49516
2.57051
2.52527
2.71399
2.59486
2.68488
2.63262
2.76727
2.6536
2.40138
2.40424
2.42036
8.83891
2.40871
2.41538
2.42297
2.42133
3.37761
5.55889
7.21398
3.37676
2.46656
2.53531
2.48625
2.73411
3.57166
3.46862
6.35853
2.45003
2.47375
2.46826
4.85013
2.55313
8.7022
4.5243
6.63481
15.0919
2.48201
9.95922
2.9395
3.62117
2.67887
4.59784
2.51345
3.8361
3.03752
2.63586
2.80348
2.65735
2.70917
3.31735
2.98101
3.80027
7.46257
5.05688
2.87982
2.84786
2.54301
3.77373
2.95812
3.09666
5.52634
2.50543
2.4849
2.76999
2.88333
2.41975
3.20298
4.22164
2.58156
3.47294
2.6677
2.81874
3.00111
3.1453
2.6114
3.99143
2.45285
9.63426
3.32443
2.89458
2.43642
4.17179
4.48247
2.45232
2.58
2.92461
2.40647
2.45898
10.3367
3.24194
2.60492
2.83472
4.45963
2.47478
2.53134
2.49906
3.45434
2.41327
11.3242
2.56519
2.50788
2.53313
4.2454
12.7085
2.49072
4.71539
5.1246
11.0096
2.82015
2.71296
2.49447
2.40682
2.40351
2.80938
5.48393
7.62518
7.5913
9.1022
4.52465
22.4378
4.58334
2.86802
2.89284
2.44607
6.9886
2.5101
3.0798
2.44219
2.40427
4.44024
13.1277
3.32259
2.49871
3.05391
2.49707
4.00388
6.3743
7.97563
2.55022
2.9626
2.59527
3.18889
3.53024
3.40143
2.50181
9.46482
2.99247
3.25008
3.65035
2.76166
5.96568
4.44434
6.84747
2.67501
3.34383
2.41316
2.68137
2.40826
5.74063
2.6731
2.81206
2.60285
3.55923
2.85325
10.724
2.63053
2.55293
2.50146
6.68969
2.76346
2.55351
8.40912
2.53094
2.52944
2.52664
4.49066
2.75376
2.72117
5.20246
2.52478
2.80853
4.98141
2.52845
2.59187
2.64823
2.54529
5.70545
5.04426
2.67019
2.83622
2.52669
2.53928
2.61999
2.85368
2.99029
2.72037
2.56218
5.53735
4.67461
2.74771
2.88271
2.91661
2.4184
2.65477
2.44684
4.22963
2.59754
2.41782
2.41097
2.6208
2.53807
4.15778
3.7243
2.67492
2.39931
8.47385
2.45668
2.45382
4.62214
5.3497
3.92142
3.36859
4.069
4.44422
2.62984
3.89273
10.0367
2.98201
4.2011
4.77429
5.41444
2.55912
2.53555
2.42013
2.40809
2.40079
2.50521
2.51022
4.64502
2.80894
2.51283
2.40686
2.40129
2.43063
2.60016
2.45915
2.40084
8.25106
2.66508
2.70627
6.17241
11.5793
2.79044
4.15067
5.1906
4.40268
4.27392
2.62598
4.09753
6.58336
3.43681
3.71801
3.98366
2.59388
2.40726
2.39968
4.14195
4.48165
5.96999
2.39926
7.76285
2.40184
12.2408
8.88263
2.5384
3.07036
2.42339
2.44548
7.00659
5.10364
2.84894
2.77461
4.40389
3.77739
2.96772
4.00394
2.79636
2.51291
2.81918
12.5233
2.66129
2.72661
8.54931
2.89221
2.68703
3.22183
6.09323
5.2896
3.13224
4.39114
5.22663
5.18836
7.01415
3.77315
3.16303
2.82651
2.41353
2.39884
2.86193
2.54785
3.1257
2.39854
8.48308
8.05093
7.95503
2.77874
2.89637
7.53517
6.28388
2.40013
10.2273
2.45535
12.1042
2.62046
6.07544
3.11076
2.4777
4.09195
4.60172
4.8313
4.76642
5.79414
2.53233
5.25857
2.65257
3.1794
4.70955
2.4712
2.48911
3.12127
3.61424
5.32326
4.74853
4.42345
4.36517
5.38724
4.24015
4.37968
2.42552
2.40057
3.44929
3.0047
2.44
4.51501
2.51354
2.53517
2.91917
2.79828
9.17011
3.10298
3.50873
5.4117
2.40331
14.16
2.43346
2.50016
2.88442
2.4769
2.46106
9.10526
4.0826
2.50456
2.80445
4.05645
2.44334
2.40365
6.87964
11.3985
2.9695
2.44868
2.96428
2.50367
3.22899
2.88468
4.64303
4.45905
5.38921
2.90031
6.46883
2.46556
2.72946
5.47227
2.59065
2.75815
2.92466
4.58884
11.5694
2.5183
2.52776
2.47505
3.83765
4.46001
3.39446
9.46891
9.72831
9.82103
2.63278
3.68441
2.44243
2.40205
2.54969
2.62539
2.58636
4.17246
2.76244
4.5175
2.58937
2.46147
2.53383
5.402
7.40557
8.01844
5.91919
7.41384
6.56476
10.0085
5.98779
2.48639
39.4508
11.8523
3.14001
2.77228
5.1979
5.36518
7.75645
2.40401
7.9423
3.31174
3.8611
10.7035
10.1193
6.40384
2.53347
3.5582
2.4022
8.96823
7.80783
2.56376
5.54395
2.41142
2.41102
2.40707
2.42993
3.5571
2.57577
2.42049
13.3643
2.66769
2.52045
21.736
2.69382
5.44169
4.33394
3.37536
3.65091
2.4588
2.54179
2.88972
4.68787
7.19805
4.05345
4.92201
3.53733
2.40045
3.61494
4.22864
3.48516
6.34014
3.89527
6.36441
2.63763
2.80662
3.00001
2.59365
4.9139
2.46182
3.86899
3.17431
2.4349
2.58748
4.08774
2.76636
2.80078
2.65813
2.53694
4.94966
5.34877
11.6814
7.65265
2.53261
2.80454
9.91128
4.41803
6.63199
18.1526
4.18207
3.35857
3.21837
2.61403
2.44014
2.4688
3.4052
4.24735
5.42021
6.67029
4.80265
3.92662
3.81738
10.5142
2.58756
2.68531
8.14254
2.49139
2.40729
5.82493
12.308
4.22026
5.36421
2.39217
2.53938
4.79818
6.17424
2.84541
2.70957
2.52596
3.13892
3.98441
25.073
3.67246
3.13847
3.02061
2.6592
2.44614
5.16067
2.87791
4.5124
2.80403
3.05928
4.67588
3.37438
2.72229
31.6681
2.6881
3.9322
3.22216
15.7237
2.89356
5.50001
2.90682
4.52146
2.42043
2.58566
2.86904
4.02943
2.4273
2.63758
3.78473
24.4371
6.11336
3.02616
6.72037
2.59875
2.74748
8.76162
2.5321
2.45318
2.40271
12.5207
3.72483
2.98077
7.55809
181.683
2.51307
3.73902
4.4163
2.70819
2.71737
5.65059
4.72711
2.53773
2.48798
2.88423
3.15672
2.42735
2.48671
2.53867
2.53588
2.64305
13.6108
5.43014
2.44045
3.1094
2.54039
6.32892
5.72272
205.043
7.54153
3.09434
5.89702
3.02299
7.63242
2.39849
15.981
7.75878
2.5394
2.76051
2.56194
8.41262
5.23045
2.39839
2.48764
2.54224
2.67627
2.53074
14.2452
2.45203
2.47747
2.44146
3.27166
3.14573
7.98901
2.41637
2.5401
3.567
2.469
2.83447
3.83427
10.001
2.866
3.05526
2.46583
3.27707
3.19516
2.52273
5.38006
2.58068
2.42419
9.84268
4.44393
2.41337
12.0686
2.71151
2.54069
2.43295
2.84198
3.42317
9.20366
4.57682
2.43581
3.30687
6.90363
2.61727
24.1235
3.14869
2.85439
2.48821
4.47475
2.46573
11.9318
2.60572
3.06051
3.0433
4.93009
2.73996
27.1325
2.42504
2.45487
2.50955
2.44483
10.0287
6.95748
2.48474
2.46578
3.15258
2.53288
2.3963
2.52426
19.6203
2.5406
2.55266
3.47606
3.61598
3.99503
3.02675
13.7439
6.91054
7.04825
6.17541
2.60092
2.42686
9.28695
2.8474
2.47817
2.6119
2.63402
2.91976
2.78873
3.06203
3.62593
7.57135
4.94755
2.57223
55.7394
5.61082
3.41903
3.09948
2.74765
3.35905
25.9654
21.4904
4.35577
2.50879
2.83115
4.98218
3.39919
4.15957
7.99868
2.87634
2.53053
4.33815
6.30212
6.31985
2.554
2.41397
5.17554
2.6398
3.96571
3.92462
2.5181
3.98833
3.95181
2.46139
2.53678
10.0754
59.3797
3.06667
2.43515
4.79496
2.86085
4.49538
2.5037
15.4503
2.71185
2.42794
2.8986
3.57368
2.45258
14.3137
4.12814
2.54019
3.08461
3.53096
2.69385
3.70551
4.00485
2.49217
3.33562
12.0339
2.4011
2.62729
2.53046
2.5224
2.62728
2.46316
2.47387
2.61909
3.06037
2.4641
2.45704
2.90202
2.46142
5.58178
5.82781
13.5127
2.46923
3.40846
13.3391
3.83035
4.45892
2.62254
7.30678
5.27806
2.84563
4.85653
3.45578
3.59967
2.64232
3.1065
2.53622
3.37418
2.66943
8.4727
3.38693
2.43464
2.43446
3.51838
2.80733
2.62844
3.19075
4.08286
3.05195
2.73408
2.75905
3.83787
4.85746
4.36853
2.65255
19.4844
4.94058
45.6902
2.39693
2.55802
4.12162
6.46325
2.59408
3.1956
9.10281
2.6215
11.7893
2.98176
2.50118
2.43663
2.60807
2.4551
2.44643
2.52741
2.45936
2.43831
2.39673
2.66354
2.83688
6.90508
2.41099
3.513
2.62721
5.88624
2.45083
2.46187
4.42614
2.60311
4.12328
8.63448
2.53554
3.28106
2.5105
3.21218
6.63816
2.60468
2.91052
2.46345
7.20738
8.24355
12.0986
2.97889
2.78292
11.6773
2.89144
2.45431
7.39493
2.39678
2.53153
6.92496
2.42911
3.57385
2.41805
3.0649
2.53412
9.54108
2.85192
3.87871
4.82225
2.70817
3.27654
2.95973
5.25066
4.83991
2.43906
3.00824
2.60286
2.60976
2.51979
2.397
7.54915
2.45306
2.5293
2.56713
3.10313
2.62866
8.51097
2.55897
2.72722
3.06947
2.898
4.65234
4.19709
6.19375
4.92365
2.80894
4.09613
6.11147
6.11845
3.02027
2.75374
2.74915
2.62245
5.1181
2.59471
2.48467
3.44797
2.39773
4.55165
2.64237
2.60534
2.48742
4.69506
13.4212
2.59057
2.63162
2.88488
4.45298
5.11551
7.2647
10.533
9.97207
4.19966
2.85721
2.68267
2.7823
2.91163
7.5775
11.8418
2.45719
3.31135
6.10723
2.63966
2.54546
2.62617
2.63213
10.2696
2.3997
4.36678
3.29094
2.52953
4.37211
3.48376
5.4133
6.52369
8.90311
48.1402
4.02144
3.30029
2.89226
3.04284
13.7404
2.46483
3.07333
2.65329
2.61401
2.77212
2.63665
3.18248
27.6219
2.83598
3.55855
4.8988
2.58647
15.8752
3.62551
2.70521
3.09114
4.50172
2.83714
7.90718
7.0317
4.01742
3.21532
3.10022
5.78896
9.57152
4.37365
3.19715
2.57521
2.43185
3.27568
6.94013
5.13002
4.9326
4.26523
14.8339
2.43281
9.43742
2.46351
2.63013
3.53989
6.71922
2.48803
11.6433
2.63364
3.66998
4.0137
45.2996
4.16849
2.89685
2.45075
2.40493
5.58667
8.89758
4.46051
3.446
2.90658
3.83376
8.27267
3.55988
2.45075
2.64965
2.5135
5.81747
15.6979
3.06855
6.12021
3.5204
2.69422
4.56658
8.80538
2.70278
2.46401
22.0806
3.58012
2.68791
2.46999
6.05767
4.3943
5.48308
2.52024
3.41441
2.49717
2.57997
2.50853
3.09581
2.53157
2.45313
9.50377
3.54286
3.06635
12.7312
2.86123
2.49468
2.47896
2.46725
2.66126
2.83086
2.52073
2.49009
2.83895
16.1383
3.5785
2.57413
4.12242
7.92994
3.42561
3.5936
2.7187
6.02457
2.43892
3.73743
4.32741
6.02852
8.34481
7.79154
6.01049
4.81576
2.4091
8.3877
3.06366
2.49849
20.8954
3.30021
2.49081
2.59312
6.47911
16.4381
6.93032
3.27608
2.59646
4.37484
2.82768
10.0411
5.56029
3.53706
2.497
2.68905
9.59794
2.50615
2.46078
14.1127
3.419
4.79176
34.3928
6.38612
2.41854
3.57651
2.50562
2.58881
4.48843
2.72707
4.32745
3.82977
4.37852
3.55031
5.24185
2.52851
2.46014
4.84621
2.40577
2.43928
2.46171
2.43862
3.10119
2.46764
2.43865
2.77726
3.6246
24.9823
14.6149
2.48014
2.42123
2.50389
2.54049
2.66551
3.90916
5.47849
16.4519
2.63768
2.47213
3.02461
3.19806
8.05337
3.40497
3.19947
2.80306
9.77013
3.52438
2.79537
23.8153
14.6718
2.40548
3.13183
2.40748
4.27393
4.40006
11.3433
6.89728
4.59886
7.27057
5.07231
12.2267
2.4749
3.98539
3.66224
3.73961
25.9529
14.5829
2.47443
2.49239
2.64434
2.61153
2.55474
2.5841
4.1316
10.4451
4.00584
3.27299
3.73717
3.17606
3.90581
3.84368
2.56307
4.79557
3.38541
6.36573
4.2448
3.45759
4.53985
6.8277
11.2735
3.56215
12.3351
2.41503
2.43912
6.59445
6.43438
2.56089
3.37251
3.28465
6.27332
2.83545
9.80734
4.42783
5.6352
3.48491
5.76977
6.27339
4.54976
2.53518
6.31109
5.3079
4.02302
6.19957
4.98261
3.73255
2.49414
8.92694
2.77675
2.84879
3.50359
4.73444
5.65189
6.39315
4.91122
2.56824
2.63659
2.43815
3.66861
8.97359
7.34756
4.16487
8.00152
2.5888
2.51563
2.5964
2.94879
8.07333
2.6399
3.98452
2.87721
2.69091
3.3466
2.78313
4.68651
4.53204
2.94458
3.60656
6.1596
3.87467
11.6262
32.0415
6.87751
2.76788
3.15318
22.1908
14.719
2.7167
5.25727
2.58551
6.54533
2.48312
20.1529
8.85759
4.65903
3.93146
8.47508
21.0506
5.40185
22.5382
6.25498
2.88058
2.96291
2.66003
6.75697
4.9091
13.6892
17.872
4.79659
3.89693
6.28809
2.40003
2.46239
4.33828
2.79614
13.06
2.65098
32.6579
23.519
2.91889
42.8912
5.60555
4.07309
4.84823
2.47187
3.05357
47.1934
2.54665
6.48071
9.91337
9.90916
6.20299
2.61779
2.77143
2.53101
2.70105
2.46007
3.52059
16.8461
2.48643
6.6418
3.24443
2.6689
16.7511
3.03351
3.54512
3.75418
5.7741
4.36961
3.9094
4.98499
2.89704
2.56244
3.94426
4.77827
4.28885
3.31594
9.65563
36.6156
3.05899
2.9463
3.15979
3.26251
15.5042
5.38638
3.42887
6.42008
2.57113
4.39898
8.82377
2.46639
6.9074
3.03175
2.58416
10.0879
2.61392
6.19489
2.44627
2.77036
3.55587
3.37632
2.43514
4.09938
2.52161
22.5027
4.00604
3.6627
3.3971
27.8745
16.8106
2.81708
4.05301
5.46327
3.43262
14.0735
4.77135
6.41512
23.99
99.53
3.06839
2.43161
2.54237
4.51546
2.74278
5.25783
19.1536
3.10711
7.28545
42.9056
4.55866
4.05949
3.47321
3.13395
3.31292
3.01081
3.3106
4.27563
3.24895
2.42827
20.6719
3.19291
4.80888
4.45949
2.71288
2.84048
7.18049
4.95779
4.90859
9.3239
14.8524
2.69554
2.52893
16.0489
2.94811
3.22651
2.42088
3.75273
5.50524
6.99408
4.90896
4.77953
3.30812
2.45967
2.69424
2.47093
3.91887
2.41324
2.87829
2.57492
4.94099
38.5526
2.90138
3.82174
2.58
4.23109
7.94803
2.43612
3.81437
2.40242
3.12373
2.40773
2.48469
5.85672
2.63746
3.01409
2.91596
3.05727
6.05181
4.73885
11.4126
5.67457
15.3081
8.31522
2.9246
3.1342
3.0484
3.74023
2.53121
2.54883
2.70652
13.9616
19.7187
10.4005
4.19071
5.1462
2.39331
2.96711
2.54772
9.066
3.00156
7.085
3.13189
2.97505
3.02279
7.95079
2.93366
2.45767
5.53227
8.1571
3.46374
4.29026
13.0515
4.18075
3.35727
2.43355
3.47815
3.64465
4.78272
6.1972
12.9629
3.25449
10.401
5.8919
3.09598
8.3137
3.35769
2.8675
5.9345
4.1203
2.51529
2.58861
2.48059
2.61644
6.36116
5.08965
2.75356
3.76585
4.52107
2.45731
2.80508
5.56697
3.37816
5.3216
9.12591
2.78072
5.73327
8.49467
4.82999
15.0618
4.50567
4.03035
4.87291
3.40317
2.98015
3.44053
3.30621
4.44246
2.45604
4.35597
3.06786
2.67276
2.51971
5.91463
2.48922
167.024
32.661
37.8345
3.18913
40.2535
3.09046
50.0051
37.0927
29.5545
33.7139
12.2554
2.52012
4.61957
3.40177
3.08235
24.0065
2.44067
2.66303
2.62554
18.7844
3.77572
17.8628
3.67969
2.69161
55.7689
6.94194
2.40717
4.62723
2.49262
2.66318
2.43073
13.8615
12.2503
3.74697
2.99442
3.23773
3.24263
2.47576
2.74654
2.45314
4.1883
10.9422
3.26294
2.82839
4.06291
2.69621
17.5992
3.43499
3.40139
25.5225
6.61412
3.18268
3.64231
2.68376
3.64742
2.87531
3.76029
3.27044
2.64885
3.62462
4.13242
5.0533
3.94821
2.70619
6.61765
3.11191
2.4239
5.86199
3.83674
7.52996
3.00953
2.4381
2.44133
2.53942
2.45085
3.47861
2.49299
10.2552
2.88522
5.20082
6.44634
36.3382
2.44558
10.9375
2.75973
19.5517
2.49023
2.5524
2.64417
2.72901
8.03445
4.50211
2.4319
3.45089
3.04791
3.3403
4.25214
4.38103
2.52166
2.97971
3.23478
2.89131
4.04759
4.89295
13.6665
2.78713
2.40641
3.4547
2.40213
2.90724
2.43416
3.74786
2.43631
2.45599
2.47226
2.64147
2.76768
3.03621
16.5097
2.88849
3.26519
8.75737
19.5387
185.001
2.52238
14.1728
3.12162
5.35558
9.50185
2.40077
4.53759
2.8256
3.25739
3.29936
3.0044
9.4588
10.1287
3.55185
2.40761
3.99551
6.23163
4.54427
2.95658
3.11288
3.2955
28.8186
2.60096
11.0896
2.47874
3.52033
2.56806
3.51204
2.49374
2.65774
4.12153
20.9565
6.9181
7.40534
7.97184
5.67249
2.45412
24.4222
2.92276
4.84719
4.14124
2.45607
2.53106
2.62269
9.54811
3.89128
4.14343
2.51717
2.76983
6.12853
2.45774
2.41194
2.43521
6.70048
7.21717
4.31921
2.46319
3.15661
2.62814
2.57428
22.6168
2.55842
3.02755
2.43752
3.82021
3.0797
4.41125
3.35332
9.70531
2.96419
2.71014
5.36648
7.43866
8.86459
8.83014
6.9279
4.7287
2.69219
2.85901
14.2577
2.4842
3.18338
7.08684
2.42205
2.4151
2.49819
3.49285
2.58206
2.46808
2.59235
2.54458
9.723
15.7305
7.71432
4.48215
3.12782
4.40988
4.45545
3.85577
2.71465
3.91068
3.04733
2.40778
3.10752
4.48771
2.4088
3.5896
2.63973
4.27019
2.47164
17.2241
3.30498
7.23427
2.74707
2.43985
2.85629
4.27157
7.31435
2.46226
3.25937
4.72998
12.5939
2.54252
3.48768
3.1723
2.73167
3.66733
3.36022
2.41639
2.42156
2.42688
2.44114
2.69025
2.49118
3.50557
6.52145
2.99918
11.8667
8.06184
2.8453
2.61366
6.78032
2.67042
15.2273
3.37789
3.92181
7.72535
6.59262
4.39337
14.5933
9.0259
3.26129
2.47812
3.12791
7.60128
2.52612
2.70265
4.99577
4.81925
2.45242
12.9761
4.13883
3.65798
2.5259
2.86982
2.81438
2.91924
2.60913
2.49804
24.4515
6.77797
3.56159
4.46526
8.54333
2.74321
2.40089
2.70592
2.66725
22.6315
4.36145
4.12064
3.78954
3.48249
12.3354
2.42719
2.51765
8.46062
2.61884
2.42796
2.97549
2.40538
2.47209
2.47823
2.48193
5.17384
3.56601
2.83657
18.1434
2.71746
2.52428
9.624
3.33114
2.50699
3.21607
4.23715
2.67653
8.52606
5.77696
3.60964
2.77868
6.42032
2.52441
27.9542
3.13268
15.1546
2.40724
2.40112
3.56348
3.14616
3.21913
3.352
2.63266
3.20448
2.46198
6.28983
2.39875
4.84246
2.3914
5.03944
2.88827
2.83714
6.93623
2.95418
7.1158
2.68519
3.6984
3.09655
2.98091
3.04524
3.34621
2.478
2.60089
3.40131
2.61225
2.61339
3.01362
2.4437
7.34659
13.7378
2.47
2.59158
2.60414
2.72931
3.15251
24.9071
136.664
21.4232
3.49645
2.85832
3.41865
4.19999
2.83731
4.23801
43.8154
2.46002
15.3646
5.46217
3.06586
3.87438
2.46332
6.87257
2.48151
2.54483
9.50171
4.0996
2.68631
2.51895
4.33951
2.42695
3.79717
2.43586
7.12595
2.95481
2.43795
2.45494
6.43092
2.47761
2.39711
2.76846
2.96748
3.2798
2.45537
5.86439
2.78724
3.08297
7.609
5.48505
3.34297
2.64627
2.43234
43.5344
3.10647
4.77175
16.6733
36.8731
2.57723
2.68584
2.91302
2.41949
3.35207
4.30927
14.3394
2.54585
2.49792
9.96977
2.52311
4.64359
2.65148
2.39771
2.44723
3.89424
2.44892
3.11633
29.2138
58.5282
2.53675
19.434
2.40415
36.3932
3.94075
7.34546
38.5944
2.48687
3.66139
3.71166
4.14913
3.82022
6.04376
6.6945
5.92825
6.292
3.64776
6.7564
21.342
6.58547
6.55287
6.76602
6.6346
22.498
6.83807
5.85751
9.43623
7.60612
8.61676
9.4422
19.7394
24.5716
9.20381
16.5734
17.9515
9.32671
7.35999
47.0173
22.631
30.681
68.382
6.06901
6.6802
20.7728
5.91228
3.65543
6.1016
6.4879
5.41677
6.60296
19.168
5.04321
3.83817
3.87538
7.85267
5.00762
5.26821
9.82774
5.43923
5.10898
3.88194
4.02059
5.23953
5.20302
4.21116
4.43058
3.71906
4.4189
5.50936
8.22805
5.31911