/*--------------------------------*- C++ -*----------------------------------*\
| =========                 |                                                 |
| \\      /  F ield         | OpenFOAM: The Open Source CFD Toolbox           |
|  \\    /   O peration     | Version:  v1912                                 |
|   \\  /    A nd           | Website:  www.openfoam.com                      |
|    \\/     M anipulation  |                                                 |
\*---------------------------------------------------------------------------*/
FoamFile
{
    version     2.0;
    format      ascii;
    class       volScalarField;
    location    "0.04";
    object      k;
}
// * * * * * * * * * * * * * * * * * * * * * * * * * * * * * * * * * * * * * //

dimensions      [0 2 -2 0 0 0 0];


internalField   nonuniform List<scalar> 
5794
(
0.272663
0.149949
0.465628
0.314134
0.232278
0.178525
0.160583
0.159874
0.271648
0.17205
0.150157
0.174788
0.14807
0.183289
0.153984
0.153738
1.05308
0.171352
0.151211
0.1525
3.18709
0.20379
0.189406
0.170171
0.169868
1.09204
0.54925
0.201094
0.183528
0.249402
0.153772
0.219685
0.15699
0.175815
0.176245
0.184883
0.243208
0.160829
0.155958
0.171834
0.16028
0.162676
0.16552
1.27329
0.152418
0.154917
0.166376
0.154547
0.178467
0.145643
0.139826
0.164905
0.546725
0.213028
0.0900794
0.155674
0.175497
0.165811
0.159759
1.9028
0.803207
0.162485
0.153652
0.197263
0.15447
0.151568
0.31816
1.22435
0.220389
0.138727
0.15912
0.298404
0.36259
0.204401
0.182399
0.249727
0.113413
0.712775
1.09697
0.0973712
0.299725
0.179275
0.1561
0.153545
0.156652
0.153198
0.276268
0.124122
0.232855
0.282657
0.153138
0.234148
0.183877
0.165749
0.196901
0.165224
0.143095
0.172202
0.251621
0.821429
0.934467
0.316022
0.15345
0.16223
0.173471
0.153244
0.143288
0.139747
0.232477
0.933385
0.161424
0.153449
1.51472
0.151661
0.183776
0.146434
0.17519
0.163581
0.777999
0.446296
0.156981
0.152713
0.167193
0.233379
0.158269
0.167157
0.208072
0.173062
0.161346
0.142814
0.153688
0.149702
0.229306
0.55855
0.154961
0.157851
0.173078
0.164159
0.161422
0.153655
0.20523
0.232034
0.155476
0.227376
0.190966
0.583606
0.193703
0.262218
0.190426
0.259069
0.298108
0.162484
0.153635
0.196893
0.668154
0.186966
0.157826
0.144912
0.147275
0.163273
0.170901
0.160323
0.157119
0.16153
0.170981
0.16299
0.1555
0.154468
0.160973
0.154223
0.170302
0.210429
0.16981
0.160424
0.158027
0.15817
0.157625
0.152367
0.157187
0.186079
0.150872
0.165487
0.13879
0.14239
0.143138
0.494659
0.212291
0.147708
0.173234
0.274513
0.144113
0.187855
0.159823
0.156563
0.140549
0.146375
0.15078
0.156326
0.162161
0.169776
0.152451
0.172584
0.150283
0.149862
0.172232
0.153596
0.153203
0.15518
0.233743
0.29993
0.541378
0.443484
0.157951
0.156777
0.178115
0.179984
0.197213
0.269537
0.153372
0.153771
0.466677
0.182604
0.161997
0.184023
0.450109
0.268449
0.284707
0.160494
0.14026
0.168107
0.220504
0.218524
0.202831
0.256593
0.229078
0.245881
0.257693
0.152048
0.167841
0.356837
0.215627
0.156555
0.377829
0.2249
0.214012
0.162154
0.154815
0.177941
0.119169
0.164201
0.241406
0.152239
0.820106
0.148875
0.319258
0.269226
0.15871
0.251387
0.150223
0.161152
0.163499
0.157166
0.156386
0.148264
0.144094
0.167087
0.340789
0.155034
0.166762
0.152372
0.167571
0.151418
0.232204
0.160802
0.55237
0.159141
0.207952
0.158838
0.161173
0.189556
0.154633
0.155279
0.169136
0.170786
0.179709
0.210005
0.359146
0.239791
0.184549
0.15912
0.20366
0.203235
0.188574
0.167239
0.301603
0.717402
0.176517
0.17801
0.186167
0.151758
0.163868
0.828886
0.291239
0.429082
0.726285
0.155146
0.16108
0.231658
0.151724
0.177981
0.150251
0.179104
0.316902
0.151724
0.306338
0.624754
0.146106
0.180015
0.215806
0.249114
0.209259
0.194355
0.181075
0.204279
0.153053
0.158147
0.168482
0.161943
0.155136
0.159044
0.174444
0.166703
0.146357
0.156119
0.20128
0.177056
0.179672
0.153765
0.171233
0.147317
0.155925
0.150088
0.216166
0.160395
0.160398
0.135005
0.13671
0.160607
0.166218
0.161438
0.153757
0.463259
0.149347
0.172721
0.144678
0.450633
0.169029
0.165745
0.160461
0.15932
0.15437
0.183518
0.155759
0.155846
0.155624
0.153939
0.16283
0.146867
0.16937
0.14495
0.160999
0.138419
0.156394
0.178679
0.152318
0.195643
0.157326
0.204804
0.189662
0.152137
0.206581
0.158789
0.351453
0.175623
0.167997
0.170425
0.163624
0.155676
0.15551
0.154362
0.152779
0.184399
0.138874
0.155323
0.173167
0.165053
0.160214
1.15532
0.167701
0.172869
0.161846
0.161659
0.294279
0.152678
0.15754
0.154043
1.11721
0.18329
0.151307
0.144532
0.1647
0.278162
0.158414
0.196553
0.144303
0.170945
0.136593
0.309084
0.178419
0.140239
0.249929
0.167778
0.148696
0.165651
0.157783
0.155799
0.159574
0.151618
0.155856
0.212847
0.259999
0.264419
0.275165
2.71521
0.154571
0.172548
0.157822
0.152566
0.166305
0.161195
0.162479
0.282886
0.153213
0.157274
0.153447
0.151071
0.19335
0.152859
1.11609
0.458351
0.180619
0.151915
4.41863
0.209681
0.19545
0.141594
0.155615
0.169007
0.252955
0.204484
0.197992
0.160376
0.994606
0.15719
0.830768
0.1437
0.247528
0.260346
0.153462
0.779687
0.104993
0.252467
0.159375
0.152505
0.17711
0.179046
0.374224
0.180978
0.313202
0.156055
1.1383
0.208941
0.150584
0.147885
0.148844
0.152288
0.414899
0.151093
0.398804
0.250858
0.163877
0.226797
0.186542
0.187477
0.959508
0.155422
0.196192
0.156316
0.150169
0.153051
0.243984
0.301636
0.306609
0.164533
0.2187
0.167403
0.19681
0.268643
0.160558
0.151609
0.173005
0.16068
0.186564
0.14713
0.152061
0.174004
0.154046
0.148055
0.288948
0.264093
0.215932
0.165001
0.248889
0.166417
0.1487
0.185329
0.375139
0.211606
0.152136
0.19265
1.66722
0.128598
0.250707
0.153482
0.153122
0.160929
0.27205
0.265592
0.144857
0.181803
0.208386
3.70491
0.152382
0.195437
0.1694
0.153343
0.245585
0.216986
0.148514
0.197612
0.164737
0.154519
0.155144
0.641278
0.177991
0.153906
1.71757
0.194076
0.150045
0.319767
0.479517
0.186027
0.15893
0.166286
0.190383
0.221162
0.157335
0.429352
0.200361
0.151583
0.829583
0.252494
0.162859
0.208333
0.437218
0.346329
0.258451
0.181866
0.173183
0.170798
0.181051
0.228891
0.172247
0.268171
0.171419
0.462427
0.151588
0.178666
0.355547
0.150246
0.151666
0.168262
0.156353
0.168259
0.215922
0.156019
0.150226
0.298791
0.151646
0.160966
0.153686
0.816894
0.210773
0.159244
0.150074
0.142872
1.19453
0.176075
0.099361
0.158975
0.257202
0.284129
0.167748
0.77983
0.152524
0.147919
0.152455
0.135872
0.165099
0.253866
0.128635
0.168465
0.164848
0.151952
0.145894
0.181602
0.16615
0.29146
0.147084
0.148025
0.277818
0.168185
0.133211
0.260809
0.168225
0.149374
0.60712
0.509495
0.143894
0.186195
0.193098
0.154574
0.152547
0.346277
0.186172
0.168541
0.278008
0.710067
0.159047
0.149286
0.187352
0.422271
0.154126
0.153758
0.15901
0.154085
0.263954
0.246354
0.455186
0.15457
0.160115
0.153518
0.223126
1.24299
0.15293
0.260223
0.184773
0.219325
0.354784
0.158818
0.151777
1.0839
0.255788
0.182406
0.240163
0.228599
0.164506
0.153608
0.174231
0.354983
0.221413
0.150479
0.176847
0.151775
0.23731
0.210752
0.264908
0.154199
0.161615
0.151551
0.173791
0.192361
0.561839
0.202214
0.159871
0.207222
0.152619
0.149284
0.235841
0.309247
0.176298
0.131299
0.127083
0.221148
0.366189
0.188203
0.347578
0.147826
0.154987
0.15522
0.179406
0.208764
0.254463
0.220592
0.158739
0.388074
0.304003
0.29141
0.167368
0.16846
0.15855
0.660191
0.225681
0.154743
0.25405
0.955907
0.29532
0.545067
0.160038
0.662807
0.184736
0.42638
0.177076
0.17516
0.162728
0.349277
0.693136
0.150851
0.246847
0.181587
0.14945
0.138983
0.230447
0.826717
0.347149
0.215575
0.523327
0.152729
0.655377
0.29518
0.179185
0.4732
0.176365
0.144006
0.198418
0.155822
0.243722
0.172018
0.197297
0.300358
0.182252
0.299986
0.214567
0.269987
0.181321
0.236836
0.376557
0.167166
1.00386
0.172459
0.334869
0.148116
0.267588
0.155463
0.155066
0.152614
0.188324
0.339673
0.195239
0.19702
0.151804
0.27274
0.874381
0.190622
0.159644
0.203686
0.339362
0.154604
0.178936
0.230554
0.174639
0.177829
0.159842
0.182787
0.191045
0.354142
0.156266
4.648
0.223958
0.604996
0.37993
0.14912
0.219789
0.175525
0.187099
0.165783
0.151525
0.144995
0.151466
0.188753
0.196805
0.169824
0.474853
0.47268
0.153181
0.155361
0.21775
0.162561
0.16468
0.149815
0.19005
1.78925
0.325618
0.308545
0.148222
0.421869
0.165462
0.152451
0.154335
0.359056
0.187545
0.152862
0.303458
0.153149
0.163169
0.152572
0.156408
0.328084
0.371545
0.173941
0.289663
0.150586
0.157197
0.198937
0.497175
0.150443
0.236676
0.282587
0.324902
0.321199
0.223903
0.161754
0.276658
0.188699
0.154358
0.170352
0.273591
0.422771
0.15233
0.150917
0.283359
0.259325
0.635029
0.150941
0.206723
0.264499
0.65945
0.153086
0.168633
0.157864
0.173185
0.361804
0.157421
0.207648
2.02276
0.164105
0.156038
0.515368
0.340956
0.252965
0.157776
0.270691
0.142563
0.157204
0.151887
0.154347
1.51532
0.157062
0.793763
0.310208
0.170808
0.207858
0.252896
0.174116
0.340364
0.153538
0.20977
0.254203
0.169892
0.215457
0.151981
0.161156
0.159459
0.228285
0.175315
0.15562
0.278463
0.15202
0.184551
0.205091
0.175448
0.314993
0.141105
0.152125
0.383243
0.174019
0.157709
0.26933
0.1521
0.366197
0.206067
0.530178
0.335804
0.16271
0.203298
0.201413
0.188759
0.162291
0.13311
0.761625
0.835643
1.00151
0.232051
0.139734
0.755341
0.184215
0.156481
0.13875
0.249653
0.166058
0.233416
0.302027
0.151765
0.187511
0.170659
0.151896
0.26313
0.151776
0.590225
0.274887
0.161119
2.97005
0.154401
0.220598
0.289621
0.286781
0.309203
1.29242
0.532046
0.202082
0.157483
0.270768
0.153554
0.124047
0.135417
0.154682
0.159401
0.193909
0.163062
0.15166
0.151651
0.15473
0.284577
0.158621
0.258955
0.161599
0.152005
0.440649
0.301871
0.184344
0.176902
0.200832
0.152586
0.122257
0.246046
0.25518
0.131225
0.606825
0.160689
0.150622
0.307872
0.219556
0.168456
0.29559
2.09269
0.46396
0.273664
0.313969
0.152618
0.321577
0.486943
0.221419
0.330978
0.363335
0.165798
0.165754
0.178359
0.549164
0.152043
0.212442
0.43815
0.199845
0.509475
0.175321
0.230848
0.125276
0.287068
0.167061
0.204682
0.133474
0.227678
0.143613
0.193887
0.15478
1.48661
0.332084
0.233551
0.24788
0.218057
0.244267
0.25126
0.32139
0.158773
0.166626
0.321621
0.196866
0.224327
0.151748
0.146786
0.283056
0.575294
0.152044
0.152816
0.16055
0.283001
0.147521
0.15233
0.156156
0.162507
0.343964
0.151426
0.152271
0.267691
0.303939
0.147676
0.159084
0.163641
0.153393
0.33667
0.592455
0.21311
0.174058
0.614458
0.157102
0.151542
0.312937
0.155323
0.157703
0.180972
0.178731
0.188841
0.159956
0.464116
0.314319
0.164063
0.218019
0.159058
0.160997
0.167547
0.160848
0.158929
0.155432
0.160892
0.366208
0.1316
0.234187
0.162398
0.160586
0.163332
0.271706
0.34212
0.124652
0.667076
0.139849
0.144016
0.322976
0.17295
0.581803
0.630353
0.125965
0.67926
0.125097
0.124697
0.678444
0.167458
0.195259
0.176197
0.156708
0.151742
0.167194
0.510904
0.160899
0.245213
0.174954
0.248039
0.16436
0.433428
0.159491
0.472043
0.251315
0.350482
0.282894
0.164549
0.15663
0.155836
0.161128
0.16349
0.180178
0.250044
0.172898
0.170635
0.151357
0.287931
0.180468
0.311641
0.309149
0.175889
0.157275
0.15563
0.153177
1.69696
0.686823
0.152073
0.166193
0.162513
0.162181
0.274672
0.198162
0.323032
0.181219
0.175038
0.145538
0.256429
0.152778
0.162188
0.165216
0.177356
0.16782
0.157154
0.220836
0.496513
0.333921
0.500677
0.152355
1.85348
0.200155
0.272983
0.149849
0.15213
0.258538
0.454953
0.306238
0.405073
0.545407
0.261839
0.179439
0.238873
0.269395
0.322635
0.25981
0.173133
0.257678
0.183233
0.163886
0.155691
0.162507
0.163724
0.304949
0.376315
0.157006
0.293382
0.146494
0.130501
0.344281
0.315808
0.153756
0.166156
0.158975
0.481158
0.151235
0.158262
0.608312
0.306847
0.176862
0.164866
0.153415
0.189426
0.179757
0.491805
0.146065
0.206549
0.320531
0.162509
0.154611
0.156076
0.153107
0.162848
0.151634
0.440426
0.288884
0.124888
0.162884
0.153585
0.173466
0.15363
0.104168
0.152147
0.650206
0.153524
0.125247
0.215371
0.161588
0.607179
0.221859
0.204073
0.152491
0.141535
0.168962
0.293099
0.16772
0.375316
0.153727
0.15274
0.159867
0.315763
0.154725
0.152863
0.347037
0.571789
0.178586
0.13875
0.183526
0.226084
0.152666
0.554822
0.492379
0.214184
0.15262
0.166606
0.16347
0.154384
0.287047
0.163673
0.162756
0.246734
0.181846
0.173024
0.182425
0.151171
0.560151
0.17386
0.207541
0.241468
0.163198
0.329742
0.431718
0.18785
0.160594
0.244267
0.173651
0.207281
0.223433
0.210395
0.23944
0.156611
0.155178
0.199633
0.228903
0.175108
0.145941
0.273918
0.189542
0.174749
0.214499
0.391453
0.298998
0.164649
0.167879
0.226935
0.138089
0.184995
0.171333
0.168453
0.460353
0.153175
0.153338
0.1489
0.287185
0.158038
0.604583
0.203648
0.206485
0.159224
0.153254
0.222112
0.468197
0.214711
0.418126
0.272861
0.21083
0.294012
0.0991013
0.157766
0.156758
0.160617
0.161514
0.178077
0.150408
0.207363
0.152845
0.137067
0.184927
0.186611
0.157325
0.267967
0.184979
0.163252
0.192639
0.151371
0.212809
0.174085
0.160396
0.157426
0.169072
0.182385
0.15886
0.158773
0.434835
0.156916
0.153924
0.911073
0.164951
0.143807
0.272512
0.181066
0.168788
0.150438
0.152178
0.457228
0.152826
0.168031
0.42284
0.154984
0.393242
0.162124
0.118977
0.126163
0.627232
0.737005
0.325464
0.153555
0.297095
0.149352
0.844317
0.183682
0.161624
0.126975
0.127574
0.134396
0.126004
0.150453
0.117022
0.136184
0.125238
0.131965
0.136991
0.138546
0.140236
0.118247
0.118784
0.129293
0.147203
0.119297
0.136772
0.444122
0.153944
0.118936
0.116813
0.126397
0.152073
0.145709
0.144511
0.13001
0.136361
0.13353
0.143953
0.137499
0.133921
0.135836
0.127037
0.139402
0.124391
0.148362
0.139192
0.140626
0.134887
0.135121
0.137865
0.139664
0.167048
0.152118
0.25801
0.177269
0.181623
0.158519
0.190826
0.215012
0.160615
0.153966
0.180973
0.161388
0.906986
0.191209
0.398232
0.237341
0.19958
0.464802
0.158458
0.158501
0.162694
0.19825
0.213901
0.163614
0.177715
0.470784
0.266827
0.188397
0.155888
0.253864
0.210476
0.216433
0.194174
0.465731
0.157995
0.166492
0.165556
0.334455
0.170985
0.25444
1.17349
0.176973
0.174529
0.322248
0.445263
0.152916
0.15458
0.333802
0.362272
1.241
0.153349
0.181689
0.138461
0.180238
0.18365
0.159312
0.171365
0.225682
0.144537
0.124247
0.115859
0.146908
0.143965
0.122686
0.131574
0.141021
0.141033
0.137688
0.14575
0.137334
0.13342
0.141983
0.133806
0.230498
0.142279
0.116029
0.12234
0.116387
0.126734
0.195095
0.12575
0.157482
0.351132
0.0988845
0.340779
0.172853
0.362291
0.172204
0.15195
0.150544
0.202523
0.159019
0.16496
0.177865
0.213035
0.124531
0.179127
0.151794
0.153153
0.339829
0.205025
0.251824
0.152199
0.161595
0.208968
0.197059
0.160915
0.192302
0.169461
0.162103
0.156859
0.148677
0.170263
0.173243
0.169745
0.204933
0.182076
0.196085
0.142616
0.191223
0.167276
0.156535
0.157716
0.194484
0.161144
0.165781
0.15571
0.157727
0.178535
0.31667
0.178499
0.176936
0.155781
0.15812
0.305885
0.099558
0.301777
0.197709
0.164547
0.162259
0.176673
0.153348
0.191458
0.522636
0.16272
0.310069
0.15406
0.15381
0.153284
0.701834
0.151355
0.188951
0.180137
0.130844
0.141953
0.19468
0.163215
0.274686
0.161989
0.156683
0.150823
0.163717
0.230223
0.160733
0.164858
0.208805
0.156742
0.160005
0.154609
0.158323
0.186114
0.221598
0.192519
0.154135
0.153026
0.180593
0.163321
0.152787
0.152388
0.154837
0.466249
0.169919
0.165921
0.165772
0.187795
0.658459
0.198292
0.392261
0.176083
0.170227
0.151987
0.246421
0.188467
0.156476
0.166482
0.157949
0.158145
0.155568
0.147114
0.300587
0.156324
0.196678
0.152446
0.157366
0.154446
0.347546
0.170532
0.158554
0.185041
0.15356
0.177722
0.170801
0.307345
0.447117
0.165625
0.169372
0.152052
0.152471
0.174428
0.179892
0.156558
0.153685
0.183881
0.16132
0.15678
0.159427
0.16492
0.156032
0.157932
0.155252
0.164694
0.156396
0.159562
0.15761
0.165642
0.160559
0.164386
0.161558
0.166305
0.162221
0.152281
0.152515
0.1536
0.346181
0.152582
0.153158
0.153468
0.153229
0.117999
0.170068
0.278156
0.1894
0.155137
0.157697
0.155973
0.165538
0.195483
0.190088
0.271529
0.154408
0.155536
0.155492
0.241261
0.158802
0.349336
0.155287
0.278828
0.447266
0.155637
0.374518
0.170808
0.192973
0.162851
0.151761
0.156958
0.152431
0.174296
0.162452
0.170755
0.162788
0.166701
0.189076
0.175504
0.19986
0.315368
0.244061
0.171775
0.170722
0.158961
0.206109
0.172893
0.175266
0.255483
0.15698
0.155131
0.165695
0.171316
0.153058
0.183728
0.220965
0.159969
0.185353
0.1637
0.169201
0.173668
0.179359
0.158914
0.210888
0.154367
0.356419
0.186884
0.172442
0.153567
0.202586
0.227135
0.154115
0.159171
0.17219
0.15251
0.154582
0.371528
0.184712
0.159522
0.170481
0.194729
0.155227
0.157466
0.156074
0.175146
0.152767
0.392858
0.158866
0.156489
0.157351
0.219216
0.422043
0.155232
0.163072
0.246241
0.394232
0.168464
0.164094
0.155664
0.152576
0.152507
0.16892
0.254445
0.313637
0.314273
0.363603
0.218955
0.444976
0.174569
0.171003
0.170258
0.154269
0.202507
0.15716
0.178386
0.154035
0.152269
0.142565
0.434854
0.189317
0.156496
0.175837
0.156408
0.212116
0.219741
0.327594
0.159321
0.17498
0.160153
0.180069
0.192185
0.187203
0.155715
0.24137
0.175004
0.184552
0.197015
0.167116
0.189985
0.170295
0.198522
0.163784
0.170128
0.153008
0.16453
0.152791
0.251842
0.164012
0.171134
0.160901
0.18272
0.169955
0.387244
0.1615
0.158508
0.156496
0.203913
0.165745
0.158733
0.334331
0.157468
0.157771
0.157525
0.187776
0.166427
0.165524
0.162884
0.157515
0.16755
0.215536
0.157559
0.160043
0.162739
0.158519
0.172288
0.237491
0.16235
0.168724
0.157639
0.158118
0.161456
0.170407
0.175595
0.164905
0.158768
0.226476
0.157082
0.166416
0.172079
0.173318
0.152984
0.162595
0.154287
0.136272
0.160993
0.153095
0.152774
0.158822
0.157574
0.210438
0.191017
0.162796
0.152127
0.343654
0.154777
0.15465
0.191406
0.162152
0.204511
0.186955
0.209972
0.145641
0.161931
0.131655
0.374617
0.167584
0.216939
0.240873
0.250843
0.158309
0.157934
0.153087
0.152528
0.152307
0.156944
0.157198
0.226869
0.170098
0.157171
0.152496
0.152224
0.153611
0.161188
0.154998
0.152234
0.316658
0.163711
0.16553
0.188787
0.410445
0.164672
0.210922
0.238221
0.211635
0.142884
0.16009
0.201755
0.240365
0.192816
0.196378
0.212526
0.15976
0.152474
0.152139
0.213809
0.147184
0.179523
0.152153
0.294862
0.152257
0.42456
0.347908
0.157902
0.174789
0.152465
0.153912
0.261081
0.228449
0.17042
0.165549
0.221286
0.202554
0.176926
0.201926
0.170472
0.157089
0.170368
0.333721
0.163723
0.166601
0.212589
0.168946
0.163205
0.185158
0.227428
0.224104
0.182263
0.212663
0.229113
0.204631
0.25863
0.205297
0.184774
0.169058
0.152775
0.152134
0.173561
0.158213
0.181248
0.152056
0.328221
0.313433
0.320677
0.168535
0.173415
0.207192
0.243697
0.152183
0.379532
0.154502
0.323553
0.161442
0.257831
0.175148
0.155585
0.161662
0.22667
0.203719
0.237784
0.254116
0.157952
0.224917
0.162666
0.182926
0.235026
0.155268
0.153488
0.177177
0.195396
0.173584
0.15996
0.144711
0.14758
0.171447
0.223709
0.214438
0.153231
0.152172
0.180813
0.168172
0.153633
0.157054
0.157133
0.157992
0.173777
0.165885
0.357556
0.18082
0.195405
0.166495
0.152327
0.465566
0.153608
0.156618
0.170127
0.155194
0.154725
0.247039
0.214251
0.156644
0.145291
0.181645
0.154238
0.152386
0.192958
0.325705
0.17099
0.154295
0.171885
0.15658
0.185136
0.171313
0.232505
0.211056
0.225985
0.172887
0.288242
0.155148
0.166256
0.258249
0.160222
0.167299
0.169834
0.198485
0.313072
0.157121
0.157784
0.155495
0.205013
0.227644
0.185431
0.356524
0.36391
0.350225
0.161675
0.197587
0.154009
0.152278
0.158436
0.161218
0.1599
0.220863
0.165832
0.218834
0.159628
0.15493
0.158015
0.222458
0.271643
0.222466
0.209745
0.208672
0.198497
0.354836
0.252907
0.155933
0.84195
0.325448
0.162859
0.16346
0.213043
0.228292
0.289916
0.15234
0.320449
0.189389
0.209321
0.35739
0.275627
0.241334
0.157941
0.143034
0.152237
0.335392
0.325614
0.159393
0.255304
0.152454
0.15214
0.152427
0.153427
0.195611
0.159685
0.153129
0.332147
0.162172
0.157042
0.618649
0.164136
0.173167
0.227681
0.178508
0.190636
0.154841
0.158086
0.172907
0.22011
0.305843
0.203011
0.220807
0.193817
0.151833
0.190535
0.211848
0.169515
0.282413
0.196634
0.279809
0.159587
0.167323
0.175783
0.159983
0.22764
0.152928
0.19984
0.178505
0.153822
0.159426
0.211238
0.167374
0.168103
0.162099
0.158209
0.180767
0.254268
0.421427
0.308932
0.157963
0.169204
0.376217
0.201131
0.276004
0.470002
0.214005
0.124665
0.125876
0.16121
0.154013
0.155272
0.186956
0.219256
0.247708
0.262288
0.192837
0.211308
0.198046
0.360431
0.159918
0.16409
0.302855
0.155942
0.152466
0.251687
0.30744
0.2159
0.254625
0.149291
0.158234
0.200549
0.188663
0.16831
0.164124
0.157537
0.180481
0.185102
0.54193
0.197729
0.177827
0.177466
0.16339
0.154211
0.231312
0.171168
0.154568
0.164841
0.177273
0.215375
0.190709
0.164923
0.757732
0.156817
0.203134
0.169492
0.449713
0.172695
0.257689
0.165843
0.205638
0.153111
0.159712
0.170649
0.209078
0.153223
0.162084
0.201742
0.522499
0.251548
0.177059
0.246545
0.160853
0.166683
0.342299
0.158014
0.15443
0.152188
0.314928
0.196927
0.176342
0.313093
2.20151
0.1571
0.201609
0.222922
0.165387
0.164979
0.178726
0.238301
0.151935
0.1478
0.172115
0.176252
0.153396
0.156056
0.158114
0.158193
0.162019
0.459272
0.199393
0.154047
0.180557
0.158283
0.291861
0.241141
2.37802
0.266308
0.177206
0.216504
0.174224
0.265191
0.152002
0.485983
0.312873
0.158168
0.167386
0.147642
0.243792
0.229762
0.152093
0.156063
0.156375
0.164138
0.157525
0.468231
0.154526
0.155636
0.152591
0.184241
0.182067
0.314837
0.135012
0.1583
0.194911
0.155151
0.170569
0.178994
0.322106
0.167974
0.177074
0.15514
0.187609
0.17789
0.157578
0.258005
0.157908
0.153289
0.36737
0.18636
0.15278
0.431378
0.165219
0.158066
0.153665
0.168803
0.193439
0.346963
0.152844
0.153749
0.185745
0.265771
0.157667
0.640682
0.182814
0.168871
0.155332
0.20388
0.155148
0.413807
0.161172
0.164891
0.171414
0.236726
0.166014
0.701878
0.135093
0.154664
0.156992
0.154224
0.273504
0.272962
0.156
0.154916
0.179306
0.157873
0.151297
0.157558
0.432009
0.158306
0.158358
0.190966
0.190175
0.19975
0.1765
0.360016
0.276646
0.284741
0.272571
0.160419
0.153257
0.363694
0.169957
0.155633
0.161509
0.160541
0.172987
0.168489
0.177097
0.198895
0.264986
0.216278
0.1587
0.776237
0.188481
0.129813
0.179585
0.166599
0.189049
0.633929
0.60578
0.217099
0.157041
0.169609
0.23828
0.185023
0.211979
0.320232
0.163068
0.15778
0.226358
0.19146
0.267993
0.158562
0.1528
0.254965
0.162494
0.204364
0.198862
0.157051
0.2033
0.202577
0.15495
0.158141
0.257371
1.1275
0.177659
0.153776
0.238695
0.171053
0.22009
0.156694
0.458403
0.164699
0.153388
0.172865
0.196154
0.154579
0.396103
0.208834
0.158214
0.180484
0.193469
0.162714
0.200619
0.203478
0.156157
0.18975
0.399598
0.152208
0.161876
0.157866
0.157618
0.163637
0.154425
0.153904
0.160778
0.177192
0.154989
0.154739
0.170003
0.154965
0.267395
0.261637
0.329531
0.155147
0.189361
0.404399
0.204817
0.230391
0.161514
0.26139
0.251137
0.17064
0.215525
0.182615
0.19266
0.162831
0.181488
0.138007
0.184605
0.163492
0.325113
0.188539
0.153733
0.153763
0.171222
0.169337
0.149174
0.181854
0.217426
0.175448
0.165976
0.167321
0.192981
0.239729
0.22351
0.162617
0.5557
0.237923
0.74165
0.152031
0.158027
0.217829
0.199094
0.160379
0.170171
0.366196
0.15898
0.402953
0.174954
0.156187
0.153802
0.161052
0.155395
0.1543
0.156503
0.154296
0.151957
0.152033
0.163322
0.170468
0.26287
0.152325
0.193538
0.161384
0.232169
0.154505
0.154978
0.227164
0.160544
0.143729
0.302249
0.158098
0.182628
0.156896
0.180995
0.264722
0.154889
0.170792
0.155013
0.265673
0.338327
0.314905
0.175109
0.166579
0.389603
0.171632
0.154502
0.270937
0.152037
0.158002
0.207465
0.152827
0.189749
0.13807
0.179104
0.154345
0.335534
0.171299
0.203339
0.237933
0.164452
0.183002
0.174101
0.254531
0.230679
0.153967
0.173734
0.160611
0.161322
0.157594
0.152048
0.269332
0.140171
0.157765
0.159402
0.18066
0.161174
0.331535
0.158916
0.164985
0.176015
0.169002
0.223417
0.219781
0.278199
0.162896
0.167702
0.209369
0.265826
0.267698
0.174836
0.166732
0.165754
0.161751
0.248094
0.159611
0.155961
0.191509
0.15208
0.232281
0.162167
0.137593
0.149448
0.237531
0.476529
0.160183
0.160259
0.172743
0.186253
0.251961
0.294821
0.330055
0.354614
0.221849
0.170161
0.16422
0.168044
0.17299
0.267043
0.332963
0.154748
0.187801
0.273996
0.160468
0.158478
0.161871
0.161776
0.376019
0.152167
0.1995
0.17058
0.147674
0.160996
0.191623
0.255227
0.280516
0.288474
0.728182
0.145149
0.122916
0.170458
0.176473
0.360187
0.155107
0.177939
0.162919
0.161279
0.167567
0.16204
0.183813
0.707301
0.168603
0.184752
0.215404
0.160342
0.489102
0.197204
0.163706
0.16503
0.225963
0.169201
0.27225
0.299112
0.214755
0.112705
0.179804
0.26981
0.360582
0.212334
0.17642
0.159631
0.149631
0.178419
0.272925
0.201365
0.188216
0.190462
0.479446
0.153037
0.344014
0.155
0.1593
0.195218
0.304813
0.15601
0.412705
0.161854
0.140926
0.186926
0.822685
0.191078
0.161521
0.145142
0.152395
0.259552
0.355725
0.231299
0.194264
0.17259
0.207339
0.236537
0.194034
0.154283
0.162893
0.156616
0.257541
0.477948
0.175765
0.281876
0.197053
0.163879
0.2003
0.340168
0.164591
0.155041
0.576248
0.18812
0.164374
0.155169
0.264567
0.220421
0.239377
0.157325
0.191758
0.156484
0.159878
0.156854
0.176961
0.157234
0.152867
0.257337
0.197229
0.16806
0.366867
0.169602
0.155537
0.154132
0.15514
0.163137
0.170157
0.156737
0.156057
0.169074
0.486613
0.196393
0.159324
0.148519
0.233176
0.130284
0.198623
0.153792
0.276474
0.15392
0.202048
0.221022
0.277265
0.279439
0.279481
0.184989
0.228486
0.15035
0.351449
0.171712
0.156493
0.568652
0.18668
0.156066
0.15942
0.253298
0.50501
0.24801
0.160035
0.160616
0.219366
0.149764
0.393125
0.225416
0.194615
0.156199
0.153877
0.323382
0.156847
0.154906
0.366225
0.178813
0.225647
0.682163
0.245471
0.152972
0.1965
0.156843
0.15997
0.229902
0.165149
0.225806
0.207274
0.228043
0.198389
0.248088
0.157721
0.154722
0.233724
0.152389
0.15387
0.154986
0.153941
0.176138
0.153811
0.152792
0.167112
0.198776
0.419843
0.327206
0.154801
0.153097
0.156757
0.157503
0.162526
0.198549
0.246915
0.464674
0.158922
0.15548
0.175364
0.182345
0.287296
0.183712
0.171665
0.157879
0.320584
0.1943
0.16299
0.412884
0.328409
0.152587
0.181212
0.152805
0.203644
0.220164
0.341654
0.272624
0.229244
0.29567
0.232857
0.436325
0.136219
0.121102
0.195252
0.12025
0.424694
0.325555
0.155509
0.156236
0.161961
0.153546
0.152258
0.154075
0.122057
0.2381
0.154782
0.118679
0.158538
0.182744
0.191764
0.198844
0.159158
0.215308
0.129769
0.238258
0.123637
0.113434
0.122908
0.164601
0.257912
0.193158
0.27998
0.152651
0.154573
0.176865
0.284868
0.129691
0.170794
0.0933419
0.248499
0.169181
0.369943
0.22091
0.24189
0.19475
0.253016
0.262551
0.136395
0.158076
0.171871
0.210454
0.196255
0.164505
0.14625
0.11623
0.156348
0.214737
0.16823
0.170034
0.182171
0.229947
0.245762
0.162324
0.138612
0.150048
0.161322
0.153883
0.182992
0.359669
0.300814
0.121697
0.197152
0.160242
0.157299
0.16055
0.174016
0.241701
0.161049
0.194175
0.171799
0.158178
0.189464
0.16474
0.13319
0.140352
0.173955
0.115112
0.167702
0.205318
0.414424
0.535663
0.22054
0.166633
0.179716
0.404442
0.33166
0.164727
0.149439
0.160026
0.272066
0.155851
0.446299
0.242799
0.143399
0.118279
0.205597
0.472705
0.245266
0.605985
0.282502
0.168564
0.175422
0.163478
0.266249
0.186832
0.306566
0.37209
0.136098
0.200574
0.260404
0.150672
0.154861
0.226
0.163913
0.350197
0.163038
0.57296
0.548493
0.174177
0.787857
0.26274
0.147832
0.165712
0.155228
0.123485
0.776819
0.158071
0.269798
0.387497
0.387447
0.258435
0.161175
0.164538
0.151729
0.165072
0.14324
0.114546
0.486717
0.155776
0.216653
0.184142
0.161974
0.513429
0.167533
0.179374
0.187429
0.271552
0.227329
0.211556
0.167159
0.16596
0.159318
0.209897
0.218502
0.199517
0.183596
0.383135
0.579977
0.174483
0.0965153
0.097783
0.168909
0.337446
0.246744
0.180291
0.281567
0.159277
0.188739
0.332213
0.155029
0.297826
0.175114
0.160068
0.389484
0.160698
0.274022
0.153469
0.156489
0.195481
0.170435
0.14907
0.178026
0.157347
0.504191
0.129634
0.173802
0.181585
0.49206
0.519178
0.166276
0.2035
0.223067
0.177874
0.466495
0.219421
0.192775
0.61335
1.45757
0.179062
0.153546
0.158235
0.206731
0.166063
0.252656
0.550111
0.153438
0.269448
0.883744
0.233597
0.216329
0.134982
0.180814
0.187562
0.100367
0.184951
0.180711
0.178871
0.152547
0.409934
0.184673
0.238301
0.225875
0.163818
0.170556
0.309096
0.243976
0.229504
0.224432
0.325996
0.156889
0.14856
0.536813
0.173722
0.185864
0.153032
0.130454
0.17179
0.183003
0.138919
0.236743
0.184183
0.154853
0.164408
0.154808
0.208368
0.152215
0.16889
0.154944
0.225419
0.73408
0.171635
0.203533
0.160036
0.210477
0.285682
0.15381
0.20569
0.152277
0.179395
0.152453
0.15592
0.247213
0.160653
0.168924
0.171249
0.176715
0.245127
0.237307
0.258401
0.157783
0.372838
0.329422
0.169947
0.0940368
0.17725
0.141601
0.1569
0.155539
0.164226
0.36265
0.476005
0.311108
0.199127
0.230654
0.148995
0.174503
0.157244
0.348412
0.1767
0.302685
0.175058
0.175801
0.17764
0.302678
0.173895
0.136182
0.252013
0.293047
0.191109
0.226794
0.438028
0.152293
0.130702
0.147821
0.187583
0.199274
0.235207
0.180299
0.397227
0.185614
0.392734
0.276205
0.176674
0.344638
0.189655
0.169984
0.242065
0.191017
0.154052
0.155138
0.148229
0.16132
0.272296
0.224269
0.164716
0.203787
0.224357
0.154071
0.154513
0.214115
0.133079
0.221545
0.296452
0.154852
0.238486
0.313595
0.215667
0.426749
0.214398
0.204586
0.208868
0.186202
0.176295
0.192811
0.187442
0.224894
0.154447
0.217049
0.175499
0.163746
0.157386
0.159781
0.15606
1.90006
0.559273
0.541394
0.0963986
0.526154
0.0953508
0.551016
0.520308
0.527118
0.525738
0.373366
0.15689
0.235166
0.162867
0.17781
0.450108
0.15387
0.155275
0.150593
0.584149
0.185839
0.39536
0.197691
0.162741
1.06813
0.182693
0.151971
0.224658
0.155581
0.161396
0.153538
0.467547
0.429266
0.197
0.168999
0.131352
0.143746
0.151217
0.163529
0.149923
0.184476
0.382092
0.156234
0.169579
0.20845
0.163913
0.43668
0.187613
0.190299
0.561118
0.23163
0.183275
0.198324
0.149615
0.177733
0.15891
0.198743
0.186733
0.162649
0.202645
0.214562
0.175187
0.145526
0.158093
0.274249
0.170258
0.153202
0.243331
0.198971
0.28703
0.176842
0.15404
0.154196
0.157581
0.154476
0.194394
0.145622
0.302783
0.16762
0.241317
0.161134
0.519156
0.154051
0.351477
0.167435
0.561094
0.155172
0.158687
0.162649
0.166232
0.294584
0.131554
0.153631
0.192585
0.179168
0.161512
0.211597
0.218717
0.157426
0.173516
0.184649
0.14865
0.187998
0.202367