/*--------------------------------*- C++ -*----------------------------------*\
| =========                 |                                                 |
| \\      /  F ield         | OpenFOAM: The Open Source CFD Toolbox           |
|  \\    /   O peration     | Version:  v1912                                 |
|   \\  /    A nd           | Website:  www.openfoam.com                      |
|    \\/     M anipulation  |                                                 |
\*---------------------------------------------------------------------------*/
FoamFile
{
    version     2.0;
    format      ascii;
    class       surfaceScalarField;
    location    "0.04";
    object      phi;
}
// * * * * * * * * * * * * * * * * * * * * * * * * * * * * * * * * * * * * * //

dimensions      [0 3 -1 0 0 0 0];
oriented        oriented;


internalField   nonuniform List<scalar> 
11117
(
2.09468e-05
0.000282767
-9.77604e-06
-0.000293937
1.08684e-05
0.00017328
-1.30825e-06
-0.00018284
0.000318656
-0.000507879
0.000316637
-0.000127414
-0.00017477
-2.5001e-05
0.000110566
8.9205e-05
0.000127286
0.000383297
-0.000330054
-0.000180529
-4.8813e-05
1.1074e-05
-0.000229643
0.000267381
-0.000132644
-3.96222e-05
0.000151621
2.06445e-05
-0.000134989
-3.92818e-05
0.000151807
2.24638e-05
0.000344771
0.000161043
-0.000277417
-0.000228397
-0.000369741
0.000342844
-9.35129e-05
0.00012041
-9.50064e-05
0.000116179
3.74315e-05
-5.86039e-05
1.12918e-05
-4.57129e-05
-5.53594e-05
8.97805e-05
2.7384e-05
5.12452e-06
-3.45581e-05
2.04958e-06
0.000623859
-0.000572894
0.000188114
-0.000239079
0.000208585
-0.000174914
0.000155187
-0.000188859
-4.58706e-05
1.54922e-05
-1.63756e-05
4.6754e-05
-0.000231428
0.000487716
9.13945e-07
-0.000257202
-0.000229325
0.000253811
0.000312801
-0.000337287
0.000130034
0.0003276
-0.000249048
-1.39186e-05
1.02609e-05
0.000159087
-0.000155429
-0.000361221
0.000154899
2.88453e-05
0.000177476
-5.78951e-05
3.01024e-05
0.00030765
-0.000279857
0.000122137
0.00010204
-0.000102654
-0.000121523
0.000144175
0.000126093
-0.000113046
-0.000157223
0.000104192
8.20178e-05
-0.000118104
-6.81055e-05
0.000806343
-0.000843251
0.000335968
-0.00029906
0.000403019
-0.000418337
0.00099348
-0.000978162
-0.000264312
0.000317413
-0.000287044
0.000233943
2.53168e-05
-2.5113e-05
0.000205209
-0.000205413
2.27861e-05
-3.97181e-05
4.35948e-05
-2.66628e-05
9.76429e-06
2.20026e-05
-1.40201e-05
-1.77468e-05
2.29047e-05
0.000145423
3.04515e-06
-0.000171373
3.63723e-05
6.71311e-05
-7.10316e-05
-3.24719e-05
0.000118415
1.51978e-05
7.33386e-06
-0.000140947
8.06869e-05
5.20592e-05
1.58263e-05
-0.000148572
7.84863e-05
7.26672e-05
6.03186e-06
-0.000157185
0.000623217
-0.000671179
0.000850905
-0.000802943
9.58927e-05
-9.91482e-05
-5.36381e-05
5.68937e-05
4.30202e-05
-2.67293e-05
-3.03379e-05
1.40471e-05
0.000183925
0.000302531
-0.000340356
-0.0001461
0.000196537
0.000266652
-0.000284628
-0.000178561
0.000177432
0.000215353
-0.000244928
-0.000147857
0.000436394
0.000359286
-0.000358759
-0.000436922
0.000312259
3.8938e-05
-1.24565e-05
-0.00033874
0.000261308
9.62728e-05
-0.000227547
-8.05169e-05
8.298e-05
-3.71496e-05
3.46864e-05
-0.000310254
0.00027683
-0.000113209
0.000146633
-3.97947e-05
4.26563e-05
-1.78201e-05
1.49585e-05
0.000202841
-0.00022147
0.000172013
-0.000153384
-4.67291e-06
5.36445e-05
-4.89716e-05
1.76944e-05
5.41101e-05
-7.18045e-05
-9.12738e-05
-0.000230032
0.0001076
0.000213706
0.000476477
-0.000346343
0.000382655
-0.000512789
0.000332733
-0.000326491
-5.24954e-06
-9.92175e-07
-4.8123e-06
4.8123e-06
7.39045e-05
-1.20419e-05
-7.05709e-05
8.70829e-06
0.000205004
7.48267e-06
-0.000222335
9.84859e-06
4.29376e-05
-1.42053e-05
-3.4403e-05
5.67071e-06
0.000332993
3.8133e-05
-0.000524758
0.000153631
-0.000444679
0.000637379
0.000613644
0.000721666
-0.000756524
7.56046e-05
-4.07458e-05
8.87458e-05
-1.54297e-05
-5.94027e-05
-1.39134e-05
3.47965e-06
-1.50643e-05
2.1349e-05
-0.000198969
3.97374e-05
0.000182136
-3.88894e-05
2.84816e-05
4.67801e-05
-2.96651e-06
-6.13642e-05
5.07052e-05
1.36255e-05
0.000243505
-0.000632201
0.00053993
-0.000151234
-5.83098e-06
-0.000389675
0.000395506
-0.000325052
-0.000137639
0.000248339
0.000214352
9.5671e-06
9.01048e-05
-6.61951e-06
-9.30523e-05
0.00013541
-5.35843e-05
-0.0001731
-0.000379469
0.00026232
0.000360654
-0.000282798
-0.00119791
0.00125269
0.000228016
-9.18062e-05
0.00012098
-3.20518e-06
-2.59686e-05
-0.000352518
-0.00020186
-0.000147451
3.63765e-05
0.00023817
-0.000127096
-6.60933e-05
2.24293e-05
4.3664e-05
-0.000806834
-0.000189594
0.000153177
0.000290484
1.7797e-05
3.97766e-06
-3.47568e-05
1.56105e-05
1.91463e-05
0.000253626
0.000134614
-2.09502e-05
-0.000367289
0.000141131
7.434e-05
-1.12767e-05
-0.000204194
0.000198931
-0.00020649
0.00026084
-0.000253281
-5.22488e-06
3.69308e-05
3.76988e-07
-3.2083e-05
-2.93669e-05
6.68221e-05
2.69985e-05
-6.44537e-05
8.37212e-06
-0.000175587
0.000167215
-1.21403e-05
-0.000490729
0.000502869
-4.72167e-07
-0.000113017
0.000113489
-8.08976e-06
3.04893e-05
9.18074e-05
-0.000114207
-4.62825e-05
5.32089e-05
8.41388e-05
-9.10652e-05
0.000130812
-1.68686e-05
8.13844e-06
-0.000122081
0.000419124
5.14547e-05
-8.12082e-05
-0.00038937
0.000266081
-5.53542e-05
3.07958e-05
-0.000241522
-0.000216905
2.00176e-05
-1.40887e-05
0.000210976
-0.000305901
9.8622e-06
-8.81857e-06
0.000304858
9.19814e-06
-8.85934e-05
0.000153191
-7.37957e-05
0.000122464
1.52614e-05
-9.48385e-06
-0.000128241
0.000271091
2.45724e-05
-2.02595e-05
-0.000275404
0.000458257
3.00253e-06
-6.41202e-06
-0.000454847
0.000672506
8.90123e-05
-3.98531e-05
0.000611261
0.000137416
-0.0005993
-0.000149377
-0.000210961
0.000248176
3.16408e-06
-4.0379e-05
0.000135139
-0.00015023
-0.000471387
0.000486479
0.00048915
0.000130074
-0.0005668
-5.24234e-05
-0.000131673
0.000283869
-0.000199801
4.76047e-05
-0.000368424
0.000168614
0.000341289
-0.00014148
3.15766e-05
-4.92083e-05
0.000114756
-9.71238e-05
-2.72241e-05
2.69238e-05
-3.48983e-05
3.51986e-05
0.000101154
-4.54869e-05
-0.000137449
8.17817e-05
0.000263163
9.22914e-06
1.80925e-05
-0.0001314
8.33281e-05
9.00748e-05
-4.20027e-05
-0.00018804
0.000214997
0.000122435
-0.000149391
-0.000502735
0.000363166
-0.000404953
0.000544522
5.70063e-05
-5.60515e-05
5.97742e-07
-1.55252e-06
6.5822e-05
0.000291261
-0.000337299
-1.9784e-05
3.98432e-05
0.000159889
-0.000190229
-9.50232e-06
-0.000143776
-0.000128118
0.000236276
3.56181e-05
-0.000205012
0.000178462
0.000240947
-0.000214396
6.82219e-05
-3.48319e-05
-0.000789914
-0.00103918
0.000140401
0.000980533
-8.17577e-05
0.000285793
-0.000166876
-0.000323929
0.000240289
-0.000220051
-2.02374e-05
5.86364e-05
-6.48571e-05
9.10638e-05
-8.48431e-05
-0.000226834
-0.000184929
-0.000140849
-6.92939e-05
8.33843e-05
0.000126759
-0.000124143
0.00012918
0.000190347
-0.000195384
-0.000465691
0.000403057
-0.000391967
0.000454601
1.6536e-05
0.000235751
-0.000216543
-3.5744e-05
9.90271e-05
-0.00021313
-9.88988e-06
0.000123992
-6.65563e-05
6.32308e-06
-3.51644e-06
6.37496e-05
-2.07298e-05
4.77444e-05
6.58152e-06
-3.35961e-05
-1.90098e-05
2.68459e-05
1.01809e-05
-1.8017e-05
0.000170316
-0.000376265
-4.66355e-05
0.000252585
-0.000755043
0.000114523
-0.000166314
-6.3121e-05
7.36059e-05
-0.000310285
0.0002998
0.000131399
-0.000157898
-0.000148415
-0.000346748
2.96519e-05
8.60515e-06
0.000308491
6.61857e-05
5.05178e-05
-2.79577e-05
5.89218e-05
1.77773e-05
-4.61314e-05
-3.05677e-05
5.31658e-05
0.000102005
-6.43878e-05
-9.07827e-05
-1.3917e-05
6.57194e-05
-2.60199e-05
-2.57825e-05
-0.000117844
-0.000376082
0.000439251
5.46748e-05
0.000165852
-0.000142719
-0.000136353
0.00011322
0.000406615
-0.000294847
-0.000175293
6.35251e-05
7.86032e-05
1.75936e-05
-4.15118e-05
-5.46849e-05
1.61198e-05
0.000603975
-0.000239944
-0.000380151
9.80773e-05
-0.000148522
0.000109082
-0.00023136
0.000516859
-0.000319481
3.39819e-05
8.01219e-05
0.000366506
-0.000102923
-0.000343705
1.19108e-06
0.000130701
-9.31003e-05
-3.87921e-05
0.000331088
0.000104399
-0.000235776
-0.000199712
-2.26912e-07
9.7825e-06
-0.000200863
0.000191307
-0.000231136
-7.14884e-05
-6.5799e-05
9.63268e-05
-0.000158861
-6.15883e-05
0.000124123
-0.000791706
-0.000520152
0.000755962
0.000555895
0.000326219
-8.0683e-05
-0.000245536
3.77953e-05
4.15097e-05
-1.11858e-05
-3.03239e-05
6.2071e-05
-2.15764e-05
-4.04946e-05
6.65258e-05
0.000248329
-8.47216e-05
-0.000163607
1.18486e-05
-7.29716e-05
6.1123e-05
8.73087e-05
-0.000111986
2.46769e-05
9.52767e-06
-5.85856e-05
4.90579e-05
7.14241e-05
-7.79885e-05
6.56442e-06
9.05931e-05
-8.06222e-05
-9.97088e-06
4.44325e-05
2.21651e-06
-4.6649e-05
5.73579e-05
1.72484e-06
-5.90827e-05
-9.46215e-05
-3.67787e-05
-0.000108329
-7.97109e-05
-9.71487e-05
0.000115653
-1.85039e-05
0.000317285
-5.06724e-05
-0.000266613
0.000183786
-0.000111789
-7.19967e-05
0.000138637
-7.49402e-05
-6.36973e-05
0.000108491
-4.64239e-05
-6.20669e-05
-0.000124034
0.000136501
-1.24674e-05
-0.00024181
0.000140382
0.000101428
-0.000108824
0.000129803
-2.09789e-05
-0.000149047
0.000174462
-2.54148e-05
0.000191105
-0.000234443
4.33375e-05
-3.91079e-05
4.30489e-05
-3.94101e-06
0.000109235
-0.000112571
3.33562e-06
1.87043e-05
-1.75138e-05
-1.19045e-06
2.94114e-05
-3.73114e-05
7.90007e-06
-1.71921e-05
1.39872e-05
3.20492e-06
-0.000279035
-0.000186345
0.00046538
-0.000124213
-8.67481e-05
5.78381e-05
-5.57088e-05
-2.1293e-06
0.000285393
-0.000232078
-5.33145e-05
6.41404e-05
0.000184036
-3.15086e-05
-6.34978e-05
0.000123996
2.14263e-05
4.55547e-05
2.15764e-05
1.70915e-05
4.91115e-06
-1.96971e-05
6.87333e-07
-1.49348e-05
-5.79501e-06
0.00010914
-1.14703e-05
-9.76701e-05
0.000171455
-3.38054e-05
-0.00013765
0.000255953
7.16473e-05
-0.000477925
0.000613064
0.0001069
-1.08402e-05
-9.60601e-05
-0.000186727
-4.33057e-05
-3.07656e-05
-9.02913e-06
-3.85273e-05
4.39719e-05
-5.44456e-06
-0.000255609
-5.46453e-05
-6.13783e-05
-1.91386e-05
-5.72446e-05
5.90231e-05
-1.77858e-06
-9.05806e-06
-3.63487e-05
3.64673e-05
8.93947e-06
-0.000109416
5.69384e-05
0.000609369
-0.000556892
-0.000679304
0.000639696
0.000506066
-0.000466458
3.25789e-05
1.29162e-05
-0.000322453
0.000276958
-0.00098773
0.000942183
-1.54897e-05
6.10368e-05
8.07826e-05
-7.34119e-05
2.15702e-06
8.61092e-05
-7.81694e-05
3.90883e-06
2.9216e-05
-7.10726e-05
-0.000167758
0.000209614
4.13442e-05
-7.60573e-05
-0.000120249
0.000154962
1.86471e-05
-3.49131e-05
-0.000145921
0.000162187
-0.000358217
0.000453579
7.49531e-05
-4.22519e-05
1.63915e-05
9.23812e-05
-6.65208e-05
0.000252562
-0.000236348
-4.67599e-05
3.0546e-05
-0.00118481
-7.3346e-06
0.000204419
2.39087e-05
-4.85845e-05
9.91027e-07
2.36848e-05
0.000137879
-5.89702e-05
8.95775e-07
-7.98043e-05
0.000269369
-4.4583e-05
-3.71337e-05
-0.000187652
-0.000258303
-0.00020793
5.38721e-05
0.000412362
-9.35052e-05
5.99325e-05
0.00110675
-0.00107318
-0.000157057
-0.000206859
0.000363916
1.9855e-06
0.000346513
-1.70298e-06
-0.000346795
0.000258075
-1.6424e-05
1.12141e-05
-0.000252866
0.000107696
-8.52108e-05
-0.000228465
0.000205979
3.38489e-05
-1.87496e-05
-1.70083e-05
1.90908e-06
3.05091e-05
-1.99664e-05
-5.02616e-06
-5.51655e-06
1.68041e-05
5.01236e-06
7.16948e-05
-9.35113e-05
-3.88948e-06
8.18601e-05
0.000124316
-0.000202287
5.47987e-05
-7.25358e-05
8.26023e-06
9.47679e-06
4.63101e-05
1.00003e-05
-0.00090301
0.0008467
-5.76457e-05
1.33186e-05
-0.000760851
0.000805178
0.000360423
-0.000367269
3.40725e-05
-2.72257e-05
2.63246e-05
-4.30306e-05
-4.64409e-05
6.31469e-05
-0.000503545
-2.00174e-05
0.00034588
0.000177682
-0.000205934
-6.19263e-05
0.000159208
0.000108652
7.61691e-05
-6.13799e-05
-4.93727e-05
3.45835e-05
0.000224566
0.000800035
-0.000543687
-0.000480915
9.77734e-05
0.000130503
-0.000131949
3.25026e-05
9.64119e-06
5.56297e-05
-8.44072e-06
-1.40437e-05
0.000105813
-5.55927e-05
0.000118365
-0.000228944
0.000166171
0.000359807
-0.000330511
5.08257e-05
1.17983e-05
-0.000105315
9.35171e-05
2.99585e-05
-0.000219734
0.000189776
1.81619e-05
-0.000400478
0.000382316
5.24483e-05
-5.41702e-05
-1.24464e-06
-0.000667722
9.35191e-06
-5.69602e-05
5.48157e-05
-7.20739e-06
0.000208095
-0.000164183
-0.000445529
0.000401617
-0.000212005
-0.000493018
0.000553371
0.000151651
0.00042665
-0.000178791
-0.000336868
8.90083e-05
-0.000322856
0.000495109
-0.000376733
0.00020448
-2.46954e-05
3.32659e-05
-1.76286e-05
-0.000162408
-0.000119569
0.000141128
-0.000341299
-5.80566e-05
0.000200161
0.000199195
-4.92553e-07
8.36841e-05
-2.40894e-06
-5.57935e-07
8.87074e-05
-2.04023e-06
1.55677e-05
4.27233e-05
-3.92933e-05
-1.89978e-05
7.77335e-05
-5.0812e-05
-2.69215e-05
9.00101e-05
-7.24553e-05
-1.75548e-05
0.00029819
-0.000194074
-0.000102924
4.36054e-05
-0.000245384
0.000227452
-2.56735e-05
0.000205898
-0.000119977
-4.67002e-05
4.84732e-06
-1.4178e-05
5.60309e-05
-0.000240395
7.12786e-07
-1.5931e-05
0.000255613
-2.35692e-05
9.08356e-07
-7.50794e-06
3.01688e-05
5.89882e-06
0.000123252
-0.000182762
5.36116e-05
-9.83239e-05
0.000124269
8.16553e-05
1.69039e-05
-0.000904143
0.000927794
-4.05556e-05
1.27286e-05
0.000240077
-0.00014511
9.41654e-05
0.000294943
-5.63759e-05
3.79136e-05
2.05806e-05
-4.3977e-05
-1.45173e-05
-0.000141435
0.000189546
1.12154e-05
-5.93267e-05
-0.000104869
-9.29878e-06
5.46681e-05
5.94999e-05
0.000139503
9.03699e-05
-5.84179e-05
-0.000138897
1.96623e-06
0.000137902
-9.71131e-07
-0.000298126
0.000206077
0.000288586
-0.000218771
0.000148737
0.000247466
-0.000326023
0.000212153
0.000297795
-0.000259297
-1.8471e-05
0.000258738
1.9029e-05
-0.000362254
-6.58014e-05
0.000366516
6.15396e-05
-3.728e-05
0.000318077
-0.000304933
2.41352e-05
-1.14054e-05
0.000228443
-0.000221128
4.09054e-06
-0.000136804
0.000373855
-0.000300172
7.23613e-05
-9.09784e-05
0.000114723
-9.61059e-05
7.93151e-05
-9.00141e-05
0.000106767
-9.6068e-05
0.000149221
-0.000135028
7.77659e-05
-9.19596e-05
0.000285613
-0.000261026
-5.72303e-05
3.26431e-05
-0.000543942
0.000306972
0.000487301
-0.00025033
-0.000129552
0.000526684
-0.000582921
0.00018579
-0.000145846
2.57407e-05
0.000391339
-0.000271234
-0.0001846
0.000108175
0.000333721
-0.000257297
-0.000172825
5.07142e-05
0.000437542
-0.000315432
2.54591e-05
4.74306e-05
-1.8199e-05
-5.46907e-05
7.37164e-05
-0.000123763
0.000191178
-0.000763637
0.000872163
0.000154464
-0.00024381
0.000342971
0.000840331
-0.000981461
0.000365696
0.00053971
0.000111263
-0.000532581
-0.000118392
1.73886e-05
-5.21767e-06
0.000275187
-0.000287358
-0.000110782
-2.08212e-06
-2.85702e-05
0.00028258
-8.48291e-05
-0.00033539
5.6531e-05
-4.11601e-05
0.000254896
-0.000169071
2.98572e-05
-1.19167e-05
-4.89314e-05
8.58246e-05
-7.28157e-05
3.59225e-05
0.000493601
-0.000706078
-0.000466827
5.9951e-07
5.74938e-05
-1.08699e-06
-0.000426686
0.00047245
0.00101152
-0.00105729
0.000809226
-0.000168814
-3.74966e-05
-0.000602915
-3.0583e-05
2.70676e-05
-2.37087e-05
-0.000313248
0.000214412
0.000416249
7.82341e-05
5.40956e-05
-3.11758e-05
7.85987e-06
-0.000168211
0.000185668
-0.000134721
7.41468e-06
-4.64442e-05
0.000173751
-0.000142483
-1.85932e-05
-2.43882e-05
0.000185465
-0.000168696
0.000168577
0.000178581
8.5497e-05
0.000408295
7.42433e-06
-2.69141e-06
-4.72178e-05
4.24848e-05
-2.50567e-05
-2.55032e-05
2.38306e-05
5.36844e-05
-5.13906e-05
-3.62137e-05
3.392e-05
-3.64303e-06
7.68683e-06
0.00010445
1.1729e-05
4.37869e-06
-4.15305e-05
-4.08361e-06
-9.9365e-06
-1.31935e-05
-0.000121168
-8.43483e-05
0.000319094
-0.000317109
-7.31277e-06
-2.92368e-05
-2.52777e-06
-5.3181e-05
-4.8717e-06
-4.6321e-06
0.000110328
-1.89752e-06
-0.000229082
-5.14286e-06
2.38471e-05
5.35896e-06
2.40524e-05
-1.23073e-05
0.000121542
0.000105896
-1.53031e-05
-3.13459e-05
-6.78023e-05
-2.41109e-05
-6.22698e-06
0.00048683
-0.00047071
8.24331e-06
1.14257e-05
-4.2237e-07
-8.11637e-05
-0.000105181
0.000239621
1.6332e-05
6.23057e-05
0.0001514
-2.57436e-05
-2.58491e-05
-3.66461e-05
-1.18049e-06
1.4779e-06
-5.71312e-05
-7.19891e-05
7.54821e-05
0.000371583
-0.000402424
2.66493e-05
4.1915e-06
-2.0375e-05
-9.53387e-05
7.60915e-05
-2.00777e-05
-9.65749e-05
7.73707e-05
-0.000155609
0.000252938
5.31357e-05
-0.000150465
1.22153e-05
7.07647e-05
6.68775e-05
0.000209952
2.50189e-06
4.01544e-05
-0.00014186
0.000167713
-9.42815e-05
6.84277e-05
-4.10619e-05
2.54954e-07
4.00482e-05
7.58739e-07
-0.000336195
-0.000104326
0.000284913
-0.000243698
7.6527e-05
0.000150729
1.64416e-05
-1.46837e-05
-7.82132e-05
3.98614e-05
5.30355e-05
6.41907e-06
-6.17343e-06
-2.66718e-05
-7.9473e-05
0.000180049
-1.89334e-05
-0.000219801
0.000443738
-4.96006e-05
-4.58251e-05
0.000138363
-2.1552e-05
0.000119669
-0.000109134
1.10169e-05
8.79506e-05
-0.000355613
0.00023303
3.46323e-05
-8.78353e-05
-0.000124753
7.07288e-05
-0.00062388
0.00103639
-0.000737821
0.000325308
2.2714e-05
5.47612e-05
1.01105e-06
1.4199e-05
5.69077e-05
9.58023e-06
8.04228e-06
8.25618e-05
2.78112e-05
-0.000232412
0.000210381
-3.08279e-06
-8.1724e-05
-1.83841e-05
7.65972e-05
2.35109e-05
-8.76166e-05
-1.73305e-05
7.67383e-05
2.82088e-05
-4.02454e-06
4.8457e-05
-5.87546e-06
6.32334e-05
8.334e-05
-0.000161885
-2.14947e-06
1.05957e-06
9.27919e-05
-9.1702e-05
-5.60019e-05
6.70279e-05
-0.000111888
0.000100862
0.000217635
0.000169147
0.000125295
0.000515283
8.51612e-05
-0.000494916
-0.000105528
0.000194564
-0.000101759
-0.000177526
0.00011879
0.000150437
0.00011873
0.00112663
0.000116132
-0.00110038
-0.00014239
8.16341e-05
7.85898e-05
0.000136407
-0.00029101
6.88642e-05
0.000265823
-4.36778e-05
-0.000628837
0.000195897
-0.000124072
0.000557012
0.000106148
-0.000323841
0.000176911
4.07812e-05
4.26807e-05
-0.00012181
6.54077e-05
1.37219e-05
-5.46592e-05
0.000149702
1.38579e-05
-0.000108901
-9.89922e-05
0.000329141
1.62e-05
-0.000246348
0.000505039
3.07543e-05
4.02036e-05
-0.000575996
-7.82353e-05
-1.1389e-05
0.000104972
-1.53479e-05
4.78296e-05
0.000269456
-0.000105681
0.000221758
0.000132262
6.05146e-05
2.83942e-05
0.000105868
5.33528e-05
0.000423066
6.42667e-05
0.000236783
3.28681e-06
6.18143e-05
-6.45876e-06
-5.86424e-05
0.00021404
-0.000117785
7.14577e-05
9.30992e-06
1.34041e-05
2.93616e-05
-1.51626e-05
6.421e-05
-5.61677e-05
-5.5926e-05
7.9735e-07
-9.22876e-07
-3.11762e-05
-0.000192036
0.00022566
-2.44747e-06
-6.71371e-05
-0.000306421
0.000368449
5.10912e-06
0.000161062
0.000279467
-0.000279486
0.000961125
3.92946e-05
-0.00101144
1.10207e-05
-0.000237072
0.000305241
0.000230021
0.000102629
-0.000239814
-0.000102789
0.000239974
0.000277362
-0.000122793
0.000205827
-0.00022681
9.28126e-06
-7.32021e-07
5.48553e-06
1.32977e-05
3.47861e-05
-0.00094014
0.000907371
-0.000393917
9.65379e-06
8.63656e-06
3.19386e-06
4.65115e-05
-8.9424e-07
-4.88111e-05
-8.71192e-06
0.000198853
-1.05096e-06
-0.000189091
-3.58463e-05
0.000336427
3.61838e-06
-0.000304199
-1.49628e-05
1.88552e-05
-4.50073e-05
4.11149e-05
0.000265181
0.000306273
-0.000430781
-0.000140674
0.000891127
-0.000884879
0.00023649
-0.000242738
-4.42747e-05
0.000363369
-0.000167822
0.000215154
-8.29968e-05
3.56645e-05
-0.000251383
3.42762e-05
0.000144684
7.2423e-05
-0.000340683
0.000382208
-0.000123507
8.19828e-05
0.00028736
2.923e-06
-4.36554e-06
-0.000285918
4.30036e-06
4.47007e-05
-3.34333e-05
0.000135178
1.44515e-05
-8.63964e-06
-0.00014099
-7.9453e-05
2.95505e-05
8.84254e-05
-3.85229e-05
-0.000274718
-4.89582e-05
1.39926e-05
0.000309683
-0.000201297
-3.45681e-05
1.1874e-05
0.000223991
-0.000392611
0.000177337
0.000355927
-0.000140653
-0.000175765
0.000115123
0.000143527
-8.28855e-05
-0.000671326
-0.000102
0.000648701
0.000124625
-0.000155939
0.000119741
2.21536e-05
0.000615506
9.8937e-05
-4.19369e-05
-7.18984e-05
-4.36071e-06
9.70285e-06
-0.0010564
-0.000133548
0.00102978
0.000160167
0.000369829
0.000522698
-0.000441382
-0.000451145
0.000110489
-6.60498e-05
-1.91677e-05
-2.52714e-05
-3.04237e-05
9.34282e-05
-0.000412554
0.000349549
4.84569e-05
-4.41565e-05
-9.19537e-05
5.10733e-05
-0.000679081
0.000719961
0.000134163
-9.80037e-05
7.91333e-07
-3.69504e-05
-0.000272584
0.000269228
-9.08864e-06
1.24444e-05
0.000219047
-0.000318219
0.000319846
-0.000220674
-2.32786e-05
5.82916e-05
-8.39443e-05
0.000983187
-0.000876216
0.000114795
-0.000221766
-0.000285273
-0.000304035
0.000302263
8.33137e-05
0.000160396
-0.000167132
-7.6577e-05
-0.00020785
-6.16893e-05
9.37743e-05
-0.000878829
0.000325868
-0.000118365
-0.000402397
-6.64378e-05
7.62239e-05
0.000268822
-0.000252878
-0.000131818
0.000115875
-1.14548e-05
-0.000266983
0.000267084
1.13545e-05
-5.17396e-05
6.47284e-06
4.32835e-05
-8.82991e-05
8.2447e-05
0.000931846
1.56259e-05
-5.2893e-06
-6.42728e-06
1.4094e-05
-6.53877e-05
5.77209e-05
-0.000111784
0.000598614
0.000257707
-0.000432155
0.000328913
0.000131016
-0.000248117
0.000190817
-0.000331248
9.76894e-05
5.87877e-05
-0.000275568
-0.000224375
0.000387653
5.76506e-05
0.000101034
-0.000661528
-6.83423e-05
0.000126881
-0.000110493
-5.98876e-05
-0.000150367
0.000113105
-0.000101933
-0.000112286
0.000126384
6.57053e-07
-1.66349e-06
-4.83013e-05
4.93077e-05
-0.000338791
-3.97273e-05
8.7509e-05
0.000503852
-0.000511068
-7.65748e-05
8.37907e-05
-4.83072e-05
-0.000882737
4.69521e-06
0.000926349
-0.000113327
-0.000965659
0.000975536
0.000103451
3.42272e-05
-3.11663e-05
-2.81176e-05
-0.000229104
-0.000404857
0.000396889
8.80365e-05
0.00013024
-0.000113799
-0.000104477
0.000239284
0.000256907
-0.0002836
-0.00021259
-0.000403319
-0.000150897
-0.000116409
-1.29729e-05
-2.18729e-06
0.000131569
4.60768e-05
-1.52399e-06
-4.70005e-05
2.44775e-06
-0.000107055
2.5026e-05
-2.61775e-05
-7.07982e-05
-1.38065e-05
-0.000263091
0.000168596
0.000182446
6.86358e-05
-5.49088e-05
-2.76957e-05
1.39688e-05
3.33495e-06
5.25421e-05
-5.68545e-05
9.77528e-07
2.53228e-06
0.000331478
-4.22077e-08
-0.000333968
-5.44161e-06
0.00018394
3.29702e-06
-0.000181795
5.72103e-06
4.77106e-05
1.52041e-05
7.00157e-05
-0.000955178
0.000950492
-6.53295e-05
0.000250045
-0.00138989
1.29037e-05
0.00112694
0.000321345
8.09108e-05
-8.57923e-05
-0.000316464
0.000121999
2.81006e-05
-3.16897e-05
-0.00011841
0.000493417
-0.00026102
0.0001509
0.000299532
-0.000160831
-0.000275505
4.88218e-05
-7.35321e-05
-1.7248e-05
4.19583e-05
-0.000214954
0.000195398
5.53263e-05
-3.577e-05
-0.000483317
0.000487187
0.000140823
-0.000144693
-0.000273602
0.000217988
0.000122033
-6.64192e-05
0.000136421
-4.4267e-05
7.38981e-05
-0.000166052
0.000319357
-8.60816e-05
0.000148729
-0.000382004
0.000504218
0.00017078
-4.43109e-05
-0.000630687
1.745e-07
-5.56664e-05
5.54919e-05
0.000282111
-0.00108846
-9.79939e-05
0.000103225
0.000112155
-0.000117387
-6.81973e-05
-0.000286746
1.87484e-05
0.000117726
-7.57853e-05
2.19318e-05
-6.38723e-05
0.00103734
-0.0014578
0.000180476
0.000239984
0.000359187
-1.36499e-05
2.14767e-05
-0.000367014
1.7456e-05
2.45919e-07
-8.96004e-05
5.97392e-05
3.73798e-05
-0.000494748
0.000397629
-9.28934e-05
-0.000218336
0.000323308
-1.20789e-05
0.000106572
0.000183159
-0.000280969
-8.76244e-06
-4.26278e-05
-0.000132997
0.000191344
-1.57191e-05
0.000512393
-0.000354225
4.94165e-05
-1.41299e-05
1.83978e-05
9.01305e-06
-4.07913e-05
3.92026e-05
0.000703803
-0.00045501
0.000141912
-0.000390705
-5.16658e-05
0.000402259
5.60214e-05
-5.68191e-05
5.75931e-05
-4.36485e-05
-0.000293853
4.51483e-05
0.000292353
0.000380172
2.81732e-05
-0.000320458
-8.78875e-05
1.04799e-05
-1.91353e-05
-0.000132917
0.000141573
-0.000108666
-0.000155332
0.000550437
0.000144605
-4.60637e-05
0.000279513
5.86858e-05
-0.000292135
0.000110849
0.000177438
-9.48643e-05
8.18446e-05
0.000517238
6.83341e-05
-4.21256e-05
0.000293148
3.40554e-05
-2.05905e-05
0.000122956
0.000199926
-0.000299337
0.00021367
-0.000114259
0.00119605
-0.0011714
-0.000307454
-3.71014e-05
-0.000275578
7.19633e-05
0.00024722
0.000225214
-0.000232032
6.5908e-06
0.000253186
-0.000175966
0.000435173
-6.82128e-05
-0.00010508
8.14864e-05
1.21917e-05
-2.08467e-05
-3.8261e-05
4.6916e-05
-0.000290285
-0.000707916
0.000407754
0.000590447
0.000200476
-0.000244124
7.53483e-06
-4.45843e-05
4.0724e-05
-3.67452e-06
0.000551946
0.000103975
-4.04141e-05
-0.000123217
6.86555e-05
-0.000112676
0.000101271
-0.000147507
0.000110227
-0.000214323
8.47711e-05
-0.0009445
0.00095694
0.000132464
-0.000144904
0.000142793
0.000720454
-0.000274566
-0.000224281
-0.000268936
-0.000134434
-0.000259308
-0.000184664
0.000135061
-0.000248344
-1.65869e-05
0.00012987
-0.0004069
0.000139996
-2.901e-05
0.000295914
-4.8364e-05
6.89432e-05
-8.87005e-05
6.81213e-05
-1.4607e-05
-5.96364e-05
-0.0009467
0.00102094
-2.98239e-05
5.62671e-05
0.0005247
0.000137398
-0.000580728
-8.13696e-05
5.58313e-07
-1.10489e-06
-5.53794e-05
0.00029258
-0.000289215
6.0902e-05
0.000475936
-0.000490698
6.8115e-05
0.000128822
-0.000130806
3.03783e-05
6.69223e-07
4.56992e-05
-2.91671e-07
-0.000275104
-2.68055e-05
0.000255846
4.9119e-05
-2.5296e-05
1.83451e-05
-4.21681e-05
0.000179597
-0.000153626
1.7162e-06
-2.7687e-05
0.00032893
-0.000281602
-9.69301e-06
-3.76348e-05
8.04538e-06
0.000304571
-0.000267015
-4.56011e-05
-1.27122e-05
6.39308e-06
-9.50682e-05
0.000101387
-0.00097238
-0.000635547
0.00103785
0.000570072
2.8829e-05
-4.20164e-05
-3.5721e-05
4.89084e-05
-6.94484e-05
9.37835e-05
7.10005e-05
-9.53355e-05
2.48453e-05
-3.14543e-05
-2.71894e-05
3.37985e-05
0.000102945
-3.23747e-05
0.000481375
0.000296881
-0.000425951
0.000194892
0.000157837
-0.000237019
0.000119025
1.95556e-05
4.86268e-05
-3.30258e-06
8.93106e-06
-9.8255e-05
9.26265e-05
0.000418404
-5.53693e-05
0.000163649
2.57351e-05
-1.02947e-05
5.48239e-06
-0.000190201
-0.000182446
0.000104733
0.000267915
0.000327109
0.000773839
-0.000578251
-0.000359256
-0.000315851
0.000463102
0.000510906
-0.000489307
-8.90902e-06
-1.26896e-05
-0.000639762
0.000460968
0.000374692
3.67326e-05
-9.61237e-06
1.59286e-05
8.92012e-06
3.80166e-07
4.68688e-06
-1.4735e-05
3.63665e-05
9.65017e-05
-0.000110745
1.42437e-05
-0.000168098
0.000114765
-0.000564679
0.000618012
-7.51134e-05
-1.5864e-05
5.42842e-06
8.5549e-05
9.60436e-05
8.50719e-05
-8.17792e-05
-9.93363e-05
-0.000105649
1.3615e-05
0.000147814
-5.57798e-05
0.000110349
-8.14898e-05
-0.000153002
-9.74631e-06
-5.39917e-06
-2.15007e-05
0.000134995
-0.00010085
6.18987e-05
8.31032e-05
-0.000247066
-5.09911e-05
-0.000121055
0.000118556
0.000171071
-0.000168573
0.000253894
-0.00019829
1.2965e-05
-6.85689e-05
6.0018e-05
-2.059e-05
3.67411e-05
5.60956e-05
2.89673e-07
-5.5588e-05
-2.33827e-06
-0.000239949
0.000303772
-6.14851e-05
5.1121e-06
-0.000118931
0.000154854
-4.1035e-05
6.16323e-05
2.34396e-05
0.00020791
-0.00011138
0.000224815
7.67819e-05
-4.70369e-05
9.22539e-05
-7.21744e-05
0.000267519
7.34768e-05
-0.000524669
-0.000333198
0.000640018
0.000217849
0.000813067
-0.00102636
0.000346188
-0.000132897
-2.40066e-05
0.000279468
-0.000264787
9.32556e-06
-8.51823e-05
0.00027032
-0.000316301
0.000131163
4.85031e-05
-1.70669e-05
-8.86222e-05
5.7186e-05
-0.00049004
0.000427654
-9.55459e-05
0.000157931
6.08234e-05
-4.93466e-05
-2.69947e-05
1.5518e-05
-3.94e-05
0.000469017
-0.000455679
2.6062e-05
-0.00031352
2.65115e-05
7.18399e-06
-0.000220263
0.00022309
-1.0011e-05
6.47159e-05
-0.000303314
0.000305402
-6.68038e-05
-0.00013898
-0.00055201
0.00069099
-5.11546e-05
-2.54472e-05
-0.000111185
0.000187787
1.95577e-05
-1.97921e-05
1.28859e-05
-1.26516e-05
-0.000193375
0.000237048
-2.67823e-05
-1.68902e-05
-0.000459197
-0.000201476
0.000177357
-8.8834e-05
0.000123481
-0.000132641
-1.03225e-05
-1.2217e-05
1.2534e-05
1.00056e-05
-5.14203e-05
-3.93665e-05
4.37863e-05
4.70005e-05
-2.30254e-05
4.43982e-06
0.000291671
-0.000273086
0.00105854
-0.00106287
-9.90529e-05
0.000103382
-8.80139e-05
-1.21005e-05
-0.000146287
5.31757e-05
9.31113e-05
0.000196993
0.000134017
-0.000184374
-0.000146635
-7.99316e-05
-8.03803e-05
7.31297e-05
8.71821e-05
-5.00053e-05
8.40875e-05
-0.000286961
-2.76204e-06
3.43802e-05
-0.000434016
-9.46526e-06
-0.000222821
-0.000646542
5.11042e-05
-1.89573e-05
-0.000239997
0.000328908
-5.56135e-07
-1.02749e-05
0.000229741
2.67332e-05
-2.80306e-05
-0.000252925
-4.9363e-05
4.29919e-05
-0.000309886
-0.00010408
5.17108e-05
-0.00013529
-3.09393e-05
2.73318e-05
-0.000440063
-7.07301e-05
0.000143524
0.000527173
4.26023e-05
-5.44924e-05
-0.000123052
-0.00105566
0.0010852
-2.65984e-05
-4.76655e-05
0.000151997
-2.54171e-05
-3.88868e-05
0.000154314
0.000354146
-9.34101e-05
-0.000296582
0.000216029
-3.35958e-05
-0.000191145
-1.90857e-05
1.12903e-05
3.15285e-05
-2.3733e-05
9.67469e-05
0.000524688
-0.000110529
-1.15767e-05
5.95557e-05
-0.000355442
0.000307463
1.83503e-05
1.18544e-05
-0.000156823
0.000126618
-1.85204e-05
1.97617e-05
3.5226e-05
-0.000174638
7.34808e-05
0.000315198
-7.98147e-07
3.62497e-05
2.5454e-06
-3.7997e-05
0.000374673
-0.000233805
0.00026732
-0.000408188
-0.000289406
-9.13545e-05
6.724e-05
-0.00010114
9.33381e-06
9.96663e-05
-0.000108946
-0.000104389
0.000111402
0.000164412
1.83231e-05
6.81052e-06
4.16077e-06
-6.9594e-05
7.78264e-05
-1.23931e-05
-0.000315643
1.66592e-05
0.000312417
-1.34328e-05
9.67384e-05
0.000116831
-0.000198188
-1.5382e-05
0.000188405
-0.000479445
-0.00023363
0.000150788
0.000159253
-0.000277566
-3.24748e-05
-0.00035069
0.000284836
8.10318e-05
-1.51775e-05
0.00022497
-8.55468e-05
-0.000413025
4.12859e-05
-3.27114e-05
-1.83209e-05
0.00019565
2.63214e-05
-0.000170867
0.000290659
-6.8694e-05
-0.000224727
0.000902916
-2.52909e-05
-0.000768041
-0.000109584
-0.000166635
-5.48357e-05
-2.44371e-05
-1.85935e-05
1.25736e-07
-5.57922e-05
-5.09691e-05
0.000452267
9.38108e-05
-8.94738e-05
0.00012935
0.00016005
-6.77091e-05
-2.46074e-08
1.17583e-05
5.59754e-05
0.000152276
-0.000158642
0.000173215
-0.000166849
-1.85786e-05
0.000272224
1.71385e-05
-0.000270784
0.000164289
-0.000129342
-0.000135797
0.000100849
-8.96276e-05
-7.07096e-06
3.61113e-05
6.05873e-05
-0.000439623
0.000429624
4.73788e-05
-0.000281667
0.000177109
-0.000367134
0.000243204
-8.85549e-05
-7.78111e-05
6.52257e-05
8.23696e-05
-2.64421e-05
0.00085305
-0.00101579
-0.000259272
0.000422009
-0.000176122
-0.000982934
0.00116795
-8.88849e-06
-0.0010637
0.00110571
-0.000165067
-0.000161362
0.000157342
0.000115825
-0.000111805
-0.000288869
0.000292058
2.23097e-05
-2.54982e-05
-5.92602e-05
1.9796e-05
-2.19156e-05
-0.000484569
0.000583053
-0.000431682
8.13561e-05
-1.15748e-05
-0.000166343
-7.13664e-05
0.000131182
0.000106527
-9.35662e-05
0.0001044
-3.8599e-05
3.37019e-05
0.00053207
-0.000512225
0.000455096
-0.000179927