/*--------------------------------*- C++ -*----------------------------------*\
| =========                 |                                                 |
| \\      /  F ield         | OpenFOAM: The Open Source CFD Toolbox           |
|  \\    /   O peration     | Version:  v1912                                 |
|   \\  /    A nd           | Website:  www.openfoam.com                      |
|    \\/     M anipulation  |                                                 |
\*---------------------------------------------------------------------------*/
FoamFile
{
    version     2.0;
    format      ascii;
    class       volScalarField;
    location    "0.06";
    object      k;
}
// * * * * * * * * * * * * * * * * * * * * * * * * * * * * * * * * * * * * * //

dimensions      [0 2 -2 0 0 0 0];


internalField   nonuniform List<scalar> 
1466
(
0.128971
0.180856
0.122853
0.124104
0.16791
0.166648
0.335973
0.166399
0.132315
0.159884
0.105839
0.195535
0.058105
0.122062
0.116383
0.101678
0.0725657
0.161918
0.266021
0.107994
0.116439
0.16443
0.12289
0.169372
0.128507
0.126318
0.16815
0.135767
0.128895
0.136107
0.167909
0.172429
0.155974
0.180603
0.203343
0.117901
0.114243
0.112017
0.236145
0.140177
0.191868
0.132803
0.139884
0.15527
0.145166
0.14456
0.116494
0.149292
0.132551
0.11652
0.121641
0.141838
0.138733
0.131086
0.135802
0.129512
0.100707
0.158326
0.120015
0.127126
0.103023
0.130825
0.14837
0.145462
0.178494
0.117436
0.135203
0.116391
0.125875
0.155187
0.117803
0.123838
0.105138
0.122748
0.0734464
0.165569
0.122046
0.139959
0.189641
0.123119
0.112788
0.125781
0.116196
0.132093
0.110324
0.116884
0.110923
0.187355
0.13754
0.153413
0.12062
0.0908539
0.12035
0.123877
0.121758
0.111943
0.18322
0.1238
0.163737
0.119816
0.15539
0.141208
0.131764
0.191614
0.116131
0.141575
0.116407
0.116249
0.146826
0.125967
0.115647
0.114937
0.116276
0.114067
0.0658363
0.126869
0.0942266
0.105715
0.152367
0.135871
0.111409
0.139232
0.0946502
0.22906
0.144547
0.129723
0.112716
0.169893
0.121458
0.122704
0.132998
0.124784
0.20732
0.149154
0.117051
0.120542
0.13381
0.115719
0.135843
0.124072
0.148851
0.0897446
0.12477
0.122709
0.139336
0.117038
0.233867
0.158467
0.146562
0.107395
0.123373
0.117912
0.15939
0.177617
0.123887
0.134065
0.1294
0.212166
0.155815
0.155101
0.14087
0.117942
0.192142
0.111622
0.139867
0.119708
0.123886
0.177521
0.116377
0.18852
0.11375
0.117153
0.115029
0.136825
0.141162
0.18849
0.137727
0.123045
0.117027
0.120874
0.143509
0.11705
0.136331
0.130602
0.205364
0.112527
0.117163
0.145473
0.117445
0.17457
0.224006
0.115412
0.118684
0.1834
0.116837
0.127607
0.132459
0.12074
0.123508
0.129053
0.1713
0.130152
0.116244
0.118435
0.121146
0.133861
0.117118
0.154324
0.118897
0.0956525
0.116079
0.209267
0.141211
0.117574
0.156014
0.117248
0.170479
0.0886218
0.105827
0.120698
0.242006
0.13767
0.110078
0.116848
0.128003
0.117315
0.127451
0.113251
0.111842
0.126787
0.118646
0.185805
0.143125
0.125752
0.116193
0.123155
0.12723
0.160148
0.131
0.129739
0.129185
0.136048
0.093086
0.134924
0.136417
0.0885991
0.102479
0.0889843
0.0895619
0.0883039
0.129089
0.123472
0.133239
0.205264
0.153006
0.125837
0.126369
0.123146
0.131973
0.165574
0.118305
0.116663
0.136313
0.160691
0.195062
0.108405
0.136614
0.135455
0.122573
0.121093
0.151934
0.144206
0.11953
0.126056
0.115471
0.127579
0.290525
0.161337
0.166773
0.13506
0.122527
0.0891955
0.088503
0.104797
0.117725
0.118011
0.159749
0.098554
0.170493
0.119445
0.117704
0.138739
0.152097
0.178727
0.134136
0.144861
0.186328
0.12325
0.151136
0.102826
0.158544
0.197938
0.101362
0.152443
0.112685
0.133785
0.202886
0.130045
0.0693811
0.124661
0.123367
0.117842
0.129677
0.188769
0.133041
0.123109
0.139206
0.121972
0.146367
0.108427
0.117319
0.121311
0.138493
0.087187
0.124942
0.0905648
0.0884322
0.0973787
0.095789
0.0976336
0.0834459
0.083191
0.0911924
0.100113
0.100883
0.0834487
0.0918224
0.11014
0.0893885
0.096714
0.0927895
0.0943119
0.0933103
0.0871161
0.099124
0.0996372
0.0939233
0.0963525
0.155192
0.166763
0.133131
0.119367
0.133389
0.127934
0.128174
0.130494
0.185034
0.207326
0.131819
0.156397
0.171816
0.124934
0.119723
0.104299
0.130622
0.102735
0.0869168
0.0934904
0.0995154
0.0986119
0.097426
0.0957362
0.0930175
0.0817662
0.0896674
0.087315
0.0901792
0.150017
0.116427
0.0875205
0.116861
0.168791
0.137109
0.113907
0.142283
0.167219
0.101954
0.121629
0.127943
0.12885
0.138705
0.122769
0.125145
0.124482
0.0705211
0.120839
0.120727
0.117344
0.115789
0.0961147
0.103473
0.114686
0.124261
0.120833
0.166889
0.117412
0.123356
0.138641
0.117221
0.11933
0.118646
0.13452
0.0887204
0.141045
0.122574
0.131104
0.124907
0.123267
0.147676
0.138739
0.124769
0.115407
0.184102
0.179977
0.194164
0.193073
0.169894
0.178081
0.171757
0.164968
0.122335
0.119272
0.126507
0.19335
0.209815
0.152708
0.129211
0.15786
0.180648
0.143876
0.183058
0.142459
0.247372
0.162426
0.145228
0.130922
0.129306
0.126067
0.129783
0.126729
0.128255
0.125227
0.172054
0.125218
0.138457
0.20096
0.127144
0.129294
0.144036
0.132944
0.140167
0.127891
0.12715
0.127779
0.221597
0.116983
0.149599
0.118141
0.119271
0.10268
0.18643
0.170812
0.132562
0.171916
0.183239
0.167633
0.11002
0.0938678
0.206432
0.219092
0.118153
0.117626
0.198769
0.117389
0.178423
0.118533
0.117348
0.11823
0.175063
0.144019
0.165879
0.120298
0.117654
0.117639
0.135293
0.198407
0.18462
0.152451
0.112197
0.147695
0.124015
0.117741
0.129429
0.134946
0.117594
0.124352
0.151676
0.144954
0.122834
0.146194
0.126589
0.165612
0.132784
0.142668
0.190023
0.134453
0.125234
0.118392
0.126936
0.130534
0.129756
0.122831
0.212855
0.196621
0.182086
0.129607
0.204952
0.238526
0.100618
0.117475
0.116805
0.119837
0.133632
0.12698
0.159728
0.1796
0.150315
0.182889
0.116651
0.147714
0.181069
0.137922
0.13134
0.152825
0.134332
0.208194
0.0889422
0.121653
0.12908
0.135242
0.118952
0.112381
0.150293
0.123369
0.1201
0.130096
0.123036
0.119532
0.126153
0.139393
0.111063
0.154027
0.120871
0.121357
0.158353
0.126921
0.117242
0.123545
0.128332
0.122429
0.0968017
0.178076
0.124627
0.148826
0.145139
0.120878
0.16298
0.117888
0.129257
0.121585
0.146319
0.0977819
0.12566
0.121343
0.115768
0.125655
0.150457
0.121741
0.124378
0.130241
0.197943
0.104446
0.152238
0.135368
0.137358
0.120533
0.130278
0.123952
0.123317
0.120956
0.126652
0.155669
0.122319
0.172128
0.120516
0.162518
0.126477
0.11833
0.121534
0.122672
0.121912
0.1639
0.131739
0.152006
0.100876
0.118645
0.120955
0.1097
0.188929
0.19768
0.142075
0.117197
0.183108
0.13294
0.127758
0.12137
0.124519
0.11804
0.117233
0.134348
0.13024
0.121981
0.136694
0.132184
0.124759
0.124293
0.121428
0.136848
0.156418
0.125735
0.117257
0.178155
0.0998862
0.162265
0.11767
0.147258
0.154103
0.152952
0.130977
0.117305
0.105294
0.127516
0.128542
0.13622
0.158487
0.140474
0.13624
0.131844
0.117436
0.141599
0.100333
0.129552
0.150855
0.165258
0.133246
0.140893
0.121728
0.13372
0.128162
0.135793
0.117772
0.122303
0.110719
0.157321
0.157081
0.0941435
0.153241
0.131446
0.135569
0.132902
0.183114
0.144843
0.0791677
0.168267
0.129956
0.113495
0.149449
0.122971
0.109191
0.185441
0.12657
0.118561
0.18146
0.152388
0.197318
0.12296
0.134948
0.123341
0.140137
0.126114
0.128045
0.182508
0.131078
0.151912
0.128848
0.138573
0.124859
0.134556
0.12602
0.174482
0.134766
0.0982828
0.125568
0.179998
0.129895
0.136627
0.131109
0.122984
0.120198
0.174674
0.125401
0.126222
0.118848
0.122215
0.120696
0.118195
0.125285
0.126718
0.201925
0.132864
0.122577
0.171297
0.132617
0.0882483
0.086672
0.122414
0.0900546
0.0851994
0.11897
0.129741
0.10892
0.0923322
0.082099
0.0908336
0.144507
0.149449
0.0663169
0.19384
0.216431
0.142345
0.137412
0.108939
0.113414
0.127621
0.121932
0.172538
0.127993
0.124822
0.149722
0.118306
0.103047
0.211514
0.138007
0.270941
0.15114
0.132424
0.167534
0.1062
0.152193
0.13859
0.148435
0.290007
0.141771
0.0868244
0.132137
0.142864
0.116269
0.137777
0.108407
0.212395
0.187331
0.163469
0.0656495
0.0693783
0.127145
0.131436
0.121666
0.112498
0.153484
0.0999488
0.131817
0.148457
0.225353
0.130447
0.261576
0.161163
0.203497
0.111391
0.178527
0.0966885
0.152476
0.122599
0.118537
0.125937
0.163342
0.107754
0.137791
0.112415
0.126939
0.148817
0.147241
0.0970919
0.111281
0.146049
0.112675
0.168116
0.124398
0.102992
0.213213
0.147638
0.157533
0.140442
0.12324
0.127647
0.0671042
0.0667829
0.152317
0.119002
0.113955
0.117047
0.123709
0.134859
0.127711
0.105047
0.11378
0.112811
0.165402
0.13236
0.115817
0.147955
0.110322
0.125031
0.160617
0.122157
0.108379
0.13008
0.133218
0.137744
0.120386
0.129151
0.147587
0.140851
0.121179
0.146493
0.0707108
0.117714
0.150827
0.0911779
0.141825
0.10024
0.144049
0.106329
0.179924
0.181824
0.123794
0.174183
0.123163
0.11138
0.128166
0.120835
0.11586
0.0910765
0.158254
0.150319
0.141004
0.117596
0.135862
0.190053
0.177635
0.121967
0.134029
0.129822
0.140418
0.116594
0.125747
0.134006
0.189485
0.149475
0.120949
0.19076
0.14406
0.117376
0.108209
0.083999
0.117365
0.170656
0.121725
0.130357
0.186416
0.129377
0.139046
0.117238
0.142062
0.158824
0.131161
0.0787607
0.117267
0.111218
0.146551
0.17021
0.125378
0.115619
0.129185
0.0697866
0.132489
0.0724686
0.18309
0.132037
0.179138
0.119218
0.206611
0.154298
0.123828
0.202356
0.135708
0.114091
0.117229
0.153953
0.129651
0.165695
0.144772
0.191443
0.130281
0.12012
0.0851866
0.127759
0.117211
0.126046
0.117059
0.080729
0.0799736
0.0789723
0.0790749
0.128349
0.129858
0.125191
0.121558
0.0811271
0.122361
0.126504
0.0810848
0.0808495
0.07992
0.14038
0.077983
0.0752936
0.183685
0.0952244
0.18528
0.0690295
0.129186
0.149799
0.147087
0.115325
0.123085
0.105416
0.134648
0.124448
0.120314
0.11787
0.123195
0.124125
0.0989148
0.116961
0.137051
0.118942
0.118863
0.146929
0.130209
0.109115
0.141251
0.157806
0.161455
0.122602
0.117179
0.128887
0.168135
0.113851
0.113784
0.141807
0.164023
0.152591
0.126309
0.130236
0.152046
0.117262
0.104074
0.125022
0.124282
0.147011
0.128194
0.129314
0.187954
0.117399
0.160222
0.114641
0.109711
0.154013
0.124726
0.127542
0.116574
0.106179
0.107499
0.126928
0.121165
0.127496
0.116688
0.128609
0.123681
0.143504
0.11253
0.122731
0.171039
0.162367
0.155644
0.13851
0.218165
0.130913
0.182024
0.233509
0.117181
0.189683
0.122767
0.118523
0.0914078
0.13536
0.171265
0.0849806
0.133432
0.27698
0.266399
0.080071
0.118027
0.119185
0.129792
0.130236
0.177585
0.0671143
0.132865
0.116264
0.121657
0.111046
0.11789
0.124654
0.0976814
0.142757
0.15524
0.116705
0.11874
0.209784
0.156125
0.125728
0.125009
0.0702376
0.11653
0.116813
0.0988189
0.123576
0.131902
0.167755
0.121698
0.124846
0.114773
0.116211
0.131007
0.137845
0.135584
0.158622
0.151909
0.133852
0.184082
0.0740839
0.116175
0.166749
0.209806
0.165939
0.139471
0.168541
0.147465
0.120988
0.171271
0.15608
0.107233
0.123871
0.156797
0.102923
0.16054
0.153119
0.196895
0.111616
0.106351
0.120533
0.115188
0.122547
0.129939
0.105314
0.0686714
0.112059
0.130274
0.114238
0.152957
0.130423
0.120857
0.135545
0.179972
0.106237
0.104285
0.186115
0.11294
0.129036
0.0703365
0.0937336
0.12312
0.130371
0.0670207
0.10011
0.100582
0.112213
0.127513
0.197717
0.118293
0.139671
0.120633
0.121828
0.109343
0.11573
0.135407
0.106975
0.134124
0.118957
0.109742
0.122308
0.150911
0.111643
0.118972
0.16285
0.0677995
0.163169
0.127998
0.0828877
0.133522
0.0929852
0.10197
0.100971
0.069191
0.134843
0.0733594
0.134804
0.213309
0.1147
0.141228
0.120591
0.124556
0.126442
0.126022
0.176876
0.137954
0.102723
0.124193
0.114176
0.105447
0.114305
0.124742
0.118454
0.104603
0.182313
0.20066
0.151948
0.103047
0.139821
0.0867209
0.13554
0.142957
0.103181
0.0675634
0.100584
0.153458
0.175403
0.121359
0.170138
0.117702
0.122215
0.1208
0.106751
0.12007
0.125117
0.123051
0.120128
0.0993852
0.178786
0.122351
0.131024
0.150759
0.117926
0.146797
0.201989
0.104261
0.123191
0.121106
0.134579
0.12663
0.11679
0.116845
0.148016
0.125132
0.112009
0.137088
0.121597
0.146344
0.18042
0.201832
0.225028
0.168259
0.125707
0.119296
0.123658
0.106626
0.123199
0.123469
0.13031
0.116632
0.117366
0.0939727
0.260472
0.103268
0.128667
0.11678
0.183208
0.120859
0.0974975
0.18277
0.123447
0.120867
0.123966
0.120501
0.123551
0.149177
0.184664
0.125147
0.128964
0.182979
0.228092
0.151207
0.183268
0.123467
0.117
0.146065
0.22414
0.124561
0.125414
0.143204
0.113346
0.112818
0.134193
0.162396
0.117149
0.118122
0.161941
0.133674
0.081037
0.101059
0.120741
0.183647
0.0994627
0.123482
0.123435
0.123554
0.118151
0.113774
0.114585
0.118669
0.207384
0.159406
0.233607
0.120909
0.185314
0.157111
0.140362
0.140428
0.137065
0.129551
0.123802
0.123265
0.111675
0.121026
0.125404
0.140262
0.0673317
0.129836
0.202818
0.121309
0.180605
0.0853292
0.167485
0.125557
0.194532
0.17617
0.193915
0.0738938
0.154496
0.166272
0.185671
0.173069
0.104825
0.119434
0.125821
0.141604
0.204032
0.133029
0.120834
0.122995
0.141242
0.187215
0.110108
0.189162
0.131681
0.186471
0.298583
0.159068
0.255162
0.165056
0.121481
0.112286
0.112588
0.18435
0.0949476
0.140713
0.110637
0.1245
0.122789
0.158158
0.171535
0.104041
0.110585
0.111821
0.0671097
0.124507
0.11239
0.113751
0.148615
0.121743
0.10291
0.1258
0.10923
0.113381
0.221954
0.13873
0.163536
0.117602
0.13061
0.11256
0.112162
0.108948
0.117124
0.105597
0.157391
0.11828
0.13335
0.134895
0.0675449
0.118009
0.122358
0.117259
0.117817
0.06748
0.127027
0.0691703
0.120696
0.13401
0.231956
0.104808
0.118943
0.127446
0.115969
0.153266
0.099409
0.118981
0.1356
0.124586
0.128977
0.0940592
0.181971
0.169873
0.211145
0.117906
0.0910472
0.158818
0.225625
0.165588
0.10864
0.177374
0.129418
0.123045
0.116166
0.116263
0.167526
0.0963195
0.14466
0.119509
0.125142
0.0994672
0.114851
0.143019
0.117737
0.179573
0.110654
0.111525
0.155355
0.123061
0.122828
0.154821
0.157267
0.2073
0.125874
0.0899961
0.174451
0.173003
0.100166
0.153764
0.203135
0.179597
0.137218
0.11959
0.103078
0.18769
0.143937
0.221337
0.108888
0.193154
0.240438
0.175705
0.124037
0.101095
0.177246
0.17134
0.117566
0.0985273
0.129531
0.105559
0.148949
0.241119
0.0923476
0.133197
0.121929
0.122502
0.119292
0.131844
0.123778
0.110843
0.188089
0.124611
0.167141
0.15764
0.153342
0.145762
0.150277
)
;

boundaryField
{
    frontAndBack
    {
        type            empty;
    }
    wallOuter
    {
        type            kqRWallFunction;
        value           nonuniform List<scalar> 
102
(
0.058105
0.058105
0.12289
0.0734464
0.0658363
0.0693811
0.0705211
0.0791677
0.0882483
0.086672
0.0900546
0.0851994
0.0923322
0.082099
0.0908336
0.144507
0.0663169
0.108939
0.103047
0.1062
0.0868244
0.0656495
0.0693783
0.0966885
0.152476
0.0671042
0.0667829
0.0707108
0.10024
0.0697866
0.0724686
0.080729
0.0799736
0.0789723
0.0790749
0.128349
0.129858
0.125191
0.121558
0.0811271
0.122361
0.126504
0.0810848
0.0808495
0.07992
0.077983
0.0752936
0.0690295
0.129186
0.123195
0.0989148
0.118942
0.130209
0.126309
0.130236
0.104074
0.128194
0.129314
0.106179
0.107499
0.118523
0.0849806
0.080071
0.0671143
0.0976814
0.0702376
0.124846
0.0740839
0.116175
0.102923
0.106351
0.120533
0.0686714
0.112059
0.114238
0.106237
0.0703365
0.0670207
0.127513
0.106975
0.109742
0.0677995
0.069191
0.0733594
0.126442
0.105447
0.104603
0.0675634
0.106751
0.106626
0.133674
0.081037
0.0673317
0.0853292
0.0738938
0.104825
0.0949476
0.104041
0.0671097
0.0675449
0.06748
0.0691703
)
;
    }
    inlet
    {
        type            fixedValue;
        value           nonuniform 0();
    }
    outlet
    {
        type            zeroGradient;
    }
    wallInner
    {
        type            kqRWallFunction;
        value           nonuniform List<scalar> 
138
(
0.105839
0.0725657
0.128895
0.136107
0.141838
0.138733
0.131086
0.135802
0.130825
0.0908539
0.15539
0.191614
0.0946502
0.148851
0.0897446
0.117038
0.233867
0.177521
0.17457
0.224006
0.115412
0.0886218
0.093086
0.0885991
0.102479
0.0889843
0.0895619
0.0883039
0.195062
0.0891955
0.088503
0.098554
0.087187
0.124942
0.0905648
0.0884322
0.0973787
0.095789
0.0976336
0.0834459
0.083191
0.0911924
0.100113
0.100883
0.0834487
0.0918224
0.11014
0.0893885
0.096714
0.0927895
0.0943119
0.0933103
0.0871161
0.099124
0.0996372
0.0939233
0.0963525
0.207326
0.104299
0.130622
0.102735
0.0869168
0.0934904
0.0995154
0.0986119
0.097426
0.0957362
0.0930175
0.0817662
0.0896674
0.087315
0.0901792
0.0875205
0.0961147
0.103473
0.0887204
0.141045
0.115407
0.209815
0.183058
0.144036
0.116983
0.10268
0.11002
0.0938678
0.135293
0.112197
0.147695
0.129429
0.196621
0.182086
0.100618
0.0889422
0.16298
0.197943
0.104446
0.183108
0.132184
0.165258
0.157081
0.0941435
0.109191
0.0982828
0.11897
0.10892
0.141771
0.0999488
0.107754
0.0970919
0.102992
0.105047
0.147955
0.110322
0.0911779
0.0910765
0.0787607
0.0851866
0.0952244
0.105416
0.127542
0.171039
0.162367
0.0914078
0.133852
0.156797
0.0937336
0.0828877
0.0929852
0.137954
0.0867209
0.18042
0.14466
0.188089
0.124611
0.15764
0.153342
0.145762
0.150277
)
;
    }
    procBoundary2to0
    {
        type            processor;
        value           nonuniform List<scalar> 
42
(
0.122344
0.122344
0.191859
0.200138
0.154536
0.126578
0.192021
0.192021
0.130852
0.118661
0.198718
0.198718
0.187162
0.192107
0.160523
0.134874
0.134954
0.1179
0.121542
0.167425
0.172967
0.117964
0.117964
0.160986
0.172967
0.120238
0.15946
0.125944
0.15946
0.122966
0.129471
0.137333
0.154053
0.166089
0.168248
0.200138
0.134954
0.158483
0.144779
0.203361
0.203361
0.174051
)
;
    }
    procBoundary2to1
    {
        type            processor;
        value           uniform 0.153345;
    }
    procBoundary2to3
    {
        type            processor;
        value           nonuniform List<scalar> 
29
(
0.1628
0.150633
0.131135
0.129229
0.118131
0.125939
0.138281
0.156699
0.150357
0.136016
0.13536
0.133031
0.12207
0.153021
0.127017
0.16079
0.165858
0.165858
0.150633
0.153021
0.140222
0.176205
0.127949
0.152113
0.122802
0.183568
0.150357
0.140464
0.133031
)
;
    }
}


// ************************************************************************* //
