/*--------------------------------*- C++ -*----------------------------------*\
| =========                 |                                                 |
| \\      /  F ield         | OpenFOAM: The Open Source CFD Toolbox           |
|  \\    /   O peration     | Version:  v1912                                 |
|   \\  /    A nd           | Website:  www.openfoam.com                      |
|    \\/     M anipulation  |                                                 |
\*---------------------------------------------------------------------------*/
FoamFile
{
    version     2.0;
    format      ascii;
    class       volScalarField;
    location    "0.06";
    object      p;
}
// * * * * * * * * * * * * * * * * * * * * * * * * * * * * * * * * * * * * * //

dimensions      [0 2 -2 0 0 0 0];


internalField   nonuniform List<scalar> 
1466
(
90.9782
90.4272
91.0157
90.7237
91.144
92.4152
84.824
90.0036
90.2685
84.4621
90.7228
86.5856
91.2135
90.9789
90.8427
90.9744
90.4744
90.6912
91.6607
90.8739
90.6754
89.1251
86.4035
90.5181
91.0264
91.1666
91.2241
88.0232
86.9158
89.5196
90.656
91.842
88.2701
87.8355
91.5034
90.8261
90.7049
90.6497
92.8425
88.4313
85.9898
89.5973
90.2087
89.026
86.6258
89.0566
90.6427
90.5161
89.8186
90.6535
90.8936
84.6655
91.1118
92.2681
88.8477
89.4374
90.715
90.2737
89.7455
89.7334
91.0234
88.552
90.8308
92.0977
90.2435
91.1726
89.0145
90.6966
90.7583
89.7586
91.0592
90.6394
90.6422
90.6028
90.6342
84.7241
90.3946
90.5426
86.1602
89.7806
91.0479
90.8167
90.7804
89.9733
90.6033
90.6098
90.583
90.1269
91.2587
90.6939
90.8446
90.6312
90.0648
90.6825
90.8358
90.6472
90.4869
89.3018
89.9401
90.9692
85.2605
87.9489
91.1066
90.4808
90.71
89.7433
90.716
90.7548
90.3123
91.0282
90.0749
90.8813
91.1456
90.6334
91.2082
90.9576
90.553
90.8204
90.2678
90.2897
90.6908
91.0581
90.1325
90.7962
91.2906
90.225
91.1942
90.1789
90.1343
90.5563
90.2514
90.3544
91.6263
88.3666
90.9174
89.8679
89.3309
90.5526
85.9829
90.0454
84.593
90.6554
90.2226
90.1629
86.2875
91.6408
92.5015
89.419
88.4802
90.6256
90.1755
91.1631
91.088
90.6112
91.0227
90.7825
90.5635
91.6311
90.7463
89.8403
87.5259
91.0908
89.7072
90.6698
88.4147
89.9733
90.6574
92.3286
91.0484
91.3207
90.5997
90.5902
91.1895
89.0672
91.266
90.5911
88.8508
89.9629
90.8843
90.0034
90.7506
90.7017
90.2796
91.1672
90.4485
90.7505
90.7465
91.0942
90.7959
90.4825
90.4018
90.7816
91.1357
89.8385
90.6793
90.5705
85.7708
90.9877
90.9575
90.9908
91.1063
90.8423
90.7312
91.1214
91.1575
89.7716
90.7237
87.9391
90.8611
91.013
91.0085
91.322
90.8938
90.583
89.9451
90.7699
90.312
90.5922
90.7957
90.6329
90.5492
91.1411
90.9278
90.6245
89.5486
90.6076
90.9166
91.0536
90.7337
90.6004
90.5498
89.4295
91.2082
90.2577
90.8079
91.1108
90.3111
89.6623
90.3563
91.0734
90.4747
90.3707
90.6058
89.0249
89.2344
90.7296
91.1636
90.678
90.7002
90.7171
91.0501
89.6683
89.9696
90.1992
91.3681
89.5453
90.9112
90.5798
91.4014
84.5716
90.5666
90.5943
89.1867
90.4969
93.0107
90.8388
90.0526
91.097
90.8431
90.595
89.2922
90.9187
90.5292
90.8315
90.6135
89.773
91.4156
91.5347
89.61
89.5294
91.0501
90.7324
90.6991
91.1984
90.825
90.4884
90.6416
90.5747
90.6605
90.0136
90.5936
90.2728
90.5164
84.5492
90.153
90.7671
90.8047
91.233
90.857
90.4532
90.2689
91.1192
91.1774
90.6296
90.9095
91.1304
89.6679
90.2127
91.2044
91.426
90.6
90.801
90.8024
87.2379
90.1278
90.8738
91.2541
91.224
85.6042
91.1683
90.6227
89.6818
90.3729
91.147
90.3695
90.775
90.9081
90.7961
90.8749
91.0545
90.6161
90.9418
90.913
91.1402
90.4586
91.0437
90.8738
91.241
91.3825
91.0564
90.7102
90.9139
90.6406
90.852
90.7957
91.1101
90.9719
90.8899
89.9927
90.6164
89.9665
90.5552
89.7439
90.0408
90.1411
90.8856
91.3532
90.3613
91.5837
90.627
90.8406
89.5228
89.8588
91.2655
89.199
90.7998
90.888
90.9027
90.8963
90.8264
91.0756
90.8809
91.1302
90.9826
91.0847
90.5455
90.7294
91.31
90.5746
89.9549
90.5225
88.5333
90.5993
90.8612
89.3178
90.5315
90.5548
90.8065
90.4418
89.9286
90.2493
90.0839
89.9505
90.9816
91.1747
90.9019
89.9685
91.147
90.6924
90.8393
91.5957
90.9139
90.1615
90.5432
85.3907
90.834
90.2254
91.6912
90.8906
90.6071
90.8143
90.4075
90.134
87.6473
90.6867
90.3765
90.225
90.1502
90.4347
90.4541
90.1995
89.5223
88.9527
87.7543
88.5777
88.0685
87.8116
88.3561
86.8945
85.8539
91.006
90.8422
90.3124
91.3552
89.8019
91.3539
90.7024
89.8813
90.5549
90.7127
89.9745
90.297
91.2261
90.0421
90.6003
90.6831
90.6913
90.6598
91.2522
90.1826
91.283
90.675
89.793
90.1955
90.702
90.3066
90.683
90.7099
89.1404
90.1663
90.6917
90.2959
90.2618
90.2245
90.7306
90.2155
91.1319
90.8458
90.9081
89.8073
91.0699
90.2368
90.1954
89.8169
91.17
90.029
89.7066
89.6897
91.0564
92.1839
90.8061
90.8494
91.4098
90.8486
89.9764
90.6746
90.869
90.9686
90.2113
85.521
89.4559
90.5341
90.8655
90.9846
90.8837
90.8254
91.3588
90.6891
90.4302
90.3102
90.493
90.9065
90.255
89.9906
90.9987
90.186
85.3878
90.1653
90.212
90.3507
90.6372
89.9094
90.5707
90.1233
89.7164
90.4906
90.4025
90.8764
90.2679
90.3027
90.3443
90.7568
90.3668
89.7276
90.1837
90.1434
90.5734
90.2568
89.8617
90.9649
90.8195
90.0154
90.2042
90.225
89.97
90.5682
87.7105
90.7801
90.6315
89.9498
90.6164
90.7611
90.7146
90.7328
90.3397
89.9168
90.7936
90.8307
90.7705
90.3566
90.9285
90.7342
90.805
90.2451
90.0712
90.7231
91.1239
90.8652
90.2014
90.7953
90.7213
90.2864
90.1313
90.7809
85.3564
89.9508
90.6444
91.1476
90.3346
90.9523
90.7871
91.0593
90.3275
86.9144
89.1159
90.2111
88.8698
91.0125
90.4362
90.3215
90.4381
90.9685
90.1549
90.1077
90.6613
91.3477
89.6339
90.8352
91.0886
90.4411
91.3219
91.4796
85.7296
90.9829
90.2204
90.8874
89.1249
90.1616
90.8642
90.116
91.2304
90.1335
90.9541
90.5047
91.118
88.8094
90.0752
90.7584
90.659
91.0358
90.0998
90.4266
90.8422
91.5019
91.1925
91.0186
90.7198
90.8878
90.5867
88.9583
91.0332
90.6686
90.197
90.1449
90.7959
90.1284
90.0762
91.0626
90.6925
91.1312
89.4471
90.9062
90.8336
91.8419
89.4208
90.0928
89.717
90.8251
89.9045
90.8878
90.7148
90.6723
90.7364
91.0404
90.8705
88.2564
90.6862
90.7542
90.6216
90.7368
91.0855
91.1608
90.1137
90.6938
90.8199
89.09
90.4543
90.3446
90.7583
90.697
90.9791
90.8461
87.2486
89.3574
90.6762
90.9235
89.9004
90.4953
91.0369
90.2687
90.7808
90.0139
90.3063
90.2083
90.5278
91.3098
90.4426
90.9026
90.6765
90.0772
88.3304
90.839
90.616
90.8155
89.9077
90.9248
88.5439
90.7143
90.1864
89.5928
91.103
90.8053
90.9737
90.5927
91.6325
90.8606
89.4772
90.5483
90.3782
90.3045
90.4885
90.853
89.9583
90.7123
90.2742
90.9888
90.2991
91.2503
90.4137
89.2834
90.8606
90.3492
85.8864
89.6706
90.9819
90.4613
89.7282
91.0495
90.8312
91.1343
90.1548
90.1793
90.8421
90.184
90.6526
90.5789
90.1811
91.0982
90.6524
86.593
90.3576
91.4004
90.2026
90.2173
90.3209
90.5852
90.072
90.3757
91.3286
91.339
91.5059
89.9053
90.4334
91.0337
89.6546
90.4966
91.0895
91.2872
90.6829
88.7519
89.3343
88.229
90.6291
90.1914
90.188
90.2249
91.5125
90.6589
89.5741
90.6978
88.9293
91.8083
90.3449
90.8943
91.4761
90.8495
85.2199
88.5916
89.7115
90.4909
89.7293
93.1481
91.2431
90.5963
90.2391
90.5614
91.181
89.151
91.1286
91.5615
92.2139
90.7702
91.2181
91.135
90.1877
90.0979
90.7797
90.624
90.4706
90.8747
90.3863
91.2637
89.5223
91.1814
91.0602
90.9693
91.5339
90.6563
89.6188
91.0445
89.8729
90.1338
90.8069
90.6827
90.3107
89.8261
90.7868
90.6961
90.7022
88.9575
91.8048
89.9913
90.7096
90.881
90.9477
90.6508
90.8801
90.5223
90.4828
90.7466
91.5578
90.5284
89.8112
90.3769
90.7762
90.7873
90.5166
90.5671
90.5296
91.0021
90.803
90.3099
90.1966
90.7987
90.802
89.7389
87.8645
90.2578
90.7668
91.8227
90.6969
90.5487
85.9593
90.5151
90.3847
90.418
89.4395
89.0751
89.9653
90.4216
90.699
90.2942
90.1365
90.6822
90.6507
90.9479
90.7091
90.7791
89.2303
89.2285
90.2045
90.4444
91.3087
90.6581
91.0454
90.0942
90.9571
90.7245
90.1001
89.9937
90.8102
90.5051
90.9206
88.3377
90.0125
90.5992
91.1589
88.9297
92.425
90.0723
90.8773
90.7412
90.5608
90.8053
91.0103
89.3801
90.5054
88.5637
89.9248
91.0319
90.48
90.6181
90.547
91.0455
90.8181
90.5415
91.085
91.1232
91.2247
88.0073
90.7724
90.832
90.083
90.0993
89.9848
90.6142
90.64
90.7829
88.6095
91.1243
91.128
91.096
90.0265
90.8569
90.1721
91.0772
84.6079
91.1602
89.64
91.1195
89.395
91.3059
90.5165
91.5254
90.7364
91.0019
90.7267
90.8318
90.1573
91.3487
91.1898
88.8702
90.0453
90.088
90.5207
90.4936
90.6624
89.6798
90.7461
91.0817
91.1068
91.0601
91.0979
90.0652
89.756
90.3331
90.4546
91.0493
90.5118
90.5261
91.0297
91.0216
91.0196
90.5357
91.0268
91.0469
86.0296
89.7441
87.6416
90.6865
90.5352
91.3438
90.6787
91.0989
90.9871
89.7656
90.7604
90.65
90.9496
90.7639
90.7263
90.1843
90.9824
91.0219
90.4789
90.7622
90.9917
90.3664
90.5638
90.9571
90.7858
91.245
91.9711
90.6175
90.7062
90.8274
83.4438
90.778
90.8939
90.3346
90.4783
85.0486
90.7047
90.6034
90.9921
91.0388
90.7548
91.2631
90.6309
90.5045
90.6832
90.6443
89.2503
90.7457
88.034
91.0036
90.9094
90.0875
91.0975
90.3141
90.7326
90.9042
90.8551
90.1814
90.3741
86.112
90.954
90.4903
90.185
89.8313
90.7135
90.6785
90.0969
88.1024
88.0905
87.1612
86.0204
89.3375
91.1096
92.6667
90.6845
90.8706
90.637
87.0447
90.6818
89.4803
90.375
90.5332
90.451
92.3586
93.2964
90.4844
90.8651
90.9881
89.5505
90.2976
90.4279
91.2024
89.5363
90.9264
90.5667
91.0371
90.9683
90.6399
89.4884
90.5699
91.3759
90.9377
90.3341
91.4431
90.6013
90.7479
90.3799
91.1094
90.8761
90.7773
90.7612
91.1048
87.3182
86.7277
90.288
86.1231
90.9039
90.6711
91.1709
90.5402
86.8748
88.8823
91.019
91.3391
87.233
90.9005
87.4311
91.1041
91.5065
86.4966
90.8025
86.3276
90.0335
90.7942
90.6721
90.2346
90.5451
90.7158
90.0172
90.9505
90.3893
90.9259
86.3668
90.764
90.897
86.7517
90.5789
90.4168
90.6592
90.509
91.1389
87.8567
87.1078
90.8123
91.1102
90.1651
90.56
91.1653
91.2376
90.8941
91.0284
89.4947
90.7336
86.7995
90.6675
90.6939
90.0002
90.4945
90.729
90.8729
91.247
90.9175
85.8724
91.3077
90.8744
91.561
90.4979
89.8255
90.8772
91.3737
90.5341
90.8225
91.2757
91.0725
90.8612
89.5372
90.5099
90.3873
90.7818
89.2854
91.1635
90.5262
89.8822
90.6974
90.9026
90.7948
90.6944
91.1225
90.9828
90.3992
91.0266
90.852
91.8501
90.7827
90.5161
90.3166
90.3498
85.9863
90.0171
91.1127
90.5647
90.9907
90.6471
91.0654
90.7084
90.8045
90.4875
90.7429
90.9293
90.5449
92.149
90.3812
91.0666
90.1843
90.7465
88.4216
91.0362
91.1126
90.8188
91.2024
90.4603
90.5137
90.467
90.5057
90.8422
90.5174
91.065
90.8628
90.7088
91.338
90.5768
90.1785
91.2083
87.426
90.4534
90.9971
89.5029
90.5545
91.0407
88.0075
90.6591
91.1103
91.015
90.7125
89.9184
90.7854
90.9495
90.513
90.83
90.7573
90.0152
89.8251
90.1133
90.2132
86.9202
90.4706
90.4977
90.5234
90.9478
90.7211
90.7652
91.3071
90.6356
90.4228
90.8754
91.0101
91.2126
92.0611
90.8013
90.3672
91.0093
87.4086
90.382
91.0708
87.0011
90.8477
90.6736
91.1617
90.1051
91.1815
90.8733
87.7423
90.922
90.5525
91.4161
92.2843
90.7021
91.6239
90.1187
91.1389
90.8673
91.6163
90.1106
90.7743
88.8945
90.2057
90.7915
88.7382
89.2743
91.1656
90.7545
88.6998
89.6365
91.0409
90.4571
90.3234
84.5005
90.5323
91.373
90.6516
90.5255
89.9214
90.6785
90.9542
90.9249
91.4641
86.0291
91.7893
91.1797
90.2008
89.7929
90.3746
90.6577
90.5242
86.4554
91.409
90.6289
91.0854
90.6081
90.694
89.7184
91.1941
89.5001
91.241
90.4233
91.4232
90.5693
90.7858
90.905
88.821
90.4151
91.3462
90.4737
90.7922
87.2686
90.2187
91.0845
90.9239
90.443
89.8328
91.25
91.5897
90.888
90.596
90.8863
91.4163
88.631
90.8095
84.2498
90.4256
90.9853
84.6416
90.5893
91.6762
91.1838
90.5966
90.8879
91.0312
87.6378
89.7123
90.4524
91.0078
90.5231
90.7425
90.4544
90.9298
90.7069
90.9282
90.6413
90.7549
90.3973
90.897
91.074
90.3903
89.9733
91.1243
89.8133
90.9641
90.5844
90.8958
90.5552
87.8494
90.9754
89.7391
90.892
90.914
90.9344
91.0991
90.5527
90.5345
90.8854
90.4628
91.2845
91.1815
90.8796
91.2472
90.8644
90.8537
90.7063
90.2518
90.9369
90.0301
91.3203
90.3087
90.6748
90.9319
88.7083
90.5624
84.8469
91.0462
91.1429
87.6635
90.4695
88.3741
90.8102
90.4043
91.4981
91.3477
90.5678
90.59
91.4119
89.8885
89.9355
90.484
85.3076
85.6301
90.6218
90.8777
90.8932
90.2015
90.4777
89.4644
91.0456
89.0206
91.0067
91.0216
90.3563
90.5825
90.4046
91.0234
90.5344
90.6769
91.3255
90.6039
91.9823
91.2184
88.6583
91.1149
90.8291
88.6017
87.3092
91.0858
91.1238
88.5184
90.4946
90.7915
90.7444
91.0965
89.8942
90.5521
90.8699
90.879
90.2508
90.717
90.4074
85.7328
91.154
89.377
89.3246
91.0416
90.9265
87.6426
90.8847
90.7571
91.7704
90.4822
90.4782
90.525
90.513
90.9982
89.0718
90.4213
91.037
93.9908
88.2225
88.8345
92.9118
84.2842
90.8173
79.1473
)
;

boundaryField
{
    frontAndBack
    {
        type            empty;
    }
    wallOuter
    {
        type            zeroGradient;
    }
    inlet
    {
        type            zeroGradient;
    }
    outlet
    {
        type            fixedValue;
        value           nonuniform 0();
    }
    wallInner
    {
        type            zeroGradient;
    }
    procBoundary2to0
    {
        type            processor;
        value           nonuniform List<scalar> 
42
(
91.3934
91.3934
89.3685
89.7552
90.9127
91.3281
89.0307
89.0307
90.9459
90.8298
90.9774
90.9774
90.7062
90.9646
91.1348
91.346
91.3008
90.7526
90.9006
91.2826
90.0059
90.6959
90.6959
89.3649
90.0059
90.4878
90.5119
90.3256
90.5119
91.3677
91.3224
90.1143
89.7525
89.0989
88.0587
89.7552
91.3008
89.8175
90.9734
87.8713
87.8713
87.5735
)
;
    }
    procBoundary2to1
    {
        type            processor;
        value           uniform 91.7876;
    }
    procBoundary2to3
    {
        type            processor;
        value           nonuniform List<scalar> 
29
(
90.5382
90.3132
87.5749
88.4501
92.2695
90.873
84.7661
90.6743
88.1212
88.2032
90.7795
92.1765
90.4888
85.0089
85.4666
84.7841
87.6822
87.6822
90.3132
85.0089
85.3302
87.7574
85.7133
88.1263
85.548
87.5868
88.1212
92.1998
92.1765
)
;
    }
}


// ************************************************************************* //
