/*--------------------------------*- C++ -*----------------------------------*\
| =========                 |                                                 |
| \\      /  F ield         | OpenFOAM: The Open Source CFD Toolbox           |
|  \\    /   O peration     | Version:  v1912                                 |
|   \\  /    A nd           | Website:  www.openfoam.com                      |
|    \\/     M anipulation  |                                                 |
\*---------------------------------------------------------------------------*/
FoamFile
{
    version     2.0;
    format      ascii;
    class       surfaceScalarField;
    location    "0.06";
    object      phi;
}
// * * * * * * * * * * * * * * * * * * * * * * * * * * * * * * * * * * * * * //

dimensions      [0 3 -1 0 0 0 0];
oriented        oriented;


internalField   nonuniform List<scalar> 
2776
(
2.53938e-05
0.000201085
-9.01991e-06
-0.000217459
-3.36475e-05
7.23145e-06
-0.000236659
0.000263075
-5.38779e-05
4.12511e-05
-3.59797e-05
4.86065e-05
-2.14165e-05
1.20576e-05
0.000176327
-0.000166968
0.000169755
0.00016092
-0.000132154
-0.000198521
0.000128406
0.000112112
-0.000172447
-6.80721e-05
-6.0301e-05
1.76733e-05
7.1739e-06
3.54538e-05
7.66586e-05
-0.000143471
0.00017614
0.0002465
-0.000278734
-0.000143907
0.000153837
-0.000189487
0.000163777
-0.000128127
4.06655e-05
4.35102e-05
-8.41757e-05
0.000360661
-0.000350265
2.90091e-06
-1.32967e-05
-4.55473e-06
4.55473e-06
0.000104228
-2.34818e-05
-6.66432e-05
-1.41033e-05
-9.1811e-07
-6.93854e-05
5.67591e-05
1.35444e-05
8.60387e-06
9.89576e-05
-6.1496e-06
-0.000101412
-4.7338e-05
8.90503e-06
3.8433e-05
0.000149172
7.58587e-05
-1.14366e-05
-0.000213594
-1.40638e-06
3.59127e-05
0.000117922
-0.000152428
3.71831e-05
-5.03488e-05
0.00011943
-0.000106264
6.07526e-05
-5.94372e-05
1.66708e-06
-2.98256e-06
-0.000163015
-0.000154818
0.000274563
4.32706e-05
0.000269016
-0.000244842
-2.41746e-05
2.12896e-05
0.000231473
-0.000208515
-4.4248e-05
7.28702e-05
6.18914e-05
-3.05334e-05
3.45042e-05
6.37322e-06
-3.33444e-05
-7.53302e-06
3.90313e-05
8.08799e-06
-2.5545e-05
-2.15743e-05
-3.80724e-06
1.28453e-05
-0.000216333
0.000207294
8.67087e-06
-1.24905e-05
0.000157582
-0.000115044
-4.2538e-05
9.60671e-06
-5.74714e-05
-0.000197492
1.68552e-05
-3.04813e-05
-0.000161915
0.000175541
0.00012155
-9.63657e-05
-0.000269574
1.17694e-05
1.09133e-05
-3.92282e-05
1.65455e-05
-0.000253646
-2.78788e-05
0.000181834
9.96905e-05
5.82235e-05
-6.12686e-05
2.12701e-06
1.77115e-05
-5.14397e-05
5.17934e-05
-1.80652e-05
1.5995e-05
4.55291e-05
-4.08555e-05
-2.06687e-05
3.93666e-05
0.000157051
-0.00023159
3.51724e-05
1.0584e-05
-0.000168784
8.74364e-05
0.000324268
-5.10429e-05
-0.000148391
0.000199973
7.34324e-06
-5.89255e-05
-0.000279658
0.000179521
0.000276277
9.37432e-05
-8.42509e-05
7.22402e-05
-8.17326e-05
0.000316362
-0.000286905
-5.76899e-05
2.82326e-05
-0.000163343
4.93494e-05
0.000386764
-0.00027277
2.60326e-05
5.09424e-05
-1.78534e-05
-5.91217e-05
8.3933e-05
-0.000139855
0.000205094
-0.000115383
-6.99176e-06
-2.60161e-05
1.82738e-06
6.15282e-05
-2.60297e-06
2.45952e-05
-1.90547e-05
-4.544e-05
3.98995e-05
-1.54451e-05
2.95333e-06
8.70482e-06
-0.000263576
-0.000148013
0.000175964
-0.000108639
8.06881e-05
-4.41469e-05
9.69908e-07
4.28326e-05
3.44332e-07
-0.000245058
9.3359e-05
0.000159532
-7.83358e-06
-2.37221e-05
0.000125818
-0.000113872
1.17758e-05
-0.00010261
-0.000129188
8.37843e-05
-5.44957e-06
3.94666e-06
0.00010095
-9.94475e-05
0.000169351
0.000152026
-0.000384215
0.000206431
2.57568e-05
5.12787e-05
-0.000140608
7.47799e-05
1.45493e-05
0.00022591
-0.000133817
8.38707e-05
-5.88651e-05
1.99561e-06
-2.56767e-06
-3.36547e-05
-0.000202955
0.000235447
1.16301e-06
-0.000146355
0.000234845
-0.000251506
-5.03322e-06
7.32854e-06
-4.21345e-05
3.98391e-05
-0.000190086
0.000231103
-8.30659e-05
4.20488e-05
4.29175e-06
4.69231e-05
-3.52198e-05
-0.00021027
0.000124464
0.000178312
-9.25056e-05
4.99779e-05
-4.56862e-05
0.000203344
-0.000342607
-0.000230779
-0.000232788
-5.8619e-05
8.11371e-05
0.000144332
-0.000259575
0.000199176
6.29211e-05
-0.000104645
5.03944e-05
-0.000117695
-0.000116715
0.0001318
-2.94993e-06
4.90786e-06
-4.92674e-05
4.73095e-05
0.00011044
0.000154115
-0.000138353
-0.000126202
5.02099e-05
-9.2395e-08
-5.18445e-05
1.72702e-06
-3.15838e-05
-7.22993e-05
-1.15001e-05
7.13586e-05
-5.73742e-05
-2.80922e-05
1.41078e-05
5.91078e-06
5.62551e-05
-6.11479e-05
-1.01796e-06
7.38956e-06
4.87206e-05
1.52484e-05
0.000409432
7.0516e-05
-8.88555e-05
-0.000391093
0.000146725
2.69748e-05
-2.84739e-05
-0.000145226
-0.000272492
0.000252771
6.14206e-05
-4.1699e-05
0.00015959
-5.15415e-05
8.87209e-05
-0.000196769
-7.12557e-07
-5.95171e-05
6.02297e-05
-0.000103088
0.000108011
0.000128967
-0.000133891
-4.93606e-05
-0.000138258
0.000200135
-1.25169e-05
2.25469e-05
-2.93914e-05
3.14398e-05
-6.0633e-05
6.17478e-05
-6.47919e-05
-0.00029722
6.14026e-05
0.000300609
1.14205e-05
-2.1394e-05
-0.000140654
0.000150628
-1.5654e-05
0.000319045
1.03657e-05
-0.000313757
4.21143e-05
-2.45715e-05
0.000142047
2.6201e-06
0.000244431
-0.000250267
2.02912e-06
3.36408e-05
-1.30874e-05
-8.00338e-05
5.94805e-05
0.000219246
-0.000284038
9.13992e-06
-4.77922e-05
4.3453e-05
-4.80075e-06
-0.000259169
-0.000183832
2.18214e-06
-3.215e-06
-5.78322e-05
2.11931e-06
4.92556e-05
-1.16506e-06
-0.00030283
-7.85363e-06
0.000295029
5.78547e-05
-3.14191e-05
2.21532e-05
-4.85889e-05
-1.47057e-05
7.6272e-06
-9.79048e-05
0.000104983
2.46376e-05
-3.81847e-05
-3.53162e-05
4.88633e-05
7.30535e-06
-1.05265e-05
-1.47295e-05
1.79507e-05
1.99529e-05
5.16088e-05
-1.00821e-05
5.52733e-06
-0.000196688
-0.000195344
0.000104229
0.000287804
0.00010427
7.72714e-05
-8.37326e-05
-9.78087e-05
0.000144453
-0.000111236
7.10525e-05
7.2089e-05
-0.000299587
-4.4994e-05
-0.000133219
0.000138428
0.000187222
-0.000192431
5.94824e-05
9.5419e-07
-5.8441e-05
-7.65536e-07
-0.000139635
0.000177975
-3.75748e-05
6.93975e-05
7.87393e-06
0.000205639
-7.08366e-05
0.000274629
8.2868e-05
-4.17399e-05
0.000105597
-5.35932e-05
-3.20425e-05
-0.000113576
0.000199212
2.16425e-05
-2.34074e-05
1.52907e-05
-1.35257e-05
-0.000183871
0.000215475
1.75549e-05
-4.9159e-05
-9.49507e-05
0.000140927
-0.000149064
0.000208854
0.000155577
-0.000196367
-0.000168064
-8.7237e-05
-7.75429e-05
7.89419e-05
8.5838e-05
2.92582e-05
-3.92409e-06
-0.000258122
-1.02295e-05
5.21908e-05
-0.000185435
0.000143474
-0.000196498
8.66447e-05
0.000335764
-9.04247e-06
3.33149e-05
8.7192e-06
-3.29916e-05
-0.000124998
-0.000109038
0.000116341
0.000174892
1.53017e-05
9.77956e-06
6.19271e-06
-7.10186e-05
7.8754e-05
-1.39282e-05
-0.000391595
0.000319846
8.36874e-05
-1.19382e-05
0.000198358
-8.86658e-06
-0.000160233
-0.000147418
-4.20696e-05
-5.16568e-07
-5.90006e-05
0.000179854
-0.000143083
-0.000141764
0.000104994
-0.000173679
-8.90343e-05
0.000138894
0.000123819
-0.000144697
6.9464e-05
-6.24178e-05
-6.90446e-07
6.31082e-05
-0.000157442
7.31436e-05
8.4298e-05
0.000243486
-5.47573e-05
-0.000235908
4.71796e-05
-0.000193443
0.000166957
-0.000170012
9.50177e-06
0.000159749
-7.48459e-05
-2.21777e-05
1.35031e-05
3.0317e-05
-3.2596e-05
0.000239397
4.59694e-05
3.83831e-06
-0.000247849
0.000175796
6.82153e-05
7.93813e-05
0.000103564
-0.000140831
3.46876e-05
-1.69304e-05
1.35046e-05
-3.12618e-05
0.000204171
-0.0001092
0.000126319
-0.000176496
-2.3567e-05
7.37432e-05
8.86938e-05
-9.58211e-05
1.67253e-05
-9.598e-06
0.000233579
8.1996e-05
1.60001e-05
0.000249828
-2.13975e-05
0.00016151
-4.38359e-06
-1.46753e-05
-0.000142452
0.00042076
-1.49494e-05
-5.80569e-05
-0.000272618
-1.4602e-05
3.69535e-05
0.000108847
-0.000125833
0.000327892
-0.000257218
2.84197e-05
-9.90935e-05
1.87769e-06
-8.88851e-05
8.70074e-05
-0.000123584
7.86979e-05
8.93239e-06
3.59537e-05
-7.65513e-05
3.96126e-05
7.59701e-05
8.79186e-06
-6.32684e-05
6.03873e-05
7.30099e-07
1.32884e-05
4.22366e-05
2.27063e-05
-3.28082e-05
-1.33055e-05
-0.000176469
0.000101534
-0.000118508
-2.61268e-05
6.8719e-05
0.000394525
-0.000264957
-0.000163215
-5.79424e-05
-0.000208181
-6.49509e-06
-0.000119276
0.000106271
-0.000103711
1.32139e-06
-1.46805e-05
-5.60263e-05
-9.93462e-05
-0.000217371
5.22802e-05
-5.21144e-05
8.97411e-06
-5.38251e-05
9.52546e-05
-0.000128667
3.31644e-05
0.000100982
8.95873e-05
0.000268078
2.96917e-05
9.12795e-05
5.23124e-05
-5.28713e-05
2.67819e-06
0.000100684
-0.000253154
-0.000105553
0.000258023
5.47758e-05
1.78096e-06
1.66672e-06
3.53746e-05
0.000226887
4.36002e-06
-0.000231247
-0.000108544
7.90008e-05
2.95428e-05
4.78774e-05
0.000107061
-2.19819e-05
5.41567e-05
2.01053e-05
-8.16761e-05
9.57615e-05
4.78668e-05
-2.2411e-05
0.00029439
-1.21634e-05
9.3685e-06
-5.18921e-05
5.4687e-05
-1.51369e-05
6.08282e-05
-4.35206e-05
-5.59552e-05
6.80567e-05
-1.60527e-05
2.59218e-06
-3.84401e-06
3.8512e-05
-3.27191e-05
-2.7038e-05
2.12451e-05
4.41109e-06
-2.94766e-06
1.54247e-05
-9.41262e-05
-4.48824e-05
3.3055e-05
-3.25263e-05
-0.000130296
0.000158048
-3.47436e-05
4.60915e-06
0.000263705
4.09627e-05
-0.000255318
-6.15608e-05
1.61352e-06
-1.50277e-05
4.1741e-05
-2.93214e-05
2.60817e-06
-5.35699e-05
4.79107e-05
-8.52221e-05
2.3976e-05
4.51934e-05
-1.45853e-05
-1.11706e-05
6.42679e-05
4.89046e-05
-3.21401e-05
-3.26221e-05
1.58576e-05
-3.52996e-05
1.81213e-06
8.52837e-05
-1.85512e-05
-9.81409e-05
3.14083e-05
2.15827e-05
-1.91323e-05
-2.45038e-06
9.23043e-05
-6.11297e-05
-0.000114907
-0.000205762
6.47888e-06
0.000140664
-0.000177497
-3.72686e-05
0.000240314
-2.55482e-05
-0.000245668
2.44779e-05
0.000246584
-8.45091e-05
0.000130296
3.23478e-05
2.55441e-05
-6.94947e-06
7.72026e-05
-0.000160004
-9.36676e-05
3.08508e-05
4.60874e-05
-4.45904e-05
7.95175e-05
-5.01679e-05
6.96751e-05
5.08396e-05
-0.000104401
-1.6114e-05
4.88729e-06
5.58225e-05
-6.66235e-06
-5.40474e-05
-0.000246604
-0.000164343
0.000183091
0.000227856
-4.89704e-05
6.44305e-05
-9.26737e-06
0.000286345
-0.000329625
9.89044e-05
-5.5625e-05
0.000111985
-0.000125193
1.72977e-05
-4.09011e-06
-9.79574e-05
8.44587e-05
4.99267e-05
-3.6428e-05
6.69562e-06
4.39441e-05
-2.95956e-05
1.87065e-05
-7.2861e-05
7.73089e-05
-0.000102405
9.52608e-06
-7.03812e-05
-8.00227e-05
4.29278e-05
-3.69915e-05
0.00015194
-0.000152044
-5.48342e-05
-6.93721e-05
6.16864e-05
-1.45674e-06
0.00013084
-1.38906e-05
-0.00018436
-8.51896e-06
5.4573e-05
-4.96857e-05
5.10298e-05
-4.71179e-05
-3.91193e-06
-5.80464e-05
3.92942e-05
5.69226e-05
-2.34963e-06
3.15937e-05
0.000158228
0.000270742
-2.60929e-05
-0.000242242
-2.40715e-06
-0.00010504
-5.68396e-05
0.000314203
-0.000116713
0.000118366
-3.48542e-05
5.83022e-06
-3.80891e-05
0.000303001
-1.60083e-05
6.89281e-05
5.24629e-05
0.00025814
1.72893e-05
-0.000258785
0.000149385
0.000329973
-0.000220573
3.45255e-05
-3.45913e-05
-4.90607e-05
4.77714e-05
-0.000319378
0.00033929
-1.40824e-05
8.5752e-05
0.000209247
-0.000113999
-5.8448e-05
4.91982e-05
2.82301e-05
-6.3884e-05
-0.000458994
-7.89089e-05
-9.41477e-06
-1.14743e-05
2.11896e-05
-1.3459e-05
-4.04497e-05
-0.000141179
-0.000168915
0.000251268
5.88269e-05
3.18286e-05
-0.000200291
-4.89089e-05
1.23538e-05
-1.51379e-05
6.72146e-05
-1.33482e-05
7.68575e-05
9.47071e-05
-0.000127723
9.29384e-06
8.59248e-05
1.42079e-05
-1.00669e-05
-1.89694e-05
1.42052e-05
-1.03915e-05
-1.12374e-06
7.56879e-06
2.07101e-05
-1.29882e-05
-4.21624e-05
4.28789e-05
5.35371e-06
-6.07026e-06
-6.52888e-05
-1.96162e-05
6.95945e-05
1.53104e-05
-7.04219e-08
-5.33666e-05
-0.000102242
0.000155679
7.04783e-05
-0.000229905
0.000216409
-0.000151164
0.000164659
6.2763e-05
0.000216732
4.38571e-05
-3.03919e-05
-0.000165959
-0.000323259
3.02245e-05
0.000180356
2.02646e-05
3.42921e-05
-0.000234913
-0.00017927
-0.000291463
8.19147e-05
0.00011872
-0.00010538
8.68676e-05
-9.60867e-06
-5.32572e-05
-2.40017e-05
5.50876e-05
-0.000255768
0.000301365
-0.000172718
0.000211291
0.000198378
-0.000236951
-1.6765e-05
8.90473e-05
4.06176e-05
5.84715e-05
-2.78793e-05
3.37624e-06
7.59436e-06
1.69087e-05
9.614e-05
3.89281e-05
-4.29946e-06
1.32099e-05
-4.78386e-05
0.000166056
1.42302e-05
-4.70509e-05
-4.03851e-06
3.64089e-05
-6.5134e-06
-6.11668e-05
6.28327e-05
4.84748e-06
6.39533e-05
-0.000127902
0.000118689
-5.47397e-05
8.46754e-05
7.15754e-05
1.948e-05
-1.19113e-05
0.000208948
0.000302267
-0.0001347
-0.000243892
0.000214248
2.39616e-05
1.31661e-05
-1.45809e-05
-2.89398e-05
-7.70686e-06
-0.000234485
0.000107511
0.000293932
6.27127e-05
3.44685e-05
-4.45876e-05
3.13087e-05
-7.26698e-06
-8.4924e-06
6.34461e-06
2.30707e-05
-4.28243e-05
0.000229516
0.000124753
-0.000306402
6.46295e-06
2.77502e-05
-5.64425e-05
4.90265e-06
0.00012559
-0.000130623
0.000121374
-2.07751e-05
-7.93279e-05
-2.85636e-05
5.64126e-05
-5.47686e-05
-1.64399e-06
9.95832e-05
-0.000133866
3.42826e-05
3.8235e-05
-2.78683e-05
-1.03666e-05
3.4077e-05
-2.8762e-05
-5.315e-06
-4.54416e-05
4.19718e-05
3.46976e-06
-4.55989e-05
-1.25181e-05
5.8117e-05
4.80334e-05
1.10496e-05
-5.9083e-05
4.04215e-05
-4.90045e-05
8.58299e-06
5.27066e-05
-5.12604e-05
-1.4462e-06
4.00577e-05
-5.98068e-06
-8.16415e-05
5.29894e-05
2.86521e-05
6.80729e-05
3.15103e-05
5.3757e-05
2.6556e-06
5.95541e-05
-5.14225e-05
-8.13165e-06
7.41005e-05
2.36489e-05
-1.84252e-05
-5.22368e-06
4.50835e-05
4.30965e-05
-2.67493e-06
7.03348e-05
-1.76282e-05
9.99466e-06
1.92325e-05
-2.92272e-05
2.35563e-05
-7.31429e-06
-1.6242e-05
5.42373e-05
-1.60023e-05
-4.51973e-05
-1.92058e-06
-2.72586e-05
1.98262e-05
7.43245e-06
-5.72939e-05
5.15522e-05
5.74169e-06
-6.08042e-06
-4.54604e-05
2.36615e-05
-0.000199052
-0.000224488
0.000193636
0.000138186
-7.63057e-05
7.12448e-05
-4.59867e-05
0.000162388
-5.89457e-05
-0.000114429
-2.02443e-05
6.75028e-05
6.71702e-05
5.47053e-05
4.4543e-05
1.2865e-05
-5.71507e-05
0.000291316
0.000316977
-4.15315e-05
-6.50923e-05
0.000176529
0.000116451
-7.65704e-05
0.000148751
-0.000126744
0.000104968
-7.06211e-05
-1.10204e-05
-5.17484e-05
0.000243227
-0.000191479
8.79568e-06
-5.20578e-06
-5.54122e-06
1.30409e-05
1.58378e-05
-1.13782e-07
6.17479e-05
-1.01958e-05
2.15293e-05
-1.70307e-06
2.4966e-06
4.62684e-05
6.72104e-06
1.90684e-05
-1.78737e-05
6.65908e-05
0.000398355
-3.4817e-05
2.87366e-05
2.5819e-05
-0.000208261
7.53092e-05
-6.71869e-06
0.000201483
-0.00012745
-6.73151e-05
2.90475e-05
-1.24002e-05
-0.000182807
-0.000123509
4.63697e-05
3.74012e-05
-1.32927e-05
-3.85575e-05
-3.84131e-06
-5.93504e-05
5.49948e-05
-7.5667e-05
4.48501e-05
-7.5297e-05
-0.000148982
0.000179429
-0.000154759
0.000157467
4.21418e-05
-0.000224499
4.37513e-05
6.89221e-06
0.000173855
-7.93992e-05
-0.00013875
5.81452e-05
6.66968e-05
-0.000257223
0.000329094
-0.000138567
2.5943e-05
-3.33233e-06
2.59976e-06
-0.000102614
-0.000117697
0.000140912
6.25887e-06
-5.29951e-05
-5.59897e-06
2.70701e-05
8.63672e-05
-2.68131e-05
4.90984e-05
-2.54496e-05
4.5803e-05
-4.76948e-05
-3.64942e-06
3.8511e-05
-0.000114422
-6.28387e-05
-9.34894e-06
6.54559e-05
0.000411189
-0.000118537
-0.000471923
2.33398e-06
-3.18246e-05
-1.26717e-05
-0.00021622
-0.000108389
0.000150929
-0.000229685
-0.000240056
0.000210955
4.90166e-05
3.80919e-06
-5.04693e-05
-2.35646e-06
3.72023e-05
2.08715e-05
-3.42676e-05
-2.38062e-05
8.56842e-06
-4.24699e-06
5.96751e-05
0.000161421
-0.000182585
-3.14407e-05
0.000318536
-2.25372e-05
-0.000268607
0.000255712
3.54322e-05
-7.1392e-05
9.20877e-05
0.000129611
-0.000150307
-8.46446e-05
-0.000211691
8.01161e-05
0.000190684
-0.000185527
-0.000185079
0.000179923
6.37036e-05
-3.92249e-05
-0.000179238
0.00013718
-0.000144869
-0.000140882
0.00018216
0.000149405
2.10989e-05
-9.63959e-05
-0.000193702
0.00025192
-0.000213036
-0.000235526
0.000202699
-0.000262896
0.000295723
-0.000242037
-0.000187191
0.000176221
-0.000118583
-0.000299675
-0.000305363
-0.000124252
0.00033325
0.000149255
-0.00029014
0.000203464
-0.00030671
0.000101066
-8.4496e-05
-1.82094e-05
-1.04047e-05
-4.52514e-05
1.337e-05
-0.000183568
0.000177805
-7.88816e-05
-3.83678e-05
2.36657e-05
0.000246355
-0.000231653
0.000299951
-0.000244863
0.000274394
3.463e-05
-0.000347391
0.000332375
-8.20324e-05
-0.00027288
-0.000196037
5.04258e-05
-2.18167e-05
0.000223006
-0.000251616
0.000317142
0.000206971
-0.000335864
-0.00018825
6.31315e-05
9.45419e-05
-0.000157673
-8.06724e-05
-0.000107535
0.00021218
-5.51642e-05
-0.00013335
-6.94965e-05
-0.000227071
6.87605e-05
0.000227807
0.000247884
0.000119684
0.000220306
-0.000145693
0.000257762
-4.99292e-05
0.000320384
-0.000244664
-2.57912e-05
-0.000284779
0.000180521
5.43287e-05
-0.000171966
0.000271661
-0.000175674
7.59783e-05
-9.34046e-05
0.000208401
-0.000300523
-0.000335133
0.000173773
-1.06054e-05
0.000240066
-0.000234928
0.000215168
-0.000176341
-5.00482e-05
0.000156893
0.000170377
-0.000138216
-0.000174956
0.000142795
0.000260233
-7.61996e-05
-0.000266066
0.000175935
-7.5225e-05
-0.000122526
7.131e-05
-0.000229633
-0.000126456
-0.000207866
0.000220391
0.000227541
7.33237e-05
4.20599e-05
-0.000115384
0.00021137
-6.43389e-05
-0.000240435
-0.000116589
0.00023113
4.20554e-05
-4.95672e-05
-0.000176056
-0.000133872
0.000150448
0.000153801
-0.00011431
0.000181829
3.56295e-05
0.000239682
-3.99492e-06
2.6407e-06
1.35422e-06
4.31348e-05
1.83296e-05
0.000212929
-4.38297e-05
3.932e-06
-1.98613e-05
-1.27306e-05
2.753e-05
3.77118e-06
-3.13012e-05
0.000325119
-7.2917e-05
6.88521e-05
-3.61592e-05
-0.000156579
-0.000143093
-0.000110415
-7.98837e-06
1.95417e-05
7.02118e-05
-0.000271372
0.000199754
0.000118104
-0.000223482
0.000144745
-1.61393e-05
-4.15431e-05
4.74552e-08
-0.000129318
9.08433e-05
-4.77888e-05
-2.55789e-05
-0.000276941
0.000148828
0.000198324
-1.46204e-05
9.47003e-06
-4.48725e-05
4.61003e-05
4.15341e-05
-4.45767e-05
-8.16696e-06
1.12096e-05
-6.14197e-05
-0.00013078
-1.32185e-05
-2.96566e-06
-0.000158441
-0.000115534
-2.82141e-05
-5.12531e-05
1.01898e-05
3.9891e-05
7.83257e-06
-6.18952e-06
0.000154719
-9.50439e-05
-0.000183068
-9.127e-05
8.10356e-06
-5.17478e-05
-0.000264914
0.000240462
-4.03436e-05
3.63487e-05
5.41983e-05
3.81853e-05
-4.26744e-05
-2.97785e-05
7.21183e-06
-5.26481e-05
-5.03305e-06
-3.67595e-05
3.7299e-06
3.7028e-05
-8.66869e-07
3.77003e-05
2.72995e-05
-0.000179422
-0.000329486
-0.000237808
0.000235048
7.15199e-05
-2.01466e-05
-0.000238513
-3.6245e-05
0.000294905
7.89282e-05
0.000193418
0.000227101
-0.000100135
-0.000230318
-0.000111191
0.00022019
0.0001802
-5.17257e-05
0.000222435
4.71977e-05
0.000129237
0.000232724
0.00010715
-3.16292e-05
-5.35459e-05
9.50472e-06
-0.000137142
0.000181087
0.000183115
-0.000126499
0.000173714
-2.779e-05
-0.000276464
3.56462e-05
-0.00022838
0.000203057
6.16722e-05
0.000232595
6.73563e-05
1.35323e-05
0.000219062
3.81495e-05
0.000107613
3.36671e-05
6.54996e-05
2.82005e-05
4.98354e-05
-3.59472e-05
7.13601e-06
3.2541e-05
4.59223e-05
-4.65853e-05
-1.20087e-05
-0.000112009
-0.000117349
7.22537e-05
-0.000241169
-0.000248416
0.000223279
-0.000264446
0.000240899
-0.000274138
0.000280462
-4.29475e-06
0.00027783
0.000112789
2.97739e-06
-2.5971e-06
4.25245e-05
7.50558e-05
-7.1924e-05
4.79051e-05
-0.000242047
-1.37022e-05
-0.000159652
-0.000261782
7.04835e-05
2.7934e-05
0.000105074
-3.07587e-06
4.10081e-05
-0.000277827
-3.76599e-05
0.000274479
-0.000252764
5.9592e-05
-5.80419e-05
-4.42245e-05
1.09829e-05
-5.71933e-05
-6.43766e-06
-1.3097e-06
4.48399e-05
-4.64779e-05
0.000101863
-0.000250856
-0.000102807
-0.000160737
0.000150156
0.000113388
-0.000110506
-0.000127335
-0.000211141
0.000147849
-0.000166342
-2.07307e-05
1.83361e-06
-5.86977e-05
2.74801e-05
7.13211e-05
-0.000240957
-0.000244741
-0.000116914
-4.05105e-07
4.69879e-05
-4.75043e-05
9.21501e-07
2.74747e-05
-9.7765e-05
7.78846e-05
-0.000106086
-0.000138312
-0.00027257
6.31735e-05
0.000250404
-0.000149075
-0.000113653
9.07363e-05
-7.48821e-05
5.86195e-07
3.52567e-05
-2.33247e-05
-4.44583e-05
3.20523e-05
-0.000209985
3.8153e-05
-0.000249284
2.17186e-06
-2.15863e-06
4.55733e-05
-4.55866e-05
0.000124619
8.34476e-05
-3.15376e-05
5.68437e-06
-0.000212145
-0.00027562
-3.37982e-05
2.25132e-05
1.89755e-05
0.00012897
-0.000100766
-0.000220303
0.000170156
1.3902e-05
4.38467e-05
-0.000406673
0.000362826
3.35055e-05
-1.51078e-06
-0.000130358
2.75228e-05
-0.000225359
1.07405e-05
4.14403e-05
-0.000117307
0.000100357
-2.44905e-05
2.55846e-06
-2.12025e-06
4.13028e-05
-0.000262291
0.000198151
0.000144256
-0.000142836
-4.58204e-05
0.000272001
0.000257556
0.000127485
0.000304301
-4.50211e-05
-1.64153e-05
-5.52809e-05
5.04035e-05
2.12926e-05
-0.000140834
0.000106928
-0.000223317
-0.000250736
8.42659e-05
-5.32904e-05
0.000219761
0.000141234
-6.80906e-05
3.96402e-05
-4.03306e-05
-0.000371791
5.01103e-05
-7.03474e-05
-3.77812e-05
-5.89784e-05
-0.000155078
8.81305e-05
-7.22572e-05
0.000143876
1.49701e-05
-0.000137695
-0.00012249
0.00028495
-0.000185484
0.000172195
8.88717e-05
-7.72363e-05
-6.96772e-05
1.61039e-05
-6.42484e-05
-9.04884e-06
5.51676e-05
4.26568e-05
-1.25407e-05
-3.0759e-07
-2.67779e-05
-0.000395738
0.000317186
-6.2628e-05
4.61115e-05
-0.000237081
3.87666e-05
-4.30131e-05
-0.000163223
0.000184008
0.000311679
-1.43898e-05
-0.000128243
-0.000169046
0.000129712
-2.9166e-05
0.000339771
-0.000297073
-0.000341801
0.000143528
0.000113155
-0.000216924
1.3378e-05
3.08554e-05
-5.3053e-06
-5.02672e-06
8.32373e-06
3.02085e-05
0.000302769
7.35589e-06
-4.53559e-05
2.64247e-05
-0.0001844
-8.74864e-05
0.000120723
6.69874e-05
9.47795e-05
-9.78136e-05
-3.87853e-06
7.30463e-05
-7.56811e-05
-5.92126e-05
4.43586e-06
0.000266745
-5.86755e-05
-0.000208069
-9.64352e-05
-0.000129508
0.000120563
-2.64586e-05
-6.46927e-05
3.58704e-05
-0.000106526
0.000216352
-0.000114196
7.92463e-05
8.91074e-08
-3.94539e-05
-5.56773e-05
5.4388e-06
0.000169384
0.000119978
-0.000271032
-5.28702e-05
-0.000292601
7.72623e-05
-3.89085e-05
3.53078e-05
5.3711e-05
5.25191e-05
-5.06414e-05
-0.000152212
0.000114931
-8.89303e-05
2.25133e-05
-0.000162697
-4.52202e-05
-6.93331e-05
-5.48065e-05
3.73834e-06
2.73796e-05
0.000176251
-4.48258e-05
-6.30815e-07
0.000180571
-0.000237944
-0.000130877
4.82165e-05
-1.49316e-05
-0.00025837
-3.03696e-05
8.22159e-05
-3.22489e-05
-8.88754e-05
-0.000236376
0.00023577
0.000165265
0.000270688
8.29636e-05
-9.09605e-05
-0.000262691
-5.51753e-05
3.04695e-06
1.73615e-06
-3.32985e-05
3.16514e-05
0.00026511
-0.000120994
-9.51568e-05
-0.000191006
0.000240902
4.8563e-06
0.000134058
0.000370979
-0.000380003
0.000267466
6.39952e-05
-0.00012881
-2.64759e-05
-5.65472e-05
3.18407e-06
5.24888e-05
6.50348e-05
-1.08583e-05
1.94564e-05
9.03595e-05
-0.000215281
2.08424e-05
-0.000139928
0.000361813
8.87447e-05
0.000131457
0.000101927
0.000260917
-0.000289165
-7.36799e-05
-5.33993e-05
0.000103749
3.46145e-06
-5.3811e-05
0.000246522
-5.2828e-05
-9.74556e-05
-5.8879e-05
3.99847e-06
-3.91096e-06
5.66567e-05
-0.000106324
5.35787e-05
4.51786e-06
-9.3067e-05
-6.76727e-06
9.53164e-05
-6.44643e-05
8.7383e-05
7.36837e-06
-1.51284e-05
-0.000230627
0.000256217
-2.95898e-05
-7.61458e-05
4.10429e-05
0.000112162
3.79756e-05
4.84641e-05
-4.09749e-05
8.25512e-05
2.18982e-07
-8.66487e-05
5.94797e-05
-5.71715e-05
1.09529e-05
-0.000105194
0.000146681
-3.58249e-05
-1.78506e-05
0.000160872
3.69292e-06
2.73669e-05
0.000100754
-6.04424e-05
-4.03116e-05
0.000350245
0.000142604
-7.44602e-06
-6.19728e-05
5.22082e-06
-0.000131847
6.08024e-05
-8.94833e-05
-1.06051e-06
-0.000177075
7.17413e-05
6.55972e-05
-1.41736e-09
0.000190489
-4.70704e-05
-7.45375e-05
6.75675e-05
-2.37897e-06
-0.000101175
-3.09807e-05
-0.000153803
0.000157166
-0.000107324
1.33871e-05
-8.30993e-05
0.000134994
0.000151253
-6.57462e-05
-0.000250972
-2.72924e-05
-9.13215e-05
-0.000357397
-2.74567e-05
-0.000103667
-1.63716e-05
5.78192e-05
-3.85867e-05
-0.000312293
-1.44184e-05
0.000304301
-8.61234e-05
-7.57375e-06
-4.71873e-05
0.000164687
0.000159832
-0.000156746
5.23795e-06
2.53456e-05
-9.92179e-07
-4.98984e-05
-0.000166887
6.34092e-05
0.000132319
-2.88417e-05
3.92666e-05
-0.000129776
1.0693e-05
4.92153e-05
0.000174978
4.13201e-05
-3.20543e-05
-5.77703e-05
-0.000143139
-0.000264207
-4.80541e-05
0.000167564
-1.96496e-05
0.000159092
-9.04021e-05
9.67558e-05
-6.35372e-06
-8.58842e-05
0.000316195
-0.000208597
0.000140529
-0.000248128
0.000104383
-8.09269e-05
-4.95729e-06
-2.24907e-05
9.65912e-05
0.000292813
-1.8102e-05
-9.80517e-06
0.000114188
-4.32186e-05
-3.77083e-05
-8.22593e-05
4.7605e-05
3.46542e-05
-0.000191199
0.000117436
7.37624e-05
-3.23102e-06
-2.62846e-05
-3.55767e-05
-2.99644e-05
3.17006e-05
7.75391e-05
-3.67925e-05
-7.51388e-05
3.43922e-05
1.64716e-05
-0.000224215
-4.06507e-05
6.33911e-06
2.72188e-07
1.23642e-05
-0.000178211
0.000190072
-1.18608e-05
-5.5743e-05
-1.48291e-05
0.000150131
-5.49037e-05
-0.000167484
0.000126006
-0.000304662
8.45974e-06
0.000274826
-0.000213194
0.00014086
-0.000170222
7.66764e-05
0.00013429
-8.17293e-05
-8.15209e-06
7.65331e-05
0.000162802
-0.000149876
-1.29254e-05
-8.02514e-05
-2.67098e-05
5.63198e-05
6.67234e-05
-0.000126458
0.000134678
-0.000116843
4.07063e-05
-6.6829e-05
4.8431e-05
1.02036e-05
-0.000299241
-1.54092e-05
-3.65639e-06
3.86132e-05
3.01717e-05
-6.51286e-05
6.23967e-05
-5.59829e-05
0.000212878
-0.000219292
5.28469e-05
-9.79422e-06
0.000122583
-8.66699e-05
7.35875e-05
-0.000125889
3.89951e-05
-8.1914e-05
-1.04804e-05
-4.27548e-05
-4.22444e-05
4.02143e-06
-9.56965e-06
-0.000265778
-4.39337e-05
0.000218442
-0.000319548
9.60612e-05
0.000184365
-7.35652e-06
-7.09433e-05
6.19888e-05
4.4162e-05
-4.59375e-05
2.30682e-05
-2.75046e-05
9.3286e-05
-1.65814e-05
-7.67046e-05
9.17296e-05
-0.000202842
0.000107202
2.629e-05
-5.27805e-05
-3.46763e-05
6.64876e-07
-0.000112843
-1.57242e-05
6.01616e-05
8.24394e-05
0.000276488
-0.00013223
4.51307e-05
-0.000142392
-2.21372e-07
2.68215e-06
4.79987e-05
-0.000165362
-0.000194028
-8.66428e-05
6.46085e-05
4.2648e-05
1.22071e-05
-4.31423e-05
2.4905e-05
0.000121901
-3.67076e-06
0.000104425
-0.000111319
-0.000147124
-4.10091e-05
3.56873e-06
3.18414e-05
-4.94597e-05
3.93925e-05
-3.8353e-05
-1.8094e-05
-0.000195084
0.000272006
-8.74745e-06
6.65667e-05
-5.73826e-05
-0.00013358
-0.00021375
0.00023601
-0.000134457
-4.01091e-07
-7.26688e-05
-0.000186005
1.48782e-05
-2.18291e-05
0.000195591
-0.000248904
-0.000295251
0.000311327
8.17306e-06
-8.40999e-05
-0.000128838
-0.000220678
0.000311427
-0.000171685
-7.34399e-05
-3.97817e-05
4.19536e-05
-3.91035e-05
-6.7824e-07
-3.49434e-07
-2.52722e-06
0.000265177
-0.0002623
3.41324e-05
-3.8799e-05
4.49216e-05
-4.62598e-05
-9.88021e-06
1.12183e-05
3.60649e-06
4.50144e-05
-4.31965e-05
-5.42439e-06
7.04128e-05
6.44327e-06
9.03564e-06
5.57941e-05
-2.60587e-05
3.12359e-05
-6.82049e-06
-4.04177e-05
1.41387e-05
-5.77001e-05
-0.000376606
-4.14435e-05
0.000379696
-4.72708e-05
0.000122512
-7.34132e-05
0.000148732
-6.23645e-05
-1.51549e-05
-6.59381e-06
6.66703e-05
-0.000420863
0.000212724
-0.000213039
0.00020917
-9.31086e-05
-4.91562e-06
0.000191392
-0.000101686
-0.000139274
0.00019345
0.000235076
-0.00024807
0.000235505
0.000114492
-5.91739e-05
-0.000137103
0.000198161
-4.5783e-05
9.68767e-08
-3.71571e-05
0.000164193
3.51466e-07
4.16204e-05
-5.55674e-05
-5.52657e-05
-0.000138456
-9.27774e-06
-4.89388e-05
-3.4892e-05
0.000210393
0.000101007
1.20002e-05
0.000134675
5.8699e-05
-3.4401e-06
9.40997e-05
-6.15344e-05
-0.000173086
-2.40502e-05
1.11312e-05
-3.9098e-06
-0.000108668
0.000195153
1.44269e-05
-3.50911e-05
1.20228e-05
5.43041e-05
-6.18746e-07
4.69885e-05
0.000218642
-0.000149335
7.59973e-05
5.8966e-05
-6.91059e-05
-6.42518e-05
3.45901e-05
-6.67698e-05
9.98051e-05
0.000201521
0.000173813
0.000194254
0.000171556
0.000149905
-0.000141539
0.000179074
-4.1986e-05
-3.05477e-05
4.28454e-05
-3.56624e-05
4.51987e-05
-5.34663e-06
0.000179812
-9.81245e-07
2.22536e-05
7.41672e-05
-1.9709e-05
-6.15536e-05
0.000158593
9.22659e-05
-0.000189305
-4.19829e-05
0.000109583
0.000108372
-6.03671e-05
-5.42356e-06
3.40306e-05
7.3641e-07
0.000225625
0.000187437
-0.000111697
2.53862e-05
-2.13849e-05
-4.30885e-06
1.88749e-05
-1.0217e-06
7.34128e-05
1.66955e-05
-0.000200817
0.000196966
-0.000267524
-2.51464e-05
-6.01414e-05
3.80581e-05
6.15551e-06
-0.000288462
0.000214448
-3.4654e-05
-4.5224e-05
-2.114e-06
-6.2378e-05
4.73104e-05
-4.77421e-05
0.00028107
7.24819e-05
1.84443e-05
-5.89746e-05
-2.24752e-05
-4.75872e-05
0.000138196
0.000125317
-4.89864e-05
2.58495e-05
2.31369e-05
-0.000153949
-4.88931e-05
4.18253e-05
7.06784e-06
0.000103851
-0.000406396
0.000389981
-0.000243511
0.00013969
-1.28923e-05
-0.000109294
6.90258e-05
5.41426e-06
0.000275353
8.76808e-05
-0.000168036
0.000207411
-6.12086e-05
5.69182e-05
-5.70863e-05
-7.58698e-06
8.13185e-07
4.31185e-05
8.58409e-05
-1.35793e-05
-9.76147e-05
-0.00018444
0.00023314
-0.000128412
-6.05452e-05
-9.99736e-05
6.82905e-05
-5.86619e-06
5.76524e-05
-5.84485e-05
-7.60932e-05
8.34135e-05
-7.32038e-06
-6.60122e-05
-1.0081e-05
5.52026e-05
-4.35797e-05
-1.16229e-05
-1.08095e-05
-0.000102793
0.00011842
-1.56271e-05
-8.69113e-05
-1.58818e-05
0.000125652
0.00012239
3.26127e-06
8.73602e-05
0.000130279
-7.88912e-06
0.000150854
-2.05748e-05
8.64976e-05
8.62551e-07
8.0348e-05
6.94897e-05
-3.18834e-05
-0.000280635
5.85486e-05
1.09411e-05
9.65545e-06
-7.67203e-05
0.000164664
0.000236323
6.30669e-05
-7.75685e-05
4.41281e-05
-2.04585e-06
-4.20822e-05
0.000172144
0.000303168
0.000113571
-1.83834e-05
0.000148948
2.86113e-05
-1.33665e-05
-1.80875e-05
2.72179e-05
6.05447e-05
5.96104e-06
-0.000158926
-1.20106e-05
-6.00249e-05
5.79919e-05
-5.98596e-05
0.000157116
-0.000175772
1.86564e-05
1.75061e-05
-9.44931e-05
7.85026e-06
4.33928e-05
-4.46745e-05
-0.000235743
9.64589e-05
0.000173576
0.000143668
1.34477e-05
5.4678e-05
-5.02784e-06
6.90932e-05
-4.46707e-05
0.000188553
-1.64088e-05
-8.86228e-05
-2.01132e-05
6.33801e-05
0.000315824
0.000167844
1.29612e-05
0.000168534
5.80889e-05
-3.49372e-05
0.000179151
-0.000222718
3.02739e-05
-4.38194e-05
2.93833e-05
3.13703e-05
-7.3532e-05
5.52026e-05
0.000179127
0.000101454
3.60324e-05
-0.000262167
0.000287537
0.000175213
0.000250834
-0.000192406
1.66337e-05
0.000199311
-1.0758e-05
-0.000118848
3.91452e-07
0.000136411
-0.000124354
-0.000184429
-0.000115981
-0.000269461
-0.000198961
6.55551e-06
-0.000153836
-0.000198717
4.08967e-06
0.000313768
5.52489e-05
-4.39324e-05
0.000413928
-6.83635e-05
-2.11445e-05
-0.000157906
-2.3265e-06
-0.000124578
0.000123597
-3.41947e-05
0.000170606
0.000116407
-8.61009e-05