# vtk DataFile Version 2.0
track0
ASCII
DATASET POLYDATA
POINTS 9 double
2.01419e-18 0.210526 1e-06
0.000106387 0.212052 1e-06
0 0.212498 1e-06
4.34675e-19 0.631579 1e-06
3.4774e-19 0.631579 1e-06
2.60805e-19 0.631579 1e-06
1.7387e-19 0.631579 1e-06
8.6935e-20 0.631579 1e-06
0 0.631579 1e-06
LINES 2 11
3 0 1 2
6 3 4 5 6 7 8
POINT_DATA 9
 FIELD attributes 1
p 1 9 float
6.46215e+22 6.38757e+22 6.37232e+22
-1.0351e+22 -1.0351e+22 -1.0351e+22 -1.0351e+22 -1.0351e+22 -1.0351e+22
