# vtk DataFile Version 2.0
track0
ASCII
DATASET POLYDATA
POINTS 9 double
2.01419e-18 0.210526 1e-06
0.000106387 0.212052 1e-06
0 0.212498 1e-06
4.34675e-19 0.631579 1e-06
3.4774e-19 0.631579 1e-06
2.60805e-19 0.631579 1e-06
1.7387e-19 0.631579 1e-06
8.6935e-20 0.631579 1e-06
0 0.631579 1e-06
LINES 2 11
3 0 1 2
6 3 4 5 6 7 8
POINT_DATA 9
 FIELD attributes 1
U 3 9 float
6.85986e-06 	9.8356e-05 	-1.95167e-27 -6.4691e+08 	2.71161e+09 	-1.04483e-14 0 	0 	0
-1.08994e-06 	8.6688e-06 	0 -8.71948e-07 	6.93504e-06 	0 -6.53961e-07 	5.20128e-06 	0 -4.35974e-07 	3.46752e-06 	0 -2.17987e-07 	1.73376e-06 	0 0 	0 	0
