/*--------------------------------*- C++ -*----------------------------------*\
| =========                 |                                                 |
| \\      /  F ield         | OpenFOAM: The Open Source CFD Toolbox           |
|  \\    /   O peration     | Version:  v1912                                 |
|   \\  /    A nd           | Website:  www.openfoam.com                      |
|    \\/     M anipulation  |                                                 |
\*---------------------------------------------------------------------------*/
FoamFile
{
    version     2.0;
    format      ascii;
    class       volScalarField;
    location    "0.61";
    object      epsilon;
}
// * * * * * * * * * * * * * * * * * * * * * * * * * * * * * * * * * * * * * //

dimensions      [0 2 -3 0 0 0 0];


internalField   nonuniform List<scalar> 
1431
(
84.8372
28.2739
4.80105
4.15334
10.2125
40.091
0.689549
391.299
52.0078
0.620316
135.551
330
40.3948
12.752
37.7916
0.495605
30.1224
6.7491
27.8072
18.9748
274.634
16.8722
53.4377
388.623
53.8108
15.3028
93.1562
22.5631
54.7343
34.528
20.1763
28.6821
18.5884
6.01594
36.8953
0.50909
96.5707
0.709727
0.469717
22.1949
76.2141
77.5732
31.0747
0.416837
66.2364
13.4938
39.0369
79.2823
0.923233
0.659801
19.9909
0.409537
22.5001
360.466
27.9443
9.72093
10.2673
374.758
49.796
19.223
30.0864
0.686645
1.3563
0.833494
0.537335
1.12434
13.9194
0.974653
8.05941
26.9139
394.965
8.47768
4.79759
4.79069
16.1596
17.9905
8.92362
0.723191
0.59962
7.91624
35.8989
9.09991
164.924
47.0874
172.358
4.55947
12.1688
33.8669
200.705
226.758
43.6759
14.0363
0.696484
0.390755
34.6742
36.4397
365.34
109.301
0.454828
5.36455
16.7841
0.525184
35.8982
13.1455
0.590656
37.5454
39.688
145.998
47.9065
40.2646
15.4877
49.821
2.62455
76.4145
35.1474
12.675
12.3369
4.93737
5.42635
1.0669
38.3511
57.1513
300.488
21.104
307.231
0.628451
5.73355
21.8918
6.81161
17.8609
36.0087
7.92726
12.2684
28.3242
28.1143
1.67332
0.473444
0.919218
187.678
0.966845
0.621767
18.5986
47.6705
14.645
65.8565
18.9985
1.99525
18.4941
0.430297
22.2384
1.47515
10.6596
24.3983
4.91672
33.3713
0.586455
169.27
40.9034
205.213
7.32573
188.125
53.078
6.9157
8.96659
294.192
78.8269
80.4524
43.4479
0.722474
74.7147
204.196
18.6702
19.5201
195.72
36.4788
166.082
11.4408
46.6007
22.7272
32.9203
0.97717
0.453583
10.329
640.256
43.8761
80.097
159.973
48.492
23.6387
196.208
21.3389
25.0931
23.923
188.896
6.00782
52.5125
95.4113
30.6564
5.61796
51.9301
16.0775
7.17464
108.557
14.765
36.6859
22.6765
33.9188
3.82769
236.004
23.9013
187.952
7.83533
36.9305
38.1416
205.092
11.117
26.0556
31.3859
10.1079
97.4806
33.3815
11.6284
83.3355
8.06685
36.1008
319.144
136.236
91.8704
33.9198
56.5963
385.913
19.3484
40.0174
22.2976
29.9366
199.787
33.7947
36.2828
20.4455
11.5328
7.76193
21.2768
269.349
28.8867
25.1272
48.0471
32.3112
109.67
35.416
0.613498
15.8424
161.564
7.29769
4.83229
21.9509
66.8233
7.21237
394.52
157.211
25.7249
31.0382
185.602
9.4777
10.5581
40.6047
131.249
56.0067
284.67
75.6902
10.2567
55.312
30.4764
22.9084
8.34624
180.2
19.6974
172.21
58.753
42.4291
48.8817
23.182
91.9285
19.016
11.9287
16.9304
143.83
70.1661
130.784
190.351
23.6085
4.86391
60.4725
81.738
13.9196
37.4432
35.8513
201.686
93.7126
12.3302
48.4318
21.1132
0.898032
17.9708
17.9695
63.1862
7.03196
30.6492
25.9481
80.7849
58.1078
65.8401
0.694749
1.22237
126.338
51.7914
82.2215
30.544
21.9185
6.05006
960.442
26.3707
67.1777
3.54133
8.97118
35.9887
3.53473
3.48687
60.2658
392.227
5.41382
69.3733
10.7812
58.8347
22.7915
7.53024
21.2102
58.1858
186.361
37.7742
115.389
0.889752
24.5862
59.3801
72.2929
49.1303
31.8854
20.1291
171.009
52.1985
15.7404
40.8844
15.4782
11.8016
30.8374
17.4978
4.86121
187.601
143.654
156.466
72.3675
19.4896
64.2709
57.8398
13.467
6.56091
119.855
56.008
778.172
38.1002
20.2743
128.594
12.1463
216.359
17.7071
67.5268
479.2
34.1992
8.24448
24.4461
592.98
64.561
40.0791
4.6178
21.7862
1003.29
45.0913
26.007
49.4259
32.5549
19.1637
8.40317
26.7092
26.398
6.78332
179.064
14.7078
58.036
62.4407
59.0732
41.2891
37.153
62.9477
116.925
63.9369
3.90783
50.4173
40.9163
4.55937
13.7807
46.8593
43.0322
33.745
43.4064
39.0686
47.1687
10.8826
27.7713
2.80932
38.9578
40.0646
44.8152
43.473
12.5621
28.9452
37.0401
14.5867
12.9364
37.0443
3.33005
299.179
85.9012
92.1164
95.0991
99.5214
95.4761
88.782
86.974
87.6877
83.4431
84.9166
17.3092
173.906
14.9801
12.3882
9.69964
7.05152
2.44812
3.82253
38.9818
15.8717
18.0036
0.850722
1.11131
5.93438
1.39488
0.841591
20.8816
339.139
6.24254
10.0054
17.0785
0.636573
321.089
0.780177
11.3029
0.796653
7.33614
311.135
0.950561
299.069
0.445714
0.399936
8.31062
33.7151
187.352
162.078
1.7082
0.498943
3.10076
0.364382
32.5604
2.03078
191.461
0.386772
1.63445
33.0157
7.11453
3.01168
6.55234
0.485623
210.902
0.352496
5.29252
0.542698
38.3658
8.09215
4.04623
217.052
0.450786
38.4135
21.407
2.57605
15.4715
21.7366
204.143
163.661
14.6344
0.676087
1.02423
19.3587
0.75342
42.0581
7.31047
3.62767
21.1386
4.08129
19.9381
0.826268
50.8148
173.407
65.6933
2.53944
36.7347
6.49319
3.22942
6.18797
188.599
21.7405
17.917
6.68129
19.9226
14.3539
12.9777
95.7079
77.1281
4.03711
7.2013
172.584
2.6835
25.1227
46.3667
32.6785
77.8316
7.51751
54.8306
10.7052
13.7598
148.304
52.6493
84.1186
25.6061
24.6507
59.2396
33.7466
1.04874
86.7542
6.21068
22.5634
155.508
379.877
87.1366
166.59
84.1201
7.69977
650.933
4.78008
5.13972
8.53599
34.3083
61.3856
30.6501
75.6427
78.3213
2.38312
3.9
32.8521
5.8432
182.26
68.7
87.5544
33.4821
58.4754
68.9661
30.9684
33.3441
28.8274
25.4254
11.6355
4.98771
26.7211
50.2929
209.618
20.1003
17.0374
38.8607
65.5928
32.7124
26.6642
66.5664
212.538
155.771
9.92299
41.9645
10.7094
39.1733
40.0309
120.078
43.0751
3.68295
11.2558
6.04408
5.08711
25.895
64.9832
67.3021
59.1696
228.255
7.39167
30.5725
31.8234
44.9638
21.137
4.53756
30.996
8.52931
42.4653
71.2148
13.7968
47.8314
10.8107
18.2582
18.6715
0.616755
73.049
28.7904
33.2659
355.299
10.1852
67.6409
14.2934
60.5717
102.302
5.49829
39.511
161.817
8.45719
34.784
33.434
268.263
25.1991
34.1821
81.3643
158.107
36.8359
13.8976
36.4893
51.2343
46.0266
13.6865
199.361
190.251
66.167
23.6598
14.2977
25.5948
50.7683
21.678
5.61681
21.26
17.5428
33.9234
54.7636
281.234
80.9755
33.3548
34.4055
290.413
23.6422
53.1459
11.7795
16.1586
4.78576
24.6634
286.368
0.598058
9.79463
49.3321
56.3357
16.2181
105.033
130.764
40.9187
74.0114
85.1615
58.4293
94.9066
296.805
65.9209
50.012
81.0762
206.318
29.6624
37.2091
69.8315
130.915
307.605
137.459
250.095
17.0489
45.6033
61.7383
3.26916
45.2088
37.3237
2.69965
79.594
35.7089
71.301
5.26496
65.1185
80.1229
23.3324
158.852
27.1787
0.799753
67.6535
89.8173
34.7538
141.238
192.771
0.556441
103.123
42.7146
6.16335
158.775
39.6025
69.4774
346.743
296.534
6.08026
33.8619
53.0947
8.45666
65.0804
73.0491
38.7278
33.203
9.34318
62.8657
0.685396
2.6498
11.8914
27.3481
0.537977
496.958
58.1802
55.6373
5.30056
42.6223
2.28483
498.276
145.856
41.6138
1.36192
5.24927
41.9159
0.449842
0.622686
44.6978
9.40217
28.6978
38.7276
57.6158
63.2004
58.0336
19.0946
37.4096
9.52884
60.9237
17.8168
27.194
0.530575
24.2366
1.35494
133.644
154.065
43.1094
23.6983
20.2118
21.4088
80.3679
15.5494
32.6758
64.5563
29.876
44.0093
5.23441
41.1998
5.43511
32.396
23.031
24.7028
8.90305
78.6948
72.1124
859.6
29.4387
43.4809
6.26647
45.4146
706.186
16.7025
14.0599
186.142
75.3884
365.059
51.8727
14.2644
97.8333
59.622
5.1737
124.798
18.6828
70.23
166.571
34.4559
62.0102
18.3471
12.3006
0.440522
90.0209
388.054
323.195
21.3707
20.7271
345.231
54.697
101.955
41.4963
6.78305
30.7692
0.612306
0.491007
31.5742
27.5893
205.369
0.511272
423.592
13.7215
147.297
38.9015
19.2536
8.87978
9.6052
11.5
0.73306
18.9864
67.943
7.29408
0.491715
6.60587
24.5222
61.9391
14.7641
55.0979
50.6897
55.3823
0.388027
167.049
46.2222
74.4412
721.135
64.891
133.363
39.0506
10.3904
1.02923
106.192
47.483
78.8707
299.219
4.46807
70.2773
163.623
662.755
387.449
461.16
77.994
44.0348
47.7867
53.4783
50.7786
87.1998
41.7732
40.7156
35.5751
38.6196
39.9623
62.7615
95.9021
36.7702
45.4302
50.8888
34.7647
41.4974
41.2669
34.3549
40.8784
40.0779
34.9261
38.4646
49.9713
117.677
0.656777
10.2798
39.7992
16.4961
14.9524
259.732
38.2055
20.9564
12.9865
22.5888
1.22236
397.06
33.3378
5.83025
137.018
64.1726
62.3502
28.2497
13.3166
407.772
9.78042
36.7296
36.4024
22.2941
4.80399
2.67105
154.958
23.652
31.0825
45.544
56.7345
7.68642
17.5787
137.008
1.14222
0.438952
14.0523
4.56355
22.5314
54.1372
33.9478
16.0285
23.2136
0.781189
29.1217
7.62861
1.04545
7.56585
174.703
52.7099
24.5526
85.5182
9.27124
34.5413
5.52594
37.3608
13.8302
22.1509
23.0745
38.2733
369.502
3.50194
32.1709
9.20048
52.3263
1.0417
1056.88
47.7029
31.8225
0.569412
358.376
53.5924
166.542
0.585154
0.386057
5.85365
10.0678
4.16548
29.5682
40.3928
458.201
241.164
36.6339
50.9537
4.29599
47.7243
24.9636
40.1545
37.4909
28.5026
41.8985
89.814
71.3266
109.234
83.5501
4.9161
1.16311
28.7226
79.0193
57.2764
3.24526
32.5394
20.6678
24.2305
11.2247
28.4075
23.7331
189.24
476.235
0.814711
55.5105
36.3988
9.43054
58.4256
416.244
33.7935
44.8667
18.65
168.192
162.387
4.36818
14.2605
31.6721
31.0806
426.715
180.787
78.318
25.3831
19.7773
112.612
15.6645
64.304
13.7857
407.221
96.9241
353.816
155.549
62.9307
4.19929
42.608
9.90818
0.763537
9.28512
5.64456
7.60812
30.1461
91.8254
42.1698
50.5174
84.2255
172.161
0.528804
8.39974
65.4561
423.921
48.4107
399.83
105.532
60.9621
454.055
36.7309
475.632
477.047
494.813
369.071
374.176
350.878
493.423
315.507
3.7073
12.7865
12.0756
5.56226
9.98704
12.7571
32.8069
59.1908
89.1758
41.2955
64.9048
34.5319
6.04708
65.1814
0.815439
1.21634
22.6657
0.37508
26.0749
43.5984
25.1414
13.2971
9.94483
101.245
82.8924
35.297
42.7717
54.6276
5.63633
24.7692
878.006
27.0839
3.36471
36.3612
68.6214
0.50352
11.6151
175.012
0.470553
56.6534
6.31241
16.5655
5.41895
37.5228
27.8292
6.51655
5.32941
33.2829
8.62369
5.41241
85.1098
86.0174
0.555889
22.0433
18.5044
194.754
0.87533
179.139
282.803
22.1391
201.979
38.5543
12.2809
56.3836
158.086
10.1351
36.5866
49.3872
129.146
80.5059
36.6649
31.0384
10.9625
0.351451
73.4148
13.0022
24.731
126.355
249.995
226.581
122.558
22.3865
17.324
45.3721
3.93203
3.31866
8.73575
32.4151
10.8616
279.812
41.5225
0.745731
147.253
24.0028
12.7149
79.2829
1.36364
43.0438
211.587
69.9956
40.6864
0.56923
61.3797
59.9674
205.95
87.9061
380.19
0.483815
10.5715
33.3239
323.401
186.522
84.41
71.6975
55.9233
4.49496
403.084
9.74771
53.8245
31.9105
29.9607
10.4955
73.942
4.9831
45.3733
38.1869
207.556
8.2227
58.8053
23.628
22.6623
5.52368
4.09965
30.094
142.647
33.0797
73.6797
163.447
39.5809
42.8454
25.3554
20.5388
3.78246
29.9491
14.1015
44.0543
452.397
27.5722
897.234
33.428
29.6534
27.0879
141.121
29.0307
1.28487
3.72894
18.4675
101.24
2.81982
85.1824
99.4208
69.5899
15.339
16.9485
9.38661
5.35755
35.2963
262.487
66.3205
302.3
46.9835
5.86059
34.2303
30.9639
32.139
8.91868
8.6572
10.3258
5.2415
26.6322
368.357
29.4338
28.5894
0.632206
10.6176
31.5573
28.4792
13.3891
465.51
68.1112
100.315
154.73
6.81603
27.9501
44.1535
22.0853
201.95
45.0518
55.2332
39.9293
54.1063
25.5779
63.1185
24.1295
30.964
406.356
15.4187
8.30858
34.5843
54.5291
110.707
29.6161
36.9151
19.7607
349.853
9.21203
8.45316
0.557993
750.665
39.2152
68.7244
0.970696
11.1263
267.148
35.3494
306.77
3.55533
4.28676
24.1845
554.187
14.0938
433.332
218.967
0.53886
46.3872
221.458
344.118
96.9915
347.853
26.0442
6.51082
54.4347
39.1688
9.393
140.623
11.0509
83.3065
477.983
486.672
23.5394
35.9792
17.5328
188.273
4.49383
43.5437
16.0456
356.638
1.30729
19.9518
1.76122
121.149
93.4169
32.5569
9.80548
4.69133
3.99451
232.089
465.522
4.0735
40.3812
10.471
1.22498
17.6747
25.5644
10.4546
49.7094
4.30885
20.7226
20.8441
27.6312
229.795
26.6433
8.1751
36.6374
34.8495
5.01681
4.59854
52.0838
18.1316
4.52266
19.2831
21.2665
25.9036
8.5962
8.90165
230.238
197.639
88.5729
5.32273
4.43763
7.12784
0.517617
34.1296
0.700811
0.796263
10.1705
11.0588
10.8322
4.72673
201.11
38.7274
21.9081
46.8875
87.3835
177.141
30.6982
4.77321
7.24479
108.332
46.9236
203.543
1.18396
4.35494
3.34647
1.79164
1.39056
4.06508
0.864159
1.08173
5.46742
127.303
293.366
56.4686
110.162
10.3114
112.635
33.159
32.32
132.495
14.9057
11.9379
43.5364
105.213
12.9718
0.9187
71.839
83.6073
29.2264
13.6712
)
;

boundaryField
{
    frontAndBack
    {
        type            empty;
    }
    wallOuter
    {
        lowReCorrection 0;
        type            epsilonWallFunction;
        value           nonuniform List<scalar> 
96
(
54.7343
34.528
36.4397
281.234
290.413
286.368
105.033
85.1615
58.4293
296.805
50.012
206.318
69.8315
307.605
250.095
346.743
296.534
33.8619
37.4096
133.644
44.0093
166.571
34.4559
388.054
323.195
77.994
44.0348
47.7867
53.4783
50.7786
87.1998
41.7732
40.7156
35.5751
38.6196
39.9623
62.7615
95.9021
36.7702
45.4302
50.8888
34.7647
41.4974
41.2669
34.3549
40.8784
40.0779
34.9261
38.4646
36.7296
54.1372
33.9478
37.3608
22.1509
369.502
36.6339
109.234
55.5105
36.3988
33.7935
426.715
19.7773
15.6645
407.221
423.921
399.83
454.055
36.7309
475.632
477.047
494.813
369.071
374.176
350.878
493.423
315.507
3.7073
12.7865
12.0756
5.56226
9.98704
12.7571
34.5319
25.1414
37.5228
36.6649
380.19
30.094
452.397
465.51
55.2332
39.9293
14.0938
347.853
477.983
17.5328
)
;
    }
    inlet
    {
        type            fixedValue;
        value           nonuniform 0();
    }
    outlet
    {
        type            zeroGradient;
    }
    wallInner
    {
        lowReCorrection 0;
        type            epsilonWallFunction;
        value           nonuniform List<scalar> 
126
(
49.796
19.223
30.0864
0.686645
1.3563
0.833494
0.537335
1.12434
13.9194
0.974653
8.05941
26.9139
394.965
8.47768
4.79759
4.79069
16.1596
17.9905
8.92362
0.723191
0.59962
7.91624
35.8989
9.09991
5.36455
12.675
12.3369
4.93737
5.42635
1.0669
38.3511
57.1513
300.488
21.104
307.231
0.628451
5.73355
36.0087
7.92726
0.966845
0.621767
47.6705
14.645
1.99525
22.2384
10.6596
4.91672
294.192
0.97717
80.097
159.973
6.00782
187.952
10.2567
42.4291
48.8817
4.86391
201.686
93.7126
48.4318
0.898032
0.694749
1.22237
126.338
3.53473
3.48687
69.3733
115.389
0.889752
143.654
64.2709
57.8398
4.55937
2.80932
21.7366
21.1386
6.68129
172.584
32.6785
148.304
24.6507
155.508
3.9
182.26
4.98771
209.618
155.771
4.53756
0.616755
161.817
158.107
130.915
137.459
2.28483
133.363
106.192
7.56585
249.995
23.5394
35.9792
108.332
46.9236
1.18396
3.34647
1.79164
1.39056
0.864159
5.46742
127.303
293.366
56.4686
110.162
10.3114
33.159
32.32
132.495
14.9057
11.9379
43.5364
105.213
12.9718
0.9187
71.839
83.6073
29.2264
13.6712
)
;
    }
    procBoundary3to1
    {
        type            processor;
        value           nonuniform List<scalar> 
48
(
96.0103
83.7267
75.7093
86.0298
47.4915
83.0882
83.7267
19.9034
95.0669
5.31129
5.31129
6.3694
6.3694
10.8686
10.9117
6.4639
6.83606
7.88509
6.83606
6.12582
6.63762
4.83161
6.12582
32.638
5.29181
4.05804
3.4258
4.83161
3.81443
17.0923
17.0923
8.99044
8.99044
95.0669
4.12877
49.4532
38.4003
5.29181
105.124
40.4295
10.8686
60.9261
79.3265
6.12582
11.0545
54.8758
43.8763
8.38994
)
;
    }
    procBoundary3to2
    {
        type            processor;
        value           nonuniform List<scalar> 
29
(
1.92754
1.92754
2.34355
1.70086
18.9813
1.56005
5.28926
1.56768
1.52388
1.27847
0.961218
12.7713
2.47598
3.61586
4.32208
3.45249
1.73299
1.50434
2.26577
3.73047
4.06871
1.73299
2.3874
1.50434
4.56996
1.86172
1.50434
11.0457
11.0457
)
;
    }
}


// ************************************************************************* //
