/*--------------------------------*- C++ -*----------------------------------*\
| =========                 |                                                 |
| \\      /  F ield         | OpenFOAM: The Open Source CFD Toolbox           |
|  \\    /   O peration     | Version:  v1912                                 |
|   \\  /    A nd           | Website:  www.openfoam.com                      |
|    \\/     M anipulation  |                                                 |
\*---------------------------------------------------------------------------*/
FoamFile
{
    version     2.0;
    format      ascii;
    class       volScalarField;
    location    "0.61";
    object      nut;
}
// * * * * * * * * * * * * * * * * * * * * * * * * * * * * * * * * * * * * * //

dimensions      [0 2 -1 0 0 0 0];


internalField   nonuniform List<scalar> 
1431
(
0.00452533
0.0119773
0.000990221
0.00151426
0.00158719
0.00886824
0.00133242
0.00942571
0.00811957
0.000669065
0.00420875
0.0121481
0.0122295
0.00193669
0.00196415
0.00105098
0.00196665
0.00112741
0.00191373
0.00146208
0.0055523
0.00423928
0.00630191
0.0154063
0.00665925
0.00684292
0.00374167
0.00192722
0.000836949
0.000750616
0.00205783
0.00246566
0.00189995
0.001089
0.011142
0.000964069
0.0128146
0.000661159
0.000530741
0.0022088
0.00596246
0.00805179
0.0105436
0.000738408
0.0035402
0.0019176
0.00298407
0.00354928
0.00172322
0.00126731
0.00845102
0.000772168
0.00924337
0.0132918
0.0113314
0.00439419
0.000998433
0.0138089
0.00178474
0.00123178
0.00180199
0.000495289
0.000516896
0.000501634
0.000277098
0.000360956
0.00110127
0.000479643
0.000947425
0.00127196
0.00400473
0.00108199
0.000764435
0.000760634
0.00145506
0.00109362
0.000877308
0.000414985
0.00049372
0.000982891
0.0017233
0.000917748
0.0120907
0.00356878
0.00622442
0.00398101
0.00322684
0.00364269
0.00980114
0.0124624
0.00181208
0.00154968
0.000790151
0.00105156
0.0105478
0.000700131
0.0121753
0.018263
0.000684516
0.000884042
0.00606228
0.000576187
0.00250097
0.00124258
0.000583997
0.00234864
0.00285586
0.00341149
0.00486845
0.00216868
0.00127795
0.0135596
0.00166146
0.00500957
0.012562
0.00138706
0.00130655
0.000890097
0.000765848
0.000420568
0.00136347
0.0018832
0.00230884
0.00125201
0.00274894
0.000390177
0.000902125
0.00309958
0.00134718
0.00610709
0.00133407
0.000839485
0.00704943
0.00145232
0.00175956
0.00126561
0.00122035
0.000884063
0.0123935
0.000392501
0.000405542
0.00197358
0.00149458
0.000894186
0.00616981
0.00176223
0.00057066
0.00753764
0.000910521
0.00132654
0.000856825
0.00122422
0.00234222
0.000807437
0.00324678
0.00120209
0.00939607
0.0136703
0.0127837
0.005981
0.0157388
0.0140292
0.00200258
0.0048324
0.00289127
0.00434799
0.0041929
0.0116657
0.00107901
0.016464
0.0161242
0.00836753
0.00215536
0.0127631
0.0133167
0.00876771
0.0062994
0.00608421
0.00947927
0.011103
0.000369622
0.000796886
0.00530788
0.0189456
0.00649367
0.00125791
0.00157285
0.0147923
0.00252606
0.00689599
0.00244443
0.00249724
0.00254992
0.00375367
0.000791902
0.01444
0.0179043
0.00987147
0.00111075
0.0016732
0.00844296
0.00296802
0.00427101
0.0038855
0.0115578
0.00255868
0.00232298
0.000688489
0.0143448
0.00245126
0.00207038
0.00117316
0.00285023
0.00235128
0.0117656
0.00143921
0.002699
0.0100276
0.00539034
0.0041181
0.00305852
0.00554963
0.00257493
0.00413481
0.00337695
0.0165173
0.00453901
0.0174706
0.00268654
0.00311478
0.00590147
0.00205043
0.00253926
0.00246737
0.00258407
0.0175007
0.00285855
0.00265968
0.00232519
0.00623612
0.00644759
0.00984472
0.0153754
0.00267606
0.00256194
0.00400452
0.00277675
0.00402863
0.00321903
0.00116772
0.0028318
0.0124473
0.00584074
0.00206253
0.00252982
0.00830123
0.00562742
0.0175581
0.0183483
0.00258773
0.00155397
0.0122638
0.00519166
0.00578267
0.00360272
0.00488986
0.0120639
0.00455834
0.0034971
0.000672779
0.00515963
0.00284497
0.0107946
0.00493792
0.0144685
0.00200379
0.0136818
0.00356405
0.00096113
0.00143281
0.00974765
0.0141296
0.00174567
0.00563314
0.00891238
0.0175045
0.00798921
0.0186692
0.00540242
0.0109564
0.000613364
0.010832
0.0173508
0.007177
0.00274464
0.00246914
0.00189006
0.00141684
0.00157314
0.0010022
0.00880454
0.000359066
0.00954604
0.00779865
0.00344946
0.00528927
0.0122507
0.00247077
0.00941199
0.0152289
0.0140565
0.000345342
0.00047302
0.0013977
0.00962801
0.0169684
0.0100729
0.0101137
0.0015863
0.0143461
0.0113066
0.0158423
0.000865449
0.00450587
0.0092861
0.000657515
0.000581499
0.00869248
0.0148466
0.00248154
0.0011144
0.00206853
0.00900456
0.00499689
0.00624162
0.00858672
0.00860768
0.0177793
0.00891502
0.00135938
0.000369028
0.00937509
0.0115218
0.00564972
0.00859118
0.00259602
0.0100009
0.013619
0.012968
0.00740728
0.00599867
0.00189084
0.00536749
0.0118373
0.00191801
0.00275711
0.00601398
0.00190561
0.0109631
0.00700603
0.00449868
0.00125193
0.00104876
0.00827265
0.00171155
0.00387188
0.00757572
0.0185891
0.00252693
0.00209389
0.00407034
0.00251801
0.0110951
0.00872292
0.00602937
0.0193407
0.0125144
0.00244333
0.0100953
0.0197153
0.0150555
0.00818389
0.0014775
0.00183348
0.0178286
0.00930885
0.0107341
0.00808529
0.00872015
0.00908525
0.00674613
0.0106611
0.0105061
0.00477022
0.0177571
0.00682731
0.0139285
0.014074
0.00702106
0.0102709
0.0122855
0.00625585
0.0178493
0.0085345
0.0028726
0.0130622
0.00846615
0.000464902
0.00790692
0.0128467
0.0131783
0.0100052
0.0125667
0.0125368
0.00806143
0.00150351
0.0110954
0.000383592
0.00988424
0.012249
0.00353821
0.0129026
0.00588584
0.0114027
0.0119396
0.00253208
0.00199373
0.0031826
0.00178348
0.0141993
0.0160922
0.0161268
0.0158995
0.0160695
0.0158324
0.0157939
0.0160752
0.0154528
0.0158653
0.0156013
0.00217398
0.0119247
0.0020257
0.00192572
0.0016135
0.0015458
0.00114777
0.00137112
0.00371524
0.00350627
0.00313396
0.00135624
0.00170025
0.00223623
0.00175103
0.00156989
0.00455058
0.0163385
0.00216
0.00247106
0.00397428
0.00150732
0.0154803
0.00137282
0.00314318
0.0015605
0.00189356
0.014742
0.00145585
0.0139183
0.000912605
0.000837401
0.00152583
0.00534024
0.0122989
0.0119902
0.00139853
0.00137287
0.00111376
0.000912456
0.00545579
0.0010646
0.0121858
0.000979069
0.000909582
0.00522261
0.00141925
0.000968759
0.00175685
0.00125243
0.0118068
0.000964299
0.00164126
0.00142186
0.00429296
0.00152838
0.00147448
0.011049
0.00108315
0.00256552
0.00803197
0.00240792
0.00163899
0.0009202
0.0105055
0.01198
0.00223433
0.00125964
0.00153193
0.00217659
0.00144496
0.00428661
0.00167535
0.00177882
0.000809142
0.0034568
0.00806757
0.00158635
0.00476665
0.0114923
0.00366725
0.00230099
0.0034377
0.0040508
0.00283068
0.00578102
0.00941367
0.00216439
0.00203286
0.000519831
0.00980745
0.00613447
0.00612549
0.00582174
0.0148617
0.00315874
0.00199929
0.00174558
0.00254572
0.00212909
0.0129865
0.00126525
0.00542515
0.00408954
0.00403188
0.00268401
0.00716653
0.00157567
0.01356
0.0144768
0.010682
0.0010118
0.00642678
0.0114101
0.00101127
0.00400471
0.00603619
0.00808847
0.00164169
0.00651267
0.0146187
0.00945013
0.0152849
0.00423043
0.00930587
0.00187773
0.00277484
0.00451244
0.0117912
0.00904696
0.0110515
0.0087575
0.015814
0.00206747
0.000460524
0.00869704
0.00474223
0.00176147
0.0155609
0.0162775
0.0114153
0.00727714
0.00391299
0.0111055
0.0116099
0.00308616
0.00255714
0.00545838
0.000530068
0.00322441
0.014095
0.00161825
0.0082008
0.00809855
0.00344229
0.0145764
0.00446359
0.0108834
0.0163065
0.0134793
0.00163566
0.00530244
0.0121848
0.00499641
0.00960299
0.00712191
0.00182049
0.0119753
0.00200778
0.00199628
0.00535167
0.00256772
0.0102464
0.0153329
0.00550499
0.00860193
0.00463789
0.00609568
0.0111797
0.0111097
0.013881
0.0099851
0.000490865
0.0109906
0.00460908
0.0059238
0.0144752
0.0023871
0.0105696
0.00405329
0.00793196
0.00730002
0.000302718
0.0156754
0.0107799
0.010443
0.00970715
0.00731048
0.00466711
0.00748343
0.00647617
0.0165667
0.0057094
0.0120097
0.00164632
0.00460979
0.00897748
0.00897332
0.00432519
0.0109279
0.0117547
0.0113101
0.00160207
0.0110961
0.00232828
0.00790705
0.00743043
0.00625432
0.0078198
0.0140081
0.0171961
0.014022
0.00895189
0.00712426
0.00836375
0.00364151
0.00258816
0.0044031
0.00848546
0.00174809
0.0115966
0.0127981
0.00171955
0.0156639
0.011654
0.00328616
0.00174431
0.00526088
0.00453245
0.00713207
0.00868421
0.0027114
0.0107275
0.00171549
0.000943009
0.00127413
0.0140404
0.00532185
0.00235461
0.00113825
0.00560005
0.002822
0.00530715
0.00106242
0.000877246
0.0152124
0.00156155
0.0039539
0.000777624
0.0114648
0.00136106
0.0107608
0.0118956
0.000976986
0.00172264
0.00181035
0.00150332
0.00145571
0.00856518
0.0109851
0.00656153
0.00136829
0.00313239
0.00320152
0.000955724
0.00502776
0.0119861
0.00342098
0.00411473
0.00523896
0.00564112
0.00255422
0.0121076
0.0101531
0.000630731
0.00874508
0.00403272
0.0114436
0.00357279
0.0046403
0.0013208
0.0158725
0.0132678
0.00558885
0.00646895
0.003096
0.00539936
0.00168579
0.00169807
0.00613014
0.000762996
0.00777736
0.00605888
0.00411123
0.0156457
0.00652222
0.00444833
0.00164267
0.00540173
0.000923347
0.00231409
0.00579492
0.009384
0.000937998
0.0161704
0.00536036
0.00738094
0.00124931
0.00821166
0.000358621
0.0182585
0.00565898
0.00347812
0.00158059
0.00186576
0.00287888
0.00111447
0.00135579
0.0123321
0.00428803
0.00983
0.00244061
0.00472317
0.00578573
0.00671826
0.00853829
0.000758083
0.00255486
0.012311
0.00205274
0.0108856
0.000853887
0.0096883
0.00134463
0.00122793
0.0100077
0.00589445
0.0101314
0.00223445
0.00965853
0.00530493
0.00192346
0.00243541
0.0132413
0.00245992
0.000725733
0.00563167
0.00274641
0.00542728
0.0107866
0.00230435
0.00505412
0.00171758
0.0159954
0.0156443
0.011881
0.00254393
0.00957868
0.00200797
0.00579443
0.0180175
0.00420643
0.00723238
0.0108206
0.0113114
0.0173038
0.0141889
0.00242412
0.0145369
0.00596648
0.00144809
0.00516224
0.00868047
0.0150151
0.00129443
0.000770882
0.00877236
0.00197724
0.00230822
0.000966464
0.01505
0.00179611
0.00162997
0.00226438
0.00976803
0.0140089
0.00276821
0.0151813
0.0124239
0.0036625
0.010729
0.00126399
0.00136089
0.00232383
0.0105504
0.0168741
0.00100181
0.0180433
0.00339488
0.0164755
0.00277178
0.00203007
0.0049285
0.00372511
0.00119322
0.000621898
0.00719853
0.00487268
0.00127125
0.00113815
0.00311026
0.0106213
0.00538392
0.00747416
0.0144028
0.01153
0.0145556
0.000888371
0.0131625
0.0117955
0.0155578
0.0110919
0.0122569
0.00129678
0.00342903
0.00172174
0.00170531
0.00198405
0.0108775
0.00378777
0.0128564
0.00407024
0.00445675
0.00317925
0.0127382
0.0147492
0.00693359
0.000855205
0.00082652
0.000791978
0.000685662
0.00073026
0.000988909
0.000815411
0.000598082
0.000708024
0.000635965
0.000649499
0.000725936
0.00108373
0.000733528
0.000671941
0.000674343
0.000773422
0.000769424
0.000727048
0.000771272
0.00069391
0.000701204
0.000746033
0.000726517
0.014078
0.0128559
0.00139863
0.0063096
0.00652726
0.00393166
0.00197556
0.00705042
0.00231458
0.00214354
0.00287895
0.00163552
0.0012988
0.0165392
0.00462018
0.00152009
0.0144952
0.00420754
0.0151189
0.00312193
0.0035571
0.0183782
0.00128982
0.000737913
0.0108244
0.0100323
0.000849751
0.0022864
0.00997239
0.00154018
0.00393577
0.0134181
0.00676882
0.00417499
0.00782162
0.0083442
0.00151493
0.000633084
0.00222008
0.00401585
0.00947111
0.000929597
0.000753174
0.00786548
0.00982329
0.00148195
0.00376799
0.00204204
0.00121241
0.000520792
0.0100148
0.0137447
0.0102183
0.00210996
0.00150556
0.0047156
0.00586504
0.000680089
0.00281679
0.000732828
0.00953545
0.00268404
0.00145113
0.00127584
0.00324815
0.00134624
0.0142994
0.00147793
0.0157995
0.0124646
0.00269028
0.000947658
0.0109009
0.012656
0.017829
0.00125351
0.000864339
0.00608537
0.00271151
0.00119063
0.0109632
0.00263197
0.00706181
0.0129597
0.00070863
0.0125751
0.00367045
0.00272408
0.00463767
0.00333762
0.00281618
0.0033652
0.00353754
0.00433169
0.015725
0.00118263
0.0105629
0.0055162
0.00119064
0.00408085
0.00302153
0.00223378
0.000818151
0.0110852
0.00981499
0.0104183
0.000946738
0.0110069
0.0103207
0.00801376
0.00687547
0.00116387
0.000745383
0.0007187
0.00509899
0.0130527
0.0150255
0.00075102
0.00808537
0.00201288
0.0148371
0.0110725
0.00462262
0.00252755
0.00266138
0.0110693
0.00188057
0.00635007
0.0113509
0.0106138
0.000684729
0.00323517
0.000608991
0.0106928
0.00711997
0.00215825
0.0132368
0.0110775
0.0114053
0.0107152
0.00264363
0.0118529
0.00542018
0.000957868
0.002371
0.00597681
0.00361608
0.0110137
0.0131886
0.00988639
0.0140552
0.0132435
0.014493
0.00101684
0.00124682
0.0152599
0.00203229
0.0116987
0.00229021
0.014834
0.014588
0.00199273
0.000720085
0.00186686
0.00175325
0.00170968
0.0022745
0.00201274
0.00191834
0.00184975
0.00193473
0.000385196
0.000498063
0.000421169
0.000391237
0.000332761
0.000437021
0.0109053
0.00289783
0.0146557
0.00233254
0.0104601
0.000739215
0.00304494
0.0154332
0.00120738
0.00198726
0.00951518
0.000881608
0.00285677
0.00727704
0.0007814
0.00197874
0.00195085
0.0100714
0.0162568
0.00301462
0.0113591
0.00344409
0.00286323
0.0105889
0.0165075
0.0029927
0.00113605
0.00400496
0.0139189
0.00137801
0.00576335
0.00701422
0.00126123
0.0109536
0.00119727
0.00292734
0.00559845
0.000665712
0.0039509
0.00211452
0.00116804
0.00381598
0.00140368
0.00127275
0.0149363
0.0117285
0.000963176
0.00390504
0.0075833
0.00342772
0.00102224
0.00578786
0.0106807
0.00824944
0.00746205
0.00308328
0.00166267
0.00428499
0.00530652
0.0026846
0.0114697
0.00353138
0.00380103
0.0128934
0.000693334
0.00238859
0.00279229
0.000983182
0.0112574
0.00375843
0.0100584
0.0052402
0.00204116
0.00935785
0.016782
0.00240835
0.00872547
0.00154853
0.00111067
0.00113257
0.00223843
0.00276008
0.00127392
0.013211
0.0123328
0.00128939
0.0043405
0.00992916
0.00310918
0.0138172
0.0014739
0.00370097
0.00643659
0.0034081
0.011552
0.00141633
0.00410277
0.0070335
0.00509835
0.0135145
0.00143312
0.000496786
0.00164003
0.00311615
0.00824963
0.012607
0.0051568
0.012411
0.00934905
0.00273228
0.0172626
0.00167177
0.00404377
0.00516073
0.00257348
0.00137114
0.0119858
0.00434106
0.0012595
0.00287832
0.0104956
0.00196475
0.0142535
0.00849612
0.00480964
0.00395194
0.00118237
0.000804684
0.0114424
0.00349562
0.0137927
0.00778643
0.011861
0.0125298
0.0105034
0.00183041
0.00330802
0.00197456
0.00136385
0.0111438
0.00193917
0.0108887
0.019824
0.00224208
0.00561299
0.0107569
0.00789327
0.0105612
0.000844034
0.00210833
0.00546497
0.00213523
0.00119934
0.00482323
0.00459948
0.0054892
0.00166338
0.00857502
0.00273065
0.00515689
0.0106997
0.00912312
0.01024
0.00657892
0.00899655
0.00346141
0.0105741
0.0109989
0.00362888
0.00190024
0.00283488
0.00290364
0.00480849
0.0107019
0.00715806
0.0108642
0.0110221
0.00140161
0.0021052
0.00259804
0.0106118
0.00147915
0.00192914
0.0123995
0.0155115
0.0104351
0.00176452
0.0108657
0.0118463
0.00947871
0.00661706
0.0034068
0.000681844
0.000676392
0.00171298
0.00334124
0.00224632
0.0025485
0.00317329
0.0159423
0.00774084
0.00142955
0.00495508
0.0132029
0.00392698
0.002541
0.00255228
0.00225852
0.0150882
0.00492637
0.00184006
0.001478
0.0193505
0.0100941
0.0135111
0.00158828
0.00323239
0.00379568
0.00643982
0.0100746
0.00145466
0.00408827
0.00403417
0.018955
0.00055886
0.00732549
0.0127425
0.00128471
0.00371749
0.00685895
0.0115569
0.0140685
0.00194806
0.00481018
0.00111675
0.00805676
0.00157059
0.00187862
0.0076043
0.00299098
0.00944631
0.00110941
0.0145323
0.000871218
0.000973096
0.000648971
0.0065866
0.00509167
0.00286826
0.00163745
0.0152869
0.00211766
0.00436171
0.00176971
0.0107421
0.00245291
0.00227739
0.00244939
0.00344109
0.00389082
0.010212
0.0187017
0.0040082
0.0106614
0.00241082
0.00162336
0.00150284
0.00233576
0.0020783
0.0108211
0.00383657
0.0018173
0.00202977
0.00237014
0.0119011
0.00232714
0.0018169
0.00247093
0.00265559
0.00327545
0.00528782
0.0109613
0.00382162
0.00381182
0.00197667
0.0023032
0.00292583
0.00204871
0.000909193
0.011098
0.0091746
0.00227653
0.00271691
0.00371657
0.00170212
0.00143532
0.00283395
0.00135235
0.00129678
0.00194843
0.00184547
0.00113434
0.00414159
0.0153006
0.00226344
0.0021841
0.0130837
0.0033058
0.010164
0.0108841
0.00398868
0.00203568
0.00132899
0.00104498
0.00387936
0.000512562
0.00256036
0.000570656
0.000389144
0.000382917
0.00155422
0.000337094
0.000653048
0.000476023
0.00222897
0.00304604
0.00173686
0.00192287
0.000728648
0.00134598
0.000948462
0.00100139
0.00165674
0.000716239
0.000726979
0.00164603
0.00157501
0.000829748
0.000350436
0.00147135
0.00188921
0.00110331
0.000849933
)
;

boundaryField
{
    frontAndBack
    {
        type            empty;
    }
    wallOuter
    {
        type            nutkWallFunction;
        Cmu             0.09;
        kappa           0.41;
        E               9.8;
        value           nonuniform List<scalar> 
96
(
0.000100001
9.05615e-05
8.47565e-05
0.000196715
0.00019934
0.000196284
0.00013485
0.000126615
0.000106028
0.000180341
9.4663e-05
0.000158881
0.000117209
0.000206317
0.000169043
0.000193514
0.000194441
9.20444e-05
9.26928e-05
0.000144582
8.87303e-05
0.00015173
9.29318e-05
0.000205127
0.000187219
0.000102209
9.90979e-05
9.50736e-05
8.26786e-05
8.79053e-05
0.000117264
9.7875e-05
7.27002e-05
8.56643e-05
7.71999e-05
7.87978e-05
8.74394e-05
0.000127808
8.86512e-05
8.12736e-05
8.15088e-05
9.32862e-05
9.26215e-05
8.77424e-05
9.30421e-05
8.39027e-05
8.47508e-05
9.01144e-05
8.77068e-05
8.90522e-05
0.000110475
9.08851e-05
8.23364e-05
8.99648e-05
0.000168091
8.5668e-05
0.0001387
8.95241e-05
8.68308e-05
9.06554e-05
0.000213966
8.43028e-05
7.52948e-05
0.000242658
0.000229648
0.000256284
0.000225545
8.7016e-05
0.000212459
0.000200481
0.000195853
0.00025466
0.00022757
0.000217707
0.000210603
0.000219407
4.79988e-05
6.18124e-05
5.22335e-05
4.87667e-05
4.12023e-05
5.42756e-05
8.92969e-05
9.56407e-05
8.07096e-05
8.39477e-05
0.00016619
9.82731e-05
0.000220074
0.000219004
8.218e-05
8.18532e-05
6.92442e-05
0.000220782
0.000130803
8.00696e-05
)
;
    }
    inlet
    {
        type            calculated;
        value           nonuniform 0();
    }
    outlet
    {
        type            calculated;
        value           nonuniform List<scalar> 9(0.0185891 0.0178286 0.00182049 0.0161704 0.011881 0.00687547 0.00215825 0.00342772 0.0106807);
    }
    wallInner
    {
        type            nutkWallFunction;
        Cmu             0.09;
        kappa           0.41;
        E               9.8;
        value           nonuniform List<scalar> 
126
(
0.000203001
0.000146559
0.000206027
5.8683e-05
6.25346e-05
6.14561e-05
3.30059e-05
4.22901e-05
0.000132119
5.74466e-05
0.000110633
0.000147844
0.000427491
0.000125682
9.23646e-05
8.97638e-05
0.000166579
0.000128577
0.000106321
5.07311e-05
5.9153e-05
0.00011897
0.0001969
0.000109457
0.000106445
0.000160613
0.00015016
0.000106876
9.23204e-05
5.12006e-05
0.000157984
0.000214888
0.000258173
0.000145268
0.000303213
4.70783e-05
0.000109224
0.000155306
9.75928e-05
4.83829e-05
5.03339e-05
0.000172446
0.000108562
6.95037e-05
0.000154887
0.000141585
9.67425e-05
0.00031748
4.335e-05
0.000146911
0.000181015
9.55804e-05
0.000234056
8.09171e-05
0.000114751
0.000166032
7.28971e-05
0.000214482
0.000164162
0.000119286
4.40674e-05
4.16875e-05
5.61645e-05
0.000162215
8.15064e-05
7.11856e-05
0.000131627
0.000158108
4.52578e-05
0.00021655
0.000146283
0.000124403
5.63393e-05
4.69147e-05
9.84995e-05
8.49982e-05
6.30084e-05
0.000198984
0.000140655
0.000180947
0.000110967
0.000188026
5.59258e-05
0.000201329
6.32228e-05
0.000186893
0.000187109
5.88825e-05
3.56832e-05
0.000189972
0.000184447
0.000198139
0.00017386
4.39567e-05
0.000151506
0.00022568
6.2048e-05
0.000230764
0.000102234
0.000115465
0.000154295
0.000125327
6.12918e-05
6.31631e-05
4.73642e-05
4.66106e-05
4.08059e-05
5.71908e-05
0.000248725
0.00033285
0.000198351
0.00021744
8.68796e-05
0.000112484
0.000118767
0.00019064
8.64755e-05
8.71016e-05
0.000188524
0.000182762
0.000100874
4.22236e-05
0.000169681
0.000215644
0.000132085
0.000101237
)
;
    }
    procBoundary3to1
    {
        type            processor;
        value           nonuniform List<scalar> 
48
(
0.0120937
0.00475278
0.0059238
0.00980468
0.00347396
0.00359524
0.00475278
0.00946148
0.0160829
0.00184748
0.00184748
0.00195437
0.00195437
0.0027963
0.00355882
0.00179435
0.0014821
0.00162508
0.0014821
0.00145566
0.00231761
0.00192323
0.00145566
0.00206946
0.00149655
0.00140513
0.00214801
0.00192323
0.00323146
0.00145051
0.00145051
0.0061235
0.0061235
0.0160829
0.00147708
0.00296465
0.0127994
0.00149655
0.0143438
0.00305043
0.0027963
0.0151934
0.0162346
0.00145566
0.0037302
0.000997584
0.00344508
0.00266307
)
;
    }
    procBoundary3to2
    {
        type            processor;
        value           nonuniform List<scalar> 
29
(
0.00134487
0.00134487
0.000516968
0.00049637
0.000917041
0.000455224
0.000674847
0.00163476
0.00229312
0.0016584
0.00126137
0.00166087
0.00104213
0.00323707
0.00180819
0.002898
0.00172516
0.0021357
0.00144175
0.00261208
0.00239759
0.00172516
0.000344535
0.0021357
0.00114696
0.000876013
0.0021357
0.00310709
0.00310709
)
;
    }
}


// ************************************************************************* //
