/*--------------------------------*- C++ -*----------------------------------*\
| =========                 |                                                 |
| \\      /  F ield         | OpenFOAM: The Open Source CFD Toolbox           |
|  \\    /   O peration     | Version:  v1912                                 |
|   \\  /    A nd           | Website:  www.openfoam.com                      |
|    \\/     M anipulation  |                                                 |
\*---------------------------------------------------------------------------*/
FoamFile
{
    version     2.0;
    format      ascii;
    class       surfaceScalarField;
    location    "0.05";
    object      phi;
}
// * * * * * * * * * * * * * * * * * * * * * * * * * * * * * * * * * * * * * //

dimensions      [0 3 -1 0 0 0 0];
oriented        oriented;


internalField   nonuniform List<scalar> 
2708
(
-0.00019122
-1.28636e-06
9.27352e-05
9.97712e-05
0.000114649
0.00035187
-0.000306846
-0.000159673
-0.000111372
-3.04273e-05
0.000121961
1.98378e-05
-0.000339159
0.000332874
-0.000103207
0.000109493
-1.59153e-05
-7.34261e-05
-2.98018e-05
0.000119143
0.000636052
-0.000596609
0.000204378
-0.000243821
0.000213154
-0.00018037
0.000170939
-0.000203723
-0.000180479
0.000399972
-2.94151e-05
-0.000190078
-0.000244112
0.000264159
0.000344218
-0.000364265
0.000140652
0.000328962
-0.00025646
0.000794259
-0.000831142
0.000311927
-0.000275044
0.000377666
-0.000419279
0.00100074
-0.000959122
-0.000267427
0.000333757
-0.00029409
0.000227761
-2.07842e-05
9.03539e-05
8.99225e-05
-0.000159492
0.000109178
-0.000135081
-5.13001e-05
7.72029e-05
0.000266238
0.000108477
-0.000234063
-0.000340728
0.000299573
-0.000120452
0.000161607
-3.01346e-05
2.86143e-05
-9.89257e-06
1.14129e-05
0.000222703
1.02866e-05
-0.000243728
1.07391e-05
2.57375e-05
-7.29226e-06
-2.04168e-05
1.97149e-06
-0.000418048
0.000628492
0.000583815
-0.000215351
1.26049e-05
0.000181961
-0.000363972
-0.000136015
0.000283857
0.000216131
-0.000273519
-0.00125086
0.00129874
0.000225647
-0.000385612
-0.000222472
-0.000119031
1.12145e-05
0.000207077
-9.92609e-05
-0.000802291
-0.000168442
0.000139591
-3.97447e-05
6.70522e-05
3.71447e-05
-6.44522e-05
1.37084e-05
-0.000180137
0.000166429
-1.81653e-05
-0.000507243
0.000525408
0.000403961
4.69847e-05
-6.58296e-05
-0.000385116
-0.000299189
7.82784e-06
-5.69597e-06
0.000297057
0.000433316
6.58406e-09
-2.14946e-06
-0.000431173
-0.00028101
0.000257788
5.38732e-05
-3.06503e-05
0.00051675
0.000138577
-0.000596063
-5.92639e-05
-0.000117249
0.000274023
-0.00019543
3.86563e-05
0.0001711
0.000360165
-0.000139497
-0.0001218
7.80198e-05
8.8933e-05
-4.5153e-05
-0.000186639
0.000224108
0.000117527
-0.000154996
6.07167e-05
0.000305656
-0.000346622
-1.97509e-05
-0.000218864
0.000195464
0.000259632
0.000308871
-0.000211178
-0.00017528
-0.000134354
-7.69443e-05
7.8338e-05
0.00013296
-0.000462643
0.000441525
-0.000404977
0.000426095
-1.22479e-05
4.08696e-05
7.15374e-07
-2.9337e-05
0.0001988
-0.000364328
-6.72998e-05
0.000232828
-0.000757559
0.000105206
-0.000149937
0.000147627
-0.000173193
-0.000154804
5.46766e-05
9.12751e-05
-6.61985e-05
-7.97532e-05
-0.000111706
-0.000335362
0.000402352
4.47172e-05
0.000174254
-0.00014986
-0.000129649
0.000105254
0.000398436
-0.000282014
-0.000178215
6.17933e-05
9.06614e-06
0.000492627
-0.000216412
-0.000285281
7.13912e-05
0.00034585
-8.87078e-05
-0.000328534
7.49253e-05
7.74057e-05
-0.000122253
-3.00777e-05
0.000115615
-0.000174282
-6.70432e-05
0.000125709
-0.000723718
-0.000510431
0.000733439
0.000500709
0.000390636
-8.58557e-05
-0.000304781
4.53099e-05
-6.39868e-06
-3.89112e-05
6.94333e-05
0.000210443
-9.46409e-05
-0.000115802
7.50889e-05
-8.93337e-05
1.42448e-05
-8.44397e-05
-3.73601e-05
-0.000104915
-8.17238e-05
0.000145789
0.000110715
0.000125835
-1.28817e-05
0.000176791
-2.06474e-05
-3.58017e-05
4.14039e-05
-5.60224e-06
0.000100141
-0.000103442
3.30132e-06
-0.000230848
-9.81046e-06
0.000240659
-0.000196628
-8.43824e-05
0.000247554
-5.06418e-05
9.53814e-05
0.000162406
0.000101422
-1.10681e-05
-2.14264e-06
-1.01053e-05
9.19565e-05
-6.5391e-06
-8.54174e-05
0.000160205
-2.86372e-05
-0.000131568
0.000251054
7.79081e-05
-2.5414e-05
-4.72061e-06
-0.000285929
-5.47992e-05
-5.5087e-05
5.4431e-05
6.56014e-07
-0.0001166
6.03906e-05
0.000602756
-0.000546546
-0.000391032
0.0004994
9.04321e-05
-8.91801e-05
5.76075e-05
0.00115806
-0.00112648
1.00968e-05
0.000355139
-1.09458e-05
-0.00035429
0.000266845
-1.46681e-05
1.04084e-05
-0.000262585
8.22785e-05
-0.000107007
3.08922e-05
-6.16379e-06
4.11979e-05
1.36347e-05
-0.000938892
0.000884059
-6.87402e-05
1.89143e-05
-0.000769895
0.000819721
4.86683e-05
0.000149517
-8.25695e-05
5.87118e-05
-3.11291e-05
2.10856e-05
-3.89155e-06
-2.19306e-05
0.000103842
-6.47267e-05
0.000127577
-0.000230661
0.00016781
0.000343663
-0.000318279
4.60069e-05
1.26231e-05
-0.000380679
0.000368056
-0.0005769
-0.000224004
-0.000477789
0.000541659
0.000160135
-0.000147473
-0.000130554
0.000143673
6.71404e-05
-5.87374e-05
-8.40297e-06
0.000258275
-0.000111071
-7.22792e-05
0.00019465
-0.000131681
-0.000287579
-6.49888e-06
1.21237e-06
0.000292865
-2.41018e-05
-1.9367e-06
-1.0584e-06
2.70969e-05
0.000126844
8.44094e-05
-5.10484e-05
-0.000345225
-4.93964e-05
0.000352768
4.18531e-05
-3.45113e-05
0.000310962
-0.000298185
2.17346e-05
-0.000118423
0.000532941
-0.000580935
0.000166416
0.000318443
-8.65163e-05
-0.000367942
0.000292428
-0.00018937
2.73507e-05
-6.14262e-06
-0.000333175
0.000226672
0.00044026
-0.000103085
-3.96597e-06
-3.16764e-05
0.000138727
-0.00018159
0.0001793
0.000197754
7.88701e-05
0.000381629
-1.8058e-05
-0.000106706
-9.1605e-05
0.000327116
-0.000317019
-9.35085e-06
-8.27066e-06
0.000108411
-2.40044e-05
-0.000111076
0.000329918
-0.000320852
-2.02001e-06
-5.09535e-05
4.11431e-05
0.000228263
2.27906e-05
-1.94155e-05
-4.8556e-05
-0.000105873
0.000103129
-1.15923e-05
-8.26019e-05
6.3767e-05
-0.000149522
0.000252196
5.04448e-05
-0.000153119
7.39205e-05
0.000225653
2.23892e-06
2.63754e-05
-0.000339947
-9.41692e-05
0.000284594
-1.41665e-05
-0.000236392
0.000473261
-4.19911e-05
-2.83469e-05
9.60755e-05
2.52546e-05
7.69909e-05
5.60543e-06
-4.68089e-05
5.79635e-05
-0.000105714
9.45596e-05
0.000178908
-0.000119237
-0.000154313
0.00120397
0.000123955
-0.00117701
-0.000150917
8.50414e-05
7.3562e-05
0.000150546
0.000489935
3.76077e-05
2.30644e-05
-0.000550607
-8.15086e-05
0.000206208
0.000159157
4.43912e-05
0.000401548
2.71508e-05
-0.000203566
0.000298544
0.000163298
0.000279419
1.43463e-05
1.48081e-05
5.0679e-06
-4.66026e-05
0.000338498
9.12816e-06
-0.000301023
-5.15761e-05
0.000378692
-0.000267979
-4.23351e-05
8.54059e-06
0.000301774
-0.000145385
0.000112693
1.07613e-05
-0.00112445
-0.000134474
0.00109623
0.000162697
0.000383044
0.000513095
-0.000424099
-0.00047204
-0.000102329
5.60214e-05
-0.000677054
0.000723362
-0.000283268
0.000278441
-3.58562e-06
8.41275e-06
0.00101062
-0.000894889
0.000133352
-0.000249078
-0.000295139
-0.000325652
0.000326701
0.000287439
-0.00027012
-0.00013807
0.000120751
-8.20464e-06
-0.000282902
0.000281987
9.11974e-06
-8.61063e-05
0.000416025
-0.000362878
9.39431e-05
7.7715e-05
0.000368431
5.41016e-05
0.000116378
-9.90615e-05
0.000483895
-0.000484995
-8.8208e-05
8.93071e-05
-6.60636e-05
-0.000902041
1.49727e-05
0.000953132
-0.000220859
-0.000396215
0.000413508
1.60702e-05
0.000349518
-8.79492e-06
-0.000356793
0.000260197
-0.00148371
2.06534e-05
0.00120286
0.000460285
-0.000252817
0.000144402
0.000292552
-0.0011568
-6.04444e-05
-0.000293244
1.37413e-05
0.000558599
-0.00038519
-4.16749e-05
0.000391411
4.87001e-05
0.000404143
2.7874e-05
-0.00034038
-9.1637e-05
-0.000110671
0.000101835
0.000189946
0.000110357
-0.00022369
0.000209553
-9.62204e-05
0.00122552
-0.0012137
-0.000285337
0.000278121
-0.000177054
0.000457532
-0.000157365
0.000122853
-0.000231
0.000112577
0.000148089
0.000695239
-0.000421482
0.000164698
-4.39575e-05
0.000300741
-1.74084e-05
-6.25424e-05
-0.000995703
0.00107565
0.000449687
-0.000461158
5.5862e-05
0.00034716
-0.000293837
-1.68515e-05
-3.6471e-05
0.000311545
-0.000433925
0.000183097
0.000445846
-6.14276e-05
0.000148522
1.58546e-05
0.000319841
0.000799495
-0.00060624
-0.000351137
-0.000325683
0.000452815
0.000525991
-0.000507127
-3.5535e-06
-1.5311e-05
3.52175e-05
-9.67588e-06
1.58623e-05
-7.85443e-05
7.10075e-06
2.46816e-05
4.67619e-05
0.000226249
-0.000157752
-2.34136e-05
-4.50839e-05
-7.39548e-05
0.000285531
7.58624e-05
-0.00052558
-0.000326748
0.000638944
0.000213384
-2.1361e-05
0.000284818
-0.000272142
8.68494e-06
-7.08425e-05
0.000274328
-0.000328168
0.000124683
-3.80494e-05
0.000441199
-0.0004274
2.42499e-05
8.6746e-05
-0.000284086
0.000274462
-7.71221e-05
-4.90141e-05
-3.28557e-05
4.27336e-05
3.91362e-05
0.0011239
-0.00113184
-9.22577e-05
0.000100194
-8.87539e-05
8.92327e-06
-5.26255e-05
4.20787e-05
1.05468e-05
-5.3177e-05
8.76082e-05
-0.000304551
0.00032223
-3.89587e-06
-7.37158e-06
-0.000296738
-7.57578e-05
2.72713e-05
-0.000115914
-0.00111912
0.00114585
-1.88105e-05
-2.36621e-05
0.000109613
0.000351502
-0.000107254
-0.000290851
0.000103475
0.000538389
-0.000115872
0.000316741
-0.000219499
0.000264166
-0.000361408
0.000188037
-0.00047602
-0.000237596
0.000159108
0.000157337
-0.000279375
-3.70703e-05
-0.000109896
5.96182e-05
0.000160635
0.000204444
-0.000191178
0.000238315
-0.000251582
-1.61857e-05
0.000288973
1.53164e-05
-0.000288103
-0.000351101
0.00024223
-0.00112538
0.00116484
-0.000155376
-0.000474707
0.000578316
-0.000430357
-0.000105086
0.000111192
-0.000183335
3.01849e-05
0.000310487
-0.000423239
4.81815e-05
0.000563094
-1.79874e-07
-0.000385174
0.000524654
-0.0001393
-4.11995e-05
2.45186e-05
0.000420642
-1.86074e-05
-0.000341924
0.000322482
0.000217659
-7.99051e-05
0.000173791
4.88173e-06
-0.000296651
-7.41982e-06
-0.000783302
-0.000145745
0.000837429
9.16186e-05
0.000334441
4.05408e-05
-5.27517e-05
2.32047e-05
-0.000184471
-0.000135472
-7.28841e-05
0.000246089
0.000276483
-0.000225669
0.000146764
0.000158049
-7.91433e-05
-0.000280586
0.000291248
-7.11062e-05
-0.000300159
0.000342589
0.000290746
-0.000333176
0.000120975
-0.000122456
-0.000200013
0.000301202
-7.79841e-05
-5.82514e-05
-6.98178e-05
0.000171133
1.02741e-05
-0.000111589
-0.000219785
0.0001782
-0.000239091
0.000699834
7.90319e-05
-0.00023237
-0.000126036
-7.41604e-05
-6.97895e-05
0.000118271
-9.70379e-05
-0.000318836
0.00111993
-0.000759901
-0.000291907
4.33776e-07
0.000303536
-1.08956e-05
-9.35572e-06
-1.99521e-05
-0.000404342
2.1599e-05
0.000347433
3.53101e-05
-0.000298001
-2.2696e-06
8.3639e-06
-0.000212045
0.00120066
0.000176226
-0.000676475
0.000810478
-0.000345374
0.000211372
4.32267e-06
7.14204e-05
6.93341e-05
-5.41271e-05
-8.66274e-05
8.83903e-05
-0.00036813
-0.000174023
0.000267073
-3.55868e-05
-0.000279018
-8.53026e-05
-0.000186767
-0.00049501
-0.000455717
0.000168235
-0.000323164
-0.000239205
0.000394134
-3.53145e-05
0.00017279
0.00030837
9.89732e-05
-0.000678332
-7.55307e-05
-9.87511e-05
0.000141564
9.53704e-05
0.000302159
0.000109612
-7.73307e-05
-0.000309197
-8.63569e-05
-0.000271957
0.00011585
-6.95625e-05
0.001169
-0.00022445
-1.45287e-05
0.000320089
0.00140305
-0.000109985
-0.000124061
-0.000523405
-9.59047e-05
-7.02047e-06
0.00062633
-7.17966e-05
5.31892e-05
-0.000118957
0.000159498
-0.000422612
0.000446279
-0.000244526
-0.000196305
0.000139297
-0.000247858
0.000304866
1.11566e-05
0.000317508
0.00032265
-0.000184532
4.93913e-05
-0.00018751
0.00031368
-8.54086e-05
-0.000296664
6.83925e-05
-0.000202582
0.000634946
-0.000548965
-0.000305445
6.25368e-05
-0.000161434
-0.000337399
6.58237e-05
-9.50965e-05
0.00109236
-0.00106308
0.000303096
-0.000196868
-0.000265901
-1.37966e-05
-0.000225016
0.000216727
-0.000357227
0.000365517
6.60261e-05
-0.000522248
-0.000100444
-0.00036234
7.85421e-05
0.000384242
1.52999e-05
-0.000676135
2.85097e-05
-0.000248915
0.00024171
-0.00047271
9.82908e-05
-0.000255655
-2.05214e-05
-4.17974e-05
4.35083e-05
-0.000109788
3.79916e-05
0.000204042
0.000320329
-0.000225827
-0.000156613
0.00014982
6.79291e-06
8.12167e-05
-0.000322997
-6.74166e-05
-0.000248404
0.000322633
5.27947e-05
-0.000127024
-0.000218395
-0.000303485
0.000132352
0.000389529
-0.000301122
-1.30649e-05
-0.000373819
-0.000316498
0.00024032
0.000171813
0.000308159
-0.000437719
0.000100814
-0.000661946
0.000743308
0.000238479
-1.23923e-05
0.000240656
-5.61168e-05
-5.11495e-05
1.5835e-05
0.000368158
-0.000362101
0.000258102
-0.000589522
0.000329865
-0.000150336
-0.000459916
0.000103126
6.63626e-05
8.52005e-06
-2.5072e-05
5.84934e-05
-4.19415e-05
-0.00048047
0.000618843
0.000680571
-0.000818944
0.000401367
-0.000425059
-0.000350127
0.000294756
-8.47827e-05
4.20181e-05
-2.7293e-06
1.51422e-05
0.000297275
-0.000100086
-0.000297633
-0.000314471
0.000137141
0.000364914
-0.000187583
0.000113518
8.44326e-06
-1.67193e-05
0.000384325
-0.000256711
-0.000361532
0.000233919
0.000543628
-0.000533773
0.000125889
-0.000135744
0.000377721
-3.42266e-05
-3.99586e-05
0.000159184
-0.000234942
4.42718e-05
-1.30987e-05
-3.67753e-05
0.000375417
-0.000240431
-0.000360002
5.37489e-05
-0.000179086
-3.96698e-06
0.000129304
-0.000276206
-3.99674e-05
-0.000254593
-6.46541e-05
-0.000295812
0.000268901
0.000247517
-0.000220606
-0.000166942
-0.000718689
-0.000351283
0.000349631
-0.000312818
-2.97687e-05
-4.14012e-05
-0.000260894
4.77027e-05
-0.000288963
0.000369296
-0.000637466
0.000557133
-0.000125999
0.000330465
-2.51659e-05
-0.000264084
0.000237068
0.000395174
-0.000464479
0.000233815
0.000476752
-2.13749e-05
-0.00026185
0.000780662
-0.000532508
0.00115489
-0.000336693
-0.000614216
-0.000126252
0.00034095
9.83089e-05
-0.000313007
7.39023e-05
-9.72322e-05
0.000560806
-0.000537476
-4.79096e-05
1.95099e-05
4.31327e-05
-1.47331e-05
0.000380331
-8.96654e-05
6.60958e-06
0.000461455
0.000355574
-0.000446804
-0.000370225
-2.21334e-05
2.18115e-05
-4.75877e-05
0.000240515
-0.00024185
-0.000181167
0.000182502
0.000294619
-9.45538e-06
0.00123479
-0.00151996
-0.000110561
0.000110381
0.000111621
-0.00123038
0.00110135
-0.000192362
1.68257e-05
-3.98144e-05
-0.000313846
-9.45597e-05
4.3116e-05
-0.000821349
0.00121185
1.36228e-05
-0.00040412
-0.000249388
0.000239193
-0.000519755
0.00042066
3.84422e-05
-0.000248437
0.000223703
-4.77481e-05
-0.000543255
0.000572838
0.000696394
-0.000716314
-2.02419e-05
4.72668e-05
-0.000100451
-0.000526415
7.71144e-05
0.001053
-0.000603704
-0.00033487
-0.000277489
0.000312201
0.000325204
6.77984e-05
0.00110012
-0.00108424
-0.000171253
0.000390782
8.80497e-05
0.000151046
-0.000230385
-8.70986e-06
0.000234529
-0.000175057
-0.000104491
4.50186e-05
-0.00023278
0.00112086
0.000331756
-0.000321588
-0.000305306
-0.000474925
0.000401763
-2.99266e-05
-2.43023e-05
0.000141443
-8.72138e-05
5.9265e-05
-0.000865381
-0.000785187
6.40506e-05
0.000384898
-8.91012e-05
-0.000359848
0.000434424
5.18046e-05
-5.95721e-05
-0.000426656
0.000351791
-7.24712e-06
-0.000225415
-0.000119129
0.000570829
-0.000659628
8.5246e-05
-0.000334644
-0.000317305
0.000317078
0.000295939
-9.88599e-05
-0.000352545
-1.44646e-05
8.68177e-05
0.000280192
-0.000500034
1.04018e-05
0.000137087
-0.000304491
-3.39187e-05
3.72875e-05
0.000863875
-0.000220339
-0.000126955
-0.000412595
0.000308852
-0.000177664
0.000281408
-0.000227408
3.00189e-06
-0.000188189
-0.000260957
0.000404851
0.000220347
-0.000431985
-0.000229225
0.000440863
0.000552151
-0.000534119
0.000337542
2.91342e-06
0.000343889
-0.000532973
0.000648389
1.54649e-05
0.000326127
5.84077e-06
-9.33482e-05
2.32222e-05
0.000146663
-7.65369e-05
0.000330374
-0.000142619
2.76392e-05
-0.000215394
-0.000495919
0.000119657
6.67135e-05
-4.08447e-05
-2.58688e-05
-9.63137e-05
8.42442e-05
0.000359268
-0.000108822
7.9928e-05
0.000520379
-0.000297762
-8.54763e-05
0.000354883
-0.000103806
0.00010819
-0.000324678
6.04096e-05
-4.25423e-05
0.000306811
8.74765e-06
0.000407094
1.5316e-05
-4.5188e-05
2.71427e-05
0.000435764
0.000242359
-0.000412688
-0.000265435
3.67869e-05
1.86672e-05
-0.000670646
0.000350673
-0.000112465
0.000116675
-5.72333e-05
0.000237877
0.000109173
-0.000292997
-0.000243834
-0.000141376
0.00035232
0.0003115
-0.000322541
-0.000125278
0.000128363
0.000347588
5.6704e-05
-5.21802e-05
-2.47657e-05
-1.98176e-07
4.71271e-06
-1.18068e-05
3.93867e-06
0.00024679
-0.000240442
-5.64932e-05
-5.38782e-05
7.28681e-06
-0.000231358
-0.00117916
0.000159658
-7.58363e-05
0.000283646
-7.38155e-06
-0.000200428
0.000268198
-0.000273776
0.000109433
-0.000103855
0.000318497
-0.000126135
9.24336e-05
1.21021e-05
0.000204741
7.64219e-05
0.000191444
5.06308e-05
-0.000330348
0.000265134
-0.000137871
0.000203085
2.97202e-05
-0.000141768
0.000272271
-0.000159236
2.87329e-05
0.000290522
-0.000167155
4.51372e-05
-0.000110251
0.000337385
4.02825e-05
-3.82179e-05
1.24758e-05
-1.45404e-05
0.00103723
0.000580778
-0.000319187
-0.00129882
5.0724e-05
1.137e-05
3.99776e-05
3.02564e-05
2.05164e-05
3.79324e-05
3.5422e-05
6.46075e-06
-2.80626e-05
-2.87305e-06
2.44749e-05
3.18222e-05
3.31319e-05
0.000167829
-0.000231024
-0.00034135
0.000404545
-0.000375734
0.000322298
1.08091e-06
5.23554e-05
-0.000413686
-4.71174e-05
8.50693e-05
-0.000128262
8.26656e-05
-3.48797e-05
8.04763e-05
-0.000181308
0.000180774
0.00012596
-0.000125425
-5.01829e-05
-7.49674e-06
9.37942e-05
0.000135136
0.000193264
-0.000303345
0.000204348
-9.33644e-05
-0.00117054
6.34527e-05
0.00109947
7.61989e-06
-1.48332e-05
1.77699e-06
-3.71266e-05
-6.14248e-05
-5.52846e-05
7.28369e-05
-6.85458e-05
8.74984e-05
-0.00010387
6.63271e-05
-7.49016e-05
0.000112445
-0.00125699
0.000107105
0.000131978
-0.000188987
0.000192145
4.54924e-06
-7.86247e-05
-1.00579e-05
1.9949e-05
-0.000113762
-2.24296e-07
-3.37852e-05
-0.00140401
0.000235408
-2.04303e-05
-0.00011789
-0.000426832
-0.000853224
0.00017181
-0.000168568
-8.01858e-05
0.000100288
-1.6753e-05
2.7692e-06
0.000157321
-0.000109391
-0.000118145
7.0215e-05
-0.00137236
0.000306975
0.000849549
-0.000619571
0.00080725
0.000128341
2.21911e-05
-8.66311e-05
0.000127638
-8.78155e-05
2.12038e-05
-1.38444e-05
0.000163313
6.4553e-05
0.000120398
9.06714e-05
-3.48532e-06
2.18161e-05
-0.0010325
0.000509685
-0.000185537
0.000167166
-9.88792e-05
-4.96536e-05
3.77653e-05
9.00618e-05
0.000206011
-0.000175675
5.97921e-06
-1.47128e-05
-2.55656e-05
9.01161e-05
-8.48814e-05
-1.81845e-05
-1.23382e-05
-7.77085e-05
0.000108231
-0.000870998
0.000149399
-0.000107064
-0.000227871
6.83638e-05
1.34686e-06
-5.25805e-07
6.79632e-05
-9.70609e-05
2.96235e-05
0.000108002
-0.000165306
0.000123997
-6.66938e-05
6.99529e-06
-1.17495e-05
8.44061e-06
-5.23095e-07
1.23937e-05
-0.00140119
0.000211003
0.000151782
0.000111316
-0.000113699
0.000166381
0.000125389
-0.000233058
-8.79651e-05
-0.000301171
0.000287361
0.000101775
-4.33049e-05
0.000117034
-6.25151e-05
8.82463e-05
0.000108808
-0.000100779
1.28136e-05
-0.000398718
-0.000997368
-5.10297e-06
-0.00115783
-0.000459828
5.64913e-05
-4.44059e-05
7.18086e-05
0.000247139
0.000109609
-9.16411e-05
1.46928e-05
0.000106645
4.50433e-05
6.50873e-05
-0.000108918
2.21113e-05
0.000221114
-0.000239286
-1.63221e-05
-5.05928e-06
0.000114819
-0.000215598
0.000289269
0.000366647
8.80002e-05
-0.000274352
5.70725e-05
7.59779e-05
0.000198573
-0.00024628
-0.000775883
-0.000429286
0.000310212
-0.000245254
0.00020464
-0.000303579
0.000231756
-6.29229e-05
-0.000315523
5.81546e-05
0.000115952
0.000321694
-0.00032569
-9.0688e-06
-0.00155633
-0.000216918
0.00023047
-4.71879e-06
-4.86609e-05
1.99024e-05
-6.0747e-05
-6.10263e-05
-2.3326e-05
-0.000116112
-4.96403e-05
0.000189079
0.000190698
-0.000173944
2.76206e-05
0.000168732
2.22082e-06
0.000292151
-0.000378939
-0.000270109
0.000356897
9.08215e-05
-9.44414e-05
4.42703e-05
0.000522297
-0.000448395
6.02548e-05
0.000142464
-8.67668e-05
-4.35583e-05
5.6309e-05
-0.00028984
0.000387685
-0.000240465
2.3773e-05
-9.90059e-06
-1.38724e-05
-3.07043e-05
0.000340974
-0.000307356
-2.08879e-05
0.000202202
-0.000364653
0.000186463
1.35106e-05
-0.000322341
0.000254405
-0.000608315
0.000763233
-0.000154918
0.000199386
-0.000180375
-0.000347602
-6.40249e-05
-6.44469e-05
0.000476074
-0.000396589
0.000216082
-0.000154211
0.000334718
3.65865e-05
2.07482e-05
0.000338606
0.000270472
-0.000456366
0.000447316
-0.000261421
-9.34445e-05
3.44022e-05
7.32871e-05
0.00014023
5.85236e-05
0.000313346
6.07896e-06
6.85814e-05
0.000255366
-8.60177e-05
-0.000594141
0.000438006
-0.000261914
-2.14593e-05
-0.000281005
-0.00136279
-0.000303524
0.000711077
0.000326987
-0.000161452
-0.000262086
0.000297286
-0.000559124
0.000707146
-0.000135487
-0.000189597
0.000163632
0.000162459
1.44341e-05
7.61603e-05
-0.000351855
0.000344276
0.000115573
-0.000278898
-1.58429e-05
0.000179168
-0.000348177
0.000321667
-9.87676e-05
-0.000735588
0.000237923
0.000866961
-0.000117877
0.000298147
0.000221048
5.20384e-06
1.49754e-05
-7.50766e-05
6.01012e-05
0.000577071
0.000332077
-0.00034261
-5.23892e-05
5.07713e-05
0.000310585
-0.000361356
-8.30381e-05
0.000317705
-0.000401821
0.000103431
-0.000284774
-0.000355569
-0.000105073
0.000292096
-0.000327951
-0.000699733
-0.000568887
0.00051823
-0.000378629
0.000515696
0.000213417
-0.000486754
0.000293077
0.000316545
-0.000316089
0.00044374
-0.000115267
2.27435e-05
-5.07353e-06
-0.000120511
7.20345e-05
4.59761e-05
0.000113745
0.000341965
-0.000348842
0.000235537
-0.000266242
-0.000327646
-0.000505267
0.000396861
0.000372572
-0.000233357
-6.60641e-05
6.70508e-05
-0.000272215
0.000246108
-0.000291206
0.000317313
-1.79577e-05
-0.000195849
-3.24732e-05
0.000133061
0.000401359
-9.99965e-05
0.00105533
0.000186298
0.000348239
-0.000354256
0.000134381
0.000107956
0.00064126
-0.000607059
-0.000260838
0.000226637
0.000350104
0.000225386
-0.00022586
-0.00105181
0.00096595
0.000324157
-0.000600831
2.55036e-05
0.000327638
-0.000265897
-8.72447e-05
-2.47839e-05
-2.75324e-05
0.000130057
-7.89296e-05
-0.000240724
-0.000211264
0.000139501
-0.000428271
-7.73608e-05
0.000277189
-0.000363343
0.000422862
0.000384594
-0.000291989
0.000244368
-0.000336973
0.000125358
0.00100195
-0.000834761
1.68342e-05
-1.45987e-05
0.000287777
-2.25756e-05
-3.06722e-05
0.000486774
-0.000214214
0.000131582
8.83123e-05
-0.000236557
-0.000249529
1.78519e-05
-9.29285e-05
-0.000476161
0.000503611
-0.000238714
-0.00019967
6.76409e-05
-0.000153226
0.000628014
-0.000326226
-0.000255375
0.000309386
0.00010889
-8.85315e-06
5.00027e-05
1.20394e-05
0.000289937
2.06565e-05
0.000221613
8.97352e-05
0.000158885
-0.000147297
0.000286559
0.000187282
0.00020263
-6.82452e-05
0.000183214
0.000568592
0.000976
-0.00116158
-0.000114221
-0.000208088
-0.000405053
0.000248488
-0.000129125
0.000118138
0.000410259
-0.000282376
0.000507969
0.000275089
-0.000257656
-8.85393e-05
-0.000144338
0.000103743
0.000388833
-4.39592e-06
0.000239933
-0.000266561
-0.000289585
-4.06488e-05
-0.000455086
-0.000371357
-0.000348996
-0.000330927
8.08481e-05
0.000382801
-8.07544e-05
-0.000266736
0.000322127
-1.15424e-05
0.000425433
0.000296265
5.4294e-05
-0.000151931
-0.000906993
-0.000176759
0.000236337
-0.000217636
0.000108072
-0.000129463
1.08546e-05
0.000234611
0.00026192
-2.92963e-05
7.57616e-06
-4.48545e-05
0.00014115
0.000143641
0.000390532
5.00995e-05
0.000406644
0.000873678
-0.000816071
0.000432245
4.48497e-05
-0.000138489
8.78801e-05
6.08827e-05
0.000961838
-8.81592e-05
-0.000275873
0.00033017
0.00035268
-0.000289191
5.62086e-05
-0.000439435
-0.000317149
-0.000376748
-0.000747021
-6.90501e-05
-9.23715e-05
0.000147493
-5.9738e-05
4.61668e-06
-6.49696e-05
9.96796e-05
-3.37737e-05
-9.3625e-07
-3.04523e-05
0.000295056
-0.000403952
-3.28091e-05
8.78997e-07
-0.000297541
0.000324941
-2.74004e-05
-5.25549e-05
3.55491e-05
0.000185738
9.64347e-05
0.000101704
0.000357326
-0.000274452
-2.30888e-05
-0.000224187
0.000249003
-2.48161e-05
-0.000142732
-0.000461645
0.000509922
-4.82766e-05
-0.000242313
0.000161493
-0.000204688
-1.94994e-05
0.00103353
0.000417526
-0.000380751
-3.67753e-05
-0.000155932
-0.000446694
-9.44397e-05
-0.000364935
-2.54489e-05
-3.7362e-05
0.000277295
-9.86297e-05
0.00106047
-3.06444e-05
0.000352772
-4.41193e-05
0.000289509
-0.000235739
0.000258431
0.000109457
-0.000118264
-0.00036951
0.000378316
-0.000225765
-0.000144825
-0.000212172
-0.000485807
-8.53462e-05
-0.00025795
6.00297e-05
0.000236363
-0.000105789
0.00018763
0.000266531
-0.00029163
0.000111333
-0.000300775
-8.2515e-05
-0.000255751
-0.000200081
-3.94763e-05
-4.88357e-05
-0.000419764
-3.31351e-05
0.000533499
0.000351918
-0.000348049
9.47391e-05
-0.000143551
0.000198632
2.97358e-05
-0.0003623
0.000382663
-0.000130721
-0.00025374
-0.000158353
0.000119096
-6.95165e-05
-0.000463609
0.00048904
8.57607e-05
0.000306617
-7.77979e-05
0.000287562
0.000123669
-0.000194038
0.000105918
0.000110061
1.48391e-05
-2.8465e-05
0.000384952
-6.49886e-05
0.000570312
-0.000681197
1.20182e-05
0.000301761
-0.000278467
0.000269673
-0.000214113
-0.000195075
0.000470992
-0.000226351
0.00030965
-9.06815e-05
-0.000593316
0.000141086
5.46991e-05
-0.000359367
0.00030588
-3.33969e-05
3.21142e-05
0.000459702
-4.83823e-05
0.000179206
7.05619e-05
-0.000134296
0.000206198
-0.000157998
0.000138472
-0.00030062
4.87043e-05
-0.000119916
0.00029906
-8.28992e-05
0.000511957
0.000147457
-0.000327696
3.06238e-05
-1.90329e-05
2.02313e-05
-0.000445902
-0.000132917
-0.000175385
-0.000244399
0.000224871
0.000160718
-1.28824e-06
0.000118925
0.000182264
8.34905e-05
-6.52397e-05
-0.00020237
0.000130141
0.000117068
-0.000354649
-0.000236413
4.12807e-05
-1.41812e-05
0.000645795
0.000455873
7.65357e-05
0.000432786
7.04984e-05
-0.000173414
0.000204997
-0.000225284
2.0287e-05
-9.39232e-05
1.16894e-05
-0.000422988
0.000278853
0.000360862
7.72073e-05
-0.000213783
-0.000354836
0.000112604
0.000354917
0.000113516
0.000354677
-0.00129263
-0.000506074
0.000536385
-0.000433128
0.000555431
1.08755e-05
-0.00038452
-0.000291903
0.00035412
-8.91806e-05
-0.000183649
-0.000180608
4.72062e-05
3.08882e-07
3.02088e-05
0.000309667
-0.000327858
-0.000257483
0.000130502
-0.000176504
0.000332725
-0.00033216
-9.63353e-06
0.000225777
0.000101346
-3.80168e-06
-3.03923e-05
7.39603e-05
-0.000317346
-6.24507e-05
8.3207e-06
-0.000574768
-9.25757e-05
0.000296425
8.71901e-05
0.000407165
0.00012981
-0.000227889
0.000827435
-0.000832326
-1.30471e-05
0.000311607
-0.000179301
0.000188648
-0.00110132
0.000103178
6.84895e-06
-0.000322698
3.46997e-05
0.000281149
-7.49899e-05
0.0010822
-0.000330445
9.35446e-06
0.00016223
-0.000254331
4.51817e-05
-0.000368925
0.000346455
-7.3434e-05
-0.000146899
-0.000402668
0.000297681
-2.60734e-05
-0.000267592
5.40786e-05
0.000503351
2.14911e-05
-3.49078e-05
3.85633e-05
-0.000161503
0.000149639
0.000183145
0.000623643
-5.33307e-05
-0.000579629
-0.000101569
1.97411e-05
0.000314949
-0.000130919
0.000537439
0.000358319
1.39539e-05
-2.42555e-05
-0.000306695
0.000204815
-8.6071e-05
5.62811e-05
-4.45716e-05
-0.000389548
1.66791e-06
2.10755e-06
0.000107292
3.11076e-05
0.000177482
-0.000246753
-2.33052e-05
0.00024059
-4.79587e-05
0.000142378
-0.000851546
-6.19522e-05
0.000838508
-1.67839e-05
-6.1192e-05
-0.000780481
0.0010835
-2.21498e-05
4.9854e-05
2.55483e-05
-6.54518e-05
0.000129836
-3.27071e-05
-2.54881e-05
8.63536e-05
-4.25323e-05
0.000126952
0.000279717
5.67228e-05
-0.000245034
0.000184518
-0.000109756
0.000170272
-8.86757e-05
-1.33417e-05
-0.000121141
-3.56215e-05
-0.000351437
-0.000368502
-0.000265151
0.000388618
-0.000308482
-0.000256941
-0.000141754
0.000352162
7.08033e-05
-0.000281211
-0.000210517
-0.000171889
0.000160025
0.000222381
0.000306701
-4.49175e-06
-6.48338e-05
-0.000360256
0.000359059
-0.000252
-0.000483182
0.000362063
-0.000219574
-0.000321302
0.000338591
0.000211976
-4.48246e-05
-0.000356521
4.62764e-07
-4.00023e-05
0.000203679
-0.000118302
0.000353831
-0.000100585
-0.000358026
-0.000369267
-0.000178114
0.000999989
0.000333772
-0.000218857
-8.42497e-05
0.000142005
-0.000221127
-0.000489945
0.000760347
-0.00045374
0.000430949
0.000708038
-0.000609892
-9.8146e-05
-0.000244174
0.000266551
-2.23772e-05
-0.000213989
0.000185479
-0.000165144
-2.03356e-05
0.000807011
0.000271433
-0.000239754
0.000252413
-1.26594e-05
0.000255144
1.53901e-05
0.000297607
-4.51936e-05
-0.000561711
0.000912217
0.000344592
0.000546411
-0.000526982
-1.94283e-05
0.00036911
0.000265737
0.000259403
6.33395e-06
0.000382828
-1.37181e-05
0.000257079
2.32411e-06
0.000266994
-9.91535e-06
0.000276122
4.19965e-05
0.000823649
0.000536873
8.27941e-05
0.0001994
-1.32314e-05
0.000166926
0.000219374
-0.000244676
-4.19979e-05
0.00109782
-0.000166545
-8.43473e-06
3.80928e-05
0.000194045
-1.87766e-06
0.000567695
-0.000193365
-5.94186e-06
-5.57383e-05
5.54924e-05
7.34672e-06
0.000205511
7.3716e-05
0.000890763
-0.000914578
-0.000149242
0.000551138
0.000367334
-0.00014531
8.25148e-06
-1.35484e-05
-0.000124499
-5.94179e-05
-3.87544e-05
0.000272321
0.000563291
-0.000288291
0.000272193
-0.000265629
-0.000142434
-5.63565e-05
-0.00011776
0.000809258
-0.00105963
3.63579e-05
6.56864e-05
-0.000240756
0.000816325
-6.28608e-05
0.000386607
-0.00114007
1.90688e-05
-0.000114767
-0.000151685
-0.000366042
4.07098e-06
0.000258763
0.000334691
-0.000481694
-9.75279e-05
3.0002e-06
0.000132686
-0.000143475
0.000354126
5.27772e-05
-0.000405822
4.08192e-05
4.03619e-07
-3.94458e-05
9.31296e-05
-0.000109712
-0.000355795
-0.000159795
0.000337926
-0.00035381
0.000388046
-0.000170564
-9.01202e-05
4.13824e-07
1.49474e-05
1.63535e-05
0.000171382
-0.000267227
-3.03961e-05
-0.00025257
0.000247851
1.2635e-05
-8.19328e-05
1.71176e-05
-0.000221394
0.000229646
0.000281615
-0.000328211
-8.04062e-05
-0.00045427
4.54579e-05
0.00019989
-0.00025442
-6.59224e-05
1.59014e-05
-2.27901e-05
-3.00381e-06
-0.000376277
-0.000176489
-0.000355137
0.000108679
-7.05233e-05
0.000308697
8.44353e-05
0.000179072
-0.000227881
0.000416963
-0.000221089
0.000127629
1.41178e-05
0.000284058
-0.00011096
2.31439e-05
-8.49516e-05
-0.00031036
-2.56806e-05
-0.00017467
0.000142915
-0.000307352
-0.000150295
-0.000154389
4.66719e-06
9.9242e-06
-0.00021044
-0.000418907
-4.75993e-05
6.45501e-05
-6.47429e-05
0.000100332
-0.000314246
-0.000138879
0.000285604
4.06856e-05
0.0002831
-0.00018241
0.000141666
-3.43396e-05
5.86634e-05
0.00011724
-2.60829e-05
-6.97823e-05
0.000301808
-0.000270604
-1.15621e-05
7.61252e-05
-2.18294e-05
3.72705e-06