/*--------------------------------*- C++ -*----------------------------------*\
| =========                 |                                                 |
| \\      /  F ield         | OpenFOAM: The Open Source CFD Toolbox           |
|  \\    /   O peration     | Version:  v1912                                 |
|   \\  /    A nd           | Website:  www.openfoam.com                      |
|    \\/     M anipulation  |                                                 |
\*---------------------------------------------------------------------------*/
FoamFile
{
    version     2.0;
    format      ascii;
    class       volScalarField;
    location    "0.78";
    object      nut;
}
// * * * * * * * * * * * * * * * * * * * * * * * * * * * * * * * * * * * * * //

dimensions      [0 2 -1 0 0 0 0];


internalField   nonuniform List<scalar> 
1466
(
0.000733343
0.000555365
0.00129248
0.000466345
0.000966868
0.000934679
0.000823376
0.00162066
0.00244407
0.000722171
0.000776899
0.00213653
9.82383e-05
0.000515355
0.000742255
0.000594977
0.00023618
0.000487988
0.00202058
0.000455449
0.00158271
0.00212008
0.000258962
0.000730978
0.000569047
0.00385653
0.00535401
0.00194441
0.000399294
0.000473703
0.00133277
0.00161381
0.00241405
0.00130966
0.000548724
0.000703286
0.000583705
0.000741271
0.00252433
0.00191852
0.00215123
0.00150377
0.00150202
0.00185013
0.0021934
0.00107589
0.000987376
0.00041335
0.00126998
0.00165995
0.00173208
0.000347202
0.000537823
0.000692539
0.000441353
0.00231168
0.000480401
0.00296276
0.000954285
0.00217144
0.000448158
0.00047539
0.000922121
0.0010564
0.000525921
0.000485802
0.00236139
0.00139216
0.000554212
0.00134513
0.00283379
0.000555425
0.000564939
0.000651874
0.000171143
0.00171545
0.000624562
0.000615578
0.000969593
0.00234861
0.0014669
0.0006771
0.000761994
0.00107635
0.000642782
0.00158374
0.000636574
0.000545988
0.000691637
0.000717457
0.000497239
0.000291719
0.0024223
0.000451945
0.00148575
0.00129145
0.000427995
0.0011723
0.000836965
0.000463661
0.000504096
0.00220803
0.000792268
0.000231305
0.000837436
0.00132659
0.00116473
0.000790236
0.000889508
0.000679934
0.00072653
0.000737282
0.000814971
0.0008063
0.000112903
0.0051416
0.000285701
0.000410458
0.000750395
0.00358702
0.00104694
0.00074005
0.00024706
0.000557855
0.00070141
0.00209889
0.000611514
0.000384046
0.00244293
0.00505535
0.000859785
0.000580826
0.00054057
0.00228188
0.00217354
0.00238072
0.00171526
0.000614865
0.00189678
0.000293572
0.000360046
0.000275245
0.00241363
0.00246252
0.00202237
0.000245209
0.000257735
0.000779105
0.00204172
0.000603189
0.0023679
0.000770292
0.000696727
0.000481634
0.00063158
0.0047038
0.000573887
0.00486933
0.00114038
0.000722977
0.0021977
0.000487742
0.000488524
0.00122601
0.00215034
0.00232523
0.00375358
0.000145837
0.000452967
0.00567454
0.00132751
0.00153246
0.000673503
0.00168519
0.00414357
0.000562046
0.002033
0.00224071
0.000751689
0.00237343
0.000623484
0.00104069
0.0010284
0.00058782
0.000576468
0.000434665
0.00095523
0.00424303
0.000775621
0.000224627
0.000196613
0.000226724
0.000504144
0.000499056
0.00101865
0.000604073
0.00172683
0.000772004
0.000636934
0.00056471
0.00187576
0.00162802
0.000819276
0.000462599
0.000830033
0.00138771
0.00101543
0.00112082
0.00066021
0.000809955
0.000909897
0.00248775
0.00150437
0.000928349
0.000800382
0.000870066
0.000804368
0.00016641
0.000464296
0.000605007
0.00620004
0.000788076
0.000533865
0.00102901
0.00129607
0.0011421
0.000492905
0.000785896
0.000568271
0.00281453
0.000702863
0.000534271
0.000741728
0.00077424
0.000744707
0.000857969
0.000702222
0.000945967
0.00075924
0.00067826
0.00249431
0.000927519
0.000317666
0.00186225
0.00185047
0.000200654
0.000651297
0.000259863
0.000169922
0.000223012
0.00068943
0.00390382
0.00117147
0.000500064
0.000752961
0.0035647
0.000574263
0.00426374
0.00491311
0.00123868
0.000925073
0.000904245
0.00336393
0.000655142
0.000901196
0.000773581
0.00250428
0.00138057
0.00153175
0.000586075
0.00304127
0.000639246
0.000625862
0.000578961
0.000849478
0.00123414
0.000435541
0.000706366
0.000798159
0.00162685
0.000812534
0.000178628
0.000243582
0.000502366
0.00166332
0.000516106
0.00189333
0.000377947
0.00698202
0.000535287
0.00119675
0.0025459
0.00226776
0.0015234
0.00116522
0.00192202
0.00357348
0.00766294
0.00176605
0.000381774
0.000878723
0.00377217
0.000623027
0.00202667
0.000888691
0.00114729
0.000948836
0.000808066
0.000140672
0.00711381
0.00349733
0.00104039
0.00189584
0.00151264
0.000997444
0.0011683
0.00106445
0.00260532
0.00193192
0.000657616
0.00130491
0.00231123
0.00111574
0.000246305
0.000184488
0.000301053
0.000377693
0.000353275
0.000572734
0.000364905
0.000232667
0.000253925
0.000452571
0.000293906
0.000203532
0.000245918
0.000161257
0.000839763
0.000171195
0.000378507
0.000308351
0.000333985
0.000229025
0.000271901
0.000386644
0.00054364
0.000252516
0.000267014
0.00097188
0.00722977
0.00136244
0.000863715
0.00159778
0.00104334
0.000891225
0.00125747
0.00132732
0.000215353
0.00522271
0.00181681
0.00672916
0.00238957
0.00213892
0.000273035
0.00022794
0.000419051
0.00031787
0.000521658
0.000340785
0.000315916
0.000446544
0.000247763
0.000242804
0.00024473
0.000244426
0.000216748
0.000264756
0.00830195
0.000762126
0.000213353
0.000540206
0.0010762
0.00197719
0.0012747
0.000759362
0.00202727
0.000594497
0.0017692
0.00071011
0.00116752
0.00163833
0.00462506
0.00104381
0.00744898
0.000165317
0.000636967
0.00156784
0.00223644
0.000838385
0.000162476
0.000213054
0.00279978
0.00106466
0.000765415
0.00196522
0.0017138
0.00254834
0.00446541
0.0016336
0.00112687
0.00168145
0.000750717
0.000198357
0.00022986
0.00646554
0.00214453
0.0025377
0.00455778
0.00144369
0.00182557
0.00391997
0.000278119
0.00264154
0.0024877
0.00274363
0.00264053
0.00243738
0.002606
0.00220987
0.00187286
0.00131
0.00146676
0.0023767
0.0069647
0.0011462
0.00824179
0.00702372
0.00179617
0.00626449
0.0065425
0.00072878
0.000982936
0.00467155
0.00480813
0.00641292
0.00701048
0.00599624
0.00552321
0.00888856
0.00479115
0.00885905
0.00621741
0.00350783
0.00316674
0.0075159
0.00523979
0.00554607
0.00639438
0.000650554
0.00476091
0.00743432
0.00234416
0.00266645
0.00410435
0.00488785
0.000838662
0.00823455
0.00147575
0.00136087
0.000436724
0.007372
0.0055294
0.00417674
0.00408281
0.00174875
0.00169778
0.00055128
0.000495878
0.00206206
0.00160131
0.00141927
0.00155369
0.00136597
0.0017516
0.00205706
0.00124743
0.00168695
0.00209207
0.00107413
0.00181979
0.00196293
0.00116149
0.001798
0.00240715
0.000415329
0.00206414
0.00159981
0.00760992
0.000791079
0.000769357
0.000994135
0.00160068
0.000278642
0.000640073
0.00275978
0.00161456
0.00191533
0.00525352
0.00544188
0.00590387
0.00589127
0.00174242
0.00617852
0.00457864
0.00299934
0.00618551
0.000942247
0.00166762
0.00329032
0.00344718
0.00274506
0.00666508
0.00501005
0.00102995
0.000721385
0.00139582
0.00502421
0.00505771
0.000269392
0.00278697
0.00169118
0.00199357
0.00538116
0.00539208
0.00413261
0.00703566
0.00232502
0.00738333
0.00164436
0.00110003
0.00714868
0.00769976
0.00595594
0.00778952
0.00589516
0.00256369
0.000239924
0.00625289
0.00725852
0.00092435
0.00149293
0.000695919
0.00804722
0.00252054
0.00228832
0.00592334
0.00110166
0.00113499
0.00252995
0.00639443
0.00114627
0.00121085
0.00245973
0.0055472
0.00196598
0.00198269
0.00130313
0.000876195
0.00580582
0.00654542
0.000491594
0.00652113
0.00572752
0.00229151
0.000803435
0.00545089
0.000702033
0.00319579
0.00595887
0.0055861
0.00131481
0.000823409
0.00260973
0.00156162
0.000894971
0.00898533
0.00129916
0.0013377
0.00768861
0.00411047
0.000186117
0.000250809
0.00204872
0.00119741
0.000832676
0.00147581
0.00230939
0.00221032
0.00707235
0.00200196
0.00855652
0.000963803
0.00135718
0.000935027
0.00349492
0.00302746
0.00271648
0.00163718
0.0059988
0.00616752
0.00232031
0.00187809
0.00375795
0.0041494
0.000518714
0.00374798
0.00590426
0.000569762
0.00642829
0.00107222
0.00112023
0.00127356
0.000611352
0.00143532
0.00111746
0.00502439
0.000925302
0.000910745
0.00129394
0.00847995
0.00370193
0.0058364
0.00136874
0.000164499
0.00210034
0.00210191
0.00180737
0.00792619
0.000892899
0.00128141
0.00125932
0.00716189
0.000484127
0.00669563
0.00305971
0.00227476
0.00120923
0.00697245
0.00386554
0.00119678
0.000811597
0.00847282
0.0017863
0.00705774
0.00179071
0.00299076
0.00172955
0.00153715
0.00111009
0.00127191
0.000654257
0.00755274
0.00233526
0.000788502
0.00221879
0.00830739
0.00473876
0.000944377
0.00820555
0.00128964
0.000992697
0.000720641
0.000511047
0.00104128
0.000167599
0.000247244
0.00322072
0.00812386
0.000968081
0.00150567
0.00120083
0.0010183
0.00019658
0.00103529
0.00117164
0.00235791
0.00151893
0.00163182
0.0002057
0.000548003
0.000649038
0.0008481
0.00643608
0.00126755
0.00572211
0.000635356
0.0018319
0.000957519
0.0012447
0.00238593
0.00588753
0.000849037
0.00165284
0.00750134
0.00221755
0.000806187
0.0024698
0.00868743
0.00581617
0.00110848
0.00112899
0.000189025
0.00111402
0.00108555
0.00123506
0.000552748
0.0018886
0.006769
0.000724904
0.00591466
0.00235648
0.00271135
0.00158685
0.00250569
0.00579054
0.00121462
0.00252521
0.000789498
0.00698173
0.00175758
0.00457225
0.000654215
0.00180064
0.000134082
0.000126514
0.00407886
0.00014806
0.000130968
0.000892489
0.00903496
0.000199871
0.000163963
0.000111269
0.000157569
0.000180929
0.00149697
0.00017741
0.000604255
0.0040689
0.00218051
0.000851265
0.000229929
0.000574192
0.00201383
0.00251259
0.000627207
0.00576312
0.00333984
0.000786444
0.000595093
0.000216828
0.000408661
0.00144738
0.000397906
0.000772012
0.00295304
0.00149397
0.000225709
0.000905788
0.000757055
0.00283735
0.00149347
0.000552874
0.000236775
0.00160907
0.00112169
0.000777254
0.00203249
0.000776634
0.00218032
0.00261112
0.00735523
0.00012005
0.00018509
0.00193509
0.000927411
0.000998852
0.00130204
0.00448422
0.0002283
0.000765951
0.00101685
0.000699551
0.000629801
0.000494613
0.00357668
0.00376197
0.000920489
0.00249744
0.000213059
0.000216346
0.00220705
0.00120301
0.000867928
0.00069311
0.000209534
0.00630859
0.000696481
0.000842895
0.00317957
0.00384525
0.000163424
0.000833378
0.00667151
0.000494488
0.00164484
0.000589011
0.000209041
0.000469155
0.00182359
0.00289407
0.00088433
0.00352659
0.00228146
0.000175844
0.000185776
0.000840994
0.00120141
0.00131639
0.00169342
0.000705085
0.00194546
0.000718353
0.000719113
0.000880489
0.00055115
0.00250612
0.0017283
0.00043988
0.000540582
0.000175637
0.00130043
0.00215637
0.00473191
0.000420093
0.00218502
0.00209637
0.0022416
0.00481196
0.00217033
0.00737091
0.00148164
0.00234511
0.00705501
0.000167065
0.00241287
0.00185705
0.000326981
0.000746845
0.000208123
0.00146052
0.000371002
0.00706818
0.000545348
0.00125008
0.00103339
0.000617249
0.000661711
0.00262061
0.000527889
0.00142063
0.000277765
0.00684752
0.00190824
0.000700364
0.00146439
0.00071665
0.000570849
0.00339473
0.00420755
0.000753375
0.00123384
0.00488103
0.0016378
0.000696163
0.000696501
0.000437402
0.00258425
0.00424517
0.00140976
0.00116967
0.00150353
0.000535768
0.000545989
0.00138276
0.00352829
0.00429416
0.00480363
0.00627357
0.00130612
0.000816601
0.00175588
0.00139628
0.0035171
0.00278583
0.000235552
0.00157211
0.000715953
0.00231054
0.000759653
0.000861288
0.00189917
0.00415601
0.000187934
0.00173724
0.000142288
0.00164703
0.000678749
0.000544008
0.00087116
0.000537853
0.000810278
0.00558964
0.00440743
0.00655487
0.000474313
0.00129083
0.00136431
0.00185013
0.00393352
0.000783421
0.000566406
0.00100207
0.00517638
0.000173326
0.00367866
0.00157117
0.00421169
0.000934606
0.000129985
0.000124859
0.00012102
0.000123784
0.000201036
0.000168776
0.000214399
0.000206709
0.000138909
0.000196521
0.00020415
0.000148034
0.000153621
0.000155024
0.00082866
0.000150431
0.000146453
0.00218004
0.000172303
0.00216655
0.000165753
0.000219878
0.00846067
0.00173812
0.000839188
0.000655244
0.000225345
0.00618092
0.000492392
0.00178153
0.00113677
0.00020912
0.00203212
0.000198357
0.00211404
0.00238289
0.000206669
0.00132505
0.00100468
0.000233422
0.000679305
0.00665113
0.00255172
0.00387361
0.00423674
0.00140548
0.00146826
0.000690375
0.00087978
0.000900298
0.00302484
0.00068138
0.000622956
0.00021853
0.000238488
0.00668646
0.00240123
0.000171296
0.0084408
0.0053694
0.00281985
0.000225918
0.000236023
0.00281954
0.00120787
0.00232851
0.0005629
0.000607439
0.00168772
0.000792098
0.000175799
0.000999716
0.000194798
0.000224571
0.00215446
0.000572384
0.00130189
0.00137419
0.000995441
0.000790906
0.00318816
0.000694991
0.000430122
0.000481055
0.000459515
0.001785
0.00206878
0.00180524
0.00159681
0.000875302
0.0014496
0.00151339
0.00070871
0.0051561
0.000272888
0.000186333
0.0037112
0.00217514
0.000158633
0.000895658
0.00228274
0.00318777
0.000138307
0.00116915
0.00116129
0.00140657
0.00207926
0.000460315
0.000107874
0.00307631
0.00139491
0.00101902
0.00134058
0.0035381
0.00504973
0.00019697
0.00172038
0.00829535
0.00257996
0.000476112
0.00118524
0.00315942
0.000479886
0.000530942
0.00013803
0.0012178
0.00114063
0.000488802
0.00584928
0.00154646
0.00233545
0.000638815
0.000271299
0.0012238
0.00102225
0.00494905
0.0011653
0.00192172
0.00123114
0.000999361
0.000670693
0.00194924
0.000246162
0.000262208
0.00672302
0.000529633
0.00231412
0.00427032
0.00224239
0.000926965
0.000852203
0.00613218
0.00221287
0.00116846
0.00478975
0.00014857
0.000202724
0.00274683
0.00541605
0.00141741
0.00124776
0.000235487
0.000249303
0.00139205
0.00560077
0.00155758
0.000347654
0.000130276
0.000235721
0.00140178
0.000207332
0.00538138
0.00245385
0.0012417
0.000782509
0.00655558
0.000197721
0.000266272
0.000385779
0.000561141
0.00126901
0.000169312
0.000220189
0.00352525
0.000752513
0.000165583
0.000288529
0.000299759
0.00192559
0.000246473
0.00603587
0.000331075
0.000467168
0.000590263
0.004335
0.000308512
0.000336763
0.00195058
0.000182317
0.0089203
0.00358377
0.00020242
0.00107365
0.0012235
0.000561563
0.00102135
0.00199308
0.00011941
0.000769306
0.00290573
0.00028181
0.000763615
0.000199613
0.000493217
0.000704908
0.000204616
0.00282801
0.00019331
0.000401064
0.00084274
0.000717084
0.00106043
0.00530423
0.00322922
0.000263519
0.00292242
0.000603603
0.000208238
0.000519535
0.000560825
0.00163675
0.000154999
0.00134643
0.00378328
0.000618366
0.000191176
0.00157962
0.00139629
0.000827566
0.000385805
0.00394678
0.000310763
0.0019336
0.0006784
0.000340779
0.000155747
0.000419029
0.00261761
0.00068955
0.00483643
0.00064043
0.00177642
0.00069036
0.000698775
0.000196725
0.000755414
0.00617717
0.00410026
0.0052729
0.000363417
0.00246353
0.000594261
0.00482058
0.00111631
0.00139883
0.000855448
0.00070417
0.00052565
0.00680856
0.00429798
0.0041406
0.00108331
0.00162573
0.00301336
0.000845209
0.0050306
0.000702017
0.00264712
0.00389281
0.00247069
0.000167999
0.00100938
0.000532373
0.000660777
0.00082755
0.00382362
0.000446529
0.000166679
0.00840975
0.00489901
0.000566431
0.000904453
0.000965905
0.000281377
0.000423517
0.000379648
0.00237639
0.00189188
0.00121751
0.000640247
0.000481222
0.00213957
0.000643261
0.00531105
0.00775995
0.00501957
0.00651159
0.000928529
0.000975302
0.00155159
0.0010994
0.00288998
0.00358941
0.0014473
0.00684266
0.00369882
0.000868291
0.00104478
0.00254053
0.00312537
0.00352404
0.00141961
0.000622627
0.00129632
0.00181139
0.00295721
0.000852741
0.000909496
0.00238668
0.000122961
0.000105297
0.000767845
0.005016
0.0012374
0.000315854
0.00842912
0.00461657
0.00326049
0.000836043
0.000761041
0.000895917
0.0020555
0.00224442
0.000697045
0.00285597
0.000973977
0.000772332
0.00275841
0.00178482
0.000803688
0.000850942
0.00136788
0.00734998
0.00387125
0.000710062
0.00495983
0.00552205
0.00292447
0.000104758
0.00328129
0.000280393
0.00513434
0.00712903
0.000164154
0.000447896
0.00425934
0.0028408
0.00212198
0.00582791
7.90318e-05
0.00156811
0.00233891
0.000480248
0.000518456
0.000192497
0.000522407
0.00316514
0.00055415
0.00109795
0.000849036
0.00490362
0.00075709
0.00080979
0.00285051
0.000738441
0.00146776
0.0023619
0.000613205
0.00146222
0.000766507
0.00278493
0.000651823
0.00482636
0.000649725
0.000716614
0.00252415
0.000181523
0.00102357
0.00104682
0.000913918
0.000555166
0.000729729
0.00603788
0.000155144
0.00103714
0.0008903
0.000171604
0.000629638
0.00156625
0.00103056
0.00088779
0.00395477
0.000307182
0.00437811
0.00100885
0.000891051
0.00539853
0.0021283
0.00238002
0.00316267
0.00135972
0.000685363
0.000723095
0.000424835
0.00076789
0.000450064
0.000807674
0.00180382
0.00202275
0.00882236
0.000109588
0.000762026
0.000848921
0.00129222
0.00122675
0.000163274
0.000615704
0.000213413
0.00460543
0.000880119
0.000526393
0.000541682
0.000752079
0.00129682
0.00141411
0.00111549
0.000701557
0.000472126
0.00188317
0.000689477
0.00133721
0.000486736
0.000545868
0.000447082
0.00435089
0.00143713
0.000270035
0.000881413
0.000490387
0.0026645
0.000387535
0.00188856
0.00155195
0.00465572
0.000967693
0.00100687
0.00220949
0.000253177
0.000427504
0.000475001
0.00123368
0.000678483
0.000491378
0.00085676
0.00144076
0.000612235
0.000720351
0.000625905
0.0010234
0.00750976
0.00441505
0.00183004
0.000905808
0.000599855
0.000593181
0.000448971
0.0029024
0.00246283
0.000713338
0.00100711
0.00083329
0.000647394
0.000784827
0.000849829
0.000283583
0.000421193
0.000825564
0.000564488
0.000313915
0.00222649
0.000438113
0.000624456
0.000950132
0.000679718
0.00284067
0.00289609
0.00137685
0.000796811
0.00122818
0.000822737
0.000675808
0.00262523
0.000190568
0.00213151
0.00389886
0.00383859
0.000525724
0.00166548
0.00318246
0.00125506
0.000890226
0.000478362
0.000600915
0.000600973
0.00035482
0.000527131
0.000311378
)
;

boundaryField
{
    frontAndBack
    {
        type            empty;
    }
    wallOuter
    {
        type            nutkWallFunction;
        Cmu             0.09;
        kappa           0.41;
        E               9.8;
        value           nonuniform List<scalar> 
102
(
8.05524e-06
8.05524e-06
3.02817e-05
1.85559e-05
1.02366e-05
1.41331e-05
1.75434e-05
2.20189e-05
1.37133e-05
1.25129e-05
1.57661e-05
1.30263e-05
1.80181e-05
9.93041e-06
1.67908e-05
1.87915e-05
1.91548e-05
2.67253e-05
2.51102e-05
2.62357e-05
2.73617e-05
1.1226e-05
2.02161e-05
2.45161e-05
2.37232e-05
1.90391e-05
2.03437e-05
1.80075e-05
2.40055e-05
2.0567e-05
1.4433e-05
1.28959e-05
1.20401e-05
1.13691e-05
1.17752e-05
2.14372e-05
1.69577e-05
2.35392e-05
2.28526e-05
1.42426e-05
2.17544e-05
2.29868e-05
1.55249e-05
1.62564e-05
1.63846e-05
1.56758e-05
1.50641e-05
1.78048e-05
2.5234e-05
2.38179e-05
2.25458e-05
2.35328e-05
2.71134e-05
2.50538e-05
2.78225e-05
1.88636e-05
2.60858e-05
2.74988e-05
2.19124e-05
2.61469e-05
3.22113e-05
1.65667e-05
1.35775e-05
9.48818e-06
2.2549e-05
1.37837e-05
3.1829e-05
2.83563e-05
3.0883e-05
2.31778e-05
2.76307e-05
2.90594e-05
1.26462e-05
2.74295e-05
2.3609e-05
2.24125e-05
1.8313e-05
1.7727e-05
2.85116e-05
2.0352e-05
2.29395e-05
1.10743e-05
2.28227e-05
2.13166e-05
3.07808e-05
1.6562e-05
2.14406e-05
1.6159e-05
2.23138e-05
1.81904e-05
1.07471e-05
9.11551e-06
9.01723e-06
1.7462e-05
4.87673e-06
2.1658e-05
2.04536e-05
1.65952e-05
1.85132e-05
9.68345e-06
1.74391e-05
2.39943e-05
)
;
    }
    inlet
    {
        type            calculated;
        value           nonuniform 0();
    }
    outlet
    {
        type            calculated;
        value           nonuniform 0();
    }
    wallInner
    {
        type            nutkWallFunction;
        Cmu             0.09;
        kappa           0.41;
        E               9.8;
        value           nonuniform List<scalar> 
138
(
9.3149e-05
2.63271e-05
4.92117e-05
5.82629e-05
4.27639e-05
6.62332e-05
8.2662e-05
5.45533e-05
5.84329e-05
3.45837e-05
6.23436e-05
2.65399e-05
2.88948e-05
4.41578e-05
3.2438e-05
2.88676e-05
3.01982e-05
1.49851e-05
2.52029e-05
2.21972e-05
2.63686e-05
1.80645e-05
3.79308e-05
2.24227e-05
7.57939e-05
3.04173e-05
1.84606e-05
2.54906e-05
0.000105688
1.93626e-05
2.82572e-05
4.55806e-05
2.86492e-05
2.04059e-05
3.5576e-05
4.42267e-05
4.23598e-05
6.91922e-05
4.26097e-05
2.68678e-05
2.96133e-05
5.37476e-05
3.40177e-05
2.30098e-05
2.85574e-05
1.74137e-05
9.75883e-05
1.84815e-05
4.39628e-05
3.6748e-05
4.00024e-05
2.59117e-05
3.0529e-05
4.64746e-05
6.30866e-05
2.94683e-05
3.14556e-05
2.50514e-05
3.13611e-05
2.62109e-05
5.05294e-05
3.65075e-05
6.26024e-05
4.0905e-05
3.77214e-05
5.17482e-05
2.90036e-05
2.81719e-05
2.83923e-05
2.76508e-05
2.47681e-05
3.07585e-05
2.44861e-05
1.76361e-05
2.45547e-05
2.22506e-05
2.63451e-05
3.33229e-05
0.000133625
8.87813e-05
7.70448e-05
0.000100372
5.1302e-05
6.53064e-05
5.86051e-05
5.05458e-05
9.52654e-05
9.31262e-05
3.28309e-05
0.000120461
8.55074e-05
3.21385e-05
2.65791e-05
8.54428e-05
2.06067e-05
2.94832e-05
7.51046e-05
1.71681e-05
9.55966e-05
1.80627e-05
2.88646e-05
2.30768e-05
2.05149e-05
0.000104032
2.18033e-05
6.7911e-05
2.65035e-05
2.37063e-05
1.72611e-05
2.32454e-05
8.65823e-05
6.7433e-05
1.9395e-05
3.90722e-05
3.28032e-05
2.73451e-05
1.89915e-05
1.86161e-05
2.571e-05
1.94621e-05
5.73478e-05
5.63557e-05
2.08041e-05
7.93994e-05
1.53895e-05
2.43476e-05
3.35096e-05
2.26386e-05
2.41616e-05
3.70858e-05
1.86172e-05
5.25815e-05
0.000104825
5.86937e-05
7.37763e-05
4.37608e-05
6.48128e-05
3.7578e-05
)
;
    }
    procBoundary2to0
    {
        type            processor;
        value           nonuniform List<scalar> 
42
(
0.0082488
0.0082488
0.00057893
0.000488325
0.00234725
0.00679805
0.000588386
0.000588386
0.00175227
0.0014993
0.00525383
0.00525383
0.00370378
0.00659293
0.00774905
0.00476815
0.0089147
0.00149405
0.00154562
0.00183242
0.00122101
0.00141798
0.00141798
0.000997216
0.00122101
0.00112503
0.00185492
0.000846018
0.00185492
0.00887608
0.00909121
0.000730086
0.000779267
0.001042
0.00126063
0.000488325
0.0089147
0.000185071
0.00323798
0.000719524
0.000719524
0.00118613
)
;
    }
    procBoundary2to1
    {
        type            processor;
        value           uniform 0.00225334;
    }
    procBoundary2to3
    {
        type            processor;
        value           nonuniform List<scalar> 
29
(
0.00144969
0.00159729
0.000378121
0.000332319
0.000788721
0.000548123
0.00040915
0.00122481
0.00239036
0.00215485
0.000914672
0.00113706
0.00051396
0.00180088
0.00138614
0.00136717
0.00209953
0.00209953
0.00159729
0.00180088
0.00171644
0.00185992
0.000229231
0.00234236
0.000803279
0.00106094
0.00239036
0.00186168
0.00113706
)
;
    }
}


// ************************************************************************* //
